FOO
141312
    1MOL0     O    1   4.762   5.469   7.747  0.3931 -0.1576  0.0787
    1MOL0     C    2   4.669   5.538   7.700 -0.6482  0.7720  0.0648
    1MOL0     O    3   4.681   5.626   7.594 -0.3705 -0.4755  1.0865
    1MOL0     C    4   4.801   5.647   7.542 -0.6437  0.0953 -0.3013
    1MOL0     C    5   4.911   5.679   7.627 -0.6869 -0.6269  0.2360
    1MOL0     C    6   5.044   5.686   7.567 -0.5562 -0.8015  0.1472
    1MOL0     C    7   5.056   5.688   7.427  0.1116  0.0867 -0.8042
    1MOL0     O    8   5.180   5.735   7.377  0.0767 -0.4749 -0.9240
    1MOL0     C    9   5.204   5.737   7.241 -0.2955  0.6562  0.4745
    1MOL0     C   10   5.352   5.764   7.221 -0.1034  0.0605  0.0979
    1MOL0     C   11   5.394   5.907   7.255  0.0276 -0.0168  0.6166
    1MOL0     C   12   5.551   5.910   7.258 -0.1582  0.1983  0.1915
    1MOL0     C   13   5.617   6.050   7.271 -0.2429  0.2454  0.1494
    1MOL0     C   14   5.767   6.035   7.269  0.2997  0.0317 -1.1733
    1MOL0     C   15   5.851   6.167   7.270  0.2244  0.0780  0.3612
    1MOL0     C   16   5.982   6.130   7.332 -0.1775 -0.2525  0.0447
    1MOL0     N   17   6.044   6.020   7.259  1.0565  0.3335  0.2239
    1MOL0     C   18   6.117   6.032   7.145 -0.1844 -0.6076 -0.1861
    1MOL0     C   19   6.172   5.907   7.129 -0.4469 -0.0414 -0.0692
    1MOL0     C   20   6.258   5.865   7.013  0.2542 -0.2062  0.6155
    1MOL0     C   21   6.177   5.809   6.901 -0.4257  0.4879  0.4013
    1MOL0     C   22   6.062   5.904   6.858  0.0181  0.1913  0.7342
    1MOL0     C   23   6.002   5.868   6.716  0.5795 -0.0290  0.1105
    1MOL0     O   24   5.890   5.954   6.681 -0.0111  0.6091 -0.2396
    1MOL0     C   25   5.805   5.916   6.577 -0.3540 -1.0868 -0.6797
    1MOL0     C   26   5.846   5.848   6.463 -0.3910  1.1781 -0.8769
    1MOL0     C   27   5.762   5.820   6.354 -0.2884  0.0927 -0.5150
    1MOL0     C   28   5.814   5.762   6.227 -0.3399 -1.0367 -0.0477
    1MOL0     C   29   5.625   5.864   6.362  0.3874  0.3057 -1.3113
    1MOL0     C   30   5.537   5.860   6.247 -0.1673  0.3946  0.6047
    1MOL0     O   31   5.438   5.954   6.252  0.6901 -0.2523  0.3862
    1MOL0     C   32   5.349   5.960   6.143 -0.0233 -0.6523  0.0114
    1MOL0     C   33   5.391   5.997   6.013 -0.1275  0.3273  0.8644
    1MOL0     C   34   5.293   6.014   5.909 -0.5203  0.9121  0.4116
    1MOL0     C   35   5.149   6.009   5.934 -0.4007 -0.3956 -0.3310
    1MOL0     O   36   5.041   6.030   5.849  0.3734  0.2843 -0.2231
    1MOL0     C   37   5.062   6.052   5.711 -0.5300  1.3577  0.1798
    1MOL0     C   38   4.932   6.108   5.648 -0.0041  0.2207  0.5073
    1MOL0     C   39   4.938   6.098   5.496  1.1561 -0.1765 -0.4367
    1MOL0     C   40   4.840   6.193   5.428  0.1162  0.3739  0.3497
    1MOL0     C   41   4.889   6.338   5.429  0.0170 -0.1181  0.1337
    1MOL0     C   42   4.817   6.444   5.334  0.4150  1.1322 -0.9842
    1MOL0     C   43   4.672   6.463   5.391  0.1134 -1.5978 -0.3768
    1MOL0     C   44   4.638   6.613   5.407 -0.8161 -1.0003  0.8644
    1MOL0    Cl   45   4.462   6.638   5.417 -0.3086  0.0554  0.3426
    1MOL0     C   46   5.112   5.981   6.068  0.3660  1.1107  0.6701
    1MOL0     C   47   5.214   5.963   6.167  0.4985  0.3641  0.4656
    1MOL0     O   48   5.544   5.774   6.161  0.3333 -0.2079  0.4651
    1MOL0     C   49   5.586   5.930   6.486  0.6843 -0.5705  0.2348
    1MOL0     C   50   5.671   5.962   6.582 -0.5761  0.0144 -0.4445
    1MOL0     N   51   6.128   5.822   7.223 -0.2935  0.3296  0.4402
    1MOL0     N   52   6.051   5.890   7.299 -0.8476  0.0727 -0.5357
    1MOL0     C   53   4.948   5.648   7.347  0.1873  0.6249  0.4164
    1MOL0     C   54   4.826   5.620   7.405  0.4931  0.5038  0.5281
    1MOL0     C   55   4.532   5.496   7.751 -0.3441 -0.6324 -0.2404
    1MOL0     C   56   4.502   5.358   7.772  0.7455 -0.3020  0.1579
    1MOL0     C   57   4.377   5.326   7.815 -1.0519  0.6633 -0.1454
    1MOL0     C   58   4.273   5.425   7.835  0.1724  1.2227 -0.0422
    1MOL0     O   59   4.148   5.414   7.878 -0.2113 -0.3328 -1.2160
    1MOL0     C   60   4.078   5.290   7.915 -0.6425 -0.3263  0.5184
    1MOL0     C   61   4.035   5.219   7.789  0.6967  0.0033 -0.6126
    1MOL0     C   62   4.015   5.071   7.786  0.7243  0.3985 -0.0756
    1MOL0     C   63   4.142   4.977   7.792 -0.3488 -0.5783  0.1176
    1MOL0     C   64   4.234   5.019   7.689 -0.1192 -0.3696 -0.4357
    1MOL0     C   65   4.332   5.049   7.615  0.6782 -0.0429 -0.9770
    1MOL0     C   66   4.316   5.557   7.817 -1.0144 -0.5573 -0.1854
    1MOL0     C   67   4.441   5.601   7.782 -0.2298 -0.2962  0.7489
    1MOL0     C   68   4.478   5.747   7.780 -0.1582  0.3332  0.9036
    1MOL0     H   69   4.909   5.693   7.735 -1.6737 -0.8877  0.2528
    1MOL0     H   70   5.129   5.713   7.628 -0.3521  0.9483 -0.8406
    1MOL0     H   71   5.134   5.805   7.192 -2.7596 -0.8590  1.6422
    1MOL0     H   72   5.182   5.642   7.192 -2.2326  1.2945  0.0073
    1MOL0     H   73   5.406   5.683   7.271 -1.5386  1.1353  3.6830
    1MOL0     H   74   5.365   5.754   7.113 -1.5880  1.8923 -0.2999
    1MOL0     H   75   5.365   5.972   7.172  0.8765 -2.4747 -1.7746
    1MOL0     H   76   5.363   5.949   7.351  1.6010  0.0188  1.1417
    1MOL0     H   77   5.583   5.857   7.348  2.8858  2.5164  0.6353
    1MOL0     H   78   5.589   5.866   7.166  0.2228 -1.2631  1.0162
    1MOL0     H   79   5.593   6.089   7.371  2.1959  0.3619  0.7429
    1MOL0     H   80   5.578   6.115   7.192  0.7918  1.0236  0.2675
    1MOL0     H   81   5.782   5.974   7.359 -3.9174 -0.3536 -0.5510
    1MOL0     H   82   5.812   5.994   7.179  2.0631 -0.2782 -0.2147
    1MOL0     H   83   5.811   6.232   7.349 -1.7823 -0.6510  0.0138
    1MOL0     H   84   5.851   6.215   7.172 -3.5141  4.8571  2.2623
    1MOL0     H   85   6.041   6.222   7.330  1.3171 -1.1349 -2.3478
    1MOL0     H   86   5.967   6.103   7.437  1.1909  4.2655  1.6231
    1MOL0     H   87   6.131   6.127   7.095  1.4850  0.5190  2.2053
    1MOL0     H   88   6.336   5.797   7.047 -1.0932 -1.2784  1.7088
    1MOL0     H   89   6.311   5.956   6.987 -0.3641  0.7245  2.4630
    1MOL0     H   90   6.241   5.802   6.812 -1.5244  3.0598 -0.6833
    1MOL0     H   91   6.129   5.713   6.921 -0.8094  0.7343  0.6716
    1MOL0     H   92   5.977   5.892   6.925 -2.1042  2.6017 -1.3337
    1MOL0     H   93   6.085   6.011   6.851 -3.2272  0.9019 -0.6261
    1MOL0     H   94   6.087   5.869   6.647  2.4208 -1.9758  2.1344
    1MOL0     H   95   5.956   5.769   6.721 -2.4593  1.0939 -2.5605
    1MOL0     H   96   5.950   5.822   6.447 -0.4025 -0.6166  1.4875
    1MOL0     H   97   5.920   5.735   6.236  0.3323  0.5301 -2.2619
    1MOL0     H   98   5.812   5.836   6.146  4.0195 -1.9638 -1.3144
    1MOL0     H   99   5.761   5.670   6.202  0.1826 -0.9832 -1.4324
    1MOL0     H  100   5.496   6.014   5.993  0.3523 -1.5848  1.5041
    1MOL0     H  101   5.327   6.036   5.808  0.4408 -1.3768  0.1957
    1MOL0     H  102   5.152   6.105   5.679  0.7684 -0.8127  0.0252
    1MOL0     H  103   5.079   5.953   5.667  0.9854 -0.4398  4.3148
    1MOL0     H  104   4.841   6.059   5.687 -0.6406  0.2066 -0.9444
    1MOL0     H  105   4.921   6.214   5.671 -1.2333  0.8313 -2.5173
    1MOL0     H  106   4.906   5.996   5.471  1.4798 -0.9342  1.9240
    1MOL0     H  107   5.037   6.118   5.455  0.9083 -0.3275 -1.1212
    1MOL0     H  108   4.738   6.189   5.466 -1.3695  3.2192 -2.7878
    1MOL0     H  109   4.831   6.152   5.327 -0.6901  0.1944  0.4927
    1MOL0     H  110   4.889   6.366   5.535 -0.1113  1.7960 -0.3328
    1MOL0     H  111   4.994   6.334   5.400 -0.6468  0.0906 -2.5365
    1MOL0     H  112   4.804   6.407   5.231  1.4604  1.0135 -1.0821
    1MOL0     H  113   4.881   6.532   5.339  1.3122  0.4613 -0.3799
    1MOL0     H  114   4.649   6.408   5.483 -2.3076 -2.2543 -1.2708
    1MOL0     H  115   4.602   6.411   5.324 -1.6494  1.7529 -1.3437
    1MOL0     H  116   4.674   6.661   5.315  0.9670 -1.3303  1.3570
    1MOL0     H  117   4.684   6.656   5.496  3.0095 -1.6642 -0.5896
    1MOL0     H  118   5.011   5.978   6.107  0.5950 -3.0956  1.3233
    1MOL0     H  119   5.192   5.925   6.267  5.3938 -1.4174  1.1253
    1MOL0     H  120   5.488   5.976   6.492  1.8605  1.9255  2.8189
    1MOL0     H  121   5.634   6.020   6.665 -1.2795  0.5326 -1.1094
    1MOL0     H  122   4.962   5.628   7.241  0.8849 -0.5167  0.6991
    1MOL0     H  123   4.741   5.593   7.343  3.1230  1.2911 -3.7632
    1MOL0     H  124   4.578   5.286   7.745  0.4781 -1.3012  1.9138
    1MOL0     H  125   4.348   5.222   7.822 -0.7024  0.4780 -1.2525
    1MOL0     H  126   4.147   5.219   7.961 -0.7215 -1.4812 -1.0353
    1MOL0     H  127   3.988   5.313   7.972  1.4522  4.0425  2.5159
    1MOL0     H  128   4.099   5.243   7.704 -0.0783 -0.8165 -1.4556
    1MOL0     H  129   3.935   5.262   7.778  1.1543  0.6906 -2.4335
    1MOL0     H  130   3.955   5.047   7.874  0.7686  0.3550 -0.0572
    1MOL0     H  131   3.960   5.042   7.697  1.5275 -2.4240  0.2567
    1MOL0     H  132   4.121   4.870   7.779  1.1771 -1.2915  2.7147
    1MOL0     H  133   4.196   4.993   7.886 -1.2237 -0.4763  0.6073
    1MOL0     H  134   4.417   5.080   7.557  1.1778  1.5699  0.5256
    1MOL0     H  135   4.247   5.631   7.855  2.6098  1.5724  2.9695
    1MOL0     H  136   4.388   5.806   7.799  0.5719  0.7313  3.5872
    1MOL0     H  137   4.551   5.778   7.856 -1.9416  5.5946  0.8863
    1MOL0     H  138   4.519   5.780   7.685  0.0797 -0.9612  0.5320
    2MOL0     O  139   0.474  11.194   1.599 -0.4338  0.1696 -0.5758
    2MOL0     C  140   0.403  11.215   1.507  0.2740 -0.6489  0.6752
    2MOL0     O  141   0.430  11.196   1.366  0.4734 -0.5864 -0.1401
    2MOL0     C  142   0.540  11.121   1.327  0.6011 -1.2866 -0.0458
    2MOL0     C  143   0.567  10.992   1.381 -0.8010  0.4132  0.7216
    2MOL0     C  144   0.691  10.943   1.356 -0.0439  0.8673  0.0272
    2MOL0     C  145   0.780  10.996   1.261 -0.0122 -0.3182 -1.1043
    2MOL0     O  146   0.902  10.926   1.258 -0.1283  0.2052  0.1144
    2MOL0     C  147   1.018  11.010   1.225  0.3664 -0.0574 -0.1331
    2MOL0     C  148   1.056  11.002   1.077  0.8610 -0.6664  0.2361
    2MOL0     C  149   1.193  11.065   1.049 -0.2442 -0.5576  0.4902
    2MOL0     C  150   1.312  10.977   1.101  0.3662 -0.2523 -0.5665
    2MOL0     C  151   1.452  11.032   1.095 -0.2512  0.5747 -0.2228
    2MOL0     C  152   1.543  10.961   1.182 -0.4904 -0.3599  1.1068
    2MOL0     C  153   1.531  11.008   1.331 -0.3475 -0.4790  0.3704
    2MOL0     C  154   1.658  10.965   1.407  1.2274 -0.3604  0.7949
    2MOL0     N  155   1.665  11.016   1.542 -0.1071 -0.0806  0.3579
    2MOL0     C  156   1.719  10.936   1.643  0.0071 -0.4394 -0.7817
    2MOL0     C  157   1.733  11.026   1.751  0.4096 -0.1366 -0.2466
    2MOL0     C  158   1.758  10.990   1.903 -0.2712  0.5741  0.1920
    2MOL0     C  159   1.889  11.028   1.968  0.3760  0.0277 -0.0002
    2MOL0     C  160   1.918  10.930   2.088  0.0643 -0.0111 -0.2002
    2MOL0     C  161   1.799  10.902   2.181  0.5495  0.5408  0.1106
    2MOL0     O  162   1.720  11.020   2.219  0.4589  0.2437 -0.3680
    2MOL0     C  163   1.772  11.099   2.315  1.1435 -0.8477 -0.3415
    2MOL0     C  164   1.699  11.212   2.336 -0.2329 -0.1792 -0.8839
    2MOL0     C  165   1.733  11.311   2.436 -0.3082  0.0874  0.2160
    2MOL0     C  166   1.657  11.447   2.433 -0.0725 -0.1593 -0.5627
    2MOL0     C  167   1.841  11.279   2.519 -1.1206  0.2949  0.1765
    2MOL0     C  168   1.910  11.375   2.609  0.0640 -0.6091 -0.0398
    2MOL0     O  169   1.953  11.490   2.556  0.2188 -0.1514  0.9383
    2MOL0     C  170   1.983  11.588   2.642  0.0489 -0.3480 -0.1830
    2MOL0     C  171   2.117  11.619   2.655 -0.4949  0.2935 -0.1114
    2MOL0     C  172   2.163  11.722   2.745  0.7259  0.1596  0.2996
    2MOL0     C  173   2.078  11.762   2.851  0.3749  0.2322  0.4839
    2MOL0     O  174   2.115  11.842   2.954  0.0121  0.0322 -0.5932
    2MOL0     C  175   2.044  11.965   2.978  0.1038  0.3197 -0.8132
    2MOL0     C  176   2.147  12.068   3.035  0.6480  0.3111 -0.4303
    2MOL0     C  177   2.225  12.117   2.906 -0.4440  0.5717 -0.3869
    2MOL0     C  178   2.315  12.243   2.944  0.3034  0.0819  0.0648
    2MOL0     C  179   2.435  12.206   3.020  0.2903  0.4347 -0.7682
    2MOL0     C  180   2.552  12.315   3.023  0.2628  0.5249 -0.4552
    2MOL0     C  181   2.514  12.415   3.122  0.1289  0.3893 -0.0753
    2MOL0     C  182   2.634  12.503   3.155  0.1590  0.3854 -0.3229
    2MOL0    Cl  183   2.669  12.605   3.009  0.5238 -0.1816 -0.1773
    2MOL0     C  184   1.945  11.721   2.847  0.1977 -0.0871  0.3821
    2MOL0     C  185   1.893  11.642   2.737 -0.8956  0.4338 -0.0311
    2MOL0     O  186   1.952  11.331   2.714  1.1514 -0.0024 -0.2576
    2MOL0     C  187   1.919  11.167   2.497  0.2257  0.0257 -0.3804
    2MOL0     C  188   1.874  11.072   2.400 -0.7380 -0.6593 -0.4034
    2MOL0     N  189   1.673  11.145   1.714  0.8593  0.1431  0.1691
    2MOL0     N  190   1.639  11.146   1.586 -0.3670  0.5601  0.0446
    2MOL0     C  191   0.737  11.111   1.194 -0.0947 -0.1371  1.0766
    2MOL0     C  192   0.620  11.173   1.228 -0.4718  0.6467  0.0437
    2MOL0     C  193   0.274  11.292   1.521  0.0820 -0.1588 -0.4763
    2MOL0     C  194   0.188  11.301   1.414  0.1333  0.5601 -0.4629
    2MOL0     C  195   0.075  11.378   1.418 -0.0135  0.9395 -0.5000
    2MOL0     C  196   0.034  11.456   1.522 -0.4763  0.4007 -0.6241
    2MOL0     O  197  -0.070  11.546   1.523 -0.3576  0.6920 -0.3487
    2MOL0     C  198  -0.163  11.530   1.635 -0.5712 -0.0695 -0.0601
    2MOL0     C  199  -0.308  11.520   1.595 -0.2521 -0.8539  0.1162
    2MOL0     C  200  -0.361  11.640   1.523  0.1036  0.0722 -0.6659
    2MOL0     C  201  -0.510  11.634   1.500 -0.1369 -0.1402 -0.1789
    2MOL0     C  202  -0.555  11.527   1.406  0.4214  0.5586  0.2613
    2MOL0     C  203  -0.613  11.461   1.324 -0.0882  0.9701 -0.6953
    2MOL0     C  204   0.128  11.450   1.626  0.1838  0.6928 -0.7757
    2MOL0     C  205   0.243  11.374   1.632 -0.1123 -0.0504 -1.1340
    2MOL0     C  206   0.326  11.395   1.757  0.2492 -0.5613  0.1389
    2MOL0     H  207   0.516  10.947   1.466 -0.9387 -0.4645  0.1919
    2MOL0     H  208   0.728  10.854   1.407 -1.3666  0.7107  0.7649
    2MOL0     H  209   1.098  10.962   1.282  0.1914 -0.1408  0.0444
    2MOL0     H  210   0.996  11.113   1.254 -2.3964 -0.2440 -1.2772
    2MOL0     H  211   1.040  10.898   1.047 -0.5183 -0.3833 -0.0881
    2MOL0     H  212   0.987  11.071   1.029  3.3873  0.3808 -2.1918
    2MOL0     H  213   1.199  11.085   0.942  1.2654 -0.7167  0.5308
    2MOL0     H  214   1.199  11.166   1.088 -1.7306  0.2613 -1.2403
    2MOL0     H  215   1.295  10.959   1.207  5.4559  0.4859  0.6404
    2MOL0     H  216   1.304  10.882   1.048  2.4688 -0.0240 -1.3929
    2MOL0     H  217   1.438  11.138   1.117 -4.0966  0.0237  0.6945
    2MOL0     H  218   1.501  11.020   0.998  0.1830  3.4485 -0.4420
    2MOL0     H  219   1.542  10.853   1.164  2.6052 -0.3481  0.2536
    2MOL0     H  220   1.643  10.992   1.150 -1.5701  4.6698  1.8030
    2MOL0     H  221   1.440  10.973   1.381 -0.4694  1.3498  1.5283
    2MOL0     H  222   1.527  11.117   1.318 -0.7137 -0.8417 -4.9380
    2MOL0     H  223   1.669  10.856   1.408 -3.8313 -1.2451 -2.3515
    2MOL0     H  224   1.748  10.993   1.351  0.5141 -0.7444 -0.5732
    2MOL0     H  225   1.749  10.831   1.636 -2.6060 -1.2378 -0.9035
    2MOL0     H  226   1.750  10.882   1.919 -0.4431  0.4612 -0.6441
    2MOL0     H  227   1.674  11.040   1.951 -1.0297 -1.5872  1.2356
    2MOL0     H  228   1.969  11.016   1.895  2.0161 -1.1591  1.8789
    2MOL0     H  229   1.882  11.135   1.992  0.2011 -0.0852  0.4585
    2MOL0     H  230   1.952  10.834   2.049 -1.3139 -0.4074 -0.4635
    2MOL0     H  231   1.998  10.976   2.147  0.0359  2.3394 -1.8661
    2MOL0     H  232   1.731  10.827   2.140  0.2512  1.0497 -0.3315
    2MOL0     H  233   1.841  10.853   2.270  2.1878 -2.8628 -2.3530
    2MOL0     H  234   1.613  11.212   2.269  1.1620 -1.0598 -2.7705
    2MOL0     H  235   1.608  11.454   2.530  2.5169 -0.1559  0.8308
    2MOL0     H  236   1.595  11.456   2.343  0.1945  3.4028 -0.5287
    2MOL0     H  237   1.715  11.539   2.430  1.0178 -0.7539  1.0073
    2MOL0     H  238   2.181  11.551   2.599 -0.4523 -0.9772  1.4171
    2MOL0     H  239   2.270  11.740   2.746  0.4028  2.4830 -0.7508
    2MOL0     H  240   1.985  12.015   2.901  0.4123 -0.3718 -1.5094
    2MOL0     H  241   1.968  11.954   3.056 -1.6680  2.6319 -2.0749
    2MOL0     H  242   2.101  12.154   3.085  0.5097 -0.3046  0.5149
    2MOL0     H  243   2.210  12.021   3.111 -1.5526  0.6176  1.6883
    2MOL0     H  244   2.154  12.135   2.825  0.9029  1.5055 -1.3920
    2MOL0     H  245   2.294  12.039   2.872 -2.7343 -1.7024 -0.1104
    2MOL0     H  246   2.243  12.297   3.006 -1.1154 -0.4908 -1.0420
    2MOL0     H  247   2.336  12.303   2.855  1.4520  2.0965  1.6034
    2MOL0     H  248   2.405  12.185   3.124  1.6527 -0.6447 -0.5725
    2MOL0     H  249   2.462  12.111   2.973 -1.1795  1.1886 -3.2764
    2MOL0     H  250   2.564  12.362   2.925 -1.4513 -0.5541 -1.2304
    2MOL0     H  251   2.645  12.266   3.054 -0.8611 -0.6957  1.1695
    2MOL0     H  252   2.486  12.361   3.214 -0.6683  0.3273 -0.3459
    2MOL0     H  253   2.425  12.471   3.089 -1.5750 -1.3951  1.2348
    2MOL0     H  254   2.722  12.446   3.187 -1.8342 -2.5280  0.3906
    2MOL0     H  255   2.619  12.564   3.245 -2.2169 -0.4384 -0.1036
    2MOL0     H  256   1.886  11.754   2.932  0.3403 -3.3054  1.9144
    2MOL0     H  257   1.785  11.636   2.733 -0.9734  0.2825  1.5756
    2MOL0     H  258   2.002  11.134   2.559  0.1623 -3.9080 -2.1138
    2MOL0     H  259   1.938  10.985   2.391 -1.4816 -1.4247  1.2582
    2MOL0     H  260   0.797  11.168   1.124 -2.6822  1.3744 -0.0900
    2MOL0     H  261   0.604  11.265   1.173  1.2969  0.3896 -0.9705
    2MOL0     H  262   0.206  11.250   1.320  0.9694  0.1901 -0.1082
    2MOL0     H  263   0.014  11.394   1.329 -0.3538  3.8310  0.1453
    2MOL0     H  264  -0.137  11.435   1.683 -1.0698 -0.0395  0.2879
    2MOL0     H  265  -0.147  11.614   1.703  2.4183 -0.5357 -0.0642
    2MOL0     H  266  -0.368  11.500   1.684 -5.5103  3.1632 -2.0493
    2MOL0     H  267  -0.309  11.429   1.534  1.2492 -1.9480  1.6257
    2MOL0     H  268  -0.336  11.724   1.588  0.0832 -0.3919 -0.0405
    2MOL0     H  269  -0.319  11.649   1.422  1.2415 -1.3669 -0.3505
    2MOL0     H  270  -0.550  11.735   1.487  0.4979  0.3185  1.1122
    2MOL0     H  271  -0.550  11.616   1.600  2.8428  1.2060  1.4070
    2MOL0     H  272  -0.638  11.393   1.245  0.6424 -2.5297  1.8006
    2MOL0     H  273   0.098  11.504   1.715  2.4598  2.2186 -0.8478
    2MOL0     H  274   0.412  11.458   1.733 -1.0203  3.7653  5.0841
    2MOL0     H  275   0.270  11.442   1.838  0.2715 -0.9169  0.3618
    2MOL0     H  276   0.360  11.294   1.781 -1.1105 -0.7270  1.5253
    3MOL0     O  277   2.165   9.386  10.084 -0.0894  0.0831  0.2007
    3MOL0     C  278   2.213   9.295  10.017 -0.2420  0.0211 -0.1303
    3MOL0     O  279   2.205   9.288   9.881  0.4997  0.2572  0.2455
    3MOL0     C  280   2.170   9.399   9.810  0.8308  0.7440 -0.0738
    3MOL0     C  281   2.246   9.510   9.804 -0.7666  0.7912  0.2483
    3MOL0     C  282   2.212   9.628   9.738 -0.2531  0.1530 -0.5063
    3MOL0     C  283   2.076   9.633   9.690 -0.8580  0.3445  0.0489
    3MOL0     O  284   2.048   9.753   9.633 -0.7321  0.0709 -0.6943
    3MOL0     C  285   1.921   9.772   9.565 -0.4343  0.7612  0.0133
    3MOL0     C  286   1.903   9.905   9.501  0.2616  0.5300 -0.1275
    3MOL0     C  287   1.757   9.939   9.472  1.1627 -0.1498 -0.0057
    3MOL0     C  288   1.696   9.861   9.357  0.3659  0.0429 -0.1691
    3MOL0     C  289   1.758   9.850   9.218  0.0334 -0.5358 -0.0602
    3MOL0     C  290   1.789   9.980   9.158 -0.3371 -0.0437 -0.1706
    3MOL0     C  291   1.825   9.978   9.002 -0.0123 -0.5106  0.5855
    3MOL0     C  292   1.700  10.017   8.929  0.2998  0.0901  0.6501
    3MOL0     N  293   1.671  10.161   8.922  0.1445 -0.7812 -0.9318
    3MOL0     C  294   1.750  10.269   8.877  0.1961  0.2145 -0.2625
    3MOL0     C  295   1.680  10.381   8.911 -0.2676  0.6009  0.2993
    3MOL0     C  296   1.720  10.522   8.875  0.5347  0.2281  0.8372
    3MOL0     C  297   1.665  10.565   8.733 -0.0192  0.5361 -0.2216
    3MOL0     C  298   1.515  10.575   8.753 -0.5478 -0.1527  0.2614
    3MOL0     C  299   1.447  10.680   8.666 -0.2394 -0.2679  0.0645
    3MOL0     O  300   1.319  10.703   8.723  0.1833  0.8377  0.7050
    3MOL0     C  301   1.234  10.777   8.642 -0.2181  0.7601  0.1615
    3MOL0     C  302   1.139  10.705   8.569 -0.2796  0.0112  0.4451
    3MOL0     C  303   1.063  10.758   8.466  0.6323 -0.5193 -0.8151
    3MOL0     C  304   0.981  10.663   8.389  0.6443 -0.1141 -0.2662
    3MOL0     C  305   1.071  10.900   8.446  0.2019 -0.0651 -0.0260
    3MOL0     C  306   0.982  10.979   8.359  0.1232  0.5928 -0.2596
    3MOL0     O  307   0.869  10.921   8.311  0.7379  0.6535  0.1047
    3MOL0     C  308   0.809  10.969   8.199 -0.7490 -0.1592  0.1455
    3MOL0     C  309   0.774  11.106   8.181 -0.4005 -0.3180  0.4250
    3MOL0     C  310   0.717  11.150   8.065  0.2660 -0.5076  0.0440
    3MOL0     C  311   0.670  11.061   7.965 -0.8099  1.1195 -0.3286
    3MOL0     O  312   0.618  11.091   7.843  0.0321  0.0861  0.5582
    3MOL0     C  313   0.649  11.219   7.783  0.2366 -0.1386  0.4819
    3MOL0     C  314   0.622  11.219   7.630  0.3345 -0.4940  0.1032
    3MOL0     C  315   0.481  11.212   7.583 -0.5109 -1.0122 -0.0394
    3MOL0     C  316   0.456  11.204   7.438  0.7666  0.4879  0.9326
    3MOL0     C  317   0.511  11.328   7.355  0.2493  0.0682 -0.2477
    3MOL0     C  318   0.433  11.326   7.228 -0.1277 -0.6347  0.1253
    3MOL0     C  319   0.459  11.463   7.148 -0.8038  0.4610 -0.4674
    3MOL0     C  320   0.400  11.472   7.006 -0.5494  0.4472 -1.0904
    3MOL0    Cl  321   0.215  11.469   7.018  0.2955  0.0818 -0.0651
    3MOL0     C  322   0.703  10.919   7.990 -0.0209 -0.2474  0.6316
    3MOL0     C  323   0.760  10.878   8.108  1.3740 -0.1124 -0.2357
    3MOL0     O  324   1.034  11.084   8.315 -0.8223  0.5729 -0.5920
    3MOL0     C  325   1.178  10.969   8.508 -0.0991  0.2803  0.1910
    3MOL0     C  326   1.262  10.906   8.600 -0.7504 -1.0486 -0.2133
    3MOL0     N  327   1.564  10.342   8.973  0.4392 -0.4046 -1.5312
    3MOL0     N  328   1.564  10.219   8.992  0.2867  0.3101  0.5342
    3MOL0     C  329   1.986   9.519   9.696 -0.8689 -0.4227 -0.5441
    3MOL0     C  330   2.032   9.403   9.767 -0.8408  0.5336 -0.6003
    3MOL0     C  331   2.294   9.191  10.084  1.0879 -0.0257 -0.1057
    3MOL0     C  332   2.294   9.200  10.223  0.1907  0.7289 -0.5596
    3MOL0     C  333   2.344   9.102  10.317  0.1373  0.0257  0.6691
    3MOL0     C  334   2.410   8.999  10.260  0.2438  0.0962  0.1060
    3MOL0     O  335   2.466   8.910  10.353  0.1943  0.5932  0.1324
    3MOL0     C  336   2.535   8.791  10.320  0.0946  0.9266 -0.4081
    3MOL0     C  337   2.683   8.830  10.305  0.2832  0.1448  0.5532
    3MOL0     C  338   2.743   8.913  10.414 -0.1316 -1.2965  0.2658
    3MOL0     C  339   2.774   8.815  10.536  0.2081  0.3152 -0.3178
    3MOL0     C  340   2.670   8.843  10.643  0.0681 -0.1742 -0.5828
    3MOL0     C  341   2.571   8.857  10.705 -1.0954  0.1554  0.1769
    3MOL0     C  342   2.416   8.979  10.119  0.4003 -0.7127 -1.1984
    3MOL0     C  343   2.365   9.081  10.032  1.2206  0.6788 -0.4431
    3MOL0     C  344   2.376   9.052   9.888 -0.2619 -0.0819 -0.2906
    3MOL0     H  345   2.343   9.491   9.849 -0.4709 -1.4782 -1.2249
    3MOL0     H  346   2.282   9.710   9.722  0.2350 -0.2034 -0.2140
    3MOL0     H  347   1.836   9.759   9.632  2.2456  0.8426  3.7266
    3MOL0     H  348   1.911   9.691   9.492  1.4686  0.1624  0.3698
    3MOL0     H  349   1.962   9.965   9.571  2.3719 -0.9638 -0.5398
    3MOL0     H  350   1.956   9.908   9.405  2.0570  2.1196  0.8374
    3MOL0     H  351   1.681   9.935   9.550  1.9039 -1.2508  0.6936
    3MOL0     H  352   1.762  10.043   9.441  2.3846 -0.7576 -2.0094
    3MOL0     H  353   1.684   9.761   9.398 -0.6375  0.8113  1.5471
    3MOL0     H  354   1.604   9.919   9.344 -0.9019 -2.2097 -1.8363
    3MOL0     H  355   1.679   9.799   9.162 -1.2129 -0.3435  1.4567
    3MOL0     H  356   1.845   9.783   9.226 -0.8084 -1.5836  0.6722
    3MOL0     H  357   1.705  10.050   9.165  0.3726  0.7355  0.7073
    3MOL0     H  358   1.867  10.028   9.217 -1.1504  0.1933  0.7456
    3MOL0     H  359   1.863   9.881   8.969  1.5554  0.3371 -0.2271
    3MOL0     H  360   1.910  10.046   8.987  0.3743 -1.2010 -0.4521
    3MOL0     H  361   1.708   9.996   8.821  3.5885  2.9885  0.1532
    3MOL0     H  362   1.614   9.957   8.960  3.4339 -5.6688 -0.2400
    3MOL0     H  363   1.848  10.273   8.829  0.6546  2.5117  0.7191
    3MOL0     H  364   1.828  10.535   8.889  0.6808  0.0490 -0.0990
    3MOL0     H  365   1.683  10.588   8.954  0.9542 -0.2857  1.4773
    3MOL0     H  366   1.704  10.661   8.700  0.9063 -0.6749 -2.9486
    3MOL0     H  367   1.702  10.487   8.667 -0.1782 -0.1631  0.4937
    3MOL0     H  368   1.471  10.475   8.752  1.1297 -0.9250  0.6400
    3MOL0     H  369   1.490  10.614   8.852  1.3678 -1.4207  1.3070
    3MOL0     H  370   1.516  10.765   8.662 -0.3754 -0.1165  0.7465
    3MOL0     H  371   1.433  10.643   8.564  1.3648  2.1101 -1.1178
    3MOL0     H  372   1.131  10.601   8.600 -0.8092  0.3547  1.4878
    3MOL0     H  373   0.996  10.561   8.427 -1.3864  0.5766  2.7089
    3MOL0     H  374   1.014  10.659   8.285  3.2200  0.1983  0.4560
    3MOL0     H  375   0.874  10.677   8.401  0.8079 -1.1881  4.3146
    3MOL0     H  376   0.785  11.180   8.259 -1.1678 -0.4254  0.6466
    3MOL0     H  377   0.697  11.256   8.050 -0.7922 -0.6414  0.3868
    3MOL0     H  378   0.595  11.302   7.830  1.2324  1.3707 -0.8857
    3MOL0     H  379   0.751  11.256   7.796  0.0042  1.4935 -1.7207
    3MOL0     H  380   0.661  11.310   7.585 -1.0238 -0.7160 -1.6336
    3MOL0     H  381   0.674  11.127   7.601 -0.9019 -1.8773  1.9890
    3MOL0     H  382   0.435  11.298   7.632 -0.0483 -0.0333 -1.2956
    3MOL0     H  383   0.433  11.123   7.626  1.2274 -1.9773 -0.0096
    3MOL0     H  384   0.347  11.200   7.436  0.6079  2.9368  1.4139
    3MOL0     H  385   0.516  11.121   7.399 -0.2209  0.2069 -0.0216
    3MOL0     H  386   0.498  11.420   7.412  2.3743  0.1521  0.1959
    3MOL0     H  387   0.619  11.326   7.337  0.3045  0.1102  0.0787
    3MOL0     H  388   0.325  11.322   7.246 -0.3488 -1.9782 -1.3528
    3MOL0     H  389   0.462  11.239   7.170  1.8760 -0.7610  1.1999
    3MOL0     H  390   0.568  11.471   7.137 -0.5677 -2.1390 -0.6050
    3MOL0     H  391   0.419  11.550   7.201 -3.3370  0.1402 -1.6905
    3MOL0     H  392   0.441  11.392   6.943 -0.6526  0.3263 -1.0055
    3MOL0     H  393   0.430  11.570   6.969 -3.0810  1.7347  0.0019
    3MOL0     H  394   0.680  10.848   7.911 -1.9684  0.4731  0.5122
    3MOL0     H  395   0.772  10.772   8.129 -0.7521 -0.5468 -1.0351
    3MOL0     H  396   1.197  11.075   8.491 -0.4274  0.5420  1.3180
    3MOL0     H  397   1.335  10.963   8.656 -1.7466 -1.3459  1.4851
    3MOL0     H  398   1.889   9.534   9.651 -1.5002  1.8512  1.4022
    3MOL0     H  399   1.971   9.317   9.792  0.3687  0.0279  0.7826
    3MOL0     H  400   2.261   9.286  10.280 -0.2438 -0.5395  1.1811
    3MOL0     H  401   2.351   9.114  10.424  2.2251  0.2941  0.5306
    3MOL0     H  402   2.550   8.725  10.406 -1.1939  1.1422  0.0070
    3MOL0     H  403   2.494   8.736  10.236 -0.9585 -1.0975  1.3220
    3MOL0     H  404   2.696   8.884  10.211  0.2668  0.1801  0.5714
    3MOL0     H  405   2.752   8.748  10.284  1.5412  1.4766 -0.7331
    3MOL0     H  406   2.834   8.964  10.382 -1.9461  2.1358  0.0683
    3MOL0     H  407   2.668   8.988  10.439  2.5460  0.7561  2.8798
    3MOL0     H  408   2.873   8.831  10.581  0.6049  3.6186 -2.0898
    3MOL0     H  409   2.773   8.708  10.511  0.4012  1.0639 -4.0460
    3MOL0     H  410   2.486   8.871  10.768 -1.6328 -0.2853 -0.4454
    3MOL0     H  411   2.468   8.889  10.089  0.2203 -0.3406 -2.6980
    3MOL0     H  412   2.415   8.951   9.874  1.3375  0.3242  0.8775
    3MOL0     H  413   2.283   9.061   9.830  0.1945 -0.2524 -1.0613
    3MOL0     H  414   2.452   9.120   9.849 -0.7247  0.8660  0.4014
    4MOL0     O  415   9.618   0.033   4.347 -0.2632  0.6336  1.2057
    4MOL0     C  416   9.538   0.125   4.333  0.5284 -0.5051  0.2841
    4MOL0     O  417   9.431   0.147   4.414  0.0078  0.3252  0.0990
    4MOL0     C  418   9.372   0.050   4.491 -0.7485  0.7869 -1.2716
    4MOL0     C  419   9.360  -0.089   4.455 -0.1761 -1.0019  0.1508
    4MOL0     C  420   9.298  -0.177   4.547 -0.7544  0.0559  0.7735
    4MOL0     C  421   9.249  -0.123   4.673  0.2812 -0.0459  0.1360
    4MOL0     O  422   9.197  -0.211   4.766  0.0636  0.0531 -0.2569
    4MOL0     C  423   9.111  -0.314   4.725  0.3481  0.7905  1.3110
    4MOL0     C  424   8.957  -0.284   4.734  0.8266 -0.7948 -0.1712
    4MOL0     C  425   8.896  -0.204   4.612  0.1416 -0.0297  0.2227
    4MOL0     C  426   8.940  -0.245   4.468  0.1266  0.6581  0.4611
    4MOL0     C  427   8.911  -0.134   4.360 -0.1842 -0.3531 -0.0516
    4MOL0     C  428   9.003  -0.003   4.381  0.0637  0.1797  0.7224
    4MOL0     C  429   8.944   0.116   4.304 -0.2440 -0.1368  0.7544
    4MOL0     C  430   9.027   0.244   4.326 -0.9251 -0.0662  0.7035
    4MOL0     N  431   9.071   0.273   4.195 -0.2643  0.5521  0.0551
    4MOL0     C  432   9.188   0.213   4.135 -0.1555  0.6638 -1.1846
    4MOL0     C  433   9.181   0.264   4.010  0.8664  0.8292  0.1065
    4MOL0     C  434   9.275   0.199   3.911 -0.0746  0.1699  0.7305
    4MOL0     C  435   9.213   0.059   3.866  0.7333 -0.2747 -0.5202
    4MOL0     C  436   9.086   0.090   3.781 -0.4227  0.2661 -0.5851
    4MOL0     C  437   9.004  -0.045   3.766 -1.5726 -0.3343 -0.1103
    4MOL0     O  438   8.913  -0.025   3.663  0.5647 -0.2302 -0.0039
    4MOL0     C  439   8.955  -0.029   3.535 -0.0613  0.2904  0.1335
    4MOL0     C  440   9.077  -0.029   3.483  0.2999 -0.6532  0.9043
    4MOL0     C  441   9.106  -0.031   3.346 -0.3152 -0.4302 -0.3233
    4MOL0     C  442   9.251  -0.061   3.312 -0.5958  0.6496  0.2908
    4MOL0     C  443   9.001  -0.011   3.246  0.4891 -0.2441 -0.9086
    4MOL0     C  444   9.015   0.023   3.101  0.6171  0.2542 -0.4539
    4MOL0     O  445   8.899  -0.006   3.018 -1.1975 -0.0252  1.4384
    4MOL0     C  446   8.922  -0.012   2.883  0.0875  0.5033 -0.7049
    4MOL0     C  447   9.043  -0.062   2.832  0.8401  0.2106 -0.1526
    4MOL0     C  448   9.057  -0.067   2.695  0.4013 -0.3471 -0.0079
    4MOL0     C  449   8.951  -0.035   2.604 -0.6344  0.5126  0.0762
    4MOL0     O  450   8.969  -0.036   2.464  0.6566 -0.9682 -0.2818
    4MOL0     C  451   9.043  -0.147   2.406  0.5340  0.0880 -0.3663
    4MOL0     C  452   9.028  -0.146   2.252 -0.1836  0.1545  0.1621
    4MOL0     C  453   9.130  -0.225   2.176 -0.6234  1.1582  0.1981
    4MOL0     C  454   9.126  -0.380   2.188 -0.0368 -0.7485 -0.8588
    4MOL0     C  455   9.214  -0.431   2.090 -0.4391 -0.4863  0.6388
    4MOL0     C  456   9.234  -0.580   2.072  1.2895 -0.8817 -1.1006
    4MOL0     C  457   9.150  -0.652   1.970  0.9847  0.2387 -0.2452
    4MOL0     C  458   9.202  -0.630   1.827  0.1753  0.4562 -0.2725
    4MOL0    Cl  459   9.382  -0.701   1.812  0.4916  0.0763  0.5021
    4MOL0     C  460   8.825   0.008   2.661 -0.6092  0.0468  0.5071
    4MOL0     C  461   8.814   0.020   2.792  0.5327 -0.6494 -0.5410
    4MOL0     O  462   9.116   0.084   3.071 -0.6059 -0.1216  0.0529
    4MOL0     C  463   8.873  -0.022   3.306  0.3664  0.0693  0.6508
    4MOL0     C  464   8.855  -0.028   3.445 -0.6856 -0.2185  0.0075
    4MOL0     N  465   9.072   0.354   3.999 -0.5843 -0.9515  0.8797
    4MOL0     N  466   9.007   0.361   4.110 -0.2205 -0.1953  0.6298
    4MOL0     C  467   9.258   0.016   4.705 -0.4952  0.5655  0.4603
    4MOL0     C  468   9.313   0.091   4.610  0.5882  0.3277 -0.1315
    4MOL0     C  469   9.558   0.236   4.234 -0.0833  0.4124  0.6969
    4MOL0     C  470   9.475   0.351   4.242 -0.6345  0.7561 -0.7397
    4MOL0     C  471   9.491   0.457   4.160 -0.4002 -0.8378 -0.1553
    4MOL0     C  472   9.593   0.456   4.063  0.7360  0.2770  1.1926
    4MOL0     O  473   9.615   0.564   3.984  0.3962  0.5172 -0.4895
    4MOL0     C  474   9.738   0.628   4.013  0.1630 -0.0494  0.0152
    4MOL0     C  475   9.700   0.773   4.049  0.0611 -0.1932 -0.1800
    4MOL0     C  476   9.650   0.766   4.192  1.0118  0.6609 -1.1849
    4MOL0     C  477   9.621   0.905   4.251 -0.3298  1.4626  0.1622
    4MOL0     C  478   9.572   0.901   4.389 -0.5068 -0.1387 -0.4383
    4MOL0     C  479   9.545   0.904   4.508 -0.8735  0.7909 -0.3611
    4MOL0     C  480   9.667   0.347   4.042 -0.2576  0.6218 -0.1159
    4MOL0     C  481   9.654   0.238   4.126 -0.1568 -0.4944 -0.4488
    4MOL0     C  482   9.733   0.116   4.089  1.1892  1.5290  0.4113
    4MOL0     H  483   9.420  -0.127   4.373  0.7086 -2.8651  1.5896
    4MOL0     H  484   9.286  -0.278   4.511  1.7898 -0.2528  0.6403
    4MOL0     H  485   9.105  -0.399   4.794 -2.5517 -1.0631 -0.9403
    4MOL0     H  486   9.139  -0.353   4.626 -0.5421 -0.8283  1.6563
    4MOL0     H  487   8.908  -0.382   4.742  1.6000 -1.0701  4.6223
    4MOL0     H  488   8.942  -0.228   4.827  0.4890  0.0303 -0.7191
    4MOL0     H  489   8.788  -0.199   4.624  0.0564 -2.9749  1.3962
    4MOL0     H  490   8.926  -0.100   4.630 -1.2614  0.1993  1.3777
    4MOL0     H  491   9.046  -0.271   4.453  0.0543 -0.2417  1.3786
    4MOL0     H  492   8.880  -0.335   4.453  0.6283  0.0941  1.6561
    4MOL0     H  493   8.809  -0.094   4.365  0.5403  1.8269 -1.3139
    4MOL0     H  494   8.929  -0.177   4.261 -2.9383 -1.9210  0.0310
    4MOL0     H  495   9.001   0.021   4.488  1.3026 -3.3059  1.6425
    4MOL0     H  496   9.107  -0.023   4.355 -0.5780 -1.1630 -0.9596
    4MOL0     H  497   8.843   0.146   4.330  0.4842  4.2004 -0.6331
    4MOL0     H  498   8.952   0.087   4.199  1.3841 -0.0428  0.8198
    4MOL0     H  499   8.966   0.329   4.356  0.0324  0.2796  1.7479
    4MOL0     H  500   9.094   0.228   4.411 -2.5519 -1.7792  1.7457
    4MOL0     H  501   9.260   0.147   4.183 -1.9866 -1.6835 -1.4947
    4MOL0     H  502   9.370   0.164   3.952  0.5208 -0.7879 -1.3651
    4MOL0     H  503   9.299   0.259   3.822 -1.1191 -1.4366 -0.6894
    4MOL0     H  504   9.284   0.016   3.794  0.0288  0.7579 -1.8894
    4MOL0     H  505   9.198  -0.001   3.956  0.1513  0.7430  0.0783
    4MOL0     H  506   9.030   0.164   3.839  0.2763  0.5555 -0.2555
    4MOL0     H  507   9.118   0.136   3.687 -2.4041 -0.7186 -1.8029
    4MOL0     H  508   9.067  -0.130   3.739 -0.3598  0.6398 -0.4512
    4MOL0     H  509   8.955  -0.067   3.861 -1.3795 -0.1122  0.0398
    4MOL0     H  510   9.155  -0.039   3.558  1.8352  2.1001 -0.1769
    4MOL0     H  511   9.307   0.017   3.259 -0.1982  0.1369 -0.0555
    4MOL0     H  512   9.252  -0.160   3.266 -0.2922 -1.0540  3.6291
    4MOL0     H  513   9.292  -0.078   3.412 -1.8176  0.8676  0.8458
    4MOL0     H  514   9.130  -0.093   2.888 -1.0368 -1.1033  2.2583
    4MOL0     H  515   9.144  -0.122   2.661  1.0810  0.5794  0.1918
    4MOL0     H  516   9.147  -0.151   2.439 -0.1644  2.3734  2.5966
    4MOL0     H  517   9.002  -0.241   2.445 -0.3059  0.8243  0.5599
    4MOL0     H  518   8.937  -0.203   2.230 -1.9788  1.3717  3.6510
    4MOL0     H  519   9.011  -0.046   2.211 -2.3553  0.4417  1.6186
    4MOL0     H  520   9.224  -0.183   2.214 -0.2995  0.3032  0.3613
    4MOL0     H  521   9.132  -0.195   2.071  1.0918  1.8498  0.3885
    4MOL0     H  522   9.020  -0.402   2.176 -1.1761  2.9353  0.8687
    4MOL0     H  523   9.165  -0.417   2.284  2.6172 -0.4985 -1.7679
    4MOL0     H  524   9.192  -0.381   1.995 -1.4316  0.8454  1.5242
    4MOL0     H  525   9.309  -0.388   2.124 -1.8198  2.2110  1.4326
    4MOL0     H  526   9.198  -0.622   2.166 -1.5757  0.8418 -1.3030
    4MOL0     H  527   9.337  -0.603   2.045  1.5095 -0.2465 -0.8120
    4MOL0     H  528   9.045  -0.622   1.969  1.2039  1.0185 -0.7340
    4MOL0     H  529   9.145  -0.758   1.997  1.2974  0.3665  0.3449
    4MOL0     H  530   9.207  -0.523   1.804  1.1968  0.5029  0.1024
    4MOL0     H  531   9.131  -0.681   1.762  1.9704 -1.4142 -0.8782
    4MOL0     H  532   8.745   0.049   2.599 -0.4772  0.1650  0.4137
    4MOL0     H  533   8.726   0.067   2.834  0.8797  0.9759 -1.5622
    4MOL0     H  534   8.793  -0.012   3.234 -0.3544  1.3958  1.5888
    4MOL0     H  535   8.756  -0.045   3.486  0.5405 -1.4187  2.7648
    4MOL0     H  536   9.241   0.056   4.804 -0.5769  1.4794  0.0921
    4MOL0     H  537   9.318   0.199   4.621 -3.2995  1.2567 -4.3556
    4MOL0     H  538   9.399   0.359   4.319  1.0049  2.3969  0.7958
    4MOL0     H  539   9.430   0.547   4.162 -0.2721 -0.6585 -2.3273
    4MOL0     H  540   9.800   0.589   4.094 -0.5780  0.0120  0.6146
    4MOL0     H  541   9.796   0.632   3.920 -2.8904  0.7403 -2.0232
    4MOL0     H  542   9.635   0.832   3.984  0.9434  1.7687  0.6547
    4MOL0     H  543   9.798   0.820   4.057  0.8686 -1.9731  1.1538
    4MOL0     H  544   9.559   0.706   4.192  0.0229  2.0081 -3.5891
    4MOL0     H  545   9.721   0.710   4.254 -1.3194 -1.6193 -0.3926
    4MOL0     H  546   9.548   0.962   4.193 -1.5292 -2.8970 -3.1038
    4MOL0     H  547   9.712   0.966   4.247 -0.8468  2.2758  0.5005
    4MOL0     H  548   9.503   0.878   4.604  1.1993 -2.7648 -0.2276
    4MOL0     H  549   9.735   0.343   3.958 -1.9173 -2.4170 -1.4753
    4MOL0     H  550   9.671   0.026   4.092  3.4014 -0.0711  1.4120
    4MOL0     H  551   9.772   0.125   3.987  0.8333 -1.3258 -0.0718
    4MOL0     H  552   9.814   0.105   4.163 -0.6859  1.8074  2.6282
    5MOL0     O  553   4.770   8.259  11.194 -0.1344  0.0141  0.6415
    5MOL0     C  554   4.740   8.276  11.080  0.3606  0.1550 -0.2084
    5MOL0     O  555   4.702   8.173  10.987  0.8486 -0.6313 -0.7949
    5MOL0     C  556   4.741   8.040  10.988 -0.8454 -0.3251  0.3435
    5MOL0     C  557   4.817   7.978  11.078 -0.0289 -0.0085  0.1482
    5MOL0     C  558   4.841   7.846  11.071 -0.4426  0.6580  0.1117
    5MOL0     C  559   4.805   7.767  10.958  0.6882  0.2971 -0.8678
    5MOL0     O  560   4.843   7.637  10.948  0.5992  0.4346 -0.7774
    5MOL0     C  561   4.858   7.568  11.076 -0.0255  0.6741  0.2489
    5MOL0     C  562   4.867   7.415  11.051 -0.5508  0.6317  0.6034
    5MOL0     C  563   4.738   7.342  11.021 -0.5779  0.4337 -0.4479
    5MOL0     C  564   4.761   7.201  10.960 -0.3031  0.4870 -0.0265
    5MOL0     C  565   4.636   7.118  10.951 -0.7832  0.0464  0.0577
    5MOL0     C  566   4.671   6.989  10.871 -0.0441 -0.0175  0.5508
    5MOL0     C  567   4.550   6.887  10.905 -0.6046  0.8810 -0.9298
    5MOL0     C  568   4.417   6.913  10.818  0.0194  0.5036 -0.0228
    5MOL0     N  569   4.285   6.864  10.886  0.3903 -0.3791 -0.0665
    5MOL0     C  570   4.165   6.884  10.825  1.6046 -0.6813 -0.5425
    5MOL0     C  571   4.074   6.828  10.919 -0.4751  0.0187 -0.0354
    5MOL0     C  572   3.924   6.838  10.907 -0.7337  0.3178 -0.0355
    5MOL0     C  573   3.884   6.701  10.849  0.1376 -0.1900  0.8052
    5MOL0     C  574   3.737   6.679  10.870  0.2864 -0.1485 -0.0222
    5MOL0     C  575   3.646   6.781  10.784 -0.1381  0.5474  0.5158
    5MOL0     O  576   3.616   6.886  10.863  0.4348 -0.7446 -0.3468
    5MOL0     C  577   3.524   6.980  10.814 -0.9934  0.3856 -0.5525
    5MOL0     C  578   3.410   7.013  10.883  0.2921 -1.0521  0.7334
    5MOL0     C  579   3.321   7.108  10.837  0.2390 -0.1508 -0.8279
    5MOL0     C  580   3.181   7.118  10.900  0.9569  0.3454  0.0254
    5MOL0     C  581   3.353   7.189  10.730  0.3858  0.1846 -0.5550
    5MOL0     C  582   3.277   7.295  10.679  0.5467  0.5046  0.1593
    5MOL0     O  583   3.284   7.308  10.547  0.2740 -0.1079 -0.0540
    5MOL0     C  584   3.283   7.432  10.487 -0.6655 -0.0631  0.1845
    5MOL0     C  585   3.197   7.470  10.386 -0.5448 -0.4590  0.1078
    5MOL0     C  586   3.210   7.597  10.320  0.3762  0.2894  0.7723
    5MOL0     C  587   3.305   7.687  10.356  0.4904 -0.1533 -0.1876
    5MOL0     O  588   3.322   7.803  10.284  0.4968 -0.0643 -0.0157
    5MOL0     C  589   3.403   7.912  10.332  0.2426 -0.6101  0.8583
    5MOL0     C  590   3.346   7.980  10.455  0.2382 -0.6917  0.0776
    5MOL0     C  591   3.409   8.107  10.496 -0.3782 -0.4063  0.1786
    5MOL0     C  592   3.338   8.174  10.615 -0.4099 -0.5678  0.1174
    5MOL0     C  593   3.395   8.324  10.636 -0.0539 -0.3881  0.0591
    5MOL0     C  594   3.320   8.426  10.547 -0.0969 -0.2606 -0.0965
    5MOL0     C  595   3.381   8.565  10.542  0.6592  0.7361  0.0137
    5MOL0     C  596   3.319   8.663  10.447 -0.0390  0.2666 -0.0905
    5MOL0    Cl  597   3.142   8.671  10.466  0.2092 -0.3416  0.0040
    5MOL0     C  598   3.388   7.650  10.460 -0.5060  1.4233  0.0302
    5MOL0     C  599   3.378   7.527  10.529  0.3069  0.0267  0.5611
    5MOL0     O  600   3.206   7.367  10.758  0.3190  0.6191 -0.6051
    5MOL0     C  601   3.477   7.162  10.666 -0.3462  0.1589 -0.5632
    5MOL0     C  602   3.556   7.056  10.710  0.0358 -0.2672  0.5211
    5MOL0     N  603   4.151   6.786  11.035 -0.4559 -0.4256  0.4543
    5MOL0     N  604   4.276   6.805  11.003  0.2107  0.6893  0.1766
    5MOL0     C  605   4.732   7.833  10.863  1.1946  0.0265  0.0586
    5MOL0     C  606   4.693   7.965  10.879  0.8375 -0.0868  0.9529
    5MOL0     C  607   4.758   8.414  11.040  0.1735 -0.2002 -0.6843
    5MOL0     C  608   4.851   8.497  11.099 -0.0235 -0.0883  0.1546
    5MOL0     C  609   4.866   8.635  11.064 -0.2831 -0.0431  0.8677
    5MOL0     C  610   4.785   8.688  10.965 -0.0537  0.8515  0.5927
    5MOL0     O  611   4.774   8.817  10.926 -0.2099  0.1699 -0.1793
    5MOL0     C  612   4.891   8.896  10.949 -0.1885 -0.6096 -1.8579
    5MOL0     C  613   4.899   9.029  10.881  0.2719  1.2878 -0.6522
    5MOL0     C  614   4.966   9.018  10.746 -0.4465  0.7396  0.0628
    5MOL0     C  615   4.966   9.138  10.650 -1.3439 -0.0254  0.2123
    5MOL0     C  616   5.011   9.263  10.719 -0.2377  0.0434  0.0061
    5MOL0     C  617   5.067   9.343  10.787  0.1543  0.4272  0.6499
    5MOL0     C  618   4.699   8.602  10.907  0.4386  0.6070  0.0887
    5MOL0     C  619   4.689   8.471  10.932  0.5948  0.6219  0.3250
    5MOL0     C  620   4.602   8.404  10.837  0.0970 -0.2169  0.3492
    5MOL0     H  621   4.861   8.032  11.160 -0.9185 -3.2126  2.9792
    5MOL0     H  622   4.896   7.811  11.157 -3.0213  0.4941  1.8153
    5MOL0     H  623   4.780   7.583  11.152  0.1512 -1.5533  0.9495
    5MOL0     H  624   4.958   7.582  11.118  0.4716 -2.7973  0.5109
    5MOL0     H  625   4.933   7.396  10.966 -1.0447  1.0206  0.1217
    5MOL0     H  626   4.904   7.365  11.141  0.6962 -2.3043 -1.3824
    5MOL0     H  627   4.674   7.348  11.110  1.1919  0.5969  0.8795
    5MOL0     H  628   4.679   7.400  10.950 -1.9408 -0.0857  0.2410
    5MOL0     H  629   4.795   7.229  10.860  1.2364  0.5615  0.4868
    5MOL0     H  630   4.833   7.146  11.022 -0.5955  1.8049  1.5573
    5MOL0     H  631   4.566   7.177  10.891  0.7659  2.9185  0.8979
    5MOL0     H  632   4.603   7.102  11.054  2.8231 -2.9729  0.9759
    5MOL0     H  633   4.668   7.000  10.763 -0.4237  0.4698  0.6075
    5MOL0     H  634   4.771   6.949  10.886  0.7223  1.0111 -1.4619
    5MOL0     H  635   4.525   6.890  11.011 -0.2817  2.8938 -0.8699
    5MOL0     H  636   4.586   6.786  10.887  3.3281  2.0872 -0.7463
    5MOL0     H  637   4.405   7.021  10.804 -2.4292  1.0135  4.2040
    5MOL0     H  638   4.420   6.852  10.727  1.0930  0.4714  0.0174
    5MOL0     H  639   4.135   6.945  10.741  1.1476  0.4238  0.3969
    5MOL0     H  640   3.905   6.927  10.847  5.0190  2.3943  0.5535
    5MOL0     H  641   3.875   6.852  11.004 -4.5971  0.4124 -1.8033
    5MOL0     H  642   3.916   6.696  10.744  4.1446 -0.9377  1.9166
    5MOL0     H  643   3.933   6.612  10.889  1.6384 -1.5116 -3.4065
    5MOL0     H  644   3.717   6.583  10.823  0.6384  0.4817 -1.5410
    5MOL0     H  645   3.707   6.685  10.975 -3.0018  4.9912 -0.8226
    5MOL0     H  646   3.713   6.810  10.702  3.2704  0.1281  2.9624
    5MOL0     H  647   3.557   6.730  10.746 -0.9197  1.1747  1.4584
    5MOL0     H  648   3.387   6.972  10.981  0.3859  1.0962  1.7262
    5MOL0     H  649   3.112   7.081  10.823  1.4679 -1.1170  0.2410
    5MOL0     H  650   3.161   7.211  10.954 -1.8118 -1.0686  1.6958
    5MOL0     H  651   3.177   7.040  10.977 -0.3671  0.3640  0.0139
    5MOL0     H  652   3.123   7.399  10.352 -1.3865  1.7432 -3.1223
    5MOL0     H  653   3.136   7.621  10.245  0.5905 -1.1724  0.0700
    5MOL0     H  654   3.506   7.881  10.354  2.8697  5.1733 -1.1117
    5MOL0     H  655   3.409   7.972  10.241 -2.2641  0.9258  1.6221
    5MOL0     H  656   3.244   8.001  10.422 -0.4823 -1.7683  1.5089
    5MOL0     H  657   3.347   7.902  10.532 -1.0564 -2.5233 -1.6715
    5MOL0     H  658   3.397   8.179  10.414  1.6541 -3.0776 -2.6952
    5MOL0     H  659   3.516   8.090  10.513 -0.7147 -4.1422 -0.5173
    5MOL0     H  660   3.370   8.111  10.699  0.4736 -0.3257 -0.0380
    5MOL0     H  661   3.230   8.178  10.594 -0.6225 -0.6092  1.1353
    5MOL0     H  662   3.376   8.360  10.738  2.1613  1.3925 -0.0786
    5MOL0     H  663   3.502   8.343  10.630  0.0081 -0.0364  1.6960
    5MOL0     H  664   3.221   8.434  10.592 -0.2811 -0.0732 -0.5304
    5MOL0     H  665   3.316   8.391  10.444  2.3568  2.3252 -1.2112
    5MOL0     H  666   3.487   8.572  10.514  1.0035  0.0589  1.0898
    5MOL0     H  667   3.380   8.609  10.643  2.6803  2.9409 -0.8277
    5MOL0     H  668   3.342   8.637  10.343  1.7080 -0.7707  0.5071
    5MOL0     H  669   3.344   8.769  10.450 -0.0576  0.2842  2.7393
    5MOL0     H  670   3.464   7.710  10.510 -0.7852  0.6361  1.4474
    5MOL0     H  671   3.452   7.503  10.605  3.2951  3.7155 -0.8674
    5MOL0     H  672   3.515   7.226  10.587  0.0273  2.5477  1.4043
    5MOL0     H  673   3.643   7.023  10.653 -0.0468 -2.6083  1.6372
    5MOL0     H  674   4.711   7.768  10.779 -4.5081 -0.6648  1.6428
    5MOL0     H  675   4.633   8.035  10.822 -0.2824  1.5288  3.9106
    5MOL0     H  676   4.923   8.462  11.172 -1.2775  0.9092  1.9404
    5MOL0     H  677   4.942   8.698  11.109 -0.3610 -1.1078  2.5571
    5MOL0     H  678   4.888   8.921  11.056  1.2753  0.5143 -2.0412
    5MOL0     H  679   4.985   8.842  10.937  1.4234  1.1895  1.1125
    5MOL0     H  680   4.966   9.089  10.944  0.0212 -0.8138  1.7759
    5MOL0     H  681   4.794   9.059  10.879 -0.7997 -2.0795 -1.2606
    5MOL0     H  682   5.074   8.999  10.749 -0.3555  0.6922 -2.1997
    5MOL0     H  683   4.927   8.938  10.682  3.2925 -1.0021 -0.3597
    5MOL0     H  684   4.872   9.158  10.598 -1.1326  0.4318 -0.0006
    5MOL0     H  685   5.036   9.112  10.570 -0.6622  1.8670  0.1583
    5MOL0     H  686   5.118   9.414  10.849  1.9733 -0.2511 -0.0039
    5MOL0     H  687   4.634   8.649  10.835  0.3326  0.4394  0.0743
    5MOL0     H  688   4.531   8.478  10.798  0.0425 -0.7018 -0.4821
    5MOL0     H  689   4.647   8.369  10.744 -0.8811 -0.0014 -0.2160
    5MOL0     H  690   4.539   8.326  10.881  2.3565 -2.4600 -0.1606
    6MOL0     O  691   8.485   2.416   0.708 -0.5838 -0.0135 -0.0357
    6MOL0     C  692   8.549   2.506   0.756 -0.6899  0.0447 -0.3380
    6MOL0     O  693   8.532   2.561   0.876  0.9392  0.5975 -0.4170
    6MOL0     C  694   8.484   2.459   0.960 -0.5608  0.3300  0.5718
    6MOL0     C  695   8.347   2.423   0.971  0.8272 -0.3195  0.7512
    6MOL0     C  696   8.303   2.321   1.056 -0.4827  0.7796 -0.2429
    6MOL0     C  697   8.397   2.234   1.129 -0.1776 -0.6774 -0.7931
    6MOL0     O  698   8.366   2.123   1.214 -0.2474 -0.3867 -0.4568
    6MOL0     C  699   8.231   2.090   1.243  0.2905  0.4638 -0.3995
    6MOL0     C  700   8.206   1.962   1.315  0.0132 -0.7624 -0.4241
    6MOL0     C  701   8.309   1.946   1.436 -0.0188  1.1317  0.2373
    6MOL0     C  702   8.283   1.809   1.504 -0.1217 -0.3838  0.1079
    6MOL0     C  703   8.373   1.806   1.631 -0.7322 -0.1835 -0.5310
    6MOL0     C  704   8.344   1.689   1.734  0.2344  0.0046  0.5982
    6MOL0     C  705   8.417   1.706   1.869  0.1954  0.2442  0.7348
    6MOL0     C  706   8.444   1.553   1.911  0.5367 -0.5238  0.4630
    6MOL0     N  707   8.332   1.482   1.974 -0.1319  0.2346  0.0511
    6MOL0     C  708   8.270   1.505   2.095  0.0748  0.4661  0.3723
    6MOL0     C  709   8.185   1.396   2.107  0.9273 -0.5998  0.9339
    6MOL0     C  710   8.117   1.363   2.231  0.2032  0.2035  0.1693
    6MOL0     C  711   8.181   1.247   2.314 -0.8565  0.3431 -0.1513
    6MOL0     C  712   8.226   1.126   2.218  0.3017 -0.2193 -0.0349
    6MOL0     C  713   8.250   0.993   2.271 -0.9812 -0.8249  0.0791
    6MOL0     O  714   8.370   1.019   2.350  0.7616 -1.2116 -0.8106
    6MOL0     C  715   8.399   0.926   2.444  0.5960  0.9415  1.1184
    6MOL0     C  716   8.366   0.792   2.439  0.3399  1.3052 -0.9664
    6MOL0     C  717   8.409   0.706   2.543  0.3046  0.1754 -0.2610
    6MOL0     C  718   8.368   0.558   2.541  1.0351  0.9639  0.1505
    6MOL0     C  719   8.500   0.758   2.642  0.4687 -0.0478 -0.4922
    6MOL0     C  720   8.560   0.672   2.757  0.3837 -0.5978  0.2464
    6MOL0     O  721   8.471   0.591   2.813  0.6003 -0.4721  0.3200
    6MOL0     C  722   8.500   0.544   2.935 -0.2333  1.2331  0.5489
    6MOL0     C  723   8.523   0.637   3.027  0.2536 -1.0730 -0.6372
    6MOL0     C  724   8.556   0.602   3.156 -0.3519 -1.1647 -0.9893
    6MOL0     C  725   8.576   0.473   3.198 -0.0070  0.7238  0.0081
    6MOL0     O  726   8.619   0.453   3.328 -0.8961  0.9917  0.0298
    6MOL0     C  727   8.628   0.309   3.370  0.2050 -1.1423  0.3558
    6MOL0     C  728   8.701   0.308   3.500 -0.3061 -0.0157 -0.2408
    6MOL0     C  729   8.613   0.378   3.602 -0.6451  0.2644  0.1113
    6MOL0     C  730   8.495   0.307   3.655 -0.5533 -0.5760  0.8802
    6MOL0     C  731   8.436   0.392   3.772  0.2324  0.4225  0.1441
    6MOL0     C  732   8.500   0.401   3.909 -0.9804 -0.2658 -0.1096
    6MOL0     C  733   8.553   0.263   3.942 -0.8644 -0.2738 -0.2723
    6MOL0     C  734   8.693   0.230   3.902 -0.0934  0.1397  0.2234
    6MOL0    Cl  735   8.762   0.086   3.986  0.2659 -0.2480  0.1286
    6MOL0     C  736   8.548   0.373   3.100  0.1807  0.2716  0.0966
    6MOL0     C  737   8.511   0.410   2.972  0.8008 -0.2070 -0.0719
    6MOL0     O  738   8.679   0.672   2.779 -0.1784 -0.0689 -0.3680
    6MOL0     C  739   8.526   0.891   2.656  0.8749 -0.3050 -0.4242
    6MOL0     C  740   8.479   0.975   2.553 -0.1846 -0.2232  0.0350
    6MOL0     N  741   8.185   1.325   1.990 -0.3898  0.1288 -0.2213
    6MOL0     N  742   8.270   1.378   1.919  0.3315  0.1993  0.8983
    6MOL0     C  743   8.521   2.277   1.131 -0.6684  0.1193  0.7208
    6MOL0     C  744   8.561   2.382   1.041  1.0149 -0.7488  0.4616
    6MOL0     C  745   8.671   2.554   0.674 -0.1225  0.5173  0.1579
    6MOL0     C  746   8.726   2.470   0.576 -0.0087  0.0209  0.1617
    6MOL0     C  747   8.839   2.509   0.502 -0.6158 -0.2540 -0.3122
    6MOL0     C  748   8.886   2.641   0.506 -0.4145  0.4923  0.0216
    6MOL0     O  749   9.001   2.676   0.438  0.7743 -0.3818  0.0776
    6MOL0     C  750   9.004   2.722   0.300  0.5236 -0.8984  0.3871
    6MOL0     C  751   9.029   2.610   0.216 -0.5655 -0.5214 -0.9835
    6MOL0     C  752   9.182   2.576   0.212  0.4068 -0.2850  0.4850
    6MOL0     C  753   9.213   2.431   0.180  0.3476  0.1000  0.6979
    6MOL0     C  754   9.135   2.387   0.059  0.9295 -0.3080 -0.0564
    6MOL0     C  755   9.058   2.378  -0.030 -0.5300 -0.3604 -0.0217
    6MOL0     C  756   8.836   2.718   0.606 -0.4622 -0.5557  1.1679
    6MOL0     C  757   8.739   2.676   0.695  0.5810  0.9245  0.2073
    6MOL0     C  758   8.692   2.778   0.801 -0.4583  0.4996  0.8044
    6MOL0     H  759   8.272   2.479   0.917  0.4437 -1.1320  0.4292
    6MOL0     H  760   8.198   2.296   1.067 -0.6346  1.3978 -0.2984
    6MOL0     H  761   8.171   2.085   1.152  1.8468 -1.4157 -1.3940
    6MOL0     H  762   8.198   2.169   1.312 -0.8837  0.7250 -1.2334
    6MOL0     H  763   8.101   1.956   1.346  0.0525 -1.6976 -0.4517
    6MOL0     H  764   8.214   1.875   1.250  0.0575 -1.1030  0.0385
    6MOL0     H  765   8.408   1.941   1.390  1.0074 -0.1738  2.4382
    6MOL0     H  766   8.314   2.033   1.503  1.6409  0.4965  0.9924
    6MOL0     H  767   8.179   1.802   1.538 -0.3449  1.1066 -0.2018
    6MOL0     H  768   8.308   1.727   1.436  2.9143  0.6622 -0.1560
    6MOL0     H  769   8.363   1.901   1.683  4.2735  2.5787 -3.8052
    6MOL0     H  770   8.478   1.795   1.600 -1.3869 -0.2801 -2.9521
    6MOL0     H  771   8.238   1.683   1.759  0.5771 -2.7381  1.6650
    6MOL0     H  772   8.375   1.597   1.684  2.7700  1.7449 -1.3365
    6MOL0     H  773   8.354   1.759   1.941 -1.7367 -4.8867  3.3817
    6MOL0     H  774   8.512   1.753   1.843  1.9354 -3.2777  0.0112
    6MOL0     H  775   8.482   1.498   1.824  1.2924 -2.3619  1.8882
    6MOL0     H  776   8.529   1.550   1.980 -0.7208 -1.1396  2.0332
    6MOL0     H  777   8.291   1.583   2.168  1.0947 -1.8807  2.7573
    6MOL0     H  778   8.024   1.316   2.199  1.1108 -2.0074  0.5761
    6MOL0     H  779   8.102   1.453   2.291 -1.0671  0.2383 -0.1849
    6MOL0     H  780   8.268   1.284   2.370 -0.8082 -1.1028  0.8002
    6MOL0     H  781   8.108   1.210   2.386 -3.4092  2.7382 -1.3158
    6MOL0     H  782   8.155   1.120   2.135  0.4570  1.9008 -0.3852
    6MOL0     H  783   8.317   1.166   2.173 -1.3376  2.3791 -1.2546
    6MOL0     H  784   8.172   0.961   2.341  0.0770  1.0930  2.2992
    6MOL0     H  785   8.268   0.920   2.191 -1.4355  0.4137 -1.1921
    6MOL0     H  786   8.285   0.748   2.381  0.2250  0.6645 -0.3386
    6MOL0     H  787   8.307   0.535   2.453  0.6766 -1.1861  0.9043
    6MOL0     H  788   8.300   0.554   2.627  1.5758  2.0869  0.6466
    6MOL0     H  789   8.449   0.485   2.553  0.4594 -0.7813 -4.5547
    6MOL0     H  790   8.514   0.743   3.004 -2.4388 -1.5397 -2.1244
    6MOL0     H  791   8.571   0.676   3.234 -0.1141 -1.0963 -1.0978
    6MOL0     H  792   8.529   0.263   3.371 -0.4402 -0.5103 -4.9307
    6MOL0     H  793   8.689   0.261   3.293  1.6551  4.5417 -2.6637
    6MOL0     H  794   8.716   0.206   3.535  2.0856  0.5544  0.5696
    6MOL0     H  795   8.801   0.351   3.486  0.3392 -1.8039 -1.3438
    6MOL0     H  796   8.581   0.473   3.559 -1.3414 -1.2964 -3.1733
    6MOL0     H  797   8.669   0.402   3.693 -1.9312  3.3509  0.1865
    6MOL0     H  798   8.529   0.205   3.677 -0.9912 -0.3762  2.5981
    6MOL0     H  799   8.418   0.311   3.577  0.4189  2.6569 -0.0925
    6MOL0     H  800   8.401   0.488   3.733 -1.3904  0.3758  1.3294
    6MOL0     H  801   8.347   0.333   3.798  1.5875 -1.8077 -0.0585
    6MOL0     H  802   8.434   0.432   3.990  0.0386  0.7171  0.3609
    6MOL0     H  803   8.586   0.468   3.911  0.6395 -2.2564  2.2903
    6MOL0     H  804   8.484   0.183   3.915 -2.1623  1.6631 -3.1765
    6MOL0     H  805   8.556   0.266   4.052 -3.9252 -2.8101  0.0424
    6MOL0     H  806   8.764   0.312   3.911 -2.5999  2.4197  0.6491
    6MOL0     H  807   8.692   0.216   3.793 -1.0305  0.2548  0.2097
    6MOL0     H  808   8.567   0.269   3.127  1.9152  0.9376  1.7184
    6MOL0     H  809   8.474   0.334   2.903 -0.1165  0.7718 -0.6875
    6MOL0     H  810   8.592   0.926   2.735  2.1555 -2.6888 -0.3436
    6MOL0     H  811   8.498   1.081   2.541  4.0895 -1.0187 -2.1749
    6MOL0     H  812   8.596   2.237   1.199 -0.3070 -0.2868  0.0916
    6MOL0     H  813   8.666   2.408   1.034  0.4127  1.5843 -1.4623
    6MOL0     H  814   8.686   2.370   0.563 -2.2020  0.6885  1.1065
    6MOL0     H  815   8.891   2.441   0.435 -1.7013  0.3136 -1.7893
    6MOL0     H  816   8.909   2.775   0.291  1.5187  1.3104  2.0571
    6MOL0     H  817   9.088   2.791   0.291 -1.2205  1.4970  1.3935
    6MOL0     H  818   8.994   2.639   0.116  2.6267  1.3410 -1.6986
    6MOL0     H  819   8.963   2.527   0.244 -2.9411  0.6405 -2.7389
    6MOL0     H  820   9.239   2.638   0.143  1.5202  0.6497  2.1724
    6MOL0     H  821   9.229   2.597   0.308 -0.8091 -0.7484  1.2039
    6MOL0     H  822   9.206   2.363   0.266 -1.8068  1.9309  2.0678
    6MOL0     H  823   9.316   2.428   0.142 -0.1020 -1.1948 -0.5116
    6MOL0     H  824   8.978   2.368  -0.101  0.7043  0.2395 -1.5623
    6MOL0     H  825   8.887   2.813   0.614 -4.9050  2.2850 -0.4382
    6MOL0     H  826   8.724   2.878   0.771 -0.9625  0.7033  0.9385
    6MOL0     H  827   8.583   2.778   0.801 -0.6542 -3.0908 -2.1421
    6MOL0     H  828   8.721   2.744   0.901  1.3858 -3.3081 -0.8206
    7MOL0     O  829   1.464   1.359   9.219 -0.1338 -0.2185  1.1496
    7MOL0     C  830   1.416   1.260   9.163 -0.1405 -0.1787  0.3775
    7MOL0     O  831   1.301   1.267   9.076  0.4181 -1.1098 -0.2439
    7MOL0     C  832   1.237   1.382   9.063  0.1478  0.4947 -0.4625
    7MOL0     C  833   1.113   1.399   9.126 -0.8440  0.0037 -0.4043
    7MOL0     C  834   1.048   1.527   9.133 -0.0285 -0.1468 -0.0303
    7MOL0     C  835   1.120   1.637   9.086 -0.2798  1.0588  1.0325
    7MOL0     O  836   1.082   1.765   9.092 -0.9428  0.1297  0.1456
    7MOL0     C  837   0.947   1.808   9.095  1.5317 -0.1641  0.5887
    7MOL0     C  838   0.952   1.946   9.139  0.1649 -0.3155  0.4972
    7MOL0     C  839   0.995   1.963   9.292 -0.2172 -0.5038  0.3326
    7MOL0     C  840   1.047   2.105   9.333  0.1434 -0.5905  0.0695
    7MOL0     C  841   1.024   2.136   9.481 -0.1068 -0.1546  0.2547
    7MOL0     C  842   1.060   2.288   9.511  0.1154 -0.0534 -0.2987
    7MOL0     C  843   1.090   2.309   9.665  0.8342  0.2658  0.1901
    7MOL0     C  844   1.204   2.228   9.726  0.4554  0.6449 -0.6403
    7MOL0     N  845   1.191   2.214   9.872 -0.1463  0.2065 -0.1535
    7MOL0     C  846   1.132   2.306   9.947 -0.1441  0.4766 -0.4848
    7MOL0     C  847   1.107   2.243  10.063 -1.6006 -0.6636 -0.0609
    7MOL0     C  848   1.041   2.307  10.179 -0.0990  0.4278 -0.7900
    7MOL0     C  849   1.085   2.244  10.308 -0.8295  0.0905  1.2496
    7MOL0     C  850   1.012   2.305  10.441 -0.2077 -0.4941  0.6157
    7MOL0     C  851   1.104   2.271  10.554 -0.4556  0.2277 -0.3162
    7MOL0     O  852   1.157   2.129  10.562  0.2255 -1.0017  0.1012
    7MOL0     C  853   1.079   2.044  10.639 -0.6242 -0.1452 -0.1021
    7MOL0     C  854   1.047   2.085  10.769  0.3862  0.6071 -1.0841
    7MOL0     C  855   0.973   2.001  10.854  0.3303 -0.3106 -0.5711
    7MOL0     C  856   0.946   2.057  10.998 -0.1948  0.8751 -0.3223
    7MOL0     C  857   0.924   1.879  10.805  0.3773 -0.1936  0.3287
    7MOL0     C  858   0.851   1.778  10.885 -0.1708 -0.4613 -0.6016
    7MOL0     O  859   0.840   1.658  10.839 -0.2060  0.6748 -0.5072
    7MOL0     C  860   0.808   1.552  10.919  0.0281 -0.1317  1.1393
    7MOL0     C  861   0.914   1.473  10.963  0.1615 -0.6840 -0.8696
    7MOL0     C  862   0.894   1.361  11.041 -0.7352 -0.9195 -0.1290
    7MOL0     C  863   0.754   1.324  11.077 -0.3682 -1.1066  1.1809
    7MOL0     O  864   0.716   1.234  11.177 -0.2961 -1.0983  0.0829
    7MOL0     C  865   0.796   1.260  11.291  0.2771 -0.1069 -0.2774
    7MOL0     C  866   0.708   1.249  11.416 -0.2141  0.2041  0.3225
    7MOL0     C  867   0.793   1.239  11.547 -0.1901 -0.7803  0.3481
    7MOL0     C  868   0.695   1.275  11.664  0.2370 -0.1239  0.0288
    7MOL0     C  869   0.777   1.291  11.807  1.0787 -0.4231 -0.5530
    7MOL0     C  870   0.686   1.357  11.920  0.3682  0.4306 -0.5990
    7MOL0     C  871   0.726   1.509  11.951  0.3630  0.1991 -0.6987
    7MOL0     C  872   0.622   1.580  12.033  0.1244  0.0885  0.1970
    7MOL0    Cl  873   0.684   1.748  12.035  0.1331 -0.1838 -0.1991
    7MOL0     C  874   0.649   1.405  11.030 -0.0231  0.6818  0.1114
    7MOL0     C  875   0.674   1.525  10.962 -0.0342 -0.1301 -0.3671
    7MOL0     O  876   0.821   1.808  11.000  0.2609  0.2381 -0.2338
    7MOL0     C  877   0.954   1.838  10.673 -0.7680 -0.1622  0.8029
    7MOL0     C  878   1.032   1.924  10.591 -0.1838 -0.1135 -0.1459
    7MOL0     N  879   1.157   2.114  10.059  0.2553 -0.6647 -0.3005
    7MOL0     N  880   1.212   2.095   9.950  0.3058  0.0894 -0.3660
    7MOL0     C  881   1.249   1.617   9.035  0.1132 -1.2920  0.3897
    7MOL0     C  882   1.301   1.493   9.015 -0.3522 -0.9728 -0.4585
    7MOL0     C  883   1.492   1.134   9.171  0.0329  1.0262  0.5014
    7MOL0     C  884   1.443   1.026   9.090 -1.3099 -0.4735  0.1197
    7MOL0     C  885   1.503   0.898   9.095  1.9303  0.0568 -0.7127
    7MOL0     C  886   1.611   0.874   9.179 -0.2518 -0.4030  0.2256
    7MOL0     O  887   1.682   0.752   9.194 -0.2590 -0.1563 -0.7576
    7MOL0     C  888   1.626   0.631   9.140 -0.4284 -0.0023  0.3382
    7MOL0     C  889   1.722   0.512   9.154 -0.4104 -0.2967  0.0295
    7MOL0     C  890   1.723   0.426   9.286 -0.9244  0.8173 -0.0761
    7MOL0     C  891   1.580   0.418   9.347 -0.1919  1.1123 -0.0683
    7MOL0     C  892   1.594   0.318   9.450 -0.4428 -0.0401  0.3094
    7MOL0     C  893   1.628   0.256   9.549 -0.1949 -0.7276  0.0505
    7MOL0     C  894   1.669   0.979   9.238 -1.1654 -0.0777 -0.7939
    7MOL0     C  895   1.611   1.111   9.247 -0.0522  0.1174  0.2627
    7MOL0     C  896   1.683   1.220   9.330 -0.5947  0.8668  0.5264
    7MOL0     H  897   1.053   1.319   9.168  0.6418 -0.3849  1.0787
    7MOL0     H  898   0.950   1.543   9.177 -0.6964  0.7328 -1.7322
    7MOL0     H  899   0.873   1.755   9.155  1.5027  1.2396  1.8471
    7MOL0     H  900   0.900   1.803   8.996  0.6312 -0.2369  1.0118
    7MOL0     H  901   1.017   2.003   9.072  2.5523  1.3318  3.9071
    7MOL0     H  902   0.851   1.989   9.140  1.2076  2.5078  3.8597
    7MOL0     H  903   0.906   1.938   9.351  0.8724  1.5651  3.1037
    7MOL0     H  904   1.069   1.889   9.322 -0.3171 -2.1252 -2.9411
    7MOL0     H  905   1.152   2.116   9.302  0.6238 -0.4062  1.6947
    7MOL0     H  906   0.984   2.174   9.277  0.5868 -1.3758 -1.4609
    7MOL0     H  907   1.088   2.065   9.534  1.4115  0.7603 -0.2803
    7MOL0     H  908   0.916   2.121   9.491  0.0116 -1.8988 -0.5842
    7MOL0     H  909   1.151   2.304   9.453 -0.3001 -1.0764 -1.2652
    7MOL0     H  910   0.975   2.351   9.484  0.8220  0.8545 -0.4504
    7MOL0     H  911   0.999   2.264   9.707  0.4363  0.0173 -0.9097
    7MOL0     H  912   1.111   2.415   9.681  1.5859 -0.1114  1.9681
    7MOL0     H  913   1.207   2.128   9.680 -0.4355  0.3660 -0.1097
    7MOL0     H  914   1.303   2.272   9.708  0.8118 -0.3280 -1.1888
    7MOL0     H  915   1.105   2.410   9.929 -1.2910  0.2984  0.0590
    7MOL0     H  916   0.934   2.285  10.175 -0.2257  1.0336 -0.7528
    7MOL0     H  917   1.058   2.415  10.184  2.1689  0.0512  2.1557
    7MOL0     H  918   1.066   2.136  10.304 -1.7792  0.2735  0.5473
    7MOL0     H  919   1.194   2.244  10.320 -0.7191  1.1224  0.4251
    7MOL0     H  920   0.994   2.413  10.432 -1.0886 -0.6012  0.9560
    7MOL0     H  921   0.909   2.271  10.457 -1.9780  3.7603 -0.1527
    7MOL0     H  922   1.198   2.327  10.555 -0.5143  0.3370  1.0868
    7MOL0     H  923   1.048   2.281  10.648 -0.9648 -2.2209 -0.2906
    7MOL0     H  924   1.089   2.172  10.820 -1.0594  1.2021 -0.8621
    7MOL0     H  925   1.016   1.999  11.057 -1.0344 -0.7121 -0.8295
    7MOL0     H  926   0.845   2.039  11.035  1.5311 -2.1128  3.5477
    7MOL0     H  927   0.976   2.162  11.003  0.7016  1.0018 -4.4184
    7MOL0     H  928   1.015   1.489  10.924  0.6097 -0.3889  0.3853
    7MOL0     H  929   0.982   1.301  11.061  0.4752  0.5175 -0.9597
    7MOL0     H  930   0.865   1.177  11.308  0.1123  0.2536  2.6169
    7MOL0     H  931   0.851   1.355  11.286 -2.0697  1.5129  2.1693
    7MOL0     H  932   0.645   1.339  11.417 -0.2003  0.3516  4.4149
    7MOL0     H  933   0.651   1.155  11.417 -2.4396  1.4455 -0.7139
    7MOL0     H  934   0.882   1.303  11.550 -1.9687  1.8917 -0.3497
    7MOL0     H  935   0.829   1.137  11.566 -2.1188 -1.4510  0.6297
    7MOL0     H  936   0.621   1.195  11.673  3.1448 -3.4759 -2.8867
    7MOL0     H  937   0.651   1.373  11.646  0.6457  0.1368  0.4471
    7MOL0     H  938   0.824   1.204  11.854 -2.1484 -0.3887  3.3703
    7MOL0     H  939   0.855   1.366  11.796 -1.1010  1.9981 -0.5955
    7MOL0     H  940   0.699   1.289  12.005  1.0213 -0.0989 -1.1175
    7MOL0     H  941   0.583   1.357  11.884  0.0957  2.3750  0.0423
    7MOL0     H  942   0.717   1.556  11.852 -4.6974 -2.6572 -1.9203
    7MOL0     H  943   0.815   1.509  12.016  0.5165 -2.3078 -0.8116
    7MOL0     H  944   0.603   1.546  12.135 -2.3406 -0.4488 -0.3744
    7MOL0     H  945   0.528   1.561  11.981  0.7706  0.9789 -1.3682
    7MOL0     H  946   0.551   1.396  11.076  0.3167  1.0425  0.9392
    7MOL0     H  947   0.594   1.594  10.937 -0.7185 -1.4192 -1.8972
    7MOL0     H  948   0.921   1.745  10.628  0.7940  0.4573 -1.9040
    7MOL0     H  949   1.068   1.877  10.500 -0.4620  2.1739 -1.5285
    7MOL0     H  950   1.316   1.699   9.012 -1.8710 -0.4563 -3.3018
    7MOL0     H  951   1.401   1.481   8.974  0.9397 -1.5117  2.5829
    7MOL0     H  952   1.367   1.049   9.017 -2.0174  0.3757  1.0857
    7MOL0     H  953   1.458   0.822   9.031 -0.4227  2.3829 -1.9787
    7MOL0     H  954   1.531   0.608   9.189  1.0659  0.2922  3.6394
    7MOL0     H  955   1.612   0.649   9.033  2.7085 -3.4037 -0.8217
    7MOL0     H  956   1.817   0.565   9.143 -2.0616  3.1557  1.0495
    7MOL0     H  957   1.720   0.446   9.067  0.7792  0.0151 -0.2535
    7MOL0     H  958   1.768   0.330   9.257 -2.0562  0.3539 -0.3833
    7MOL0     H  959   1.783   0.474   9.364 -2.1209  0.8153  0.8743
    7MOL0     H  960   1.503   0.384   9.277 -0.3007  3.3559 -1.1308
    7MOL0     H  961   1.549   0.505   9.406  0.9681 -0.5082  3.1179
    7MOL0     H  962   1.663   0.204   9.636  4.3068 -1.8400 -2.1533
    7MOL0     H  963   1.767   0.970   9.284 -3.6894  0.2030  5.7501
    7MOL0     H  964   1.619   1.233   9.418  2.8970  0.3862  3.3868
    7MOL0     H  965   1.784   1.189   9.358 -1.1282 -0.5303  1.0361
    7MOL0     H  966   1.697   1.306   9.265  0.9433 -0.2791 -0.7340
    8MOL0     O  967   7.612   9.726   8.189 -0.4229 -0.4363 -0.1045
    8MOL0     C  968   7.563   9.770   8.292  0.3724  0.4927 -0.3876
    8MOL0     O  969   7.548   9.700   8.411  0.4966  0.2884 -0.1586
    8MOL0     C  970   7.602   9.572   8.424 -0.5576  0.1388 -0.8747
    8MOL0     C  971   7.713   9.513   8.354  0.5952 -0.2606 -0.3165
    8MOL0     C  972   7.753   9.390   8.392  0.1229  0.2841  0.0389
    8MOL0     C  973   7.690   9.315   8.492 -0.9954  0.2038 -1.0615
    8MOL0     O  974   7.730   9.184   8.503  0.1227  0.2154  0.3395
    8MOL0     C  975   7.644   9.069   8.531 -0.0006  1.0691 -0.7116
    8MOL0     C  976   7.701   8.989   8.648  0.7296  0.9280 -0.5140
    8MOL0     C  977   7.843   8.930   8.628 -1.4397  0.6425 -0.3026
    8MOL0     C  978   7.857   8.834   8.511 -0.3865  0.6074  1.0702
    8MOL0     C  979   7.960   8.728   8.537 -0.6538 -0.1223  0.7341
    8MOL0     C  980   7.951   8.610   8.432  0.3163  0.3619 -0.4961
    8MOL0     C  981   7.832   8.512   8.423 -0.1247 -0.8042 -0.8487
    8MOL0     C  982   7.817   8.397   8.316 -0.5634 -0.5842  0.2580
    8MOL0     N  983   7.711   8.300   8.366  0.2873 -0.4570  0.1585
    8MOL0     C  984   7.577   8.318   8.379  0.1900 -0.0908 -0.2689
    8MOL0     C  985   7.515   8.205   8.407  0.1699 -0.8619 -0.3812
    8MOL0     C  986   7.368   8.172   8.427  0.4441 -0.6847 -0.6602
    8MOL0     C  987   7.314   8.085   8.301  0.1579 -0.0682  0.2012
    8MOL0     C  988   7.183   8.019   8.340  0.3219 -0.0804  0.8152
    8MOL0     C  989   7.065   8.118   8.354  0.2635 -0.2426  0.0576
    8MOL0     O  990   7.077   8.215   8.251  0.1292 -0.0268 -0.0102
    8MOL0     C  991   6.960   8.275   8.212  0.2405 -0.4069 -0.8909
    8MOL0     C  992   6.849   8.287   8.295  0.1723 -0.5757  0.3631
    8MOL0     C  993   6.734   8.364   8.256 -0.4072  0.0212  0.1621
    8MOL0     C  994   6.638   8.386   8.372  1.4181 -0.1811  0.4008
    8MOL0     C  995   6.734   8.433   8.127 -0.0837  0.2366 -0.3486
    8MOL0     C  996   6.621   8.497   8.062  0.8487 -0.5595  0.5886
    8MOL0     O  997   6.658   8.606   7.980 -0.4868  0.8769 -0.5888
    8MOL0     C  998   6.566   8.653   7.885  0.5283  0.2280  0.4344
    8MOL0     C  999   6.619   8.767   7.814 -0.5264 -0.1411  0.0249
    8MOL0     C 1000   6.557   8.809   7.697  0.2307 -0.0580  0.3451
    8MOL0     C 1001   6.441   8.746   7.653  0.0195 -0.4635  0.4065
    8MOL0     O 1002   6.384   8.772   7.530 -0.4982  0.1753  0.0857
    8MOL0     C 1003   6.448   8.859   7.433 -1.2990 -0.0368 -0.0584
    8MOL0     C 1004   6.430   8.783   7.297 -1.3074 -0.0633  0.1623
    8MOL0     C 1005   6.495   8.866   7.187 -1.0458  0.8704 -0.0396
    8MOL0     C 1006   6.525   8.807   7.046 -0.1901  0.0527  0.1710
    8MOL0     C 1007   6.593   8.910   6.960 -0.3488  0.2594  0.7151
    8MOL0     C 1008   6.599   8.869   6.819 -1.1533 -0.5286  0.2853
    8MOL0     C 1009   6.593   8.985   6.724 -0.4919 -1.3612 -0.0963
    8MOL0     C 1010   6.721   9.076   6.730 -0.3192  0.8803 -0.6051
    8MOL0    Cl 1011   6.703   9.243   6.662  0.1555  0.0837  0.1901
    8MOL0     C 1012   6.382   8.638   7.732  0.3537  0.0226  0.6425
    8MOL0     C 1013   6.447   8.591   7.844 -0.1131 -0.2695  0.2659
    8MOL0     O 1014   6.506   8.474   8.098 -0.0964  0.6774 -0.0568
    8MOL0     C 1015   6.847   8.412   8.052  0.7618 -1.1419  0.0383
    8MOL0     C 1016   6.960   8.336   8.094  0.5102 -1.0151 -0.5780
    8MOL0     N 1017   7.613   8.111   8.410 -0.2201  0.6691  0.2132
    8MOL0     N 1018   7.722   8.167   8.394 -0.0133  0.0125 -0.5413
    8MOL0     C 1019   7.592   9.364   8.569  0.2058 -0.0678  0.1730
    8MOL0     C 1020   7.542   9.494   8.531  0.2078 -0.1759 -0.5112
    8MOL0     C 1021   7.543   9.916   8.298 -1.4372 -0.5296 -0.4004
    8MOL0     C 1022   7.553   9.968   8.427 -0.7470 -0.3628  0.4810
    8MOL0     C 1023   7.534  10.100   8.457 -0.2659 -0.7805 -0.7746
    8MOL0     C 1024   7.503  10.190   8.358  0.3391 -0.2658  0.2840
    8MOL0     O 1025   7.455  10.320   8.372 -0.4181 -0.8891  0.0906
    8MOL0     C 1026   7.317  10.333   8.418  0.6557 -0.7139  0.2019
    8MOL0     C 1027   7.313  10.430   8.542 -0.1564  0.1257  0.9775
    8MOL0     C 1028   7.350  10.572   8.504  0.2441 -0.6288 -0.3949
    8MOL0     C 1029   7.315  10.671   8.623 -0.5648 -0.5505  0.3696
    8MOL0     C 1030   7.189  10.746   8.609 -0.9719  0.5077  0.2120
    8MOL0     C 1031   7.090  10.794   8.578  0.4718 -1.4963 -0.3286
    8MOL0     C 1032   7.485  10.143   8.233 -0.7525  0.4865 -0.3639
    8MOL0     C 1033   7.512  10.010   8.195 -0.5512 -0.3822 -0.5216
    8MOL0     C 1034   7.508   9.973   8.052 -0.0260  0.7484 -0.2842
    8MOL0     H 1035   7.768   9.548   8.268  0.3317 -2.2685 -1.3612
    8MOL0     H 1036   7.833   9.348   8.332  0.3396 -0.8235  1.0732
    8MOL0     H 1037   7.649   8.997   8.448 -0.1868 -1.9170  1.7152
    8MOL0     H 1038   7.542   9.097   8.559 -0.4893 -1.5759  0.4107
    8MOL0     H 1039   7.707   9.050   8.739  1.5293  0.9090 -0.5416
    8MOL0     H 1040   7.637   8.904   8.671  1.2287  0.4078 -1.0202
    8MOL0     H 1041   7.918   9.007   8.609  0.5994 -0.1839  3.4754
    8MOL0     H 1042   7.881   8.877   8.716  0.4441 -0.2032 -1.5699
    8MOL0     H 1043   7.760   8.785   8.499 -0.9576  1.8282  0.5337
    8MOL0     H 1044   7.870   8.886   8.416 -1.1201 -2.8102 -1.0771
    8MOL0     H 1045   7.945   8.689   8.638  0.9853  0.7262  1.3371
    8MOL0     H 1046   8.059   8.775   8.539 -0.7437  0.3287 -2.1645
    8MOL0     H 1047   7.974   8.653   8.334  3.0633 -0.5718 -0.3503
    8MOL0     H 1048   8.042   8.554   8.454 -0.1186  0.1802  0.9580
    8MOL0     H 1049   7.743   8.575   8.415  0.7466  0.9542  1.8603
    8MOL0     H 1050   7.830   8.465   8.522  2.2644 -0.6835 -0.6933
    8MOL0     H 1051   7.776   8.443   8.225 -0.6436 -1.0870  0.0361
    8MOL0     H 1052   7.917   8.356   8.300 -0.6491 -1.4817  1.8763
    8MOL0     H 1053   7.520   8.408   8.362 -2.5087 -1.3018  1.7021
    8MOL0     H 1054   7.315   8.268   8.424  0.4682 -0.6810 -1.1409
    8MOL0     H 1055   7.378   8.117   8.521 -0.5725  1.5645  0.8588
    8MOL0     H 1056   7.304   8.151   8.215  1.1133 -0.7520 -0.4542
    8MOL0     H 1057   7.381   8.000   8.285 -0.9897 -0.9970  0.2185
    8MOL0     H 1058   7.154   7.951   8.259  1.9710  0.2144 -0.0836
    8MOL0     H 1059   7.194   7.951   8.425 -2.1303 -0.0494  1.2104
    8MOL0     H 1060   6.980   8.051   8.334  0.4505 -0.3112 -0.5212
    8MOL0     H 1061   7.061   8.159   8.455 -0.8177  0.9705 -0.4439
    8MOL0     H 1062   6.841   8.250   8.397 -2.1548  0.7265  0.7238
    8MOL0     H 1063   6.620   8.494   8.383 -0.9102 -0.3587 -1.0204
    8MOL0     H 1064   6.665   8.337   8.466 -0.0685  0.0598  0.9785
    8MOL0     H 1065   6.539   8.347   8.350  0.4491  2.0806  0.4716
    8MOL0     H 1066   6.706   8.827   7.840 -1.1791  0.8156  0.0224
    8MOL0     H 1067   6.595   8.900   7.652  0.1471  0.3857  1.1448
    8MOL0     H 1068   6.389   8.951   7.434 -3.9471 -1.5151 -2.4071
    8MOL0     H 1069   6.555   8.879   7.443 -1.6201  0.7554  2.8788
    8MOL0     H 1070   6.479   8.686   7.315 -3.5286 -1.3841 -0.5324
    8MOL0     H 1071   6.325   8.762   7.278 -1.6709  1.3428  0.5418
    8MOL0     H 1072   6.593   8.894   7.226 -2.0725  4.6236  0.2578
    8MOL0     H 1073   6.436   8.956   7.166  0.7486  1.3747 -3.7625
    8MOL0     H 1074   6.430   8.791   6.995 -0.8900  1.8713  0.8287
    8MOL0     H 1075   6.583   8.714   7.043 -0.5402 -0.1542 -1.6889
    8MOL0     H 1076   6.534   9.002   6.966  1.2175  1.1975  2.5345
    8MOL0     H 1077   6.686   8.941   7.007 -1.2543  0.5296  2.4009
    8MOL0     H 1078   6.513   8.807   6.791 -2.4990  1.1323  0.5095
    8MOL0     H 1079   6.680   8.801   6.793  0.0124  0.0837  2.1179
    8MOL0     H 1080   6.510   9.051   6.752  0.2419 -0.7426  0.6868
    8MOL0     H 1081   6.583   8.951   6.621 -1.5535  0.1569 -0.5233
    8MOL0     H 1082   6.792   9.015   6.674 -0.5574 -1.1942  1.2597
    8MOL0     H 1083   6.766   9.089   6.829  0.2048  2.9520 -1.0586
    8MOL0     H 1084   6.294   8.585   7.696  0.4831 -1.4347  2.3210
    8MOL0     H 1085   6.414   8.506   7.904  3.4611 -2.9075 -1.1599
    8MOL0     H 1086   6.852   8.453   7.952 -3.3697  1.4437  0.6598
    8MOL0     H 1087   7.044   8.324   8.026  1.2831 -0.7868  0.3050
    8MOL0     H 1088   7.542   9.313   8.650 -1.0098  0.3061 -0.3288
    8MOL0     H 1089   7.448   9.536   8.568 -0.4740 -0.8519 -1.4223
    8MOL0     H 1090   7.577   9.902   8.510  0.1818  0.0131  0.5199
    8MOL0     H 1091   7.538  10.137   8.559 -1.6298 -1.4797 -0.4393
    8MOL0     H 1092   7.254  10.363   8.334  0.0550  0.1312  0.9376
    8MOL0     H 1093   7.281  10.238   8.459  1.4287 -1.3895 -0.6368
    8MOL0     H 1094   7.393  10.396   8.608  0.1231  0.5985  0.8879
    8MOL0     H 1095   7.213  10.428   8.587 -0.1913  1.5489  1.0150
    8MOL0     H 1096   7.457  10.583   8.480 -0.3371  1.9248 -2.2988
    8MOL0     H 1097   7.308  10.612   8.411  0.1818  2.7361  0.9285
    8MOL0     H 1098   7.389  10.752   8.619  2.2524 -2.9781  0.5622
    8MOL0     H 1099   7.333  10.622   8.719 -2.2896  0.4827  1.2965
    8MOL0     H 1100   7.013  10.845   8.523  0.5635  0.3155  1.0914
    8MOL0     H 1101   7.469  10.221   8.159 -0.0037  2.7989  1.7549
    8MOL0     H 1102   7.610   9.981   8.014 -0.3485  0.7141 -1.1964
    8MOL0     H 1103   7.470   9.870   8.044  1.0409 -0.2347  4.3649
    8MOL0     H 1104   7.444  10.037   7.991  3.5635  2.3797 -2.7092
    9MOL0     O 1105  10.697   7.737   5.010  0.7872  0.4173  0.2925
    9MOL0     C 1106  10.623   7.687   5.092  0.0640 -0.5252 -1.1440
    9MOL0     O 1107  10.651   7.593   5.189 -0.7242 -0.0117  0.1568
    9MOL0     C 1108  10.776   7.556   5.225 -0.1165 -0.1169  0.4627
    9MOL0     C 1109  10.890   7.640   5.246  0.3516  0.9768  1.0018
    9MOL0     C 1110  11.015   7.586   5.267 -0.7441  0.3930 -0.8243
    9MOL0     C 1111  11.031   7.455   5.281 -0.8463 -0.4330  0.4892
    9MOL0     O 1112  11.163   7.413   5.332 -0.0573 -0.7026  0.4767
    9MOL0     C 1113  11.186   7.269   5.334 -0.3214 -0.3410 -0.2596
    9MOL0     C 1114  11.162   7.229   5.482  0.6032 -0.5504  0.2491
    9MOL0     C 1115  11.197   7.081   5.507 -0.5767 -0.7722  0.4117
    9MOL0     C 1116  11.343   7.060   5.538 -0.1082 -0.0937  0.3656
    9MOL0     C 1117  11.384   6.914   5.533  0.6833 -0.2029 -0.1311
    9MOL0     C 1118  11.281   6.798   5.561  0.0428  0.7856 -0.0314
    9MOL0     C 1119  11.351   6.653   5.559  0.7031  0.1089  0.0020
    9MOL0     C 1120  11.479   6.636   5.645  0.6157  0.0634  0.5232
    9MOL0     N 1121  11.435   6.655   5.784 -0.3149 -0.4628 -0.6025
    9MOL0     C 1122  11.403   6.542   5.854 -0.2761 -0.2071  0.7256
    9MOL0     C 1123  11.362   6.588   5.973  0.0161 -0.7686 -0.2003
    9MOL0     C 1124  11.285   6.498   6.065 -0.2641 -0.5032  0.2427
    9MOL0     C 1125  11.358   6.456   6.193  0.4395  0.6657  0.3166
    9MOL0     C 1126  11.256   6.388   6.297 -1.5143 -0.6643 -0.1206
    9MOL0     C 1127  11.193   6.252   6.260  0.1952  0.5697 -0.2289
    9MOL0     O 1128  11.287   6.147   6.280  0.6846 -0.4133 -0.1220
    9MOL0     C 1129  11.251   6.019   6.259  0.3153 -0.2247 -0.6724
    9MOL0     C 1130  11.117   5.975   6.237 -0.2393 -0.7279  0.0214
    9MOL0     C 1131  11.084   5.841   6.240 -0.1700  1.0254 -0.2178
    9MOL0     C 1132  10.944   5.803   6.227 -0.1954 -0.1286 -0.2920
    9MOL0     C 1133  11.184   5.741   6.259  0.1279 -0.1650  0.4681
    9MOL0     C 1134  11.155   5.597   6.273  0.2019  0.1345 -0.3821
    9MOL0     O 1135  11.219   5.546   6.380 -0.0361  0.8370  0.8670
    9MOL0     C 1136  11.187   5.421   6.418 -0.2451 -0.5428 -0.0601
    9MOL0     C 1137  11.075   5.396   6.510 -0.3729  1.3943 -0.2317
    9MOL0     C 1138  11.061   5.269   6.570  0.4662 -0.3606  0.1035
    9MOL0     C 1139  11.144   5.156   6.522  0.5532  0.3748  0.2681
    9MOL0     O 1140  11.125   5.032   6.574 -0.2366  0.0909  0.1493
    9MOL0     C 1141  10.989   4.985   6.554  0.5557 -0.3772  0.5394
    9MOL0     C 1142  10.958   4.878   6.663 -0.1998  0.3226  0.3604
    9MOL0     C 1143  10.945   4.935   6.804  1.7733 -0.1092  0.4430
    9MOL0     C 1144  10.927   4.811   6.906 -1.2889 -0.1806  1.9147
    9MOL0     C 1145  10.885   4.853   7.050  0.0785  0.3393  0.7715
    9MOL0     C 1146  10.974   4.959   7.114  0.6694 -0.8862  0.0874
    9MOL0     C 1147  10.997   4.950   7.269 -0.5988  0.0468  0.2060
    9MOL0     C 1148  10.866   4.952   7.348  0.1011 -0.0891 -0.8575
    9MOL0    Cl 1149  10.774   5.105   7.319  0.1665 -0.2584  0.0988
    9MOL0     C 1150  11.256   5.187   6.440  0.2569 -0.6936 -0.2831
    9MOL0     C 1151  11.274   5.316   6.388  0.7356 -0.0369  1.1522
    9MOL0     O 1152  11.075   5.542   6.193  0.6469  0.4317  0.3379
    9MOL0     C 1153  11.316   5.782   6.266  0.6752 -0.2380  0.6721
    9MOL0     C 1154  11.354   5.924   6.277  1.2136  0.3979  0.3926
    9MOL0     N 1155  11.364   6.731   5.973  0.5002  0.3011 -0.5580
    9MOL0     N 1156  11.424   6.773   5.865  0.9525 -0.4658  0.4591
    9MOL0     C 1157  10.922   7.370   5.266 -0.1698 -0.3194 -0.3995
    9MOL0     C 1158  10.794   7.421   5.245 -0.2037  0.5786 -0.4403
    9MOL0     C 1159  10.496   7.749   5.113  0.0378 -0.8514  0.8542
    9MOL0     C 1160  10.482   7.890   5.090 -0.2760 -0.2168 -0.2750
    9MOL0     C 1161  10.368   7.950   5.138 -0.0399 -1.0399 -1.0848
    9MOL0     C 1162  10.269   7.895   5.213 -0.8587 -0.0855 -0.1209
    9MOL0     O 1163  10.173   7.971   5.275  0.3387  0.3863 -0.1803
    9MOL0     C 1164  10.136   7.925   5.411  0.6362  0.2346 -0.4113
    9MOL0     C 1165  10.057   8.028   5.489  0.0696  0.0644  0.7166
    9MOL0     C 1166   9.930   8.053   5.420  0.0508  0.0950  0.2664
    9MOL0     C 1167   9.845   8.170   5.485 -0.1254  0.1259  0.0750
    9MOL0     C 1168   9.700   8.177   5.432 -0.3410 -0.4418 -0.0261
    9MOL0     C 1169   9.587   8.201   5.395 -0.2460 -0.2939 -0.4936
    9MOL0     C 1170  10.281   7.755   5.220 -0.6388  0.7467 -0.2214
    9MOL0     C 1171  10.381   7.679   5.173 -0.2492  0.3194 -0.6179
    9MOL0     C 1172  10.376   7.531   5.210  0.4039 -0.3989  0.7853
    9MOL0     H 1173  10.891   7.747   5.227  1.7593  0.5290 -2.1656
    9MOL0     H 1174  11.113   7.632   5.278 -0.8617  0.2884  0.8967
    9MOL0     H 1175  11.289   7.269   5.298 -0.8582 -0.7973 -1.8611
    9MOL0     H 1176  11.130   7.215   5.257  2.2639  0.5992 -2.9989
    9MOL0     H 1177  11.222   7.291   5.550  1.7259  0.9466 -1.9841
    9MOL0     H 1178  11.056   7.233   5.508  0.4042 -1.3709 -0.4124
    9MOL0     H 1179  11.148   7.065   5.603 -0.3339  1.3509  0.9504
    9MOL0     H 1180  11.180   7.010   5.425  2.1101  1.0232 -1.9291
    9MOL0     H 1181  11.409   7.128   5.482 -0.5183  1.2204  1.4110
    9MOL0     H 1182  11.354   7.100   5.639 -2.0340  2.9410 -0.4707
    9MOL0     H 1183  11.469   6.917   5.602  4.6735  0.7614 -4.5212
    9MOL0     H 1184  11.426   6.885   5.436  1.6370 -1.8049  0.7209
    9MOL0     H 1185  11.241   6.812   5.661 -0.1247  0.5414 -0.0646
    9MOL0     H 1186  11.192   6.812   5.498  1.1740  1.8982 -1.4710
    9MOL0     H 1187  11.393   6.630   5.460  1.5609 -1.1895  0.6465
    9MOL0     H 1188  11.277   6.574   5.576 -0.2492  1.4343  2.5216
    9MOL0     H 1189  11.546   6.554   5.620 -0.9976 -1.6399  1.5102
    9MOL0     H 1190  11.548   6.720   5.634  1.1099 -0.3296  0.6054
    9MOL0     H 1191  11.396   6.444   5.808 -0.2425  0.0199  0.2330
    9MOL0     H 1192  11.265   6.409   6.005  0.7384 -0.8439  0.3929
    9MOL0     H 1193  11.190   6.546   6.090  0.9985  2.1501  0.3234
    9MOL0     H 1194  11.438   6.382   6.179  0.0001  0.2445  0.0306
    9MOL0     H 1195  11.392   6.551   6.237  0.1926  1.1823 -0.5817
    9MOL0     H 1196  11.326   6.370   6.379 -0.1699 -3.5735 -1.7743
    9MOL0     H 1197  11.170   6.451   6.322  0.7057  2.4379  0.4129
    9MOL0     H 1198  11.097   6.227   6.306 -0.8210 -0.0007 -2.4875
    9MOL0     H 1199  11.170   6.258   6.153  2.4523  0.1526 -0.7910
    9MOL0     H 1200  11.035   6.045   6.241  0.5147  0.1133  1.4601
    9MOL0     H 1201  10.918   5.752   6.134 -1.3079  1.2055 -0.7445
    9MOL0     H 1202  10.884   5.894   6.227 -1.1044 -0.6982 -1.5630
    9MOL0     H 1203  10.916   5.752   6.319 -1.0324  1.5635  0.4177
    9MOL0     H 1204  11.001   5.473   6.528  0.7131  1.7499  3.6350
    9MOL0     H 1205  10.979   5.262   6.641  0.9205  0.4573  0.7217
    9MOL0     H 1206  10.906   5.054   6.536 -0.5008 -2.0067 -1.2775
    9MOL0     H 1207  10.999   4.930   6.460  3.0541  0.1502  0.4357
    9MOL0     H 1208  10.869   4.823   6.630  0.8474 -1.2355  0.0336
    9MOL0     H 1209  11.046   4.813   6.664 -0.9728 -0.8440  3.5741
    9MOL0     H 1210  10.854   4.996   6.801  2.9970  1.7370 -0.4162
    9MOL0     H 1211  11.026   5.002   6.832  0.4685  1.7896 -0.1110
    9MOL0     H 1212  11.020   4.754   6.902  0.1842  2.1671 -0.1863
    9MOL0     H 1213  10.846   4.750   6.865 -1.0562 -0.1797  1.4455
    9MOL0     H 1214  10.781   4.885   7.052 -0.1723 -0.0049 -2.1372
    9MOL0     H 1215  10.891   4.768   7.119 -0.1900 -0.6438 -0.3943
    9MOL0     H 1216  10.942   5.061   7.090  0.9960 -1.0862 -1.2979
    9MOL0     H 1217  11.069   4.960   7.059 -1.0370 -2.6078 -3.1910
    9MOL0     H 1218  11.062   5.032   7.301  0.5467 -0.9884  0.6023
    9MOL0     H 1219  11.056   4.863   7.296 -0.2675 -0.0899 -0.8997
    9MOL0     H 1220  10.889   4.945   7.455 -1.6956 -2.7714 -0.5518
    9MOL0     H 1221  10.793   4.876   7.319 -1.9716  1.3376  0.3825
    9MOL0     H 1222  11.314   5.107   6.395 -2.0643 -2.8903  0.3878
    9MOL0     H 1223  11.361   5.331   6.325  0.2210  0.9024  0.6290
    9MOL0     H 1224  11.392   5.706   6.281  1.0656 -1.3118 -4.9326
    9MOL0     H 1225  11.452   5.962   6.304  1.3956  1.0247 -1.0842
    9MOL0     H 1226  10.917   7.264   5.289 -0.2484 -0.8028 -2.4591
    9MOL0     H 1227  10.706   7.358   5.248  0.7837 -1.0043 -2.4016
    9MOL0     H 1228  10.559   7.948   5.040  0.1795 -0.0545  0.6062
    9MOL0     H 1229  10.373   8.056   5.120  3.4189 -1.2493 -1.9295
    9MOL0     H 1230  10.079   7.834   5.387  1.9122 -0.8875  0.6724
    9MOL0     H 1231  10.224   7.885   5.462 -0.3063  0.2191  1.2427
    9MOL0     H 1232  10.113   8.121   5.502  2.7026 -1.4475  1.0521
    9MOL0     H 1233  10.028   7.992   5.589 -0.9975 -1.8032 -0.2169
    9MOL0     H 1234   9.958   8.081   5.318  0.1541 -0.5135  0.1294
    9MOL0     H 1235   9.866   7.965   5.408  0.2686  0.0312 -0.4333
    9MOL0     H 1236   9.896   8.266   5.469  2.1819 -1.2822 -1.7122
    9MOL0     H 1237   9.836   8.165   5.594  0.8009  4.1047  0.5160
    9MOL0     H 1238   9.483   8.217   5.378 -0.8995 -2.4168  1.1175
    9MOL0     H 1239  10.220   7.696   5.288  2.0851  0.6403  2.3056
    9MOL0     H 1240  10.445   7.472   5.149  1.3684  1.9925 -0.6144
    9MOL0     H 1241  10.397   7.512   5.315 -0.0422 -5.3169  0.1950
    9MOL0     H 1242  10.274   7.498   5.189  0.1428 -0.7279  2.4770
   10MOL0     O 1243   5.984   7.139   4.437 -0.7799  0.2158  0.2207
   10MOL0     C 1244   6.037   7.041   4.383 -0.1476 -2.2597  0.1510
   10MOL0     O 1245   5.999   6.919   4.400 -0.7442  0.4606 -0.4527
   10MOL0     C 1246   5.879   6.904   4.464  0.1500  0.3849  0.2886
   10MOL0     C 1247   5.756   6.957   4.429  0.3366 -0.1332 -0.4632
   10MOL0     C 1248   5.647   6.944   4.515 -0.6209 -0.3829  0.4058
   10MOL0     C 1249   5.654   6.870   4.628 -0.0758  0.0361  0.0462
   10MOL0     O 1250   5.533   6.861   4.693  0.4092 -0.6473 -0.6251
   10MOL0     C 1251   5.546   6.826   4.836  0.3693  0.1712  0.9058
   10MOL0     C 1252   5.416   6.802   4.902 -1.0370 -1.3105 -0.1537
   10MOL0     C 1253   5.431   6.741   5.043  0.5773  0.4439 -0.0323
   10MOL0     C 1254   5.537   6.798   5.138 -0.2265 -0.5624  1.5626
   10MOL0     C 1255   5.560   6.689   5.246  0.2909  0.3012 -0.1545
   10MOL0     C 1256   5.662   6.736   5.350 -0.7456  0.2859  0.1934
   10MOL0     C 1257   5.678   6.635   5.459 -0.5058 -0.2648  0.5057
   10MOL0     C 1258   5.775   6.516   5.426 -1.0423 -0.4342  0.1711
   10MOL0     N 1259   5.922   6.550   5.417 -0.7216 -0.1578  0.3872
   10MOL0     C 1260   6.004   6.623   5.504 -0.2540 -0.3216  0.2425
   10MOL0     C 1261   6.113   6.658   5.439  0.3271 -0.3272  0.2218
   10MOL0     C 1262   6.231   6.729   5.504 -0.3194  0.3685 -0.0993
   10MOL0     C 1263   6.224   6.891   5.494 -0.1034  0.1085  0.5762
   10MOL0     C 1264   6.216   6.948   5.346  0.1268 -0.2903  0.1107
   10MOL0     C 1265   6.290   7.079   5.323 -0.2112 -0.0034  0.0785
   10MOL0     O 1266   6.244   7.177   5.413  0.0522 -0.1477  0.3271
   10MOL0     C 1267   6.297   7.200   5.534 -0.5265 -0.9578 -0.0278
   10MOL0     C 1268   6.225   7.269   5.630  0.5392  0.4460  1.0382
   10MOL0     C 1269   6.280   7.316   5.748 -0.1196  0.7989 -0.3592
   10MOL0     C 1270   6.182   7.383   5.833  0.4961 -0.0478 -0.8405
   10MOL0     C 1271   6.414   7.290   5.779  0.3833 -0.0173 -0.6281
   10MOL0     C 1272   6.492   7.352   5.900  1.2812 -0.4771  0.4883
   10MOL0     O 1273   6.621   7.318   5.894  0.3373  0.0115 -0.1767
   10MOL0     C 1274   6.705   7.402   5.963 -0.0682 -0.4912  0.2051
   10MOL0     C 1275   6.711   7.408   6.098  0.1817  0.2335 -0.0171
   10MOL0     C 1276   6.826   7.458   6.163  0.4001 -0.6804  0.0884
   10MOL0     C 1277   6.931   7.521   6.097  0.0308  0.2176 -0.4544
   10MOL0     O 1278   7.041   7.567   6.165 -0.2001  0.7416 -0.6284
   10MOL0     C 1279   7.160   7.601   6.086  0.2557  0.1704  0.5281
   10MOL0     C 1280   7.286   7.579   6.176 -0.2544 -0.3752  1.0356
   10MOL0     C 1281   7.310   7.430   6.215 -0.2979 -0.0419  0.1402
   10MOL0     C 1282   7.345   7.414   6.359  0.1417 -0.5205  0.1799
   10MOL0     C 1283   7.468   7.482   6.407 -0.6627 -0.1794 -0.5902
   10MOL0     C 1284   7.529   7.420   6.538  1.5888 -0.5097 -0.5387
   10MOL0     C 1285   7.617   7.528   6.609  0.4861  0.0775 -0.3634
   10MOL0     C 1286   7.566   7.584   6.743 -0.1607  0.5210  0.6214
   10MOL0    Cl 1287   7.581   7.454   6.854 -0.8502 -0.2068 -0.1374
   10MOL0     C 1288   6.925   7.509   5.954  1.0352  0.4748 -0.4850
   10MOL0     C 1289   6.808   7.458   5.888  0.6872 -0.1484 -0.4256
   10MOL0     O 1290   6.433   7.443   5.970  0.3737  0.0001 -0.3049
   10MOL0     C 1291   6.486   7.225   5.678  0.4317  0.4271 -0.0881
   10MOL0     C 1292   6.434   7.179   5.561  0.0220  0.0872 -0.6682
   10MOL0     N 1293   6.096   6.615   5.305 -0.7515  0.2803  0.8018
   10MOL0     N 1294   5.985   6.563   5.293 -0.1865 -1.1544 -0.9122
   10MOL0     C 1295   5.773   6.814   4.655 -0.0931  0.3696 -0.7457
   10MOL0     C 1296   5.885   6.834   4.586  0.2250  0.1965 -0.5493
   10MOL0     C 1297   6.151   7.070   4.295 -0.0211 -0.3837  0.3739
   10MOL0     C 1298   6.209   6.957   4.227  0.4885  0.4372 -0.6103
   10MOL0     C 1299   6.321   6.968   4.141  0.5380 -0.5613  0.7230
   10MOL0     C 1300   6.382   7.089   4.115  0.1456 -0.0185  1.6471
   10MOL0     O 1301   6.496   7.101   4.040 -0.4900 -0.0189  0.0970
   10MOL0     C 1302   6.488   7.164   3.913 -0.5411  0.4552  0.0299
   10MOL0     C 1303   6.363   7.148   3.825  0.3184 -0.7186  0.0311
   10MOL0     C 1304   6.387   7.206   3.681  0.5481  0.0709  0.2871
   10MOL0     C 1305   6.264   7.195   3.587 -0.4798  0.3444 -0.1241
   10MOL0     C 1306   6.309   7.179   3.453  0.3827 -0.5261  0.7516
   10MOL0     C 1307   6.353   7.168   3.339  0.4684  0.4250  0.1234
   10MOL0     C 1308   6.320   7.194   4.178 -0.2417  0.5639 -0.3951
   10MOL0     C 1309   6.222   7.194   4.276 -1.0030  0.5277 -0.1957
   10MOL0     C 1310   6.181   7.320   4.342  0.2126  0.0679  0.1100
   10MOL0     H 1311   5.749   7.015   4.338 -1.5907 -1.1888 -1.0355
   10MOL0     H 1312   5.549   6.986   4.493 -1.5809 -1.6480  2.0944
   10MOL0     H 1313   5.597   6.904   4.894  2.0466  0.2713 -0.6106
   10MOL0     H 1314   5.605   6.735   4.852  0.4854 -0.3244 -1.8603
   10MOL0     H 1315   5.354   6.892   4.897  1.6348  0.6230 -0.2038
   10MOL0     H 1316   5.362   6.732   4.838  0.7356 -2.1726 -0.7723
   10MOL0     H 1317   5.333   6.758   5.089  1.2981 -1.1623  2.2675
   10MOL0     H 1318   5.452   6.634   5.035  1.1179  0.3964  1.6212
   10MOL0     H 1319   5.625   6.826   5.080 -0.3476 -0.6213  1.3473
   10MOL0     H 1320   5.512   6.898   5.175 -0.3202 -0.8886  2.3845
   10MOL0     H 1321   5.595   6.593   5.207 -0.4196  0.7414 -1.9542
   10MOL0     H 1322   5.462   6.671   5.292 -0.1783  1.2229 -0.7643
   10MOL0     H 1323   5.751   6.757   5.290 -2.1653  1.4337 -1.6401
   10MOL0     H 1324   5.634   6.832   5.394 -2.1758 -0.6832  1.5084
   10MOL0     H 1325   5.579   6.592   5.475 -0.5140 -1.1514 -1.5676
   10MOL0     H 1326   5.711   6.679   5.553 -1.6991  1.5376  0.1424
   10MOL0     H 1327   5.762   6.448   5.511  1.6258  0.6526  1.5754
   10MOL0     H 1328   5.737   6.469   5.335 -0.0838  0.6023 -0.8082
   10MOL0     H 1329   5.971   6.644   5.606 -0.2710  1.7602 -0.1418
   10MOL0     H 1330   6.323   6.688   5.460  2.0456  2.0264  2.8813
   10MOL0     H 1331   6.244   6.713   5.612  0.7508  4.7191  0.6087
   10MOL0     H 1332   6.136   6.924   5.550 -2.0891 -1.2593 -1.5679
   10MOL0     H 1333   6.296   6.945   5.556  0.3562  2.3194 -1.7288
   10MOL0     H 1334   6.256   6.875   5.275 -0.3215 -1.3344  0.9137
   10MOL0     H 1335   6.111   6.963   5.319  0.5941  0.9531 -1.1533
   10MOL0     H 1336   6.395   7.054   5.338 -0.4662 -2.1275 -1.3617
   10MOL0     H 1337   6.288   7.117   5.221  2.1619  1.9320  0.6567
   10MOL0     H 1338   6.122   7.293   5.609  0.5544  1.9710  2.4908
   10MOL0     H 1339   6.076   7.362   5.815  0.4950 -0.0395 -0.8453
   10MOL0     H 1340   6.201   7.490   5.845 -0.4815 -0.1696  4.7880
   10MOL0     H 1341   6.189   7.347   5.937  0.7427  1.0529 -0.4669
   10MOL0     H 1342   6.634   7.366   6.161  3.0473 -0.4389  3.3517
   10MOL0     H 1343   6.822   7.454   6.271  2.0814  0.4512  0.2253
   10MOL0     H 1344   7.163   7.520   6.014 -2.4305 -0.6354  1.2134
   10MOL0     H 1345   7.158   7.701   6.041 -0.0706  1.7754  3.8062
   10MOL0     H 1346   7.365   7.620   6.113  0.2676 -1.2123  1.1364
   10MOL0     H 1347   7.276   7.647   6.262  0.5984  2.0894 -0.6991
   10MOL0     H 1348   7.392   7.384   6.159  0.7440  0.9194  0.8528
   10MOL0     H 1349   7.208   7.391   6.203 -0.3951  0.0352  0.6860
   10MOL0     H 1350   7.347   7.306   6.377 -2.2338 -1.0663 -2.1058
   10MOL0     H 1351   7.260   7.447   6.420  0.1694 -1.0339  0.5073
   10MOL0     H 1352   7.547   7.492   6.333 -2.8754 -1.0642 -3.2627
   10MOL0     H 1353   7.431   7.581   6.436  0.0044 -0.3404  0.8684
   10MOL0     H 1354   7.585   7.329   6.512  0.4176 -0.8238 -2.0934
   10MOL0     H 1355   7.446   7.393   6.604 -0.3069  2.2643 -1.6221
   10MOL0     H 1356   7.653   7.604   6.540  3.4528 -1.3815 -0.5615
   10MOL0     H 1357   7.706   7.470   6.636  0.1078  0.1043  1.0307
   10MOL0     H 1358   7.459   7.608   6.746 -0.4952  0.1478 -3.3935
   10MOL0     H 1359   7.630   7.671   6.764  0.6175  0.7789 -2.4340
   10MOL0     H 1360   7.003   7.544   5.887  0.5523 -1.4114 -2.1449
   10MOL0     H 1361   6.808   7.444   5.781 -1.5151 -0.8754 -0.3777
   10MOL0     H 1362   6.590   7.196   5.689  0.4390  0.6258  0.3882
   10MOL0     H 1363   6.504   7.133   5.492 -0.5602 -2.0526  0.0908
   10MOL0     H 1364   5.777   6.750   4.743 -1.0784  1.0902 -0.1497
   10MOL0     H 1365   5.980   6.788   4.612 -1.4008 -1.9200  2.1468
   10MOL0     H 1366   6.150   6.867   4.242 -1.7607  1.9206 -0.0934
   10MOL0     H 1367   6.366   6.882   4.094  5.4557  2.4706 -0.8933
   10MOL0     H 1368   6.507   7.271   3.923  2.1821 -0.0295  1.0889
   10MOL0     H 1369   6.573   7.121   3.859 -0.6452  1.6984 -1.1567
   10MOL0     H 1370   6.277   7.202   3.865  1.2725 -0.8494  2.4700
   10MOL0     H 1371   6.348   7.040   3.839  2.6631 -1.0151  0.7488
   10MOL0     H 1372   6.422   7.309   3.669 -1.7433  1.1062  1.8841
   10MOL0     H 1373   6.458   7.133   3.641 -0.1931 -2.3520  3.0684
   10MOL0     H 1374   6.210   7.290   3.595  0.2381  0.5912  3.6610
   10MOL0     H 1375   6.201   7.107   3.603  2.5099 -1.7141  1.4237
   10MOL0     H 1376   6.388   7.157   3.238 -1.2623  2.7427 -0.8123
   10MOL0     H 1377   6.354   7.296   4.160  1.5430  0.8217  3.4727
   10MOL0     H 1378   6.086   7.359   4.307 -1.7586 -1.5722  3.1551
   10MOL0     H 1379   6.187   7.308   4.450 -0.6097  1.9024  0.3912
   10MOL0     H 1380   6.253   7.399   4.318  0.2865 -0.4457 -1.4762
   11MOL0     O 1381  10.916   0.541   9.356 -0.1658 -0.0826  0.2346
   11MOL0     C 1382  10.879   0.497   9.252 -0.2133  0.0744  0.0845
   11MOL0     O 1383  10.750   0.466   9.208 -0.0143 -0.4413  0.5383
   11MOL0     C 1384  10.643   0.526   9.275 -0.6180  0.0888  0.8925
   11MOL0     C 1385  10.604   0.486   9.407  0.6099 -0.4363  0.3817
   11MOL0     C 1386  10.498   0.547   9.476 -0.4784  0.1411  0.2061
   11MOL0     C 1387  10.419   0.638   9.412  0.4934 -0.4945 -0.2542
   11MOL0     O 1388  10.318   0.696   9.475  0.6138 -0.1153  0.3117
   11MOL0     C 1389  10.194   0.617   9.478  0.4764 -0.2557 -0.3204
   11MOL0     C 1390  10.076   0.705   9.544 -0.8178 -0.3762 -0.0102
   11MOL0     C 1391  10.097   0.769   9.680 -0.4199 -0.5609 -0.5860
   11MOL0     C 1392  10.082   0.666   9.795 -0.0405 -0.7790 -0.2910
   11MOL0     C 1393  10.209   0.584   9.819 -0.1394 -0.6125 -0.3580
   11MOL0     C 1394  10.196   0.517   9.954 -0.0654 -0.2249  0.0310
   11MOL0     C 1395  10.309   0.425  10.006  0.3225 -0.6834  0.3139
   11MOL0     C 1396  10.449   0.484   9.997  0.3907 -0.3030 -0.3532
   11MOL0     N 1397  10.497   0.568  10.105  0.5282 -0.6663 -0.2407
   11MOL0     C 1398  10.533   0.510  10.227  0.4648 -0.6692 -0.0028
   11MOL0     C 1399  10.609   0.605  10.283 -0.0456  0.6129 -0.4887
   11MOL0     C 1400  10.682   0.594  10.412  0.8726 -0.6646 -0.1343
   11MOL0     C 1401  10.740   0.722  10.472 -0.1999 -0.4725 -0.1667
   11MOL0     C 1402  10.769   0.702  10.618  1.0069 -0.2498  0.1346
   11MOL0     C 1403  10.857   0.584  10.648 -0.0604 -0.1125  0.7892
   11MOL0     O 1404  10.980   0.575  10.564  0.7003  1.3184 -0.3758
   11MOL0     C 1405  11.066   0.482  10.623 -0.3248 -0.1176 -0.3150
   11MOL0     C 1406  11.181   0.521  10.706  1.0413 -0.3082  0.3406
   11MOL0     C 1407  11.289   0.434  10.738 -0.5487 -0.1461 -0.2720
   11MOL0     C 1408  11.401   0.491  10.827  0.2736  0.0819  0.7254
   11MOL0     C 1409  11.268   0.301  10.718  0.2338  0.7325 -1.1624
   11MOL0     C 1410  11.353   0.197  10.787 -0.2597  0.7207 -0.9118
   11MOL0     O 1411  11.290   0.081  10.827 -0.3750  0.4563  0.4069
   11MOL0     C 1412  11.371  -0.010  10.895 -0.8666  0.6833 -0.0308
   11MOL0     C 1413  11.469   0.025  10.993  0.4745 -0.3072  0.3409
   11MOL0     C 1414  11.567  -0.069  11.032  0.3817  0.0773 -0.8194
   11MOL0     C 1415  11.578  -0.198  10.981  0.8574 -0.5698  0.1429
   11MOL0     O 1416  11.672  -0.288  11.015 -0.1889 -0.2067 -0.0722
   11MOL0     C 1417  11.653  -0.340  11.140  0.1996  0.2618 -0.0033
   11MOL0     C 1418  11.723  -0.267  11.251  0.2976  0.6928  0.3292
   11MOL0     C 1419  11.880  -0.244  11.248 -0.3112  0.3467 -0.2910
   11MOL0     C 1420  11.948  -0.169  11.363  0.6722 -0.5102 -0.2424
   11MOL0     C 1421  11.884  -0.031  11.378 -0.6329 -1.2636 -0.3704
   11MOL0     C 1422  11.983   0.073  11.436 -0.4205 -0.0527  0.2613
   11MOL0     C 1423  11.942   0.169  11.543  0.1595 -0.5317  1.3075
   11MOL0     C 1424  11.984   0.123  11.680  0.3942 -1.1570  0.2382
   11MOL0    Cl 1425  11.918  -0.039  11.702  0.0601 -0.0130  0.1054
   11MOL0     C 1426  11.484  -0.233  10.884  1.0765 -0.4093 -0.4295
   11MOL0     C 1427  11.381  -0.136  10.848 -0.1513  0.1537  1.0337
   11MOL0     O 1428  11.472   0.218  10.786 -0.3743 -0.8971 -0.2130
   11MOL0     C 1429  11.144   0.260  10.660 -0.5988  0.8026  0.3644
   11MOL0     C 1430  11.048   0.346  10.611 -1.0091  0.2556  0.8611
   11MOL0     N 1431  10.640   0.706  10.194  0.3453  0.5988  0.6607
   11MOL0     N 1432  10.563   0.690  10.091  1.5112 -0.0984  0.4908
   11MOL0     C 1433  10.454   0.676   9.280  0.0391 -0.5313  0.4919
   11MOL0     C 1434  10.566   0.622   9.213  0.7164 -0.3742 -0.0854
   11MOL0     C 1435  10.976   0.479   9.150 -0.3776  0.4422 -0.0092
   11MOL0     C 1436  11.028   0.349   9.110  0.5612 -0.0906 -0.7344
   11MOL0     C 1437  11.131   0.331   9.012 -0.2406  1.1690 -0.2705
   11MOL0     C 1438  11.177   0.442   8.958  0.0475  0.7144  0.8054
   11MOL0     O 1439  11.277   0.416   8.872 -0.5762 -0.0696  0.1423
   11MOL0     C 1440  11.343   0.516   8.787  0.8770 -0.9991  0.6986
   11MOL0     C 1441  11.380   0.437   8.655 -1.7003  0.1178 -0.0291
   11MOL0     C 1442  11.452   0.543   8.565 -0.1995  1.6050  1.0484
   11MOL0     C 1443  11.512   0.483   8.441  0.4903  0.2156  0.6441
   11MOL0     C 1444  11.597   0.571   8.356 -0.6627 -1.0461  0.4072
   11MOL0     C 1445  11.681   0.638   8.304  0.0339  0.8124  0.3116
   11MOL0     C 1446  11.121   0.570   8.980  0.4035  0.6014  0.8095
   11MOL0     C 1447  11.028   0.592   9.084 -0.3992  0.2192 -0.0242
   11MOL0     C 1448  10.980   0.733   9.118 -0.0532  0.5847 -0.3874
   11MOL0     H 1449  10.664   0.408   9.452 -1.3980 -3.1606 -1.3207
   11MOL0     H 1450  10.467   0.529   9.579 -1.1247  4.8305  1.0755
   11MOL0     H 1451  10.223   0.519   9.517  4.1058  0.3318 -1.1632
   11MOL0     H 1452  10.170   0.594   9.374  1.4653  1.5736 -1.0104
   11MOL0     H 1453  10.053   0.783   9.470  2.1609 -0.4619 -1.1385
   11MOL0     H 1454   9.987   0.645   9.565 -0.3596 -0.3758  2.1149
   11MOL0     H 1455  10.186   0.828   9.704 -1.7731  1.2804  0.1864
   11MOL0     H 1456  10.015   0.841   9.691 -0.6721 -1.0745  1.1741
   11MOL0     H 1457  10.060   0.727   9.883 -0.8034 -2.0443  0.4333
   11MOL0     H 1458   9.998   0.596   9.787 -0.1638 -0.5770 -0.7651
   11MOL0     H 1459  10.296   0.651   9.824 -0.1118 -0.5114 -1.9048
   11MOL0     H 1460  10.215   0.508   9.741 -1.1583  0.3445 -1.4104
   11MOL0     H 1461  10.182   0.602  10.022  1.9847 -0.0665  0.3233
   11MOL0     H 1462  10.105   0.457   9.955  1.1627 -2.1828  0.4084
   11MOL0     H 1463  10.305   0.323   9.968 -0.8973 -1.4369  2.3380
   11MOL0     H 1464  10.283   0.400  10.109  1.2185  0.0801  0.7424
   11MOL0     H 1465  10.502   0.388   9.993  0.2037 -0.4100 -0.3075
   11MOL0     H 1466  10.469   0.521   9.897 -0.9217 -1.6980 -1.1829
   11MOL0     H 1467  10.518   0.414  10.276  1.7641 -0.1392  1.5256
   11MOL0     H 1468  10.764   0.523  10.396  0.6592 -1.1825  0.9053
   11MOL0     H 1469  10.610   0.550  10.482 -0.7964 -0.9922 -1.9633
   11MOL0     H 1470  10.833   0.742  10.419 -0.5293  0.7389 -0.3092
   11MOL0     H 1471  10.695   0.820  10.450  4.0906  1.4154 -1.5151
   11MOL0     H 1472  10.824   0.791  10.651  0.1548 -0.0190  1.0131
   11MOL0     H 1473  10.677   0.713  10.677  2.6293  3.1486  2.3326
   11MOL0     H 1474  10.904   0.609  10.743  0.8968  3.9397 -0.5209
   11MOL0     H 1475  10.794   0.495  10.636 -2.1011  1.6182 -3.5492
   11MOL0     H 1476  11.182   0.625  10.733 -0.3313 -0.0314 -0.5498
   11MOL0     H 1477  11.491   0.506  10.767  0.0169  2.5028  0.8749
   11MOL0     H 1478  11.418   0.438  10.921  3.0979 -1.7169 -0.6522
   11MOL0     H 1479  11.370   0.589  10.864  4.8555  1.8326  0.6087
   11MOL0     H 1480  11.468   0.127  11.031 -0.3784  0.7741 -2.3441
   11MOL0     H 1481  11.643  -0.037  11.103  0.7895 -0.9219 -0.7893
   11MOL0     H 1482  11.545  -0.342  11.159  0.6315  2.3665  3.3946
   11MOL0     H 1483  11.685  -0.445  11.144  1.4903  0.6318 -0.3381
   11MOL0     H 1484  11.683  -0.165  11.261  1.7421  1.0947  3.1496
   11MOL0     H 1485  11.694  -0.316  11.344  1.6427  0.6189  0.7256
   11MOL0     H 1486  11.910  -0.200  11.153  1.9787 -2.1696 -0.8448
   11MOL0     H 1487  11.930  -0.341  11.254  0.2753  0.7069  1.1113
   11MOL0     H 1488  12.054  -0.151  11.344  1.3036 -0.3926  2.9203
   11MOL0     H 1489  11.940  -0.216  11.461 -0.6746  1.9240  0.9259
   11MOL0     H 1490  11.844  -0.007  11.279 -2.1820 -1.8362  0.0803
   11MOL0     H 1491  11.803  -0.020  11.451 -2.0937  2.1746 -2.2702
   11MOL0     H 1492  12.024   0.125  11.349  3.0733 -3.0269 -0.1266
   11MOL0     H 1493  12.078   0.026  11.463  1.0357  1.3632 -2.1005
   11MOL0     H 1494  11.834   0.187  11.543  0.5367  2.0708  0.0296
   11MOL0     H 1495  11.989   0.265  11.521 -0.5496  0.2141  2.8497
   11MOL0     H 1496  11.938   0.194  11.749 -0.1546 -0.8826 -0.4025
   11MOL0     H 1497  12.092   0.127  11.694  0.3550 -0.0030  0.2687
   11MOL0     H 1498  11.484  -0.334  10.843 -0.5513  0.8872 -4.0996
   11MOL0     H 1499  11.303  -0.170  10.781  0.7884 -2.4867  1.1714
   11MOL0     H 1500  11.128   0.155  10.636 -2.5815  1.7266 -2.7861
   11MOL0     H 1501  10.961   0.307  10.558  0.2060 -1.9054  0.3046
   11MOL0     H 1502  10.387   0.753   9.243  0.5379 -0.7372 -0.8825
   11MOL0     H 1503  10.586   0.670   9.118 -0.5449  1.4012  0.4817
   11MOL0     H 1504  10.973   0.259   9.139  0.9531  0.7198  2.9886
   11MOL0     H 1505  11.162   0.228   8.998 -1.2347  0.5240  1.8142
   11MOL0     H 1506  11.287   0.604   8.757  3.0056  0.4832  0.8151
   11MOL0     H 1507  11.419   0.575   8.840 -2.6232  1.4492  3.5103
   11MOL0     H 1508  11.302   0.391   8.594  0.3574  0.9764 -3.6401
   11MOL0     H 1509  11.448   0.359   8.690  0.1510  2.0332  0.9229
   11MOL0     H 1510  11.381   0.622   8.539 -2.0322  0.2006  1.6215
   11MOL0     H 1511  11.528   0.599   8.620 -0.8734  1.6804  1.9226
   11MOL0     H 1512  11.421   0.473   8.382  1.6344  2.8773 -1.7789
   11MOL0     H 1513  11.564   0.387   8.452  0.8438  0.2634 -0.4507
   11MOL0     H 1514  11.746   0.707   8.253 -2.6517  3.3900  0.0387
   11MOL0     H 1515  11.152   0.661   8.930 -0.8717  0.7770  0.2848
   11MOL0     H 1516  10.981   0.771   9.220 -4.3130  0.7889 -0.2182
   11MOL0     H 1517  11.037   0.804   9.058  0.1570  2.4528  1.8893
   11MOL0     H 1518  10.873   0.752   9.100 -0.1165  4.4796  2.7569
   12MOL0     O 1519   0.461  11.078   9.942 -0.5146  0.3978  0.3083
   12MOL0     C 1520   0.439  11.084  10.061 -0.9728  0.4117 -0.0420
   12MOL0     O 1521   0.338  11.015  10.122 -0.6837 -0.3483 -0.1230
   12MOL0     C 1522   0.243  10.939  10.046  0.7197  0.7476 -1.6348
   12MOL0     C 1523   0.116  10.988  10.021 -1.4148  1.1056  0.7031
   12MOL0     C 1524   0.022  10.929   9.934  0.5854 -0.3558  0.7399
   12MOL0     C 1525   0.050  10.801   9.889 -0.0768  0.6315 -0.3013
   12MOL0     O 1526  -0.045  10.732   9.821 -0.1835  0.2773  0.7787
   12MOL0     C 1527  -0.028  10.595   9.798 -0.3452 -0.1167 -0.0677
   12MOL0     C 1528  -0.148  10.529   9.733 -0.0705  0.3007  0.9078
   12MOL0     C 1529  -0.168  10.382   9.744  0.2957  0.0098 -0.1389
   12MOL0     C 1530  -0.042  10.304   9.718 -0.3270 -0.3048  0.1461
   12MOL0     C 1531  -0.053  10.151   9.745  1.1185  0.4489 -0.2771
   12MOL0     C 1532  -0.030  10.069   9.611 -0.6789  0.0207 -0.2584
   12MOL0     C 1533  -0.065   9.920   9.640 -0.7997 -0.6698 -0.8695
   12MOL0     C 1534  -0.071   9.831   9.521  0.2370  0.1459  0.2255
   12MOL0     N 1535  -0.110   9.697   9.558 -0.0238  0.0711  0.5552
   12MOL0     C 1536  -0.237   9.652   9.590 -0.5624  0.0627  0.2183
   12MOL0     C 1537  -0.221   9.517   9.607  0.1315 -0.3677  0.3193
   12MOL0     C 1538  -0.323   9.412   9.640  0.3135 -0.3856 -0.1724
   12MOL0     C 1539  -0.349   9.305   9.535 -0.8071 -0.0496 -0.3435
   12MOL0     C 1540  -0.239   9.199   9.520 -0.1518  0.4362 -0.3926
   12MOL0     C 1541  -0.254   9.100   9.404  0.0155 -0.1487 -0.9943
   12MOL0     O 1542  -0.377   9.030   9.394 -0.3854 -0.7527  0.0953
   12MOL0     C 1543  -0.435   8.947   9.486 -0.2961 -0.1769 -0.0831
   12MOL0     C 1544  -0.371   8.902   9.604 -0.3038 -0.8998 -0.1329
   12MOL0     C 1545  -0.445   8.825   9.700 -0.1681 -0.5231 -0.0668
   12MOL0     C 1546  -0.371   8.795   9.833 -0.1154  0.0260  0.2273
   12MOL0     C 1547  -0.576   8.790   9.670  0.1446  0.1706 -0.0783
   12MOL0     C 1548  -0.643   8.695   9.759  0.2954 -0.2609  0.5722
   12MOL0     O 1549  -0.778   8.712   9.767 -0.0075 -0.4199  0.1294
   12MOL0     C 1550  -0.851   8.613   9.832  0.4947  0.5635  0.5191
   12MOL0     C 1551  -0.924   8.638   9.947 -0.3145 -0.2751  0.4691
   12MOL0     C 1552  -0.991   8.535  10.007  0.4833 -0.2569 -0.3730
   12MOL0     C 1553  -0.983   8.407   9.962  0.0602  0.1783  0.1320
   12MOL0     O 1554  -1.064   8.315  10.016 -0.6905  0.8136 -0.6084
   12MOL0     C 1555  -1.012   8.250  10.139  0.3372 -0.7652  0.1968
   12MOL0     C 1556  -1.101   8.133  10.177 -0.1615 -0.1137 -0.3391
   12MOL0     C 1557  -1.056   8.029  10.287  0.4568 -0.3400  1.3597
   12MOL0     C 1558  -0.901   8.022  10.290 -0.2346  0.7539  0.2324
   12MOL0     C 1559  -0.863   7.932  10.402  0.2544  0.6431 -0.4248
   12MOL0     C 1560  -0.708   7.950  10.431 -0.0536  0.5301 -0.7572
   12MOL0     C 1561  -0.680   7.867  10.561  0.1001  0.0294  0.5382
   12MOL0     C 1562  -0.611   7.940  10.679  0.0314  0.4180  0.7522
   12MOL0    Cl 1563  -0.449   8.024  10.643 -0.3832  0.8273 -0.0870
   12MOL0     C 1564  -0.913   8.381   9.842 -0.1693  0.0378  0.2078
   12MOL0     C 1565  -0.857   8.489   9.773  0.8538 -0.8407  0.3486
   12MOL0     O 1566  -0.585   8.593   9.793  0.1285 -0.0621 -0.7364
   12MOL0     C 1567  -0.641   8.840   9.561  0.6999  1.0584  0.5460
   12MOL0     C 1568  -0.569   8.910   9.462  0.2380  0.0008 -0.4993
   12MOL0     N 1569  -0.082   9.487   9.590 -0.0076 -0.6819 -0.2709
   12MOL0     N 1570  -0.019   9.597   9.556  0.3150  0.4509 -0.3148
   12MOL0     C 1571   0.174  10.739   9.932 -1.0139  0.1470 -0.4332
   12MOL0     C 1572   0.273  10.817   9.997 -1.2501 -0.2457 -0.0369
   12MOL0     C 1573   0.533  11.159  10.156  0.1557 -0.8209  1.2056
   12MOL0     C 1574   0.492  11.189  10.285  0.2445 -0.3585 -0.4053
   12MOL0     C 1575   0.576  11.261  10.369 -0.1228  0.1038 -0.1779
   12MOL0     C 1576   0.701  11.297  10.331 -0.0486  0.6788  0.1631
   12MOL0     O 1577   0.782  11.362  10.424 -0.6662  0.6391 -0.2254
   12MOL0     C 1578   0.788  11.502  10.429 -0.1811  0.0030 -0.0996
   12MOL0     C 1579   0.659  11.563  10.499  0.8807 -0.4466  0.1263
   12MOL0     C 1580   0.683  11.695  10.572  0.5348  0.4814  0.5044
   12MOL0     C 1581   0.750  11.811  10.489 -0.8774 -1.3395 -1.5934
   12MOL0     C 1582   0.737  11.937  10.572 -0.2891 -1.1418 -0.0565
   12MOL0     C 1583   0.736  12.054  10.622 -0.3918 -0.2787 -0.1686
   12MOL0     C 1584   0.754  11.267  10.201 -0.2358 -1.2127 -0.5220
   12MOL0     C 1585   0.665  11.205  10.111 -0.3157 -0.5303 -0.1976
   12MOL0     C 1586   0.712  11.189   9.971 -0.0736 -0.1144 -0.4006
   12MOL0     H 1587   0.099  11.079  10.078  1.2440  2.6616 -0.7964
   12MOL0     H 1588  -0.071  10.981   9.915  0.9777  1.8176  3.9215
   12MOL0     H 1589   0.005  10.541   9.887  6.3368  0.0582 -1.8956
   12MOL0     H 1590   0.046  10.569   9.721  0.6547 -3.5843  1.8761
   12MOL0     H 1591  -0.241  10.575   9.768 -0.8228  1.2986 -2.1204
   12MOL0     H 1592  -0.134  10.555   9.628  0.9208  0.6417  1.1125
   12MOL0     H 1593  -0.189  10.376   9.852  0.9963  0.4736  0.0298
   12MOL0     H 1594  -0.257  10.354   9.686  0.2921  0.5541 -0.3964
   12MOL0     H 1595  -0.012  10.317   9.613 -1.4362  1.1987 -0.0066
   12MOL0     H 1596   0.040  10.336   9.782  0.9032 -1.2026 -0.9164
   12MOL0     H 1597  -0.149  10.121   9.788  0.1254  1.4129 -1.7145
   12MOL0     H 1598   0.019  10.123   9.823  3.4698 -2.0680 -3.0874
   12MOL0     H 1599  -0.095  10.110   9.533  1.0938  3.5416 -0.0439
   12MOL0     H 1600   0.077  10.072   9.590  0.0076  1.9109  2.9598
   12MOL0     H 1601  -0.158   9.911   9.697 -1.0986  1.3033 -0.9847
   12MOL0     H 1602   0.018   9.869   9.688  0.0956 -0.7787 -2.4488
   12MOL0     H 1603  -0.140   9.860   9.441  0.3963 -5.1158 -2.2792
   12MOL0     H 1604   0.029   9.826   9.476 -1.4417  0.4086 -3.9786
   12MOL0     H 1605  -0.322   9.718   9.602 -1.2437 -0.3785 -1.7323
   12MOL0     H 1606  -0.425   9.452   9.639  0.0399 -1.0322  0.7174
   12MOL0     H 1607  -0.292   9.375   9.738 -0.1029  0.1975  0.1901
   12MOL0     H 1608  -0.449   9.265   9.553 -2.1403  3.5348  1.2975
   12MOL0     H 1609  -0.355   9.360   9.441  0.9863  3.9398  1.5901
   12MOL0     H 1610  -0.146   9.250   9.493 -1.2335  2.4590 -0.4444
   12MOL0     H 1611  -0.219   9.145   9.614 -3.4809  2.0806  1.4301
   12MOL0     H 1612  -0.250   9.163   9.314  0.7566 -1.2614 -1.7613
   12MOL0     H 1613  -0.167   9.035   9.406  0.1863  0.0787 -1.0299
   12MOL0     H 1614  -0.271   8.932   9.634 -0.4442 -1.6473  1.1703
   12MOL0     H 1615  -0.279   8.852   9.852 -0.0556  0.1284 -0.3254
   12MOL0     H 1616  -0.339   8.691   9.825 -0.6644 -0.1116 -0.2062
   12MOL0     H 1617  -0.437   8.810   9.918 -0.1172  2.0365 -0.0746
   12MOL0     H 1618  -0.936   8.736   9.990 -0.1989 -0.2121  0.3595
   12MOL0     H 1619  -1.044   8.544  10.101 -1.0277 -0.3458 -1.1932
   12MOL0     H 1620  -0.906   8.224  10.132  0.4304 -0.9127  1.6787
   12MOL0     H 1621  -1.005   8.324  10.219  3.0909 -0.4574 -0.2365
   12MOL0     H 1622  -1.193   8.184  10.209  0.3417  2.0771 -2.1143
   12MOL0     H 1623  -1.128   8.079  10.087  0.3035 -1.5060  0.3334
   12MOL0     H 1624  -1.100   7.936  10.249  0.0614  1.1382 -2.2257
   12MOL0     H 1625  -1.096   8.056  10.386  0.6618  1.8787  0.8886
   12MOL0     H 1626  -0.865   8.124  10.308  0.2819  0.7301 -0.6054
   12MOL0     H 1627  -0.869   7.983  10.193  1.5082  0.8515  0.7383
   12MOL0     H 1628  -0.918   7.957  10.494 -0.7304  0.8209 -1.0459
   12MOL0     H 1629  -0.889   7.827  10.387 -0.3707  0.1991  2.8616
   12MOL0     H 1630  -0.680   8.053  10.455  2.4172  0.2365 -2.0480
   12MOL0     H 1631  -0.645   7.911  10.351 -3.0401 -1.4148 -2.3220
   12MOL0     H 1632  -0.621   7.783  10.525 -0.7124  0.0911 -1.0577
   12MOL0     H 1633  -0.774   7.829  10.601 -0.5529  0.0359 -0.9170
   12MOL0     H 1634  -0.595   7.868  10.760 -1.2680 -0.7056  0.0559
   12MOL0     H 1635  -0.687   8.012  10.714 -1.1470 -0.6812  0.5279
   12MOL0     H 1636  -0.909   8.288   9.785  0.1004  2.0645 -3.3959
   12MOL0     H 1637  -0.788   8.471   9.690 -0.5157 -1.1625 -0.7593
   12MOL0     H 1638  -0.744   8.814   9.541  1.4221 -1.2653 -0.6564
   12MOL0     H 1639  -0.624   8.947   9.376  0.5931 -3.0402 -2.1649
   12MOL0     H 1640   0.189  10.640   9.890 -1.8534 -1.3899  2.6105
   12MOL0     H 1641   0.372  10.784  10.028 -0.9965  0.8028  0.3149
   12MOL0     H 1642   0.391  11.168  10.318  1.2027 -2.6406  1.3216
   12MOL0     H 1643   0.564  11.269  10.477  1.2183 -0.8341  0.0588
   12MOL0     H 1644   0.875  11.522  10.493  0.6049 -0.3323 -1.0192
   12MOL0     H 1645   0.797  11.541  10.327 -0.4284 -1.9439 -0.9158
   12MOL0     H 1646   0.629  11.487  10.572 -1.1721 -0.3367 -0.5363
   12MOL0     H 1647   0.582  11.579  10.422  2.0761  4.0713 -0.4258
   12MOL0     H 1648   0.592  11.744  10.607  1.8144  2.4064  1.3950
   12MOL0     H 1649   0.734  11.672  10.666  0.3211 -1.5230  0.1741
   12MOL0     H 1650   0.687  11.835  10.403 -0.9956  1.8556 -0.7303
   12MOL0     H 1651   0.854  11.798  10.455 -0.7953 -3.6994 -0.6403
   12MOL0     H 1652   0.753  12.144  10.678  2.3992 -1.6429  1.4058
   12MOL0     H 1653   0.850  11.299  10.163 -1.1094  1.0635 -0.9692
   12MOL0     H 1654   0.685  11.277   9.913  0.3619  3.4407  4.2305
   12MOL0     H 1655   0.820  11.187   9.984 -0.1139 -3.8758  0.5653
   12MOL0     H 1656   0.690  11.090   9.929 -2.1686 -0.0457  0.3792
   13MOL0     O 1657   0.490   8.373   6.262 -0.1875 -0.6772 -0.7119
   13MOL0     C 1658   0.415   8.276   6.266 -0.5623  0.2251  0.3518
   13MOL0     O 1659   0.454   8.140   6.271 -0.8159 -0.3843  0.5351
   13MOL0     C 1660   0.568   8.109   6.351 -0.0097 -0.5566 -0.0456
   13MOL0     C 1661   0.627   8.193   6.447  0.7247  0.4869 -0.3709
   13MOL0     C 1662   0.742   8.152   6.529  0.1500  0.9915 -0.2478
   13MOL0     C 1663   0.807   8.032   6.511  1.0988  0.4013  0.3510
   13MOL0     O 1664   0.897   8.012   6.613 -0.2266  1.9044 -0.6831
   13MOL0     C 1665   0.952   7.880   6.629  0.3035  0.1763  0.6197
   13MOL0     C 1666   1.017   7.868   6.771  0.4536 -0.6621  0.3774
   13MOL0     C 1667   1.158   7.939   6.775 -0.6470 -1.5365  0.0448
   13MOL0     C 1668   1.283   7.851   6.790 -0.0301 -0.0939  0.2205
   13MOL0     C 1669   1.410   7.936   6.819  0.4248  0.3817  0.5340
   13MOL0     C 1670   1.424   7.987   6.968 -0.2826  0.8758  0.9762
   13MOL0     C 1671   1.546   8.086   6.990  0.1743 -0.7319 -0.0791
   13MOL0     C 1672   1.557   8.157   7.135  0.4086 -0.9177  0.0408
   13MOL0     N 1673   1.636   8.078   7.235  0.7549 -0.4334  0.5442
   13MOL0     C 1674   1.770   8.056   7.222 -0.7893  1.4171  0.0450
   13MOL0     C 1675   1.806   8.019   7.351 -0.6915 -1.1652  0.7021
   13MOL0     C 1676   1.953   8.010   7.398 -0.0612  0.3310 -0.5563
   13MOL0     C 1677   2.056   7.989   7.287  0.9694 -1.0810  0.3342
   13MOL0     C 1678   2.190   7.944   7.341 -0.0221 -0.2164 -0.1818
   13MOL0     C 1679   2.240   8.056   7.429 -0.3408  0.4876 -0.4169
   13MOL0     O 1680   2.364   8.009   7.491 -1.0465 -0.3481  0.5827
   13MOL0     C 1681   2.486   8.008   7.420 -0.5298 -0.4008  0.1625
   13MOL0     C 1682   2.596   7.937   7.475 -0.3315 -0.8507  0.4181
   13MOL0     C 1683   2.721   7.936   7.427  0.1603  1.3472  0.4640
   13MOL0     C 1684   2.820   7.883   7.523  0.3576  0.3497  0.4326
   13MOL0     C 1685   2.743   7.986   7.297  1.4073 -0.0279 -0.1227
   13MOL0     C 1686   2.871   7.973   7.229 -0.2365  0.4083 -0.2432
   13MOL0     O 1687   2.883   7.966   7.087 -0.5519  0.3268 -0.0117
   13MOL0     C 1688   3.003   7.944   7.009  0.3811 -0.6635 -0.8465
   13MOL0     C 1689   3.115   8.012   7.040 -0.9479  0.1606 -0.5930
   13MOL0     C 1690   3.237   7.992   6.968  0.3077  0.0034 -0.2771
   13MOL0     C 1691   3.242   7.905   6.862  0.0729 -0.5979  0.5538
   13MOL0     O 1692   3.361   7.882   6.800 -0.2044  0.5706 -0.5806
   13MOL0     C 1693   3.377   7.755   6.736 -1.1341  0.5271  0.6724
   13MOL0     C 1694   3.522   7.737   6.666 -0.0139 -0.0293  0.1467
   13MOL0     C 1695   3.553   7.852   6.567 -0.4481 -0.0690  0.1290
   13MOL0     C 1696   3.441   7.875   6.468  0.4371 -0.3239  0.6239
   13MOL0     C 1697   3.472   7.994   6.364  0.6958  0.1508 -0.2528
   13MOL0     C 1698   3.546   7.942   6.244  0.2878  0.2070 -0.1442
   13MOL0     C 1699   3.460   7.861   6.148 -0.1910  0.4960  0.1990
   13MOL0     C 1700   3.536   7.800   6.022 -0.2380 -0.2682 -0.3809
   13MOL0    Cl 1701   3.405   7.741   5.909  0.1739  0.0142  0.0635
   13MOL0     C 1702   3.120   7.846   6.828 -0.0952  0.3371 -0.4315
   13MOL0     C 1703   3.002   7.856   6.901 -0.1882  0.4042  0.4319
   13MOL0     O 1704   2.970   7.964   7.309  0.3032  0.5208  0.3519
   13MOL0     C 1705   2.641   8.050   7.237  0.2425 -0.6385 -0.0510
   13MOL0     C 1706   2.516   8.077   7.301 -0.4008  0.2672 -0.2079
   13MOL0     N 1707   1.695   8.009   7.427 -0.1239 -0.5124 -1.1591
   13MOL0     N 1708   1.592   8.038   7.361  1.0771 -0.2505 -0.8747
   13MOL0     C 1709   0.748   7.941   6.411  0.0562  0.3449 -0.1647
   13MOL0     C 1710   0.628   7.977   6.336 -0.7704 -0.2461 -0.8143
   13MOL0     C 1711   0.276   8.310   6.272 -0.3277 -0.9944 -0.2546
   13MOL0     C 1712   0.193   8.230   6.345 -1.1453 -0.6847  0.9189
   13MOL0     C 1713   0.055   8.256   6.371  0.0086 -0.3020 -0.9756
   13MOL0     C 1714   0.009   8.376   6.313 -0.0636  0.8051 -0.1316
   13MOL0     O 1715  -0.122   8.395   6.335 -0.2667 -0.1012 -0.0754
   13MOL0     C 1716  -0.155   8.510   6.420  0.2281 -0.4334  0.0836
   13MOL0     C 1717  -0.282   8.466   6.496 -0.0426 -0.0316  0.1265
   13MOL0     C 1718  -0.319   8.565   6.599  1.4545  0.1142 -0.2790
   13MOL0     C 1719  -0.469   8.538   6.634  0.1553 -0.3290 -0.1393
   13MOL0     C 1720  -0.478   8.613   6.757  0.4677  0.0251  0.0167
   13MOL0     C 1721  -0.463   8.659   6.864  0.1091  0.1844 -0.3133
   13MOL0     C 1722   0.095   8.454   6.232 -0.2117  0.2717 -0.9006
   13MOL0     C 1723   0.225   8.422   6.211 -0.3152 -0.1347 -0.8413
   13MOL0     C 1724   0.298   8.525   6.119 -0.3551  0.4543  1.1705
   13MOL0     H 1725   0.591   8.293   6.469  0.1523 -0.0721  1.3861
   13MOL0     H 1726   0.771   8.217   6.611 -1.0683  1.7952 -0.4212
   13MOL0     H 1727   1.026   7.857   6.551 -0.7360  2.0376 -0.9984
   13MOL0     H 1728   0.870   7.809   6.617 -4.0871  4.7449  0.7212
   13MOL0     H 1729   0.947   7.908   6.845  1.4906  1.5294  0.2547
   13MOL0     H 1730   1.039   7.763   6.793  0.5242 -0.8595 -0.5893
   13MOL0     H 1731   1.183   8.024   6.711 -2.1184  1.2577  2.9014
   13MOL0     H 1732   1.145   8.000   6.865 -3.6983  0.8654 -1.7974
   13MOL0     H 1733   1.266   7.773   6.864 -2.1466  0.6510  0.5756
   13MOL0     H 1734   1.304   7.786   6.704  1.7506 -1.5709  1.6858
   13MOL0     H 1735   1.427   8.016   6.746 -1.6924  1.6092  1.3218
   13MOL0     H 1736   1.498   7.873   6.802  0.2859  0.6678 -1.5003
   13MOL0     H 1737   1.331   8.037   6.996 -1.7147 -1.3627  0.4905
   13MOL0     H 1738   1.437   7.892   7.021 -1.3664  0.7001  0.9552
   13MOL0     H 1739   1.542   8.172   6.923 -0.5556  0.4650  1.4407
   13MOL0     H 1740   1.638   8.034   6.962  0.8518  1.3038 -1.9308
   13MOL0     H 1741   1.611   8.251   7.123 -3.3604  1.0997 -3.9203
   13MOL0     H 1742   1.464   8.198   7.177  0.9362  1.7187 -1.1274
   13MOL0     H 1743   1.830   8.087   7.137 -0.5113  3.0253  0.7931
   13MOL0     H 1744   1.950   7.924   7.466  0.6243  0.1919 -0.6952
   13MOL0     H 1745   1.976   8.102   7.451  5.0283 -1.0242  0.1278
   13MOL0     H 1746   2.017   7.914   7.218 -3.1568  0.8644  0.2571
   13MOL0     H 1747   2.066   8.084   7.234  0.5542 -1.2891 -0.1331
   13MOL0     H 1748   2.183   7.856   7.406 -0.3146 -2.3098 -2.9052
   13MOL0     H 1749   2.253   7.929   7.253  0.7966  0.3830  0.2742
   13MOL0     H 1750   2.265   8.149   7.376  0.2974  0.9967  0.7400
   13MOL0     H 1751   2.164   8.085   7.502 -0.3698  1.2019 -0.7241
   13MOL0     H 1752   2.576   7.887   7.569  1.2000 -1.9589  0.1820
   13MOL0     H 1753   2.863   7.966   7.580 -0.4816  2.1235 -1.3627
   13MOL0     H 1754   2.899   7.825   7.476 -0.8189  0.1600 -1.4269
   13MOL0     H 1755   2.772   7.814   7.592  0.5822  0.8681  1.1124
   13MOL0     H 1756   3.107   8.086   7.120 -1.7558 -1.6373  1.0692
   13MOL0     H 1757   3.328   8.045   6.994 -0.0866  1.6745 -2.0394
   13MOL0     H 1758   3.353   7.670   6.801 -0.2645 -1.1801 -1.1075
   13MOL0     H 1759   3.311   7.768   6.650  1.6184  1.9818 -1.3720
   13MOL0     H 1760   3.590   7.724   6.751 -0.7447 -5.3621  0.2546
   13MOL0     H 1761   3.535   7.639   6.620 -0.3682 -1.0510  2.0916
   13MOL0     H 1762   3.646   7.824   6.517 -1.0541  1.6574 -2.1709
   13MOL0     H 1763   3.574   7.949   6.614  3.1478 -0.6202 -0.0751
   13MOL0     H 1764   3.354   7.910   6.524 -1.3702 -0.7901 -1.7531
   13MOL0     H 1765   3.423   7.777   6.424 -1.6878  0.7389 -1.0580
   13MOL0     H 1766   3.376   8.036   6.334 -0.4699 -0.9632  1.6884
   13MOL0     H 1767   3.535   8.064   6.420  0.6472  0.8192 -1.0181
   13MOL0     H 1768   3.626   7.885   6.290 -1.7621 -1.5826  1.3863
   13MOL0     H 1769   3.590   8.028   6.192  2.4413 -0.5242  0.3969
   13MOL0     H 1770   3.373   7.916   6.112 -0.8803 -1.0871 -0.6637
   13MOL0     H 1771   3.417   7.776   6.202 -0.6806  0.0673 -0.8360
   13MOL0     H 1772   3.606   7.724   6.056  2.0708  1.5004 -0.9269
   13MOL0     H 1773   3.604   7.874   5.979  2.5054 -3.0801 -1.2540
   13MOL0     H 1774   3.122   7.771   6.750  2.5823  1.5019 -1.5746
   13MOL0     H 1775   2.910   7.808   6.866  2.1356 -1.5100 -3.9702
   13MOL0     H 1776   2.663   8.082   7.136 -3.7004  0.7698 -0.6340
   13MOL0     H 1777   2.450   8.147   7.252  0.1259  0.5258 -0.5588
   13MOL0     H 1778   0.777   7.837   6.401  0.3017  0.6207 -3.7080
   13MOL0     H 1779   0.586   7.893   6.282  0.2159  0.0409 -2.0678
   13MOL0     H 1780   0.232   8.134   6.377  2.7255 -0.4023 -2.1846
   13MOL0     H 1781  -0.020   8.190   6.411  0.2479  0.7120  1.2855
   13MOL0     H 1782  -0.083   8.539   6.497  0.2802  2.9755 -1.0718
   13MOL0     H 1783  -0.168   8.601   6.359 -0.6208  0.6491  1.8199
   13MOL0     H 1784  -0.265   8.368   6.542  0.2146  0.0585  0.2200
   13MOL0     H 1785  -0.369   8.460   6.429 -0.4363  0.0260  0.6248
   13MOL0     H 1786  -0.257   8.548   6.688 -0.4741 -1.2769  0.8881
   13MOL0     H 1787  -0.303   8.666   6.562 -1.5241  0.4598 -0.8229
   13MOL0     H 1788  -0.493   8.431   6.637 -1.3760 -0.0312 -0.7664
   13MOL0     H 1789  -0.535   8.596   6.568 -2.5470  0.0180  2.6399
   13MOL0     H 1790  -0.449   8.716   6.953  1.5801 -0.1227 -0.3238
   13MOL0     H 1791   0.056   8.538   6.176 -0.7108  0.5537 -0.1399
   13MOL0     H 1792   0.338   8.478   6.029 -0.1257  0.7842  1.0971
   13MOL0     H 1793   0.236   8.610   6.090  0.3039  0.9248  1.1030
   13MOL0     H 1794   0.379   8.580   6.168  2.5253 -3.3193  1.1408
   14MOL0     O 1795   0.997   4.666  11.040 -0.5541  0.4789 -0.4085
   14MOL0     C 1796   0.919   4.581  10.993  0.3807 -1.0291 -0.3815
   14MOL0     O 1797   0.786   4.591  11.009  0.1264 -0.4798 -0.3774
   14MOL0     C 1798   0.742   4.706  11.068  0.1297  0.6997  0.6103
   14MOL0     C 1799   0.708   4.711  11.202 -0.0817 -0.2665  0.1967
   14MOL0     C 1800   0.656   4.823  11.266  0.2558  0.0347  0.8807
   14MOL0     C 1801   0.645   4.941  11.190  0.0887  0.7030 -1.3230
   14MOL0     O 1802   0.603   5.055  11.255 -0.0594 -0.5937 -0.0220
   14MOL0     C 1803   0.689   5.171  11.269  0.0572 -0.9292  0.7316
   14MOL0     C 1804   0.601   5.302  11.276  0.2873 -0.0791  0.9787
   14MOL0     C 1805   0.676   5.425  11.243 -0.1130 -0.4477 -0.1366
   14MOL0     C 1806   0.734   5.432  11.101  0.5016  0.5493 -0.2667
   14MOL0     C 1807   0.876   5.481  11.102 -0.9340  0.0117  0.5014
   14MOL0     C 1808   0.918   5.543  10.967 -0.2550  0.1498  0.1309
   14MOL0     C 1809   1.061   5.579  10.962 -1.1469 -0.3513  0.5934
   14MOL0     C 1810   1.100   5.663  10.839 -0.3783 -0.1945  0.5692
   14MOL0     N 1811   1.240   5.682  10.824 -0.5410  0.8075 -0.7625
   14MOL0     C 1812   1.337   5.584  10.802  0.4325 -0.0847  0.1943
   14MOL0     C 1813   1.461   5.643  10.822  1.3173  0.0304  0.4667
   14MOL0     C 1814   1.598   5.579  10.828 -0.3827  0.7575  0.7783
   14MOL0     C 1815   1.604   5.425  10.850  0.0537  0.4988  0.2402
   14MOL0     C 1816   1.742   5.387  10.893 -0.4217  0.7786  0.0181
   14MOL0     C 1817   1.756   5.231  10.906 -0.6956  0.0913 -0.0819
   14MOL0     O 1818   1.887   5.192  10.912  0.6875 -0.0477  0.7397
   14MOL0     C 1819   1.934   5.101  11.005 -0.3705 -0.0027  0.6430
   14MOL0     C 1820   1.848   5.006  11.072 -0.4981 -0.7065  0.2569
   14MOL0     C 1821   1.892   4.928  11.175 -0.2352 -0.6261 -0.2453
   14MOL0     C 1822   1.805   4.816  11.228 -0.0817 -0.8360  0.0101
   14MOL0     C 1823   2.029   4.949  11.225  0.4964 -0.0738 -0.2996
   14MOL0     C 1824   2.074   4.875  11.338 -0.0456  0.9683  0.8555
   14MOL0     O 1825   2.057   4.737  11.325 -0.5861 -0.4502 -1.3542
   14MOL0     C 1826   2.102   4.657  11.433  0.0986  0.0129  0.5540
   14MOL0     C 1827   2.008   4.603  11.517  0.5612  0.7930 -0.4469
   14MOL0     C 1828   2.060   4.518  11.617 -0.6758  0.6245  0.3192
   14MOL0     C 1829   2.199   4.504  11.637  0.2484 -0.4994  1.5496
   14MOL0     O 1830   2.242   4.441  11.755 -0.1349 -0.2892 -0.1439
   14MOL0     C 1831   2.358   4.358  11.752 -0.3608  0.4245  0.1377
   14MOL0     C 1832   2.428   4.365  11.887  0.3343 -0.9978  0.3853
   14MOL0     C 1833   2.554   4.279  11.895  0.3448 -0.3375  0.4481
   14MOL0     C 1834   2.658   4.329  12.004 -0.4876  0.6770  0.4850
   14MOL0     C 1835   2.764   4.220  12.033 -0.4214 -0.5064  0.3063
   14MOL0     C 1836   2.891   4.285  12.096 -0.0230  0.6956 -0.2933
   14MOL0     C 1837   2.992   4.168  12.142 -0.8156  0.1379  0.7361
   14MOL0     C 1838   3.124   4.245  12.183 -0.0836  0.9066 -0.0321
   14MOL0    Cl 1839   3.263   4.144  12.253  0.5445  0.8616  0.8150
   14MOL0     C 1840   2.290   4.574  11.560  0.9125 -0.8161 -0.3885
   14MOL0     C 1841   2.234   4.655  11.458  0.4769 -0.6885  0.3361
   14MOL0     O 1842   2.099   4.933  11.443  0.3338 -1.3569 -0.8621
   14MOL0     C 1843   2.105   5.034  11.150  0.8320  0.9462  0.0154
   14MOL0     C 1844   2.064   5.105  11.040  0.2960 -0.0840  0.1101
   14MOL0     N 1845   1.437   5.776  10.855  0.5268  0.1396 -0.3449
   14MOL0     N 1846   1.304   5.793  10.858 -0.1054  0.7468 -0.0132
   14MOL0     C 1847   0.683   4.945  11.056  0.2474 -0.6318 -0.5218
   14MOL0     C 1848   0.728   4.820  10.995 -0.4044 -0.2037 -0.1349
   14MOL0     C 1849   0.977   4.476  10.900  1.1584 -0.1625  0.0387
   14MOL0     C 1850   0.888   4.394  10.829  0.0917 -0.3292  0.7526
   14MOL0     C 1851   0.925   4.301  10.733 -0.0603  0.0177  0.6919
   14MOL0     C 1852   1.059   4.270  10.726 -0.1890  0.1772  0.3146
   14MOL0     O 1853   1.115   4.163  10.657  0.4509  0.0488 -0.2347
   14MOL0     C 1854   1.056   4.139  10.530 -0.0408 -0.4011  0.3420
   14MOL0     C 1855   1.095   4.263  10.448  0.0320  0.1552 -0.2527
   14MOL0     C 1856   1.051   4.255  10.304  0.6309 -0.4903 -0.1941
   14MOL0     C 1857   1.092   4.378  10.230 -0.1941  0.0856 -0.2540
   14MOL0     C 1858   1.088   4.363  10.082 -0.2392  0.2660  0.2550
   14MOL0     C 1859   1.087   4.358   9.886  0.3615  0.5428 -1.0857
   14MOL0     C 1860   1.152   4.350  10.793 -0.2051  0.4427  0.7989
   14MOL0     C 1861   1.118   4.447  10.878  0.9733 -0.7296  1.3847
   14MOL0     C 1862   1.236   4.522  10.932 -1.3421  0.2042 -0.6493
   14MOL0     H 1863   0.717   4.633  11.277 -2.4155 -0.0720  0.7590
   14MOL0     H 1864   0.644   4.829  11.374  0.5997  2.4521  0.8203
   14MOL0     H 1865   0.756   5.173  11.183 -1.2639 -2.2145 -0.3880
   14MOL0     H 1866   0.756   5.163  11.356  1.2024  1.1878  0.1111
   14MOL0     H 1867   0.523   5.298  11.200  0.1743  1.8371  0.9449
   14MOL0     H 1868   0.563   5.317  11.377 -4.0524  1.4883 -0.6693
   14MOL0     H 1869   0.608   5.511  11.249  2.0854  1.4588 -1.1678
   14MOL0     H 1870   0.757   5.435  11.316  0.5756  1.1552 -1.0818
   14MOL0     H 1871   0.728   5.334  11.055 -2.1698  0.5735 -0.1349
   14MOL0     H 1872   0.674   5.495  11.034  1.5711 -1.2254 -3.0499
   14MOL0     H 1873   0.948   5.406  11.137  1.0585  1.9620  0.7870
   14MOL0     H 1874   0.887   5.562  11.175  1.0899  1.4360 -1.2939
   14MOL0     H 1875   0.889   5.480  10.882 -4.2839 -1.7573  2.6213
   14MOL0     H 1876   0.859   5.635  10.965 -0.8474 -0.2369 -0.5069
   14MOL0     H 1877   1.129   5.493  10.956  1.9148  1.8103  2.0570
   14MOL0     H 1878   1.085   5.618  11.061  3.1677  0.3674 -0.5113
   14MOL0     H 1879   1.067   5.614  10.747 -0.1210  1.6491 -0.5426
   14MOL0     H 1880   1.042   5.755  10.832 -1.3229 -0.8549 -0.8762
   14MOL0     H 1881   1.314   5.485  10.763 -3.9791 -0.4878  3.0476
   14MOL0     H 1882   1.650   5.631  10.908 -1.2221 -2.6201  3.7806
   14MOL0     H 1883   1.653   5.598  10.735 -1.7517 -2.5312 -0.8525
   14MOL0     H 1884   1.539   5.406  10.936  4.5041  0.6728  3.9663
   14MOL0     H 1885   1.572   5.362  10.766 -0.6757 -2.3193  2.4622
   14MOL0     H 1886   1.805   5.430  10.815  1.2283 -0.9556  0.3191
   14MOL0     H 1887   1.771   5.445  10.982  2.0787  4.3442 -2.8367
   14MOL0     H 1888   1.696   5.204  10.994  1.2196 -0.5610  1.0798
   14MOL0     H 1889   1.713   5.188  10.815 -1.9846  1.9874 -0.4270
   14MOL0     H 1890   1.745   5.001  11.038 -0.0478 -1.2440 -1.1228
   14MOL0     H 1891   1.772   4.840  11.329 -0.3931 -1.2988  0.0206
   14MOL0     H 1892   1.845   4.714  11.228  0.6554 -0.5540  0.3934
   14MOL0     H 1893   1.717   4.820  11.164  2.5396  2.5677 -3.8944
   14MOL0     H 1894   1.901   4.614  11.510 -0.4501 -3.4248  3.5151
   14MOL0     H 1895   2.001   4.458  11.684  0.3806 -2.4229 -1.2591
   14MOL0     H 1896   2.327   4.256  11.728 -0.4916  0.6205 -0.5315
   14MOL0     H 1897   2.428   4.377  11.670 -1.5156  1.6100 -0.5991
   14MOL0     H 1898   2.458   4.469  11.904 -0.9886 -0.6380  0.6784
   14MOL0     H 1899   2.363   4.340  11.972 -1.6433 -1.1124 -1.0893
   14MOL0     H 1900   2.611   4.291  11.802 -1.7121  5.3935 -0.4560
   14MOL0     H 1901   2.520   4.175  11.905 -0.8596 -0.1084 -0.8886
   14MOL0     H 1902   2.598   4.345  12.095 -1.1897  1.5915 -0.1154
   14MOL0     H 1903   2.711   4.421  11.981  1.8550  0.1574  3.1897
   14MOL0     H 1904   2.718   4.140  12.092 -0.4602 -2.8772 -2.6707
   14MOL0     H 1905   2.796   4.163  11.945 -2.1708  0.5025 -1.0342
   14MOL0     H 1906   2.877   4.350  12.183  1.4131  0.7570 -0.0893
   14MOL0     H 1907   2.947   4.341  12.022  1.7995 -1.0753 -0.3449
   14MOL0     H 1908   2.995   4.098  12.058 -2.7973  2.9753 -1.9208
   14MOL0     H 1909   2.952   4.116  12.230  2.4414 -1.5127  1.4089
   14MOL0     H 1910   3.082   4.313  12.258  0.7671 -0.4864  1.7767
   14MOL0     H 1911   3.161   4.301  12.097  0.2039 -2.2079 -2.1178
   14MOL0     H 1912   2.391   4.597  11.593  1.7671 -3.1929 -1.1650
   14MOL0     H 1913   2.291   4.704  11.380 -2.6964  1.4820 -0.7846
   14MOL0     H 1914   2.206   5.054  11.185  1.7411  1.7577 -2.7575
   14MOL0     H 1915   2.125   5.173  10.980  1.1252  1.0453  2.1255
   14MOL0     H 1916   0.676   5.040  11.003 -1.7841  1.8421  3.6559
   14MOL0     H 1917   0.753   4.811  10.890 -0.3582 -0.9200 -0.0630
   14MOL0     H 1918   0.780   4.397  10.832 -0.1610 -1.7021 -2.6114
   14MOL0     H 1919   0.854   4.238  10.681  2.3583 -1.0034 -1.6171
   14MOL0     H 1920   1.089   4.049  10.478  0.8512 -0.5560  1.1593
   14MOL0     H 1921   0.947   4.135  10.533 -0.0454 -1.3703 -0.5950
   14MOL0     H 1922   1.202   4.284  10.456 -0.0410  0.4267  0.0295
   14MOL0     H 1923   1.055   4.354  10.494  1.1076 -0.5333  2.2330
   14MOL0     H 1924   1.102   4.168  10.262  2.9367  0.0316  1.3434
   14MOL0     H 1925   0.943   4.244  10.291  0.7717 -0.8681 -1.1320
   14MOL0     H 1926   1.200   4.398  10.229  0.2300 -1.8661 -2.2909
   14MOL0     H 1927   1.034   4.462  10.268  0.7692 -0.0384  1.5988
   14MOL0     H 1928   1.079   4.353   9.780 -2.0627 -1.5935 -0.8882
   14MOL0     H 1929   1.256   4.320  10.785  0.1980  1.5175  1.7576
   14MOL0     H 1930   1.316   4.449  10.947  0.5759  2.2531 -0.2574
   14MOL0     H 1931   1.267   4.582  10.846 -3.4044 -0.3176 -1.8343
   14MOL0     H 1932   1.219   4.572  11.028  3.2611  0.9838  0.0163
   15MOL0     O 1933   0.359   2.740   2.304 -0.3794  0.0880  0.4609
   15MOL0     C 1934   0.477   2.716   2.339 -0.4566 -1.1089 -1.1262
   15MOL0     O 1935   0.589   2.807   2.335  0.5774 -0.0226  0.3799
   15MOL0     C 1936   0.564   2.928   2.280 -1.1464  0.1463 -0.0058
   15MOL0     C 1937   0.554   3.043   2.359 -0.1486  0.6552 -0.1663
   15MOL0     C 1938   0.539   3.164   2.303 -0.4651  0.1506  0.0092
   15MOL0     C 1939   0.527   3.178   2.164 -0.1783  0.0287  0.0124
   15MOL0     O 1940   0.509   3.306   2.117 -0.0544 -0.7618 -0.4792
   15MOL0     C 1941   0.548   3.338   1.984  0.4854 -0.0401 -0.4512
   15MOL0     C 1942   0.563   3.481   1.961 -0.7136 -0.5363  0.3636
   15MOL0     C 1943   0.447   3.575   2.005  0.8567 -0.8653  1.1197
   15MOL0     C 1944   0.324   3.562   1.912 -1.0685  0.9158  0.6102
   15MOL0     C 1945   0.210   3.651   1.941  0.1789 -0.6101 -0.7796
   15MOL0     C 1946   0.094   3.641   1.846 -1.4325 -0.7370 -0.2571
   15MOL0     C 1947  -0.019   3.731   1.886  0.6084  0.4229  0.7892
   15MOL0     C 1948  -0.158   3.666   1.850  0.6081  0.1768  0.3135
   15MOL0     N 1949  -0.196   3.686   1.708 -0.0484  0.0494 -0.0959
   15MOL0     C 1950  -0.218   3.798   1.628 -0.3242  0.4470 -0.1676
   15MOL0     C 1951  -0.246   3.748   1.507  0.8587 -0.0405  0.7967
   15MOL0     C 1952  -0.273   3.821   1.384  0.1165 -0.8038 -0.2206
   15MOL0     C 1953  -0.400   3.905   1.395 -0.2901  0.0930 -0.6423
   15MOL0     C 1954  -0.422   3.977   1.258  0.7251 -0.2500 -0.0153
   15MOL0     C 1955  -0.349   4.107   1.247 -0.3963  0.3385  1.2287
   15MOL0     O 1956  -0.343   4.184   1.365  0.1284  0.6384 -0.0200
   15MOL0     C 1957  -0.424   4.295   1.374  0.9193 -0.7337 -0.3205
   15MOL0     C 1958  -0.514   4.340   1.274 -0.6295  0.7105 -0.4068
   15MOL0     C 1959  -0.597   4.452   1.299  0.6851 -0.1394 -0.1134
   15MOL0     C 1960  -0.690   4.500   1.186 -1.4481 -0.5567  0.6439
   15MOL0     C 1961  -0.590   4.516   1.428  0.4033  0.6931  0.3162
   15MOL0     C 1962  -0.676   4.629   1.476 -0.9634  0.6229 -0.2199
   15MOL0     O 1963  -0.705   4.650   1.607 -0.4604  0.7443 -0.1462
   15MOL0     C 1964  -0.775   4.755   1.671 -0.3861 -0.6499  0.7321
   15MOL0     C 1965  -0.819   4.739   1.802 -0.5825  0.5985  0.1019
   15MOL0     C 1966  -0.887   4.833   1.873  0.2865 -0.1491 -0.2574
   15MOL0     C 1967  -0.908   4.956   1.812 -0.9260 -0.1372 -0.7836
   15MOL0     O 1968  -0.964   5.063   1.890  0.5491 -0.0882  0.0244
   15MOL0     C 1969  -0.890   5.191   1.881  0.3009 -0.4600 -0.1150
   15MOL0     C 1970  -0.950   5.293   1.984 -0.2868  0.5054 -0.4287
   15MOL0     C 1971  -1.110   5.285   1.986  0.0809 -0.2176  0.0980
   15MOL0     C 1972  -1.153   5.418   2.057 -0.7854 -0.4081 -0.0534
   15MOL0     C 1973  -1.300   5.432   2.041  0.6877 -1.0522 -0.5435
   15MOL0     C 1974  -1.331   5.584   2.057  0.3225  0.5221 -0.0787
   15MOL0     C 1975  -1.333   5.631   2.210  0.1856 -0.4316  0.3094
   15MOL0     C 1976  -1.420   5.554   2.307 -0.2174 -0.9449  0.6624
   15MOL0    Cl 1977  -1.335   5.407   2.392 -0.5266  0.1583  0.0814
   15MOL0     C 1978  -0.876   4.978   1.675  0.6332  0.3402  0.5878
   15MOL0     C 1979  -0.811   4.877   1.604 -0.5224 -1.0581  0.3398
   15MOL0     O 1980  -0.716   4.704   1.385  0.3840 -0.2893 -0.2955
   15MOL0     C 1981  -0.504   4.460   1.518  0.7723  0.4850  0.0883
   15MOL0     C 1982  -0.413   4.362   1.498 -0.1070  0.0944  1.0556
   15MOL0     N 1983  -0.257   3.614   1.523 -0.2212  0.1601 -0.3034
   15MOL0     N 1984  -0.231   3.576   1.635  0.1828 -0.3390 -0.4021
   15MOL0     C 1985   0.545   3.063   2.083 -0.3698  0.7599 -0.4730
   15MOL0     C 1986   0.568   2.939   2.144  1.0255 -0.5984  0.8075
   15MOL0     C 1987   0.507   2.575   2.389  0.0602  1.1003  0.3971
   15MOL0     C 1988   0.635   2.539   2.437 -0.2856  0.0593  0.0227
   15MOL0     C 1989   0.658   2.413   2.498  0.1161 -0.1237  0.6012
   15MOL0     C 1990   0.565   2.309   2.495  0.7750 -0.5713  1.3414
   15MOL0     O 1991   0.591   2.178   2.536  0.7521 -0.1133  0.6003
   15MOL0     C 1992   0.689   2.165   2.643 -0.6276  0.4271 -0.4799
   15MOL0     C 1993   0.669   2.031   2.715 -0.7105  0.1485  0.0396
   15MOL0     C 1994   0.547   2.023   2.814  1.3101 -1.4889  0.7629
   15MOL0     C 1995   0.552   1.900   2.897 -0.9777  0.1321  0.4309
   15MOL0     C 1996   0.417   1.870   2.954  0.5057  0.3911 -1.0377
   15MOL0     C 1997   0.302   1.862   2.996 -0.9820 -0.2308  0.0018
   15MOL0     C 1998   0.443   2.340   2.436  0.0119  0.1638  0.0261
   15MOL0     C 1999   0.410   2.469   2.397  0.7882  0.2819  0.4581
   15MOL0     C 2000   0.280   2.476   2.323  0.9868  0.0287  0.4346
   15MOL0     H 2001   0.546   3.039   2.467 -1.1247 -2.2993 -0.2700
   15MOL0     H 2002   0.520   3.252   2.363  1.2907  0.6375 -0.1144
   15MOL0     H 2003   0.478   3.291   1.914  0.7492 -1.3833  0.1404
   15MOL0     H 2004   0.642   3.287   1.960 -1.2353 -3.3537 -0.8124
   15MOL0     H 2005   0.649   3.510   2.022 -0.2337  0.0681 -0.5750
   15MOL0     H 2006   0.589   3.503   1.856  1.7636 -0.9501  0.8204
   15MOL0     H 2007   0.414   3.552   2.106  0.1377 -0.6639  0.9333
   15MOL0     H 2008   0.490   3.675   1.991 -1.0703 -0.3534 -2.1381
   15MOL0     H 2009   0.350   3.568   1.806 -1.2075 -3.5615  0.1311
   15MOL0     H 2010   0.282   3.461   1.920 -2.7705  1.6173  1.1479
   15MOL0     H 2011   0.253   3.752   1.941  2.5263 -1.4556  2.2403
   15MOL0     H 2012   0.163   3.629   2.037 -0.5138  2.9454 -0.1648
   15MOL0     H 2013   0.130   3.669   1.746  2.0549 -3.7948 -0.0711
   15MOL0     H 2014   0.053   3.540   1.853  0.0705 -1.3114  0.6181
   15MOL0     H 2015  -0.011   3.833   1.847  1.3957  1.1359  2.6930
   15MOL0     H 2016  -0.017   3.741   1.995  0.0568 -0.9057  0.9448
   15MOL0     H 2017  -0.154   3.561   1.878 -1.1133 -0.9382 -3.0581
   15MOL0     H 2018  -0.234   3.715   1.910  2.7489  1.5108  2.1100
   15MOL0     H 2019  -0.211   3.904   1.648  0.0701 -0.0325  2.6533
   15MOL0     H 2020  -0.284   3.752   1.300 -2.9234  3.1611 -3.5096
   15MOL0     H 2021  -0.183   3.877   1.356  0.4140 -1.1695  0.0047
   15MOL0     H 2022  -0.480   3.831   1.403  0.6149 -1.0340 -1.5446
   15MOL0     H 2023  -0.398   3.976   1.477 -1.3461 -0.0615 -0.4769
   15MOL0     H 2024  -0.408   3.913   1.170 -1.7285 -2.2751  0.9486
   15MOL0     H 2025  -0.529   4.001   1.261  0.7825  0.6247 -2.7564
   15MOL0     H 2026  -0.245   4.079   1.233 -0.5692  1.0399 -2.5638
   15MOL0     H 2027  -0.374   4.177   1.166 -3.8874 -2.2741 -0.1921
   15MOL0     H 2028  -0.517   4.300   1.173  1.6678 -0.5820 -0.0110
   15MOL0     H 2029  -0.646   4.572   1.117 -1.8524  0.4490  1.4094
   15MOL0     H 2030  -0.792   4.533   1.208 -1.6169  2.6698 -3.6889
   15MOL0     H 2031  -0.715   4.409   1.131 -2.0263 -0.0811  0.1057
   15MOL0     H 2032  -0.798   4.640   1.840  1.4933  1.8347  2.4477
   15MOL0     H 2033  -0.905   4.832   1.980  1.6403  0.7061  0.0172
   15MOL0     H 2034  -0.787   5.173   1.914 -0.8223 -0.8696  3.6405
   15MOL0     H 2035  -0.907   5.244   1.787  0.3112 -1.7870 -0.8747
   15MOL0     H 2036  -0.903   5.278   2.081  2.7304  0.4194 -1.7842
   15MOL0     H 2037  -0.906   5.392   1.965  2.0501  0.6147  4.1959
   15MOL0     H 2038  -1.136   5.201   2.051  1.5980 -0.4788  0.4145
   15MOL0     H 2039  -1.143   5.273   1.883 -2.2297 -0.2743  0.7876
   15MOL0     H 2040  -1.101   5.503   2.014 -0.9193  0.1947  0.9507
   15MOL0     H 2041  -1.128   5.423   2.164  0.3904  1.3426 -0.3736
   15MOL0     H 2042  -1.330   5.408   1.939 -1.1063 -0.9801 -0.0707
   15MOL0     H 2043  -1.367   5.370   2.101 -1.7790  0.4788 -1.5734
   15MOL0     H 2044  -1.423   5.619   2.009 -1.3775 -2.2261  0.9097
   15MOL0     H 2045  -1.257   5.639   1.999  0.8285 -2.4880 -2.5235
   15MOL0     H 2046  -1.374   5.732   2.200 -2.6452 -1.5048  0.1150
   15MOL0     H 2047  -1.230   5.621   2.244  0.6091  1.7704 -0.1238
   15MOL0     H 2048  -1.505   5.512   2.252 -0.9878  1.4188 -0.0766
   15MOL0     H 2049  -1.448   5.623   2.387  2.0734 -1.9540  2.4563
   15MOL0     H 2050  -0.918   5.061   1.620 -0.8676 -0.8850 -0.2103
   15MOL0     H 2051  -0.799   4.890   1.497  0.1783  1.0290  0.6337
   15MOL0     H 2052  -0.492   4.509   1.614 -1.0293  3.0708 -0.9140
   15MOL0     H 2053  -0.343   4.335   1.576  2.7059  3.5398 -0.0219
   15MOL0     H 2054   0.525   3.060   1.977  0.6859 -1.1633 -0.6547
   15MOL0     H 2055   0.578   2.849   2.083 -0.9731  0.7434 -1.7173
   15MOL0     H 2056   0.715   2.611   2.445  0.5407 -0.8758  0.4230
   15MOL0     H 2057   0.751   2.383   2.546 -0.0215 -1.9004 -0.1714
   15MOL0     H 2058   0.790   2.142   2.609  0.4440  0.9805  2.1224
   15MOL0     H 2059   0.709   2.240   2.720  4.0837 -1.5254  0.5000
   15MOL0     H 2060   0.758   1.999   2.770 -1.5365 -1.0996  0.6896
   15MOL0     H 2061   0.656   1.947   2.647  2.4953  1.5340 -2.5618
   15MOL0     H 2062   0.538   2.103   2.887  0.6292 -1.1037  0.2679
   15MOL0     H 2063   0.460   2.026   2.748 -0.5549  1.5820  3.0997
   15MOL0     H 2064   0.629   1.909   2.974 -3.2723  1.3337  2.7430
   15MOL0     H 2065   0.589   1.820   2.832  1.1317  0.6329  0.9197
   15MOL0     H 2066   0.202   1.854   3.031 -0.6230  0.4083  1.2209
   15MOL0     H 2067   0.370   2.260   2.426 -0.9511  1.0991 -0.6073
   15MOL0     H 2068   0.268   2.536   2.233 -5.1098 -0.4592  0.5214
   15MOL0     H 2069   0.248   2.377   2.289 -0.6150  0.8281 -0.4652
   15MOL0     H 2070   0.206   2.515   2.393 -0.7175  1.3575 -1.9850
   16MOL0     O 2071   6.998   6.431   8.879  0.2686 -0.4070 -0.2737
   16MOL0     C 2072   6.947   6.527   8.938  0.5973  0.9307  0.1045
   16MOL0     O 2073   6.956   6.663   8.903  0.0554  0.3211 -0.6360
   16MOL0     C 2074   7.035   6.687   8.801  0.3891 -0.4681  0.1753
   16MOL0     C 2075   7.158   6.745   8.822  0.1919 -0.7483  0.5481
   16MOL0     C 2076   7.244   6.774   8.709 -1.2849 -1.1814  0.2212
   16MOL0     C 2077   7.196   6.764   8.575  0.1841  0.5423 -0.0750
   16MOL0     O 2078   7.273   6.782   8.459  0.2736  0.2830  0.7529
   16MOL0     C 2079   7.421   6.793   8.475  0.2470 -0.1654 -0.4370
   16MOL0     C 2080   7.476   6.837   8.332  0.6957 -0.1919  0.6258
   16MOL0     C 2081   7.631   6.821   8.327  0.9228 -0.3833  0.6198
   16MOL0     C 2082   7.683   6.700   8.245 -0.0754 -0.0763 -1.1123
   16MOL0     C 2083   7.621   6.564   8.294 -0.1184  1.0065  0.7451
   16MOL0     C 2084   7.648   6.460   8.184  0.3984 -0.2615 -0.8914
   16MOL0     C 2085   7.531   6.368   8.144  0.0908 -0.6211  0.4978
   16MOL0     C 2086   7.550   6.291   8.019  1.0106 -0.3058 -0.4972
   16MOL0     N 2087   7.461   6.177   8.002 -0.1287  0.2072 -0.9722
   16MOL0     C 2088   7.348   6.160   8.085 -0.1415 -0.2803  0.8074
   16MOL0     C 2089   7.306   6.041   8.037 -0.2468  0.6342  0.2994
   16MOL0     C 2090   7.215   5.947   8.104  0.9808  0.4337 -0.1530
   16MOL0     C 2091   7.284   5.836   8.183 -0.9841 -0.8089  0.4024
   16MOL0     C 2092   7.192   5.783   8.298 -0.1877 -0.1891  1.1845
   16MOL0     C 2093   7.250   5.657   8.357 -0.6494  0.1980  0.0798
   16MOL0     O 2094   7.229   5.547   8.257 -0.0738 -0.1172 -0.3091
   16MOL0     C 2095   7.231   5.420   8.307  0.8071 -0.1767  0.0503
   16MOL0     C 2096   7.103   5.352   8.300  0.5635  0.5010  0.8375
   16MOL0     C 2097   7.094   5.221   8.360 -0.5552 -0.0409  1.2101
   16MOL0     C 2098   6.962   5.160   8.340  0.5456 -0.5730 -1.3936
   16MOL0     C 2099   7.196   5.172   8.442 -0.2013 -0.1832 -0.2783
   16MOL0     C 2100   7.196   5.037   8.522  0.8520 -0.7892  0.5096
   16MOL0     O 2101   7.302   5.033   8.614 -0.4797  0.0142  0.3645
   16MOL0     C 2102   7.284   4.956   8.724 -0.1199  0.6493 -0.2169
   16MOL0     C 2103   7.285   4.817   8.719  1.1553 -0.5954  0.0134
   16MOL0     C 2104   7.303   4.743   8.840 -0.5568 -0.7967  0.6376
   16MOL0     C 2105   7.306   4.808   8.967 -0.2346  0.7962  0.3433
   16MOL0     O 2106   7.317   4.744   9.082 -0.3549 -0.7798 -0.3355
   16MOL0     C 2107   7.292   4.609   9.103  0.3602  0.0210  0.5111
   16MOL0     C 2108   7.238   4.586   9.248 -0.1174  0.5517 -0.6549
   16MOL0     C 2109   7.097   4.652   9.279  2.3225  0.3047 -0.0273
   16MOL0     C 2110   7.008   4.642   9.152  0.1042 -0.1500 -0.0852
   16MOL0     C 2111   6.977   4.498   9.123  0.6806  0.0175 -0.0314
   16MOL0     C 2112   6.876   4.501   9.005 -0.3987  0.1804  0.6994
   16MOL0     C 2113   6.834   4.371   8.934 -0.4334 -0.6012 -0.8775
   16MOL0     C 2114   6.759   4.397   8.799 -0.0029  0.5282  0.6288
   16MOL0    Cl 2115   6.618   4.508   8.818 -0.4235  0.2880  0.3852
   16MOL0     C 2116   7.288   4.945   8.971  0.6092 -0.3416 -0.6761
   16MOL0     C 2117   7.281   5.017   8.845  0.3533 -0.4915 -0.5360
   16MOL0     O 2118   7.103   4.961   8.516  0.9838 -0.7177 -0.1827
   16MOL0     C 2119   7.312   5.251   8.451 -0.4828  0.2540  1.4757
   16MOL0     C 2120   7.330   5.376   8.387 -0.6254  0.3649  0.3572
   16MOL0     N 2121   7.382   5.995   7.935  0.1264  0.1583 -0.4126
   16MOL0     N 2122   7.479   6.070   7.921  0.1904 -0.6269 -1.1490
   16MOL0     C 2123   7.062   6.711   8.555 -1.3539  0.5680  0.0314
   16MOL0     C 2124   6.990   6.674   8.668 -0.1352 -0.5399  0.1810
   16MOL0     C 2125   6.867   6.499   9.053  0.8006  0.8131 -0.3224
   16MOL0     C 2126   6.820   6.369   9.076  0.0970 -0.0199 -0.1988
   16MOL0     C 2127   6.724   6.343   9.168  0.2522 -0.1240 -0.2774
   16MOL0     C 2128   6.682   6.447   9.252  0.5352  0.3995 -0.4058
   16MOL0     O 2129   6.564   6.433   9.324  0.1059  0.4874 -0.5639
   16MOL0     C 2130   6.573   6.421   9.466 -1.1600 -0.5489  0.3454
   16MOL0     C 2131   6.513   6.538   9.543  0.8933  0.6130  0.6050
   16MOL0     C 2132   6.371   6.562   9.516 -0.0724 -0.0431 -0.2877
   16MOL0     C 2133   6.352   6.632   9.384  0.0715  0.1728  0.1727
   16MOL0     C 2134   6.209   6.668   9.366  0.6955  0.2196 -0.0964
   16MOL0     C 2135   6.098   6.717   9.343 -0.1282 -0.4027  0.0341
   16MOL0     C 2136   6.737   6.577   9.242  0.5197 -0.6325  0.2656
   16MOL0     C 2137   6.837   6.602   9.148 -0.5386 -1.5702  0.6327
   16MOL0     C 2138   6.899   6.745   9.158  0.1615 -1.5005 -0.3071
   16MOL0     H 2139   7.190   6.767   8.923 -0.1277  1.1110  0.2800
   16MOL0     H 2140   7.340   6.820   8.732 -1.9123 -0.6020  1.8281
   16MOL0     H 2141   7.466   6.697   8.505 -3.0814 -1.0411  2.5249
   16MOL0     H 2142   7.446   6.867   8.552 -4.4498 -1.1299  2.4408
   16MOL0     H 2143   7.427   6.772   8.258  0.2733  1.3393 -0.4734
   16MOL0     H 2144   7.449   6.939   8.304  1.8661  0.0297  0.2366
   16MOL0     H 2145   7.659   6.913   8.276 -0.8868  0.4027  0.9469
   16MOL0     H 2146   7.663   6.833   8.430  0.4217  0.4157  0.6967
   16MOL0     H 2147   7.667   6.714   8.138 -0.2289  3.5657 -0.7504
   16MOL0     H 2148   7.790   6.681   8.246 -0.6109 -4.0155 -2.1241
   16MOL0     H 2149   7.515   6.577   8.315 -0.3611  1.2755 -0.5716
   16MOL0     H 2150   7.684   6.543   8.381  0.9123  4.2431  0.9158
   16MOL0     H 2151   7.685   6.506   8.092  0.6261  0.5943 -0.3842
   16MOL0     H 2152   7.740   6.409   8.212 -0.0392  0.1117  1.4148
   16MOL0     H 2153   7.434   6.419   8.144  1.4859  2.2364  0.6482
   16MOL0     H 2154   7.521   6.303   8.231 -2.2194 -0.7212  0.2249
   16MOL0     H 2155   7.541   6.355   7.931  1.2470 -2.5827 -2.2648
   16MOL0     H 2156   7.648   6.246   8.038 -0.0376 -1.8540  1.6394
   16MOL0     H 2157   7.315   6.211   8.174 -2.4423  1.8420 -1.1184
   16MOL0     H 2158   7.143   5.905   8.033 -0.9046  0.4864  1.6146
   16MOL0     H 2159   7.162   6.002   8.183 -0.2159  0.7080 -1.1117
   16MOL0     H 2160   7.299   5.746   8.122 -2.0842 -0.5739 -0.2297
   16MOL0     H 2161   7.375   5.871   8.234 -1.2151  1.7775 -0.8120
   16MOL0     H 2162   7.191   5.864   8.372  4.9820 -1.4632  3.1067
   16MOL0     H 2163   7.090   5.770   8.261  0.3055  2.1416 -1.3037
   16MOL0     H 2164   7.354   5.671   8.389 -1.7538  1.4676  3.5064
   16MOL0     H 2165   7.195   5.624   8.445  0.6290  2.6370  1.9208
   16MOL0     H 2166   7.016   5.397   8.254  3.0999  4.4230 -0.6906
   16MOL0     H 2167   6.942   5.160   8.233  1.9435  2.5954 -1.7765
   16MOL0     H 2168   6.890   5.226   8.390  0.3735 -0.5198 -1.7141
   16MOL0     H 2169   6.940   5.056   8.364 -4.6188 -0.0088 -2.5027
   16MOL0     H 2170   7.280   4.776   8.619 -1.5372  1.8207 -0.9752
   16MOL0     H 2171   7.310   4.635   8.841 -2.3778 -1.1300 -3.2565
   16MOL0     H 2172   7.225   4.569   9.027  1.4357  2.1715 -1.6725
   16MOL0     H 2173   7.383   4.550   9.087  0.4613  0.9161 -2.8472
   16MOL0     H 2174   7.235   4.476   9.254  0.1701  0.5614 -0.3065
   16MOL0     H 2175   7.308   4.629   9.320  1.7380 -0.7455 -1.5814
   16MOL0     H 2176   7.124   4.754   9.306  2.7664 -0.2345  1.6566
   16MOL0     H 2177   7.047   4.611   9.367  1.1849 -2.2120 -1.7145
   16MOL0     H 2178   7.054   4.690   9.066 -2.8899  3.1708 -0.0533
   16MOL0     H 2179   6.918   4.702   9.167  2.1167  2.6283  1.8192
   16MOL0     H 2180   7.059   4.428   9.105 -1.4173 -2.4156 -0.7021
   16MOL0     H 2181   6.934   4.454   9.213  1.6372 -2.5401 -0.7089
   16MOL0     H 2182   6.910   4.566   8.924 -0.4170  0.5268  0.9677
   16MOL0     H 2183   6.781   4.541   9.042  0.2150  0.0358  2.5237
   16MOL0     H 2184   6.767   4.306   8.991  0.1792 -0.4550  0.0256
   16MOL0     H 2185   6.920   4.310   8.903  1.3609  1.9566 -1.2360
   16MOL0     H 2186   6.723   4.305   8.754  2.5795 -0.3830  0.2665
   16MOL0     H 2187   6.833   4.433   8.726 -1.6827  0.1526 -1.3299
   16MOL0     H 2188   7.307   4.999   9.064 -2.6588  0.2676 -0.2613
   16MOL0     H 2189   7.269   5.125   8.842 -0.6026 -0.6103 -1.7998
   16MOL0     H 2190   7.390   5.237   8.525  2.1578  2.3978 -0.6955
   16MOL0     H 2191   7.427   5.423   8.401 -1.4645  2.1036  0.4586
   16MOL0     H 2192   7.030   6.697   8.452 -0.2827 -3.9647  0.1080
   16MOL0     H 2193   6.897   6.620   8.651  0.3527 -0.7049 -2.4604
   16MOL0     H 2194   6.841   6.278   9.021 -1.4008 -0.2040 -0.5255
   16MOL0     H 2195   6.679   6.246   9.184 -0.9162  0.4409 -0.0703
   16MOL0     H 2196   6.527   6.325   9.490  3.7607 -3.6420 -1.2362
   16MOL0     H 2197   6.671   6.388   9.500 -0.6293  1.5086  0.9720
   16MOL0     H 2198   6.561   6.627   9.503  0.9051  1.7330  2.9477
   16MOL0     H 2199   6.530   6.521   9.650  0.2684  0.4356  0.6773
   16MOL0     H 2200   6.311   6.471   9.512 -0.4659  0.2349 -0.7663
   16MOL0     H 2201   6.332   6.626   9.596 -1.1475 -2.5153  1.3000
   16MOL0     H 2202   6.369   6.573   9.294 -0.3038  0.8011 -0.3262
   16MOL0     H 2203   6.404   6.728   9.389 -2.1060  1.3998  1.2596
   16MOL0     H 2204   6.004   6.758   9.314  1.3596  0.6193 -4.0339
   16MOL0     H 2205   6.698   6.650   9.313  1.1197 -0.0890  0.0456
   16MOL0     H 2206   6.852   6.811   9.084  0.8522 -0.2412  0.3452
   16MOL0     H 2207   6.886   6.795   9.255  3.2292  3.4503 -2.0585
   16MOL0     H 2208   7.008   6.747   9.149  0.2728  1.8301  0.3708
   17MOL0     O 2209   7.429   6.956   7.541  1.2270  0.3212  0.1501
   17MOL0     C 2210   7.485   6.878   7.470  0.6153  0.8524 -0.1285
   17MOL0     O 2211   7.488   6.740   7.494 -0.4234  0.8845  0.1322
   17MOL0     C 2212   7.429   6.693   7.611  0.3905  0.1993 -0.3920
   17MOL0     C 2213   7.473   6.730   7.735  0.6677 -0.3493  0.2748
   17MOL0     C 2214   7.400   6.716   7.851  0.2872 -0.4817 -0.1138
   17MOL0     C 2215   7.270   6.667   7.852  0.1192 -0.7846  0.2390
   17MOL0     O 2216   7.196   6.664   7.965  0.2112 -0.3485  0.0539
   17MOL0     C 2217   7.200   6.776   8.052 -0.8630  0.3514 -0.3677
   17MOL0     C 2218   7.102   6.780   8.164  0.0480 -0.0498 -0.5467
   17MOL0     C 2219   6.950   6.789   8.122 -0.2443  1.0722  0.2053
   17MOL0     C 2220   6.884   6.911   8.192 -0.6285 -0.1764  0.2657
   17MOL0     C 2221   6.735   6.921   8.197  0.1377 -0.2895 -0.1661
   17MOL0     C 2222   6.666   6.821   8.291 -0.4448  0.4481  0.4831
   17MOL0     C 2223   6.513   6.832   8.284  0.3007 -0.0074  0.6746
   17MOL0     C 2224   6.433   6.735   8.378  0.5591  0.0787 -1.1208
   17MOL0     N 2225   6.443   6.749   8.526 -0.1774 -0.6313  0.2640
   17MOL0     C 2226   6.539   6.703   8.602 -0.4956  1.7213 -0.5300
   17MOL0     C 2227   6.517   6.764   8.719  1.5120 -0.6829  0.2004
   17MOL0     C 2228   6.573   6.751   8.856 -0.2564 -0.1190 -0.0903
   17MOL0     C 2229   6.458   6.731   8.961  0.4083 -0.5597 -0.5435
   17MOL0     C 2230   6.416   6.848   9.050 -1.3617 -0.4914  0.2366
   17MOL0     C 2231   6.269   6.876   9.074 -0.5721  0.3568  0.4662
   17MOL0     O 2232   6.234   7.005   9.009  1.1208  0.5519  0.4729
   17MOL0     C 2233   6.096   7.027   8.999  0.2626  0.3160 -0.0240
   17MOL0     C 2234   6.008   6.990   9.109 -0.4062 -1.6006  0.3818
   17MOL0     C 2235   5.874   7.020   9.109  0.1597  0.2965  0.2240
   17MOL0     C 2236   5.795   7.001   9.238 -0.2946 -0.3232 -0.3728
   17MOL0     C 2237   5.825   7.085   8.992 -0.2255  0.2070 -0.5118
   17MOL0     C 2238   5.685   7.151   8.986 -0.1636  0.2258  0.5284
   17MOL0     O 2239   5.644   7.208   8.869 -0.9022 -0.0508 -0.1052
   17MOL0     C 2240   5.511   7.224   8.843  0.6287 -1.1662  0.0137
   17MOL0     C 2241   5.425   7.305   8.919 -0.1344 -0.6905 -0.5115
   17MOL0     C 2242   5.288   7.318   8.908  0.3262  0.3361 -0.4267
   17MOL0     C 2243   5.229   7.260   8.802 -0.2090  0.5370 -0.4050
   17MOL0     O 2244   5.095   7.274   8.779  0.4000  0.4038 -0.3112
   17MOL0     C 2245   5.035   7.297   8.660 -1.2180 -0.6078  1.0067
   17MOL0     C 2246   4.893   7.351   8.679  0.0531  0.5316 -0.3660
   17MOL0     C 2247   4.866   7.464   8.777 -0.6036 -0.6231  0.2441
   17MOL0     C 2248   4.907   7.473   8.929  0.1336  0.4203  0.7917
   17MOL0     C 2249   4.832   7.371   9.023  1.1776  0.2247  1.0602
   17MOL0     C 2250   4.905   7.374   9.159 -0.2215  0.0072  0.1296
   17MOL0     C 2251   4.800   7.320   9.266  0.3259 -0.1060  0.7329
   17MOL0     C 2252   4.879   7.298   9.393  0.0105  0.3879 -0.2525
   17MOL0    Cl 2253   4.811   7.172   9.492  0.1784 -0.1641 -0.5708
   17MOL0     C 2254   5.312   7.203   8.709  0.6801  1.1237  0.3099
   17MOL0     C 2255   5.447   7.183   8.725  0.2040  0.3273 -0.7905
   17MOL0     O 2256   5.622   7.139   9.089  0.5326  0.3806 -0.2371
   17MOL0     C 2257   5.906   7.110   8.881 -0.1260 -0.5141 -0.3822
   17MOL0     C 2258   6.046   7.077   8.887  0.7825 -0.0728 -1.1067
   17MOL0     N 2259   6.404   6.849   8.694 -0.2939  0.0998  0.3412
   17MOL0     N 2260   6.368   6.846   8.574  0.0899  0.0256 -0.0256
   17MOL0     C 2261   7.220   6.628   7.728 -0.3066  0.9528  0.3042
   17MOL0     C 2262   7.298   6.633   7.606  0.2875 -0.3686  0.1612
   17MOL0     C 2263   7.558   6.925   7.351 -0.7313 -0.4861  0.5015
   17MOL0     C 2264   7.574   7.074   7.341  0.3569  0.2633 -0.4925
   17MOL0     C 2265   7.641   7.126   7.240  0.4242 -0.4858 -0.7198
   17MOL0     C 2266   7.699   7.053   7.141 -0.0592  0.9610 -0.2553
   17MOL0     O 2267   7.781   7.093   7.038  0.8960 -0.4752 -0.0542
   17MOL0     C 2268   7.832   7.227   7.048  0.5997 -0.2813  0.3751
   17MOL0     C 2269   7.904   7.263   6.917  0.3302  0.5392  0.1825
   17MOL0     C 2270   7.969   7.403   6.926  0.5518 -0.3434 -1.1923
   17MOL0     C 2271   8.055   7.432   6.805 -0.1327  0.1317 -0.5287
   17MOL0     C 2272   7.994   7.492   6.689 -0.0294 -0.7795  0.2101
   17MOL0     C 2273   7.959   7.563   6.596 -0.6442 -0.3502  0.3800
   17MOL0     C 2274   7.666   6.917   7.143  0.6542  0.3521 -0.0518
   17MOL0     C 2275   7.604   6.850   7.244  0.5469 -0.0837  0.6024
   17MOL0     C 2276   7.596   6.704   7.234 -0.4445  0.1217 -0.0412
   17MOL0     H 2277   7.561   6.793   7.729  0.5976 -0.4103 -2.9858
   17MOL0     H 2278   7.445   6.771   7.933  0.1110  1.5508 -1.3114
   17MOL0     H 2279   7.185   6.870   7.997 -0.9725  0.5982  0.0846
   17MOL0     H 2280   7.296   6.773   8.104 -1.0948 -2.6064  0.0454
   17MOL0     H 2281   7.114   6.692   8.227 -1.6712  0.5583  0.6949
   17MOL0     H 2282   7.139   6.863   8.225 -3.2362  0.3918  1.0568
   17MOL0     H 2283   6.944   6.793   8.012  0.5165  1.2948  0.1700
   17MOL0     H 2284   6.900   6.695   8.148  3.2603 -0.8261  0.6787
   17MOL0     H 2285   6.933   6.922   8.289 -1.0701 -2.8947  0.8795
   17MOL0     H 2286   6.921   6.991   8.127  3.0550 -0.2048  2.0978
   17MOL0     H 2287   6.705   6.905   8.093 -0.2951 -3.4735  0.3284
   17MOL0     H 2288   6.723   7.029   8.208  5.9052  0.7033 -0.1185
   17MOL0     H 2289   6.692   6.720   8.258 -2.4248  0.1720 -0.3309
   17MOL0     H 2290   6.689   6.848   8.395 -2.7733 -0.2924  1.2567
   17MOL0     H 2291   6.484   6.813   8.180  0.1664  0.1621  0.6809
   17MOL0     H 2292   6.484   6.931   8.321 -1.1534 -0.4859  0.9167
   17MOL0     H 2293   6.326   6.752   8.360 -0.0935 -1.2426  1.0757
   17MOL0     H 2294   6.452   6.628   8.363 -0.6141 -0.2348 -0.4974
   17MOL0     H 2295   6.607   6.620   8.586  0.4103  1.7049  2.6396
   17MOL0     H 2296   6.642   6.831   8.884  1.7055 -1.7694 -0.0472
   17MOL0     H 2297   6.627   6.658   8.873 -1.5566 -0.3474  3.7592
   17MOL0     H 2298   6.369   6.686   8.915  0.3977 -0.5572 -0.5257
   17MOL0     H 2299   6.490   6.656   9.035 -2.4415 -0.3727  1.0366
   17MOL0     H 2300   6.454   6.822   9.149 -1.5248 -2.5359 -0.1994
   17MOL0     H 2301   6.471   6.937   9.016 -1.5954 -0.4005  0.0950
   17MOL0     H 2302   6.206   6.790   9.047 -0.0672 -0.2879  1.3050
   17MOL0     H 2303   6.264   6.891   9.182 -1.7882 -1.9506  0.8044
   17MOL0     H 2304   6.064   6.965   9.198  2.7860 -0.8621 -1.2872
   17MOL0     H 2305   5.764   7.096   9.283 -2.4938 -2.4489  2.9882
   17MOL0     H 2306   5.851   6.942   9.311  0.1375  0.3124 -0.1776
   17MOL0     H 2307   5.709   6.939   9.211  0.8127 -1.0607 -2.4542
   17MOL0     H 2308   5.480   7.351   9.000  0.3801  1.8642 -2.1793
   17MOL0     H 2309   5.226   7.383   8.969  0.1937 -1.6650  1.7034
   17MOL0     H 2310   5.102   7.365   8.607 -2.7342  0.3759  0.2574
   17MOL0     H 2311   5.036   7.208   8.596 -5.2274 -0.8315  1.0061
   17MOL0     H 2312   4.851   7.367   8.579 -2.2606 -1.7944  0.0899
   17MOL0     H 2313   4.828   7.266   8.705  0.4821 -0.7408 -3.0885
   17MOL0     H 2314   4.760   7.488   8.781 -0.8362 -1.7662  2.5214
   17MOL0     H 2315   4.927   7.545   8.735  0.2801 -1.6059 -0.4407
   17MOL0     H 2316   4.867   7.571   8.957 -0.2065  0.8142 -0.9919
   17MOL0     H 2317   5.013   7.451   8.948  0.0959 -0.2565  0.2460
   17MOL0     H 2318   4.731   7.409   9.043  0.9638 -0.3032  0.9999
   17MOL0     H 2319   4.817   7.269   8.985 -0.3665  0.6406  0.4568
   17MOL0     H 2320   4.925   7.477   9.191 -0.7141  0.7020 -1.6704
   17MOL0     H 2321   4.997   7.315   9.158  0.3492  0.8850 -0.8133
   17MOL0     H 2322   4.753   7.230   9.227 -1.0671  0.6144  0.7036
   17MOL0     H 2323   4.720   7.391   9.289 -0.1132 -1.3556  3.4880
   17MOL0     H 2324   4.903   7.391   9.445 -1.7122  0.1530  1.0570
   17MOL0     H 2325   4.973   7.257   9.358 -1.5115 -1.4073 -2.5142
   17MOL0     H 2326   5.269   7.165   8.617 -0.5107  0.8624  0.9631
   17MOL0     H 2327   5.508   7.148   8.642 -0.8505  2.8096 -2.7477
   17MOL0     H 2328   5.873   7.172   8.799  0.4427  2.6544  1.6205
   17MOL0     H 2329   6.107   7.118   8.807  2.0563  1.4565  0.5884
   17MOL0     H 2330   7.117   6.592   7.727 -0.4287  1.3092 -0.6423
   17MOL0     H 2331   7.252   6.615   7.510 -2.4175  0.9682  1.0886
   17MOL0     H 2332   7.532   7.142   7.414  3.4591  1.9436 -0.1039
   17MOL0     H 2333   7.661   7.232   7.234 -0.2576 -0.3673 -0.9526
   17MOL0     H 2334   7.755   7.303   7.064  2.6185  2.0703 -0.4133
   17MOL0     H 2335   7.913   7.224   7.122  2.6902 -0.8741 -1.8173
   17MOL0     H 2336   7.837   7.248   6.832 -0.4440 -2.9597  1.2430
   17MOL0     H 2337   7.978   7.183   6.905  0.7020  0.7072  1.2566
   17MOL0     H 2338   7.892   7.480   6.940  1.4128  0.5838 -1.3798
   17MOL0     H 2339   8.025   7.416   7.019  0.5129 -2.7996 -0.7801
   17MOL0     H 2340   8.112   7.341   6.781  0.0037 -1.0142  3.4690
   17MOL0     H 2341   8.131   7.503   6.838  0.3764 -1.0028  0.8131
   17MOL0     H 2342   7.937   7.622   6.509  3.1104  1.0108  0.1792
   17MOL0     H 2343   7.720   6.862   7.066  0.3653 -2.8416  1.8968
   17MOL0     H 2344   7.658   6.655   7.158  0.3671  1.4225 -0.2423
   17MOL0     H 2345   7.631   6.662   7.328  1.7603  2.6896  0.4115
   17MOL0     H 2346   7.489   6.686   7.219  0.1394 -2.2556 -2.0761
   18MOL0     O 2347  10.608   0.278   6.995 -0.2060 -0.3242  0.3371
   18MOL0     C 2348  10.565   0.206   6.907  0.3028 -0.0433 -1.0159
   18MOL0     O 2349  10.559   0.249   6.782  0.3158  0.5918 -0.2407
   18MOL0     C 2350  10.613   0.368   6.738  0.2524 -0.1777  0.2396
   18MOL0     C 2351  10.550   0.425   6.626  0.1884  0.8199  0.4740
   18MOL0     C 2352  10.601   0.541   6.573 -0.5726 -0.7129  0.0776
   18MOL0     C 2353  10.726   0.599   6.617  0.5902  0.0155 -0.5084
   18MOL0     O 2354  10.783   0.709   6.558 -0.4553 -0.1543 -0.9541
   18MOL0     C 2355  10.779   0.714   6.417 -0.5270 -0.1290  0.7479
   18MOL0     C 2356  10.918   0.678   6.364  0.9941  1.0115 -0.2116
   18MOL0     C 2357  10.946   0.525   6.396  0.5301 -1.0099  0.9078
   18MOL0     C 2358  11.086   0.488   6.346 -1.0111  1.2123  0.1806
   18MOL0     C 2359  11.141   0.339   6.357  0.7638 -1.8025 -0.4685
   18MOL0     C 2360  11.204   0.288   6.222  0.4696  0.8647  0.0748
   18MOL0     C 2361  11.180   0.136   6.225 -0.1926  0.7347  0.5774
   18MOL0     C 2362  11.190   0.062   6.086 -0.4237 -0.3487  0.2814
   18MOL0     N 2363  11.313   0.096   6.024 -0.0109  0.5272 -0.4418
   18MOL0     C 2364  11.446   0.056   6.043  0.3564  0.2665  0.4967
   18MOL0     C 2365  11.510   0.121   5.939  0.0204  0.3667  0.3921
   18MOL0     C 2366  11.659   0.118   5.923 -0.4087  0.0389 -0.1259
   18MOL0     C 2367  11.726  -0.013   5.889  0.6703 -0.7192 -0.5333
   18MOL0     C 2368  11.645  -0.076   5.767 -0.9346 -0.6799 -1.1975
   18MOL0     C 2369  11.723  -0.194   5.691 -0.0703 -0.0497  0.4012
   18MOL0     O 2370  11.671  -0.201   5.558  0.6361  0.6809  0.4837
   18MOL0     C 2371  11.716  -0.299   5.472  0.1483  0.0814  0.2419
   18MOL0     C 2372  11.806  -0.409   5.507  0.2023 -0.2851  0.5155
   18MOL0     C 2373  11.834  -0.509   5.415 -0.3890 -0.2913  0.4430
   18MOL0     C 2374  11.929  -0.617   5.473  0.0077  0.9845  0.1738
   18MOL0     C 2375  11.782  -0.503   5.283  0.2870 -0.1070  0.1432
   18MOL0     C 2376  11.839  -0.586   5.164  1.0226  0.0395 -0.1181
   18MOL0     O 2377  11.791  -0.550   5.041 -0.1140  0.7021 -0.6633
   18MOL0     C 2378  11.867  -0.597   4.935 -0.3723  0.3410 -1.2451
   18MOL0     C 2379  11.829  -0.710   4.860  0.2353 -0.3946  0.3971
   18MOL0     C 2380  11.925  -0.778   4.773  0.1604 -0.1480  0.3363
   18MOL0     C 2381  12.053  -0.737   4.760 -0.3204 -0.1609  0.1570
   18MOL0     O 2382  12.136  -0.803   4.671  0.0370  0.1207 -0.2695
   18MOL0     C 2383  12.273  -0.763   4.655  0.5479  0.2338 -1.0591
   18MOL0     C 2384  12.288  -0.635   4.567  0.2471  0.3823 -0.4313
   18MOL0     C 2385  12.233  -0.643   4.430  1.0165 -0.8097 -0.3687
   18MOL0     C 2386  12.247  -0.515   4.353 -0.9049  0.4672  0.3749
   18MOL0     C 2387  12.344  -0.526   4.236  0.0918 -0.8068  0.5662
   18MOL0     C 2388  12.352  -0.394   4.157  0.0014  0.2354 -0.0609
   18MOL0     C 2389  12.415  -0.397   4.016 -0.8220  0.0524  0.1270
   18MOL0     C 2390  12.327  -0.464   3.909 -0.8162 -0.6277  0.1439
   18MOL0    Cl 2391  12.190  -0.374   3.845 -0.1285  0.4210 -0.0425
   18MOL0     C 2392  12.092  -0.629   4.839 -0.2053 -0.1954 -0.5200
   18MOL0     C 2393  12.001  -0.560   4.920  0.6023 -0.4445 -0.3417
   18MOL0     O 2394  11.923  -0.676   5.186  0.0672  0.3385  0.4832
   18MOL0     C 2395  11.693  -0.401   5.255 -1.0318 -0.9411 -0.1126
   18MOL0     C 2396  11.673  -0.298   5.340  0.0111  0.0239  0.0019
   18MOL0     N 2397  11.424   0.192   5.865 -0.0823  0.3413  0.4856
   18MOL0     N 2398  11.310   0.175   5.919 -0.0502  0.1447  0.7906
   18MOL0     C 2399  10.793   0.526   6.719  0.0679 -0.5175 -0.5441
   18MOL0     C 2400  10.737   0.413   6.778 -0.2097  0.3936  0.4750
   18MOL0     C 2401  10.491   0.080   6.945  0.1869  0.4847 -0.9203
   18MOL0     C 2402  10.413   0.075   7.066  0.2927  0.5573  0.4502
   18MOL0     C 2403  10.340  -0.036   7.101 -0.0643  0.8812 -0.3566
   18MOL0     C 2404  10.329  -0.133   7.007  0.4907  0.0652  0.1536
   18MOL0     O 2405  10.242  -0.238   7.026 -0.1143  0.1421 -0.7765
   18MOL0     C 2406  10.184  -0.302   6.914  0.3314  0.1137  0.3754
   18MOL0     C 2407  10.243  -0.435   6.883  0.0687  1.3260  0.1213
   18MOL0     C 2408  10.228  -0.523   7.010 -0.0640  0.0030 -0.4338
   18MOL0     C 2409  10.285  -0.658   6.981 -0.0883  0.2222 -1.1041
   18MOL0     C 2410  10.227  -0.750   6.884 -0.0691  0.3363 -0.2740
   18MOL0     C 2411  10.178  -0.822   6.805  0.3595  0.1096  0.6190
   18MOL0     C 2412  10.398  -0.131   6.882 -0.7072  0.7343 -0.4393
   18MOL0     C 2413  10.484  -0.026   6.855  0.6356  0.8838 -0.4238
   18MOL0     C 2414  10.567  -0.032   6.725 -0.0642 -0.3789  0.3468
   18MOL0     H 2415  10.458   0.381   6.590  0.1750  0.4814  0.9137
   18MOL0     H 2416  10.559   0.608   6.499 -1.4600 -0.5689  0.6824
   18MOL0     H 2417  10.744   0.815   6.393  1.2922 -0.1919 -2.9324
   18MOL0     H 2418  10.696   0.667   6.364  1.1510  0.7130 -2.9190
   18MOL0     H 2419  10.932   0.699   6.258  0.7834 -0.4828 -0.5481
   18MOL0     H 2420  10.988   0.719   6.438  2.2745 -2.5241  0.7287
   18MOL0     H 2421  10.938   0.513   6.504  1.0103  1.1336  1.2341
   18MOL0     H 2422  10.870   0.467   6.342 -0.0443  2.2960 -2.2995
   18MOL0     H 2423  11.098   0.517   6.241  0.2654 -1.8837 -0.6316
   18MOL0     H 2424  11.147   0.561   6.400 -0.9196  0.7832  0.6630
   18MOL0     H 2425  11.069   0.277   6.412  0.7599 -1.5354 -0.1650
   18MOL0     H 2426  11.216   0.347   6.437 -1.3421 -1.0110  1.5575
   18MOL0     H 2427  11.152   0.338   6.140  1.5110  0.7710 -0.6721
   18MOL0     H 2428  11.312   0.308   6.221  0.3659  1.4342 -0.9737
   18MOL0     H 2429  11.077   0.110   6.252  0.0655 -2.0060 -0.7470
   18MOL0     H 2430  11.255   0.096   6.293 -0.6030  2.5503  2.1702
   18MOL0     H 2431  11.174  -0.047   6.087 -0.1134 -0.5205 -2.9511
   18MOL0     H 2432  11.109   0.109   6.030  1.3894 -0.5660 -2.7472
   18MOL0     H 2433  11.495  -0.001   6.121  0.2688 -0.9219 -0.2964
   18MOL0     H 2434  11.705   0.155   6.015  1.3491  0.1524 -1.0079
   18MOL0     H 2435  11.692   0.181   5.840  0.3996 -2.4471 -1.8161
   18MOL0     H 2436  11.830   0.010   5.869  0.4519  1.5839  0.6064
   18MOL0     H 2437  11.731  -0.095   5.962 -0.4919 -2.2245 -2.0683
   18MOL0     H 2438  11.546  -0.106   5.802 -1.1991 -0.3567 -1.6595
   18MOL0     H 2439  11.623   0.004   5.696 -3.2489  0.3906  0.5676
   18MOL0     H 2440  11.829  -0.169   5.692 -0.3702  1.5202 -1.3350
   18MOL0     H 2441  11.711  -0.286   5.750  0.0510 -2.0321 -2.4916
   18MOL0     H 2442  11.864  -0.415   5.599  1.3482  2.2646  0.0388
   18MOL0     H 2443  11.974  -0.575   5.563  0.6571  1.3653 -0.3184
   18MOL0     H 2444  12.016  -0.640   5.412 -0.8445  3.3871 -2.1255
   18MOL0     H 2445  11.872  -0.705   5.507  0.2065  1.0203  0.6015
   18MOL0     H 2446  11.745  -0.776   4.880  0.3624 -1.4743 -2.2320
   18MOL0     H 2447  11.896  -0.871   4.725 -1.5574 -1.0335  2.8608
   18MOL0     H 2448  12.332  -0.760   4.747  0.7062 -0.9432 -1.1046
   18MOL0     H 2449  12.307  -0.852   4.600 -0.0455 -0.7593  0.1405
   18MOL0     H 2450  12.241  -0.552   4.620 -2.4772 -1.6388  0.5420
   18MOL0     H 2451  12.395  -0.612   4.559 -0.2355  2.0448 -4.0707
   18MOL0     H 2452  12.128  -0.671   4.440  1.6070 -3.5592 -1.1111
   18MOL0     H 2453  12.270  -0.733   4.380  1.1909 -1.3195  0.6448
   18MOL0     H 2454  12.290  -0.441   4.421  2.3148 -4.9230  5.0576
   18MOL0     H 2455  12.151  -0.469   4.326 -0.0627  2.3187  0.3949
   18MOL0     H 2456  12.448  -0.538   4.267  0.3735 -0.3405 -0.1908
   18MOL0     H 2457  12.329  -0.617   4.177  2.3357 -1.9563  1.6352
   18MOL0     H 2458  12.406  -0.329   4.227 -1.4705 -0.3509  1.6978
   18MOL0     H 2459  12.257  -0.348   4.132 -0.0765 -0.7503 -1.6707
   18MOL0     H 2460  12.505  -0.456   4.037  0.1737  2.2514  2.7347
   18MOL0     H 2461  12.444  -0.301   3.971 -1.3910  0.3188  0.3239
   18MOL0     H 2462  12.293  -0.558   3.952 -0.2049 -1.6934 -1.5546
   18MOL0     H 2463  12.385  -0.486   3.818 -1.3491 -1.3919 -0.0204
   18MOL0     H 2464  12.193  -0.593   4.823 -1.1179  3.2869  0.7503
   18MOL0     H 2465  12.041  -0.471   4.967 -1.1598  1.1763 -1.7653
   18MOL0     H 2466  11.652  -0.401   5.155  2.8263  0.3593 -1.8778
   18MOL0     H 2467  11.608  -0.216   5.314  2.0206  2.7280  2.7462
   18MOL0     H 2468  10.897   0.553   6.735 -0.5541  3.2231 -1.6954
   18MOL0     H 2469  10.798   0.371   6.857 -0.0390  2.5250  1.5311
   18MOL0     H 2470  10.413   0.163   7.130  0.1300 -1.4077  3.3278
   18MOL0     H 2471  10.292  -0.042   7.199  2.1296 -0.2845  0.7255
   18MOL0     H 2472  10.084  -0.339   6.937  0.6058 -2.5199 -2.1576
   18MOL0     H 2473  10.185  -0.233   6.828  2.6232  2.6518  2.2601
   18MOL0     H 2474  10.350  -0.441   6.861  0.4610 -3.0833  2.1190
   18MOL0     H 2475  10.189  -0.479   6.799  0.9828 -1.2005  0.7589
   18MOL0     H 2476  10.298  -0.485   7.085  0.0639  0.6803 -0.8900
   18MOL0     H 2477  10.128  -0.525   7.055  0.3234  0.7753  0.5068
   18MOL0     H 2478  10.286  -0.711   7.077  1.6666  2.0405 -0.0577
   18MOL0     H 2479  10.388  -0.650   6.946  1.0079  4.6265  2.2043
   18MOL0     H 2480  10.126  -0.892   6.742  4.6525 -2.0050 -0.9575
   18MOL0     H 2481  10.379  -0.209   6.808 -3.7356 -0.0169  0.9887
   18MOL0     H 2482  10.675  -0.040   6.744  0.3250 -1.1297 -1.9453
   18MOL0     H 2483  10.553  -0.126   6.672 -1.1176 -0.0610  0.0505
   18MOL0     H 2484  10.532   0.045   6.656 -3.4900  0.4891  2.7542
   19MOL0     O 2485  10.673   2.933   8.767  0.0584  0.4047  0.0766
   19MOL0     C 2486  10.631   2.952   8.878  0.9324 -0.3973  0.0458
   19MOL0     O 2487  10.627   3.071   8.929 -0.1347  0.1418 -0.7130
   19MOL0     C 2488  10.639   3.176   8.849  0.1259 -0.4152  0.7550
   19MOL0     C 2489  10.523   3.217   8.778 -0.2056  0.1395  0.8973
   19MOL0     C 2490  10.533   3.322   8.685  0.4595  0.4897  0.3718
   19MOL0     C 2491  10.653   3.373   8.650  0.1887 -0.8808  0.2952
   19MOL0     O 2492  10.655   3.457   8.543  0.9779 -0.0346  0.6786
   19MOL0     C 2493  10.787   3.513   8.511 -0.3446  0.2383  1.1316
   19MOL0     C 2494  10.770   3.586   8.374 -0.0099 -0.2384  0.6205
   19MOL0     C 2495  10.865   3.698   8.362 -0.1079  0.1245  0.1814
   19MOL0     C 2496  10.843   3.798   8.249  0.2959  0.5987 -0.8735
   19MOL0     C 2497  10.917   3.931   8.272  0.3676 -0.3199 -0.1309
   19MOL0     C 2498  10.948   4.002   8.140 -0.0164 -0.9098  1.5402
   19MOL0     C 2499  10.843   4.010   8.035  0.0788  0.6279  0.6034
   19MOL0     C 2500  10.892   4.093   7.911  0.0366 -0.0526 -0.5326
   19MOL0     N 2501  10.774   4.113   7.825 -1.4121  0.1974  0.2915
   19MOL0     C 2502  10.744   4.040   7.711 -0.6780 -0.5710 -1.0934
   19MOL0     C 2503  10.631   4.096   7.652  0.0370  0.9862  0.4970
   19MOL0     C 2504  10.575   4.042   7.527  0.2136 -0.4848 -0.7550
   19MOL0     C 2505  10.448   4.101   7.471 -0.4190 -0.3432  0.9723
   19MOL0     C 2506  10.424   4.090   7.317 -0.6264  0.0560 -0.3067
   19MOL0     C 2507  10.325   4.193   7.258 -0.2609  0.1694  0.8110
   19MOL0     O 2508  10.236   4.239   7.358 -0.1414  0.0900  0.0191
   19MOL0     C 2509  10.201   4.372   7.364 -0.1189  0.3443  0.2859
   19MOL0     C 2510  10.181   4.450   7.253  0.2475  0.3893 -0.5448
   19MOL0     C 2511  10.142   4.583   7.264 -0.7806  0.0498 -0.5341
   19MOL0     C 2512  10.153   4.655   7.129 -0.0135 -0.1400 -0.0770
   19MOL0     C 2513  10.107   4.629   7.388  0.7887  0.2205  0.6203
   19MOL0     C 2514  10.050   4.772   7.402 -0.2714  0.1981 -0.4864
   19MOL0     O 2515   9.999   4.797   7.524 -0.3316 -0.0487  0.4240
   19MOL0     C 2516  10.008   4.931   7.562  0.4803  0.5687 -0.3663
   19MOL0     C 2517  10.134   4.987   7.605  0.2148  1.6285 -0.4314
   19MOL0     C 2518  10.144   5.119   7.626  0.5234 -0.0548 -0.0549
   19MOL0     C 2519  10.032   5.211   7.624  0.4899  0.9795  0.8896
   19MOL0     O 2520  10.033   5.342   7.647 -0.1930  0.1169  0.7052
   19MOL0     C 2521  10.145   5.399   7.721 -0.0079  0.1141  0.6542
   19MOL0     C 2522  10.168   5.553   7.694 -0.2442  0.0491  0.9918
   19MOL0     C 2523  10.272   5.580   7.587  0.1062  0.7327 -0.2616
   19MOL0     C 2524  10.234   5.507   7.454 -0.7712  0.2150  0.5477
   19MOL0     C 2525  10.330   5.537   7.338 -0.2943  0.3200 -0.0238
   19MOL0     C 2526  10.353   5.415   7.244 -0.1727 -0.4197 -0.2330
   19MOL0     C 2527  10.446   5.318   7.297 -0.2419  0.1912 -0.1807
   19MOL0     C 2528  10.426   5.180   7.242 -0.0919 -0.0029  0.1861
   19MOL0    Cl 2529  10.473   5.167   7.064 -0.4640  0.4183 -0.0812
   19MOL0     C 2530   9.910   5.154   7.590  0.5118 -0.0959 -0.4090
   19MOL0     C 2531   9.904   5.023   7.549  0.4601 -0.3504 -0.2819
   19MOL0     O 2532  10.057   4.856   7.316 -0.6445 -0.5324  0.2181
   19MOL0     C 2533  10.117   4.549   7.502 -0.4234  0.7595 -0.3298
   19MOL0     C 2534  10.168   4.418   7.487 -0.4388 -0.2242  0.6032
   19MOL0     N 2535  10.592   4.201   7.735  0.3275 -0.7741 -0.2264
   19MOL0     N 2536  10.681   4.214   7.822 -0.2033  0.0706 -0.3179
   19MOL0     C 2537  10.768   3.338   8.723  0.2577  0.6573 -0.2477
   19MOL0     C 2538  10.758   3.231   8.817  0.0086 -1.2313  0.8088
   19MOL0     C 2539  10.601   2.841   8.968  0.5026  0.2223  0.5191
   19MOL0     C 2540  10.658   2.723   8.936 -1.1650  0.6620 -0.8588
   19MOL0     C 2541  10.615   2.607   8.996  1.1698 -0.1623 -0.5170
   19MOL0     C 2542  10.533   2.604   9.110 -0.8758 -0.8652  0.8049
   19MOL0     O 2543  10.506   2.484   9.168  0.2610  0.1679  0.0489
   19MOL0     C 2544  10.419   2.488   9.276  0.4234  0.6865 -0.6223
   19MOL0     C 2545  10.375   2.342   9.311  0.0254  0.7196 -0.1771
   19MOL0     C 2546  10.273   2.292   9.203  0.1214 -0.6648  0.9042
   19MOL0     C 2547  10.277   2.139   9.200 -0.5795  0.5416 -0.4196
   19MOL0     C 2548  10.190   2.086   9.097 -0.0192  0.1135  0.5624
   19MOL0     C 2549  10.102   2.041   9.019 -0.8279 -0.2274 -0.0261
   19MOL0     C 2550  10.503   2.723   9.162 -0.0128  0.0396  0.5592
   19MOL0     C 2551  10.523   2.839   9.088  0.7962 -0.2327  0.1341
   19MOL0     C 2552  10.476   2.974   9.144  0.0880 -0.0681  0.0917
   19MOL0     H 2553  10.426   3.172   8.793 -0.9275  0.0116 -3.1299
   19MOL0     H 2554  10.446   3.372   8.645  0.7093  1.8542  1.4647
   19MOL0     H 2555  10.840   3.418   8.499 -2.5344 -1.2912  2.7663
   19MOL0     H 2556  10.823   3.576   8.593 -4.4623  1.8494  1.9438
   19MOL0     H 2557  10.782   3.518   8.289 -1.1278 -1.8271  1.6703
   19MOL0     H 2558  10.670   3.629   8.379 -0.4901 -1.3414  0.7845
   19MOL0     H 2559  10.875   3.752   8.456  0.1396  2.6428 -1.1832
   19MOL0     H 2560  10.963   3.659   8.336 -0.0501  0.9124 -0.8656
   19MOL0     H 2561  10.895   3.742   8.171  0.9286 -1.9834  1.2553
   19MOL0     H 2562  10.736   3.813   8.232 -0.8941 -3.9958  1.0688
   19MOL0     H 2563  11.010   3.931   8.330  1.3919  2.1692 -1.5975
   19MOL0     H 2564  10.839   3.983   8.329 -0.5516 -0.9912 -0.7565
   19MOL0     H 2565  10.969   4.103   8.174  2.3349 -0.8905  0.2206
   19MOL0     H 2566  11.038   3.958   8.096 -1.0240  1.1723 -3.3383
   19MOL0     H 2567  10.771   4.079   8.078  0.8463  1.9672 -0.1748
   19MOL0     H 2568  10.787   3.921   8.005  1.1649  0.7159 -1.9778
   19MOL0     H 2569  10.928   4.189   7.948  0.7878 -0.8812  0.9944
   19MOL0     H 2570  10.974   4.049   7.855  0.1630 -0.6874  0.1334
   19MOL0     H 2571  10.792   3.952   7.670 -1.4574 -1.4989 -0.0896
   19MOL0     H 2572  10.547   3.938   7.549 -0.3874 -0.2276 -0.2943
   19MOL0     H 2573  10.655   4.042   7.453  0.4462 -1.1071 -0.5166
   19MOL0     H 2574  10.363   4.041   7.504 -1.6605  1.8308  2.0101
   19MOL0     H 2575  10.425   4.205   7.498 -4.7694 -0.9224  0.2343
   19MOL0     H 2576  10.526   4.119   7.291  1.1741 -2.3498  3.3135
   19MOL0     H 2577  10.403   3.989   7.280 -1.2111  0.1329 -0.1884
   19MOL0     H 2578  10.385   4.275   7.217  3.5617 -1.1495  3.2467
   19MOL0     H 2579  10.265   4.148   7.179 -2.4442  1.4145  1.6673
   19MOL0     H 2580  10.226   4.405   7.165  4.3155 -3.5923  3.0347
   19MOL0     H 2581  10.231   4.730   7.141 -0.6431  1.2924 -3.6492
   19MOL0     H 2582  10.062   4.714   7.111  0.5376  2.6174  4.6127
   19MOL0     H 2583  10.181   4.588   7.047  2.9823 -3.5503  3.3530
   19MOL0     H 2584  10.214   4.916   7.623 -0.5624  1.2725  1.9928
   19MOL0     H 2585  10.240   5.154   7.663  0.5503 -0.5961  0.4088
   19MOL0     H 2586  10.099   5.391   7.820  1.5532 -0.9813  1.3284
   19MOL0     H 2587  10.241   5.348   7.710  2.4215  4.0453  1.4560
   19MOL0     H 2588  10.077   5.602   7.660  0.7302  2.5074  1.7380
   19MOL0     H 2589  10.202   5.596   7.789  2.5301  0.2758 -0.0175
   19MOL0     H 2590  10.368   5.541   7.622 -1.9075 -0.4348  4.7533
   19MOL0     H 2591  10.296   5.685   7.567  1.9606  0.0746 -1.8351
   19MOL0     H 2592  10.135   5.543   7.425 -0.7498  0.1479  0.3948
   19MOL0     H 2593  10.212   5.401   7.470 -2.6700  0.0900 -2.2648
   19MOL0     H 2594  10.281   5.611   7.274 -1.1015  0.5216  0.8074
   19MOL0     H 2595  10.428   5.572   7.368  2.2099 -4.5634 -1.4341
   19MOL0     H 2596  10.395   5.446   7.148  1.0885 -1.8594 -0.1803
   19MOL0     H 2597  10.258   5.365   7.225 -0.5889 -0.8340  2.4737
   19MOL0     H 2598  10.442   5.310   7.406 -0.1607  0.0497 -0.1883
   19MOL0     H 2599  10.547   5.343   7.263  1.3963 -1.6227  2.9406
   19MOL0     H 2600  10.321   5.151   7.252 -0.0488 -0.0678  0.4789
   19MOL0     H 2601  10.491   5.108   7.292  0.3853 -0.0377 -0.4799
   19MOL0     H 2602   9.821   5.215   7.584 -0.3392 -0.6899  3.4223
   19MOL0     H 2603   9.817   4.987   7.496  0.1208  0.0517 -0.0058
   19MOL0     H 2604  10.094   4.587   7.601 -1.4913 -1.6344  0.4024
   19MOL0     H 2605  10.200   4.345   7.561 -1.0050  0.2963  1.3724
   19MOL0     H 2606  10.867   3.377   8.700  0.1911 -0.0471 -1.9025
   19MOL0     H 2607  10.848   3.213   8.876  1.6346 -1.1003 -1.5170
   19MOL0     H 2608  10.725   2.708   8.852 -1.6412  1.8524 -1.4803
   19MOL0     H 2609  10.647   2.506   8.972 -1.4137 -0.5551 -2.8868
   19MOL0     H 2610  10.461   2.536   9.365  1.0991 -1.9673  0.6204
   19MOL0     H 2611  10.328   2.538   9.243  0.5343  0.3227 -1.4990
   19MOL0     H 2612  10.325   2.357   9.407 -1.6891 -1.3955 -0.6576
   19MOL0     H 2613  10.461   2.275   9.322  1.1169  1.8184 -1.7511
   19MOL0     H 2614  10.178   2.338   9.232  0.6066  0.6745  0.4225
   19MOL0     H 2615  10.298   2.330   9.104 -1.6131 -1.4520  0.1229
   19MOL0     H 2616  10.240   2.100   9.295  1.7058  4.1567  2.2302
   19MOL0     H 2617  10.383   2.113   9.190  0.1214  2.3556  1.5351
   19MOL0     H 2618  10.023   1.983   8.975  1.8327 -2.3874 -2.2785
   19MOL0     H 2619  10.447   2.730   9.254 -0.2464 -2.1444  0.6287
   19MOL0     H 2620  10.400   3.025   9.084  0.7476 -1.2741 -1.8671
   19MOL0     H 2621  10.424   2.975   9.240 -2.2884 -1.9002 -1.0802
   19MOL0     H 2622  10.561   3.038   9.170  0.2483 -0.4101  0.4295
   20MOL0     O 2623  10.984   9.685   6.030 -0.6540  0.3078 -0.0170
   20MOL0     C 2624  11.047   9.763   5.953  1.7499 -1.2582  0.5920
   20MOL0     O 2625  10.984   9.861   5.879  0.3492  0.0258  0.3669
   20MOL0     C 2626  10.842   9.864   5.894  0.4613 -0.6164 -1.3364
   20MOL0     C 2627  10.779   9.932   6.002  1.2471 -0.8236  0.2218
   20MOL0     C 2628  10.634   9.938   5.999  0.6374 -0.7508  0.1198
   20MOL0     C 2629  10.561   9.893   5.891  0.5808 -0.8273 -0.0345
   20MOL0     O 2630  10.429   9.923   5.904 -1.2605  0.6641  0.1691
   20MOL0     C 2631  10.339   9.922   5.795 -0.3143 -0.0270  0.5467
   20MOL0     C 2632  10.357  10.051   5.718 -1.0234  0.5070  0.5023
   20MOL0     C 2633  10.326  10.168   5.797 -0.4441  0.1034 -0.0467
   20MOL0     C 2634  10.180  10.195   5.792 -0.6064  0.3633 -0.5212
   20MOL0     C 2635  10.155  10.328   5.873 -0.0432  0.0737 -0.0467
   20MOL0     C 2636  10.015  10.384   5.846  0.2121  1.1895  0.3496
   20MOL0     C 2637   9.981  10.472   5.974  0.3290  0.4186  0.0394
   20MOL0     C 2638  10.072  10.597   5.968 -0.0138  1.2151  0.1933
   20MOL0     N 2639  10.058  10.676   6.096  0.8364  0.3330  0.3753
   20MOL0     C 2640   9.935  10.715   6.146 -0.1657  0.6844 -0.3800
   20MOL0     C 2641   9.961  10.756   6.273  0.6076  0.8338 -0.2795
   20MOL0     C 2642   9.837  10.791   6.360 -0.8054 -0.0889  0.4408
   20MOL0     C 2643   9.768  10.678   6.441 -0.3745 -0.1413 -0.0236
   20MOL0     C 2644   9.667  10.594   6.366  0.7289  0.5570  0.3304
   20MOL0     C 2645   9.522  10.628   6.407 -0.0168  0.1784  0.6107
   20MOL0     O 2646   9.505  10.588   6.544 -0.3484  0.0567  0.1817
   20MOL0     C 2647   9.426  10.658   6.628 -0.2212 -0.5447  0.3442
   20MOL0     C 2648   9.452  10.661   6.765 -0.3358 -0.3324 -0.5923
   20MOL0     C 2649   9.387  10.752   6.852 -0.5915  0.4975 -0.4210
   20MOL0     C 2650   9.436  10.762   6.993  0.1020 -0.1697 -0.2003
   20MOL0     C 2651   9.281  10.835   6.797  0.2121  0.3959 -0.9773
   20MOL0     C 2652   9.193  10.926   6.885 -0.6089 -0.1787 -0.0800
   20MOL0     O 2653   9.232  10.960   7.013 -0.2538  0.2849  0.1038
   20MOL0     C 2654   9.157  11.046   7.089 -0.4753  0.1421  0.7554
   20MOL0     C 2655   9.022  11.041   7.120  0.6884 -0.1554  0.6864
   20MOL0     C 2656   8.959  11.141   7.209  0.1928 -0.1418 -0.1788
   20MOL0     C 2657   9.035  11.241   7.261 -0.4168  0.7373 -0.8173
   20MOL0     O 2658   8.968  11.332   7.351 -0.6801 -0.7784  0.5540
   20MOL0     C 2659   9.031  11.466   7.380 -0.3939  0.0023  0.4559
   20MOL0     C 2660   9.004  11.521   7.520  0.5211  0.4118  0.1753
   20MOL0     C 2661   9.007  11.416   7.637  1.1399  0.0770 -0.5987
   20MOL0     C 2662   9.146  11.417   7.696 -0.3736 -0.7255  0.3658
   20MOL0     C 2663   9.170  11.314   7.811 -0.0283  0.0256 -0.2128
   20MOL0     C 2664   9.316  11.305   7.858 -0.5556 -0.4832 -1.0276
   20MOL0     C 2665   9.428  11.244   7.774  0.2908 -1.0704 -0.3878
   20MOL0     C 2666   9.442  11.100   7.802  0.8134 -0.1469 -1.1304
   20MOL0    Cl 2667   9.292  11.005   7.777 -0.3124  0.1595 -0.0564
   20MOL0     C 2668   9.172  11.253   7.216  0.4222 -0.0532  0.4213
   20MOL0     C 2669   9.237  11.152   7.142 -0.5038 -0.0315  0.1703
   20MOL0     O 2670   9.092  10.967   6.832 -0.2999 -0.1607  0.2148
   20MOL0     C 2671   9.246  10.809   6.661  0.3426  0.7670  0.1097
   20MOL0     C 2672   9.322  10.730   6.584  0.0931 -0.0050  0.9309
   20MOL0     N 2673  10.091  10.736   6.295 -0.1920  0.5933 -0.2264
   20MOL0     N 2674  10.154  10.682   6.195  0.1682 -0.5484  0.6121
   20MOL0     C 2675  10.624   9.828   5.790  0.3949  0.1579 -0.1376
   20MOL0     C 2676  10.762   9.804   5.785 -0.8739  0.1263 -0.3073
   20MOL0     C 2677  11.199   9.760   5.949 -0.1444  0.2053 -0.0365
   20MOL0     C 2678  11.267   9.885   5.930  0.3774 -0.3825 -0.6502
   20MOL0     C 2679  11.407   9.889   5.931 -0.2554 -0.6509 -0.2609
   20MOL0     C 2680  11.479   9.769   5.948 -1.0654  0.3384  0.4347
   20MOL0     O 2681  11.619   9.777   5.940  0.6161  0.3185 -0.7415
   20MOL0     C 2682  11.677   9.665   5.874 -0.6040  0.6878 -0.5441
   20MOL0     C 2683  11.815   9.714   5.822  0.6044 -0.4967  0.9106
   20MOL0     C 2684  11.926   9.657   5.906  0.4003 -0.0533 -0.6961
   20MOL0     C 2685  11.944   9.739   6.031 -0.3978 -0.7625 -0.1278
   20MOL0     C 2686  11.976   9.667   6.154 -0.6488 -0.2673  0.0895
   20MOL0     C 2687  11.991   9.613   6.266  0.4914  0.7474 -1.0082
   20MOL0     C 2688  11.412   9.646   5.958  0.0094 -0.1130  0.4871
   20MOL0     C 2689  11.275   9.641   5.964 -0.6764  0.0898  1.0219
   20MOL0     C 2690  11.221   9.500   5.995  0.2622  1.5950 -0.2212
   20MOL0     H 2691  10.821   9.985   6.087 -0.8435 -0.0275  0.8210
   20MOL0     H 2692  10.573   9.978   6.080  0.7030 -1.2073  0.3991
   20MOL0     H 2693  10.238   9.909   5.834 -0.3400 -3.0139 -0.2371
   20MOL0     H 2694  10.364   9.835   5.732  0.7946  0.2211  0.6187
   20MOL0     H 2695  10.461  10.059   5.685 -1.1823  0.8032  0.0649
   20MOL0     H 2696  10.291  10.041   5.631 -0.5465 -1.2395  0.2958
   20MOL0     H 2697  10.356  10.172   5.902 -0.2500  2.4313 -0.1469
   20MOL0     H 2698  10.378  10.256   5.759 -3.3442  1.9977 -0.0147
   20MOL0     H 2699  10.138  10.213   5.693 -3.5400 -1.3174  0.3020
   20MOL0     H 2700  10.120  10.111   5.827 -0.1321 -0.2781 -1.2316
   20MOL0     H 2701  10.234  10.401   5.857 -0.2482  0.4098  0.4531
   20MOL0     H 2702  10.162  10.287   5.974 -0.5439 -1.9091 -0.7627
   20MOL0     H 2703  10.012  10.437   5.751  2.3771  0.4126 -0.2069
   20MOL0     H 2704   9.948  10.299   5.850  3.0451 -1.1915  0.7375
   20MOL0     H 2705   9.993  10.416   6.067  1.1247  0.4306 -0.0431
   20MOL0     H 2706   9.882  10.517   5.966  0.3566  0.6118  0.7879
   20MOL0     H 2707  10.173  10.557   5.985 -1.5502 -2.3959  1.9805
   20MOL0     H 2708  10.064  10.658   5.878  1.5608  1.8609  0.4521
   20MOL0     H 2709   9.836  10.703   6.102 -0.0410 -0.6451 -0.3485
   20MOL0     H 2710   9.772  10.849   6.295  0.6133  0.8256 -0.2236
   20MOL0     H 2711   9.862  10.864   6.438 -0.5933  1.0338 -0.6317
   20MOL0     H 2712   9.849  10.617   6.482 -0.8298 -1.0499 -0.4653
   20MOL0     H 2713   9.719  10.723   6.528  0.8585  3.5815 -1.0640
   20MOL0     H 2714   9.682  10.617   6.260  2.9574  1.3008  0.7692
   20MOL0     H 2715   9.688  10.488   6.379  1.6922  0.9580  2.2710
   20MOL0     H 2716   9.495  10.728   6.372  1.2832 -0.3048 -2.0215
   20MOL0     H 2717   9.453  10.573   6.343  0.3879  2.8469 -2.4064
   20MOL0     H 2718   9.533  10.605   6.810  0.4297  1.2812  0.1488
   20MOL0     H 2719   9.526  10.702   7.007  0.1786 -0.7352 -2.6727
   20MOL0     H 2720   9.356  10.715   7.052 -1.1803  0.7730 -1.1203
   20MOL0     H 2721   9.462  10.865   7.017  2.1493  0.2047 -3.4556
   20MOL0     H 2722   8.965  10.959   7.077  1.2553  0.2617 -0.9489
   20MOL0     H 2723   8.852  11.143   7.228 -0.3833 -2.1066 -2.7386
   20MOL0     H 2724   9.140  11.454   7.376 -0.6370 -2.9059 -0.5164
   20MOL0     H 2725   9.002  11.544   7.309 -0.7797 -1.5815 -1.2368
   20MOL0     H 2726   9.070  11.603   7.548  0.5590 -0.4551  2.8374
   20MOL0     H 2727   8.903  11.562   7.521  0.5785  0.9183 -2.8362
   20MOL0     H 2728   8.987  11.315   7.598 -0.1513  1.0768 -2.7062
   20MOL0     H 2729   8.936  11.440   7.716  0.4656  4.3207 -2.2620
   20MOL0     H 2730   9.156  11.517   7.740 -1.4131 -0.1264 -0.7315
   20MOL0     H 2731   9.231  11.412   7.627 -0.7339 -2.4577  0.0150
   20MOL0     H 2732   9.105  11.341   7.894  0.9977 -0.2303  0.6969
   20MOL0     H 2733   9.138  11.213   7.785  2.3068 -0.0254 -3.7261
   20MOL0     H 2734   9.311  11.261   7.958 -1.9494  1.2496 -0.2666
   20MOL0     H 2735   9.336  11.412   7.873 -1.6434 -0.3498 -0.3676
   20MOL0     H 2736   9.520  11.294   7.807  0.0559 -1.6962  1.2766
   20MOL0     H 2737   9.415  11.260   7.666  1.8657  0.9457 -0.3496
   20MOL0     H 2738   9.466  11.081   7.906 -2.9285  3.2949  0.6424
   20MOL0     H 2739   9.528  11.074   7.740  2.1848 -1.0360  1.0462
   20MOL0     H 2740   9.236  11.333   7.251  1.9856  0.2336 -2.7908
   20MOL0     H 2741   9.343  11.160   7.122 -0.9962 -2.2228 -5.2514
   20MOL0     H 2742   9.151  10.848   6.626  1.5752  0.9350 -3.3420
   20MOL0     H 2743   9.292  10.719   6.480 -2.9776  1.5280  1.5268
   20MOL0     H 2744  10.571   9.781   5.708  1.0579  0.5929 -0.8354
   20MOL0     H 2745  10.819   9.753   5.707  0.7152 -0.2796  1.0602
   20MOL0     H 2746  11.207   9.970   5.900 -0.2938  0.7584  3.3087
   20MOL0     H 2747  11.458   9.983   5.919 -1.1522 -0.3681 -2.3924
   20MOL0     H 2748  11.688   9.589   5.952 -0.3617  2.7639  1.5282
   20MOL0     H 2749  11.608   9.632   5.796  0.0476  0.5325 -1.0733
   20MOL0     H 2750  11.822   9.817   5.784  0.5916 -0.6786  0.4044
   20MOL0     H 2751  11.818   9.656   5.729 -3.4663 -2.0981  1.6100
   20MOL0     H 2752  11.903   9.555   5.935  1.3189 -0.3619 -1.0217
   20MOL0     H 2753  12.025   9.649   5.861  0.4537 -4.4556 -0.2303
   20MOL0     H 2754  11.856   9.803   6.049 -0.1475 -0.3175 -0.4598
   20MOL0     H 2755  12.028   9.806   6.012 -0.0600 -1.3854 -0.8627
   20MOL0     H 2756  11.994   9.541   6.345  0.8952  2.1656  0.2869
   20MOL0     H 2757  11.469   9.557   5.983  0.6453 -0.4438 -1.9446
   20MOL0     H 2758  11.150   9.459   5.922  1.2193 -1.7041  0.5392
   20MOL0     H 2759  11.298   9.423   5.987 -0.4093  0.8285  0.4183
   20MOL0     H 2760  11.183   9.493   6.097  2.3234  1.1428  0.5638
   21MOL0     O 2761  10.199   1.768   9.185 -0.6321 -0.3953  0.1201
   21MOL0     C 2762  10.237   1.665   9.133  0.6986  0.7747  0.1081
   21MOL0     O 2763  10.360   1.605   9.148  0.3012 -0.4664 -0.3475
   21MOL0     C 2764  10.445   1.683   9.218 -0.0936  0.1757 -0.2258
   21MOL0     C 2765  10.485   1.624   9.335 -0.3392 -0.3813  0.6937
   21MOL0     C 2766  10.592   1.681   9.409 -0.6852 -0.2575 -0.8077
   21MOL0     C 2767  10.658   1.796   9.359 -0.6500  0.0602  0.0584
   21MOL0     O 2768  10.770   1.848   9.420 -0.2976  0.4393  1.3475
   21MOL0     C 2769  10.766   1.987   9.462  0.2420 -0.1951 -0.7306
   21MOL0     C 2770  10.860   1.994   9.584 -0.3725 -0.3813 -0.5517
   21MOL0     C 2771  11.016   2.003   9.537 -0.0809 -0.7149  0.5753
   21MOL0     C 2772  11.116   2.006   9.655  0.9563 -0.4766  0.6879
   21MOL0     C 2773  11.261   1.978   9.629 -0.2765  0.2146 -0.1427
   21MOL0     C 2774  11.326   1.892   9.745  0.3055  0.5783 -0.5626
   21MOL0     C 2775  11.472   1.889   9.719  0.7530  0.6138  0.0902
   21MOL0     C 2776  11.561   1.800   9.811  0.1886  0.2371 -0.2781
   21MOL0     N 2777  11.517   1.780   9.946  0.6753  0.4810 -0.2122
   21MOL0     C 2778  11.432   1.677   9.986  0.5096  0.3963  0.4346
   21MOL0     C 2779  11.411   1.709  10.119  0.1999 -0.6443  0.7818
   21MOL0     C 2780  11.309   1.645  10.211  0.6829 -0.5601  0.5300
   21MOL0     C 2781  11.166   1.622  10.160  0.5034  0.6123  0.8614
   21MOL0     C 2782  11.082   1.756  10.168  0.3720  0.8090 -0.4649
   21MOL0     C 2783  10.956   1.758  10.080  0.0374  0.4172  0.0407
   21MOL0     O 2784  10.872   1.637  10.077  0.3778  0.0532 -0.6945
   21MOL0     C 2785  10.763   1.633   9.996  0.6044  0.1539 -0.5210
   21MOL0     C 2786  10.741   1.514   9.932 -0.5201 -0.0096  0.8252
   21MOL0     C 2787  10.630   1.495   9.852 -0.0003 -0.5678 -0.2364
   21MOL0     C 2788  10.607   1.353   9.810 -0.3402  0.3548  0.2412
   21MOL0     C 2789  10.536   1.597   9.831 -1.1470 -0.6615  0.3905
   21MOL0     C 2790  10.411   1.577   9.753  0.0342  0.2814  1.3336
   21MOL0     O 2791  10.329   1.687   9.754  0.5826 -0.7303  0.3265
   21MOL0     C 2792  10.194   1.657   9.739 -0.2385  0.2344  0.6440
   21MOL0     C 2793  10.125   1.626   9.852 -0.7564  0.0420  0.5901
   21MOL0     C 2794   9.998   1.581   9.845 -0.8428  1.3905  0.1239
   21MOL0     C 2795   9.936   1.568   9.722 -0.1769  1.1168  0.4169
   21MOL0     O 2796   9.804   1.529   9.723 -0.4768 -0.1504  0.4340
   21MOL0     C 2797   9.764   1.415   9.806 -0.1671 -0.1734 -0.6896
   21MOL0     C 2798   9.671   1.444   9.925 -0.1687 -0.1640 -0.9607
   21MOL0     C 2799   9.621   1.301   9.986 -0.4719 -0.6566  0.1136
   21MOL0     C 2800   9.529   1.327  10.108 -0.4853 -0.2822  0.4736
   21MOL0     C 2801   9.584   1.431  10.213 -1.0108 -0.0574  0.1855
   21MOL0     C 2802   9.488   1.426  10.327  0.0688 -0.0456  0.8474
   21MOL0     C 2803   9.527   1.520  10.437 -0.7258  0.1882  0.3173
   21MOL0     C 2804   9.416   1.528  10.541 -0.3581  0.8571  0.0403
   21MOL0    Cl 2805   9.260   1.596  10.481  0.1390 -0.0743  0.4565
   21MOL0     C 2806  10.002   1.602   9.602  0.3144 -0.0614 -0.8904
   21MOL0     C 2807  10.132   1.654   9.614 -0.2392  0.8481  0.5907
   21MOL0     O 2808  10.380   1.473   9.693 -0.4925  0.3841  0.1659
   21MOL0     C 2809  10.562   1.718   9.900 -0.9033  0.0289 -0.8127
   21MOL0     C 2810  10.671   1.738   9.984 -0.3599  0.1069 -0.4202
   21MOL0     N 2811  11.489   1.817  10.157 -0.9626  0.0879  0.8148
   21MOL0     N 2812  11.545   1.865  10.049 -0.6546  0.5311 -0.3538
   21MOL0     C 2813  10.629   1.844   9.234 -0.2343 -0.0069  0.2523
   21MOL0     C 2814  10.527   1.787   9.160  0.4685  0.3955 -0.4330
   21MOL0     C 2815  10.122   1.587   9.062 -0.9150  0.8598 -0.2862
   21MOL0     C 2816  10.171   1.478   8.980 -0.6527  0.5656  0.6849
   21MOL0     C 2817  10.084   1.417   8.889 -0.7557  1.0828  0.2116
   21MOL0     C 2818   9.947   1.440   8.883  0.3345 -0.8487  0.4013
   21MOL0     O 2819   9.844   1.372   8.811  0.1377  1.1444  0.1302
   21MOL0     C 2820   9.878   1.254   8.739 -0.2378  0.2209 -0.4347
   21MOL0     C 2821   9.888   1.119   8.830  0.1272 -1.3251 -0.1433
   21MOL0     C 2822   9.756   1.079   8.892 -0.9373 -0.0834  0.3953
   21MOL0     C 2823   9.758   0.930   8.947  0.4402 -0.2803  0.2444
   21MOL0     C 2824   9.842   0.899   9.064 -0.3689 -0.5876  0.4978
   21MOL0     C 2825   9.903   0.857   9.161 -0.7927  0.2476 -0.2957
   21MOL0     C 2826   9.906   1.546   8.966  0.3956  0.3326 -0.1069
   21MOL0     C 2827   9.984   1.621   9.057  0.1664 -0.2894  0.3966
   21MOL0     C 2828   9.922   1.735   9.143 -0.0500  0.1731 -0.5947
   21MOL0     H 2829  10.432   1.539   9.378  1.3858 -0.4332  2.9031
   21MOL0     H 2830  10.635   1.649   9.503  0.0987  1.7149 -0.4527
   21MOL0     H 2831  10.668   2.028   9.487  0.0807 -2.0954  2.3211
   21MOL0     H 2832  10.814   2.032   9.375 -1.9702  2.0133 -0.8993
   21MOL0     H 2833  10.827   2.080   9.643 -4.0915 -3.4382  2.3344
   21MOL0     H 2834  10.848   1.910   9.652  0.5503  0.5572  0.8148
   21MOL0     H 2835  11.045   1.912   9.484 -0.6935 -1.0252  0.7591
   21MOL0     H 2836  11.034   2.088   9.471 -0.7618 -0.4070  0.7748
   21MOL0     H 2837  11.115   2.107   9.698  0.9266 -0.2911  0.2620
   21MOL0     H 2838  11.075   1.946   9.736 -0.3657  1.5457  1.5964
   21MOL0     H 2839  11.316   2.069   9.604  3.9421 -1.9886  0.2199
   21MOL0     H 2840  11.273   1.918   9.538 -1.0442 -0.6172  0.2824
   21MOL0     H 2841  11.306   1.935   9.844 -2.0963 -2.1528  0.2596
   21MOL0     H 2842  11.280   1.793   9.744 -2.3693  1.6572  1.7966
   21MOL0     H 2843  11.496   1.996   9.723  2.9830  0.4760 -3.9807
   21MOL0     H 2844  11.483   1.856   9.615  1.1743 -3.3866  1.2689
   21MOL0     H 2845  11.584   1.705   9.761  3.7329 -0.3467  2.0614
   21MOL0     H 2846  11.655   1.854   9.823  0.0537  0.1142  1.7699
   21MOL0     H 2847  11.374   1.608   9.926 -1.9345 -0.4194  3.4908
   21MOL0     H 2848  11.311   1.710  10.299  4.0350 -1.4617  1.2802
   21MOL0     H 2849  11.356   1.549  10.237  1.9284  0.0602  0.6347
   21MOL0     H 2850  11.177   1.591  10.056  4.3237  0.1879  1.2482
   21MOL0     H 2851  11.131   1.542  10.226  1.5323  1.1335  2.1025
   21MOL0     H 2852  11.052   1.749  10.273  5.4008  0.9055  1.2498
   21MOL0     H 2853  11.145   1.843  10.149 -0.8247  2.1510  1.4123
   21MOL0     H 2854  10.903   1.850  10.105 -0.7532  0.1051 -0.4567
   21MOL0     H 2855  11.003   1.771   9.982 -0.4582  1.4020 -0.0710
   21MOL0     H 2856  10.819   1.439   9.939  1.8627  1.7192 -3.3299
   21MOL0     H 2857  10.588   1.342   9.703  0.1199 -2.4074  0.3465
   21MOL0     H 2858  10.526   1.307   9.867 -0.8157  1.9912  0.9332
   21MOL0     H 2859  10.698   1.296   9.835 -0.8467 -1.3556 -1.5191
   21MOL0     H 2860  10.170   1.651   9.947 -1.4621  0.4926  0.8096
   21MOL0     H 2861   9.944   1.575   9.939  2.6547  1.2651  2.3028
   21MOL0     H 2862   9.699   1.358   9.738 -0.3337 -0.7619 -0.0420
   21MOL0     H 2863   9.853   1.358   9.832 -0.2418  0.3658  0.8026
   21MOL0     H 2864   9.726   1.497  10.003 -2.1678 -0.9139  1.0735
   21MOL0     H 2865   9.579   1.495   9.892 -0.2241 -0.6679 -1.6020
   21MOL0     H 2866   9.708   1.236  10.000 -2.0744 -2.6679  1.1513
   21MOL0     H 2867   9.570   1.240   9.911 -0.0791  1.1927 -1.7500
   21MOL0     H 2868   9.497   1.237  10.160 -0.5617  0.1775  1.2434
   21MOL0     H 2869   9.438   1.369  10.065  0.1842  1.8382  1.0028
   21MOL0     H 2870   9.686   1.401  10.241 -1.2210 -1.6423 -0.6386
   21MOL0     H 2871   9.589   1.534  10.177 -2.2312 -0.5262 -1.4535
   21MOL0     H 2872   9.494   1.324  10.366 -0.7240 -0.3229  0.2779
   21MOL0     H 2873   9.382   1.443  10.306 -0.2330 -1.9042  0.7097
   21MOL0     H 2874   9.553   1.621  10.405  2.2984 -0.0499  1.5915
   21MOL0     H 2875   9.619   1.484  10.485 -0.5206 -0.1993 -0.3536
   21MOL0     H 2876   9.446   1.581  10.632  0.5000  1.4820 -0.5930
   21MOL0     H 2877   9.396   1.428  10.579 -2.8537  0.8778 -1.0206
   21MOL0     H 2878   9.961   1.582   9.503 -0.7282  0.8621 -0.6644
   21MOL0     H 2879  10.172   1.692   9.520 -3.5331  3.0322 -0.1062
   21MOL0     H 2880  10.499   1.805   9.888  1.1729  1.5317 -1.4092
   21MOL0     H 2881  10.692   1.833  10.032  3.4028 -0.3284 -0.8316
   21MOL0     H 2882  10.682   1.930   9.194  0.0572  0.2797  1.2290
   21MOL0     H 2883  10.507   1.820   9.058  0.6526  2.6901  0.2064
   21MOL0     H 2884  10.278   1.467   8.967 -0.8510  0.3805 -0.9672
   21MOL0     H 2885  10.119   1.343   8.818 -0.9046 -1.8516  2.9557
   21MOL0     H 2886   9.803   1.246   8.660  0.6897  1.2220 -1.4355
   21MOL0     H 2887   9.979   1.256   8.696  0.0991 -0.1413  0.3182
   21MOL0     H 2888   9.972   1.121   8.900 -1.1143 -3.2698  1.4900
   21MOL0     H 2889   9.900   1.034   8.761 -1.9358 -2.6597  1.0280
   21MOL0     H 2890   9.737   1.146   8.977  1.3045  2.8820 -1.2332
   21MOL0     H 2891   9.677   1.103   8.820 -2.0671 -1.5790  1.1019
   21MOL0     H 2892   9.798   0.859   8.873  1.3432 -0.7490  1.1647
   21MOL0     H 2893   9.659   0.908   8.988  0.0185  2.4118  0.8250
   21MOL0     H 2894   9.948   0.805   9.243 -3.2370  0.5996  1.3771
   21MOL0     H 2895   9.798   1.557   8.971  0.4178  0.5005  0.0114
   21MOL0     H 2896   9.956   1.721   9.246  0.6043 -1.3361 -0.9875
   21MOL0     H 2897   9.941   1.835   9.104 -0.2645 -0.0898 -1.3874
   21MOL0     H 2898   9.816   1.708   9.135 -0.5402  0.3655  3.3106
   22MOL0     O 2899   1.839   6.385   5.041 -0.2703 -0.5554  0.4663
   22MOL0     C 2900   1.803   6.425   5.153  0.3773 -0.3345 -0.4186
   22MOL0     O 2901   1.699   6.368   5.213 -0.0559  0.3867 -0.1105
   22MOL0     C 2902   1.596   6.333   5.130 -0.9995  0.0605  0.3262
   22MOL0     C 2903   1.545   6.414   5.024 -0.4592  0.9252 -0.3353
   22MOL0     C 2904   1.441   6.367   4.949  0.2260  0.5678  0.5720
   22MOL0     C 2905   1.370   6.249   4.972  0.5525 -0.1537 -0.5140
   22MOL0     O 2906   1.261   6.206   4.894  1.4381 -0.5735  0.0949
   22MOL0     C 2907   1.233   6.283   4.779 -0.5519 -0.4785  0.2531
   22MOL0     C 2908   1.104   6.260   4.717 -0.0977  0.5115  0.5709
   22MOL0     C 2909   1.074   6.367   4.602 -0.4121 -0.6578 -0.0262
   22MOL0     C 2910   0.931   6.340   4.564 -0.8628 -0.1802 -0.0820
   22MOL0     C 2911   0.912   6.435   4.444 -0.0506  0.7971  0.5469
   22MOL0     C 2912   0.775   6.441   4.373  0.0119  0.0298  0.8793
   22MOL0     C 2913   0.662   6.384   4.462 -1.2238  0.0645  0.5529
   22MOL0     C 2914   0.535   6.383   4.367  0.1917 -0.6113 -0.4089
   22MOL0     N 2915   0.506   6.515   4.290 -0.3257  1.4958  0.4617
   22MOL0     C 2916   0.490   6.629   4.364  0.7231  0.0649  0.3698
   22MOL0     C 2917   0.461   6.728   4.271 -1.0811 -0.9336  0.1367
   22MOL0     C 2918   0.406   6.865   4.316 -0.3837 -0.5129 -0.4734
   22MOL0     C 2919   0.418   6.982   4.212  0.0352 -0.2001 -0.0888
   22MOL0     C 2920   0.340   7.109   4.268  1.1201  0.0166 -0.1458
   22MOL0     C 2921   0.321   7.217   4.161  0.2832  0.4008 -0.7800
   22MOL0     O 2922   0.442   7.243   4.099  0.2233 -0.4895 -0.2793
   22MOL0     C 2923   0.449   7.369   4.042 -0.0395 -0.7776  1.2467
   22MOL0     C 2924   0.393   7.390   3.903  0.0109  0.5051 -0.5784
   22MOL0     C 2925   0.407   7.514   3.841  0.6724  0.4272 -0.3434
   22MOL0     C 2926   0.344   7.538   3.705 -0.5125  1.0504 -0.4967
   22MOL0     C 2927   0.487   7.608   3.901 -0.2983  0.7260  0.4739
   22MOL0     C 2928   0.523   7.734   3.837  0.4828 -0.9232 -0.2983
   22MOL0     O 2929   0.427   7.819   3.786 -0.6849 -0.6934  0.4721
   22MOL0     C 2930   0.462   7.919   3.697 -0.8351  0.7952  0.1695
   22MOL0     C 2931   0.514   8.032   3.755  0.0111  0.4493 -0.5048
   22MOL0     C 2932   0.558   8.134   3.678 -0.5308  0.4627 -0.2459
   22MOL0     C 2933   0.541   8.134   3.540  0.1970 -0.0347 -0.1231
   22MOL0     O 2934   0.573   8.237   3.450 -0.0391  0.4219  0.3118
   22MOL0     C 2935   0.650   8.345   3.501 -0.6294 -0.9666  0.9018
   22MOL0     C 2936   0.701   8.420   3.381  0.4117  0.1857  0.0830
   22MOL0     C 2937   0.720   8.568   3.402 -0.3519  0.5204  0.2311
   22MOL0     C 2938   0.757   8.631   3.262 -0.1048  0.9151 -0.0420
   22MOL0     C 2939   0.830   8.770   3.276  0.6699  0.0775 -0.6148
   22MOL0     C 2940   0.717   8.868   3.322  0.5636  0.3574  0.1572
   22MOL0     C 2941   0.786   9.007   3.329  0.5066  0.3231  0.5953
   22MOL0     C 2942   0.907   9.020   3.428 -0.1506 -0.2566  0.6421
   22MOL0    Cl 2943   0.997   9.184   3.434  0.5045  0.1156  0.2682
   22MOL0     C 2944   0.482   8.011   3.481 -0.7464  0.0486  0.2410
   22MOL0     C 2945   0.451   7.901   3.561 -0.4635 -0.5514 -0.6654
   22MOL0     O 2946   0.642   7.766   3.855  0.0735  0.6919 -0.2253
   22MOL0     C 2947   0.533   7.591   4.028 -0.0936  0.9865 -0.1806
   22MOL0     C 2948   0.514   7.473   4.097  0.2261  0.1838  0.0561
   22MOL0     N 2949   0.452   6.659   4.145 -0.0700 -0.5959  0.1568
   22MOL0     N 2950   0.483   6.534   4.158  0.4489  0.1489  0.6796
   22MOL0     C 2951   1.414   6.171   5.082  1.1861  0.3253 -0.2327
   22MOL0     C 2952   1.521   6.211   5.153  0.4484 -0.9460 -1.3484
   22MOL0     C 2953   1.901   6.506   5.247  0.1212  0.3195 -0.3815
   22MOL0     C 2954   1.875   6.511   5.387  0.3353 -0.3288 -0.2347
   22MOL0     C 2955   1.943   6.593   5.477 -0.5075 -0.5834  0.3829
   22MOL0     C 2956   2.048   6.674   5.432  0.1812  0.5095  1.3433
   22MOL0     O 2957   2.126   6.753   5.517  0.1661 -0.4637 -0.4631
   22MOL0     C 2958   2.218   6.853   5.462  1.4288 -0.2192 -1.1309
   22MOL0     C 2959   2.264   6.957   5.568  0.2355 -0.6848 -1.5776
   22MOL0     C 2960   2.150   7.051   5.606 -0.0649  0.1026 -0.6154
   22MOL0     C 2961   2.191   7.159   5.701  0.3262 -0.5498 -0.4996
   22MOL0     C 2962   2.222   7.102   5.836 -0.2014 -0.3515  0.6989
   22MOL0     C 2963   2.258   7.059   5.941 -0.0812  0.0086  0.2042
   22MOL0     C 2964   2.084   6.663   5.294  1.3221  1.2497  0.3671
   22MOL0     C 2965   2.013   6.581   5.195  0.1795 -0.8667 -0.0655
   22MOL0     C 2966   2.034   6.596   5.049  0.2165  1.0045 -0.2830
   22MOL0     H 2967   1.588   6.510   4.998 -2.2906  2.0546  0.5696
   22MOL0     H 2968   1.415   6.427   4.863  2.1400 -1.5579 -1.6410
   22MOL0     H 2969   1.306   6.262   4.700 -0.1016 -0.9991  0.8044
   22MOL0     H 2970   1.226   6.389   4.808 -0.9599 -0.2078 -0.7761
   22MOL0     H 2971   1.096   6.160   4.673  0.7323  0.6130  0.1779
   22MOL0     H 2972   1.030   6.267   4.798 -1.4640  1.6093 -0.7048
   22MOL0     H 2973   1.071   6.463   4.656  0.0990 -1.7720  2.0687
   22MOL0     H 2974   1.151   6.369   4.525 -0.1577  2.4295  0.1500
   22MOL0     H 2975   0.915   6.233   4.548 -0.9888 -0.2614  0.5532
   22MOL0     H 2976   0.870   6.360   4.653  2.3727 -0.9874  2.5460
   22MOL0     H 2977   0.989   6.414   4.369  1.4914 -3.4776  2.9584
   22MOL0     H 2978   0.937   6.532   4.487 -2.7413  1.6809  0.2729
   22MOL0     H 2979   0.746   6.542   4.344 -2.8860  0.0504  3.3734
   22MOL0     H 2980   0.775   6.367   4.292 -3.3597 -0.5643  1.2893
   22MOL0     H 2981   0.653   6.446   4.552  2.6924 -2.6739  3.1280
   22MOL0     H 2982   0.675   6.283   4.502  0.8629  0.4381  0.9228
   22MOL0     H 2983   0.543   6.299   4.297 -0.3627 -0.9312 -0.0953
   22MOL0     H 2984   0.452   6.348   4.428  2.1713 -5.0635  0.1373
   22MOL0     H 2985   0.476   6.644   4.470 -0.0125  3.9980 -0.1191
   22MOL0     H 2986   0.455   6.902   4.407  1.6228 -3.3875 -0.2496
   22MOL0     H 2987   0.301   6.861   4.346 -0.5845 -0.4155 -1.1464
   22MOL0     H 2988   0.522   7.016   4.203  0.5164 -1.8324 -1.1836
   22MOL0     H 2989   0.386   6.961   4.110  0.0549 -0.5746 -0.0199
   22MOL0     H 2990   0.237   7.080   4.289  0.7619  0.3080 -1.3952
   22MOL0     H 2991   0.394   7.151   4.353  2.4555  0.5922 -1.2303
   22MOL0     H 2992   0.258   7.169   4.085  2.0625  1.2465 -2.8930
   22MOL0     H 2993   0.279   7.311   4.198 -0.9464  0.7121 -2.8183
   22MOL0     H 2994   0.331   7.314   3.856  2.4973 -1.4684 -0.8409
   22MOL0     H 2995   0.241   7.570   3.726 -0.4192  0.1180  1.6466
   22MOL0     H 2996   0.346   7.441   3.655  0.3436  0.3725  0.8043
   22MOL0     H 2997   0.389   7.617   3.644 -0.8437  2.5020  1.0649
   22MOL0     H 2998   0.513   8.037   3.863 -0.2011  0.4141 -0.5048
   22MOL0     H 2999   0.587   8.216   3.743 -4.0625 -0.1875  2.4344
   22MOL0     H 3000   0.585   8.415   3.554  2.2955  1.1167  2.0721
   22MOL0     H 3001   0.724   8.310   3.573 -1.6243 -1.5889  1.6253
   22MOL0     H 3002   0.800   8.387   3.346  0.3467  0.2559 -0.1697
   22MOL0     H 3003   0.631   8.404   3.298  0.3808 -3.2729  0.6244
   22MOL0     H 3004   0.797   8.583   3.478 -1.5937  1.8911  1.2682
   22MOL0     H 3005   0.632   8.620   3.441 -1.4243  0.6487 -2.1902
   22MOL0     H 3006   0.674   8.645   3.192  0.1099  5.5480  0.3107
   22MOL0     H 3007   0.835   8.570   3.217 -0.6872 -0.0092  0.1691
   22MOL0     H 3008   0.907   8.759   3.352 -1.3914 -2.8819  1.2814
   22MOL0     H 3009   0.870   8.796   3.178  0.3460  1.8347 -0.3199
   22MOL0     H 3010   0.683   8.846   3.424  2.1486  0.9137  0.8366
   22MOL0     H 3011   0.632   8.869   3.253  2.6744  0.3385 -2.6053
   22MOL0     H 3012   0.706   9.075   3.359 -0.3533 -0.7231  0.7402
   22MOL0     H 3013   0.810   9.036   3.226 -3.4179  2.5468  0.1193
   22MOL0     H 3014   0.985   8.951   3.395 -0.1485 -1.7043  3.3904
   22MOL0     H 3015   0.874   8.989   3.527  1.5302 -0.9095  1.0246
   22MOL0     H 3016   0.467   7.989   3.376 -3.4001 -1.3199  0.8259
   22MOL0     H 3017   0.416   7.811   3.511  1.9690 -0.9744 -1.7272
   22MOL0     H 3018   0.582   7.679   4.068  0.3258 -1.1102  4.4802
   22MOL0     H 3019   0.562   7.451   4.192  0.7969  1.1360  0.0081
   22MOL0     H 3020   1.368   6.075   5.105  0.3058  0.9080  0.4992
   22MOL0     H 3021   1.571   6.156   5.232 -0.3878 -3.0952 -2.2447
   22MOL0     H 3022   1.796   6.446   5.423  0.2877 -1.7401 -2.6271
   22MOL0     H 3023   1.902   6.591   5.578  1.5688 -1.1602  1.2774
   22MOL0     H 3024   2.300   6.797   5.416  2.6013  0.1247  0.4495
   22MOL0     H 3025   2.175   6.912   5.380  0.2849  2.8551  1.5076
   22MOL0     H 3026   2.341   7.024   5.530  0.1044  1.0775  1.0494
   22MOL0     H 3027   2.295   6.908   5.660 -0.9256  2.2713  0.5274
   22MOL0     H 3028   2.107   7.098   5.517 -2.1084  2.1054  1.3083
   22MOL0     H 3029   2.064   6.991   5.639  0.4014 -0.3673 -0.2308
   22MOL0     H 3030   2.097   7.215   5.696  1.2139  0.9887 -0.3148
   22MOL0     H 3031   2.265   7.227   5.660  0.1412  0.3335  0.5831
   22MOL0     H 3032   2.279   7.022   6.039 -0.9275 -0.4682  0.2178
   22MOL0     H 3033   2.160   6.728   5.252  0.6832  1.1641 -0.9870
   22MOL0     H 3034   2.109   6.674   5.030 -0.6417  1.4201 -2.1458
   22MOL0     H 3035   2.069   6.506   4.997 -0.4469  0.6599 -0.1433
   22MOL0     H 3036   1.945   6.641   5.004 -0.1929  0.9563  0.4524
   23MOL0     O 3037   1.385   1.856   2.344  0.8153 -0.3883 -0.0667
   23MOL0     C 3038   1.375   1.847   2.219 -0.8403  0.0079  0.0709
   23MOL0     O 3039   1.473   1.807   2.135 -0.6861  0.1269 -0.2229
   23MOL0     C 3040   1.586   1.737   2.186 -0.3063  0.3669  0.3346
   23MOL0     C 3041   1.709   1.800   2.157  0.8736  0.2307  0.3103
   23MOL0     C 3042   1.825   1.747   2.208 -0.4607 -0.1545  0.3972
   23MOL0     C 3043   1.821   1.630   2.299  0.3790 -0.2075  0.7815
   23MOL0     O 3044   1.928   1.549   2.329 -0.0586  0.4640  0.5329
   23MOL0     C 3045   2.063   1.597   2.315 -0.2547 -1.0822 -0.2957
   23MOL0     C 3046   2.143   1.468   2.331 -0.1639  0.7514  0.2788
   23MOL0     C 3047   2.163   1.414   2.186  0.1009  0.5427 -0.2415
   23MOL0     C 3048   2.288   1.450   2.096  0.1791  0.5092  0.8331
   23MOL0     C 3049   2.319   1.346   1.993 -0.2362  0.5105 -0.3625
   23MOL0     C 3050   2.412   1.424   1.903 -0.3552  0.1804  0.1872
   23MOL0     C 3051   2.494   1.328   1.806  0.8781 -0.9809  0.5052
   23MOL0     C 3052   2.424   1.331   1.668  0.6287  0.4148 -0.3375
   23MOL0     N 3053   2.483   1.223   1.595  1.0052 -0.4126 -0.4963
   23MOL0     C 3054   2.413   1.122   1.534 -0.4342 -0.5028 -0.1805
   23MOL0     C 3055   2.512   1.045   1.479 -0.1000  0.4145 -0.5931
   23MOL0     C 3056   2.487   0.926   1.385  0.0816  0.0864  0.4711
   23MOL0     C 3057   2.470   0.801   1.471 -0.0343 -0.4029 -0.3121
   23MOL0     C 3058   2.425   0.674   1.393 -0.1679  0.4791  0.1682
   23MOL0     C 3059   2.312   0.696   1.283  0.4481 -0.3870 -0.3122
   23MOL0     O 3060   2.200   0.743   1.348 -1.0490 -0.0423  1.2485
   23MOL0     C 3061   2.161   0.879   1.311 -0.0537  0.4280 -0.1675
   23MOL0     C 3062   2.122   0.967   1.408  0.5602 -0.6411 -0.3864
   23MOL0     C 3063   2.087   1.104   1.373 -0.4386 -0.4991 -0.0626
   23MOL0     C 3064   2.051   1.195   1.476  0.1175  0.8613 -0.2880
   23MOL0     C 3065   2.106   1.147   1.239  0.5252  0.0166 -0.2067
   23MOL0     C 3066   2.065   1.284   1.180  0.7360  0.2714  0.6128
   23MOL0     O 3067   1.996   1.388   1.255  0.6044 -0.0872 -0.7316
   23MOL0     C 3068   1.941   1.484   1.178 -0.2478  0.1040  0.0908
   23MOL0     C 3069   1.806   1.495   1.169  0.0192  0.0692 -1.0053
   23MOL0     C 3070   1.747   1.584   1.077  0.2273 -0.3551  0.0416
   23MOL0     C 3071   1.825   1.668   1.000  0.0432 -0.4944  0.0311
   23MOL0     O 3072   1.784   1.721   0.878  0.0246  0.9129  0.3998
   23MOL0     C 3073   1.647   1.695   0.832 -0.0306 -0.8598 -0.2364
   23MOL0     C 3074   1.632   1.558   0.760  0.0962  0.5637 -0.2853
   23MOL0     C 3075   1.476   1.533   0.719 -1.0091  0.1181 -0.1976
   23MOL0     C 3076   1.461   1.407   0.640  0.1063 -0.8856  0.0004
   23MOL0     C 3077   1.320   1.395   0.583 -0.7959  0.6403  0.1127
   23MOL0     C 3078   1.223   1.312   0.663 -1.0903  0.2581  0.4193
   23MOL0     C 3079   1.096   1.304   0.583 -0.1653 -0.8263  0.5348
   23MOL0     C 3080   0.995   1.255   0.688  0.3444 -0.4847 -0.1574
   23MOL0    Cl 3081   0.857   1.194   0.613 -0.2006 -0.3996  0.4099
   23MOL0     C 3082   1.961   1.664   1.014 -0.1755  0.6173 -0.0396
   23MOL0     C 3083   2.019   1.580   1.110 -0.2230  0.0833 -0.4047
   23MOL0     O 3084   2.075   1.288   1.055  1.3322  0.4414  0.0180
   23MOL0     C 3085   2.150   1.055   1.143  0.5963  0.3784 -0.3095
   23MOL0     C 3086   2.171   0.926   1.176  0.4253 -1.4171  0.6554
   23MOL0     N 3087   2.633   1.098   1.516 -0.1220  0.4210 -0.3375
   23MOL0     N 3088   2.610   1.212   1.565  0.0014  0.4117  0.6799
   23MOL0     C 3089   1.700   1.575   2.331  0.1493 -0.7878 -0.1865
   23MOL0     C 3090   1.580   1.627   2.275  0.4178  0.1831 -0.7635
   23MOL0     C 3091   1.248   1.923   2.171 -0.4469  0.4182  0.6718
   23MOL0     C 3092   1.240   1.950   2.036  1.0135  0.1572 -0.8926
   23MOL0     C 3093   1.136   2.022   1.975  0.5760 -0.5158 -0.7956
   23MOL0     C 3094   1.038   2.067   2.056  0.5261 -0.0010 -0.1820
   23MOL0     O 3095   0.928   2.142   2.005 -0.4221  0.0721 -0.2617
   23MOL0     C 3096   0.899   2.140   1.864  0.9816  0.3195 -0.6278
   23MOL0     C 3097   0.830   2.009   1.825 -0.7621 -0.3924 -0.4544
   23MOL0     C 3098   0.875   1.974   1.677 -0.8997  0.4315 -0.4967
   23MOL0     C 3099   0.823   2.069   1.571  0.3709  0.3402 -0.8185
   23MOL0     C 3100   0.831   2.022   1.437 -0.8285  1.2060  0.1917
   23MOL0     C 3101   0.826   1.990   1.322 -0.1006  0.5493  0.2488
   23MOL0     C 3102   1.036   2.030   2.191  0.0463  0.1428  0.1744
   23MOL0     C 3103   1.141   1.963   2.249  0.1971 -1.2039 -0.8155
   23MOL0     C 3104   1.122   1.922   2.393 -0.0042  0.7652  0.1374
   23MOL0     H 3105   1.712   1.882   2.085 -0.4638  2.7305  2.8830
   23MOL0     H 3106   1.919   1.795   2.180 -1.0702  0.2813 -1.0014
   23MOL0     H 3107   2.093   1.664   2.395  0.8188 -1.1060 -0.6641
   23MOL0     H 3108   2.073   1.647   2.219  0.9378  4.7087  2.4245
   23MOL0     H 3109   2.241   1.474   2.379 -0.9903  2.2795  1.8817
   23MOL0     H 3110   2.082   1.390   2.377 -3.3067  2.1676 -1.2215
   23MOL0     H 3111   2.159   1.307   2.208 -2.3743  1.0540  2.4456
   23MOL0     H 3112   2.072   1.424   2.126  2.6380 -0.5992 -4.7178
   23MOL0     H 3113   2.273   1.552   2.060 -0.1391  1.2736  2.9958
   23MOL0     H 3114   2.373   1.460   2.164  1.7163 -2.4805 -0.4659
   23MOL0     H 3115   2.233   1.302   1.941 -2.3525  1.5610  2.0503
   23MOL0     H 3116   2.376   1.271   2.049  0.1311  0.7669 -0.3937
   23MOL0     H 3117   2.350   1.496   1.848  1.4240  0.0804 -2.0627
   23MOL0     H 3118   2.496   1.463   1.961  1.3665 -1.4743 -1.0906
   23MOL0     H 3119   2.488   1.231   1.857 -0.2374 -0.1878  1.9236
   23MOL0     H 3120   2.600   1.353   1.799  1.1344 -1.6268  1.7320
   23MOL0     H 3121   2.317   1.314   1.683  0.5330  2.6578  2.2206
   23MOL0     H 3122   2.442   1.427   1.618 -1.9520  0.9917 -0.2873
   23MOL0     H 3123   2.306   1.103   1.532 -0.5433 -0.0343  0.7290
   23MOL0     H 3124   2.569   0.895   1.320  0.0389  2.0097 -0.5597
   23MOL0     H 3125   2.396   0.949   1.329 -2.9765  0.0551  4.9203
   23MOL0     H 3126   2.568   0.787   1.518 -0.2406 -2.1032 -0.3209
   23MOL0     H 3127   2.391   0.824   1.543 -0.1505  0.9949 -0.8545
   23MOL0     H 3128   2.511   0.630   1.344 -1.6905 -0.6813 -1.6031
   23MOL0     H 3129   2.395   0.593   1.460 -0.0523 -0.8424 -1.3487
   23MOL0     H 3130   2.352   0.756   1.201 -3.1850 -1.0474 -2.8314
   23MOL0     H 3131   2.294   0.600   1.233  2.7321  0.3079 -2.7229
   23MOL0     H 3132   2.117   0.945   1.514  1.6509  3.6573  0.7545
   23MOL0     H 3133   2.057   1.139   1.570  1.9913  1.3303 -0.0906
   23MOL0     H 3134   1.948   1.231   1.463  1.1623  3.8939 -0.9154
   23MOL0     H 3135   2.119   1.280   1.467 -0.7290  1.6262  0.2759
   23MOL0     H 3136   1.742   1.432   1.230  2.2694 -0.4956  0.9192
   23MOL0     H 3137   1.641   1.574   1.059 -0.5213  2.5382  2.0304
   23MOL0     H 3138   1.572   1.709   0.910 -1.1765 -3.8006 -0.6624
   23MOL0     H 3139   1.622   1.764   0.751  0.7785  2.2477  1.9679
   23MOL0     H 3140   1.708   1.557   0.681  2.8436  0.1116  2.2055
   23MOL0     H 3141   1.654   1.469   0.821 -1.2182 -0.3860 -1.1396
   23MOL0     H 3142   1.439   1.619   0.662 -0.0062 -1.4807 -3.5388
   23MOL0     H 3143   1.415   1.530   0.810 -3.4128 -1.8537 -1.7373
   23MOL0     H 3144   1.494   1.324   0.703  1.5521  0.0789  0.5684
   23MOL0     H 3145   1.519   1.416   0.548  0.0051 -0.1200  0.0023
   23MOL0     H 3146   1.285   1.499   0.580  3.5768  2.3870  1.5538
   23MOL0     H 3147   1.325   1.362   0.479 -0.2771 -3.1797  1.2084
   23MOL0     H 3148   1.213   1.360   0.760 -3.2677  2.1641 -0.6706
   23MOL0     H 3149   1.264   1.210   0.670 -0.9815  0.3583  1.3172
   23MOL0     H 3150   1.106   1.231   0.502  3.0781 -0.2009  0.2223
   23MOL0     H 3151   1.064   1.393   0.528  0.4003 -2.4683 -2.7396
   23MOL0     H 3152   0.977   1.340   0.754 -2.8683 -1.1388 -0.0375
   23MOL0     H 3153   1.022   1.168   0.748 -1.0198 -0.6089  0.3036
   23MOL0     H 3154   2.026   1.727   0.954  0.4287 -0.8119 -0.9208
   23MOL0     H 3155   2.127   1.584   1.103 -0.2424  1.0542 -0.2132
   23MOL0     H 3156   2.170   1.073   1.038  0.5005 -1.4584 -0.6848
   23MOL0     H 3157   2.201   0.867   1.089 -1.2738 -1.3276 -0.0271
   23MOL0     H 3158   1.703   1.500   2.410  3.8051 -0.1105  0.4924
   23MOL0     H 3159   1.482   1.584   2.293  0.1907  1.4905  1.4896
   23MOL0     H 3160   1.304   1.894   1.969 -0.1939 -3.2714  0.5769
   23MOL0     H 3161   1.128   2.036   1.867 -0.6083  2.0266 -0.4542
   23MOL0     H 3162   0.824   2.217   1.847 -1.4589 -2.5131 -4.4333
   23MOL0     H 3163   0.990   2.159   1.806  1.8824  0.9400  0.9542
   23MOL0     H 3164   0.723   2.030   1.821 -0.7107 -0.1778 -0.7766
   23MOL0     H 3165   0.842   1.935   1.905  2.1467 -0.3987 -0.7998
   23MOL0     H 3166   0.984   1.974   1.667 -0.9454  1.2441 -1.0643
   23MOL0     H 3167   0.852   1.869   1.658 -0.5886  0.0925  0.8582
   23MOL0     H 3168   0.875   2.166   1.565  2.2211 -0.4031  1.5328
   23MOL0     H 3169   0.720   2.093   1.598  0.5252 -0.8301  0.9925
   23MOL0     H 3170   0.821   1.969   1.217  2.2724 -1.4138  0.4335
   23MOL0     H 3171   0.959   2.070   2.257  0.3073  2.3637 -0.7683
   23MOL0     H 3172   1.152   1.819   2.412  1.9096  1.5099  1.3733
   23MOL0     H 3173   1.172   1.993   2.459  0.8905 -0.7480  1.1288
   23MOL0     H 3174   1.014   1.924   2.413  0.0475 -1.2985  0.8303
   24MOL0     O 3175   1.056   7.661   1.197  0.1796 -0.3201  1.0912
   24MOL0     C 3176   1.098   7.586   1.283  0.4647  0.9213 -0.0846
   24MOL0     O 3177   1.042   7.453   1.307  0.0147  0.3915  0.3481
   24MOL0     C 3178   0.940   7.411   1.230  0.1236 -0.6369 -0.9140
   24MOL0     C 3179   0.940   7.279   1.180 -0.8690 -0.4138  0.0412
   24MOL0     C 3180   0.838   7.241   1.089 -0.5355 -0.8572 -0.3430
   24MOL0     C 3181   0.737   7.328   1.049 -0.4504 -0.3051 -0.1143
   24MOL0     O 3182   0.671   7.280   0.945 -0.2151 -0.8366 -0.0245
   24MOL0     C 3183   0.543   7.338   0.936  0.4564  0.4281  0.4016
   24MOL0     C 3184   0.477   7.274   0.811 -0.2509 -0.4121  0.2981
   24MOL0     C 3185   0.360   7.351   0.755 -0.4226  0.3718 -0.0429
   24MOL0     C 3186   0.225   7.272   0.766 -0.2468 -0.0723  0.4292
   24MOL0     C 3187   0.099   7.343   0.716  0.0070 -1.0121  0.2110
   24MOL0     C 3188  -0.030   7.270   0.715  0.2885 -0.2957  0.2055
   24MOL0     C 3189  -0.032   7.143   0.611  0.2838  0.2313 -0.6556
   24MOL0     C 3190  -0.016   7.180   0.464  0.3476  0.4980 -0.1120
   24MOL0     N 3191  -0.040   7.065   0.369 -0.3079 -0.0264 -0.2521
   24MOL0     C 3192  -0.145   6.982   0.375 -0.4002  0.0529 -0.3703
   24MOL0     C 3193  -0.113   6.883   0.285  0.9551 -0.8235 -0.6342
   24MOL0     C 3194  -0.190   6.764   0.252 -0.2658 -0.2207  0.4402
   24MOL0     C 3195  -0.214   6.674   0.375  0.2898  0.6242  0.5540
   24MOL0     C 3196  -0.092   6.634   0.455  0.4791  0.1026 -0.5992
   24MOL0     C 3197   0.032   6.578   0.378  0.2925 -0.0512 -1.2644
   24MOL0     O 3198   0.121   6.511   0.473  0.4106 -0.4104 -0.0686
   24MOL0     C 3199   0.222   6.455   0.403  0.1437  0.3510 -0.8087
   24MOL0     C 3200   0.305   6.535   0.324  0.3738  0.0656  0.0779
   24MOL0     C 3201   0.406   6.476   0.238  0.0825 -0.6512 -0.3418
   24MOL0     C 3202   0.484   6.568   0.154 -0.6931 -0.6477 -0.5730
   24MOL0     C 3203   0.425   6.336   0.241  0.3127  0.5168  0.1076
   24MOL0     C 3204   0.532   6.270   0.168  0.6005 -0.4896  0.0152
   24MOL0     O 3205   0.652   6.339   0.155 -0.8378 -0.3748 -0.0047
   24MOL0     C 3206   0.770   6.267   0.132  0.3545 -0.1851 -0.2455
   24MOL0     C 3207   0.842   6.242   0.242  0.2808  0.4504 -0.6081
   24MOL0     C 3208   0.950   6.154   0.237 -0.5014 -0.2738  0.3285
   24MOL0     C 3209   1.000   6.105   0.117  0.5796  0.7179 -0.4699
   24MOL0     O 3210   1.110   6.021   0.118  0.0297 -0.2637  0.0086
   24MOL0     C 3211   1.158   5.942   0.008  0.4567  0.0066 -0.3649
   24MOL0     C 3212   1.083   5.813   0.016  0.4061 -0.2235 -0.1129
   24MOL0     C 3213   1.114   5.698  -0.086  0.5261  0.5976  1.5725
   24MOL0     C 3214   1.008   5.586  -0.091 -0.0330 -0.4109 -0.5446
   24MOL0     C 3215   1.069   5.476   0.001  0.4568 -0.0595  0.0603
   24MOL0     C 3216   1.008   5.341  -0.015 -0.8164  0.2739  0.2717
   24MOL0     C 3217   0.858   5.327   0.014  1.2314 -0.4773  0.2406
   24MOL0     C 3218   0.832   5.175   0.018 -0.5106 -0.1013 -0.2758
   24MOL0    Cl 3219   0.654   5.137   0.005 -0.0066  0.2855 -0.1368
   24MOL0     C 3220   0.931   6.142  -0.000 -0.2851  0.1449  0.1079
   24MOL0     C 3221   0.811   6.222   0.007  0.0510  0.4663 -1.0089
   24MOL0     O 3222   0.514   6.156   0.118  0.4589  0.0113  0.7513
   24MOL0     C 3223   0.327   6.260   0.314  0.5791  0.3600  0.0228
   24MOL0     C 3224   0.224   6.315   0.395  0.6693 -0.6380 -0.7839
   24MOL0     N 3225   0.008   6.914   0.223  0.1974  0.3279  0.0949
   24MOL0     N 3226   0.058   7.018   0.287 -0.8947  0.2786  0.1274
   24MOL0     C 3227   0.728   7.449   1.114 -0.6864  0.1031  0.7920
   24MOL0     C 3228   0.824   7.496   1.211  1.0547 -0.0567 -0.7406
   24MOL0     C 3229   1.208   7.638   1.364  0.0200 -0.3156 -0.1251
   24MOL0     C 3230   1.281   7.750   1.316 -0.7336 -0.0080  0.8750
   24MOL0     C 3231   1.384   7.808   1.392 -0.4267  0.3442 -0.3883
   24MOL0     C 3232   1.406   7.758   1.523  0.3829  0.0733  0.1540
   24MOL0     O 3233   1.510   7.801   1.598  0.4661  0.1122  0.0308
   24MOL0     C 3234   1.623   7.736   1.543 -0.4185  0.2972  0.2947
   24MOL0     C 3235   1.741   7.838   1.515  0.7126 -0.2989 -1.3095
   24MOL0     C 3236   1.757   7.928   1.641  0.2249  0.2916 -0.8908
   24MOL0     C 3237   1.816   7.859   1.761 -0.5262 -0.1075  0.3523
   24MOL0     C 3238   1.828   7.942   1.875 -0.5566  0.0314  0.1773
   24MOL0     C 3239   1.845   8.009   1.975 -1.0952  0.9729 -0.3042
   24MOL0     C 3240   1.326   7.655   1.581 -0.2085 -0.5397 -0.4224
   24MOL0     C 3241   1.233   7.591   1.497 -0.3557 -0.3521  0.2202
   24MOL0     C 3242   1.167   7.473   1.560  0.5641 -1.1357 -0.1712
   24MOL0     H 3243   1.019   7.209   1.206 -1.3916 -3.0122 -4.4175
   24MOL0     H 3244   0.835   7.138   1.054  0.4219 -1.3163  0.8605
   24MOL0     H 3245   0.551   7.443   0.906  1.0830  0.1014 -0.6417
   24MOL0     H 3246   0.473   7.345   1.019  0.1825 -2.3168  0.5028
   24MOL0     H 3247   0.559   7.281   0.739 -0.0611 -0.3296  0.5217
   24MOL0     H 3248   0.451   7.168   0.814 -2.0992 -0.1279 -2.3058
   24MOL0     H 3249   0.344   7.441   0.817 -2.0359 -0.2803  0.5399
   24MOL0     H 3250   0.381   7.369   0.650  0.5918 -3.2565 -0.5908
   24MOL0     H 3251   0.235   7.182   0.705 -2.1884  0.9064 -1.4521
   24MOL0     H 3252   0.211   7.230   0.867  3.6502 -2.5538  0.1607
   24MOL0     H 3253   0.124   7.386   0.618 -2.4455  0.9987  0.3545
   24MOL0     H 3254   0.080   7.430   0.780  0.6795  1.1956 -2.3932
   24MOL0     H 3255  -0.062   7.235   0.813 -2.4403 -0.9024 -0.8263
   24MOL0     H 3256  -0.114   7.337   0.698  0.7324 -0.1281 -1.6637
   24MOL0     H 3257  -0.127   7.092   0.629 -0.9722  2.0423 -1.8471
   24MOL0     H 3258   0.043   7.071   0.647 -1.1834  0.5225  3.5510
   24MOL0     H 3259  -0.094   7.256   0.448 -3.1307 -2.6135  0.6462
   24MOL0     H 3260   0.085   7.218   0.452  1.3523 -1.8355  0.4326
   24MOL0     H 3261  -0.239   6.989   0.429 -2.7946  1.4622 -4.2668
   24MOL0     H 3262  -0.148   6.704   0.171 -0.2134 -1.4232  1.3266
   24MOL0     H 3263  -0.290   6.798   0.222 -1.0706 -3.6476 -1.2657
   24MOL0     H 3264  -0.283   6.730   0.438 -0.3183  0.3985  0.0962
   24MOL0     H 3265  -0.265   6.590   0.325  1.0184  1.1714 -1.1860
   24MOL0     H 3266  -0.062   6.721   0.513 -1.7897  0.0152  0.8469
   24MOL0     H 3267  -0.117   6.551   0.522 -0.5199 -2.1689 -3.5492
   24MOL0     H 3268  -0.013   6.511   0.305  1.1294 -4.3568  1.8234
   24MOL0     H 3269   0.080   6.658   0.320  0.1170  1.5139  0.6114
   24MOL0     H 3270   0.278   6.640   0.331 -1.9444 -0.4154 -0.5630
   24MOL0     H 3271   0.573   6.603   0.207  0.0054  2.3628 -3.4230
   24MOL0     H 3272   0.435   6.661   0.127  1.8416  1.3938  1.3614
   24MOL0     H 3273   0.524   6.521   0.063  0.3171  2.5608 -1.9122
   24MOL0     H 3274   0.811   6.287   0.336  3.4239  2.7054 -0.5042
   24MOL0     H 3275   0.997   6.127   0.331  1.2630  0.1649 -0.3925
   24MOL0     H 3276   1.132   6.004  -0.079 -2.3644  0.6480  0.8109
   24MOL0     H 3277   1.266   5.931   0.020  0.7372  1.1308 -1.6084
   24MOL0     H 3278   1.089   5.775   0.119  1.7338  3.6092  1.4043
   24MOL0     H 3279   0.980   5.848   0.014  0.9513  1.5224 -2.6350
   24MOL0     H 3280   1.218   5.668  -0.069  0.3199 -0.4579  1.0056
   24MOL0     H 3281   1.104   5.750  -0.182  0.4786 -3.2110 -0.6809
   24MOL0     H 3282   1.003   5.535  -0.188  0.3362 -0.8774 -0.3238
   24MOL0     H 3283   0.906   5.616  -0.064  0.7132  1.2033  0.6667
   24MOL0     H 3284   1.176   5.460  -0.013  0.4106 -0.4484  0.1401
   24MOL0     H 3285   1.053   5.514   0.102 -1.5751  2.8219 -1.2181
   24MOL0     H 3286   1.060   5.267   0.046 -2.1221  2.5386  4.5668
   24MOL0     H 3287   1.024   5.305  -0.117 -1.9339  1.0048 -0.1805
   24MOL0     H 3288   0.810   5.368  -0.075  1.4653  0.9421  0.7420
   24MOL0     H 3289   0.819   5.384   0.098 -3.0390  0.3055 -1.9953
   24MOL0     H 3290   0.878   5.133   0.108  0.0306  1.2122  0.0788
   24MOL0     H 3291   0.884   5.132  -0.068 -1.6764 -0.2677 -0.9259
   24MOL0     H 3292   0.962   6.092  -0.092  1.7224  1.6991 -0.1313
   24MOL0     H 3293   0.756   6.251  -0.082 -0.1940  1.0312 -0.6780
   24MOL0     H 3294   0.336   6.153   0.324 -2.5446 -0.2177 -1.9904
   24MOL0     H 3295   0.157   6.252   0.453 -2.4710  1.4183 -1.9077
   24MOL0     H 3296   0.642   7.511   1.089  1.0257  2.2391 -0.1500
   24MOL0     H 3297   0.827   7.590   1.266  0.2684 -0.5917  0.2607
   24MOL0     H 3298   1.251   7.807   1.229 -3.1658 -1.9132  0.3544
   24MOL0     H 3299   1.443   7.896   1.368  0.4871  0.8327  3.1023
   24MOL0     H 3300   1.643   7.649   1.607  1.5125 -0.5173 -1.3190
   24MOL0     H 3301   1.602   7.686   1.448  0.0478  0.7352 -0.0393
   24MOL0     H 3302   1.723   7.905   1.431  3.0186 -1.4117 -2.7855
   24MOL0     H 3303   1.829   7.775   1.503  1.5852 -0.2349  3.0646
   24MOL0     H 3304   1.813   8.016   1.609 -0.1276  0.0379 -2.2769
   24MOL0     H 3305   1.661   7.965   1.678  1.0334 -0.0249  1.7359
   24MOL0     H 3306   1.916   7.819   1.746  1.6304  3.6998  2.7566
   24MOL0     H 3307   1.751   7.774   1.785  1.1026 -2.1529 -2.0157
   24MOL0     H 3308   1.859   8.064   2.066  1.9959  1.0777 -0.7172
   24MOL0     H 3309   1.332   7.638   1.688  1.3571 -2.6345 -0.7886
   24MOL0     H 3310   1.058   7.475   1.568  0.6944  0.8408  1.7146
   24MOL0     H 3311   1.197   7.383   1.505 -2.8250 -1.1447 -2.2937
   24MOL0     H 3312   1.200   7.466   1.664 -0.8937  1.0980  0.5023
   25MOL0     O 3313   4.258   7.530   9.830  0.3984 -0.7199 -0.2356
   25MOL0     C 3314   4.152   7.583   9.867 -0.0014  0.7045 -0.1139
   25MOL0     O 3315   4.067   7.635   9.777 -0.1100 -0.4390 -0.1136
   25MOL0     C 3316   4.114   7.666   9.653  0.2943  0.5744 -0.6283
   25MOL0     C 3317   4.124   7.573   9.549  0.1298  0.1841  0.2060
   25MOL0     C 3318   4.163   7.624   9.429 -0.4891 -1.1147 -0.4428
   25MOL0     C 3319   4.197   7.762   9.399 -0.8129 -0.5867 -1.2439
   25MOL0     O 3320   4.254   7.806   9.285 -0.5546  0.1380  0.6902
   25MOL0     C 3321   4.273   7.945   9.262 -0.0534 -0.6008 -0.5630
   25MOL0     C 3322   4.329   7.969   9.115  0.1684 -0.0779 -0.3741
   25MOL0     C 3323   4.219   7.968   9.005  0.5392 -0.5353  0.2067
   25MOL0     C 3324   4.251   8.055   8.881  0.4207 -0.1838  0.6650
   25MOL0     C 3325   4.131   8.038   8.777 -1.0957  1.0513 -0.3405
   25MOL0     C 3326   4.154   8.114   8.649 -0.9753 -0.6461  0.8000
   25MOL0     C 3327   4.065   8.074   8.530 -0.6635  0.5240 -0.2870
   25MOL0     C 3328   4.118   8.128   8.403  0.5400 -0.4012 -0.4007
   25MOL0     N 3329   4.234   8.068   8.343 -0.7259 -0.1074  0.4704
   25MOL0     C 3330   4.357   8.110   8.361 -0.4344 -0.2399  0.1229
   25MOL0     C 3331   4.436   8.018   8.286 -0.4745 -0.0072 -0.8254
   25MOL0     C 3332   4.589   8.032   8.265  0.4953  0.8262 -0.1135
   25MOL0     C 3333   4.633   7.987   8.128 -0.4102 -0.4219  1.1581
   25MOL0     C 3334   4.756   8.068   8.080 -0.0291 -0.4936  0.6488
   25MOL0     C 3335   4.830   8.016   7.957  0.6641  0.3769 -0.7499
   25MOL0     O 3336   4.732   7.990   7.855 -0.0066 -0.8421  0.4667
   25MOL0     C 3337   4.697   8.089   7.766  0.8492  0.4698  0.1060
   25MOL0     C 3338   4.764   8.205   7.739 -0.1566  0.3432  0.2875
   25MOL0     C 3339   4.714   8.286   7.629  0.6943 -0.3724  0.5793
   25MOL0     C 3340   4.789   8.408   7.589 -0.8959  0.1427 -0.7260
   25MOL0     C 3341   4.588   8.255   7.562  0.0031 -0.5080  0.2715
   25MOL0     C 3342   4.532   8.324   7.442  0.0777  0.2641  0.3038
   25MOL0     O 3343   4.560   8.457   7.424 -0.4051  0.1255  0.2842
   25MOL0     C 3344   4.522   8.517   7.302  0.1573 -0.7136 -0.0165
   25MOL0     C 3345   4.594   8.501   7.179 -0.0988  0.0572 -0.5716
   25MOL0     C 3346   4.566   8.590   7.072  0.2989  0.8075 -0.4126
   25MOL0     C 3347   4.460   8.685   7.088  0.4474  0.2546  0.4831
   25MOL0     O 3348   4.427   8.765   6.976  0.0098  0.0895  0.0207
   25MOL0     C 3349   4.345   8.872   7.008 -0.4953 -0.9807  0.0160
   25MOL0     C 3350   4.347   8.964   6.883  0.8339  0.2450 -0.0329
   25MOL0     C 3351   4.308   8.895   6.755  1.4732  0.7169  0.4598
   25MOL0     C 3352   4.317   8.985   6.626  0.0675 -0.0366 -0.8453
   25MOL0     C 3353   4.218   9.105   6.633 -0.3416  0.0123  1.0379
   25MOL0     C 3354   4.162   9.142   6.493  0.4855  0.2556  0.9232
   25MOL0     C 3355   4.017   9.197   6.509  0.2972  0.3850  0.1909
   25MOL0     C 3356   3.944   9.197   6.376  0.1860 -0.2203 -0.3041
   25MOL0    Cl 3357   3.781   9.244   6.405 -0.2541 -0.0177 -0.0934
   25MOL0     C 3358   4.398   8.697   7.203  0.6650  0.2054 -0.9033
   25MOL0     C 3359   4.422   8.614   7.308  0.3514  1.0987 -0.3434
   25MOL0     O 3360   4.470   8.249   7.363  0.6503 -0.5750  0.4870
   25MOL0     C 3361   4.541   8.132   7.594  0.4214 -0.9539  0.3480
   25MOL0     C 3362   4.589   8.050   7.696 -0.4261 -0.2191  0.5980
   25MOL0     N 3363   4.351   7.928   8.226 -0.3197 -0.5095 -0.4508
   25MOL0     N 3364   4.232   7.962   8.253  0.0517  0.1722  0.1765
   25MOL0     C 3365   4.180   7.856   9.511  0.5814  0.0506 -0.8262
   25MOL0     C 3366   4.139   7.803   9.633 -0.2687 -0.3066  0.6890
   25MOL0     C 3367   4.120   7.579  10.017  0.8293  0.3622  0.4358
   25MOL0     C 3368   4.009   7.651  10.065 -0.2924  0.0002 -0.2666
   25MOL0     C 3369   3.977   7.641  10.205  0.7439 -0.7491 -0.2345
   25MOL0     C 3370   4.060   7.573  10.302 -0.9066 -0.4239  0.4830
   25MOL0     O 3371   4.029   7.567  10.433 -0.0994 -0.1871 -0.8817
   25MOL0     C 3372   3.907   7.611  10.483 -0.2246 -0.3062 -0.0678
   25MOL0     C 3373   3.797   7.505  10.463  0.7958 -0.2507  0.7419
   25MOL0     C 3374   3.828   7.369  10.525 -0.8693  0.3374  0.0533
   25MOL0     C 3375   3.878   7.273  10.414  0.6908  0.2279  0.5302
   25MOL0     C 3376   3.851   7.134  10.443 -0.1456  1.0257  0.3549
   25MOL0     C 3377   3.870   7.024  10.480  0.0020 -0.8244 -0.0388
   25MOL0     C 3378   4.173   7.515  10.249  0.4771  0.1065  0.7342
   25MOL0     C 3379   4.200   7.513  10.114  0.0082  1.0077  0.0309
   25MOL0     C 3380   4.318   7.419  10.089  0.4716  1.1651 -0.5667
   25MOL0     H 3381   4.092   7.469   9.558  1.7276 -0.3109  0.5358
   25MOL0     H 3382   4.179   7.559   9.343  3.1680  2.5329 -2.9065
   25MOL0     H 3383   4.351   7.979   9.332 -1.0487 -1.2186  0.8898
   25MOL0     H 3384   4.183   8.003   9.281  0.4261 -0.0841  0.2087
   25MOL0     H 3385   4.396   8.055   9.113  1.0171 -0.7399 -1.3171
   25MOL0     H 3386   4.392   7.882   9.093  1.5049  0.7481  0.1129
   25MOL0     H 3387   4.208   7.865   8.969  0.0674 -0.0717 -1.0375
   25MOL0     H 3388   4.122   8.003   9.041  0.2306  0.0440 -1.0926
   25MOL0     H 3389   4.241   8.160   8.909 -4.2906 -0.0668 -0.5924
   25MOL0     H 3390   4.355   8.044   8.846  0.4838  0.4260  0.6505
   25MOL0     H 3391   4.038   8.066   8.827 -0.6547 -3.8641  4.0218
   25MOL0     H 3392   4.128   7.932   8.753  2.2173  0.6668  0.3837
   25MOL0     H 3393   4.150   8.224   8.654 -2.1505 -0.5355 -1.3924
   25MOL0     H 3394   4.257   8.099   8.616 -0.9645  1.5020 -0.3183
   25MOL0     H 3395   3.968   8.121   8.550  0.0117  0.9550  2.2291
   25MOL0     H 3396   4.052   7.966   8.523 -6.6028  0.9401 -1.5174
   25MOL0     H 3397   4.034   8.114   8.334 -0.6986  1.8376  0.5541
   25MOL0     H 3398   4.140   8.232   8.428  1.5118 -0.9346  1.0955
   25MOL0     H 3399   4.394   8.200   8.409  1.9373 -0.7302 -0.6677
   25MOL0     H 3400   4.642   7.967   8.335 -1.0340 -1.5913 -1.0787
   25MOL0     H 3401   4.611   8.134   8.295  1.7609 -0.3746  3.5857
   25MOL0     H 3402   4.659   7.881   8.134 -0.5938 -0.4656  1.1883
   25MOL0     H 3403   4.550   7.994   8.057  1.9901 -0.9895 -1.9189
   25MOL0     H 3404   4.716   8.162   8.043 -1.6674 -0.6991  1.7846
   25MOL0     H 3405   4.827   8.082   8.163  1.8542  1.9011 -1.2202
   25MOL0     H 3406   4.910   8.075   7.911 -0.6964  1.8175 -1.3623
   25MOL0     H 3407   4.873   7.922   7.993 -2.7344 -0.9035  0.3575
   25MOL0     H 3408   4.862   8.233   7.778  0.2099  0.4522 -0.6982
   25MOL0     H 3409   4.800   8.415   7.480  2.8072 -1.3026 -0.5749
   25MOL0     H 3410   4.886   8.402   7.639 -2.0247 -3.6793  1.4495
   25MOL0     H 3411   4.733   8.492   7.631  0.3807  0.5912  0.1209
   25MOL0     H 3412   4.668   8.423   7.171  3.9534  3.1634  2.1961
   25MOL0     H 3413   4.616   8.589   6.976  2.1058  2.2380  0.4665
   25MOL0     H 3414   4.240   8.857   7.034 -1.2995  2.6065 -0.5392
   25MOL0     H 3415   4.399   8.927   7.086  2.3859 -1.2210 -1.6578
   25MOL0     H 3416   4.284   9.051   6.905  0.0429  0.0890 -1.5885
   25MOL0     H 3417   4.451   8.994   6.863  0.9555 -0.1737 -0.0203
   25MOL0     H 3418   4.212   8.845   6.771  2.7676 -2.4382 -0.7873
   25MOL0     H 3419   4.374   8.808   6.749 -1.4359 -1.6072 -0.3194
   25MOL0     H 3420   4.277   8.913   6.554  1.6863 -1.1807 -0.6454
   25MOL0     H 3421   4.419   9.016   6.601  0.2847 -1.3768 -1.7395
   25MOL0     H 3422   4.144   9.086   6.711 -1.4354 -1.5420 -0.2928
   25MOL0     H 3423   4.267   9.199   6.659 -1.3302  1.2934 -1.4269
   25MOL0     H 3424   4.177   9.050   6.436  0.8986 -1.1493  3.1823
   25MOL0     H 3425   4.222   9.224   6.452  0.1792 -0.2614 -0.5998
   25MOL0     H 3426   4.009   9.297   6.553  2.3040  0.4053  0.5987
   25MOL0     H 3427   3.961   9.130   6.575 -0.6229 -2.1845 -2.9442
   25MOL0     H 3428   3.949   9.103   6.320 -0.2876  0.5805 -1.7664
   25MOL0     H 3429   3.993   9.270   6.310 -0.8846 -2.4798 -3.8881
   25MOL0     H 3430   4.307   8.754   7.218  0.4515 -0.6896  1.8368
   25MOL0     H 3431   4.354   8.629   7.392  0.7366  0.6738  0.0489
   25MOL0     H 3432   4.442   8.109   7.556 -0.1999  0.5745  0.9419
   25MOL0     H 3433   4.549   7.960   7.742 -3.2898  1.5055  1.7717
   25MOL0     H 3434   4.203   7.962   9.505  3.5202 -0.2392  2.1676
   25MOL0     H 3435   4.109   7.868   9.714 -0.1227 -1.2301  1.5078
   25MOL0     H 3436   3.949   7.709   9.996  0.0396 -2.2768 -2.6297
   25MOL0     H 3437   3.881   7.685  10.233  0.1692 -3.0118  1.7188
   25MOL0     H 3438   3.918   7.624  10.591  1.9731 -0.3737 -0.2317
   25MOL0     H 3439   3.880   7.711  10.446 -0.5988  0.5416  2.3566
   25MOL0     H 3440   3.778   7.502  10.355 -1.2378  4.5320  0.6938
   25MOL0     H 3441   3.703   7.541  10.505 -1.2455 -3.0008 -1.1574
   25MOL0     H 3442   3.898   7.385  10.608  0.1734 -0.1160 -0.7064
   25MOL0     H 3443   3.741   7.324  10.573 -1.2999  1.6100  0.4917
   25MOL0     H 3444   3.985   7.296  10.415  0.3903  1.7516  2.0239
   25MOL0     H 3445   3.836   7.291  10.315  0.1320 -0.6989  0.5788
   25MOL0     H 3446   3.898   6.925  10.510  1.9247  0.2796  2.1391
   25MOL0     H 3447   4.221   7.463  10.331  0.5387  1.0767  1.3328
   25MOL0     H 3448   4.369   7.363  10.169 -2.3552 -0.1869  0.4506
   25MOL0     H 3449   4.284   7.339  10.023  0.9480 -2.0816  2.7403
   25MOL0     H 3450   4.398   7.478  10.043 -0.1977  1.5076 -1.2962
   26MOL0     O 3451  11.322   8.331   1.456 -0.3438  0.1287 -0.8417
   26MOL0     C 3452  11.391   8.230   1.451 -0.2095  0.6436  0.6424
   26MOL0     O 3453  11.483   8.191   1.541  0.6487  0.3719 -0.0524
   26MOL0     C 3454  11.520   8.269   1.650 -0.4749 -0.3827  0.0095
   26MOL0     C 3455  11.489   8.403   1.674  0.1627  0.0467 -0.3697
   26MOL0     C 3456  11.535   8.456   1.794  0.0676 -0.4705  0.3575
   26MOL0     C 3457  11.612   8.393   1.888 -0.3347  1.5127 -0.2596
   26MOL0     O 3458  11.647   8.466   2.003  0.8220  0.6127  0.0524
   26MOL0     C 3459  11.777   8.428   2.060 -0.0194 -0.2326  0.5003
   26MOL0     C 3460  11.748   8.420   2.210 -0.9644 -0.6348 -0.7354
   26MOL0     C 3461  11.695   8.285   2.243 -0.2256  0.2085  0.2933
   26MOL0     C 3462  11.679   8.267   2.399 -0.2418  0.4213 -0.0721
   26MOL0     C 3463  11.632   8.132   2.449 -0.7592  0.5582  0.0604
   26MOL0     C 3464  11.480   8.108   2.417 -0.0312  0.1252 -0.4598
   26MOL0     C 3465  11.428   7.967   2.425  0.5233  0.4283 -0.0879
   26MOL0     C 3466  11.278   7.961   2.373  0.5105  0.3824  0.3467
   26MOL0     N 3467  11.245   7.816   2.370  0.2597  0.7334 -1.0438
   26MOL0     C 3468  11.183   7.758   2.482 -0.7414  0.1991 -0.4575
   26MOL0     C 3469  11.125   7.643   2.440  0.2790 -0.1778  0.3295
   26MOL0     C 3470  11.030   7.552   2.506 -0.3164 -0.2464 -0.2556
   26MOL0     C 3471  11.107   7.480   2.610  0.0760 -0.6077  0.3570
   26MOL0     C 3472  11.169   7.347   2.560  0.0026 -0.0509  0.3970
   26MOL0     C 3473  11.173   7.247   2.674  0.6569 -1.3851  0.6110
   26MOL0     O 3474  11.037   7.208   2.710  0.5606  0.2964  0.1999
   26MOL0     C 3475  11.008   7.122   2.814  0.0646 -0.0831 -0.2432
   26MOL0     C 3476  10.885   7.104   2.859  1.2242  0.9623  0.2641
   26MOL0     C 3477  10.857   7.013   2.965  1.3812 -1.1468 -0.3388
   26MOL0     C 3478  10.712   7.007   3.013  0.1823 -0.5323 -0.6584
   26MOL0     C 3479  10.950   6.920   3.021  0.3751 -0.4065 -0.1893
   26MOL0     C 3480  10.916   6.837   3.133  0.0663 -1.1602 -0.5864
   26MOL0     O 3481  10.913   6.701   3.128 -0.1988  0.0944  0.2215
   26MOL0     C 3482  10.904   6.627   3.010 -0.0511 -0.3955 -0.9372
   26MOL0     C 3483  10.941   6.498   3.017  0.4642  1.8197 -0.2052
   26MOL0     C 3484  10.924   6.409   2.914 -0.5912  0.2792 -0.1380
   26MOL0     C 3485  10.857   6.447   2.796 -0.8216  0.4604  0.7379
   26MOL0     O 3486  10.845   6.353   2.696 -0.4658 -0.4789  0.4517
   26MOL0     C 3487  10.765   6.387   2.579  0.4884 -0.5972  0.0712
   26MOL0     C 3488  10.764   6.271   2.485  0.6323 -1.2068 -0.2447
   26MOL0     C 3489  10.868   6.290   2.368 -0.4377  0.6926 -0.8163
   26MOL0     C 3490  10.864   6.160   2.281 -0.0283 -0.0471 -0.1615
   26MOL0     C 3491  10.975   6.140   2.184  0.2566  0.7217 -0.0883
   26MOL0     C 3492  10.975   6.235   2.062 -0.1204  0.0683  0.9299
   26MOL0     C 3493  11.025   6.379   2.081 -0.8015  0.1280 -0.8351
   26MOL0     C 3494  11.157   6.393   2.145  0.1805 -0.2102 -0.1733
   26MOL0    Cl 3495  11.195   6.564   2.164 -0.2878 -0.0458  0.0113
   26MOL0     C 3496  10.815   6.576   2.787 -0.7984  0.3606  0.1050
   26MOL0     C 3497  10.850   6.665   2.886 -0.1586 -0.8287  0.2628
   26MOL0     O 3498  10.913   6.899   3.246  0.0367 -1.2894  0.7261
   26MOL0     C 3499  11.071   6.925   2.960  0.0612 -0.2569 -0.6702
   26MOL0     C 3500  11.104   7.029   2.863 -0.0686 -0.7846 -0.2539
   26MOL0     N 3501  11.167   7.628   2.311  1.0730  0.2015 -0.3767
   26MOL0     N 3502  11.241   7.723   2.273 -0.2073  0.6564 -0.1794
   26MOL0     C 3503  11.634   8.254   1.861  0.2445 -0.8882 -0.7518
   26MOL0     C 3504  11.597   8.195   1.740 -0.1350  0.1028 -0.1924
   26MOL0     C 3505  11.347   8.139   1.346  0.0077  0.0488 -0.2638
   26MOL0     C 3506  11.233   8.167   1.271  0.4248  0.0722 -0.7908
   26MOL0     C 3507  11.180   8.087   1.170 -0.5810  0.2016 -0.4237
   26MOL0     C 3508  11.255   7.973   1.134 -0.4234  0.2257  0.2458
   26MOL0     O 3509  11.216   7.899   1.029 -0.3402 -0.2806  0.1114
   26MOL0     C 3510  11.131   7.792   1.057  0.6643  0.0265  0.1069
   26MOL0     C 3511  11.086   7.723   0.920  0.1756 -0.6914  0.2011
   26MOL0     C 3512  11.184   7.661   0.827  0.6361 -0.1766 -0.6370
   26MOL0     C 3513  11.309   7.747   0.807  0.6793  0.4383  0.6483
   26MOL0     C 3514  11.387   7.696   0.704 -1.1856  0.6145 -0.1378
   26MOL0     C 3515  11.452   7.634   0.610 -0.3072  1.0294 -1.1642
   26MOL0     C 3516  11.375   7.953   1.197 -0.2433  0.0165 -0.7033
   26MOL0     C 3517  11.427   8.029   1.304 -0.4511 -0.0817 -0.4644
   26MOL0     C 3518  11.555   7.987   1.377 -0.5984  0.5221 -0.6574
   26MOL0     H 3519  11.447   8.470   1.600  2.0253 -0.2043 -1.7440
   26MOL0     H 3520  11.492   8.549   1.830  0.8598 -0.3416  1.0001
   26MOL0     H 3521  11.846   8.510   2.038  0.7867 -1.5836 -2.5223
   26MOL0     H 3522  11.824   8.337   2.022  0.5611  0.2304  0.1070
   26MOL0     H 3523  11.841   8.419   2.269  0.0888 -2.6728 -2.2950
   26MOL0     H 3524  11.682   8.503   2.236 -0.0825  0.6761 -2.5171
   26MOL0     H 3525  11.600   8.262   2.194  0.1717 -1.0291  0.0679
   26MOL0     H 3526  11.771   8.216   2.205  0.3341 -0.7094  2.8873
   26MOL0     H 3527  11.772   8.291   2.452 -0.0732  0.9867 -0.6015
   26MOL0     H 3528  11.606   8.344   2.426  1.9534  1.9396  2.0378
   26MOL0     H 3529  11.650   8.138   2.557  0.1282  1.0158 -0.1043
   26MOL0     H 3530  11.690   8.050   2.405  0.4895  1.1102  0.6327
   26MOL0     H 3531  11.420   8.174   2.481 -2.2701  0.5836 -2.8443
   26MOL0     H 3532  11.457   8.133   2.313  1.5421  0.3704 -0.7725
   26MOL0     H 3533  11.423   7.946   2.533 -0.7303  0.5748 -0.1059
   26MOL0     H 3534  11.501   7.898   2.380 -0.5452 -0.9071  0.1485
   26MOL0     H 3535  11.202   8.011   2.434 -0.7565  1.1015 -1.7155
   26MOL0     H 3536  11.264   8.000   2.272 -0.4167  1.4599  0.8732
   26MOL0     H 3537  11.161   7.796   2.582 -3.1558 -1.9480 -0.0553
   26MOL0     H 3538  10.983   7.486   2.433 -0.6430  1.3569 -1.5660
   26MOL0     H 3539  10.951   7.614   2.550  2.6000  2.2299  1.9350
   26MOL0     H 3540  11.189   7.546   2.639  1.1046 -1.2652 -0.9654
   26MOL0     H 3541  11.038   7.468   2.695 -4.1688  0.5528 -2.5744
   26MOL0     H 3542  11.101   7.304   2.485  1.2384  1.9083 -1.9818
   26MOL0     H 3543  11.271   7.362   2.524  0.0861  0.2019  0.7380
   26MOL0     H 3544  11.241   7.166   2.645  1.4609 -0.5034  0.0054
   26MOL0     H 3545  11.219   7.293   2.762 -0.2073 -1.5521  1.1584
   26MOL0     H 3546  10.800   7.158   2.819 -0.5036 -1.2068  0.8114
   26MOL0     H 3547  10.643   7.052   2.941 -0.0293  1.4653  0.7365
   26MOL0     H 3548  10.698   7.071   3.100  0.5745 -0.0705 -0.9353
   26MOL0     H 3549  10.675   6.906   3.037 -2.2968  0.7386  1.2953
   26MOL0     H 3550  10.988   6.463   3.109 -1.7700  0.1256  0.3683
   26MOL0     H 3551  10.965   6.309   2.923 -0.1673  0.1602 -2.7272
   26MOL0     H 3552  10.664   6.409   2.614 -0.5479 -0.2488 -2.8335
   26MOL0     H 3553  10.807   6.473   2.525 -0.8622  0.1736  0.1849
   26MOL0     H 3554  10.784   6.186   2.551 -2.0022 -2.1524 -0.5561
   26MOL0     H 3555  10.666   6.269   2.437  1.7626  2.8757 -3.3411
   26MOL0     H 3556  10.967   6.303   2.413 -0.4056  0.7190 -0.8934
   26MOL0     H 3557  10.847   6.382   2.313 -3.7424  0.6800  0.2008
   26MOL0     H 3558  10.766   6.151   2.232  0.7386 -4.5573 -1.2888
   26MOL0     H 3559  10.866   6.073   2.347 -1.1529  1.9904  2.8097
   26MOL0     H 3560  11.074   6.132   2.230  0.6514 -0.5232 -1.0986
   26MOL0     H 3561  10.948   6.044   2.139 -0.5531  0.8537  0.1097
   26MOL0     H 3562  10.868   6.243   2.043 -0.4528 -3.6167  0.5655
   26MOL0     H 3563  11.024   6.198   1.971 -2.2458  2.0940 -1.1974
   26MOL0     H 3564  10.945   6.439   2.125 -0.5031 -1.1388  1.5689
   26MOL0     H 3565  11.047   6.414   1.979  0.0967 -1.2241 -1.1397
   26MOL0     H 3566  11.232   6.352   2.077 -1.5372  0.8658 -2.8964
   26MOL0     H 3567  11.173   6.344   2.241  2.3293 -0.6858 -0.7269
   26MOL0     H 3568  10.763   6.608   2.697 -2.6204  0.5547  1.1873
   26MOL0     H 3569  10.813   6.766   2.875 -0.5039 -1.1420 -1.9334
   26MOL0     H 3570  11.158   6.866   2.988  2.0939  2.0357 -1.7838
   26MOL0     H 3571  11.207   7.036   2.828 -1.3734 -0.2717 -4.6496
   26MOL0     H 3572  11.685   8.194   1.935 -1.2014 -0.6264  0.5018
   26MOL0     H 3573  11.622   8.089   1.735  2.2246  0.6076 -0.1549
   26MOL0     H 3574  11.191   8.266   1.287 -0.8566 -0.5749  0.0633
   26MOL0     H 3575  11.089   8.126   1.126 -1.6534  2.8784  3.6065
   26MOL0     H 3576  11.191   7.717   1.110  1.1782  0.2132 -0.2020
   26MOL0     H 3577  11.046   7.821   1.120  0.4087 -0.7341  0.1182
   26MOL0     H 3578  11.029   7.799   0.866  0.9805 -0.0002  0.2912
   26MOL0     H 3579  11.015   7.646   0.950  0.4601 -0.7645  0.6929
   26MOL0     H 3580  11.216   7.567   0.873  1.7054  0.9123  0.9390
   26MOL0     H 3581  11.122   7.648   0.738 -0.3272  1.4734 -0.2493
   26MOL0     H 3582  11.363   7.744   0.902 -0.7480  3.7737  1.7144
   26MOL0     H 3583  11.286   7.852   0.786 -0.6815 -0.3986 -2.5310
   26MOL0     H 3584  11.521   7.605   0.532 -1.4875  0.4623 -2.0278
   26MOL0     H 3585  11.435   7.867   1.169  0.3210 -0.8657  2.7603
   26MOL0     H 3586  11.612   8.079   1.393  0.9282 -0.5226  0.1834
   26MOL0     H 3587  11.529   7.945   1.475  0.2507  0.1310 -0.5909
   26MOL0     H 3588  11.620   7.922   1.318  3.6450  1.4150  2.5371
   27MOL0     O 3589   8.497   0.127  10.378 -0.3885 -0.1268 -0.3242
   27MOL0     C 3590   8.528   0.006  10.384 -0.4311 -0.1435 -0.0996
   27MOL0     O 3591   8.454  -0.099  10.426 -0.4825  0.1589 -0.7284
   27MOL0     C 3592   8.337  -0.072  10.490 -0.0564  0.1777 -0.4163
   27MOL0     C 3593   8.318  -0.138  10.607 -0.1220  0.3831 -0.0278
   27MOL0     C 3594   8.189  -0.131  10.671 -0.3908  0.5701  0.6132
   27MOL0     C 3595   8.085  -0.041  10.620 -1.2271  0.1237 -0.1753
   27MOL0     O 3596   7.971  -0.034  10.689 -1.1357 -0.1136  0.2800
   27MOL0     C 3597   7.900   0.090  10.671 -0.5835 -0.2718  0.5485
   27MOL0     C 3598   7.761   0.054  10.707  0.0627  0.8370  0.0635
   27MOL0     C 3599   7.674   0.181  10.665  0.8639 -0.9261  0.1381
   27MOL0     C 3600   7.647   0.205  10.519 -0.1044  0.1253 -0.1919
   27MOL0     C 3601   7.601   0.353  10.494  0.2798 -0.7602 -0.6367
   27MOL0     C 3602   7.556   0.378  10.352 -0.4136 -0.3203  0.6533
   27MOL0     C 3603   7.685   0.383  10.254  0.1641  0.1341 -0.1226
   27MOL0     C 3604   7.646   0.445  10.120  0.6088  0.2612  0.7020
   27MOL0     N 3605   7.694   0.584  10.121 -0.1073  0.0566 -0.8527
   27MOL0     C 3606   7.596   0.678  10.139  0.4637 -0.3914  0.6239
   27MOL0     C 3607   7.651   0.799  10.111 -0.2453  0.5174  0.1680
   27MOL0     C 3608   7.574   0.934  10.109 -0.0301 -0.6272  0.8448
   27MOL0     C 3609   7.513   0.972   9.968  0.4071 -0.6936 -0.0294
   27MOL0     C 3610   7.622   0.987   9.863  0.2605 -0.1116  0.2950
   27MOL0     C 3611   7.578   1.053   9.734  0.0513 -0.5799  0.6612
   27MOL0     O 3612   7.461   0.994   9.675 -0.0184 -0.1548  0.0486
   27MOL0     C 3613   7.414   1.065   9.563  0.5800  0.3221  0.9950
   27MOL0     C 3614   7.294   1.013   9.508  0.2428 -0.1595 -0.3381
   27MOL0     C 3615   7.232   1.071   9.398  0.7431  0.9264  0.9412
   27MOL0     C 3616   7.111   1.005   9.337 -1.2233 -0.9034 -0.8009
   27MOL0     C 3617   7.269   1.205   9.351 -0.6096  0.2823  0.6099
   27MOL0     C 3618   7.204   1.280   9.240  0.2007  0.0503  0.0129
   27MOL0     O 3619   7.251   1.413   9.237  0.3378  0.3396  1.4872
   27MOL0     C 3620   7.195   1.495   9.132 -0.8794  0.3375 -0.1931
   27MOL0     C 3621   7.283   1.555   9.043 -0.7616 -0.5669  0.3556
   27MOL0     C 3622   7.244   1.650   8.953  0.0593 -0.0989 -0.5250
   27MOL0     C 3623   7.113   1.671   8.934  0.8390 -0.1708  0.7141
   27MOL0     O 3624   7.066   1.761   8.846 -0.1984  0.6294  0.9868
   27MOL0     C 3625   7.157   1.833   8.756  0.3460 -1.0055  0.1156
   27MOL0     C 3626   7.067   1.931   8.679  1.0133  0.3860  0.5007
   27MOL0     C 3627   7.132   1.989   8.550 -1.0062  0.3919  0.7321
   27MOL0     C 3628   7.029   2.078   8.476 -0.2598  0.0061 -0.2185
   27MOL0     C 3629   7.044   2.085   8.311 -0.5489  0.5436  0.0619
   27MOL0     C 3630   7.173   2.162   8.267 -0.1780 -0.6285  0.1363
   27MOL0     C 3631   7.197   2.155   8.119  0.1475  0.5153  0.4581
   27MOL0     C 3632   7.305   2.242   8.077  0.0252  0.0531  0.3443
   27MOL0    Cl 3633   7.251   2.414   8.096 -0.1366 -0.2559  0.6544
   27MOL0     C 3634   7.019   1.610   9.012  0.1766 -0.1267  0.0450
   27MOL0     C 3635   7.061   1.521   9.115 -0.3994 -0.3974 -0.3708
   27MOL0     O 3636   7.121   1.238   9.171 -0.5843  0.3213 -0.0595
   27MOL0     C 3637   7.386   1.259   9.412 -0.2337  0.6031 -0.4300
   27MOL0     C 3638   7.459   1.186   9.510  0.0294 -0.2202  0.1655
   27MOL0     N 3639   7.782   0.774  10.065  0.3700  0.8445 -0.1125
   27MOL0     N 3640   7.797   0.641  10.065  0.1639 -0.1024 -0.0243
   27MOL0     C 3641   8.115   0.029  10.495  0.3643  0.0920 -0.0901
   27MOL0     C 3642   8.233   0.006  10.432 -0.6486  0.2509  0.4988
   27MOL0     C 3643   8.655  -0.039  10.317  0.4115  0.5063  1.0223
   27MOL0     C 3644   8.658  -0.167  10.248  0.0489 -0.2659  0.2913
   27MOL0     C 3645   8.771  -0.200  10.168 -0.2236 -0.6067  0.6466
   27MOL0     C 3646   8.881  -0.121  10.168  0.0696 -0.1641 -0.2874
   27MOL0     O 3647   9.003  -0.150  10.111 -0.1084  0.3032  0.7661
   27MOL0     C 3648   8.992  -0.173   9.972  0.1225 -0.7155 -0.4599
   27MOL0     C 3649   8.982  -0.046   9.889 -0.5693  0.3657 -0.0204
   27MOL0     C 3650   8.956  -0.080   9.747  0.0057  1.5161 -0.2047
   27MOL0     C 3651   8.878   0.038   9.687  0.5710 -0.6569 -0.1492
   27MOL0     C 3652   8.947   0.092   9.568  0.0401  0.0090 -0.4187
   27MOL0     C 3653   8.989   0.136   9.468  0.0592 -1.0864 -0.2675
   27MOL0     C 3654   8.875  -0.007  10.236 -0.8841 -0.4159 -0.6258
   27MOL0     C 3655   8.772   0.041  10.315 -0.3112 -0.0073 -0.7150
   27MOL0     C 3656   8.804   0.157  10.401 -0.0054 -0.3709 -0.6803
   27MOL0     H 3657   8.403  -0.198  10.637  0.2321  1.3720  1.0363
   27MOL0     H 3658   8.192  -0.192  10.761  1.7160 -3.0931 -1.6734
   27MOL0     H 3659   7.917   0.123  10.568  1.9050 -1.1608  0.6140
   27MOL0     H 3660   7.938   0.171  10.733  1.1993  0.2546 -1.1389
   27MOL0     H 3661   7.741  -0.033  10.643 -1.8848 -0.5912  2.4432
   27MOL0     H 3662   7.756   0.037  10.815  0.9190  0.6092  0.0782
   27MOL0     H 3663   7.572   0.175  10.703  0.7872 -0.7612 -0.0433
   27MOL0     H 3664   7.713   0.271  10.713 -0.1317 -1.8775  2.9037
   27MOL0     H 3665   7.736   0.174  10.464 -1.7237  0.5682 -3.3308
   27MOL0     H 3666   7.572   0.126  10.503  1.6393 -1.5630 -0.3682
   27MOL0     H 3667   7.678   0.421  10.531  1.1272 -1.6502 -0.7384
   27MOL0     H 3668   7.515   0.365  10.561  0.5271 -3.1167  0.2003
   27MOL0     H 3669   7.496   0.293  10.318  1.1474 -1.8108  1.5061
   27MOL0     H 3670   7.497   0.470  10.345  1.0085  0.5004 -1.5672
   27MOL0     H 3671   7.722   0.280  10.243 -2.4531 -1.3026  2.9317
   27MOL0     H 3672   7.765   0.446  10.294  1.6394 -1.1394 -0.9549
   27MOL0     H 3673   7.690   0.374  10.049  0.1086 -0.3379  0.9784
   27MOL0     H 3674   7.538   0.441  10.105  1.0881 -1.3073 -4.0826
   27MOL0     H 3675   7.499   0.656  10.182 -0.8703 -1.9320 -2.7538
   27MOL0     H 3676   7.627   1.018  10.156  1.9159 -0.8945 -0.7825
   27MOL0     H 3677   7.489   0.915  10.175  0.1855 -0.4927  1.1665
   27MOL0     H 3678   7.447   0.897   9.925 -2.2864 -0.3553  3.0961
   27MOL0     H 3679   7.451   1.061   9.978 -0.7098 -1.2105 -1.9356
   27MOL0     H 3680   7.706   1.042   9.905 -0.0643  1.2284 -0.7161
   27MOL0     H 3681   7.649   0.885   9.835 -0.9156 -0.0767 -1.0671
   27MOL0     H 3682   7.566   1.160   9.753 -0.0937 -1.0105  3.4537
   27MOL0     H 3683   7.668   1.042   9.673 -2.2823  1.1558 -3.5494
   27MOL0     H 3684   7.237   0.928   9.544 -1.2645  1.4001  1.2017
   27MOL0     H 3685   7.029   1.076   9.336 -1.4238 -1.1288 -1.9745
   27MOL0     H 3686   7.092   0.906   9.380 -0.2392 -1.3137 -1.2636
   27MOL0     H 3687   7.125   0.997   9.229  2.1165  0.6860 -0.6387
   27MOL0     H 3688   7.388   1.530   9.055 -0.7900 -0.7981  0.1424
   27MOL0     H 3689   7.314   1.722   8.914  2.4905 -1.1343  1.6656
   27MOL0     H 3690   7.239   1.893   8.797  0.6112 -1.8621  0.8704
   27MOL0     H 3691   7.201   1.769   8.679 -0.9244  1.4865 -2.8799
   27MOL0     H 3692   6.969   1.892   8.649  0.5615  2.4922 -1.0632
   27MOL0     H 3693   7.046   2.018   8.742 -0.5530  0.3553  0.0600
   27MOL0     H 3694   7.164   1.907   8.485 -1.7373  0.2326  0.5648
   27MOL0     H 3695   7.226   2.040   8.573 -0.7738 -0.8653  2.7587
   27MOL0     H 3696   7.044   2.180   8.512 -0.1250  0.3404 -1.1844
   27MOL0     H 3697   6.926   2.044   8.488  0.6193 -4.6190 -2.9885
   27MOL0     H 3698   7.052   1.979   8.286 -1.7201  0.7585 -1.3833
   27MOL0     H 3699   6.959   2.132   8.260  1.1604  0.2756 -3.3102
   27MOL0     H 3700   7.259   2.120   8.320 -0.1577  1.9423  2.3532
   27MOL0     H 3701   7.171   2.267   8.297  2.9250 -0.9524  1.8658
   27MOL0     H 3702   7.100   2.184   8.078 -0.8255 -1.0137  1.5939
   27MOL0     H 3703   7.213   2.049   8.102 -0.2591  0.4428  0.5159
   27MOL0     H 3704   7.321   2.221   7.971 -4.0757  3.2875 -1.2007
   27MOL0     H 3705   7.400   2.238   8.130 -0.4831  0.9950  1.3738
   27MOL0     H 3706   6.915   1.624   8.986 -0.4255 -0.9707  1.8538
   27MOL0     H 3707   6.980   1.472   9.168  2.1466 -0.2773  4.1522
   27MOL0     H 3708   7.432   1.352   9.381  1.7908  0.6977  2.4270
   27MOL0     H 3709   7.550   1.236   9.542 -0.6599  0.2043  1.5268
   27MOL0     H 3710   8.049   0.094  10.437 -3.5696 -0.4023  3.3747
   27MOL0     H 3711   8.240   0.039  10.328  2.1517 -2.1601 -0.1792
   27MOL0     H 3712   8.580  -0.243  10.250  0.0893 -0.3446  2.8914
   27MOL0     H 3713   8.785  -0.283  10.099 -0.6926 -0.0195 -0.1630
   27MOL0     H 3714   9.080  -0.231   9.941 -0.4376 -0.7287 -2.1264
   27MOL0     H 3715   8.912  -0.242   9.943  1.2309 -1.5510 -1.7257
   27MOL0     H 3716   9.077   0.006   9.905  0.4054 -1.3414  0.0253
   27MOL0     H 3717   8.896   0.012   9.923 -0.9015  1.2065 -2.1430
   27MOL0     H 3718   9.045  -0.116   9.695 -1.3586 -1.0847 -0.9541
   27MOL0     H 3719   8.893  -0.169   9.747  2.2372 -0.1602  0.9443
   27MOL0     H 3720   8.860   0.126   9.750  0.3667 -2.5228  2.5734
   27MOL0     H 3721   8.778   0.004   9.659 -1.6827  3.4601  1.9725
   27MOL0     H 3722   9.041   0.173   9.382  2.2636 -0.5960  1.2040
   27MOL0     H 3723   8.973   0.040  10.231  0.2202 -2.7014 -2.7638
   27MOL0     H 3724   8.907   0.142  10.438  0.0784 -1.1100 -1.1987
   27MOL0     H 3725   8.796   0.257  10.357  1.0300 -0.6536 -1.5611
   27MOL0     H 3726   8.733   0.158  10.484 -0.1570 -2.1705 -0.7512
   28MOL0     O 3727   9.593   4.390   2.160 -0.4786  0.4674 -0.1003
   28MOL0     C 3728   9.662   4.487   2.211  0.0921  0.3091  1.0993
   28MOL0     O 3729   9.790   4.481   2.240 -0.5758 -0.0524 -0.4772
   28MOL0     C 3730   9.844   4.353   2.234  0.1824 -0.2649 -0.3008
   28MOL0     C 3731   9.814   4.259   2.329 -0.0731  0.5683 -0.2121
   28MOL0     C 3732   9.855   4.124   2.306 -0.2854  0.0271 -0.8785
   28MOL0     C 3733   9.927   4.093   2.190  0.3656  0.4621 -0.1388
   28MOL0     O 3734   9.934   3.953   2.183 -0.7316  0.1751  0.2811
   28MOL0     C 3735  10.043   3.911   2.085  1.0220 -0.0191 -0.0892
   28MOL0     C 3736  10.089   3.764   2.094  0.1709  0.3205  0.2026
   28MOL0     C 3737  10.171   3.742   2.231  0.6966  0.0822  0.7682
   28MOL0     C 3738  10.314   3.809   2.222  1.1445 -0.0356 -0.6211
   28MOL0     C 3739  10.381   3.759   2.356  0.4020  0.2699 -0.0864
   28MOL0     C 3740  10.531   3.799   2.356 -0.2242 -0.3198  0.6652
   28MOL0     C 3741  10.618   3.714   2.254 -0.7217  0.7110  0.3634
   28MOL0     C 3742  10.770   3.748   2.253  1.0581 -0.2772  0.3131
   28MOL0     N 3743  10.800   3.888   2.224 -0.1825 -0.8995 -0.1676
   28MOL0     C 3744  10.757   3.942   2.109  0.4292 -0.3721 -0.2201
   28MOL0     C 3745  10.780   4.079   2.129 -0.8732  0.4486  0.4279
   28MOL0     C 3746  10.738   4.184   2.026  0.5973  0.0114  0.3503
   28MOL0     C 3747  10.850   4.278   1.971 -0.1365 -0.2847 -0.7816
   28MOL0     C 3748  10.949   4.193   1.900 -0.1698 -0.7623  0.3331
   28MOL0     C 3749  11.066   4.256   1.818 -0.2634  1.0311 -0.6538
   28MOL0     O 3750  11.159   4.327   1.895 -0.6101 -0.2694  0.0413
   28MOL0     C 3751  11.245   4.250   1.983  0.6947  0.7589  0.7177
   28MOL0     C 3752  11.303   4.318   2.082 -0.3452  0.2515  0.2537
   28MOL0     C 3753  11.392   4.257   2.166  0.2337 -0.6108 -0.6303
   28MOL0     C 3754  11.438   4.344   2.290  0.1458 -0.1151  0.7831
   28MOL0     C 3755  11.444   4.134   2.152 -0.8019  0.8268  0.5758
   28MOL0     C 3756  11.556   4.079   2.219 -1.1107 -0.0242  0.2234
   28MOL0     O 3757  11.647   3.999   2.138  1.1531  0.7126 -0.2533
   28MOL0     C 3758  11.756   3.958   2.203 -0.7449 -0.1784 -0.2124
   28MOL0     C 3759  11.746   3.855   2.306  0.1267 -0.6222 -0.7409
   28MOL0     C 3760  11.860   3.799   2.354  0.0014  0.3572 -0.2432
   28MOL0     C 3761  11.991   3.851   2.314 -0.0235 -0.3295 -0.9078
   28MOL0     O 3762  12.107   3.799   2.368 -0.2304  0.0686  0.2797
   28MOL0     C 3763  12.103   3.656   2.379  0.1032 -0.8138  0.4231
   28MOL0     C 3764  12.244   3.610   2.403  0.0133  0.4702 -0.3818
   28MOL0     C 3765  12.348   3.727   2.421  0.5256 -0.1723 -0.0795
   28MOL0     C 3766  12.490   3.679   2.450  0.3167 -0.3096  0.6383
   28MOL0     C 3767  12.505   3.640   2.604 -0.2074 -0.0967  0.1248
   28MOL0     C 3768  12.646   3.686   2.657 -0.1626  0.1410 -0.1398
   28MOL0     C 3769  12.695   3.637   2.797 -0.3314  0.2584  0.2553
   28MOL0     C 3770  12.845   3.648   2.820 -0.2508 -0.4871  0.1622
   28MOL0    Cl 3771  12.896   3.823   2.793  0.2860  0.1764 -0.2248
   28MOL0     C 3772  11.992   3.966   2.230  0.3685 -0.4962  0.4306
   28MOL0     C 3773  11.877   4.009   2.162 -1.2685  0.2283 -0.0866
   28MOL0     O 3774  11.554   4.072   2.337 -0.2850 -0.6577  0.3408
   28MOL0     C 3775  11.373   4.053   2.061 -0.0287 -0.5180 -1.2078
   28MOL0     C 3776  11.276   4.111   1.979  0.2643  0.1571  0.0071
   28MOL0     N 3777  10.839   4.095   2.254  0.1959 -0.1546  0.4453
   28MOL0     N 3778  10.853   3.979   2.303 -0.2951 -0.5145  0.1859
   28MOL0     C 3779   9.961   4.194   2.089 -0.0371  0.7421 -0.3877
   28MOL0     C 3780   9.917   4.322   2.119 -0.6202  0.0533  0.1009
   28MOL0     C 3781   9.602   4.618   2.230  0.1365  0.6866 -0.5644
   28MOL0     C 3782   9.649   4.723   2.167 -0.1671  0.0988  0.7932
   28MOL0     C 3783   9.583   4.852   2.149  0.8257  0.3120  0.2415
   28MOL0     C 3784   9.465   4.864   2.212 -0.5009  1.1816 -0.4892
   28MOL0     O 3785   9.391   4.965   2.232 -0.1859 -0.4284  0.1931
   28MOL0     C 3786   9.405   5.091   2.156  0.4317 -0.9370  0.8486
   28MOL0     C 3787   9.397   5.086   2.000  0.7575  0.6767 -0.3007
   28MOL0     C 3788   9.244   5.073   1.973 -0.7211 -0.2580 -0.0708
   28MOL0     C 3789   9.205   5.096   1.836 -1.1415 -0.0670  0.6518
   28MOL0     C 3790   9.276   4.993   1.744  0.9853 -0.9155  0.9643
   28MOL0     C 3791   9.325   4.905   1.678  0.4935  0.4299 -0.4872
   28MOL0     C 3792   9.406   4.755   2.274  0.1956  0.0681  0.0811
   28MOL0     C 3793   9.475   4.629   2.288  0.9103 -1.0597  0.0582
   28MOL0     C 3794   9.396   4.513   2.351 -0.5314 -0.5974 -0.1950
   28MOL0     H 3795   9.749   4.281   2.413  0.7428  1.1258  0.2851
   28MOL0     H 3796   9.825   4.037   2.364  0.8871 -0.0054 -0.2972
   28MOL0     H 3797  10.129   3.974   2.105  1.2538 -0.0910 -0.8242
   28MOL0     H 3798  10.008   3.922   1.981 -1.5049 -1.2505  0.5402
   28MOL0     H 3799   9.999   3.702   2.090 -1.1310  2.1214  0.3261
   28MOL0     H 3800  10.148   3.736   2.007  2.0657  0.6785  1.3139
   28MOL0     H 3801  10.110   3.788   2.309 -2.4085 -3.1646  0.5088
   28MOL0     H 3802  10.176   3.634   2.252  0.8709  0.4304  2.7167
   28MOL0     H 3803  10.360   3.763   2.135  0.1641  2.2701 -2.4627
   28MOL0     H 3804  10.310   3.919   2.221 -0.6098 -0.0730 -0.6385
   28MOL0     H 3805  10.355   3.653   2.363 -2.7404  0.9765  0.5750
   28MOL0     H 3806  10.348   3.800   2.452  1.5806 -0.4548  0.6564
   28MOL0     H 3807  10.518   3.899   2.313 -4.5563  0.0880  2.3857
   28MOL0     H 3808  10.571   3.817   2.456  0.5390  4.5323 -0.2480
   28MOL0     H 3809  10.594   3.720   2.147  1.3241  3.1890 -0.0469
   28MOL0     H 3810  10.609   3.606   2.273 -0.5992  0.1746 -2.2816
   28MOL0     H 3811  10.805   3.725   2.354 -1.7618 -1.6931  1.0566
   28MOL0     H 3812  10.823   3.679   2.187 -2.2922 -3.4533  0.6575
   28MOL0     H 3813  10.701   3.896   2.029 -1.5595  0.1269  0.8330
   28MOL0     H 3814  10.660   4.242   2.075  0.3134 -0.2587  0.2234
   28MOL0     H 3815  10.677   4.141   1.947 -0.1652  2.5538 -0.5485
   28MOL0     H 3816  10.797   4.351   1.908 -0.4222  0.8513  0.7097
   28MOL0     H 3817  10.895   4.333   2.054 -1.2728 -0.8514  0.2365
   28MOL0     H 3818  10.994   4.130   1.978  0.1783 -0.7400  0.1523
   28MOL0     H 3819  10.892   4.138   1.825 -1.4398  1.8306 -0.7212
   28MOL0     H 3820  11.106   4.170   1.764 -3.5243  1.0758 -3.4537
   28MOL0     H 3821  11.017   4.321   1.746 -1.0038 -0.0246 -1.1318
   28MOL0     H 3822  11.279   4.424   2.083 -0.3408  0.2508  0.4335
   28MOL0     H 3823  11.500   4.301   2.368  2.7284 -3.3558 -2.7232
   28MOL0     H 3824  11.346   4.379   2.338 -0.8675 -0.3393 -0.9135
   28MOL0     H 3825  11.492   4.434   2.258 -0.2399 -0.4053 -0.7994
   28MOL0     H 3826  11.657   3.818   2.354  1.2028  1.4501  3.2808
   28MOL0     H 3827  11.843   3.725   2.431  0.0779  1.0579  0.4691
   28MOL0     H 3828  12.036   3.618   2.456 -1.9815 -1.2336 -1.4840
   28MOL0     H 3829  12.061   3.619   2.285 -1.1450  0.0254  0.6335
   28MOL0     H 3830  12.249   3.535   2.483  1.1732 -4.5051 -4.5451
   28MOL0     H 3831  12.290   3.548   2.325  4.5507  2.4669  0.4208
   28MOL0     H 3832  12.315   3.795   2.500  0.8399  1.2135 -1.0913
   28MOL0     H 3833  12.345   3.784   2.327  0.2576  0.6096  0.3925
   28MOL0     H 3834  12.555   3.764   2.428 -1.3952  0.6307 -1.0766
   28MOL0     H 3835  12.512   3.590   2.391 -2.3231 -1.2928  0.9979
   28MOL0     H 3836  12.435   3.704   2.658  0.0137  1.9999 -1.9421
   28MOL0     H 3837  12.493   3.531   2.603 -2.5502  0.0273 -4.1042
   28MOL0     H 3838  12.650   3.795   2.665 -1.4411  0.0946  1.9861
   28MOL0     H 3839  12.724   3.647   2.593 -0.0796 -1.7465  1.0342
   28MOL0     H 3840  12.652   3.540   2.825 -0.8102  0.0055 -1.2591
   28MOL0     H 3841  12.648   3.707   2.866  0.0989 -1.0891  1.9937
   28MOL0     H 3842  12.893   3.578   2.751 -0.6110 -1.5195  0.9493
   28MOL0     H 3843  12.866   3.619   2.923  0.3279  2.2942  0.9239
   28MOL0     H 3844  12.086   4.013   2.206  0.1073 -0.5074 -0.6862
   28MOL0     H 3845  11.880   4.091   2.091  4.0443 -1.3108 -2.1160
   28MOL0     H 3846  11.407   3.952   2.040 -1.2639 -1.8825  2.4876
   28MOL0     H 3847  11.227   4.054   1.900  0.0214 -0.1087  0.3422
   28MOL0     H 3848  10.011   4.172   1.996  1.5240 -1.8129  0.9327
   28MOL0     H 3849   9.932   4.403   2.048 -1.1109 -0.3183 -0.4478
   28MOL0     H 3850   9.750   4.714   2.127 -0.0646  0.9964  0.8461
   28MOL0     H 3851   9.640   4.925   2.094 -0.2123  2.6447  2.1023
   28MOL0     H 3852   9.342   5.175   2.186  0.2759  1.1036 -4.2225
   28MOL0     H 3853   9.505   5.130   2.175 -0.3245  3.4293 -2.5275
   28MOL0     H 3854   9.452   4.999   1.962  0.7836 -0.5909  2.3629
   28MOL0     H 3855   9.439   5.172   1.948  1.9449 -0.1465 -0.7595
   28MOL0     H 3856   9.211   4.971   1.995 -1.8744  0.2606  0.7101
   28MOL0     H 3857   9.186   5.133   2.044  3.4773  0.9531  2.7373
   28MOL0     H 3858   9.247   5.187   1.793 -0.1769 -1.1142 -0.7472
   28MOL0     H 3859   9.097   5.106   1.822 -1.5476 -1.8179  2.1293
   28MOL0     H 3860   9.362   4.820   1.624 -2.1923 -2.2280  1.5186
   28MOL0     H 3861   9.314   4.771   2.330  1.3243 -2.8469  3.0433
   28MOL0     H 3862   9.457   4.440   2.405 -0.9675  0.9993  2.6531
   28MOL0     H 3863   9.327   4.534   2.432  2.1449  0.0449  2.0918
   28MOL0     H 3864   9.344   4.466   2.267 -0.6220 -0.7390 -0.0599
   29MOL0     O 3865   5.357   3.024   2.288  0.2658  0.2168  1.3095
   29MOL0     C 3866   5.349   3.041   2.408  0.2712  1.0602  0.5015
   29MOL0     O 3867   5.411   2.958   2.503  0.0536 -0.1209 -0.7474
   29MOL0     C 3868   5.517   2.876   2.462 -0.0702  0.5047 -0.4552
   29MOL0     C 3869   5.503   2.751   2.398  1.1895 -0.0378  0.1625
   29MOL0     C 3870   5.612   2.682   2.344  0.7338  0.1658 -0.1213
   29MOL0     C 3871   5.744   2.732   2.369  0.3247  1.0395 -1.3128
   29MOL0     O 3872   5.863   2.686   2.312  0.2687  0.0850 -0.2038
   29MOL0     C 3873   5.847   2.582   2.218 -0.5715 -0.7403  0.3224
   29MOL0     C 3874   5.847   2.632   2.070 -0.0132  0.3024 -0.4201
   29MOL0     C 3875   5.830   2.519   1.971  0.6450 -0.6367 -0.2772
   29MOL0     C 3876   5.862   2.579   1.833 -0.3497  0.0943 -0.0208
   29MOL0     C 3877   5.819   2.480   1.728  0.7250  0.2308  0.3320
   29MOL0     C 3878   5.854   2.524   1.582 -0.6823  0.0335  0.7768
   29MOL0     C 3879   5.820   2.417   1.474 -0.7238  0.4463 -0.6916
   29MOL0     C 3880   5.931   2.299   1.478  0.3346  0.6857 -0.0852
   29MOL0     N 3881   5.890   2.189   1.390 -1.0872  0.1223  0.5993
   29MOL0     C 3882   5.968   2.133   1.291 -0.7721  0.0355  0.0849
   29MOL0     C 3883   5.897   2.022   1.264 -0.4974  0.6421 -0.9797
   29MOL0     C 3884   5.954   1.914   1.176  0.5017 -0.9043 -0.1011
   29MOL0     C 3885   5.946   1.768   1.210 -0.1635 -0.6045  0.2190
   29MOL0     C 3886   5.982   1.687   1.080  0.3585 -0.5998  0.1062
   29MOL0     C 3887   5.872   1.680   0.971  0.4434 -0.2095 -0.1818
   29MOL0     O 3888   5.757   1.610   1.019 -1.2336 -0.4788  0.1974
   29MOL0     C 3889   5.652   1.602   0.935  0.0574 -0.5068 -0.0549
   29MOL0     C 3890   5.608   1.713   0.885  0.2676 -0.5037 -1.0660
   29MOL0     C 3891   5.511   1.718   0.782 -0.1384  0.2333  0.7263
   29MOL0     C 3892   5.477   1.855   0.725  0.4836 -1.3379  0.1610
   29MOL0     C 3893   5.433   1.591   0.753 -0.0511  0.2854  0.3834
   29MOL0     C 3894   5.333   1.582   0.647  0.6192 -0.2806  0.4917
   29MOL0     O 3895   5.256   1.467   0.637 -0.3900  0.1436  0.0234
   29MOL0     C 3896   5.138   1.459   0.564 -0.0988  0.0134 -0.6842
   29MOL0     C 3897   5.084   1.334   0.543 -0.6952  0.1767  1.3267
   29MOL0     C 3898   4.963   1.313   0.472 -0.4547 -0.0704 -0.2130
   29MOL0     C 3899   4.897   1.421   0.421 -0.1405 -0.2814 -0.0001
   29MOL0     O 3900   4.775   1.409   0.364  0.4422  0.1783  0.5973
   29MOL0     C 3901   4.687   1.316   0.427 -0.9385 -0.3256  0.3853
   29MOL0     C 3902   4.559   1.324   0.337 -0.3917 -0.0429 -0.6298
   29MOL0     C 3903   4.454   1.215   0.381 -1.4185  0.1124  0.1240
   29MOL0     C 3904   4.441   1.195   0.539 -0.5022 -1.0373 -0.0671
   29MOL0     C 3905   4.322   1.096   0.560 -0.3838 -0.1490 -1.3153
   29MOL0     C 3906   4.298   1.063   0.714 -0.0940 -0.4120  0.3460
   29MOL0     C 3907   4.421   0.989   0.765  0.2442  0.9933 -1.0442
   29MOL0     C 3908   4.394   0.917   0.894  0.1496 -0.2360 -0.1139
   29MOL0    Cl 3909   4.347   1.035   1.024  0.1349  0.3656 -0.0480
   29MOL0     C 3910   4.950   1.548   0.443  0.5343  0.2315  0.3690
   29MOL0     C 3911   5.071   1.573   0.511 -0.0008  0.3191 -0.6237
   29MOL0     O 3912   5.337   1.663   0.559  0.1443 -0.2738 -0.0649
   29MOL0     C 3913   5.488   1.468   0.806  0.6621 -0.0774 -0.0792
   29MOL0     C 3914   5.596   1.478   0.895  0.4013  0.0515 -0.9077
   29MOL0     N 3915   5.785   2.016   1.334  0.7005  1.0520 -0.3019
   29MOL0     N 3916   5.776   2.125   1.407 -0.0580  1.0847  0.7330
   29MOL0     C 3917   5.748   2.849   2.435 -0.8937 -0.0783  0.0880
   29MOL0     C 3918   5.643   2.924   2.479 -0.3107  0.9987 -0.1330
   29MOL0     C 3919   5.263   3.142   2.474 -0.2034  0.2567  0.2195
   29MOL0     C 3920   5.290   3.162   2.615  0.7064  0.2622 -0.0728
   29MOL0     C 3921   5.214   3.244   2.686 -0.1831 -1.1105 -0.2439
   29MOL0     C 3922   5.128   3.345   2.616 -0.3607  0.7170  0.3292
   29MOL0     O 3923   5.065   3.446   2.693  0.1302  0.7286 -0.2724
   29MOL0     C 3924   4.980   3.550   2.640 -0.5297 -0.9670  0.4026
   29MOL0     C 3925   4.985   3.688   2.721  0.1554  0.0074  0.2734
   29MOL0     C 3926   4.869   3.771   2.677  0.1286  0.7602  0.5217
   29MOL0     C 3927   4.874   3.903   2.763  0.4874  0.2699  0.6162
   29MOL0     C 3928   4.869   3.875   2.907  0.0691 -0.0217  0.4940
   29MOL0     C 3929   4.869   3.832   3.025  1.2182 -0.1330  0.7344
   29MOL0     C 3930   5.105   3.321   2.478 -0.3866 -0.0036  0.6956
   29MOL0     C 3931   5.164   3.221   2.406 -0.2577  0.9898 -0.0832
   29MOL0     C 3932   5.108   3.194   2.274  0.0715 -0.9015  0.3137
   29MOL0     H 3933   5.399   2.728   2.377  1.4313 -1.6088  0.5984
   29MOL0     H 3934   5.582   2.591   2.293  0.7466 -0.0448  0.2521
   29MOL0     H 3935   5.766   2.510   2.233 -0.7315 -0.9324 -1.2439
   29MOL0     H 3936   5.945   2.532   2.218  1.5545  3.0510 -1.1922
   29MOL0     H 3937   5.766   2.702   2.053  0.1128  0.2993 -1.0655
   29MOL0     H 3938   5.939   2.686   2.048 -0.4034  0.7591 -0.9330
   29MOL0     H 3939   5.901   2.439   1.997  1.5708  1.4156  4.5562
   29MOL0     H 3940   5.727   2.483   1.977  0.2806  0.6270  1.7155
   29MOL0     H 3941   5.821   2.678   1.812  3.1560  1.8290  0.4801
   29MOL0     H 3942   5.971   2.585   1.825 -0.3593 -1.6961 -2.7421
   29MOL0     H 3943   5.711   2.464   1.733  0.5717  0.9559 -0.4642
   29MOL0     H 3944   5.875   2.387   1.741 -1.3672 -0.9146  1.7721
   29MOL0     H 3945   5.786   2.605   1.551  0.6813  1.0443  0.3279
   29MOL0     H 3946   5.958   2.556   1.588 -0.5548 -0.1195 -0.4155
   29MOL0     H 3947   5.799   2.455   1.374  2.2063 -1.5454 -2.1770
   29MOL0     H 3948   5.729   2.366   1.508  0.7913 -1.3921  0.8267
   29MOL0     H 3949   6.030   2.333   1.447 -0.5808  1.3700 -2.5060
   29MOL0     H 3950   5.941   2.259   1.579  1.3865 -0.1009 -0.4723
   29MOL0     H 3951   6.058   2.171   1.244  0.7566  0.1082  2.8961
   29MOL0     H 3952   6.056   1.940   1.147  0.4909 -4.1312 -3.8863
   29MOL0     H 3953   5.889   1.920   1.088  1.7814 -0.5241 -1.0552
   29MOL0     H 3954   6.017   1.739   1.288  0.0932 -1.2799 -0.2539
   29MOL0     H 3955   5.841   1.752   1.233 -0.7073  2.6486  0.5036
   29MOL0     H 3956   6.073   1.733   1.040  0.6163 -2.4157 -1.5625
   29MOL0     H 3957   6.023   1.590   1.109  3.5036  0.5908  0.0718
   29MOL0     H 3958   5.855   1.784   0.938  0.9471 -0.5295 -1.5304
   29MOL0     H 3959   5.917   1.629   0.885  2.5954 -1.6441  1.6943
   29MOL0     H 3960   5.634   1.814   0.915 -2.7708  1.2373 -3.5898
   29MOL0     H 3961   5.369   1.870   0.712  0.9229  0.9685 -1.3220
   29MOL0     H 3962   5.512   1.875   0.624  1.2006  1.2050  0.8530
   29MOL0     H 3963   5.517   1.934   0.790  1.2521 -0.6957 -1.0730
   29MOL0     H 3964   5.142   1.254   0.589  0.9374  1.5212  1.6821
   29MOL0     H 3965   4.940   1.210   0.450  0.3299 -0.1526 -0.6999
   29MOL0     H 3966   4.729   1.215   0.437  1.5771  0.4354 -1.4890
   29MOL0     H 3967   4.654   1.357   0.522 -0.4830 -0.7443  0.7271
   29MOL0     H 3968   4.516   1.424   0.344 -0.3534  0.0055 -1.0759
   29MOL0     H 3969   4.582   1.295   0.234  1.4399 -0.7918 -0.0553
   29MOL0     H 3970   4.480   1.117   0.341  3.0681  0.1450  2.2743
   29MOL0     H 3971   4.360   1.251   0.338 -0.8212  1.7828  0.1139
   29MOL0     H 3972   4.437   1.292   0.589  0.9186  0.9685 -3.4909
   29MOL0     H 3973   4.530   1.143   0.575  0.7092  1.0768  0.1573
   29MOL0     H 3974   4.241   1.161   0.527  0.7712  1.9049 -0.3041
   29MOL0     H 3975   4.321   0.998   0.511  1.7493  0.5458 -2.9188
   29MOL0     H 3976   4.199   1.016   0.724 -0.5915  0.7520  1.0765
   29MOL0     H 3977   4.292   1.159   0.766 -3.3210  1.0164 -2.3103
   29MOL0     H 3978   4.504   1.059   0.777 -0.8967  1.9939  1.6191
   29MOL0     H 3979   4.445   0.911   0.691  1.1357  1.2287 -1.0138
   29MOL0     H 3980   4.475   0.852   0.929 -0.6057 -0.5089  1.1863
   29MOL0     H 3981   4.315   0.845   0.875 -0.2638 -0.5154  2.3090
   29MOL0     H 3982   4.889   1.631   0.407 -1.3139 -1.5479 -0.8893
   29MOL0     H 3983   5.107   1.669   0.545  1.3044 -0.8374  1.4731
   29MOL0     H 3984   5.452   1.370   0.774  0.1097  0.3916 -0.9161
   29MOL0     H 3985   5.646   1.388   0.929  2.2704  0.3316 -2.6972
   29MOL0     H 3986   5.850   2.886   2.441 -0.5698 -0.3020 -2.5768
   29MOL0     H 3987   5.667   3.016   2.532  0.9272 -0.9222  2.8784
   29MOL0     H 3988   5.372   3.121   2.672  1.7540  1.0110 -1.0081
   29MOL0     H 3989   5.249   3.255   2.789  0.2661  0.3738 -0.5248
   29MOL0     H 3990   5.019   3.575   2.541 -0.7236  0.3532  0.6465
   29MOL0     H 3991   4.877   3.515   2.632 -1.1371  0.6742  0.6662
   29MOL0     H 3992   5.082   3.730   2.693  0.9260 -1.2276  0.9687
   29MOL0     H 3993   4.988   3.667   2.828  0.8976 -4.3776 -0.4039
   29MOL0     H 3994   4.876   3.800   2.572 -2.4350  0.8347  0.2935
   29MOL0     H 3995   4.776   3.715   2.693  2.4524 -3.8648 -0.4769
   29MOL0     H 3996   4.783   3.961   2.741  1.2259  1.0201 -0.5507
   29MOL0     H 3997   4.955   3.971   2.736 -2.8074  4.5985  0.5480
   29MOL0     H 3998   4.868   3.813   3.131 -0.1829  2.7445  1.3203
   29MOL0     H 3999   5.035   3.385   2.426  1.3161  1.0122 -0.4714
   29MOL0     H 4000   5.067   3.282   2.224 -1.1335 -1.3873  0.4000
   29MOL0     H 4001   5.193   3.167   2.210  1.5561  1.1350  1.3340
   29MOL0     H 4002   5.027   3.121   2.268 -0.6528 -0.0265 -0.8778
   30MOL0     O 4003   3.825   1.890   5.016 -0.6636  0.2106 -0.0159
   30MOL0     C 4004   3.873   1.966   4.935  0.0868 -0.6223  0.0436
   30MOL0     O 4005   3.987   1.948   4.862  0.1085 -0.0985 -1.2789
   30MOL0     C 4006   4.088   1.851   4.888 -0.0929  0.0564 -0.4072
   30MOL0     C 4007   4.222   1.881   4.846 -0.3281 -0.2570 -0.1441
   30MOL0     C 4008   4.332   1.814   4.898 -0.4891 -0.0919 -0.6477
   30MOL0     C 4009   4.314   1.700   4.975  0.4115  0.1399  0.3208
   30MOL0     O 4010   4.429   1.637   5.027  0.2774  0.3749  0.2752
   30MOL0     C 4011   4.512   1.570   4.930  0.7265  1.0341 -1.1791
   30MOL0     C 4012   4.561   1.433   4.974  0.4871 -0.4606  0.7830
   30MOL0     C 4013   4.462   1.323   4.954  0.4080 -0.0055 -0.1623
   30MOL0     C 4014   4.416   1.254   5.082 -0.3702 -0.0710 -0.5281
   30MOL0     C 4015   4.320   1.138   5.047  0.9699  0.3241  0.6803
   30MOL0     C 4016   4.183   1.187   4.977 -0.1619  0.1811 -0.2895
   30MOL0     C 4017   4.078   1.081   4.940 -0.6331 -0.5626 -0.2736
   30MOL0     C 4018   4.134   0.972   4.855 -0.0259  0.1848 -0.4210
   30MOL0     N 4019   4.171   1.005   4.717 -0.7248 -0.0593  0.9779
   30MOL0     C 4020   4.081   1.040   4.619 -0.7369 -0.1779  0.2028
   30MOL0     C 4021   4.161   1.049   4.505  0.8389  1.1199 -0.0330
   30MOL0     C 4022   4.103   1.083   4.371  0.7468  0.5229  0.6180
   30MOL0     C 4023   4.202   1.156   4.273 -0.0146 -0.7297 -0.0822
   30MOL0     C 4024   4.117   1.231   4.175  0.9241  0.3531 -0.0819
   30MOL0     C 4025   4.095   1.371   4.210 -0.0822  0.0085  1.2422
   30MOL0     O 4026   4.028   1.436   4.101  0.3811 -0.1187 -0.5640
   30MOL0     C 4027   3.960   1.557   4.125  0.4495 -0.9404 -0.4292
   30MOL0     C 4028   3.970   1.621   4.251 -0.5220 -0.0714 -0.0669
   30MOL0     C 4029   3.896   1.747   4.266  0.6412  0.5059 -0.3057
   30MOL0     C 4030   3.901   1.799   4.404  0.0103  0.1833  0.3456
   30MOL0     C 4031   3.823   1.805   4.160  0.1256 -1.4115  1.1867
   30MOL0     C 4032   3.734   1.933   4.169 -0.1069 -0.8524 -0.1361
   30MOL0     O 4033   3.699   1.986   4.056 -0.4007  0.0403  0.3806
   30MOL0     C 4034   3.625   2.102   4.046  0.7778 -0.0292 -0.9652
   30MOL0     C 4035   3.622   2.207   4.145 -0.3859  0.1154  0.2875
   30MOL0     C 4036   3.545   2.324   4.130 -0.1559  0.0575  0.0181
   30MOL0     C 4037   3.478   2.345   4.007  0.5001 -0.1306 -0.2556
   30MOL0     O 4038   3.410   2.466   3.989 -0.4039  0.2354 -0.0131
   30MOL0     C 4039   3.372   2.546   4.100  0.6940 -0.4915 -0.5501
   30MOL0     C 4040   3.240   2.623   4.075  0.8676  1.0030 -0.4635
   30MOL0     C 4041   3.253   2.769   4.041 -0.7270  0.1417  0.1202
   30MOL0     C 4042   3.298   2.777   3.895  0.4892 -0.2760 -0.4493
   30MOL0     C 4043   3.452   2.780   3.868 -0.0059 -0.3481 -0.2571
   30MOL0     C 4044   3.473   2.775   3.720 -0.1445 -0.2003  0.8518
   30MOL0     C 4045   3.622   2.764   3.685 -0.0423  0.0205 -0.4541
   30MOL0     C 4046   3.651   2.782   3.525 -0.5435 -0.3169  0.0601
   30MOL0    Cl 4047   3.830   2.767   3.509  0.0670  0.1928 -0.5380
   30MOL0     C 4048   3.469   2.242   3.920 -0.4242 -0.0041 -0.1587
   30MOL0     C 4049   3.547   2.125   3.937  0.8289  0.4397  0.3957
   30MOL0     O 4050   3.717   1.981   4.280 -0.1929  0.1306 -0.1812
   30MOL0     C 4051   3.822   1.737   4.034 -0.2025  0.6286  0.7375
   30MOL0     C 4052   3.889   1.616   4.017 -0.6573  0.0589 -0.0813
   30MOL0     N 4053   4.292   1.024   4.537  0.4311 -0.7725  0.0453
   30MOL0     N 4054   4.301   1.017   4.663  0.6976 -0.1241  0.0111
   30MOL0     C 4055   4.191   1.646   4.994  0.9127  0.4081  0.0411
   30MOL0     C 4056   4.072   1.727   4.958  0.4318 -1.6739  0.5208
   30MOL0     C 4057   3.827   2.104   4.924 -0.4374  0.0851  0.4043
   30MOL0     C 4058   3.731   2.140   5.028  0.4215  0.2075 -0.3261
   30MOL0     C 4059   3.682   2.269   5.039 -1.1255  0.3430  0.2794
   30MOL0     C 4060   3.732   2.370   4.958 -0.5203  0.2489 -0.6254
   30MOL0     O 4061   3.659   2.489   4.966  0.3612 -0.3826 -0.6235
   30MOL0     C 4062   3.699   2.594   4.872 -0.9492  1.0034 -1.0166
   30MOL0     C 4063   3.638   2.718   4.919  0.1036  0.7932  0.0627
   30MOL0     C 4064   3.487   2.737   4.885 -0.5593  0.5764 -0.7076
   30MOL0     C 4065   3.433   2.856   4.956  0.0957 -0.3980 -0.7902
   30MOL0     C 4066   3.432   2.868   5.104 -0.3651 -0.0902  0.5771
   30MOL0     C 4067   3.428   2.899   5.222  0.4810 -0.3497  0.0083
   30MOL0     C 4068   3.828   2.339   4.862 -0.2460  0.1597  0.4968
   30MOL0     C 4069   3.872   2.209   4.835 -0.5466  0.7377  0.0118
   30MOL0     C 4070   3.985   2.190   4.738  1.2085 -0.1594  0.4135
   30MOL0     H 4071   4.222   1.969   4.782 -2.9991 -0.4778 -0.6029
   30MOL0     H 4072   4.437   1.838   4.886 -0.9213  2.6220  0.3618
   30MOL0     H 4073   4.607   1.624   4.930  1.2334  0.3197  1.9638
   30MOL0     H 4074   4.465   1.567   4.831 -1.3253  0.0692 -0.2405
   30MOL0     H 4075   4.645   1.419   4.906 -0.0209 -0.6540  0.1925
   30MOL0     H 4076   4.591   1.445   5.079 -1.2138 -0.8827  1.3377
   30MOL0     H 4077   4.384   1.369   4.893  0.8417  1.9478  0.6987
   30MOL0     H 4078   4.504   1.244   4.890 -0.1618  1.3211 -2.2788
   30MOL0     H 4079   4.502   1.215   5.136  2.4657  1.3271 -3.6393
   30MOL0     H 4080   4.369   1.331   5.144  0.9119 -2.5628  3.9981
   30MOL0     H 4081   4.303   1.076   5.135  1.7064 -0.3027  0.4035
   30MOL0     H 4082   4.382   1.080   4.977  1.1649  0.6996  0.5367
   30MOL0     H 4083   4.129   1.249   5.048  2.0984  0.5673  1.1964
   30MOL0     H 4084   4.212   1.241   4.886 -0.4215  0.7362 -0.0453
   30MOL0     H 4085   3.992   1.134   4.896 -0.9981 -2.1968 -1.6424
   30MOL0     H 4086   4.053   1.028   5.032 -1.3374 -3.2462 -1.8767
   30MOL0     H 4087   4.214   0.920   4.909 -1.6199 -0.9133  0.9939
   30MOL0     H 4088   4.061   0.891   4.854  2.3248 -2.1777  1.9400
   30MOL0     H 4089   3.976   1.065   4.631 -0.5304  0.5512  0.5097
   30MOL0     H 4090   4.023   1.153   4.393 -0.7184 -1.1563  0.8061
   30MOL0     H 4091   4.052   1.009   4.309  1.0466  3.2898 -3.2792
   30MOL0     H 4092   4.267   1.223   4.329  0.2508 -2.1454  1.3789
   30MOL0     H 4093   4.272   1.087   4.226  0.0912 -0.0707 -0.9007
   30MOL0     H 4094   4.156   1.235   4.072 -0.1063  0.8498 -0.4680
   30MOL0     H 4095   4.022   1.177   4.171  2.0991 -2.3348  3.2781
   30MOL0     H 4096   4.038   1.378   4.303 -1.1526  2.8796  0.4876
   30MOL0     H 4097   4.192   1.420   4.220  0.3120 -0.5608  0.3195
   30MOL0     H 4098   4.039   1.587   4.327  0.8205 -1.5812 -1.8671
   30MOL0     H 4099   3.943   1.725   4.473 -1.7121 -2.0424 -0.8389
   30MOL0     H 4100   3.797   1.811   4.437 -1.1879 -4.8503 -0.7432
   30MOL0     H 4101   3.966   1.886   4.411  2.2168 -0.9837 -3.1034
   30MOL0     H 4102   3.691   2.202   4.228  0.7861 -0.4681 -0.6809
   30MOL0     H 4103   3.536   2.393   4.214 -5.1257 -0.7874  0.4829
   30MOL0     H 4104   3.355   2.492   4.194 -0.9954  1.6367  0.4600
   30MOL0     H 4105   3.447   2.622   4.127 -0.7663 -0.0272  2.6816
   30MOL0     H 4106   3.187   2.569   3.995 -0.9955  1.4083  0.4463
   30MOL0     H 4107   3.187   2.615   4.170 -0.9229 -0.5532 -1.5110
   30MOL0     H 4108   3.332   2.819   4.099  1.2584 -1.4950 -1.0219
   30MOL0     H 4109   3.160   2.827   4.050 -1.3523 -1.0988  2.4079
   30MOL0     H 4110   3.262   2.870   3.849  1.4022  0.3810  0.1132
   30MOL0     H 4111   3.251   2.700   3.833 -0.7717 -0.7146  0.9906
   30MOL0     H 4112   3.483   2.880   3.902 -3.7856  0.4947  1.2274
   30MOL0     H 4113   3.515   2.699   3.905  0.6586  0.5399  0.6034
   30MOL0     H 4114   3.419   2.856   3.670  1.1631 -0.1390 -0.5386
   30MOL0     H 4115   3.419   2.685   3.688 -0.6975  0.3004  0.3578
   30MOL0     H 4116   3.665   2.668   3.713  0.4971  0.1506 -0.8137
   30MOL0     H 4117   3.682   2.845   3.728 -2.2465  1.2591  0.4423
   30MOL0     H 4118   3.615   2.882   3.497  1.4758 -0.2657 -2.8590
   30MOL0     H 4119   3.608   2.704   3.461  1.8543  0.0265 -2.1177
   30MOL0     H 4120   3.421   2.272   3.828 -2.4640 -0.4415  0.7141
   30MOL0     H 4121   3.539   2.048   3.860  2.2734  0.4082  0.2561
   30MOL0     H 4122   3.761   1.763   3.949  0.1550  0.0365  0.2907
   30MOL0     H 4123   3.879   1.564   3.922 -0.8916 -1.6844  0.8538
   30MOL0     H 4124   4.175   1.548   5.037 -3.5836  1.0995  0.4573
   30MOL0     H 4125   3.974   1.682   4.976 -2.5174  2.3131 -3.4083
   30MOL0     H 4126   3.697   2.067   5.101  2.0247  0.4006  0.6718
   30MOL0     H 4127   3.610   2.299   5.114 -0.8771  1.2390  0.1639
   30MOL0     H 4128   3.808   2.595   4.874 -0.8912 -1.1262 -0.2074
   30MOL0     H 4129   3.660   2.557   4.776  0.2668  2.6849 -2.2092
   30MOL0     H 4130   3.700   2.800   4.881  0.0722  0.0989 -1.6171
   30MOL0     H 4131   3.652   2.717   5.027  4.5712  1.1663 -0.3197
   30MOL0     H 4132   3.494   2.772   4.781  1.2318  0.1030 -0.7897
   30MOL0     H 4133   3.425   2.648   4.900 -0.5762  0.7397  0.2205
   30MOL0     H 4134   3.328   2.870   4.927 -1.0412 -0.2610  2.8863
   30MOL0     H 4135   3.500   2.937   4.927 -2.8362  2.0397 -1.2284
   30MOL0     H 4136   3.440   2.935   5.322 -0.4666  2.3360 -0.7694
   30MOL0     H 4137   3.861   2.409   4.786 -1.5916  0.8172  0.5005
   30MOL0     H 4138   4.078   2.159   4.787  0.8906  0.8104  1.7035
   30MOL0     H 4139   3.943   2.121   4.665 -1.0864  1.6187 -0.0501
   30MOL0     H 4140   4.007   2.291   4.704  0.9696  1.3669  4.2351
   31MOL0     O 4141   2.406   6.167   0.896 -0.1965  0.1682 -0.5722
   31MOL0     C 4142   2.436   6.226   0.793  0.4532 -1.0165 -0.3059
   31MOL0     O 4143   2.444   6.362   0.788 -0.0559 -0.2859  0.9053
   31MOL0     C 4144   2.439   6.433   0.905  0.1295 -0.3621  0.6048
   31MOL0     C 4145   2.335   6.529   0.919  0.2279 -0.4046 -0.4355
   31MOL0     C 4146   2.333   6.616   1.030 -0.5444  0.8387 -0.0363
   31MOL0     C 4147   2.436   6.619   1.126  0.4450  0.0362 -0.6075
   31MOL0     O 4148   2.439   6.720   1.214 -0.5824 -0.6361 -0.2019
   31MOL0     C 4149   2.559   6.793   1.250  0.8628  0.7934 -0.3965
   31MOL0     C 4150   2.523   6.938   1.292  0.2687 -0.5108 -0.8872
   31MOL0     C 4151   2.480   7.019   1.173 -0.1805  0.1992  0.3032
   31MOL0     C 4152   2.460   7.168   1.213 -0.3790  0.2933 -1.1891
   31MOL0     C 4153   2.434   7.262   1.094  0.5830  0.9635  0.7152
   31MOL0     C 4154   2.433   7.418   1.116  0.1642 -0.4530  0.1009
   31MOL0     C 4155   2.554   7.486   1.196  0.4489 -0.1143  0.1724
   31MOL0     C 4156   2.528   7.634   1.243 -0.0780 -0.2268 -0.3566
   31MOL0     N 4157   2.513   7.723   1.125 -1.0147  0.1797 -0.0095
   31MOL0     C 4158   2.611   7.736   1.029  0.4581 -0.9528 -0.1957
   31MOL0     C 4159   2.551   7.810   0.934 -0.4025 -0.7139 -0.0179
   31MOL0     C 4160   2.614   7.853   0.807 -0.7744  0.1241 -0.3603
   31MOL0     C 4161   2.636   7.739   0.710 -0.0342 -0.5607 -0.4344
   31MOL0     C 4162   2.734   7.760   0.595  0.5187  0.0995 -0.6060
   31MOL0     C 4163   2.682   7.876   0.500 -0.4757  0.1635 -0.8031
   31MOL0     O 4164   2.773   7.907   0.392  0.4321  0.6176  0.3219
   31MOL0     C 4165   2.729   8.011   0.309  0.2930  0.1451  0.2996
   31MOL0     C 4166   2.822   8.090   0.241  0.2330  0.0749  0.2150
   31MOL0     C 4167   2.794   8.192   0.145 -0.0358  0.5718  0.6749
   31MOL0     C 4168   2.920   8.263   0.090  0.2717 -0.3408 -0.0635
   31MOL0     C 4169   2.660   8.225   0.115  0.0176  0.0545  0.1895
   31MOL0     C 4170   2.611   8.332   0.021 -0.6746  0.1731  0.1003
   31MOL0     O 4171   2.483   8.371   0.023  0.2666 -0.7097  0.2029
   31MOL0     C 4172   2.450   8.442  -0.086 -0.0215  0.6284 -0.3525
   31MOL0     C 4173   2.412   8.372  -0.208 -0.2260  1.2146 -0.3005
   31MOL0     C 4174   2.362   8.448  -0.311 -0.0871  1.2197  0.4032
   31MOL0     C 4175   2.344   8.582  -0.300  0.0449 -0.0935 -1.5887
   31MOL0     O 4176   2.309   8.656  -0.413 -0.0246 -0.6606  0.4048
   31MOL0     C 4177   2.422   8.744  -0.454  0.1429  0.1013 -0.9869
   31MOL0     C 4178   2.517   8.665  -0.540 -0.3859 -0.5060  0.9002
   31MOL0     C 4179   2.672   8.687  -0.509 -0.1650  0.1868 -0.0898
   31MOL0     C 4180   2.722   8.822  -0.572 -0.8641 -0.2438  0.2044
   31MOL0     C 4181   2.833   8.872  -0.492 -1.6963 -0.4819  0.4749
   31MOL0     C 4182   2.853   9.016  -0.537  1.0275 -0.2899  0.3118
   31MOL0     C 4183   2.985   9.081  -0.490 -0.1964 -0.5861  0.4157
   31MOL0     C 4184   3.002   9.105  -0.342  0.5253 -0.7293  0.0844
   31MOL0    Cl 4185   2.875   9.227  -0.290  0.0573  0.2093  0.4038
   31MOL0     C 4186   2.375   8.649  -0.181  0.5555 -0.6561 -0.3484
   31MOL0     C 4187   2.436   8.574  -0.080  0.8425  0.1535 -0.0583
   31MOL0     O 4188   2.689   8.375  -0.057 -0.2129  0.0664  0.3433
   31MOL0     C 4189   2.561   8.160   0.202 -0.0306  0.4211  0.5575
   31MOL0     C 4190   2.600   8.055   0.286  0.0490  0.3119  0.1310
   31MOL0     N 4191   2.409   7.809   0.956 -0.4267  0.2106  0.1083
   31MOL0     N 4192   2.397   7.759   1.068  0.0904 -0.1423 -0.0848
   31MOL0     C 4193   2.538   6.515   1.110 -0.1919 -0.6466  0.0304
   31MOL0     C 4194   2.534   6.423   1.010 -0.2510  0.3217  0.2962
   31MOL0     C 4195   2.453   6.156   0.665 -0.3028  0.7995 -0.0742
   31MOL0     C 4196   2.479   6.019   0.673  0.2204 -0.2492 -1.1461
   31MOL0     C 4197   2.485   5.938   0.558 -0.9358 -0.8002  0.5308
   31MOL0     C 4198   2.475   5.997   0.426 -0.2415  0.4892 -0.1921
   31MOL0     O 4199   2.489   5.928   0.311 -0.4521  0.4191  0.3213
   31MOL0     C 4200   2.480   5.782   0.312 -0.4266 -0.4781 -0.2752
   31MOL0     C 4201   2.447   5.732   0.172 -0.1733 -0.2138 -0.1113
   31MOL0     C 4202   2.503   5.590   0.163 -1.2379  0.0531  0.0141
   31MOL0     C 4203   2.398   5.482   0.147  0.4408 -0.2298 -0.3629
   31MOL0     C 4204   2.452   5.354   0.146  0.0103  0.0296  0.2789
   31MOL0     C 4205   2.515   5.251   0.150  0.4818  0.1867 -0.6440
   31MOL0     C 4206   2.457   6.132   0.422 -0.0928  0.3790 -0.4189
   31MOL0     C 4207   2.457   6.219   0.537  0.3227  0.1454  0.1086
   31MOL0     C 4208   2.454   6.369   0.509 -0.9014  0.8141 -0.1180
   31MOL0     H 4209   2.251   6.523   0.851 -0.4515  1.5199  0.1758
   31MOL0     H 4210   2.253   6.687   1.049 -1.1761  1.2390 -3.4943
   31MOL0     H 4211   2.627   6.807   1.166  1.1419  5.2157  0.3185
   31MOL0     H 4212   2.604   6.742   1.336 -3.2657 -1.1087  0.8896
   31MOL0     H 4213   2.447   6.941   1.372 -0.6983 -0.1060 -1.7999
   31MOL0     H 4214   2.607   6.992   1.337 -0.5700  1.1836 -1.2887
   31MOL0     H 4215   2.548   7.015   1.088  1.4977  0.4091  1.5758
   31MOL0     H 4216   2.386   6.982   1.131  1.8361 -1.7738 -2.9663
   31MOL0     H 4217   2.373   7.165   1.279 -0.2130 -1.9388 -0.9821
   31MOL0     H 4218   2.548   7.202   1.268 -1.9516 -0.3864  1.9702
   31MOL0     H 4219   2.339   7.247   1.042  1.2148  1.2836 -0.6033
   31MOL0     H 4220   2.514   7.242   1.022  1.9452  0.1748  2.3929
   31MOL0     H 4221   2.424   7.464   1.016 -2.5866 -1.9292 -0.4359
   31MOL0     H 4222   2.338   7.430   1.169 -0.3276 -1.7338 -0.4491
   31MOL0     H 4223   2.642   7.475   1.132  0.5584  1.8952 -0.0649
   31MOL0     H 4224   2.581   7.433   1.288  2.6217 -2.0855 -1.4835
   31MOL0     H 4225   2.451   7.645   1.320 -0.7502 -1.3805 -0.8443
   31MOL0     H 4226   2.619   7.663   1.297 -0.7010 -2.9169  2.4567
   31MOL0     H 4227   2.718   7.716   1.034  0.8392  0.3917 -2.0035
   31MOL0     H 4228   2.712   7.899   0.822 -0.3516 -0.2132 -1.9456
   31MOL0     H 4229   2.556   7.928   0.754 -3.2701 -1.6030 -0.2501
   31MOL0     H 4230   2.679   7.657   0.768  0.9953 -0.6433 -1.2685
   31MOL0     H 4231   2.545   7.711   0.656  0.4589 -0.5761 -1.2858
   31MOL0     H 4232   2.829   7.787   0.642 -1.1050 -0.3788  3.3334
   31MOL0     H 4233   2.740   7.673   0.529 -0.5158  0.5665 -1.3480
   31MOL0     H 4234   2.579   7.845   0.477 -0.6113 -2.3009  2.4973
   31MOL0     H 4235   2.673   7.969   0.557  1.0032  1.1922 -2.1527
   31MOL0     H 4236   2.924   8.070   0.273  0.2169  3.1116  2.5745
   31MOL0     H 4237   2.921   8.248  -0.018 -1.6705 -2.3135  0.1221
   31MOL0     H 4238   3.022   8.237   0.122  0.5554  0.1010 -0.5792
   31MOL0     H 4239   2.904   8.368   0.116 -0.9527 -0.2036 -1.2952
   31MOL0     H 4240   2.421   8.264  -0.209 -0.2888  1.2105 -1.3499
   31MOL0     H 4241   2.339   8.409  -0.409  0.1080  1.3312  0.3125
   31MOL0     H 4242   2.376   8.819  -0.518 -0.8447 -0.3496 -0.8272
   31MOL0     H 4243   2.465   8.797  -0.369 -0.7866 -1.2367  0.3811
   31MOL0     H 4244   2.506   8.558  -0.520 -3.8714 -1.0337 -2.4982
   31MOL0     H 4245   2.497   8.679  -0.647  3.3837  0.2207  0.1469
   31MOL0     H 4246   2.731   8.601  -0.541  0.8375  1.5163 -1.9506
   31MOL0     H 4247   2.687   8.714  -0.404  2.7887 -1.8052  0.0960
   31MOL0     H 4248   2.642   8.896  -0.566  1.0789  1.8252  2.9634
   31MOL0     H 4249   2.732   8.809  -0.681 -2.3608  0.4986 -0.0589
   31MOL0     H 4250   2.824   8.866  -0.383  1.1822 -1.2105  0.7495
   31MOL0     H 4251   2.930   8.826  -0.515 -0.0677  3.1174 -0.6441
   31MOL0     H 4252   2.771   9.069  -0.487 -1.2828 -4.9438  1.9733
   31MOL0     H 4253   2.827   9.020  -0.643  1.6459  1.9582  0.1871
   31MOL0     H 4254   2.993   9.180  -0.536 -2.7709 -0.9070 -0.8927
   31MOL0     H 4255   3.068   9.018  -0.525  0.5466  0.7212 -0.2638
   31MOL0     H 4256   3.097   9.157  -0.325  0.5175 -0.4232 -0.7483
   31MOL0     H 4257   3.008   9.016  -0.279  2.5576  0.4628  1.7102
   31MOL0     H 4258   2.353   8.754  -0.162  1.1582 -0.3682 -1.2142
   31MOL0     H 4259   2.454   8.623   0.015 -0.7187 -0.5436  0.6354
   31MOL0     H 4260   2.454   8.173   0.196 -0.2833 -1.4335  0.5943
   31MOL0     H 4261   2.520   7.996   0.330 -3.0895  2.4402 -2.2179
   31MOL0     H 4262   2.623   6.514   1.178 -0.3282 -0.7129  0.2009
   31MOL0     H 4263   2.608   6.345   1.002  0.4685  0.7994  2.0397
   31MOL0     H 4264   2.486   5.973   0.771  5.7934  0.0525 -1.1100
   31MOL0     H 4265   2.490   5.830   0.571 -0.7736 -0.8187  0.3024
   31MOL0     H 4266   2.577   5.741   0.340 -0.9825 -2.9075 -1.6289
   31MOL0     H 4267   2.401   5.751   0.381 -0.5767  0.8124  0.1588
   31MOL0     H 4268   2.498   5.798   0.101 -0.0738  2.0726  1.9943
   31MOL0     H 4269   2.340   5.734   0.148 -0.6422 -3.5155  1.1537
   31MOL0     H 4270   2.566   5.587   0.074  0.2004  0.9328  0.9696
   31MOL0     H 4271   2.564   5.547   0.242  0.0501  1.5708 -0.1124
   31MOL0     H 4272   2.334   5.500   0.060  1.0589  3.0663 -0.2490
   31MOL0     H 4273   2.335   5.486   0.237 -0.5407  0.2595 -1.0568
   31MOL0     H 4274   2.566   5.157   0.154  0.2739  0.0449 -1.2221
   31MOL0     H 4275   2.459   6.182   0.325  0.5714  1.8983  0.3323
   31MOL0     H 4276   2.537   6.415   0.562 -0.8713 -0.1838  0.7387
   31MOL0     H 4277   2.481   6.394   0.406  1.8672  1.1634  0.6115
   31MOL0     H 4278   2.354   6.412   0.524 -1.2458  0.2403 -0.7550
   32MOL0     O 4279  10.212   9.303   5.224 -0.3116 -0.1891 -0.4612
   32MOL0     C 4280  10.151   9.408   5.231 -0.1749 -0.9855 -0.7982
   32MOL0     O 4281  10.204   9.522   5.305 -0.2693  0.2089  0.4619
   32MOL0     C 4282  10.331   9.510   5.360  0.2627  0.7601  0.2742
   32MOL0     C 4283  10.346   9.559   5.490 -0.2218  1.2892 -0.1807
   32MOL0     C 4284  10.474   9.557   5.546  1.4342  0.5229 -0.3641
   32MOL0     C 4285  10.592   9.531   5.479  0.1748  0.4595  0.4906
   32MOL0     O 4286  10.707   9.563   5.543 -0.1305 -0.2390 -0.1406
   32MOL0     C 4287  10.828   9.528   5.477  0.2620  0.7801 -0.3564
   32MOL0     C 4288  10.939   9.486   5.569  1.4187  0.1143 -0.1424
   32MOL0     C 4289  11.075   9.463   5.509  0.1997 -0.2927 -0.0458
   32MOL0     C 4290  11.169   9.461   5.632  0.3570  0.0609  0.0287
   32MOL0     C 4291  11.304   9.425   5.580 -0.6383 -0.1211  0.8299
   32MOL0     C 4292  11.402   9.401   5.704  0.3953  0.2071 -0.2298
   32MOL0     C 4293  11.529   9.315   5.681 -0.1272 -0.6442  0.5750
   32MOL0     C 4294  11.598   9.369   5.558 -0.1782  0.3751 -0.3797
   32MOL0     N 4295  11.731   9.308   5.548 -0.3628 -0.3852  0.0094
   32MOL0     C 4296  11.780   9.230   5.443 -0.3309 -0.4645 -0.0669
   32MOL0     C 4297  11.911   9.236   5.444  0.2551  0.2628  0.1499
   32MOL0     C 4298  12.000   9.150   5.359 -0.4252 -0.7294  0.2217
   32MOL0     C 4299  12.108   9.226   5.276  0.1861 -0.5256 -1.2429
   32MOL0     C 4300  12.230   9.265   5.360  0.2621  0.0820 -0.0428
   32MOL0     C 4301  12.327   9.364   5.292  0.2210  0.8614  0.7924
   32MOL0     O 4302  12.340   9.325   5.151  0.4476 -0.4680  0.9558
   32MOL0     C 4303  12.424   9.395   5.071  0.6039  0.1354 -0.5309
   32MOL0     C 4304  12.525   9.496   5.108 -0.5380  0.1328 -0.3114
   32MOL0     C 4305  12.606   9.557   5.010  0.9680 -0.6397  0.0530
   32MOL0     C 4306  12.705   9.650   5.069  0.8985 -0.9509 -0.2366
   32MOL0     C 4307  12.585   9.516   4.876 -0.3127  0.8331  0.2523
   32MOL0     C 4308  12.669   9.562   4.767 -0.0473  0.2501  0.8337
   32MOL0     O 4309  12.735   9.468   4.692  0.3607  0.2327 -0.0736
   32MOL0     C 4310  12.788   9.512   4.574 -0.8662 -0.2811 -0.2419
   32MOL0     C 4311  12.926   9.513   4.554 -0.7786 -1.4518 -0.3613
   32MOL0     C 4312  12.970   9.549   4.433 -1.3584  0.4003  0.6029
   32MOL0     C 4313  12.892   9.591   4.318 -0.4163  0.0944 -0.1704
   32MOL0     O 4314  12.960   9.625   4.201 -0.2382  0.2923 -0.8110
   32MOL0     C 4315  12.878   9.653   4.091  0.0274  0.3025  0.0226
   32MOL0     C 4316  12.970   9.705   3.985  0.4722 -0.0030  0.4456
   32MOL0     C 4317  12.886   9.762   3.864 -0.7857 -0.3533 -0.1636
   32MOL0     C 4318  12.913   9.680   3.737  0.2485 -0.1531 -0.3698
   32MOL0     C 4319  12.814   9.719   3.619  0.6956 -0.0718  1.2313
   32MOL0     C 4320  12.666   9.709   3.658  0.5246  1.0439 -0.5060
   32MOL0     C 4321  12.569   9.718   3.548 -0.0185  0.7400 -0.1840
   32MOL0     C 4322  12.522   9.584   3.485  0.4688  0.6938  0.3849
   32MOL0    Cl 4323  12.410   9.599   3.342 -0.4426  0.0068 -0.1735
   32MOL0     C 4324  12.758   9.589   4.342  1.0359  0.5187  0.2120
   32MOL0     C 4325  12.707   9.544   4.465  1.0734 -0.1557  0.5015
   32MOL0     O 4326  12.675   9.683   4.753  0.2133 -0.2489  0.2815
   32MOL0     C 4327  12.496   9.412   4.843 -0.1628  0.1974 -0.2019
   32MOL0     C 4328  12.406   9.358   4.945 -0.1078  0.5333 -0.8011
   32MOL0     N 4329  11.949   9.326   5.553  0.9664 -0.5270  0.1904
   32MOL0     N 4330  11.840   9.367   5.607  0.0659  0.2024  0.2678
   32MOL0     C 4331  10.578   9.488   5.344 -0.9347 -0.8435  0.4101
   32MOL0     C 4332  10.453   9.495   5.282 -0.3273  0.3493  0.2790
   32MOL0     C 4333  10.016   9.424   5.165  0.9423  0.0630  0.0663
   32MOL0     C 4334   9.964   9.552   5.155 -0.4703 -0.6779 -0.6248
   32MOL0     C 4335   9.845   9.582   5.087 -1.4371  0.3537 -0.1771
   32MOL0     C 4336   9.771   9.480   5.043  0.0796  0.3425  0.2309
   32MOL0     O 4337   9.641   9.496   4.988 -0.7226 -0.2481 -0.4686
   32MOL0     C 4338   9.571   9.621   5.005 -0.5552  0.3838  0.0817
   32MOL0     C 4339   9.431   9.610   4.932  0.3432 -0.3537 -1.2287
   32MOL0     C 4340   9.421   9.658   4.789  0.3745 -0.1224  0.1248
   32MOL0     C 4341   9.281   9.712   4.748  0.3189 -0.3424  0.4876
   32MOL0     C 4342   9.272   9.848   4.793 -0.7893  0.6055  1.0536
   32MOL0     C 4343   9.275   9.963   4.810 -0.1709  0.1448  0.3477
   32MOL0     C 4344   9.819   9.354   5.038 -1.0683  0.8781  0.6986
   32MOL0     C 4345   9.944   9.322   5.097  0.4917  0.3114  0.8830
   32MOL0     C 4346  10.007   9.179   5.095  0.6731  0.7224 -0.1906
   32MOL0     H 4347  10.260   9.573   5.554 -1.2023  1.0461 -1.4299
   32MOL0     H 4348  10.482   9.595   5.648 -3.5175  0.7551  0.1773
   32MOL0     H 4349  10.858   9.608   5.409 -2.2312  1.6198 -0.5755
   32MOL0     H 4350  10.820   9.435   5.420  0.3510 -1.7910  3.4713
   32MOL0     H 4351  10.943   9.569   5.641  3.7627 -2.2459  2.7160
   32MOL0     H 4352  10.914   9.399   5.630 -1.2655 -0.4453 -1.8921
   32MOL0     H 4353  11.075   9.360   5.472 -1.0446 -0.9291  1.5873
   32MOL0     H 4354  11.106   9.543   5.442 -0.3222  0.6183  0.7659
   32MOL0     H 4355  11.169   9.556   5.687 -1.0911 -0.6776  1.4132
   32MOL0     H 4356  11.125   9.383   5.696 -2.5717 -0.1695 -2.0461
   32MOL0     H 4357  11.351   9.500   5.516  0.6653 -0.7780  0.9980
   32MOL0     H 4358  11.292   9.330   5.527  2.9010  0.5271 -1.4191
   32MOL0     H 4359  11.428   9.498   5.748 -0.3297  0.4718 -0.3704
   32MOL0     H 4360  11.342   9.343   5.774 -0.9171  0.3674 -1.1938
   32MOL0     H 4361  11.525   9.206   5.687  2.8758 -0.7761  2.3654
   32MOL0     H 4362  11.590   9.339   5.769 -2.1679  0.6455  1.7381
   32MOL0     H 4363  11.543   9.353   5.465  0.2689 -1.1014 -0.4166
   32MOL0     H 4364  11.603   9.477   5.575 -3.5833  0.0530  4.6310
   32MOL0     H 4365  11.730   9.167   5.370 -0.8139  0.0395 -0.1792
   32MOL0     H 4366  11.941   9.099   5.282 -1.3814  3.4165 -2.1399
   32MOL0     H 4367  12.049   9.082   5.430  0.1005 -0.7699 -0.1702
   32MOL0     H 4368  12.148   9.168   5.191  3.9369  0.8275 -0.5953
   32MOL0     H 4369  12.047   9.311   5.243 -1.3844 -0.8554  0.6637
   32MOL0     H 4370  12.189   9.302   5.454  1.2658  1.0963  0.0214
   32MOL0     H 4371  12.282   9.170   5.379 -0.3524 -0.6471 -1.8082
   32MOL0     H 4372  12.277   9.460   5.304  0.4583  1.0291  0.4396
   32MOL0     H 4373  12.424   9.366   5.344  1.6274 -2.5387 -1.3177
   32MOL0     H 4374  12.543   9.518   5.213  2.3136 -0.2617 -0.6273
   32MOL0     H 4375  12.706   9.728   4.992 -2.5520 -1.3171 -0.8442
   32MOL0     H 4376  12.800   9.599   5.084  0.6526 -0.5104  4.2599
   32MOL0     H 4377  12.669   9.694   5.163  2.2631 -0.8946  0.2805
   32MOL0     H 4378  12.985   9.481   4.640  2.1918  1.8205 -0.9601
   32MOL0     H 4379  13.078   9.551   4.422 -1.6164  0.3896 -3.9154
   32MOL0     H 4380  12.836   9.561   4.048  2.4033  0.1170 -2.1849
   32MOL0     H 4381  12.794   9.720   4.109  0.3273  0.9167 -0.7870
   32MOL0     H 4382  13.017   9.794   4.028  0.9306  0.4889 -1.0356
   32MOL0     H 4383  13.050   9.636   3.957  0.2137  0.2308 -0.9537
   32MOL0     H 4384  12.886   9.871   3.854 -1.1996 -0.3337  0.0219
   32MOL0     H 4385  12.783   9.742   3.894 -0.0017 -0.7857  2.5083
   32MOL0     H 4386  12.906   9.573   3.756  0.2226 -0.2759 -1.0690
   32MOL0     H 4387  13.016   9.695   3.702 -0.0175  3.2546 -0.0990
   32MOL0     H 4388  12.836   9.821   3.586 -3.2580  0.1486 -1.5407
   32MOL0     H 4389  12.831   9.657   3.530 -0.2494  0.2287  0.8289
   32MOL0     H 4390  12.650   9.794   3.726 -0.0557 -0.4593  1.3434
   32MOL0     H 4391  12.647   9.611   3.705  0.7880  0.2018 -2.1022
   32MOL0     H 4392  12.621   9.773   3.469  0.1934  0.5157 -0.2013
   32MOL0     H 4393  12.486   9.780   3.582  0.4774  1.2290  0.1388
   32MOL0     H 4394  12.475   9.521   3.562 -0.4812 -1.4185 -1.8071
   32MOL0     H 4395  12.607   9.532   3.439 -0.2649  2.5728 -3.5113
   32MOL0     H 4396  12.686   9.615   4.266  0.6127  2.7207  1.2808
   32MOL0     H 4397  12.600   9.529   4.471  1.0806 -1.4120 -1.4982
   32MOL0     H 4398  12.496   9.368   4.744 -1.6798 -1.7399  0.6010
   32MOL0     H 4399  12.333   9.287   4.908 -0.4608  3.3033 -6.4841
   32MOL0     H 4400  10.659   9.458   5.279 -0.3688 -1.1783  1.2573
   32MOL0     H 4401  10.442   9.467   5.178  3.0212  1.0204 -0.3787
   32MOL0     H 4402  10.020   9.633   5.200  0.7235 -0.1369 -2.9409
   32MOL0     H 4403   9.822   9.687   5.069  0.6237  0.8092 -0.4664
   32MOL0     H 4404   9.563   9.635   5.113  3.0639  1.7883  0.3077
   32MOL0     H 4405   9.641   9.697   4.968  2.5773 -1.1947  2.3728
   32MOL0     H 4406   9.374   9.672   5.002 -2.6529 -3.0000 -1.0901
   32MOL0     H 4407   9.387   9.511   4.949 -0.1774 -0.0743 -0.9230
   32MOL0     H 4408   9.500   9.732   4.771  0.6917 -0.7357 -1.1724
   32MOL0     H 4409   9.451   9.576   4.722  1.0947 -1.8398  2.4288
   32MOL0     H 4410   9.192   9.657   4.779  1.0677 -1.8651  0.0083
   32MOL0     H 4411   9.276   9.711   4.638  1.5907  0.8839  0.3925
   32MOL0     H 4412   9.259  10.060   4.852  1.2373  0.7373 -0.4025
   32MOL0     H 4413   9.768   9.279   4.979  0.8451 -0.5488  0.7395
   32MOL0     H 4414  10.105   9.195   5.048  1.2845  1.4112  1.2664
   32MOL0     H 4415  10.017   9.146   5.199 -2.1434  1.6285  0.4377
   32MOL0     H 4416   9.953   9.106   5.033  1.8209 -1.0243  0.7757
   33MOL0     O 4417   2.135   7.342   4.172 -0.1497 -0.7921 -0.4566
   33MOL0     C 4418   2.169   7.294   4.280 -0.4734 -0.0330  0.8467
   33MOL0     O 4419   2.279   7.203   4.296 -0.3908  0.0001  0.3268
   33MOL0     C 4420   2.357   7.170   4.186 -0.5085 -0.2511 -1.4083
   33MOL0     C 4421   2.323   7.055   4.127 -0.4042  0.1287 -0.3419
   33MOL0     C 4422   2.393   7.001   4.008  0.4581 -0.9269 -0.7437
   33MOL0     C 4423   2.494   7.082   3.955  0.0737 -0.0362 -0.0406
   33MOL0     O 4424   2.570   7.045   3.847 -0.2293 -0.1473 -0.4325
   33MOL0     C 4425   2.646   6.921   3.855  0.1209 -0.2438  0.7278
   33MOL0     C 4426   2.770   6.945   3.780  0.4292  0.7963 -0.0587
   33MOL0     C 4427   2.857   7.046   3.847  0.2227 -0.4463  0.5547
   33MOL0     C 4428   2.953   7.121   3.758 -0.4821 -0.1630 -0.5686
   33MOL0     C 4429   3.043   7.026   3.679  0.3392  0.3818 -0.5763
   33MOL0     C 4430   3.138   7.109   3.584  0.2339  0.0960  0.1387
   33MOL0     C 4431   3.237   7.017   3.518 -0.3246  0.4362 -0.1169
   33MOL0     C 4432   3.335   7.087   3.421 -0.4804 -0.3188  0.9430
   33MOL0     N 4433   3.437   7.155   3.497  0.5039  1.3024 -0.4000
   33MOL0     C 4434   3.434   7.283   3.532  0.2372  1.2599 -0.0528
   33MOL0     C 4435   3.544   7.299   3.602 -0.3149 -0.3266  0.3785
   33MOL0     C 4436   3.603   7.428   3.656  0.1903 -0.0382 -0.5807
   33MOL0     C 4437   3.660   7.529   3.555  0.5271 -0.9757 -1.0010
   33MOL0     C 4438   3.801   7.481   3.506 -0.0762  0.0574 -0.4457
   33MOL0     C 4439   3.844   7.574   3.386 -0.4507  1.4978  0.7523
   33MOL0     O 4440   3.839   7.707   3.435  0.0798 -0.2751  0.3577
   33MOL0     C 4441   3.915   7.793   3.359 -0.6205 -0.2261  0.0972
   33MOL0     C 4442   3.934   7.925   3.405 -0.1229  0.3120 -0.7772
   33MOL0     C 4443   3.997   8.027   3.341 -0.9821  0.8830  0.8991
   33MOL0     C 4444   4.007   8.162   3.399 -0.3196 -0.7120 -0.8590
   33MOL0     C 4445   4.049   7.997   3.211 -0.2535 -0.3048 -0.3321
   33MOL0     C 4446   4.132   8.092   3.126  0.9203 -0.1283  0.0364
   33MOL0     O 4447   4.158   8.049   3.002  0.1542 -0.3469  0.4969
   33MOL0     C 4448   4.234   8.116   2.908 -0.1557 -0.1045  0.8578
   33MOL0     C 4449   4.194   8.105   2.770  0.1549  0.3231 -0.8483
   33MOL0     C 4450   4.267   8.170   2.670 -0.4386 -0.1397 -0.0591
   33MOL0     C 4451   4.382   8.242   2.697 -0.3223 -0.1175 -0.0191
   33MOL0     O 4452   4.441   8.324   2.610  0.2759  0.2911  0.4617
   33MOL0     C 4453   4.388   8.341   2.472 -0.0938 -0.0994  0.6705
   33MOL0     C 4454   4.486   8.427   2.376  0.0374  0.0248  0.8680
   33MOL0     C 4455   4.411   8.486   2.259  0.1530 -0.4174 -0.3074
   33MOL0     C 4456   4.410   8.636   2.259  0.6856  0.4976 -0.2411
   33MOL0     C 4457   4.317   8.682   2.146  0.6372  0.1837  0.1380
   33MOL0     C 4458   4.250   8.820   2.157  0.1683  0.1829 -0.3709
   33MOL0     C 4459   4.349   8.931   2.187  0.4149 -1.1772 -0.1658
   33MOL0     C 4460   4.336   8.981   2.329 -0.1690 -0.3077  0.9359
   33MOL0    Cl 4461   4.176   9.049   2.366  0.5269 -0.5791  0.0423
   33MOL0     C 4462   4.431   8.240   2.826  0.7821  0.4145  0.0546
   33MOL0     C 4463   4.358   8.179   2.930  0.0048  0.3419  0.7363
   33MOL0     O 4464   4.181   8.196   3.172  0.1813  0.2368  0.9543
   33MOL0     C 4465   4.043   7.866   3.163  1.5357  0.3930 -0.6859
   33MOL0     C 4466   3.973   7.769   3.238 -0.2574  0.5103 -0.1596
   33MOL0     N 4467   3.616   7.183   3.602  0.0004 -0.0737  0.7170
   33MOL0     N 4468   3.554   7.086   3.538 -0.1373 -0.5000  0.4125
   33MOL0     C 4469   2.512   7.211   4.014  0.1619  0.0938 -0.4658
   33MOL0     C 4470   2.451   7.253   4.130  0.7326  0.8818 -0.6655
   33MOL0     C 4471   2.090   7.332   4.396 -0.7879 -0.1496 -0.2186
   33MOL0     C 4472   2.125   7.292   4.523 -0.2813  0.2809  0.2456
   33MOL0     C 4473   2.060   7.332   4.648  0.1468 -0.7029  0.0593
   33MOL0     C 4474   1.949   7.417   4.636  0.7468  1.0005  0.0758
   33MOL0     O 4475   1.874   7.458   4.745 -0.2601 -0.2278  0.2965
   33MOL0     C 4476   1.954   7.548   4.829  0.2389 -1.0800 -0.3896
   33MOL0     C 4477   1.884   7.591   4.945 -0.7228  1.0647  0.3464
   33MOL0     C 4478   1.996   7.616   5.050  0.3811  1.1358  0.3204
   33MOL0     C 4479   1.937   7.671   5.181  0.5317  0.1514  0.1380
   33MOL0     C 4480   1.852   7.581   5.253 -0.9335 -0.1141 -0.2878
   33MOL0     C 4481   1.785   7.509   5.317 -0.5191  0.4646  0.3564
   33MOL0     C 4482   1.921   7.466   4.513  0.5654  0.4857 -0.6093
   33MOL0     C 4483   1.989   7.440   4.394  0.5514  0.1207  0.1666
   33MOL0     C 4484   1.957   7.514   4.269 -0.3939  0.2808  0.4747
   33MOL0     H 4485   2.240   6.999   4.170  0.7260 -0.9873  0.5041
   33MOL0     H 4486   2.385   6.903   3.961  2.8811 -1.3473 -0.4135
   33MOL0     H 4487   2.586   6.845   3.805  0.5392  0.0266 -0.2089
   33MOL0     H 4488   2.673   6.896   3.958  1.2611  1.1985  0.8131
   33MOL0     H 4489   2.827   6.852   3.768  0.6674  0.9712 -0.2908
   33MOL0     H 4490   2.742   6.976   3.679  0.9540  0.9919 -0.1453
   33MOL0     H 4491   2.796   7.128   3.886  1.7595  1.8974 -1.6493
   33MOL0     H 4492   2.909   7.001   3.932  1.3917 -0.4300 -0.1256
   33MOL0     H 4493   2.900   7.185   3.686 -0.6175 -1.8631 -2.0532
   33MOL0     H 4494   3.017   7.185   3.819 -3.3032  0.2719  2.1791
   33MOL0     H 4495   2.986   6.959   3.614 -1.6523  0.2758  1.1877
   33MOL0     H 4496   3.095   6.961   3.750 -0.4808  0.3834  0.0252
   33MOL0     H 4497   3.074   7.168   3.517 -0.0237  1.1356  1.2555
   33MOL0     H 4498   3.193   7.178   3.649 -0.5718  1.0554 -0.1581
   33MOL0     H 4499   3.179   6.948   3.456 -1.0209  0.8437  0.0771
   33MOL0     H 4500   3.283   6.949   3.590 -2.5524  0.0087  0.9767
   33MOL0     H 4501   3.382   7.015   3.354  1.3597  1.5006  0.1519
   33MOL0     H 4502   3.290   7.149   3.344  0.5072  0.2116  0.7659
   33MOL0     H 4503   3.354   7.350   3.502 -0.4235  1.4527  2.0070
   33MOL0     H 4504   3.681   7.397   3.726 -2.8433 -0.8908  2.6893
   33MOL0     H 4505   3.532   7.480   3.720  1.3606  1.0619 -0.1387
   33MOL0     H 4506   3.582   7.531   3.478 -1.2848  1.2229  0.7574
   33MOL0     H 4507   3.665   7.626   3.604  1.1904 -1.5160  0.0436
   33MOL0     H 4508   3.875   7.479   3.586  1.3290  0.4541 -1.6985
   33MOL0     H 4509   3.797   7.375   3.478 -1.1312  0.2740 -1.1792
   33MOL0     H 4510   3.947   7.547   3.363 -1.2873 -3.7628  1.9616
   33MOL0     H 4511   3.776   7.567   3.300  1.7560  1.7085 -1.1219
   33MOL0     H 4512   3.884   7.941   3.500  0.4743 -3.2812  0.2900
   33MOL0     H 4513   4.114   8.169   3.420 -0.7746  3.1648  1.0492
   33MOL0     H 4514   3.956   8.176   3.495  1.2815 -1.0036  0.0747
   33MOL0     H 4515   3.990   8.252   3.338  0.9938  0.7643  0.8260
   33MOL0     H 4516   4.113   8.039   2.742 -0.5742  0.4692  0.7583
   33MOL0     H 4517   4.231   8.141   2.571 -2.2909 -0.7844  0.7576
   33MOL0     H 4518   4.385   8.244   2.421 -4.2172  0.0146  0.3654
   33MOL0     H 4519   4.288   8.384   2.460  0.1309  0.3243  0.2981
   33MOL0     H 4520   4.542   8.500   2.434  4.4081 -2.0820 -0.2695
   33MOL0     H 4521   4.564   8.359   2.341 -2.6935 -3.5975  1.1997
   33MOL0     H 4522   4.311   8.443   2.264  0.1946 -0.4089  0.9107
   33MOL0     H 4523   4.458   8.465   2.163  1.7164 -1.9260  0.7328
   33MOL0     H 4524   4.513   8.675   2.261  1.9745 -2.5738  2.9960
   33MOL0     H 4525   4.368   8.657   2.358  1.1554 -0.7358  0.2422
   33MOL0     H 4526   4.367   8.685   2.048 -0.3594 -0.4123 -0.4003
   33MOL0     H 4527   4.235   8.611   2.131  1.9496 -1.0743 -1.5183
   33MOL0     H 4528   4.176   8.821   2.237  0.0162  0.3594 -0.5150
   33MOL0     H 4529   4.202   8.836   2.061  3.4452 -0.6340 -2.3084
   33MOL0     H 4530   4.312   9.011   2.122  0.8530 -2.2754 -1.8198
   33MOL0     H 4531   4.452   8.903   2.160  0.0714 -1.7105 -0.9635
   33MOL0     H 4532   4.412   9.059   2.343  0.6646 -0.9521  0.1145
   33MOL0     H 4533   4.356   8.906   2.406 -0.2038 -2.5283 -1.1447
   33MOL0     H 4534   4.522   8.294   2.848 -0.8259  3.4445 -0.1679
   33MOL0     H 4535   4.401   8.177   3.030  0.7877 -0.9729  0.4097
   33MOL0     H 4536   4.069   7.843   3.060 -3.9455 -2.2320 -1.8578
   33MOL0     H 4537   3.957   7.675   3.186 -2.5141  0.7684 -0.0520
   33MOL0     H 4538   2.592   7.276   3.980  2.6109 -3.7437 -2.7493
   33MOL0     H 4539   2.471   7.349   4.177  0.1437  0.4223  0.5627
   33MOL0     H 4540   2.196   7.212   4.544  0.5984  0.3708 -2.1272
   33MOL0     H 4541   2.094   7.299   4.745 -0.4592 -2.5719 -0.3292
   33MOL0     H 4542   2.043   7.490   4.856 -1.0167 -1.7767  2.7160
   33MOL0     H 4543   1.971   7.632   4.761 -1.3805 -2.3026 -2.4061
   33MOL0     H 4544   1.805   7.520   4.973 -1.4139  1.9662  0.7521
   33MOL0     H 4545   1.834   7.688   4.927 -0.6993  1.1325  0.6467
   33MOL0     H 4546   2.040   7.517   5.065  3.0781  1.8209 -2.1900
   33MOL0     H 4547   2.062   7.684   4.995  4.4942 -1.4051  1.6444
   33MOL0     H 4548   1.887   7.767   5.166 -1.2993 -0.4423  1.9313
   33MOL0     H 4549   2.018   7.692   5.251  0.3087 -1.5223  0.9554
   33MOL0     H 4550   1.722   7.452   5.382 -0.2028 -0.3392 -0.0350
   33MOL0     H 4551   1.848   7.543   4.492  2.1111  1.2352 -3.8020
   33MOL0     H 4552   1.888   7.465   4.201 -1.0195 -0.2718  1.4825
   33MOL0     H 4553   1.911   7.610   4.296  1.2183  1.0770  0.5118
   33MOL0     H 4554   2.047   7.542   4.214 -1.8548  2.4005 -0.9941
   34MOL0     O 4555   1.773   5.088   9.316  0.2265 -0.0785 -0.5174
   34MOL0     C 4556   1.689   5.142   9.245  0.2404 -0.4421  0.0834
   34MOL0     O 4557   1.699   5.142   9.102  1.2797  0.4563 -0.6520
   34MOL0     C 4558   1.789   5.050   9.057  0.5996  0.1034 -0.0584
   34MOL0     C 4559   1.923   5.083   9.053 -0.4355  0.5451 -0.1877
   34MOL0     C 4560   2.016   4.984   8.999  0.8754 -0.6716  0.4022
   34MOL0     C 4561   1.967   4.866   8.951 -0.2826  0.2136 -0.4018
   34MOL0     O 4562   2.035   4.761   8.903 -0.4731 -0.1400 -0.0004
   34MOL0     C 4563   2.041   4.769   8.760  0.4537 -1.4835  0.1620
   34MOL0     C 4564   2.072   4.636   8.705 -0.5642 -0.3848  0.0380
   34MOL0     C 4565   1.949   4.543   8.694 -1.0467  0.8038  0.0780
   34MOL0     C 4566   1.868   4.562   8.564 -0.4309 -0.3277  0.6213
   34MOL0     C 4567   1.734   4.487   8.564  0.2838  0.3817 -0.0379
   34MOL0     C 4568   1.674   4.445   8.424  0.0821  0.5906 -0.0480
   34MOL0     C 4569   1.672   4.567   8.321 -0.2262 -0.1257 -0.0471
   34MOL0     C 4570   1.569   4.665   8.339  0.4553  0.1780 -1.1972
   34MOL0     N 4571   1.436   4.614   8.360  0.0461 -0.5972 -0.4354
   34MOL0     C 4572   1.366   4.616   8.481  0.2266  1.0595  0.9944
   34MOL0     C 4573   1.241   4.562   8.442 -0.5330 -0.0973  0.6277
   34MOL0     C 4574   1.131   4.550   8.542 -0.1810 -0.0356 -0.5926
   34MOL0     C 4575   1.085   4.688   8.577 -0.7521  0.6735 -1.2399
   34MOL0     C 4576   0.967   4.672   8.681  0.4531  0.6886 -0.6221
   34MOL0     C 4577   0.921   4.800   8.741  0.4464 -0.7299 -0.0781
   34MOL0     O 4578   0.931   4.918   8.648 -0.2634  0.6421 -0.0951
   34MOL0     C 4579   0.904   5.039   8.711  0.4729 -0.2946  0.1124
   34MOL0     C 4580   1.002   5.137   8.689 -0.5047  0.4157 -0.3520
   34MOL0     C 4581   0.999   5.263   8.747  0.4354 -0.1262 -0.5178
   34MOL0     C 4582   1.111   5.365   8.721 -0.3805 -0.2692  0.2338
   34MOL0     C 4583   0.901   5.296   8.848  0.9239 -1.0021 -0.9036
   34MOL0     C 4584   0.910   5.415   8.930  0.0610  0.6902  0.3813
   34MOL0     O 4585   0.963   5.530   8.878  0.2706  0.3145  0.0374
   34MOL0     C 4586   0.966   5.632   8.960  0.2034 -0.1679  0.0075
   34MOL0     C 4587   1.057   5.635   9.058  0.0127 -0.9950  0.9041
   34MOL0     C 4588   1.063   5.739   9.149  1.1518  0.3421 -0.1277
   34MOL0     C 4589   0.967   5.845   9.145 -0.4755 -0.7807  0.1622
   34MOL0     O 4590   0.970   5.958   9.222 -0.4741  0.1013 -0.0590
   34MOL0     C 4591   1.106   5.986   9.285  0.9174  0.5813 -0.4277
   34MOL0     C 4592   1.118   6.136   9.326 -0.5522 -0.4945  0.2998
   34MOL0     C 4593   1.011   6.173   9.423 -0.1482  0.2977  0.1408
   34MOL0     C 4594   1.055   6.306   9.495  0.2301  0.3964 -0.3510
   34MOL0     C 4595   0.957   6.334   9.608  1.1204  0.1458  0.4955
   34MOL0     C 4596   0.813   6.364   9.582  1.2060 -0.2856 -0.4563
   34MOL0     C 4597   0.709   6.363   9.699  0.3775 -0.3219 -1.3919
   34MOL0     C 4598   0.728   6.486   9.784 -0.2340  0.4734 -0.6500
   34MOL0    Cl 4599   0.661   6.649   9.733 -0.2618  0.1767  0.5164
   34MOL0     C 4600   0.870   5.847   9.042 -1.2034  0.0191  0.0034
   34MOL0     C 4601   0.870   5.741   8.948  0.1253  0.0378  0.0169
   34MOL0     O 4602   0.871   5.404   9.046 -0.2836 -0.2529 -0.1964
   34MOL0     C 4603   0.808   5.194   8.872  0.7638  0.3957 -0.1607
   34MOL0     C 4604   0.797   5.074   8.800  0.8648 -0.0266  0.2989
   34MOL0     N 4605   1.250   4.529   8.309 -0.0906 -0.4460  0.1791
   34MOL0     N 4606   1.360   4.565   8.262 -0.1053  0.1589  0.2986
   34MOL0     C 4607   1.828   4.835   8.958 -0.6083  0.7138 -0.3486
   34MOL0     C 4608   1.739   4.923   9.007  0.7649 -0.0159  0.3660
   34MOL0     C 4609   1.579   5.225   9.301 -0.4302 -0.8618 -0.0053
   34MOL0     C 4610   1.494   5.301   9.209  1.0554 -0.0656  0.5116
   34MOL0     C 4611   1.383   5.367   9.246 -0.2284 -0.4773 -0.1914
   34MOL0     C 4612   1.339   5.358   9.380  0.4294  0.4218 -0.1222
   34MOL0     O 4613   1.229   5.411   9.432  0.6032 -0.0092 -0.6767
   34MOL0     C 4614   1.117   5.452   9.363 -0.7831  0.8457  0.2772
   34MOL0     C 4615   0.990   5.389   9.426  0.7179  0.7517  0.4471
   34MOL0     C 4616   0.986   5.419   9.570 -0.0185  0.9911 -0.5335
   34MOL0     C 4617   0.844   5.464   9.621 -1.2512  0.5387 -0.3702
   34MOL0     C 4618   0.728   5.378   9.619  0.0911 -0.6440 -0.1434
   34MOL0     C 4619   0.620   5.315   9.600 -0.1750  1.3874 -0.1808
   34MOL0     C 4620   1.413   5.290   9.473 -0.8631  0.3316  0.0310
   34MOL0     C 4621   1.535   5.226   9.436  0.0423 -0.1198 -1.2469
   34MOL0     C 4622   1.599   5.152   9.550  0.4172 -0.2778  1.3572
   34MOL0     H 4623   1.966   5.165   9.111 -1.5269 -0.4534  2.1984
   34MOL0     H 4624   2.124   4.998   8.992  0.9218 -0.6076  1.1530
   34MOL0     H 4625   2.112   4.843   8.722 -1.9295  1.0617  0.3700
   34MOL0     H 4626   1.943   4.796   8.721 -1.4162 -1.7799  4.1760
   34MOL0     H 4627   2.121   4.640   8.608  0.5274  1.1934  0.6183
   34MOL0     H 4628   2.147   4.607   8.780 -1.1986  1.9980  1.7324
   34MOL0     H 4629   1.989   4.442   8.687  1.2932  1.6813 -0.0025
   34MOL0     H 4630   1.890   4.541   8.786 -0.6559 -0.8328  0.3196
   34MOL0     H 4631   1.844   4.667   8.540 -2.7637 -0.8120  0.5738
   34MOL0     H 4632   1.930   4.529   8.480  0.0953 -0.5149  1.0775
   34MOL0     H 4633   1.666   4.560   8.608 -2.5505 -0.2307 -2.9802
   34MOL0     H 4634   1.748   4.395   8.622 -1.1409  1.0804  1.5038
   34MOL0     H 4635   1.739   4.365   8.388 -0.0231  0.6498 -0.3756
   34MOL0     H 4636   1.574   4.402   8.430 -0.2603  1.5091  4.3602
   34MOL0     H 4637   1.652   4.522   8.224  2.0718 -0.2873 -0.4981
   34MOL0     H 4638   1.766   4.622   8.313 -0.7684  0.5350 -2.7618
   34MOL0     H 4639   1.584   4.716   8.434 -0.7530  5.3227 -3.4456
   34MOL0     H 4640   1.568   4.739   8.258 -2.4711  1.2120 -0.3288
   34MOL0     H 4641   1.397   4.650   8.579  0.3458  0.9765  0.9863
   34MOL0     H 4642   1.158   4.488   8.628  0.6756  1.3073  0.1520
   34MOL0     H 4643   1.050   4.494   8.494 -2.0644  0.3408  1.9646
   34MOL0     H 4644   1.168   4.737   8.628 -0.7964 -2.0039  1.6912
   34MOL0     H 4645   1.043   4.738   8.489 -1.3933 -0.7569 -1.7780
   34MOL0     H 4646   0.879   4.629   8.633 -1.9338  2.1828  2.0573
   34MOL0     H 4647   0.996   4.598   8.757 -2.8068  0.2453  0.3365
   34MOL0     H 4648   0.817   4.783   8.773  1.0317 -0.2408  2.2693
   34MOL0     H 4649   0.973   4.830   8.832 -0.3737 -0.5982  0.3579
   34MOL0     H 4650   1.094   5.098   8.645  1.1498  0.2008  2.9727
   34MOL0     H 4651   1.187   5.317   8.659  0.1779 -1.8576  2.0443
   34MOL0     H 4652   1.166   5.371   8.815 -0.8926 -3.2430  0.8341
   34MOL0     H 4653   1.083   5.460   8.676  2.7575  0.6648  0.0685
   34MOL0     H 4654   1.132   5.557   9.045  2.1950  1.0790  0.3554
   34MOL0     H 4655   1.138   5.736   9.228  0.6971  0.9585  0.3326
   34MOL0     H 4656   1.113   5.926   9.376  1.1651  0.3974 -0.5631
   34MOL0     H 4657   1.184   5.971   9.209  0.1352  1.4820 -1.4364
   34MOL0     H 4658   1.214   6.155   9.375  0.5052  2.3302 -2.5084
   34MOL0     H 4659   1.125   6.199   9.237  1.6744 -1.7509 -0.4976
   34MOL0     H 4660   1.017   6.092   9.496 -1.7691 -0.3302 -0.3646
   34MOL0     H 4661   0.915   6.169   9.371  0.5653 -2.0466 -1.1375
   34MOL0     H 4662   1.063   6.386   9.421  1.1937  1.9214  1.3291
   34MOL0     H 4663   1.154   6.288   9.538 -0.5792  1.5099  2.1325
   34MOL0     H 4664   0.955   6.247   9.674 -0.8349 -1.5689 -1.6537
   34MOL0     H 4665   0.999   6.411   9.675  0.0873  1.6615 -0.5437
   34MOL0     H 4666   0.773   6.292   9.509  1.1567 -1.8965  1.0958
   34MOL0     H 4667   0.800   6.447   9.512  1.0450  0.4704  0.4502
   34MOL0     H 4668   0.703   6.262   9.742 -0.7721 -0.6514 -2.3056
   34MOL0     H 4669   0.607   6.378   9.663 -1.5915 -1.8980  2.8578
   34MOL0     H 4670   0.832   6.484   9.819 -0.5329 -2.2325  0.4040
   34MOL0     H 4671   0.672   6.465   9.876 -1.9701 -2.2459 -2.1952
   34MOL0     H 4672   0.811   5.938   9.037  2.5486  2.7230  0.1526
   34MOL0     H 4673   0.798   5.757   8.868 -1.1963  0.8497  1.3102
   34MOL0     H 4674   0.740   5.198   8.957  1.0322 -2.3291  0.2599
   34MOL0     H 4675   0.730   4.999   8.841 -0.0798 -0.6939 -2.2481
   34MOL0     H 4676   1.788   4.742   8.919 -0.0417  0.3407 -0.0464
   34MOL0     H 4677   1.630   4.922   9.001  0.8287  0.5021 -2.0094
   34MOL0     H 4678   1.525   5.308   9.105 -3.0039 -4.5878 -1.4238
   34MOL0     H 4679   1.348   5.419   9.157  0.9055  2.5338  0.9652
   34MOL0     H 4680   1.113   5.561   9.352 -0.4988  1.1499  2.6548
   34MOL0     H 4681   1.107   5.423   9.258  1.1377 -1.2886  0.6071
   34MOL0     H 4682   0.973   5.285   9.395 -0.0807  1.4148 -1.5015
   34MOL0     H 4683   0.897   5.421   9.378  0.0206 -3.0276 -1.0988
   34MOL0     H 4684   1.008   5.330   9.629  2.5893  1.0047 -1.3316
   34MOL0     H 4685   1.053   5.502   9.595  0.4846  0.5760 -0.4847
   34MOL0     H 4686   0.808   5.556   9.575 -2.7849 -0.6157 -1.6259
   34MOL0     H 4687   0.852   5.488   9.728 -1.4562  2.1700 -0.6975
   34MOL0     H 4688   0.542   5.243   9.586  0.5363  0.9758 -2.2224
   34MOL0     H 4689   1.376   5.303   9.575 -0.8267  2.3399 -0.1652
   34MOL0     H 4690   1.549   5.170   9.645 -4.3875  0.9284 -1.0636
   34MOL0     H 4691   1.579   5.046   9.532 -1.2948  0.2681 -0.3195
   34MOL0     H 4692   1.708   5.159   9.558  0.3108 -0.1560  2.9319
   35MOL0     O 4693   3.488   8.796   4.760  0.2777  0.0843 -0.0157
   35MOL0     C 4694   3.458   8.703   4.685  0.1160  0.5553 -0.1732
   35MOL0     O 4695   3.356   8.611   4.707 -0.4486  0.5912 -0.8414
   35MOL0     C 4696   3.275   8.650   4.814  0.4363  1.0441 -0.9748
   35MOL0     C 4697   3.161   8.719   4.788  0.6123  0.1504 -0.4893
   35MOL0     C 4698   3.075   8.773   4.884  0.9903 -0.2235 -0.3775
   35MOL0     C 4699   3.096   8.749   5.021  0.1313  0.1513 -0.8330
   35MOL0     O 4700   3.013   8.792   5.124  1.0175 -0.0107 -0.5400
   35MOL0     C 4701   2.875   8.835   5.096 -0.5262  0.5447  1.6412
   35MOL0     C 4702   2.808   8.870   5.224  0.5501  0.7655  0.7868
   35MOL0     C 4703   2.879   8.959   5.315 -0.4598  0.0521  0.2543
   35MOL0     C 4704   2.804   9.064   5.393  1.0331 -0.2920  0.2249
   35MOL0     C 4705   2.688   9.025   5.487 -0.8252 -0.2987  0.3049
   35MOL0     C 4706   2.592   9.142   5.523 -0.2951  0.0450 -0.3145
   35MOL0     C 4707   2.687   9.225   5.613  0.2788 -1.1361 -0.0828
   35MOL0     C 4708   2.733   9.359   5.557  0.3080  0.1169 -0.4916
   35MOL0     N 4709   2.768   9.376   5.422  1.0388 -0.9541  0.3898
   35MOL0     C 4710   2.892   9.372   5.358  0.9213  0.0173 -0.3867
   35MOL0     C 4711   2.853   9.383   5.228 -0.6042 -0.4936 -0.2685
   35MOL0     C 4712   2.951   9.386   5.112  0.1407 -0.4145 -1.1825
   35MOL0     C 4713   2.997   9.241   5.097  0.0238 -0.6099  0.6325
   35MOL0     C 4714   3.103   9.237   4.984  1.1474 -0.1787 -0.6797
   35MOL0     C 4715   3.124   9.092   4.946  0.5001 -0.7805 -0.4492
   35MOL0     O 4716   3.221   9.096   4.838  0.0159 -0.7628 -0.1878
   35MOL0     C 4717   3.165   9.071   4.710  0.1043 -0.7971 -0.2113
   35MOL0     C 4718   3.241   8.994   4.627 -0.3497 -0.1045 -0.4936
   35MOL0     C 4719   3.212   8.976   4.493  0.4124 -0.3910  0.3671
   35MOL0     C 4720   3.319   8.906   4.417 -1.5475  1.1983  0.5275
   35MOL0     C 4721   3.096   9.044   4.432  0.1997  0.3058 -0.1234
   35MOL0     C 4722   3.065   9.033   4.286  0.2577 -0.0786 -0.2906
   35MOL0     O 4723   3.084   8.909   4.218  0.2513 -0.3163  0.1336
   35MOL0     C 4724   3.049   8.875   4.090  0.2138  0.0610  0.4043
   35MOL0     C 4725   3.012   8.968   3.996  0.4437 -0.2958 -0.5257
   35MOL0     C 4726   2.998   8.932   3.859 -0.0202  0.0597  0.6411
   35MOL0     C 4727   2.998   8.790   3.826 -0.2088 -0.4470 -0.1275
   35MOL0     O 4728   2.984   8.758   3.703 -0.7670  0.2820 -0.3281
   35MOL0     C 4729   2.994   8.622   3.659  1.0417 -0.1793 -0.1114
   35MOL0     C 4730   2.984   8.622   3.499 -0.7119  0.8425 -0.3015
   35MOL0     C 4731   2.854   8.677   3.436  0.9036  0.7008  0.6215
   35MOL0     C 4732   2.850   8.650   3.288 -0.1092  0.5269  0.3011
   35MOL0     C 4733   2.763   8.749   3.210 -0.2359 -0.6374  0.2308
   35MOL0     C 4734   2.848   8.859   3.152  0.3943 -0.1161  0.2638
   35MOL0     C 4735   2.757   8.964   3.076 -0.4080  0.9676 -0.3513
   35MOL0     C 4736   2.740   8.938   2.925  0.3926  0.0696  0.4601
   35MOL0    Cl 4737   2.730   9.090   2.839  0.0695 -0.4251 -1.1035
   35MOL0     C 4738   3.027   8.698   3.924 -0.2179 -0.7457  0.4976
   35MOL0     C 4739   3.064   8.736   4.049  1.0741 -0.8443 -0.5258
   35MOL0     O 4740   2.987   9.124   4.255  0.3644  0.7132  0.2695
   35MOL0     C 4741   3.011   9.121   4.518 -0.6657  0.4157 -0.3133
   35MOL0     C 4742   3.046   9.139   4.654 -0.5104  0.8565 -0.6030
   35MOL0     N 4743   2.716   9.404   5.218  0.2190  0.3774  0.1629
   35MOL0     N 4744   2.668   9.407   5.337  0.3044  0.4686  0.2157
   35MOL0     C 4745   3.219   8.691   5.051 -0.5171 -0.6104  0.7223
   35MOL0     C 4746   3.316   8.653   4.954  0.5695  0.2062 -0.0350
   35MOL0     C 4747   3.557   8.662   4.582  0.0995  1.6642  0.2820
   35MOL0     C 4748   3.508   8.606   4.462  0.6572  0.6944 -1.3382
   35MOL0     C 4749   3.596   8.560   4.365 -0.7253 -0.2799  0.1399
   35MOL0     C 4750   3.728   8.589   4.372  0.2113  0.5702  0.8813
   35MOL0     O 4751   3.805   8.549   4.258 -0.0871  0.3167 -0.1712
   35MOL0     C 4752   3.945   8.586   4.265 -1.0353 -0.1081  0.2857
   35MOL0     C 4753   4.016   8.597   4.126  0.4894  1.2823  0.0567
   35MOL0     C 4754   3.939   8.690   4.026  0.4159  0.8380 -0.4829
   35MOL0     C 4755   3.957   8.850   4.047  0.4288  0.0406  0.6265
   35MOL0     C 4756   3.885   8.897   4.166 -0.2094 -0.3275 -0.3485
   35MOL0     C 4757   3.807   8.923   4.259  0.3674 -1.1898  0.9723
   35MOL0     C 4758   3.774   8.667   4.478  0.2122  0.3608 -0.3177
   35MOL0     C 4759   3.699   8.698   4.584  1.1207  0.2505 -0.8547
   35MOL0     C 4760   3.769   8.743   4.709  0.3067  0.1785 -0.1443
   35MOL0     H 4761   3.128   8.739   4.686 -0.7663 -2.7173 -0.6841
   35MOL0     H 4762   2.993   8.832   4.844  0.9847 -0.4061 -0.6348
   35MOL0     H 4763   2.826   8.745   5.057  0.6067 -0.0580  1.5481
   35MOL0     H 4764   2.867   8.911   5.017 -1.2965 -2.3777 -1.3033
   35MOL0     H 4765   2.706   8.894   5.194 -0.8685 -3.6963  1.2510
   35MOL0     H 4766   2.788   8.776   5.276  1.6164  1.0143  1.6863
   35MOL0     H 4767   2.938   8.899   5.385  3.1823  0.1932 -2.3908
   35MOL0     H 4768   2.953   9.012   5.254 -0.1224  0.3440  0.9145
   35MOL0     H 4769   2.877   9.120   5.452  0.8488 -0.3054  0.4654
   35MOL0     H 4770   2.764   9.138   5.323 -0.5914  0.9580  2.3553
   35MOL0     H 4771   2.733   8.981   5.577 -1.7196 -1.9238 -0.0038
   35MOL0     H 4772   2.622   8.953   5.439 -0.7140  0.8731 -1.6911
   35MOL0     H 4773   2.538   9.204   5.451 -0.8949 -1.9973 -1.6789
   35MOL0     H 4774   2.514   9.098   5.585  0.0719  0.2560  0.3076
   35MOL0     H 4775   2.774   9.170   5.650  0.2299 -2.0861 -1.2979
   35MOL0     H 4776   2.626   9.246   5.701 -2.8041  0.8759 -2.5135
   35MOL0     H 4777   2.656   9.436   5.573  2.5473  2.3650  0.2200
   35MOL0     H 4778   2.826   9.393   5.604  1.7518 -2.2397 -1.4712
   35MOL0     H 4779   2.987   9.366   5.410  0.5766  0.4995  0.3031
   35MOL0     H 4780   3.034   9.454   5.134  0.3913 -0.9514 -0.3999
   35MOL0     H 4781   2.888   9.411   5.027 -0.4014  0.3589 -0.5733
   35MOL0     H 4782   3.029   9.194   5.190  1.0328 -1.6489 -0.1926
   35MOL0     H 4783   2.910   9.184   5.064  0.2605 -0.2828 -0.6195
   35MOL0     H 4784   3.057   9.291   4.901 -3.0531 -1.1388  0.7974
   35MOL0     H 4785   3.188   9.295   5.023 -0.3219 -0.1463  2.9016
   35MOL0     H 4786   3.159   9.033   5.031  4.1182  2.2406  0.4261
   35MOL0     H 4787   3.025   9.052   4.923 -0.6512  1.6195  0.0243
   35MOL0     H 4788   3.321   8.944   4.681 -0.3416 -0.2871 -0.6726
   35MOL0     H 4789   3.293   8.805   4.385  1.7337  0.6844 -0.8989
   35MOL0     H 4790   3.401   8.888   4.487 -1.3779  0.8022  0.2325
   35MOL0     H 4791   3.355   8.965   4.332 -0.8560  0.2192  0.1298
   35MOL0     H 4792   3.003   9.074   4.018 -2.3910 -0.6837  0.6961
   35MOL0     H 4793   2.973   9.004   3.781 -0.3741 -0.4240  0.2984
   35MOL0     H 4794   3.085   8.570   3.690  1.2856  0.5300  0.3963
   35MOL0     H 4795   2.904   8.585   3.709  0.2592  2.1782  0.3883
   35MOL0     H 4796   3.070   8.670   3.452 -1.5272  3.3333  0.5795
   35MOL0     H 4797   2.976   8.514   3.480  0.6645  0.7062 -0.1663
   35MOL0     H 4798   2.852   8.786   3.442  0.7421  0.6656  1.2659
   35MOL0     H 4799   2.766   8.642   3.490 -1.9557  4.5306 -1.0905
   35MOL0     H 4800   2.833   8.542   3.275  1.4214 -0.1573  3.1628
   35MOL0     H 4801   2.953   8.664   3.254  1.4496 -2.5661  3.1601
   35MOL0     H 4802   2.711   8.697   3.129 -0.3133  2.6420 -2.0554
   35MOL0     H 4803   2.690   8.797   3.275 -1.1885 -0.7183 -0.7518
   35MOL0     H 4804   2.931   8.820   3.093  0.2582  1.1228 -0.7822
   35MOL0     H 4805   2.894   8.915   3.235 -1.7017 -0.7147  1.9171
   35MOL0     H 4806   2.812   9.057   3.090  1.0089 -0.2159  3.3282
   35MOL0     H 4807   2.667   8.981   3.136  0.9963 -1.0920  2.6103
   35MOL0     H 4808   2.645   8.885   2.912 -0.4231  0.8439  2.7172
   35MOL0     H 4809   2.826   8.888   2.879 -0.4114 -1.1320  0.2112
   35MOL0     H 4810   3.041   8.592   3.904 -3.1289 -1.1671  0.3418
   35MOL0     H 4811   3.103   8.659   4.115  0.6497 -2.8094 -2.4575
   35MOL0     H 4812   2.930   9.184   4.481 -1.1079 -0.5789 -1.0752
   35MOL0     H 4813   2.982   9.204   4.713 -2.3069 -0.4028 -1.0798
   35MOL0     H 4814   3.247   8.681   5.155  2.1861  3.1682  0.5810
   35MOL0     H 4815   3.417   8.628   4.985 -0.4855 -0.7991  3.0822
   35MOL0     H 4816   3.405   8.582   4.435  1.1947 -2.1755 -1.1826
   35MOL0     H 4817   3.546   8.506   4.285 -0.7757  0.6593 -0.4836
   35MOL0     H 4818   3.955   8.689   4.302 -1.5796 -0.1737  0.6334
   35MOL0     H 4819   3.999   8.531   4.343 -2.1153 -1.6007  0.0193
   35MOL0     H 4820   4.016   8.494   4.087  1.8435  2.5375 -3.7439
   35MOL0     H 4821   4.119   8.631   4.139  0.1399  1.8631  1.3668
   35MOL0     H 4822   3.977   8.663   3.927  1.9669 -0.0291  0.3062
   35MOL0     H 4823   3.833   8.665   4.029  0.4651  0.7419  0.8968
   35MOL0     H 4824   3.929   8.911   3.961  2.5086 -0.5743 -0.5541
   35MOL0     H 4825   4.055   8.886   4.081  0.4674 -0.7638  1.4288
   35MOL0     H 4826   3.724   8.954   4.318 -1.4181 -0.3867 -1.7512
   35MOL0     H 4827   3.881   8.684   4.488  1.0444 -4.6636  2.6170
   35MOL0     H 4828   3.752   8.850   4.725 -0.1876  0.1135 -0.2174
   35MOL0     H 4829   3.735   8.695   4.801  0.4723 -0.6005 -0.4814
   35MOL0     H 4830   3.877   8.725   4.705  0.2892  0.2905 -2.1554
   36MOL0     O 4831   3.670   6.773   5.651  0.4655  0.0549 -0.1342
   36MOL0     C 4832   3.761   6.855   5.665 -0.1036 -0.1818  0.2803
   36MOL0     O 4833   3.797   6.910   5.781  0.2890 -0.4397  0.2242
   36MOL0     C 4834   3.719   6.876   5.890 -0.6188  0.0088  0.8673
   36MOL0     C 4835   3.724   6.745   5.948  0.6094  1.1003  0.5898
   36MOL0     C 4836   3.642   6.707   6.061  0.1055  0.5319  0.7048
   36MOL0     C 4837   3.560   6.804   6.110  0.7526  1.0702  0.9313
   36MOL0     O 4838   3.489   6.755   6.219  1.0284  0.4523 -0.3748
   36MOL0     C 4839   3.399   6.839   6.294  0.4163 -1.4817  0.7280
   36MOL0     C 4840   3.331   6.749   6.403  0.2812 -1.1767 -0.1217
   36MOL0     C 4841   3.426   6.716   6.521 -0.5523  0.5152  0.0284
   36MOL0     C 4842   3.329   6.674   6.637 -0.1510 -0.1389  0.2678
   36MOL0     C 4843   3.383   6.685   6.785 -0.6786 -0.1699 -0.2432
   36MOL0     C 4844   3.307   6.610   6.889 -1.1101  0.6712 -0.6205
   36MOL0     C 4845   3.186   6.680   6.940 -0.0556  0.2096 -0.4036
   36MOL0     C 4846   3.110   6.599   7.048  0.4358  0.8492  0.0686
   36MOL0     N 4847   3.061   6.469   6.984 -0.5360 -1.0101 -0.1057
   36MOL0     C 4848   2.981   6.468   6.864  0.1606 -0.7247  0.6836
   36MOL0     C 4849   3.006   6.352   6.807  0.4644  0.0571 -1.1438
   36MOL0     C 4850   2.951   6.294   6.680 -0.8007  0.1351 -0.8956
   36MOL0     C 4851   2.910   6.404   6.582  0.0058 -1.3450 -0.0954
   36MOL0     C 4852   3.030   6.484   6.532 -0.3805 -0.1295 -0.5709
   36MOL0     C 4853   3.113   6.405   6.432  0.1680 -0.2439  0.1163
   36MOL0     O 4854   3.036   6.372   6.323  0.6173  0.1520  0.1240
   36MOL0     C 4855   3.029   6.448   6.206  0.0940 -0.3587  0.6496
   36MOL0     C 4856   2.994   6.381   6.087 -0.0370  0.3778 -0.3878
   36MOL0     C 4857   2.994   6.439   5.959 -0.0289  0.7641 -0.3435
   36MOL0     C 4858   2.989   6.356   5.839  0.3826  0.1925  0.5396
   36MOL0     C 4859   3.026   6.577   5.947 -0.7279 -0.2965  0.7073
   36MOL0     C 4860   3.029   6.668   5.827 -0.3744 -0.4196 -0.4511
   36MOL0     O 4861   3.032   6.800   5.855  0.1311  0.7573 -0.2907
   36MOL0     C 4862   3.109   6.885   5.777  0.0431  0.2020  0.3818
   36MOL0     C 4863   3.048   6.966   5.681 -0.4032  0.7302  0.8403
   36MOL0     C 4864   3.129   7.035   5.585  0.3348  0.4103  0.6678
   36MOL0     C 4865   3.270   7.022   5.586  0.0777  0.6093 -0.1386
   36MOL0     O 4866   3.342   7.090   5.495 -0.0235 -0.1688 -0.0046
   36MOL0     C 4867   3.412   7.031   5.386 -0.2481  0.4786 -0.6044
   36MOL0     C 4868   3.433   7.149   5.282  0.3415 -0.1181 -0.5110
   36MOL0     C 4869   3.512   7.113   5.150  0.4032 -0.2450 -0.1888
   36MOL0     C 4870   3.517   7.244   5.065 -1.0352 -0.1201  0.3381
   36MOL0     C 4871   3.573   7.214   4.933 -0.1004  0.1054 -0.0409
   36MOL0     C 4872   3.600   7.347   4.867 -1.5270  0.3038  0.1924
   36MOL0     C 4873   3.593   7.334   4.710  0.2983 -0.8588  0.1150
   36MOL0     C 4874   3.570   7.471   4.652 -0.1484  0.3459  0.1956
   36MOL0    Cl 4875   3.575   7.468   4.469 -0.1057 -0.1824  0.1337
   36MOL0     C 4876   3.326   6.929   5.674 -0.3478  0.2388  0.0035
   36MOL0     C 4877   3.250   6.867   5.770  0.0186 -0.5041 -0.5285
   36MOL0     O 4878   3.006   6.638   5.706 -0.4046  0.4510 -0.5749
   36MOL0     C 4879   3.066   6.644   6.067 -0.2157 -0.1418  0.5533
   36MOL0     C 4880   3.061   6.584   6.190 -0.2269 -0.2814  0.2416
   36MOL0     N 4881   3.079   6.279   6.908 -0.3938 -0.0928 -0.0600
   36MOL0     N 4882   3.117   6.349   7.008  0.1414 -0.3287 -0.4467
   36MOL0     C 4883   3.552   6.931   6.048 -0.0334  0.4542 -0.3039
   36MOL0     C 4884   3.626   6.969   5.940 -0.4832 -0.8980 -0.8222
   36MOL0     C 4885   3.837   6.898   5.548 -0.0426  0.5581  0.0226
   36MOL0     C 4886   3.773   6.891   5.420 -0.7257 -0.0222 -0.7223
   36MOL0     C 4887   3.836   6.944   5.311  0.4417 -0.7258  0.8263
   36MOL0     C 4888   3.957   6.999   5.311 -1.0273 -0.6781 -1.0814
   36MOL0     O 4889   4.025   7.047   5.199 -0.4612 -1.2085  0.4519
   36MOL0     C 4890   3.988   7.004   5.065  0.0024  0.6234 -0.0696
   36MOL0     C 4891   4.043   6.867   5.038  0.5375 -0.2522  0.7852
   36MOL0     C 4892   4.201   6.850   5.011  0.2632 -0.1073 -0.2270
   36MOL0     C 4893   4.245   6.697   4.987 -0.5295 -0.2118 -0.7248
   36MOL0     C 4894   4.194   6.667   4.856 -0.1722 -1.5662  0.8310
   36MOL0     C 4895   4.127   6.657   4.753  0.1294  0.1880 -0.0191
   36MOL0     C 4896   4.021   7.004   5.428  0.0114  0.0674  0.0147
   36MOL0     C 4897   3.966   6.960   5.546 -0.0161  0.8384  1.0541
   36MOL0     C 4898   4.045   6.983   5.668 -0.0682  0.1334 -0.0196
   36MOL0     H 4899   3.803   6.679   5.912  0.8502  2.0915 -0.7399
   36MOL0     H 4900   3.624   6.610   6.107 -4.1964  0.3210 -0.9901
   36MOL0     H 4901   3.320   6.878   6.229  1.0135  0.2021  0.9628
   36MOL0     H 4902   3.445   6.930   6.334 -2.0196  1.6177 -2.8269
   36MOL0     H 4903   3.235   6.789   6.434 -1.2524 -3.8332 -1.1048
   36MOL0     H 4904   3.305   6.663   6.340  0.4769 -1.3938  0.0921
   36MOL0     H 4905   3.498   6.639   6.496 -1.4819  0.6604 -3.6532
   36MOL0     H 4906   3.482   6.806   6.549 -0.4351  0.6953 -0.7460
   36MOL0     H 4907   3.241   6.739   6.640  0.4716  0.7660  3.4146
   36MOL0     H 4908   3.301   6.570   6.617 -2.5355  0.7864 -1.8360
   36MOL0     H 4909   3.384   6.792   6.810 -0.9884  0.7214 -3.5711
   36MOL0     H 4910   3.479   6.633   6.779 -1.1418 -1.0478 -0.1869
   36MOL0     H 4911   3.293   6.507   6.855 -1.0847  0.4491  0.0237
   36MOL0     H 4912   3.383   6.604   6.967 -0.1990  1.3813 -1.4199
   36MOL0     H 4913   3.132   6.703   6.848 -1.3847 -0.2768  0.2386
   36MOL0     H 4914   3.224   6.776   6.978 -1.2633 -0.7451  3.6338
   36MOL0     H 4915   3.168   6.565   7.133  0.6218 -1.2778 -0.8432
   36MOL0     H 4916   3.020   6.653   7.079 -0.6157 -0.3937 -0.6778
   36MOL0     H 4917   2.949   6.561   6.817 -3.9155 -1.2545  1.9522
   36MOL0     H 4918   2.858   6.240   6.699 -0.9245  0.4555 -0.5788
   36MOL0     H 4919   3.010   6.217   6.630 -5.2807 -2.5193 -2.6952
   36MOL0     H 4920   2.859   6.361   6.495 -2.3004  0.2157  0.4299
   36MOL0     H 4921   2.847   6.474   6.637  3.0333  0.2634  1.6228
   36MOL0     H 4922   2.992   6.570   6.476 -2.3998  0.4767  1.5508
   36MOL0     H 4923   3.081   6.515   6.624 -3.5492  0.0972  1.2360
   36MOL0     H 4924   3.204   6.460   6.405  0.7228 -0.8133  0.7680
   36MOL0     H 4925   3.156   6.320   6.485 -0.2882 -0.1017  0.7238
   36MOL0     H 4926   2.965   6.277   6.098  0.5688  0.3882  1.7662
   36MOL0     H 4927   3.092   6.322   5.826  0.9464  0.7393  3.0486
   36MOL0     H 4928   2.949   6.404   5.748  3.9804 -1.0145 -1.8937
   36MOL0     H 4929   2.922   6.270   5.845  0.5700 -0.0126 -0.1647
   36MOL0     H 4930   2.940   6.957   5.669 -0.9652 -0.5631  5.2002
   36MOL0     H 4931   3.094   7.112   5.516 -0.6019  0.0746  0.7591
   36MOL0     H 4932   3.511   6.995   5.415 -0.0644 -0.3502 -2.1470
   36MOL0     H 4933   3.355   6.949   5.342  0.9027  0.4159 -2.0706
   36MOL0     H 4934   3.338   7.196   5.259 -0.4393 -1.9375 -1.2168
   36MOL0     H 4935   3.492   7.227   5.330 -2.4429  2.5885 -1.1632
   36MOL0     H 4936   3.456   7.031   5.104  0.3219  0.3253 -1.1315
   36MOL0     H 4937   3.610   7.080   5.186 -0.6137 -2.0976  1.0492
   36MOL0     H 4938   3.578   7.320   5.114 -2.9691  0.6826  1.6236
   36MOL0     H 4939   3.417   7.283   5.047 -0.2321  2.4761  1.0595
   36MOL0     H 4940   3.666   7.157   4.925  0.2167  0.8698 -3.5376
   36MOL0     H 4941   3.500   7.154   4.877 -1.1859  1.6560 -0.3571
   36MOL0     H 4942   3.700   7.372   4.905 -0.6130 -0.4834 -1.5573
   36MOL0     H 4943   3.546   7.437   4.898  0.1996  1.9677 -1.3485
   36MOL0     H 4944   3.519   7.265   4.669  0.6528  0.1265 -2.3799
   36MOL0     H 4945   3.691   7.304   4.672  1.0623 -0.6092  1.7956
   36MOL0     H 4946   3.654   7.532   4.689 -1.5805  2.7370 -0.2580
   36MOL0     H 4947   3.478   7.519   4.685 -1.7172  1.0200 -4.3806
   36MOL0     H 4948   3.433   6.915   5.659 -0.2466 -1.1295  1.6936
   36MOL0     H 4949   3.298   6.808   5.848 -1.5588 -0.2714  0.6891
   36MOL0     H 4950   3.078   6.752   6.071  0.4308 -0.1926  0.0824
   36MOL0     H 4951   3.073   6.653   6.273  0.8370  2.8949 -2.3017
   36MOL0     H 4952   3.497   7.015   6.089  3.5496  3.0087 -0.2519
   36MOL0     H 4953   3.638   7.064   5.887 -1.7794 -2.4084 -4.1014
   36MOL0     H 4954   3.685   6.836   5.389 -1.5460  0.7060  0.2155
   36MOL0     H 4955   3.784   6.936   5.217 -0.7023  0.1034  1.3563
   36MOL0     H 4956   3.882   6.985   5.050  0.1840  0.8862 -1.9361
   36MOL0     H 4957   4.020   7.078   4.991 -1.4053  1.7176  0.3788
   36MOL0     H 4958   4.000   6.837   4.942 -1.8678 -1.3129  2.1070
   36MOL0     H 4959   4.002   6.798   5.112 -2.3205  3.4312  2.9576
   36MOL0     H 4960   4.212   6.910   4.920 -0.4230 -1.4999 -1.2667
   36MOL0     H 4961   4.264   6.890   5.091  2.3005 -2.3864 -0.5690
   36MOL0     H 4962   4.188   6.637   5.059 -0.8103  1.0247  0.1181
   36MOL0     H 4963   4.351   6.685   5.011 -1.0322  0.8569  2.6282
   36MOL0     H 4964   4.075   6.653   4.660 -2.2152  1.3252  1.1668
   36MOL0     H 4965   4.123   7.040   5.437 -0.5337  2.5130 -2.2901
   36MOL0     H 4966   4.152   6.980   5.648  0.6501  1.4180  3.1469
   36MOL0     H 4967   4.039   7.084   5.708  0.7849 -0.2183  1.0493
   36MOL0     H 4968   4.025   6.910   5.748  1.6038  0.2010  0.4827
   37MOL0     O 4969   9.855   0.785   5.414 -0.6137  0.3058  0.3047
   37MOL0     C 4970   9.880   0.662   5.396 -1.0658 -0.4763 -0.2867
   37MOL0     O 4971   9.983   0.587   5.464  0.0045  0.3209 -1.3080
   37MOL0     C 4972  10.066   0.643   5.562  1.2364  0.7160  0.2197
   37MOL0     C 4973  10.018   0.720   5.671  0.4591 -0.2355  0.7481
   37MOL0     C 4974  10.104   0.751   5.777 -0.1293 -0.0138 -0.0095
   37MOL0     C 4975  10.239   0.712   5.779 -0.3219  0.4305  0.4752
   37MOL0     O 4976  10.318   0.721   5.890 -0.2115  0.3449 -0.5822
   37MOL0     C 4977  10.320   0.851   5.954  0.3245 -0.2749 -0.2276
   37MOL0     C 4978  10.428   0.871   6.066  0.4387 -0.4919  0.0073
   37MOL0     C 4979  10.567   0.811   6.057  0.5843  0.3979 -0.3814
   37MOL0     C 4980  10.631   0.860   5.928 -0.0708  1.0543  0.5622
   37MOL0     C 4981  10.753   0.944   5.969  0.1519 -0.5253 -1.1838
   37MOL0     C 4982  10.704   1.078   6.027  0.3424  0.3904  0.4625
   37MOL0     C 4983  10.815   1.183   5.995 -0.4544 -0.8149 -0.1623
   37MOL0     C 4984  10.771   1.330   6.030 -0.1546  0.1199  0.1763
   37MOL0     N 4985  10.872   1.427   5.992  0.2054  0.9445 -0.6960
   37MOL0     C 4986  10.996   1.436   6.049  0.7969  1.0913  0.0610
   37MOL0     C 4987  11.058   1.540   5.985  0.4337  0.3273 -0.3428
   37MOL0     C 4988  11.206   1.570   6.001 -0.3860  0.9228 -0.5853
   37MOL0     C 4989  11.241   1.587   6.151 -1.0608  0.6373 -0.9706
   37MOL0     C 4990  11.184   1.727   6.206  0.6189 -0.3039  0.3379
   37MOL0     C 4991  11.096   1.716   6.326 -0.3368 -0.0933  0.1693
   37MOL0     O 4992  10.972   1.649   6.297  0.1399  0.2366 -0.3074
   37MOL0     C 4993  10.883   1.636   6.400 -0.2765 -0.2569  0.5660
   37MOL0     C 4994  10.898   1.672   6.532  0.2282  0.7357  0.9874
   37MOL0     C 4995  10.800   1.649   6.633  0.3348 -0.1917  0.5983
   37MOL0     C 4996  10.840   1.694   6.767 -0.7172  0.3380  0.3258
   37MOL0     C 4997  10.677   1.593   6.599 -0.6728  0.8071 -0.0566
   37MOL0     C 4998  10.576   1.550   6.704  0.9172  0.6004 -0.1808
   37MOL0     O 4999  10.610   1.571   6.833  0.3800  0.1473 -0.5523
   37MOL0     C 5000  10.534   1.529   6.933 -0.5129  0.6961 -0.1224
   37MOL0     C 5001  10.481   1.395   6.939 -0.0015 -0.6856 -0.4607
   37MOL0     C 5002  10.406   1.361   7.057 -1.1190 -0.0263  0.7618
   37MOL0     C 5003  10.377   1.454   7.155 -0.4748  0.5355 -0.0098
   37MOL0     O 5004  10.308   1.417   7.266 -0.0787  0.1180  0.2797
   37MOL0     C 5005  10.274   1.518   7.361  0.5741  0.7059  0.7635
   37MOL0     C 5006  10.180   1.455   7.458 -0.7570  0.0509 -0.2243
   37MOL0     C 5007  10.240   1.328   7.529 -0.2959 -1.1777 -0.2470
   37MOL0     C 5008  10.172   1.208   7.478  0.2696  0.7834  0.2590
   37MOL0     C 5009  10.240   1.094   7.559  0.3704 -0.0881 -0.8517
   37MOL0     C 5010  10.185   0.957   7.510 -0.2862 -0.4341 -0.3659
   37MOL0     C 5011  10.240   0.826   7.576  0.5364  0.1597  0.3077
   37MOL0     C 5012  10.133   0.713   7.589 -0.5797  0.0430 -0.0456
   37MOL0    Cl 5013  10.030   0.697   7.438  0.4166 -0.2190 -0.0699
   37MOL0     C 5014  10.434   1.581   7.143 -0.8364  1.4566 -0.4396
   37MOL0     C 5015  10.508   1.621   7.032  0.3164  0.1583  0.3770
   37MOL0     O 5016  10.469   1.502   6.672  0.5007 -0.2309 -0.0833
   37MOL0     C 5017  10.657   1.577   6.460  0.0070  0.6550 -0.4837
   37MOL0     C 5018  10.761   1.594   6.364 -0.8196 -0.0301 -0.0214
   37MOL0     N 5019  10.966   1.600   5.901  0.4432  0.9118 -0.1005
   37MOL0     N 5020  10.859   1.523   5.898  0.2563 -0.4871  0.1541
   37MOL0     C 5021  10.287   0.654   5.658  0.0507 -0.3320  0.0971
   37MOL0     C 5022  10.199   0.612   5.552 -0.5041  0.2393 -0.7567
   37MOL0     C 5023   9.800   0.578   5.297  0.2843 -0.4441 -0.8633
   37MOL0     C 5024   9.821   0.437   5.296  0.4509  0.1019 -0.3051
   37MOL0     C 5025   9.742   0.357   5.208 -0.7200 -1.8613 -0.6873
   37MOL0     C 5026   9.659   0.420   5.112 -0.0539  0.1199 -0.0555
   37MOL0     O 5027   9.585   0.354   5.014 -0.4448 -0.0172 -0.0311
   37MOL0     C 5028   9.592   0.210   5.017  0.6428 -0.1580  0.3310
   37MOL0     C 5029   9.559   0.160   4.883 -0.0381  0.1902 -0.4438
   37MOL0     C 5030   9.673   0.181   4.784 -0.7189  0.2344  0.8809
   37MOL0     C 5031   9.783   0.062   4.765  0.2125  0.5689  0.4017
   37MOL0     C 5032   9.886   0.068   4.882  0.4745  0.6134 -0.1319
   37MOL0     C 5033   9.953   0.082   4.985  0.2623 -0.4069  0.5986
   37MOL0     C 5034   9.650   0.557   5.111  0.4724 -0.3029 -0.6502
   37MOL0     C 5035   9.704   0.644   5.215  0.2410 -0.0960  0.5336
   37MOL0     C 5036   9.661   0.787   5.217 -0.0064  1.1384  0.1356
   37MOL0     H 5037   9.915   0.754   5.678  0.7407  0.4577  1.7164
   37MOL0     H 5038  10.067   0.794   5.870 -0.6879 -0.0080 -0.2300
   37MOL0     H 5039  10.221   0.867   5.997  0.4328  3.1684 -0.9626
   37MOL0     H 5040  10.341   0.931   5.883  1.5484  3.6296  4.0526
   37MOL0     H 5041  10.437   0.978   6.086  0.1096 -0.1781 -1.4308
   37MOL0     H 5042  10.384   0.831   6.158  1.3473 -3.3065 -0.6750
   37MOL0     H 5043  10.634   0.830   6.142 -0.2472  0.0995  0.3507
   37MOL0     H 5044  10.564   0.702   6.052  0.4733  0.2516  1.9529
   37MOL0     H 5045  10.663   0.770   5.874 -1.0247  0.5420  0.8311
   37MOL0     H 5046  10.573   0.913   5.852 -0.3478  2.7312  1.8674
   37MOL0     H 5047  10.804   0.979   5.879 -3.7855 -0.1912 -3.5247
   37MOL0     H 5048  10.819   0.880   6.029  0.8375  1.7050  0.5776
   37MOL0     H 5049  10.618   1.116   5.972 -0.5373 -0.1885  1.4082
   37MOL0     H 5050  10.691   1.075   6.136 -1.1021 -1.5484  0.2770
   37MOL0     H 5051  10.845   1.180   5.890 -1.4366 -1.4218 -0.4380
   37MOL0     H 5052  10.907   1.165   6.051 -0.1805 -1.8687 -0.9193
   37MOL0     H 5053  10.685   1.354   5.967  1.6347 -0.3448 -2.6202
   37MOL0     H 5054  10.741   1.336   6.135  0.6147  0.4308  0.3864
   37MOL0     H 5055  11.048   1.371   6.118 -0.8678 -3.0974 -2.2341
   37MOL0     H 5056  11.231   1.663   5.948  1.2295  2.3606  2.4316
   37MOL0     H 5057  11.271   1.494   5.958 -1.2810 -0.8032  0.9914
   37MOL0     H 5058  11.228   1.507   6.224  2.9561  0.2850 -0.4264
   37MOL0     H 5059  11.349   1.600   6.159 -1.2364  0.8016  2.4208
   37MOL0     H 5060  11.270   1.786   6.239  0.0846  0.2024  0.8734
   37MOL0     H 5061  11.130   1.781   6.127  0.3011 -1.6192 -0.3702
   37MOL0     H 5062  11.144   1.660   6.406 -0.1468 -0.2871 -0.0800
   37MOL0     H 5063  11.077   1.820   6.358  0.7065 -0.4719  2.1773
   37MOL0     H 5064  10.986   1.728   6.563  0.2592  1.3022 -0.0942
   37MOL0     H 5065  10.786   1.786   6.794 -2.8338 -0.4664 -0.9007
   37MOL0     H 5066  10.948   1.702   6.751 -1.3079  2.2461 -4.5026
   37MOL0     H 5067  10.835   1.610   6.837  1.4658  1.2773  1.7073
   37MOL0     H 5068  10.492   1.315   6.867  1.5896  0.5374 -1.6482
   37MOL0     H 5069  10.367   1.260   7.057  1.8400 -1.2647  0.6028
   37MOL0     H 5070  10.358   1.553   7.423  0.1757  1.7968  0.7056
   37MOL0     H 5071  10.226   1.603   7.313  1.8747  0.9839 -0.1076
   37MOL0     H 5072  10.158   1.534   7.529  2.4252  0.8452  0.0257
   37MOL0     H 5073  10.077   1.440   7.424 -1.3269  0.7718  1.1017
   37MOL0     H 5074  10.229   1.343   7.637  0.7396  2.2754 -0.5075
   37MOL0     H 5075  10.344   1.315   7.500 -0.4315 -1.8978 -0.4451
   37MOL0     H 5076  10.162   1.194   7.370 -2.5952 -0.3215  0.5973
   37MOL0     H 5077  10.068   1.207   7.510  0.6615  1.1147  1.5962
   37MOL0     H 5078  10.350   1.091   7.554  0.3225 -2.6221 -4.2897
   37MOL0     H 5079  10.205   1.107   7.662 -0.2707  1.3165 -1.2258
   37MOL0     H 5080  10.180   0.944   7.401 -0.8563 -0.8679 -0.2937
   37MOL0     H 5081  10.079   0.955   7.537 -1.1880 -0.8025 -3.4985
   37MOL0     H 5082  10.266   0.841   7.681  0.1270 -3.8189  1.1512
   37MOL0     H 5083  10.333   0.804   7.522 -0.9743 -3.3482 -1.1857
   37MOL0     H 5084  10.065   0.746   7.668  0.3143 -0.1115  0.8050
   37MOL0     H 5085  10.179   0.618   7.616 -0.5488 -0.1613 -0.8043
   37MOL0     H 5086  10.420   1.666   7.209  1.1872 -0.1787  2.3032
   37MOL0     H 5087  10.549   1.720   7.013 -0.5594 -0.0186 -3.2143
   37MOL0     H 5088  10.567   1.529   6.424  0.4090 -4.7820  4.2926
   37MOL0     H 5089  10.740   1.549   6.268  1.9929  2.2234 -1.8564
   37MOL0     H 5090  10.393   0.632   5.657  0.6851  2.3419 -1.1755
   37MOL0     H 5091  10.246   0.556   5.471  2.2773  1.8344 -0.3916
   37MOL0     H 5092   9.896   0.387   5.358  0.8270 -2.4220 -2.6047
   37MOL0     H 5093   9.758   0.249   5.208 -2.0819 -2.0947  0.2767
   37MOL0     H 5094   9.689   0.170   5.049  0.3567  2.0231  4.6075
   37MOL0     H 5095   9.524   0.168   5.091  0.8781  0.2246  0.7693
   37MOL0     H 5096   9.472   0.222   4.857 -2.5077 -2.8171  0.0915
   37MOL0     H 5097   9.531   0.055   4.881 -0.0355  0.2002 -1.2631
   37MOL0     H 5098   9.625   0.209   4.690  1.7143 -1.5285 -1.0169
   37MOL0     H 5099   9.722   0.273   4.815 -0.8343 -0.3733  3.0379
   37MOL0     H 5100   9.836   0.072   4.670 -1.5228 -0.8618 -0.7693
   37MOL0     H 5101   9.732  -0.035   4.756  1.8576 -0.3090  0.0501
   37MOL0     H 5102  10.014   0.083   5.074  1.0355  3.7132  0.2296
   37MOL0     H 5103   9.576   0.594   5.041  1.1557 -0.3728 -1.4215
   37MOL0     H 5104   9.625   0.807   5.318  1.8065  1.7777  0.6980
   37MOL0     H 5105   9.746   0.850   5.188  0.5556  0.6743  0.7539
   37MOL0     H 5106   9.585   0.814   5.142  0.6643 -1.7023 -1.7046
   38MOL0     O 5107   0.803   5.676  10.528  0.7544  0.2811  0.3129
   38MOL0     C 5108   0.738   5.623  10.438  0.6511  0.1328 -0.7149
   38MOL0     O 5109   0.710   5.670  10.311  0.4152 -0.3728  0.5690
   38MOL0     C 5110   0.764   5.790  10.267 -0.9064  0.6849  0.4967
   38MOL0     C 5111   0.693   5.914  10.263  0.5911  0.3858  0.9773
   38MOL0     C 5112   0.756   6.023  10.208 -0.5777 -0.7543  0.2745
   38MOL0     C 5113   0.890   6.020  10.163  0.1388 -0.0723  0.0981
   38MOL0     O 5114   0.953   6.136  10.127  0.2272 -0.3725  0.1267
   38MOL0     C 5115   1.080   6.141  10.053  0.4908  0.2012 -0.1279
   38MOL0     C 5116   1.108   6.292  10.024  0.9162 -0.0201 -1.2887
   38MOL0     C 5117   1.220   6.324   9.932 -0.3521  0.3358 -0.3143
   38MOL0     C 5118   1.356   6.300  10.001 -0.9781 -0.5199 -0.1432
   38MOL0     C 5119   1.482   6.350   9.912 -0.5640 -0.1171 -1.2420
   38MOL0     C 5120   1.478   6.308   9.769  0.3393  0.0742  0.1631
   38MOL0     C 5121   1.478   6.163   9.735  0.4033  0.7092  0.0964
   38MOL0     C 5122   1.486   6.135   9.587 -1.4903 -0.3326 -0.2366
   38MOL0     N 5123   1.492   5.989   9.575  0.6413 -0.9874  0.3914
   38MOL0     C 5124   1.587   5.908   9.627 -0.5347 -0.6647 -0.4756
   38MOL0     C 5125   1.548   5.781   9.584 -1.0958 -0.1347  0.2253
   38MOL0     C 5126   1.611   5.648   9.598 -0.8164 -0.3218  0.5266
   38MOL0     C 5127   1.738   5.615   9.512 -0.2853 -0.4505  0.1595
   38MOL0     C 5128   1.705   5.601   9.367  0.4547 -0.4726 -0.4858
   38MOL0     C 5129   1.827   5.538   9.288  0.0762  0.3265  0.0218
   38MOL0     O 5130   1.771   5.490   9.167  0.4437 -0.5463  0.0733
   38MOL0     C 5131   1.757   5.581   9.062  0.3019 -0.3040 -0.0757
   38MOL0     C 5132   1.719   5.532   8.935  0.2924  1.0344  0.5984
   38MOL0     C 5133   1.701   5.604   8.815 -0.5578 -1.2132 -0.6039
   38MOL0     C 5134   1.655   5.535   8.697  0.0819  0.4205  0.3078
   38MOL0     C 5135   1.720   5.747   8.831 -0.0970 -0.7703 -0.3728
   38MOL0     C 5136   1.695   5.852   8.727  0.5456  0.0884 -0.4291
   38MOL0     O 5137   1.663   5.977   8.778 -0.6453 -0.1456  0.4723
   38MOL0     C 5138   1.633   6.069   8.686  0.4301 -0.2138 -0.0199
   38MOL0     C 5139   1.714   6.112   8.582 -0.2948 -0.7328 -0.1570
   38MOL0     C 5140   1.668   6.217   8.496  0.0929 -1.0212 -0.8438
   38MOL0     C 5141   1.545   6.284   8.526 -0.3495 -0.2283 -0.1007
   38MOL0     O 5142   1.489   6.385   8.459 -0.0628  0.3230 -1.0296
   38MOL0     C 5143   1.568   6.470   8.375 -1.2397  0.7838 -0.9839
   38MOL0     C 5144   1.505   6.608   8.351 -0.4502 -0.1869 -0.1630
   38MOL0     C 5145   1.612   6.713   8.334 -0.6379 -0.3066  0.1711
   38MOL0     C 5146   1.663   6.714   8.194  0.7482  0.3788 -0.2901
   38MOL0     C 5147   1.741   6.842   8.161 -0.1164  0.7886  0.3351
   38MOL0     C 5148   1.820   6.840   8.024 -0.8590 -0.4388  0.7439
   38MOL0     C 5149   1.931   6.949   8.033  0.4510 -0.4904  0.0199
   38MOL0     C 5150   2.024   6.948   7.916 -1.0533 -0.2867  0.1650
   38MOL0    Cl 5151   2.176   7.040   7.953  0.5075 -0.1886 -0.2168
   38MOL0     C 5152   1.462   6.214   8.605  0.5769  0.8090 -0.0489
   38MOL0     C 5153   1.502   6.118   8.697 -0.2262  0.3959  1.3501
   38MOL0     O 5154   1.720   5.822   8.611 -0.4261 -0.9299 -0.2421
   38MOL0     C 5155   1.748   5.804   8.956 -1.0640  0.2021  0.5823
   38MOL0     C 5156   1.772   5.718   9.068  0.1740 -0.2929 -0.8045
   38MOL0     N 5157   1.441   5.796   9.507 -0.2060  0.8227 -0.7913
   38MOL0     N 5158   1.409   5.924   9.495 -0.4846 -1.0347 -0.3049
   38MOL0     C 5159   0.960   5.897  10.165  0.2448  0.6960 -1.2686
   38MOL0     C 5160   0.892   5.787  10.225  0.5690  0.1169  0.2595
   38MOL0     C 5161   0.673   5.484  10.472  0.0130 -0.4626 -0.1473
   38MOL0     C 5162   0.613   5.465  10.598 -0.3801  0.3449  0.6175
   38MOL0     C 5163   0.539   5.353  10.637  0.8084  0.0242  0.0331
   38MOL0     C 5164   0.546   5.243  10.547 -0.7853  1.5303 -0.4366
   38MOL0     O 5165   0.499   5.128  10.611  0.4571 -0.1451 -0.0499
   38MOL0     C 5166   0.494   5.006  10.547  0.3198  0.3637 -0.2588
   38MOL0     C 5167   0.428   4.884  10.624 -0.3643  0.2205 -0.6210
   38MOL0     C 5168   0.461   4.891  10.774 -0.2403 -0.8055 -0.2585
   38MOL0     C 5169   0.410   4.774  10.855 -0.0145 -0.8414  0.0433
   38MOL0     C 5170   0.472   4.653  10.808 -1.0640 -0.0683 -0.1132
   38MOL0     C 5171   0.518   4.551  10.756 -1.2518  0.4797 -0.5961
   38MOL0     C 5172   0.580   5.266  10.416  0.4779  0.6029  0.0238
   38MOL0     C 5173   0.649   5.381  10.370 -0.1741 -0.2666 -0.3685
   38MOL0     C 5174   0.721   5.375  10.234 -0.2978  0.6542  0.0772
   38MOL0     H 5175   0.593   5.915  10.304  0.8584  2.9251  1.7674
   38MOL0     H 5176   0.698   6.115  10.206 -0.9070 -0.9672 -1.4845
   38MOL0     H 5177   1.066   6.089   9.958 -2.2112  1.8570 -0.7464
   38MOL0     H 5178   1.163   6.091  10.103  1.1417 -0.4025 -1.7691
   38MOL0     H 5179   1.014   6.334   9.988 -1.6688 -3.1442  1.1360
   38MOL0     H 5180   1.130   6.337  10.121  0.8056  1.0289 -1.7383
   38MOL0     H 5181   1.207   6.266   9.841  1.3412 -0.1240 -0.3068
   38MOL0     H 5182   1.212   6.428   9.898 -0.8462  0.3641 -0.1252
   38MOL0     H 5183   1.359   6.350  10.098  0.1813 -2.4733  0.8938
   38MOL0     H 5184   1.369   6.193  10.019  1.2812  0.1211  2.5953
   38MOL0     H 5185   1.569   6.302   9.958 -0.1099  2.9821  1.4778
   38MOL0     H 5186   1.487   6.458   9.925  1.8627 -0.3708  0.6397
   38MOL0     H 5187   1.384   6.347   9.729  0.0625  0.7296  1.4048
   38MOL0     H 5188   1.562   6.355   9.717 -0.2792  1.9153  0.7598
   38MOL0     H 5189   1.388   6.115   9.773 -0.7305  1.5008 -1.4591
   38MOL0     H 5190   1.565   6.114   9.780 -2.9912 -4.7700  1.5856
   38MOL0     H 5191   1.402   6.174   9.529 -0.7053 -0.5410 -1.5647
   38MOL0     H 5192   1.581   6.174   9.549 -2.7033  0.7840 -2.3504
   38MOL0     H 5193   1.679   5.924   9.683  0.6210 -0.9653 -2.2112
   38MOL0     H 5194   1.534   5.571   9.590 -1.3350 -0.1465  3.0622
   38MOL0     H 5195   1.633   5.632   9.704  1.1914  3.0436  0.7455
   38MOL0     H 5196   1.819   5.686   9.533 -0.1950 -1.3229  3.3066
   38MOL0     H 5197   1.797   5.527   9.538  0.2576 -0.6611 -1.6005
   38MOL0     H 5198   1.618   5.535   9.353 -0.6266  0.0430  2.9300
   38MOL0     H 5199   1.684   5.703   9.333 -0.0694 -1.3376 -3.0147
   38MOL0     H 5200   1.918   5.598   9.283  1.0277 -1.0590  0.2310
   38MOL0     H 5201   1.853   5.449   9.345 -2.8065  1.3025  3.2241
   38MOL0     H 5202   1.704   5.425   8.919  3.2148  0.6776 -0.3285
   38MOL0     H 5203   1.553   5.564   8.669  1.4972  3.0286 -2.8842
   38MOL0     H 5204   1.680   5.429   8.690  3.8141  1.1828  0.1994
   38MOL0     H 5205   1.711   5.571   8.610 -0.4929 -4.2679 -2.3460
   38MOL0     H 5206   1.809   6.063   8.566  0.0036  0.2222 -1.4657
   38MOL0     H 5207   1.714   6.251   8.403  0.2378  2.9118  0.4998
   38MOL0     H 5208   1.669   6.482   8.416 -0.0313 -3.8101 -2.0674
   38MOL0     H 5209   1.595   6.416   8.284  2.3537  3.0620 -1.4562
   38MOL0     H 5210   1.440   6.600   8.263 -0.4879  0.6274 -0.2151
   38MOL0     H 5211   1.431   6.634   8.426 -0.6369  1.0032 -0.7363
   38MOL0     H 5212   1.697   6.709   8.403  1.4887 -0.0048 -2.3064
   38MOL0     H 5213   1.569   6.811   8.358 -0.1443  0.8288 -3.1042
   38MOL0     H 5214   1.572   6.713   8.133  1.0576 -0.9138 -0.7534
   38MOL0     H 5215   1.735   6.635   8.175  0.3111  0.2919 -1.7687
   38MOL0     H 5216   1.674   6.928   8.168  0.4764  1.5508 -2.3101
   38MOL0     H 5217   1.819   6.841   8.239 -0.4630  3.1631  0.7840
   38MOL0     H 5218   1.757   6.853   7.936  3.1778  0.6251 -2.2918
   38MOL0     H 5219   1.859   6.740   8.005  2.0945  0.2584  2.4369
   38MOL0     H 5220   1.991   6.932   8.124  2.0066  3.1875 -0.1348
   38MOL0     H 5221   1.893   7.051   8.047  1.7287 -0.0825  0.7267
   38MOL0     H 5222   1.969   6.994   7.834  1.2143 -0.5347 -1.5795
   38MOL0     H 5223   2.051   6.845   7.890 -0.7799 -0.6522  1.7887
   38MOL0     H 5224   1.358   6.242   8.602  1.0825  2.7401 -0.7880
   38MOL0     H 5225   1.434   6.058   8.758  1.7133 -3.0948  0.3126
   38MOL0     H 5226   1.761   5.911   8.967 -1.9213  0.2909  0.7758
   38MOL0     H 5227   1.790   5.767   9.163 -1.5639 -0.6494 -0.2565
   38MOL0     H 5228   1.056   5.869  10.124  0.3035 -1.3680  0.1080
   38MOL0     H 5229   0.943   5.691  10.224  0.6530  0.0492 -3.9943
   38MOL0     H 5230   0.616   5.534  10.682 -0.9309 -2.5404  3.1779
   38MOL0     H 5231   0.494   5.346  10.735 -3.2250  2.0224 -1.4641
   38MOL0     H 5232   0.441   5.026  10.453  1.3321  0.9002 -0.7379
   38MOL0     H 5233   0.597   4.972  10.537  0.7387  0.2863  3.2317
   38MOL0     H 5234   0.458   4.788  10.581 -0.6554 -1.1534  2.0218
   38MOL0     H 5235   0.320   4.887  10.606  0.1686 -0.0820 -4.5775
   38MOL0     H 5236   0.570   4.892  10.779 -0.1743  2.0488 -0.8062
   38MOL0     H 5237   0.415   4.982  10.813  1.5588  0.6333 -1.3837
   38MOL0     H 5238   0.301   4.761  10.856  0.0980 -2.6967 -2.1613
   38MOL0     H 5239   0.444   4.786  10.958  2.8465  2.3214 -1.1039
   38MOL0     H 5240   0.554   4.458  10.718  1.6095  1.6766 -1.1192
   38MOL0     H 5241   0.552   5.198  10.335 -1.7078  4.2377 -2.5906
   38MOL0     H 5242   0.819   5.423  10.224  1.2049 -1.9423  1.3715
   38MOL0     H 5243   0.749   5.274  10.206  1.2088  1.0236  0.1779
   38MOL0     H 5244   0.656   5.413  10.155 -1.9577 -1.7870  0.1878
   39MOL0     O 5245   6.235  11.176   7.707  0.2034 -0.9545  0.2906
   39MOL0     C 5246   6.152  11.262   7.715  0.0188  0.1943 -0.5022
   39MOL0     O 5247   6.034  11.265   7.646 -0.2319 -0.4336 -0.8313
   39MOL0     C 5248   5.976  11.154   7.578  0.3623  0.0718  0.0934
   39MOL0     C 5249   5.835  11.144   7.564  0.4093  0.0794  0.3900
   39MOL0     C 5250   5.776  11.026   7.511 -0.3356 -0.0297  0.2134
   39MOL0     C 5251   5.855  10.924   7.452  0.4704 -0.4071  0.5594
   39MOL0     O 5252   5.799  10.805   7.403 -0.0991  0.7764 -0.5292
   39MOL0     C 5253   5.859  10.722   7.302  0.2726  0.2330 -0.3995
   39MOL0     C 5254   5.815  10.575   7.294 -0.4584  0.4141  0.2384
   39MOL0     C 5255   5.672  10.570   7.244  0.0234 -0.2951 -0.0983
   39MOL0     C 5256   5.617  10.422   7.242  1.0834  0.6605 -0.2832
   39MOL0     C 5257   5.493  10.411   7.139 -1.3640  0.2047  0.9384
   39MOL0     C 5258   5.479  10.282   7.080 -0.6287 -0.1736 -0.6783
   39MOL0     C 5259   5.455  10.168   7.195 -0.0267 -1.0002  0.8498
   39MOL0     C 5260   5.383  10.058   7.123 -0.0056  0.4896  0.0782
   39MOL0     N 5261   5.355   9.944   7.210  0.8793  0.0758  0.1065
   39MOL0     C 5262   5.257   9.923   7.308 -0.1121  0.2644 -0.3291
   39MOL0     C 5263   5.264   9.786   7.329  0.1320  0.3298  0.0366
   39MOL0     C 5264   5.174   9.717   7.432  0.0052 -0.5248 -0.2501
   39MOL0     C 5265   5.098   9.609   7.359  0.6195 -0.2554 -0.1942
   39MOL0     C 5266   5.038   9.506   7.455  0.5657 -0.5290 -0.4122
   39MOL0     C 5267   4.938   9.569   7.555 -0.0863  0.6090 -0.4063
   39MOL0     O 5268   4.857   9.480   7.626  0.0755 -0.5602 -0.9374
   39MOL0     C 5269   4.757   9.418   7.561  0.6650  0.5115  0.2453
   39MOL0     C 5270   4.682   9.329   7.627 -0.1068  0.1084  0.4564
   39MOL0     C 5271   4.575   9.248   7.571 -0.6530 -0.2719 -0.6693
   39MOL0     C 5272   4.490   9.177   7.667 -0.4900  0.1856  0.1164
   39MOL0     C 5273   4.551   9.245   7.437 -0.8342  0.6461 -0.3348
   39MOL0     C 5274   4.449   9.161   7.369  0.3366  1.5119 -0.1117
   39MOL0     O 5275   4.407   9.215   7.246 -0.3736 -0.4897  0.2560
   39MOL0     C 5276   4.290   9.200   7.185  0.0181  0.3591  0.1026
   39MOL0     C 5277   4.266   9.270   7.067  0.0543 -0.2196 -0.2309
   39MOL0     C 5278   4.143   9.268   6.997 -0.2321  0.2049 -0.1342
   39MOL0     C 5279   4.038   9.186   7.049  0.5613  0.4727 -0.1657
   39MOL0     O 5280   3.912   9.180   6.978 -0.8503 -0.2558 -0.1146
   39MOL0     C 5281   3.835   9.056   6.997 -0.1529 -0.3640  0.2546
   39MOL0     C 5282   3.721   9.041   6.894  0.0766  0.1627 -0.3678
   39MOL0     C 5283   3.690   8.914   6.814 -0.0590  0.0398  0.0849
   39MOL0     C 5284   3.822   8.855   6.749  1.1653 -0.8056  0.3686
   39MOL0     C 5285   3.786   8.738   6.650 -0.3236 -0.8958 -1.1554
   39MOL0     C 5286   3.915   8.661   6.624 -0.2895  0.8392 -0.0440
   39MOL0     C 5287   3.996   8.732   6.518  0.8834 -0.2973 -0.0200
   39MOL0     C 5288   3.921   8.739   6.386 -0.4351 -0.3730  0.1024
   39MOL0    Cl 5289   4.036   8.768   6.262 -0.3837  0.2771  0.1053
   39MOL0     C 5290   4.067   9.111   7.160 -1.0290  0.4138  0.0503
   39MOL0     C 5291   4.187   9.122   7.235 -0.2542 -0.8213  0.4330
   39MOL0     O 5292   4.413   9.058   7.418 -1.2189  0.3926 -1.0080
   39MOL0     C 5293   4.630   9.343   7.368 -0.7534  0.0150 -0.1605
   39MOL0     C 5294   4.729   9.421   7.420  0.3223 -0.0965 -0.2983
   39MOL0     N 5295   5.369   9.732   7.250  0.5853 -0.6898 -0.1230
   39MOL0     N 5296   5.423   9.828   7.179 -0.1405 -0.0419 -0.3656
   39MOL0     C 5297   5.993  10.951   7.443 -0.0130 -0.0601  0.8540
   39MOL0     C 5298   6.060  11.057   7.519 -0.1944 -0.5461 -0.1060
   39MOL0     C 5299   6.177  11.362   7.817  0.6003 -0.6377 -0.1582
   39MOL0     C 5300   6.317  11.398   7.840 -0.6613 -0.3526  0.3067
   39MOL0     C 5301   6.357  11.481   7.937 -0.5257  0.4680 -0.6368
   39MOL0     C 5302   6.255  11.558   8.005  0.7437 -0.4549 -0.1410
   39MOL0     O 5303   6.299  11.635   8.106 -0.2118  0.8268  0.2762
   39MOL0     C 5304   6.222  11.741   8.158  0.8227 -0.3600  0.2901
   39MOL0     C 5305   6.314  11.788   8.273  0.3254 -0.7506 -0.1585
   39MOL0     C 5306   6.455  11.823   8.220 -0.5856  0.9235  0.9519
   39MOL0     C 5307   6.523  11.909   8.324 -1.1200  0.2453 -0.9079
   39MOL0     C 5308   6.667  11.936   8.283  0.3738 -0.6903 -0.4691
   39MOL0     C 5309   6.783  11.959   8.252 -0.1386  0.4488  0.2778
   39MOL0     C 5310   6.120  11.543   7.977 -0.5236 -0.2433  0.9288
   39MOL0     C 5311   6.083  11.447   7.879  0.8045  0.0652 -0.3103
   39MOL0     C 5312   5.935  11.441   7.848 -0.0146 -0.6834 -0.2557
   39MOL0     H 5313   5.788  11.223   7.622  2.9103  3.8104 -2.2098
   39MOL0     H 5314   5.669  11.018   7.529 -0.3879  0.7112  0.2931
   39MOL0     H 5315   5.964  10.727   7.332  0.1184 -1.8526  0.6960
   39MOL0     H 5316   5.849  10.780   7.210  0.8401  2.9129  1.1378
   39MOL0     H 5317   5.879  10.519   7.225 -0.5738  0.1057  0.3811
   39MOL0     H 5318   5.827  10.534   7.395  2.4337  0.9698  0.2058
   39MOL0     H 5319   5.616  10.624   7.321  2.3738  0.6414  1.0681
   39MOL0     H 5320   5.668  10.622   7.148  0.8221  2.6320  1.3348
   39MOL0     H 5321   5.700  10.363   7.201 -0.6230 -2.5449  0.5203
   39MOL0     H 5322   5.587  10.383   7.340 -0.1422 -0.0142 -0.9010
   39MOL0     H 5323   5.509  10.487   7.062  1.8730  0.1416  1.4189
   39MOL0     H 5324   5.399  10.431   7.191 -0.4316 -1.0142  3.2315
   39MOL0     H 5325   5.392  10.287   7.013  1.4367  1.8951 -3.4654
   39MOL0     H 5326   5.567  10.258   7.018 -0.3460 -0.0508 -0.3250
   39MOL0     H 5327   5.391  10.202   7.277 -3.3214  2.2986 -2.6492
   39MOL0     H 5328   5.556  10.139   7.226  1.9062  0.6811 -3.1317
   39MOL0     H 5329   5.290  10.077   7.068 -1.8362 -1.6361  2.2166
   39MOL0     H 5330   5.458  10.028   7.049  3.1927  5.5476  0.7893
   39MOL0     H 5331   5.199  10.001   7.356 -0.1366 -0.7174  1.2989
   39MOL0     H 5332   5.111   9.798   7.470 -2.0508 -0.3070 -3.7180
   39MOL0     H 5333   5.237   9.668   7.507  0.2835 -2.8486 -1.8831
   39MOL0     H 5334   5.026   9.666   7.300  1.2473  0.0675 -0.6579
   39MOL0     H 5335   5.173   9.551   7.307  0.9541  0.8214 -0.9421
   39MOL0     H 5336   4.982   9.430   7.399 -3.0996  2.7199 -1.5323
   39MOL0     H 5337   5.110   9.445   7.511 -1.3096 -3.1943 -0.6834
   39MOL0     H 5338   4.990   9.628   7.631  0.1056  1.8552 -1.4625
   39MOL0     H 5339   4.877   9.646   7.507 -2.8989  0.1529  2.1724
   39MOL0     H 5340   4.716   9.319   7.730 -1.7429 -0.4789  0.9772
   39MOL0     H 5341   4.516   9.208   7.769 -2.7770  1.9296  0.2604
   39MOL0     H 5342   4.492   9.068   7.658 -0.9231  0.2073 -0.2885
   39MOL0     H 5343   4.387   9.206   7.643 -0.0819 -0.4552 -2.6460
   39MOL0     H 5344   4.349   9.329   7.031  2.4720 -3.3420 -0.2375
   39MOL0     H 5345   4.141   9.322   6.903 -0.7989 -2.3056 -1.6711
   39MOL0     H 5346   3.907   8.973   6.997  0.6912  0.3258  1.5812
   39MOL0     H 5347   3.788   9.062   7.096 -0.2139  1.8650  0.1404
   39MOL0     H 5348   3.627   9.061   6.947  0.4990  1.5241 -0.0928
   39MOL0     H 5349   3.727   9.128   6.828  0.9502 -0.7424 -1.5323
   39MOL0     H 5350   3.607   8.944   6.751 -3.1632  2.3006  4.6476
   39MOL0     H 5351   3.657   8.844   6.892  2.6217 -2.0586 -0.4884
   39MOL0     H 5352   3.906   8.830   6.815  0.9807  1.0894  1.4042
   39MOL0     H 5353   3.861   8.940   6.691  0.8525 -0.2880  0.9062
   39MOL0     H 5354   3.728   8.664   6.706  0.2798 -1.1099 -0.7961
   39MOL0     H 5355   3.726   8.770   6.565 -2.2323  0.9067  0.7290
   39MOL0     H 5356   3.890   8.564   6.582  2.2123  0.6218 -1.2353
   39MOL0     H 5357   3.979   8.650   6.712  2.1114  0.8272 -1.6845
   39MOL0     H 5358   4.096   8.688   6.514  1.5288  1.1805 -0.6499
   39MOL0     H 5359   4.006   8.836   6.551  1.0163  0.9525 -3.6241
   39MOL0     H 5360   3.851   8.822   6.373  1.1806  0.7575 -1.7957
   39MOL0     H 5361   3.866   8.647   6.362  2.3338 -1.4774 -2.6619
   39MOL0     H 5362   3.994   9.045   7.206  2.3424 -2.5682  1.6358
   39MOL0     H 5363   4.190   9.079   7.334 -0.1510 -1.2953  0.2306
   39MOL0     H 5364   4.618   9.347   7.260 -0.6662  0.0473 -0.1690
   39MOL0     H 5365   4.781   9.474   7.340  1.1500 -2.3636 -1.3463
   39MOL0     H 5366   6.059  10.880   7.396 -0.0067  0.7545 -0.4060
   39MOL0     H 5367   6.169  11.060   7.520 -0.1326  2.7938 -1.6364
   39MOL0     H 5368   6.388  11.344   7.779 -0.5407 -0.3081  0.4053
   39MOL0     H 5369   6.463  11.503   7.950  0.5634 -2.3503 -3.4331
   39MOL0     H 5370   6.217  11.829   8.093  2.9191 -0.2329  0.2432
   39MOL0     H 5371   6.134  11.702   8.210  2.9002 -2.5739  2.4487
   39MOL0     H 5372   6.317  11.712   8.352  0.7412 -0.6544 -0.0831
   39MOL0     H 5373   6.275  11.885   8.305  1.7491  0.7909 -2.7876
   39MOL0     H 5374   6.503  11.726   8.209 -1.3929  0.1080  3.7389
   39MOL0     H 5375   6.442  11.875   8.125  0.7330  2.2596  1.4489
   39MOL0     H 5376   6.526  11.860   8.422  1.3613  0.3489 -0.8653
   39MOL0     H 5377   6.462  12.000   8.330 -0.7474  0.4883 -0.7512
   39MOL0     H 5378   6.875  11.994   8.211  0.1744 -2.6597 -1.9985
   39MOL0     H 5379   6.046  11.607   8.023 -0.9781  0.9574 -1.3423
   39MOL0     H 5380   5.878  11.480   7.933  1.6732 -0.9677  1.0612
   39MOL0     H 5381   5.912  11.500   7.760  4.1143 -0.1096 -1.1425
   39MOL0     H 5382   5.906  11.337   7.827  0.6152 -0.6233 -1.4842
   40MOL0     O 5383   2.712   1.836   9.144 -0.2640  0.6338  0.4795
   40MOL0     C 5384   2.805   1.796   9.075  0.2025 -0.2620  0.1422
   40MOL0     O 5385   2.936   1.821   9.090 -0.6499 -0.6754 -0.9695
   40MOL0     C 5386   2.962   1.909   9.197 -0.0240  0.2228 -0.2035
   40MOL0     C 5387   2.938   1.872   9.336 -1.0233 -0.3208  0.1974
   40MOL0     C 5388   2.975   1.966   9.436 -0.6255  0.0448 -0.5618
   40MOL0     C 5389   3.061   2.077   9.413  0.4879  0.2487  0.0125
   40MOL0     O 5390   3.134   2.139   9.506 -0.9678 -0.1292 -0.1303
   40MOL0     C 5391   3.131   2.282   9.510 -0.2560 -0.4858  0.4874
   40MOL0     C 5392   3.266   2.338   9.455  0.1188  0.3349  0.0826
   40MOL0     C 5393   3.372   2.334   9.564 -0.0131 -0.2152  0.4255
   40MOL0     C 5394   3.481   2.433   9.534 -0.0805  0.5912  0.3034
   40MOL0     C 5395   3.600   2.401   9.634  0.4054 -0.1927  0.2076
   40MOL0     C 5396   3.738   2.472   9.589 -0.0630 -0.0399 -0.1843
   40MOL0     C 5397   3.747   2.608   9.635  0.6093  0.1169 -0.1696
   40MOL0     C 5398   3.874   2.668   9.579  0.4446 -0.3329  0.5690
   40MOL0     N 5399   4.008   2.631   9.633 -0.5803 -0.0015 -0.0758
   40MOL0     C 5400   4.085   2.514   9.588  0.4124  0.6033 -0.3930
   40MOL0     C 5401   4.206   2.546   9.640 -0.1010 -0.0493 -0.5349
   40MOL0     C 5402   4.347   2.490   9.611  0.5245  0.3253 -1.1585
   40MOL0     C 5403   4.373   2.343   9.662  0.3610  0.0879  0.0078
   40MOL0     C 5404   4.479   2.267   9.581  0.4901 -0.4172  0.3233
   40MOL0     C 5405   4.545   2.145   9.646  0.9383  0.3112 -0.2260
   40MOL0     O 5406   4.456   2.034   9.617  0.1937  0.0537 -0.5354
   40MOL0     C 5407   4.447   1.983   9.484  0.3841 -0.8735  0.5048
   40MOL0     C 5408   4.329   2.019   9.417 -0.5009 -0.1459  0.6420
   40MOL0     C 5409   4.301   1.981   9.281  0.1566 -0.1620 -1.1238
   40MOL0     C 5410   4.180   2.029   9.220 -0.2998 -0.1068  0.4703
   40MOL0     C 5411   4.389   1.891   9.218  0.1352 -0.7545 -0.4725
   40MOL0     C 5412   4.372   1.847   9.072  0.3889 -0.4304 -0.2445
   40MOL0     O 5413   4.335   1.937   8.974  0.3153 -0.0005  0.2908
   40MOL0     C 5414   4.305   1.887   8.851  0.3969  0.1803  1.3428
   40MOL0     C 5415   4.403   1.883   8.745 -0.1864 -1.1423 -0.5701
   40MOL0     C 5416   4.368   1.843   8.620 -0.4113  0.2133 -0.6931
   40MOL0     C 5417   4.239   1.813   8.589  0.8113  1.0902  0.8070
   40MOL0     O 5418   4.210   1.789   8.458  1.0531  0.3390  0.2578
   40MOL0     C 5419   4.136   1.893   8.390  0.4895  0.4744 -0.4787
   40MOL0     C 5420   4.205   2.015   8.329  0.0674  0.1255 -0.2456
   40MOL0     C 5421   4.327   1.965   8.241  0.9202  0.2103  0.1248
   40MOL0     C 5422   4.278   1.918   8.106  0.2692  0.1837  0.0664
   40MOL0     C 5423   4.398   1.879   8.018 -1.0458 -0.2687  0.5463
   40MOL0     C 5424   4.475   1.760   8.084 -0.6232  0.4678  0.6383
   40MOL0     C 5425   4.374   1.640   8.096 -0.0094 -0.2618 -0.5660
   40MOL0     C 5426   4.429   1.521   8.023  0.5839 -0.3641 -0.0712
   40MOL0    Cl 5427   4.589   1.463   8.091  0.0891  0.0718  0.0659
   40MOL0     C 5428   4.145   1.831   8.686 -0.3715 -0.0154  0.1649
   40MOL0     C 5429   4.181   1.850   8.819  0.8724  0.6234 -0.2537
   40MOL0     O 5430   4.398   1.731   9.054 -1.1013 -0.8715  0.1441
   40MOL0     C 5431   4.502   1.851   9.288 -0.1822  0.5831  0.2152
   40MOL0     C 5432   4.541   1.897   9.421 -0.0596  0.7100 -0.7236
   40MOL0     N 5433   4.198   2.658   9.735 -0.8300  0.0165 -0.2614
   40MOL0     N 5434   4.078   2.704   9.730 -0.3758 -0.2484 -0.6337
   40MOL0     C 5435   3.090   2.105   9.284  0.1687 -0.1935  0.1369
   40MOL0     C 5436   3.035   2.027   9.185 -0.0595 -0.6704  0.8418
   40MOL0     C 5437   2.763   1.701   8.964  0.2466 -0.0423 -1.0559
   40MOL0     C 5438   2.642   1.641   8.975  0.4432  0.4894  0.4283
   40MOL0     C 5439   2.586   1.558   8.880  0.2032  0.6357  0.1350
   40MOL0     C 5440   2.667   1.516   8.766  0.7311  0.1256 -0.2307
   40MOL0     O 5441   2.625   1.414   8.676  0.2652  0.2741 -1.0641
   40MOL0     C 5442   2.498   1.352   8.699  0.5327 -0.0523  0.3068
   40MOL0     C 5443   2.474   1.265   8.567 -0.1935  0.7683  0.1412
   40MOL0     C 5444   2.480   1.336   8.426 -0.5531  0.2118  0.7872
   40MOL0     C 5445   2.416   1.468   8.427 -0.7667  0.0809  0.4865
   40MOL0     C 5446   2.375   1.512   8.299  0.2268  0.6305 -0.5312
   40MOL0     C 5447   2.331   1.555   8.194  0.2861  0.1733  0.3196
   40MOL0     C 5448   2.792   1.569   8.756 -0.0462  0.1933 -0.5477
   40MOL0     C 5449   2.842   1.666   8.855  1.8019 -1.0331  1.1650
   40MOL0     C 5450   2.980   1.716   8.836  0.6578  0.1854 -0.6948
   40MOL0     H 5451   2.888   1.783   9.372 -1.3140 -0.4603 -0.5544
   40MOL0     H 5452   2.970   1.943   9.542 -1.9037 -1.2924 -0.8713
   40MOL0     H 5453   3.107   2.312   9.612 -0.4273 -0.3655  0.4129
   40MOL0     H 5454   3.044   2.319   9.455 -1.4400 -2.2040  1.1001
   40MOL0     H 5455   3.303   2.269   9.379 -1.5592 -0.5378  0.0306
   40MOL0     H 5456   3.243   2.442   9.428 -2.5385  0.4526  2.2890
   40MOL0     H 5457   3.325   2.342   9.663 -0.6686  1.0369  0.0398
   40MOL0     H 5458   3.417   2.234   9.566  3.4064  1.1379 -1.3235
   40MOL0     H 5459   3.511   2.420   9.430 -2.3469 -1.3401 -0.1916
   40MOL0     H 5460   3.438   2.533   9.537  1.8321  1.6132 -2.6080
   40MOL0     H 5461   3.611   2.293   9.645 -0.9940 -0.6750 -2.4236
   40MOL0     H 5462   3.573   2.435   9.735  0.2104 -0.1408  0.1386
   40MOL0     H 5463   3.822   2.422   9.637  0.5068 -0.6221 -1.7133
   40MOL0     H 5464   3.744   2.464   9.480  1.1487  0.6669 -0.1870
   40MOL0     H 5465   3.766   2.610   9.742  1.5762 -0.3926 -0.3137
   40MOL0     H 5466   3.665   2.669   9.598 -0.0698 -0.1717  0.8371
   40MOL0     H 5467   3.886   2.658   9.471 -1.1043  6.9971 -0.7992
   40MOL0     H 5468   3.854   2.775   9.585  2.7366  0.1184  0.8803
   40MOL0     H 5469   4.049   2.429   9.531  0.3180  0.9829 -0.9129
   40MOL0     H 5470   4.427   2.550   9.656  1.0963 -1.3824  0.2096
   40MOL0     H 5471   4.381   2.502   9.508  1.2826 -0.1889 -0.9757
   40MOL0     H 5472   4.405   2.350   9.766  1.2822  2.4115 -0.3650
   40MOL0     H 5473   4.279   2.288   9.650 -0.3415  0.7640  1.9942
   40MOL0     H 5474   4.454   2.245   9.477  1.0443 -2.1121  0.5255
   40MOL0     H 5475   4.561   2.339   9.574 -0.9552  1.2586 -0.2024
   40MOL0     H 5476   4.641   2.126   9.598  2.3463  0.3262  2.4081
   40MOL0     H 5477   4.560   2.150   9.755 -2.4041 -1.7731  0.4896
   40MOL0     H 5478   4.270   2.087   9.477 -1.8670 -1.4749  0.8577
   40MOL0     H 5479   4.118   1.943   9.192 -1.2157  0.7097 -0.0578
   40MOL0     H 5480   4.198   2.091   9.132 -0.0633 -3.2515 -1.9074
   40MOL0     H 5481   4.124   2.096   9.286 -2.6865  1.6208 -2.9799
   40MOL0     H 5482   4.506   1.914   8.760 -0.1697 -0.3069 -2.1697
   40MOL0     H 5483   4.443   1.835   8.543 -0.5873 -1.3324 -0.7387
   40MOL0     H 5484   4.063   1.843   8.325 -0.7631 -0.4790  1.5747
   40MOL0     H 5485   4.059   1.930   8.458 -0.6322 -1.3956 -0.6520
   40MOL0     H 5486   4.124   2.063   8.273 -1.5231 -1.1651  0.8522
   40MOL0     H 5487   4.232   2.086   8.408  0.2010  2.4829 -2.2700
   40MOL0     H 5488   4.369   1.889   8.308 -0.1832  1.1369  1.9349
   40MOL0     H 5489   4.404   2.042   8.240 -0.0482  1.2021  0.4578
   40MOL0     H 5490   4.223   1.998   8.056  0.3791 -0.1809 -0.6523
   40MOL0     H 5491   4.204   1.839   8.119  0.1242  0.6582  2.7813
   40MOL0     H 5492   4.361   1.856   7.917 -2.8158 -0.5915  1.2406
   40MOL0     H 5493   4.466   1.964   8.006 -1.3182  0.1311  1.7268
   40MOL0     H 5494   4.513   1.798   8.179 -0.4429  1.1718  0.2901
   40MOL0     H 5495   4.553   1.733   8.013 -1.6873  0.3376 -0.5025
   40MOL0     H 5496   4.274   1.665   8.057  0.0209 -0.3556 -0.7047
   40MOL0     H 5497   4.371   1.617   8.203  1.8426 -0.9084 -0.6324
   40MOL0     H 5498   4.432   1.547   7.917 -0.2266 -0.1019 -0.0337
   40MOL0     H 5499   4.370   1.429   8.022  1.5376 -1.0169  1.0028
   40MOL0     H 5500   4.043   1.820   8.650 -0.4186  2.2189 -0.5263
   40MOL0     H 5501   4.099   1.853   8.890  2.6327  0.8359  1.9021
   40MOL0     H 5502   4.565   1.789   9.226 -0.5014  1.1239 -0.6748
   40MOL0     H 5503   4.630   1.879   9.480 -1.2347 -0.2328  0.8481
   40MOL0     H 5504   3.146   2.191   9.248 -2.3830  0.3362 -3.0000
   40MOL0     H 5505   3.046   2.062   9.083 -0.4517 -1.5362  0.4994
   40MOL0     H 5506   2.575   1.664   9.057 -2.6342  0.6613 -1.9074
   40MOL0     H 5507   2.483   1.526   8.891  0.3807  0.2384  0.7014
   40MOL0     H 5508   2.507   1.291   8.789 -0.7913 -1.9753 -0.8070
   40MOL0     H 5509   2.418   1.426   8.706  1.5761  1.2030 -0.5501
   40MOL0     H 5510   2.381   1.212   8.586  1.1883 -1.0186  2.6694
   40MOL0     H 5511   2.555   1.192   8.562 -0.5559  0.0539  2.7466
   40MOL0     H 5512   2.588   1.336   8.408 -0.5073  1.9275  0.8228
   40MOL0     H 5513   2.425   1.271   8.357 -2.3051 -0.4117  2.6679
   40MOL0     H 5514   2.479   1.548   8.467  2.0194 -1.3077 -0.7906
   40MOL0     H 5515   2.329   1.462   8.492 -2.2081  1.1985 -1.2641
   40MOL0     H 5516   2.288   1.586   8.101  0.6046  0.2646  0.2034
   40MOL0     H 5517   2.859   1.564   8.671 -1.9649  3.2320 -2.4309
   40MOL0     H 5518   3.028   1.673   8.747 -0.0158  0.8375 -1.3881
   40MOL0     H 5519   2.970   1.824   8.831 -4.7683 -0.0361 -0.0519
   40MOL0     H 5520   3.043   1.687   8.920  0.1041 -2.7651 -1.1662
   41MOL0     O 5521   3.024   3.607  10.048  0.0528 -0.6199 -0.1212
   41MOL0     C 5522   2.989   3.562  10.157  0.1233  0.2573 -0.3405
   41MOL0     O 5523   2.893   3.458  10.181 -0.3743 -0.5918 -0.0744
   41MOL0     C 5524   2.782   3.452  10.109  0.4631  0.4541 -0.3112
   41MOL0     C 5525   2.754   3.320  10.059  0.0777 -0.4256  0.7235
   41MOL0     C 5526   2.627   3.293  10.008  1.1126 -0.1181  0.5307
   41MOL0     C 5527   2.538   3.396   9.981  0.3574 -0.3226 -0.3098
   41MOL0     O 5528   2.416   3.369   9.924  0.3966 -0.3148  0.4618
   41MOL0     C 5529   2.333   3.465   9.849 -0.1515 -0.6841 -0.0103
   41MOL0     C 5530   2.325   3.405   9.712 -0.0091  0.3563 -0.5599
   41MOL0     C 5531   2.291   3.495   9.598  0.0718 -0.8918 -0.1550
   41MOL0     C 5532   2.156   3.557   9.601  0.1226  0.3019 -0.2445
   41MOL0     C 5533   2.127   3.647   9.487  0.1738  0.0667 -0.8461
   41MOL0     C 5534   2.132   3.586   9.352 -0.3610  0.3602 -0.1163
   41MOL0     C 5535   2.106   3.690   9.249 -0.0703  0.7453  0.9419
   41MOL0     C 5536   1.954   3.700   9.219  0.5480 -0.0260 -0.0231
   41MOL0     N 5537   1.945   3.790   9.104  0.0996 -0.5007  1.0351
   41MOL0     C 5538   1.949   3.929   9.106 -0.2876 -0.0638 -0.3724
   41MOL0     C 5539   1.939   3.962   8.978 -0.2940  0.0552  0.4993
   41MOL0     C 5540   1.924   4.107   8.928 -0.6254 -0.1019 -0.4216
   41MOL0     C 5541   1.798   4.170   8.986 -0.8441 -0.3659  0.1827
   41MOL0     C 5542   1.672   4.112   8.928  0.6439 -0.2529  0.4320
   41MOL0     C 5543   1.631   4.160   8.791  0.1715 -0.4610  0.2284
   41MOL0     O 5544   1.604   4.300   8.819  0.2100  0.0263  0.2619
   41MOL0     C 5545   1.488   4.344   8.873  0.5154 -0.4513  0.1948
   41MOL0     C 5546   1.481   4.478   8.904 -0.2115  0.0500 -0.5964
   41MOL0     C 5547   1.355   4.539   8.953  0.4978  0.8973  0.2995
   41MOL0     C 5548   1.378   4.681   8.985  0.0655  1.2320  0.1115
   41MOL0     C 5549   1.235   4.465   8.965  0.3641 -0.7153 -0.8676
   41MOL0     C 5550   1.108   4.525   9.018 -1.0910  0.1676 -0.8636
   41MOL0     O 5551   0.993   4.448   9.004 -0.7281  0.4065  0.5335
   41MOL0     C 5552   0.871   4.479   9.055  0.8286 -0.0345  0.7749
   41MOL0     C 5553   0.787   4.366   9.080 -0.4603 -0.2326 -0.1981
   41MOL0     C 5554   0.668   4.400   9.142 -0.3726  0.4659 -0.3593
   41MOL0     C 5555   0.634   4.529   9.178 -0.5347  0.1534 -0.0471
   41MOL0     O 5556   0.511   4.564   9.235 -0.2282  0.4527  0.3624
   41MOL0     C 5557   0.438   4.465   9.312  0.1392 -0.6934  0.4959
   41MOL0     C 5558   0.318   4.531   9.358 -0.0836  0.1857 -0.2755
   41MOL0     C 5559   0.347   4.622   9.483 -0.1750  0.1061  0.7944
   41MOL0     C 5560   0.218   4.652   9.562  0.1296 -0.9164  0.5599
   41MOL0     C 5561   0.188   4.556   9.677  0.2508 -0.2094  0.3700
   41MOL0     C 5562   0.049   4.592   9.741 -0.9324  0.7655 -0.1359
   41MOL0     C 5563   0.036   4.723   9.817 -0.4855 -0.1942  0.3655
   41MOL0     C 5564  -0.041   4.704   9.952 -0.0891  0.7738  0.3547
   41MOL0    Cl 5565  -0.055   4.858  10.052  0.2565 -0.4076 -0.4314
   41MOL0     C 5566   0.708   4.641   9.141 -0.2802 -0.1789 -0.5283
   41MOL0     C 5567   0.831   4.609   9.079  0.4158  1.6217 -0.4761
   41MOL0     O 5568   1.114   4.642   9.055 -0.0460 -0.0827 -0.3211
   41MOL0     C 5569   1.249   4.330   8.941 -0.3463  0.6662 -0.4419
   41MOL0     C 5570   1.368   4.270   8.890  0.7360  0.3660 -0.2187
   41MOL0     N 5571   1.936   3.847   8.901  0.6881  0.4304  0.2144
   41MOL0     N 5572   1.944   3.748   8.976  0.9482  1.0680  0.3078
   41MOL0     C 5573   2.571   3.522  10.024  0.0086 -1.2320 -0.0903
   41MOL0     C 5574   2.689   3.554  10.095 -0.4801  0.2668  0.3283
   41MOL0     C 5575   3.075   3.587  10.277 -0.9893 -0.5683  1.9536
   41MOL0     C 5576   3.054   3.513  10.395  0.4413  1.0095  1.0553
   41MOL0     C 5577   3.111   3.544  10.512 -0.4308 -0.2105 -0.0149
   41MOL0     C 5578   3.211   3.648  10.523  1.1205  0.0650  0.6213
   41MOL0     O 5579   3.269   3.699  10.633 -0.1680  0.9433  0.1672
   41MOL0     C 5580   3.208   3.819  10.683  0.9759 -0.1909 -0.1921
   41MOL0     C 5581   3.280   3.881  10.803 -0.9753  0.1859 -0.1721
   41MOL0     C 5582   3.280   3.775  10.926  0.5237  0.3001  0.1316
   41MOL0     C 5583   3.360   3.834  11.043 -0.1574  0.0112  0.2098
   41MOL0     C 5584   3.510   3.826  11.014 -0.6943  0.0736 -0.3171
   41MOL0     C 5585   3.633   3.813  10.989 -0.2795  0.2311 -0.2711
   41MOL0     C 5586   3.254   3.703  10.404  0.1255  0.8037  0.0311
   41MOL0     C 5587   3.188   3.677  10.287  0.2869 -1.0389 -0.0317
   41MOL0     C 5588   3.238   3.751  10.158  0.3042  0.2549  0.6632
   41MOL0     H 5589   2.806   3.229  10.087 -0.5197 -0.1221  2.9924
   41MOL0     H 5590   2.597   3.192   9.980 -0.5790  0.5290 -0.1004
   41MOL0     H 5591   2.378   3.564   9.838  1.9966 -1.7891 -2.1258
   41MOL0     H 5592   2.232   3.477   9.887 -0.7716  3.6769 -2.3299
   41MOL0     H 5593   2.421   3.361   9.682 -0.9151 -1.6199 -0.7044
   41MOL0     H 5594   2.259   3.318   9.716 -1.1759  1.2235 -0.4207
   41MOL0     H 5595   2.370   3.570   9.604  0.7847 -1.7298  1.4923
   41MOL0     H 5596   2.303   3.434   9.508  0.6326 -0.0397 -0.6637
   41MOL0     H 5597   2.086   3.473   9.606  2.7149 -1.9511  3.2824
   41MOL0     H 5598   2.156   3.610   9.696  1.3580  0.8454 -0.5293
   41MOL0     H 5599   2.198   3.730   9.487  0.8719 -0.5225 -1.1304
   41MOL0     H 5600   2.034   3.691   9.525  1.8084  0.6042  3.0997
   41MOL0     H 5601   2.229   3.542   9.325 -1.1049 -1.5183  0.0667
   41MOL0     H 5602   2.057   3.506   9.349 -0.5995  0.5632  0.3492
   41MOL0     H 5603   2.162   3.665   9.158 -1.4412 -1.8926  0.7376
   41MOL0     H 5604   2.154   3.783   9.280  2.5137  1.6006 -4.3761
   41MOL0     H 5605   1.918   3.602   9.188  0.2883  0.7347 -2.3615
   41MOL0     H 5606   1.905   3.737   9.310  0.6838  1.8814 -0.6804
   41MOL0     H 5607   1.948   3.998   9.190  0.1526  1.1674 -1.3470
   41MOL0     H 5608   1.928   4.108   8.819 -2.2775 -3.0768 -0.6326
   41MOL0     H 5609   2.015   4.159   8.961 -0.3689 -0.9269  0.2075
   41MOL0     H 5610   1.800   4.168   9.095  0.1867 -1.0158  0.1654
   41MOL0     H 5611   1.791   4.275   8.957  0.0992 -0.6117 -1.0431
   41MOL0     H 5612   1.698   4.008   8.910  4.8527  0.7690 -0.5126
   41MOL0     H 5613   1.582   4.126   8.989  0.5157  2.2127 -0.2040
   41MOL0     H 5614   1.723   4.146   8.733  0.8449 -2.9196  1.7334
   41MOL0     H 5615   1.543   4.107   8.755  1.8697 -3.2199 -0.1126
   41MOL0     H 5616   1.568   4.541   8.886  1.8222 -2.3360  0.2315
   41MOL0     H 5617   1.481   4.716   8.970  0.9888 -1.7721 -1.4573
   41MOL0     H 5618   1.348   4.693   9.090  1.2396 -2.0455  0.9669
   41MOL0     H 5619   1.325   4.748   8.918  0.8768 -0.3017 -2.1824
   41MOL0     H 5620   0.817   4.264   9.059  1.5983  0.1832  0.4126
   41MOL0     H 5621   0.611   4.315   9.179  1.8284 -0.5817  0.8397
   41MOL0     H 5622   0.400   4.388   9.244  0.0285  2.2149 -3.0511
   41MOL0     H 5623   0.499   4.412   9.385  0.2327  0.4929  1.2987
   41MOL0     H 5624   0.282   4.607   9.288  1.4126  2.6350  1.4354
   41MOL0     H 5625   0.246   4.458   9.395 -2.3465  2.2992 -0.2221
   41MOL0     H 5626   0.386   4.718   9.448  0.7310 -0.2962  0.6723
   41MOL0     H 5627   0.417   4.573   9.551  2.2499 -0.2187 -1.7442
   41MOL0     H 5628   0.128   4.650   9.499  0.2015 -3.4167  0.4487
   41MOL0     H 5629   0.232   4.753   9.603  3.0564 -0.1941 -1.9168
   41MOL0     H 5630   0.180   4.451   9.647 -1.3794 -0.5259  1.7822
   41MOL0     H 5631   0.257   4.558   9.761  0.2362 -1.0728  0.4088
   41MOL0     H 5632   0.022   4.515   9.814 -1.6491 -1.5490 -2.6772
   41MOL0     H 5633  -0.038   4.583   9.674 -0.6616  0.7113 -0.4862
   41MOL0     H 5634  -0.019   4.798   9.759  1.6149  0.2503 -1.1557
   41MOL0     H 5635   0.137   4.763   9.828 -0.2771 -0.5546 -0.1549
   41MOL0     H 5636   0.019   4.649  10.025  0.8778  0.2103 -0.8346
   41MOL0     H 5637  -0.140   4.659   9.935  1.1458 -0.6228 -4.7493
   41MOL0     H 5638   0.684   4.741   9.176  3.1566  0.4730  0.3816
   41MOL0     H 5639   0.882   4.694   9.035  0.3009  1.3962 -1.0538
   41MOL0     H 5640   1.167   4.265   8.969  1.4367 -1.3633  0.3171
   41MOL0     H 5641   1.361   4.163   8.870 -0.7356  0.2025  0.9646
   41MOL0     H 5642   2.484   3.587  10.019 -0.4354 -1.6403  1.6269
   41MOL0     H 5643   2.732   3.642  10.142  0.0793  0.0620  0.2110
   41MOL0     H 5644   2.980   3.434  10.394 -0.5417  1.9157  0.8349
   41MOL0     H 5645   3.089   3.476  10.593 -3.9259  1.5110  0.6461
   41MOL0     H 5646   3.206   3.897  10.606  2.1371  0.8982  0.8195
   41MOL0     H 5647   3.104   3.798  10.711  1.5564 -1.4253  1.1984
   41MOL0     H 5648   3.241   3.982  10.821 -0.2585  0.7439 -1.6176
   41MOL0     H 5649   3.384   3.892  10.771 -0.5759  2.1267  1.5566
   41MOL0     H 5650   3.175   3.760  10.952  0.0104  3.6392  0.5378
   41MOL0     H 5651   3.331   3.684  10.893  0.7347  0.0643  1.0828
   41MOL0     H 5652   3.339   3.787  11.140 -0.7550  3.2715  1.7981
   41MOL0     H 5653   3.320   3.935  11.053 -1.6437 -0.5307  0.1463
   41MOL0     H 5654   3.733   3.801  10.953 -1.4279 -0.6968 -3.5257
   41MOL0     H 5655   3.339   3.770  10.407  0.4809  0.3348  0.6888
   41MOL0     H 5656   3.319   3.820  10.184 -1.1738  0.9608  4.0059
   41MOL0     H 5657   3.284   3.680  10.089  1.3060 -0.2855  1.8583
   41MOL0     H 5658   3.155   3.811  10.118  0.3687 -0.7262 -1.0339
   42MOL0     O 5659   3.859   2.958   7.878 -0.0899 -0.8968 -0.4669
   42MOL0     C 5660   3.909   3.067   7.887  0.3692 -1.1719 -0.4786
   42MOL0     O 5661   3.870   3.180   7.813 -0.2375 -0.2415 -0.3841
   42MOL0     C 5662   3.815   3.152   7.692  0.8976 -0.4109  0.4504
   42MOL0     C 5663   3.685   3.172   7.672  0.5653 -0.6924 -0.3512
   42MOL0     C 5664   3.626   3.152   7.546 -0.2921  0.9534  0.3841
   42MOL0     C 5665   3.694   3.106   7.443 -1.1711 -0.2959 -0.2598
   42MOL0     O 5666   3.630   3.088   7.327  1.3061  0.2606 -0.2026
   42MOL0     C 5667   3.688   3.048   7.205 -0.4833  0.9618  0.4839
   42MOL0     C 5668   3.591   3.060   7.095  0.6750 -1.1184  1.0275
   42MOL0     C 5669   3.651   3.077   6.957  0.6710  0.0773 -0.6270
   42MOL0     C 5670   3.711   2.941   6.913  0.5211 -0.4736 -0.5280
   42MOL0     C 5671   3.833   2.959   6.821 -0.2627  0.0014  0.5801
   42MOL0     C 5672   3.803   3.047   6.700 -1.6293 -0.3545 -0.3004
   42MOL0     C 5673   3.901   2.998   6.588  0.1083  0.2241 -0.7902
   42MOL0     C 5674   3.848   3.039   6.446  0.3816  0.7235 -0.8303
   42MOL0     N 5675   3.957   3.034   6.343 -0.1186 -0.4984  0.0819
   42MOL0     C 5676   3.961   3.107   6.223  0.1213  0.2636  1.1059
   42MOL0     C 5677   4.066   3.052   6.162  0.4927 -0.1991  1.1685
   42MOL0     C 5678   4.120   3.117   6.043  0.3176  0.1893 -0.7184
   42MOL0     C 5679   4.060   3.054   5.918  0.1906  0.6577 -0.3097
   42MOL0     C 5680   4.118   3.134   5.797  0.0149  0.1017  0.5388
   42MOL0     C 5681   4.047   3.088   5.673 -0.3426  0.1481 -0.0878
   42MOL0     O 5682   3.956   3.194   5.637  0.2753 -0.0817  0.4534
   42MOL0     C 5683   3.820   3.181   5.642 -0.1624  0.4745 -0.0461
   42MOL0     C 5684   3.746   3.061   5.680  0.4055 -0.7468  0.1895
   42MOL0     C 5685   3.604   3.054   5.673  0.3280  0.2833  0.6059
   42MOL0     C 5686   3.534   2.930   5.731  0.6183 -0.6672 -1.1761
   42MOL0     C 5687   3.542   3.167   5.614  0.0610  0.4955 -0.8918
   42MOL0     C 5688   3.395   3.167   5.577  0.3250  0.3046 -0.6855
   42MOL0     O 5689   3.343   3.297   5.550 -0.5941  0.4429  0.5116
   42MOL0     C 5690   3.221   3.307   5.489  0.2871 -0.8282  0.8285
   42MOL0     C 5691   3.101   3.344   5.556 -0.3780 -0.4160 -0.4751
   42MOL0     C 5692   2.976   3.354   5.494 -0.1251  0.0571 -0.3199
   42MOL0     C 5693   2.971   3.318   5.363  0.6374 -0.3811  0.0151
   42MOL0     O 5694   2.851   3.315   5.304  0.4949 -0.0756  0.8059
   42MOL0     C 5695   2.808   3.187   5.244 -0.9290  0.3763  0.1995
   42MOL0     C 5696   2.696   3.118   5.320  0.5487 -0.6852  0.0563
   42MOL0     C 5697   2.728   3.117   5.474 -0.4115 -0.0953  0.2365
   42MOL0     C 5698   2.615   3.057   5.565 -0.2476  0.0659  0.7005
   42MOL0     C 5699   2.632   3.067   5.713  0.3721  0.5244 -0.7913
   42MOL0     C 5700   2.600   3.208   5.769  0.6557  0.6698 -0.1216
   42MOL0     C 5701   2.610   3.208   5.916 -0.1922 -0.3885 -0.1188
   42MOL0     C 5702   2.505   3.301   5.972  0.3899 -0.1956 -1.6169
   42MOL0    Cl 5703   2.342   3.223   5.981 -0.7888  0.4252 -0.3306
   42MOL0     C 5704   3.080   3.274   5.287 -0.7330 -0.1037  0.1840
   42MOL0     C 5705   3.211   3.291   5.345  0.3802  0.3110 -0.4171
   42MOL0     O 5706   3.338   3.057   5.558 -0.5791 -0.3826  0.1059
   42MOL0     C 5707   3.610   3.285   5.584  0.0027 -0.3300  0.1401
   42MOL0     C 5708   3.746   3.291   5.601  0.0511  0.0438 -0.3188
   42MOL0     N 5709   4.126   2.961   6.239  0.0621 -0.4314 -0.0999
   42MOL0     N 5710   4.055   2.943   6.346 -0.3878 -0.7042  1.0385
   42MOL0     C 5711   3.835   3.084   7.464  0.5402 -0.5152 -0.0905
   42MOL0     C 5712   3.899   3.107   7.583 -0.0347  0.1407  0.4028
   42MOL0     C 5713   4.016   3.099   7.982  0.4610  0.3237 -0.1341
   42MOL0     C 5714   4.062   3.236   7.990 -0.4929  0.3402 -0.1927
   42MOL0     C 5715   4.175   3.275   8.064 -0.1635  0.2794 -0.2382
   42MOL0     C 5716   4.237   3.185   8.152  0.2910 -0.1917  0.4042
   42MOL0     O 5717   4.346   3.210   8.230  0.0792 -0.5909  0.8728
   42MOL0     C 5718   4.390   3.342   8.270 -0.0135 -1.6814  0.1767
   42MOL0     C 5719   4.403   3.347   8.417  0.2034  0.4845  0.0970
   42MOL0     C 5720   4.276   3.335   8.499  0.3537 -0.1397 -0.2114
   42MOL0     C 5721   4.299   3.314   8.661 -0.2571  0.5340 -0.3296
   42MOL0     C 5722   4.330   3.434   8.734  0.1216  0.1515 -0.1102
   42MOL0     C 5723   4.345   3.547   8.783 -0.0332 -0.3135  0.7846
   42MOL0     C 5724   4.193   3.054   8.149 -0.7409 -0.1006 -0.1052
   42MOL0     C 5725   4.090   3.009   8.057 -0.9450  0.6521  0.0850
   42MOL0     C 5726   4.069   2.865   8.058 -0.4733 -1.3876  0.0748
   42MOL0     H 5727   3.620   3.196   7.756  0.3666 -2.5502  0.0712
   42MOL0     H 5728   3.522   3.177   7.525 -0.3430  0.0107 -0.5686
   42MOL0     H 5729   3.722   2.944   7.207  0.6055  1.2681 -0.8542
   42MOL0     H 5730   3.765   3.127   7.200 -0.2653  0.9052  2.3606
   42MOL0     H 5731   3.516   2.981   7.110 -1.7920  0.9596  0.3869
   42MOL0     H 5732   3.537   3.149   7.127 -0.4922 -2.4222  2.9321
   42MOL0     H 5733   3.578   3.105   6.880  2.3977  1.6618 -1.7659
   42MOL0     H 5734   3.728   3.151   6.978 -0.0728  0.0164  2.8547
   42MOL0     H 5735   3.738   2.865   6.987  1.8850 -2.3498 -2.8108
   42MOL0     H 5736   3.632   2.888   6.860  1.0239 -1.4198 -0.3588
   42MOL0     H 5737   3.858   2.855   6.797  2.4762  0.4281  1.2478
   42MOL0     H 5738   3.922   3.002   6.867  0.2523 -2.9618  2.6761
   42MOL0     H 5739   3.703   3.018   6.668 -2.0282 -0.4208  0.9940
   42MOL0     H 5740   3.814   3.152   6.729 -0.0102 -1.0997  2.0848
   42MOL0     H 5741   3.900   2.889   6.597  1.3587  0.0346 -2.4501
   42MOL0     H 5742   4.002   3.030   6.615  0.9872 -0.8715 -2.5340
   42MOL0     H 5743   3.765   2.971   6.424 -0.8929  1.2572  1.9093
   42MOL0     H 5744   3.791   3.130   6.464 -0.7636  0.0180 -0.8386
   42MOL0     H 5745   3.889   3.177   6.181  2.3117  0.6631 -2.3298
   42MOL0     H 5746   4.229   3.111   6.044  0.3769  1.0240  0.1061
   42MOL0     H 5747   4.085   3.221   6.041  0.0096  0.0856 -0.6482
   42MOL0     H 5748   4.101   2.954   5.909  1.4587  1.3357 -3.0283
   42MOL0     H 5749   3.951   3.067   5.922  0.0907  0.2508 -1.4715
   42MOL0     H 5750   4.098   3.240   5.811 -2.4323 -0.1215 -0.7629
   42MOL0     H 5751   4.225   3.120   5.785 -0.3164  0.1138 -3.9388
   42MOL0     H 5752   4.119   3.073   5.592 -1.6047 -3.3556 -0.7641
   42MOL0     H 5753   4.005   2.989   5.690 -0.3008  0.6195  3.5768
   42MOL0     H 5754   3.783   2.964   5.714 -2.0658 -1.2782  1.5361
   42MOL0     H 5755   3.430   2.949   5.761  1.8924  3.1704  1.6617
   42MOL0     H 5756   3.588   2.902   5.821 -0.5485 -0.5569 -0.4142
   42MOL0     H 5757   3.541   2.848   5.659 -0.3960  0.1391 -2.2314
   42MOL0     H 5758   3.098   3.358   5.664 -0.8906 -1.3461 -0.3536
   42MOL0     H 5759   2.884   3.373   5.547 -0.3654 -0.8491 -0.3974
   42MOL0     H 5760   2.768   3.222   5.148 -3.7503 -0.7214  0.9000
   42MOL0     H 5761   2.894   3.124   5.219 -2.4686 -1.0177 -1.8160
   42MOL0     H 5762   2.615   3.189   5.300 -1.1405 -1.9028  2.1119
   42MOL0     H 5763   2.660   3.020   5.286  1.5380 -1.9673  2.5031
   42MOL0     H 5764   2.732   3.225   5.488  0.2760 -0.0040 -0.6333
   42MOL0     H 5765   2.826   3.075   5.498  0.0122  2.9061  5.0284
   42MOL0     H 5766   2.597   2.956   5.528 -1.5269 -0.3186  2.2758
   42MOL0     H 5767   2.521   3.105   5.537  1.4398  0.8116 -4.8420
   42MOL0     H 5768   2.558   3.000   5.759 -2.1924  4.9196  2.1453
   42MOL0     H 5769   2.733   3.036   5.741 -0.2826 -0.9592  0.0662
   42MOL0     H 5770   2.496   3.225   5.741  0.2417 -0.5366  0.5949
   42MOL0     H 5771   2.662   3.284   5.721  0.4657  0.4009 -0.8211
   42MOL0     H 5772   2.709   3.239   5.951 -1.1590 -0.2024  2.7620
   42MOL0     H 5773   2.584   3.109   5.954 -0.2615 -0.1361  0.5022
   42MOL0     H 5774   2.494   3.390   5.909  2.8009 -0.0538 -1.9121
   42MOL0     H 5775   2.532   3.340   6.071 -1.2672 -1.4517 -0.6243
   42MOL0     H 5776   3.060   3.245   5.184  1.2381 -3.3251  0.5814
   42MOL0     H 5777   3.302   3.280   5.286  0.3189  1.2800 -0.7209
   42MOL0     H 5778   3.568   3.381   5.555  1.1295 -0.2055 -1.1768
   42MOL0     H 5779   3.798   3.384   5.581  0.7371 -0.4709 -0.9755
   42MOL0     H 5780   3.891   3.038   7.383 -2.6632 -0.2870 -2.6657
   42MOL0     H 5781   4.005   3.098   7.606  0.6423 -0.0291 -2.4044
   42MOL0     H 5782   4.021   3.324   7.942  2.4740 -0.0204 -3.8652
   42MOL0     H 5783   4.203   3.376   8.036  0.1897  0.3492  0.3456
   42MOL0     H 5784   4.489   3.370   8.233  0.5887  1.2124  3.3905
   42MOL0     H 5785   4.317   3.419   8.242  1.0524 -1.1697 -1.3278
   42MOL0     H 5786   4.436   3.450   8.437  1.4480 -0.2719  2.1743
   42MOL0     H 5787   4.480   3.282   8.459 -0.9084 -1.4364 -0.7489
   42MOL0     H 5788   4.209   3.420   8.481  1.9896  1.6483  1.6050
   42MOL0     H 5789   4.236   3.237   8.475  0.3433  0.0310 -0.9249
   42MOL0     H 5790   4.373   3.237   8.682 -1.3287 -0.9333 -1.6659
   42MOL0     H 5791   4.210   3.268   8.706  0.7765 -0.9977  0.2043
   42MOL0     H 5792   4.352   3.647   8.823 -0.6231 -1.7313  4.9118
   42MOL0     H 5793   4.246   2.980   8.208 -1.8694 -0.6962  0.1898
   42MOL0     H 5794   4.113   2.820   8.147  0.5752 -2.3844 -0.9176
   42MOL0     H 5795   3.961   2.845   8.064 -0.8694 -0.6529 -2.9492
   42MOL0     H 5796   4.112   2.825   7.966  0.3821 -1.0451  0.3167
   43MOL0     O 5797   0.282   5.533   7.142 -0.0276 -0.2441  1.0158
   43MOL0     C 5798   0.392   5.595   7.137 -0.1150 -0.1552  0.5857
   43MOL0     O 5799   0.455   5.660   7.244 -0.2805 -0.4509  0.2234
   43MOL0     C 5800   0.382   5.663   7.359 -0.7884 -0.3897 -0.8587
   43MOL0     C 5801   0.380   5.554   7.447  0.7840  0.0847  0.0777
   43MOL0     C 5802   0.320   5.571   7.580 -1.0669 -0.7006 -0.2421
   43MOL0     C 5803   0.244   5.687   7.609  0.1863 -0.0637  1.3561
   43MOL0     O 5804   0.188   5.700   7.731 -0.3405 -0.0471  0.1660
   43MOL0     C 5805   0.062   5.765   7.739 -1.0430  1.1129  0.5471
   43MOL0     C 5806  -0.008   5.693   7.847 -0.0138 -0.0907  0.2837
   43MOL0     C 5807  -0.033   5.537   7.817  0.8021  0.6148 -0.3386
   43MOL0     C 5808  -0.080   5.485   7.946  0.2598 -0.8778  0.2790
   43MOL0     C 5809  -0.178   5.371   7.915 -0.1606  0.0945  0.4297
   43MOL0     C 5810  -0.244   5.319   8.046 -0.1883 -0.8126  0.2586
   43MOL0     C 5811  -0.301   5.169   8.047 -0.2271  0.6326  0.5015
   43MOL0     C 5812  -0.449   5.168   8.103  0.3282  0.1910 -0.1914
   43MOL0     N 5813  -0.466   5.197   8.257  0.0978  0.2932  0.3487
   43MOL0     C 5814  -0.464   5.318   8.312 -0.3432  0.2140 -1.1971
   43MOL0     C 5815  -0.467   5.302   8.452 -0.0985  0.1025  0.6338
   43MOL0     C 5816  -0.464   5.390   8.572 -0.0747  0.0206  0.1310
   43MOL0     C 5817  -0.436   5.543   8.553 -1.5118 -0.7815  0.0807
   43MOL0     C 5818  -0.292   5.570   8.486  0.3725 -0.9896  0.6283
   43MOL0     C 5819  -0.294   5.694   8.390 -0.0275  0.4256 -1.1618
   43MOL0     O 5820  -0.396   5.662   8.285 -0.4667 -0.3413 -0.3528
   43MOL0     C 5821  -0.395   5.751   8.181 -0.8948  0.0056  0.8459
   43MOL0     C 5822  -0.456   5.707   8.060 -0.2204  0.7665 -0.1306
   43MOL0     C 5823  -0.446   5.771   7.941 -0.1006  0.5042 -0.6901
   43MOL0     C 5824  -0.509   5.715   7.817 -0.5888  1.2627 -0.6051
   43MOL0     C 5825  -0.372   5.897   7.938 -0.6678 -0.2491  0.9644
   43MOL0     C 5826  -0.349   5.976   7.804 -0.5303 -0.7915 -0.1789
   43MOL0     O 5827  -0.309   6.112   7.808 -0.6191  1.0970 -0.2899
   43MOL0     C 5828  -0.301   6.199   7.700 -0.0917  0.0771  0.1406
   43MOL0     C 5829  -0.294   6.332   7.736 -1.1320 -0.3946  1.3321
   43MOL0     C 5830  -0.307   6.439   7.644 -0.0620 -0.2259  0.0861
   43MOL0     C 5831  -0.323   6.407   7.508 -0.2784 -0.7871  0.1399
   43MOL0     O 5832  -0.314   6.509   7.420 -0.3041 -0.2461  0.3247
   43MOL0     C 5833  -0.351   6.494   7.287 -0.7528  0.2753 -0.0518
   43MOL0     C 5834  -0.374   6.625   7.203  0.0788  0.5498 -0.1145
   43MOL0     C 5835  -0.403   6.604   7.047 -0.4902  0.3476  0.7686
   43MOL0     C 5836  -0.455   6.735   6.980 -0.7248  0.2254 -0.1085
   43MOL0     C 5837  -0.523   6.722   6.848 -0.4546 -0.4416 -0.2764
   43MOL0     C 5838  -0.438   6.655   6.741  0.3480 -0.1519  0.1852
   43MOL0     C 5839  -0.502   6.627   6.601  0.2422  0.3989 -0.0418
   43MOL0     C 5840  -0.555   6.752   6.529 -0.5504  0.1486 -0.0689
   43MOL0    Cl 5841  -0.597   6.726   6.371 -0.1179 -0.0209 -0.0368
   43MOL0     C 5842  -0.341   6.272   7.474 -1.3735  0.4661 -0.5766
   43MOL0     C 5843  -0.329   6.169   7.565 -0.2430  0.4796 -0.4324
   43MOL0     O 5844  -0.347   5.908   7.703  0.4240 -0.0245  0.5723
   43MOL0     C 5845  -0.321   5.952   8.058 -0.1334  0.5181  0.3935
   43MOL0     C 5846  -0.327   5.875   8.177  0.7525  0.2582 -0.4037
   43MOL0     N 5847  -0.472   5.166   8.469 -0.5168 -0.4954 -0.0668
   43MOL0     N 5848  -0.470   5.105   8.355 -0.6394  0.1194  0.7419
   43MOL0     C 5849   0.256   5.792   7.515  0.1666  0.4930 -0.6993
   43MOL0     C 5850   0.307   5.776   7.389 -0.3137 -0.0788 -0.8145
   43MOL0     C 5851   0.452   5.602   7.005 -0.8502 -0.3837  0.2323
   43MOL0     C 5852   0.381   5.541   6.889 -0.3698 -0.0641 -0.6546
   43MOL0     C 5853   0.421   5.563   6.760  0.8140  0.0887  0.3058
   43MOL0     C 5854   0.539   5.632   6.732 -0.4094  0.2372 -0.0364
   43MOL0     O 5855   0.577   5.640   6.604  0.0659  0.8682 -0.2343
   43MOL0     C 5856   0.504   5.746   6.533  0.5727  0.0793  0.4995
   43MOL0     C 5857   0.421   5.680   6.416 -0.2834  0.5061  0.4363
   43MOL0     C 5858   0.527   5.624   6.317  0.5791 -0.3991 -0.0931
   43MOL0     C 5859   0.469   5.592   6.178  0.0087 -0.1251 -0.5874
   43MOL0     C 5860   0.563   5.500   6.101 -0.0854 -0.4161  0.9066
   43MOL0     C 5861   0.630   5.418   6.043 -0.4026 -0.2440  0.8012
   43MOL0     C 5862   0.609   5.684   6.835 -0.0287  0.1257 -0.7188
   43MOL0     C 5863   0.565   5.683   6.964  0.0149  0.4502 -0.3792
   43MOL0     C 5864   0.641   5.770   7.059  0.2755  0.5232  0.1547
   43MOL0     H 5865   0.434   5.463   7.423 -0.3689 -0.9168  1.1397
   43MOL0     H 5866   0.352   5.513   7.666 -0.8616  2.6122  2.0974
   43MOL0     H 5867   0.007   5.750   7.646  1.2560 -1.0722 -0.5762
   43MOL0     H 5868   0.069   5.872   7.758  0.8794  1.2747 -0.7697
   43MOL0     H 5869   0.056   5.697   7.936 -0.7146 -2.3551  0.9549
   43MOL0     H 5870  -0.101   5.751   7.857  0.1964  1.0971 -3.3993
   43MOL0     H 5871  -0.108   5.538   7.738  0.7654 -0.3216 -0.3226
   43MOL0     H 5872   0.048   5.477   7.773 -0.1065  0.9839 -2.6461
   43MOL0     H 5873  -0.002   5.436   8.004  3.2918  1.0336 -1.8892
   43MOL0     H 5874  -0.123   5.569   8.001  0.7653  0.2043 -0.9216
   43MOL0     H 5875  -0.132   5.299   7.846  0.5379 -0.1908  1.1858
   43MOL0     H 5876  -0.266   5.398   7.854 -1.2469 -1.9736  0.9888
   43MOL0     H 5877  -0.162   5.308   8.117  1.6545  0.7299 -1.5153
   43MOL0     H 5878  -0.314   5.388   8.095  0.9404  0.4339  0.1738
   43MOL0     H 5879  -0.233   5.118   8.115 -1.9155  0.1464  1.8955
   43MOL0     H 5880  -0.292   5.118   7.950 -1.6935 -0.5458  0.9451
   43MOL0     H 5881  -0.504   5.237   8.038 -1.2279  0.6395  1.5277
   43MOL0     H 5882  -0.495   5.069   8.096  2.5337 -1.3616  3.7955
   43MOL0     H 5883  -0.461   5.416   8.265 -0.7177  1.6133  1.4962
   43MOL0     H 5884  -0.393   5.363   8.651  1.3837  0.9215 -0.8226
   43MOL0     H 5885  -0.565   5.379   8.612  0.7620 -1.3515  1.9703
   43MOL0     H 5886  -0.515   5.591   8.495  0.1770  1.0138 -0.8713
   43MOL0     H 5887  -0.420   5.589   8.652  1.2078  0.1869 -0.7288
   43MOL0     H 5888  -0.203   5.573   8.551  1.8680  0.4109 -1.3544
   43MOL0     H 5889  -0.266   5.485   8.422 -0.2581 -2.6421  2.4799
   43MOL0     H 5890  -0.302   5.791   8.440  1.1960  3.1941 -5.7456
   43MOL0     H 5891  -0.198   5.686   8.337  2.5776 -2.7732  3.3611
   43MOL0     H 5892  -0.518   5.618   8.057 -1.7403  1.8102 -1.2009
   43MOL0     H 5893  -0.582   5.785   7.775 -1.1566 -0.2524 -2.3093
   43MOL0     H 5894  -0.557   5.618   7.830  2.9642 -0.7340 -1.1097
   43MOL0     H 5895  -0.432   5.686   7.745  2.2123  2.0935  1.8755
   43MOL0     H 5896  -0.289   6.349   7.843  1.0779 -2.4385  1.6403
   43MOL0     H 5897  -0.308   6.541   7.680  0.9219 -1.0824  2.7744
   43MOL0     H 5898  -0.267   6.441   7.241 -1.3139 -1.1305  0.4877
   43MOL0     H 5899  -0.442   6.433   7.282 -0.1196 -0.6749 -0.2089
   43MOL0     H 5900  -0.451   6.697   7.234 -1.8002 -0.7552 -1.5447
   43MOL0     H 5901  -0.282   6.683   7.202  1.0602 -0.9692 -0.5469
   43MOL0     H 5902  -0.458   6.511   7.032  0.7684 -0.3601  0.3144
   43MOL0     H 5903  -0.304   6.594   7.002  0.2108  0.7927  2.1365
   43MOL0     H 5904  -0.368   6.802   6.972 -1.3071  1.0296  0.2166
   43MOL0     H 5905  -0.527   6.778   7.050 -1.4993 -2.3672  0.8112
   43MOL0     H 5906  -0.615   6.665   6.859 -1.7639  1.5147 -0.5726
   43MOL0     H 5907  -0.547   6.826   6.823  0.3114  0.3989  2.2053
   43MOL0     H 5908  -0.393   6.563   6.779  1.3656  0.4387  0.4335
   43MOL0     H 5909  -0.352   6.722   6.730 -1.3924  2.3603  0.8277
   43MOL0     H 5910  -0.579   6.549   6.604  1.1553 -0.7356 -2.6742
   43MOL0     H 5911  -0.424   6.575   6.544  0.3145 -0.3376  0.7148
   43MOL0     H 5912  -0.483   6.835   6.535 -0.6596  0.2235  0.2211
   43MOL0     H 5913  -0.644   6.784   6.584 -2.0886 -1.4804 -1.5023
   43MOL0     H 5914  -0.362   6.243   7.371  1.2771 -0.5527 -0.8992
   43MOL0     H 5915  -0.327   6.065   7.533  1.0050  0.9232 -1.8691
   43MOL0     H 5916  -0.280   6.051   8.041 -1.1892  0.7925 -0.7293
   43MOL0     H 5917  -0.274   5.917   8.262 -3.0424  2.1137  1.2929
   43MOL0     H 5918   0.201   5.882   7.543  1.5379  1.1753 -0.1586
   43MOL0     H 5919   0.305   5.847   7.308  2.9938  2.0712  0.7678
   43MOL0     H 5920   0.290   5.487   6.912 -0.1133 -1.0094 -1.7980
   43MOL0     H 5921   0.359   5.529   6.677  1.2455 -3.5985  1.3120
   43MOL0     H 5922   0.424   5.770   6.603  1.2019 -0.5688  1.4758
   43MOL0     H 5923   0.556   5.837   6.504 -1.0511  0.1105 -2.7886
   43MOL0     H 5924   0.361   5.754   6.362  1.0691  0.9348 -0.5403
   43MOL0     H 5925   0.367   5.591   6.447 -0.2759  0.9642  1.8067
   43MOL0     H 5926   0.614   5.690   6.306 -0.7311  1.2127 -1.1511
   43MOL0     H 5927   0.555   5.531   6.368  0.6326  0.5874  1.7810
   43MOL0     H 5928   0.458   5.682   6.118  1.6897 -0.4654 -1.4737
   43MOL0     H 5929   0.372   5.541   6.178  0.0446 -0.2956  1.9815
   43MOL0     H 5930   0.690   5.349   5.988 -0.4064  1.3832 -1.3713
   43MOL0     H 5931   0.701   5.731   6.804 -0.0798  0.2724 -0.6489
   43MOL0     H 5932   0.722   5.823   7.009 -1.1467  1.4127 -1.2874
   43MOL0     H 5933   0.592   5.860   7.099  3.2330  2.4543 -0.2958
   43MOL0     H 5934   0.665   5.720   7.153  0.6104  0.4249  0.0149
   44MOL0     O 5935   9.095   4.761  11.093 -0.3097 -0.6879  0.3963
   44MOL0     C 5936   9.057   4.793  10.979  0.3287  0.8149  1.0352
   44MOL0     O 5937   8.962   4.723  10.909  0.5771  0.0649  0.3994
   44MOL0     C 5938   8.870   4.630  10.956 -0.1351 -0.3647 -0.1819
   44MOL0     C 5939   8.844   4.616  11.094  0.1272  0.1739 -0.6406
   44MOL0     C 5940   8.743   4.528  11.132  0.3642  0.2097  0.1077
   44MOL0     C 5941   8.671   4.450  11.041 -0.2166 -0.1322 -0.2779
   44MOL0     O 5942   8.575   4.363  11.094  0.3616  0.1648 -0.2794
   44MOL0     C 5943   8.541   4.245  11.027  0.2376  0.8448  0.2798
   44MOL0     C 5944   8.491   4.135  11.119 -0.3758 -0.5645 -0.1431
   44MOL0     C 5945   8.416   4.025  11.047 -1.1876  0.4312 -0.4229
   44MOL0     C 5946   8.494   3.893  11.032  0.0284  0.5836  0.9447
   44MOL0     C 5947   8.460   3.770  11.114  0.3936 -0.9464  0.4963
   44MOL0     C 5948   8.503   3.633  11.049 -0.3318 -0.9077  0.3168
   44MOL0     C 5949   8.466   3.517  11.136 -0.2941  0.1867 -0.4122
   44MOL0     C 5950   8.508   3.386  11.065  0.0156  0.2643 -0.7090
   44MOL0     N 5951   8.440   3.272  11.143 -0.3776 -0.3307 -0.2448
   44MOL0     C 5952   8.499   3.212  11.249 -0.1673 -0.5505  0.1570
   44MOL0     C 5953   8.404   3.135  11.305  0.4174 -0.4194  0.5587
   44MOL0     C 5954   8.422   3.068  11.428 -0.1436  0.7705 -1.1140
   44MOL0     C 5955   8.313   3.096  11.538  0.2667  0.0211  0.3140
   44MOL0     C 5956   8.343   3.227  11.618 -0.0488 -0.1520  0.2279
   44MOL0     C 5957   8.240   3.244  11.727 -0.2080 -0.2042  0.4510
   44MOL0     O 5958   8.119   3.294  11.665 -0.7245 -0.5516  0.5935
   44MOL0     C 5959   7.997   3.260  11.711 -1.1307  1.0911 -0.1757
   44MOL0     C 5960   7.975   3.188  11.830 -0.2853  0.0620 -0.4789
   44MOL0     C 5961   7.850   3.159  11.868  0.2535 -0.2272 -0.6589
   44MOL0     C 5962   7.828   3.095  12.004 -0.3400 -0.0275 -0.2988
   44MOL0     C 5963   7.732   3.189  11.787 -0.5030  0.2386 -0.3756
   44MOL0     C 5964   7.588   3.153  11.819  0.3834 -0.4953  0.4780
   44MOL0     O 5965   7.495   3.214  11.730 -0.5891 -0.8106 -0.1691
   44MOL0     C 5966   7.362   3.211  11.754 -0.3641 -0.2326 -0.3817
   44MOL0     C 5967   7.298   3.124  11.678  0.0692 -1.2805 -0.4701
   44MOL0     C 5968   7.156   3.122  11.694  0.1175  0.1378  0.8693
   44MOL0     C 5969   7.093   3.192  11.793  0.1975 -0.3720 -0.9464
   44MOL0     O 5970   6.963   3.196  11.800 -0.2590 -0.6402  0.0511
   44MOL0     C 5971   6.914   3.075  11.847  0.1409  0.5173  0.0065
   44MOL0     C 5972   6.822   3.099  11.960  0.7862  0.0179  0.0274
   44MOL0     C 5973   6.761   2.966  12.007  0.2038  0.3052  0.5417
   44MOL0     C 5974   6.734   2.971  12.162  0.3490 -0.1702  0.0264
   44MOL0     C 5975   6.655   2.838  12.195  0.1483 -0.0550 -0.0122
   44MOL0     C 5976   6.646   2.829  12.345  0.0459  0.0767  0.7936
   44MOL0     C 5977   6.639   2.686  12.415  0.8463 -0.1154  0.5493
   44MOL0     C 5978   6.567   2.685  12.556 -0.6613  0.0139 -0.7387
   44MOL0    Cl 5979   6.595   2.529  12.629 -0.1670  0.4747 -0.1658
   44MOL0     C 5980   7.174   3.277  11.874  0.3288 -0.4450  0.3282
   44MOL0     C 5981   7.303   3.288  11.850 -0.0026 -0.1800 -0.5204
   44MOL0     O 5982   7.559   3.075  11.911  0.4809 -0.0160 -0.5693
   44MOL0     C 5983   7.761   3.264  11.669  0.5647  0.4020  0.6037
   44MOL0     C 5984   7.886   3.302  11.631 -0.7440 -0.1423  0.7370
   44MOL0     N 5985   8.292   3.147  11.225 -1.1559 -1.2654 -0.4010
   44MOL0     N 5986   8.317   3.223  11.126 -0.9297  0.3716 -0.3482
   44MOL0     C 5987   8.706   4.455  10.903 -0.0686  0.8154 -0.5574
   44MOL0     C 5988   8.806   4.544  10.862  0.1789  0.1827 -0.2094
   44MOL0     C 5989   9.100   4.927  10.920 -0.2674 -0.8293 -0.2053
   44MOL0     C 5990   9.040   4.960  10.799 -0.8006 -0.9120 -0.5502
   44MOL0     C 5991   9.068   5.085  10.729  0.6829 -0.9863 -1.1286
   44MOL0     C 5992   9.164   5.175  10.782 -0.3475 -0.2584  0.7058
   44MOL0     O 5993   9.207   5.295  10.713 -0.0283  0.9443 -1.1806
   44MOL0     C 5994   9.342   5.290  10.692 -0.3270 -0.4133  0.0672
   44MOL0     C 5995   9.364   5.368  10.569  0.1073  0.7604 -0.0630
   44MOL0     C 5996   9.495   5.435  10.566  0.1035  0.4792  0.6918
   44MOL0     C 5997   9.531   5.467  10.423 -0.7680  0.1000 -0.3772
   44MOL0     C 5998   9.669   5.513  10.420 -0.7150 -0.8796  0.2994
   44MOL0     C 5999   9.791   5.544  10.424  0.6324  0.5611  0.0857
   44MOL0     C 6000   9.224   5.130  10.904 -0.2493 -0.9022 -0.0027
   44MOL0     C 6001   9.195   5.012  10.976  0.8804 -1.0678  1.1278
   44MOL0     C 6002   9.275   4.994  11.103 -0.3881 -0.5558 -0.4637
   44MOL0     H 6003   8.885   4.684  11.168 -2.9019  2.4356 -0.8406
   44MOL0     H 6004   8.724   4.540  11.238  0.3178 -1.3970  0.3107
   44MOL0     H 6005   8.630   4.201  10.980 -1.0965  0.1292 -1.6903
   44MOL0     H 6006   8.464   4.275  10.956 -0.7073 -0.0253  0.9114
   44MOL0     H 6007   8.581   4.102  11.171  0.4472 -0.0296 -1.2075
   44MOL0     H 6008   8.416   4.180  11.186 -0.2763  0.6656 -0.8313
   44MOL0     H 6009   8.331   4.003  11.113 -4.7750  2.7804 -3.8629
   44MOL0     H 6010   8.379   4.057  10.950  0.9111  1.4957 -0.9247
   44MOL0     H 6011   8.473   3.854  10.931  2.7424  2.5058 -0.4862
   44MOL0     H 6012   8.601   3.913  11.025 -0.0954  1.2699  0.9593
   44MOL0     H 6013   8.354   3.771  11.141  0.5056 -0.9072  0.9519
   44MOL0     H 6014   8.524   3.778  11.202  1.3499 -1.9360 -0.0869
   44MOL0     H 6015   8.445   3.609  10.959  1.6026 -0.5153 -1.0771
   44MOL0     H 6016   8.609   3.647  11.026 -0.1589  2.3859  2.4934
   44MOL0     H 6017   8.360   3.528  11.159  0.2324  2.6810  1.2041
   44MOL0     H 6018   8.515   3.513  11.234  0.6061 -2.4769 -0.8771
   44MOL0     H 6019   8.475   3.370  10.962 -0.3833 -1.5400 -0.3285
   44MOL0     H 6020   8.613   3.356  11.070 -0.3971 -1.2855 -0.8425
   44MOL0     H 6021   8.603   3.223  11.279 -0.3887 -1.3224  1.2829
   44MOL0     H 6022   8.515   3.091  11.480 -1.8293  0.1878  2.4770
   44MOL0     H 6023   8.422   2.963  11.400 -0.3310  1.0321 -2.1400
   44MOL0     H 6024   8.221   3.100  11.480 -0.4412 -3.3964  0.9863
   44MOL0     H 6025   8.313   3.016  11.613 -0.2172  1.1585  1.5731
   44MOL0     H 6026   8.443   3.228  11.661 -1.4982 -2.8995  4.2629
   44MOL0     H 6027   8.324   3.320  11.563  0.1843  1.4145  2.6382
   44MOL0     H 6028   8.234   3.148  11.779  3.9227 -1.1070 -0.3988
   44MOL0     H 6029   8.278   3.319  11.797  0.1396  0.4364 -0.4017
   44MOL0     H 6030   8.059   3.168  11.896 -1.7105  3.2278  2.6475
   44MOL0     H 6031   7.931   3.077  12.035 -0.6720  0.2245  1.0476
   44MOL0     H 6032   7.783   2.996  11.993  3.3319 -1.8277 -0.6578
   44MOL0     H 6033   7.777   3.164  12.072 -1.4939 -0.7365 -0.4100
   44MOL0     H 6034   7.348   3.048  11.619  0.8322  0.0351 -1.5849
   44MOL0     H 6035   7.099   3.051  11.634 -1.0730 -2.0417  4.3072
   44MOL0     H 6036   6.845   3.028  11.775 -1.2087 -0.9165  2.1069
   44MOL0     H 6037   6.988   3.000  11.878  0.1966  0.2369 -0.7787
   44MOL0     H 6038   6.882   3.138  12.043  1.2958  1.4516 -0.9840
   44MOL0     H 6039   6.751   3.180  11.938 -0.4256 -1.3509 -1.2998
   44MOL0     H 6040   6.820   2.877  11.985  0.8094  1.0442 -1.0137
   44MOL0     H 6041   6.664   2.957  11.958  0.2453  0.0889  0.4960
   44MOL0     H 6042   6.676   3.059  12.190  3.2405  1.8370  0.1057
   44MOL0     H 6043   6.829   2.970  12.217  1.0322 -0.8227 -1.1271
   44MOL0     H 6044   6.552   2.831  12.160 -0.3117  0.7489  1.1355
   44MOL0     H 6045   6.703   2.749  12.152 -1.5799 -1.0457  0.0178
   44MOL0     H 6046   6.575   2.897  12.392 -0.2621  0.2625  0.0702
   44MOL0     H 6047   6.739   2.869  12.388  0.3083 -0.0980  0.3936
   44MOL0     H 6048   6.740   2.646  12.406  0.0679 -1.9640 -0.6835
   44MOL0     H 6049   6.580   2.614  12.358  0.6916  0.7173 -0.3741
   44MOL0     H 6050   6.460   2.703  12.547 -1.2179 -2.2514  0.4585
   44MOL0     H 6051   6.600   2.757  12.631 -2.7409 -1.4383  1.7546
   44MOL0     H 6052   7.119   3.325  11.954 -0.9979 -1.5552  0.1281
   44MOL0     H 6053   7.369   3.347  11.912  2.1239 -0.6765 -2.2171
   44MOL0     H 6054   7.681   3.293  11.603 -1.1340  1.3545  2.9307
   44MOL0     H 6055   7.918   3.355  11.542 -1.3936 -1.6121 -0.4019
   44MOL0     H 6056   8.653   4.406  10.822 -1.1509  0.9285  0.0555
   44MOL0     H 6057   8.837   4.553  10.759  2.3612 -0.3686  0.3553
   44MOL0     H 6058   8.982   4.890  10.741 -2.1012  1.7480 -2.6715
   44MOL0     H 6059   9.013   5.118  10.641 -1.0178 -0.0243  0.2131
   44MOL0     H 6060   9.391   5.339  10.777  5.5576  1.2304 -3.6321
   44MOL0     H 6061   9.391   5.192  10.685  1.6051  0.5555 -1.1219
   44MOL0     H 6062   9.289   5.448  10.567 -0.8294 -0.1011  0.0719
   44MOL0     H 6063   9.338   5.307  10.482 -1.7660 -0.0268  0.9847
   44MOL0     H 6064   9.484   5.527  10.623  1.3574 -0.8413  3.2566
   44MOL0     H 6065   9.568   5.364  10.607 -0.6967 -0.2755  0.8437
   44MOL0     H 6066   9.475   5.549  10.377 -0.1081 -0.2607 -1.8815
   44MOL0     H 6067   9.526   5.374  10.366  2.2390 -1.0843  1.0730
   44MOL0     H 6068   9.891   5.578  10.409  1.6657 -2.4328 -0.5707
   44MOL0     H 6069   9.305   5.196  10.935 -0.2782 -0.8970  0.0611
   44MOL0     H 6070   9.351   4.921  11.073  1.8974  1.9988 -1.2946
   44MOL0     H 6071   9.332   5.080  11.139 -0.5917  0.7029 -2.9509
   44MOL0     H 6072   9.218   4.954  11.188 -1.3463  0.1215 -0.7699
   45MOL0     O 6073   2.945   9.454   5.823  1.0620 -0.0180  0.5451
   45MOL0     C 6074   2.944   9.502   5.938  0.4986 -0.1496  0.6331
   45MOL0     O 6075   2.872   9.447   6.036 -0.0159  0.0691  0.5661
   45MOL0     C 6076   2.787   9.336   6.002  0.4815  0.0647 -0.4940
   45MOL0     C 6077   2.838   9.203   5.997 -0.4213  0.0260  0.2651
   45MOL0     C 6078   2.750   9.102   5.977  0.0430  0.8762 -0.0294
   45MOL0     C 6079   2.614   9.117   5.970 -0.0833 -0.5110 -0.9062
   45MOL0     O 6080   2.547   9.000   5.965  0.4163  0.0436  0.7263
   45MOL0     C 6081   2.405   9.009   5.930 -0.4199 -0.2258  1.0635
   45MOL0     C 6082   2.355   8.878   5.958  0.5516  0.4023  0.1537
   45MOL0     C 6083   2.417   8.767   5.875 -0.1422 -0.2333 -0.3462
   45MOL0     C 6084   2.483   8.660   5.963  0.5999 -0.1818  0.2539
   45MOL0     C 6085   2.494   8.522   5.880  0.1025 -0.1083  0.2213
   45MOL0     C 6086   2.579   8.435   5.980  0.4946  0.4322  0.2657
   45MOL0     C 6087   2.619   8.307   5.915 -0.2407  0.2474 -0.3487
   45MOL0     C 6088   2.734   8.250   6.001  0.0083 -0.3126 -0.3718
   45MOL0     N 6089   2.853   8.339   5.994 -0.3313 -0.0367 -0.9400
   45MOL0     C 6090   2.920   8.354   5.879 -0.7692 -0.1584  0.2792
   45MOL0     C 6091   3.029   8.434   5.913  0.2109 -0.0533 -0.1475
   45MOL0     C 6092   3.133   8.490   5.817  0.0388  0.2142  0.0414
   45MOL0     C 6093   3.055   8.566   5.709 -0.2479 -0.3438  0.3790
   45MOL0     C 6094   2.945   8.673   5.766 -0.8098  0.7885  0.4834
   45MOL0     C 6095   2.833   8.691   5.661  0.4142  0.4017 -1.1085
   45MOL0     O 6096   2.775   8.569   5.596  0.0526 -0.8993 -0.1835
   45MOL0     C 6097   2.835   8.517   5.484  0.7435 -0.8879 -0.5385
   45MOL0     C 6098   2.774   8.399   5.442 -0.1456  0.6739  1.7951
   45MOL0     C 6099   2.810   8.342   5.320  0.0557 -1.1214  0.6305
   45MOL0     C 6100   2.740   8.219   5.288 -0.0836  0.0972 -0.6248
   45MOL0     C 6101   2.911   8.405   5.231  1.0498 -0.0151  0.1558
   45MOL0     C 6102   2.954   8.353   5.099 -0.2032  0.4413 -0.6679
   45MOL0     O 6103   3.095   8.361   5.083 -0.0395 -0.6340  0.3811
   45MOL0     C 6104   3.158   8.286   4.985  0.1216 -0.2662 -0.8580
   45MOL0     C 6105   3.149   8.333   4.852 -0.2201  0.1686  0.9743
   45MOL0     C 6106   3.206   8.277   4.740 -0.0850  0.1002 -0.6249
   45MOL0     C 6107   3.256   8.148   4.764 -0.3877 -0.8341 -0.1452
   45MOL0     O 6108   3.324   8.068   4.676 -0.1822 -0.6231 -0.0576
   45MOL0     C 6109   3.275   8.053   4.537 -0.1692 -0.2119 -0.1983
   45MOL0     C 6110   3.400   8.032   4.447 -0.0547  0.1855 -0.3911
   45MOL0     C 6111   3.474   8.165   4.431 -0.2687  0.0013  0.5810
   45MOL0     C 6112   3.566   8.159   4.302  0.1412 -0.6996  0.3727
   45MOL0     C 6113   3.718   8.133   4.334  0.1521  0.0979  0.6727
   45MOL0     C 6114   3.774   8.231   4.434  0.0339 -0.2815  0.5662
   45MOL0     C 6115   3.924   8.219   4.456  0.6072 -0.3692  0.3611
   45MOL0     C 6116   4.012   8.239   4.328  0.8521  1.1788  0.7405
   45MOL0    Cl 6117   4.022   8.092   4.256 -0.3191 -0.0437  0.2448
   45MOL0     C 6118   3.261   8.086   4.896 -0.0504 -0.0064  0.0427
   45MOL0     C 6119   3.219   8.165   5.003 -1.0888  0.2568 -0.8903
   45MOL0     O 6120   2.884   8.275   5.031  0.0309 -0.3280  0.5207
   45MOL0     C 6121   2.967   8.523   5.278 -0.0128 -0.4678  0.1552
   45MOL0     C 6122   2.926   8.579   5.400  0.1263 -0.3032 -0.8136
   45MOL0     N 6123   3.024   8.463   6.048 -0.3930 -0.9244 -0.1893
   45MOL0     N 6124   2.918   8.417   6.096 -0.3335 -0.3499  0.7274
   45MOL0     C 6125   2.556   9.254   5.980  1.3391  0.2437  0.7119
   45MOL0     C 6126   2.649   9.360   5.977 -0.5240 -0.1919  0.2501
   45MOL0     C 6127   3.056   9.587   5.979  0.5386  0.7768  0.0425
   45MOL0     C 6128   3.171   9.577   5.897  0.4424 -0.7359 -0.2968
   45MOL0     C 6129   3.276   9.669   5.908  0.4023 -0.4184 -0.4372
   45MOL0     C 6130   3.274   9.762   6.011  0.5306  0.7616 -0.0462
   45MOL0     O 6131   3.379   9.856   6.030  0.0779 -0.3480  0.6505
   45MOL0     C 6132   3.372   9.968   6.116  0.7869  0.9111 -0.4289
   45MOL0     C 6133   3.494  10.064   6.100 -0.3587 -0.2132 -0.4088
   45MOL0     C 6134   3.523  10.092   5.948  0.3292 -0.2368  1.7032
   45MOL0     C 6135   3.407  10.156   5.866 -0.2670 -0.4433 -0.5460
   45MOL0     C 6136   3.364  10.285   5.930  0.8109 -0.1383 -0.9234
   45MOL0     C 6137   3.343  10.404   5.945 -0.3271  0.4081  0.4044
   45MOL0     C 6138   3.157   9.768   6.096  0.6316  1.2295 -0.4304
   45MOL0     C 6139   3.048   9.677   6.089 -0.2483  0.0863  0.9146
   45MOL0     C 6140   2.923   9.694   6.172 -0.4489 -0.2829  0.3593
   45MOL0     H 6141   2.942   9.192   6.025  0.0136  0.6251 -1.0524
   45MOL0     H 6142   2.779   8.998   5.963 -1.8782  0.2761  0.1232
   45MOL0     H 6143   2.411   9.028   5.822  4.4317 -1.9570  0.7530
   45MOL0     H 6144   2.343   9.077   5.989  0.4092 -0.8992  2.7777
   45MOL0     H 6145   2.381   8.854   6.062  1.0954 -3.5336 -0.7311
   45MOL0     H 6146   2.248   8.882   5.938  0.6645  0.8311 -0.4014
   45MOL0     H 6147   2.343   8.709   5.819  1.5581 -4.7004  1.5741
   45MOL0     H 6148   2.493   8.798   5.803 -1.6960  0.5335 -1.7341
   45MOL0     H 6149   2.584   8.691   5.992 -0.7423  2.7736  2.3360
   45MOL0     H 6150   2.432   8.650   6.059  0.0548  0.3226  0.0185
   45MOL0     H 6151   2.556   8.534   5.790  0.6081 -0.6415  0.4971
   45MOL0     H 6152   2.396   8.481   5.851  0.0666  0.8870 -1.2016
   45MOL0     H 6153   2.669   8.491   6.009  1.9219 -0.1198 -2.7381
   45MOL0     H 6154   2.526   8.425   6.076  0.2085  2.1216  0.3216
   45MOL0     H 6155   2.660   8.327   5.816  2.0023  1.4099  0.7375
   45MOL0     H 6156   2.530   8.244   5.907 -1.2212  1.4150  0.8479
   45MOL0     H 6157   2.704   8.263   6.105  0.7880  0.7238 -0.2617
   45MOL0     H 6158   2.758   8.147   5.971  3.1416  0.5669 -1.3026
   45MOL0     H 6159   2.906   8.311   5.781  1.5730 -2.0143  0.6696
   45MOL0     H 6160   3.194   8.404   5.786 -1.3440 -1.2352  1.1601
   45MOL0     H 6161   3.204   8.564   5.856  1.9045  0.2137 -2.9927
   45MOL0     H 6162   3.121   8.629   5.649 -2.1089  1.3080 -0.0187
   45MOL0     H 6163   3.018   8.486   5.645 -0.8510 -0.4190  0.8169
   45MOL0     H 6164   2.901   8.636   5.858  2.5885 -2.7011  0.9938
   45MOL0     H 6165   2.997   8.767   5.784  0.9854 -0.0512 -0.0487
   45MOL0     H 6166   2.748   8.729   5.718  0.1151  2.4126 -2.7494
   45MOL0     H 6167   2.875   8.771   5.598  4.3042  0.4718  1.2326
   45MOL0     H 6168   2.701   8.340   5.496  1.2481 -0.0453  2.9737
   45MOL0     H 6169   2.805   8.131   5.278 -0.3585  0.0541 -2.5847
   45MOL0     H 6170   2.685   8.224   5.193 -0.1060 -0.7502 -0.6640
   45MOL0     H 6171   2.671   8.191   5.368  2.5636  0.1515  1.8094
   45MOL0     H 6172   3.082   8.417   4.839  0.3949  0.4569 -0.6344
   45MOL0     H 6173   3.196   8.325   4.643 -0.9224  0.5182 -0.3448
   45MOL0     H 6174   3.228   7.955   4.545 -0.5227 -0.0051  0.2773
   45MOL0     H 6175   3.200   8.132   4.520  1.4367  1.9665  2.1405
   45MOL0     H 6176   3.477   7.964   4.485 -0.1829 -0.2991 -0.9770
   45MOL0     H 6177   3.367   8.003   4.347  0.9828  2.0225 -1.3079
   45MOL0     H 6178   3.539   8.175   4.518  1.2545 -2.7758 -0.1185
   45MOL0     H 6179   3.396   8.242   4.438  1.2969  1.8484 -1.0328
   45MOL0     H 6180   3.554   8.263   4.269  1.6230 -0.2614  1.0867
   45MOL0     H 6181   3.525   8.092   4.228 -1.3247  1.5216 -0.9354
   45MOL0     H 6182   3.736   8.030   4.366  1.4888  0.2221  0.3512
   45MOL0     H 6183   3.770   8.134   4.238 -0.7472 -1.3830  0.1381
   45MOL0     H 6184   3.728   8.213   4.531  0.5785 -2.3072  0.5030
   45MOL0     H 6185   3.760   8.333   4.398 -0.6933 -0.9867 -1.2779
   45MOL0     H 6186   3.957   8.125   4.501  1.0807 -1.0333 -1.2954
   45MOL0     H 6187   3.945   8.303   4.524 -0.5622  1.5160 -1.4632
   45MOL0     H 6188   4.113   8.272   4.350  0.6469  2.1828  0.2322
   45MOL0     H 6189   3.965   8.305   4.254 -0.6900 -1.3649 -0.7226
   45MOL0     H 6190   3.288   7.985   4.924  2.0478  1.1140  2.4688
   45MOL0     H 6191   3.224   8.117   5.100  2.1559  3.5928  0.8069
   45MOL0     H 6192   3.048   8.562   5.217 -0.3056 -1.3879 -0.8365
   45MOL0     H 6193   2.969   8.672   5.436  0.9794 -0.8162 -0.4732
   45MOL0     H 6194   2.450   9.265   5.959  1.4412 -0.3862 -0.1804
   45MOL0     H 6195   2.613   9.462   5.974  2.1831  0.8163 -1.4242
   45MOL0     H 6196   3.169   9.505   5.816  1.8602  1.3225 -2.2567
   45MOL0     H 6197   3.354   9.662   5.834  1.3625 -0.9820  0.5936
   45MOL0     H 6198   3.282  10.027   6.098  0.4107  1.2479  2.1744
   45MOL0     H 6199   3.357   9.932   6.218  0.7439  1.2855 -0.3029
   45MOL0     H 6200   3.572  10.005   6.149 -0.7224  0.6955  1.3342
   45MOL0     H 6201   3.478  10.157   6.155 -0.4910  0.2665 -1.2294
   45MOL0     H 6202   3.611  10.153   5.927  0.2155 -0.9156 -1.2850
   45MOL0     H 6203   3.539   9.992   5.906 -0.1576  0.6799 -0.8521
   45MOL0     H 6204   3.319  10.093   5.852 -1.7602  1.6120 -0.8343
   45MOL0     H 6205   3.440  10.168   5.763  2.4137 -1.3862  0.1104
   45MOL0     H 6206   3.342  10.501   5.991  1.9170  0.5751  0.2085
   45MOL0     H 6207   3.154   9.836   6.180  2.1115  1.9950 -0.9653
   45MOL0     H 6208   2.893   9.606   6.229 -1.7923 -1.5241 -2.1062
   45MOL0     H 6209   2.956   9.781   6.230  2.0034  1.1255 -2.7766
   45MOL0     H 6210   2.832   9.723   6.118 -0.5106  0.8782  1.0574
   46MOL0     O 6211  11.228   9.470   8.080  0.0463 -0.2228  0.7543
   46MOL0     C 6212  11.312   9.514   8.158 -0.5610 -0.2291  0.0345
   46MOL0     O 6213  11.291   9.593   8.269  0.1692  0.1156 -0.1645
   46MOL0     C 6214  11.163   9.607   8.313 -0.3763 -0.0033 -0.1672
   46MOL0     C 6215  11.066   9.677   8.245  0.4702 -0.1157  0.7106
   46MOL0     C 6216  10.937   9.691   8.295  0.2414  0.2124 -0.1471
   46MOL0     C 6217  10.889   9.616   8.403 -0.4765 -0.6112  0.9113
   46MOL0     O 6218  10.754   9.615   8.423  0.2265  0.1144 -0.5563
   46MOL0     C 6219  10.711   9.566   8.552 -0.2258 -0.2535  0.3981
   46MOL0     C 6220  10.561   9.596   8.562 -0.6748 -0.2429  0.3219
   46MOL0     C 6221  10.508   9.736   8.572 -0.1823 -0.0778 -1.3413
   46MOL0     C 6222  10.366   9.736   8.582  0.2148  0.1837  0.1013
   46MOL0     C 6223  10.320   9.884   8.604 -0.1559 -1.0247  0.7060
   46MOL0     C 6224  10.171   9.890   8.614 -0.4770 -0.6245 -0.5686
   46MOL0     C 6225  10.117   9.824   8.739 -1.0351 -0.0091 -0.9197
   46MOL0     C 6226   9.967   9.836   8.765  0.9812  0.7607 -0.9566
   46MOL0     N 6227   9.932   9.980   8.802  0.2009  0.4199  0.4032
   46MOL0     C 6228   9.814  10.038   8.780 -0.9671  0.6681 -0.4914
   46MOL0     C 6229   9.825  10.161   8.824  0.1497  0.1425  0.6906
   46MOL0     C 6230   9.718  10.264   8.806 -0.1218 -0.9833 -0.1820
   46MOL0     C 6231   9.651  10.273   8.941  0.6401  0.7222  0.1773
   46MOL0     C 6232   9.717  10.378   9.023 -0.3183  1.0075  0.1583
   46MOL0     C 6233   9.682  10.522   8.974 -0.3338 -0.2877  0.6111
   46MOL0     O 6234   9.621  10.603   9.077 -0.0203 -0.6068 -0.1416
   46MOL0     C 6235   9.692  10.666   9.177 -1.0082  0.5376  0.2916
   46MOL0     C 6236   9.830  10.641   9.204  0.5248  0.3949  0.6577
   46MOL0     C 6237   9.896  10.709   9.306 -0.4338 -0.5982 -0.2820
   46MOL0     C 6238  10.032  10.675   9.347 -0.3853 -0.4261 -0.8209
   46MOL0     C 6239   9.819  10.793   9.408 -0.2346  1.1835  0.9212
   46MOL0     C 6240   9.876  10.858   9.533  0.7322  0.1694  0.8136
   46MOL0     O 6241   9.791  10.958   9.578  0.4161  0.1336 -0.1873
   46MOL0     C 6242   9.835  11.021   9.686  0.0307 -0.4246 -0.4772
   46MOL0     C 6243   9.928  11.135   9.672  0.3823  0.0545  0.3329
   46MOL0     C 6244   9.977  11.197   9.788 -0.7360 -0.2607 -0.9498
   46MOL0     C 6245   9.943  11.142   9.913 -0.0073 -0.9480 -0.1860
   46MOL0     O 6246  10.014  11.191  10.017  0.2473  0.4793  0.0138
   46MOL0     C 6247  10.156  11.173  10.016 -0.2557 -0.7792  0.2943
   46MOL0     C 6248  10.213  11.311  10.065  0.5150 -0.1380  0.1607
   46MOL0     C 6249  10.220  11.340  10.216  0.0034  0.2674 -0.9694
   46MOL0     C 6250  10.351  11.317  10.290  0.3301  0.2019 -0.0204
   46MOL0     C 6251  10.330  11.322  10.447 -0.5608 -0.4664  0.6467
   46MOL0     C 6252  10.474  11.336  10.508 -0.1160  0.5820  0.5768
   46MOL0     C 6253  10.470  11.401  10.650 -0.5239  0.9170  1.1622
   46MOL0     C 6254  10.599  11.376  10.728  0.7221 -0.2404  0.2126
   46MOL0    Cl 6255  10.745  11.441  10.648  0.3665 -0.0247 -0.0780
   46MOL0     C 6256   9.852  11.036   9.925  0.4493 -0.3727  0.9545
   46MOL0     C 6257   9.806  10.970   9.815  0.1293  0.4315 -0.8508
   46MOL0     O 6258   9.974  10.817   9.590  0.1346  0.0863 -0.4566
   46MOL0     C 6259   9.691  10.817   9.368  0.2165 -0.0472  0.6307
   46MOL0     C 6260   9.625  10.756   9.255  0.1228 -0.0570 -0.4775
   46MOL0     N 6261   9.953  10.182   8.869  0.0421 -0.1644  0.9437
   46MOL0     N 6262  10.018  10.069   8.864 -0.5353 -0.2185 -0.1049
   46MOL0     C 6263  10.984   9.536   8.470 -0.2515 -0.7055 -0.4775
   46MOL0     C 6264  11.116   9.537   8.426  0.1173  0.1165 -0.0377
   46MOL0     C 6265  11.455   9.507   8.111  0.1704 -1.2196  0.4972
   46MOL0     C 6266  11.474   9.516   7.976  0.5179 -0.7249 -0.5523
   46MOL0     C 6267  11.608   9.517   7.923  0.0857  0.3127  0.1943
   46MOL0     C 6268  11.716   9.498   8.009  0.7901 -0.8734  1.0025
   46MOL0     O 6269  11.849   9.503   7.966  0.3934 -0.2596 -0.3115
   46MOL0     C 6270  11.877   9.643   7.953  0.3451  0.5069  0.3602
   46MOL0     C 6271  12.028   9.681   7.959 -0.5900 -0.3990 -0.8622
   46MOL0     C 6272  12.100   9.613   8.074 -0.2091  0.5329  1.0426
   46MOL0     C 6273  12.150   9.473   8.042 -0.3520  0.2308  0.3036
   46MOL0     C 6274  12.196   9.405   8.161 -0.7660  0.4721 -0.1773
   46MOL0     C 6275  12.237   9.327   8.256  0.5738 -0.7958  0.0398
   46MOL0     C 6276  11.691   9.476   8.147 -0.1841  0.4313  0.1191
   46MOL0     C 6277  11.566   9.484   8.199  0.5866  0.4633  0.0723
   46MOL0     C 6278  11.548   9.484   8.349 -0.2493 -0.5715  0.1830
   46MOL0     H 6279  11.089   9.734   8.155 -3.2134  1.2532  0.4710
   46MOL0     H 6280  10.857   9.736   8.237  1.7098  1.0240 -1.6197
   46MOL0     H 6281  10.753   9.617   8.639  2.8745  1.7006 -2.0425
   46MOL0     H 6282  10.724   9.458   8.564 -2.7956 -0.7952 -0.9178
   46MOL0     H 6283  10.524   9.569   8.463 -0.0775  1.7762 -0.5041
   46MOL0     H 6284  10.512   9.531   8.635 -0.3370  0.4694  1.2064
   46MOL0     H 6285  10.546   9.797   8.654 -1.5959 -0.6104 -0.2388
   46MOL0     H 6286  10.532   9.788   8.479 -2.8264 -2.4751 -3.5635
   46MOL0     H 6287  10.318   9.685   8.498 -2.4612 -1.2128  2.2706
   46MOL0     H 6288  10.343   9.675   8.671  0.0924  1.3979  0.9245
   46MOL0     H 6289  10.347   9.942   8.516 -0.7569 -1.6050  0.1261
   46MOL0     H 6290  10.373   9.930   8.688 -2.3260  0.9313  1.1166
   46MOL0     H 6291  10.148   9.997   8.618 -2.0993 -0.8379 -2.6124
   46MOL0     H 6292  10.123   9.854   8.522 -0.2846 -1.5765 -0.3129
   46MOL0     H 6293  10.170   9.851   8.831 -1.4586 -2.1305 -0.0109
   46MOL0     H 6294  10.144   9.720   8.725 -2.2104 -1.1410  3.5287
   46MOL0     H 6295   9.907   9.804   8.679  0.8727  0.5570 -0.8051
   46MOL0     H 6296   9.953   9.765   8.847  1.7018 -1.1628 -2.4099
   46MOL0     H 6297   9.716  10.002   8.749 -1.3773 -0.6171  2.0124
   46MOL0     H 6298   9.645  10.246   8.726 -1.1377  1.9175 -0.0398
   46MOL0     H 6299   9.757  10.362   8.777  1.0969 -1.6809 -1.0224
   46MOL0     H 6300   9.547  10.306   8.929  0.4721 -0.2323 -1.1367
   46MOL0     H 6301   9.670  10.182   8.998 -2.1274 -1.0304 -1.4541
   46MOL0     H 6302   9.678  10.368   9.125 -0.3112 -2.0697 -0.0533
   46MOL0     H 6303   9.825  10.365   9.031 -0.3562  1.7092  2.3874
   46MOL0     H 6304   9.768  10.581   8.941 -1.5285  1.1687 -0.0068
   46MOL0     H 6305   9.622  10.526   8.882  1.7928  0.4119 -0.8187
   46MOL0     H 6306   9.888  10.580   9.135  1.2219  0.6868  0.9777
   46MOL0     H 6307  10.096  10.763   9.356  0.6300 -1.1465 -0.8159
   46MOL0     H 6308  10.079  10.608   9.274  1.8868  1.3420 -1.0784
   46MOL0     H 6309  10.028  10.620   9.441  1.7653  1.4503  0.4611
   46MOL0     H 6310   9.942  11.179   9.574 -0.5654 -1.3540 -0.4697
   46MOL0     H 6311  10.054  11.272   9.774  0.3245 -0.9003  1.0338
   46MOL0     H 6312  10.187  11.094  10.085  0.1303  0.6085  1.7915
   46MOL0     H 6313  10.211  11.156   9.923 -2.3054 -0.4397 -1.0270
   46MOL0     H 6314  10.311  11.335  10.023 -1.6503  0.1817 -5.5168
   46MOL0     H 6315  10.149  11.386  10.018  1.0394  1.0939  1.3491
   46MOL0     H 6316  10.138  11.281  10.259 -0.8657  0.3019 -2.5048
   46MOL0     H 6317  10.190  11.443  10.239  1.3816  0.4549  0.0537
   46MOL0     H 6318  10.420  11.392  10.250 -1.5566  1.7387 -0.5785
   46MOL0     H 6319  10.392  11.220  10.262  1.1024 -0.0395  1.8447
   46MOL0     H 6320  10.277  11.411  10.480  2.5294  0.9843  2.0911
   46MOL0     H 6321  10.287  11.225  10.471 -0.0071 -1.0878 -0.7222
   46MOL0     H 6322  10.527  11.404  10.440 -2.9801  2.1315 -0.2674
   46MOL0     H 6323  10.523  11.238  10.512 -1.3175 -0.0260  0.7927
   46MOL0     H 6324  10.395  11.347  10.709 -2.1422  1.1076 -0.6132
   46MOL0     H 6325  10.462  11.509  10.639  2.1895  0.9272 -2.7924
   46MOL0     H 6326  10.599  11.267  10.737 -0.7812 -0.2973 -0.1497
   46MOL0     H 6327  10.583  11.424  10.825 -2.8196 -2.8981  1.1620
   46MOL0     H 6328   9.827  11.005  10.026 -0.5983  1.7194  1.3860
   46MOL0     H 6329   9.747  10.879   9.824  1.0632 -0.1336 -0.2660
   46MOL0     H 6330   9.633  10.879   9.436  0.1157  0.7135 -0.1181
   46MOL0     H 6331   9.518  10.775   9.247  0.3045  1.2574  0.0587
   46MOL0     H 6332  10.961   9.476   8.557  1.9839  0.9828  1.3954
   46MOL0     H 6333  11.179   9.474   8.488 -2.1364 -0.2405  1.9953
   46MOL0     H 6334  11.388   9.527   7.910 -0.9550 -2.0916  1.0402
   46MOL0     H 6335  11.613   9.540   7.818 -1.4407  1.6504  0.3794
   46MOL0     H 6336  11.857   9.669   7.849 -1.0943 -2.1968 -0.1294
   46MOL0     H 6337  11.824   9.711   8.021  4.1241  1.0670  3.0762
   46MOL0     H 6338  12.032   9.791   7.959  1.6592 -0.4505 -0.5434
   46MOL0     H 6339  12.085   9.646   7.873  3.0510  1.7658  0.4136
   46MOL0     H 6340  12.189   9.673   8.096 -0.2592  1.0111  0.0129
   46MOL0     H 6341  12.035   9.609   8.162 -0.7392  3.7633  0.9194
   46MOL0     H 6342  12.232   9.478   7.970 -2.8763 -0.0075 -2.8261
   46MOL0     H 6343  12.070   9.415   7.994 -0.1616 -0.5814  0.9428
   46MOL0     H 6344  12.264   9.260   8.335  0.4253 -1.7695 -0.7119
   46MOL0     H 6345  11.775   9.465   8.214 -0.6455 -1.6405  0.4315
   46MOL0     H 6346  11.635   9.434   8.391  0.0279  1.3951  2.0918
   46MOL0     H 6347  11.558   9.586   8.385  2.2024 -0.6718 -0.0511
   46MOL0     H 6348  11.467   9.430   8.399  0.6922 -2.2396 -0.0083
   47MOL0     O 6349   3.566  10.080   7.651 -0.0683 -0.2657 -0.1240
   47MOL0     C 6350   3.503  10.160   7.582 -0.3843  0.5574 -0.0355
   47MOL0     O 6351   3.544  10.284   7.559 -0.3091  0.4045  0.8588
   47MOL0     C 6352   3.659  10.337   7.608  0.6090  0.8759 -0.2083
   47MOL0     C 6353   3.656  10.468   7.647  0.7871 -0.0783 -0.2556
   47MOL0     C 6354   3.769  10.538   7.686 -0.1738 -0.3853  1.0398
   47MOL0     C 6355   3.893  10.478   7.672  0.2265  0.6276 -0.5262
   47MOL0     O 6356   4.012  10.539   7.695 -0.8753 -0.1027 -0.3495
   47MOL0     C 6357   4.022  10.677   7.646 -0.1566  0.2029  0.1489
   47MOL0     C 6358   3.987  10.779   7.760 -1.0368  0.7501  0.0039
   47MOL0     C 6359   4.105  10.802   7.850 -0.1132  0.0941 -0.6019
   47MOL0     C 6360   4.058  10.798   7.998 -0.1735  0.3295  0.2559
   47MOL0     C 6361   4.183  10.810   8.090  0.6354  0.3042 -0.0495
   47MOL0     C 6362   4.233  10.944   8.109  0.3375 -0.0224 -0.1953
   47MOL0     C 6363   4.359  10.935   8.206  1.6121  0.2211  0.1692
   47MOL0     C 6364   4.398  11.073   8.248  0.7614 -0.1295 -0.1418
   47MOL0     N 6365   4.532  11.077   8.300  0.4258  0.6910  0.8725
   47MOL0     C 6366   4.580  11.021   8.417 -1.4146 -0.0200  0.1822
   47MOL0     C 6367   4.716  11.013   8.404 -0.1888  1.6665 -0.2969
   47MOL0     C 6368   4.802  10.957   8.516  1.3866 -1.0958 -0.2598
   47MOL0     C 6369   4.953  10.902   8.506  0.3180  0.4359  0.5559
   47MOL0     C 6370   4.972  10.758   8.439 -0.0018 -0.3404 -0.1652
   47MOL0     C 6371   5.038  10.778   8.305  0.1736 -0.4347 -1.0042
   47MOL0     O 6372   5.107  10.659   8.288 -1.1785 -0.3370  0.3182
   47MOL0     C 6373   5.032  10.550   8.240  0.1303 -0.1578  0.7298
   47MOL0     C 6374   4.900  10.557   8.191  1.1748  0.4687 -0.0955
   47MOL0     C 6375   4.836  10.448   8.128  0.0921 -0.0000  0.8797
   47MOL0     C 6376   4.707  10.471   8.057 -0.5071 -0.5741  0.1993
   47MOL0     C 6377   4.904  10.325   8.135 -0.6602 -1.0521 -0.0447
   47MOL0     C 6378   4.858  10.202   8.081  0.3531 -0.2086  0.1059
   47MOL0     O 6379   4.738  10.162   8.116 -0.2525 -0.0096 -0.6909
   47MOL0     C 6380   4.676  10.048   8.076  0.1049  1.1775 -0.3188
   47MOL0     C 6381   4.538  10.052   8.066  1.0097  0.7612 -0.4421
   47MOL0     C 6382   4.462   9.946   8.018  0.2518  0.1150 -0.5299
   47MOL0     C 6383   4.529   9.834   7.976  0.9719  0.4152  0.4630
   47MOL0     O 6384   4.453   9.722   7.948  0.3848  1.0331 -0.0519
   47MOL0     C 6385   4.499   9.594   7.898  0.0609  0.3039  0.6602
   47MOL0     C 6386   4.374   9.503   7.871 -0.7894  0.7648  0.0707
   47MOL0     C 6387   4.286   9.456   7.989  0.1484 -0.0291 -0.2992
   47MOL0     C 6388   4.365   9.406   8.112 -0.7733  0.2969 -0.4166
   47MOL0     C 6389   4.272   9.345   8.222  0.1056 -0.3863 -0.0526
   47MOL0     C 6390   4.207   9.469   8.304  0.9924  0.9416  1.2315
   47MOL0     C 6391   4.155   9.419   8.438 -0.5335  0.6875 -0.6107
   47MOL0     C 6392   4.086   9.516   8.528  0.0993 -0.0648 -0.4609
   47MOL0    Cl 6393   4.076   9.452   8.701 -0.0890 -0.0405  0.0670
   47MOL0     C 6394   4.665   9.830   7.981 -0.4745 -0.2814 -0.9104
   47MOL0     C 6395   4.741   9.933   8.034 -0.8673  0.4228 -1.3918
   47MOL0     O 6396   4.940  10.145   8.010 -0.2953  0.4083  0.1859
   47MOL0     C 6397   5.031  10.319   8.197 -0.5798 -1.0036 -0.0133
   47MOL0     C 6398   5.096  10.433   8.249  0.3656 -0.0117  0.1197
   47MOL0     N 6399   4.752  11.056   8.275  0.6303  0.3715  0.0313
   47MOL0     N 6400   4.644  11.092   8.217 -0.0844 -0.7112  0.3974
   47MOL0     C 6401   3.894  10.343   7.652 -0.7387  0.9517  1.0774
   47MOL0     C 6402   3.782  10.273   7.607  0.6534 -0.5642 -0.1304
   47MOL0     C 6403   3.379  10.125   7.508 -0.2478  0.1063 -0.4256
   47MOL0     C 6404   3.353  10.163   7.376 -0.4547  0.5607  0.1328
   47MOL0     C 6405   3.240  10.118   7.304 -0.4144 -1.1533 -0.4425
   47MOL0     C 6406   3.153  10.026   7.363  0.5620 -0.2608 -0.6846
   47MOL0     O 6407   3.043   9.973   7.299 -0.6144  0.3697  0.1237
   47MOL0     C 6408   2.973  10.056   7.214  0.0979  0.2790  0.6709
   47MOL0     C 6409   2.829  10.009   7.206  0.6546 -0.6117 -0.3736
   47MOL0     C 6410   2.768  10.022   7.350  0.3277 -0.1228  0.7110
   47MOL0     C 6411   2.619   9.988   7.363  0.5915 -0.6010  1.2204
   47MOL0     C 6412   2.564  10.038   7.492 -0.6012 -0.0138  1.4269
   47MOL0     C 6413   2.508  10.041   7.599 -0.2793 -0.3737 -0.0456
   47MOL0     C 6414   3.174   9.998   7.499  0.1004  0.3810  0.0840
   47MOL0     C 6415   3.284  10.043   7.567  0.5322 -1.0997  0.7395
   47MOL0     C 6416   3.301  10.008   7.709 -0.3649  1.0159 -0.7825
   47MOL0     H 6417   3.557  10.510   7.657  0.9038  0.8115 -2.2786
   47MOL0     H 6418   3.760  10.644   7.706 -0.4417 -0.9495  4.7862
   47MOL0     H 6419   3.947  10.691   7.568 -0.5406 -2.0836  0.0420
   47MOL0     H 6420   4.113  10.696   7.587 -1.1593 -0.4477 -1.6670
   47MOL0     H 6421   3.954  10.867   7.705 -4.3382 -1.3706 -1.7232
   47MOL0     H 6422   3.913  10.736   7.828  2.7426 -1.9906  2.8406
   47MOL0     H 6423   4.177  10.725   7.822 -1.6369 -0.3076 -3.7764
   47MOL0     H 6424   4.139  10.901   7.819 -0.5424 -0.5993 -3.6035
   47MOL0     H 6425   3.988  10.879   8.016 -0.4535 -0.2811  2.0771
   47MOL0     H 6426   4.013  10.702   8.026 -1.6092  0.5589 -1.1079
   47MOL0     H 6427   4.268  10.753   8.053  1.6055  0.6491  1.5437
   47MOL0     H 6428   4.160  10.765   8.187  0.5275  2.0023  0.7526
   47MOL0     H 6429   4.255  10.989   8.012 -1.1972  1.3766  0.0630
   47MOL0     H 6430   4.166  11.013   8.162  0.4086 -2.2386  3.0643
   47MOL0     H 6431   4.445  10.883   8.163  2.0203 -1.4028  2.7317
   47MOL0     H 6432   4.327  10.870   8.288 -3.1762 -1.1125 -2.3878
   47MOL0     H 6433   4.383  11.138   8.161  2.6948 -0.8998 -1.1081
   47MOL0     H 6434   4.333  11.112   8.326  1.2421 -0.8841  0.6521
   47MOL0     H 6435   4.520  10.984   8.499 -2.9541 -2.0938 -1.7633
   47MOL0     H 6436   4.741  10.872   8.549  1.1285 -1.0416 -0.5863
   47MOL0     H 6437   4.793  11.037   8.590 -3.9993 -3.2231  1.9358
   47MOL0     H 6438   5.013  10.976   8.453 -2.6858  1.6663 -1.4030
   47MOL0     H 6439   4.977  10.897   8.612  3.3235  2.9405  0.1553
   47MOL0     H 6440   5.024  10.704   8.518 -0.4317 -0.1960  0.2186
   47MOL0     H 6441   4.882  10.698   8.425  0.8911 -3.1010  3.9914
   47MOL0     H 6442   4.956  10.802   8.237 -1.0148 -1.9288 -0.1599
   47MOL0     H 6443   5.111  10.858   8.322  1.5881 -1.9666  0.5303
   47MOL0     H 6444   4.848  10.652   8.189  0.6630  0.1870 -0.3084
   47MOL0     H 6445   4.625  10.407   8.091  0.1279 -1.4100  0.1818
   47MOL0     H 6446   4.742  10.465   7.954  0.2546 -1.1343  0.4807
   47MOL0     H 6447   4.678  10.577   8.061 -1.7348 -0.8287 -1.1259
   47MOL0     H 6448   4.492  10.135   8.119  0.3539  0.9639 -1.2977
   47MOL0     H 6449   4.356   9.949   8.039  0.4648  1.6911  0.4504
   47MOL0     H 6450   4.546   9.612   7.801 -3.2359  0.3750 -1.0543
   47MOL0     H 6451   4.572   9.552   7.968  2.2461  0.4451 -1.3981
   47MOL0     H 6452   4.308   9.552   7.799 -1.1559  0.4021  0.1630
   47MOL0     H 6453   4.406   9.420   7.808 -2.2452  0.1762  0.0904
   47MOL0     H 6454   4.221   9.379   7.946 -0.0661 -0.2721  0.4335
   47MOL0     H 6455   4.219   9.539   8.014  1.2288  1.6753 -2.7504
   47MOL0     H 6456   4.417   9.490   8.158 -0.9626 -0.5633  1.4694
   47MOL0     H 6457   4.437   9.328   8.085  1.6977  1.9609  0.9292
   47MOL0     H 6458   4.201   9.273   8.179 -0.7920 -0.4180  1.4222
   47MOL0     H 6459   4.342   9.297   8.291 -0.4222 -0.6680  0.2966
   47MOL0     H 6460   4.120   9.497   8.244  0.0757 -0.8705  1.6244
   47MOL0     H 6461   4.271   9.557   8.309 -1.0215  2.6253 -0.4523
   47MOL0     H 6462   4.246   9.381   8.485 -2.3901 -2.4310  0.8226
   47MOL0     H 6463   4.096   9.329   8.416 -0.1496  0.0564  0.8181
   47MOL0     H 6464   3.981   9.532   8.503 -0.7411 -2.2980  1.3854
   47MOL0     H 6465   4.149   9.605   8.520  1.2201 -0.5875  1.7594
   47MOL0     H 6466   4.718   9.737   7.961 -0.1488  0.0469 -1.6172
   47MOL0     H 6467   4.848   9.915   8.028 -0.3735  2.8950 -1.1205
   47MOL0     H 6468   5.080  10.222   8.198 -1.4815 -1.6920  5.2851
   47MOL0     H 6469   5.195  10.441   8.293  0.6405 -1.8373 -0.0706
   47MOL0     H 6470   3.992  10.296   7.648 -1.7633 -1.4593  2.0014
   47MOL0     H 6471   3.779  10.177   7.555 -3.9707 -0.5201 -0.3410
   47MOL0     H 6472   3.416  10.241   7.333 -1.0653  2.5178  2.5278
   47MOL0     H 6473   3.231  10.152   7.201  0.0903  2.2329  0.5307
   47MOL0     H 6474   2.983  10.161   7.243 -0.7800 -0.3421  3.5424
   47MOL0     H 6475   3.010  10.049   7.112 -2.2633  1.7686 -0.3949
   47MOL0     H 6476   2.812   9.909   7.167 -2.3184 -0.1854 -0.4159
   47MOL0     H 6477   2.775  10.074   7.136  0.0178 -1.4382 -0.6617
   47MOL0     H 6478   2.826   9.951   7.410 -2.2132 -2.5445  0.5103
   47MOL0     H 6479   2.796  10.123   7.380 -2.4502  1.7048 -2.1411
   47MOL0     H 6480   2.584   9.886   7.349  0.0604 -0.5006  1.7883
   47MOL0     H 6481   2.573  10.041   7.279 -0.0866 -1.9872  0.7016
   47MOL0     H 6482   2.447  10.025   7.686  0.5656 -3.2120  0.1205
   47MOL0     H 6483   3.101   9.932   7.544 -1.6276  1.3577 -1.1815
   47MOL0     H 6484   3.342  10.090   7.768 -1.9853  2.1291 -1.1500
   47MOL0     H 6485   3.204   9.985   7.754 -0.1108  0.7269 -0.3762
   47MOL0     H 6486   3.364   9.919   7.723 -2.9248 -0.9310 -0.8709
   48MOL0     O 6487   5.395   7.656   6.088  0.3847  0.1197 -0.2672
   48MOL0     C 6488   5.294   7.594   6.059  1.5003 -0.2625 -0.3337
   48MOL0     O 6489   5.235   7.504   6.135 -0.2325  0.3599 -0.4213
   48MOL0     C 6490   5.304   7.457   6.236 -0.6661 -1.0511 -0.5615
   48MOL0     C 6491   5.398   7.353   6.223  1.0617  1.1834 -0.1417
   48MOL0     C 6492   5.466   7.312   6.340 -1.1042 -0.6054  1.0577
   48MOL0     C 6493   5.449   7.372   6.459 -1.3552  0.0162 -0.3868
   48MOL0     O 6494   5.536   7.330   6.556  0.2011  0.2257 -0.1340
   48MOL0     C 6495   5.513   7.376   6.685 -0.4640  0.3753 -0.0579
   48MOL0     C 6496   5.581   7.283   6.790  0.3808 -0.0331  0.6799
   48MOL0     C 6497   5.716   7.333   6.840 -0.4150 -0.4061  1.0530
   48MOL0     C 6498   5.826   7.311   6.727 -0.0789 -0.4335  0.2322
   48MOL0     C 6499   5.962   7.351   6.784 -0.2006  0.5842 -0.0266
   48MOL0     C 6500   6.064   7.437   6.701 -0.2781  0.4356 -0.9919
   48MOL0     C 6501   6.058   7.421   6.544 -0.0159  0.3331 -0.1413
   48MOL0     C 6502   6.189   7.489   6.485  0.1378 -0.6758  0.0820
   48MOL0     N 6503   6.316   7.438   6.530  0.3960 -1.0084 -0.4389
   48MOL0     C 6504   6.340   7.307   6.531 -0.0857  0.0908 -0.5788
   48MOL0     C 6505   6.476   7.302   6.572 -0.0714 -0.2702  0.5800
   48MOL0     C 6506   6.569   7.177   6.584 -0.1286  0.4239  0.2176
   48MOL0     C 6507   6.623   7.141   6.443 -0.4235 -0.4706  0.5656
   48MOL0     C 6508   6.724   7.021   6.459  0.4527 -0.6478 -0.4442
   48MOL0     C 6509   6.771   6.951   6.328  0.3940 -0.2927 -0.0191
   48MOL0     O 6510   6.838   7.043   6.239 -0.0829  0.5284  0.6972
   48MOL0     C 6511   6.854   6.999   6.106 -1.0898 -0.3925 -0.5879
   48MOL0     C 6512   6.826   6.876   6.058  0.4507  0.3757 -0.3931
   48MOL0     C 6513   6.818   6.846   5.922  0.8728  0.3928 -0.8625
   48MOL0     C 6514   6.777   6.706   5.877  0.9842  0.1516 -0.1925
   48MOL0     C 6515   6.836   6.953   5.832  0.4322  0.4293  0.4794
   48MOL0     C 6516   6.822   6.936   5.686 -0.7772 -0.8323  0.3415
   48MOL0     O 6517   6.714   6.871   5.632  0.6484  1.1476 -0.1441
   48MOL0     C 6518   6.710   6.843   5.495 -0.2807 -0.0586 -0.0031
   48MOL0     C 6519   6.808   6.762   5.439  0.5688 -0.3116 -0.0127
   48MOL0     C 6520   6.791   6.709   5.316 -0.8482 -0.6666  0.3744
   48MOL0     C 6521   6.670   6.734   5.246  1.1672 -0.0374 -0.0562
   48MOL0     O 6522   6.674   6.698   5.112  0.0710  0.4538 -0.5671
   48MOL0     C 6523   6.559   6.711   5.028 -0.3628  1.0104  0.8323
   48MOL0     C 6524   6.471   6.582   5.058 -0.4535 -0.2162  0.9848
   48MOL0     C 6525   6.334   6.593   4.997  0.5538 -1.0913 -0.7620
   48MOL0     C 6526   6.255   6.452   4.985 -0.6416  0.0301  0.0887
   48MOL0     C 6527   6.124   6.458   4.897 -0.5519 -0.5466  0.3891
   48MOL0     C 6528   6.012   6.502   4.990  0.0769  0.4602 -0.2414
   48MOL0     C 6529   5.878   6.493   4.917  0.1208  0.2936  0.4384
   48MOL0     C 6530   5.749   6.495   4.998  1.1840  0.0921 -0.4483
   48MOL0    Cl 6531   5.604   6.463   4.900  0.2381 -0.2860 -0.0462
   48MOL0     C 6532   6.570   6.814   5.301  0.2101 -0.0960 -0.8339
   48MOL0     C 6533   6.591   6.873   5.429 -1.0315  0.2634  0.8307
   48MOL0     O 6534   6.912   6.993   5.621 -0.1141  0.6103  0.3741
   48MOL0     C 6535   6.875   7.072   5.878 -0.2945 -0.6270  0.0529
   48MOL0     C 6536   6.899   7.100   6.015  0.5070  0.5496 -0.9172
   48MOL0     N 6537   6.509   7.424   6.622  0.0191  0.3278  0.8311
   48MOL0     N 6538   6.413   7.512   6.601 -0.7118 -0.0085 -0.0335
   48MOL0     C 6539   5.358   7.472   6.478  0.0543  0.3593  0.2424
   48MOL0     C 6540   5.281   7.518   6.370  0.0964 -0.5283 -0.3370
   48MOL0     C 6541   5.216   7.656   5.952  0.0474 -0.0595 -0.7805
   48MOL0     C 6542   5.162   7.782   5.957 -0.6846 -1.2239 -1.1167
   48MOL0     C 6543   5.082   7.828   5.853  0.3821  0.1432 -0.6831
   48MOL0     C 6544   5.051   7.759   5.733 -0.3268  0.4386 -0.5540
   48MOL0     O 6545   4.951   7.807   5.650 -0.0716  0.4560  0.6267
   48MOL0     C 6546   4.957   7.779   5.505  0.0322  0.4212 -0.3036
   48MOL0     C 6547   4.886   7.869   5.419  0.3806 -0.4084 -0.1123
   48MOL0     C 6548   4.939   8.016   5.424  1.0961 -0.3860 -0.0738
   48MOL0     C 6549   4.832   8.123   5.373 -0.2001 -0.2341  0.2812
   48MOL0     C 6550   4.838   8.144   5.230 -0.0652  0.9561 -0.3220
   48MOL0     C 6551   4.851   8.164   5.109  0.0187  0.9411 -0.9598
   48MOL0     C 6552   5.100   7.626   5.725  0.5430 -1.0969 -0.9195
   48MOL0     C 6553   5.175   7.575   5.839 -0.5845  0.3144  0.0474
   48MOL0     C 6554   5.209   7.427   5.823 -0.1025 -0.6510  0.8628
   48MOL0     H 6555   5.413   7.302   6.128  0.3746  0.7661 -0.0317
   48MOL0     H 6556   5.536   7.228   6.347  0.5977  0.7129  0.5276
   48MOL0     H 6557   5.410   7.377   6.720 -0.2734 -2.3881  0.8057
   48MOL0     H 6558   5.549   7.478   6.705  1.7817 -0.2739 -0.4610
   48MOL0     H 6559   5.515   7.286   6.877 -0.3328  0.4804  0.1313
   48MOL0     H 6560   5.591   7.175   6.772 -3.6779 -0.9484  2.7512
   48MOL0     H 6561   5.717   7.442   6.851 -0.4092 -0.1736 -0.8231
   48MOL0     H 6562   5.749   7.278   6.928  0.3816 -2.1738 -0.2779
   48MOL0     H 6563   5.830   7.214   6.677 -1.9209 -0.7751  0.6448
   48MOL0     H 6564   5.814   7.392   6.655  0.8886 -0.0601  0.4755
   48MOL0     H 6565   6.013   7.255   6.792  0.3266  0.5941 -2.4708
   48MOL0     H 6566   5.939   7.386   6.885  1.0161 -0.9738  0.8384
   48MOL0     H 6567   6.064   7.542   6.732  0.5514 -0.4102  2.3337
   48MOL0     H 6568   6.160   7.394   6.733 -0.7120 -0.8108 -1.3507
   48MOL0     H 6569   5.974   7.479   6.507 -0.2564  0.9767  1.3451
   48MOL0     H 6570   6.067   7.316   6.515  1.6473  0.3816  0.0770
   48MOL0     H 6571   6.183   7.494   6.376 -1.3948  2.0699  0.1942
   48MOL0     H 6572   6.199   7.595   6.509  1.1828 -0.5348 -0.8912
   48MOL0     H 6573   6.295   7.215   6.494 -1.0439 -0.0575  0.8607
   48MOL0     H 6574   6.502   7.098   6.619  1.0436 -0.8629 -0.3699
   48MOL0     H 6575   6.648   7.194   6.658  0.7096  2.1613 -1.0026
   48MOL0     H 6576   6.537   7.116   6.380  1.1386 -1.4948 -1.2704
   48MOL0     H 6577   6.680   7.221   6.395  3.6696 -3.1624  0.4535
   48MOL0     H 6578   6.811   7.044   6.521  0.6627 -1.4175 -0.4466
   48MOL0     H 6579   6.675   6.938   6.510 -2.2876 -0.4066 -2.4164
   48MOL0     H 6580   6.845   6.876   6.358  0.4560 -0.6136 -0.9334
   48MOL0     H 6581   6.681   6.907   6.284  0.2641 -1.7602  1.5728
   48MOL0     H 6582   6.796   6.807   6.137  1.4546  0.7539  0.3377
   48MOL0     H 6583   6.840   6.655   5.804 -2.1936 -3.6830 -0.5776
   48MOL0     H 6584   6.675   6.708   5.837 -0.8110  1.4822  3.8893
   48MOL0     H 6585   6.783   6.647   5.969  1.6461  3.4829  2.0786
   48MOL0     H 6586   6.895   6.744   5.501  0.7735 -2.0284 -0.7554
   48MOL0     H 6587   6.866   6.651   5.263  0.9967  2.7773 -1.0928
   48MOL0     H 6588   6.506   6.807   5.031 -1.3557  0.6478 -2.0346
   48MOL0     H 6589   6.589   6.695   4.924  0.0043  0.4273  1.0228
   48MOL0     H 6590   6.530   6.497   5.021  2.5451  2.0712  0.1168
   48MOL0     H 6591   6.460   6.565   5.165 -4.1959  0.3727  0.8327
   48MOL0     H 6592   6.346   6.642   4.899 -2.1361 -2.3609 -1.8150
   48MOL0     H 6593   6.284   6.672   5.053  4.0805  2.4641 -2.0568
   48MOL0     H 6594   6.234   6.399   5.079  1.7608 -0.0395  0.6668
   48MOL0     H 6595   6.320   6.385   4.928  1.4730  1.1652  1.0360
   48MOL0     H 6596   6.147   6.525   4.813 -1.4945  0.1888  0.6941
   48MOL0     H 6597   6.093   6.361   4.859  2.1633 -1.5954  0.6524
   48MOL0     H 6598   6.022   6.605   5.024  0.6314  1.4138 -2.9864
   48MOL0     H 6599   6.017   6.433   5.075 -0.5046 -3.4874 -3.0973
   48MOL0     H 6600   5.862   6.401   4.860  1.3763 -0.2255  0.8958
   48MOL0     H 6601   5.881   6.570   4.839  5.3408 -0.6502 -0.6765
   48MOL0     H 6602   5.737   6.595   5.041 -0.3115 -1.9411  4.6642
   48MOL0     H 6603   5.740   6.434   5.089 -3.1314  0.4806 -0.4016
   48MOL0     H 6604   6.476   6.837   5.251  0.4744  3.4313 -0.0097
   48MOL0     H 6605   6.524   6.933   5.491  1.8574  2.4225  2.0765
   48MOL0     H 6606   6.899   7.156   5.814  3.9472  0.5193  2.7300
   48MOL0     H 6607   6.931   7.198   6.047  1.3183  0.1252 -0.4090
   48MOL0     H 6608   5.352   7.512   6.579 -0.1712  1.2039 -0.0947
   48MOL0     H 6609   5.217   7.604   6.386 -2.3238 -2.2598 -0.3462
   48MOL0     H 6610   5.193   7.853   6.033  2.6002 -2.4614 -1.1470
   48MOL0     H 6611   5.040   7.926   5.873  1.9924  0.7399 -0.0051
   48MOL0     H 6612   5.060   7.779   5.469  0.7275 -1.3295  1.4585
   48MOL0     H 6613   4.900   7.686   5.493 -3.0170  2.2472 -0.9057
   48MOL0     H 6614   4.780   7.872   5.442  0.3820 -2.9603  0.4459
   48MOL0     H 6615   4.904   7.833   5.317 -1.4120  0.5327 -0.8099
   48MOL0     H 6616   4.952   8.046   5.529  0.9225 -1.0206  0.1368
   48MOL0     H 6617   5.029   8.014   5.363  1.5052  0.2038  0.5080
   48MOL0     H 6618   4.859   8.221   5.411 -0.9083 -0.1316  0.5521
   48MOL0     H 6619   4.738   8.083   5.415 -1.4177 -1.7936 -3.5068
   48MOL0     H 6620   4.871   8.193   5.008  1.1294  2.2183 -0.4117
   48MOL0     H 6621   5.077   7.560   5.643  1.5923 -0.5582 -1.6679
   48MOL0     H 6622   5.313   7.418   5.791 -0.1848  0.7265  0.1103
   48MOL0     H 6623   5.193   7.377   5.919 -1.9422 -3.4042 -0.7757
   48MOL0     H 6624   5.147   7.382   5.746 -0.8209  1.6917 -0.0162
   49MOL0     O 6625   6.469   0.135  10.479  0.0407  1.1108  0.2555
   49MOL0     C 6626   6.350   0.130  10.449 -1.2713  0.1821  0.1692
   49MOL0     O 6627   6.269   0.235  10.439  0.0084  0.1327  0.8645
   49MOL0     C 6628   6.307   0.353  10.485  0.0013 -0.7553 -0.3031
   49MOL0     C 6629   6.328   0.457  10.388 -1.1209 -0.4573  0.2585
   49MOL0     C 6630   6.382   0.582  10.433  0.6442 -0.8624  0.7616
   49MOL0     C 6631   6.400   0.603  10.568  0.0107  0.3784 -0.7883
   49MOL0     O 6632   6.435   0.730  10.611  0.0203  1.0319 -0.1204
   49MOL0     C 6633   6.371   0.788  10.729  0.4676 -0.5928  0.1529
   49MOL0     C 6634   6.234   0.844  10.687 -0.0333  0.0995 -0.2887
   49MOL0     C 6635   6.249   0.987  10.622 -0.2999  0.4517 -0.3595
   49MOL0     C 6636   6.123   1.071  10.648  0.8304  0.7999 -0.0757
   49MOL0     C 6637   6.079   1.149  10.520  1.0334 -0.0341 -0.1015
   49MOL0     C 6638   6.186   1.252  10.470 -0.3657  0.7146 -0.2408
   49MOL0     C 6639   6.155   1.309  10.331  0.1037 -0.2608 -0.3445
   49MOL0     C 6640   6.135   1.209  10.220  0.4028  0.4080  0.5788
   49MOL0     N 6641   6.094   1.271  10.093 -0.8715  0.3049 -0.1919
   49MOL0     C 6642   5.998   1.363  10.076 -0.4343  0.1053  0.3829
   49MOL0     C 6643   6.017   1.413   9.946 -0.0501  0.6904  0.3181
   49MOL0     C 6644   5.944   1.522   9.867  0.7174  0.5811 -1.5365
   49MOL0     C 6645   5.834   1.458   9.761 -0.4261  0.4373  0.0062
   49MOL0     C 6646   5.912   1.388   9.651  0.0215  0.5928 -1.1756
   49MOL0     C 6647   5.805   1.338   9.549 -0.2167 -0.8896  0.1348
   49MOL0     O 6648   5.857   1.264   9.432 -0.2059 -0.0757  0.4390
   49MOL0     C 6649   5.928   1.332   9.331  0.8851  0.5917 -0.3819
   49MOL0     C 6650   5.925   1.471   9.320 -0.8357  0.1703  0.6093
   49MOL0     C 6651   5.984   1.542   9.210  0.7288 -0.1809  0.3441
   49MOL0     C 6652   5.947   1.695   9.182  0.6250 -0.0900  0.9497
   49MOL0     C 6653   6.041   1.461   9.109 -0.5139 -0.5081  0.0539
   49MOL0     C 6654   6.092   1.512   8.978  0.3998 -0.2056 -0.4869
   49MOL0     O 6655   6.149   1.419   8.899 -0.0859  0.1087 -0.0572
   49MOL0     C 6656   6.218   1.453   8.786  0.3801  1.3233  0.5620
   49MOL0     C 6657   6.168   1.536   8.693  0.9529 -0.4717 -0.2814
   49MOL0     C 6658   6.238   1.590   8.582 -0.3662 -0.0243 -0.1145
   49MOL0     C 6659   6.357   1.525   8.544  0.1756 -0.4606 -0.3947
   49MOL0     O 6660   6.415   1.585   8.434  0.5507 -0.4490 -0.4764
   49MOL0     C 6661   6.491   1.497   8.359 -0.8868 -0.0267  0.3608
   49MOL0     C 6662   6.539   1.570   8.244  0.1420  0.4085  0.2897
   49MOL0     C 6663   6.412   1.602   8.158 -0.3364  0.0812 -1.1068
   49MOL0     C 6664   6.435   1.678   8.031  0.5518  0.6536 -0.5816
   49MOL0     C 6665   6.309   1.695   7.946  1.3243  0.0162  0.4504
   49MOL0     C 6666   6.218   1.818   7.993  0.5293 -0.6991 -0.5277
   49MOL0     C 6667   6.097   1.836   7.905 -0.4261 -0.1182 -0.9489
   49MOL0     C 6668   6.007   1.955   7.916  0.2976 -0.0823 -0.2460
   49MOL0    Cl 6669   6.096   2.109   7.896  0.8438  0.3119 -0.1656
   49MOL0     C 6670   6.410   1.432   8.633  0.9947  0.3795 -0.0909
   49MOL0     C 6671   6.343   1.392   8.752 -0.1341 -0.4130  0.6027
   49MOL0     O 6672   6.099   1.634   8.961 -0.6634  0.3170 -0.8151
   49MOL0     C 6673   6.042   1.321   9.125 -0.2943  0.2883  0.8070
   49MOL0     C 6674   5.984   1.254   9.228  0.3324 -0.5021  0.1721
   49MOL0     N 6675   6.120   1.342   9.894  0.3076  0.5236  0.0581
   49MOL0     N 6676   6.170   1.267   9.983 -0.1956  0.2770 -0.2192
   49MOL0     C 6677   6.383   0.493  10.662  0.5501 -0.0815  0.8539
   49MOL0     C 6678   6.336   0.375  10.613 -0.2969 -0.1787 -0.7429
   49MOL0     C 6679   6.300  -0.010  10.404 -0.3152 -0.0460  0.0790
   49MOL0     C 6680   6.173  -0.022  10.343 -0.2780 -0.6615 -0.5332
   49MOL0     C 6681   6.120  -0.138  10.285 -0.0439 -0.7120  0.2824
   49MOL0     C 6682   6.198  -0.249  10.276 -0.2609  0.3010  0.2528
   49MOL0     O 6683   6.137  -0.353  10.215  0.5244  0.2271 -0.5348
   49MOL0     C 6684   6.187  -0.489  10.211  0.0244  1.3415 -0.8890
   49MOL0     C 6685   6.312  -0.483  10.117  0.2854 -0.2244  0.4161
   49MOL0     C 6686   6.310  -0.597  10.008  0.4217 -0.3967 -0.5864
   49MOL0     C 6687   6.405  -0.711  10.051 -0.7340  0.0497 -0.1248
   49MOL0     C 6688   6.434  -0.794   9.932  1.0461 -0.4447  0.4438
   49MOL0     C 6689   6.486  -0.862   9.852 -1.2801 -0.1664 -0.3278
   49MOL0     C 6690   6.322  -0.247  10.346 -0.0569 -0.1567 -0.6596
   49MOL0     C 6691   6.371  -0.134  10.409 -1.3923  0.4063  0.2498
   49MOL0     C 6692   6.517  -0.145  10.459 -0.4348 -0.3258 -0.1284
   49MOL0     H 6693   6.290   0.434  10.289 -0.5538  0.6409 -0.2262
   49MOL0     H 6694   6.380   0.655  10.353  2.0970 -0.4051  1.1086
   49MOL0     H 6695   6.441   0.855  10.780  1.1382  0.2584 -1.7785
   49MOL0     H 6696   6.364   0.703  10.797  0.7502  0.7429  1.9166
   49MOL0     H 6697   6.189   0.780  10.611  0.8856 -0.7398 -0.1447
   49MOL0     H 6698   6.158   0.844  10.765 -1.9188 -1.9624 -2.0132
   49MOL0     H 6699   6.331   1.044  10.667  0.2219 -0.1208 -0.5614
   49MOL0     H 6700   6.277   0.982  10.516  3.0540  1.9865  0.3260
   49MOL0     H 6701   6.045   0.997  10.672  1.2460 -0.4626 -2.3693
   49MOL0     H 6702   6.124   1.152  10.721  2.4107  0.3513  0.4286
   49MOL0     H 6703   5.988   1.205  10.539  0.6906 -0.4206 -0.5720
   49MOL0     H 6704   6.049   1.081  10.440 -3.0087  3.2838 -1.7855
   49MOL0     H 6705   6.199   1.338  10.536 -1.7118  0.4479  0.4190
   49MOL0     H 6706   6.286   1.209  10.473  0.7525  3.0966 -0.7656
   49MOL0     H 6707   6.244   1.365  10.302  0.5370 -0.0885  1.2430
   49MOL0     H 6708   6.068   1.375  10.334 -0.7415 -1.3739  1.0662
   49MOL0     H 6709   6.233   1.164  10.201  0.3241  1.5596 -3.7008
   49MOL0     H 6710   6.056   1.137  10.239  0.2424  0.2371 -0.6437
   49MOL0     H 6711   5.922   1.405  10.141 -0.6056 -0.3546  0.4789
   49MOL0     H 6712   6.002   1.596   9.812  0.0159  1.1024 -1.5851
   49MOL0     H 6713   5.898   1.578   9.949  3.0258  1.4861 -0.7813
   49MOL0     H 6714   5.770   1.382   9.805  1.5247 -1.3022  0.0155
   49MOL0     H 6715   5.774   1.540   9.721  3.2187  2.4593 -1.9587
   49MOL0     H 6716   5.983   1.457   9.604 -0.0753 -0.5343 -3.0869
   49MOL0     H 6717   5.958   1.303   9.703 -2.5898  0.4921  1.1613
   49MOL0     H 6718   5.733   1.276   9.602 -0.8512 -1.4966 -1.3639
   49MOL0     H 6719   5.745   1.424   9.518 -1.2405 -2.1440 -1.5544
   49MOL0     H 6720   5.874   1.531   9.395  2.2518  2.8190  0.8302
   49MOL0     H 6721   6.032   1.763   9.191 -0.1869  1.1538 -0.3327
   49MOL0     H 6722   5.867   1.733   9.247 -0.2117 -0.9889  0.4678
   49MOL0     H 6723   5.903   1.706   9.083  1.1789  1.5679  0.8576
   49MOL0     H 6724   6.081   1.596   8.717  0.3738 -2.2714  2.8040
   49MOL0     H 6725   6.195   1.672   8.526  2.1738  1.1628 -0.4936
   49MOL0     H 6726   6.572   1.457   8.420 -2.4816 -1.6526  1.5084
   49MOL0     H 6727   6.444   1.405   8.323  0.0290 -0.9598  1.4814
   49MOL0     H 6728   6.595   1.661   8.266  0.8816  0.7066 -2.4104
   49MOL0     H 6729   6.615   1.518   8.184 -0.0269  1.8834 -1.2843
   49MOL0     H 6730   6.338   1.658   8.216 -2.5162 -1.3724 -2.3304
   49MOL0     H 6731   6.361   1.507   8.139  1.8639 -1.1118 -1.3973
   49MOL0     H 6732   6.497   1.615   7.966  0.1755 -0.9879  0.5892
   49MOL0     H 6733   6.483   1.775   8.049 -1.7870  2.0578 -1.4804
   49MOL0     H 6734   6.340   1.699   7.841 -1.5396  2.6664 -0.4520
   49MOL0     H 6735   6.244   1.608   7.951 -1.7795  1.8946 -2.3829
   49MOL0     H 6736   6.280   1.909   7.990  0.8667 -0.9495 -2.4578
   49MOL0     H 6737   6.193   1.815   8.099  1.0583  3.5697 -0.0782
   49MOL0     H 6738   6.047   1.740   7.919  0.9387 -0.6817  0.4398
   49MOL0     H 6739   6.130   1.848   7.802  0.5618  2.5134 -0.4077
   49MOL0     H 6740   5.958   1.953   8.014 -2.1494 -2.8415 -1.3744
   49MOL0     H 6741   5.933   1.954   7.837 -1.9430 -3.3202  1.6314
   49MOL0     H 6742   6.504   1.390   8.600  0.4430  0.5254 -1.9877
   49MOL0     H 6743   6.386   1.308   8.806 -2.0465 -0.1406  2.7091
   49MOL0     H 6744   6.067   1.257   9.041 -1.5747 -0.0497  0.6468
   49MOL0     H 6745   5.965   1.148   9.229 -1.5167 -0.1941  0.8745
   49MOL0     H 6746   6.411   0.509  10.766  1.7698  1.9640  0.2739
   49MOL0     H 6747   6.330   0.291  10.682 -1.9524  0.6658  0.2024
   49MOL0     H 6748   6.112   0.067  10.346  1.9595  1.1382 -3.0615
   49MOL0     H 6749   6.025  -0.130  10.233  0.3657  3.0508 -0.1835
   49MOL0     H 6750   6.220  -0.524  10.310 -1.1060 -0.2508 -1.0363
   49MOL0     H 6751   6.120  -0.565  10.170  0.9806  0.7589 -1.4167
   49MOL0     H 6752   6.407  -0.499  10.169 -1.7444 -0.4265  4.4390
   49MOL0     H 6753   6.321  -0.379  10.086  2.1473  0.1920  2.1337
   49MOL0     H 6754   6.206  -0.630   9.998  0.3653  0.0231 -1.4368
   49MOL0     H 6755   6.326  -0.547   9.912 -2.0647  3.0892  0.6177
   49MOL0     H 6756   6.378  -0.774  10.137 -0.4880 -1.0898 -0.8482
   49MOL0     H 6757   6.506  -0.673  10.073  0.2691 -2.8592  0.8351
   49MOL0     H 6758   6.534  -0.931   9.785 -1.6019  0.1506 -0.8881
   49MOL0     H 6759   6.379  -0.337  10.365  1.0926  0.9810  1.6750
   49MOL0     H 6760   6.587  -0.098  10.390  0.9733 -2.0986  0.0334
   49MOL0     H 6761   6.521  -0.113  10.564 -1.9034 -1.3898  0.2884
   49MOL0     H 6762   6.545  -0.250  10.457 -0.8598 -0.4892  1.4059
   50MOL0     O 6763   8.164   7.218   9.852  0.2389 -0.2778 -0.2809
   50MOL0     C 6764   8.073   7.206   9.766  0.2730  0.0308  0.0871
   50MOL0     O 6765   7.990   7.301   9.716  0.3688  0.4464 -0.7629
   50MOL0     C 6766   8.022   7.431   9.741  0.0063  0.8199  0.2652
   50MOL0     C 6767   7.969   7.519   9.838  0.2334  0.7147  0.2272
   50MOL0     C 6768   8.011   7.658   9.842  0.0535 -0.3931  0.3650
   50MOL0     C 6769   8.110   7.707   9.761 -0.2411  0.7419  0.2335
   50MOL0     O 6770   8.165   7.829   9.757  1.1528 -0.7197 -0.2581
   50MOL0     C 6771   8.101   7.921   9.844  0.0822 -0.1537  0.9623
   50MOL0     C 6772   8.176   8.061   9.854 -0.9624  0.0204 -0.4458
   50MOL0     C 6773   8.119   8.156   9.960 -1.0334 -0.3891  0.4825
   50MOL0     C 6774   7.974   8.188   9.971 -0.0514 -0.9761 -0.0590
   50MOL0     C 6775   7.935   8.328  10.030  0.0250  0.1235 -0.8937
   50MOL0     C 6776   8.037   8.430  10.082 -0.4309  0.2818 -0.8361
   50MOL0     C 6777   7.981   8.528  10.183 -0.7923 -0.4787 -0.3668
   50MOL0     C 6778   8.086   8.645  10.197 -0.0955 -1.0391  0.1838
   50MOL0     N 6779   8.045   8.771  10.265  1.0729  0.4230 -0.0943
   50MOL0     C 6780   8.012   8.895  10.214  0.1470 -0.0024 -0.5870
   50MOL0     C 6781   7.988   8.974  10.320  0.6792  0.6560 -0.0450
   50MOL0     C 6782   7.931   9.109  10.303  0.1779 -0.2635  0.1727
   50MOL0     C 6783   8.037   9.210  10.346  0.0970  0.4387  0.5315
   50MOL0     C 6784   7.975   9.343  10.367  0.2855 -1.1367 -0.6836
   50MOL0     C 6785   7.936   9.416  10.232 -0.1420  0.3991  0.6374
   50MOL0     O 6786   7.915   9.552  10.251 -0.4464 -0.2533  0.3541
   50MOL0     C 6787   7.871   9.630  10.146 -0.4380  0.0798 -0.2715
   50MOL0     C 6788   7.781   9.732  10.179  1.0837  0.4087  0.3443
   50MOL0     C 6789   7.722   9.818  10.082 -0.2039  0.6395  0.2070
   50MOL0     C 6790   7.621   9.919  10.119 -0.5369  0.4099  0.0994
   50MOL0     C 6791   7.769   9.802   9.949 -0.0658  2.3118  0.8140
   50MOL0     C 6792   7.715   9.879   9.835 -0.3118 -0.2062 -1.0827
   50MOL0     O 6793   7.600   9.845   9.776 -0.5192  0.2962 -0.6261
   50MOL0     C 6794   7.570   9.914   9.665  0.0436 -0.4237 -1.0682
   50MOL0     C 6795   7.574   9.849   9.543 -0.0950  0.3311 -0.4441
   50MOL0     C 6796   7.529   9.915   9.426  0.4973  0.4098 -0.3923
   50MOL0     C 6797   7.498  10.048   9.432  0.0813 -0.2186  0.9981
   50MOL0     O 6798   7.479  10.111   9.314  0.1205  0.5701 -0.1097
   50MOL0     C 6799   7.359  10.194   9.313 -0.8600  0.0181 -0.9379
   50MOL0     C 6800   7.339  10.239   9.174 -0.2025 -0.7359  0.0541
   50MOL0     C 6801   7.226  10.348   9.166 -1.3390 -0.3151 -0.2942
   50MOL0     C 6802   7.212  10.415   9.027 -0.9387 -0.5934  0.1434
   50MOL0     C 6803   7.104  10.518   8.997  0.5494  0.3981  0.2139
   50MOL0     C 6804   6.973  10.433   8.991 -0.9548 -0.7381 -0.3791
   50MOL0     C 6805   6.859  10.529   8.947 -0.4170 -0.2837  1.0895
   50MOL0     C 6806   6.728  10.470   8.913  0.4793  0.8576  0.6020
   50MOL0    Cl 6807   6.746  10.332   8.793 -0.2894  0.0545 -0.1100
   50MOL0     C 6808   7.501  10.121   9.556  0.3157  0.6624 -0.5477
   50MOL0     C 6809   7.536  10.052   9.673 -0.4389 -0.8783  0.6550
   50MOL0     O 6810   7.804   9.947   9.782  1.1523  0.6635  0.3600
   50MOL0     C 6811   7.854   9.690   9.917  0.2902  0.3773 -0.1944
   50MOL0     C 6812   7.900   9.600  10.013 -0.8941 -0.4444 -0.3183
   50MOL0     N 6813   7.987   8.893  10.433  0.0941 -0.5573  0.0577
   50MOL0     N 6814   8.027   8.774  10.399 -0.6376 -0.8561 -0.2833
   50MOL0     C 6815   8.165   7.612   9.662  0.3142 -0.0311  0.6380
   50MOL0     C 6816   8.117   7.488   9.652  0.6712 -0.0010 -1.1327
   50MOL0     C 6817   8.044   7.065   9.730  0.3813  0.1205 -0.2496
   50MOL0     C 6818   7.914   7.035   9.695 -1.4108 -0.0645 -0.5764
   50MOL0     C 6819   7.875   6.905   9.683  0.3040 -0.1920  0.1645
   50MOL0     C 6820   7.966   6.804   9.694  0.4518 -0.4511  0.0446
   50MOL0     O 6821   7.926   6.673   9.676  0.2891 -0.4498  0.1158
   50MOL0     C 6822   8.010   6.563   9.647  0.7679 -0.8484  0.1454
   50MOL0     C 6823   7.905   6.446   9.648 -1.0926  0.7519  1.2166
   50MOL0     C 6824   7.966   6.302   9.599  0.2102  0.5671  0.0066
   50MOL0     C 6825   8.083   6.254   9.693 -0.6122 -0.1795  0.8747
   50MOL0     C 6826   8.046   6.240   9.828  0.0683 -0.0078 -0.4921
   50MOL0     C 6827   8.001   6.220   9.938  0.0055  1.2721 -0.5895
   50MOL0     C 6828   8.109   6.837   9.709  0.6279 -0.0411  0.5297
   50MOL0     C 6829   8.147   6.969   9.722  0.6862 -0.7415  0.2531
   50MOL0     C 6830   8.290   6.996   9.758 -0.8290 -1.1011 -0.6901
   50MOL0     H 6831   7.900   7.471   9.907 -0.7182  0.5761 -0.7839
   50MOL0     H 6832   7.958   7.722   9.912  0.5855 -1.8599  2.2046
   50MOL0     H 6833   8.098   7.883   9.947 -0.1446 -0.2271  0.9279
   50MOL0     H 6834   7.998   7.934   9.812 -0.2757  0.7474  2.4058
   50MOL0     H 6835   8.281   8.036   9.873 -0.4117  2.3723 -0.1397
   50MOL0     H 6836   8.178   8.103   9.753  1.3122 -0.1319 -0.5212
   50MOL0     H 6837   8.138   8.100  10.051 -3.7376 -0.4405  1.1171
   50MOL0     H 6838   8.181   8.245   9.947  0.1872 -0.9420  2.1885
   50MOL0     H 6839   7.918   8.187   9.877 -1.8822 -0.1225  0.9637
   50MOL0     H 6840   7.930   8.107  10.029 -1.5708 -3.1455 -3.8370
   50MOL0     H 6841   7.872   8.298  10.114  1.6536  2.2264  1.2224
   50MOL0     H 6842   7.876   8.389   9.961  1.7761  1.5143 -1.2289
   50MOL0     H 6843   8.108   8.373  10.144  0.0191  4.0979  2.5545
   50MOL0     H 6844   8.089   8.485  10.003 -0.1369 -0.5327 -1.2302
   50MOL0     H 6845   7.970   8.477  10.279  2.3236 -2.5466 -0.9548
   50MOL0     H 6846   7.885   8.568  10.149 -0.3054 -0.1294 -1.3745
   50MOL0     H 6847   8.173   8.610  10.253  2.8223 -0.9550 -3.7859
   50MOL0     H 6848   8.127   8.671  10.099  1.4632 -3.8240 -0.0170
   50MOL0     H 6849   7.997   8.933  10.113 -0.0832 -0.0262 -0.5620
   50MOL0     H 6850   7.838   9.109  10.360 -0.2840 -0.9279 -0.5594
   50MOL0     H 6851   7.909   9.136  10.200  0.9864  0.9627  0.3085
   50MOL0     H 6852   8.077   9.168  10.439  0.4521 -1.9019 -0.6098
   50MOL0     H 6853   8.118   9.219  10.274 -1.7388 -1.2675 -1.9088
   50MOL0     H 6854   7.880   9.335  10.420 -0.1355  2.1409 -0.7825
   50MOL0     H 6855   8.040   9.413  10.419  0.3429 -1.5431 -0.1982
   50MOL0     H 6856   8.015   9.404  10.157 -0.9473  0.6531 -0.2704
   50MOL0     H 6857   7.847   9.369  10.190 -1.6666  1.9434  1.9873
   50MOL0     H 6858   7.743   9.737  10.280 -0.0063 -0.1517 -0.0301
   50MOL0     H 6859   7.579   9.976  10.036  1.5224  2.0427  0.1000
   50MOL0     H 6860   7.648   9.986  10.201  2.5741  0.1402 -0.5723
   50MOL0     H 6861   7.542   9.848  10.144 -0.6936  0.1260 -1.1205
   50MOL0     H 6862   7.602   9.745   9.533 -2.8761 -0.4779 -0.5667
   50MOL0     H 6863   7.526   9.866   9.329 -2.8023  1.1137 -0.7569
   50MOL0     H 6864   7.272  10.138   9.346  0.5868 -1.0089  1.4520
   50MOL0     H 6865   7.374  10.282   9.377 -2.2394 -0.0485 -0.4876
   50MOL0     H 6866   7.433  10.275   9.131 -0.2076 -0.5221  0.2221
   50MOL0     H 6867   7.317  10.145   9.121 -0.4868 -1.0160  0.6670
   50MOL0     H 6868   7.246  10.403   9.259 -3.8747 -1.3284  0.9418
   50MOL0     H 6869   7.136  10.290   9.185 -0.9173 -0.7150  0.5475
   50MOL0     H 6870   7.188  10.340   8.951 -1.3378 -0.7961  0.4690
   50MOL0     H 6871   7.307  10.460   8.995  0.7922 -4.4395 -0.8091
   50MOL0     H 6872   7.107  10.589   9.081  0.5748 -0.4622  0.9478
   50MOL0     H 6873   7.118  10.580   8.908 -0.4292 -0.2513 -0.4098
   50MOL0     H 6874   6.943  10.387   9.085  0.5963  1.0651  1.0859
   50MOL0     H 6875   6.981  10.346   8.926 -0.6085  0.1880 -1.6271
   50MOL0     H 6876   6.891  10.581   8.856  1.5070 -1.0661  1.2641
   50MOL0     H 6877   6.845  10.600   9.029 -2.8025 -1.4569  1.7835
   50MOL0     H 6878   6.668  10.543   8.859 -1.4127 -1.5337 -0.7730
   50MOL0     H 6879   6.687  10.429   9.005  1.1943 -1.4752 -0.0399
   50MOL0     H 6880   7.483  10.227   9.565 -1.6702  0.3252  0.1524
   50MOL0     H 6881   7.541  10.102   9.769 -0.4108 -1.6940  1.0865
   50MOL0     H 6882   7.882   9.663   9.815  2.9608 -0.9861  0.8060
   50MOL0     H 6883   7.974   9.524   9.991 -0.2458 -0.2157  0.9793
   50MOL0     H 6884   8.249   7.631   9.596 -0.3403  0.2934 -0.1155
   50MOL0     H 6885   8.152   7.431   9.566  1.5143  1.3418 -1.6972
   50MOL0     H 6886   7.835   7.109   9.685 -1.8276 -0.4751 -0.3520
   50MOL0     H 6887   7.771   6.881   9.662  0.4435  0.5363 -1.4629
   50MOL0     H 6888   8.059   6.574   9.550 -0.2541  1.2040 -0.2013
   50MOL0     H 6889   8.075   6.552   9.734  0.1732 -1.5148  0.5186
   50MOL0     H 6890   7.826   6.478   9.579  2.0943  0.6893 -2.7845
   50MOL0     H 6891   7.859   6.429   9.746 -1.0334 -0.3251  1.0732
   50MOL0     H 6892   7.892   6.222   9.587  0.5221  0.7122 -5.0382
   50MOL0     H 6893   8.019   6.308   9.504  1.8742 -0.8267  0.7776
   50MOL0     H 6894   8.158   6.334   9.689 -0.1186 -0.5355  2.2959
   50MOL0     H 6895   8.119   6.155   9.662 -0.3416  0.5307 -1.2663
   50MOL0     H 6896   7.971   6.218  10.040  1.0339 -2.4601 -0.2147
   50MOL0     H 6897   8.188   6.763   9.719  1.7714  1.0147 -0.4196
   50MOL0     H 6898   8.350   6.922   9.705 -0.1738  0.2379 -1.8709
   50MOL0     H 6899   8.329   7.087   9.713  1.6789 -1.7491 -0.0102
   50MOL0     H 6900   8.310   6.996   9.866 -0.3770 -0.0881 -0.7720
   51MOL0     O 6901   9.619   9.190   1.604 -0.2737 -0.0127  0.4405
   51MOL0     C 6902   9.680   9.172   1.500 -0.2239  0.4546 -0.4233
   51MOL0     O 6903   9.627   9.192   1.366 -0.5790 -0.4707  0.4497
   51MOL0     C 6904   9.496   9.200   1.337 -0.0584 -0.1247  0.2120
   51MOL0     C 6905   9.449   9.290   1.246 -0.7724  0.0894  0.2467
   51MOL0     C 6906   9.322   9.278   1.185 -0.0790  0.3313 -0.0044
   51MOL0     C 6907   9.226   9.193   1.242  0.6599  0.5597  0.1114
   51MOL0     O 6908   9.102   9.189   1.188  1.0046 -0.1025  0.5148
   51MOL0     C 6909   8.987   9.149   1.264 -0.2641 -0.0237 -0.0516
   51MOL0     C 6910   8.860   9.203   1.200  0.5867  0.3651 -1.0154
   51MOL0     C 6911   8.746   9.178   1.293  0.8826  0.5829  0.8138
   51MOL0     C 6912   8.607   9.194   1.221 -0.0033  0.8517  1.0296
   51MOL0     C 6913   8.499   9.143   1.313  0.7679 -0.3267 -0.1552
   51MOL0     C 6914   8.472   8.987   1.311 -0.5048 -0.0230 -0.1977
   51MOL0     C 6915   8.390   8.940   1.189  0.9620  0.8623 -0.4490
   51MOL0     C 6916   8.246   8.961   1.196  0.2091 -1.1949 -0.2316
   51MOL0     N 6917   8.169   8.914   1.082 -0.2504 -0.1397 -0.3011
   51MOL0     C 6918   8.103   8.997   0.989  0.7841 -0.6790  0.2252
   51MOL0     C 6919   8.055   8.902   0.903  0.3744  0.3584  0.6544
   51MOL0     C 6920   7.959   8.922   0.786 -0.0317  0.1518  0.1481
   51MOL0     C 6921   7.811   8.948   0.825  0.2034 -0.0289  0.0363
   51MOL0     C 6922   7.722   8.993   0.710 -0.6996 -0.6485  0.5767
   51MOL0     C 6923   7.663   8.878   0.630  0.7362  0.2378  0.8711
   51MOL0     O 6924   7.562   8.806   0.700 -0.3177  0.6103  0.3509
   51MOL0     C 6925   7.433   8.832   0.658  0.6977 -0.9097 -0.6478
   51MOL0     C 6926   7.389   8.952   0.588 -0.8204 -0.0421  0.6047
   51MOL0     C 6927   7.257   8.978   0.556  0.8688  0.1490 -0.7762
   51MOL0     C 6928   7.231   9.103   0.476 -0.9340  0.4381 -0.1501
   51MOL0     C 6929   7.157   8.889   0.595 -0.5044  0.1016  0.4854
   51MOL0     C 6930   7.007   8.905   0.572  0.7477  0.3881  0.5354
   51MOL0     O 6931   6.954   8.984   0.469  0.1546  0.0291 -0.1942
   51MOL0     C 6932   6.811   9.012   0.471  0.2551 -0.2002  0.3400
   51MOL0     C 6933   6.743   9.051   0.586  0.4526 -0.0844  0.1550
   51MOL0     C 6934   6.605   9.089   0.587  0.6471 -1.1469  0.3691
   51MOL0     C 6935   6.526   9.064   0.471 -1.0752 -0.1818 -0.2241
   51MOL0     O 6936   6.391   9.090   0.454 -0.3086  0.3610 -0.4890
   51MOL0     C 6937   6.336   9.174   0.550  0.2428  0.6196  0.5945
   51MOL0     C 6938   6.190   9.196   0.518 -0.4332 -0.1278  0.1167
   51MOL0     C 6939   6.124   9.086   0.428  0.2574 -0.2666 -0.4271
   51MOL0     C 6940   5.983   9.126   0.388  0.7082  0.5028 -0.8003
   51MOL0     C 6941   5.895   9.090   0.511  0.8012  0.6106  0.2948
   51MOL0     C 6942   5.756   9.149   0.493 -0.8407  0.1811 -0.0751
   51MOL0     C 6943   5.702   9.158   0.631 -0.1008  0.1441  0.7705
   51MOL0     C 6944   5.744   9.284   0.715 -0.0782 -0.0105  0.1442
   51MOL0    Cl 6945   5.692   9.427   0.620  0.5081  0.0518  0.3592
   51MOL0     C 6946   6.590   9.014   0.360  0.6636  0.3277 -0.0080
   51MOL0     C 6947   6.723   8.999   0.360 -0.3369  0.5017 -0.4310
   51MOL0     O 6948   6.932   8.850   0.651  0.5162 -0.2783  0.5545
   51MOL0     C 6949   7.197   8.781   0.673 -1.2296 -0.4469 -0.1376
   51MOL0     C 6950   7.326   8.747   0.707  0.1031  0.1171  0.0576
   51MOL0     N 6951   8.102   8.778   0.944  1.4109 -0.3349  0.5349
   51MOL0     N 6952   8.180   8.783   1.041 -0.0103  0.7578 -0.3680
   51MOL0     C 6953   9.271   9.118   1.353  0.1020 -0.5840 -1.0335
   51MOL0     C 6954   9.402   9.114   1.390  0.5121 -0.2726  0.5419
   51MOL0     C 6955   9.827   9.128   1.514 -0.3874  0.3470  0.2181
   51MOL0     C 6956   9.890   9.078   1.397 -0.4498 -0.4499  0.1851
   51MOL0     C 6957  10.023   9.027   1.415 -0.7003  0.0429  0.3603
   51MOL0     C 6958  10.090   9.027   1.533  0.2245  0.9103 -0.2738
   51MOL0     O 6959  10.219   8.985   1.548 -1.2474 -0.7939  0.1401
   51MOL0     C 6960  10.315   9.097   1.568  0.4892  0.6578 -0.5171
   51MOL0     C 6961  10.459   9.049   1.563  0.3426  0.0973 -0.2803
   51MOL0     C 6962  10.503   8.990   1.429 -0.2071  0.5112  0.0652
   51MOL0     C 6963  10.537   9.091   1.315 -0.4557  0.0771  0.0986
   51MOL0     C 6964  10.629   9.205   1.343  0.0153 -0.2072  0.6695
   51MOL0     C 6965  10.706   9.292   1.382 -0.4363 -0.0358 -0.2009
   51MOL0     C 6966  10.031   9.081   1.646  0.1551 -0.9792 -0.5724
   51MOL0     C 6967   9.900   9.141   1.633 -0.8852  0.8552  0.3233
   51MOL0     C 6968   9.855   9.210   1.754 -0.7746  0.1150  0.1009
   51MOL0     H 6969   9.519   9.367   1.214  0.4697 -0.8845  0.5553
   51MOL0     H 6970   9.283   9.341   1.106 -2.2987  0.8888  1.4167
   51MOL0     H 6971   8.995   9.196   1.363  2.2750  3.4544 -1.6870
   51MOL0     H 6972   8.970   9.043   1.281 -3.1057  0.3603 -0.0289
   51MOL0     H 6973   8.871   9.311   1.186  1.6526  0.1893 -1.6238
   51MOL0     H 6974   8.849   9.172   1.096 -0.8836 -1.0492 -0.4815
   51MOL0     H 6975   8.742   9.076   1.330 -2.2966  0.6140  0.8139
   51MOL0     H 6976   8.740   9.241   1.382 -0.1009 -0.4019  1.4649
   51MOL0     H 6977   8.599   9.301   1.199  0.9990  1.2672  2.4888
   51MOL0     H 6978   8.607   9.130   1.133  2.5251  1.0177  0.8352
   51MOL0     H 6979   8.408   9.191   1.278  1.4943 -0.5188 -2.4935
   51MOL0     H 6980   8.515   9.170   1.418  0.4105  0.5462 -0.3246
   51MOL0     H 6981   8.565   8.931   1.296 -1.6554 -1.9589 -0.3239
   51MOL0     H 6982   8.431   8.950   1.405  2.5365 -0.2760  1.1639
   51MOL0     H 6983   8.402   8.832   1.184 -0.3506  0.7452 -1.6046
   51MOL0     H 6984   8.442   8.970   1.097  1.1042 -2.2706 -1.4811
   51MOL0     H 6985   8.203   8.903   1.278 -2.6540 -1.7084 -1.9467
   51MOL0     H 6986   8.216   9.065   1.213  0.9563 -1.4313  3.3822
   51MOL0     H 6987   8.067   9.099   1.002  0.1975 -1.0703  1.8517
   51MOL0     H 6988   7.963   8.837   0.716 -0.6785  1.9547 -2.2214
   51MOL0     H 6989   7.998   9.001   0.722 -1.3341 -0.5709 -1.6186
   51MOL0     H 6990   7.772   8.861   0.877  0.2394  0.1921  0.4410
   51MOL0     H 6991   7.808   9.038   0.887  0.6540  0.6713 -0.9313
   51MOL0     H 6992   7.637   9.053   0.745  0.2949  0.8644  0.5124
   51MOL0     H 6993   7.773   9.060   0.640 -5.6141  1.0001 -1.9130
   51MOL0     H 6994   7.631   8.908   0.530 -0.2134  2.6511  1.8137
   51MOL0     H 6995   7.751   8.816   0.613 -0.7470 -1.6865 -0.1181
   51MOL0     H 6996   7.463   9.028   0.565  0.6354 -1.1878  1.3171
   51MOL0     H 6997   7.316   9.170   0.466  0.9486 -1.1054  3.7624
   51MOL0     H 6998   7.137   9.156   0.496 -0.2095  2.2191 -1.2220
   51MOL0     H 6999   7.220   9.073   0.371  0.6748  1.7657 -0.7543
   51MOL0     H 7000   6.805   9.055   0.675  1.9566 -1.3533 -0.7861
   51MOL0     H 7001   6.572   9.137   0.679  2.1549 -0.8491  0.7802
   51MOL0     H 7002   6.348   9.127   0.648  0.5771  0.1395  0.3299
   51MOL0     H 7003   6.385   9.272   0.550  0.7379  0.5014 -2.8264
   51MOL0     H 7004   6.145   9.211   0.617 -0.8947  1.6026 -0.3126
   51MOL0     H 7005   6.184   9.298   0.478 -1.1156  0.9391  2.6696
   51MOL0     H 7006   6.125   8.992   0.484 -2.2465 -0.7938 -1.1601
   51MOL0     H 7007   6.175   9.052   0.337 -1.7131 -1.7981 -1.0315
   51MOL0     H 7008   5.958   9.077   0.294  4.0431 -0.5082 -1.2874
   51MOL0     H 7009   5.983   9.234   0.367 -0.9226  0.7097  0.0728
   51MOL0     H 7010   5.896   8.981   0.508 -0.1862  0.5931 -3.1397
   51MOL0     H 7011   5.936   9.131   0.604 -3.5666  3.8164  1.1287
   51MOL0     H 7012   5.695   9.090   0.424 -1.9815  1.1453  0.0721
   51MOL0     H 7013   5.765   9.242   0.437  2.0698  1.2651  1.9416
   51MOL0     H 7014   5.720   9.066   0.687 -2.1748  0.2681  1.7487
   51MOL0     H 7015   5.593   9.172   0.635 -0.0259  0.3754  3.0857
   51MOL0     H 7016   5.849   9.288   0.744  0.0495 -2.9666  0.4920
   51MOL0     H 7017   5.685   9.284   0.808 -1.5531 -2.4877 -0.6800
   51MOL0     H 7018   6.532   8.978   0.276  0.1504  1.6260 -0.2283
   51MOL0     H 7019   6.772   8.973   0.266 -1.5774 -1.1668 -0.6630
   51MOL0     H 7020   7.123   8.708   0.705 -0.3108 -1.9940 -1.4135
   51MOL0     H 7021   7.338   8.659   0.769 -0.7888  0.3984  0.6462
   51MOL0     H 7022   9.201   9.051   1.402  1.1107 -1.4540 -0.7494
   51MOL0     H 7023   9.425   9.044   1.469  1.5409  0.9566  1.3635
   51MOL0     H 7024   9.858   9.074   1.293 -2.0373  0.7018  0.5902
   51MOL0     H 7025  10.072   8.991   1.325 -2.7157  1.1715 -1.2702
   51MOL0     H 7026  10.311   9.175   1.492  0.7174  1.2791  0.0958
   51MOL0     H 7027  10.284   9.149   1.659  0.9764 -0.6163  0.4078
   51MOL0     H 7028  10.470   8.981   1.648  3.6864 -0.6813 -1.1890
   51MOL0     H 7029  10.528   9.132   1.581  2.0644 -1.6130  1.4377
   51MOL0     H 7030  10.594   8.935   1.451 -0.4333  0.0215 -0.1988
   51MOL0     H 7031  10.429   8.919   1.391  0.6365  0.8098 -2.3102
   51MOL0     H 7032  10.438   9.122   1.281 -0.1141 -0.9482 -2.0242
   51MOL0     H 7033  10.582   9.043   1.228  0.0159  0.5551  0.0718
   51MOL0     H 7034  10.757   9.377   1.422  0.4118  0.4315 -2.2006
   51MOL0     H 7035  10.086   9.084   1.739  0.2419  0.7522 -0.6473
   51MOL0     H 7036   9.937   9.251   1.813 -1.5456  0.8361  0.6981
   51MOL0     H 7037   9.794   9.293   1.717  1.1289  1.2868 -0.5468
   51MOL0     H 7038   9.790   9.147   1.817 -1.7610  0.2543 -0.7562
   52MOL0     O 7039   6.367   3.072   8.268 -0.3388 -0.1411 -0.6662
   52MOL0     C 7040   6.397   3.172   8.201  0.1854 -0.9127 -0.4048
   52MOL0     O 7041   6.424   3.301   8.259  1.2923  0.1758  0.3807
   52MOL0     C 7042   6.395   3.324   8.390 -0.1361 -0.4513  1.2395
   52MOL0     C 7043   6.276   3.288   8.457  0.7496 -0.9847  0.5293
   52MOL0     C 7044   6.263   3.309   8.592  0.1522 -0.3287 -0.6101
   52MOL0     C 7045   6.356   3.382   8.664  0.0560 -0.8600 -1.6635
   52MOL0     O 7046   6.328   3.394   8.800  0.8646 -0.1206 -0.2067
   52MOL0     C 7047   6.413   3.480   8.879 -0.9116  0.3058 -1.1630
   52MOL0     C 7048   6.360   3.490   9.029 -0.1685  0.5968 -0.7932
   52MOL0     C 7049   6.227   3.572   9.047  0.5726  1.0910  1.3522
   52MOL0     C 7050   6.256   3.715   9.074 -0.7537 -0.2110  0.0808
   52MOL0     C 7051   6.139   3.807   9.100 -0.0086  0.1862 -0.1568
   52MOL0     C 7052   6.040   3.824   8.980 -0.2433 -0.5145 -0.3530
   52MOL0     C 7053   5.934   3.917   9.008  0.8601 -0.7878  0.0066
   52MOL0     C 7054   5.846   3.951   8.887 -0.7627  0.6285  0.0609
   52MOL0     N 7055   5.758   4.059   8.909 -0.4657 -0.6311 -0.4193
   52MOL0     C 7056   5.797   4.195   8.920 -0.5364  0.4629 -0.8577
   52MOL0     C 7057   5.712   4.251   9.008 -0.1859 -0.7010 -0.0213
   52MOL0     C 7058   5.701   4.395   9.053 -0.5307  0.0184 -0.0761
   52MOL0     C 7059   5.767   4.493   8.948 -0.1507  0.4021 -0.5192
   52MOL0     C 7060   5.801   4.621   9.031  0.0732 -0.9369 -0.1355
   52MOL0     C 7061   5.770   4.764   8.975 -0.5867 -0.9090  0.2784
   52MOL0     O 7062   5.840   4.785   8.848 -0.6712  1.2005 -0.3358
   52MOL0     C 7063   5.786   4.773   8.721  0.4454  0.6650  0.8041
   52MOL0     C 7064   5.861   4.790   8.611  0.1645  0.0712 -0.5220
   52MOL0     C 7065   5.808   4.792   8.473 -0.2873 -0.4264 -0.3176
   52MOL0     C 7066   5.901   4.804   8.355 -0.1514  0.1143  0.3477
   52MOL0     C 7067   5.667   4.766   8.454 -0.1364  0.6748  0.4285
   52MOL0     C 7068   5.606   4.761   8.318 -0.4253  0.4472  0.1889
   52MOL0     O 7069   5.483   4.820   8.297 -0.6200 -0.7521 -0.7302
   52MOL0     C 7070   5.419   4.797   8.175  0.7827 -0.3160 -0.2437
   52MOL0     C 7071   5.273   4.778   8.175 -0.5532 -0.4075 -0.6105
   52MOL0     C 7072   5.205   4.757   8.049 -0.5607  0.3265 -0.7989
   52MOL0     C 7073   5.282   4.743   7.937  0.5568  0.8438  0.2775
   52MOL0     O 7074   5.239   4.698   7.807  0.0779  0.6968 -0.3607
   52MOL0     C 7075   5.132   4.609   7.811 -0.6734 -0.5673 -0.2691
   52MOL0     C 7076   5.114   4.523   7.680  1.1583 -0.3018 -0.2525
   52MOL0     C 7077   5.020   4.592   7.571 -0.3359 -1.0921 -0.9068
   52MOL0     C 7078   5.067   4.735   7.508  0.1780  0.5122  0.1349
   52MOL0     C 7079   4.974   4.789   7.394 -0.5338 -0.0909 -1.0322
   52MOL0     C 7080   4.966   4.690   7.276  0.0810  0.2503 -0.1736
   52MOL0     C 7081   4.873   4.734   7.158 -0.5148  0.0561  0.0009
   52MOL0     C 7082   4.874   4.632   7.046 -0.5876  0.3071 -0.1563
   52MOL0    Cl 7083   4.772   4.680   6.909 -0.3126 -0.0676 -0.6210
   52MOL0     C 7084   5.414   4.772   7.940 -0.0974 -0.3802 -0.6844
   52MOL0     C 7085   5.487   4.801   8.056  0.2918 -0.7047  0.5861
   52MOL0     O 7086   5.655   4.664   8.253  0.2612  0.2493  0.3695
   52MOL0     C 7087   5.591   4.759   8.568  0.0121  1.2423  0.2324
   52MOL0     C 7088   5.650   4.759   8.697 -0.5061 -0.2735 -0.4041
   52MOL0     N 7089   5.625   4.150   9.045 -0.0578 -0.3325  0.3566
   52MOL0     N 7090   5.642   4.037   8.990  0.2108  0.0596  0.1369
   52MOL0     C 7091   6.471   3.425   8.600 -0.0512  0.2390 -0.4440
   52MOL0     C 7092   6.493   3.397   8.467  0.8713 -0.6149  0.1645
   52MOL0     C 7093   6.414   3.147   8.046  0.5167  0.3847 -0.7352
   52MOL0     C 7094   6.462   3.256   7.972 -0.3027  0.5790 -0.6022
   52MOL0     C 7095   6.477   3.237   7.832 -0.2571 -0.2533  0.1490
   52MOL0     C 7096   6.462   3.122   7.763  0.4950  0.3881 -0.3921
   52MOL0     O 7097   6.482   3.110   7.633  0.0337 -0.2341 -1.0490
   52MOL0     C 7098   6.465   3.214   7.535  1.2640 -0.1597 -0.1321
   52MOL0     C 7099   6.344   3.172   7.446 -0.0413 -0.2286 -0.7850
   52MOL0     C 7100   6.353   3.254   7.317 -0.1549  0.6950  0.3336
   52MOL0     C 7101   6.249   3.221   7.203 -0.0878  0.2879 -0.3424
   52MOL0     C 7102   6.240   3.311   7.094 -0.6645 -0.4527 -0.2376
   52MOL0     C 7103   6.219   3.387   7.004 -0.0841 -0.5432 -0.1758
   52MOL0     C 7104   6.403   3.016   7.838 -1.0486 -0.1563 -0.1532
   52MOL0     C 7105   6.380   3.023   7.974 -0.1676 -0.5666 -0.5278
   52MOL0     C 7106   6.335   2.894   8.040  0.0580 -0.0359 -0.2814
   52MOL0     H 7107   6.202   3.234   8.399 -0.7558  0.6278  0.8514
   52MOL0     H 7108   6.170   3.278   8.640  2.5270 -1.8357  3.5844
   52MOL0     H 7109   6.437   3.576   8.833  1.4498  0.4106  0.1289
   52MOL0     H 7110   6.510   3.431   8.878 -0.7885  0.5485 -2.4260
   52MOL0     H 7111   6.343   3.390   9.069 -1.9630  1.6574  1.3508
   52MOL0     H 7112   6.444   3.529   9.087  1.2289  0.0203 -2.3446
   52MOL0     H 7113   6.161   3.559   8.961  1.1766  1.9398  0.7494
   52MOL0     H 7114   6.164   3.517   9.117 -1.4697  0.6005 -0.7671
   52MOL0     H 7115   6.312   3.709   9.168 -3.4279 -0.0087  1.7958
   52MOL0     H 7116   6.311   3.763   8.993  1.1248 -0.3431  1.2101
   52MOL0     H 7117   6.174   3.907   9.127  0.9123  0.6683 -2.8322
   52MOL0     H 7118   6.078   3.765   9.180  0.8607  1.4885  1.2228
   52MOL0     H 7119   6.102   3.867   8.902  2.4993 -1.8891  0.9059
   52MOL0     H 7120   6.017   3.723   8.945  1.1185 -1.1540  0.5157
   52MOL0     H 7121   5.976   4.008   9.054  1.1803 -1.6483  1.4911
   52MOL0     H 7122   5.867   3.885   9.088  1.6396  4.7164  3.4549
   52MOL0     H 7123   5.915   3.975   8.806 -1.3934  1.8873 -0.1343
   52MOL0     H 7124   5.787   3.862   8.861 -0.6684  0.5719  0.0410
   52MOL0     H 7125   5.889   4.241   8.888 -0.8925  1.4680 -0.4867
   52MOL0     H 7126   5.766   4.397   9.141 -1.3559  0.2469  0.5344
   52MOL0     H 7127   5.599   4.429   9.071 -0.6271  0.3379 -1.1442
   52MOL0     H 7128   5.861   4.452   8.910 -0.9615 -1.1010 -0.9837
   52MOL0     H 7129   5.689   4.494   8.872 -2.5964  0.9451  1.8614
   52MOL0     H 7130   5.737   4.623   9.120 -1.6276  1.6563 -1.2898
   52MOL0     H 7131   5.903   4.610   9.071  0.8390  4.5255  0.2361
   52MOL0     H 7132   5.663   4.785   8.967 -0.2736  1.7678  2.2230
   52MOL0     H 7133   5.803   4.838   9.047 -0.2934 -2.3436  1.6654
   52MOL0     H 7134   5.967   4.814   8.615  0.1066  1.2711 -3.4072
   52MOL0     H 7135   5.993   4.859   8.376  0.9356 -1.4596 -0.1434
   52MOL0     H 7136   5.858   4.865   8.274  0.8080 -0.4043 -0.5867
   52MOL0     H 7137   5.920   4.706   8.310 -1.7877 -0.9254  1.8010
   52MOL0     H 7138   5.220   4.771   8.269  1.0414 -0.3717  0.3298
   52MOL0     H 7139   5.099   4.734   8.040 -0.4146 -2.0858  2.1391
   52MOL0     H 7140   5.148   4.527   7.882  0.7942 -1.7737 -1.8969
   52MOL0     H 7141   5.046   4.671   7.838 -1.0865 -1.8894  1.6892
   52MOL0     H 7142   5.212   4.510   7.635 -0.3813 -1.8054 -3.4524
   52MOL0     H 7143   5.068   4.426   7.697 -1.7117  0.6141 -2.0258
   52MOL0     H 7144   4.921   4.601   7.617  1.1447 -1.1619  2.6124
   52MOL0     H 7145   5.020   4.513   7.496  1.5733 -2.5696  0.5350
   52MOL0     H 7146   5.171   4.734   7.473 -0.8289 -3.4304 -3.6170
   52MOL0     H 7147   5.070   4.816   7.582  1.5355  1.6563 -1.0781
   52MOL0     H 7148   4.874   4.805   7.435 -0.5521 -0.1470 -1.0557
   52MOL0     H 7149   5.010   4.886   7.360  2.2585 -0.7511 -0.2955
   52MOL0     H 7150   4.925   4.594   7.310 -0.5171  0.6779  0.3434
   52MOL0     H 7151   5.059   4.657   7.230 -1.6790 -1.1160 -3.0017
   52MOL0     H 7152   4.926   4.819   7.112  2.9304 -1.9229 -0.0341
   52MOL0     H 7153   4.771   4.765   7.183 -0.4199 -1.8135  3.2480
   52MOL0     H 7154   4.846   4.534   7.086  1.5094 -2.1108 -3.9439
   52MOL0     H 7155   4.974   4.613   7.007 -1.3480 -2.4888 -1.0190
   52MOL0     H 7156   5.474   4.752   7.852  1.0099  1.0532 -0.2807
   52MOL0     H 7157   5.592   4.830   8.058 -0.2878  1.5529  2.0466
   52MOL0     H 7158   5.483   4.757   8.564 -0.0167 -2.2991 -1.5010
   52MOL0     H 7159   5.579   4.747   8.778  0.3276  0.1556  0.4111
   52MOL0     H 7160   6.546   3.482   8.653 -1.4185  0.8046  0.9323
   52MOL0     H 7161   6.583   3.446   8.430  1.7730 -2.3389 -0.0139
   52MOL0     H 7162   6.498   3.347   8.018  0.2118 -0.0707  0.3304
   52MOL0     H 7163   6.535   3.323   7.801  1.8466 -2.1303 -1.4281
   52MOL0     H 7164   6.447   3.312   7.581 -2.5083 -0.2392 -1.1005
   52MOL0     H 7165   6.549   3.227   7.466 -0.6452 -0.8021 -2.7695
   52MOL0     H 7166   6.249   3.200   7.493  1.8614  3.5329  1.2686
   52MOL0     H 7167   6.354   3.067   7.417  1.5687  0.6985 -4.0495
   52MOL0     H 7168   6.362   3.361   7.336 -2.9075  1.1656 -0.4994
   52MOL0     H 7169   6.445   3.217   7.270 -2.0577 -1.5516 -1.9602
   52MOL0     H 7170   6.153   3.224   7.255 -0.2997  0.1783 -0.7267
   52MOL0     H 7171   6.270   3.124   7.158  1.4639  0.1641  0.5639
   52MOL0     H 7172   6.194   3.453   6.924  0.9907 -1.3066 -1.1910
   52MOL0     H 7173   6.370   2.935   7.774  2.1699 -0.7336 -1.2542
   52MOL0     H 7174   6.354   2.811   7.971  1.3565 -0.8953  1.0410
   52MOL0     H 7175   6.393   2.865   8.128 -2.4999  2.7220  2.5404
   52MOL0     H 7176   6.232   2.884   8.076  0.4684  0.7952  1.2090
   53MOL0     O 7177   4.092   2.662   2.838 -0.5897 -0.0562 -0.2284
   53MOL0     C 7178   4.181   2.685   2.754  0.2400  0.6861 -0.4680
   53MOL0     O 7179   4.202   2.808   2.702 -0.3498 -0.4680 -0.0387
   53MOL0     C 7180   4.119   2.919   2.714 -0.1738 -0.6104 -0.1062
   53MOL0     C 7181   4.086   2.967   2.841 -0.3542 -0.5109 -0.7013
   53MOL0     C 7182   4.005   3.082   2.845 -0.4321 -0.4211 -0.5883
   53MOL0     C 7183   3.962   3.141   2.730  0.4515 -0.6422  0.9287
   53MOL0     O 7184   3.873   3.252   2.730 -0.6267 -0.5209 -0.8404
   53MOL0     C 7185   3.839   3.332   2.843 -0.4753 -0.1612 -0.3112
   53MOL0     C 7186   3.961   3.410   2.881 -0.5102 -0.4136  0.7701
   53MOL0     C 7187   4.015   3.511   2.778  0.9917  0.6451  0.5501
   53MOL0     C 7188   4.128   3.433   2.700 -0.1713  0.2185  0.3945
   53MOL0     C 7189   4.213   3.520   2.603 -0.0170  0.2309 -0.2012
   53MOL0     C 7190   4.345   3.460   2.578 -0.8620  0.0305  0.4366
   53MOL0     C 7191   4.424   3.529   2.471  0.3668  0.0720 -0.4647
   53MOL0     C 7192   4.568   3.555   2.525 -0.0267  0.5326 -0.4442
   53MOL0     N 7193   4.661   3.591   2.419 -0.1258  0.6040 -0.2240
   53MOL0     C 7194   4.703   3.503   2.319 -1.2443 -0.2082  0.1104
   53MOL0     C 7195   4.792   3.577   2.258 -0.9520  0.5403 -0.2719
   53MOL0     C 7196   4.870   3.565   2.135 -0.1930  0.5392  0.2010
   53MOL0     C 7197   4.782   3.591   2.006 -0.0899 -0.5355 -0.8469
   53MOL0     C 7198   4.842   3.542   1.878 -0.7390  0.2821  0.1335
   53MOL0     C 7199   4.748   3.578   1.762  0.1109  0.4706 -0.6624
   53MOL0     O 7200   4.808   3.531   1.642  0.0341  0.6736  0.5605
   53MOL0     C 7201   4.742   3.525   1.521 -0.1936  0.0054  0.0508
   53MOL0     C 7202   4.615   3.590   1.498 -1.1623  0.8175 -0.4529
   53MOL0     C 7203   4.543   3.567   1.384  0.0755 -0.2057  0.6734
   53MOL0     C 7204   4.404   3.621   1.391  0.4697  0.8871  0.3896
   53MOL0     C 7205   4.608   3.491   1.274  0.5083 -0.2876  0.4953
   53MOL0     C 7206   4.547   3.459   1.148  1.2919  0.4875  0.6132
   53MOL0     O 7207   4.608   3.378   1.062 -0.6402  0.4210 -0.4197
   53MOL0     C 7208   4.577   3.377   0.930  0.3779 -0.0256 -0.3324
   53MOL0     C 7209   4.452   3.335   0.888  0.6862  0.0902 -0.5822
   53MOL0     C 7210   4.412   3.359   0.752 -0.7141 -0.2320  0.2078
   53MOL0     C 7211   4.509   3.423   0.664  0.3886 -0.5220 -0.1786
   53MOL0     O 7212   4.461   3.428   0.534 -0.3800  0.4739 -0.2974
   53MOL0     C 7213   4.547   3.489   0.442  1.3645 -0.7698  1.0819
   53MOL0     C 7214   4.583   3.385   0.331  0.0709 -0.2509 -0.9073
   53MOL0     C 7215   4.690   3.292   0.389 -0.8752  0.2285  0.7530
   53MOL0     C 7216   4.686   3.178   0.295 -0.1654  0.2322 -0.4990
   53MOL0     C 7217   4.783   3.069   0.339  0.0815  0.9392  0.4913
   53MOL0     C 7218   4.789   3.014   0.484 -0.2535 -0.3410 -0.6898
   53MOL0     C 7219   4.889   3.093   0.571  0.0121  0.2301 -0.4566
   53MOL0     C 7220   5.034   3.095   0.525 -0.0385 -0.3468  0.4696
   53MOL0    Cl 7221   5.112   2.936   0.528  0.5633  0.0617  0.0428
   53MOL0     C 7222   4.641   3.446   0.710  0.2844 -0.5756  1.4399
   53MOL0     C 7223   4.672   3.428   0.842 -0.4973  0.1294  0.8712
   53MOL0     O 7224   4.439   3.504   1.127  0.2932 -0.1547  0.1121
   53MOL0     C 7225   4.745   3.451   1.297  0.4308 -0.1208  0.3873
   53MOL0     C 7226   4.809   3.466   1.419  1.1398  0.8471  0.1889
   53MOL0     N 7227   4.807   3.702   2.319 -0.4942  0.3141 -0.5793
   53MOL0     N 7228   4.712   3.713   2.405 -0.2368 -1.1744  0.8184
   53MOL0     C 7229   3.993   3.088   2.605  0.3155  0.3213  0.0042
   53MOL0     C 7230   4.067   2.973   2.601  0.2047 -0.3415  0.8270
   53MOL0     C 7231   4.269   2.566   2.728 -0.2541  0.4077 -0.4720
   53MOL0     C 7232   4.232   2.469   2.633  0.7050 -0.0367 -0.1254
   53MOL0     C 7233   4.306   2.349   2.619 -0.3119  0.0775  0.0657
   53MOL0     C 7234   4.428   2.339   2.682 -0.0574 -0.8405 -0.8269
   53MOL0     O 7235   4.493   2.215   2.666  1.0229 -0.1758 -0.0008
   53MOL0     C 7236   4.608   2.189   2.751 -0.4590  0.2418 -1.1452
   53MOL0     C 7237   4.564   2.095   2.871  0.6922 -1.4249 -0.1175
   53MOL0     C 7238   4.536   1.955   2.823  0.3485 -1.0470  0.1461
   53MOL0     C 7239   4.663   1.876   2.796  1.8733 -0.0705 -0.3759
   53MOL0     C 7240   4.726   1.848   2.922  0.4293 -0.3997 -0.1635
   53MOL0     C 7241   4.794   1.799   3.003  0.4231 -0.9766  0.7625
   53MOL0     C 7242   4.468   2.439   2.769 -0.6016  0.8012 -0.2529
   53MOL0     C 7243   4.397   2.562   2.784 -0.3194 -0.8719 -0.4062
   53MOL0     C 7244   4.453   2.672   2.875 -0.6162 -0.5892  0.9483
   53MOL0     H 7245   4.119   2.917   2.931  0.8858  1.2626 -0.1200
   53MOL0     H 7246   3.978   3.130   2.938 -0.6349 -0.3265 -0.6961
   53MOL0     H 7247   3.804   3.272   2.928  0.3388  1.0399  0.8960
   53MOL0     H 7248   3.762   3.402   2.812  0.6982  1.6217  0.6553
   53MOL0     H 7249   3.931   3.467   2.969  1.8121  4.1048 -1.0357
   53MOL0     H 7250   4.034   3.335   2.914 -3.2682 -3.7154 -0.0613
   53MOL0     H 7251   3.930   3.538   2.714  0.2565 -2.0881  0.2564
   53MOL0     H 7252   4.069   3.597   2.818  0.6822 -0.6087  4.0029
   53MOL0     H 7253   4.195   3.387   2.773 -2.0747 -0.5912  1.7081
   53MOL0     H 7254   4.086   3.357   2.633  1.1346  2.6971 -3.6500
   53MOL0     H 7255   4.214   3.620   2.647 -4.7939  0.1613  0.5696
   53MOL0     H 7256   4.163   3.537   2.508  0.2964 -0.9524 -0.6023
   53MOL0     H 7257   4.390   3.444   2.677 -1.8772 -1.3513  0.7099
   53MOL0     H 7258   4.326   3.357   2.546 -0.1783  0.2420 -0.7053
   53MOL0     H 7259   4.372   3.621   2.442 -1.6173 -0.4641  1.1249
   53MOL0     H 7260   4.441   3.458   2.390  0.9164  0.3317 -0.5789
   53MOL0     H 7261   4.580   3.627   2.606 -1.1659 -1.1878  1.3527
   53MOL0     H 7262   4.605   3.458   2.558  0.2416  1.8992  3.8613
   53MOL0     H 7263   4.662   3.405   2.294 -0.7087 -0.0375 -1.5710
   53MOL0     H 7264   4.917   3.467   2.127 -0.3381  0.2152  2.5823
   53MOL0     H 7265   4.952   3.638   2.136  0.8676 -0.6052 -0.7982
   53MOL0     H 7266   4.695   3.527   2.021  1.4438 -2.9608 -1.7919
   53MOL0     H 7267   4.759   3.698   1.996  3.8731  0.2171 -5.5033
   53MOL0     H 7268   4.928   3.609   1.870 -0.0502 -0.4323  1.3079
   53MOL0     H 7269   4.871   3.437   1.871  2.6053  1.1157 -0.4920
   53MOL0     H 7270   4.654   3.532   1.792 -0.2501  2.2064  1.0428
   53MOL0     H 7271   4.733   3.686   1.751 -1.1110  0.5771  1.5142
   53MOL0     H 7272   4.574   3.631   1.589 -0.0451 -1.6981  1.2758
   53MOL0     H 7273   4.330   3.550   1.355  1.2328 -0.8558  2.0801
   53MOL0     H 7274   4.402   3.720   1.344 -1.4274  0.2389 -0.9838
   53MOL0     H 7275   4.369   3.640   1.493  0.7570  1.8726  0.3181
   53MOL0     H 7276   4.385   3.285   0.956  1.8707  0.0502  0.6019
   53MOL0     H 7277   4.311   3.344   0.714 -1.6365  0.7713  2.1344
   53MOL0     H 7278   4.491   3.568   0.391 -0.3540 -2.5418  0.0922
   53MOL0     H 7279   4.634   3.548   0.473  1.3528  0.0118 -0.2841
   53MOL0     H 7280   4.487   3.338   0.308 -0.6379  0.3398  0.7181
   53MOL0     H 7281   4.632   3.423   0.241  2.0408 -1.4765 -0.4101
   53MOL0     H 7282   4.668   3.268   0.493  2.6336 -0.3007  1.4935
   53MOL0     H 7283   4.789   3.339   0.392 -0.1983 -1.0875 -0.1964
   53MOL0     H 7284   4.703   3.218   0.195 -0.0398 -2.3486 -1.5781
   53MOL0     H 7285   4.587   3.133   0.303  0.5325 -1.0645  2.0188
   53MOL0     H 7286   4.772   2.981   0.275 -3.2269  2.1146 -0.7661
   53MOL0     H 7287   4.876   3.117   0.307 -0.7425  2.2212 -0.0899
   53MOL0     H 7288   4.818   2.909   0.478  0.0610 -0.4621  1.7451
   53MOL0     H 7289   4.692   2.998   0.533 -0.0979 -0.7769 -0.5168
   53MOL0     H 7290   4.889   3.050   0.671  1.1986 -2.0343 -1.3600
   53MOL0     H 7291   4.858   3.197   0.585  0.9632  0.6024 -1.0136
   53MOL0     H 7292   5.092   3.160   0.591  0.2616  3.0755 -2.7592
   53MOL0     H 7293   5.043   3.152   0.432 -0.1772  0.4333  0.9253
   53MOL0     H 7294   4.721   3.488   0.649 -0.6618 -2.0975 -1.0113
   53MOL0     H 7295   4.775   3.444   0.872  0.6740  0.2962 -2.7337
   53MOL0     H 7296   4.803   3.398   1.221  1.7886  0.6137  0.8749
   53MOL0     H 7297   4.913   3.435   1.427  1.9043  2.8660 -1.1085
   53MOL0     H 7298   3.953   3.138   2.517  0.3032  0.8095  0.2868
   53MOL0     H 7299   4.093   2.921   2.509 -2.0559  0.6053 -0.4312
   53MOL0     H 7300   4.146   2.488   2.569  1.2446  1.1576 -0.5175
   53MOL0     H 7301   4.260   2.272   2.558  0.7232 -1.0046  0.6148
   53MOL0     H 7302   4.675   2.129   2.690 -1.7842 -0.8403 -1.5986
   53MOL0     H 7303   4.667   2.272   2.790  0.4855 -2.4172  3.8079
   53MOL0     H 7304   4.483   2.144   2.926  0.4848  0.6935 -2.1668
   53MOL0     H 7305   4.643   2.075   2.944  0.1474 -2.5867  0.1786
   53MOL0     H 7306   4.479   1.901   2.899 -2.3131 -1.4193 -1.9562
   53MOL0     H 7307   4.466   1.966   2.739 -1.0807  6.1758  1.6655
   53MOL0     H 7308   4.730   1.935   2.733  2.0736  0.6044  0.4496
   53MOL0     H 7309   4.640   1.776   2.758 -1.4962 -0.0405  1.2250
   53MOL0     H 7310   4.866   1.782   3.081  1.4554 -1.3388 -0.2327
   53MOL0     H 7311   4.559   2.435   2.827  0.4065  0.8697 -1.7696
   53MOL0     H 7312   4.455   2.630   2.976 -1.2062 -1.6095  0.5457
   53MOL0     H 7313   4.551   2.705   2.841 -0.5364  0.0235  1.7426
   53MOL0     H 7314   4.384   2.756   2.869 -0.3859 -0.4666 -0.0300
   54MOL0     O 7315   8.967   1.978   9.837  0.5734 -0.0843  0.1887
   54MOL0     C 7316   9.026   1.874   9.858  0.7952 -0.2053 -0.4824
   54MOL0     O 7317   8.985   1.787   9.959 -0.9028 -1.4100 -0.3736
   54MOL0     C 7318   8.880   1.803  10.036  0.2497 -0.2655 -0.8221
   54MOL0     C 7319   8.757   1.746  10.001 -0.1833 -0.3463 -0.2822
   54MOL0     C 7320   8.647   1.759  10.088 -0.5971  0.3341  0.5620
   54MOL0     C 7321   8.652   1.838  10.199 -0.1446 -0.2948  0.2423
   54MOL0     O 7322   8.533   1.869  10.256  0.2238 -0.6712 -0.0315
   54MOL0     C 7323   8.507   2.011  10.253  0.3279  0.7056  0.0785
   54MOL0     C 7324   8.392   2.037  10.339  0.3079  1.2282  0.4694
   54MOL0     C 7325   8.419   1.992  10.492  0.5809 -0.0178  0.4052
   54MOL0     C 7326   8.497   2.089  10.584 -0.1065 -0.0004 -0.1751
   54MOL0     C 7327   8.523   2.038  10.725 -0.7871 -0.8013 -0.6115
   54MOL0     C 7328   8.589   2.141  10.811  0.6292  0.2649  0.6206
   54MOL0     C 7329   8.735   2.174  10.771 -0.1673 -1.2099 -1.0823
   54MOL0     C 7330   8.796   2.258  10.882  0.2379  0.2486 -0.5413
   54MOL0     N 7331   8.933   2.303  10.839 -0.4384  0.2757 -0.5587
   54MOL0     C 7332   9.035   2.321  10.923  0.8264 -0.1818 -0.3414
   54MOL0     C 7333   9.115   2.415  10.870  0.4411  0.5090  0.5644
   54MOL0     C 7334   9.248   2.460  10.933  0.2809 -0.6115  0.8318
   54MOL0     C 7335   9.251   2.619  10.923 -0.1079 -1.2981 -0.4026
   54MOL0     C 7336   9.348   2.662  10.810  0.3885  0.1105 -0.4448
   54MOL0     C 7337   9.489   2.700  10.845 -0.7357  0.4352 -0.7732
   54MOL0     O 7338   9.552   2.619  10.944 -0.1372  0.5622  0.1866
   54MOL0     C 7339   9.650   2.674  11.025  0.3321 -0.4414 -0.2561
   54MOL0     C 7340   9.637   2.792  11.096 -0.9741  0.0563  0.3091
   54MOL0     C 7341   9.739   2.852  11.173 -0.4834 -0.1537  0.2421
   54MOL0     C 7342   9.712   2.971  11.272 -0.5565  0.3372 -1.1249
   54MOL0     C 7343   9.864   2.790  11.172  0.2146  0.3537 -0.3044
   54MOL0     C 7344   9.976   2.857  11.228  0.4739  0.4361  0.4518
   54MOL0     O 7345   9.989   2.982  11.188 -0.1113 -0.0668  0.8267
   54MOL0     C 7346  10.080   3.066  11.241 -0.3587 -1.3836 -0.2307
   54MOL0     C 7347  10.112   3.178  11.158 -0.1928 -0.0927 -0.0846
   54MOL0     C 7348  10.202   3.279  11.212  0.6014  0.1762  0.5026
   54MOL0     C 7349  10.245   3.271  11.353 -0.1934 -0.3380  0.7023
   54MOL0     O 7350  10.318   3.368  11.415 -0.7980 -1.0038  0.2417
   54MOL0     C 7351  10.408   3.441  11.328  0.1884  0.6176 -0.0080
   54MOL0     C 7352  10.496   3.533  11.411 -0.2127 -0.1191  0.1286
   54MOL0     C 7353  10.424   3.615  11.518  0.6318 -1.2021  0.1633
   54MOL0     C 7354  10.332   3.723  11.465  0.7275  1.6695  0.9260
   54MOL0     C 7355  10.284   3.804  11.587 -0.3977  0.2501 -0.2183
   54MOL0     C 7356  10.197   3.926  11.540  0.2710  0.3089  0.5051
   54MOL0     C 7357  10.056   3.896  11.489  0.3359 -0.2981  0.3797
   54MOL0     C 7358   9.973   4.024  11.487 -0.7599  0.0872 -0.1045
   54MOL0    Cl 7359  10.048   4.129  11.369  0.1565  0.0256  0.3206
   54MOL0     C 7360  10.199   3.168  11.430  0.4752 -0.0397  0.6421
   54MOL0     C 7361  10.114   3.067  11.385  0.0871  0.7034  1.0318
   54MOL0     O 7362  10.050   2.792  11.299 -0.4851 -0.0454  0.6782
   54MOL0     C 7363   9.876   2.664  11.113  0.3870 -1.0285 -0.7264
   54MOL0     C 7364   9.777   2.607  11.027 -0.2578 -0.7981 -0.4678
   54MOL0     N 7365   9.069   2.441  10.748  0.3866 -0.1100  0.1262
   54MOL0     N 7366   8.955   2.378  10.737 -0.2983  0.1534  0.6155
   54MOL0     C 7367   8.770   1.899  10.233 -0.5728  0.3727  0.1435
   54MOL0     C 7368   8.891   1.877  10.152  0.3616 -0.2184  0.7102
   54MOL0     C 7369   9.143   1.838   9.771 -0.0749 -1.1334 -0.4426
   54MOL0     C 7370   9.166   1.929   9.667 -0.2200 -0.3502 -0.0464
   54MOL0     C 7371   9.270   1.901   9.574  0.5091 -0.1821  0.3020
   54MOL0     C 7372   9.354   1.797   9.585 -0.5516 -0.1038 -0.5140
   54MOL0     O 7373   9.447   1.790   9.483 -1.0000  0.3764  0.0715
   54MOL0     C 7374   9.561   1.704   9.482  0.0264  1.5438  0.3975
   54MOL0     C 7375   9.531   1.582   9.382  1.0076 -0.1406 -0.1293
   54MOL0     C 7376   9.631   1.476   9.404 -1.5034  0.5360  0.3092
   54MOL0     C 7377   9.570   1.333   9.391 -0.1877 -0.1106  0.7501
   54MOL0     C 7378   9.680   1.243   9.352 -0.1386 -0.1339 -0.0911
   54MOL0     C 7379   9.780   1.181   9.322 -0.0175  0.9949 -0.2321
   54MOL0     C 7380   9.330   1.705   9.684  0.1664 -0.3687  0.9075
   54MOL0     C 7381   9.230   1.725   9.782  0.2400 -0.4089 -0.1046
   54MOL0     C 7382   9.235   1.626   9.898  0.5755  0.1997  0.1095
   54MOL0     H 7383   8.733   1.682   9.916 -0.1850  0.3250 -0.7941
   54MOL0     H 7384   8.551   1.710  10.076 -1.2893  1.3840  1.6130
   54MOL0     H 7385   8.485   2.035  10.148  4.1984  0.7306 -0.8619
   54MOL0     H 7386   8.586   2.076  10.288  0.4742 -0.0357  1.1619
   54MOL0     H 7387   8.373   2.145  10.339  2.7672  1.7268  1.4326
   54MOL0     H 7388   8.306   1.980  10.302  2.5163 -0.6783 -2.1254
   54MOL0     H 7389   8.319   1.972  10.530  1.0756  1.8501  3.0495
   54MOL0     H 7390   8.477   1.900  10.497  0.7522  0.0899  0.4045
   54MOL0     H 7391   8.586   2.127  10.532  0.3166  0.7928  1.0697
   54MOL0     H 7392   8.430   2.175  10.589 -2.5234 -1.8174  0.4870
   54MOL0     H 7393   8.586   1.949  10.719  0.8693 -0.1126  3.5312
   54MOL0     H 7394   8.430   2.016  10.778 -0.5894  0.5868  0.3717
   54MOL0     H 7395   8.532   2.234  10.805  1.8402  0.9445 -1.5406
   54MOL0     H 7396   8.592   2.110  10.915 -0.8120 -1.9883  0.0711
   54MOL0     H 7397   8.737   2.240  10.683 -1.2894 -0.4205 -0.5494
   54MOL0     H 7398   8.795   2.084  10.756  0.6116 -0.3366 -3.6883
   54MOL0     H 7399   8.740   2.352  10.893 -0.7679 -0.5307  1.3856
   54MOL0     H 7400   8.808   2.211  10.980 -1.9592  2.4981  0.9166
   54MOL0     H 7401   9.050   2.279  11.023  0.6197 -2.4740 -1.2085
   54MOL0     H 7402   9.336   2.427  10.877  0.2357  1.5708 -0.6926
   54MOL0     H 7403   9.235   2.420  11.034 -0.4769 -3.4242 -0.3093
   54MOL0     H 7404   9.146   2.647  10.909 -1.0027 -3.9559  0.3966
   54MOL0     H 7405   9.285   2.681  11.006  0.6263  0.2858 -1.8362
   54MOL0     H 7406   9.356   2.575  10.745  2.0254  0.3123 -0.5604
   54MOL0     H 7407   9.306   2.749  10.759  1.0971  0.9845  0.4096
   54MOL0     H 7408   9.544   2.700  10.750 -1.3658  1.9902 -1.1842
   54MOL0     H 7409   9.503   2.805  10.873  1.1747 -0.2752  1.1648
   54MOL0     H 7410   9.545   2.849  11.094 -2.0242 -1.5697 -1.9626
   54MOL0     H 7411   9.618   2.959  11.327 -0.3554 -1.6084 -1.1221
   54MOL0     H 7412   9.708   3.059  11.207 -0.9724  2.5602  1.7421
   54MOL0     H 7413   9.778   2.973  11.358 -2.5947  1.9017  0.5210
   54MOL0     H 7414  10.089   3.171  11.052  1.1463 -1.3677 -0.3236
   54MOL0     H 7415  10.226   3.353  11.136 -0.1253  0.3565  0.4478
   54MOL0     H 7416  10.471   3.370  11.274 -0.0378 -0.8513  1.5795
   54MOL0     H 7417  10.342   3.492  11.257 -0.5568 -4.2843 -3.3197
   54MOL0     H 7418  10.590   3.485  11.441 -0.2817 -0.4210 -0.1351
   54MOL0     H 7419  10.532   3.606  11.337  1.0616 -2.4794 -1.7067
   54MOL0     H 7420  10.507   3.658  11.575  0.6474  0.6036 -1.1518
   54MOL0     H 7421  10.374   3.545  11.586 -0.3656  1.7957  2.7614
   54MOL0     H 7422  10.254   3.668  11.411  2.5995 -0.2645 -0.0109
   54MOL0     H 7423  10.372   3.788  11.386 -0.0061 -1.1342 -1.9715
   54MOL0     H 7424  10.227   3.742  11.658  2.2952 -2.0241  0.1343
   54MOL0     H 7425  10.374   3.842  11.635 -1.2753  2.0304  0.1029
   54MOL0     H 7426  10.253   3.974  11.458 -0.5572 -1.4679 -1.1797
   54MOL0     H 7427  10.203   4.004  11.617 -0.2865  1.9941 -1.0842
   54MOL0     H 7428  10.008   3.835  11.565 -1.8013  1.1196  0.2600
   54MOL0     H 7429  10.056   3.844  11.393  2.1417  2.3437 -1.1809
   54MOL0     H 7430   9.968   4.076  11.583 -0.0672  0.1062 -0.0762
   54MOL0     H 7431   9.867   4.007  11.464 -0.9644 -0.4731  1.1619
   54MOL0     H 7432  10.247   3.161  11.527 -0.0731 -2.0032  0.7996
   54MOL0     H 7433  10.087   2.985  11.450 -1.1844 -1.5335 -2.0845
   54MOL0     H 7434   9.971   2.612  11.117  0.7869 -0.3805 -1.5189
   54MOL0     H 7435   9.796   2.510  10.984  0.8821 -0.7620 -0.0690
   54MOL0     H 7436   8.781   1.962  10.321  0.2177  0.6057 -0.1108
   54MOL0     H 7437   8.994   1.902  10.173  0.2868 -0.5843  1.5629
   54MOL0     H 7438   9.114   2.023   9.655  0.8304  0.0183 -2.1276
   54MOL0     H 7439   9.287   1.968   9.490  3.0173  1.9834  2.3864
   54MOL0     H 7440   9.645   1.767   9.452 -0.6866  0.7954 -3.8584
   54MOL0     H 7441   9.596   1.671   9.580 -2.6196  1.1317  1.2951
   54MOL0     H 7442   9.524   1.608   9.276 -1.5733 -1.2903 -0.3049
   54MOL0     H 7443   9.432   1.544   9.409  0.9922 -1.1866 -1.5698
   54MOL0     H 7444   9.713   1.490   9.333 -2.5728 -1.7014 -1.4918
   54MOL0     H 7445   9.677   1.483   9.503 -2.1414  1.2736  0.5637
   54MOL0     H 7446   9.495   1.333   9.312 -0.3478  0.2872  0.8992
   54MOL0     H 7447   9.519   1.307   9.484  0.8211  0.2497  1.4241
   54MOL0     H 7448   9.865   1.130   9.283 -0.1772  0.9073 -0.4688
   54MOL0     H 7449   9.402   1.627   9.702 -1.2650 -1.5783  1.6396
   54MOL0     H 7450   9.131   1.596   9.914 -0.0145  0.1557 -3.0465
   54MOL0     H 7451   9.300   1.544   9.868  4.1682  1.7820  2.7950
   54MOL0     H 7452   9.273   1.665   9.993 -0.6836 -1.3818  1.3137
   55MOL0     O 7453   3.472  10.717   3.429  0.1047  0.3479 -0.1532
   55MOL0     C 7454   3.431  10.826   3.396  0.6043 -0.1665 -0.0039
   55MOL0     O 7455   3.497  10.944   3.412  0.3231 -0.4894  0.9173
   55MOL0     C 7456   3.621  10.940   3.466 -0.3044 -0.2598 -0.0858
   55MOL0     C 7457   3.664  10.872   3.580  0.2057  0.0315 -0.5870
   55MOL0     C 7458   3.789  10.887   3.628  0.6119 -0.2707 -0.2393
   55MOL0     C 7459   3.893  10.958   3.563 -0.2597  0.8592 -0.1408
   55MOL0     O 7460   4.021  10.936   3.596 -0.0087  1.1209  0.0356
   55MOL0     C 7461   4.120  11.014   3.535 -0.3727 -0.3302 -0.0976
   55MOL0     C 7462   4.244  10.963   3.613  1.0348  0.5790  0.4662
   55MOL0     C 7463   4.369  11.054   3.584  1.4873  0.1682 -0.6560
   55MOL0     C 7464   4.490  10.992   3.651  0.5433  0.1308 -0.0544
   55MOL0     C 7465   4.619  11.047   3.593 -0.0539 -0.2629 -0.2491
   55MOL0     C 7466   4.755  10.989   3.643  0.5049  1.1539  0.6346
   55MOL0     C 7467   4.874  11.067   3.591 -0.0209 -0.0815 -0.1426
   55MOL0     C 7468   5.016  11.014   3.643  0.5465 -0.1508 -1.0333
   55MOL0     N 7469   5.101  11.128   3.662  0.2432  0.5119  0.2564
   55MOL0     C 7470   5.174  11.162   3.777 -0.5071  0.2915  0.6792
   55MOL0     C 7471   5.248  11.266   3.739 -0.4154  1.3303  0.1338
   55MOL0     C 7472   5.358  11.330   3.822  0.1352 -0.9324 -0.6854
   55MOL0     C 7473   5.307  11.393   3.953  0.3879 -0.2715 -1.3453
   55MOL0     C 7474   5.415  11.480   4.019 -0.0990  0.2543  0.5870
   55MOL0     C 7475   5.385  11.504   4.163 -0.6634  0.3807  0.0808
   55MOL0     O 7476   5.487  11.593   4.215  0.1871  1.2187 -0.1683
   55MOL0     C 7477   5.540  11.566   4.338 -0.4086  0.3034  0.1796
   55MOL0     C 7478   5.461  11.526   4.449 -1.3919 -0.1187 -0.8351
   55MOL0     C 7479   5.521  11.520   4.576  0.3739  0.4758  0.5241
   55MOL0     C 7480   5.432  11.499   4.699  0.0427  0.7723 -0.1195
   55MOL0     C 7481   5.657  11.552   4.589 -0.1947  0.3979 -0.4036
   55MOL0     C 7482   5.741  11.570   4.704  0.1723 -0.1970 -0.3741
   55MOL0     O 7483   5.817  11.476   4.739 -0.4047  0.4372 -0.1429
   55MOL0     C 7484   5.864  11.478   4.867  0.0972  0.1867 -0.4307
   55MOL0     C 7485   5.997  11.438   4.885 -0.4099 -0.9698 -0.4435
   55MOL0     C 7486   6.055  11.415   5.013 -0.7415  0.1476  0.6589
   55MOL0     C 7487   5.984  11.442   5.134  0.5030 -0.6605 -0.4947
   55MOL0     O 7488   6.024  11.441   5.262 -0.9939  0.4296 -0.4004
   55MOL0     C 7489   6.150  11.367   5.275 -1.0212 -0.6988  0.0824
   55MOL0     C 7490   6.188  11.385   5.421 -0.0492 -1.6783 -0.4283
   55MOL0     C 7491   6.327  11.333   5.458  0.1496  0.1580  0.2909
   55MOL0     C 7492   6.444  11.409   5.408  0.2334 -0.1421 -0.6513
   55MOL0     C 7493   6.578  11.388   5.500 -0.7430 -1.1952 -0.1281
   55MOL0     C 7494   6.690  11.483   5.462  0.6301  0.3314 -0.0619
   55MOL0     C 7495   6.804  11.445   5.546  0.1717 -0.3441  0.9267
   55MOL0     C 7496   6.910  11.543   5.500 -0.1822  0.4659 -0.0067
   55MOL0    Cl 7497   6.947  11.516   5.323  0.3836 -0.4503  0.0331
   55MOL0     C 7498   5.851  11.481   5.111 -0.5856 -0.1509 -0.5780
   55MOL0     C 7499   5.786  11.502   4.980  0.9714 -0.2200 -0.4336
   55MOL0     O 7500   5.738  11.690   4.743  0.1848  0.3419 -0.5876
   55MOL0     C 7501   5.731  11.583   4.476 -0.5610  0.2658  0.4857
   55MOL0     C 7502   5.675  11.585   4.350  0.2867 -0.5462 -0.3635
   55MOL0     N 7503   5.226  11.287   3.601 -0.8961 -0.4752  0.4728
   55MOL0     N 7504   5.140  11.202   3.559 -0.0531 -0.0713  0.3136
   55MOL0     C 7505   3.851  11.023   3.445  0.0590  0.0129 -0.6221
   55MOL0     C 7506   3.715  11.011   3.397 -0.1143 -0.1453  0.7139
   55MOL0     C 7507   3.294  10.827   3.340  1.0981  0.0174 -0.1418
   55MOL0     C 7508   3.235  10.705   3.290 -0.0065  0.4770 -0.2894
   55MOL0     C 7509   3.106  10.699   3.235 -0.6727 -0.7458 -0.0034
   55MOL0     C 7510   3.036  10.822   3.236  0.1906  0.6433  0.3595
   55MOL0     O 7511   2.899  10.813   3.187 -0.9688 -0.3019  0.9362
   55MOL0     C 7512   2.825  10.929   3.143  0.7625 -0.5141 -0.1838
   55MOL0     C 7513   2.690  10.927   3.216  0.4164 -0.0651  0.2538
   55MOL0     C 7514   2.573  10.975   3.129  1.3372 -1.1545  0.1589
   55MOL0     C 7515   2.441  10.951   3.194  0.9099 -1.3055 -0.0467
   55MOL0     C 7516   2.418  10.801   3.215  0.8515 -0.2273  0.3721
   55MOL0     C 7517   2.407  10.694   3.261 -0.7702  1.0910 -0.1092
   55MOL0     C 7518   3.083  10.936   3.294  0.8526  0.9017 -0.5601
   55MOL0     C 7519   3.214  10.941   3.337 -0.4581  0.1973 -0.1360
   55MOL0     C 7520   3.260  11.072   3.397 -0.4525  0.3947  0.2635
   55MOL0     H 7521   3.604  10.801   3.635  0.2996  0.5831  0.2482
   55MOL0     H 7522   3.823  10.825   3.711  3.1896 -3.5592 -3.4265
   55MOL0     H 7523   4.106  11.120   3.554  0.6168 -0.6517  2.8602
   55MOL0     H 7524   4.130  10.985   3.430 -2.4989 -3.1379  0.3333
   55MOL0     H 7525   4.213  10.956   3.717  2.2569  0.2988  0.8312
   55MOL0     H 7526   4.269  10.859   3.588  3.3917  1.2950 -0.4289
   55MOL0     H 7527   4.383  11.090   3.481  0.7479  2.2917 -0.0770
   55MOL0     H 7528   4.347  11.144   3.643  0.9205  0.0752 -0.7199
   55MOL0     H 7529   4.489  11.019   3.757  0.1457  3.2542 -0.7782
   55MOL0     H 7530   4.468  10.885   3.655 -2.0445  0.6275  0.9748
   55MOL0     H 7531   4.617  11.155   3.612  0.6083  0.2389 -2.6076
   55MOL0     H 7532   4.624  11.056   3.484 -0.4519  2.0741 -0.1272
   55MOL0     H 7533   4.739  10.992   3.752 -1.2833  0.5850  0.4179
   55MOL0     H 7534   4.760  10.885   3.612 -1.6482  1.2124 -0.0325
   55MOL0     H 7535   4.850  11.167   3.628 -0.5973 -0.6904  1.1830
   55MOL0     H 7536   4.891  11.068   3.483 -2.6333 -0.6147 -0.6150
   55MOL0     H 7537   5.012  10.966   3.741 -2.1799 -0.3070 -1.1241
   55MOL0     H 7538   5.064  10.946   3.572  1.5618  1.3819 -1.8659
   55MOL0     H 7539   5.168  11.103   3.868  1.5375 -2.8974 -1.0501
   55MOL0     H 7540   5.400  11.407   3.756 -1.2564 -0.1234 -0.6643
   55MOL0     H 7541   5.431  11.250   3.839 -0.8373 -1.4543  1.3786
   55MOL0     H 7542   5.211  11.444   3.943  0.0055 -0.9349 -1.0804
   55MOL0     H 7543   5.297  11.309   4.021  2.4708 -0.6131 -1.4123
   55MOL0     H 7544   5.502  11.417   3.996 -0.1722  0.2902  0.2096
   55MOL0     H 7545   5.407  11.579   3.973 -3.3927 -0.1897 -0.0538
   55MOL0     H 7546   5.285  11.548   4.168 -1.2101 -0.9686  2.7285
   55MOL0     H 7547   5.392  11.412   4.221 -1.4831  1.7596  2.5385
   55MOL0     H 7548   5.353  11.530   4.434 -1.1716 -0.5862 -2.8918
   55MOL0     H 7549   5.352  11.428   4.677 -1.1479  2.3520 -1.1517
   55MOL0     H 7550   5.387  11.592   4.735 -0.2341 -0.0215  1.7033
   55MOL0     H 7551   5.492  11.465   4.784 -2.8388  1.2694  2.3100
   55MOL0     H 7552   6.055  11.419   4.795 -0.7419 -1.6851 -0.5173
   55MOL0     H 7553   6.159  11.387   4.997 -1.6246 -2.6980 -0.8420
   55MOL0     H 7554   6.144  11.260   5.252 -1.9406 -0.2138 -2.1340
   55MOL0     H 7555   6.228  11.424   5.226 -3.0284  2.1644 -0.0052
   55MOL0     H 7556   6.189  11.491   5.450  0.0739 -1.7635 -0.1270
   55MOL0     H 7557   6.118  11.329   5.483  2.4614  0.3940  4.8715
   55MOL0     H 7558   6.324  11.235   5.410 -1.3588 -0.7076  2.0537
   55MOL0     H 7559   6.326  11.313   5.565 -3.4709  0.6482  0.4620
   55MOL0     H 7560   6.424  11.516   5.401 -0.9959 -0.2918  0.2603
   55MOL0     H 7561   6.477  11.382   5.307  1.6876  3.5060 -1.3020
   55MOL0     H 7562   6.559  11.411   5.606  2.4209  1.5669 -0.0044
   55MOL0     H 7563   6.616  11.286   5.491  3.6261  0.1855  0.4808
   55MOL0     H 7564   6.668  11.587   5.487 -3.8725 -0.3509 -0.4239
   55MOL0     H 7565   6.696  11.462   5.354  1.8282 -2.6698  0.4725
   55MOL0     H 7566   6.845  11.347   5.520  0.4208 -0.0378  0.1219
   55MOL0     H 7567   6.790  11.454   5.654 -0.9192  2.0065  0.6416
   55MOL0     H 7568   7.001  11.522   5.558 -2.0009 -0.9595  2.5378
   55MOL0     H 7569   6.878  11.645   5.525  2.7148  1.9928 -1.9841
   55MOL0     H 7570   5.790  11.494   5.200 -1.4216  0.1660 -1.1809
   55MOL0     H 7571   5.683  11.534   4.968  1.2868  0.4642 -1.4308
   55MOL0     H 7572   5.838  11.603   4.474 -0.2596 -1.2978 -0.5711
   55MOL0     H 7573   5.738  11.609   4.265 -1.9294  2.4950 -1.3021
   55MOL0     H 7574   3.917  11.093   3.395 -1.1321 -0.4029 -2.9135
   55MOL0     H 7575   3.698  11.072   3.308 -1.8255 -0.5149  0.7619
   55MOL0     H 7576   3.293  10.613   3.290  1.1429  1.1773 -0.5735
   55MOL0     H 7577   3.070  10.608   3.189 -0.6123 -1.3134  1.0365
   55MOL0     H 7578   2.874  11.026   3.154  0.8110 -0.5605  0.0185
   55MOL0     H 7579   2.823  10.915   3.035  1.0966  0.4785 -0.3301
   55MOL0     H 7580   2.699  10.979   3.312  2.6328  2.1875 -1.0546
   55MOL0     H 7581   2.669  10.822   3.239 -1.5364 -0.2206 -1.8438
   55MOL0     H 7582   2.580  11.084   3.121  2.8155 -0.9683  2.6763
   55MOL0     H 7583   2.568  10.925   3.032 -1.5165  3.1282 -2.2193
   55MOL0     H 7584   2.357  10.994   3.139  0.8732 -1.2155  0.0797
   55MOL0     H 7585   2.448  11.006   3.288 -2.8656  1.0065 -0.9142
   55MOL0     H 7586   2.397  10.595   3.302 -2.2177  0.9637 -0.6924
   55MOL0     H 7587   3.022  11.025   3.301 -1.8198 -0.6341 -2.4783
   55MOL0     H 7588   3.172  11.136   3.406 -0.0165  0.8956  1.0713
   55MOL0     H 7589   3.302  11.064   3.498 -2.6753 -2.3750  1.1185
   55MOL0     H 7590   3.340  11.114   3.335  2.2054 -0.8090  2.6549
   56MOL0     O 7591   3.865   6.468   6.679 -0.1210 -0.1178  0.3435
   56MOL0     C 7592   3.930   6.569   6.689 -1.1883  0.7049 -0.4184
   56MOL0     O 7593   3.937   6.647   6.806  0.1472 -0.1308  0.3365
   56MOL0     C 7594   3.845   6.623   6.903  0.5206 -0.6317 -0.9350
   56MOL0     C 7595   3.815   6.500   6.962  0.5804  0.2077  0.4400
   56MOL0     C 7596   3.724   6.484   7.060 -0.4540 -0.5608  0.4065
   56MOL0     C 7597   3.655   6.599   7.120 -0.7467 -1.1101  0.0265
   56MOL0     O 7598   3.568   6.584   7.229  0.2509 -0.4015 -0.1041
   56MOL0     C 7599   3.465   6.683   7.244  0.6257 -0.5348 -0.5069
   56MOL0     C 7600   3.492   6.809   7.321  1.2800  1.0430 -0.5957
   56MOL0     C 7601   3.410   6.814   7.451  0.3521 -0.5245 -0.7886
   56MOL0     C 7602   3.385   6.957   7.499 -0.4908 -0.1609 -0.1299
   56MOL0     C 7603   3.277   6.951   7.604 -1.4913 -0.3354 -0.6010
   56MOL0     C 7604   3.258   7.095   7.665  0.0588  0.5147  0.7267
   56MOL0     C 7605   3.182   7.098   7.796 -0.5142  0.4596 -0.4957
   56MOL0     C 7606   3.244   7.026   7.917  1.3947 -0.4159 -0.6819
   56MOL0     N 7607   3.191   7.076   8.044 -0.2999  0.0878 -0.1825
   56MOL0     C 7608   3.272   7.076   8.157  0.1938 -0.1327  0.1024
   56MOL0     C 7609   3.199   7.106   8.265 -0.3458  0.0091  0.3358
   56MOL0     C 7610   3.256   7.153   8.384 -0.5133 -1.0929  0.0769
   56MOL0     C 7611   3.348   7.277   8.364  0.2727  0.1536  0.2790
   56MOL0     C 7612   3.274   7.411   8.332  0.0386  0.2016 -0.0225
   56MOL0     C 7613   3.206   7.481   8.447 -0.2549 -0.0850 -0.8079
   56MOL0     O 7614   3.297   7.508   8.557  0.1488 -0.1854  0.2979
   56MOL0     C 7615   3.313   7.420   8.667 -0.5527 -0.0679  0.0731
   56MOL0     C 7616   3.445   7.389   8.713  0.0757  0.8798 -0.2565
   56MOL0     C 7617   3.465   7.280   8.808 -0.2253 -0.1259 -0.0166
   56MOL0     C 7618   3.605   7.256   8.863 -0.0603 -1.1008  1.4008
   56MOL0     C 7619   3.354   7.220   8.862  0.7850 -0.5592 -0.2903
   56MOL0     C 7620   3.366   7.123   8.961 -0.0646  0.5693  0.7816
   56MOL0     O 7621   3.420   7.152   9.082 -0.8189 -0.2703  0.1815
   56MOL0     C 7622   3.463   7.048   9.166 -0.4112 -0.6721 -0.2054
   56MOL0     C 7623   3.538   6.937   9.124 -0.6547 -0.0500 -0.0655
   56MOL0     C 7624   3.612   6.868   9.220 -0.1047  0.1809  0.1708
   56MOL0     C 7625   3.584   6.871   9.362 -0.5740  0.7135  0.2044
   56MOL0     O 7626   3.648   6.807   9.463  0.0282 -1.0715 -0.9717
   56MOL0     C 7627   3.727   6.701   9.413 -0.3736  0.7581  0.6925
   56MOL0     C 7628   3.791   6.606   9.521 -0.1437 -0.3958  0.1729
   56MOL0     C 7629   3.905   6.518   9.465  0.3945 -0.2488 -0.9627
   56MOL0     C 7630   3.909   6.508   9.310 -0.4103  0.0507  0.0902
   56MOL0     C 7631   4.033   6.415   9.258  0.5348  0.0058 -0.5451
   56MOL0     C 7632   4.171   6.458   9.301 -0.4345  0.2518  0.0109
   56MOL0     C 7633   4.285   6.398   9.208  1.3012  0.6633 -0.3166
   56MOL0     C 7634   4.411   6.471   9.231 -0.2904 -0.2742 -0.2081
   56MOL0    Cl 7635   4.550   6.421   9.119  0.4206 -0.0864  0.3704
   56MOL0     C 7636   3.484   6.966   9.394  0.5039 -0.3130  0.3487
   56MOL0     C 7637   3.430   7.060   9.298  0.0638  0.7085  0.9395
   56MOL0     O 7638   3.330   7.011   8.925 -0.1498  0.5060 -0.4553
   56MOL0     C 7639   3.222   7.254   8.817 -0.4604  0.1740 -0.5139
   56MOL0     C 7640   3.207   7.351   8.715  0.5406  0.1821 -0.7231
   56MOL0     N 7641   3.075   7.132   8.220  0.0387  0.0857  0.4248
   56MOL0     N 7642   3.063   7.107   8.090 -0.1639 -0.0245  0.4163
   56MOL0     C 7643   3.695   6.730   7.066  0.1225  0.6676  0.3836
   56MOL0     C 7644   3.783   6.735   6.958  0.1222  0.2051  0.8353
   56MOL0     C 7645   4.027   6.595   6.580  0.3673  0.4367  0.6127
   56MOL0     C 7646   4.144   6.650   6.625 -0.0255  0.1441  0.2587
   56MOL0     C 7647   4.252   6.664   6.534  0.5609 -0.0713 -0.1387
   56MOL0     C 7648   4.250   6.592   6.411  0.0296 -0.1194 -0.0745
   56MOL0     O 7649   4.357   6.576   6.329 -0.2541  0.2150 -0.1290
   56MOL0     C 7650   4.428   6.455   6.366 -0.0231  0.8236  0.0118
   56MOL0     C 7651   4.534   6.455   6.477 -1.1997 -0.1642 -0.3419
   56MOL0     C 7652   4.650   6.559   6.470  0.7671 -0.3586  0.1576
   56MOL0     C 7653   4.715   6.606   6.607  0.6474  0.7476  0.4626
   56MOL0     C 7654   4.789   6.493   6.675 -0.6867 -1.1148  0.8194
   56MOL0     C 7655   4.844   6.411   6.744 -0.8366  0.1838  0.3767
   56MOL0     C 7656   4.127   6.531   6.365  0.6381  0.1038 -0.5235
   56MOL0     C 7657   4.013   6.550   6.439 -0.5873 -0.2287 -0.1375
   56MOL0     C 7658   3.882   6.503   6.378  0.6078  0.1770  0.1191
   56MOL0     H 7659   3.869   6.414   6.923  0.8378  0.3639  0.4503
   56MOL0     H 7660   3.714   6.381   7.094 -3.7856  0.5107  3.2871
   56MOL0     H 7661   3.378   6.639   7.295 -1.7001  4.2569  0.2088
   56MOL0     H 7662   3.423   6.709   7.147  1.1538 -0.1323 -0.6278
   56MOL0     H 7663   3.595   6.838   7.339  1.6638 -0.9434  0.8022
   56MOL0     H 7664   3.454   6.890   7.258  1.1257  1.6000  0.2018
   56MOL0     H 7665   3.308   6.782   7.426 -1.6663  2.7995  2.1627
   56MOL0     H 7666   3.451   6.755   7.533 -1.5419  1.6229  1.8812
   56MOL0     H 7667   3.469   7.017   7.536 -0.8048  0.6857 -0.7509
   56MOL0     H 7668   3.343   7.020   7.421 -1.4416 -0.6085  0.0101
   56MOL0     H 7669   3.309   6.871   7.672  0.6196  0.4051 -0.6426
   56MOL0     H 7670   3.184   6.907   7.568  1.2053 -3.2795 -4.9507
   56MOL0     H 7671   3.347   7.157   7.679  1.6720 -1.1793 -1.3519
   56MOL0     H 7672   3.198   7.149   7.592 -2.7450 -1.5966  1.2856
   56MOL0     H 7673   3.079   7.066   7.777 -0.7597  0.4190  0.7564
   56MOL0     H 7674   3.191   7.205   7.819  4.4456  0.2473 -0.4782
   56MOL0     H 7675   3.217   6.920   7.905  0.2189  0.0510 -2.6951
   56MOL0     H 7676   3.353   7.035   7.913  1.4174  2.1738  2.1777
   56MOL0     H 7677   3.380   7.081   8.154  0.2428  2.1481  2.2663
   56MOL0     H 7678   3.320   7.088   8.445  1.6855  2.1545  1.5392
   56MOL0     H 7679   3.176   7.186   8.451 -1.0225  1.9056 -1.7845
   56MOL0     H 7680   3.398   7.294   8.460  1.1078  1.9667 -0.4224
   56MOL0     H 7681   3.422   7.257   8.286  0.4948  1.5579  0.1050
   56MOL0     H 7682   3.351   7.480   8.295  4.3547 -2.9886  2.0709
   56MOL0     H 7683   3.191   7.394   8.263 -2.5063  1.1803  2.6166
   56MOL0     H 7684   3.162   7.575   8.411  2.5988  0.7328 -2.5133
   56MOL0     H 7685   3.125   7.415   8.477 -1.1669  1.6082  0.6677
   56MOL0     H 7686   3.530   7.442   8.672  0.7502 -0.6835 -0.9811
   56MOL0     H 7687   3.668   7.210   8.787  3.2190  0.5925  2.8733
   56MOL0     H 7688   3.604   7.189   8.950 -1.9822 -1.0214  1.4726
   56MOL0     H 7689   3.653   7.349   8.896 -2.6304  0.5188  0.8053
   56MOL0     H 7690   3.543   6.910   9.019 -3.1000  0.9516 -0.5071
   56MOL0     H 7691   3.686   6.804   9.174 -1.6082 -2.0803  0.7431
   56MOL0     H 7692   3.669   6.648   9.337  0.6581 -0.0994  0.4791
   56MOL0     H 7693   3.808   6.755   9.363 -1.2931  1.4415 -0.0943
   56MOL0     H 7694   3.834   6.664   9.603  1.8634  1.4084 -1.9904
   56MOL0     H 7695   3.714   6.539   9.558 -1.5749  1.2608  0.3074
   56MOL0     H 7696   3.900   6.415   9.502 -0.0756  0.0757 -0.0896
   56MOL0     H 7697   3.999   6.550   9.511  0.2553 -1.8004  0.5184
   56MOL0     H 7698   3.924   6.606   9.264 -2.3021  0.8929  1.1696
   56MOL0     H 7699   3.813   6.471   9.275  0.0274  0.7164 -1.9628
   56MOL0     H 7700   4.012   6.311   9.285  1.9764 -0.3829 -0.8303
   56MOL0     H 7701   4.033   6.414   9.149 -0.1372 -3.2098 -0.6302
   56MOL0     H 7702   4.194   6.421   9.402  0.7196 -0.9958 -0.6638
   56MOL0     H 7703   4.161   6.567   9.297  0.4670  0.3951  0.9534
   56MOL0     H 7704   4.266   6.407   9.101  1.2252  2.7216 -0.1624
   56MOL0     H 7705   4.293   6.290   9.227  0.2394  0.5345 -0.5185
   56MOL0     H 7706   4.442   6.452   9.335 -3.5364 -2.0976  0.5687
   56MOL0     H 7707   4.384   6.576   9.212  0.0761 -0.6886 -3.4759
   56MOL0     H 7708   3.452   6.973   9.497  1.4516  1.0318  0.5718
   56MOL0     H 7709   3.348   7.123   9.332 -1.0477 -1.9638  3.6445
   56MOL0     H 7710   3.137   7.198   8.855  1.0727 -2.3625 -0.5565
   56MOL0     H 7711   3.106   7.380   8.686 -0.5984  2.1462  4.2032
   56MOL0     H 7712   3.660   6.819   7.118 -1.0553  0.7095 -0.4395
   56MOL0     H 7713   3.809   6.827   6.907 -2.6310 -0.6928 -2.6450
   56MOL0     H 7714   4.171   6.681   6.726 -2.3416 -0.5004  1.1419
   56MOL0     H 7715   4.353   6.691   6.564  1.1866 -0.5319 -1.7253
   56MOL0     H 7716   4.350   6.379   6.376 -0.4232  1.2352  0.0006
   56MOL0     H 7717   4.480   6.421   6.276 -2.2684  0.3827 -1.1694
   56MOL0     H 7718   4.572   6.352   6.482 -0.0115  0.3241  1.4423
   56MOL0     H 7719   4.477   6.470   6.569  0.4984 -1.5043  0.9907
   56MOL0     H 7720   4.725   6.526   6.398 -1.0492 -0.7133 -1.6743
   56MOL0     H 7721   4.610   6.653   6.432 -0.3898 -0.9284 -0.0966
   56MOL0     H 7722   4.629   6.619   6.674 -0.9940 -3.9945 -0.3913
   56MOL0     H 7723   4.777   6.695   6.591 -2.2349  2.9752  0.8905
   56MOL0     H 7724   4.883   6.329   6.800  0.7510  1.5314  1.3261
   56MOL0     H 7725   4.134   6.486   6.266  0.4567  1.1259 -1.0161
   56MOL0     H 7726   3.830   6.425   6.433  0.1516 -1.4446 -2.4692
   56MOL0     H 7727   3.806   6.581   6.370 -1.4327 -1.7323  0.0928
   56MOL0     H 7728   3.896   6.458   6.279  0.5699  0.2893  0.0626
   57MOL0     O 7729   0.794  11.123  11.182  0.1927  0.0528 -0.4187
   57MOL0     C 7730   0.745  11.230  11.148 -0.7299 -0.2787 -0.0116
   57MOL0     O 7731   0.657  11.239  11.044  0.2647 -0.8994  0.2051
   57MOL0     C 7732   0.644  11.143  10.952 -0.9707 -0.2585  0.2656
   57MOL0     C 7733   0.735  11.132  10.843  0.3543 -0.7049 -1.3577
   57MOL0     C 7734   0.722  11.043  10.733  0.7795  1.0944 -0.0345
   57MOL0     C 7735   0.615  10.956  10.742 -0.3652  0.5520 -0.0677
   57MOL0     O 7736   0.587  10.862  10.638  0.4801 -0.2938 -0.8917
   57MOL0     C 7737   0.681  10.830  10.539  0.2616  0.3979 -0.3461
   57MOL0     C 7738   0.653  10.694  10.473  1.0412 -0.2532  0.0454
   57MOL0     C 7739   0.528  10.686  10.384 -0.1999  0.2516 -0.2542
   57MOL0     C 7740   0.400  10.715  10.455 -0.0715 -0.0347  0.0681
   57MOL0     C 7741   0.281  10.616  10.415  1.0471  0.6219  0.8252
   57MOL0     C 7742   0.272  10.590  10.265  0.6493 -1.1706 -0.5676
   57MOL0     C 7743   0.148  10.527  10.229  0.5198  0.0612  0.6560
   57MOL0     C 7744   0.106  10.384  10.269 -0.4666 -0.2057  0.2802
   57MOL0     N 7745   0.203  10.282  10.221  0.1223  1.2216 -0.0732
   57MOL0     C 7746   0.311  10.222  10.282 -0.5001 -0.6854  0.0163
   57MOL0     C 7747   0.337  10.109  10.221  0.3522  0.3358 -0.4514
   57MOL0     C 7748   0.435  10.005  10.266 -0.4099 -0.3894 -0.5969
   57MOL0     C 7749   0.369   9.864  10.255 -0.2482 -0.6392  0.0980
   57MOL0     C 7750   0.389   9.788  10.384  0.6531  0.0352 -0.5067
   57MOL0     C 7751   0.307   9.816  10.512  0.5786  0.1627 -0.6011
   57MOL0     O 7752   0.171   9.842  10.468  0.2703  0.2539 -0.1569
   57MOL0     C 7753   0.101   9.939  10.525 -0.6106 -0.6984 -0.3544
   57MOL0     C 7754   0.126   9.972  10.650  0.8597 -0.1344  0.1797
   57MOL0     C 7755   0.056  10.084  10.704  0.2720  0.0756  0.0105
   57MOL0     C 7756   0.109  10.132  10.837  1.1396 -0.3977  0.0632
   57MOL0     C 7757  -0.028  10.168  10.623 -0.5544  0.6810 -0.0122
   57MOL0     C 7758  -0.093  10.296  10.664 -0.7676 -0.7738 -0.7297
   57MOL0     O 7759  -0.179  10.316  10.774 -0.6837  0.7384 -0.0284
   57MOL0     C 7760  -0.214  10.199  10.840  0.1123 -1.0566  0.6693
   57MOL0     C 7761  -0.277  10.092  10.768  0.7314 -0.5525  0.7373
   57MOL0     C 7762  -0.321   9.989  10.842  0.5503  0.5563 -0.5344
   57MOL0     C 7763  -0.305   9.979  10.982  0.1315 -0.8166  0.4232
   57MOL0     O 7764  -0.380   9.881  11.048  0.5880 -0.5850 -0.1809
   57MOL0     C 7765  -0.308   9.802  11.144  1.3630 -0.5545 -0.2056
   57MOL0     C 7766  -0.369   9.657  11.159  0.1213  0.2784 -0.2695
   57MOL0     C 7767  -0.372   9.578  11.033 -0.4406  0.2004  1.5236
   57MOL0     C 7768  -0.237   9.553  10.980  0.9906  0.6207 -0.1816
   57MOL0     C 7769  -0.246   9.435  10.889 -0.5189  0.7235  0.1276
   57MOL0     C 7770  -0.166   9.456  10.754 -0.3969  0.2278 -0.4251
   57MOL0     C 7771  -0.015   9.486  10.782  0.8762  0.6184  0.7000
   57MOL0     C 7772   0.056   9.529  10.654  1.0259  0.6471 -0.6294
   57MOL0    Cl 7773   0.028   9.407  10.531 -0.2725 -0.1884 -0.5647
   57MOL0     C 7774  -0.232  10.078  11.050  0.4599  0.5277  0.0238
   57MOL0     C 7775  -0.198  10.196  10.979 -0.0382  0.7991  0.4186
   57MOL0     O 7776  -0.072  10.382  10.579 -0.3219  0.2504 -0.5869
   57MOL0     C 7777  -0.048  10.124  10.491  0.1655 -0.4319  0.2496
   57MOL0     C 7778   0.018  10.007  10.443 -0.4748  0.0147 -1.2610
   57MOL0     N 7779   0.260  10.093  10.110 -0.0886 -0.4344  0.7543
   57MOL0     N 7780   0.183  10.198  10.114  0.8586  0.4114  0.4102
   57MOL0     C 7781   0.522  10.963  10.846  0.7102  0.0051 -0.3889
   57MOL0     C 7782   0.532  11.062  10.945  1.0400  0.1035 -0.2485
   57MOL0     C 7783   0.782  11.363  11.217  1.0840  0.4070  0.4096
   57MOL0     C 7784   0.689  11.472  11.192  0.2597  1.2541 -0.3754
   57MOL0     C 7785   0.718  11.597  11.234  0.7613  0.1720  0.7574
   57MOL0     C 7786   0.834  11.626  11.295 -0.1882 -0.3653 -1.4437
   57MOL0     O 7787   0.868  11.753  11.338 -0.4134  0.2442 -0.3993
   57MOL0     C 7788   0.779  11.864  11.341  0.7909 -1.1560  0.3055
   57MOL0     C 7789   0.850  11.992  11.394 -0.1817 -0.1403  0.5716
   57MOL0     C 7790   0.762  12.119  11.365 -1.0456 -0.0658 -0.6127
   57MOL0     C 7791   0.619  12.123  11.423 -0.1596 -0.0335 -0.2439
   57MOL0     C 7792   0.552  12.244  11.366 -0.7116 -0.3641 -0.9668
   57MOL0     C 7793   0.510  12.344  11.316 -0.6688  1.1921  0.6546
   57MOL0     C 7794   0.910  11.519  11.347 -0.2372  0.1007  0.1249
   57MOL0     C 7795   0.892  11.380  11.305  0.4115 -0.2665  0.0283
   57MOL0     C 7796   1.002  11.282  11.341  1.3427  0.1121  0.1124
   57MOL0     H 7797   0.813  11.207  10.846  0.0996 -0.4680  1.0151
   57MOL0     H 7798   0.792  11.053  10.650  0.5053 -1.5855 -0.6651
   57MOL0     H 7799   0.778  10.835  10.590 -0.4554 -0.1703  1.1197
   57MOL0     H 7800   0.680  10.906  10.460 -6.4898  1.2306 -0.0009
   57MOL0     H 7801   0.732  10.671  10.401  0.1548 -0.4150 -0.8886
   57MOL0     H 7802   0.650  10.628  10.560 -0.5020  0.6430  0.7292
   57MOL0     H 7803   0.535  10.768  10.313  0.7146 -0.8182 -1.4400
   57MOL0     H 7804   0.521  10.595  10.324 -0.4149 -0.7818  1.2938
   57MOL0     H 7805   0.418  10.719  10.563  0.2826  0.2431 -0.0007
   57MOL0     H 7806   0.365  10.817  10.436 -1.9830 -0.8728 -1.1934
   57MOL0     H 7807   0.183  10.648  10.453  0.5441  3.1176 -2.1200
   57MOL0     H 7808   0.300  10.517  10.455  0.2047  0.7523  1.5860
   57MOL0     H 7809   0.292  10.689  10.222 -0.8700  1.2968  3.7770
   57MOL0     H 7810   0.352  10.519  10.242  2.6615  0.2224  1.6285
   57MOL0     H 7811   0.156  10.517  10.120  2.2775 -0.1814  0.7772
   57MOL0     H 7812   0.065  10.594  10.255 -0.4398  0.0896 -2.1801
   57MOL0     H 7813   0.075  10.385  10.374 -0.4249  1.8399  0.3073
   57MOL0     H 7814   0.011  10.374  10.216 -1.2762 -0.0830  1.6835
   57MOL0     H 7815   0.345  10.268  10.375 -1.7247  0.3250 -0.0032
   57MOL0     H 7816   0.466  10.043  10.364  4.1356 -1.9913 -1.2002
   57MOL0     H 7817   0.530  10.012  10.214  0.5213  3.4842  1.2479
   57MOL0     H 7818   0.266   9.888  10.228 -0.6977 -1.7379  0.7750
   57MOL0     H 7819   0.423   9.826  10.168  2.7241  1.6179  0.7917
   57MOL0     H 7820   0.366   9.684  10.362  0.2289 -0.2540  1.1788
   57MOL0     H 7821   0.496   9.785  10.410  0.4483 -2.2111  0.2924
   57MOL0     H 7822   0.310   9.727  10.575 -1.0905  0.1360 -0.5130
   57MOL0     H 7823   0.353   9.905  10.557  1.4199  0.4923 -2.0383
   57MOL0     H 7824   0.196   9.912  10.707  5.0816  1.2588 -3.0323
   57MOL0     H 7825   0.190  10.205  10.829  0.0583  0.9464  0.8878
   57MOL0     H 7826   0.138  10.046  10.897 -0.0519 -0.0873  1.1358
   57MOL0     H 7827   0.031  10.188  10.890 -1.1796 -3.3211  0.0065
   57MOL0     H 7828  -0.298  10.103  10.662  1.6873  0.6409  0.6523
   57MOL0     H 7829  -0.370   9.917  10.777  3.9303 -2.7093  0.1637
   57MOL0     H 7830  -0.202   9.808  11.115  1.6312 -2.4534  0.2698
   57MOL0     H 7831  -0.326   9.867  11.231 -3.1589 -0.8481 -0.7097
   57MOL0     H 7832  -0.303   9.605  11.229  4.2279 -0.9165 -4.5321
   57MOL0     H 7833  -0.472   9.663  11.194  0.2373  0.7659  0.0117
   57MOL0     H 7834  -0.436   9.617  10.953 -0.2753 -2.9510 -0.3439
   57MOL0     H 7835  -0.418   9.480  11.051  0.1613 -0.4573 -0.2325
   57MOL0     H 7836  -0.170   9.544  11.066  1.3207 -2.1063 -0.6216
   57MOL0     H 7837  -0.188   9.639  10.935  1.4600  0.1622 -0.5631
   57MOL0     H 7838  -0.204   9.345  10.936 -0.1501  1.5984  1.5651
   57MOL0     H 7839  -0.339   9.401  10.844 -0.5543 -1.5237  1.7298
   57MOL0     H 7840  -0.211   9.542  10.702  2.4618  0.2334 -3.2164
   57MOL0     H 7841  -0.188   9.364  10.699  1.1728 -1.6213  1.8505
   57MOL0     H 7842   0.033   9.390  10.805  2.5604  0.6744 -2.1112
   57MOL0     H 7843   0.011   9.558  10.859  2.7933 -0.7531  1.4172
   57MOL0     H 7844   0.160   9.545  10.684  1.1959 -3.0590  1.2451
   57MOL0     H 7845   0.011   9.624  10.622  0.1755 -0.5890 -3.3333
   57MOL0     H 7846  -0.215  10.077  11.157  1.0829 -0.5252 -0.0682
   57MOL0     H 7847  -0.148  10.273  11.037  2.5099 -0.6105  0.2402
   57MOL0     H 7848  -0.124  10.172  10.431  0.0213  1.0957  1.6084
   57MOL0     H 7849  -0.001   9.959  10.348 -0.4102 -4.5884  0.8169
   57MOL0     H 7850   0.440  10.893  10.852  1.8868 -1.3719  0.1766
   57MOL0     H 7851   0.459  11.079  11.023  0.7088  1.2480 -0.7794
   57MOL0     H 7852   0.605  11.470  11.123 -0.3319  4.6695  0.0603
   57MOL0     H 7853   0.634  11.664  11.226 -0.3875 -0.4310  5.1290
   57MOL0     H 7854   0.737  11.888  11.243 -0.2841 -0.7565  0.8405
   57MOL0     H 7855   0.694  11.855  11.410 -0.3246  4.0904  0.0830
   57MOL0     H 7856   0.947  12.006  11.346  0.4177 -2.2244  1.0510
   57MOL0     H 7857   0.876  11.979  11.500  1.4486  2.6797  0.6146
   57MOL0     H 7858   0.824  12.203  11.399  1.1324 -1.6194 -0.4712
   57MOL0     H 7859   0.751  12.138  11.258  0.5882 -1.4110 -1.0730
   57MOL0     H 7860   0.622  12.130  11.532  1.9030  2.3040 -0.3408
   57MOL0     H 7861   0.573  12.030  11.388 -0.5314  0.0171  0.1117
   57MOL0     H 7862   0.485  12.441  11.276  2.8817  0.9830 -2.7098
   57MOL0     H 7863   0.996  11.550  11.405  1.0023 -0.3343 -1.4133
   57MOL0     H 7864   1.092  11.344  11.348 -0.0786  2.4565 -1.1109
   57MOL0     H 7865   0.978  11.222  11.429 -1.9123  0.0322 -0.6972
   57MOL0     H 7866   1.023  11.207  11.263 -0.4908  0.2310 -0.5416
   58MOL0     O 7867   0.811  10.869   2.995  0.5842  0.2512  0.1945
   58MOL0     C 7868   0.868  10.810   2.910  0.5404  0.2284 -0.1485
   58MOL0     O 7869   0.818  10.710   2.838  0.9492 -0.3207 -0.3786
   58MOL0     C 7870   0.695  10.659   2.879 -0.2733  0.1870  0.1936
   58MOL0     C 7871   0.668  10.617   3.008  0.5428  0.8609 -0.0608
   58MOL0     C 7872   0.531  10.575   3.033 -0.5029 -0.2277 -0.4949
   58MOL0     C 7873   0.436  10.577   2.930 -0.3815 -0.6492 -0.0970
   58MOL0     O 7874   0.300  10.567   2.931  0.2267  0.6138  0.4798
   58MOL0     C 7875   0.240  10.518   3.054  0.1026 -0.7069 -0.1358
   58MOL0     C 7876   0.277  10.369   3.086 -0.1586 -1.2325  0.0271
   58MOL0     C 7877   0.204  10.316   3.220 -0.3426 -0.8090  0.3910
   58MOL0     C 7878   0.272  10.357   3.345  0.3630 -0.1448  0.7510
   58MOL0     C 7879   0.219  10.282   3.466 -0.5960  0.4500 -0.5852
   58MOL0     C 7880   0.302  10.292   3.595  0.2705  0.3606 -0.3677
   58MOL0     C 7881   0.241  10.258   3.725 -0.5046  0.5615 -0.6529
   58MOL0     C 7882   0.208  10.111   3.735  0.1305 -0.2824 -0.1422
   58MOL0     N 7883   0.070  10.074   3.700  0.2050 -0.6363 -1.1544
   58MOL0     C 7884  -0.046  10.145   3.738 -1.2601 -0.2102  0.3499
   58MOL0     C 7885  -0.149  10.066   3.686 -0.1906  0.0259  0.5882
   58MOL0     C 7886  -0.289  10.095   3.704  0.8062 -0.1636  0.0147
   58MOL0     C 7887  -0.313  10.243   3.757  0.3642 -0.5102 -0.4771
   58MOL0     C 7888  -0.462  10.270   3.758 -0.4393 -0.1773 -0.1454
   58MOL0     C 7889  -0.522  10.301   3.619 -0.9776 -0.8611 -0.6650
   58MOL0     O 7890  -0.647  10.363   3.627  0.3460 -0.2893  0.2848
   58MOL0     C 7891  -0.757  10.287   3.649 -0.1738  0.4446 -0.6455
   58MOL0     C 7892  -0.782  10.163   3.587  1.2901  0.2352 -0.1164
   58MOL0     C 7893  -0.885  10.071   3.633  0.1728  0.4500 -0.5886
   58MOL0     C 7894  -0.912   9.946   3.544 -0.4609  0.7702  0.2144
   58MOL0     C 7895  -0.977  10.120   3.724  0.0425 -0.1085  0.5776
   58MOL0     C 7896  -1.089  10.035   3.767 -0.5873  0.3216  0.0225
   58MOL0     O 7897  -1.062   9.897   3.799  0.1564  0.0302  0.2062
   58MOL0     C 7898  -1.172   9.817   3.849 -0.5550 -0.6418  0.4926
   58MOL0     C 7899  -1.279   9.776   3.765 -1.3335 -0.8741  0.8725
   58MOL0     C 7900  -1.395   9.710   3.811  0.9382 -0.3053 -0.3916
   58MOL0     C 7901  -1.399   9.693   3.955  0.0061  0.3833  0.5953
   58MOL0     O 7902  -1.511   9.638   4.023 -0.7602  0.4793 -0.7362
   58MOL0     C 7903  -1.614   9.574   3.944 -0.1791 -1.2925 -0.0800
   58MOL0     C 7904  -1.724   9.516   4.022 -0.6639  0.5689  0.0563
   58MOL0     C 7905  -1.783   9.622   4.123 -0.1415 -0.8620  0.0502
   58MOL0     C 7906  -1.940   9.603   4.149 -0.7240  0.1269  0.1663
   58MOL0     C 7907  -1.996   9.716   4.244  0.0109 -0.4615 -0.4095
   58MOL0     C 7908  -2.141   9.732   4.226  0.6392  0.0621  0.9692
   58MOL0     C 7909  -2.188   9.855   4.307  0.2226  0.2634  0.1768
   58MOL0     C 7910  -2.333   9.890   4.277  0.3080  0.3764 -0.9792
   58MOL0    Cl 7911  -2.469   9.788   4.341 -0.5887 -0.0003  0.3793
   58MOL0     C 7912  -1.289   9.730   4.037  0.3844  0.1885  0.8251
   58MOL0     C 7913  -1.183   9.793   3.984 -0.4802  0.5131  0.3217
   58MOL0     O 7914  -1.199  10.094   3.779 -0.1651 -0.0842 -0.4579
   58MOL0     C 7915  -0.961  10.243   3.781 -0.4443  0.2681 -0.9477
   58MOL0     C 7916  -0.848  10.324   3.749  0.2112  0.1155  0.2780
   58MOL0     N 7917  -0.101   9.962   3.610  0.6748 -0.1721 -0.1568
   58MOL0     N 7918   0.032   9.959   3.631 -0.2489  1.5659 -1.2411
   58MOL0     C 7919   0.480  10.612   2.797  0.2230 -0.3127  0.6246
   58MOL0     C 7920   0.613  10.646   2.770  0.3324  0.3896  1.3475
   58MOL0     C 7921   1.006  10.842   2.866 -0.5457 -0.4859 -0.0454
   58MOL0     C 7922   1.035  10.819   2.728 -0.0771 -1.1825 -1.1892
   58MOL0     C 7923   1.159  10.873   2.679 -0.1062 -1.0361  0.3357
   58MOL0     C 7924   1.248  10.948   2.768  0.3826  0.3322 -0.2805
   58MOL0     O 7925   1.353  11.019   2.715 -0.4403 -0.0424  0.1260
   58MOL0     C 7926   1.435  10.967   2.608  0.5128  0.9438  0.0757
   58MOL0     C 7927   1.575  10.933   2.667 -0.9756  0.2128  0.1432
   58MOL0     C 7928   1.641  11.042   2.749  0.0322 -0.5974  0.3872
   58MOL0     C 7929   1.587  11.092   2.885  0.5935 -0.0478  0.0128
   58MOL0     C 7930   1.541  10.979   2.963 -1.3506  0.1402 -0.1389
   58MOL0     C 7931   1.516  10.876   3.026 -0.5407  0.5785  0.6872
   58MOL0     C 7932   1.217  10.953   2.903 -0.2367 -0.2344  0.1794
   58MOL0     C 7933   1.100  10.903   2.958  0.5897 -0.4284 -0.7276
   58MOL0     C 7934   1.083  10.923   3.103  0.3884  1.1204  0.9007
   58MOL0     H 7935   0.745  10.606   3.084  3.1754 -3.0864 -2.8972
   58MOL0     H 7936   0.495  10.558   3.134 -0.0313  1.3176 -0.0445
   58MOL0     H 7937   0.130  10.524   3.054  0.1072 -0.2684  1.1228
   58MOL0     H 7938   0.258  10.588   3.136 -1.3537 -0.9062  0.3847
   58MOL0     H 7939   0.235  10.315   3.000 -6.0328  1.0650  1.0195
   58MOL0     H 7940   0.379  10.343   3.116 -1.3293 -4.7571  1.3872
   58MOL0     H 7941   0.106  10.365   3.223 -0.9890 -1.0650 -5.4104
   58MOL0     H 7942   0.202  10.207   3.218  0.4652 -0.8359 -2.2240
   58MOL0     H 7943   0.379  10.336   3.333  0.1943  0.0541 -1.5674
   58MOL0     H 7944   0.265  10.466   3.353  0.3436 -0.0239 -0.6678
   58MOL0     H 7945   0.197  10.179   3.438  1.0165  0.3241 -1.4842
   58MOL0     H 7946   0.118  10.321   3.485 -0.7922 -0.1317 -0.3992
   58MOL0     H 7947   0.393  10.234   3.577 -0.2935 -0.4124 -0.7754
   58MOL0     H 7948   0.325  10.398   3.611 -0.6562  0.3518  1.2167
   58MOL0     H 7949   0.147  10.310   3.742 -2.0109 -2.7591  2.4704
   58MOL0     H 7950   0.314  10.287   3.801 -2.3180  2.7003  0.3775
   58MOL0     H 7951   0.278  10.053   3.674  1.6909  2.9734 -1.7136
   58MOL0     H 7952   0.231  10.093   3.840 -0.8152 -3.2753 -0.3487
   58MOL0     H 7953  -0.059  10.241   3.787 -0.4108 -0.5655  1.3105
   58MOL0     H 7954  -0.336  10.028   3.776  1.2126 -0.1324  0.3082
   58MOL0     H 7955  -0.340  10.092   3.607  0.0246 -0.9003  0.4342
   58MOL0     H 7956  -0.282  10.252   3.861 -2.3970 -2.2193  0.5955
   58MOL0     H 7957  -0.266  10.325   3.702  0.8442  0.6683  1.5963
   58MOL0     H 7958  -0.526  10.188   3.794 -3.4318  1.7220 -0.7870
   58MOL0     H 7959  -0.468  10.360   3.820 -1.0372 -0.0081 -0.4440
   58MOL0     H 7960  -0.461  10.368   3.559 -3.7360  3.1861  0.6068
   58MOL0     H 7961  -0.538  10.210   3.561  0.0421 -0.6593 -1.2725
   58MOL0     H 7962  -0.717  10.125   3.509  1.8455  1.8157 -0.4545
   58MOL0     H 7963  -0.893   9.850   3.593  0.2608  0.8553  0.1137
   58MOL0     H 7964  -0.862   9.934   3.447  0.2991  0.0321  0.6925
   58MOL0     H 7965  -1.014   9.965   3.508 -0.7033  0.9069  0.9679
   58MOL0     H 7966  -1.270   9.804   3.660 -1.9196 -2.0873  0.4814
   58MOL0     H 7967  -1.471   9.670   3.746 -1.5358 -0.4949  2.3954
   58MOL0     H 7968  -1.661   9.648   3.877  0.3920 -1.5591 -0.7773
   58MOL0     H 7969  -1.568   9.498   3.881 -0.2684  0.4137 -2.3081
   58MOL0     H 7970  -1.793   9.474   3.947 -1.8682  2.5367 -0.0183
   58MOL0     H 7971  -1.701   9.424   4.077  1.2064  1.8190  1.4667
   58MOL0     H 7972  -1.771   9.724   4.086 -3.8977 -0.4098 -0.2754
   58MOL0     H 7973  -1.728   9.613   4.217  0.6965 -0.4259 -0.3923
   58MOL0     H 7974  -1.962   9.503   4.188 -2.6948  0.5337  0.2103
   58MOL0     H 7975  -2.001   9.604   4.058 -2.7695  2.8761  1.4512
   58MOL0     H 7976  -1.975   9.697   4.349  4.1591  0.2421 -0.9399
   58MOL0     H 7977  -1.944   9.808   4.215  4.3102 -1.5771  2.7575
   58MOL0     H 7978  -2.183   9.638   4.262  0.1773  0.5882  1.8471
   58MOL0     H 7979  -2.158   9.754   4.120  3.4218  0.3353  0.5074
   58MOL0     H 7980  -2.130   9.944   4.279  0.9409  0.5135  2.3145
   58MOL0     H 7981  -2.185   9.827   4.413  0.3151  1.0317  0.3807
   58MOL0     H 7982  -2.355   9.904   4.171  0.1990 -1.1877 -1.1761
   58MOL0     H 7983  -2.345   9.983   4.334 -1.3087 -0.8671  0.8295
   58MOL0     H 7984  -1.299   9.721   4.145  1.6226  2.3533  1.1799
   58MOL0     H 7985  -1.104   9.802   4.058  0.9021 -3.9719 -0.2905
   58MOL0     H 7986  -1.038  10.276   3.850 -0.9844 -0.9214 -0.9577
   58MOL0     H 7987  -0.863  10.412   3.811 -2.1003  1.4201 -1.9414
   58MOL0     H 7988   0.413  10.592   2.714  2.1042 -2.0362 -0.5705
   58MOL0     H 7989   0.655  10.657   2.670 -0.4481 -1.0070  0.8321
   58MOL0     H 7990   0.953  10.791   2.663 -2.3574 -0.0006  0.9904
   58MOL0     H 7991   1.184  10.866   2.574 -4.7057 -0.7583 -0.9858
   58MOL0     H 7992   1.394  10.877   2.560 -1.0296  1.3860  0.4981
   58MOL0     H 7993   1.433  11.032   2.519  0.6576 -2.1615 -2.3772
   58MOL0     H 7994   1.637  10.930   2.577 -3.4325  3.3633 -1.8718
   58MOL0     H 7995   1.579  10.840   2.723 -0.4675 -0.4783 -1.0029
   58MOL0     H 7996   1.740  11.000   2.771 -0.0427 -0.3412  1.2543
   58MOL0     H 7997   1.656  11.138   2.699  0.9082 -1.1876 -0.5321
   58MOL0     H 7998   1.508  11.165   2.869  0.8715  0.4484  0.7815
   58MOL0     H 7999   1.682  11.134   2.921  1.5232 -1.6111 -0.5275
   58MOL0     H 8000   1.489  10.787   3.079  1.4922  0.4577  1.5813
   58MOL0     H 8001   1.278  11.003   2.978 -1.1490 -0.9314  1.4178
   58MOL0     H 8002   1.113  10.828   3.149 -0.4418 -0.7182 -2.0515
   58MOL0     H 8003   1.152  11.001   3.134  2.0574  0.4010 -0.7855
   58MOL0     H 8004   0.980  10.953   3.126 -0.7508 -1.7395 -0.0397
   59MOL0     O 8005   1.061   1.360   4.378  0.4587 -0.4600  0.1480
   59MOL0     C 8006   1.038   1.260   4.320  0.3109 -0.5520 -0.1269
   59MOL0     O 8007   1.120   1.166   4.311  0.1215  0.4187 -0.2996
   59MOL0     C 8008   1.253   1.184   4.350 -0.2573 -0.0517 -0.1844
   59MOL0     C 8009   1.343   1.254   4.265  0.6195 -0.3279  0.2717
   59MOL0     C 8010   1.473   1.276   4.310  0.1598  1.1609 -0.1232
   59MOL0     C 8011   1.515   1.228   4.435  0.4939 -0.2058  0.5712
   59MOL0     O 8012   1.645   1.248   4.470 -0.5723 -0.2543  0.1896
   59MOL0     C 8013   1.703   1.222   4.601  0.4878 -0.1873 -0.2322
   59MOL0     C 8014   1.793   1.093   4.614  0.5115 -0.0375 -1.3229
   59MOL0     C 8015   1.925   1.092   4.543 -0.7042  0.7624  0.1081
   59MOL0     C 8016   2.002   0.958   4.563 -0.6605  0.3509  0.6370
   59MOL0     C 8017   2.018   0.916   4.708  0.0385 -0.9635 -0.2006
   59MOL0     C 8018   2.154   0.851   4.728 -1.0666  0.0687 -0.2192
   59MOL0     C 8019   2.288   0.934   4.697 -0.2302  0.3599  0.0057
   59MOL0     C 8020   2.408   0.929   4.802  0.5302 -0.7548  0.4072
   59MOL0     N 8021   2.506   0.831   4.767  0.2999  0.1257  0.4223
   59MOL0     C 8022   2.465   0.703   4.762  0.1626  0.6852 -0.5054
   59MOL0     C 8023   2.579   0.633   4.779 -0.6756  0.4728 -0.5231
   59MOL0     C 8024   2.597   0.483   4.786 -1.2896 -0.2829  0.3482
   59MOL0     C 8025   2.474   0.414   4.843  0.1667 -0.4092  0.5369
   59MOL0     C 8026   2.484   0.409   5.000 -0.5416 -0.2689  0.3707
   59MOL0     C 8027   2.382   0.314   5.050  0.3078 -0.6422  0.4919
   59MOL0     O 8028   2.243   0.352   5.030  1.1164  0.3526  0.5237
   59MOL0     C 8029   2.176   0.440   5.116  0.9529  0.6400 -0.2551
   59MOL0     C 8030   2.073   0.514   5.060  0.5367  0.6444 -0.8207
   59MOL0     C 8031   2.001   0.604   5.134 -1.4552  0.4101 -0.5553
   59MOL0     C 8032   1.910   0.693   5.059  0.1561  0.1488 -0.9257
   59MOL0     C 8033   2.037   0.624   5.273 -0.5011 -0.4912 -0.4391
   59MOL0     C 8034   1.973   0.715   5.368  0.5029 -0.4684  0.0572
   59MOL0     O 8035   2.023   0.718   5.492 -0.6163  0.4334 -0.2254
   59MOL0     C 8036   2.042   0.829   5.563 -0.8181  0.4137 -0.0463
   59MOL0     C 8037   2.035   0.813   5.696  0.5426 -0.8947 -0.9613
   59MOL0     C 8038   2.071   0.909   5.789  0.0326 -1.1379  0.3189
   59MOL0     C 8039   2.110   1.033   5.739 -0.3717  0.8201  0.9146
   59MOL0     O 8040   2.147   1.121   5.839 -0.5577  0.0889  0.3768
   59MOL0     C 8041   2.192   1.261   5.805  0.3256  0.0433 -0.0620
   59MOL0     C 8042   2.078   1.349   5.786  0.3832  0.0814 -1.0147
   59MOL0     C 8043   2.111   1.493   5.758 -0.1267 -0.0616 -0.2695
   59MOL0     C 8044   1.979   1.569   5.762 -0.8528  1.5297 -0.3660
   59MOL0     C 8045   2.003   1.706   5.700  0.0088 -0.3036 -0.4200
   59MOL0     C 8046   1.867   1.772   5.676  0.9618 -0.0384 -0.5072
   59MOL0     C 8047   1.886   1.913   5.610  0.0029  0.0065 -0.3710
   59MOL0     C 8048   1.752   1.978   5.570 -0.7715  0.1040  0.0436
   59MOL0    Cl 8049   1.638   1.989   5.718  0.5613 -0.3544 -0.6516
   59MOL0     C 8050   2.125   1.051   5.601  0.1781 -0.3676  0.0145
   59MOL0     C 8051   2.095   0.946   5.514 -0.1188  0.5864 -0.0823
   59MOL0     O 8052   1.878   0.780   5.341  0.6872  0.3616 -1.1912
   59MOL0     C 8053   2.143   0.545   5.327  0.1129 -0.3772 -0.4794
   59MOL0     C 8054   2.199   0.448   5.256  0.7481 -0.2723 -0.2476
   59MOL0     N 8055   2.694   0.718   4.777 -0.3989  0.7284 -0.1129
   59MOL0     N 8056   2.641   0.841   4.764 -0.2846  0.7645 -0.1933
   59MOL0     C 8057   1.419   1.163   4.521  0.4347 -0.9397 -0.3377
   59MOL0     C 8058   1.291   1.131   4.471 -0.5276  1.2114 -0.6219
   59MOL0     C 8059   0.890   1.235   4.286 -1.1185 -0.4211 -0.4958
   59MOL0     C 8060   0.841   1.110   4.270 -0.4464  0.8213  0.5747
   59MOL0     C 8061   0.710   1.074   4.219  0.4523  0.1383  0.1709
   59MOL0     C 8062   0.629   1.191   4.200 -0.4536  1.1340 -1.1277
   59MOL0     O 8063   0.490   1.177   4.177 -0.2788 -0.6575  0.0881
   59MOL0     C 8064   0.444   1.161   4.043 -0.2649  0.5347  0.3928
   59MOL0     C 8065   0.334   1.061   4.035 -0.1635 -0.4534  1.2582
   59MOL0     C 8066   0.382   0.922   4.062 -0.0746  0.8042 -0.0257
   59MOL0     C 8067   0.351   0.875   4.203 -0.2950 -0.5635 -0.3324
   59MOL0     C 8068   0.349   0.724   4.221  0.3559 -0.3364  0.3256
   59MOL0     C 8069   0.348   0.601   4.221  0.1449 -0.4223 -0.2609
   59MOL0     C 8070   0.677   1.323   4.212  0.1407 -0.4351  0.8800
   59MOL0     C 8071   0.799   1.342   4.266 -0.3921  0.0868  0.4328
   59MOL0     C 8072   0.836   1.486   4.254  0.0028 -0.5945  0.1288
   59MOL0     H 8073   1.314   1.295   4.169  1.2639  2.3770  1.1298
   59MOL0     H 8074   1.540   1.337   4.252 -1.0689  1.5234 -1.2072
   59MOL0     H 8075   1.631   1.204   4.681 -0.7629 -0.6649 -1.4274
   59MOL0     H 8076   1.771   1.306   4.618  1.2405 -0.8695  0.2026
   59MOL0     H 8077   1.808   1.074   4.721 -0.4156 -2.0770 -1.4935
   59MOL0     H 8078   1.732   1.010   4.576 -2.2087 -0.2558  2.8672
   59MOL0     H 8079   1.883   1.078   4.443 -1.7947  0.5080  0.5906
   59MOL0     H 8080   1.981   1.186   4.540 -0.7040  0.7489 -0.3581
   59MOL0     H 8081   1.948   0.874   4.520 -2.9148  2.9766 -2.1304
   59MOL0     H 8082   2.103   0.971   4.523  0.1228 -0.2087  2.3420
   59MOL0     H 8083   1.937   0.850   4.740 -2.0281 -0.1048 -3.2166
   59MOL0     H 8084   2.010   1.008   4.768 -0.3552  1.3780 -3.5432
   59MOL0     H 8085   2.161   0.841   4.836 -2.6003  0.6561 -0.0518
   59MOL0     H 8086   2.172   0.752   4.685  1.4477  0.8372 -1.1382
   59MOL0     H 8087   2.267   1.041   4.684 -0.0685  0.1181 -3.1149
   59MOL0     H 8088   2.322   0.912   4.595 -0.7781 -0.4431 -0.0172
   59MOL0     H 8089   2.449   1.030   4.795 -4.1136  1.2772 -2.5745
   59MOL0     H 8090   2.359   0.923   4.899 -2.4164 -1.8448 -1.0167
   59MOL0     H 8091   2.365   0.663   4.763  0.5121 -0.2207 -1.1920
   59MOL0     H 8092   2.685   0.458   4.847 -0.1994  1.9020 -0.2498
   59MOL0     H 8093   2.613   0.450   4.683 -1.5073  1.9272 -0.4285
   59MOL0     H 8094   2.379   0.461   4.816 -0.1572 -0.7276  1.0943
   59MOL0     H 8095   2.477   0.317   4.793  1.5655 -1.4386  2.4800
   59MOL0     H 8096   2.584   0.377   5.034 -0.1297  0.9625  0.3414
   59MOL0     H 8097   2.463   0.508   5.041  0.0085 -0.0691  0.1829
   59MOL0     H 8098   2.394   0.221   4.994 -1.1047 -0.0138 -0.9172
   59MOL0     H 8099   2.399   0.301   5.157 -0.2126  2.8150  1.1039
   59MOL0     H 8100   2.039   0.503   4.958  0.0225  0.8258 -0.6716
   59MOL0     H 8101   1.891   0.672   4.954  1.0551 -2.0447 -0.6984
   59MOL0     H 8102   1.933   0.799   5.073 -0.5553  0.4026 -1.5879
   59MOL0     H 8103   1.812   0.685   5.108  0.4079 -2.4602 -0.7213
   59MOL0     H 8104   2.014   0.716   5.739  0.5796 -1.7751 -2.8155
   59MOL0     H 8105   2.058   0.901   5.897 -0.1200  0.6629  0.4651
   59MOL0     H 8106   2.261   1.290   5.885  1.4960 -0.3314 -0.9099
   59MOL0     H 8107   2.251   1.256   5.713  3.6130 -2.3061  1.9688
   59MOL0     H 8108   2.002   1.305   5.721 -0.4460 -1.6315  0.9934
   59MOL0     H 8109   2.044   1.341   5.889 -0.9601 -1.1038 -1.5221
   59MOL0     H 8110   2.177   1.500   5.671 -1.1538  0.6392 -1.0283
   59MOL0     H 8111   2.179   1.526   5.836  0.3985 -2.3238  0.2861
   59MOL0     H 8112   1.941   1.573   5.864  2.1652 -0.9703  1.0401
   59MOL0     H 8113   1.904   1.515   5.703  0.0535 -0.3079  0.0886
   59MOL0     H 8114   2.048   1.779   5.768  0.3201  2.0015 -2.8917
   59MOL0     H 8115   2.067   1.690   5.612  1.6215 -3.8771  1.2269
   59MOL0     H 8116   1.838   1.767   5.782  1.5760 -5.3085 -0.3528
   59MOL0     H 8117   1.797   1.712   5.618 -0.2004 -1.8279  2.5104
   59MOL0     H 8118   1.957   1.901   5.528 -0.1876 -1.8060 -0.3110
   59MOL0     H 8119   1.932   1.980   5.684  0.3755 -0.1587 -0.4517
   59MOL0     H 8120   1.696   1.930   5.489  1.0705 -2.3057  0.0506
   59MOL0     H 8121   1.771   2.081   5.540  0.9051 -0.1720  0.0632
   59MOL0     H 8122   2.165   1.142   5.558  2.1265 -0.8660  0.6686
   59MOL0     H 8123   2.105   0.981   5.412 -0.2902  2.4506  0.4943
   59MOL0     H 8124   2.180   0.535   5.429  1.6790 -3.6112 -1.2262
   59MOL0     H 8125   2.249   0.371   5.313 -1.3128  0.3983  2.6940
   59MOL0     H 8126   1.445   1.120   4.617  1.7456  2.9169  1.2143
   59MOL0     H 8127   1.217   1.087   4.537  1.6865  0.5764  1.6271
   59MOL0     H 8128   0.901   1.020   4.281 -2.2031 -0.2889  1.4886
   59MOL0     H 8129   0.670   0.975   4.197 -0.1303  0.6046 -0.9690
   59MOL0     H 8130   0.414   1.262   4.015 -1.2400  1.4233  4.0409
   59MOL0     H 8131   0.524   1.139   3.972  0.7222  1.8679  1.0559
   59MOL0     H 8132   0.304   1.081   3.932  1.1789 -0.4725  0.8410
   59MOL0     H 8133   0.262   1.092   4.111 -0.5216  2.5155 -0.1513
   59MOL0     H 8134   0.335   0.853   3.992  0.3013 -1.3039  1.6990
   59MOL0     H 8135   0.488   0.916   4.033 -0.0610 -1.2168  0.2621
   59MOL0     H 8136   0.255   0.913   4.241 -0.2187 -1.4269  0.7877
   59MOL0     H 8137   0.420   0.922   4.274 -1.6664  1.7065 -0.4022
   59MOL0     H 8138   0.370   0.497   4.211  1.9063 -0.3634  2.0214
   59MOL0     H 8139   0.607   1.399   4.179  1.0596 -0.4654 -1.2327
   59MOL0     H 8140   0.741   1.539   4.252 -0.6200 -1.7001 -0.0703
   59MOL0     H 8141   0.900   1.522   4.336 -1.1395  0.8760  0.4176
   59MOL0     H 8142   0.897   1.491   4.163  0.5704 -0.3694  0.5153
   60MOL0     O 8143   3.336   9.180   0.888  0.6615 -0.0927  0.2788
   60MOL0     C 8144   3.448   9.189   0.840  0.5495 -0.5586 -0.1347
   60MOL0     O 8145   3.565   9.207   0.910  0.4915  0.4704  1.3158
   60MOL0     C 8146   3.572   9.293   1.019 -0.1762 -0.8884 -0.0929
   60MOL0     C 8147   3.504   9.412   1.028  0.0281  0.0483 -0.8885
   60MOL0     C 8148   3.535   9.502   1.135 -0.6643  0.4344 -0.4053
   60MOL0     C 8149   3.639   9.472   1.226  0.7561  0.1813 -0.2762
   60MOL0     O 8150   3.664   9.571   1.313  0.6807 -0.2978 -0.5458
   60MOL0     C 8151   3.707   9.541   1.447  0.2632  0.6124 -0.0103
   60MOL0     C 8152   3.815   9.631   1.501  0.1631  0.0881  0.1191
   60MOL0     C 8153   3.866   9.576   1.635  0.0240  0.1818  0.1209
   60MOL0     C 8154   3.899   9.692   1.726 -0.3202 -0.4179  0.4412
   60MOL0     C 8155   3.906   9.656   1.866  0.1730 -0.0034 -0.6596
   60MOL0     C 8156   3.765   9.634   1.928 -0.6156  0.0208 -0.2534
   60MOL0     C 8157   3.792   9.575   2.078 -0.4143 -1.4790 -0.4077
   60MOL0     C 8158   3.684   9.619   2.181 -0.2091 -0.3239 -0.7618
   60MOL0     N 8159   3.724   9.645   2.321 -1.2714  0.3178 -0.1298
   60MOL0     C 8160   3.712   9.765   2.384 -0.3360  0.1217  0.3142
   60MOL0     C 8161   3.750   9.743   2.503 -0.3369 -1.2250 -0.9634
   60MOL0     C 8162   3.747   9.848   2.604 -0.5849  0.8154 -0.2583
   60MOL0     C 8163   3.880   9.898   2.656  0.4788  0.1976  0.0063
   60MOL0     C 8164   3.845   9.957   2.788 -0.4529 -0.2581 -0.6421
   60MOL0     C 8165   3.967   9.988   2.865 -0.7124 -0.3942 -0.3401
   60MOL0     O 8166   3.941  10.109   2.943 -0.3665 -0.3187 -0.0546
   60MOL0     C 8167   4.026  10.129   3.049 -0.9928  0.8634  0.4091
   60MOL0     C 8168   4.058  10.031   3.139 -0.1122 -0.0403 -0.0497
   60MOL0     C 8169   4.138  10.054   3.253  0.4333  0.5980 -0.0175
   60MOL0     C 8170   4.153   9.931   3.347  0.4955 -0.1818 -1.1068
   60MOL0     C 8171   4.187  10.187   3.277 -0.0012 -0.2351  0.3132
   60MOL0     C 8172   4.253  10.230   3.401 -0.0223 -0.5539 -0.6778
   60MOL0     O 8173   4.192  10.335   3.460  0.4214  0.3937 -0.5162
   60MOL0     C 8174   4.247  10.413   3.563 -0.1132  0.4107 -0.5115
   60MOL0     C 8175   4.154  10.494   3.633 -0.4488  0.1430  1.1131
   60MOL0     C 8176   4.199  10.587   3.729 -0.0525 -0.5568 -0.3191
   60MOL0     C 8177   4.342  10.602   3.759  0.0934 -0.0301  0.1179
   60MOL0     O 8178   4.389  10.680   3.862 -0.0535 -0.3476  0.8986
   60MOL0     C 8179   4.309  10.729   3.966  0.0768 -0.2513 -0.1954
   60MOL0     C 8180   4.390  10.788   4.073  0.0108 -0.6678 -0.4696
   60MOL0     C 8181   4.505  10.881   4.032 -0.3460  0.8462  0.2086
   60MOL0     C 8182   4.618  10.849   4.126 -0.7117 -0.5753 -0.0200
   60MOL0     C 8183   4.748  10.927   4.109  0.7168 -0.1993  0.6840
   60MOL0     C 8184   4.864  10.876   4.194 -0.2366 -0.1579  0.7432
   60MOL0     C 8185   4.955  10.995   4.229  0.6844  0.2596  0.3894
   60MOL0     C 8186   5.026  11.043   4.113  0.6725 -0.7096 -0.1259
   60MOL0    Cl 8187   5.148  10.932   4.040 -0.2296  0.2014  0.6300
   60MOL0     C 8188   4.430  10.522   3.693 -0.0332  0.9040 -0.3354
   60MOL0     C 8189   4.382  10.425   3.608  0.5855  0.1197  0.4145
   60MOL0     O 8190   4.342  10.158   3.441 -0.6240  0.3324 -0.2404
   60MOL0     C 8191   4.165  10.295   3.184 -0.2553  0.3201  0.3619
   60MOL0     C 8192   4.092  10.249   3.066  0.3174 -0.1549 -0.3591
   60MOL0     N 8193   3.797   9.613   2.517  0.7425  0.0960  0.1123
   60MOL0     N 8194   3.766   9.546   2.401  0.5288  0.5261  0.1305
   60MOL0     C 8195   3.703   9.353   1.217 -0.0565  0.5824 -0.1878
   60MOL0     C 8196   3.656   9.261   1.124 -0.0113 -0.4062  0.6900
   60MOL0     C 8197   3.458   9.165   0.697  0.1969  0.4950  0.1295
   60MOL0     C 8198   3.568   9.079   0.659 -0.0375 -0.4309 -0.1751
   60MOL0     C 8199   3.578   9.045   0.524  0.4436 -0.7356  0.7279
   60MOL0     C 8200   3.490   9.085   0.421  0.2198  0.0848 -0.0502
   60MOL0     O 8201   3.505   9.043   0.289 -0.2240 -0.5328 -0.2717
   60MOL0     C 8202   3.491   9.155   0.190  0.0332  0.0871 -0.8226
   60MOL0     C 8203   3.576   9.132   0.063  0.0486  0.2049 -0.7182
   60MOL0     C 8204   3.542   8.998  -0.015  0.1008 -0.1062 -0.3770
   60MOL0     C 8205   3.400   8.986  -0.066 -0.5784  0.4130  0.2249
   60MOL0     C 8206   3.367   9.100  -0.143  0.8073 -0.2719 -0.5117
   60MOL0     C 8207   3.344   9.198  -0.214  0.6870 -0.4824 -1.1523
   60MOL0     C 8208   3.382   9.164   0.464 -0.6059 -0.4542 -1.2026
   60MOL0     C 8209   3.363   9.207   0.600 -0.9160 -0.6456 -0.6580
   60MOL0     C 8210   3.252   9.298   0.631  0.5268 -0.5134  0.1099
   60MOL0     H 8211   3.429   9.442   0.955  1.2576 -1.5037 -2.8532
   60MOL0     H 8212   3.507   9.605   1.157  3.3407  1.7096 -0.2946
   60MOL0     H 8213   3.740   9.437   1.454 -1.2991  0.0686 -0.2928
   60MOL0     H 8214   3.621   9.551   1.513  0.2220  0.5999 -0.0620
   60MOL0     H 8215   3.895   9.624   1.427  0.1511 -1.3672  0.2195
   60MOL0     H 8216   3.772   9.732   1.504 -0.8879 -0.2649 -1.6739
   60MOL0     H 8217   3.794   9.518   1.693 -0.3308 -0.1280 -0.6177
   60MOL0     H 8218   3.956   9.515   1.622 -0.9435 -1.0647 -1.0158
   60MOL0     H 8219   3.985   9.746   1.686 -1.5095  0.6075 -0.8023
   60MOL0     H 8220   3.824   9.771   1.709  3.0260  2.0963 -7.0563
   60MOL0     H 8221   3.969   9.723   1.925  1.7435 -3.6675  2.2529
   60MOL0     H 8222   3.969   9.570   1.893  0.1746 -0.0441 -0.7868
   60MOL0     H 8223   3.733   9.739   1.935  1.3093  0.7215 -1.0292
   60MOL0     H 8224   3.706   9.567   1.865  0.6459 -1.3492 -0.0283
   60MOL0     H 8225   3.879   9.634   2.109 -0.9269 -0.9371  0.0299
   60MOL0     H 8226   3.794   9.466   2.087 -1.4297 -1.4627  0.1627
   60MOL0     H 8227   3.626   9.704   2.145 -2.8003 -1.2085  0.9817
   60MOL0     H 8228   3.608   9.541   2.170 -0.6995  0.4231 -3.2769
   60MOL0     H 8229   3.668   9.861   2.356  3.3671  3.8827  5.3663
   60MOL0     H 8230   3.696   9.802   2.689 -0.5600 -1.2790 -1.3309
   60MOL0     H 8231   3.691   9.939   2.579  3.3314  3.5591  0.0085
   60MOL0     H 8232   3.951   9.816   2.669 -0.5243 -0.5199  1.2660
   60MOL0     H 8233   3.920   9.979   2.594  0.2196  2.0015  2.1012
   60MOL0     H 8234   3.785  10.048   2.787 -1.8278 -1.0950  1.0863
   60MOL0     H 8235   3.791   9.882   2.846 -1.1902  2.3465  2.2731
   60MOL0     H 8236   3.975   9.899   2.928 -4.1058 -0.9725 -0.5555
   60MOL0     H 8237   4.058   9.998   2.804  0.5384 -1.3981  1.2746
   60MOL0     H 8238   4.006   9.936   3.131 -0.5367  0.2291 -0.5162
   60MOL0     H 8239   4.092   9.846   3.317 -1.8089  0.6952  0.7022
   60MOL0     H 8240   4.123   9.957   3.449  0.0701 -0.8612 -1.0558
   60MOL0     H 8241   4.257   9.898   3.344  0.6945  0.3917 -0.8197
   60MOL0     H 8242   4.048  10.484   3.611 -1.0637 -2.2995  4.3763
   60MOL0     H 8243   4.129  10.661   3.766  0.6923  0.8126 -1.5483
   60MOL0     H 8244   4.249  10.814   3.931 -0.1784 -1.7086 -3.7539
   60MOL0     H 8245   4.237  10.658   4.009  0.6554 -1.4037 -1.0774
   60MOL0     H 8246   4.321  10.821   4.151  2.6097  0.9599  1.2739
   60MOL0     H 8247   4.432  10.697   4.116  1.0373  0.0333  0.0558
   60MOL0     H 8248   4.479  10.987   4.038  1.4300  1.2655  0.9802
   60MOL0     H 8249   4.535  10.872   3.927  1.1417  0.5421  0.6465
   60MOL0     H 8250   4.645  10.743   4.118 -0.9553 -0.6503  0.1645
   60MOL0     H 8251   4.580  10.871   4.226  0.9464  1.3105  0.2576
   60MOL0     H 8252   4.773  10.921   4.002  0.8755 -3.6429  0.8241
   60MOL0     H 8253   4.716  11.030   4.126  0.9448  0.2841 -1.4267
   60MOL0     H 8254   4.916  10.803   4.132 -3.8777 -1.4223 -1.1023
   60MOL0     H 8255   4.826  10.824   4.282 -0.7310 -1.2192 -0.0858
   60MOL0     H 8256   5.025  10.960   4.305  2.9021  2.0866 -0.6684
   60MOL0     H 8257   4.892  11.071   4.276 -2.2930 -0.4557 -2.0827
   60MOL0     H 8258   5.084  11.131   4.141 -1.2716  1.3446 -2.0734
   60MOL0     H 8259   4.965  11.081   4.030  0.3806  0.3123  0.5475
   60MOL0     H 8260   4.534  10.521   3.725 -0.7213 -1.2403  2.2116
   60MOL0     H 8261   4.453  10.355   3.564 -0.9192 -1.6351  0.6503
   60MOL0     H 8262   4.194  10.395   3.213 -0.1935 -0.1391  1.9966
   60MOL0     H 8263   4.063  10.326   2.996  2.7334  3.5294  2.3228
   60MOL0     H 8264   3.778   9.320   1.288  0.0477  0.2084 -0.4663
   60MOL0     H 8265   3.711   9.168   1.121  0.0645 -0.3737  1.0581
   60MOL0     H 8266   3.617   9.026   0.740 -1.2054 -0.2392  0.6745
   60MOL0     H 8267   3.652   8.967   0.505 -1.7345 -2.3262 -2.0066
   60MOL0     H 8268   3.388   9.178   0.162  0.1922 -0.0234 -1.5166
   60MOL0     H 8269   3.531   9.249   0.229  2.4495 -1.6307  1.2228
   60MOL0     H 8270   3.682   9.138   0.089 -0.3046  0.5201  0.7311
   60MOL0     H 8271   3.554   9.218  -0.001 -1.6033 -0.2803 -0.8501
   60MOL0     H 8272   3.611   9.003  -0.099 -0.1551  2.8692 -0.5184
   60MOL0     H 8273   3.566   8.919   0.057 -2.4500 -1.5265 -0.9626
   60MOL0     H 8274   3.323   8.983   0.013 -2.3310  1.6736 -1.3603
   60MOL0     H 8275   3.407   8.893  -0.124 -0.4506  0.8307 -0.4305
   60MOL0     H 8276   3.308   9.287  -0.263 -1.1236  0.6608  1.9826
   60MOL0     H 8277   3.299   9.200   0.403  1.5924  2.4040 -2.7056
   60MOL0     H 8278   3.243   9.384   0.564  1.0730  1.7394  2.7610
   60MOL0     H 8279   3.155   9.246   0.639  0.0871  0.3968  0.8531
   60MOL0     H 8280   3.267   9.346   0.728  0.4827 -0.4158  0.0685
   61MOL0     O 8281   9.023   3.987   9.232 -0.3861 -0.2109  0.9460
   61MOL0     C 8282   9.099   3.983   9.138 -1.1123  0.2699 -0.3428
   61MOL0     O 8283   9.244   3.968   9.150  0.1581 -0.4949 -0.5509
   61MOL0     C 8284   9.298   3.962   9.278  0.8542 -0.5559 -0.4871
   61MOL0     C 8285   9.329   3.834   9.325 -0.3671 -1.2507 -0.8928
   61MOL0     C 8286   9.377   3.807   9.464  0.1733  0.7835  0.1004
   61MOL0     C 8287   9.369   3.915   9.552 -0.6512 -0.7442  0.4137
   61MOL0     O 8288   9.408   3.905   9.684 -0.3636  0.6353  0.0764
   61MOL0     C 8289   9.366   3.787   9.761 -0.2882  0.2516 -0.0119
   61MOL0     C 8290   9.474   3.783   9.863  0.1503 -1.3705 -0.5168
   61MOL0     C 8291   9.450   3.678   9.970 -1.2355  0.3101 -0.5557
   61MOL0     C 8292   9.576   3.671  10.074 -0.6104  0.0866  1.2111
   61MOL0     C 8293   9.537   3.608  10.203  0.2307  0.4199  0.3035
   61MOL0     C 8294   9.639   3.627  10.309  0.0550  0.0647 -1.0426
   61MOL0     C 8295   9.632   3.501  10.415  0.0750 -0.1190 -0.2346
   61MOL0     C 8296   9.740   3.517  10.530 -0.4141  0.2223 -0.7499
   61MOL0     N 8297   9.761   3.402  10.610  0.3107  1.0320 -0.8627
   61MOL0     C 8298   9.677   3.291  10.623  0.0486 -0.8209  0.0767
   61MOL0     C 8299   9.752   3.204  10.701  0.1525  0.6862  1.3266
   61MOL0     C 8300   9.710   3.077  10.746  0.3230 -0.0670  0.3581
   61MOL0     C 8301   9.747   2.960  10.655  0.2287  0.8217  0.4258
   61MOL0     C 8302   9.673   2.965  10.524  1.2938  0.5578 -0.0236
   61MOL0     C 8303   9.671   2.822  10.452  0.5908  0.2243 -0.3201
   61MOL0     O 8304   9.580   2.728  10.502 -0.4412  0.3084  0.1131
   61MOL0     C 8305   9.617   2.599  10.473  0.3350  0.5638 -0.1132
   61MOL0     C 8306   9.717   2.533  10.549  0.8388  0.3623 -0.1740
   61MOL0     C 8307   9.770   2.414  10.498 -0.4542  0.5032 -0.1960
   61MOL0     C 8308   9.880   2.342  10.586  0.3676 -0.5330  0.7391
   61MOL0     C 8309   9.718   2.355  10.373 -0.5236  0.1546 -1.4073
   61MOL0     C 8310   9.770   2.229  10.300  1.0667  0.5057 -0.1632
   61MOL0     O 8311   9.890   2.183  10.352 -0.5402 -0.4833 -0.0381
   61MOL0     C 8312   9.930   2.055  10.322  0.3852 -0.5029 -0.3439
   61MOL0     C 8313  10.001   1.989  10.422  0.5870  0.4593 -0.1133
   61MOL0     C 8314  10.064   1.869  10.395 -0.6352 -0.1571  0.4731
   61MOL0     C 8315  10.078   1.822  10.261  0.0458 -0.3114  0.4680
   61MOL0     O 8316  10.152   1.716  10.218 -0.6338  0.4699  0.1410
   61MOL0     C 8317  10.176   1.605  10.302 -0.4126 -0.2461  0.1968
   61MOL0     C 8318  10.273   1.500  10.245 -0.0578 -0.2151  0.1450
   61MOL0     C 8319  10.415   1.539  10.255 -0.2041  0.8471 -0.4556
   61MOL0     C 8320  10.529   1.437  10.223  0.8529  0.4316  0.0179
   61MOL0     C 8321  10.504   1.320  10.332  0.7975 -0.2644  0.0848
   61MOL0     C 8322  10.491   1.197  10.250  0.8034  0.0403 -0.4759
   61MOL0     C 8323  10.630   1.146  10.197  0.3478  0.4245  0.1770
   61MOL0     C 8324  10.628   1.016  10.120 -0.7292 -1.2577  0.4752
   61MOL0    Cl 8325  10.563   1.046   9.957 -0.2431 -0.0371  0.1801
   61MOL0     C 8326  10.001   1.885  10.155 -0.1878 -0.4422  0.0111
   61MOL0     C 8327   9.926   1.997  10.196  0.4358  0.2235 -0.0983
   61MOL0     O 8328   9.683   2.159  10.246 -0.1978  0.5982 -0.0691
   61MOL0     C 8329   9.617   2.428  10.306 -0.9831 -0.6128  1.0809
   61MOL0     C 8330   9.567   2.553  10.348 -0.4322  0.4941 -0.1149
   61MOL0     N 8331   9.873   3.263  10.729  0.9926 -0.8367 -0.4812
   61MOL0     N 8332   9.878   3.382  10.672 -1.1928 -0.4879  0.6342
   61MOL0     C 8333   9.336   4.045   9.506  0.0317 -0.1173  0.2483
   61MOL0     C 8334   9.299   4.069   9.370 -0.7667 -0.7670 -0.5298
   61MOL0     C 8335   9.053   3.972   8.996 -0.3878 -0.9904  0.1533
   61MOL0     C 8336   8.976   4.077   8.947  0.0495 -0.1794 -0.3617
   61MOL0     C 8337   8.931   4.077   8.812  0.0162 -0.2845 -0.5053
   61MOL0     C 8338   8.959   3.975   8.731  0.3599  0.3731  0.1392
   61MOL0     O 8339   8.919   3.984   8.603  0.7250 -0.0221  0.0164
   61MOL0     C 8340   8.993   4.074   8.516  0.9222 -0.0876 -0.7380
   61MOL0     C 8341   9.126   4.026   8.476 -0.3473 -0.9947  0.6737
   61MOL0     C 8342   9.098   3.899   8.404  0.4228 -0.6605  0.2189
   61MOL0     C 8343   9.226   3.829   8.335 -0.7998 -1.0640  0.4408
   61MOL0     C 8344   9.305   3.760   8.436  0.2275 -0.6911 -0.2680
   61MOL0     C 8345   9.349   3.688   8.520 -0.4773  0.1045 -0.2702
   61MOL0     C 8346   9.017   3.856   8.783  0.0368 -0.8199 -0.0011
   61MOL0     C 8347   9.076   3.859   8.915 -0.5189 -0.1376 -0.4562
   61MOL0     C 8348   9.191   3.759   8.952 -0.2608 -0.6133  0.2756
   61MOL0     H 8349   9.329   3.754   9.252  0.5078 -0.8491 -1.3536
   61MOL0     H 8350   9.401   3.709   9.505  2.0099  2.6795  4.0924
   61MOL0     H 8351   9.357   3.695   9.703  1.0664 -0.7832  1.3539
   61MOL0     H 8352   9.272   3.803   9.815  1.2024  2.3826  2.1218
   61MOL0     H 8353   9.570   3.756   9.818  0.6064  0.6159 -0.8332
   61MOL0     H 8354   9.492   3.875   9.919 -2.6346 -1.5024  0.7481
   61MOL0     H 8355   9.367   3.713  10.032  1.2294  4.0157  1.0402
   61MOL0     H 8356   9.439   3.580   9.923 -1.0299 -0.1947  0.4112
   61MOL0     H 8357   9.662   3.628  10.023 -1.3596 -0.3029  0.2644
   61MOL0     H 8358   9.618   3.766  10.109  4.4168 -0.9365 -1.1275
   61MOL0     H 8359   9.541   3.500  10.182 -1.3371  0.3411  0.3227
   61MOL0     H 8360   9.444   3.649  10.242 -1.9910 -0.4937 -3.6042
   61MOL0     H 8361   9.735   3.624  10.257  0.4532 -1.8991 -0.2839
   61MOL0     H 8362   9.638   3.725  10.358  0.0195 -0.4773  0.0928
   61MOL0     H 8363   9.629   3.405  10.362 -0.5303 -0.2741  0.0756
   61MOL0     H 8364   9.534   3.516  10.460 -0.7839  2.6228 -2.7285
   61MOL0     H 8365   9.838   3.549  10.493  0.9067  1.0899  3.0013
   61MOL0     H 8366   9.710   3.600  10.596 -0.3894 -0.9234  0.7427
   61MOL0     H 8367   9.572   3.283  10.599 -0.5180 -0.7118  2.3061
   61MOL0     H 8368   9.601   3.085  10.753  0.0239 -2.9367 -0.0128
   61MOL0     H 8369   9.745   3.060  10.849 -2.0433 -2.3785  0.8771
   61MOL0     H 8370   9.849   2.955  10.615  0.2234 -2.5165  0.5105
   61MOL0     H 8371   9.716   2.869  10.706 -2.8275  3.0779  2.9703
   61MOL0     H 8372   9.568   2.979  10.553  0.8908 -2.3511  0.2454
   61MOL0     H 8373   9.704   3.042  10.452 -2.0012  2.8169  0.7114
   61MOL0     H 8374   9.638   2.838  10.349 -3.9073 -2.8671  0.3594
   61MOL0     H 8375   9.768   2.771  10.448  0.3995 -0.0627 -2.0034
   61MOL0     H 8376   9.765   2.588  10.630 -0.8765 -2.8722  3.3791
   61MOL0     H 8377   9.828   2.251  10.615 -2.0446  0.2527 -0.8123
   61MOL0     H 8378   9.914   2.408  10.666  1.8419 -2.3164  1.6439
   61MOL0     H 8379   9.970   2.308  10.533 -0.2047 -1.7923  0.5485
   61MOL0     H 8380  10.018   2.043  10.515 -1.1124  1.4535 -0.3333
   61MOL0     H 8381  10.112   1.824  10.481  0.8383 -0.1419 -0.3032
   61MOL0     H 8382  10.223   1.633  10.396  0.1432 -0.0239 -0.1432
   61MOL0     H 8383  10.081   1.553  10.321  0.6828 -3.1566 -1.5773
   61MOL0     H 8384  10.265   1.403  10.295  1.3557  0.2330  1.3131
   61MOL0     H 8385  10.255   1.494  10.137  1.3011 -1.7895 -0.0366
   61MOL0     H 8386  10.441   1.566  10.358  2.7304  1.2225 -1.2046
   61MOL0     H 8387  10.432   1.623  10.188  4.7523  0.0064 -0.6496
   61MOL0     H 8388  10.629   1.475  10.243  0.4066  1.0828  1.0611
   61MOL0     H 8389  10.523   1.399  10.120 -3.2718  0.7605 -0.0362
   61MOL0     H 8390  10.583   1.316  10.407 -1.9789  3.6626  3.6438
   61MOL0     H 8391  10.413   1.334  10.392  1.4884  0.3954  1.0094
   61MOL0     H 8392  10.422   1.210  10.166 -1.0405 -4.4886  0.0483
   61MOL0     H 8393  10.452   1.118  10.315 -0.7818  0.7570 -0.5329
   61MOL0     H 8394  10.700   1.130  10.280 -0.3642 -1.4676  0.4645
   61MOL0     H 8395  10.680   1.216  10.130  0.9794  1.2598  1.4856
   61MOL0     H 8396  10.560   0.953  10.178 -1.6059 -1.2603 -0.5282
   61MOL0     H 8397  10.724   0.965  10.124  0.1102  0.2613  3.9405
   61MOL0     H 8398  10.003   1.852  10.052 -1.6425  0.9509 -0.4857
   61MOL0     H 8399   9.880   2.040  10.107 -2.8785  0.7770  1.7409
   61MOL0     H 8400   9.569   2.387  10.217 -1.8417  0.0936  1.2091
   61MOL0     H 8401   9.490   2.615  10.303 -3.9529 -3.1359  0.3643
   61MOL0     H 8402   9.336   4.134   9.569  1.6618  0.5874 -0.7003
   61MOL0     H 8403   9.279   4.172   9.340  2.1736 -0.1780 -0.8456
   61MOL0     H 8404   8.951   4.166   9.005 -0.3046  0.9663 -2.2086
   61MOL0     H 8405   8.886   4.171   8.782  1.8123  1.3195  1.5057
   61MOL0     H 8406   8.941   4.089   8.421  0.2557 -0.8309 -0.5031
   61MOL0     H 8407   9.009   4.173   8.560  1.8321 -0.3939 -0.3657
   61MOL0     H 8408   9.182   4.006   8.568 -0.2898 -3.3089  0.1883
   61MOL0     H 8409   9.188   4.083   8.407 -3.6033  1.3527 -0.5892
   61MOL0     H 8410   9.048   3.833   8.476  0.8824  1.3060  2.4490
   61MOL0     H 8411   9.026   3.909   8.322 -0.6009 -1.3548  1.0114
   61MOL0     H 8412   9.286   3.905   8.283  2.9168 -1.7789  3.2045
   61MOL0     H 8413   9.191   3.767   8.253  1.4299 -2.0932  0.2143
   61MOL0     H 8414   9.376   3.618   8.597 -1.0357  1.5677  1.3218
   61MOL0     H 8415   9.041   3.776   8.713  0.8624  1.0265 -1.9500
   61MOL0     H 8416   9.192   3.732   9.058 -1.6674 -1.0264  0.1941
   61MOL0     H 8417   9.208   3.673   8.886 -1.7162 -0.8139  0.1486
   61MOL0     H 8418   9.274   3.830   8.945 -2.1297  1.9671  2.4137
   62MOL0     O 8419   5.085   7.255   4.531  0.5297  0.5752 -0.1284
   62MOL0     C 8420   5.030   7.194   4.439  0.3215  0.0140 -0.5803
   62MOL0     O 8421   4.914   7.230   4.382  0.6033  0.2024  0.4370
   62MOL0     C 8422   4.846   7.328   4.441  0.6471 -0.6173  0.1499
   62MOL0     C 8423   4.787   7.304   4.564  0.2269  0.5736  0.4748
   62MOL0     C 8424   4.724   7.411   4.638 -0.8076  0.0605  1.0360
   62MOL0     C 8425   4.702   7.542   4.573 -0.0292 -0.3250  0.2902
   62MOL0     O 8426   4.651   7.652   4.647 -0.5506 -0.1949  0.2277
   62MOL0     C 8427   4.727   7.774   4.661  0.6426  0.3901 -0.2864
   62MOL0     C 8428   4.872   7.754   4.704  0.2601  0.2865  0.0500
   62MOL0     C 8429   4.957   7.874   4.670 -0.9544  0.4707  0.1429
   62MOL0     C 8430   5.002   7.928   4.805 -0.6673  0.2691  0.5737
   62MOL0     C 8431   5.097   8.047   4.803  0.3569 -0.3213  0.4881
   62MOL0     C 8432   5.040   8.172   4.738 -0.3500  0.0519  0.0556
   62MOL0     C 8433   5.145   8.277   4.693 -0.3231 -0.0843 -0.1897
   62MOL0     C 8434   5.089   8.423   4.707  0.3377 -1.1356 -0.0416
   62MOL0     N 8435   5.192   8.510   4.631 -0.7418  0.7368 -0.7322
   62MOL0     C 8436   5.319   8.530   4.678  0.5516  0.1419  0.0605
   62MOL0     C 8437   5.398   8.569   4.573  0.2765  1.3469  1.1290
   62MOL0     C 8438   5.542   8.578   4.583 -0.0079  0.2310  0.3081
   62MOL0     C 8439   5.603   8.721   4.595 -0.2445 -0.3229 -0.8247
   62MOL0     C 8440   5.561   8.830   4.496  0.3007  0.3000  0.2807
   62MOL0     C 8441   5.591   8.769   4.354 -0.3394 -0.3253 -0.5840
   62MOL0     O 8442   5.535   8.874   4.274  0.4566 -1.2708  0.9423
   62MOL0     C 8443   5.558   8.885   4.138  0.4251  0.4807 -0.3096
   62MOL0     C 8444   5.484   8.975   4.055 -0.1861 -0.1263  0.4927
   62MOL0     C 8445   5.495   8.974   3.921  0.5174  0.0563 -0.4500
   62MOL0     C 8446   5.397   9.064   3.849  0.0998  0.0284 -0.0752
   62MOL0     C 8447   5.578   8.889   3.846 -0.0740 -0.2647 -0.0313
   62MOL0     C 8448   5.595   8.896   3.691 -0.1318  0.2367  0.8311
   62MOL0     O 8449   5.592   9.028   3.635  0.5026  0.6656 -0.9262
   62MOL0     C 8450   5.573   9.050   3.500  0.2306 -0.1972 -0.9854
   62MOL0     C 8451   5.672   9.013   3.403  0.3009  0.2096 -0.4632
   62MOL0     C 8452   5.639   9.035   3.266 -1.1097  0.4425 -0.6398
   62MOL0     C 8453   5.520   9.094   3.218 -0.9746  0.7527 -0.5541
   62MOL0     O 8454   5.477   9.114   3.094 -0.7672  0.1447 -0.7660
   62MOL0     C 8455   5.549   9.213   3.024 -0.3918  1.0233 -0.6572
   62MOL0     C 8456   5.462   9.334   2.995 -0.4140 -0.1034  0.0261
   62MOL0     C 8457   5.532   9.428   2.904  0.3833 -0.7283  0.8740
   62MOL0     C 8458   5.425   9.525   2.834  0.2232  0.2253  0.3475
   62MOL0     C 8459   5.499   9.647   2.765  0.7269  0.2666  0.1356
   62MOL0     C 8460   5.599   9.598   2.661  0.3888  0.7597  0.0950
   62MOL0     C 8461   5.667   9.717   2.581 -0.9496 -0.0210 -0.6022
   62MOL0     C 8462   5.725   9.839   2.656  0.3643  1.1661  0.4708
   62MOL0    Cl 8463   5.843   9.935   2.544 -0.1220 -0.1098 -0.7312
   62MOL0     C 8464   5.430   9.130   3.321 -0.1422  0.2915  0.0899
   62MOL0     C 8465   5.452   9.118   3.463  0.2586  0.5791  0.1936
   62MOL0     O 8466   5.602   8.788   3.630  0.4138  0.2045  0.1339
   62MOL0     C 8467   5.655   8.794   3.922  0.8007 -0.5390  0.3024
   62MOL0     C 8468   5.650   8.794   4.065 -0.1402 -0.0175 -0.4640
   62MOL0     N 8469   5.316   8.565   4.458 -0.3928  0.7035 -0.0888
   62MOL0     N 8470   5.198   8.520   4.502  0.1393 -0.1839 -0.3087
   62MOL0     C 8471   4.744   7.554   4.434 -0.6684  0.8199  0.4043
   62MOL0     C 8472   4.823   7.447   4.370  0.6666 -0.2110 -1.2278
   62MOL0     C 8473   5.106   7.094   4.358  0.2706 -0.2741  0.3383
   62MOL0     C 8474   5.090   7.099   4.222 -0.8096 -0.0439  1.1372
   62MOL0     C 8475   5.160   7.011   4.133  0.6347 -0.8863  0.3135
   62MOL0     C 8476   5.250   6.917   4.167 -1.3189  0.7389 -0.4610
   62MOL0     O 8477   5.303   6.841   4.073 -0.6805  0.4285  0.6622
   62MOL0     C 8478   5.401   6.744   4.104  1.0112 -0.2088 -0.9939
   62MOL0     C 8479   5.543   6.791   4.116  1.5649  0.6655 -0.2882
   62MOL0     C 8480   5.639   6.682   4.163 -0.0450 -0.1121 -0.8503
   62MOL0     C 8481   5.786   6.716   4.140  0.1907  0.3338  0.1291
   62MOL0     C 8482   5.874   6.620   4.196 -0.1695 -0.1559 -0.1159
   62MOL0     C 8483   5.943   6.538   4.244  0.3615  0.9845  0.1765
   62MOL0     C 8484   5.261   6.914   4.320 -0.1345 -0.0563  0.1983
   62MOL0     C 8485   5.202   6.999   4.412  0.4364  0.0356  0.1962
   62MOL0     C 8486   5.233   7.009   4.559 -0.0563 -0.2321  0.2361
   62MOL0     H 8487   4.829   7.228   4.629  1.4489  1.7129  1.0788
   62MOL0     H 8488   4.713   7.399   4.745  2.4901  1.1305  1.6114
   62MOL0     H 8489   4.693   7.828   4.749  3.1428  1.8974 -0.1323
   62MOL0     H 8490   4.717   7.846   4.580 -3.8383  0.8799  0.4912
   62MOL0     H 8491   4.874   7.723   4.809  0.2274 -0.8370 -0.2704
   62MOL0     H 8492   4.918   7.674   4.646 -2.5818 -0.0852 -1.8997
   62MOL0     H 8493   5.040   7.836   4.610 -0.9628  1.7008 -0.6839
   62MOL0     H 8494   4.912   7.943   4.598  0.7052 -0.5100 -1.9624
   62MOL0     H 8495   4.922   7.970   4.867 -1.0214 -2.4064  2.0870
   62MOL0     H 8496   5.049   7.858   4.875  0.3398  2.7623  2.5295
   62MOL0     H 8497   5.194   8.025   4.757  1.1427  2.0782  0.8707
   62MOL0     H 8498   5.128   8.068   4.906  0.1844 -1.9698  0.9003
   62MOL0     H 8499   4.998   8.140   4.643 -0.2699 -2.8303  0.9062
   62MOL0     H 8500   4.969   8.218   4.808  0.9769 -0.2656  1.6742
   62MOL0     H 8501   5.177   8.249   4.592  1.2438  0.1102  0.2279
   62MOL0     H 8502   5.237   8.264   4.750  0.8512  1.7209 -1.5634
   62MOL0     H 8503   4.993   8.428   4.656 -0.6809 -1.7805  1.7211
   62MOL0     H 8504   5.081   8.461   4.810  2.1123 -1.1286  0.1330
   62MOL0     H 8505   5.361   8.501   4.773 -0.0850 -1.4956 -0.1273
   62MOL0     H 8506   5.589   8.535   4.495  1.9253  2.3797  0.2019
   62MOL0     H 8507   5.577   8.518   4.667  1.5713  1.0660  0.2692
   62MOL0     H 8508   5.585   8.753   4.698  0.4714  1.9342 -1.3443
   62MOL0     H 8509   5.712   8.711   4.593 -0.1967 -1.3417  1.9323
   62MOL0     H 8510   5.453   8.846   4.504 -0.1461 -2.5342  1.2077
   62MOL0     H 8511   5.613   8.926   4.499  2.1007 -0.6386  0.2961
   62MOL0     H 8512   5.699   8.761   4.341 -0.4888 -3.2571 -0.5317
   62MOL0     H 8513   5.542   8.673   4.341  0.9388 -0.8450 -1.8328
   62MOL0     H 8514   5.416   9.049   4.097  0.2967 -0.1343  1.3200
   62MOL0     H 8515   5.299   9.045   3.895  0.5202 -0.7388  0.5142
   62MOL0     H 8516   5.376   9.046   3.743 -2.5836  5.0445 -0.7039
   62MOL0     H 8517   5.430   9.168   3.862  3.1965 -0.6932 -1.2323
   62MOL0     H 8518   5.757   8.951   3.431  0.4546 -0.0874 -1.5577
   62MOL0     H 8519   5.704   8.984   3.195 -0.6351  1.0897 -0.6763
   62MOL0     H 8520   5.631   9.254   3.084  1.4247 -1.6009 -1.1460
   62MOL0     H 8521   5.590   9.169   2.933  0.3579  0.0470  0.1223
   62MOL0     H 8522   5.379   9.296   2.935  0.9532 -0.5981 -1.6258
   62MOL0     H 8523   5.434   9.383   3.088  0.9245  2.9707 -1.0744
   62MOL0     H 8524   5.585   9.362   2.835 -0.4510 -1.5218  0.9801
   62MOL0     H 8525   5.614   9.479   2.956  0.1558 -0.4125  0.9259
   62MOL0     H 8526   5.345   9.563   2.899  0.6837  4.4084 -1.1873
   62MOL0     H 8527   5.371   9.477   2.752 -0.3565 -0.0068  0.8589
   62MOL0     H 8528   5.418   9.693   2.707 -3.0127 -2.3006  2.7996
   62MOL0     H 8529   5.536   9.715   2.842  1.3869 -0.3499  0.3736
   62MOL0     H 8530   5.548   9.535   2.587 -4.6707  2.0499  2.0488
   62MOL0     H 8531   5.679   9.541   2.708  0.4486  0.1003 -0.7739
   62MOL0     H 8532   5.594   9.750   2.507 -1.6879 -1.3405 -0.5005
   62MOL0     H 8533   5.751   9.682   2.520 -1.3760 -3.4711  0.5358
   62MOL0     H 8534   5.782   9.812   2.745  1.4926  1.4174 -0.1578
   62MOL0     H 8535   5.646   9.910   2.682 -1.6278 -0.5979 -0.4435
   62MOL0     H 8536   5.336   9.178   3.293  2.0828  4.9967 -0.3740
   62MOL0     H 8537   5.394   9.139   3.552  2.3852 -0.1251  1.8478
   62MOL0     H 8538   5.722   8.726   3.872  0.0929 -2.1891  1.5141
   62MOL0     H 8539   5.698   8.713   4.118  2.2377  0.8004 -1.2679
   62MOL0     H 8540   4.720   7.642   4.375  2.2587 -0.4249 -3.0665
   62MOL0     H 8541   4.862   7.470   4.271  1.3481  2.9567 -0.3449
   62MOL0     H 8542   5.023   7.179   4.190 -2.7318 -1.8311  0.4483
   62MOL0     H 8543   5.141   7.009   4.026  2.2322  0.0555 -0.0077
   62MOL0     H 8544   5.384   6.692   4.199  1.5613 -0.1411 -0.8569
   62MOL0     H 8545   5.385   6.668   4.027 -1.4816  0.4069 -1.1746
   62MOL0     H 8546   5.552   6.883   4.174  1.5692  1.9622 -2.2432
   62MOL0     H 8547   5.571   6.825   4.016 -2.7103  1.8511 -1.2411
   62MOL0     H 8548   5.641   6.671   4.272 -0.2216  0.2750 -0.8069
   62MOL0     H 8549   5.612   6.588   4.114  2.9974  0.3063 -3.7267
   62MOL0     H 8550   5.812   6.808   4.193  1.2970 -0.6371  1.3391
   62MOL0     H 8551   5.808   6.733   4.034  2.5486  0.4227  0.5750
   62MOL0     H 8552   6.010   6.465   4.286 -2.5524 -1.6907  0.6362
   62MOL0     H 8553   5.315   6.836   4.373 -2.0630  0.4067  3.1002
   62MOL0     H 8554   5.279   7.107   4.577  1.1169 -0.4071 -1.5288
   62MOL0     H 8555   5.141   7.006   4.618  0.6454  0.3989  1.4024
   62MOL0     H 8556   5.298   6.934   4.606  1.4735  1.9496  1.8392
   63MOL0     O 8557   4.619   5.438   3.914  0.2800 -0.1434  0.0303
   63MOL0     C 8558   4.507   5.413   3.951  0.2728  0.2295  0.8325
   63MOL0     O 8559   4.451   5.455   4.063 -0.4025 -0.2800 -0.3708
   63MOL0     C 8560   4.518   5.548   4.126  0.0463 -0.4450 -0.7829
   63MOL0     C 8561   4.496   5.683   4.101  0.1165  1.1094 -0.2925
   63MOL0     C 8562   4.540   5.776   4.193  0.4843 -0.3953  0.3022
   63MOL0     C 8563   4.632   5.745   4.294 -0.4057  0.0747 -0.0091
   63MOL0     O 8564   4.695   5.844   4.370  0.5709  0.3255 -0.5855
   63MOL0     C 8565   4.629   5.973   4.376  0.5081  0.0490 -0.0424
   63MOL0     C 8566   4.523   5.966   4.489  0.0513  0.0874 -0.0633
   63MOL0     C 8567   4.445   6.096   4.500 -0.9288  0.5108  0.1577
   63MOL0     C 8568   4.404   6.127   4.642 -0.4248 -0.4442  0.7985
   63MOL0     C 8569   4.346   6.271   4.651  0.0635 -0.8285  0.6908
   63MOL0     C 8570   4.459   6.372   4.661  0.4874 -0.3672  0.5618
   63MOL0     C 8571   4.416   6.518   4.637  0.5517 -0.4540 -0.7940
   63MOL0     C 8572   4.498   6.618   4.733  0.2046  0.0840  0.4268
   63MOL0     N 8573   4.516   6.757   4.684  0.5185 -0.0564 -0.0839
   63MOL0     C 8574   4.406   6.831   4.663  0.7201  0.4895  0.0904
   63MOL0     C 8575   4.464   6.955   4.660 -0.8865  0.4941  0.5543
   63MOL0     C 8576   4.399   7.082   4.614  0.2690 -0.4133 -0.2360
   63MOL0     C 8577   4.448   7.136   4.474 -0.4474  0.1409 -0.3492
   63MOL0     C 8578   4.365   7.249   4.413 -0.6945  0.1125 -0.8405
   63MOL0     C 8579   4.415   7.383   4.455  0.1352 -0.2251  0.3047
   63MOL0     O 8580   4.298   7.470   4.474  0.3818  0.0366 -0.5317
   63MOL0     C 8581   4.313   7.598   4.434  0.5300 -0.5415 -0.0157
   63MOL0     C 8582   4.301   7.633   4.297  0.0231 -0.1665  0.8237
   63MOL0     C 8583   4.318   7.765   4.250  0.5934  0.2956  0.2568
   63MOL0     C 8584   4.280   7.787   4.107  0.3723  0.7250 -0.1516
   63MOL0     C 8585   4.364   7.862   4.342  1.0068 -0.0100  0.0571
   63MOL0     C 8586   4.389   7.996   4.296 -0.1805 -0.3918  0.7484
   63MOL0     O 8587   4.427   8.021   4.156 -0.5574  0.4249 -0.1287
   63MOL0     C 8588   4.421   8.154   4.117 -0.8754 -1.5945 -0.6579
   63MOL0     C 8589   4.308   8.234   4.103  0.9891  1.0703 -0.4991
   63MOL0     C 8590   4.316   8.370   4.067 -0.3400  0.3006  0.8117
   63MOL0     C 8591   4.447   8.436   4.041  0.2380  0.3869  0.8627
   63MOL0     O 8592   4.476   8.559   3.983  0.0988 -1.1080 -0.2259
   63MOL0     C 8593   4.422   8.682   4.042  0.5059 -0.2667 -0.0914
   63MOL0     C 8594   4.381   8.786   3.932  0.2719 -0.4766 -1.1133
   63MOL0     C 8595   4.258   8.750   3.848  0.2795 -0.0400 -0.4156
   63MOL0     C 8596   4.289   8.629   3.759  0.4253 -0.3861 -0.5595
   63MOL0     C 8597   4.204   8.618   3.629 -0.4630 -0.4240  0.9503
   63MOL0     C 8598   4.228   8.488   3.538 -0.1783 -0.8917 -0.4563
   63MOL0     C 8599   4.342   8.517   3.444  0.5008  0.6383  1.1581
   63MOL0     C 8600   4.373   8.408   3.336  0.0481 -0.7148  0.0686
   63MOL0    Cl 8601   4.525   8.458   3.259  0.1702  0.0287  0.1349
   63MOL0     C 8602   4.556   8.355   4.058 -0.5539 -0.4337  0.7242
   63MOL0     C 8603   4.546   8.219   4.098 -0.8303  0.2692 -0.2770
   63MOL0     O 8604   4.363   8.086   4.376 -0.3617 -0.2777  0.0770
   63MOL0     C 8605   4.363   7.830   4.479  0.0797  0.1345 -0.5067
   63MOL0     C 8606   4.341   7.702   4.525 -0.3081 -0.0506  0.1254
   63MOL0     N 8607   4.606   6.942   4.680  0.5229 -0.3788  0.9754
   63MOL0     N 8608   4.632   6.817   4.695 -0.9260  0.4591  0.2913
   63MOL0     C 8609   4.656   5.611   4.315 -0.7155 -0.7366 -0.5413
   63MOL0     C 8610   4.591   5.507   4.241  0.0104  0.4008  0.0329
   63MOL0     C 8611   4.430   5.317   3.870  0.5236 -0.8115  1.0399
   63MOL0     C 8612   4.292   5.317   3.897 -0.6030  0.5841 -1.0365
   63MOL0     C 8613   4.203   5.247   3.819 -0.6155 -0.3606 -0.1596
   63MOL0     C 8614   4.249   5.169   3.717 -0.1673  0.4308  0.2809
   63MOL0     O 8615   4.163   5.110   3.634  0.2689  0.5113  0.4195
   63MOL0     C 8616   4.035   5.063   3.674  0.1725 -1.7509  0.3239
   63MOL0     C 8617   3.966   4.967   3.574 -0.6377  0.3377  0.6229
   63MOL0     C 8618   3.986   5.018   3.433 -0.0611 -0.0768  0.3504
   63MOL0     C 8619   3.900   4.949   3.328 -0.1018 -0.0085  0.4511
   63MOL0     C 8620   3.913   4.804   3.314  0.1058 -0.2366 -0.0746
   63MOL0     C 8621   3.934   4.691   3.281  0.1520 -0.3125 -0.6019
   63MOL0     C 8622   4.384   5.174   3.680 -0.2882 -0.0106 -0.5064
   63MOL0     C 8623   4.479   5.243   3.754  1.2602 -0.0754  0.6341
   63MOL0     C 8624   4.618   5.238   3.704 -0.7063 -0.0374  0.6659
   63MOL0     H 8625   4.427   5.717   4.025 -1.7622 -0.6309  0.5192
   63MOL0     H 8626   4.499   5.873   4.166  1.2669  0.3989  1.7877
   63MOL0     H 8627   4.576   5.995   4.283 -0.0902  2.9442  0.8792
   63MOL0     H 8628   4.700   6.051   4.404 -2.7923  2.2351  3.1372
   63MOL0     H 8629   4.457   5.881   4.467  1.4950 -0.8678 -0.8580
   63MOL0     H 8630   4.581   5.948   4.580  2.1279  5.3447 -0.0078
   63MOL0     H 8631   4.514   6.171   4.462  3.0349 -2.2318  1.3468
   63MOL0     H 8632   4.358   6.082   4.434 -0.9950  1.2387  0.0857
   63MOL0     H 8633   4.314   6.068   4.661  0.0189 -0.8635  1.6574
   63MOL0     H 8634   4.477   6.104   4.720  1.0948  1.7401  0.1435
   63MOL0     H 8635   4.285   6.266   4.742 -0.8115 -0.9705  0.1072
   63MOL0     H 8636   4.281   6.284   4.565  1.2282  1.8592  0.0922
   63MOL0     H 8637   4.496   6.360   4.763 -0.6018 -0.4399  0.9548
   63MOL0     H 8638   4.536   6.338   4.591 -0.2544 -2.6564  0.7654
   63MOL0     H 8639   4.311   6.526   4.666 -0.1353 -1.1038 -2.9361
   63MOL0     H 8640   4.435   6.546   4.533 -1.5369 -0.1125 -1.1257
   63MOL0     H 8641   4.454   6.619   4.833 -0.8083 -0.4119 -0.0092
   63MOL0     H 8642   4.602   6.584   4.743  1.0454  2.9220  3.1137
   63MOL0     H 8643   4.306   6.804   4.629  1.3116  0.1897 -1.5334
   63MOL0     H 8644   4.399   7.168   4.682  2.4646  1.0341 -1.8928
   63MOL0     H 8645   4.293   7.056   4.603  0.1184  0.1399 -0.1045
   63MOL0     H 8646   4.549   7.175   4.487 -2.3456  4.8399  3.6547
   63MOL0     H 8647   4.442   7.059   4.397  3.4197  0.7974 -1.4996
   63MOL0     H 8648   4.372   7.241   4.304 -3.4134  0.0177 -1.0776
   63MOL0     H 8649   4.260   7.232   4.439 -0.6125 -1.2708 -1.3198
   63MOL0     H 8650   4.472   7.378   4.547  0.0535 -2.4655  0.2826
   63MOL0     H 8651   4.487   7.417   4.380  0.6812 -2.4645 -0.2564
   63MOL0     H 8652   4.264   7.555   4.231 -1.4069  1.8710 -0.9003
   63MOL0     H 8653   4.200   7.714   4.093  0.4365  0.9257 -1.6877
   63MOL0     H 8654   4.363   7.762   4.041  2.4787  3.6059  1.1864
   63MOL0     H 8655   4.243   7.890   4.098  2.0527  1.2397 -1.9753
   63MOL0     H 8656   4.212   8.182   4.107  1.7329 -0.6230 -2.4536
   63MOL0     H 8657   4.228   8.432   4.051 -2.4038 -2.8122 -1.1075
   63MOL0     H 8658   4.332   8.673   4.103 -0.3340  1.5831 -0.9702
   63MOL0     H 8659   4.504   8.727   4.098  0.9174 -0.5761 -0.4389
   63MOL0     H 8660   4.369   8.890   3.965 -2.3798 -0.6880 -1.1832
   63MOL0     H 8661   4.472   8.794   3.871  0.1280 -1.7981 -1.5269
   63MOL0     H 8662   4.236   8.836   3.785 -3.5611 -0.2961  0.3594
   63MOL0     H 8663   4.178   8.745   3.922  2.7994 -0.4260  2.5093
   63MOL0     H 8664   4.289   8.532   3.809  2.2881 -0.9924 -1.6324
   63MOL0     H 8665   4.391   8.640   3.723  0.0237 -1.6403 -2.1574
   63MOL0     H 8666   4.096   8.620   3.649 -0.9498 -1.4933 -1.2568
   63MOL0     H 8667   4.233   8.706   3.571  2.5077 -2.2715 -0.5709
   63MOL0     H 8668   4.138   8.470   3.478 -0.2281  0.2917 -0.7551
   63MOL0     H 8669   4.253   8.397   3.593 -0.9227 -0.2242  1.0211
   63MOL0     H 8670   4.435   8.529   3.501  0.9781  1.9660  0.1634
   63MOL0     H 8671   4.325   8.613   3.395  0.5319 -1.8663 -4.6550
   63MOL0     H 8672   4.289   8.414   3.266 -0.8698 -1.4154  1.0789
   63MOL0     H 8673   4.388   8.315   3.391 -0.4121 -0.1223  1.2253
   63MOL0     H 8674   4.652   8.404   4.043 -1.0808  0.4106 -0.0166
   63MOL0     H 8675   4.642   8.171   4.110  0.1640  1.5140 -2.5656
   63MOL0     H 8676   4.396   7.893   4.561 -2.0917 -1.2697  1.5894
   63MOL0     H 8677   4.344   7.675   4.630 -1.9237 -0.1636  0.1603
   63MOL0     H 8678   4.725   5.584   4.395 -2.5155 -0.5739  1.1218
   63MOL0     H 8679   4.616   5.405   4.266 -0.5196  0.4953  1.0273
   63MOL0     H 8680   4.258   5.385   3.975  1.7708  1.2050 -0.4741
   63MOL0     H 8681   4.102   5.253   3.857  0.2909  0.3298  2.3363
   63MOL0     H 8682   4.047   5.022   3.775  0.9234 -0.4168  0.7930
   63MOL0     H 8683   3.972   5.150   3.693  1.3211 -0.6653 -0.6823
   63MOL0     H 8684   3.859   4.984   3.582 -0.7231 -0.4358  1.2960
   63MOL0     H 8685   3.990   4.862   3.590 -0.3253  0.4872  1.1952
   63MOL0     H 8686   3.958   5.123   3.416  3.8124  0.8656 -1.3597
   63MOL0     H 8687   4.090   5.004   3.405  0.1170  1.0268  0.4044
   63MOL0     H 8688   3.917   5.009   3.238 -1.9779  2.0710  1.3969
   63MOL0     H 8689   3.793   4.966   3.340 -1.0178 -1.0355 -4.2635
   63MOL0     H 8690   3.926   4.591   3.243  2.6467 -0.8380  0.0411
   63MOL0     H 8691   4.419   5.120   3.593 -2.1957 -0.7373 -0.8752
   63MOL0     H 8692   4.655   5.309   3.629  1.6649 -0.4115  1.3777
   63MOL0     H 8693   4.698   5.249   3.778  0.2174 -1.0343 -0.1343
   63MOL0     H 8694   4.641   5.140   3.661  0.6985  0.9159 -0.8989
   64MOL0     O 8695   1.409   8.189   3.805 -0.8792  0.0178  1.8038
   64MOL0     C 8696   1.465   8.116   3.889 -0.1449  0.2512  0.6103
   64MOL0     O 8697   1.598   8.081   3.908  0.5005 -0.1446 -0.6623
   64MOL0     C 8698   1.675   8.136   3.813  0.3236 -0.5650  0.9678
   64MOL0     C 8699   1.653   8.099   3.675 -0.5082  0.5916  0.4328
   64MOL0     C 8700   1.722   8.164   3.571  0.0138  0.3626 -0.4089
   64MOL0     C 8701   1.810   8.267   3.598 -0.6652  0.5119 -0.0681
   64MOL0     O 8702   1.881   8.346   3.515 -0.1915  0.6651  0.6193
   64MOL0     C 8703   1.840   8.346   3.381  0.9442  0.4600  1.4500
   64MOL0     C 8704   1.944   8.395   3.289 -0.3324 -0.1706  0.3314
   64MOL0     C 8705   1.930   8.346   3.141 -0.1165  0.0896  0.5773
   64MOL0     C 8706   1.792   8.368   3.072  0.5138  0.5177 -1.0362
   64MOL0     C 8707   1.791   8.375   2.918  0.4042 -0.4532  0.2846
   64MOL0     C 8708   1.816   8.235   2.858 -0.8301  0.2734  1.1462
   64MOL0     C 8709   1.860   8.251   2.710 -0.1836  0.8639  0.3359
   64MOL0     C 8710   1.751   8.309   2.608  1.1508 -0.7411 -1.3923
   64MOL0     N 8711   1.818   8.303   2.482 -0.2879 -0.0147  0.2194
   64MOL0     C 8712   1.910   8.400   2.438 -1.1483 -0.4221  0.0849
   64MOL0     C 8713   1.985   8.334   2.343  0.3041 -1.2864  0.7400
   64MOL0     C 8714   2.095   8.376   2.245 -0.2271  0.2775  0.1605
   64MOL0     C 8715   2.243   8.349   2.302  0.0562  0.7798 -0.2545
   64MOL0     C 8716   2.291   8.205   2.344 -0.4060 -0.5282 -0.0459
   64MOL0     C 8717   2.240   8.161   2.477  0.3241  0.1575 -0.1671
   64MOL0     O 8718   2.286   8.253   2.576 -0.5056  0.0346  0.5746
   64MOL0     C 8719   2.257   8.216   2.707  0.2127  0.9600  0.2204
   64MOL0     C 8720   2.294   8.318   2.797  0.0663 -0.0190 -0.2240
   64MOL0     C 8721   2.286   8.303   2.937  0.3161 -0.2025  0.4739
   64MOL0     C 8722   2.337   8.417   3.010 -0.0046 -0.0875  0.4641
   64MOL0     C 8723   2.239   8.170   2.983 -0.1620 -1.1375 -0.7363
   64MOL0     C 8724   2.238   8.147   3.125  0.7094 -0.4916  1.1320
   64MOL0     O 8725   2.137   8.066   3.178 -0.2574  0.4859  0.2657
   64MOL0     C 8726   2.104   8.060   3.310 -0.8287 -0.5950  0.3544
   64MOL0     C 8727   2.029   7.945   3.345  0.0326 -1.2861 -1.0232
   64MOL0     C 8728   2.003   7.911   3.480 -0.4738 -0.0961  0.3662
   64MOL0     C 8729   2.068   7.985   3.576 -0.5732 -0.9259 -1.5423
   64MOL0     O 8730   2.063   7.954   3.717 -1.0040 -0.2672  0.2565
   64MOL0     C 8731   1.958   7.861   3.765 -0.1987 -0.5107 -0.5427
   64MOL0     C 8732   1.989   7.820   3.897  0.2459  0.1599  0.0451
   64MOL0     C 8733   1.888   7.709   3.936 -0.8741 -0.9231  0.0617
   64MOL0     C 8734   1.747   7.769   3.960 -0.7076  0.7221 -0.1163
   64MOL0     C 8735   1.648   7.658   4.017 -0.9167 -0.7582  1.6631
   64MOL0     C 8736   1.500   7.717   3.999  0.5055 -0.4367 -0.7242
   64MOL0     C 8737   1.402   7.616   4.057  0.3994  0.3439  0.0332
   64MOL0     C 8738   1.405   7.609   4.205 -0.3560 -0.1801 -1.0988
   64MOL0    Cl 8739   1.474   7.459   4.257 -0.2007  0.2399 -0.3771
   64MOL0     C 8740   2.139   8.105   3.548  0.2412  0.8705  0.9274
   64MOL0     C 8741   2.155   8.146   3.411  0.6794 -0.6566 -0.9393
   64MOL0     O 8742   2.325   8.193   3.187  0.3101 -0.4338 -0.8428
   64MOL0     C 8743   2.202   8.067   2.887 -0.0612  0.2819  0.4376
   64MOL0     C 8744   2.215   8.091   2.749 -0.5382 -0.0851 -0.0737
   64MOL0     N 8745   1.926   8.210   2.309  0.4949 -1.6431  0.4617
   64MOL0     N 8746   1.823   8.203   2.391 -0.0899  0.1912 -0.2146
   64MOL0     C 8747   1.837   8.286   3.730 -0.6615  0.3277 -0.3584
   64MOL0     C 8748   1.767   8.234   3.831 -0.7369 -1.3600  0.3157
   64MOL0     C 8749   1.358   8.052   3.971  0.1075  0.3775 -0.0331
   64MOL0     C 8750   1.241   8.003   3.914 -0.1926 -1.0297 -0.6613
   64MOL0     C 8751   1.135   7.955   3.996 -0.1912 -0.5036  0.2930
   64MOL0     C 8752   1.145   7.926   4.135  0.0303 -2.2920  0.1872
   64MOL0     O 8753   1.065   7.865   4.222 -0.7021  0.0299 -0.3944
   64MOL0     C 8754   0.951   7.797   4.176  0.2695  0.1122  0.3595
   64MOL0     C 8755   0.859   7.757   4.289  0.2870 -0.2319 -0.0617
   64MOL0     C 8756   0.811   7.874   4.366 -0.2452 -0.9973 -0.4551
   64MOL0     C 8757   0.711   7.822   4.476 -0.4040 -0.3095  0.4956
   64MOL0     C 8758   0.757   7.872   4.609 -0.4150 -0.8720  0.3538
   64MOL0     C 8759   0.797   7.910   4.722  0.8031  1.1071 -0.3586
   64MOL0     C 8760   1.263   7.970   4.185 -0.1151  0.1578 -0.9205
   64MOL0     C 8761   1.375   8.022   4.112  0.1982  0.0080 -0.1828
   64MOL0     C 8762   1.495   8.061   4.186  1.1444 -0.3136  0.8543
   64MOL0     H 8763   1.589   8.024   3.629  0.7958  1.0295 -2.2788
   64MOL0     H 8764   1.700   8.134   3.469 -4.3503  2.7313 -0.3723
   64MOL0     H 8765   1.747   8.400   3.363  1.4798  1.5010  1.7602
   64MOL0     H 8766   1.819   8.243   3.348  1.6638  0.1108  2.0487
   64MOL0     H 8767   1.936   8.505   3.287  0.2458 -0.1174  0.7396
   64MOL0     H 8768   2.046   8.376   3.324 -0.2456 -0.8931 -0.2890
   64MOL0     H 8769   1.998   8.403   3.078 -0.4944 -1.4357 -1.3151
   64MOL0     H 8770   1.959   8.242   3.120 -0.6390  0.2355 -1.0118
   64MOL0     H 8771   1.733   8.278   3.093 -0.3702  0.8305 -2.0878
   64MOL0     H 8772   1.735   8.451   3.114  3.2663  1.8653  0.2996
   64MOL0     H 8773   1.878   8.438   2.902  3.3182 -3.2100  3.6211
   64MOL0     H 8774   1.697   8.420   2.883 -1.1126 -3.4676  0.0794
   64MOL0     H 8775   1.895   8.183   2.913 -1.1748 -0.5533  0.8816
   64MOL0     H 8776   1.727   8.172   2.866 -1.2293 -0.0351 -3.4343
   64MOL0     H 8777   1.895   8.156   2.670 -1.8364  1.7533 -3.7055
   64MOL0     H 8778   1.950   8.313   2.716  0.6539 -0.1432 -1.3202
   64MOL0     H 8779   1.659   8.249   2.608  0.3286  0.4731 -0.1086
   64MOL0     H 8780   1.735   8.417   2.613 -1.2722 -1.0941  0.3843
   64MOL0     H 8781   1.934   8.498   2.479  1.8936 -0.4766 -1.2570
   64MOL0     H 8782   2.077   8.483   2.230 -2.9929 -0.1260  0.0685
   64MOL0     H 8783   2.089   8.323   2.149  0.8948  0.0912  0.1722
   64MOL0     H 8784   2.308   8.381   2.220  0.7668 -0.6511 -0.2798
   64MOL0     H 8785   2.248   8.415   2.389  0.2993 -1.4086  1.4962
   64MOL0     H 8786   2.274   8.136   2.261  1.8036 -1.0799 -0.1229
   64MOL0     H 8787   2.400   8.213   2.350 -0.3265  4.1306 -2.7635
   64MOL0     H 8788   2.133   8.151   2.458 -0.1316 -0.7039  2.5046
   64MOL0     H 8789   2.276   8.060   2.501  0.2080  0.0348 -0.5057
   64MOL0     H 8790   2.331   8.406   2.746  0.4309 -0.3376 -0.5153
   64MOL0     H 8791   2.446   8.426   2.999 -0.0114 -1.5412 -1.4240
   64MOL0     H 8792   2.334   8.409   3.119  4.3524  1.5367  0.9114
   64MOL0     H 8793   2.285   8.506   2.974 -0.7001  0.0207  1.6780
   64MOL0     H 8794   1.976   7.903   3.260 -3.3891  0.4200  0.1043
   64MOL0     H 8795   1.936   7.830   3.509  1.0748 -1.3631  0.5094
   64MOL0     H 8796   1.864   7.914   3.746 -0.3048 -1.5953 -3.5847
   64MOL0     H 8797   1.961   7.777   3.695  0.5140 -0.1944 -0.9055
   64MOL0     H 8798   2.091   7.785   3.909  0.4057  1.0923  1.7585
   64MOL0     H 8799   1.979   7.905   3.966  0.5851 -0.7412  1.2346
   64MOL0     H 8800   1.926   7.658   4.025  2.5712 -0.9301 -1.2483
   64MOL0     H 8801   1.891   7.635   3.856  1.1313 -2.6950  1.6671
   64MOL0     H 8802   1.712   7.812   3.866  0.1739  0.6369 -0.4968
   64MOL0     H 8803   1.759   7.842   4.041 -0.9700 -1.7643  2.3461
   64MOL0     H 8804   1.659   7.568   3.956 -0.8420 -0.1934  0.8313
   64MOL0     H 8805   1.662   7.647   4.125  0.4427  0.4805  1.6449
   64MOL0     H 8806   1.478   7.735   3.893 -0.5023  2.2169 -0.1526
   64MOL0     H 8807   1.479   7.812   4.049 -0.0920  0.9328 -3.3885
   64MOL0     H 8808   1.440   7.522   4.017  1.8263  0.9508 -0.0719
   64MOL0     H 8809   1.297   7.627   4.028  0.4187 -0.1085 -0.2119
   64MOL0     H 8810   1.302   7.626   4.239 -1.9870  1.4247 -6.0529
   64MOL0     H 8811   1.461   7.697   4.239  0.5025  0.6616 -4.3700
   64MOL0     H 8812   2.176   8.160   3.634  3.7370 -1.5418  1.1924
   64MOL0     H 8813   2.205   8.242   3.400  3.8044 -2.0045  0.0980
   64MOL0     H 8814   2.171   7.971   2.926  0.0863  0.5629  1.2706
   64MOL0     H 8815   2.199   7.997   2.696  0.6300 -0.9793  1.0872
   64MOL0     H 8816   1.919   8.350   3.760 -0.1039 -0.0134 -1.1402
   64MOL0     H 8817   1.794   8.263   3.932 -1.9621 -1.3763  0.6713
   64MOL0     H 8818   1.235   8.017   3.806  4.0595 -0.0366 -0.9230
   64MOL0     H 8819   1.034   7.935   3.963  0.2412 -2.7820  0.2426
   64MOL0     H 8820   0.901   7.858   4.101 -1.3206  0.7931  1.9060
   64MOL0     H 8821   0.982   7.708   4.121 -0.4509 -2.0348  3.1554
   64MOL0     H 8822   0.915   7.696   4.361  0.4528 -2.6643 -2.1164
   64MOL0     H 8823   0.779   7.692   4.252 -0.6166  0.5388  0.5224
   64MOL0     H 8824   0.889   7.922   4.426 -0.5684 -1.4473  0.3428
   64MOL0     H 8825   0.759   7.943   4.298 -1.3537 -0.7256  0.6355
   64MOL0     H 8826   0.712   7.713   4.479 -2.9459 -0.4454 -0.6386
   64MOL0     H 8827   0.609   7.858   4.459  0.6335  2.6138 -0.0592
   64MOL0     H 8828   0.822   7.937   4.822 -1.4637 -0.0726  0.5973
   64MOL0     H 8829   1.268   7.974   4.294 -1.2856 -0.5945 -0.8187
   64MOL0     H 8830   1.534   8.154   4.145  0.0712 -0.7947 -1.3876
   64MOL0     H 8831   1.473   8.068   4.293 -0.8250 -0.5814  0.5037
   64MOL0     H 8832   1.571   7.985   4.167  3.1934  1.2543  2.2904
   65MOL0     O 8833   8.053   6.147   4.449  0.0772 -0.2210  0.4585
   65MOL0     C 8834   8.132   6.053   4.461  1.0425 -0.3728 -0.2534
   65MOL0     O 8835   8.185   6.022   4.577  0.0384  0.5044 -0.1241
   65MOL0     C 8836   8.115   6.037   4.696  0.3061 -0.0298  0.4068
   65MOL0     C 8837   8.103   6.164   4.759 -0.9339 -0.7407 -0.5440
   65MOL0     C 8838   8.050   6.183   4.889  0.2736 -0.1811 -0.5887
   65MOL0     C 8839   7.989   6.075   4.960  0.7675 -0.1348  0.4589
   65MOL0     O 8840   7.941   6.093   5.086  0.0749  0.2046  0.6640
   65MOL0     C 8841   7.810   6.138   5.088  0.2658  0.5097  0.1911
   65MOL0     C 8842   7.797   6.240   5.199  1.1000  0.1738  0.0075
   65MOL0     C 8843   7.652   6.265   5.231  0.4674 -0.0430 -0.2932
   65MOL0     C 8844   7.644   6.384   5.318  0.5264  0.4591  0.0552
   65MOL0     C 8845   7.511   6.462   5.296  0.2696 -0.2180 -0.4123
   65MOL0     C 8846   7.484   6.560   5.418  0.6949  0.6335 -1.1772
   65MOL0     C 8847   7.507   6.516   5.559  0.0609 -0.1763  0.3238
   65MOL0     C 8848   7.435   6.389   5.601 -0.1009  0.6218  0.4439
   65MOL0     N 8849   7.468   6.358   5.740 -0.2673  0.9578  0.0647
   65MOL0     C 8850   7.591   6.385   5.796 -0.0138  0.7186  0.0649
   65MOL0     C 8851   7.575   6.390   5.928  0.4378 -0.0924  0.2585
   65MOL0     C 8852   7.673   6.415   6.038  0.1330  0.5260  0.1434
   65MOL0     C 8853   7.815   6.433   5.998 -0.3008 -0.5433 -0.8591
   65MOL0     C 8854   7.859   6.577   6.003 -0.0686 -1.1228  0.1895
   65MOL0     C 8855   7.817   6.667   5.903 -0.1017 -0.0767  0.1688
   65MOL0     O 8856   7.857   6.629   5.773 -0.2985 -0.5235  0.2230
   65MOL0     C 8857   7.858   6.715   5.666  0.2455  0.5505 -0.2159
   65MOL0     C 8858   7.912   6.667   5.553  0.3821  0.4111  0.0791
   65MOL0     C 8859   7.927   6.741   5.436  0.5959 -0.7134 -0.2596
   65MOL0     C 8860   7.980   6.664   5.309  0.5540 -0.2246 -0.0642
   65MOL0     C 8861   7.916   6.876   5.450 -0.4130  0.3959  0.3105
   65MOL0     C 8862   7.954   6.972   5.343  0.2764  0.1632  0.1946
   65MOL0     O 8863   8.045   6.927   5.246  0.0237  0.3846  0.3341
   65MOL0     C 8864   8.089   7.011   5.139  0.5363 -0.1407  0.7208
   65MOL0     C 8865   8.202   6.960   5.070  0.8526 -0.1891  0.0831
   65MOL0     C 8866   8.263   7.036   4.968 -0.3225 -0.2370 -0.5654
   65MOL0     C 8867   8.210   7.160   4.925  0.0947 -0.3118  0.0680
   65MOL0     O 8868   8.259   7.233   4.818 -0.6822 -0.4250  0.0587
   65MOL0     C 8869   8.380   7.179   4.746  0.4868  0.4329 -0.2294
   65MOL0     C 8870   8.515   7.230   4.801 -1.0636 -1.2966 -0.5722
   65MOL0     C 8871   8.525   7.372   4.853  0.0436 -0.8681 -0.2345
   65MOL0     C 8872   8.518   7.379   5.010  0.1431  0.5361 -0.4587
   65MOL0     C 8873   8.506   7.521   5.067  0.7149  0.1348 -0.7844
   65MOL0     C 8874   8.611   7.632   5.039 -0.5262  0.3297 -0.9573
   65MOL0     C 8875   8.572   7.775   5.095  0.2297  0.0628  0.9597
   65MOL0     C 8876   8.573   7.798   5.239  0.9447 -0.1205  0.4244
   65MOL0    Cl 8877   8.526   7.969   5.262 -0.4604  0.0686 -0.4632
   65MOL0     C 8878   8.093   7.207   5.003 -0.5205 -0.7012  0.3791
   65MOL0     C 8879   8.037   7.132   5.102  0.2405 -0.8201  0.5763
   65MOL0     O 8880   7.922   7.089   5.353  0.4912  0.0946  0.3170
   65MOL0     C 8881   7.872   6.928   5.570 -0.1176  0.4161 -0.1984
   65MOL0     C 8882   7.828   6.848   5.676  0.0552  0.8303 -0.6042
   65MOL0     N 8883   7.441   6.376   5.961  0.0723 -0.4689  0.7723
   65MOL0     N 8884   7.381   6.354   5.844 -0.3994 -0.0248  0.6189
   65MOL0     C 8885   7.993   5.957   4.900 -1.1370  1.0614  1.6770
   65MOL0     C 8886   8.048   5.932   4.767 -0.4737  0.3538 -0.9058
   65MOL0     C 8887   8.163   5.973   4.338  0.2093 -0.5364  0.9181
   65MOL0     C 8888   8.295   5.919   4.338  0.2921 -0.1163  0.1152
   65MOL0     C 8889   8.346   5.833   4.239  0.7858 -0.2338 -0.5984
   65MOL0     C 8890   8.269   5.813   4.128 -0.3442  0.0553 -0.7098
   65MOL0     O 8891   8.314   5.731   4.020  1.1556  0.6043 -0.0806
   65MOL0     C 8892   8.446   5.663   4.037 -0.1710 -0.2924  0.3551
   65MOL0     C 8893   8.483   5.590   3.900 -0.6625 -0.4908 -0.7520
   65MOL0     C 8894   8.602   5.486   3.933 -0.7529  0.3636  0.4498
   65MOL0     C 8895   8.747   5.516   3.864  0.4323 -0.2261  0.2344
   65MOL0     C 8896   8.792   5.656   3.885 -0.1958  0.0940 -0.2753
   65MOL0     C 8897   8.839   5.763   3.911 -0.0221  0.5603  0.1753
   65MOL0     C 8898   8.154   5.880   4.117  0.3351 -0.1674  0.3775
   65MOL0     C 8899   8.094   5.953   4.214 -0.0261  0.2472 -0.1413
   65MOL0     C 8900   7.960   6.021   4.181 -0.1572 -0.2845 -0.0288
   65MOL0     H 8901   8.159   6.248   4.720 -3.4897  1.1906 -0.3506
   65MOL0     H 8902   8.039   6.283   4.931  0.3344  1.5158 -4.2465
   65MOL0     H 8903   7.737   6.059   5.108 -1.6980  2.6549  2.1119
   65MOL0     H 8904   7.783   6.168   4.987  2.0796 -2.0986 -1.1753
   65MOL0     H 8905   7.851   6.206   5.288 -0.4507 -2.5328  0.0276
   65MOL0     H 8906   7.843   6.335   5.170  1.0230 -0.2147 -1.4709
   65MOL0     H 8907   7.602   6.290   5.137  1.3418 -1.9488 -1.3281
   65MOL0     H 8908   7.609   6.174   5.275  1.6449  1.2350  4.0142
   65MOL0     H 8909   7.657   6.352   5.422  3.3889  1.5663  0.1380
   65MOL0     H 8910   7.720   6.453   5.281  2.8110 -2.1441 -0.4597
   65MOL0     H 8911   7.433   6.385   5.306 -0.6569  0.8236  0.8713
   65MOL0     H 8912   7.490   6.509   5.200  0.0550 -0.6974 -0.6022
   65MOL0     H 8913   7.551   6.645   5.403 -0.8371  2.4875  1.6058
   65MOL0     H 8914   7.379   6.590   5.410  0.2493 -0.4078  0.1933
   65MOL0     H 8915   7.456   6.592   5.619 -1.0900  0.1195 -0.9675
   65MOL0     H 8916   7.615   6.516   5.572  0.3892 -5.2672 -0.4345
   65MOL0     H 8917   7.327   6.397   5.585  0.1277 -1.3044 -3.2358
   65MOL0     H 8918   7.473   6.305   5.542  0.9548  0.5657  1.1908
   65MOL0     H 8919   7.686   6.407   5.748  0.1669  0.3333  0.2457
   65MOL0     H 8920   7.681   6.321   6.094 -0.4051 -1.3674 -2.7101
   65MOL0     H 8921   7.642   6.483   6.117  3.3189  1.3077  0.8452
   65MOL0     H 8922   7.879   6.384   6.072  0.5935 -2.9524 -3.0574
   65MOL0     H 8923   7.830   6.392   5.898 -2.0452 -2.2359 -0.4872
   65MOL0     H 8924   7.840   6.626   6.098  2.7916 -1.9869  1.3084
   65MOL0     H 8925   7.967   6.566   5.989  0.2242  1.2240  0.1676
   65MOL0     H 8926   7.709   6.681   5.908 -0.0690 -0.0902  1.0628
   65MOL0     H 8927   7.870   6.757   5.938 -0.5407 -0.1168  0.9605
   65MOL0     H 8928   7.929   6.560   5.563 -1.9443  0.1258  2.2100
   65MOL0     H 8929   7.978   6.557   5.329 -0.4980 -0.0574  0.8261
   65MOL0     H 8930   8.080   6.692   5.275  0.3881  0.0409 -0.3483
   65MOL0     H 8931   7.914   6.678   5.223  0.3836 -1.9092 -0.2402
   65MOL0     H 8932   8.258   6.872   5.100  0.6207  0.5191  2.7802
   65MOL0     H 8933   8.357   6.999   4.928 -1.0130  1.3226 -3.9766
   65MOL0     H 8934   8.363   7.071   4.744 -0.8820  0.6420 -0.6575
   65MOL0     H 8935   8.383   7.232   4.650 -0.2619  0.4412 -0.2518
   65MOL0     H 8936   8.536   7.172   4.891  0.8614 -0.4272 -0.3923
   65MOL0     H 8937   8.598   7.215   4.730 -0.0673 -1.3876  0.5804
   65MOL0     H 8938   8.444   7.423   4.800  0.6257  0.1248 -0.2005
   65MOL0     H 8939   8.618   7.422   4.826 -1.7151  2.7368 -0.2273
   65MOL0     H 8940   8.597   7.327   5.063 -0.2621  2.0832  1.8165
   65MOL0     H 8941   8.436   7.318   5.049  1.2442 -2.4012 -2.4444
   65MOL0     H 8942   8.412   7.562   5.028 -0.2172  0.3800  1.5064
   65MOL0     H 8943   8.497   7.520   5.176 -1.7734  3.0981 -0.8216
   65MOL0     H 8944   8.621   7.636   4.930  2.0157 -1.5530 -0.8777
   65MOL0     H 8945   8.710   7.609   5.080 -2.1579 -0.5251  3.0154
   65MOL0     H 8946   8.482   7.814   5.046  1.4336  0.8952 -0.7064
   65MOL0     H 8947   8.654   7.838   5.058  0.9554 -0.0561  2.3168
   65MOL0     H 8948   8.672   7.801   5.286  1.6882  3.8718 -0.9990
   65MOL0     H 8949   8.507   7.740   5.304 -0.2141  0.1519 -0.4605
   65MOL0     H 8950   8.054   7.308   4.993 -0.2685 -0.8273 -2.6776
   65MOL0     H 8951   7.948   7.173   5.147 -0.9124 -0.0669 -2.1997
   65MOL0     H 8952   7.873   7.032   5.602  2.5528  0.4483 -0.1407
   65MOL0     H 8953   7.770   6.892   5.757  0.4387 -1.2293  0.8821
   65MOL0     H 8954   7.944   5.872   4.947 -4.7023  2.6794  1.2115
   65MOL0     H 8955   8.052   5.836   4.717 -2.5108 -1.1967  1.6695
   65MOL0     H 8956   8.354   5.935   4.427 -1.4134  0.2938  1.2177
   65MOL0     H 8957   8.444   5.788   4.247  0.9115 -0.2975 -2.2901
   65MOL0     H 8958   8.521   5.736   4.067 -1.7315  1.6166 -0.1916
   65MOL0     H 8959   8.433   5.583   4.111  1.9678 -1.3848 -0.3590
   65MOL0     H 8960   8.532   5.660   3.832 -0.2051  0.3076  0.3580
   65MOL0     H 8961   8.405   5.537   3.844 -3.1733  0.8506  1.2908
   65MOL0     H 8962   8.604   5.476   4.042 -1.4001  2.1087  0.6575
   65MOL0     H 8963   8.579   5.390   3.886  0.2972 -0.6480  1.9184
   65MOL0     H 8964   8.731   5.500   3.757  4.4354 -0.9247 -0.4175
   65MOL0     H 8965   8.826   5.446   3.894  2.4533  2.5780  2.0299
   65MOL0     H 8966   8.864   5.858   3.955  2.7679 -0.7211  1.5549
   65MOL0     H 8967   8.106   5.885   4.019  1.0410  2.8462  0.0719
   65MOL0     H 8968   7.986   6.103   4.114 -1.4515 -2.5542 -3.6324
   65MOL0     H 8969   7.891   5.961   4.121  0.8537  0.1665 -1.7183
   65MOL0     H 8970   7.904   6.047   4.271  1.4685 -0.7043  1.1467
   66MOL0     O 8971  11.603  10.046   1.507  0.0413  0.3774  0.9503
   66MOL0     C 8972  11.486  10.024   1.537  0.5655  0.1380  0.0105
   66MOL0     O 8973  11.395  10.113   1.605 -1.3206  0.5919 -0.0678
   66MOL0     C 8974  11.449  10.216   1.684  0.4064  0.7777  0.8743
   66MOL0     C 8975  11.533  10.315   1.633  0.2115  0.6283 -0.5372
   66MOL0     C 8976  11.574  10.420   1.705 -0.2330  0.4123 -0.7783
   66MOL0     C 8977  11.540  10.429   1.838 -0.6593 -0.3672  0.0200
   66MOL0     O 8978  11.585  10.530   1.929 -0.1651  0.2217  0.0187
   66MOL0     C 8979  11.720  10.581   1.909 -0.6859  0.2057  0.3229
   66MOL0     C 8980  11.786  10.640   2.038  0.3828  0.3300 -0.2555
   66MOL0     C 8981  11.693  10.730   2.108 -0.1939  0.3471  0.5122
   66MOL0     C 8982  11.783  10.819   2.196 -0.6174  0.1126 -0.1422
   66MOL0     C 8983  11.702  10.884   2.303 -0.7451  0.4063  0.2964
   66MOL0     C 8984  11.579  10.958   2.250  0.0191  0.2556  0.1200
   66MOL0     C 8985  11.617  11.076   2.167 -0.2291 -0.2074  0.4285
   66MOL0     C 8986  11.514  11.190   2.188 -0.2763  0.0905  0.4199
   66MOL0     N 8987  11.544  11.314   2.115  0.2807 -0.2054  0.2033
   66MOL0     C 8988  11.641  11.406   2.109 -0.1316 -0.3582 -0.0831
   66MOL0     C 8989  11.594  11.515   2.036  1.2143  0.1936 -0.5409
   66MOL0     C 8990  11.663  11.632   1.981 -0.3326  0.3077 -0.0228
   66MOL0     C 8991  11.709  11.736   2.085  0.1493  0.0344  0.5700
   66MOL0     C 8992  11.596  11.823   2.140 -0.9010  0.6543  0.3667
   66MOL0     C 8993  11.642  11.939   2.217  0.0836 -1.0638 -0.6205
   66MOL0     O 8994  11.700  11.909   2.347 -0.2492  0.3453  0.9498
   66MOL0     C 8995  11.625  11.896   2.468  0.8132  0.1939 -0.4954
   66MOL0     C 8996  11.493  11.854   2.465  0.2975  0.5700 -0.3008
   66MOL0     C 8997  11.413  11.828   2.585  0.6782 -0.1736  0.0699
   66MOL0     C 8998  11.259  11.798   2.571  0.2414 -0.4477  0.2657
   66MOL0     C 8999  11.479  11.839   2.709  1.1457  1.2258 -0.8761
   66MOL0     C 9000  11.408  11.813   2.844  0.2613 -0.4323 -0.1268
   66MOL0     O 9001  11.295  11.736   2.857 -0.0342 -0.1694  0.1404
   66MOL0     C 9002  11.279  11.684   2.980 -1.1195  0.2329  0.4291
   66MOL0     C 9003  11.307  11.542   2.994 -0.5106  0.0363  0.4102
   66MOL0     C 9004  11.267  11.477   3.107  0.0615  0.6586  0.0558
   66MOL0     C 9005  11.192  11.539   3.211  0.4572  0.5886  0.4162
   66MOL0     O 9006  11.119  11.463   3.299 -0.3382  0.0199 -0.3391
   66MOL0     C 9007  11.074  11.537   3.412  0.6409 -0.5887 -0.0474
   66MOL0     C 9008  11.002  11.441   3.509 -0.1072 -0.0669  0.7638
   66MOL0     C 9009  11.074  11.351   3.607  0.1384 -0.5993  0.9300
   66MOL0     C 9010  11.139  11.225   3.543 -0.4277 -0.0490 -0.0137
   66MOL0     C 9011  11.062  11.109   3.589  0.0949 -0.9772 -0.1678
   66MOL0     C 9012  11.110  10.982   3.521 -0.1503 -1.0573  0.4564
   66MOL0     C 9013  11.012  10.881   3.574 -0.4893  0.9753 -0.2123
   66MOL0     C 9014  11.015  10.752   3.484 -0.6574 -0.4447 -0.2737
   66MOL0    Cl 9015  11.169  10.649   3.509 -0.1449  0.5781 -0.6584
   66MOL0     C 9016  11.203  11.682   3.209  0.3795 -0.7427  0.4591
   66MOL0     C 9017  11.226  11.754   3.091 -0.4464 -0.1247  0.0008
   66MOL0     O 9018  11.471  11.857   2.940  0.3193  0.1181 -0.8088
   66MOL0     C 9019  11.611  11.877   2.710 -0.8054 -0.1081  0.8835
   66MOL0     C 9020  11.683  11.901   2.592 -0.7510 -0.0999 -0.1510
   66MOL0     N 9021  11.468  11.484   1.988  0.2280 -0.2609 -0.2839
   66MOL0     N 9022  11.437  11.367   2.040 -0.6271 -0.5358 -0.0209
   66MOL0     C 9023  11.460  10.330   1.897 -1.5743 -1.0872 -0.5600
   66MOL0     C 9024  11.409  10.230   1.815  0.5781  0.6281 -0.5709
   66MOL0     C 9025  11.430   9.888   1.520 -0.3781 -0.1217 -0.3683
   66MOL0     C 9026  11.295   9.873   1.518  1.3370 -0.6906 -0.5262
   66MOL0     C 9027  11.229   9.752   1.485 -0.2253 -1.2603  0.0165
   66MOL0     C 9028  11.316   9.650   1.441  0.1259 -0.8899 -0.7279
   66MOL0     O 9029  11.250   9.544   1.399 -0.2201 -0.1515  0.0042
   66MOL0     C 9030  11.253   9.505   1.266 -0.6678  1.0114 -0.2958
   66MOL0     C 9031  11.142   9.405   1.230  0.1497  0.1177  1.1449
   66MOL0     C 9032  11.175   9.301   1.126 -0.6985 -0.0173  0.6921
   66MOL0     C 9033  11.041   9.231   1.060  0.1799 -0.6433  0.4145
   66MOL0     C 9034  10.969   9.146   1.147 -0.3581 -0.2537 -0.1104
   66MOL0     C 9035  10.904   9.075   1.233 -0.5119 -0.5457 -0.0976
   66MOL0     C 9036  11.456   9.665   1.449  0.0572 -0.6445  0.5439
   66MOL0     C 9037  11.513   9.780   1.487  0.5319  0.2563 -0.0239
   66MOL0     C 9038  11.664   9.781   1.476  0.2469  0.2825 -1.0368
   66MOL0     H 9039  11.558  10.308   1.528  1.7255  3.9504 -0.5474
   66MOL0     H 9040  11.627  10.500   1.654  1.3693 -0.2698 -0.2531
   66MOL0     H 9041  11.709  10.669   1.846  1.9526  0.7252  0.4613
   66MOL0     H 9042  11.780  10.500   1.865 -0.2039 -0.0886  1.4755
   66MOL0     H 9043  11.823  10.553   2.094  2.6215  0.4007 -1.5089
   66MOL0     H 9044  11.874  10.695   2.004 -0.4692  2.0625  0.2164
   66MOL0     H 9045  11.657  10.807   2.039  1.1053 -1.0437 -1.8247
   66MOL0     H 9046  11.611  10.678   2.158  1.8452 -2.5552  1.0727
   66MOL0     H 9047  11.863  10.766   2.249  3.7889  3.3808 -2.7824
   66MOL0     H 9048  11.846  10.889   2.140  3.4720 -2.8819  0.2519
   66MOL0     H 9049  11.769  10.948   2.362  0.0809  1.6760 -1.8477
   66MOL0     H 9050  11.660  10.807   2.368 -0.8783 -0.3495 -0.6676
   66MOL0     H 9051  11.508  10.895   2.197  1.6434 -0.1949 -1.6220
   66MOL0     H 9052  11.527  10.992   2.340 -0.7909 -1.8577  0.4962
   66MOL0     H 9053  11.636  11.051   2.062  0.7572 -4.4278  1.4503
   66MOL0     H 9054  11.709  11.120   2.205 -0.4447  1.1905 -0.5813
   66MOL0     H 9055  11.410  11.166   2.164 -0.2723  0.9805 -0.6088
   66MOL0     H 9056  11.531  11.207   2.295  0.8925 -0.7168  0.3817
   66MOL0     H 9057  11.738  11.393   2.156 -1.2453 -0.8698  2.2288
   66MOL0     H 9058  11.618  11.676   1.892  0.1085 -2.6955 -1.8761
   66MOL0     H 9059  11.760  11.601   1.940  1.0987  1.6582  2.1396
   66MOL0     H 9060  11.766  11.685   2.163  2.0915  1.2315  0.0113
   66MOL0     H 9061  11.782  11.800   2.035  0.2003 -1.0345 -0.7801
   66MOL0     H 9062  11.535  11.849   2.053 -2.1396 -2.2252  0.2679
   66MOL0     H 9063  11.528  11.772   2.209 -2.7229  4.0003  1.2475
   66MOL0     H 9064  11.712  11.994   2.153  0.1054  2.9047  2.4281
   66MOL0     H 9065  11.565  12.012   2.243  1.0004 -1.3035  3.5900
   66MOL0     H 9066  11.451  11.847   2.365  2.8670 -1.9728 -1.3761
   66MOL0     H 9067  11.249  11.690   2.562  1.1251 -0.3260 -3.5806
   66MOL0     H 9068  11.208  11.846   2.487 -0.1754 -0.5071  0.4808
   66MOL0     H 9069  11.201  11.828   2.660 -1.4591  0.4663 -1.0847
   66MOL0     H 9070  11.337  11.469   2.919  1.2215 -0.2076  1.2826
   66MOL0     H 9071  11.276  11.370   3.121 -1.3132  0.5523  0.2788
   66MOL0     H 9072  11.152  11.592   3.466  3.9091 -2.2959 -2.6677
   66MOL0     H 9073  10.996  11.609   3.386 -0.5977 -1.6861  0.5209
   66MOL0     H 9074  10.934  11.500   3.572 -4.8985 -0.8719 -3.0494
   66MOL0     H 9075  10.928  11.382   3.455  1.6590 -0.0086 -1.8959
   66MOL0     H 9076  11.012  11.332   3.695  0.3946 -4.1685  0.4595
   66MOL0     H 9077  11.153  11.417   3.646 -1.8832  0.4099  3.5753
   66MOL0     H 9078  11.239  11.214   3.584  1.4703  2.3595 -3.5254
   66MOL0     H 9079  11.156  11.219   3.435  0.0829  1.9579 -0.0777
   66MOL0     H 9080  11.064  11.100   3.698 -0.3840  1.1513  0.0614
   66MOL0     H 9081  10.956  11.117   3.561  0.3683 -1.1710 -1.3321
   66MOL0     H 9082  11.211  10.958   3.555 -0.6123 -0.4612  2.3567
   66MOL0     H 9083  11.101  10.980   3.412 -5.2969  0.5679  0.5943
   66MOL0     H 9084  10.908  10.916   3.566 -0.6333  0.1797 -2.1850
   66MOL0     H 9085  11.042  10.863   3.678  0.1774 -1.5388 -0.7733
   66MOL0     H 9086  11.012  10.787   3.380  1.9378  1.4948  0.1876
   66MOL0     H 9087  10.927  10.690   3.505 -2.0395  1.6841  0.4993
   66MOL0     H 9088  11.156  11.743   3.285  1.3532  2.1994 -1.1233
   66MOL0     H 9089  11.219  11.862   3.079 -0.4271 -0.0098  0.9802
   66MOL0     H 9090  11.672  11.894   2.798 -1.1575  1.0220  0.9263
   66MOL0     H 9091  11.782  11.944   2.596 -1.3771  1.3816  0.2846
   66MOL0     H 9092  11.442  10.312   2.003  5.1962  2.6794  1.8626
   66MOL0     H 9093  11.355  10.147   1.860  1.5855  1.4390  2.3457
   66MOL0     H 9094  11.220   9.948   1.540  1.8233  0.1794 -1.7452
   66MOL0     H 9095  11.122   9.753   1.473 -0.1051  1.5378 -1.9404
   66MOL0     H 9096  11.269   9.590   1.199 -1.2381 -0.1232 -1.9253
   66MOL0     H 9097  11.346   9.448   1.262 -1.5347 -0.5176  0.4591
   66MOL0     H 9098  11.052   9.458   1.198  2.0355  1.6062 -2.1690
   66MOL0     H 9099  11.100   9.355   1.318 -2.3241  3.7672  2.2890
   66MOL0     H 9100  11.240   9.343   1.049 -0.7951 -0.1597  0.5328
   66MOL0     H 9101  11.242   9.222   1.161  1.4816  1.7917  0.8231
   66MOL0     H 9102  11.072   9.174   0.972 -0.4972 -2.0445  1.0433
   66MOL0     H 9103  10.972   9.312   1.032  0.4535 -0.5827 -0.0915
   66MOL0     H 9104  10.852   9.008   1.299 -0.8111 -1.0578 -0.8357
   66MOL0     H 9105  11.527   9.586   1.425  0.2848 -0.4150  0.4641
   66MOL0     H 9106  11.713   9.851   1.544 -1.4149  0.7406 -0.2460
   66MOL0     H 9107  11.703   9.682   1.502 -0.8942 -0.3432 -1.6200
   66MOL0     H 9108  11.695   9.808   1.375  2.2941 -0.0650 -0.5586
   67MOL0     O 9109  11.095   7.115   7.898  0.1064  0.1586 -0.4117
   67MOL0     C 9110  11.168   7.044   7.833  0.0442  0.0848 -0.1276
   67MOL0     O 9111  11.130   6.952   7.745  1.0370 -0.3980  0.4022
   67MOL0     C 9112  10.998   6.947   7.702  0.2884  0.0586 -0.3991
   67MOL0     C 9113  10.975   6.925   7.562  0.8546 -0.1389 -0.5946
   67MOL0     C 9114  10.843   6.894   7.521  0.1505  0.0929 -0.2581
   67MOL0     C 9115  10.736   6.898   7.607  0.2779 -1.2182  0.5088
   67MOL0     O 9116  10.625   6.832   7.566  0.0677  0.2545 -0.1643
   67MOL0     C 9117  10.512   6.856   7.649 -0.4729  0.3421  0.8196
   67MOL0     C 9118  10.388   6.802   7.573  0.1390  0.0774 -0.0155
   67MOL0     C 9119  10.266   6.867   7.625 -0.2577 -0.5464 -0.2721
   67MOL0     C 9120  10.138   6.851   7.548  0.1743 -0.0731 -0.3889
   67MOL0     C 9121  10.025   6.947   7.588 -0.2951 -0.4152  0.1325
   67MOL0     C 9122   9.890   6.893   7.523 -0.0223  0.4646 -0.6947
   67MOL0     C 9123   9.785   7.015   7.508  0.3378  0.5888 -0.1588
   67MOL0     C 9124   9.651   6.973   7.465 -0.2481  0.4364 -0.6261
   67MOL0     N 9125   9.586   7.034   7.351  1.3300 -0.2642  0.7042
   67MOL0     C 9126   9.594   7.163   7.308  0.2069  0.2920 -0.8353
   67MOL0     C 9127   9.527   7.161   7.186 -0.5481  0.5612  0.1890
   67MOL0     C 9128   9.536   7.274   7.083 -0.0366  0.3211 -0.5746
   67MOL0     C 9129   9.511   7.409   7.141  0.2730  0.5219  0.2867
   67MOL0     C 9130   9.544   7.509   7.016  0.2926  0.5091 -0.6423
   67MOL0     C 9131   9.700   7.525   6.982  0.7999  0.0155  0.7162
   67MOL0     O 9132   9.759   7.588   7.095  1.5209 -0.0345 -0.3896
   67MOL0     C 9133   9.898   7.603   7.096 -0.4788  0.8033  0.8751
   67MOL0     C 9134   9.978   7.564   6.979 -0.5597  0.8008  0.2566
   67MOL0     C 9135  10.117   7.581   6.960  0.4320 -0.9760 -1.4148
   67MOL0     C 9136  10.178   7.570   6.819 -0.3738 -0.8470 -0.2785
   67MOL0     C 9137  10.192   7.616   7.082 -0.2640 -0.0684  0.4374
   67MOL0     C 9138  10.340   7.635   7.093 -0.0238  0.2857  0.8577
   67MOL0     O 9139  10.394   7.692   7.204  0.2977  0.6966 -0.0202
   67MOL0     C 9140  10.525   7.724   7.216  0.3765  1.2307 -0.1048
   67MOL0     C 9141  10.628   7.644   7.270 -0.2255  1.5624  0.4871
   67MOL0     C 9142  10.765   7.683   7.276  1.1552 -0.0758 -0.0973
   67MOL0     C 9143  10.801   7.804   7.212  0.1895  0.7680 -0.3847
   67MOL0     O 9144  10.932   7.849   7.233  0.2782  1.0393 -0.0197
   67MOL0     C 9145  10.980   7.944   7.133 -0.2708  0.9417  0.0964
   67MOL0     C 9146  11.124   7.951   7.132  0.2105 -0.0052  0.7538
   67MOL0     C 9147  11.177   8.015   7.003 -0.0547 -0.8009  0.5301
   67MOL0     C 9148  11.316   8.059   7.028  0.4592  0.3051  0.0741
   67MOL0     C 9149  11.374   8.142   6.916 -0.1071 -0.2053 -0.2747
   67MOL0     C 9150  11.492   8.215   6.973 -0.0605 -0.3862 -0.6975
   67MOL0     C 9151  11.597   8.258   6.869 -0.7970  0.4786  0.2871
   67MOL0     C 9152  11.577   8.382   6.793 -1.2874 -0.2414  0.3677
   67MOL0    Cl 9153  11.632   8.530   6.868  0.0442  0.0240 -0.4465
   67MOL0     C 9154  10.696   7.889   7.166  0.5945  1.1138  0.7100
   67MOL0     C 9155  10.563   7.840   7.161 -0.0002  0.2320  0.0895
   67MOL0     O 9156  10.410   7.588   6.997 -0.0325  0.3356 -0.4713
   67MOL0     C 9157  10.113   7.641   7.201  0.3449  0.0387  0.3050
   67MOL0     C 9158   9.970   7.627   7.211  0.5731  0.1424  0.6003
   67MOL0     N 9159   9.473   7.037   7.161  0.3633 -0.3598  0.8166
   67MOL0     N 9160   9.507   6.969   7.267 -0.5277 -0.0369 -0.5682
   67MOL0     C 9161  10.754   6.938   7.739 -0.0299  0.0612 -0.2053
   67MOL0     C 9162  10.885   6.965   7.786  0.4023  0.0183  1.3783
   67MOL0     C 9163  11.317   7.058   7.850 -0.2148  0.6137  0.6591
   67MOL0     C 9164  11.392   7.000   7.748 -0.1262  0.6524 -0.5367
   67MOL0     C 9165  11.532   6.975   7.771 -0.1571  0.3159  0.2778
   67MOL0     C 9166  11.606   7.035   7.875 -0.1540 -0.2699 -0.6166
   67MOL0     O 9167  11.736   7.028   7.911 -0.0405 -0.7157 -0.3320
   67MOL0     C 9168  11.821   7.017   7.801 -0.3619  0.1588 -0.0395
   67MOL0     C 9169  11.959   7.060   7.840 -0.9227 -0.1350  0.2084
   67MOL0     C 9170  11.961   7.215   7.876  0.4735 -0.5453 -0.7146
   67MOL0     C 9171  12.089   7.278   7.918 -0.1212 -0.5290  0.5058
   67MOL0     C 9172  12.196   7.269   7.820 -0.1575 -0.0037  0.3016
   67MOL0     C 9173  12.278   7.240   7.737 -0.7342 -0.1460  0.5355
   67MOL0     C 9174  11.521   7.102   7.964 -0.7147 -0.1612  0.9778
   67MOL0     C 9175  11.383   7.121   7.955  0.1479 -0.1956 -0.4990
   67MOL0     C 9176  11.317   7.191   8.077 -0.1951 -0.7733  1.0420
   67MOL0     H 9177  11.056   6.921   7.489 -0.7819  0.2694 -2.5376
   67MOL0     H 9178  10.821   6.852   7.424 -1.3559 -1.7744  0.8080
   67MOL0     H 9179  10.499   6.959   7.684 -0.6295 -0.8395  4.6756
   67MOL0     H 9180  10.508   6.798   7.742 -0.8369  1.6808  1.6752
   67MOL0     H 9181  10.393   6.817   7.465 -0.4951  4.0826  0.3334
   67MOL0     H 9182  10.384   6.695   7.594  2.2960  0.3395  2.1470
   67MOL0     H 9183  10.262   6.824   7.725  3.4456 -2.9087 -0.9282
   67MOL0     H 9184  10.284   6.973   7.647  2.5085 -0.5475 -2.0067
   67MOL0     H 9185  10.163   6.866   7.443  2.9318 -0.9325  0.0605
   67MOL0     H 9186  10.104   6.747   7.556 -2.0643  0.3688 -2.8058
   67MOL0     H 9187  10.057   7.044   7.549  1.2036  1.2402  4.8174
   67MOL0     H 9188  10.019   6.955   7.697  2.9678  1.3427  0.3012
   67MOL0     H 9189   9.909   6.840   7.430  1.7814 -2.6453  1.2486
   67MOL0     H 9190   9.864   6.809   7.589  3.9284 -0.9599 -0.7043
   67MOL0     H 9191   9.824   7.086   7.434 -0.5443  1.6009  0.3118
   67MOL0     H 9192   9.776   7.076   7.598  2.4900 -0.2090  0.6522
   67MOL0     H 9193   9.642   6.868   7.434 -2.6333  0.7234 -1.1001
   67MOL0     H 9194   9.592   6.995   7.554 -0.7212  0.4197 -0.9313
   67MOL0     H 9195   9.653   7.242   7.354 -1.0007 -0.6998  2.7294
   67MOL0     H 9196   9.462   7.260   7.003  0.0535 -0.3115 -0.5495
   67MOL0     H 9197   9.638   7.269   7.045  0.0565  0.5465 -0.3594
   67MOL0     H 9198   9.407   7.413   7.174 -0.5414 -1.2902 -1.8042
   67MOL0     H 9199   9.575   7.431   7.227  0.2783 -0.5590  0.5736
   67MOL0     H 9200   9.485   7.489   6.925 -1.9197  3.9721 -0.1536
   67MOL0     H 9201   9.512   7.611   7.040  0.9443  0.6861 -0.4984
   67MOL0     H 9202   9.753   7.429   6.975  0.6163  0.0407 -2.6912
   67MOL0     H 9203   9.709   7.582   6.889  3.0277 -0.3706  0.6266
   67MOL0     H 9204   9.934   7.516   6.892  0.9276  3.8035 -2.3957
   67MOL0     H 9205  10.207   7.670   6.785 -4.3151  0.3651 -0.6434
   67MOL0     H 9206  10.105   7.541   6.743  0.1471  4.0128 -3.0698
   67MOL0     H 9207  10.262   7.501   6.822 -1.7768 -2.6027  0.3922
   67MOL0     H 9208  10.607   7.549   7.318  1.2034  0.3317 -1.2374
   67MOL0     H 9209  10.837   7.613   7.318 -0.0346 -3.2763 -2.9352
   67MOL0     H 9210  10.948   7.912   7.033 -0.1893 -0.2322  0.4331
   67MOL0     H 9211  10.938   8.041   7.164  2.7239  1.5148  2.9513
   67MOL0     H 9212  11.154   8.013   7.217 -1.9335 -0.3167  1.7844
   67MOL0     H 9213  11.154   7.846   7.127  0.1850  0.0259 -3.2133
   67MOL0     H 9214  11.128   8.112   7.005 -0.0742 -0.6523 -2.2894
   67MOL0     H 9215  11.156   7.954   6.915  2.8155 -1.8253  0.4323
   67MOL0     H 9216  11.368   7.974   7.072  0.5316  1.1116  1.6254
   67MOL0     H 9217  11.309   8.119   7.120  2.3237  0.2566  0.2814
   67MOL0     H 9218  11.417   8.068   6.847 -0.4091 -0.4511 -0.2035
   67MOL0     H 9219  11.306   8.212   6.867  0.2874 -1.2107 -2.3959
   67MOL0     H 9220  11.532   8.156   7.055  1.0369  1.3510  0.0630
   67MOL0     H 9221  11.459   8.303   7.030 -4.1594 -2.5397  0.6506
   67MOL0     H 9222  11.596   8.182   6.791  0.3729  1.3138 -0.5735
   67MOL0     H 9223  11.698   8.276   6.909 -0.0786  1.2369 -1.7822
   67MOL0     H 9224  11.468   8.384   6.788 -1.3566 -1.1471  1.2513
   67MOL0     H 9225  11.620   8.368   6.693  1.4277 -0.7188  1.5092
   67MOL0     H 9226  10.720   7.992   7.141  1.2644  0.9297  0.5806
   67MOL0     H 9227  10.486   7.900   7.113  1.0765  0.8781 -0.8910
   67MOL0     H 9228  10.167   7.667   7.291  0.1868  0.7136  0.2169
   67MOL0     H 9229   9.915   7.668   7.295 -2.8507 -0.9038 -0.9179
   67MOL0     H 9230  10.679   6.945   7.817  0.9523  1.5213  0.6733
   67MOL0     H 9231  10.898   6.993   7.891 -0.1045 -0.7214  1.6505
   67MOL0     H 9232  11.347   6.984   7.650 -0.9740  2.7786 -0.5434
   67MOL0     H 9233  11.582   6.909   7.701 -0.8243 -0.8164  0.8365
   67MOL0     H 9234  11.835   6.912   7.776  0.3739  0.4057 -0.6907
   67MOL0     H 9235  11.784   7.068   7.712 -1.3929 -1.8887 -0.8419
   67MOL0     H 9236  12.022   7.051   7.751 -1.8071 -1.7068 -0.2996
   67MOL0     H 9237  11.999   6.993   7.918 -0.9681 -2.5019 -1.6788
   67MOL0     H 9238  11.927   7.271   7.788 -4.7055  1.4534  2.1005
   67MOL0     H 9239  11.885   7.233   7.952 -1.5954  1.6909 -3.1161
   67MOL0     H 9240  12.123   7.253   8.019 -2.5682  0.5321  1.6681
   67MOL0     H 9241  12.079   7.387   7.928  0.5611 -0.5410  1.5381
   67MOL0     H 9242  12.351   7.235   7.659 -2.5302 -1.1050 -1.1552
   67MOL0     H 9243  11.574   7.131   8.055  1.4220  0.1218 -0.2877
   67MOL0     H 9244  11.280   7.284   8.033 -4.8564 -1.5687  2.7917
   67MOL0     H 9245  11.230   7.132   8.107 -1.6850 -1.3913 -3.6784
   67MOL0     H 9246  11.390   7.214   8.155  0.1312 -2.2865  1.2189
   68MOL0     O 9247  11.195   4.310   2.868 -0.1259 -0.1168  0.7717
   68MOL0     C 9248  11.162   4.389   2.782 -0.6228 -1.0208 -1.2523
   68MOL0     O 9249  11.231   4.500   2.750  0.4243  0.0999  0.0287
   68MOL0     C 9250  11.366   4.492   2.770 -0.0643  0.2638 -1.2606
   68MOL0     C 9251  11.448   4.407   2.689 -0.7493 -0.7892  0.4344
   68MOL0     C 9252  11.588   4.412   2.689  0.4539  0.0937 -0.0569
   68MOL0     C 9253  11.653   4.510   2.757  1.3789 -0.2818  1.1438
   68MOL0     O 9254  11.793   4.525   2.750 -0.5971  0.5025  0.1491
   68MOL0     C 9255  11.851   4.635   2.829 -0.0838  0.2257  0.5782
   68MOL0     C 9256  11.987   4.671   2.781 -1.2260 -1.1838 -0.0718
   68MOL0     C 9257  12.040   4.813   2.827  0.1334 -0.0546 -0.0942
   68MOL0     C 9258  12.069   4.822   2.979 -0.7898  1.0233  0.8646
   68MOL0     C 9259  12.220   4.825   3.009  1.0673  1.4207  0.0868
   68MOL0     C 9260  12.293   4.956   2.963  0.8154  0.2415 -0.1722
   68MOL0     C 9261  12.427   5.004   3.041  0.3492 -0.6122 -0.1416
   68MOL0     C 9262  12.559   4.940   3.010 -0.5210  0.0933  0.5864
   68MOL0     N 9263  12.566   4.790   3.002 -0.4921 -0.1425  0.0888
   68MOL0     C 9264  12.541   4.705   3.107 -0.6052 -0.3778  0.2051
   68MOL0     C 9265  12.549   4.581   3.063  0.2596 -0.6257 -0.0682
   68MOL0     C 9266  12.536   4.455   3.145  0.5493 -0.0139  0.9747
   68MOL0     C 9267  12.393   4.438   3.204 -0.1987  0.3389 -0.2695
   68MOL0     C 9268  12.376   4.343   3.327  0.5048  0.6590  0.3356
   68MOL0     C 9269  12.452   4.205   3.326 -0.4334  0.6658  0.0292
   68MOL0     O 9270  12.590   4.224   3.364  0.2289 -0.1914 -0.9548
   68MOL0     C 9271  12.687   4.121   3.346  0.8263 -0.3056 -1.7418
   68MOL0     C 9272  12.678   4.009   3.277  0.5505  1.2868 -0.0195
   68MOL0     C 9273  12.774   3.914   3.262 -0.5575 -0.2251  0.0904
   68MOL0     C 9274  12.723   3.802   3.171 -0.7760 -0.6587  0.9076
   68MOL0     C 9275  12.899   3.937   3.326  0.1074  0.0504  0.6463
   68MOL0     C 9276  13.012   3.842   3.309 -0.2813 -0.8055  0.2617
   68MOL0     O 9277  12.991   3.711   3.277  0.0565  0.2697  0.3593
   68MOL0     C 9278  13.101   3.643   3.215 -0.0441  0.1530 -0.6581
   68MOL0     C 9279  13.128   3.655   3.075 -0.1841  0.3061 -0.2184
   68MOL0     C 9280  13.231   3.585   3.005 -0.5491  0.9604  1.1147
   68MOL0     C 9281  13.307   3.486   3.073 -0.7052  0.3303  0.7679
   68MOL0     O 9282  13.413   3.431   3.006  0.0965  0.7053 -0.4756
   68MOL0     C 9283  13.492   3.315   3.058  0.8057 -0.0752 -0.2765
   68MOL0     C 9284  13.548   3.212   2.965  0.3305  0.3541  0.4239
   68MOL0     C 9285  13.580   3.262   2.824 -0.0510 -0.3285  0.2909
   68MOL0     C 9286  13.712   3.206   2.768  0.5900  1.5223  0.6250
   68MOL0     C 9287  13.764   3.299   2.658 -0.2929  0.7153  0.1665
   68MOL0     C 9288  13.919   3.263   2.647  0.9831  0.9192 -0.9907
   68MOL0     C 9289  13.990   3.319   2.519 -0.3815  0.0269 -0.4993
   68MOL0     C 9290  14.130   3.255   2.495 -0.4539 -0.3561 -0.2731
   68MOL0    Cl 9291  14.224   3.337   2.371 -0.0660  0.3399 -0.3143
   68MOL0     C 9292  13.266   3.465   3.213  0.0481  0.0104 -1.2161
   68MOL0     C 9293  13.165   3.541   3.283 -0.5965  0.2289  0.0127
   68MOL0     O 9294  13.127   3.883   3.328 -0.0383  0.2499 -0.5323
   68MOL0     C 9295  12.917   4.060   3.400  0.4143  0.3389 -0.9487
   68MOL0     C 9296  12.804   4.152   3.420 -0.0427 -0.5644  0.8065
   68MOL0     N 9297  12.577   4.595   2.929  0.2232 -0.5483 -0.2198
   68MOL0     N 9298  12.571   4.717   2.895 -0.7244  0.1222 -0.4308
   68MOL0     C 9299  11.575   4.588   2.849 -0.0498  0.7853 -0.1245
   68MOL0     C 9300  11.435   4.576   2.856 -0.3940 -0.4063  0.7435
   68MOL0     C 9301  11.024   4.363   2.736 -0.4242  0.4437 -0.2679
   68MOL0     C 9302  10.925   4.454   2.785 -0.5219 -0.1952 -0.0134
   68MOL0     C 9303  10.793   4.452   2.739 -1.2177 -0.8897 -0.4302
   68MOL0     C 9304  10.754   4.353   2.640  0.2095 -0.3639 -0.2398
   68MOL0     O 9305  10.621   4.331   2.591 -0.4319 -0.5479 -0.2617
   68MOL0     C 9306  10.517   4.372   2.678  0.2073 -0.1469 -0.8168
   68MOL0     C 9307  10.390   4.285   2.630 -0.6182 -0.7856  0.1456
   68MOL0     C 9308  10.335   4.335   2.494  0.6745 -0.1728 -0.0235
   68MOL0     C 9309  10.213   4.250   2.438 -0.2527 -0.6302  0.5651
   68MOL0     C 9310  10.170   4.125   2.498 -1.0669  0.5553 -0.1648
   68MOL0     C 9311  10.101   4.040   2.547 -0.4847  0.1108 -0.1420
   68MOL0     C 9312  10.846   4.268   2.598  0.2863  0.0160  0.1360
   68MOL0     C 9313  10.989   4.263   2.636  0.4709 -0.2236 -0.1689
   68MOL0     C 9314  11.083   4.163   2.573 -0.6474 -0.2556 -0.6034
   68MOL0     H 9315  11.406   4.329   2.627  2.8576 -0.0868 -3.3306
   68MOL0     H 9316  11.660   4.354   2.632  3.5389  2.9195  0.5695
   68MOL0     H 9317  11.864   4.610   2.934  3.0308  1.3587  0.5479
   68MOL0     H 9318  11.786   4.723   2.821 -2.8897 -1.6623  0.9496
   68MOL0     H 9319  12.058   4.597   2.818  2.7871  0.5487 -3.4958
   68MOL0     H 9320  12.012   4.660   2.675  1.0246  1.6776  0.0480
   68MOL0     H 9321  12.124   4.849   2.767 -1.8242  1.1674 -2.2750
   68MOL0     H 9322  11.972   4.893   2.796  0.6730  0.3738 -0.1854
   68MOL0     H 9323  12.017   4.905   3.029 -5.0837 -0.0451 -1.3373
   68MOL0     H 9324  12.033   4.732   3.029 -0.3119  0.1415 -0.3306
   68MOL0     H 9325  12.260   4.737   2.958 -0.1285  0.8271  0.1428
   68MOL0     H 9326  12.233   4.799   3.115  3.7644  1.6865 -0.1201
   68MOL0     H 9327  12.327   4.963   2.860  5.6586  2.0138  1.2516
   68MOL0     H 9328  12.218   5.034   2.973  1.6198  0.9525  0.4348
   68MOL0     H 9329  12.411   4.994   3.148 -3.0961  1.1662 -0.3689
   68MOL0     H 9330  12.437   5.110   3.015 -2.1589  0.3968  2.5736
   68MOL0     H 9331  12.590   4.966   2.909 -3.1378  2.5850  0.3112
   68MOL0     H 9332  12.635   4.975   3.081  1.4785  1.4188 -2.0338
   68MOL0     H 9333  12.515   4.735   3.208  1.1170 -0.5040  0.7228
   68MOL0     H 9334  12.611   4.450   3.224  1.2597 -2.2494  0.2350
   68MOL0     H 9335  12.546   4.368   3.080 -0.3895  0.7285 -0.2207
   68MOL0     H 9336  12.346   4.534   3.228 -1.9130 -0.3358 -0.8233
   68MOL0     H 9337  12.331   4.411   3.119 -0.4215  2.0726 -0.7094
   68MOL0     H 9338  12.411   4.393   3.418 -1.7451 -0.6859  2.0499
   68MOL0     H 9339  12.270   4.317   3.327  0.3432  1.2982  0.6069
   68MOL0     H 9340  12.426   4.125   3.397 -0.3734 -1.0052 -1.7346
   68MOL0     H 9341  12.425   4.162   3.229 -3.0982 -3.0030  2.1212
   68MOL0     H 9342  12.580   3.998   3.230  1.3767  1.2347 -1.8001
   68MOL0     H 9343  12.691   3.853   3.080  1.7007 -0.7169 -0.0573
   68MOL0     H 9344  12.643   3.762   3.235 -0.6475 -3.3289 -0.4674
   68MOL0     H 9345  12.791   3.718   3.161  0.7865  0.8660 -2.9543
   68MOL0     H 9346  13.063   3.729   3.029 -1.9162 -1.0917 -0.1203
   68MOL0     H 9347  13.245   3.609   2.900  4.4799 -3.8625  0.2468
   68MOL0     H 9348  13.581   3.361   3.101  1.2827 -1.9320  0.8213
   68MOL0     H 9349  13.441   3.267   3.143 -0.7038  0.7047 -0.7047
   68MOL0     H 9350  13.633   3.156   3.006 -0.4344 -0.1666  1.3293
   68MOL0     H 9351  13.463   3.144   2.951  0.8016 -0.2672  0.5265
   68MOL0     H 9352  13.587   3.371   2.821 -3.0831  0.0845  2.7145
   68MOL0     H 9353  13.500   3.236   2.753 -1.1924  1.0338  1.0271
   68MOL0     H 9354  13.715   3.103   2.730  0.2276  1.4152  0.8772
   68MOL0     H 9355  13.781   3.205   2.853 -1.2111  2.0056  2.1338
   68MOL0     H 9356  13.707   3.285   2.566 -3.1527  1.7892  1.6423
   68MOL0     H 9357  13.762   3.403   2.693 -1.2589  0.2731  1.5108
   68MOL0     H 9358  13.937   3.155   2.651 -0.4362  0.6077 -2.1635
   68MOL0     H 9359  13.972   3.297   2.736  2.1103 -0.4394 -1.0994
   68MOL0     H 9360  14.013   3.421   2.550 -0.7250 -0.5416  1.7443
   68MOL0     H 9361  13.931   3.322   2.427  3.0492  1.6243 -2.9042
   68MOL0     H 9362  14.115   3.155   2.455 -2.0709 -0.7778  1.2704
   68MOL0     H 9363  14.193   3.258   2.585 -3.1299  0.4674  1.6888
   68MOL0     H 9364  13.333   3.397   3.264  0.4746 -0.2890 -2.1569
   68MOL0     H 9365  13.139   3.528   3.387 -1.2189  1.5105  0.0440
   68MOL0     H 9366  13.011   4.074   3.452 -0.5375  0.5821  0.8038
   68MOL0     H 9367  12.819   4.243   3.477 -0.1848  0.1926 -0.3358
   68MOL0     H 9368  11.628   4.648   2.923 -0.6029  3.1049 -1.5301
   68MOL0     H 9369  11.366   4.623   2.926  0.6706  0.7687  1.0459
   68MOL0     H 9370  10.945   4.526   2.864 -0.2401  0.1984 -0.4376
   68MOL0     H 9371  10.730   4.531   2.780  2.6502  1.8369  0.9205
   68MOL0     H 9372  10.542   4.362   2.784 -0.2931 -1.3277 -0.8030
   68MOL0     H 9373  10.495   4.477   2.656 -1.9778 -0.8493 -2.2942
   68MOL0     H 9374  10.312   4.308   2.703  1.3506 -1.7484  2.6860
   68MOL0     H 9375  10.415   4.179   2.633  0.6231 -0.4906  1.1667
   68MOL0     H 9376  10.294   4.432   2.525  2.2760 -1.0719  6.1972
   68MOL0     H 9377  10.417   4.338   2.422  0.5633 -0.9214 -0.1921
   68MOL0     H 9378  10.246   4.230   2.335  0.2509  1.2416  0.3268
   68MOL0     H 9379  10.122   4.311   2.445 -0.3317 -0.6966  0.1345
   68MOL0     H 9380  10.051   3.969   2.610 -0.6525 -0.1661 -0.5800
   68MOL0     H 9381  10.811   4.185   2.537 -1.3874 -0.4605  1.6624
   68MOL0     H 9382  11.132   4.096   2.644  1.2875 -0.8765 -2.4497
   68MOL0     H 9383  11.031   4.100   2.500  2.9551 -1.9480 -1.9306
   68MOL0     H 9384  11.163   4.220   2.524 -1.8578  1.4349 -0.7246
   69MOL0     O 9385  10.588   4.354   4.111 -1.1920  0.6323  0.2797
   69MOL0     C 9386  10.681   4.302   4.055 -0.4028  0.9946  0.5170
   69MOL0     O 9387  10.794   4.375   4.004  0.1118 -0.0111  0.0229
   69MOL0     C 9388  10.788   4.512   4.022 -0.5521 -0.4555 -0.1004
   69MOL0     C 9389  10.718   4.603   3.939  0.7011 -0.4395 -0.0701
   69MOL0     C 9390  10.736   4.745   3.950  1.0161 -0.0838 -0.2045
   69MOL0     C 9391  10.825   4.793   4.046 -0.3324  0.1622 -0.1486
   69MOL0     O 9392  10.832   4.926   4.077  0.0343  0.0829 -0.0813
   69MOL0     C 9393  10.934   4.990   4.003 -0.1341  0.0824 -0.6250
   69MOL0     C 9394  10.888   5.121   3.941  0.0595 -0.0912  0.7651
   69MOL0     C 9395  10.777   5.116   3.841 -0.0786  0.0603 -0.3648
   69MOL0     C 9396  10.776   5.233   3.752 -0.0387  0.5193 -0.5680
   69MOL0     C 9397  10.638   5.265   3.691  0.1850 -0.4849 -0.6279
   69MOL0     C 9398  10.598   5.181   3.561 -0.1014 -0.3227 -0.4580
   69MOL0     C 9399  10.672   5.245   3.438  0.0010 -0.1457  0.5770
   69MOL0     C 9400  10.653   5.170   3.303  0.2645 -0.1669  0.3652
   69MOL0     N 9401  10.754   5.203   3.206 -0.5080  0.3741 -0.5227
   69MOL0     C 9402  10.727   5.236   3.076 -0.2621  0.5624  0.0546
   69MOL0     C 9403  10.848   5.255   3.027  0.8187  0.2695 -0.0152
   69MOL0     C 9404  10.880   5.291   2.882 -0.8563  0.4487 -0.0546
   69MOL0     C 9405  11.023   5.261   2.846 -0.8647  0.7927  0.6414
   69MOL0     C 9406  11.054   5.301   2.703  0.2668 -0.5499  0.0583
   69MOL0     C 9407  11.201   5.266   2.663  0.1826 -0.7244 -0.6483
   69MOL0     O 9408  11.283   5.373   2.715  0.5435 -0.1477  0.0050
   69MOL0     C 9409  11.397   5.414   2.648 -0.7015 -0.9589  0.4329
   69MOL0     C 9410  11.472   5.323   2.562  0.2136  0.0677 -0.5216
   69MOL0     C 9411  11.602   5.364   2.529 -0.9363  0.7400  0.0630
   69MOL0     C 9412  11.682   5.256   2.466 -0.4939 -0.4105 -1.3484
   69MOL0     C 9413  11.659   5.492   2.564  0.2734  0.3113  0.4789
   69MOL0     C 9414  11.796   5.541   2.521 -0.6061 -1.3654  0.1353
   69MOL0     O 9415  11.839   5.651   2.592  0.4388  1.0762 -0.6740
   69MOL0     C 9416  11.947   5.721   2.561  0.3818 -0.2083 -0.0043
   69MOL0     C 9417  11.976   5.764   2.431  0.5488  0.0935  0.2914
   69MOL0     C 9418  12.079   5.844   2.390  0.8573 -0.2765  0.4945
   69MOL0     C 9419  12.153   5.907   2.498 -0.3551  0.9942  0.7829
   69MOL0     O 9420  12.259   5.986   2.463 -0.3552  0.0231  0.6347
   69MOL0     C 9421  12.243   6.116   2.528 -0.3615 -0.1806 -0.0772
   69MOL0     C 9422  12.367   6.202   2.482  1.1881 -0.8261 -1.0085
   69MOL0     C 9423  12.489   6.132   2.541 -0.6296  0.3271 -0.0896
   69MOL0     C 9424  12.613   6.221   2.539  0.3181  0.4408 -0.2424
   69MOL0     C 9425  12.745   6.148   2.560  0.1971 -0.5493 -0.1978
   69MOL0     C 9426  12.771   6.041   2.443  0.7090  0.5652 -0.1764
   69MOL0     C 9427  12.911   6.086   2.376 -0.3118  1.3081 -0.7206
   69MOL0     C 9428  12.947   6.010   2.253 -0.4064 -0.0551 -0.4504
   69MOL0    Cl 9429  12.812   6.003   2.146  0.0412  0.3554  0.1094
   69MOL0     C 9430  12.133   5.864   2.637  0.8803 -0.3831 -0.3840
   69MOL0     C 9431  12.029   5.778   2.661  0.1535  0.1519 -0.4776
   69MOL0     O 9432  11.868   5.477   2.440 -0.8700 -0.7095 -0.3778
   69MOL0     C 9433  11.573   5.583   2.635  0.7826 -1.0138  0.7915
   69MOL0     C 9434  11.444   5.542   2.677 -0.6948  0.7901 -0.7760
   69MOL0     N 9435  10.943   5.246   3.132 -0.0117 -0.3513 -0.2742
   69MOL0     N 9436  10.886   5.193   3.229  0.0762 -0.2651  0.1105
   69MOL0     C 9437  10.887   4.706   4.134  0.1295 -1.3809  0.2081
   69MOL0     C 9438  10.871   4.568   4.127 -0.1380  1.3622  0.6983
   69MOL0     C 9439  10.682   4.155   4.042 -0.5248  0.0286 -0.8889
   69MOL0     C 9440  10.782   4.092   3.960  0.4049 -1.1284 -0.6882
   69MOL0     C 9441  10.784   3.956   3.926 -0.2688  0.3178  0.1176
   69MOL0     C 9442  10.695   3.867   3.985  0.1812  0.6372  0.7872
   69MOL0     O 9443  10.710   3.728   3.965 -0.4391 -1.1007  0.2377
   69MOL0     C 9444  10.718   3.683   3.829  0.5788 -0.2707  0.0582
   69MOL0     C 9445  10.851   3.623   3.784 -0.2196 -1.1576 -0.6888
   69MOL0     C 9446  10.837   3.577   3.632 -0.5629  0.0092  0.1294
   69MOL0     C 9447  10.791   3.698   3.543 -0.8193 -1.2938 -0.2344
   69MOL0     C 9448  10.839   3.676   3.402 -1.1304 -0.1092 -0.7307
   69MOL0     C 9449  10.865   3.666   3.285  0.1892 -0.4448  0.4580
   69MOL0     C 9450  10.605   3.924   4.068  1.1138  1.2411  0.8337
   69MOL0     C 9451  10.586   4.062   4.096 -0.6322 -0.1877 -0.1210
   69MOL0     C 9452  10.460   4.107   4.178 -0.1220 -0.4867 -0.0846
   69MOL0     H 9453  10.663   4.558   3.857 -0.1732  0.0298  0.2454
   69MOL0     H 9454  10.694   4.807   3.872 -1.8289 -3.9354 -2.0968
   69MOL0     H 9455  10.994   4.932   3.932  0.3411  1.9637 -1.8059
   69MOL0     H 9456  11.011   5.012   4.077  4.3092 -2.6933 -3.8910
   69MOL0     H 9457  10.863   5.198   4.014 -0.7882  0.3595  0.0243
   69MOL0     H 9458  10.975   5.164   3.891 -0.4783  0.5223  0.3440
   69MOL0     H 9459  10.794   5.029   3.777  0.5670  2.1566 -3.2138
   69MOL0     H 9460  10.681   5.109   3.894  1.0141 -2.4479  1.4830
   69MOL0     H 9461  10.820   5.324   3.793 -2.1754  0.2933  2.5202
   69MOL0     H 9462  10.852   5.214   3.676  1.8562  1.4252  1.0207
   69MOL0     H 9463  10.632   5.371   3.664  0.3719 -0.6782 -1.4455
   69MOL0     H 9464  10.558   5.245   3.763 -0.5455  2.0438 -0.6223
   69MOL0     H 9465  10.629   5.079   3.585  1.9262  0.5550  0.9408
   69MOL0     H 9466  10.491   5.180   3.539  0.3460  1.6502 -3.4231
   69MOL0     H 9467  10.778   5.249   3.466  0.1050 -1.6669  0.4635
   69MOL0     H 9468  10.638   5.348   3.423  1.6896  0.4882  0.8250
   69MOL0     H 9469  10.657   5.063   3.325 -0.9700 -0.2120  0.4831
   69MOL0     H 9470  10.558   5.192   3.252  2.4255  2.3267 -3.0439
   69MOL0     H 9471  10.632   5.226   3.025 -0.0452 -2.4904  0.1018
   69MOL0     H 9472  10.866   5.399   2.869 -1.1646  0.0880 -3.7395
   69MOL0     H 9473  10.806   5.243   2.819  1.0864 -1.1008 -1.2726
   69MOL0     H 9474  11.095   5.289   2.924  0.0709  1.6352 -0.4919
   69MOL0     H 9475  11.033   5.153   2.852  0.2714  0.8255 -0.2512
   69MOL0     H 9476  10.985   5.253   2.633 -1.6203  3.1082 -0.8569
   69MOL0     H 9477  11.026   5.406   2.711 -3.9616 -1.4145 -0.9416
   69MOL0     H 9478  11.218   5.166   2.701  0.9664 -1.1233 -1.9595
   69MOL0     H 9479  11.212   5.281   2.555  1.2423  4.0427 -0.1086
   69MOL0     H 9480  11.435   5.223   2.541 -0.0511 -0.2651  1.3356
   69MOL0     H 9481  11.636   5.157   2.464 -1.5838  0.0483  0.0305
   69MOL0     H 9482  11.785   5.253   2.504 -1.0965  0.0973  0.3656
   69MOL0     H 9483  11.688   5.284   2.360 -0.5933  0.4543 -1.1329
   69MOL0     H 9484  11.908   5.729   2.354  0.0312 -2.6834  1.8677
   69MOL0     H 9485  12.088   5.885   2.289 -2.9339  1.8076  0.7883
   69MOL0     H 9486  12.148   6.159   2.496 -0.3202  1.6249  2.0527
   69MOL0     H 9487  12.246   6.109   2.637 -0.1948  1.8940  0.0739
   69MOL0     H 9488  12.387   6.206   2.375  0.2700 -1.6532 -1.2261
   69MOL0     H 9489  12.363   6.304   2.522 -0.6226 -2.4278  3.4445
   69MOL0     H 9490  12.519   6.042   2.486  3.3084  0.1781  1.9314
   69MOL0     H 9491  12.469   6.102   2.644  2.6139 -0.8094  0.3331
   69MOL0     H 9492  12.603   6.283   2.629  0.3148 -2.6818  2.0625
   69MOL0     H 9493  12.641   6.276   2.449 -0.0584 -0.4845 -0.9329
   69MOL0     H 9494  12.823   6.224   2.568 -1.2077  0.9499 -0.2108
   69MOL0     H 9495  12.729   6.098   2.657 -2.6337  2.9427  1.3615
   69MOL0     H 9496  12.688   6.039   2.372  3.6667 -0.7701 -3.9196
   69MOL0     H 9497  12.781   5.939   2.482 -2.5244 -0.4352 -1.6232
   69MOL0     H 9498  12.977   6.051   2.456  3.9380  2.3156 -3.4221
   69MOL0     H 9499  12.925   6.194   2.369 -1.9108  1.8953  2.7881
   69MOL0     H 9500  12.968   5.904   2.273  0.6031 -0.2200 -2.2162
   69MOL0     H 9501  13.034   6.056   2.205  0.1809  0.2238  0.8125
   69MOL0     H 9502  12.194   5.919   2.708 -0.8529  0.9221  0.1517
   69MOL0     H 9503  12.021   5.745   2.764  1.0669  3.0790  0.6437
   69MOL0     H 9504  11.600   5.680   2.676 -3.3472 -0.0278  1.6404
   69MOL0     H 9505  11.391   5.606   2.747  0.1452 -0.7564  1.3849
   69MOL0     H 9506  10.952   4.762   4.201 -1.9295 -0.0615  1.1738
   69MOL0     H 9507  10.925   4.498   4.189 -0.8894 -1.5745 -1.7069
   69MOL0     H 9508  10.852   4.160   3.914  0.6413 -0.2091  0.9598
   69MOL0     H 9509  10.855   3.924   3.850 -1.2500  0.9747 -1.1289
   69MOL0     H 9510  10.631   3.618   3.818 -1.1036  1.5597  1.6491
   69MOL0     H 9511  10.692   3.766   3.762  0.9097  0.4324  0.7806
   69MOL0     H 9512  10.876   3.543   3.853 -0.2081 -1.2820 -0.8367
   69MOL0     H 9513  10.925   3.704   3.786 -1.3964 -0.0540 -0.7880
   69MOL0     H 9514  10.931   3.539   3.591  0.1118 -0.6745  2.2008
   69MOL0     H 9515  10.769   3.493   3.621 -0.0367 -0.3809 -0.2010
   69MOL0     H 9516  10.829   3.793   3.581 -0.3265 -2.3147  1.9515
   69MOL0     H 9517  10.682   3.686   3.541 -0.8782 -1.6222  2.3418
   69MOL0     H 9518  10.887   3.656   3.181 -4.7326  2.6804 -1.2516
   69MOL0     H 9519  10.538   3.853   4.117  2.3379 -1.1479 -0.7596
   69MOL0     H 9520  10.404   4.016   4.201  2.5128 -2.1748  0.0178
   69MOL0     H 9521  10.488   4.162   4.268  2.3308 -0.0832 -1.0030
   69MOL0     H 9522  10.395   4.182   4.130  0.2475  1.8714  2.7830
   70MOL0     O 9523   3.035   0.614   3.012  0.0873  1.0533 -0.2329
   70MOL0     C 9524   3.067   0.613   3.131  0.3010 -0.3687  0.6977
   70MOL0     O 9525   3.005   0.556   3.239  0.6408  0.2127 -0.6146
   70MOL0     C 9526   2.878   0.501   3.220  0.1147  0.6859 -0.3941
   70MOL0     C 9527   2.832   0.435   3.105  0.8065 -0.1778  0.3150
   70MOL0     C 9528   2.711   0.363   3.107  0.3080 -0.0984 -0.4041
   70MOL0     C 9529   2.622   0.368   3.211  0.3956  0.3655  1.0999
   70MOL0     O 9530   2.498   0.307   3.216  0.2964  0.2471 -0.0509
   70MOL0     C 9531   2.502   0.163   3.180 -0.1989  0.2367  0.0434
   70MOL0     C 9532   2.570   0.085   3.289  0.3809 -1.0965  0.3056
   70MOL0     C 9533   2.580  -0.070   3.265  0.0793 -0.1405  0.1938
   70MOL0     C 9534   2.707  -0.129   3.320 -0.8092  0.0783 -0.0585
   70MOL0     C 9535   2.830  -0.101   3.231 -0.3555 -0.4594  0.7603
   70MOL0     C 9536   2.963  -0.160   3.291 -0.0891  0.1024 -0.4957
   70MOL0     C 9537   3.079  -0.143   3.196 -0.1711  0.1562  0.6567
   70MOL0     C 9538   3.210  -0.167   3.284 -0.2750  0.5944  0.1579
   70MOL0     N 9539   3.337  -0.176   3.202 -0.0863  0.2631  0.2382
   70MOL0     C 9540   3.386  -0.082   3.114  0.0675 -0.3341 -0.4837
   70MOL0     C 9541   3.461  -0.152   3.031  0.9496 -0.3233 -0.1729
   70MOL0     C 9542   3.541  -0.083   2.922 -0.2483  0.4810  0.1941
   70MOL0     C 9543   3.662   0.000   2.965 -0.5827  0.4778 -0.3800
   70MOL0     C 9544   3.801  -0.051   2.904  0.1278 -0.3332 -0.7716
   70MOL0     C 9545   3.929  -0.010   2.981  0.3751  0.0575 -0.8383
   70MOL0     O 9546   3.930   0.130   2.962  0.3801  0.1069  0.0285
   70MOL0     C 9547   4.061   0.174   2.981  0.6316  0.4562 -0.5145
   70MOL0     C 9548   4.152   0.115   3.070  0.3860  0.0691  1.4104
   70MOL0     C 9549   4.282   0.166   3.072 -0.2819  0.0473 -0.7716
   70MOL0     C 9550   4.390   0.088   3.153  1.1613  0.4047 -0.1437
   70MOL0     C 9551   4.312   0.283   3.004 -0.7238  0.1042  0.6050
   70MOL0     C 9552   4.441   0.356   3.018  0.9787  0.2521 -1.0163
   70MOL0     O 9553   4.418   0.495   3.023 -0.3235  0.0530  0.3206
   70MOL0     C 9554   4.515   0.575   3.062  0.3761 -0.5183 -0.1715
   70MOL0     C 9555   4.521   0.686   2.991 -0.1198  0.2543  0.1781
   70MOL0     C 9556   4.633   0.771   3.011  0.8816 -0.2645  0.1318
   70MOL0     C 9557   4.718   0.758   3.113  0.4611  0.5451  0.4914
   70MOL0     O 9558   4.810   0.858   3.145  0.1715 -0.4269 -0.2846
   70MOL0     C 9559   4.921   0.831   3.239  0.0076 -0.6159  0.4518
   70MOL0     C 9560   5.008   0.958   3.246 -0.3714 -0.5410 -0.4428
   70MOL0     C 9561   5.142   0.920   3.315 -0.3020 -0.2325 -0.6895
   70MOL0     C 9562   5.203   1.048   3.357 -0.0765 -0.2788 -0.0341
   70MOL0     C 9563   5.354   1.046   3.362 -0.3352 -0.2869 -0.6938
   70MOL0     C 9564   5.414   1.186   3.350  0.0038 -0.2603  0.2370
   70MOL0     C 9565   5.389   1.280   3.459  0.0348  0.9097 -0.5173
   70MOL0     C 9566   5.449   1.415   3.430  1.3052  0.5710 -0.4013
   70MOL0    Cl 9567   5.419   1.555   3.544 -0.3638  0.2895 -0.0759
   70MOL0     C 9568   4.693   0.647   3.195 -0.2045  0.3046  0.7152
   70MOL0     C 9569   4.596   0.549   3.167  0.1719 -0.3950  0.1859
   70MOL0     O 9570   4.553   0.304   3.006  0.2112  0.2020  0.2203
   70MOL0     C 9571   4.215   0.343   2.928  1.1426 -0.0163  0.3083
   70MOL0     C 9572   4.091   0.287   2.912 -0.0910 -0.1789 -0.1976
   70MOL0     N 9573   3.487  -0.273   3.082  0.5082  0.6074 -0.5382
   70MOL0     N 9574   3.405  -0.287   3.175 -0.2432  0.6687  0.6263
   70MOL0     C 9575   2.665   0.438   3.316  0.9264  0.6936 -0.4399
   70MOL0     C 9576   2.791   0.504   3.334  0.0439  0.0852 -0.0051
   70MOL0     C 9577   3.200   0.681   3.156 -0.3778  0.0718 -0.6501
   70MOL0     C 9578   3.289   0.619   3.248 -0.6727 -0.2743  0.8201
   70MOL0     C 9579   3.410   0.678   3.288 -0.2654  0.7135  0.9976
   70MOL0     C 9580   3.457   0.796   3.228  0.8507  0.0989 -0.0512
   70MOL0     O 9581   3.581   0.852   3.258  0.0413 -0.3061  0.5977
   70MOL0     C 9582   3.626   0.978   3.210  1.4595 -0.5595  0.5373
   70MOL0     C 9583   3.755   1.029   3.283  0.1241 -0.3825  0.2558
   70MOL0     C 9584   3.821   1.163   3.226 -0.2685 -0.0016 -0.1856
   70MOL0     C 9585   3.960   1.180   3.288 -0.5741  0.0357 -0.3843
   70MOL0     C 9586   4.053   1.066   3.281  0.6465  1.1473 -0.7326
   70MOL0     C 9587   4.118   0.954   3.292  0.6801  0.6268  0.1526
   70MOL0     C 9588   3.373   0.861   3.126 -0.0977  0.7114  0.0368
   70MOL0     C 9589   3.244   0.808   3.100  0.3342  0.6774  0.6088
   70MOL0     C 9590   3.156   0.903   3.004  0.8654  0.1584 -0.6509
   70MOL0     H 9591   2.895   0.416   3.019 -0.0261 -4.5734  0.4589
   70MOL0     H 9592   2.680   0.305   3.021  2.1274  0.2886 -1.3765
   70MOL0     H 9593   2.550   0.149   3.083 -4.3279  0.3443 -2.2386
   70MOL0     H 9594   2.399   0.130   3.162 -1.0409  3.0842 -1.0376
   70MOL0     H 9595   2.671   0.123   3.306 -0.8528  2.8260 -0.0989
   70MOL0     H 9596   2.512   0.106   3.379 -1.8997 -0.5821 -1.1747
   70MOL0     H 9597   2.494  -0.115   3.315 -1.6559  1.7561 -0.9378
   70MOL0     H 9598   2.573  -0.096   3.159  2.4691 -2.4336  0.5069
   70MOL0     H 9599   2.724  -0.087   3.420 -2.7972 -1.9101  1.1995
   70MOL0     H 9600   2.686  -0.235   3.335 -2.3066 -0.1943 -3.2453
   70MOL0     H 9601   2.842   0.004   3.201  1.0553 -1.4769 -2.8663
   70MOL0     H 9602   2.809  -0.153   3.137  0.8633 -1.7081  1.1526
   70MOL0     H 9603   2.996  -0.128   3.390  0.6296 -4.2693  0.8904
   70MOL0     H 9604   2.961  -0.269   3.299  1.2268 -0.1323 -2.5126
   70MOL0     H 9605   3.065  -0.044   3.152 -5.4787 -0.4062  0.5376
   70MOL0     H 9606   3.075  -0.224   3.122 -2.1088 -1.9041  2.8461
   70MOL0     H 9607   3.214  -0.091   3.363 -0.8939 -0.1122  0.8810
   70MOL0     H 9608   3.206  -0.265   3.331  0.3005 -0.0726 -1.1216
   70MOL0     H 9609   3.360   0.022   3.104 -2.4090 -0.9335 -1.0030
   70MOL0     H 9610   3.471  -0.022   2.865  1.2337 -1.7042 -4.5333
   70MOL0     H 9611   3.569  -0.159   2.849  2.3228  0.9256  0.6063
   70MOL0     H 9612   3.651   0.105   2.934  4.3628  1.0392 -1.0811
   70MOL0     H 9613   3.667   0.005   3.074  3.4648 -1.0784 -0.3113
   70MOL0     H 9614   3.803  -0.161   2.896 -3.6009 -0.5536 -0.1521
   70MOL0     H 9615   3.800  -0.012   2.802 -1.3904  0.8142 -0.3533
   70MOL0     H 9616   3.928  -0.040   3.086  3.3083  1.7784 -0.2074
   70MOL0     H 9617   4.021  -0.045   2.935 -0.1158  0.0062 -1.8075
   70MOL0     H 9618   4.131   0.024   3.126  0.6165 -0.6422  0.3573
   70MOL0     H 9619   4.425   0.005   3.090  0.2486  1.8620 -2.7092
   70MOL0     H 9620   4.343   0.043   3.241 -1.4186 -1.5786 -2.3489
   70MOL0     H 9621   4.481   0.140   3.184  2.0243 -1.7145  1.1525
   70MOL0     H 9622   4.453   0.698   2.907 -1.8077  0.9968  1.5909
   70MOL0     H 9623   4.642   0.861   2.950 -1.5422  0.8249  1.2557
   70MOL0     H 9624   4.895   0.807   3.342  2.4902  0.1618  1.3323
   70MOL0     H 9625   4.973   0.747   3.190  1.9409  0.7966 -0.0644
   70MOL0     H 9626   5.038   0.986   3.145 -2.1952  4.9213  0.1946
   70MOL0     H 9627   4.949   1.040   3.288 -0.0628 -2.0172  3.2897
   70MOL0     H 9628   5.204   0.854   3.254  0.6784 -1.9097  1.9557
   70MOL0     H 9629   5.128   0.858   3.404  1.8458  0.6939  0.3500
   70MOL0     H 9630   5.152   1.084   3.447  1.7783 -0.7734  1.2787
   70MOL0     H 9631   5.179   1.128   3.287 -2.3206  1.0516  2.0977
   70MOL0     H 9632   5.389   0.996   3.452 -0.3058 -0.3590 -0.7455
   70MOL0     H 9633   5.394   0.994   3.274 -1.8784 -1.2060 -0.8981
   70MOL0     H 9634   5.372   1.224   3.257 -2.7144 -5.5808 -1.1262
   70MOL0     H 9635   5.522   1.177   3.332 -0.2969 -1.9724 -0.9704
   70MOL0     H 9636   5.435   1.245   3.552  0.3175 -3.7969 -2.1577
   70MOL0     H 9637   5.280   1.281   3.472 -0.1106 -3.1662 -0.2877
   70MOL0     H 9638   5.406   1.438   3.332 -1.2719 -3.9256 -0.5892
   70MOL0     H 9639   5.558   1.411   3.418  1.4414  0.4332  0.7715
   70MOL0     H 9640   4.748   0.635   3.288 -2.2734  0.1390  1.9926
   70MOL0     H 9641   4.591   0.459   3.227  0.2386 -1.2094 -1.0088
   70MOL0     H 9642   4.243   0.438   2.881 -1.9721  0.7632 -0.2034
   70MOL0     H 9643   4.006   0.328   2.858  0.9104  0.1105 -1.6051
   70MOL0     H 9644   2.602   0.428   3.404  0.8608 -0.9225 -0.6434
   70MOL0     H 9645   2.819   0.559   3.423 -0.5472 -0.2120  0.3689
   70MOL0     H 9646   3.264   0.533   3.309 -0.4824 -0.0309  1.2507
   70MOL0     H 9647   3.466   0.617   3.359 -1.8283 -0.1408  1.5549
   70MOL0     H 9648   3.639   0.964   3.102  0.2748  3.7583 -0.3333
   70MOL0     H 9649   3.553   1.059   3.216 -0.1727 -1.9410  0.0758
   70MOL0     H 9650   3.821   0.944   3.268 -0.6386 -1.2837  1.7312
   70MOL0     H 9651   3.727   1.038   3.388 -1.3612 -1.7388  0.0230
   70MOL0     H 9652   3.833   1.152   3.118 -2.1900  0.2606 -0.4592
   70MOL0     H 9653   3.751   1.246   3.236 -0.1485  0.0299  0.4784
   70MOL0     H 9654   3.947   1.218   3.390 -0.2700 -1.5191  0.2627
   70MOL0     H 9655   4.012   1.259   3.232 -2.5198  2.8900  1.5487
   70MOL0     H 9656   4.170   0.862   3.309  2.4605  1.9083  2.1252
   70MOL0     H 9657   3.412   0.946   3.071 -1.1099  0.0150 -1.8215
   70MOL0     H 9658   3.136   0.997   3.056 -0.3736 -1.2068  1.4873
   70MOL0     H 9659   3.190   0.923   2.902 -1.7708  0.4992 -1.5532
   70MOL0     H 9660   3.061   0.850   2.994 -0.1995  2.3030 -3.1142
   71MOL0     O 9661   1.147   0.111   3.371  0.4861 -0.1319  0.5974
   71MOL0     C 9662   1.187   0.153   3.481  0.4340  0.7569  0.8557
   71MOL0     O 9663   1.111   0.208   3.582  0.4600 -0.4238  0.5017
   71MOL0     C 9664   0.973   0.217   3.572  0.5762 -0.0815 -0.2478
   71MOL0     C 9665   0.886   0.150   3.483 -0.0182 -0.2245  0.7104
   71MOL0     C 9666   0.740   0.166   3.480 -1.7413  0.0539 -0.4077
   71MOL0     C 9667   0.681   0.253   3.574  0.4171 -0.6588 -0.2212
   71MOL0     O 9668   0.548   0.271   3.589  1.0559  0.1519  0.1123
   71MOL0     C 9669   0.470   0.178   3.507  1.2934  0.1223 -0.2088
   71MOL0     C 9670   0.330   0.185   3.547  0.2213  0.1365 -0.5222
   71MOL0     C 9671   0.294   0.132   3.694 -1.1005 -0.0056  0.2349
   71MOL0     C 9672   0.135   0.106   3.719 -0.0641 -0.0709 -0.6240
   71MOL0     C 9673   0.101   0.026   3.843 -0.2575 -0.2337 -0.3041
   71MOL0     C 9674   0.142  -0.120   3.817  0.0412  0.0038 -0.1598
   71MOL0     C 9675   0.141  -0.192   3.958 -0.0006  0.4865 -0.3971
   71MOL0     C 9676   0.186  -0.338   3.944  0.2199  0.2046  1.3030
   71MOL0     N 9677   0.204  -0.401   4.069  0.2643  0.7175  0.9390
   71MOL0     C 9678   0.095  -0.425   4.149 -0.4451 -0.5462 -0.7758
   71MOL0     C 9679   0.148  -0.476   4.261 -0.6257  0.6439 -0.6162
   71MOL0     C 9680   0.054  -0.516   4.373  0.1801  0.4761 -0.4340
   71MOL0     C 9681   0.127  -0.544   4.509  0.8575  0.4687  0.4679
   71MOL0     C 9682   0.145  -0.424   4.606 -0.3176 -0.1472  0.5559
   71MOL0     C 9683   0.209  -0.305   4.524  0.0829  1.0638  0.1102
   71MOL0     O 9684   0.122  -0.231   4.439 -0.7023  0.1280 -0.8122
   71MOL0     C 9685  -0.004  -0.189   4.484 -0.4489 -1.3227  1.0016
   71MOL0     C 9686  -0.101  -0.185   4.388 -0.6983  0.9693 -0.8043
   71MOL0     C 9687  -0.230  -0.136   4.403 -0.3148  0.8588 -0.4523
   71MOL0     C 9688  -0.317  -0.155   4.278 -0.2827  0.6051  0.2755
   71MOL0     C 9689  -0.272  -0.094   4.533 -0.6018  0.1815  0.7549
   71MOL0     C 9690  -0.407  -0.051   4.570 -0.3982  0.2951 -0.3002
   71MOL0     O 9691  -0.516  -0.096   4.504 -0.0950  0.0483 -0.7358
   71MOL0     C 9692  -0.647  -0.080   4.545  0.8028 -1.7861 -0.7952
   71MOL0     C 9693  -0.738  -0.173   4.501 -0.4460 -0.2790  0.4505
   71MOL0     C 9694  -0.865  -0.178   4.546  0.2247  0.2001  0.0944
   71MOL0     C 9695  -0.918  -0.076   4.628 -0.5012  0.7099 -0.1258
   71MOL0     O 9696  -1.054  -0.079   4.664  0.0365  0.3340 -0.5349
   71MOL0     C 9697  -1.154  -0.046   4.569  0.3316  0.2927 -0.1361
   71MOL0     C 9698  -1.264  -0.157   4.560 -0.0693 -0.9490 -0.1872
   71MOL0     C 9699  -1.393  -0.111   4.497  0.3496 -0.6420  0.7087
   71MOL0     C 9700  -1.496  -0.226   4.508 -0.2866 -0.1127 -0.3424
   71MOL0     C 9701  -1.618  -0.195   4.424 -0.4637 -0.6195  0.7714
   71MOL0     C 9702  -1.744  -0.288   4.443  0.2081 -0.6911 -0.2574
   71MOL0     C 9703  -1.753  -0.340   4.584 -0.0525  0.8642 -0.0914
   71MOL0     C 9704  -1.899  -0.361   4.608 -0.5296 -0.7843 -0.5105
   71MOL0    Cl 9705  -1.928  -0.468   4.755 -0.2475 -0.3425  0.4941
   71MOL0     C 9706  -0.835   0.021   4.671  0.5265  0.6726 -0.7337
   71MOL0     C 9707  -0.696   0.019   4.625  0.2696 -1.2237  0.2917
   71MOL0     O 9708  -0.407   0.029   4.665  0.4371  0.2946  0.7429
   71MOL0     C 9709  -0.162  -0.093   4.629  0.1520  0.8951 -1.0431
   71MOL0     C 9710  -0.028  -0.134   4.605 -0.3690  1.0873 -0.8165
   71MOL0     N 9711   0.284  -0.489   4.246  0.4695 -0.0381 -0.2356
   71MOL0     N 9712   0.316  -0.447   4.127 -0.1152  0.5789 -0.4948
   71MOL0     C 9713   0.772   0.325   3.657 -0.3929  0.0131  0.1380
   71MOL0     C 9714   0.908   0.307   3.653  0.3617 -0.9327 -0.7640
   71MOL0     C 9715   1.331   0.130   3.505  0.1461 -0.1558  0.0674
   71MOL0     C 9716   1.368   0.078   3.628 -0.7344 -0.3169  0.1187
   71MOL0     C 9717   1.494   0.042   3.663 -0.3065 -0.3315 -0.8920
   71MOL0     C 9718   1.597   0.057   3.584 -0.1106  0.4566  1.2512
   71MOL0     O 9719   1.723   0.002   3.619  0.0103 -1.1087  0.6348
   71MOL0     C 9720   1.774   0.013   3.754  0.2925  0.6002  0.4512
   71MOL0     C 9721   1.798  -0.124   3.807 -0.5956  1.7070 -0.4096
   71MOL0     C 9722   1.890  -0.214   3.716 -0.0389 -0.1493 -0.3236
   71MOL0     C 9723   2.048  -0.182   3.734 -0.0134 -0.1637 -0.2805
   71MOL0     C 9724   2.097  -0.170   3.869  0.2218 -0.4632  0.4075
   71MOL0     C 9725   2.144  -0.149   3.978  0.4594  0.5015 -0.6148
   71MOL0     C 9726   1.565   0.077   3.450 -0.6309  0.7646  0.0160
   71MOL0     C 9727   1.436   0.132   3.405  0.4035  0.4957 -1.7353
   71MOL0     C 9728   1.421   0.195   3.276 -0.9777  0.1854  0.0930
   71MOL0     H 9729   0.921   0.083   3.405 -0.0309  1.4235 -0.7911
   71MOL0     H 9730   0.680   0.104   3.414 -1.2237 -0.0273 -0.8066
   71MOL0     H 9731   0.506   0.076   3.522  1.3021  0.2583  0.7562
   71MOL0     H 9732   0.480   0.202   3.401  0.8079 -2.2077 -0.8471
   71MOL0     H 9733   0.298   0.290   3.548 -2.5519 -0.6114 -1.6002
   71MOL0     H 9734   0.266   0.124   3.483  2.6632 -0.4817 -2.5286
   71MOL0     H 9735   0.342   0.034   3.704 -0.5517  0.1343 -0.8133
   71MOL0     H 9736   0.330   0.204   3.768  0.7276  0.8527 -1.3989
   71MOL0     H 9737   0.094   0.205   3.738 -0.1145  0.0061 -1.1074
   71MOL0     H 9738   0.080   0.061   3.635  0.6212  2.0612 -2.3175
   71MOL0     H 9739  -0.007   0.014   3.855 -0.0751 -1.7343 -0.0576
   71MOL0     H 9740   0.161   0.063   3.927  1.8555 -2.8277 -0.5326
   71MOL0     H 9741   0.069  -0.160   3.745 -0.4078 -1.2412  0.9412
   71MOL0     H 9742   0.244  -0.129   3.778 -0.4099  0.8123 -1.5851
   71MOL0     H 9743   0.050  -0.185   4.018  1.0878 -0.6308  1.4605
   71MOL0     H 9744   0.223  -0.143   4.012  1.9671 -3.0906  0.1663
   71MOL0     H 9745   0.102  -0.392   3.900  0.7426 -0.3799  1.0115
   71MOL0     H 9746   0.276  -0.354   3.883  1.5888  0.9255  3.0482
   71MOL0     H 9747  -0.009  -0.399   4.132 -1.2046 -0.6801  2.9225
   71MOL0     H 9748  -0.000  -0.606   4.343  0.1757 -1.1406  3.6704
   71MOL0     H 9749  -0.020  -0.438   4.394 -2.8596 -2.1295 -0.6111
   71MOL0     H 9750   0.046  -0.595   4.562 -0.7221 -2.4479 -4.1224
   71MOL0     H 9751   0.216  -0.606   4.495  0.9178  0.9947 -1.8562
   71MOL0     H 9752   0.050  -0.398   4.653  0.2725 -2.3818  3.2733
   71MOL0     H 9753   0.197  -0.444   4.701  0.0488 -2.7772 -0.1038
   71MOL0     H 9754   0.241  -0.232   4.600  0.5281 -1.2056  2.2270
   71MOL0     H 9755   0.296  -0.337   4.467 -1.4868  1.9925 -3.0428
   71MOL0     H 9756  -0.069  -0.235   4.297  0.7266 -1.1429  0.7674
   71MOL0     H 9757  -0.366  -0.061   4.251 -1.7775  0.8841  3.6044
   71MOL0     H 9758  -0.397  -0.224   4.305  0.5366  0.2100  1.8049
   71MOL0     H 9759  -0.261  -0.201   4.196 -0.4544 -1.2800  1.1761
   71MOL0     H 9760  -0.704  -0.258   4.442  2.2655  0.9844  0.0058
   71MOL0     H 9761  -0.931  -0.259   4.517  0.1211  0.2598  0.1629
   71MOL0     H 9762  -1.200   0.048   4.601  0.0052  0.3662 -0.8048
   71MOL0     H 9763  -1.104  -0.041   4.472  0.0181  0.8174 -0.2787
   71MOL0     H 9764  -1.227  -0.248   4.511  0.9888  0.2486 -1.6797
   71MOL0     H 9765  -1.298  -0.183   4.661 -3.9825  0.3331 -1.0180
   71MOL0     H 9766  -1.374  -0.092   4.391  1.2792  0.4287  1.0468
   71MOL0     H 9767  -1.432  -0.018   4.538 -0.4902  0.7239 -2.8355
   71MOL0     H 9768  -1.523  -0.228   4.614 -0.7706 -1.7716 -0.4628
   71MOL0     H 9769  -1.454  -0.324   4.482  1.4974  0.8335 -1.1773
   71MOL0     H 9770  -1.650  -0.093   4.446  1.0391  0.1357 -0.3819
   71MOL0     H 9771  -1.585  -0.202   4.320 -2.3890  0.4849  0.0459
   71MOL0     H 9772  -1.743  -0.373   4.374 -2.9416  1.8367 -3.8007
   71MOL0     H 9773  -1.826  -0.226   4.406  0.4104  1.5444  2.6221
   71MOL0     H 9774  -1.707  -0.281   4.664  0.3465 -3.2666  3.1190
   71MOL0     H 9775  -1.695  -0.432   4.597  3.1682  3.0212  2.3181
   71MOL0     H 9776  -1.943  -0.408   4.520 -3.0618 -1.3537  0.9488
   71MOL0     H 9777  -1.954  -0.268   4.626  2.0440  0.4727  1.7043
   71MOL0     H 9778  -0.871   0.099   4.738  1.2246  1.9213 -1.7509
   71MOL0     H 9779  -0.641   0.107   4.657 -0.1915 -0.9686  0.3945
   71MOL0     H 9780  -0.176  -0.063   4.732 -0.7725  2.0243 -1.4799
   71MOL0     H 9781   0.054  -0.145   4.675  0.4834 -1.1878 -2.0575
   71MOL0     H 9782   0.733   0.401   3.724 -2.4174 -1.7157  1.0601
   71MOL0     H 9783   0.976   0.353   3.724  2.0380 -1.6730 -1.8210
   71MOL0     H 9784   1.289   0.074   3.702 -1.9106 -0.4218 -1.1102
   71MOL0     H 9785   1.513   0.008   3.764  0.0020  0.1092 -0.7977
   71MOL0     H 9786   1.877   0.049   3.746  0.4397  0.2779  0.8683
   71MOL0     H 9787   1.715   0.066   3.830  0.7145  0.7592  0.6750
   71MOL0     H 9788   1.704  -0.180   3.805  0.8014 -0.7961 -2.0309
   71MOL0     H 9789   1.835  -0.130   3.910  0.0895 -2.4131 -0.7142
   71MOL0     H 9790   1.861  -0.318   3.733 -2.0032  0.0835 -1.8329
   71MOL0     H 9791   1.869  -0.195   3.610 -2.1937 -1.7158 -0.2409
   71MOL0     H 9792   2.060  -0.079   3.700 -1.4439  0.2717  0.3987
   71MOL0     H 9793   2.100  -0.263   3.683 -0.4638 -2.8071  3.0471
   71MOL0     H 9794   2.172  -0.142   4.081 -0.2073  2.1564 -0.5253
   71MOL0     H 9795   1.627   0.059   3.363 -3.0650 -2.9747 -1.2041
   71MOL0     H 9796   1.319   0.234   3.266 -0.9024  0.6098  0.9770
   71MOL0     H 9797   1.496   0.269   3.245 -1.0065  0.3501  0.4168
   71MOL0     H 9798   1.431   0.106   3.213 -1.5272  0.1693  0.0231
   72MOL0     O 9799   9.001   3.568   4.997 -0.1054  0.3119 -0.2781
   72MOL0     C 9800   9.031   3.469   4.944 -1.1096  0.0090 -0.6433
   72MOL0     O 9801   9.019   3.445   4.805  0.0426  0.4308 -0.4597
   72MOL0     C 9802   8.977   3.546   4.726 -0.0214  0.6480 -0.1117
   72MOL0     C 9803   8.852   3.617   4.743  0.6902  0.6917  0.7121
   72MOL0     C 9804   8.800   3.710   4.654 -0.1494  0.5127 -0.6465
   72MOL0     C 9805   8.867   3.728   4.531  0.2934  0.1454  0.2350
   72MOL0     O 9806   8.806   3.786   4.421  0.6492  1.1583  0.1620
   72MOL0     C 9807   8.781   3.688   4.316  0.4540 -0.2147 -0.6688
   72MOL0     C 9808   8.640   3.726   4.269 -0.2822  0.6821 -0.6093
   72MOL0     C 9809   8.576   3.612   4.187 -0.2292  0.0405  0.1378
   72MOL0     C 9810   8.422   3.639   4.138 -0.5064 -0.5031 -0.1448
   72MOL0     C 9811   8.422   3.674   3.988  0.4604  0.2515 -0.2532
   72MOL0     C 9812   8.306   3.606   3.918  0.0558  0.2499 -0.4612
   72MOL0     C 9813   8.268   3.663   3.779  0.2139 -0.8349 -0.1926
   72MOL0     C 9814   8.376   3.616   3.664 -0.1378 -0.4273 -0.1690
   72MOL0     N 9815   8.389   3.472   3.629 -0.3047 -0.1971 -1.1083
   72MOL0     C 9816   8.302   3.419   3.542 -0.3329 -0.6364 -0.9775
   72MOL0     C 9817   8.361   3.296   3.525 -0.4144  0.4509 -0.5807
   72MOL0     C 9818   8.316   3.183   3.442  0.3153 -0.5077  0.0387
   72MOL0     C 9819   8.187   3.192   3.367  0.6998 -0.0658 -0.1070
   72MOL0     C 9820   8.062   3.180   3.445  0.3325 -0.6484  0.0788
   72MOL0     C 9821   7.933   3.192   3.365  0.5235  0.1150 -0.5494
   72MOL0     O 9822   7.824   3.219   3.455 -0.7321 -0.5548 -0.3920
   72MOL0     C 9823   7.705   3.267   3.425  0.7153 -0.1145 -0.7063
   72MOL0     C 9824   7.616   3.273   3.535  0.0685 -0.5872 -0.3496
   72MOL0     C 9825   7.487   3.326   3.518  0.7550  0.3099 -0.9635
   72MOL0     C 9826   7.410   3.360   3.650  0.4773  0.2337  0.9995
   72MOL0     C 9827   7.433   3.351   3.389 -0.2673  0.3499 -0.0257
   72MOL0     C 9828   7.290   3.390   3.358 -0.5485 -0.6440  0.3468
   72MOL0     O 9829   7.209   3.374   3.462  0.6587 -0.1176 -0.2906
   72MOL0     C 9830   7.074   3.384   3.443 -0.1454 -0.1377  0.1440
   72MOL0     C 9831   6.997   3.425   3.553  0.2393 -1.0478 -0.5166
   72MOL0     C 9832   6.857   3.404   3.551  0.3168  0.2388 -0.2302
   72MOL0     C 9833   6.791   3.341   3.439  0.0757  0.1892  0.1007
   72MOL0     O 9834   6.653   3.316   3.424 -0.0927  0.4951 -0.4342
   72MOL0     C 9835   6.572   3.355   3.534 -0.3301  0.1351  1.1144
   72MOL0     C 9836   6.419   3.332   3.489  0.0558  1.0679 -0.8040
   72MOL0     C 9837   6.375   3.182   3.490 -0.2988  0.3190  0.2883
   72MOL0     C 9838   6.235   3.173   3.431  0.1929  0.1109 -0.7331
   72MOL0     C 9839   6.186   3.031   3.384 -0.2696 -0.2277  0.4603
   72MOL0     C 9840   6.043   3.001   3.375  0.3215  0.5473  0.0408
   72MOL0     C 9841   5.970   3.114   3.300  0.4467 -0.2824 -0.3429
   72MOL0     C 9842   5.870   3.063   3.192 -0.4954 -0.3928 -0.4688
   72MOL0    Cl 9843   5.769   3.197   3.120  0.2969  0.0949  0.0580
   72MOL0     C 9844   6.875   3.299   3.334 -0.7294  0.1812 -0.6544
   72MOL0     C 9845   7.015   3.318   3.337  0.2312 -0.6559 -0.0058
   72MOL0     O 9846   7.261   3.427   3.245  0.1454  0.4665 -0.1149
   72MOL0     C 9847   7.520   3.324   3.282  0.6156  0.5906  0.7659
   72MOL0     C 9848   7.656   3.283   3.297 -0.3906 -0.2653 -0.2776
   72MOL0     N 9849   8.473   3.282   3.597 -0.1927 -0.3916 -0.8846
   72MOL0     N 9850   8.488   3.391   3.668  0.5968 -1.1310  0.4220
   72MOL0     C 9851   8.994   3.657   4.514 -0.7586 -0.9353 -0.2700
   72MOL0     C 9852   9.045   3.563   4.610 -0.2878 -0.0796  1.2494
   72MOL0     C 9853   9.042   3.347   5.038  0.1346  0.0143 -0.0101
   72MOL0     C 9854   9.105   3.357   5.159 -0.1791 -0.1659 -0.0528
   72MOL0     C 9855   9.116   3.251   5.260 -0.3373 -1.1092 -1.0947
   72MOL0     C 9856   9.088   3.123   5.223  0.3709 -0.2214  0.5637
   72MOL0     O 9857   9.108   3.018   5.303 -0.5562 -0.1203 -0.9327
   72MOL0     C 9858   9.062   2.886   5.277 -0.4247 -0.3567 -0.0819
   72MOL0     C 9859   8.908   2.859   5.299 -0.5612 -1.0305  0.2884
   72MOL0     C 9860   8.901   2.717   5.363  0.2706 -0.8290  0.3529
   72MOL0     C 9861   8.756   2.673   5.376 -0.7332 -0.7268 -1.1868
   72MOL0     C 9862   8.664   2.704   5.263  0.3026 -0.2503 -0.5398
   72MOL0     C 9863   8.585   2.741   5.176 -0.0916 -0.2854 -0.3571
   72MOL0     C 9864   9.028   3.110   5.090 -0.5839  0.0692 -0.1495
   72MOL0     C 9865   9.006   3.217   5.007 -0.0126 -0.0260  0.5813
   72MOL0     C 9866   8.941   3.192   4.868  0.1834 -0.7765 -0.1322
   72MOL0     H 9867   8.802   3.608   4.839 -0.4639  3.0394  0.4027
   72MOL0     H 9868   8.710   3.768   4.672  0.5980  1.6816 -0.5888
   72MOL0     H 9869   8.788   3.585   4.352 -1.2293 -0.2614 -0.3768
   72MOL0     H 9870   8.860   3.717   4.246 -1.0429  1.7944 -1.6426
   72MOL0     H 9871   8.584   3.740   4.362  2.1348  2.3994  0.6853
   72MOL0     H 9872   8.652   3.821   4.215 -1.4767  0.0244 -2.1355
   72MOL0     H 9873   8.654   3.595   4.112 -1.9358 -0.2852 -1.6407
   72MOL0     H 9874   8.569   3.525   4.253  1.9304 -1.5754 -1.6269
   72MOL0     H 9875   8.360   3.549   4.149 -2.2856  0.7143  0.2465
   72MOL0     H 9876   8.385   3.719   4.203  1.0195  1.1508 -1.2344
   72MOL0     H 9877   8.513   3.654   3.930 -0.1005 -0.7390 -0.7985
   72MOL0     H 9878   8.417   3.782   3.972 -0.3264 -0.1721 -3.5800
   72MOL0     H 9879   8.318   3.498   3.913 -3.9064 -0.8020  4.4590
   72MOL0     H 9880   8.226   3.617   3.992  1.2856  0.3326  0.8988
   72MOL0     H 9881   8.268   3.771   3.792 -0.7884 -1.0107  1.5815
   72MOL0     H 9882   8.168   3.625   3.755 -1.1688  3.2799 -1.7627
   72MOL0     H 9883   8.343   3.665   3.572 -2.3043  0.8338  1.1899
   72MOL0     H 9884   8.473   3.660   3.689 -0.3694  1.9111 -2.9148
   72MOL0     H 9885   8.219   3.464   3.489 -0.9671 -1.5965 -0.8125
   72MOL0     H 9886   8.308   3.086   3.492 -3.3543 -1.6450 -2.2950
   72MOL0     H 9887   8.396   3.178   3.368 -0.5543  0.2394 -0.9732
   72MOL0     H 9888   8.182   3.282   3.304 -2.0289 -0.6574 -0.8860
   72MOL0     H 9889   8.202   3.114   3.292 -1.2569 -0.1778 -0.4473
   72MOL0     H 9890   8.066   3.089   3.506 -1.0716 -1.4605 -0.9958
   72MOL0     H 9891   8.046   3.256   3.523  2.9329 -1.1651  1.2446
   72MOL0     H 9892   7.929   3.281   3.301 -1.2794  0.8994  0.5645
   72MOL0     H 9893   7.923   3.101   3.304  3.6958 -0.0056 -1.0615
   72MOL0     H 9894   7.654   3.228   3.626  0.7401  1.8462  0.6686
   72MOL0     H 9895   7.478   3.348   3.735 -0.0493 -3.8751  1.0680
   72MOL0     H 9896   7.328   3.291   3.674  0.2186 -1.4848 -3.7349
   72MOL0     H 9897   7.374   3.462   3.633  1.6062  0.4241 -0.3384
   72MOL0     H 9898   7.057   3.472   3.630  1.9933  0.4989 -2.6822
   72MOL0     H 9899   6.797   3.416   3.641 -1.9063  2.2776 -1.8646
   72MOL0     H 9900   6.591   3.300   3.627 -3.2717  0.2407  1.8813
   72MOL0     H 9901   6.581   3.464   3.544  1.8818  0.0770  0.3116
   72MOL0     H 9902   6.357   3.388   3.560 -0.7070 -1.8185  0.9676
   72MOL0     H 9903   6.407   3.370   3.387  0.8587  1.9256 -0.5954
   72MOL0     H 9904   6.365   3.151   3.595  2.9810  1.8554  1.1757
   72MOL0     H 9905   6.440   3.113   3.436  2.0796 -0.9897  4.3999
   72MOL0     H 9906   6.215   3.247   3.353 -0.7523 -1.5488 -2.1247
   72MOL0     H 9907   6.178   3.188   3.522  0.8529 -3.0605  0.3247
   72MOL0     H 9908   6.226   3.021   3.283 -0.4515 -0.7572  0.4407
   72MOL0     H 9909   6.237   2.953   3.442 -0.7755 -1.4663 -0.7252
   72MOL0     H 9910   6.004   2.986   3.476 -1.4768  3.1038 -0.1749
   72MOL0     H 9911   6.035   2.905   3.323 -1.9662 -0.1600  1.5511
   72MOL0     H 9912   6.040   3.186   3.256  2.2206  1.0447  4.1129
   72MOL0     H 9913   5.918   3.168   3.380  2.3583 -0.2936  0.9809
   72MOL0     H 9914   5.806   2.982   3.226  0.4305 -0.9287  0.0388
   72MOL0     H 9915   5.918   3.018   3.104 -0.6561 -2.4678  0.4448
   72MOL0     H 9916   6.811   3.261   3.255 -1.5059  1.8887 -0.9039
   72MOL0     H 9917   7.071   3.289   3.249 -2.5224  1.5130 -2.7165
   72MOL0     H 9918   7.491   3.318   3.178 -1.5771  1.0003  1.2871
   72MOL0     H 9919   7.705   3.270   3.201 -1.0649 -1.3385 -0.4883
   72MOL0     H 9920   9.053   3.673   4.425 -2.0923  0.7416 -0.9044
   72MOL0     H 9921   9.147   3.532   4.590  0.9111  1.7623  3.9070
   72MOL0     H 9922   9.138   3.459   5.169 -0.1766  0.5564 -4.8216
   72MOL0     H 9923   9.168   3.287   5.348 -2.3548  1.4825 -0.8219
   72MOL0     H 9924   9.084   2.858   5.174  2.0527 -0.2089  0.3526
   72MOL0     H 9925   9.127   2.825   5.340  0.4606  1.5103  0.8878
   72MOL0     H 9926   8.861   2.860   5.200 -2.3706 -1.4608  1.0932
   72MOL0     H 9927   8.853   2.938   5.352  0.2777 -0.1507 -0.1135
   72MOL0     H 9928   8.954   2.645   5.301  1.7547 -0.1059  0.7313
   72MOL0     H 9929   8.942   2.716   5.465 -0.7687 -1.8599  0.7847
   72MOL0     H 9930   8.698   2.717   5.458 -0.6504  0.9718 -1.9922
   72MOL0     H 9931   8.744   2.567   5.398 -0.1093 -0.5177  0.3193
   72MOL0     H 9932   8.514   2.769   5.100 -0.3859  0.1096  0.0630
   72MOL0     H 9933   9.002   3.017   5.042  1.4985  0.3031 -1.8733
   72MOL0     H 9934   8.888   3.096   4.864  0.6678 -1.0101 -1.3992
   72MOL0     H 9935   8.861   3.267   4.862  0.5863 -0.1092  2.1238
   72MOL0     H 9936   9.005   3.204   4.780 -3.2620  0.1304 -2.7621
   73MOL0     O 9937   3.143   5.174   7.869  0.1068 -0.6471 -0.1147
   73MOL0     C 9938   3.118   5.058   7.840 -0.7438 -0.6638 -0.8160
   73MOL0     O 9939   3.016   4.982   7.894  0.9359  0.0204  0.0675
   73MOL0     C 9940   2.940   5.041   8.000 -0.7493  0.0790  0.0004
   73MOL0     C 9941   2.840   5.132   7.975  0.2438  0.4081 -0.4282
   73MOL0     C 9942   2.767   5.189   8.083  0.5470  0.2071 -0.5276
   73MOL0     C 9943   2.797   5.169   8.213 -0.3929  0.1166 -0.1685
   73MOL0     O 9944   2.728   5.245   8.306  0.7906 -0.0878  0.6238
   73MOL0     C 9945   2.791   5.242   8.440 -0.2825  0.7909  0.7782
   73MOL0     C 9946   2.707   5.325   8.538 -0.0466  0.3216 -1.3331
   73MOL0     C 9947   2.680   5.468   8.495  0.5098  0.0564 -1.2209
   73MOL0     C 9948   2.598   5.533   8.616  1.1590  0.5867  0.3830
   73MOL0     C 9949   2.485   5.626   8.570 -0.3160 -1.0736  0.1782
   73MOL0     C 9950   2.407   5.672   8.692 -0.5750 -0.2298  0.6954
   73MOL0     C 9951   2.463   5.796   8.753  0.7988 -0.5457 -0.2620
   73MOL0     C 9952   2.372   5.856   8.863 -0.3153  0.0911  0.1649
   73MOL0     N 9953   2.275   5.945   8.796  0.4418 -0.1002  0.2754
   73MOL0     C 9954   2.320   6.070   8.746  1.1797 -0.0571  0.1922
   73MOL0     C 9955   2.212   6.125   8.671  0.1043  0.7594 -0.1424
   73MOL0     C 9956   2.212   6.251   8.587 -0.3742 -0.4188  0.8595
   73MOL0     C 9957   2.222   6.373   8.682 -0.4573 -0.2246  0.3642
   73MOL0     C 9958   2.091   6.380   8.774 -0.1562  0.3333 -0.2957
   73MOL0     C 9959   2.070   6.511   8.846  0.6160  0.3795  0.0356
   73MOL0     O 9960   1.928   6.511   8.887  0.0531  0.0160  0.3497
   73MOL0     C 9961   1.863   6.627   8.896  0.1018 -0.9549  0.2930
   73MOL0     C 9962   1.725   6.631   8.860  0.6461 -0.3628  0.0905
   73MOL0     C 9963   1.663   6.758   8.846 -0.1431 -0.1850  0.5681
   73MOL0     C 9964   1.523   6.751   8.794  0.4224  0.5433 -0.0291
   73MOL0     C 9965   1.733   6.885   8.869  0.4295  0.0983 -0.6249
   73MOL0     C 9966   1.678   7.021   8.821  0.8099 -0.4722  0.5767
   73MOL0     O 9967   1.755   7.075   8.719 -0.5225  0.1534 -0.7239
   73MOL0     C 9968   1.714   7.198   8.686 -0.5409 -0.9142  0.2771
   73MOL0     C 9969   1.601   7.213   8.601 -0.2817  0.6831 -1.4550
   73MOL0     C 9970   1.546   7.328   8.558 -0.1019  0.8439 -0.3179
   73MOL0     C 9971   1.624   7.450   8.574 -0.9988 -0.2673 -0.3797
   73MOL0     O 9972   1.594   7.558   8.494 -0.5113  0.2553 -0.4070
   73MOL0     C 9973   1.694   7.647   8.441  1.3181  0.1741 -0.2143
   73MOL0     C 9974   1.821   7.597   8.371  1.2014  0.5181  0.2692
   73MOL0     C 9975   1.789   7.474   8.273 -0.3107  0.8355 -0.1974
   73MOL0     C 9976   1.897   7.439   8.176 -1.2914  0.0709  0.4335
   73MOL0     C 9977   1.876   7.325   8.070 -0.2684 -0.5917  0.2798
   73MOL0     C 9978   1.855   7.387   7.920 -0.5586 -0.1943 -0.1117
   73MOL0     C 9979   1.829   7.279   7.821 -0.5931  0.6710  0.2643
   73MOL0     C 9980   1.801   7.316   7.673 -0.2359 -0.4219  0.2610
   73MOL0    Cl 9981   1.919   7.445   7.627 -0.2166 -0.0284 -0.3092
   73MOL0     C 9982   1.741   7.444   8.661 -0.9876  0.0441  0.0167
   73MOL0     C 9983   1.773   7.320   8.717  0.0494 -0.2492  0.5741
   73MOL0     O 9984   1.557   7.054   8.851  0.4469  0.3995 -0.5444
   73MOL0     C 9985   1.868   6.873   8.903  0.1119 -0.3996  0.0703
   73MOL0     C 9986   1.931   6.749   8.912  0.7740 -0.3856 -0.2814
   73MOL0     N 9987   2.104   6.035   8.683 -0.1902  0.1880  0.4033
   73MOL0     N 9988   2.143   5.930   8.757 -1.2062 -0.0364  0.3714
   73MOL0     C 9989   2.907   5.080   8.234 -0.0139 -0.1334 -0.4279
   73MOL0     C 9990   2.975   5.016   8.126 -0.0098  1.1477 -0.0876
   73MOL0     C 9991   3.204   4.984   7.741 -0.0671 -0.3369  0.3835
   73MOL0     C 9992   3.199   4.844   7.750  0.0517 -0.1396  0.2200
   73MOL0     C 9993   3.272   4.756   7.665 -1.0608 -0.9152 -0.5817
   73MOL0     C 9994   3.373   4.810   7.584  0.2240  0.4319  0.3784
   73MOL0     O 9995   3.475   4.725   7.536  0.1129 -0.1623  0.3575
   73MOL0     C 9996   3.568   4.774   7.439 -0.3195  0.2394  0.4627
   73MOL0     C 9997   3.688   4.845   7.512  0.2455 -0.1386 -0.2111
   73MOL0     C 9998   3.775   4.932   7.408 -0.0123  0.2935 -0.2435
   73MOL0     C 9999   3.873   4.858   7.319  0.3865  0.1518  0.2113
   73MOL0     C10000   3.921   4.729   7.359 -0.4364  0.7839 -0.6617
   73MOL0     C10001   3.961   4.612   7.385  0.4259 -0.2578  0.4050
   73MOL0     C10002   3.375   4.950   7.574 -0.8615 -0.6344  0.1526
   73MOL0     C10003   3.296   5.037   7.652  0.8336 -0.2223 -0.6293
   73MOL0     C10004   3.299   5.181   7.616 -0.2902 -0.1082  0.3026
   73MOL0     H10005   2.809   5.135   7.871  3.3376 -1.0554 -1.5205
   73MOL0     H10006   2.688   5.262   8.069  0.0482  0.2383  1.9426
   73MOL0     H10007   2.894   5.280   8.440  0.7449 -1.7157 -1.1772
   73MOL0     H10008   2.788   5.138   8.473  0.4209  0.1176 -1.1687
   73MOL0     H10009   2.613   5.275   8.566  0.3739 -0.0255 -0.5045
   73MOL0     H10010   2.762   5.329   8.632  1.7304  2.5708 -2.3998
   73MOL0     H10011   2.769   5.524   8.465  1.1094  0.6536  1.4309
   73MOL0     H10012   2.603   5.464   8.418 -1.8799  1.6603  0.9128
   73MOL0     H10013   2.554   5.449   8.671  1.1966  0.0094 -0.4444
   73MOL0     H10014   2.661   5.588   8.686 -0.8556  3.6208  0.0032
   73MOL0     H10015   2.413   5.568   8.511  0.7842 -3.6288  1.1992
   73MOL0     H10016   2.521   5.705   8.503 -0.9613  0.4395  1.5655
   73MOL0     H10017   2.305   5.695   8.661 -0.5072 -0.9030 -0.0555
   73MOL0     H10018   2.391   5.584   8.755 -1.4367 -2.0357 -1.8895
   73MOL0     H10019   2.484   5.868   8.673 -0.3414 -0.9834 -0.9684
   73MOL0     H10020   2.559   5.781   8.804  1.0753 -1.8269 -1.1042
   73MOL0     H10021   2.313   5.787   8.923 -2.0154  3.0662  2.1783
   73MOL0     H10022   2.428   5.920   8.932  0.8439  0.4001 -1.0147
   73MOL0     H10023   2.422   6.106   8.757  0.1210  2.7217  1.7551
   73MOL0     H10024   2.118   6.264   8.531 -2.1738 -3.3673  2.9201
   73MOL0     H10025   2.298   6.242   8.520  0.1721  1.4721  1.2461
   73MOL0     H10026   2.313   6.373   8.742  0.3836 -0.3701 -0.8970
   73MOL0     H10027   2.221   6.455   8.609  1.9093 -0.3931  0.0868
   73MOL0     H10028   2.004   6.376   8.709 -1.0203  4.9246  0.2028
   73MOL0     H10029   2.088   6.298   8.846 -0.5004  0.7107  0.1309
   73MOL0     H10030   2.125   6.506   8.941 -1.0971 -0.5108  1.0352
   73MOL0     H10031   2.103   6.596   8.787  2.1845 -1.1053 -1.3597
   73MOL0     H10032   1.663   6.547   8.829  0.7718 -1.1875  1.9624
   73MOL0     H10033   1.489   6.648   8.808  1.9405 -0.1143 -0.8700
   73MOL0     H10034   1.517   6.786   8.691  1.7172 -0.8567 -0.6228
   73MOL0     H10035   1.449   6.804   8.854 -1.5891 -2.2918  0.1959
   73MOL0     H10036   1.552   7.125   8.562  1.3188 -0.0855 -1.8145
   73MOL0     H10037   1.454   7.330   8.501 -0.7756 -2.4100  0.3994
   73MOL0     H10038   1.644   7.717   8.372 -0.6903 -1.8492 -0.9214
   73MOL0     H10039   1.712   7.713   8.527 -3.5054  2.6849 -0.7629
   73MOL0     H10040   1.861   7.688   8.324  1.7416 -0.0701 -0.4497
   73MOL0     H10041   1.889   7.551   8.443  2.4772  0.5745 -0.8492
   73MOL0     H10042   1.718   7.509   8.196  2.4215  4.6937 -1.2833
   73MOL0     H10043   1.744   7.390   8.325 -0.0203 -0.3647 -1.7988
   73MOL0     H10044   1.984   7.405   8.233  0.3977  1.4122 -1.2160
   73MOL0     H10045   1.919   7.529   8.118  3.0452  0.4198  2.2234
   73MOL0     H10046   1.968   7.269   8.054 -0.8403 -0.6252 -3.9669
   73MOL0     H10047   1.797   7.256   8.101  0.7570 -0.1728  4.4912
   73MOL0     H10048   1.939   7.450   7.893  0.6963 -1.1816  1.2802
   73MOL0     H10049   1.760   7.440   7.934 -0.8829 -0.6980 -0.3489
   73MOL0     H10050   1.743   7.229   7.867 -1.4653  2.4441  0.6256
   73MOL0     H10051   1.924   7.225   7.833 -0.0334  2.1341  4.0429
   73MOL0     H10052   1.695   7.333   7.649 -0.5920 -3.6461 -0.9019
   73MOL0     H10053   1.810   7.221   7.621 -0.7923 -1.4248  1.9232
   73MOL0     H10054   1.802   7.531   8.684  2.7188 -2.6763  1.5376
   73MOL0     H10055   1.863   7.312   8.777  0.9714 -0.0223 -0.7552
   73MOL0     H10056   1.906   6.974   8.916 -1.8932  0.5465 -1.0600
   73MOL0     H10057   2.039   6.756   8.920  0.8011  1.7339 -1.6066
   73MOL0     H10058   2.950   5.051   8.329 -1.8966 -1.6998  0.0250
   73MOL0     H10059   3.052   4.947   8.158 -2.0345 -0.0135  2.6664
   73MOL0     H10060   3.122   4.801   7.814 -3.1962  2.6607 -1.4598
   73MOL0     H10061   3.270   4.648   7.675 -1.1194 -0.9828 -1.2389
   73MOL0     H10062   3.621   4.701   7.378  0.5429 -1.3262  2.9298
   73MOL0     H10063   3.532   4.855   7.375  1.4870  0.6625 -0.0675
   73MOL0     H10064   3.749   4.774   7.569  0.5829  0.2993 -0.0213
   73MOL0     H10065   3.635   4.922   7.571  2.1864 -0.5360  2.2315
   73MOL0     H10066   3.709   4.996   7.350 -0.2655 -0.6441 -1.0162
   73MOL0     H10067   3.846   4.997   7.460  2.6027 -1.6475 -1.1163
   73MOL0     H10068   3.954   4.922   7.284  0.3486 -1.4080 -3.1905
   73MOL0     H10069   3.812   4.843   7.230  1.6569  1.0429 -0.8574
   73MOL0     H10070   4.009   4.526   7.426  2.4702 -0.6285 -2.4297
   73MOL0     H10071   3.439   4.993   7.498 -1.5350  1.8976  0.9522
   73MOL0     H10072   3.354   5.227   7.698  0.4067 -0.5156  0.0722
   73MOL0     H10073   3.351   5.188   7.521 -1.3113 -2.7919 -0.5743
   73MOL0     H10074   3.210   5.241   7.594  1.1685  1.3837 -1.8684
   74MOL0     O10075   6.604   2.270   9.431  0.0929  0.0974 -0.0305
   74MOL0     C10076   6.609   2.321   9.540 -0.2529 -0.7533  0.3463
   74MOL0     O10077   6.711   2.309   9.619 -0.7043 -1.0590 -0.0261
   74MOL0     C10078   6.826   2.389   9.591  0.0193  0.3322  0.9722
   74MOL0     C10079   6.843   2.488   9.488 -0.2912  0.3854 -0.0252
   74MOL0     C10080   6.966   2.554   9.472 -0.6424 -0.1798  0.3893
   74MOL0     C10081   7.075   2.531   9.567  0.2598 -0.2795  0.3878
   74MOL0     O10082   7.187   2.599   9.542  0.8572  0.8482 -0.9431
   74MOL0     C10083   7.302   2.583   9.622 -0.4388 -0.2720 -0.5170
   74MOL0     C10084   7.382   2.704   9.578 -0.5534 -0.1413 -0.7245
   74MOL0     C10085   7.437   2.709   9.431  0.6204 -0.0418  0.3235
   74MOL0     C10086   7.535   2.596   9.411 -0.5407 -0.1515 -0.5428
   74MOL0     C10087   7.622   2.579   9.284  0.5085 -0.4792  0.3234
   74MOL0     C10088   7.526   2.551   9.162 -0.1692  0.3667  0.1925
   74MOL0     C10089   7.594   2.527   9.016  0.2967 -0.2215 -0.5951
   74MOL0     C10090   7.630   2.671   8.955  0.2420 -0.5272 -1.4834
   74MOL0     N10091   7.761   2.672   8.892  0.0460 -0.4062  0.2710
   74MOL0     C10092   7.800   2.587   8.788 -0.6295 -0.5875 -0.4746
   74MOL0     C10093   7.915   2.651   8.738  0.2850  0.5219  0.7498
   74MOL0     C10094   8.000   2.585   8.632 -0.0609  0.3815  1.2950
   74MOL0     C10095   7.926   2.559   8.510  0.2242  0.0645  0.3671
   74MOL0     C10096   7.853   2.684   8.449  0.0293  0.6529 -0.6854
   74MOL0     C10097   7.790   2.657   8.316  0.3000 -0.0916  0.0520
   74MOL0     O10098   7.697   2.758   8.295  0.6144 -0.6640  0.8140
   74MOL0     C10099   7.757   2.870   8.257 -0.5218  0.2988 -0.9036
   74MOL0     C10100   7.772   2.969   8.342 -0.3222 -0.1457 -0.0259
   74MOL0     C10101   7.860   3.081   8.332  0.3883  0.6485 -0.6278
   74MOL0     C10102   7.882   3.172   8.450  0.5980  0.5364 -0.8913
   74MOL0     C10103   7.919   3.103   8.203  0.7460 -0.0674 -0.1138
   74MOL0     C10104   8.012   3.218   8.158  0.2213  0.2055  0.6259
   74MOL0     O10105   8.082   3.193   8.046 -0.3482  0.1916  0.3151
   74MOL0     C10106   8.174   3.269   7.983 -0.5620 -0.5798 -0.2568
   74MOL0     C10107   8.182   3.245   7.845 -0.6384  1.5946  0.1127
   74MOL0     C10108   8.282   3.307   7.762  0.5166  0.7421 -0.2983
   74MOL0     C10109   8.384   3.380   7.827  0.8673  0.9498  0.1210
   74MOL0     O10110   8.478   3.419   7.739 -0.3610 -0.1665  0.4377
   74MOL0     C10111   8.608   3.356   7.746 -0.6856  0.3968  0.0515
   74MOL0     C10112   8.723   3.433   7.665  0.8243 -0.7228 -0.5410
   74MOL0     C10113   8.868   3.362   7.687  0.5165 -0.1412  0.0151
   74MOL0     C10114   8.988   3.460   7.653 -0.0922  0.2244 -0.4201
   74MOL0     C10115   9.117   3.415   7.726  0.3918  0.8698  0.2534
   74MOL0     C10116   9.163   3.491   7.853 -0.2577 -0.0348  0.1720
   74MOL0     C10117   9.306   3.442   7.896  0.0417  0.5935  0.0090
   74MOL0     C10118   9.333   3.438   8.045 -0.0323 -0.8632 -0.3880
   74MOL0    Cl10119   9.382   3.604   8.086 -0.2261  0.2627 -0.1190
   74MOL0     C10120   8.376   3.404   7.963  0.3898 -0.3719  0.4465
   74MOL0     C10121   8.270   3.353   8.040  0.1397  0.0317 -0.1822
   74MOL0     O10122   8.004   3.327   8.209  0.0152  0.2314 -0.2689
   74MOL0     C10123   7.888   3.002   8.104  0.2036  0.1004  1.1845
   74MOL0     C10124   7.807   2.883   8.130 -0.2293 -0.3727 -0.6105
   74MOL0     N10125   7.950   2.754   8.815 -0.2766 -0.5844 -0.0483
   74MOL0     N10126   7.854   2.778   8.898 -0.1894  0.4165 -0.7663
   74MOL0     C10127   7.053   2.442   9.668 -0.4926  0.6652  0.5926
   74MOL0     C10128   6.936   2.365   9.677 -0.4088  0.0870 -0.6178
   74MOL0     C10129   6.488   2.364   9.613  0.5536  0.1761  0.2686
   74MOL0     C10130   6.468   2.317   9.744  0.8614  0.2901  0.0824
   74MOL0     C10131   6.349   2.342   9.810 -0.7665 -0.1512  0.6863
   74MOL0     C10132   6.252   2.427   9.760 -0.0114  0.0732 -0.0031
   74MOL0     O10133   6.154   2.476   9.844  0.3139 -0.3593 -0.5453
   74MOL0     C10134   6.183   2.596   9.912  0.3297 -1.0018  0.8768
   74MOL0     C10135   6.276   2.602  10.035  0.0406 -1.0970 -0.7221
   74MOL0     C10136   6.206   2.557  10.161 -0.2860  0.2087  0.2502
   74MOL0     C10137   6.179   2.406  10.174  0.5853  0.3992 -0.1908
   74MOL0     C10138   6.296   2.339  10.227  0.3148 -0.3116 -0.0544
   74MOL0     C10139   6.398   2.310  10.281 -0.0187 -0.7988 -0.3532
   74MOL0     C10140   6.270   2.470   9.630 -0.4928  0.3046  0.1004
   74MOL0     C10141   6.387   2.445   9.562 -0.1488  0.0287 -0.4466
   74MOL0     C10142   6.407   2.511   9.427 -0.2117 -0.1619 -0.1398
   74MOL0     H10143   6.757   2.514   9.428 -1.8893 -1.5928  1.2736
   74MOL0     H10144   6.963   2.621   9.387  1.2312 -0.3495  0.1472
   74MOL0     H10145   7.350   2.489   9.592  0.8613  0.8273 -1.9965
   74MOL0     H10146   7.288   2.605   9.728  2.3544  3.4360 -0.7223
   74MOL0     H10147   7.331   2.798   9.599  3.7288  1.7325  2.6159
   74MOL0     H10148   7.470   2.715   9.641 -0.8622 -3.2647  0.4622
   74MOL0     H10149   7.350   2.693   9.367 -0.4608 -0.2790  1.7945
   74MOL0     H10150   7.486   2.800   9.397 -2.8457  1.0440 -2.2796
   74MOL0     H10151   7.588   2.590   9.507 -0.0050 -0.4773 -0.8575
   74MOL0     H10152   7.463   2.514   9.414  0.9760 -1.5115  1.5771
   74MOL0     H10153   7.681   2.490   9.306 -0.0902 -0.7377  0.9251
   74MOL0     H10154   7.679   2.670   9.263  2.2812 -1.3764  1.0273
   74MOL0     H10155   7.482   2.455   9.191 -1.8404  1.0058 -0.1103
   74MOL0     H10156   7.440   2.615   9.138  0.7712  0.3497 -4.0846
   74MOL0     H10157   7.523   2.471   8.954 -1.7097  1.2759  0.2048
   74MOL0     H10158   7.684   2.466   9.020 -0.5660 -1.4557  0.8126
   74MOL0     H10159   7.558   2.687   8.874  1.2191  0.7272 -2.1382
   74MOL0     H10160   7.631   2.748   9.033  3.5935 -1.8061 -0.0417
   74MOL0     H10161   7.746   2.497   8.762 -2.3384  0.3647 -0.3502
   74MOL0     H10162   8.035   2.488   8.669  1.8414  0.5709  0.1115
   74MOL0     H10163   8.093   2.640   8.611  0.7658 -1.7180 -0.9902
   74MOL0     H10164   7.993   2.520   8.433 -1.4975  3.7130 -3.3415
   74MOL0     H10165   7.847   2.484   8.516 -0.4517  0.8492  1.7758
   74MOL0     H10166   7.775   2.701   8.524  3.7744  2.7247  3.1928
   74MOL0     H10167   7.923   2.768   8.453  0.6282  0.1293  2.1531
   74MOL0     H10168   7.867   2.636   8.241 -0.6858 -4.7639  0.0557
   74MOL0     H10169   7.739   2.561   8.304 -1.0840  0.2638  2.4927
   74MOL0     H10170   7.709   2.955   8.430 -1.1093  0.4191 -0.4919
   74MOL0     H10171   7.884   3.120   8.546  1.0084  1.3286 -0.4651
   74MOL0     H10172   7.802   3.246   8.450  1.7988  1.9815  1.7230
   74MOL0     H10173   7.978   3.225   8.448  0.5541  0.6023 -1.2173
   74MOL0     H10174   8.099   3.185   7.809 -1.3671  2.6890 -0.0989
   74MOL0     H10175   8.273   3.310   7.654 -0.5280  0.7593 -0.2238
   74MOL0     H10176   8.635   3.358   7.852 -1.1261  3.8367  0.1926
   74MOL0     H10177   8.592   3.254   7.711 -0.3055  0.2703  0.2442
   74MOL0     H10178   8.705   3.446   7.558  0.0544  0.9139 -0.2404
   74MOL0     H10179   8.710   3.534   7.706 -1.2070 -1.2072  0.0979
   74MOL0     H10180   8.876   3.281   7.614 -3.7158  1.1918 -2.2307
   74MOL0     H10181   8.883   3.335   7.792  3.2773  0.8962 -0.0078
   74MOL0     H10182   8.974   3.565   7.682  2.6570 -0.0939  2.5738
   74MOL0     H10183   9.011   3.448   7.547  0.5608  0.9277 -0.3618
   74MOL0     H10184   9.100   3.308   7.743 -1.2288  1.1792  0.6749
   74MOL0     H10185   9.200   3.410   7.654  1.2149  1.2001  1.1548
   74MOL0     H10186   9.096   3.482   7.939 -0.2970  0.3695  0.1862
   74MOL0     H10187   9.155   3.600   7.843 -2.1287  0.1280  2.6431
   74MOL0     H10188   9.394   3.482   7.845  1.5554 -0.1520  1.9484
   74MOL0     H10189   9.313   3.334   7.880  0.6351  0.3280  1.8645
   74MOL0     H10190   9.409   3.362   8.064  1.5622  0.5465 -0.9415
   74MOL0     H10191   9.236   3.419   8.093  0.2010  2.7529  1.8971
   74MOL0     H10192   8.461   3.462   7.998 -0.2716  1.1669 -0.3852
   74MOL0     H10193   8.267   3.363   8.148  1.4208 -0.5110 -0.0825
   74MOL0     H10194   7.898   3.024   7.998 -0.0358  0.3583  1.2158
   74MOL0     H10195   7.785   2.816   8.048 -1.3741  1.6950 -2.1046
   74MOL0     H10196   7.125   2.431   9.749  0.0894  0.1083  0.0124
   74MOL0     H10197   6.926   2.285   9.749  0.9011 -1.4440 -2.0315
   74MOL0     H10198   6.546   2.250   9.779 -0.4924 -1.0047  0.7385
   74MOL0     H10199   6.345   2.301   9.911 -3.7160 -2.0103 -0.0840
   74MOL0     H10200   6.221   2.676   9.849  0.0665 -2.5767 -1.4254
   74MOL0     H10201   6.085   2.628   9.949  0.9262  2.4767 -0.2339
   74MOL0     H10202   6.303   2.707  10.041 -1.1424 -0.8294  0.3125
   74MOL0     H10203   6.370   2.551  10.011  1.6316  2.6436 -3.5003
   74MOL0     H10204   6.258   2.601  10.246 -1.4029  0.4817  0.8220
   74MOL0     H10205   6.106   2.604  10.160 -0.4374  0.1338 -3.4508
   74MOL0     H10206   6.163   2.363  10.075 -0.0615 -0.5375  0.3057
   74MOL0     H10207   6.085   2.382  10.225  0.8941 -0.8104 -0.1669
   74MOL0     H10208   6.486   2.283  10.336 -2.1287 -1.8063  2.8547
   74MOL0     H10209   6.201   2.540   9.585  0.2395  0.1872 -1.2649
   74MOL0     H10210   6.506   2.559   9.430 -0.7532  1.0726  3.2419
   74MOL0     H10211   6.400   2.449   9.338 -0.2507  3.2195 -2.6988
   74MOL0     H10212   6.339   2.596   9.419 -1.4202 -1.0752  0.2085
   75MOL0     O10213   2.886  11.208   8.265 -0.2922  0.4320  0.5630
   75MOL0     C10214   2.875  11.234   8.380  0.6708  0.2117  0.4792
   75MOL0     O10215   2.764  11.289   8.438 -0.4801  0.9049  0.0142
   75MOL0     C10216   2.646  11.320   8.378  0.4097 -0.2774  0.3926
   75MOL0     C10217   2.607  11.277   8.248 -0.0373  0.5771  0.7762
   75MOL0     C10218   2.480  11.294   8.196  0.0386 -0.0487 -0.4003
   75MOL0     C10219   2.386  11.361   8.278  0.6202 -0.4893  0.5663
   75MOL0     O10220   2.257  11.387   8.238  0.0988  0.5843  0.4575
   75MOL0     C10221   2.200  11.317   8.128 -0.9780 -0.0958  0.4174
   75MOL0     C10222   2.050  11.315   8.148 -0.7171 -0.0197  0.0019
   75MOL0     C10223   1.978  11.257   8.022  0.3335  0.4175  0.3055
   75MOL0     C10224   1.823  11.229   8.041  0.1848 -0.8030 -1.2711
   75MOL0     C10225   1.798  11.097   8.119  0.4196  0.8941  0.3790
   75MOL0     C10226   1.812  10.972   8.019 -0.0683 -0.8916  0.1199
   75MOL0     C10227   1.679  10.932   7.957 -0.9606 -0.2819 -0.5480
   75MOL0     C10228   1.702  10.827   7.847 -1.2266 -0.3597  0.7822
   75MOL0     N10229   1.581  10.781   7.792  1.0178 -0.4060  0.4860
   75MOL0     C10230   1.480  10.703   7.856 -0.1416  0.2221  0.0646
   75MOL0     C10231   1.366  10.724   7.778 -1.2826 -1.7222 -0.4338
   75MOL0     C10232   1.236  10.668   7.828 -0.0266  0.0281 -0.3072
   75MOL0     C10233   1.134  10.789   7.843 -0.5521 -0.0952 -0.3048
   75MOL0     C10234   1.176  10.892   7.957 -0.1171 -0.1667  0.2823
   75MOL0     C10235   1.169  10.831   8.100  0.8453 -0.4548  0.8755
   75MOL0     O10236   1.290  10.761   8.128  0.7730 -0.2123  0.3174
   75MOL0     C10237   1.383  10.817   8.210 -0.0763  0.0986  0.2516
   75MOL0     C10238   1.487  10.731   8.238  0.0151 -0.4050 -0.7199
   75MOL0     C10239   1.594  10.771   8.318  0.1393  0.0439  0.4122
   75MOL0     C10240   1.698  10.672   8.349 -0.2235  0.7604  0.1302
   75MOL0     C10241   1.600  10.902   8.364  0.2004  0.0316  0.3888
   75MOL0     C10242   1.706  10.959   8.464  0.1787 -0.2174 -0.5643
   75MOL0     O10243   1.662  11.029   8.566 -0.2028  0.4263  0.2616
   75MOL0     C10244   1.753  11.077   8.654 -0.1521  0.5726 -0.1306
   75MOL0     C10245   1.861  11.004   8.717 -0.3573  0.6499 -0.1860
   75MOL0     C10246   1.939  11.065   8.812  1.0360  0.0566 -0.1965
   75MOL0     C10247   1.929  11.206   8.843 -0.6623  1.0618  0.0864
   75MOL0     O10248   2.012  11.280   8.922  0.1727  0.0006 -0.9096
   75MOL0     C10249   2.026  11.231   9.052 -0.6498 -0.8562 -0.0329
   75MOL0     C10250   2.113  11.316   9.141 -0.3367 -0.8897  0.0677
   75MOL0     C10251   2.258  11.278   9.106  1.5702 -0.4821 -0.2611
   75MOL0     C10252   2.365  11.391   9.136  0.4698 -0.0997  0.7366
   75MOL0     C10253   2.509  11.375   9.077  0.4777 -0.2625 -0.3605
   75MOL0     C10254   2.525  11.331   8.926  0.8613  0.3509 -0.5157
   75MOL0     C10255   2.676  11.332   8.885  0.2609 -0.1642 -1.2192
   75MOL0     C10256   2.729  11.188   8.874 -0.3014  0.3289  0.2969
   75MOL0    Cl10257   2.648  11.093   8.753  0.1636  0.3046 -0.0507
   75MOL0     C10258   1.832  11.280   8.766  0.2779  0.4690 -0.5948
   75MOL0     C10259   1.756  11.217   8.671  0.6696 -0.0007 -0.2923
   75MOL0     O10260   1.821  10.928   8.447  0.3264  0.3115  0.5618
   75MOL0     C10261   1.502  10.990   8.326  0.7682  0.5101  0.0672
   75MOL0     C10262   1.395  10.957   8.245  0.7311 -0.1364  0.2323
   75MOL0     N10263   1.401  10.805   7.675 -0.6114  1.1660 -0.0437
   75MOL0     N10264   1.530  10.824   7.674  0.0532  0.0338  0.7130
   75MOL0     C10265   2.421  11.420   8.398  0.6387 -0.2396  0.6275
   75MOL0     C10266   2.548  11.396   8.447 -0.3300 -0.3077 -0.1903
   75MOL0     C10267   2.988  11.216   8.469 -0.1468  0.0706 -0.1975
   75MOL0     C10268   2.967  11.145   8.588  0.0486 -0.0910 -0.1740
   75MOL0     C10269   3.070  11.121   8.671 -0.0686 -0.0556 -0.3877
   75MOL0     C10270   3.202  11.171   8.652  1.0407 -1.1044  0.3051
   75MOL0     O10271   3.290  11.143   8.747 -0.7484 -0.1845  0.0434
   75MOL0     C10272   3.338  11.014   8.737 -0.3288 -0.6742  0.4551
   75MOL0     C10273   3.397  10.969   8.867 -0.4922 -0.6592 -0.3098
   75MOL0     C10274   3.537  11.003   8.879  0.5070 -0.7660  0.0343
   75MOL0     C10275   3.606  10.935   9.000 -0.3565  0.5459  0.3921
   75MOL0     C10276   3.527  10.900   9.111  1.0207  0.3195 -1.5284
   75MOL0     C10277   3.470  10.865   9.214 -0.2765  0.3390  0.6651
   75MOL0     C10278   3.227  11.247   8.539  1.3550 -0.0817 -1.3789
   75MOL0     C10279   3.121  11.261   8.439  0.1054 -0.1251 -0.3331
   75MOL0     C10280   3.155  11.341   8.314 -0.2604 -0.0687 -1.2729
   75MOL0     H10281   2.681  11.213   8.201  1.7765  1.5109  2.2472
   75MOL0     H10282   2.460  11.272   8.092 -0.7978 -1.0239 -0.0535
   75MOL0     H10283   2.226  11.211   8.122  0.0168 -0.0431  2.6000
   75MOL0     H10284   2.240  11.374   8.044  3.4420 -0.1911  2.1644
   75MOL0     H10285   2.039  11.262   8.243  2.9545 -1.8820 -0.4248
   75MOL0     H10286   2.010  11.416   8.166  0.8480  0.7158 -0.4396
   75MOL0     H10287   1.988  11.315   7.930 -0.2213  0.0733  0.0181
   75MOL0     H10288   2.019  11.158   7.999 -0.0014  0.1981  0.6252
   75MOL0     H10289   1.770  11.313   8.087 -1.6036 -2.7661  0.5414
   75MOL0     H10290   1.778  11.219   7.942  0.8668 -0.7875 -1.5829
   75MOL0     H10291   1.702  11.095   8.171  0.8030 -0.0444  1.0757
   75MOL0     H10292   1.865  11.100   8.206  0.4333  3.1617  0.3460
   75MOL0     H10293   1.876  10.998   7.934 -0.3515  0.8247  0.3883
   75MOL0     H10294   1.853  10.891   8.080  1.2729 -1.1212 -1.0150
   75MOL0     H10295   1.631  11.021   7.915  0.6477  1.6012  1.3471
   75MOL0     H10296   1.605  10.902   8.032  0.1059  1.2108  1.1846
   75MOL0     H10297   1.764  10.868   7.767 -1.5952  0.8055  1.0673
   75MOL0     H10298   1.744  10.741   7.900 -2.8614 -1.2845  0.6601
   75MOL0     H10299   1.485  10.657   7.954 -0.9748  0.6170  0.2958
   75MOL0     H10300   1.243  10.610   7.920 -5.2756 -0.4815  0.0627
   75MOL0     H10301   1.204  10.595   7.752  2.8631 -1.1934 -0.4680
   75MOL0     H10302   1.138  10.853   7.753  1.7102  4.3112  2.5486
   75MOL0     H10303   1.033  10.749   7.851 -0.4813 -0.0395  1.1216
   75MOL0     H10304   1.278  10.925   7.938 -1.0000  0.6567 -4.2894
   75MOL0     H10305   1.104  10.974   7.951 -0.3000 -0.3255  0.2580
   75MOL0     H10306   1.148  10.909   8.173  2.9304  0.2207  0.8241
   75MOL0     H10307   1.081  10.766   8.102  4.0309 -5.2405  0.0404
   75MOL0     H10308   1.502  10.627   8.209  4.9657  0.6029 -2.8285
   75MOL0     H10309   1.661  10.572   8.326  0.5582 -0.0475  2.1963
   75MOL0     H10310   1.727  10.675   8.455  0.0673 -0.8610  0.1248
   75MOL0     H10311   1.784  10.697   8.286  0.5294 -0.4663  0.6391
   75MOL0     H10312   1.884  10.899   8.699 -5.7699 -0.6908 -1.3148
   75MOL0     H10313   2.021  11.018   8.865  0.6538 -0.1187  0.2584
   75MOL0     H10314   1.927  11.209   9.093 -0.2619 -0.7629  0.9752
   75MOL0     H10315   2.080  11.137   9.038 -0.0872 -0.3960 -1.0777
   75MOL0     H10316   2.107  11.424   9.125  2.4883 -0.1255  3.2105
   75MOL0     H10317   2.090  11.295   9.246  0.4175 -1.5048  0.1180
   75MOL0     H10318   2.261  11.246   9.001 -0.4920  1.1973 -0.9209
   75MOL0     H10319   2.269  11.187   9.165 -1.1631 -1.2367 -0.7799
   75MOL0     H10320   2.378  11.407   9.244 -0.4439  0.3746  0.7862
   75MOL0     H10321   2.319  11.489   9.118 -1.0356 -0.8486  0.3337
   75MOL0     H10322   2.557  11.473   9.089 -2.3547  1.4114 -1.7167
   75MOL0     H10323   2.550  11.306   9.151 -1.2866  0.1508  1.0734
   75MOL0     H10324   2.467  11.412   8.881  0.8908  2.0278  2.1941
   75MOL0     H10325   2.471  11.236   8.912  1.3201 -0.2114  1.2745
   75MOL0     H10326   2.735  11.389   8.958 -1.6225  0.0181  0.2417
   75MOL0     H10327   2.676  11.372   8.784  3.0447 -2.2048 -2.1440
   75MOL0     H10328   2.722  11.125   8.964  0.7061 -2.6663 -1.5685
   75MOL0     H10329   2.834  11.201   8.848 -0.4986  0.4140 -0.4638
   75MOL0     H10330   1.801  11.384   8.776  0.7547  0.5796 -0.2182
   75MOL0     H10331   1.680  11.278   8.623 -0.7632 -1.5068 -0.0460
   75MOL0     H10332   1.508  11.093   8.359  1.2649  0.8113 -0.9346
   75MOL0     H10333   1.325  11.033   8.212 -2.0129 -2.8057 -0.5354
   75MOL0     H10334   2.353  11.462   8.472  0.8857 -0.7971  1.1813
   75MOL0     H10335   2.561  11.412   8.554  3.1098 -2.9731 -0.0070
   75MOL0     H10336   2.881  11.085   8.615 -0.1451  0.6244  0.8601
   75MOL0     H10337   3.048  11.053   8.752  4.7012  1.3191  2.4266
   75MOL0     H10338   3.262  10.943   8.705  0.8950 -1.3637 -1.0166
   75MOL0     H10339   3.407  11.014   8.652  1.8339  1.5159  2.0442
   75MOL0     H10340   3.396  10.861   8.886  1.0965 -0.0592  4.7222
   75MOL0     H10341   3.352  11.013   8.957  1.7559 -2.1656  1.7014
   75MOL0     H10342   3.580  10.996   8.779 -1.0030  0.0081 -0.7007
   75MOL0     H10343   3.558  11.106   8.910 -0.8591 -0.5480  0.2964
   75MOL0     H10344   3.696  10.988   9.032 -0.0739  1.1908 -1.3965
   75MOL0     H10345   3.646  10.842   8.958  3.2462  2.1413 -0.0992
   75MOL0     H10346   3.431  10.845   9.312  0.0128 -0.8163  0.5621
   75MOL0     H10347   3.332  11.269   8.523  2.7570 -3.4633  1.8582
   75MOL0     H10348   3.094  11.315   8.227 -2.9005 -2.8988  1.1970
   75MOL0     H10349   3.144  11.443   8.353 -0.9914 -1.1900  1.7307
   75MOL0     H10350   3.260  11.322   8.288  0.0213 -0.1055 -0.1496
   76MOL0     O10351   3.059   7.710   2.729  1.3085  0.1522 -0.3442
   76MOL0     C10352   2.973   7.800   2.728  0.2704  0.4396 -0.3772
   76MOL0     O10353   2.879   7.833   2.822 -0.0322 -0.0241 -0.6757
   76MOL0     C10354   2.856   7.759   2.935  0.3771 -0.6180 -0.9396
   76MOL0     C10355   2.845   7.825   3.059  0.1028 -0.2823  0.6026
   76MOL0     C10356   2.800   7.769   3.170 -0.3939 -0.9201 -0.6107
   76MOL0     C10357   2.756   7.632   3.160  0.6502 -0.2782  0.2718
   76MOL0     O10358   2.691   7.582   3.271  0.1232 -0.1910  0.2589
   76MOL0     C10359   2.683   7.443   3.292 -0.2365  0.3155 -0.1428
   76MOL0     C10360   2.625   7.430   3.434 -0.5528 -0.0232 -0.3200
   76MOL0     C10361   2.584   7.281   3.461  0.6423 -0.4808 -0.7357
   76MOL0     C10362   2.668   7.167   3.416 -0.7735 -0.1032  0.2174
   76MOL0     C10363   2.607   7.031   3.456  0.2355  0.4369 -0.0686
   76MOL0     C10364   2.488   6.980   3.365 -0.5413  0.1414 -0.2068
   76MOL0     C10365   2.436   6.835   3.413  0.4050  0.3398  0.4885
   76MOL0     C10366   2.502   6.719   3.343 -0.5443  0.6754 -0.7165
   76MOL0     N10367   2.649   6.720   3.354 -0.1435 -0.4014 -0.5162
   76MOL0     C10368   2.723   6.677   3.463  0.5084 -0.0503  0.7418
   76MOL0     C10369   2.845   6.660   3.413 -0.2695  0.8714  0.7174
   76MOL0     C10370   2.951   6.638   3.512 -0.2052 -0.8725  1.5298
   76MOL0     C10371   3.088   6.601   3.452 -0.6056  0.0603 -0.1187
   76MOL0     C10372   3.177   6.569   3.567 -0.5475 -0.0022  0.1039
   76MOL0     C10373   3.318   6.582   3.529 -0.8856 -0.8912 -0.2602
   76MOL0     O10374   3.400   6.595   3.651 -0.1423 -0.0878 -0.1685
   76MOL0     C10375   3.520   6.661   3.639  0.2143  0.5115  0.0509
   76MOL0     C10376   3.586   6.718   3.743  0.1763  0.6172 -0.6848
   76MOL0     C10377   3.698   6.806   3.722  0.7123 -0.2392  0.2908
   76MOL0     C10378   3.737   6.874   3.846  0.0540 -0.2673 -0.7555
   76MOL0     C10379   3.749   6.812   3.590  0.0908 -0.5557 -0.5466
   76MOL0     C10380   3.866   6.903   3.561 -0.4166 -1.1904 -0.2558
   76MOL0     O10381   3.945   6.946   3.663 -0.3112  0.2081 -0.3254
   76MOL0     C10382   4.058   7.022   3.636 -0.0022  0.0110  1.0811
   76MOL0     C10383   4.055   7.159   3.679 -0.3017  0.2102  0.6330
   76MOL0     C10384   4.159   7.252   3.641  0.4105 -0.0525 -0.2958
   76MOL0     C10385   4.268   7.208   3.567 -0.3735  0.0205  1.1257
   76MOL0     O10386   4.372   7.283   3.508  0.4881 -0.5789  0.2879
   76MOL0     C10387   4.341   7.412   3.456  1.1671  0.5632  1.3211
   76MOL0     C10388   4.239   7.413   3.341  0.2360  0.2322 -0.4063
   76MOL0     C10389   4.236   7.527   3.246  0.1638 -0.1542 -0.4436
   76MOL0     C10390   4.369   7.584   3.191 -0.1083  0.7527 -0.0890
   76MOL0     C10391   4.345   7.696   3.085 -0.1054 -0.1578 -0.8468
   76MOL0     C10392   4.475   7.740   3.015 -0.5555 -0.4150  0.6611
   76MOL0     C10393   4.573   7.794   3.114 -0.4513  0.7252 -0.0593
   76MOL0     C10394   4.661   7.897   3.041  0.5092 -0.4708 -0.2786
   76MOL0    Cl10395   4.766   7.977   3.163  0.0861 -0.5976 -0.1369
   76MOL0     C10396   4.279   7.072   3.536 -0.5627 -0.7598 -0.3431
   76MOL0     C10397   4.176   6.981   3.567 -0.0509  0.1038 -0.5469
   76MOL0     O10398   3.883   6.935   3.446 -0.0564  0.1393 -0.9464
   76MOL0     C10399   3.708   6.729   3.497 -1.4517 -0.6907  0.8642
   76MOL0     C10400   3.593   6.654   3.521  0.3795 -0.6168  0.8918
   76MOL0     N10401   2.851   6.695   3.282  0.6022  0.1153 -0.5449
   76MOL0     N10402   2.736   6.724   3.246 -0.5392  0.5147 -1.0661
   76MOL0     C10403   2.775   7.555   3.048 -0.2597 -0.5313  0.2168
   76MOL0     C10404   2.825   7.620   2.933  0.7165 -0.1312 -0.9008
   76MOL0     C10405   2.992   7.891   2.607  0.5695 -0.5251 -0.4654
   76MOL0     C10406   2.987   8.032   2.626 -0.4472 -0.9424 -0.5139
   76MOL0     C10407   2.997   8.119   2.522 -0.0721 -0.5266  0.1667
   76MOL0     C10408   3.014   8.074   2.394  0.1177  0.0664  1.3513
   76MOL0     O10409   3.048   8.147   2.284 -1.1094 -0.4193 -0.2626
   76MOL0     C10410   3.044   8.291   2.299  0.5075 -0.1567 -0.1643
   76MOL0     C10411   3.048   8.365   2.168  0.4615  0.2020  0.9991
   76MOL0     C10412   3.057   8.520   2.195 -0.0157 -0.1201  0.1891
   76MOL0     C10413   3.005   8.599   2.068 -0.4187  0.4435  0.4257
   76MOL0     C10414   2.986   8.734   2.101 -0.7415  0.5483 -0.4779
   76MOL0     C10415   2.965   8.850   2.138 -0.3810  0.2367 -0.2866
   76MOL0     C10416   3.042   7.932   2.375 -0.2531 -0.2361  0.3350
   76MOL0     C10417   3.009   7.838   2.470 -0.5322 -0.0184  0.0250
   76MOL0     C10418   3.010   7.685   2.434  0.2276 -0.3007  0.1695
   76MOL0     H10419   2.880   7.927   3.072  3.4810 -1.1462 -0.7156
   76MOL0     H10420   2.799   7.836   3.256  1.0651 -0.9300 -0.5613
   76MOL0     H10421   2.782   7.396   3.289 -2.1721 -4.3064 -0.3437
   76MOL0     H10422   2.623   7.396   3.213  0.9355  0.7556 -1.3338
   76MOL0     H10423   2.691   7.467   3.512 -0.9320 -0.3926  0.1798
   76MOL0     H10424   2.534   7.490   3.439  1.1143  2.6448  0.3525
   76MOL0     H10425   2.572   7.263   3.568 -0.5612 -1.9252 -1.0688
   76MOL0     H10426   2.485   7.272   3.414  1.6133 -0.7482 -2.8374
   76MOL0     H10427   2.691   7.177   3.310  2.5366  1.7976  0.9974
   76MOL0     H10428   2.766   7.162   3.465  0.0464 -2.2749 -1.4615
   76MOL0     H10429   2.575   7.015   3.560  0.7402 -1.9203 -0.2113
   76MOL0     H10430   2.687   6.957   3.448 -1.1987 -1.5292  2.2392
   76MOL0     H10431   2.400   7.044   3.380 -0.5735 -0.3014  1.6849
   76MOL0     H10432   2.513   6.987   3.258  1.3801 -1.9356  0.0386
   76MOL0     H10433   2.328   6.839   3.399  0.3656  2.7590  0.9866
   76MOL0     H10434   2.454   6.825   3.520  1.7199 -0.2122  0.2411
   76MOL0     H10435   2.457   6.632   3.391 -1.9463  2.3063  1.1251
   76MOL0     H10436   2.466   6.709   3.240 -0.5849 -2.3865 -0.4804
   76MOL0     H10437   2.692   6.652   3.564 -0.2442 -0.2505  0.4591
   76MOL0     H10438   2.912   6.557   3.576 -0.3629  0.5259  3.2856
   76MOL0     H10439   2.967   6.736   3.558  1.0449  0.0533 -0.7092
   76MOL0     H10440   3.068   6.514   3.389 -4.9769  0.0133  0.9660
   76MOL0     H10441   3.129   6.688   3.399  1.0163  0.6805  1.9915
   76MOL0     H10442   3.157   6.635   3.652  0.5305  0.8664 -0.2924
   76MOL0     H10443   3.160   6.464   3.595  0.7111  0.4652  2.9658
   76MOL0     H10444   3.347   6.497   3.466 -0.5783  1.2635 -3.2220
   76MOL0     H10445   3.330   6.665   3.459  3.1050 -2.9992 -2.4593
   76MOL0     H10446   3.547   6.700   3.843  0.0885 -1.7093 -1.0836
   76MOL0     H10447   3.661   6.890   3.922  0.9369 -2.3046  0.6523
   76MOL0     H10448   3.777   6.974   3.825 -2.1040  1.1799  1.4823
   76MOL0     H10449   3.813   6.818   3.901  0.0996  0.5589  0.0371
   76MOL0     H10450   3.966   7.180   3.737  1.5438  1.9361  3.0253
   76MOL0     H10451   4.156   7.354   3.677  0.6512 -0.2174  0.1909
   76MOL0     H10452   4.317   7.482   3.537  0.9521 -0.3334  2.0573
   76MOL0     H10453   4.431   7.463   3.421 -0.0591  2.7525  1.1750
   76MOL0     H10454   4.260   7.321   3.285 -0.6912  0.6115 -1.3932
   76MOL0     H10455   4.137   7.404   3.379 -0.2102 -0.6757 -1.7499
   76MOL0     H10456   4.194   7.610   3.304  0.9371  1.5066 -2.1365
   76MOL0     H10457   4.163   7.505   3.168 -2.2643  1.7940  1.1374
   76MOL0     H10458   4.430   7.504   3.148 -0.5851 -0.3295  1.1831
   76MOL0     H10459   4.418   7.632   3.277 -4.0090  1.3681  1.9999
   76MOL0     H10460   4.276   7.665   3.006  0.1203 -0.3122 -0.9846
   76MOL0     H10461   4.298   7.785   3.128  3.8916  1.2249  1.1385
   76MOL0     H10462   4.463   7.818   2.939  3.9063  2.5135  2.5240
   76MOL0     H10463   4.519   7.658   2.958  0.6627  0.6141  0.0809
   76MOL0     H10464   4.632   7.718   3.166 -0.2524 -0.8212 -2.3859
   76MOL0     H10465   4.531   7.848   3.199 -1.5576 -1.4748  0.8726
   76MOL0     H10466   4.599   7.980   3.007  0.1838  0.0135  1.4427
   76MOL0     H10467   4.719   7.858   2.957  2.9302 -1.2863  1.6645
   76MOL0     H10468   4.357   7.030   3.474  0.5878 -0.9383  1.1841
   76MOL0     H10469   4.182   6.878   3.535 -0.4579 -0.1449  0.1552
   76MOL0     H10470   3.758   6.722   3.401 -2.5740  0.0631  0.2062
   76MOL0     H10471   3.560   6.592   3.438 -2.1966 -0.5930  1.8054
   76MOL0     H10472   2.748   7.450   3.043 -3.4348  0.2660 -3.0404
   76MOL0     H10473   2.843   7.572   2.838  0.8148  2.0107 -2.0393
   76MOL0     H10474   2.985   8.066   2.729 -0.0735  0.2287 -0.8801
   76MOL0     H10475   3.016   8.223   2.547 -2.4259  0.9777 -3.5295
   76MOL0     H10476   2.955   8.325   2.354  1.7145  2.1935  0.4672
   76MOL0     H10477   3.134   8.331   2.345  0.7577  0.5222 -1.2179
   76MOL0     H10478   2.959   8.334   2.113 -1.5190  3.0763  2.3557
   76MOL0     H10479   3.141   8.341   2.115  0.2236 -1.0672  1.1206
   76MOL0     H10480   3.006   8.544   2.289 -0.0133  3.5322 -0.6194
   76MOL0     H10481   3.159   8.551   2.216 -0.5505  3.1782 -1.4930
   76MOL0     H10482   2.907   8.555   2.045 -1.9655  2.6570  2.2972
   76MOL0     H10483   3.066   8.592   1.978 -1.4607 -1.7082 -0.1798
   76MOL0     H10484   2.948   8.950   2.171  0.2284  0.0886  0.5264
   76MOL0     H10485   3.064   7.884   2.280 -1.6585 -0.8545  0.2937
   76MOL0     H10486   2.974   7.622   2.517 -2.1114 -3.0560 -2.6870
   76MOL0     H10487   2.934   7.655   2.362 -0.4685  0.6747  0.4726
   76MOL0     H10488   3.110   7.663   2.396  1.0759  2.2760  0.6922
   77MOL0     O10489   2.171   6.786  10.868 -0.3788  0.3631  0.3492
   77MOL0     C10490   2.145   6.880  10.937 -0.1279  0.7479  0.5727
   77MOL0     O10491   2.227   6.932  11.035 -0.9233 -0.4996  0.6559
   77MOL0     C10492   2.358   6.896  11.039  0.1445  0.3213 -0.2285
   77MOL0     C10493   2.447   6.950  10.946  0.2571  0.0380 -0.0390
   77MOL0     C10494   2.579   6.910  10.947 -0.2429 -0.1813 -0.0710
   77MOL0     C10495   2.626   6.824  11.039 -0.4015  0.4037 -0.2267
   77MOL0     O10496   2.762   6.801  11.050  0.3819 -0.2335 -0.0527
   77MOL0     C10497   2.820   6.829  11.181  0.8103 -0.6255 -0.6373
   77MOL0     C10498   2.948   6.913  11.166  0.7238  0.2907  0.1074
   77MOL0     C10499   2.999   6.974  11.295 -0.2761  0.7374  0.6050
   77MOL0     C10500   2.917   7.092  11.347 -0.6288  1.2544  0.0062
   77MOL0     C10501   2.924   7.132  11.498 -0.0684  0.1002 -0.1499
   77MOL0     C10502   3.070   7.173  11.543 -0.4621 -0.2087  0.7165
   77MOL0     C10503   3.095   7.158  11.700  0.0732  0.5903 -0.4059
   77MOL0     C10504   3.039   7.276  11.779  0.9343 -0.1004 -0.4405
   77MOL0     N10505   2.887   7.290  11.769 -0.0600  0.4158  0.1678
   77MOL0     C10506   2.836   7.405  11.724  0.2740 -0.1139  0.5624
   77MOL0     C10507   2.702   7.399  11.750  0.1758 -0.3150 -0.6257
   77MOL0     C10508   2.599   7.500  11.698  1.1802  0.2673  0.7359
   77MOL0     C10509   2.624   7.629  11.763 -0.8075 -0.2795  1.2420
   77MOL0     C10510   2.521   7.742  11.711 -0.4908 -0.2916 -0.1539
   77MOL0     C10511   2.509   7.760  11.559  0.0522  0.7354 -0.1345
   77MOL0     O10512   2.600   7.865  11.522 -0.3053 -0.3422  0.3978
   77MOL0     C10513   2.574   7.942  11.413  0.3733  0.8572  0.3363
   77MOL0     C10514   2.477   7.905  11.319  1.4058 -0.1289  0.1763
   77MOL0     C10515   2.447   7.992  11.210 -0.5467 -1.5011 -0.2283
   77MOL0     C10516   2.340   7.967  11.116  0.4993  0.8896  0.8764
   77MOL0     C10517   2.539   8.106  11.190  0.3240  0.7800 -0.0236
   77MOL0     C10518   2.528   8.204  11.073  0.5424  0.7443 -0.5772
   77MOL0     O10519   2.469   8.167  10.956 -0.2481 -1.0632 -0.1569
   77MOL0     C10520   2.456   8.266  10.858 -0.9003 -0.4952  0.0747
   77MOL0     C10521   2.545   8.374  10.831  0.0124  0.1663  0.2611
   77MOL0     C10522   2.513   8.488  10.759  0.0179 -0.4818  0.6769
   77MOL0     C10523   2.391   8.481  10.681  0.5787 -0.4904 -0.3023
   77MOL0     O10524   2.365   8.572  10.585 -0.5650  0.0352 -0.1904
   77MOL0     C10525   2.230   8.621  10.567 -0.3576 -0.1118  0.3162
   77MOL0     C10526   2.202   8.645  10.417  0.4155 -0.6665  0.2355
   77MOL0     C10527   2.208   8.522  10.319  0.1162  0.0246 -0.1265
   77MOL0     C10528   2.112   8.406  10.349 -0.2746 -0.5691  0.3886
   77MOL0     C10529   2.087   8.310  10.231 -0.6569  0.3274  0.8658
   77MOL0     C10530   2.204   8.212  10.207  0.1981 -0.5251  0.2764
   77MOL0     C10531   2.183   8.119  10.090  0.0281  0.4848 -0.2475
   77MOL0     C10532   2.163   7.973  10.128 -0.3458 -0.4155  0.4158
   77MOL0    Cl10533   2.009   7.943  10.229 -0.5536  0.1797  0.0394
   77MOL0     C10534   2.307   8.371  10.702  0.1389 -0.6593  0.2489
   77MOL0     C10535   2.336   8.271  10.792  0.8853 -0.8231 -0.1953
   77MOL0     O10536   2.575   8.314  11.104  0.1062  0.4587  0.0444
   77MOL0     C10537   2.640   8.140  11.297 -0.4843 -0.8118  0.4128
   77MOL0     C10538   2.650   8.059  11.403  0.3502 -1.0895  0.3145
   77MOL0     N10539   2.681   7.275  11.814 -0.1159 -0.5454 -0.4813
   77MOL0     N10540   2.793   7.218  11.836  0.7822  0.1647 -0.1650
   77MOL0     C10541   2.536   6.771  11.130  0.0899  0.2009  0.2962
   77MOL0     C10542   2.393   6.791  11.123  0.3015 -0.6972  0.0281
   77MOL0     C10543   2.000   6.933  10.942 -0.0612 -0.2016 -0.5176
   77MOL0     C10544   1.907   6.837  10.895  0.5827  0.4564 -0.2247
   77MOL0     C10545   1.771   6.867  10.909  0.1410  0.3311  0.4279
   77MOL0     C10546   1.724   6.997  10.936  0.3404 -0.6574 -0.9222
   77MOL0     O10547   1.586   7.038  10.950 -0.3032 -0.5651 -0.2476
   77MOL0     C10548   1.478   6.970  10.879  0.0945  1.2438 -0.1214
   77MOL0     C10549   1.482   6.991  10.730 -0.0146 -0.5225 -0.6167
   77MOL0     C10550   1.340   7.000  10.668 -0.8596 -1.0141  0.0647
   77MOL0     C10551   1.352   7.021  10.518  0.1070  0.0124 -0.2474
   77MOL0     C10552   1.339   7.166  10.477  0.4102 -0.2201  0.3812
   77MOL0     C10553   1.314   7.272  10.427  0.0012  0.5078  0.2280
   77MOL0     C10554   1.813   7.094  10.960 -0.3104 -0.1955 -1.0021
   77MOL0     C10555   1.954   7.062  10.968  0.4476  0.5337 -0.1505
   77MOL0     C10556   2.044   7.168  11.014  0.3977 -0.5711  0.2898
   77MOL0     H10557   2.411   7.020  10.871 -3.2335  1.3097  2.5539
   77MOL0     H10558   2.645   6.967  10.883 -4.1654  4.1403 -0.7655
   77MOL0     H10559   2.848   6.736  11.230  4.6314  0.5639 -0.2320
   77MOL0     H10560   2.749   6.885  11.243  0.7409 -0.3398 -0.9735
   77MOL0     H10561   3.027   6.855  11.117  1.4185  1.2400  0.0736
   77MOL0     H10562   2.922   6.999  11.103 -2.2449 -0.5966 -0.0083
   77MOL0     H10563   3.011   6.900  11.375 -0.6679  0.4341  0.3929
   77MOL0     H10564   3.098   7.014  11.271 -0.7850  1.2824 -0.6374
   77MOL0     H10565   2.943   7.184  11.292 -2.1357  0.5279 -2.0447
   77MOL0     H10566   2.813   7.063  11.333 -0.2404  0.6494 -2.1075
   77MOL0     H10567   2.888   7.045  11.553  2.0254 -0.4656  0.4073
   77MOL0     H10568   2.858   7.218  11.514 -0.4262 -0.3170  0.6535
   77MOL0     H10569   3.137   7.103  11.492  1.4323  0.7544  1.7707
   77MOL0     H10570   3.087   7.276  11.508 -0.1561 -1.5657 -3.8398
   77MOL0     H10571   3.203   7.156  11.713  0.4499  1.6964 -2.8556
   77MOL0     H10572   3.054   7.066  11.742  1.5582  0.6921  1.3486
   77MOL0     H10573   3.058   7.276  11.886 -4.0941  2.2522  0.7645
   77MOL0     H10574   3.080   7.368  11.734 -2.0983  0.2658 -2.7646
   77MOL0     H10575   2.897   7.484  11.683 -2.1310  0.7815 -1.5282
   77MOL0     H10576   2.495   7.468  11.714  0.9457  0.6129 -0.0543
   77MOL0     H10577   2.608   7.500  11.589 -2.7048  1.2876  0.2730
   77MOL0     H10578   2.617   7.607  11.870 -1.0700 -0.0135  1.2809
   77MOL0     H10579   2.727   7.667  11.754 -1.0908  1.0069  2.8626
   77MOL0     H10580   2.428   7.695  11.744 -0.6307 -1.1096 -1.6675
   77MOL0     H10581   2.552   7.835  11.760 -1.4705 -0.0293 -0.0127
   77MOL0     H10582   2.545   7.673  11.504 -0.0670 -0.2770  1.3285
   77MOL0     H10583   2.405   7.786  11.538 -0.9459  0.1426  3.3687
   77MOL0     H10584   2.413   7.817  11.321 -1.3274  1.7278 -0.4826
   77MOL0     H10585   2.266   7.893  11.148  0.5457  0.2537 -0.4319
   77MOL0     H10586   2.374   7.918  11.024  1.4653 -0.3314  1.8597
   77MOL0     H10587   2.296   8.063  11.086 -3.3521 -1.4098 -1.6960
   77MOL0     H10588   2.637   8.389  10.887 -0.8939  0.5662  1.7107
   77MOL0     H10589   2.588   8.562  10.732  0.1156 -0.6705  0.4252
   77MOL0     H10590   2.158   8.552  10.613  1.1952 -2.3534 -0.4046
   77MOL0     H10591   2.231   8.710  10.629 -2.0091  0.4875 -0.4738
   77MOL0     H10592   2.102   8.688  10.402  1.8255  1.9337 -2.6290
   77MOL0     H10593   2.268   8.725  10.383 -3.2832  2.4896 -0.2523
   77MOL0     H10594   2.312   8.487  10.319 -0.1687 -0.8492  0.2887
   77MOL0     H10595   2.187   8.566  10.221 -1.6273 -0.3030  0.0680
   77MOL0     H10596   2.019   8.448  10.390 -0.9826 -3.4111  1.9051
   77MOL0     H10597   2.157   8.348  10.430  0.2119  0.1904  0.6700
   77MOL0     H10598   2.002   8.245  10.253  0.5067 -1.6756 -0.2882
   77MOL0     H10599   2.071   8.371  10.141  0.3385  2.5610  2.1425
   77MOL0     H10600   2.232   8.156  10.296  1.8409  2.4092  1.7794
   77MOL0     H10601   2.294   8.269  10.182 -0.4277 -0.7282 -2.8791
   77MOL0     H10602   2.268   8.115  10.022  0.9818 -0.5792  0.9495
   77MOL0     H10603   2.096   8.150  10.031 -3.9297 -2.4555  3.3885
   77MOL0     H10604   2.251   7.933  10.180  0.8317 -0.7085 -1.6972
   77MOL0     H10605   2.154   7.921  10.032 -0.4965  1.3119 -0.5404
   77MOL0     H10606   2.213   8.358  10.649  0.3082 -4.2613  0.6087
   77MOL0     H10607   2.278   8.179  10.796 -1.1064  0.3597 -0.5166
   77MOL0     H10608   2.704   8.227  11.288  0.9764 -2.0134 -1.3985
   77MOL0     H10609   2.725   8.080  11.480  1.2608 -1.9731 -0.3002
   77MOL0     H10610   2.574   6.691  11.195 -0.0743 -0.9220 -0.9453
   77MOL0     H10611   2.322   6.743  11.188 -1.1958  1.3248 -0.0039
   77MOL0     H10612   1.935   6.735  10.871 -1.9789 -0.8216  1.7282
   77MOL0     H10613   1.708   6.787  10.871  0.5731  0.6548 -1.0111
   77MOL0     H10614   1.493   6.862  10.889 -0.6710  1.0212 -1.2530
   77MOL0     H10615   1.379   6.986  10.924 -0.1322 -1.6127  0.6177
   77MOL0     H10616   1.523   6.900  10.685 -2.5598 -1.1908 -1.7427
   77MOL0     H10617   1.541   7.077  10.696 -3.0308  1.5023 -1.0513
   77MOL0     H10618   1.294   6.901  10.672  1.7921 -2.3898  4.8218
   77MOL0     H10619   1.283   7.081  10.714 -1.2929 -2.1060  1.5155
   77MOL0     H10620   1.285   6.950  10.469  1.4738 -3.0699  1.9736
   77MOL0     H10621   1.449   6.976  10.493 -0.1550  0.3108 -1.9010
   77MOL0     H10622   1.289   7.370  10.392 -2.7371 -0.2592 -0.1878
   77MOL0     H10623   1.781   7.196  10.978  0.8079 -0.3109  2.1551
   77MOL0     H10624   2.005   7.270  11.015  1.7368 -0.0418  0.3433
   77MOL0     H10625   2.079   7.141  11.115  3.4181  2.1420  0.1305
   77MOL0     H10626   2.135   7.189  10.958 -0.3829  0.8705 -0.4851
   78MOL0     O10627   8.084   1.333   6.164  0.2171 -0.0263  1.6928
   78MOL0     C10628   7.988   1.399   6.196 -0.3863  0.1159 -0.1309
   78MOL0     O10629   7.857   1.387   6.139  1.0345 -0.1492  0.0365
   78MOL0     C10630   7.823   1.329   6.019  0.6797 -0.6514  0.3001
   78MOL0     C10631   7.909   1.267   5.924 -0.3401 -0.1636 -0.6133
   78MOL0     C10632   7.863   1.221   5.802 -0.2888  0.0343  0.3285
   78MOL0     C10633   7.725   1.230   5.778  0.5717  0.5317  0.1535
   78MOL0     O10634   7.690   1.179   5.661  0.2244  0.1167  0.2364
   78MOL0     C10635   7.584   1.245   5.592  0.1697  0.0393  0.1827
   78MOL0     C10636   7.569   1.187   5.452  0.3417  0.3369 -0.5645
   78MOL0     C10637   7.531   1.043   5.465 -0.7937 -0.4662  0.8555
   78MOL0     C10638   7.479   0.991   5.329  0.1019 -0.8093 -0.0281
   78MOL0     C10639   7.474   0.841   5.327 -0.1100 -0.1957 -0.0080
   78MOL0     C10640   7.397   0.796   5.198  0.3619  0.0256 -1.1859
   78MOL0     C10641   7.388   0.647   5.196 -0.5923  0.0211 -0.5470
   78MOL0     C10642   7.511   0.570   5.165 -0.1646 -0.5334  0.0893
   78MOL0     N10643   7.485   0.422   5.159 -0.1164 -0.2915  0.0868
   78MOL0     C10644   7.431   0.376   5.048  0.2101  0.7935 -0.6855
   78MOL0     C10645   7.404   0.243   5.083 -0.2672  0.1822  0.4438
   78MOL0     C10646   7.324   0.143   4.999 -0.6442  0.9758 -0.2707
   78MOL0     C10647   7.285   0.011   5.069  0.0517 -0.2181  0.2886
   78MOL0     C10648   7.168  -0.062   4.998 -0.3776 -0.2248 -0.2842
   78MOL0     C10649   7.240  -0.146   4.887 -0.1191  1.3036  0.6279
   78MOL0     O10650   7.261  -0.286   4.934  0.3148 -0.2981 -1.1581
   78MOL0     C10651   7.335  -0.391   4.894 -0.2840  0.1263 -0.7843
   78MOL0     C10652   7.417  -0.376   4.784  0.3875 -0.0216  0.1901
   78MOL0     C10653   7.475  -0.488   4.723  0.1754  0.5950  0.2581
   78MOL0     C10654   7.530  -0.467   4.579 -0.0412  0.0443  0.8867
   78MOL0     C10655   7.478  -0.610   4.789  0.0753  0.1873 -0.6179
   78MOL0     C10656   7.530  -0.740   4.749  0.9627 -0.0691  0.1189
   78MOL0     O10657   7.539  -0.846   4.842  0.3211  0.2505 -0.2875
   78MOL0     C10658   7.584  -0.972   4.795 -0.3378  0.4967 -0.9691
   78MOL0     C10659   7.493  -1.067   4.749 -0.7460  0.5059 -0.2616
   78MOL0     C10660   7.541  -1.191   4.723 -0.5788 -0.0683  0.4520
   78MOL0     C10661   7.676  -1.223   4.719  0.5749  0.4972  0.0593
   78MOL0     O10662   7.713  -1.350   4.672 -0.2206 -0.4780 -0.1446
   78MOL0     C10663   7.850  -1.371   4.625 -0.6628 -0.5049 -0.3538
   78MOL0     C10664   7.887  -1.511   4.586  0.0567 -0.5826 -0.1688
   78MOL0     C10665   7.796  -1.612   4.654 -0.0434  0.4619 -0.5503
   78MOL0     C10666   7.792  -1.741   4.573  0.2880  1.2002 -0.1449
   78MOL0     C10667   7.785  -1.873   4.640 -0.4274 -0.2848  0.4674
   78MOL0     C10668   7.647  -1.894   4.712 -0.7662 -0.4345  0.8214
   78MOL0     C10669   7.625  -2.043   4.755  0.2253 -0.9852 -0.1060
   78MOL0     C10670   7.696  -2.062   4.893 -0.1783 -0.0573 -0.8350
   78MOL0    Cl10671   7.609  -1.967   5.020 -0.0328 -0.2454 -0.1467
   78MOL0     C10672   7.767  -1.124   4.765  0.0582 -0.6624 -0.3596
   78MOL0     C10673   7.720  -1.004   4.801  0.9556 -0.9441  0.2121
   78MOL0     O10674   7.566  -0.746   4.632 -0.1443 -0.1149 -0.0798
   78MOL0     C10675   7.403  -0.626   4.911 -0.2441  0.2452  0.0291
   78MOL0     C10676   7.332  -0.512   4.961  0.3347  0.1087 -0.0529
   78MOL0     N10677   7.453   0.220   5.203  0.4212  0.4478  0.3461
   78MOL0     N10678   7.490   0.330   5.259  0.0136  0.1976  0.6235
   78MOL0     C10679   7.631   1.290   5.868 -0.1219  0.0521 -0.2823
   78MOL0     C10680   7.680   1.331   5.995 -0.5343  1.4399 -0.8982
   78MOL0     C10681   8.008   1.504   6.305 -1.4876 -0.0076 -0.6517
   78MOL0     C10682   7.912   1.600   6.332  0.0955 -0.0603 -0.8690
   78MOL0     C10683   7.930   1.706   6.415 -0.3775 -0.4866  0.5235
   78MOL0     C10684   8.049   1.707   6.492 -0.1010 -0.2660 -1.6110
   78MOL0     O10685   8.078   1.810   6.577 -0.8034  0.0946  0.0475
   78MOL0     C10686   7.972   1.842   6.675  0.3670 -1.0184  1.0841
   78MOL0     C10687   8.040   1.884   6.807 -0.6811 -0.1920  0.4205
   78MOL0     C10688   8.091   2.029   6.802 -0.5765  0.3879 -0.7956
   78MOL0     C10689   8.134   2.076   6.942 -0.4203  0.3907 -0.5051
   78MOL0     C10690   8.004   2.106   7.005  0.2430  0.1212 -1.4192
   78MOL0     C10691   7.904   2.122   7.065  0.6073  0.2316  0.8015
   78MOL0     C10692   8.147   1.603   6.470 -0.3666 -0.6409 -0.5237
   78MOL0     C10693   8.124   1.499   6.391 -0.0795 -0.8889 -0.2314
   78MOL0     C10694   8.232   1.397   6.383 -0.4648  0.1614  0.1270
   78MOL0     H10695   8.015   1.258   5.946 -0.5371 -1.4722 -0.1463
   78MOL0     H10696   7.922   1.177   5.722 -1.5742  1.3629 -1.4307
   78MOL0     H10697   7.601   1.351   5.574 -0.1757 -0.0774 -0.9809
   78MOL0     H10698   7.487   1.237   5.641 -0.7322  1.6612 -1.2166
   78MOL0     H10699   7.486   1.239   5.403  0.5104  1.2053  0.0475
   78MOL0     H10700   7.656   1.203   5.389  2.2972 -1.8572  1.3727
   78MOL0     H10701   7.622   0.983   5.469  0.4987  1.4298  2.1515
   78MOL0     H10702   7.459   1.027   5.546 -0.1691  2.4588  2.1381
   78MOL0     H10703   7.381   1.033   5.309  0.6021  1.4894  1.9357
   78MOL0     H10704   7.547   1.028   5.252 -0.8812  2.0667  0.3877
   78MOL0     H10705   7.407   0.819   5.411  0.4938  1.1844  0.8799
   78MOL0     H10706   7.577   0.804   5.333  0.1345 -0.1692 -2.8635
   78MOL0     H10707   7.303   0.851   5.200 -0.4182 -1.1155  3.2684
   78MOL0     H10708   7.454   0.832   5.111 -1.0881  0.6129 -1.9223
   78MOL0     H10709   7.316   0.622   5.117 -0.3082 -0.3021 -0.7013
   78MOL0     H10710   7.346   0.609   5.290 -0.8839  0.0336 -0.6696
   78MOL0     H10711   7.556   0.612   5.074 -2.1090 -1.1143 -1.1989
   78MOL0     H10712   7.586   0.585   5.244  0.9889 -0.9491 -0.8907
   78MOL0     H10713   7.402   0.436   4.962  1.8641  2.7033  0.0326
   78MOL0     H10714   7.384   0.116   4.911  1.2422  1.4253  0.8308
   78MOL0     H10715   7.239   0.194   4.953 -0.6275  1.4330  0.2022
   78MOL0     H10716   7.374  -0.052   5.060  1.1095  1.0895  1.2738
   78MOL0     H10717   7.267   0.039   5.173  2.1792  2.9068 -0.0548
   78MOL0     H10718   7.084  -0.095   5.060 -1.5421  4.9298  1.3776
   78MOL0     H10719   7.131   0.026   4.944 -2.2322  0.1002  1.4006
   78MOL0     H10720   7.188  -0.147   4.791  0.7389  0.7622  0.1579
   78MOL0     H10721   7.341  -0.111   4.864  0.0263 -1.1186 -3.3295
   78MOL0     H10722   7.425  -0.277   4.740 -1.1038  1.0134  2.0745
   78MOL0     H10723   7.639  -0.472   4.575 -0.0432  0.6290 -0.7553
   78MOL0     H10724   7.491  -0.373   4.541 -5.4631 -0.9108  3.1922
   78MOL0     H10725   7.501  -0.538   4.500  4.5048  0.9514 -1.9623
   78MOL0     H10726   7.387  -1.045   4.751 -0.9013 -0.1410  2.0255
   78MOL0     H10727   7.477  -1.267   4.680  0.4377 -0.0352 -1.2088
   78MOL0     H10728   7.885  -1.304   4.545 -0.0416 -1.9512 -1.3314
   78MOL0     H10729   7.919  -1.352   4.708 -1.0094 -0.4360 -0.0798
   78MOL0     H10730   7.876  -1.518   4.478 -0.7948  0.0393 -0.1316
   78MOL0     H10731   7.995  -1.515   4.606  0.7044  0.8508 -2.8803
   78MOL0     H10732   7.699  -1.569   4.679  0.1875  1.3858 -1.2099
   78MOL0     H10733   7.831  -1.645   4.753  1.8392  0.1837 -1.2586
   78MOL0     H10734   7.884  -1.752   4.515  2.0140  0.7776  2.4935
   78MOL0     H10735   7.719  -1.729   4.492  1.1241  1.4591 -0.8656
   78MOL0     H10736   7.801  -1.947   4.561 -2.7126 -0.9313  0.5244
   78MOL0     H10737   7.873  -1.891   4.702  0.8238 -0.0338 -1.1668
   78MOL0     H10738   7.559  -1.867   4.652 -0.1066  0.4411  0.2211
   78MOL0     H10739   7.645  -1.828   4.799  2.4134 -1.2089  1.6234
   78MOL0     H10740   7.647  -2.107   4.669 -1.4452 -2.4394  0.4843
   78MOL0     H10741   7.518  -2.065   4.760  0.0412 -0.2154 -0.4482
   78MOL0     H10742   7.798  -2.021   4.899  0.4543 -1.6831  0.1751
   78MOL0     H10743   7.699  -2.169   4.912  0.7950 -0.1245 -1.2733
   78MOL0     H10744   7.873  -1.142   4.755 -0.0595 -4.1781  2.6376
   78MOL0     H10745   7.784  -0.927   4.843  1.7358 -2.1129  1.2537
   78MOL0     H10746   7.406  -0.718   4.968 -0.4488  0.1711 -0.0753
   78MOL0     H10747   7.258  -0.518   5.040 -0.2355  0.7513 -0.5329
   78MOL0     H10748   7.524   1.277   5.856 -0.1724 -0.0513  0.2415
   78MOL0     H10749   7.620   1.361   6.080  0.1881  0.4689 -0.0083
   78MOL0     H10750   7.822   1.608   6.272 -0.1476 -2.1413 -0.8560
   78MOL0     H10751   7.852   1.781   6.405 -0.1296  0.0744  2.3990
   78MOL0     H10752   7.913   1.922   6.631  2.5368 -1.7241 -3.6827
   78MOL0     H10753   7.910   1.753   6.683 -1.6186  0.1624 -0.3143
   78MOL0     H10754   8.122   1.815   6.833 -1.6794 -1.5392  0.0696
   78MOL0     H10755   7.966   1.879   6.887 -0.7490  0.1598  0.3842
   78MOL0     H10756   8.169   2.036   6.726 -0.8042  0.6870 -1.0052
   78MOL0     H10757   8.003   2.080   6.761  0.7913  2.7884 -0.9022
   78MOL0     H10758   8.204   2.160   6.934  2.7596 -1.7589  1.6965
   78MOL0     H10759   8.199   2.005   6.995  0.8228  2.6024  1.1015
   78MOL0     H10760   7.814   2.127   7.124  1.7092 -0.1869  2.6130
   78MOL0     H10761   8.229   1.614   6.539 -1.0506  0.6301  0.1135
   78MOL0     H10762   8.281   1.406   6.286  0.9668  3.8153  1.0258
   78MOL0     H10763   8.312   1.417   6.455 -2.3882 -1.7844  3.0487
   78MOL0     H10764   8.187   1.300   6.407 -1.6926  0.5274 -0.6082
   79MOL0     O10765   4.119  10.839   2.213 -0.5525  0.6862 -0.4367
   79MOL0     C10766   4.196  10.755   2.166 -0.1057  0.1511  0.3132
   79MOL0     O10767   4.338  10.760   2.174  0.0210 -0.1920 -0.5521
   79MOL0     C10768   4.384  10.883   2.212  0.7076  0.2178 -0.5483
   79MOL0     C10769   4.446  10.964   2.127 -0.7076 -0.9089 -0.1797
   79MOL0     C10770   4.485  11.091   2.165 -1.4985 -0.6012  0.5899
   79MOL0     C10771   4.473  11.138   2.299  0.0285  0.7416  0.2291
   79MOL0     O10772   4.516  11.265   2.323  0.3506  1.3074 -0.2579
   79MOL0     C10773   4.630  11.330   2.257  0.6763  0.3722  0.5702
   79MOL0     C10774   4.717  11.390   2.369  0.1911 -0.8584  0.4084
   79MOL0     C10775   4.828  11.481   2.317 -0.5100 -0.6877  0.8622
   79MOL0     C10776   4.928  11.513   2.437 -0.8342 -0.0203  0.1373
   79MOL0     C10777   5.036  11.613   2.396 -0.0289 -0.0332  0.5241
   79MOL0     C10778   5.118  11.663   2.521  0.4363  1.2827 -0.0413
   79MOL0     C10779   5.192  11.543   2.592  0.0574  0.5620  0.4710
   79MOL0     C10780   5.286  11.578   2.705 -0.3239 -0.5859  0.5098
   79MOL0     N10781   5.409  11.657   2.667  0.7723  0.8941 -0.5684
   79MOL0     C10782   5.484  11.625   2.559  0.5528 -0.0819  0.7051
   79MOL0     C10783   5.591  11.701   2.578 -0.5382 -0.7486 -0.3602
   79MOL0     C10784   5.716  11.690   2.492 -0.2882 -0.4833  0.1713
   79MOL0     C10785   5.793  11.556   2.514  0.2154  0.1875 -0.5974
   79MOL0     C10786   5.718  11.429   2.490  0.5235 -0.0272 -0.4519
   79MOL0     C10787   5.682  11.411   2.341 -0.3430  0.1854 -0.0071
   79MOL0     O10788   5.555  11.463   2.304 -0.1531 -0.1656  0.3433
   79MOL0     C10789   5.530  11.467   2.169 -0.8037  0.1748 -0.0043
   79MOL0     C10790   5.406  11.522   2.136  0.2606  0.5274  0.1225
   79MOL0     C10791   5.368  11.525   2.000  0.0906 -0.9369  0.1551
   79MOL0     C10792   5.235  11.562   1.967  0.0948 -0.1264  0.5971
   79MOL0     C10793   5.453  11.484   1.891  0.3269 -0.8194  0.5315
   79MOL0     C10794   5.427  11.497   1.741  0.2042  0.6449 -0.5408
   79MOL0     O10795   5.322  11.562   1.707 -0.2798 -0.3655 -0.1296
   79MOL0     C10796   5.325  11.607   1.576  0.3660 -0.1289  0.2876
   79MOL0     C10797   5.421  11.700   1.516  0.5718  0.1802 -0.5250
   79MOL0     C10798   5.396  11.741   1.389 -0.0495 -0.1260  0.3123
   79MOL0     C10799   5.284  11.700   1.316  0.0416  0.0487 -0.5582
   79MOL0     O10800   5.259  11.724   1.178 -0.3512  0.0221 -0.3464
   79MOL0     C10801   5.311  11.840   1.126 -0.4750 -0.0984 -0.0250
   79MOL0     C10802   5.227  11.882   1.006 -0.2498 -0.1959 -0.2902
   79MOL0     C10803   5.073  11.877   1.023  0.2990 -0.3662  0.5957
   79MOL0     C10804   4.999  11.930   0.897 -0.0631  1.0802 -0.3934
   79MOL0     C10805   4.854  11.965   0.934 -0.7173  0.2370 -0.2348
   79MOL0     C10806   4.784  12.039   0.812  0.2788 -0.1087  0.0105
   79MOL0     C10807   4.636  12.060   0.839  0.7809  1.1133  0.2726
   79MOL0     C10808   4.553  11.929   0.811 -1.0441  0.3378  0.4241
   79MOL0    Cl10809   4.392  11.926   0.875 -0.0855 -0.2432 -0.2463
   79MOL0     C10810   5.199  11.609   1.378 -0.2936 -0.8548  0.1153
   79MOL0     C10811   5.217  11.558   1.507 -0.8130 -0.6507  0.2520
   79MOL0     O10812   5.503  11.437   1.664 -0.8714  0.8157 -0.0657
   79MOL0     C10813   5.580  11.441   1.930  0.6144 -0.9363  0.7273
   79MOL0     C10814   5.614  11.424   2.061  0.1533 -1.2998 -1.3493
   79MOL0     N10815   5.589  11.766   2.692 -0.1060  0.2634  0.3925
   79MOL0     N10816   5.483  11.727   2.753  0.0149 -0.3330 -0.9130
   79MOL0     C10817   4.415  11.049   2.394  0.3346 -0.8819 -0.0352
   79MOL0     C10818   4.357  10.929   2.343  0.2858 -1.1965 -0.2066
   79MOL0     C10819   4.135  10.638   2.085 -0.0212 -0.2041  1.5738
   79MOL0     C10820   4.219  10.528   2.038 -0.8104 -0.2471  0.8460
   79MOL0     C10821   4.166  10.423   1.963 -0.0689 -0.3923 -0.7286
   79MOL0     C10822   4.040  10.425   1.915 -1.0474  0.1080 -0.8040
   79MOL0     O10823   4.001  10.329   1.827  0.5107  0.4827 -0.2695
   79MOL0     C10824   3.951  10.208   1.899 -0.5889 -0.5286 -0.5130
   79MOL0     C10825   3.807  10.175   1.862 -1.0556 -0.3095 -0.1093
   79MOL0     C10826   3.748  10.056   1.937 -0.7333 -0.2498 -0.0653
   79MOL0     C10827   3.737  10.075   2.082  0.5913 -0.6924  0.5236
   79MOL0     C10828   3.839   9.994   2.139  0.4326  1.1107 -0.8303
   79MOL0     C10829   3.928   9.920   2.185  1.1861  0.0184  0.3990
   79MOL0     C10830   3.957  10.522   1.965 -0.0758  0.5701 -0.0158
   79MOL0     C10831   3.995  10.634   2.052  0.8813 -0.2581 -0.7874
   79MOL0     C10832   3.881  10.730   2.085  0.0562 -0.2746  0.4980
   79MOL0     H10833   4.461  10.939   2.022 -0.1983 -2.0367  0.1514
   79MOL0     H10834   4.538  11.156   2.098  0.4437 -2.1825  0.5048
   79MOL0     H10835   4.589  11.408   2.192 -3.1920 -1.0689  1.0108
   79MOL0     H10836   4.689  11.261   2.196 -0.6351 -1.0153  0.7991
   79MOL0     H10837   4.654  11.457   2.428 -0.4505 -0.3079 -0.8650
   79MOL0     H10838   4.764  11.310   2.427  0.5476 -0.8413  0.1452
   79MOL0     H10839   4.879  11.439   2.229 -0.5312  0.0162  0.5069
   79MOL0     H10840   4.785  11.570   2.271 -1.0041 -0.8413  1.0228
   79MOL0     H10841   4.878  11.561   2.523  1.6950 -2.4418  3.2063
   79MOL0     H10842   4.964  11.419   2.480 -1.4790  0.3496  1.5574
   79MOL0     H10843   5.000  11.694   2.332  1.2766 -0.8595 -1.3328
   79MOL0     H10844   5.112  11.557   2.341 -2.5133 -5.8872  2.2965
   79MOL0     H10845   5.193  11.728   2.475  0.8793  1.2054  0.5709
   79MOL0     H10846   5.058  11.722   2.590 -0.4643  2.9433 -2.1297
   79MOL0     H10847   5.252  11.488   2.519 -1.4552 -2.9913  1.6846
   79MOL0     H10848   5.136  11.455   2.624  2.9224 -0.9144  1.8002
   79MOL0     H10849   5.234  11.634   2.783  1.7505  1.6713  0.4236
   79MOL0     H10850   5.322  11.487   2.753 -1.3055 -1.4553 -0.3655
   79MOL0     H10851   5.461  11.564   2.473 -3.4807  0.2799  1.3300
   79MOL0     H10852   5.774  11.781   2.510 -0.6806  0.5151 -2.9853
   79MOL0     H10853   5.698  11.704   2.385 -0.4946 -2.3032 -0.0746
   79MOL0     H10854   5.874  11.555   2.441  0.4677 -1.2006 -0.3294
   79MOL0     H10855   5.823  11.553   2.619 -1.9969  0.5102  0.0961
   79MOL0     H10856   5.779  11.342   2.516 -2.2378 -1.1884  2.8288
   79MOL0     H10857   5.635  11.408   2.557  1.1643 -0.6249  0.1754
   79MOL0     H10858   5.753  11.470   2.283 -1.1141  2.2440  1.0319
   79MOL0     H10859   5.694  11.306   2.314 -1.4886 -0.0289  0.2500
   79MOL0     H10860   5.336  11.555   2.212 -3.2194 -2.5093 -1.4525
   79MOL0     H10861   5.174  11.491   1.909  0.3771  1.2236 -1.4701
   79MOL0     H10862   5.224  11.660   1.919 -6.3629  0.5365  2.4750
   79MOL0     H10863   5.183  11.584   2.061  1.3797 -0.3228  1.3755
   79MOL0     H10864   5.514  11.728   1.563  2.2306 -1.0442 -2.8839
   79MOL0     H10865   5.461  11.808   1.334 -0.7331 -0.2569 -0.6835
   79MOL0     H10866   5.307  11.930   1.189  2.5107  2.3843 -2.9762
   79MOL0     H10867   5.417  11.823   1.106 -0.6997 -1.6142 -0.0625
   79MOL0     H10868   5.259  11.980   0.970  0.3835  0.1362  1.0821
   79MOL0     H10869   5.263  11.814   0.928  2.6064 -1.6143  2.0423
   79MOL0     H10870   5.044  11.925   1.117 -1.9074 -1.2525  0.4065
   79MOL0     H10871   5.043  11.772   1.024 -0.5378 -0.1428  1.7327
   79MOL0     H10872   5.002  11.842   0.831 -1.6570 -0.5019  1.5122
   79MOL0     H10873   5.040  12.017   0.845  0.4838 -1.0849 -3.9954
   79MOL0     H10874   4.801  11.875   0.967 -1.8463  1.3551  1.1366
   79MOL0     H10875   4.861  12.027   1.024 -1.0914  0.1627 -0.1512
   79MOL0     H10876   4.795  11.980   0.720  0.7169 -1.1274  0.6997
   79MOL0     H10877   4.833  12.135   0.793 -0.1061  0.0461 -0.2079
   79MOL0     H10878   4.601  12.136   0.767 -1.1500  0.6350  0.6347
   79MOL0     H10879   4.624  12.088   0.944  1.0106  2.0139  0.0660
   79MOL0     H10880   4.613  11.844   0.846  0.9226  1.0629 -1.0150
   79MOL0     H10881   4.545  11.906   0.705 -1.3151 -2.6869  0.9921
   79MOL0     H10882   5.121  11.568   1.315  0.7897  0.0883 -1.9400
   79MOL0     H10883   5.163  11.480   1.560 -0.5189 -1.0575 -0.0367
   79MOL0     H10884   5.647  11.409   1.851  0.7471 -2.4814  1.4283
   79MOL0     H10885   5.713  11.383   2.073  1.2051  1.3581 -0.1934
   79MOL0     H10886   4.404  11.081   2.497  0.1882 -3.8264  0.9770
   79MOL0     H10887   4.296  10.871   2.411  1.9337 -3.3914 -0.4787
   79MOL0     H10888   4.324  10.531   2.067 -0.7916 -3.1798  1.3924
   79MOL0     H10889   4.235  10.348   1.926  3.3304  2.0134  0.3160
   79MOL0     H10890   4.025  10.131   1.873 -0.5597 -0.6907  0.0348
   79MOL0     H10891   3.952  10.213   2.009  2.5658 -0.0637 -0.4614
   79MOL0     H10892   3.805  10.157   1.754 -1.4298 -2.4854  0.2162
   79MOL0     H10893   3.753  10.269   1.877  0.7447  1.0274 -1.5058
   79MOL0     H10894   3.654  10.038   1.883 -1.6029 -2.7551  2.0892
   79MOL0     H10895   3.811   9.970   1.917  0.5829 -0.5041  4.1674
   79MOL0     H10896   3.634  10.063   2.117 -0.6121  1.2504 -2.0180
   79MOL0     H10897   3.761  10.178   2.111 -1.3221 -0.3490  1.0506
   79MOL0     H10898   3.988   9.843   2.230 -0.0174 -1.3862 -0.3063
   79MOL0     H10899   3.853  10.516   1.934  1.0289 -2.2720 -4.0171
   79MOL0     H10900   3.930  10.827   2.070 -0.6176  0.0199  0.1863
   79MOL0     H10901   3.804  10.715   2.009  0.4757 -4.2375  0.6713
   79MOL0     H10902   3.839  10.712   2.184  0.7190 -5.9163  0.0480
   80MOL0     O10903  11.046   1.307   3.547 -0.1262 -0.1177  0.3835
   80MOL0     C10904  11.129   1.388   3.590  0.7566 -0.6035 -0.1813
   80MOL0     O10905  11.201   1.371   3.699  0.6904  0.2395  0.2423
   80MOL0     C10906  11.162   1.266   3.779 -0.7340 -0.7366 -0.4791
   80MOL0     C10907  11.264   1.201   3.851 -0.1904  0.0928 -0.4788
   80MOL0     C10908  11.232   1.087   3.921 -0.6412 -0.1348 -0.4122
   80MOL0     C10909  11.098   1.059   3.965  0.3046  0.7242  0.5232
   80MOL0     O10910  11.081   0.966   4.058 -0.8123 -0.2457  0.2702
   80MOL0     C10911  10.949   0.947   4.113  0.1351  0.5782 -0.3809
   80MOL0     C10912  10.930   0.819   4.216 -0.7619 -1.3225  0.8210
   80MOL0     C10913  10.801   0.836   4.298 -0.3843  0.7663  0.4268
   80MOL0     C10914  10.678   0.783   4.219 -0.1511 -0.8153 -0.5370
   80MOL0     C10915  10.569   0.784   4.317  1.0378 -0.1274  0.4986
   80MOL0     C10916  10.584   0.668   4.422 -0.2918 -0.0370  0.2194
   80MOL0     C10917  10.443   0.631   4.462  1.1692  0.2942  0.6828
   80MOL0     C10918  10.455   0.501   4.543  0.2897 -0.5391 -0.4665
   80MOL0     N10919  10.319   0.478   4.599  0.0843 -0.0990  0.0482
   80MOL0     C10920  10.285   0.507   4.730 -0.3652  0.1369  0.3613
   80MOL0     C10921  10.190   0.416   4.761  0.1059  0.4034 -0.2011
   80MOL0     C10922  10.121   0.410   4.901 -0.4404  0.2291  0.2456
   80MOL0     C10923  10.182   0.512   5.005 -0.0152 -0.4598  0.7298
   80MOL0     C10924  10.130   0.483   5.144 -0.4457  0.3059 -0.2582
   80MOL0     C10925  10.209   0.374   5.217  0.0777 -0.4599  0.0773
   80MOL0     O10926  10.121   0.325   5.329 -1.2342  0.2333  0.2570
   80MOL0     C10927  10.180   0.225   5.404  0.5529 -0.6619  0.0337
   80MOL0     C10928  10.289   0.238   5.483 -0.5439  0.1184  0.1838
   80MOL0     C10929  10.348   0.132   5.538 -0.0648  0.3715 -0.3073
   80MOL0     C10930  10.473   0.160   5.624  0.1571 -0.6445 -0.3604
   80MOL0     C10931  10.302  -0.004   5.523 -1.6826 -0.5209 -0.3186
   80MOL0     C10932  10.335  -0.123   5.594 -0.0705  0.0620  0.7787
   80MOL0     O10933  10.292  -0.248   5.549  0.8288  0.3564  0.8645
   80MOL0     C10934  10.337  -0.355   5.627  0.3049 -0.3680 -0.3512
   80MOL0     C10935  10.459  -0.417   5.620 -0.0811  0.3083 -0.4553
   80MOL0     C10936  10.501  -0.522   5.698  0.7017 -0.2956  0.1801
   80MOL0     C10937  10.419  -0.575   5.794  0.2909  0.3284  0.0741
   80MOL0     O10938  10.489  -0.655   5.878 -0.0880 -0.1756  0.7476
   80MOL0     C10939  10.410  -0.728   5.973  0.2868  0.3855 -0.2066
   80MOL0     C10940  10.509  -0.808   6.056  0.8210  1.0939  0.8151
   80MOL0     C10941  10.534  -0.945   5.990  0.6870 -0.1070  0.6132
   80MOL0     C10942  10.646  -1.019   6.063 -0.0425  0.5733  0.2740
   80MOL0     C10943  10.650  -1.171   6.071  0.5799 -0.1405  0.1308
   80MOL0     C10944  10.666  -1.238   5.931  0.3541 -0.0303 -0.1769
   80MOL0     C10945  10.784  -1.195   5.847  0.0133 -0.9036 -0.2530
   80MOL0     C10946  10.808  -1.289   5.736  0.3629  0.6408  0.6507
   80MOL0    Cl10947  10.644  -1.323   5.643  0.4885 -0.2681 -0.1558
   80MOL0     C10948  10.295  -0.512   5.812  0.6117  0.1548 -0.7215
   80MOL0     C10949  10.251  -0.404   5.722 -0.6108  0.4190  0.6803
   80MOL0     O10950  10.398  -0.111   5.701 -0.0935  0.0275 -1.1030
   80MOL0     C10951  10.196  -0.018   5.418  0.1561 -0.1489 -0.3679
   80MOL0     C10952  10.133   0.092   5.371  0.1871  0.2095  0.2789
   80MOL0     N10953  10.167   0.332   4.652  0.1799  0.0879 -0.2518
   80MOL0     N10954  10.233   0.378   4.556  0.5165  0.4145  1.1878
   80MOL0     C10955  10.997   1.132   3.901 -0.6322  0.8623  0.1421
   80MOL0     C10956  11.028   1.229   3.810  0.8265  1.0528  0.2993
   80MOL0     C10957  11.156   1.520   3.525  0.1308  0.4465 -0.5992
   80MOL0     C10958  11.281   1.584   3.545  0.8734  0.2674 -0.1654
   80MOL0     C10959  11.313   1.689   3.470  0.4719 -0.3558  0.2615
   80MOL0     C10960  11.226   1.746   3.380  0.6469 -0.2694  0.0028
   80MOL0     O10961  11.272   1.841   3.290 -0.3852  0.2970  0.2784
   80MOL0     C10962  11.177   1.940   3.237  0.4399  0.2877  0.3477
   80MOL0     C10963  11.237   2.083   3.196 -0.8072  0.1549  0.3784
   80MOL0     C10964  11.388   2.053   3.149  0.3105 -0.4111  0.0628
   80MOL0     C10965  11.429   2.168   3.056  0.7865 -0.0992 -0.6908
   80MOL0     C10966  11.576   2.157   3.022  1.9233 -0.5871  0.2523
   80MOL0     C10967  11.693   2.149   3.005 -0.5913 -0.0860  0.3120
   80MOL0     C10968  11.097   1.701   3.378 -0.6946  0.8884 -1.9648
   80MOL0     C10969  11.060   1.584   3.441 -0.8843  0.2143  0.0616
   80MOL0     C10970  10.911   1.542   3.418 -0.3224  0.0135 -0.2935
   80MOL0     H10971  11.368   1.227   3.830 -0.4612  0.7333 -1.0878
   80MOL0     H10972  11.317   1.021   3.936 -0.9313 -0.2203  1.0703
   80MOL0     H10973  10.881   0.919   4.032  1.9801 -0.7010 -1.5589
   80MOL0     H10974  10.927   1.044   4.159  3.2210  1.0601  0.2825
   80MOL0     H10975  10.915   0.722   4.166  0.3702 -1.4587  0.7255
   80MOL0     H10976  11.019   0.811   4.278 -0.7383 -0.0316  0.9850
   80MOL0     H10977  10.825   0.776   4.386 -1.7548 -1.9586 -0.9392
   80MOL0     H10978  10.791   0.941   4.327 -1.4172  1.0196 -0.7725
   80MOL0     H10979  10.646   0.848   4.137 -2.0950 -1.2924 -0.2124
   80MOL0     H10980  10.689   0.680   4.186 -1.9683 -1.5562  0.9223
   80MOL0     H10981  10.476   0.772   4.262 -0.0971  4.0314  1.1273
   80MOL0     H10982  10.555   0.881   4.367 -1.1740 -0.0584 -0.1713
   80MOL0     H10983  10.621   0.586   4.360 -2.1277 -1.2410  0.6324
   80MOL0     H10984  10.656   0.696   4.500 -1.4758  0.4516  1.1680
   80MOL0     H10985  10.376   0.604   4.380  1.6689  3.6893 -1.0402
   80MOL0     H10986  10.400   0.706   4.528 -1.7445 -1.5100  1.0134
   80MOL0     H10987  10.488   0.414   4.487  1.7348 -0.4080  0.1395
   80MOL0     H10988  10.531   0.522   4.619  0.1562 -2.0071  0.0990
   80MOL0     H10989  10.331   0.588   4.785 -3.2765  1.8905  0.4380
   80MOL0     H10990  10.133   0.306   4.930 -1.7727  0.1033  0.4119
   80MOL0     H10991  10.016   0.440   4.895  0.3058  2.9603 -0.5644
   80MOL0     H10992  10.291   0.520   5.006  0.1740 -2.4335  1.7203
   80MOL0     H10993  10.156   0.613   4.971 -4.2903 -1.4149  0.6393
   80MOL0     H10994  10.131   0.581   5.191 -2.6681  0.5608 -0.6340
   80MOL0     H10995  10.028   0.446   5.130 -0.1142 -0.1726 -1.5681
   80MOL0     H10996  10.241   0.296   5.146  0.0970  0.3161 -0.7872
   80MOL0     H10997  10.299   0.414   5.265 -0.6864 -0.0817  1.2397
   80MOL0     H10998  10.320   0.338   5.512  0.2550  0.2937 -1.1824
   80MOL0     H10999  10.504   0.265   5.625 -3.2280  0.5004 -1.6123
   80MOL0     H11000  10.559   0.103   5.589  4.3466  3.4272  2.2135
   80MOL0     H11001  10.444   0.121   5.722  1.6014  0.2478  0.4572
   80MOL0     H11002  10.532  -0.382   5.548  4.3737 -3.0228  1.9610
   80MOL0     H11003  10.602  -0.561   5.694  0.1185 -1.7572 -2.0013
   80MOL0     H11004  10.351  -0.663   6.039 -0.5327 -0.0587 -0.4817
   80MOL0     H11005  10.333  -0.787   5.923  0.0455  0.3550  0.1972
   80MOL0     H11006  10.606  -0.756   6.052 -0.1402  3.0337 -3.9440
   80MOL0     H11007  10.465  -0.821   6.155  1.9105  1.6759  1.4051
   80MOL0     H11008  10.562  -0.937   5.884  0.3661 -0.2332  0.5196
   80MOL0     H11009  10.440  -1.000   5.987  0.3047  0.5466 -1.4515
   80MOL0     H11010  10.638  -0.988   6.168 -3.8117  1.0928 -0.0367
   80MOL0     H11011  10.738  -0.982   6.017 -0.0956  1.0627  0.5533
   80MOL0     H11012  10.731  -1.193   6.140  0.2309 -2.5205 -0.1293
   80MOL0     H11013  10.566  -1.222   6.120  1.9859 -3.1111 -0.2891
   80MOL0     H11014  10.573  -1.218   5.876  1.3367 -1.2663 -2.4200
   80MOL0     H11015  10.677  -1.344   5.954  2.0231 -0.4474 -2.5944
   80MOL0     H11016  10.872  -1.178   5.910 -0.9484 -0.1304  0.9208
   80MOL0     H11017  10.754  -1.105   5.793  0.1883 -1.6125 -1.5712
   80MOL0     H11018  10.841  -1.391   5.760  2.3382  0.6039 -1.8013
   80MOL0     H11019  10.882  -1.248   5.666  2.6760 -2.2505  1.1992
   80MOL0     H11020  10.227  -0.539   5.892 -0.4634  5.0090  0.3033
   80MOL0     H11021  10.159  -0.353   5.749 -0.1607  0.3252  2.5525
   80MOL0     H11022  10.140  -0.111   5.417  1.8223 -1.3259  2.5661
   80MOL0     H11023  10.054   0.077   5.299 -2.1550  1.6742  2.4070
   80MOL0     H11024  10.893   1.104   3.915 -0.3551  0.9810  2.9269
   80MOL0     H11025  10.942   1.281   3.770  1.3327  1.7510  0.0944
   80MOL0     H11026  11.346   1.541   3.621 -1.6500 -4.4537 -0.2666
   80MOL0     H11027  11.407   1.737   3.495  0.2677 -0.3579  1.0681
   80MOL0     H11028  11.137   1.889   3.149  5.7441 -3.2619 -0.4304
   80MOL0     H11029  11.091   1.952   3.304 -0.8633  0.2826 -1.2434
   80MOL0     H11030  11.249   2.143   3.287  1.1837  0.2449  0.1095
   80MOL0     H11031  11.182   2.122   3.110  0.3511 -1.1226 -1.0004
   80MOL0     H11032  11.460   2.037   3.229  1.2272  0.0301 -0.6550
   80MOL0     H11033  11.397   1.966   3.084  2.5076  0.1042 -0.4143
   80MOL0     H11034  11.428   2.264   3.108  0.1820 -0.2943 -0.3371
   80MOL0     H11035  11.356   2.169   2.975 -0.4784 -0.5863  0.4048
   80MOL0     H11036  11.796   2.125   2.990 -0.0021  2.1035  0.5567
   80MOL0     H11037  11.026   1.756   3.318  0.9299  0.3712 -4.4990
   80MOL0     H11038  10.861   1.544   3.515 -2.8919  2.7286 -1.5241
   80MOL0     H11039  10.857   1.611   3.353 -0.9318  1.8834  2.0762
   80MOL0     H11040  10.908   1.441   3.376 -0.9971 -1.3883  2.8366
   81MOL0     O11041   5.611   5.971   9.298  0.1893 -0.2080 -0.3212
   81MOL0     C11042   5.589   5.869   9.232  0.2763 -0.4423  0.4993
   81MOL0     O11043   5.496   5.875   9.119  0.2856  0.0147  0.0274
   81MOL0     C11044   5.458   6.006   9.087 -0.0787  0.6640  0.0667
   81MOL0     C11045   5.329   6.052   9.125  0.1680  0.9092 -0.8647
   81MOL0     C11046   5.284   6.177   9.097  0.5637 -0.1670 -0.0549
   81MOL0     C11047   5.368   6.268   9.031  0.4741 -0.1553 -0.8586
   81MOL0     O11048   5.331   6.401   9.028  0.7249  0.4435  0.3009
   81MOL0     C11049   5.217   6.435   8.950 -0.2846 -0.0802 -0.0530
   81MOL0     C11050   5.199   6.590   8.979 -0.9652  0.3113 -0.1114
   81MOL0     C11051   5.301   6.673   8.902  0.1086 -0.2955 -0.6498
   81MOL0     C11052   5.418   6.710   8.990 -0.0478 -0.9093  0.3853
   81MOL0     C11053   5.519   6.791   8.911  0.5988 -0.2611 -0.0599
   81MOL0     C11054   5.579   6.697   8.802  1.2667  0.2875 -0.8103
   81MOL0     C11055   5.693   6.760   8.739 -0.1656  1.0122  0.8142
   81MOL0     C11056   5.641   6.855   8.632  0.3941 -0.1438  0.7596
   81MOL0     N11057   5.750   6.932   8.578 -0.8189 -0.0339  0.4328
   81MOL0     C11058   5.855   6.895   8.506  0.8058  0.2450  0.1593
   81MOL0     C11059   5.917   7.008   8.469 -0.2674 -0.0157  0.8317
   81MOL0     C11060   6.058   7.013   8.400  0.0996  0.7369 -0.7052
   81MOL0     C11061   6.069   7.099   8.275 -0.0861 -0.1600 -1.2524
   81MOL0     C11062   5.981   7.038   8.162 -0.3810 -0.8590  0.3582
   81MOL0     C11063   6.012   7.097   8.022  0.0019 -0.3401 -0.1737
   81MOL0     O11064   6.126   7.024   7.960  0.1409 -0.0682 -0.7126
   81MOL0     C11065   6.172   7.091   7.849 -0.2538 -0.6519 -0.6829
   81MOL0     C11066   6.143   7.046   7.719  0.7946 -0.3609 -0.5751
   81MOL0     C11067   6.194   7.099   7.604  0.0318  0.1045  0.0803
   81MOL0     C11068   6.144   7.022   7.479 -0.0211  0.1310 -0.3092
   81MOL0     C11069   6.278   7.206   7.618  0.3168  0.1324 -0.5674
   81MOL0     C11070   6.340   7.265   7.503  0.3728 -0.0672  0.5330
   81MOL0     O11071   6.372   7.400   7.517  0.2436  0.0148 -0.5777
   81MOL0     C11072   6.460   7.455   7.422  0.8117 -0.6957  0.5257
   81MOL0     C11073   6.579   7.396   7.380 -0.5332 -0.2060 -0.1771
   81MOL0     C11074   6.667   7.458   7.290  0.2316 -0.1695 -0.3626
   81MOL0     C11075   6.623   7.582   7.222  0.1897  0.8694 -0.0083
   81MOL0     O11076   6.689   7.641   7.122 -0.1351 -0.5338  0.1293
   81MOL0     C11077   6.758   7.542   7.047 -0.2862 -0.0209 -0.8257
   81MOL0     C11078   6.766   7.590   6.902 -0.3908  0.6704 -0.7858
   81MOL0     C11079   6.849   7.489   6.820  0.6089  0.2049  1.1735
   81MOL0     C11080   6.834   7.520   6.670 -0.1605 -0.1440  0.1558
   81MOL0     C11081   6.892   7.426   6.573 -0.4254 -0.0543  0.9053
   81MOL0     C11082   7.037   7.369   6.608  0.8547  0.6472  0.1594
   81MOL0     C11083   7.044   7.248   6.695 -0.7887  0.5263 -0.0322
   81MOL0     C11084   7.186   7.226   6.731  0.4898  0.5710 -0.7590
   81MOL0    Cl11085   7.233   7.340   6.852 -0.2306  0.2840 -0.1542
   81MOL0     C11086   6.519   7.655   7.282 -0.2187 -0.4695  0.3546
   81MOL0     C11087   6.443   7.593   7.379  0.4821  0.7540 -0.1324
   81MOL0     O11088   6.382   7.190   7.406 -0.1404  0.1020 -0.2934
   81MOL0     C11089   6.308   7.252   7.751 -0.5377 -0.1925 -0.1512
   81MOL0     C11090   6.268   7.189   7.864 -0.0673  0.6915 -1.0168
   81MOL0     N11091   5.852   7.117   8.513  0.6567 -0.6203 -0.0152
   81MOL0     N11092   5.747   7.070   8.576 -0.5610  0.0515  0.1833
   81MOL0     C11093   5.484   6.221   8.969  0.3331  0.4173  0.2669
   81MOL0     C11094   5.533   6.084   9.003 -0.1757 -0.0283  0.0566
   81MOL0     C11095   5.643   5.745   9.278 -1.2920  0.3771 -0.7357
   81MOL0     C11096   5.768   5.749   9.347  0.0940  0.0537  0.5970
   81MOL0     C11097   5.832   5.632   9.378 -0.1076 -0.3199  0.2612
   81MOL0     C11098   5.774   5.504   9.357  0.3148 -0.1864  0.4133
   81MOL0     O11099   5.829   5.385   9.403  0.6714  0.0347  0.0253
   81MOL0     C11100   5.971   5.380   9.399  0.0593  0.1201  0.0034
   81MOL0     C11101   6.018   5.238   9.406  0.0547 -0.1016  0.2148
   81MOL0     C11102   5.961   5.155   9.281  0.2306 -1.1126 -0.3231
   81MOL0     C11103   6.054   5.046   9.245 -0.9003 -0.2239 -0.0667
   81MOL0     C11104   6.115   4.960   9.349 -1.1735 -0.3494  1.0193
   81MOL0     C11105   6.170   4.880   9.427 -0.1334  0.4770  0.0646
   81MOL0     C11106   5.644   5.498   9.299 -0.6123  0.5428 -0.2491
   81MOL0     C11107   5.580   5.618   9.262  0.4786  0.0219  0.7159
   81MOL0     C11108   5.452   5.587   9.174  0.2143 -0.6810  0.2171
   81MOL0     H11109   5.265   5.978   9.172 -2.7820  4.0538  0.5001
   81MOL0     H11110   5.200   6.221   9.148  0.1025 -0.6946 -0.3466
   81MOL0     H11111   5.124   6.385   8.977 -1.0590  1.1719 -0.3453
   81MOL0     H11112   5.219   6.408   8.844 -0.5719 -2.5089  0.4876
   81MOL0     H11113   5.097   6.604   8.942 -1.0993  1.1479  0.5582
   81MOL0     H11114   5.195   6.614   9.085 -2.3677  1.0489 -0.3108
   81MOL0     H11115   5.321   6.614   8.812  2.7537  1.4706 -1.3459
   81MOL0     H11116   5.253   6.768   8.879  0.7769  0.4826  1.0554
   81MOL0     H11117   5.382   6.777   9.069  0.6898  1.3122 -1.0726
   81MOL0     H11118   5.461   6.624   9.041 -1.5006 -0.8207  1.8736
   81MOL0     H11119   5.596   6.820   8.983 -0.0340 -1.4431  1.1382
   81MOL0     H11120   5.481   6.882   8.865 -0.3372  0.5845  2.2349
   81MOL0     H11121   5.623   6.613   8.857  3.0391  0.5144 -1.7965
   81MOL0     H11122   5.501   6.668   8.731 -0.1309  0.8800  0.4325
   81MOL0     H11123   5.745   6.680   8.685 -2.7756 -0.3571  0.1733
   81MOL0     H11124   5.765   6.799   8.811  1.2224  0.1344 -0.0543
   81MOL0     H11125   5.595   6.800   8.550  0.4231 -1.3502  1.5365
   81MOL0     H11126   5.575   6.937   8.662  0.1679 -0.5140  1.2851
   81MOL0     H11127   5.902   6.799   8.486  2.7445  0.6720  2.2570
   81MOL0     H11128   6.084   6.910   8.371 -1.9367 -0.0573  0.1022
   81MOL0     H11129   6.139   7.049   8.464  0.0751  1.8307 -1.2684
   81MOL0     H11130   6.052   7.203   8.304 -2.1260  0.3797 -3.9527
   81MOL0     H11131   6.170   7.107   8.236 -0.1896 -0.3057 -1.5528
   81MOL0     H11132   6.002   6.931   8.153  3.6035 -0.1053 -0.9159
   81MOL0     H11133   5.876   7.065   8.178 -0.7740 -3.5507  3.3751
   81MOL0     H11134   5.924   7.086   7.959  1.8605 -0.2730 -2.9656
   81MOL0     H11135   6.033   7.204   8.034 -2.0368  0.1614 -0.6537
   81MOL0     H11136   6.076   6.961   7.730  1.3111 -0.7543 -0.4346
   81MOL0     H11137   6.200   6.931   7.456  0.8665  0.6073 -0.0480
   81MOL0     H11138   6.129   7.082   7.388  1.2928  0.8558 -0.0763
   81MOL0     H11139   6.047   6.982   7.511 -1.1809  0.7388 -2.7749
   81MOL0     H11140   6.602   7.303   7.430 -1.6240  0.2456  1.2304
   81MOL0     H11141   6.756   7.402   7.263  1.3902  2.3149 -2.1994
   81MOL0     H11142   6.857   7.516   7.084  0.4270 -2.7636 -4.1737
   81MOL0     H11143   6.719   7.440   7.052  1.2655 -0.6114 -0.1623
   81MOL0     H11144   6.666   7.599   6.860 -1.3203 -0.4152  1.0449
   81MOL0     H11145   6.810   7.690   6.892 -0.4552  0.5929 -1.9162
   81MOL0     H11146   6.810   7.390   6.845  6.5334 -2.4613  1.4049
   81MOL0     H11147   6.949   7.503   6.861  1.2810 -2.5678  0.6413
   81MOL0     H11148   6.883   7.614   6.642 -3.5001  1.5141 -0.7016
   81MOL0     H11149   6.727   7.532   6.653  0.0567  0.5669 -0.7902
   81MOL0     H11150   6.824   7.340   6.569 -0.8847  0.3379 -2.2405
   81MOL0     H11151   6.890   7.476   6.475 -1.6433 -0.0593  0.9162
   81MOL0     H11152   7.085   7.451   6.663 -0.7569 -0.5872  3.7046
   81MOL0     H11153   7.084   7.331   6.517  1.9554  1.0841  0.5295
   81MOL0     H11154   7.006   7.153   6.657 -0.4778 -0.8108  2.7124
   81MOL0     H11155   6.981   7.263   6.784 -1.5218 -2.4083  0.0508
   81MOL0     H11156   7.254   7.225   6.645  1.2267  0.7522 -0.1948
   81MOL0     H11157   7.215   7.137   6.788 -1.6078  1.6048  2.1605
   81MOL0     H11158   6.489   7.753   7.246 -2.7569 -0.3493  2.4892
   81MOL0     H11159   6.355   7.641   7.421  0.3066  0.0816  0.2822
   81MOL0     H11160   6.372   7.340   7.750 -0.0053 -0.5707  0.5570
   81MOL0     H11161   6.310   7.212   7.961 -1.0147 -1.8637  0.0909
   81MOL0     H11162   5.551   6.278   8.906  1.1342  0.6059  1.2470
   81MOL0     H11163   5.631   6.044   8.980 -0.8498 -1.0624 -1.1349
   81MOL0     H11164   5.818   5.844   9.360 -1.3620  1.3476 -2.4078
   81MOL0     H11165   5.920   5.635   9.442  0.0889  0.6080 -0.0387
   81MOL0     H11166   6.001   5.436   9.310 -3.1344  0.9000 -0.7012
   81MOL0     H11167   6.006   5.431   9.489  0.2098 -1.3802  0.8390
   81MOL0     H11168   5.992   5.188   9.500 -1.0454  2.1058  1.1356
   81MOL0     H11169   6.127   5.233   9.407  0.0923  0.7010  0.5417
   81MOL0     H11170   5.866   5.109   9.307 -1.8030  2.0720 -1.5094
   81MOL0     H11171   5.936   5.217   9.195 -0.7156 -1.1692 -0.0922
   81MOL0     H11172   6.137   5.092   9.190 -1.1039  1.8640  1.2630
   81MOL0     H11173   6.005   4.978   9.175 -0.2006 -1.8262  0.9434
   81MOL0     H11174   6.209   4.813   9.501  2.6025 -0.8119 -2.3251
   81MOL0     H11175   5.603   5.400   9.275  0.2109  0.9101 -3.8521
   81MOL0     H11176   5.453   5.641   9.079  1.8868 -1.6644 -0.3621
   81MOL0     H11177   5.439   5.479   9.162 -0.9688 -0.3893 -1.4085
   81MOL0     H11178   5.369   5.611   9.242 -0.1596 -1.3097 -0.0004
   82MOL0     O11179   7.033   1.103  10.301 -0.0132  0.5330  0.7900
   82MOL0     C11180   7.014   1.165  10.193 -0.2387  0.3134 -0.2967
   82MOL0     O11181   7.044   1.117  10.076  0.0397 -0.3881  0.5092
   82MOL0     C11182   7.083   0.985  10.051  0.2491 -0.2567  0.6553
   82MOL0     C11183   7.213   0.938  10.085 -0.2085  0.0365 -0.2255
   82MOL0     C11184   7.253   0.803  10.048 -0.1244  0.2652  0.4738
   82MOL0     C11185   7.164   0.716   9.985 -0.0047 -1.4343  1.0416
   82MOL0     O11186   7.184   0.591   9.948 -0.0182  0.1229  0.4646
   82MOL0     C11187   7.315   0.559   9.883 -0.4184 -0.1796 -0.2864
   82MOL0     C11188   7.325   0.589   9.731 -0.6028  0.0687 -0.0065
   82MOL0     C11189   7.208   0.568   9.649  0.3124  0.2194  0.2893
   82MOL0     C11190   7.243   0.605   9.506  1.7311 -0.0271 -0.0497
   82MOL0     C11191   7.127   0.603   9.402 -0.0097  0.0775 -0.5054
   82MOL0     C11192   7.107   0.464   9.330  1.3362 -0.1060  0.4008
   82MOL0     C11193   7.031   0.480   9.199  0.3287  0.1884 -1.0618
   82MOL0     C11194   6.930   0.360   9.174 -0.4713 -0.5041 -1.3668
   82MOL0     N11195   7.012   0.232   9.156  0.2270 -0.1879  1.2000
   82MOL0     C11196   7.023   0.137   9.258  0.6563  0.4623  0.5252
   82MOL0     C11197   7.085   0.031   9.194  0.0484 -0.1847  0.0920
   82MOL0     C11198   7.142  -0.098   9.252 -0.0526  0.6640 -0.1207
   82MOL0     C11199   7.045  -0.212   9.249 -0.0058 -0.0952  0.0144
   82MOL0     C11200   7.112  -0.338   9.302  0.6410  0.5091 -0.0345
   82MOL0     C11201   7.136  -0.322   9.453  0.2206 -0.3194  0.7824
   82MOL0     O11202   7.165  -0.438   9.518  1.1751 -0.0465 -0.7722
   82MOL0     C11203   7.203  -0.453   9.656 -0.0910 -0.4914 -0.5645
   82MOL0     C11204   7.255  -0.568   9.703  0.1354 -0.3297  0.4284
   82MOL0     C11205   7.282  -0.599   9.835 -0.8870  0.0106  0.0303
   82MOL0     C11206   7.356  -0.726   9.860 -0.3219  1.5921  0.7281
   82MOL0     C11207   7.257  -0.508   9.937 -0.4643 -0.3701  0.4199
   82MOL0     C11208   7.283  -0.531  10.080 -0.4969  0.1175  0.4398
   82MOL0     O11209   7.272  -0.415  10.157  1.1273  0.1804  0.3320
   82MOL0     C11210   7.243  -0.432  10.291  0.5070  0.8700  0.0185
   82MOL0     C11211   7.325  -0.368  10.382 -0.9152 -0.1758  0.3585
   82MOL0     C11212   7.323  -0.383  10.520 -0.9606 -0.1617 -0.8865
   82MOL0     C11213   7.235  -0.484  10.571  0.1578  0.4147  0.7490
   82MOL0     O11214   7.236  -0.526  10.702 -0.2574 -0.0393  0.6199
   82MOL0     C11215   7.326  -0.472  10.793 -0.4878  0.4389  0.1831
   82MOL0     C11216   7.288  -0.536  10.918  1.0010 -0.2001  0.1453
   82MOL0     C11217   7.389  -0.525  11.030 -0.7441  0.4530 -0.0155
   82MOL0     C11218   7.524  -0.604  11.004  1.1316  0.2901  0.4741
   82MOL0     C11219   7.627  -0.616  11.111 -0.7804 -0.0872  0.0423
   82MOL0     C11220   7.576  -0.704  11.229 -0.0858 -0.5278 -0.6345
   82MOL0     C11221   7.580  -0.856  11.185  0.5285  0.0861  0.7492
   82MOL0     C11222   7.556  -0.950  11.303 -0.6882 -0.2039  0.4417
   82MOL0    Cl11223   7.415  -0.923  11.412 -0.3866 -0.1308 -0.3078
   82MOL0     C11224   7.137  -0.534  10.484 -0.3344  0.6330 -0.4560
   82MOL0     C11225   7.143  -0.507  10.347 -0.2572 -0.6616  0.6644
   82MOL0     O11226   7.300  -0.647  10.125 -0.8313  0.2602  0.1723
   82MOL0     C11227   7.199  -0.387   9.897  0.3501 -0.0376  0.4317
   82MOL0     C11228   7.166  -0.361   9.758 -0.0574  0.2409  0.0330
   82MOL0     N11229   7.111   0.070   9.065  0.0178 -0.3637 -0.3338
   82MOL0     N11230   7.070   0.188   9.041 -0.5161  0.8970 -0.0560
   82MOL0     C11231   7.039   0.756   9.953  0.4061  0.2563  1.0350
   82MOL0     C11232   6.993   0.886   9.979 -0.1177  0.5073 -0.4473
   82MOL0     C11233   6.977   1.306  10.197 -0.3573  0.5046 -0.4043
   82MOL0     C11234   6.999   1.386  10.079 -0.3782  0.3756  0.8175
   82MOL0     C11235   6.966   1.518  10.067  0.6116 -0.7796 -1.1823
   82MOL0     C11236   6.896   1.579  10.177 -0.3082 -1.3005  0.1494
   82MOL0     O11237   6.859   1.715  10.178 -0.0432  0.0669  0.8377
   82MOL0     C11238   6.825   1.765  10.047 -0.5488  0.3544  0.3020
   82MOL0     C11239   6.751   1.892  10.044 -0.3611  0.2859 -0.0206
   82MOL0     C11240   6.634   1.897  10.146 -0.3093 -0.4416  1.3480
   82MOL0     C11241   6.583   2.040  10.170  1.4376  0.4085 -0.1648
   82MOL0     C11242   6.670   2.117  10.265  0.1010 -0.0983 -0.3079
   82MOL0     C11243   6.738   2.190  10.341 -0.5742  0.5916  0.5066
   82MOL0     C11244   6.877   1.511  10.295 -0.2724  0.2620  0.0317
   82MOL0     C11245   6.917   1.376  10.308  0.2218 -0.6947 -0.1126
   82MOL0     C11246   6.891   1.310  10.435 -0.5401  0.3131 -0.1979
   82MOL0     H11247   7.272   1.013  10.138 -0.7993  1.8711 -2.0657
   82MOL0     H11248   7.345   0.773  10.098 -0.2420  3.5891  2.9931
   82MOL0     H11249   7.320   0.451   9.901 -0.1907 -0.0510  0.4688
   82MOL0     H11250   7.398   0.603   9.940 -0.9114  0.6734 -0.2084
   82MOL0     H11251   7.380   0.682   9.716  1.3192 -0.4075  3.2266
   82MOL0     H11252   7.393   0.511   9.696 -0.6216  1.1240 -2.6793
   82MOL0     H11253   7.183   0.462   9.645 -2.2163  0.7644  0.6025
   82MOL0     H11254   7.130   0.631   9.693  2.0013  2.5776  0.1319
   82MOL0     H11255   7.283   0.707   9.503 -0.0159  0.7180  0.6759
   82MOL0     H11256   7.322   0.542   9.464 -0.1738 -2.3399 -0.3646
   82MOL0     H11257   7.166   0.679   9.334 -1.8232  1.2344 -0.3060
   82MOL0     H11258   7.042   0.653   9.448  0.7923  1.7538 -0.7812
   82MOL0     H11259   7.207   0.421   9.318  1.3406 -1.4312  4.0024
   82MOL0     H11260   7.046   0.392   9.385 -1.2540  0.2193 -1.8052
   82MOL0     H11261   7.107   0.484   9.120 -0.3092 -1.5530 -1.8078
   82MOL0     H11262   6.978   0.576   9.207 -1.0832 -0.7305  2.4896
   82MOL0     H11263   6.855   0.367   9.253  0.7062  0.2270 -0.2872
   82MOL0     H11264   6.888   0.375   9.074  0.2088 -0.7414 -1.6952
   82MOL0     H11265   7.003   0.145   9.364  3.7277  0.1117  1.2192
   82MOL0     H11266   7.166  -0.070   9.355 -0.1463 -1.8125  0.6399
   82MOL0     H11267   7.241  -0.120   9.210  0.0144  0.3852  0.1744
   82MOL0     H11268   6.949  -0.173   9.285  1.0320  2.2073  0.4752
   82MOL0     H11269   7.017  -0.234   9.145 -2.6975 -1.9305  1.0162
   82MOL0     H11270   7.044  -0.419   9.275 -1.2435  1.6652  1.0456
   82MOL0     H11271   7.203  -0.365   9.247  0.6094  0.7166 -0.1908
   82MOL0     H11272   7.218  -0.250   9.457  0.8341 -0.9840  0.4388
   82MOL0     H11273   7.044  -0.273   9.486  0.2856  1.4107 -1.3346
   82MOL0     H11274   7.287  -0.639   9.627  1.5431  0.6462  0.0626
   82MOL0     H11275   7.410  -0.759   9.770 -1.2827  3.1289 -0.4733
   82MOL0     H11276   7.294  -0.806   9.900 -0.4921 -0.9681 -3.9274
   82MOL0     H11277   7.436  -0.716   9.934  2.6379  0.4836 -2.0438
   82MOL0     H11278   7.393  -0.296  10.337 -2.4066  1.6241  0.8793
   82MOL0     H11279   7.398  -0.325  10.571  1.4471 -2.7708 -1.2225
   82MOL0     H11280   7.423  -0.510  10.759 -0.4036 -2.2266  2.9961
   82MOL0     H11281   7.326  -0.363  10.802 -0.1727  0.4562 -0.0166
   82MOL0     H11282   7.194  -0.497  10.957  0.4125 -1.3325 -0.0829
   82MOL0     H11283   7.281  -0.645  10.910  1.5029 -0.3404  1.4237
   82MOL0     H11284   7.352  -0.562  11.126  1.0352 -1.7483 -0.0828
   82MOL0     H11285   7.413  -0.420  11.049  0.0951 -0.0011  1.6512
   82MOL0     H11286   7.575  -0.558  10.919 -2.7843  2.1611 -1.1486
   82MOL0     H11287   7.492  -0.705  10.975 -3.3251  0.5029  3.6621
   82MOL0     H11288   7.718  -0.656  11.064  0.2695  2.8144 -0.6206
   82MOL0     H11289   7.641  -0.511  11.137 -0.0609  0.0222 -0.7336
   82MOL0     H11290   7.478  -0.669  11.261  1.1192  0.9273  1.7707
   82MOL0     H11291   7.654  -0.698  11.306  0.2422  0.5126 -1.0287
   82MOL0     H11292   7.671  -0.886  11.132  1.6963 -1.9635  3.6059
   82MOL0     H11293   7.497  -0.868  11.116  0.7125 -1.8112  0.8111
   82MOL0     H11294   7.646  -0.951  11.364  0.6309 -2.7065 -1.3682
   82MOL0     H11295   7.539  -1.049  11.261  0.2140 -0.2040  0.0439
   82MOL0     H11296   7.059  -0.583  10.543  0.5157  2.1644  2.1302
   82MOL0     H11297   7.064  -0.543  10.282  1.0329 -2.0903 -0.1859
   82MOL0     H11298   7.184  -0.311   9.973  1.8525  2.0036 -1.1901
   82MOL0     H11299   7.115  -0.269   9.732  0.7077 -0.0680 -2.9334
   82MOL0     H11300   6.975   0.683   9.903 -0.1854  0.5962  1.2792
   82MOL0     H11301   6.895   0.920   9.948 -1.0775 -1.8082 -0.1540
   82MOL0     H11302   7.035   1.325   9.997 -0.7688 -1.7637  2.1617
   82MOL0     H11303   6.979   1.576   9.975  0.4920  2.5457  0.7289
   82MOL0     H11304   6.917   1.805  10.002  0.2216  0.4708  1.9290
   82MOL0     H11305   6.776   1.697   9.977  0.5904 -1.0034  0.7753
   82MOL0     H11306   6.709   1.902   9.944  0.5972 -0.4891 -0.5153
   82MOL0     H11307   6.826   1.969  10.063  1.0511 -1.3859  1.5555
   82MOL0     H11308   6.559   1.826  10.109 -0.2162  0.0343  0.2160
   82MOL0     H11309   6.679   1.855  10.237  1.6978 -3.6537 -0.8765
   82MOL0     H11310   6.481   2.032  10.209  0.6504 -1.7017 -2.4099
   82MOL0     H11311   6.565   2.098  10.079  1.1287  3.7134  1.8248
   82MOL0     H11312   6.797   2.248  10.409  2.1564 -1.6034  0.1609
   82MOL0     H11313   6.837   1.560  10.383  1.2007  0.0299  0.8533
   82MOL0     H11314   6.799   1.253  10.421 -1.3323  1.3024  0.8026
   82MOL0     H11315   6.970   1.246  10.475 -3.9004 -3.1026  1.6678
   82MOL0     H11316   6.869   1.380  10.516 -1.2226  1.6906 -1.5071
   83MOL0     O11317   9.403   2.649   2.902  0.3747  0.1054  0.3562
   83MOL0     C11318   9.406   2.562   2.816 -0.6079  0.1648 -0.3988
   83MOL0     O11319   9.313   2.465   2.801 -0.1350 -0.5866 -0.3338
   83MOL0     C11320   9.198   2.480   2.873 -0.6936  0.7200 -0.3886
   83MOL0     C11321   9.094   2.567   2.825  0.3252  0.5013  0.8602
   83MOL0     C11322   8.977   2.580   2.909  0.0134  0.1813 -0.1043
   83MOL0     C11323   8.964   2.499   3.023  0.5850 -0.1026 -0.2624
   83MOL0     O11324   8.851   2.486   3.106 -0.0803  0.8426  0.1232
   83MOL0     C11325   8.733   2.543   3.061 -0.0961  0.5782  0.7644
   83MOL0     C11326   8.608   2.485   3.141 -0.3361  0.1804 -1.1611
   83MOL0     C11327   8.627   2.516   3.296  0.1773  0.2521  0.4695
   83MOL0     C11328   8.493   2.513   3.383 -0.2347  0.1688  0.5349
   83MOL0     C11329   8.530   2.522   3.532  0.4620  0.0292  0.1478
   83MOL0     C11330   8.571   2.379   3.588 -0.5398  0.0947  0.3654
   83MOL0     C11331   8.626   2.381   3.730  0.1447 -0.6823 -0.4402
   83MOL0     C11332   8.688   2.251   3.777  0.3223 -0.6768  0.7394
   83MOL0     N11333   8.620   2.133   3.741  0.0830  0.2767  0.5729
   83MOL0     C11334   8.502   2.086   3.796 -0.0618  1.1928 -0.0621
   83MOL0     C11335   8.504   1.954   3.743 -0.1310 -0.3486 -0.0954
   83MOL0     C11336   8.417   1.836   3.783  0.0402 -0.2149  0.9991
   83MOL0     C11337   8.345   1.758   3.670 -0.0144 -0.0533 -0.0667
   83MOL0     C11338   8.263   1.640   3.730  0.0705 -0.1049  0.2910
   83MOL0     C11339   8.180   1.581   3.610  1.1751  0.1424 -1.0505
   83MOL0     O11340   8.148   1.446   3.666 -0.6563  0.3025  0.5112
   83MOL0     C11341   8.067   1.360   3.594  0.2012  0.3250 -0.1054
   83MOL0     C11342   8.046   1.378   3.455 -0.0804 -0.4222 -0.4488
   83MOL0     C11343   7.958   1.292   3.386 -0.1826 -0.1673  0.1344
   83MOL0     C11344   7.953   1.312   3.232 -0.2899 -0.0428 -0.5484
   83MOL0     C11345   7.898   1.180   3.458  0.8715  0.4375 -0.0747
   83MOL0     C11346   7.824   1.077   3.380 -0.2385 -0.2123 -0.1130
   83MOL0     O11347   7.852   0.949   3.430  0.0847  0.2094 -0.0561
   83MOL0     C11348   7.763   0.848   3.414 -0.5760  0.6896 -0.3161
   83MOL0     C11349   7.762   0.771   3.297  0.2005 -0.6523  0.3643
   83MOL0     C11350   7.670   0.664   3.284 -0.5491 -0.5388  0.3485
   83MOL0     C11351   7.589   0.626   3.379 -0.1668  0.4839  1.2229
   83MOL0     O11352   7.501   0.524   3.362 -0.0016  0.8327  0.0841
   83MOL0     C11353   7.537   0.404   3.284  0.1174  0.1202  0.2402
   83MOL0     C11354   7.536   0.296   3.397  0.5219 -0.4607 -0.3214
   83MOL0     C11355   7.389   0.268   3.440  0.7698  0.7313 -0.2435
   83MOL0     C11356   7.377   0.119   3.468  0.2528 -0.4692  1.1905
   83MOL0     C11357   7.441   0.077   3.599  0.1554 -0.2052  0.2601
   83MOL0     C11358   7.335   0.062   3.714 -0.3402 -0.1741  0.8406
   83MOL0     C11359   7.396   0.060   3.856  0.3180 -1.0340 -0.8252
   83MOL0     C11360   7.308   0.120   3.968  0.3054  0.1893  0.8600
   83MOL0    Cl11361   7.395   0.116   4.120 -0.3036 -0.5202  0.1442
   83MOL0     C11362   7.588   0.700   3.493 -0.5190 -0.8326  0.8199
   83MOL0     C11363   7.673   0.813   3.512 -0.3881  0.4147  0.4976
   83MOL0     O11364   7.743   1.108   3.293 -0.0447 -0.8195  1.1592
   83MOL0     C11365   7.926   1.161   3.589  0.2499 -0.9557  0.4372
   83MOL0     C11366   8.011   1.251   3.659  0.0929  0.1029  1.1615
   83MOL0     N11367   8.606   1.942   3.653  0.0168 -0.2926 -0.5993
   83MOL0     N11368   8.677   2.046   3.648  0.3824  0.2783 -0.3154
   83MOL0     C11369   9.069   2.414   3.068 -0.3389  0.1797  0.4029
   83MOL0     C11370   9.182   2.404   2.990  0.6726 -0.2620  0.6016
   83MOL0     C11371   9.533   2.561   2.737 -0.4456 -0.1727 -0.1103
   83MOL0     C11372   9.604   2.442   2.740  0.1384  0.3193  1.1385
   83MOL0     C11373   9.723   2.433   2.662 -0.1222  0.3279  0.3436
   83MOL0     C11374   9.783   2.547   2.608  0.2757 -0.6927 -0.3877
   83MOL0     O11375   9.901   2.524   2.548 -0.5250  0.3033  0.1812
   83MOL0     C11376   9.955   2.623   2.459  1.1989  0.0524  0.8789
   83MOL0     C11377  10.101   2.570   2.426 -0.0181 -0.3389 -0.1092
   83MOL0     C11378  10.110   2.437   2.337 -0.1706 -0.0541  0.0599
   83MOL0     C11379  10.139   2.465   2.184  0.4359  0.2088  0.9594
   83MOL0     C11380  10.112   2.353   2.091 -0.7405  0.9457 -0.5595
   83MOL0     C11381  10.097   2.252   2.023 -0.0089 -0.3633 -0.2654
   83MOL0     C11382   9.711   2.673   2.611  0.2717 -0.8563  0.5038
   83MOL0     C11383   9.580   2.679   2.676 -0.6197 -1.4365 -0.2479
   83MOL0     C11384   9.505   2.804   2.667  0.4023 -0.2069 -0.8763
   83MOL0     H11385   9.119   2.632   2.741  0.0268  2.5769  2.2944
   83MOL0     H11386   8.901   2.654   2.887 -3.0733 -2.4238  0.9401
   83MOL0     H11387   8.704   2.522   2.958  0.3408 -1.5490  1.0216
   83MOL0     H11388   8.731   2.652   3.060 -0.0941  0.6160 -1.6723
   83MOL0     H11389   8.524   2.537   3.095 -0.6035  2.2768  1.4440
   83MOL0     H11390   8.612   2.376   3.136 -0.3213 -0.1001  2.2816
   83MOL0     H11391   8.696   2.440   3.335 -0.3164 -0.6296 -0.3360
   83MOL0     H11392   8.673   2.615   3.309  1.3647 -0.4270  1.7236
   83MOL0     H11393   8.420   2.593   3.366  0.4179  0.6613 -0.0481
   83MOL0     H11394   8.442   2.421   3.356 -1.3637  1.1248 -0.7319
   83MOL0     H11395   8.455   2.576   3.589  0.8154  0.6017  0.0836
   83MOL0     H11396   8.618   2.587   3.539  2.5514 -2.1148 -3.3654
   83MOL0     H11397   8.481   2.317   3.590 -0.3041 -0.2402  1.5491
   83MOL0     H11398   8.646   2.332   3.524 -0.9419  1.5715 -1.2687
   83MOL0     H11399   8.542   2.408   3.795 -0.5246  0.1205 -1.6085
   83MOL0     H11400   8.697   2.464   3.735 -0.3085 -0.3417  0.7198
   83MOL0     H11401   8.784   2.256   3.724 -0.3804  1.8145 -0.4349
   83MOL0     H11402   8.717   2.243   3.882  1.1227 -0.3644  0.5565
   83MOL0     H11403   8.445   2.131   3.877  0.1784  2.4474 -0.5703
   83MOL0     H11404   8.345   1.868   3.858 -0.6082 -0.2946  0.4184
   83MOL0     H11405   8.488   1.763   3.824  0.7799 -0.8649 -1.2456
   83MOL0     H11406   8.274   1.827   3.624  0.0019 -0.1666 -0.2590
   83MOL0     H11407   8.421   1.713   3.605 -0.0679  1.7136 -1.4385
   83MOL0     H11408   8.336   1.561   3.749  1.4037  1.0522  0.1064
   83MOL0     H11409   8.205   1.664   3.820 -1.0323 -1.3700 -0.0399
   83MOL0     H11410   8.091   1.644   3.600 -0.0904 -1.4597 -0.1735
   83MOL0     H11411   8.230   1.571   3.513  1.6504 -2.7305 -0.6114
   83MOL0     H11412   8.091   1.458   3.397 -0.3167  1.1660  1.4433
   83MOL0     H11413   7.992   1.411   3.207  0.6755 -0.5529 -1.1762
   83MOL0     H11414   7.845   1.318   3.215 -0.3441 -1.6735 -1.0066
   83MOL0     H11415   7.989   1.230   3.169  1.3824 -0.2447  0.6004
   83MOL0     H11416   7.830   0.785   3.213 -1.4494 -0.4445 -0.9902
   83MOL0     H11417   7.687   0.603   3.195 -2.1056 -1.4621  0.6414
   83MOL0     H11418   7.478   0.386   3.194 -1.3965 -0.0812  1.2319
   83MOL0     H11419   7.638   0.419   3.245  0.3727  1.6093  1.3470
   83MOL0     H11420   7.591   0.211   3.357 -0.5772 -0.8506 -1.0542
   83MOL0     H11421   7.591   0.329   3.486  4.1261 -1.1736 -2.1143
   83MOL0     H11422   7.326   0.303   3.357 -0.4496  3.2570  1.6127
   83MOL0     H11423   7.353   0.321   3.529 -0.3105 -1.8337  0.9749
   83MOL0     H11424   7.407   0.056   3.384 -1.2011 -0.7104  0.8419
   83MOL0     H11425   7.271   0.098   3.482  0.1306  1.1608  3.1589
   83MOL0     H11426   7.486  -0.022   3.592 -1.2036 -1.2419  3.9455
   83MOL0     H11427   7.533   0.129   3.628 -1.1732  0.5273  3.5990
   83MOL0     H11428   7.280  -0.032   3.699 -0.5267 -0.0570  0.7873
   83MOL0     H11429   7.262   0.143   3.704  0.9571  1.0810  1.2073
   83MOL0     H11430   7.493   0.109   3.862 -0.6311  0.7819  0.8035
   83MOL0     H11431   7.413  -0.041   3.894 -0.5697 -0.1956  2.0279
   83MOL0     H11432   7.226   0.047   3.974  0.8749 -0.7519 -1.6008
   83MOL0     H11433   7.276   0.220   3.939 -1.7610 -0.9326 -1.0789
   83MOL0     H11434   7.516   0.663   3.566 -1.2233  1.2554  1.2393
   83MOL0     H11435   7.664   0.859   3.609  0.6055 -0.9532  1.2819
   83MOL0     H11436   7.904   1.080   3.657 -0.9780  0.3319  1.6375
   83MOL0     H11437   8.040   1.235   3.762  0.0001 -1.1662  1.0083
   83MOL0     H11438   9.067   2.375   3.170 -0.9632  3.4148  1.7585
   83MOL0     H11439   9.271   2.350   3.021 -0.7493 -0.9099  4.0152
   83MOL0     H11440   9.564   2.350   2.781 -0.2425  0.3378  0.8232
   83MOL0     H11441   9.791   2.349   2.669  2.1740  2.2014  4.9406
   83MOL0     H11442   9.887   2.655   2.380  1.3161  3.0653  1.8715
   83MOL0     H11443   9.974   2.719   2.509 -1.4448  0.8668  0.5021
   83MOL0     H11444  10.156   2.545   2.518  0.1722 -2.0447 -0.6622
   83MOL0     H11445  10.165   2.647   2.380  0.9960 -0.3719  1.1761
   83MOL0     H11446  10.194   2.375   2.368  1.6798  1.8992 -0.8029
   83MOL0     H11447  10.014   2.388   2.354 -1.7496  3.4236  2.4457
   83MOL0     H11448  10.238   2.507   2.170  1.0314 -1.1807  0.7817
   83MOL0     H11449  10.069   2.547   2.164 -0.2269 -0.5265  0.1596
   83MOL0     H11450  10.090   2.164   1.962  2.8079 -0.3147 -0.8270
   83MOL0     H11451   9.734   2.760   2.550 -0.4334 -1.2963 -0.4131
   83MOL0     H11452   9.410   2.778   2.619  0.3454 -1.7422  0.0088
   83MOL0     H11453   9.498   2.832   2.773  3.9276  0.5266 -0.6977
   83MOL0     H11454   9.567   2.884   2.625 -0.5127  1.6010  0.9897
   84MOL0     O11455   5.857   7.668   6.674  0.6461 -0.1477  1.1104
   84MOL0     C11456   5.919   7.763   6.622 -0.4696  0.5830 -1.1062
   84MOL0     O11457   6.019   7.833   6.682 -0.0520 -0.1157 -0.5644
   84MOL0     C11458   6.048   7.799   6.812  0.8289  0.0828 -0.3579
   84MOL0     C11459   5.957   7.804   6.916  0.8915  0.0722  0.6200
   84MOL0     C11460   6.000   7.775   7.045  0.4854 -0.3481 -0.6395
   84MOL0     C11461   6.137   7.751   7.083  0.7356  0.3191  0.3927
   84MOL0     O11462   6.181   7.720   7.209 -1.3466  0.5631  1.2840
   84MOL0     C11463   6.096   7.688   7.318 -0.3967 -0.6312 -0.4730
   84MOL0     C11464   6.062   7.817   7.381 -0.1327  0.0937  0.0389
   84MOL0     C11465   5.937   7.800   7.473  0.5649  0.0010  0.0438
   84MOL0     C11466   5.971   7.710   7.598  0.1181  0.2035  0.7783
   84MOL0     C11467   5.967   7.778   7.733  0.3153 -0.7529 -0.2915
   84MOL0     C11468   6.071   7.888   7.743  0.0127 -1.2759 -0.1585
   84MOL0     C11469   6.085   7.951   7.882  0.9514 -1.2009  0.7234
   84MOL0     C11470   5.973   8.010   7.966 -0.0173 -0.3636  0.6302
   84MOL0     N11471   5.889   8.117   7.900 -0.0895  0.2059  0.0625
   84MOL0     C11472   5.776   8.089   7.824 -1.0070  0.4456  0.4037
   84MOL0     C11473   5.718   8.212   7.799  0.2204 -0.1939 -1.0041
   84MOL0     C11474   5.593   8.231   7.731  0.5185 -2.1478 -0.8345
   84MOL0     C11475   5.596   8.173   7.585 -0.2165 -0.8285  0.3707
   84MOL0     C11476   5.722   8.202   7.505  1.2296 -0.2774 -0.5116
   84MOL0     C11477   5.766   8.343   7.495 -0.2535 -0.1731 -1.6420
   84MOL0     O11478   5.678   8.418   7.402  0.0113  0.0320 -1.0882
   84MOL0     C11479   5.728   8.466   7.286  0.0509 -0.8970  0.8189
   84MOL0     C11480   5.760   8.599   7.271  0.2529  0.1384  0.7924
   84MOL0     C11481   5.835   8.646   7.166  1.0310  0.6879  0.8579
   84MOL0     C11482   5.874   8.789   7.185 -0.8600  1.2027  0.8816
   84MOL0     C11483   5.872   8.555   7.060 -0.4721  0.1294 -0.2618
   84MOL0     C11484   5.964   8.585   6.951 -0.1204  0.9149  0.5962
   84MOL0     O11485   5.964   8.505   6.840  0.1813 -0.2803  0.0815
   84MOL0     C11486   6.052   8.528   6.744 -0.3339  0.3268  0.4474
   84MOL0     C11487   6.186   8.535   6.772  0.6339  0.1169 -0.6216
   84MOL0     C11488   6.272   8.584   6.677 -0.4403 -0.3837 -0.5703
   84MOL0     C11489   6.222   8.620   6.548 -0.7738 -0.7643  0.6899
   84MOL0     O11490   6.305   8.665   6.449  0.0473  0.2939  1.0562
   84MOL0     C11491   6.384   8.790   6.474  0.0124  2.1374  0.6759
   84MOL0     C11492   6.295   8.899   6.527  0.6057 -0.3545  0.2205
   84MOL0     C11493   6.341   9.039   6.484  0.0971 -0.2015  0.7109
   84MOL0     C11494   6.244   9.139   6.558 -0.5387  0.0526 -0.1720
   84MOL0     C11495   6.261   9.291   6.518 -0.3932  0.3872 -0.7391
   84MOL0     C11496   6.240   9.327   6.371  0.8615 -0.0580  0.6907
   84MOL0     C11497   6.272   9.476   6.365 -0.1128  0.2559  0.9238
   84MOL0     C11498   6.273   9.529   6.224 -0.1107 -0.0638  0.1122
   84MOL0    Cl11499   6.116   9.504   6.147  0.3375  1.0437 -0.1397
   84MOL0     C11500   6.089   8.620   6.521  1.1534  0.6738  0.6128
   84MOL0     C11501   6.002   8.563   6.615  0.0112  0.3507 -0.0625
   84MOL0     O11502   6.046   8.670   6.981 -0.5029  0.1266  0.4542
   84MOL0     C11503   5.825   8.423   7.068  0.0534 -0.0329  0.5262
   84MOL0     C11504   5.745   8.378   7.177  0.0688  0.4417 -0.1102
   84MOL0     N11505   5.792   8.306   7.862  0.2908  0.3580 -0.1783
   84MOL0     N11506   5.905   8.252   7.913  0.2795  0.9504 -0.9642
   84MOL0     C11507   6.221   7.740   6.976 -1.0763 -0.8910  0.2017
   84MOL0     C11508   6.180   7.768   6.844 -0.1824 -0.2013  0.5866
   84MOL0     C11509   5.904   7.780   6.474 -0.0303  0.0344  0.3626
   84MOL0     C11510   6.004   7.863   6.408 -0.0538  0.5898  0.2920
   84MOL0     C11511   5.996   7.887   6.273 -0.3507 -0.0161  1.0550
   84MOL0     C11512   5.892   7.833   6.195  0.2181 -0.3183  0.3300
   84MOL0     O11513   5.874   7.828   6.061  0.5353  0.1793  0.5397
   84MOL0     C11514   5.957   7.924   5.993  1.7500  0.1516 -0.5753
   84MOL0     C11515   5.900   7.947   5.855  0.0935 -1.3493 -0.1281
   84MOL0     C11516   5.922   8.091   5.805 -0.4234 -0.0728  0.9652
   84MOL0     C11517   5.897   8.109   5.657  0.0216  0.3075 -0.3842
   84MOL0     C11518   5.986   8.033   5.565 -0.5365  1.1293 -0.1402
   84MOL0     C11519   6.063   7.994   5.476  0.2599  0.3533 -0.9279
   84MOL0     C11520   5.798   7.758   6.252 -0.0151 -0.3050  0.6813
   84MOL0     C11521   5.793   7.729   6.391 -0.2787  0.4559  0.9930
   84MOL0     C11522   5.662   7.662   6.441 -0.3736 -0.6106 -0.2584
   84MOL0     H11523   5.854   7.821   6.886  0.4333 -1.3249  1.3211
   84MOL0     H11524   5.919   7.754   7.114  0.4422 -2.2175 -1.1944
   84MOL0     H11525   6.138   7.617   7.390  1.3073  2.3244  1.7151
   84MOL0     H11526   6.003   7.643   7.282 -1.6331  1.5697 -0.2245
   84MOL0     H11527   6.148   7.859   7.435 -1.2001  2.3291  0.1388
   84MOL0     H11528   6.035   7.896   7.311  0.8855 -0.0264 -0.5023
   84MOL0     H11529   5.897   7.897   7.503 -0.6307  0.2153 -2.0522
   84MOL0     H11530   5.855   7.755   7.417  1.6720 -2.2191  0.1190
   84MOL0     H11531   5.905   7.623   7.603 -0.9760  1.0865  2.4436
   84MOL0     H11532   6.073   7.671   7.589 -0.1095 -0.4028  0.8245
   84MOL0     H11533   5.973   7.720   7.825 -2.6767 -1.1012 -0.2464
   84MOL0     H11534   5.869   7.824   7.745 -0.3900 -1.6867 -2.1180
   84MOL0     H11535   6.170   7.850   7.717  0.5033 -1.0885  1.3377
   84MOL0     H11536   6.052   7.973   7.677  3.5886  0.2878  0.6256
   84MOL0     H11537   6.155   8.035   7.874 -0.2423  0.0398  2.4641
   84MOL0     H11538   6.126   7.878   7.953  0.6944 -0.7319  1.3746
   84MOL0     H11539   5.906   7.932   8.003 -0.9421  1.2679  2.5978
   84MOL0     H11540   6.009   8.048   8.062 -0.8577  1.4727  0.2711
   84MOL0     H11541   5.742   7.988   7.806  0.9360 -0.7563  2.8535
   84MOL0     H11542   5.580   8.339   7.738 -1.2849 -2.4029  3.8488
   84MOL0     H11543   5.508   8.190   7.787 -0.0606  1.4391  1.2277
   84MOL0     H11544   5.598   8.064   7.589 -0.8636 -0.8557  0.0733
   84MOL0     H11545   5.510   8.219   7.536 -0.9591 -1.1286  1.3566
   84MOL0     H11546   5.800   8.148   7.559  0.6600  0.7443  1.4231
   84MOL0     H11547   5.714   8.161   7.403 -1.2484  1.0154 -0.9095
   84MOL0     H11548   5.759   8.401   7.587  1.7073  0.4011 -1.8001
   84MOL0     H11549   5.871   8.353   7.467 -0.1557  0.3319 -1.1069
   84MOL0     H11550   5.755   8.669   7.354  2.4849  2.2146 -0.6963
   84MOL0     H11551   5.874   8.837   7.087 -0.4983 -2.6627 -1.2133
   84MOL0     H11552   5.972   8.801   7.233 -1.0066  1.8233  1.0446
   84MOL0     H11553   5.801   8.845   7.244  1.2867  1.1858  3.8350
   84MOL0     H11554   6.226   8.501   6.866 -1.8173  0.4125  0.6188
   84MOL0     H11555   6.377   8.598   6.702 -1.2994  2.1927  2.2949
   84MOL0     H11556   6.464   8.760   6.542 -0.2927  0.4769  0.3452
   84MOL0     H11557   6.437   8.821   6.383  0.3899 -5.3211 -2.3161
   84MOL0     H11558   6.190   8.878   6.506  0.1385  3.6084 -2.6271
   84MOL0     H11559   6.296   8.900   6.636 -2.5360  3.4280  0.4263
   84MOL0     H11560   6.339   9.040   6.375 -2.0613 -0.6387  0.6905
   84MOL0     H11561   6.446   9.057   6.507  0.1017  0.8358 -0.0872
   84MOL0     H11562   6.262   9.125   6.665 -2.8160 -1.9559  0.0424
   84MOL0     H11563   6.138   9.115   6.546 -0.9353  0.8632  1.4261
   84MOL0     H11564   6.187   9.342   6.581 -2.5175 -1.6568 -1.4488
   84MOL0     H11565   6.353   9.336   6.559 -0.3379 -0.0018 -0.4317
   84MOL0     H11566   6.133   9.324   6.350  1.2259  1.3274 -1.7544
   84MOL0     H11567   6.309   9.270   6.308 -2.0232 -1.1229 -1.7139
   84MOL0     H11568   6.369   9.493   6.413  0.3075 -2.7037  1.3051
   84MOL0     H11569   6.200   9.534   6.424  0.9321  1.6030  0.9273
   84MOL0     H11570   6.355   9.489   6.164  1.1142  2.0316  0.3063
   84MOL0     H11571   6.292   9.635   6.206 -0.0910 -0.5701 -3.5874
   84MOL0     H11572   6.040   8.638   6.426 -0.9844  0.4004  1.6003
   84MOL0     H11573   5.895   8.559   6.594 -0.2064 -1.2546  1.1783
   84MOL0     H11574   5.855   8.343   7.001  2.3481  0.3066  1.0601
   84MOL0     H11575   5.713   8.274   7.179  0.0936  0.3268 -2.5102
   84MOL0     H11576   6.328   7.737   6.990 -0.8050 -2.3435 -1.7160
   84MOL0     H11577   6.246   7.770   6.758 -2.0402  3.5309 -0.9584
   84MOL0     H11578   6.091   7.900   6.461 -1.4826  0.6019  2.8500
   84MOL0     H11579   6.073   7.949   6.228  0.0067  0.5329  2.4040
   84MOL0     H11580   5.957   8.019   6.047  0.8435 -0.7614  1.1031
   84MOL0     H11581   6.062   7.893   5.988  2.1991  1.3902  0.6190
   84MOL0     H11582   5.791   7.939   5.850  0.1789 -2.0330 -1.7706
   84MOL0     H11583   5.955   7.883   5.785  2.4723  1.9779 -1.5173
   84MOL0     H11584   5.853   8.152   5.864 -1.2818 -0.7210  0.6551
   84MOL0     H11585   6.026   8.124   5.815 -0.5541  0.0524  2.0668
   84MOL0     H11586   5.914   8.215   5.637  1.7074 -0.0648 -1.1024
   84MOL0     H11587   5.797   8.081   5.625  0.8272 -0.3378 -2.4979
   84MOL0     H11588   6.140   7.953   5.413 -0.0628 -0.1598 -0.9862
   84MOL0     H11589   5.707   7.741   6.194 -0.5166  1.3828  0.8937
   84MOL0     H11590   5.583   7.659   6.366 -2.0035 -1.3792  1.4220
   84MOL0     H11591   5.692   7.561   6.470 -0.3454 -1.8358 -4.0333
   84MOL0     H11592   5.624   7.724   6.523  0.9311 -0.2366  0.0960
   85MOL0     O11593   3.603   1.591   5.745  0.4323  0.1511 -0.2746
   85MOL0     C11594   3.572   1.702   5.719  0.2714 -0.3607 -0.3218
   85MOL0     O11595   3.641   1.773   5.628 -0.5888  0.5570  0.3805
   85MOL0     C11596   3.639   1.913   5.623 -1.0516 -0.6448  0.5160
   85MOL0     C11597   3.626   1.995   5.734  0.4103  0.0441  0.2329
   85MOL0     C11598   3.599   2.130   5.714 -0.6657  0.2283  1.8400
   85MOL0     C11599   3.586   2.178   5.583  1.0200 -0.1381  0.7555
   85MOL0     O11600   3.566   2.308   5.547  0.1487 -0.9298 -0.8785
   85MOL0     C11601   3.607   2.411   5.636  0.2630  0.1256  0.1307
   85MOL0     C11602   3.520   2.535   5.624 -0.4922 -0.4558  0.2715
   85MOL0     C11603   3.374   2.510   5.629 -0.4446 -0.1617 -0.4721
   85MOL0     C11604   3.308   2.639   5.614 -0.6337 -0.2582 -0.4899
   85MOL0     C11605   3.162   2.631   5.656  0.2724  0.2627  0.5455
   85MOL0     C11606   3.088   2.766   5.642 -0.7626  1.5178 -0.6712
   85MOL0     C11607   2.950   2.766   5.717 -0.4031  0.1819  0.1260
   85MOL0     C11608   2.837   2.702   5.628 -0.7598 -0.2581 -0.6734
   85MOL0     N11609   2.737   2.644   5.717  0.1030  0.3541 -0.3412
   85MOL0     C11610   2.623   2.703   5.754 -0.1061  1.3318  0.4685
   85MOL0     C11611   2.555   2.615   5.836 -0.2300 -0.0687 -0.6045
   85MOL0     C11612   2.443   2.652   5.926  0.4568 -0.0585 -0.4384
   85MOL0     C11613   2.336   2.716   5.841 -0.2859 -0.6732  1.4916
   85MOL0     C11614   2.212   2.747   5.928  1.0549  0.2474 -1.0556
   85MOL0     C11615   2.118   2.622   5.925 -0.0220  0.5029  0.2796
   85MOL0     O11616   2.023   2.631   5.821  0.3466 -0.5442  0.2013
   85MOL0     C11617   1.913   2.713   5.846  0.2698  0.2403  0.1150
   85MOL0     C11618   1.859   2.767   5.731 -0.1792  0.0847  0.5488
   85MOL0     C11619   1.734   2.840   5.729  1.1948  0.2419 -0.5732
   85MOL0     C11620   1.685   2.881   5.594 -0.0676 -0.1529  0.1269
   85MOL0     C11621   1.667   2.863   5.855 -0.1331 -0.4260 -0.7438
   85MOL0     C11622   1.549   2.948   5.880  0.9157  0.0921 -0.3082
   85MOL0     O11623   1.487   2.993   5.776 -0.6929 -0.5167  0.9450
   85MOL0     C11624   1.392   3.091   5.789 -0.2407 -0.5233 -0.6481
   85MOL0     C11625   1.415   3.224   5.766 -0.3115  0.3964 -0.3985
   85MOL0     C11626   1.318   3.314   5.766 -0.2407 -0.2705 -0.1184
   85MOL0     C11627   1.189   3.274   5.823 -0.0053  0.2816 -0.4322
   85MOL0     O11628   1.095   3.371   5.853 -0.3468  0.6110 -0.3700
   85MOL0     C11629   1.048   3.437   5.734  0.4165  0.0067 -1.0002
   85MOL0     C11630   0.901   3.481   5.769 -0.1371  0.2420 -0.1556
   85MOL0     C11631   0.831   3.546   5.645 -0.0937  0.7324  0.1945
   85MOL0     C11632   0.878   3.685   5.609  0.2737  0.3814  0.0358
   85MOL0     C11633   0.798   3.740   5.481  0.0739  0.2983 -0.5005
   85MOL0     C11634   0.648   3.763   5.507 -0.8249  0.1653 -0.4574
   85MOL0     C11635   0.568   3.782   5.377  0.1767  0.1583  1.7040
   85MOL0     C11636   0.538   3.658   5.280 -0.0876 -0.7982 -0.6228
   85MOL0    Cl11637   0.489   3.730   5.123  0.0609 -0.0700  0.7832
   85MOL0     C11638   1.152   3.137   5.843 -0.7825 -0.8230 -0.4930
   85MOL0     C11639   1.262   3.046   5.824  0.5082  0.4427  0.3822
   85MOL0     O11640   1.506   2.943   5.992 -0.2287 -0.7945 -0.0308
   85MOL0     C11641   1.732   2.828   5.973 -0.3526  0.2016  0.2200
   85MOL0     C11642   1.856   2.757   5.970 -0.3392 -0.0103  0.3513
   85MOL0     N11643   2.636   2.512   5.853 -0.3880  1.0317  0.1534
   85MOL0     N11644   2.745   2.531   5.785  0.2539  0.9617 -0.8248
   85MOL0     C11645   3.602   2.094   5.474  0.3184 -0.7258  0.1816
   85MOL0     C11646   3.630   1.959   5.499 -0.9106 -0.3512 -0.2100
   85MOL0     C11647   3.454   1.759   5.789  0.2638 -0.0813 -0.5464
   85MOL0     C11648   3.336   1.807   5.720  0.1739 -0.0099  0.7273
   85MOL0     C11649   3.219   1.845   5.776  0.2185  0.3072  0.1670
   85MOL0     C11650   3.216   1.839   5.914 -0.2758 -0.5556  1.0867
   85MOL0     O11651   3.091   1.864   5.974 -1.4127  0.0519  0.0616
   85MOL0     C11652   3.073   1.823   6.115 -0.3420  0.0470  0.6715
   85MOL0     C11653   3.070   1.662   6.119  0.3505  0.2084  0.6368
   85MOL0     C11654   3.109   1.599   6.252  0.1847  0.3853 -0.9453
   85MOL0     C11655   3.066   1.451   6.262  0.3772  0.3729 -0.0843
   85MOL0     C11656   3.172   1.380   6.347  0.4497  0.7573  0.6156
   85MOL0     C11657   3.257   1.296   6.378 -0.7049 -0.3426  0.0071
   85MOL0     C11658   3.325   1.805   5.989  0.5067  1.1375  0.3312
   85MOL0     C11659   3.448   1.758   5.936  0.3855  0.2680  0.2871
   85MOL0     C11660   3.578   1.718   6.009 -0.1407 -0.9350 -0.8589
   85MOL0     H11661   3.632   1.957   5.835 -3.3074 -0.4340  0.4101
   85MOL0     H11662   3.583   2.196   5.798 -2.7419  1.5373  0.5315
   85MOL0     H11663   3.706   2.443   5.602  0.9964 -1.3533  0.8207
   85MOL0     H11664   3.625   2.379   5.739 -3.3006 -4.5688 -0.3859
   85MOL0     H11665   3.549   2.596   5.711 -0.0517  0.7987 -0.7202
   85MOL0     H11666   3.538   2.591   5.532 -0.3853  2.3746  1.8819
   85MOL0     H11667   3.347   2.440   5.549 -0.2337 -0.8824  0.0693
   85MOL0     H11668   3.345   2.470   5.727  1.7621  2.1272  1.2466
   85MOL0     H11669   3.351   2.713   5.683  3.1184  0.1483 -3.0232
   85MOL0     H11670   3.312   2.667   5.509  1.9496 -1.3063 -0.7145
   85MOL0     H11671   3.164   2.619   5.765  0.6597 -1.0891  0.4070
   85MOL0     H11672   3.107   2.553   5.603 -0.0202  1.8330 -1.5678
   85MOL0     H11673   3.144   2.847   5.690 -2.2440  1.9826  0.3745
   85MOL0     H11674   3.072   2.789   5.536  0.5551 -0.0888 -1.2567
   85MOL0     H11675   2.913   2.859   5.760 -0.7154 -0.1627  0.6233
   85MOL0     H11676   2.961   2.707   5.809 -0.6842 -2.9943 -1.7012
   85MOL0     H11677   2.794   2.774   5.557  1.0130  0.0178 -1.5225
   85MOL0     H11678   2.866   2.616   5.568 -3.0718 -0.9272 -0.9251
   85MOL0     H11679   2.595   2.801   5.716  0.6371  0.7491 -1.7606
   85MOL0     H11680   2.471   2.734   5.993 -1.9696  1.1843 -0.8328
   85MOL0     H11681   2.412   2.556   5.968  1.3601 -1.0315 -1.9170
   85MOL0     H11682   2.358   2.822   5.820 -1.4349 -0.9449 -1.7311
   85MOL0     H11683   2.326   2.657   5.749  2.7650  1.1464 -0.2019
   85MOL0     H11684   2.234   2.771   6.033 -2.8381 -0.8580  0.1940
   85MOL0     H11685   2.157   2.829   5.882  0.3809 -0.6293 -1.8564
   85MOL0     H11686   2.173   2.527   5.922  0.4745  0.6288  2.8968
   85MOL0     H11687   2.078   2.597   6.024  0.5342 -1.0516  0.1478
   85MOL0     H11688   1.926   2.752   5.648  1.8829 -0.3025  2.2020
   85MOL0     H11689   1.638   2.979   5.599  1.2293  0.5627 -0.9569
   85MOL0     H11690   1.607   2.808   5.568  0.9810 -1.7428  1.2542
   85MOL0     H11691   1.760   2.879   5.514 -1.8419  2.2595 -1.7773
   85MOL0     H11692   1.520   3.244   5.752 -0.2998  0.5703 -0.0657
   85MOL0     H11693   1.348   3.417   5.748  1.2111 -0.6907 -0.2559
   85MOL0     H11694   1.114   3.510   5.686  1.2691 -1.4953 -2.2321
   85MOL0     H11695   1.044   3.360   5.656 -0.0572 -1.5959  0.5308
   85MOL0     H11696   0.851   3.387   5.794  3.4552 -0.9160  3.7863
   85MOL0     H11697   0.905   3.541   5.860  2.7683  0.4688 -0.3431
   85MOL0     H11698   0.723   3.554   5.661 -0.5929 -2.3490 -0.8435
   85MOL0     H11699   0.860   3.485   5.559 -1.2798  0.3959  0.0169
   85MOL0     H11700   0.986   3.675   5.593  0.0136 -0.9895 -1.1127
   85MOL0     H11701   0.855   3.745   5.697  0.3605 -0.9480  1.0074
   85MOL0     H11702   0.833   3.838   5.448 -3.2251  2.2920  1.3108
   85MOL0     H11703   0.810   3.670   5.398  5.7487  0.8354 -0.5340
   85MOL0     H11704   0.623   3.841   5.580 -0.7569 -1.9437  1.9438
   85MOL0     H11705   0.603   3.670   5.540 -0.5628  0.3979  0.5918
   85MOL0     H11706   0.616   3.866   5.326 -1.5943  0.7461  0.9406
   85MOL0     H11707   0.466   3.818   5.390  0.2401  2.3462 -2.2157
   85MOL0     H11708   0.450   3.607   5.321 -1.0083 -1.2093 -2.9729
   85MOL0     H11709   0.626   3.596   5.266  0.9994  0.9130 -1.7813
   85MOL0     H11710   1.055   3.108   5.882 -1.0525  0.3856 -0.2355
   85MOL0     H11711   1.248   2.940   5.841  0.5331  0.2108 -0.9525
   85MOL0     H11712   1.695   2.862   6.069 -0.4035  1.8245 -0.3456
   85MOL0     H11713   1.883   2.731   6.071 -1.9951 -1.0112  0.5832
   85MOL0     H11714   3.579   2.135   5.376  1.5238  1.0411  0.5957
   85MOL0     H11715   3.642   1.886   5.420 -2.7652  0.2001 -1.0769
   85MOL0     H11716   3.341   1.832   5.614 -1.6253  3.3812  1.2992
   85MOL0     H11717   3.136   1.867   5.710  1.7522 -2.4037 -2.9479
   85MOL0     H11718   3.144   1.854   6.192 -2.1563  1.7977  1.7292
   85MOL0     H11719   2.979   1.862   6.154 -0.6018 -0.6277  0.7395
   85MOL0     H11720   3.131   1.629   6.035 -2.4434 -0.1625 -1.3782
   85MOL0     H11721   2.965   1.639   6.100  0.6932 -0.2450 -0.8075
   85MOL0     H11722   3.216   1.612   6.267  0.1430  0.5970 -0.8360
   85MOL0     H11723   3.072   1.662   6.333  1.2651 -1.5989  1.2061
   85MOL0     H11724   3.057   1.388   6.173  1.4691 -2.7754  1.8752
   85MOL0     H11725   2.974   1.437   6.320 -0.3803  5.1545  0.3055
   85MOL0     H11726   3.338   1.229   6.400 -1.7913 -1.6963  0.0367
   85MOL0     H11727   3.305   1.807   6.096  3.5945 -0.4019  1.0734
   85MOL0     H11728   3.629   1.635   5.960  1.4011  0.4579 -1.7106
   85MOL0     H11729   3.641   1.807   6.014  0.6997 -1.4840 -1.4367
   85MOL0     H11730   3.547   1.682   6.107  2.2603 -2.2626 -0.5061
   86MOL0     O11731   1.707   8.649   6.206 -0.6832 -0.0192  0.1672
   86MOL0     C11732   1.669   8.739   6.124  0.2261  0.5878 -0.2920
   86MOL0     O11733   1.738   8.853   6.092 -0.1600  0.1634 -0.2481
   86MOL0     C11734   1.869   8.874   6.133  0.1317  0.1848 -0.3881
   86MOL0     C11735   1.884   9.006   6.165 -0.1930  0.3065 -0.2562
   86MOL0     C11736   2.010   9.047   6.211  0.3268  0.1595  0.3143
   86MOL0     C11737   2.115   8.955   6.231 -0.0979 -0.3469 -0.3355
   86MOL0     O11738   2.240   8.985   6.279  0.3439  0.4106 -0.5548
   86MOL0     C11739   2.257   9.111   6.346 -0.1365 -0.7231 -0.1362
   86MOL0     C11740   2.406   9.124   6.388  1.0771 -0.4412 -0.2489
   86MOL0     C11741   2.466   8.994   6.463  0.3487 -0.3780  0.7966
   86MOL0     C11742   2.557   8.911   6.366 -1.0339 -0.0322  0.0496
   86MOL0     C11743   2.641   8.810   6.446 -0.4841  0.3269  0.3733
   86MOL0     C11744   2.701   8.685   6.365 -0.4622 -0.3985  0.4698
   86MOL0     C11745   2.795   8.615   6.457  0.1039  0.9257 -0.0560
   86MOL0     C11746   2.879   8.517   6.371 -0.4707 -1.2173 -0.1588
   86MOL0     N11747   2.953   8.450   6.475  0.2303  0.7812  0.0990
   86MOL0     C11748   3.074   8.483   6.524 -0.4006  0.5922 -1.4202
   86MOL0     C11749   3.114   8.382   6.612  0.8596  0.3641  0.2966
   86MOL0     C11750   3.239   8.372   6.681 -0.3399  0.4111 -0.4308
   86MOL0     C11751   3.352   8.298   6.593  1.0104 -0.1679  0.0307
   86MOL0     C11752   3.489   8.296   6.641  0.4986  0.3348  0.4294
   86MOL0     C11753   3.512   8.218   6.770  0.3910  0.5411 -0.7207
   86MOL0     O11754   3.463   8.281   6.892 -0.2332  0.4914  0.1145
   86MOL0     C11755   3.543   8.355   6.964 -1.1436 -0.1047  1.2448
   86MOL0     C11756   3.683   8.386   6.933 -0.5992  0.6394 -0.2381
   86MOL0     C11757   3.748   8.488   7.017 -0.3700  0.3741 -0.0949
   86MOL0     C11758   3.882   8.531   6.985 -0.0766 -0.2409 -0.2567
   86MOL0     C11759   3.677   8.547   7.127 -0.2723  0.5486 -0.9694
   86MOL0     C11760   3.744   8.658   7.202  0.4627 -0.0990 -0.2844
   86MOL0     O11761   3.840   8.635   7.296  0.5196  0.0519  0.2815
   86MOL0     C11762   3.916   8.737   7.358 -0.6972 -0.8122 -0.9453
   86MOL0     C11763   3.853   8.850   7.421 -1.0628  0.0432  0.7124
   86MOL0     C11764   3.925   8.936   7.502 -0.8636  0.1099 -0.1677
   86MOL0     C11765   4.068   8.915   7.529  0.3174 -0.0454 -0.9635
   86MOL0     O11766   4.155   8.997   7.602 -0.9232 -0.0134 -0.8409
   86MOL0     C11767   4.102   9.118   7.672  1.6728 -0.2832 -0.4972
   86MOL0     C11768   4.024   9.080   7.799  0.5628  1.0059 -0.3339
   86MOL0     C11769   4.115   9.023   7.912 -0.5252  0.1693 -0.1115
   86MOL0     C11770   4.038   8.965   8.036  0.2069 -0.8093 -0.0708
   86MOL0     C11771   4.128   8.889   8.135 -0.0625  0.1910 -0.9740
   86MOL0     C11772   4.154   8.964   8.260  0.5184 -0.4926 -0.3081
   86MOL0     C11773   4.265   8.905   8.344  0.5036 -0.8755 -0.6985
   86MOL0     C11774   4.405   8.871   8.296 -0.1503  0.2388  0.3851
   86MOL0    Cl11775   4.496   9.017   8.244 -0.1657 -0.1315  0.0553
   86MOL0     C11776   4.120   8.802   7.467  1.8288 -0.8579  0.0941
   86MOL0     C11777   4.048   8.713   7.386 -1.0403 -0.6797 -0.3767
   86MOL0     O11778   3.704   8.776   7.175 -0.4961  0.2383 -0.2372
   86MOL0     C11779   3.552   8.507   7.150  0.9052 -0.3391 -0.2077
   86MOL0     C11780   3.488   8.420   7.068 -0.4302  0.1271  0.2746
   86MOL0     N11781   3.012   8.295   6.598 -0.7246  0.0764  0.9294
   86MOL0     N11782   2.917   8.330   6.519  0.0235  0.3963  0.0878
   86MOL0     C11783   2.098   8.827   6.194  0.2976  0.3076  1.1571
   86MOL0     C11784   1.969   8.785   6.147 -0.4649  0.7582  0.2165
   86MOL0     C11785   1.537   8.713   6.061 -1.7680 -0.0091 -0.3270
   86MOL0     C11786   1.511   8.772   5.935 -1.0287  0.3210 -0.2215
   86MOL0     C11787   1.387   8.766   5.869 -0.4158 -0.4355 -0.2232
   86MOL0     C11788   1.276   8.704   5.927 -0.3281 -0.9162 -0.0501
   86MOL0     O11789   1.150   8.711   5.881 -0.2625 -0.2330 -0.7226
   86MOL0     C11790   1.112   8.736   5.741 -0.0618 -0.0837  0.3488
   86MOL0     C11791   0.971   8.705   5.710 -1.0372 -0.3015 -0.2931
   86MOL0     C11792   0.946   8.559   5.694  0.2298  0.3545  0.5011
   86MOL0     C11793   0.797   8.528   5.697 -0.1148 -0.6804  0.1728
   86MOL0     C11794   0.717   8.591   5.597 -0.7468  0.8698  0.1682
   86MOL0     C11795   0.625   8.632   5.529 -0.0759 -0.2799  0.9406
   86MOL0     C11796   1.302   8.651   6.054 -0.6979  0.1726  0.1427
   86MOL0     C11797   1.428   8.645   6.115  0.0463  1.0482  0.1179
   86MOL0     C11798   1.443   8.564   6.236 -0.4423  0.1787  0.3859
   86MOL0     H11799   1.806   9.079   6.148 -1.8467 -0.9456  1.4944
   86MOL0     H11800   2.024   9.154   6.222  0.1015  0.0236  2.1457
   86MOL0     H11801   2.195   9.131   6.434  0.6879  0.3888  0.2166
   86MOL0     H11802   2.229   9.190   6.276 -0.5416 -1.7925 -1.2246
   86MOL0     H11803   2.459   9.145   6.295  0.5493 -2.6229 -1.0886
   86MOL0     H11804   2.406   9.208   6.458  0.2847  1.1255 -2.0579
   86MOL0     H11805   2.500   9.051   6.550 -3.5653  3.1862  0.3725
   86MOL0     H11806   2.394   8.926   6.509  0.1899 -0.5098  0.3630
   86MOL0     H11807   2.500   8.845   6.300 -1.0236 -1.1549  1.1340
   86MOL0     H11808   2.630   8.970   6.309  0.4986 -2.1621 -0.3121
   86MOL0     H11809   2.575   8.770   6.524 -2.5664  3.4256  0.3641
   86MOL0     H11810   2.727   8.863   6.490 -2.2551  1.0845  3.1703
   86MOL0     H11811   2.621   8.612   6.346  0.3065 -1.6207  1.8066
   86MOL0     H11812   2.743   8.726   6.273 -3.8437  1.3058 -0.5132
   86MOL0     H11813   2.747   8.548   6.528  3.4838 -3.3016 -1.2802
   86MOL0     H11814   2.874   8.668   6.510  0.5770 -0.6600  0.8960
   86MOL0     H11815   2.805   8.448   6.330 -1.8827  1.1196 -1.8772
   86MOL0     H11816   2.945   8.568   6.300  0.0824  0.5518  1.5493
   86MOL0     H11817   3.133   8.571   6.500  0.3871  0.4777 -0.0060
   86MOL0     H11818   3.210   8.311   6.766 -2.1611 -0.3764 -1.5520
   86MOL0     H11819   3.271   8.473   6.709  0.2921  1.0880 -3.2507
   86MOL0     H11820   3.312   8.196   6.586  0.8478 -0.0461 -0.8936
   86MOL0     H11821   3.353   8.346   6.495 -0.2073  1.7571  0.9018
   86MOL0     H11822   3.545   8.261   6.554  1.3696  3.5539 -0.4545
   86MOL0     H11823   3.526   8.398   6.655 -2.0627  1.2528  1.1047
   86MOL0     H11824   3.455   8.125   6.759 -3.7258  2.6484  0.6460
   86MOL0     H11825   3.619   8.195   6.776  0.1576 -0.5621  5.4389
   86MOL0     H11826   3.727   8.333   6.849 -1.5178 -2.1960  0.9694
   86MOL0     H11827   3.934   8.533   7.081 -1.3174 -1.1173  0.4745
   86MOL0     H11828   3.881   8.631   6.941 -0.0085 -0.3534 -0.5109
   86MOL0     H11829   3.929   8.460   6.916  1.8508  1.3636 -0.6626
   86MOL0     H11830   3.747   8.872   7.418 -0.5703  2.8326  0.8356
   86MOL0     H11831   3.874   9.030   7.524 -1.1121  0.6826 -2.8409
   86MOL0     H11832   4.186   9.184   7.698  0.7319  0.4321  0.8060
   86MOL0     H11833   4.029   9.163   7.605 -0.2922 -1.4441  0.7701
   86MOL0     H11834   3.981   9.173   7.835  0.9783  1.5815 -1.2986
   86MOL0     H11835   3.954   9.001   7.770  0.9032  1.1177 -1.5112
   86MOL0     H11836   4.187   9.097   7.947 -2.7145  3.7268 -2.4178
   86MOL0     H11837   4.174   8.935   7.884  1.2826  0.3813  2.7123
   86MOL0     H11838   3.963   8.903   7.987 -1.0675 -0.7248  1.6954
   86MOL0     H11839   3.997   9.055   8.081  2.1789  0.5469 -0.8591
   86MOL0     H11840   4.076   8.794   8.149  1.8875 -1.0195 -1.5075
   86MOL0     H11841   4.226   8.860   8.095 -0.6625 -2.4791 -0.6733
   86MOL0     H11842   4.058   8.973   8.312 -1.0151 -1.0682 -2.8902
   86MOL0     H11843   4.179   9.066   8.229  0.5113 -0.4272 -0.1025
   86MOL0     H11844   4.224   8.806   8.369 -0.6728 -0.1777  0.2739
   86MOL0     H11845   4.283   8.959   8.438  1.7095 -1.5978 -0.4965
   86MOL0     H11846   4.407   8.812   8.204 -2.1495  0.3436  0.2402
   86MOL0     H11847   4.470   8.821   8.368 -3.3148 -0.1208  3.1898
   86MOL0     H11848   4.228   8.788   7.457  2.1032 -0.2047  1.7634
   86MOL0     H11849   4.100   8.639   7.327  1.1410  2.1241 -2.2440
   86MOL0     H11850   3.492   8.544   7.233  2.4262  0.1873  0.6959
   86MOL0     H11851   3.386   8.402   7.100 -0.6841  1.5886  0.3645
   86MOL0     H11852   2.182   8.758   6.190 -1.9494 -2.5838  0.3754
   86MOL0     H11853   1.946   8.689   6.101  2.4957  1.1797 -2.5068
   86MOL0     H11854   1.583   8.839   5.888 -0.7616  0.2198  0.0349
   86MOL0     H11855   1.383   8.818   5.774  4.1698  0.4030 -0.1457
   86MOL0     H11856   1.118   8.845   5.731  1.6684  0.1090  2.5778
   86MOL0     H11857   1.169   8.690   5.660  2.6031  1.7632  1.0378
   86MOL0     H11858   0.950   8.747   5.611  1.4121  1.1304 -0.2941
   86MOL0     H11859   0.905   8.751   5.784  0.5647  2.3800 -0.3911
   86MOL0     H11860   0.988   8.533   5.597  2.7685  2.3272  0.9755
   86MOL0     H11861   1.008   8.504   5.766  3.3537 -1.7789 -3.4495
   86MOL0     H11862   0.774   8.568   5.796 -1.2252 -0.6375 -0.0977
   86MOL0     H11863   0.781   8.420   5.700  2.2552 -1.1269 -1.0356
   86MOL0     H11864   0.542   8.675   5.477  2.1344  2.3751 -0.6727
   86MOL0     H11865   1.221   8.601   6.106 -0.8707 -0.7861 -0.9929
   86MOL0     H11866   1.355   8.499   6.248  0.2021 -0.5809  1.1639
   86MOL0     H11867   1.531   8.500   6.246 -0.4570  0.4755  2.8312
   86MOL0     H11868   1.446   8.626   6.326 -1.9526  0.8985 -0.0335
   87MOL0     O11869   3.976   7.734   4.965  0.3421  0.2219 -0.5690
   87MOL0     C11870   3.873   7.785   4.919  0.0515 -0.3273 -0.6688
   87MOL0     O11871   3.873   7.884   4.823 -0.6404  0.1474  0.1981
   87MOL0     C11872   3.994   7.958   4.820  0.3118 -0.8449 -0.2319
   87MOL0     C11873   4.064   8.000   4.933 -0.3109  0.3665 -0.0349
   87MOL0     C11874   4.189   8.070   4.915  0.3772 -1.2559  0.8748
   87MOL0     C11875   4.236   8.109   4.791 -0.2899 -0.3350 -0.5494
   87MOL0     O11876   4.349   8.193   4.783  0.1062  0.4692 -0.6283
   87MOL0     C11877   4.399   8.221   4.651  0.7241  0.2945  0.7273
   87MOL0     C11878   4.515   8.311   4.647  0.7342  0.8966 -0.0992
   87MOL0     C11879   4.558   8.325   4.496 -0.9075  0.4801  1.0714
   87MOL0     C11880   4.642   8.454   4.478  0.1944  0.1677  0.0315
   87MOL0     C11881   4.691   8.484   4.328 -0.0054  0.7761 -0.0122
   87MOL0     C11882   4.783   8.607   4.309 -0.1294  0.8842 -0.1753
   87MOL0     C11883   4.899   8.577   4.205  1.0353 -0.1775  0.1356
   87MOL0     C11884   4.976   8.712   4.188 -0.1164 -0.1257 -0.9037
   87MOL0     N11885   4.889   8.821   4.140  0.2351  0.7538  0.3008
   87MOL0     C11886   4.856   8.841   4.001 -0.3453  0.3280 -0.3903
   87MOL0     C11887   4.802   8.967   3.998  0.0097  0.1578  0.5489
   87MOL0     C11888   4.750   9.031   3.872 -0.0936  0.6716 -0.5396
   87MOL0     C11889   4.844   9.153   3.841 -0.1276 -0.3288  0.8954
   87MOL0     C11890   4.804   9.242   3.723  0.1495 -0.1370 -0.3861
   87MOL0     C11891   4.722   9.364   3.775 -0.3451 -0.0356 -0.2068
   87MOL0     O11892   4.638   9.430   3.667 -0.5585  0.1631  0.1080
   87MOL0     C11893   4.695   9.533   3.593 -0.2737  0.4468  0.1330
   87MOL0     C11894   4.608   9.604   3.505 -0.3656 -0.2528 -0.6046
   87MOL0     C11895   4.661   9.714   3.430  0.2852  0.5899  0.5584
   87MOL0     C11896   4.566   9.794   3.341 -0.0863  0.7416 -0.7532
   87MOL0     C11897   4.803   9.741   3.437 -0.3888 -0.0961  0.8004
   87MOL0     C11898   4.879   9.850   3.364 -0.7708 -0.1564 -0.4399
   87MOL0     O11899   5.007   9.880   3.409  0.1717  0.2014 -0.0933
   87MOL0     C11900   5.078   9.980   3.360 -0.0926  0.1784 -0.1150
   87MOL0     C11901   5.075  10.100   3.423 -1.2397 -0.0911 -0.4385
   87MOL0     C11902   5.148  10.206   3.376 -0.3156  0.3694  0.0437
   87MOL0     C11903   5.243  10.178   3.274 -0.3429 -0.6385 -0.4430
   87MOL0     O11904   5.322  10.279   3.216  0.0984  0.9486  1.0790
   87MOL0     C11905   5.366  10.386   3.293 -0.6769  0.1241 -0.1806
   87MOL0     C11906   5.490  10.438   3.226  0.2302  0.0701 -0.8000
   87MOL0     C11907   5.576  10.536   3.312  0.0502  1.1259 -0.3436
   87MOL0     C11908   5.641  10.443   3.419 -0.0740 -0.0130  0.2108
   87MOL0     C11909   5.742  10.515   3.498  0.6626  0.9176  0.1348
   87MOL0     C11910   5.875  10.540   3.417 -0.2361  0.2110  0.7938
   87MOL0     C11911   5.972  10.618   3.504  0.5481  0.4997 -0.2644
   87MOL0     C11912   6.069  10.531   3.592  0.0996  0.0693 -0.3584
   87MOL0    Cl11913   6.202  10.463   3.498  0.0276 -0.0470 -0.3280
   87MOL0     C11914   5.248  10.054   3.211  0.3306 -0.5632  0.2452
   87MOL0     C11915   5.160   9.955   3.249  0.6702 -0.7211  0.5231
   87MOL0     O11916   4.821   9.908   3.275 -0.5266  0.7963 -0.0955
   87MOL0     C11917   4.883   9.669   3.529 -0.3169 -0.2925  0.1382
   87MOL0     C11918   4.833   9.566   3.605  0.0778  0.3488  0.5988
   87MOL0     N11919   4.788   9.012   4.137  0.3436  0.9279  1.0986
   87MOL0     N11920   4.849   8.928   4.213  0.6263 -0.5083  0.6939
   87MOL0     C11921   4.166   8.053   4.685 -0.7906  0.4802  0.4406
   87MOL0     C11922   4.056   7.978   4.700  0.0460 -0.8815 -0.0784
   87MOL0     C11923   3.737   7.721   4.949  0.6371  0.4840  0.0303
   87MOL0     C11924   3.728   7.636   5.061 -0.0143 -0.0785  0.1033
   87MOL0     C11925   3.613   7.595   5.130 -0.1471 -0.0534  0.5358
   87MOL0     C11926   3.491   7.620   5.070  0.1436 -0.9486  0.2510
   87MOL0     O11927   3.377   7.566   5.135 -0.1771 -0.8256  0.1972
   87MOL0     C11928   3.246   7.587   5.089 -0.1846 -0.4937  0.5003
   87MOL0     C11929   3.203   7.724   5.132 -0.6611 -0.6146  0.8841
   87MOL0     C11930   3.121   7.723   5.256  0.1314  0.7384 -1.4058
   87MOL0     C11931   2.976   7.706   5.222 -0.1897 -0.2622 -0.2346
   87MOL0     C11932   2.927   7.832   5.161 -0.5502  0.0812 -0.7334
   87MOL0     C11933   2.905   7.931   5.110  0.7700 -0.0382  0.1623
   87MOL0     C11934   3.490   7.695   4.954  0.5674 -0.2783 -0.4183
   87MOL0     C11935   3.606   7.748   4.891 -0.1655  1.1342 -0.1600
   87MOL0     C11936   3.581   7.840   4.769  0.0662 -0.6245  0.4686
   87MOL0     H11937   4.022   7.986   5.032 -3.7821  1.3701 -1.2264
   87MOL0     H11938   4.259   8.089   4.995  0.0689  3.4855  0.3229
   87MOL0     H11939   4.327   8.263   4.580  1.3341 -2.0056 -1.4048
   87MOL0     H11940   4.427   8.124   4.609 -1.9443 -0.3076  0.1285
   87MOL0     H11941   4.484   8.409   4.683  0.9615  0.9746 -0.1201
   87MOL0     H11942   4.599   8.277   4.707 -0.3365 -1.9558 -0.0231
   87MOL0     H11943   4.615   8.235   4.475 -1.5721  0.5885 -1.4239
   87MOL0     H11944   4.476   8.334   4.425 -1.4590  0.0914  1.6433
   87MOL0     H11945   4.576   8.538   4.500 -1.3035 -0.4080 -1.9822
   87MOL0     H11946   4.722   8.463   4.552  0.5379  1.3325 -0.4431
   87MOL0     H11947   4.600   8.502   4.270  0.9103 -0.7334 -2.0484
   87MOL0     H11948   4.731   8.390   4.287  0.0659  1.2428 -1.0356
   87MOL0     H11949   4.717   8.689   4.280 -2.1369 -1.2228 -1.9662
   87MOL0     H11950   4.825   8.631   4.407 -4.3301 -0.4893  2.2388
   87MOL0     H11951   4.869   8.542   4.106 -0.2744 -0.9581  0.7685
   87MOL0     H11952   4.972   8.511   4.253 -0.8150 -0.8246  2.2990
   87MOL0     H11953   5.006   8.728   4.292  0.7153 -1.6668 -0.8756
   87MOL0     H11954   5.065   8.700   4.125  2.8446  0.8789  2.7593
   87MOL0     H11955   4.892   8.785   3.915  2.2880 -0.0928  0.8688
   87MOL0     H11956   4.649   9.067   3.895 -0.9306 -1.5512 -0.4655
   87MOL0     H11957   4.744   8.964   3.786 -1.5453 -0.4134  0.3622
   87MOL0     H11958   4.862   9.206   3.935 -0.6119 -0.2564  0.9522
   87MOL0     H11959   4.933   9.109   3.795  0.8402  2.2813  0.0450
   87MOL0     H11960   4.900   9.264   3.675  0.5042 -3.1425 -1.2717
   87MOL0     H11961   4.747   9.187   3.648  1.7656 -0.1146 -1.6969
   87MOL0     H11962   4.640   9.323   3.836  0.5664 -1.6792 -0.0218
   87MOL0     H11963   4.774   9.440   3.834 -1.0764  1.7484 -1.7693
   87MOL0     H11964   4.503   9.577   3.502 -0.7141  1.0991 -2.4521
   87MOL0     H11965   4.562   9.896   3.380  0.2474  0.8105 -0.9024
   87MOL0     H11966   4.467   9.747   3.346 -0.0465  0.2181 -3.3468
   87MOL0     H11967   4.601   9.790   3.238 -2.2313 -3.3769 -1.5284
   87MOL0     H11968   5.020  10.130   3.512 -0.1746  1.8755 -0.3601
   87MOL0     H11969   5.130  10.296   3.435 -0.6280 -0.6835  1.6449
   87MOL0     H11970   5.288  10.463   3.293  1.4671  2.4233  0.1570
   87MOL0     H11971   5.388  10.348   3.393 -0.4823 -0.6407 -0.5093
   87MOL0     H11972   5.554  10.354   3.199 -2.7604 -2.6368 -0.1670
   87MOL0     H11973   5.448  10.480   3.134 -3.0729 -0.7220  0.2040
   87MOL0     H11974   5.512  10.606   3.366 -0.1943  0.6869 -0.0536
   87MOL0     H11975   5.643  10.596   3.250 -0.2500  1.5322 -0.2778
   87MOL0     H11976   5.686  10.353   3.377  0.3054  0.7277 -0.9983
   87MOL0     H11977   5.564  10.408   3.489  0.3963 -0.4360  0.5188
   87MOL0     H11978   5.710  10.614   3.531  0.2467  0.9601 -0.3760
   87MOL0     H11979   5.761  10.463   3.592  1.1586  0.4774 -0.2025
   87MOL0     H11980   5.844  10.585   3.322 -2.3490 -5.2610 -1.5366
   87MOL0     H11981   5.911  10.438   3.400  2.6387  1.4561 -1.3293
   87MOL0     H11982   5.911  10.675   3.575 -0.5713 -1.4927  0.4412
   87MOL0     H11983   6.026  10.681   3.433  4.8103 -2.2017  0.1973
   87MOL0     H11984   6.010  10.447   3.632  3.5230 -3.3443 -1.8304
   87MOL0     H11985   6.113  10.586   3.675 -0.1325  0.7316 -0.6647
   87MOL0     H11986   5.320  10.042   3.131 -2.6348 -0.5591 -2.6414
   87MOL0     H11987   5.148   9.867   3.187 -0.9810  1.5288 -2.6341
   87MOL0     H11988   4.991   9.673   3.541 -0.4492 -1.0895  2.0201
   87MOL0     H11989   4.892   9.491   3.656  1.2226 -1.5177 -3.1001
   87MOL0     H11990   4.206   8.058   4.584 -0.9720  1.6141  0.4156
   87MOL0     H11991   4.000   7.940   4.615 -1.6488 -0.2839  0.7176
   87MOL0     H11992   3.821   7.615   5.112 -0.4139  0.4812  1.0876
   87MOL0     H11993   3.623   7.524   5.211 -1.6223  0.8021  1.5020
   87MOL0     H11994   3.247   7.598   4.980 -2.3206 -0.6887  0.4212
   87MOL0     H11995   3.175   7.515   5.128 -0.7659 -1.1220 -1.5731
   87MOL0     H11996   3.141   7.748   5.045 -0.1592  0.3686  0.7828
   87MOL0     H11997   3.286   7.796   5.134 -0.9901  0.2103 -3.8140
   87MOL0     H11998   3.152   7.644   5.326 -2.8796  0.3876 -0.3282
   87MOL0     H11999   3.126   7.818   5.310  0.1105  0.3509 -0.6994
   87MOL0     H12000   2.918   7.702   5.315  0.2209 -2.1105 -0.0248
   87MOL0     H12001   2.958   7.615   5.165  0.7477 -0.5547 -0.0862
   87MOL0     H12002   2.893   8.022   5.053  1.0840 -0.9502 -1.4208
   87MOL0     H12003   3.395   7.719   4.908 -0.1312 -0.7003  0.7414
   87MOL0     H12004   3.485   7.892   4.782  2.8144  4.9280  1.5760
   87MOL0     H12005   3.658   7.918   4.762  2.5850 -3.0349 -0.4700
   87MOL0     H12006   3.586   7.784   4.675  1.4735  0.4879 -0.1542
   88MOL0     O12007   3.743   7.660   8.394 -0.2868 -0.2807 -0.3953
   88MOL0     C12008   3.847   7.698   8.437  0.0537 -0.0113 -0.1862
   88MOL0     O12009   3.938   7.786   8.374  0.2906  0.0043 -0.6644
   88MOL0     C12010   3.912   7.838   8.251  0.6726  0.1336 -0.8616
   88MOL0     C12011   3.804   7.923   8.232 -0.2518  1.6634 -0.9982
   88MOL0     C12012   3.776   7.982   8.107 -0.9035 -0.0484 -0.0845
   88MOL0     C12013   3.869   7.944   7.994 -1.4635 -0.3628 -0.5201
   88MOL0     O12014   3.845   7.972   7.863  0.1743 -0.2119  0.2631
   88MOL0     C12015   3.732   8.052   7.827  0.1087 -0.4784  0.5892
   88MOL0     C12016   3.638   7.957   7.750  0.9662  0.4435 -0.2433
   88MOL0     C12017   3.514   8.031   7.707 -0.7951 -0.1603  0.1062
   88MOL0     C12018   3.424   7.943   7.630 -0.3795 -0.2787 -0.0435
   88MOL0     C12019   3.290   8.004   7.623 -0.2973  0.2893 -0.5260
   88MOL0     C12020   3.204   7.942   7.508  0.6376 -0.4330 -0.5015
   88MOL0     C12021   3.272   7.930   7.371 -0.1660  0.3507 -0.1411
   88MOL0     C12022   3.316   8.061   7.307 -0.7125 -0.1397 -0.8921
   88MOL0     N12023   3.439   8.121   7.358  1.1375  0.2401  0.6430
   88MOL0     C12024   3.563   8.079   7.314 -1.3460 -0.2589 -0.2000
   88MOL0     C12025   3.637   8.198   7.325  0.7233  0.5622 -0.0999
   88MOL0     C12026   3.780   8.215   7.262  0.7741  0.9049  0.5448
   88MOL0     C12027   3.898   8.177   7.363  1.1683 -0.2189 -0.1906
   88MOL0     C12028   3.885   8.208   7.510  2.0467 -0.8267 -0.8299
   88MOL0     C12029   4.001   8.181   7.600 -0.8929  0.0811  0.1311
   88MOL0     O12030   4.089   8.295   7.589  0.1995 -0.3118  0.2065
   88MOL0     C12031   4.203   8.305   7.665  0.1629 -0.0447 -1.7446
   88MOL0     C12032   4.261   8.432   7.648 -0.2496  0.1434 -0.3521
   88MOL0     C12033   4.370   8.474   7.725 -0.9844  0.9504  0.1467
   88MOL0     C12034   4.429   8.614   7.697  0.5498  0.7139  0.5358
   88MOL0     C12035   4.397   8.389   7.839 -0.5329  0.1076 -0.4022
   88MOL0     C12036   4.490   8.421   7.947  0.6708 -0.2923 -0.3567
   88MOL0     O12037   4.577   8.526   7.938  0.1754  0.2531 -0.3146
   88MOL0     C12038   4.669   8.555   8.043  0.3180  0.8428  0.1513
   88MOL0     C12039   4.670   8.686   8.089  0.0840 -0.0452 -0.1346
   88MOL0     C12040   4.745   8.729   8.197  0.2396 -0.5233 -0.3480
   88MOL0     C12041   4.828   8.633   8.265 -0.1621 -0.2537 -0.0222
   88MOL0     O12042   4.899   8.682   8.368 -0.1763  0.2977  0.3831
   88MOL0     C12043   4.956   8.596   8.472 -0.6775 -0.2774  0.3456
   88MOL0     C12044   5.012   8.687   8.575  0.1730 -0.5634  0.0308
   88MOL0     C12045   5.153   8.732   8.549 -0.2710 -0.1931  0.4686
   88MOL0     C12046   5.200   8.854   8.631  0.5107  0.2719 -1.2759
   88MOL0     C12047   5.353   8.854   8.623  0.3706  0.4355  0.2863
   88MOL0     C12048   5.403   8.978   8.688 -0.6163  0.5106  1.0534
   88MOL0     C12049   5.543   9.005   8.632  0.6897 -0.4715 -0.9336
   88MOL0     C12050   5.630   9.103   8.722 -0.3831 -1.2873 -0.0843
   88MOL0    Cl12051   5.685   9.009   8.866 -0.1312 -0.0169 -0.4053
   88MOL0     C12052   4.829   8.497   8.219 -0.7905  0.1230 -0.3609
   88MOL0     C12053   4.746   8.466   8.108  0.0465  0.2554 -0.3199
   88MOL0     O12054   4.488   8.346   8.048 -0.4015 -0.1021 -0.2210
   88MOL0     C12055   4.343   8.253   7.844 -1.4381  0.2807  0.2879
   88MOL0     C12056   4.252   8.207   7.757  0.4144  0.2562 -0.0954
   88MOL0     N12057   3.556   8.292   7.388 -0.6006 -0.3709  0.5431
   88MOL0     N12058   3.439   8.250   7.395 -0.3497  1.1273 -0.3269
   88MOL0     C12059   3.979   7.864   8.021 -0.0305 -0.0289  0.1059
   88MOL0     C12060   4.002   7.807   8.151 -0.8288  0.9807 -1.0275
   88MOL0     C12061   3.891   7.669   8.576 -0.0145  0.6614 -0.6795
   88MOL0     C12062   3.800   7.647   8.683 -0.4158  0.4214  0.4184
   88MOL0     C12063   3.833   7.629   8.816 -0.4716  0.0805 -0.0817
   88MOL0     C12064   3.968   7.646   8.851 -0.1573  0.6639 -0.3340
   88MOL0     O12065   4.019   7.644   8.982  0.3540 -0.0088  0.5016
   88MOL0     C12066   3.950   7.590   9.097  0.8615  1.1042 -0.1702
   88MOL0     C12067   3.935   7.437   9.089 -0.1868 -0.9006 -0.2068
   88MOL0     C12068   3.853   7.380   9.202 -1.1072  0.2533 -0.1125
   88MOL0     C12069   3.836   7.229   9.179  0.6759  0.1460 -0.0060
   88MOL0     C12070   3.932   7.124   9.232  0.3620 -0.6592 -0.4069
   88MOL0     C12071   4.010   7.034   9.264  0.8297 -0.6723  0.5341
   88MOL0     C12072   4.064   7.664   8.751 -0.2427 -0.7682  0.1446
   88MOL0     C12073   4.032   7.659   8.611 -0.3316 -1.1316  0.0380
   88MOL0     C12074   4.148   7.658   8.510 -0.0518 -0.8110 -0.5810
   88MOL0     H12075   3.735   7.933   8.315 -0.5649  3.6270 -1.4441
   88MOL0     H12076   3.683   8.037   8.097 -0.2519  0.7825 -2.3084
   88MOL0     H12077   3.775   8.117   7.750 -2.0632 -0.1080 -0.3803
   88MOL0     H12078   3.687   8.109   7.909 -2.6506 -0.3322 -0.8966
   88MOL0     H12079   3.700   7.926   7.666  4.5732  2.8854  1.2456
   88MOL0     H12080   3.613   7.879   7.823 -2.8088  1.1878 -0.5719
   88MOL0     H12081   3.468   8.069   7.799  0.7562  0.7123  0.5489
   88MOL0     H12082   3.541   8.127   7.661  0.1773  0.5397  2.0199
   88MOL0     H12083   3.473   7.929   7.533 -0.3810  0.1853 -0.1150
   88MOL0     H12084   3.429   7.837   7.655  2.3653  0.1595  1.7976
   88MOL0     H12085   3.301   8.107   7.587 -0.1199  0.5284  0.1972
   88MOL0     H12086   3.240   7.988   7.719  1.0380  0.7498  0.2805
   88MOL0     H12087   3.158   7.846   7.535 -0.4326  0.7547  2.3212
   88MOL0     H12088   3.131   8.023   7.500  0.8364 -0.1847  0.1218
   88MOL0     H12089   3.200   7.887   7.300 -0.1803  0.3005 -0.0959
   88MOL0     H12090   3.364   7.872   7.378 -0.1712  0.5754  3.3072
   88MOL0     H12091   3.334   8.046   7.201  2.5874 -0.7590 -0.3340
   88MOL0     H12092   3.235   8.132   7.331 -0.7868 -1.6638  4.8122
   88MOL0     H12093   3.601   7.986   7.273 -1.8663 -1.4290  1.8442
   88MOL0     H12094   3.789   8.320   7.234 -0.7036  0.9275  0.0585
   88MOL0     H12095   3.799   8.148   7.178 -1.5432  0.8789 -0.0426
   88MOL0     H12096   3.915   8.072   7.337 -2.8937 -0.5372 -2.3313
   88MOL0     H12097   3.992   8.214   7.322 -0.2494  0.7235 -2.8528
   88MOL0     H12098   3.861   8.315   7.507 -2.2392 -1.5581  0.0444
   88MOL0     H12099   3.791   8.157   7.535  1.0606  1.8234  1.3588
   88MOL0     H12100   3.967   8.185   7.703 -2.6262 -1.5909 -0.3074
   88MOL0     H12101   4.056   8.091   7.571 -1.2958 -0.2996  0.5154
   88MOL0     H12102   4.225   8.489   7.563 -0.8269  1.0910  0.5007
   88MOL0     H12103   4.536   8.601   7.676  0.5969 -0.1042  1.2296
   88MOL0     H12104   4.403   8.682   7.779 -0.8074  0.3297  0.4370
   88MOL0     H12105   4.398   8.648   7.598 -2.4710 -3.4849 -0.2532
   88MOL0     H12106   4.618   8.762   8.031  3.7158  1.9567 -1.0995
   88MOL0     H12107   4.730   8.830   8.234 -1.3740 -0.8661  0.0233
   88MOL0     H12108   4.869   8.548   8.517 -0.8976  0.7527  1.0470
   88MOL0     H12109   5.030   8.533   8.420 -0.5952  0.0777  0.0308
   88MOL0     H12110   4.942   8.765   8.609  1.2269  1.6894 -2.5808
   88MOL0     H12111   5.020   8.624   8.664  0.6858 -0.7219 -0.1295
   88MOL0     H12112   5.154   8.761   8.444  1.4155  1.5740  0.9094
   88MOL0     H12113   5.208   8.639   8.562 -1.7939 -1.2002 -0.0426
   88MOL0     H12114   5.168   8.847   8.735 -2.0294  0.1869 -1.9839
   88MOL0     H12115   5.159   8.948   8.593  0.7622  1.0242  0.2643
   88MOL0     H12116   5.405   8.762   8.652 -1.3894 -0.2364  1.4374
   88MOL0     H12117   5.374   8.861   8.515 -1.2622 -1.3944 -0.2074
   88MOL0     H12118   5.420   8.956   8.793 -2.6903 -3.6930  0.7253
   88MOL0     H12119   5.350   9.071   8.665 -3.2440 -1.3542 -1.2980
   88MOL0     H12120   5.540   9.039   8.528  0.2411 -2.3855 -1.5840
   88MOL0     H12121   5.597   8.910   8.634  3.6012  1.0157 -1.6662
   88MOL0     H12122   5.574   9.193   8.749 -1.6967 -1.9736 -0.4466
   88MOL0     H12123   5.715   9.132   8.659 -2.5729  1.3245 -2.0892
   88MOL0     H12124   4.894   8.423   8.265  0.1780  2.5915  2.5830
   88MOL0     H12125   4.750   8.360   8.084 -2.4575 -1.3352  4.7731
   88MOL0     H12126   4.378   8.178   7.914  0.8842  2.0203  1.1061
   88MOL0     H12127   4.193   8.116   7.753 -0.8044  1.0423 -0.7130
   88MOL0     H12128   4.057   7.864   7.946  1.5291  1.8425  1.6206
   88MOL0     H12129   4.089   7.745   8.172 -0.1249  2.2859  0.0122
   88MOL0     H12130   3.695   7.635   8.658 -0.3443 -0.2053  0.3885
   88MOL0     H12131   3.762   7.605   8.894 -1.5665  1.4113 -0.6298
   88MOL0     H12132   4.004   7.612   9.190 -3.4775  0.2612  2.8564
   88MOL0     H12133   3.854   7.642   9.096  0.4399  0.3417 -1.9096
   88MOL0     H12134   4.035   7.399   9.068  1.0508  1.6340  0.6656
   88MOL0     H12135   3.873   7.427   8.999  1.8084 -0.4785 -1.6975
   88MOL0     H12136   3.894   7.412   9.299 -0.8114  1.8650 -0.7250
   88MOL0     H12137   3.757   7.432   9.199  0.2916  3.6140  3.6831
   88MOL0     H12138   3.830   7.207   9.073  1.0350 -0.1544  0.0348
   88MOL0     H12139   3.747   7.206   9.238 -1.3543 -0.3355 -3.0933
   88MOL0     H12140   4.081   6.964   9.304  3.2979  1.4459  0.1220
   88MOL0     H12141   4.169   7.664   8.779 -0.4346  2.0612  1.1561
   88MOL0     H12142   4.209   7.570   8.532  1.0623 -0.0778 -0.6305
   88MOL0     H12143   4.128   7.641   8.404  3.2373 -2.1888 -1.0912
   88MOL0     H12144   4.206   7.751   8.513  0.8720 -1.3757 -0.3459
   89MOL0     O12145  11.145  11.346   8.507  0.0579  0.1871 -0.3273
   89MOL0     C12146  11.061  11.380   8.420 -0.2291  1.1547 -0.3485
   89MOL0     O12147  10.927  11.373   8.438 -0.0858 -0.7627  0.3430
   89MOL0     C12148  10.873  11.278   8.521  0.3684  0.4202 -0.9859
   89MOL0     C12149  10.929  11.150   8.562  0.1768 -0.1541  0.0778
   89MOL0     C12150  10.848  11.059   8.643 -1.1509 -0.4274  0.5644
   89MOL0     C12151  10.723  11.081   8.692  0.1749  0.0530 -1.6310
   89MOL0     O12152  10.665  10.990   8.777 -0.3774 -0.1840 -0.3976
   89MOL0     C12153  10.575  11.037   8.882  0.7488  0.9072  0.1396
   89MOL0     C12154  10.544  10.960   9.006  0.0430 -0.7396  0.2813
   89MOL0     C12155  10.666  10.900   9.076  0.8730 -0.2258  0.0189
   89MOL0     C12156  10.697  10.764   9.004  0.1915  0.0366 -0.3198
   89MOL0     C12157  10.800  10.673   9.068 -0.7940 -0.9279 -0.0205
   89MOL0     C12158  10.820  10.557   8.980  0.1900  0.2432 -0.6793
   89MOL0     C12159  10.944  10.469   9.007  0.5608  0.7702 -1.7725
   89MOL0     C12160  10.965  10.428   9.153  0.2549  0.3352  1.3969
   89MOL0     N12161  10.879  10.324   9.205 -0.3865  0.0834 -0.2181
   89MOL0     C12162  10.908  10.193   9.204  0.8039 -0.2873 -0.5980
   89MOL0     C12163  10.796  10.138   9.262 -0.1408  1.4958  0.4732
   89MOL0     C12164  10.758   9.992   9.275  0.8308  0.7547  0.1092
   89MOL0     C12165  10.886   9.906   9.318  0.9971  0.2968  0.0425
   89MOL0     C12166  10.843   9.793   9.415  0.0434 -0.1757 -0.1199
   89MOL0     C12167  10.954   9.699   9.443  0.3874 -0.1171  1.1533
   89MOL0     O12168  11.017   9.630   9.327  0.6681 -0.4191  0.5440
   89MOL0     C12169  10.968   9.511   9.282 -0.5012  0.4948 -0.3641
   89MOL0     C12170  10.840   9.479   9.260  0.1850  0.2059  0.1308
   89MOL0     C12171  10.814   9.349   9.210  0.8172 -1.0961  0.2205
   89MOL0     C12172  10.668   9.306   9.180  0.6096  0.4518 -0.4530
   89MOL0     C12173  10.912   9.255   9.189  0.6660  0.6729  0.3610
   89MOL0     C12174  10.898   9.116   9.148  0.9247  0.6663 -0.2247
   89MOL0     O12175  11.007   9.058   9.087 -0.6432  0.9933  0.3681
   89MOL0     C12176  11.009   8.923   9.072  0.0202  0.5095  0.6110
   89MOL0     C12177  11.109   8.841   9.113 -0.7242 -0.3988  0.0080
   89MOL0     C12178  11.110   8.710   9.082 -0.6111 -0.1479 -0.0995
   89MOL0     C12179  11.010   8.646   9.016  0.0183  0.8180 -0.8968
   89MOL0     O12180  11.025   8.518   8.983  0.5481 -0.6935 -0.4911
   89MOL0     C12181  10.955   8.455   8.883 -0.8113 -0.2114  0.3646
   89MOL0     C12182  10.957   8.297   8.893  0.5072  0.1161  0.7690
   89MOL0     C12183  11.092   8.241   8.928 -0.9785  0.2653 -0.3148
   89MOL0     C12184  11.113   8.090   8.897  0.5387 -0.0159 -0.4354
   89MOL0     C12185  10.996   8.002   8.948 -0.0045  0.1654 -0.7689
   89MOL0     C12186  11.017   7.860   8.911  0.1299  0.0370  0.8986
   89MOL0     C12187  10.905   7.769   8.968 -0.6185  0.9297  0.3430
   89MOL0     C12188  10.919   7.627   8.906  0.0338  0.0015  0.4833
   89MOL0    Cl12189  11.087   7.560   8.930 -0.2594  0.0133  0.5406
   89MOL0     C12190  10.910   8.727   8.962 -0.0521  0.9371 -0.0659
   89MOL0     C12191  10.904   8.862   8.991 -0.9691  0.1457  0.4689
   89MOL0     O12192  10.799   9.059   9.200 -0.4572  0.5029  1.3083
   89MOL0     C12193  11.044   9.291   9.213  0.3591 -0.8247  0.2538
   89MOL0     C12194  11.070   9.425   9.243 -1.3446 -0.1775 -0.1691
   89MOL0     N12195  10.703  10.236   9.302 -0.6121  0.2602 -0.5873
   89MOL0     N12196  10.759  10.343   9.273 -0.4797 -0.6345  0.0131
   89MOL0     C12197  10.676  11.210   8.662 -0.0677 -0.2182  0.6465
   89MOL0     C12198  10.743  11.298   8.575  0.6437  0.7592  0.4545
   89MOL0     C12199  11.113  11.446   8.285 -1.0437  0.3547  0.1443
   89MOL0     C12200  11.027  11.538   8.229 -0.7634  0.1502 -0.0071
   89MOL0     C12201  11.071  11.608   8.109  0.4388 -0.5716 -0.3627
   89MOL0     C12202  11.200  11.597   8.061  0.0532 -0.7281 -0.8700
   89MOL0     O12203  11.241  11.671   7.953 -0.8077  0.0400  0.4609
   89MOL0     C12204  11.359  11.746   7.956 -0.1448 -0.3239  0.2963
   89MOL0     C12205  11.344  11.891   7.986 -0.6342 -0.1227  1.1607
   89MOL0     C12206  11.252  11.927   8.096  0.3263  0.6237 -0.2445
   89MOL0     C12207  11.207  12.072   8.092  1.1915 -0.5406  0.0471
   89MOL0     C12208  11.133  12.105   8.208 -0.3043  0.9817 -0.8279
   89MOL0     C12209  11.085  12.145   8.306  0.6120  0.1479  0.4732
   89MOL0     C12210  11.274  11.496   8.105 -0.7936  0.5108 -0.7731
   89MOL0     C12211  11.239  11.424   8.221 -0.3385  0.0636  0.5245
   89MOL0     C12212  11.331  11.322   8.278  0.9142  0.3791 -0.4302
   89MOL0     H12213  11.025  11.118   8.523 -0.9665 -1.6660 -1.6207
   89MOL0     H12214  10.869  10.952   8.648  1.9039  0.0829  0.3228
   89MOL0     H12215  10.473  11.035   8.843 -0.3617 -0.0144  2.8405
   89MOL0     H12216  10.602  11.139   8.912 -1.3528  1.1529  1.4048
   89MOL0     H12217  10.506  11.039   9.072  5.2723  3.0438 -0.5476
   89MOL0     H12218  10.471  10.884   8.977  0.1106 -0.1973 -1.4235
   89MOL0     H12219  10.755  10.962   9.083  0.3975  0.5818 -0.8692
   89MOL0     H12220  10.647  10.860   9.176 -2.8039 -4.5358 -1.9789
   89MOL0     H12221  10.599  10.716   8.992 -0.4344  1.5179 -1.4167
   89MOL0     H12222  10.728  10.776   8.900  3.4201 -2.5415  0.1876
   89MOL0     H12223  10.765  10.640   9.166 -0.4822 -1.8161 -0.1962
   89MOL0     H12224  10.893  10.725   9.093  0.3354 -2.5975 -0.5205
   89MOL0     H12225  10.731  10.498   8.999 -1.3581  2.4790 -0.5689
   89MOL0     H12226  10.818  10.580   8.873 -0.8875  1.1099 -0.4853
   89MOL0     H12227  11.033  10.528   8.983 -0.1023  2.3917 -0.4018
   89MOL0     H12228  10.930  10.380   8.944 -0.7850  1.3939 -2.3970
   89MOL0     H12229  11.067  10.391   9.156  0.1148 -0.6699 -2.1761
   89MOL0     H12230  10.954  10.518   9.215 -0.9004 -0.1896  2.0059
   89MOL0     H12231  10.999  10.145   9.168  0.7554 -1.2104  0.4637
   89MOL0     H12232  10.720   9.952   9.181 -2.3638  2.4024  0.5745
   89MOL0     H12233  10.670   9.989   9.340  2.8080  0.9278  2.9596
   89MOL0     H12234  10.931   9.870   9.226 -0.1883  2.9385 -1.7036
   89MOL0     H12235  10.960   9.968   9.370  2.5834 -0.5935 -1.1146
   89MOL0     H12236  10.807   9.842   9.506  0.5425  0.6291 -0.3494
   89MOL0     H12237  10.760   9.740   9.367 -1.0322  2.3442 -1.2066
   89MOL0     H12238  11.036   9.751   9.493 -0.7175  2.3798  0.5288
   89MOL0     H12239  10.915   9.619   9.507 -0.3274 -1.6460 -1.0867
   89MOL0     H12240  10.753   9.542   9.275 -0.9029 -0.0659 -3.8942
   89MOL0     H12241  10.615   9.400   9.166 -0.1819  0.4434  2.0034
   89MOL0     H12242  10.627   9.248   9.263  1.0095 -0.4468 -0.8622
   89MOL0     H12243  10.666   9.241   9.092  0.7759 -1.7598  1.0824
   89MOL0     H12244  11.186   8.889   9.171 -1.6030  0.6617  0.3368
   89MOL0     H12245  11.186   8.638   9.110 -0.0861  0.4750  0.0958
   89MOL0     H12246  10.850   8.486   8.879 -0.4349  1.1803  0.6116
   89MOL0     H12247  10.993   8.497   8.789 -0.2006 -0.1791  0.6189
   89MOL0     H12248  10.886   8.251   8.963  1.1597 -0.3415  1.1483
   89MOL0     H12249  10.920   8.255   8.799 -0.1004 -1.0186  1.4941
   89MOL0     H12250  11.117   8.263   9.032  2.0017  1.4397 -1.1857
   89MOL0     H12251  11.164   8.297   8.867 -0.4302  0.7266  0.7224
   89MOL0     H12252  11.208   8.062   8.943  1.5698 -2.7937 -3.8143
   89MOL0     H12253  11.101   8.082   8.788  0.9855 -4.8472 -0.3232
   89MOL0     H12254  10.981   8.011   9.056 -1.4882  1.1181 -1.0367
   89MOL0     H12255  10.898   8.037   8.914  0.3533  1.8051 -0.2228
   89MOL0     H12256  11.111   7.840   8.963 -0.6414  0.0057  2.3610
   89MOL0     H12257  11.019   7.860   8.802  2.5948  1.1044  0.8828
   89MOL0     H12258  10.811   7.812   8.934 -0.5474 -0.7654 -2.2609
   89MOL0     H12259  10.908   7.764   9.077 -0.0169 -1.0086  0.2711
   89MOL0     H12260  10.900   7.609   8.800  0.1902 -5.1499  1.0733
   89MOL0     H12261  10.838   7.564   8.946  1.0228 -2.9405 -1.7794
   89MOL0     H12262  10.826   8.686   8.907 -0.5373 -1.6552  2.3639
   89MOL0     H12263  10.835   8.932   8.944  0.6601 -0.2472 -2.7473
   89MOL0     H12264  11.132   9.231   9.194  0.3416 -1.1722  1.2268
   89MOL0     H12265  11.170   9.463   9.226  0.6355 -3.0754  3.4341
   89MOL0     H12266  10.578  11.245   8.693  0.2676  0.5954  0.8009
   89MOL0     H12267  10.705  11.392   8.537 -0.7398 -0.3239 -0.9544
   89MOL0     H12268  10.928  11.563   8.266 -0.9086  2.1486 -1.5789
   89MOL0     H12269  10.991  11.657   8.055 -0.5545  0.1623  1.6755
   89MOL0     H12270  11.432  11.713   8.030 -0.8219 -0.0818  1.0876
   89MOL0     H12271  11.410  11.728   7.861  3.4969  0.3863  1.9507
   89MOL0     H12272  11.325  11.934   7.887 -0.8956  0.7984  1.6039
   89MOL0     H12273  11.443  11.929   8.013  0.8287 -2.9681  0.1733
   89MOL0     H12274  11.170  11.855   8.087  2.4333 -2.1358  1.1316
   89MOL0     H12275  11.300  11.917   8.194  0.5022  0.4703 -0.3456
   89MOL0     H12276  11.154  12.085   7.997  1.6120 -2.5935 -0.5140
   89MOL0     H12277  11.302  12.125   8.092  1.0088 -0.2088  0.1385
   89MOL0     H12278  11.035  12.184   8.393 -0.1966  2.1824 -0.8293
   89MOL0     H12279  11.376  11.496   8.067  0.6187  1.9643  2.6183
   89MOL0     H12280  11.348  11.330   8.386  2.7770 -1.8615 -0.4845
   89MOL0     H12281  11.295  11.220   8.265  1.4358  0.0571  0.5135
   89MOL0     H12282  11.427  11.326   8.226  1.4104 -2.5850  0.0663
   90MOL0     O12283   7.035  11.520   4.507 -0.1915  0.8634 -0.0321
   90MOL0     C12284   7.041  11.401   4.467  0.6026 -0.4346  0.7023
   90MOL0     O12285   6.930  11.316   4.451 -0.2529 -0.2032 -0.6677
   90MOL0     C12286   6.810  11.355   4.498  0.5538  0.3271 -0.1501
   90MOL0     C12287   6.750  11.273   4.595 -0.0796 -0.3882  0.1246
   90MOL0     C12288   6.624  11.306   4.644 -0.3047 -0.4454 -0.5941
   90MOL0     C12289   6.565  11.424   4.601  0.5484  1.0911  0.2308
   90MOL0     O12290   6.449  11.458   4.663  0.1252 -0.1285 -0.8895
   90MOL0     C12291   6.397  11.589   4.643  1.0128  0.1090 -0.5765
   90MOL0     C12292   6.301  11.606   4.765  0.1503  0.5526 -0.3693
   90MOL0     C12293   6.264  11.758   4.785 -0.0536  0.0289 -0.5849
   90MOL0     C12294   6.198  11.806   4.652 -0.1663 -0.1593 -0.1904
   90MOL0     C12295   6.123  11.940   4.687  0.2563 -0.2060  1.0259
   90MOL0     C12296   6.205  12.058   4.761 -0.7382 -0.2645  0.6095
   90MOL0     C12297   6.108  12.161   4.805 -0.6709  0.3665 -0.6194
   90MOL0     C12298   6.179  12.281   4.872 -0.1112 -0.2050 -0.5184
   90MOL0     N12299   6.250  12.356   4.771  0.1778  0.2226 -0.0401
   90MOL0     C12300   6.383  12.370   4.753 -0.2027  0.0596  0.5626
   90MOL0     C12301   6.393  12.443   4.643  1.1357  0.5421 -0.3160
   90MOL0     C12302   6.526  12.492   4.587 -0.6758 -0.2564  0.4654
   90MOL0     C12303   6.541  12.488   4.434  0.6156 -0.5431 -0.0087
   90MOL0     C12304   6.672  12.558   4.404  0.1478 -0.0861 -0.0880
   90MOL0     C12305   6.717  12.539   4.263  0.6838  0.8008  0.7393
   90MOL0     O12306   6.761  12.403   4.266  0.9886  1.2968  0.4629
   90MOL0     C12307   6.882  12.367   4.195  0.0964 -0.5966 -0.3244
   90MOL0     C12308   6.928  12.432   4.078 -0.8380  0.7969  0.2423
   90MOL0     C12309   7.038  12.401   4.000 -0.5536  0.5614  0.0168
   90MOL0     C12310   7.050  12.464   3.859 -0.8558 -0.5336 -0.0085
   90MOL0     C12311   7.111  12.298   4.053  0.1407  0.4169  0.8044
   90MOL0     C12312   7.236  12.257   3.977 -0.0186  0.4917  0.2414
   90MOL0     O12313   7.295  12.129   3.991  0.1138 -0.4830 -0.0421
   90MOL0     C12314   7.423  12.099   3.937  0.9431 -0.2702  0.7071
   90MOL0     C12315   7.524  12.023   4.007  0.6104  0.3364 -0.0433
   90MOL0     C12316   7.652  12.005   3.959 -0.8565 -1.1157  0.3095
   90MOL0     C12317   7.682  12.042   3.827  1.0983  0.2941  0.3753
   90MOL0     O12318   7.790  12.006   3.763  0.1364  0.0882  0.0562
   90MOL0     C12319   7.863  12.116   3.719  0.3956  0.7802  0.1968
   90MOL0     C12320   8.016  12.086   3.738 -0.5976 -0.5148  0.1400
   90MOL0     C12321   8.062  12.038   3.871 -0.0165  0.0697 -0.3007
   90MOL0     C12322   8.029  11.890   3.905  0.7117  0.7145  0.7682
   90MOL0     C12323   8.032  11.868   4.059 -0.1843 -0.1826  0.0271
   90MOL0     C12324   8.173  11.913   4.125 -0.2826 -0.7209  0.1859
   90MOL0     C12325   8.167  11.851   4.262  0.3221 -0.9092  0.2388
   90MOL0     C12326   8.279  11.916   4.339 -0.3559 -1.2015 -0.1425
   90MOL0    Cl12327   8.278  11.887   4.517  0.1412  0.5138  0.0203
   90MOL0     C12328   7.574  12.088   3.752  0.1382 -0.7726 -0.3722
   90MOL0     C12329   7.448  12.134   3.798 -0.8468  0.8210  0.7725
   90MOL0     O12330   7.300  12.350   3.929 -0.2721 -0.5439 -0.2572
   90MOL0     C12331   7.075  12.229   4.170 -0.0153 -0.1276 -0.2445
   90MOL0     C12332   6.951  12.256   4.233  0.4730 -0.5317  0.1706
   90MOL0     N12333   6.269  12.488   4.591 -0.4539 -0.2451 -0.9603
   90MOL0     N12334   6.180  12.436   4.669 -0.1038 -0.1117  0.0693
   90MOL0     C12335   6.615  11.497   4.501  0.2421  0.1281  0.2195
   90MOL0     C12336   6.735  11.463   4.445  0.1612  0.1369  0.6001
   90MOL0     C12337   7.173  11.351   4.424  0.1130  0.5820  0.4386
   90MOL0     C12338   7.181  11.232   4.344  0.1288  0.2503  0.5587
   90MOL0     C12339   7.296  11.193   4.272 -0.5027 -0.5617  0.4368
   90MOL0     C12340   7.405  11.278   4.262 -0.9014  0.1160 -1.2358
   90MOL0     O12341   7.511  11.226   4.189 -0.2051  0.0394 -0.5007
   90MOL0     C12342   7.603  11.321   4.146 -0.4314 -0.2490  0.9639
   90MOL0     C12343   7.690  11.267   4.034 -0.0709  0.0663  0.3564
   90MOL0     C12344   7.741  11.361   3.934  0.1894 -0.3583  0.4733
   90MOL0     C12345   7.785  11.500   3.983  1.5532 -0.3240  0.1750
   90MOL0     C12346   7.902  11.495   4.074 -0.4430 -0.3203 -0.6346
   90MOL0     C12347   7.999  11.506   4.148 -1.0788 -0.3653  0.3008
   90MOL0     C12348   7.401  11.389   4.338  0.0611  0.9516  0.8958
   90MOL0     C12349   7.287  11.430   4.414  0.8373  0.1099  0.9383
   90MOL0     C12350   7.294  11.567   4.480  0.2033 -0.0378 -0.9345
   90MOL0     H12351   6.811  11.193   4.637  2.2848  1.1273 -0.1983
   90MOL0     H12352   6.581  11.249   4.725  0.0858 -2.6012 -1.8204
   90MOL0     H12353   6.350  11.601   4.545 -0.4478  1.3620  0.2386
   90MOL0     H12354   6.476  11.662   4.662  1.3882 -0.5678  0.5219
   90MOL0     H12355   6.212  11.548   4.743  0.2271  0.5239 -0.6097
   90MOL0     H12356   6.346  11.562   4.854 -1.1812 -3.8991 -1.6759
   90MOL0     H12357   6.203  11.769   4.876  2.7631 -2.2158  1.7798
   90MOL0     H12358   6.358  11.805   4.814  1.1244 -2.5532  0.1007
   90MOL0     H12359   6.277  11.839   4.584  1.6918  1.2860  2.4635
   90MOL0     H12360   6.139  11.728   4.605  1.4235 -0.0929 -2.4317
   90MOL0     H12361   6.043  11.913   4.756 -1.1374 -1.4332 -0.9402
   90MOL0     H12362   6.069  11.958   4.593 -0.9275 -3.7120  0.8930
   90MOL0     H12363   6.259  12.001   4.837 -2.6474 -1.8743  0.8096
   90MOL0     H12364   6.280  12.108   4.698 -1.1628 -0.5720 -0.1475
   90MOL0     H12365   6.039  12.119   4.879 -1.7940  1.6620 -0.8934
   90MOL0     H12366   6.034  12.200   4.734 -0.0050  0.4325 -1.2926
   90MOL0     H12367   6.109  12.361   4.899 -0.6167 -1.0848  0.8705
   90MOL0     H12368   6.239  12.252   4.958  0.4497  0.1540 -0.7808
   90MOL0     H12369   6.464  12.335   4.818 -1.4202 -2.8510  0.6873
   90MOL0     H12370   6.616  12.447   4.630 -0.3083 -1.6552 -1.6201
   90MOL0     H12371   6.526  12.595   4.623 -1.1718 -0.8201  2.2071
   90MOL0     H12372   6.541  12.382   4.407 -3.1399 -0.7463  0.2960
   90MOL0     H12373   6.457  12.538   4.385  0.9400  1.5977  1.4856
   90MOL0     H12374   6.656  12.663   4.430 -3.7807 -0.4083 -0.5148
   90MOL0     H12375   6.754  12.516   4.463  0.9783  1.7622  0.1350
   90MOL0     H12376   6.636  12.556   4.192  1.7362 -0.2189 -0.7626
   90MOL0     H12377   6.804  12.598   4.233  0.8215  0.3757  0.2849
   90MOL0     H12378   6.863  12.513   4.046 -2.3740  0.1600  1.5787
   90MOL0     H12379   7.139  12.526   3.846 -0.6891 -0.9164 -0.7573
   90MOL0     H12380   6.969  12.536   3.843  1.1022  2.4449  2.3999
   90MOL0     H12381   7.044  12.387   3.781  1.2911 -0.8933  0.1357
   90MOL0     H12382   7.499  11.980   4.103  0.5611 -1.6865 -0.8948
   90MOL0     H12383   7.728  11.945   4.007  1.8677  1.7233 -0.1318
   90MOL0     H12384   7.843  12.122   3.612  3.5656 -0.9454 -0.6067
   90MOL0     H12385   7.836  12.210   3.767 -1.8349 -0.7769  2.2213
   90MOL0     H12386   8.056  12.020   3.660  1.0656 -0.0689  0.5656
   90MOL0     H12387   8.079  12.175   3.723  1.0635 -1.5207  0.8828
   90MOL0     H12388   8.010  12.103   3.942  1.0856  1.8573 -1.0776
   90MOL0     H12389   8.169  12.057   3.878 -0.2240  0.6605  3.4632
   90MOL0     H12390   8.102  11.826   3.855 -1.5475  0.7316 -2.9056
   90MOL0     H12391   7.930  11.862   3.868  0.3274  1.1688  1.4144
   90MOL0     H12392   7.946  11.915   4.106 -2.1052 -1.9179 -1.5344
   90MOL0     H12393   8.021  11.761   4.079  0.0943 -0.0393  0.9638
   90MOL0     H12394   8.177  12.022   4.125 -4.7810 -0.3959 -0.3350
   90MOL0     H12395   8.257  11.881   4.062  0.6314 -0.4349  1.2159
   90MOL0     H12396   8.177  11.742   4.258  0.8086 -0.9068  0.9983
   90MOL0     H12397   8.071  11.865   4.311  1.4388  0.8139  2.0811
   90MOL0     H12398   8.281  12.024   4.320  2.0210 -0.9346  1.1834
   90MOL0     H12399   8.378  11.890   4.301  1.2430 -0.6742  3.3127
   90MOL0     H12400   7.585  12.112   3.647  1.0054  0.3921 -0.0238
   90MOL0     H12401   7.368  12.169   3.733  0.2146 -1.2334 -1.7897
   90MOL0     H12402   7.138  12.144   4.192  1.7424  0.6961 -1.7850
   90MOL0     H12403   6.920  12.196   4.318  3.9041  2.0941  3.6708
   90MOL0     H12404   6.557  11.584   4.474  0.1606  0.7337  2.1728
   90MOL0     H12405   6.783  11.511   4.360  0.0429  2.2072  1.6497
   90MOL0     H12406   7.089  11.177   4.326  1.0088 -0.7587 -1.1374
   90MOL0     H12407   7.291  11.105   4.208 -4.4938 -0.2870  0.1308
   90MOL0     H12408   7.550  11.409   4.108 -2.6151 -1.5162  0.8606
   90MOL0     H12409   7.664  11.353   4.231 -0.0039  1.2501  0.1345
   90MOL0     H12410   7.628  11.201   3.973  0.1778  3.4388 -4.0283
   90MOL0     H12411   7.784  11.222   4.066 -0.5491 -1.5131 -0.3465
   90MOL0     H12412   7.819  11.312   3.875  0.7959  3.1919 -2.0052
   90MOL0     H12413   7.666  11.374   3.855  2.7871  1.8898 -1.8179
   90MOL0     H12414   7.704  11.547   4.040  0.8817 -3.6557  2.2715
   90MOL0     H12415   7.790  11.563   3.894  2.7105  1.1882  1.2396
   90MOL0     H12416   8.091  11.496   4.202  1.3619 -3.8124 -3.9042
   90MOL0     H12417   7.484  11.457   4.321 -0.3043  1.2303  0.1717
   90MOL0     H12418   7.228  11.647   4.446 -0.8730 -1.1427 -1.5534
   90MOL0     H12419   7.282  11.561   4.589  2.5185  1.2489 -0.5470
   90MOL0     H12420   7.398  11.598   4.463 -0.4185  3.2547  0.6054
   91MOL0     O12421   4.058   8.494   2.297  0.6574 -0.5116 -0.3386
   91MOL0     C12422   3.965   8.431   2.345 -0.3393 -0.7224  0.0407
   91MOL0     O12423   3.846   8.486   2.406 -0.1048 -0.4783  0.1300
   91MOL0     C12424   3.845   8.620   2.439 -0.1969 -0.9755 -0.1226
   91MOL0     C12425   3.766   8.657   2.554 -0.7171  0.4647 -0.0714
   91MOL0     C12426   3.774   8.790   2.599 -0.5864 -0.5885  0.5888
   91MOL0     C12427   3.825   8.891   2.522 -0.2669  0.3987 -0.4799
   91MOL0     O12428   3.810   9.029   2.530  0.8617  1.1111 -1.0859
   91MOL0     C12429   3.857   9.085   2.649 -0.1480  0.5208 -0.0157
   91MOL0     C12430   4.010   9.081   2.648 -0.8013 -0.0983  0.2783
   91MOL0     C12431   4.091   9.101   2.785 -0.6051 -0.4790 -0.2295
   91MOL0     C12432   4.037   9.204   2.885 -0.8802 -0.1419  0.2150
   91MOL0     C12433   4.027   9.162   3.027  0.7354 -0.6764 -1.1855
   91MOL0     C12434   3.928   9.049   3.048  0.2188 -0.1127  1.4183
   91MOL0     C12435   3.872   9.040   3.189 -0.7473  0.3926 -0.6861
   91MOL0     C12436   3.790   8.907   3.203  1.2014  0.2983  0.0241
   91MOL0     N12437   3.674   8.885   3.109  0.7133 -0.0117 -0.2025
   91MOL0     C12438   3.547   8.934   3.138 -0.1810  0.1751 -0.0586
   91MOL0     C12439   3.469   8.901   3.031  0.1322  0.0902 -0.5043
   91MOL0     C12440   3.319   8.939   3.013  0.0467  0.1419  0.6627
   91MOL0     C12441   3.227   8.823   3.053  0.1337 -1.4400 -0.2655
   91MOL0     C12442   3.218   8.728   2.941  0.0152  1.0766  1.5002
   91MOL0     C12443   3.133   8.602   2.963 -0.3325 -0.3659 -0.5287
   91MOL0     O12444   3.199   8.519   3.066 -0.4642  1.0522  0.4118
   91MOL0     C12445   3.125   8.433   3.140 -0.5566 -0.1904 -1.4744
   91MOL0     C12446   3.000   8.385   3.115 -0.4523  0.0258 -0.1410
   91MOL0     C12447   2.926   8.304   3.205  0.1317 -0.2898  0.5604
   91MOL0     C12448   2.792   8.274   3.147 -0.1933  0.1643  0.0332
   91MOL0     C12449   2.987   8.262   3.323  0.9141 -0.5799 -0.4779
   91MOL0     C12450   2.917   8.166   3.406 -0.7864  0.4894 -0.2768
   91MOL0     O12451   2.779   8.160   3.409  0.5903  0.4432 -0.4702
   91MOL0     C12452   2.709   8.041   3.447  0.3213 -0.5577  0.0705
   91MOL0     C12453   2.570   8.056   3.432  0.0967  0.0746 -0.2443
   91MOL0     C12454   2.486   7.940   3.439 -0.7346  0.3177 -0.7707
   91MOL0     C12455   2.530   7.823   3.495 -0.4367  0.2585 -0.6461
   91MOL0     O12456   2.463   7.712   3.551  0.4479  0.5871  0.5347
   91MOL0     C12457   2.324   7.754   3.578 -0.3674  0.0681  0.1556
   91MOL0     C12458   2.251   7.634   3.640  0.9272 -0.4160 -0.6918
   91MOL0     C12459   2.326   7.589   3.762 -0.4418  0.4596 -0.1350
   91MOL0     C12460   2.240   7.512   3.863 -0.3257  0.6705 -1.3464
   91MOL0     C12461   2.155   7.403   3.801 -0.0062  0.6628  0.0935
   91MOL0     C12462   2.230   7.289   3.729  0.4543  0.2238  1.1987
   91MOL0     C12463   2.161   7.149   3.758 -0.2162  0.1936 -0.4205
   91MOL0     C12464   2.236   7.041   3.678 -0.4742  0.4408  0.0199
   91MOL0    Cl12465   2.231   6.872   3.742  0.0861  0.0947  0.2447
   91MOL0     C12466   2.670   7.817   3.515 -0.4752  1.1080 -0.4855
   91MOL0     C12467   2.758   7.926   3.504  0.3022  0.3663  0.8949
   91MOL0     O12468   2.994   8.101   3.476 -0.2724 -0.2532 -0.6439
   91MOL0     C12469   3.120   8.286   3.343  0.4524 -0.2173 -0.5189
   91MOL0     C12470   3.187   8.369   3.250 -0.8866  0.3468  0.0512
   91MOL0     N12471   3.552   8.861   2.931  0.1781  0.3801  0.6724
   91MOL0     N12472   3.676   8.839   2.976  0.1688  0.7833 -0.5081
   91MOL0     C12473   3.883   8.854   2.398 -0.6412 -0.2105  0.2461
   91MOL0     C12474   3.900   8.724   2.355 -0.2346 -0.1855 -0.3836
   91MOL0     C12475   3.970   8.281   2.367  0.4517 -0.5901 -0.1321
   91MOL0     C12476   3.889   8.221   2.475  0.1386  0.0127  0.3764
   91MOL0     C12477   3.890   8.081   2.495  0.1504 -0.2225  0.4265
   91MOL0     C12478   3.964   7.996   2.417  0.6442  0.3610 -0.3219
   91MOL0     O12479   3.954   7.866   2.428 -0.2603 -0.3243 -0.4495
   91MOL0     C12480   4.080   7.796   2.397 -0.1515  0.2170 -0.2315
   91MOL0     C12481   4.097   7.657   2.468 -0.6637  0.0489 -0.7423
   91MOL0     C12482   4.046   7.643   2.616  0.0155  0.2529  0.8201
   91MOL0     C12483   4.120   7.714   2.731 -0.2977 -0.0392  0.0449
   91MOL0     C12484   4.266   7.707   2.709  0.8253  0.0059 -0.0715
   91MOL0     C12485   4.385   7.713   2.691 -0.7421  0.6283 -0.4270
   91MOL0     C12486   4.025   8.052   2.297 -0.9753  0.4704  0.4579
   91MOL0     C12487   4.032   8.190   2.271  0.0923 -0.8330  0.5114
   91MOL0     C12488   4.094   8.239   2.141  1.0147  0.0627  0.2297
   91MOL0     H12489   3.711   8.587   2.617 -1.9759 -1.5686 -3.1930
   91MOL0     H12490   3.725   8.811   2.693  1.3047  1.2648  1.2330
   91MOL0     H12491   3.818   9.040   2.741  0.4394 -0.4919 -0.2486
   91MOL0     H12492   3.821   9.188   2.653 -0.8469  0.2638  3.0722
   91MOL0     H12493   4.042   8.992   2.593 -0.6028  0.5635 -0.6805
   91MOL0     H12494   4.046   9.172   2.600  1.2488 -0.5663  0.8125
   91MOL0     H12495   4.085   9.001   2.830  2.0908 -0.5928  0.0005
   91MOL0     H12496   4.196   9.127   2.772 -0.6721  0.6793  1.2265
   91MOL0     H12497   4.115   9.281   2.882  0.5673 -1.4749 -3.9962
   91MOL0     H12498   3.939   9.246   2.862 -1.5904  0.1821  3.4098
   91MOL0     H12499   3.983   9.250   3.075  1.7872  2.7457 -5.7336
   91MOL0     H12500   4.120   9.136   3.077  1.1517  2.4449 -0.1057
   91MOL0     H12501   3.843   9.062   2.980  2.4900 -0.6272 -1.7532
   91MOL0     H12502   3.976   8.954   3.024  0.4874  0.0390  1.3540
   91MOL0     H12503   3.811   9.129   3.203 -0.6984  0.3692 -0.3262
   91MOL0     H12504   3.952   9.033   3.263 -1.9854  1.1582  0.7581
   91MOL0     H12505   3.865   8.827   3.196 -1.1916 -1.9550 -3.1591
   91MOL0     H12506   3.744   8.896   3.301 -1.9398  1.4431 -1.2067
   91MOL0     H12507   3.516   8.973   3.235  2.1332 -1.8751  1.6440
   91MOL0     H12508   3.306   8.980   2.912  0.8255 -0.0327  0.4870
   91MOL0     H12509   3.298   9.025   3.079  2.7546  0.7509  0.8376
   91MOL0     H12510   3.251   8.771   3.146  3.8083 -0.2820 -0.4286
   91MOL0     H12511   3.131   8.866   3.083  0.1772  0.0805 -2.1666
   91MOL0     H12512   3.176   8.783   2.856  0.6213 -0.8001 -0.0998
   91MOL0     H12513   3.314   8.681   2.915 -1.9613 -2.2201 -0.5660
   91MOL0     H12514   3.038   8.630   3.010  1.1971  0.9215  2.0220
   91MOL0     H12515   3.116   8.544   2.872 -2.3263 -0.4416 -0.1644
   91MOL0     H12516   2.942   8.419   3.030  1.4117 -2.3783 -2.5314
   91MOL0     H12517   2.792   8.287   3.038  3.4934  2.0733  0.0881
   91MOL0     H12518   2.716   8.344   3.184 -0.0033  0.8741 -0.8914
   91MOL0     H12519   2.770   8.169   3.168  0.5261  0.2747  1.4544
   91MOL0     H12520   2.522   8.142   3.387 -1.7924 -0.8753 -0.1307
   91MOL0     H12521   2.381   7.953   3.416 -1.3826 -2.7216  0.1094
   91MOL0     H12522   2.314   7.842   3.643 -2.1844  0.7010 -0.9171
   91MOL0     H12523   2.263   7.770   3.489 -1.8003  0.6065  1.1856
   91MOL0     H12524   2.151   7.661   3.677  1.5183  1.6019 -0.4216
   91MOL0     H12525   2.238   7.556   3.565 -1.0364  0.1700 -1.0109
   91MOL0     H12526   2.360   7.679   3.813 -0.9551  0.8397 -0.4457
   91MOL0     H12527   2.409   7.526   3.728 -1.7782 -0.8902 -1.0605
   91MOL0     H12528   2.180   7.587   3.914 -1.0071 -0.4510 -0.4345
   91MOL0     H12529   2.308   7.472   3.940 -0.8258  0.4674 -1.0074
   91MOL0     H12530   2.093   7.367   3.884 -0.9795  0.1956 -0.8255
   91MOL0     H12531   2.077   7.430   3.730  1.1765 -2.1366 -2.4959
   91MOL0     H12532   2.334   7.292   3.763  0.9374  2.0517 -0.2762
   91MOL0     H12533   2.230   7.292   3.620  2.4632 -2.1180  1.0423
   91MOL0     H12534   2.056   7.153   3.728 -0.5028 -0.2637  0.4963
   91MOL0     H12535   2.168   7.122   3.864  1.8269  0.9634 -0.3203
   91MOL0     H12536   2.341   7.073   3.672 -0.4222  0.6411  1.4909
   91MOL0     H12537   2.194   7.028   3.578 -1.4459 -0.7621  0.5694
   91MOL0     H12538   2.690   7.733   3.581 -2.4841 -0.2024 -1.4661
   91MOL0     H12539   2.864   7.909   3.519  0.1412  0.4892  2.3690
   91MOL0     H12540   3.175   8.262   3.434 -0.3873 -1.9264 -0.4126
   91MOL0     H12541   3.288   8.389   3.283 -1.2718  1.7850  0.4545
   91MOL0     H12542   3.906   8.939   2.335  1.3395 -2.1976 -1.9179
   91MOL0     H12543   3.940   8.724   2.254 -1.0498  0.4432 -0.7189
   91MOL0     H12544   3.837   8.277   2.552  0.5433  0.0118  0.6562
   91MOL0     H12545   3.834   8.043   2.580 -1.0452  2.9623  1.2155
   91MOL0     H12546   4.096   7.774   2.290 -0.9674  0.6909 -0.4545
   91MOL0     H12547   4.159   7.860   2.440 -1.0592 -0.7302  3.1178
   91MOL0     H12548   4.200   7.626   2.451 -1.1049 -0.5376 -2.4501
   91MOL0     H12549   4.030   7.604   2.400 -1.7557  2.8460 -2.0191
   91MOL0     H12550   3.943   7.678   2.608 -0.1707 -0.4720 -0.0826
   91MOL0     H12551   4.047   7.535   2.629  0.2763 -0.3613 -3.1315
   91MOL0     H12552   4.087   7.674   2.828  0.9668 -0.3368  0.3673
   91MOL0     H12553   4.077   7.814   2.720  1.7856  0.7256 -1.7439
   91MOL0     H12554   4.488   7.717   2.659 -0.9321  4.1698 -1.0414
   91MOL0     H12555   4.075   7.991   2.223  2.6788  4.3990 -0.7241
   91MOL0     H12556   4.026   8.298   2.079  1.0409 -1.5926 -1.4458
   91MOL0     H12557   4.175   8.309   2.164 -0.2977  1.5404  0.5730
   91MOL0     H12558   4.142   8.157   2.087 -1.0135 -0.3694 -0.9876
   92MOL0     O12559   0.596   7.393   8.933  0.0546 -0.4409  0.0395
   92MOL0     C12560   0.503   7.325   8.897  0.1309 -0.0693  0.0418
   92MOL0     O12561   0.394   7.291   8.975  0.2950  0.0451  0.1189
   92MOL0     C12562   0.384   7.329   9.113 -0.6090  0.9852 -0.2379
   92MOL0     C12563   0.440   7.437   9.174  0.9316 -0.1828 -0.7542
   92MOL0     C12564   0.411   7.467   9.308 -0.3543 -0.0010  0.0997
   92MOL0     C12565   0.330   7.386   9.385 -0.7559 -0.6528 -0.3131
   92MOL0     O12566   0.312   7.403   9.518 -0.1449  0.3192  0.3238
   92MOL0     C12567   0.408   7.330   9.596  0.7988  1.0499 -0.0825
   92MOL0     C12568   0.352   7.312   9.736 -0.2466  0.6217  0.9321
   92MOL0     C12569   0.259   7.424   9.785  0.1186  0.1619 -0.3862
   92MOL0     C12570   0.245   7.403   9.942 -0.1963  0.0247 -0.2248
   92MOL0     C12571   0.143   7.296   9.964  0.2066  0.8589 -0.5453
   92MOL0     C12572   0.100   7.293  10.110 -1.0051  0.3281  0.0753
   92MOL0     C12573  -0.004   7.182  10.133  1.0623 -0.2303  0.8500
   92MOL0     C12574  -0.018   7.162  10.282  0.6433  0.8353  0.3356
   92MOL0     N12575   0.095   7.085  10.324  0.5307  1.0783 -0.2998
   92MOL0     C12576   0.197   7.143  10.384  0.2955 -0.7200  0.1842
   92MOL0     C12577   0.287   7.042  10.424  0.1362 -0.4393  0.5554
   92MOL0     C12578   0.427   7.031  10.476 -0.1454  0.5819  1.0616
   92MOL0     C12579   0.429   7.023  10.625  0.4508  0.1680  0.4298
   92MOL0     C12580   0.442   7.165  10.687  0.5707 -0.0034 -0.7516
   92MOL0     C12581   0.472   7.155  10.837 -0.2096  0.5397  0.5910
   92MOL0     O12582   0.505   7.285  10.884  0.6606 -0.2947  0.1425
   92MOL0     C12583   0.629   7.302  10.935  1.0294 -0.2897  0.3878
   92MOL0     C12584   0.745   7.238  10.886 -0.2399  0.3893  0.8707
   92MOL0     C12585   0.876   7.274  10.930  0.0213 -0.3279 -0.2275
   92MOL0     C12586   1.002   7.193  10.894  0.5749 -0.9154 -0.0343
   92MOL0     C12587   0.881   7.375  11.037  0.2141  0.5851 -0.2306
   92MOL0     C12588   1.011   7.427  11.093  0.0214  0.4417  0.3693
   92MOL0     O12589   1.122   7.359  11.085  0.5725  0.8485 -0.2618
   92MOL0     C12590   1.239   7.375  11.151 -0.3891  0.6334  0.9031
   92MOL0     C12591   1.271   7.471  11.249  0.2606 -0.9471  0.4248
   92MOL0     C12592   1.399   7.492  11.297 -0.2584  0.5837 -0.6476
   92MOL0     C12593   1.501   7.406  11.245 -0.0292 -0.8187 -0.2371
   92MOL0     O12594   1.632   7.431  11.291  0.6626  0.5344  0.4762
   92MOL0     C12595   1.709   7.318  11.316 -0.2072  0.0214 -0.4118
   92MOL0     C12596   1.802   7.364  11.426 -0.7548  0.2300  0.2068
   92MOL0     C12597   1.901   7.256  11.478  0.1492 -0.4986  1.4143
   92MOL0     C12598   1.967   7.167  11.370  0.3745 -0.3264  0.0740
   92MOL0     C12599   2.035   7.046  11.451  0.1149 -0.2345  0.0594
   92MOL0     C12600   2.137   6.974  11.365  0.1962  0.2022 -0.2295
   92MOL0     C12601   2.236   6.872  11.427  0.3518  0.3559 -0.6701
   92MOL0     C12602   2.203   6.725  11.441 -0.2344  1.1684  0.6364
   92MOL0    Cl12603   2.058   6.681  11.549  0.0656 -0.6418  0.5122
   92MOL0     C12604   1.470   7.319  11.149  0.1868  0.2681  1.0205
   92MOL0     C12605   1.345   7.303  11.100  0.6290 -0.6384  1.0774
   92MOL0     O12606   1.002   7.537  11.146  0.7697 -0.0957  0.0787
   92MOL0     C12607   0.763   7.445  11.074  0.3218  0.4076 -0.4647
   92MOL0     C12608   0.640   7.392  11.031 -0.2059  0.2997 -1.1507
   92MOL0     N12609   0.212   6.933  10.403 -0.8116  0.0944  0.9388
   92MOL0     N12610   0.104   6.949  10.339  0.0342 -0.3663 -0.0861
   92MOL0     C12611   0.277   7.276   9.318  0.3392 -0.2114 -0.7712
   92MOL0     C12612   0.303   7.238   9.185 -0.0936  0.3055  0.3693
   92MOL0     C12613   0.515   7.257   8.758  0.3541 -0.6368 -0.2250
   92MOL0     C12614   0.415   7.174   8.724  0.1787  0.2127 -0.8304
   92MOL0     C12615   0.422   7.103   8.604 -0.1281  0.8526 -0.0462
   92MOL0     C12616   0.530   7.134   8.517 -0.6803  0.1026 -0.0660
   92MOL0     O12617   0.533   7.064   8.401 -0.2314 -0.1834 -0.4156
   92MOL0     C12618   0.475   7.119   8.285  0.0912  0.4142 -0.4708
   92MOL0     C12619   0.327   7.153   8.297  0.5554 -0.4099  0.7577
   92MOL0     C12620   0.239   7.026   8.297 -0.4791  0.5532 -0.0872
   92MOL0     C12621   0.101   7.075   8.324 -0.3242 -0.7987  0.2819
   92MOL0     C12622   0.006   6.959   8.303  0.4543 -0.5467 -0.4267
   92MOL0     C12623  -0.087   6.884   8.289  0.6061 -0.3817 -0.3246
   92MOL0     C12624   0.622   7.232   8.538  0.2266  0.9888 -1.2592
   92MOL0     C12625   0.621   7.289   8.665  0.9982  0.2760  0.5704
   92MOL0     C12626   0.737   7.389   8.686  0.1911  0.4447  0.0752
   92MOL0     H12627   0.492   7.506   9.109  0.4704  0.3926 -0.5197
   92MOL0     H12628   0.449   7.552   9.364 -0.3328  0.6144 -0.8355
   92MOL0     H12629   0.503   7.382   9.606  1.7053 -0.2488 -1.5085
   92MOL0     H12630   0.432   7.228   9.562 -0.2433 -0.7131  3.8804
   92MOL0     H12631   0.292   7.220   9.732  1.4765 -0.5362  0.1631
   92MOL0     H12632   0.431   7.302   9.811  0.0790  1.4469  0.7118
   92MOL0     H12633   0.310   7.519   9.767 -2.2037  1.8762  1.4091
   92MOL0     H12634   0.163   7.440   9.734  0.5132  2.5325 -0.5240
   92MOL0     H12635   0.337   7.374   9.995  0.2271  1.0368 -0.3936
   92MOL0     H12636   0.210   7.498   9.982  1.2207  1.5834 -2.4539
   92MOL0     H12637   0.171   7.194   9.937 -3.1153 -0.8679  1.9007
   92MOL0     H12638   0.055   7.315   9.901 -1.1259 -2.2691  0.2205
   92MOL0     H12639   0.193   7.278  10.166 -1.4544 -2.9142  0.1598
   92MOL0     H12640   0.047   7.386  10.133 -2.7135 -0.0884 -1.8559
   92MOL0     H12641   0.027   7.092  10.080  3.1885 -0.7768  2.8540
   92MOL0     H12642  -0.099   7.203  10.084  0.1449 -1.2565  2.1174
   92MOL0     H12643  -0.022   7.264  10.322  4.6919  1.3252 -0.0790
   92MOL0     H12644  -0.105   7.104  10.313  1.1619 -0.2925 -0.2484
   92MOL0     H12645   0.210   7.250  10.369  1.0123 -0.8777 -0.3811
   92MOL0     H12646   0.487   7.117  10.442  2.0849 -1.7060 -1.2180
   92MOL0     H12647   0.473   6.942  10.431  3.8268  2.8366  0.1407
   92MOL0     H12648   0.335   6.974  10.652  1.2829 -3.0099 -1.9245
   92MOL0     H12649   0.514   6.961  10.656  4.1836  3.2012 -2.6509
   92MOL0     H12650   0.507   7.243  10.647  0.3572 -0.1666 -1.4434
   92MOL0     H12651   0.345   7.215  10.676  0.3304 -0.1496  0.5699
   92MOL0     H12652   0.387   7.108  10.886  0.8581 -0.9040  1.1202
   92MOL0     H12653   0.545   7.079  10.864  0.0310  1.0827  1.5364
   92MOL0     H12654   0.754   7.165  10.805 -0.5096 -2.5273  3.2812
   92MOL0     H12655   1.068   7.261  10.840 -0.9053 -1.4916 -2.8005
   92MOL0     H12656   0.972   7.112  10.826  1.0249  0.6369 -2.2044
   92MOL0     H12657   1.039   7.149  10.987 -2.5062  0.1739  1.8517
   92MOL0     H12658   1.192   7.527  11.298  0.0035 -1.3621  0.4931
   92MOL0     H12659   1.426   7.557  11.379  0.7162 -2.6009  1.7611
   92MOL0     H12660   1.647   7.232  11.343 -0.3725  0.5622  1.0323
   92MOL0     H12661   1.754   7.281  11.224 -1.1385 -0.9882 -0.4848
   92MOL0     H12662   1.846   7.452  11.377 -2.2941 -0.3303 -2.3335
   92MOL0     H12663   1.750   7.401  11.515  2.8599  2.6478  1.5711
   92MOL0     H12664   1.842   7.192  11.543  1.0415 -2.7868  0.1072
   92MOL0     H12665   1.979   7.299  11.541  0.4520  0.8470  0.1946
   92MOL0     H12666   2.036   7.236  11.320 -1.8496  1.5333 -0.6036
   92MOL0     H12667   1.898   7.121  11.300  0.9353 -0.9824 -0.0568
   92MOL0     H12668   2.086   7.089  11.538  0.7573  0.5071 -0.6691
   92MOL0     H12669   1.965   6.967  11.481 -0.2586  0.5280  1.2697
   92MOL0     H12670   2.203   7.050  11.322  1.0009  0.7380  1.8067
   92MOL0     H12671   2.066   6.930  11.295  0.2620 -3.5643  1.8125
   92MOL0     H12672   2.260   6.896  11.531  0.9001  0.9031 -0.9147
   92MOL0     H12673   2.331   6.875  11.372  1.5159 -0.5105  1.2074
   92MOL0     H12674   2.288   6.668  11.479 -0.3957  0.8660  0.5482
   92MOL0     H12675   2.188   6.677  11.344 -3.2759  4.2052 -0.6078
   92MOL0     H12676   1.553   7.266  11.103 -1.1940  0.5326 -2.0742
   92MOL0     H12677   1.333   7.233  11.018 -1.1150  1.6303 -0.7492
   92MOL0     H12678   0.756   7.523  11.149 -1.2780 -0.4246  0.2902
   92MOL0     H12679   0.560   7.431  11.093  1.6538  3.3669 -0.4962
   92MOL0     H12680   0.204   7.211   9.366 -2.4517 -0.6034 -5.0706
   92MOL0     H12681   0.257   7.160   9.126  0.3478  0.9447 -0.8649
   92MOL0     H12682   0.327   7.154   8.784 -1.4048  1.1378 -2.6990
   92MOL0     H12683   0.358   7.021   8.573 -0.9005  2.4233 -2.9858
   92MOL0     H12684   0.515   7.221   8.274 -0.3856  0.8729  1.6333
   92MOL0     H12685   0.497   7.058   8.197  0.8104  0.0498 -0.0421
   92MOL0     H12686   0.297   7.199   8.203 -2.9162 -2.1138  0.8729
   92MOL0     H12687   0.301   7.223   8.378 -0.2928  1.1251 -0.7680
   92MOL0     H12688   0.241   6.968   8.204  0.4402  0.0969  0.2118
   92MOL0     H12689   0.263   6.952   8.374 -0.8514  0.2105 -0.2962
   92MOL0     H12690   0.062   7.152   8.258  1.8057  2.5358  2.6047
   92MOL0     H12691   0.101   7.112   8.427  0.5182  0.2547 -0.0790
   92MOL0     H12692  -0.146   6.795   8.280  4.3028 -3.0502 -0.7097
   92MOL0     H12693   0.696   7.250   8.460  0.8639 -0.3991 -0.9994
   92MOL0     H12694   0.794   7.412   8.596 -0.5431  4.6349  0.4566
   92MOL0     H12695   0.716   7.491   8.720  1.5044  1.2270 -1.3127
   92MOL0     H12696   0.813   7.342   8.750  1.1287  3.0982  1.0501
   93MOL0     O12697   2.522   8.207   0.910 -0.7164  0.2744  0.5351
   93MOL0     C12698   2.484   8.180   1.022 -0.5395 -1.0044 -0.1520
   93MOL0     O12699   2.349   8.167   1.065  0.3133  0.1061  0.8132
   93MOL0     C12700   2.244   8.189   0.979  0.6721 -0.4352 -0.3548
   93MOL0     C12701   2.195   8.323   0.944 -0.1494 -0.0068  0.1122
   93MOL0     C12702   2.077   8.335   0.869 -0.0377  0.5588 -0.9138
   93MOL0     C12703   2.004   8.221   0.830 -0.4891  0.0412 -0.1926
   93MOL0     O12704   1.876   8.224   0.768  0.0401  0.4620 -0.5648
   93MOL0     C12705   1.800   8.353   0.744  0.0102  0.4765 -0.0588
   93MOL0     C12706   1.672   8.342   0.665 -0.1350 -0.5127 -0.1825
   93MOL0     C12707   1.565   8.260   0.741  0.7111  0.4632  0.5290
   93MOL0     C12708   1.423   8.272   0.672  0.9994 -0.2573 -0.8790
   93MOL0     C12709   1.414   8.215   0.525 -0.1234  1.0358 -0.7099
   93MOL0     C12710   1.437   8.066   0.530  0.4664  0.3968  0.7212
   93MOL0     C12711   1.364   7.990   0.416 -0.9350  0.4813 -0.1696
   93MOL0     C12712   1.418   7.850   0.388  0.5597 -0.3315  0.8557
   93MOL0     N12713   1.313   7.766   0.323  0.7954 -0.1070 -0.3101
   93MOL0     C12714   1.274   7.778   0.189 -0.0211 -0.1395  0.0830
   93MOL0     C12715   1.163   7.710   0.184  0.1956 -0.2712  0.2267
   93MOL0     C12716   1.067   7.686   0.062 -0.4980  0.5639 -0.7705
   93MOL0     C12717   1.015   7.539   0.068 -0.0838 -0.1174 -0.8616
   93MOL0     C12718   0.982   7.481  -0.065 -0.0965 -0.2065 -0.0817
   93MOL0     C12719   0.850   7.533  -0.124 -1.3307 -0.1145  0.1201
   93MOL0     O12720   0.727   7.499  -0.051  0.1969  0.6200 -0.7946
   93MOL0     C12721   0.687   7.369  -0.074  0.5599  0.8364 -0.1043
   93MOL0     C12722   0.606   7.328  -0.185 -0.5820 -0.1037  0.3644
   93MOL0     C12723   0.562   7.195  -0.209  0.0787  0.7086  0.8172
   93MOL0     C12724   0.463   7.176  -0.325  0.3409  0.0345 -0.1544
   93MOL0     C12725   0.615   7.089  -0.125 -0.4596 -0.3135 -0.8717
   93MOL0     C12726   0.592   6.938  -0.145  0.0343 -0.2871  0.1337
   93MOL0     O12727   0.530   6.911  -0.268  0.1824  0.4253 -0.2451
   93MOL0     C12728   0.530   6.779  -0.302 -0.3574 -0.5104 -1.0098
   93MOL0     C12729   0.630   6.721  -0.377  0.5203 -0.4592 -0.0481
   93MOL0     C12730   0.633   6.574  -0.395  0.0226 -0.7951 -0.3490
   93MOL0     C12731   0.547   6.489  -0.317  0.7717 -0.0713  0.1250
   93MOL0     O12732   0.544   6.354  -0.309  0.3829  0.4649  0.0893
   93MOL0     C12733   0.654   6.288  -0.382 -0.2382  1.3587 -0.1553
   93MOL0     C12734   0.639   6.142  -0.353 -0.4738  0.2338  0.0288
   93MOL0     C12735   0.728   6.050  -0.441  0.7687 -0.4261 -0.1517
   93MOL0     C12736   0.882   6.092  -0.453  0.9634  0.0213  0.1551
   93MOL0     C12737   0.957   5.966  -0.489 -0.0777  1.1698  0.6764
   93MOL0     C12738   1.109   5.966  -0.475  0.0474 -0.4921 -0.1423
   93MOL0     C12739   1.156   6.113  -0.517 -0.0611 -0.1707 -0.1138
   93MOL0     C12740   1.306   6.108  -0.539  0.2816 -0.0496  1.3711
   93MOL0    Cl12741   1.352   6.269  -0.618 -0.2149 -0.5707  0.5282
   93MOL0     C12742   0.439   6.556  -0.248  0.4999 -0.7624 -1.0287
   93MOL0     C12743   0.431   6.690  -0.238  0.3900 -0.4130  1.0924
   93MOL0     O12744   0.618   6.856  -0.058 -0.4757  0.2217  0.4429
   93MOL0     C12745   0.672   7.128  -0.003 -0.5215 -0.5509  0.7284
   93MOL0     C12746   0.701   7.266   0.017 -0.1643  0.8371 -0.7737
   93MOL0     N12747   1.156   7.648   0.313  0.2096  0.0626  0.4607
   93MOL0     N12748   1.235   7.691   0.396  0.2781  0.7086 -0.8373
   93MOL0     C12749   2.063   8.093   0.849  0.2321 -0.0595 -0.4285
   93MOL0     C12750   2.173   8.078   0.934  0.0957 -0.1701 -0.0025
   93MOL0     C12751   2.581   8.161   1.136  0.2017 -0.0080 -0.4800
   93MOL0     C12752   2.537   8.083   1.245 -0.4252  0.5646  0.0537
   93MOL0     C12753   2.613   8.074   1.358  0.4060  1.2133  0.0387
   93MOL0     C12754   2.735   8.138   1.371 -0.2845  0.6619 -0.8966
   93MOL0     O12755   2.805   8.102   1.488 -0.4601  0.5125 -0.0065
   93MOL0     C12756   2.888   8.208   1.544 -0.0785 -0.2058 -0.1918
   93MOL0     C12757   3.023   8.145   1.569  0.5760  0.4316 -0.3616
   93MOL0     C12758   3.124   8.253   1.616  0.7910  0.4324  0.8663
   93MOL0     C12759   3.085   8.293   1.747 -0.3929 -0.6555  0.3822
   93MOL0     C12760   3.066   8.190   1.848 -0.7822  0.3030  0.0690
   93MOL0     C12761   3.049   8.112   1.947 -0.5974 -0.0632  0.6128
   93MOL0     C12762   2.780   8.220   1.272  0.1474  0.7517 -0.1587
   93MOL0     C12763   2.704   8.230   1.153 -0.0375 -0.3721 -0.8053
   93MOL0     C12764   2.770   8.320   1.044 -1.0120  1.5813 -0.8471
   93MOL0     H12765   2.261   8.407   0.963 -1.6846  1.2090  0.2958
   93MOL0     H12766   2.038   8.436   0.855  1.0091  0.9843 -0.8205
   93MOL0     H12767   1.861   8.422   0.686 -3.5496  2.7779 -1.4148
   93MOL0     H12768   1.779   8.403   0.839  1.6483  1.9379 -0.4209
   93MOL0     H12769   1.620   8.438   0.651  1.4098  0.7463  1.9938
   93MOL0     H12770   1.685   8.294   0.568 -4.2656 -0.1288 -1.0737
   93MOL0     H12771   1.592   8.154   0.727  0.5310  0.1393  2.4050
   93MOL0     H12772   1.563   8.292   0.845  0.7737  2.9056 -0.1590
   93MOL0     H12773   1.348   8.219   0.732  1.6773  0.6197  0.8147
   93MOL0     H12774   1.390   8.375   0.657 -2.8116 -1.5606 -2.6115
   93MOL0     H12775   1.494   8.263   0.470 -0.6053  2.3359 -0.3030
   93MOL0     H12776   1.314   8.227   0.482 -1.9237 -2.3379  2.0221
   93MOL0     H12777   1.542   8.036   0.534  0.4179  0.0691 -0.4133
   93MOL0     H12778   1.392   8.021   0.620  1.4201  0.1326  1.0817
   93MOL0     H12779   1.367   8.054   0.327 -0.1894  0.3570 -0.2402
   93MOL0     H12780   1.258   7.983   0.443 -1.9009  1.1175 -3.3643
   93MOL0     H12781   1.504   7.843   0.321 -1.4643  0.2904 -1.9867
   93MOL0     H12782   1.440   7.808   0.487 -0.1219  0.4488  1.3525
   93MOL0     H12783   1.342   7.833   0.124  1.6488  0.4642  2.2253
   93MOL0     H12784   1.126   7.704  -0.028 -2.8797 -3.8099 -3.5720
   93MOL0     H12785   0.984   7.757   0.063 -3.9838 -3.1400  0.1550
   93MOL0     H12786   1.095   7.478   0.110  1.0786 -0.0682 -2.8855
   93MOL0     H12787   0.923   7.538   0.128  0.5085 -0.5390  0.0492
   93MOL0     H12788   1.056   7.512  -0.140 -0.0013  0.3515  0.2353
   93MOL0     H12789   0.969   7.373  -0.074  0.4480 -0.3225  0.4746
   93MOL0     H12790   0.844   7.642  -0.128 -1.5400 -0.0671  1.3026
   93MOL0     H12791   0.841   7.491  -0.224 -0.9203  0.4768 -0.1710
   93MOL0     H12792   0.574   7.406  -0.254 -2.2003  0.0329  1.2231
   93MOL0     H12793   0.515   7.115  -0.400 -3.3149  0.2278 -3.1713
   93MOL0     H12794   0.429   7.267  -0.376  1.8112  0.9135  0.3631
   93MOL0     H12795   0.384   7.106  -0.296  0.2388  0.8980  1.7903
   93MOL0     H12796   0.687   6.797  -0.430 -0.3856  0.8384  0.7800
   93MOL0     H12797   0.709   6.528  -0.457 -1.2330  0.7875 -3.2072
   93MOL0     H12798   0.644   6.306  -0.490 -0.2297  2.9571  0.0780
   93MOL0     H12799   0.759   6.311  -0.360  0.7161 -1.9285 -0.7540
   93MOL0     H12800   0.663   6.132  -0.247 -2.1867  1.4364  0.5756
   93MOL0     H12801   0.536   6.112  -0.378 -0.3706  0.7779 -1.0907
   93MOL0     H12802   0.686   6.069  -0.541  0.8925  2.6656  0.2769
   93MOL0     H12803   0.709   5.952  -0.397  2.0540  0.4658  2.6084
   93MOL0     H12804   0.915   6.126  -0.355  2.0799 -3.3027  1.0679
   93MOL0     H12805   0.887   6.155  -0.543 -3.7614 -0.6822 -0.8647
   93MOL0     H12806   0.935   5.890  -0.413  1.9719 -0.1760  0.0126
   93MOL0     H12807   0.912   5.941  -0.585 -1.7213  0.5891  1.5526
   93MOL0     H12808   1.141   5.878  -0.530  1.3142 -0.7277  0.9236
   93MOL0     H12809   1.144   5.947  -0.373  0.6366 -3.5793 -0.8475
   93MOL0     H12810   1.140   6.183  -0.434 -6.5298  2.1257 -2.7036
   93MOL0     H12811   1.094   6.145  -0.601 -3.3408 -2.3535  1.2849
   93MOL0     H12812   1.325   6.027  -0.610  0.3714  3.6494 -3.3433
   93MOL0     H12813   1.364   6.094  -0.447  0.5988  0.7058  1.2961
   93MOL0     H12814   0.356   6.508  -0.197 -0.1356  1.6678  0.4049
   93MOL0     H12815   0.353   6.724  -0.171  0.0462  0.6135  0.1852
   93MOL0     H12816   0.700   7.057   0.075  1.8987  1.9060  2.3037
   93MOL0     H12817   0.749   7.283   0.113 -0.3535 -1.9982 -0.0742
   93MOL0     H12818   2.005   8.007   0.815 -0.0431 -0.7900  1.7405
   93MOL0     H12819   2.211   7.982   0.969 -0.2155 -1.8255 -3.7618
   93MOL0     H12820   2.456   8.011   1.239  1.3404 -1.3949 -1.8456
   93MOL0     H12821   2.583   7.999   1.430 -0.6505 -0.7735 -2.3085
   93MOL0     H12822   2.902   8.296   1.480 -1.7657 -1.2447 -2.1335
   93MOL0     H12823   2.836   8.251   1.630 -0.2158 -0.5003 -0.1269
   93MOL0     H12824   3.050   8.103   1.471 -2.1291 -3.7092  0.4360
   93MOL0     H12825   2.999   8.062   1.635  0.3256 -0.2653 -1.3084
   93MOL0     H12826   3.222   8.205   1.618 -1.2648 -4.5849  5.0381
   93MOL0     H12827   3.122   8.328   1.537 -0.4073 -1.3182 -0.8505
   93MOL0     H12828   2.990   8.347   1.742 -0.7474 -1.3086 -3.5593
   93MOL0     H12829   3.162   8.365   1.773 -1.0624  0.1265  0.2250
   93MOL0     H12830   3.032   8.046   2.030 -1.6157 -2.1455 -1.1428
   93MOL0     H12831   2.878   8.266   1.277  0.0078  1.0778 -0.4199
   93MOL0     H12832   2.876   8.292   1.046 -1.5817 -0.7868  1.8664
   93MOL0     H12833   2.729   8.296   0.945 -0.5890  2.0257 -1.1362
   93MOL0     H12834   2.769   8.429   1.060  2.5297  1.7448 -0.9299
   94MOL0     O12835   3.364   2.378   9.164 -0.2131 -0.1471 -0.1661
   94MOL0     C12836   3.310   2.419   9.065 -0.0596  0.2697 -0.3432
   94MOL0     O12837   3.327   2.538   9.014  0.0987  0.2644  0.0688
   94MOL0     C12838   3.423   2.629   9.061  1.1126  1.2632 -0.5025
   94MOL0     C12839   3.508   2.685   8.971  0.0196  0.0165  0.3618
   94MOL0     C12840   3.609   2.782   9.018 -0.5258 -0.0991 -0.0548
   94MOL0     C12841   3.604   2.827   9.151  0.3043 -0.9905 -0.2721
   94MOL0     O12842   3.685   2.919   9.207  0.5148 -0.3740 -0.6358
   94MOL0     C12843   3.819   2.862   9.224  0.3878  0.2315  0.4228
   94MOL0     C12844   3.905   2.952   9.312  1.0250  0.5401 -0.1559
   94MOL0     C12845   4.047   2.901   9.336 -0.0275  0.2938 -0.1460
   94MOL0     C12846   4.129   2.974   9.441 -0.3807  0.4591  0.8508
   94MOL0     C12847   4.257   2.888   9.451  1.0110 -0.1093 -0.0859
   94MOL0     C12848   4.329   2.944   9.575 -0.2318 -0.4991  0.3788
   94MOL0     C12849   4.472   2.892   9.567 -0.7815 -0.2114 -1.0525
   94MOL0     C12850   4.543   2.960   9.687  0.1921 -0.2639 -0.2349
   94MOL0     N12851   4.679   2.902   9.682  0.0999 -1.2121 -0.4875
   94MOL0     C12852   4.782   2.932   9.596 -0.7587  0.1375  0.0100
   94MOL0     C12853   4.896   2.866   9.639  0.6633 -0.0151  0.0806
   94MOL0     C12854   5.033   2.886   9.578 -1.2683  0.3414  0.6064
   94MOL0     C12855   5.089   3.018   9.616  0.7836  0.1317  0.9990
   94MOL0     C12856   5.233   3.039   9.572  0.8915 -0.3335  0.2039
   94MOL0     C12857   5.308   3.162   9.642 -0.2707 -0.2031 -0.0732
   94MOL0     O12858   5.445   3.168   9.597  0.3022 -0.3221 -0.3651
   94MOL0     C12859   5.540   3.219   9.686  0.1837 -0.8478 -0.9067
   94MOL0     C12860   5.505   3.293   9.802  0.8474 -0.0038 -0.2383
   94MOL0     C12861   5.594   3.334   9.901 -0.9250 -0.1516 -0.6624
   94MOL0     C12862   5.539   3.408  10.018  0.6122  0.0275 -0.5171
   94MOL0     C12863   5.727   3.300   9.876  0.5334 -0.1567 -0.5722
   94MOL0     C12864   5.838   3.350   9.957 -0.2344  0.6208  0.8869
   94MOL0     O12865   5.960   3.281   9.940 -0.8267  0.0064  0.3350
   94MOL0     C12866   6.054   3.289  10.039  0.4653 -0.4015  0.3573
   94MOL0     C12867   6.109   3.167  10.088  1.1984 -0.1498  0.2873
   94MOL0     C12868   6.213   3.174  10.178 -0.7121 -0.0107 -0.3486
   94MOL0     C12869   6.271   3.295  10.222  0.2719  0.6053  1.1460
   94MOL0     O12870   6.381   3.313  10.305  0.4426  0.2080 -0.0513
   94MOL0     C12871   6.441   3.204  10.369  0.0333 -0.0821 -0.1076
   94MOL0     C12872   6.389   3.194  10.515  0.0897 -0.5456  1.0630
   94MOL0     C12873   6.242   3.149  10.516  0.3847 -0.4339  1.0481
   94MOL0     C12874   6.208   3.089  10.651  0.5385  0.1958  0.4396
   94MOL0     C12875   6.170   2.944  10.633  0.2662 -0.3777 -0.1959
   94MOL0     C12876   6.118   2.883  10.762 -0.0752  0.7303 -0.3817
   94MOL0     C12877   6.070   2.737  10.733 -0.0581 -0.5164 -0.1638
   94MOL0     C12878   5.935   2.731  10.651 -1.5197  0.2783  0.3181
   94MOL0    Cl12879   5.915   2.543  10.614  0.4120 -0.4563 -0.2025
   94MOL0     C12880   6.222   3.419  10.168  0.1086  0.2117  0.3189
   94MOL0     C12881   6.116   3.414  10.068  0.4262  0.3094  0.0140
   94MOL0     O12882   5.817   3.430  10.043 -0.6490  0.0024 -0.9706
   94MOL0     C12883   5.767   3.220   9.764  0.0185 -1.8292  0.5826
   94MOL0     C12884   5.680   3.186   9.666  0.7134 -0.9046 -0.1377
   94MOL0     N12885   4.859   2.785   9.748  0.2108 -0.1484  0.6484
   94MOL0     N12886   4.731   2.816   9.770 -1.1356  0.2297  0.8880
   94MOL0     C12887   3.515   2.769   9.237 -0.5256  1.3709  0.0910
   94MOL0     C12888   3.428   2.666   9.191  0.4036 -0.6202  0.1860
   94MOL0     C12889   3.236   2.331   8.975  0.0192 -0.3418  0.1746
   94MOL0     C12890   3.314   2.226   8.916  0.1484 -0.5696  0.9009
   94MOL0     C12891   3.253   2.132   8.828 -0.2186  0.7166  0.6470
   94MOL0     C12892   3.120   2.157   8.788 -0.5876  0.1755 -0.8817
   94MOL0     O12893   3.061   2.060   8.718  0.5179 -0.5012  0.3102
   94MOL0     C12894   2.935   2.077   8.661 -0.3884 -0.1883 -1.1727
   94MOL0     C12895   2.912   1.967   8.557 -0.9101 -0.8175  0.1494
   94MOL0     C12896   2.766   1.948   8.549  1.1636 -0.4798 -1.0560
   94MOL0     C12897   2.731   1.851   8.438  0.0328 -0.3466 -1.3169
   94MOL0     C12898   2.585   1.845   8.420 -0.6603  1.6536 -0.0211
   94MOL0     C12899   2.473   1.838   8.386  0.8531 -0.0991  0.0458
   94MOL0     C12900   3.052   2.272   8.838  1.1619 -0.8931 -0.4873
   94MOL0     C12901   3.109   2.363   8.926  0.6283 -0.4595  0.4094
   94MOL0     C12902   3.040   2.488   8.969  1.3448 -0.0376  0.3578
   94MOL0     H12903   3.493   2.653   8.868 -1.8283 -0.9795  0.8914
   94MOL0     H12904   3.676   2.841   8.955 -1.3700  0.4984 -0.4111
   94MOL0     H12905   3.867   2.858   9.126 -2.5100  0.2747 -1.1062
   94MOL0     H12906   3.807   2.761   9.263  0.8203 -0.6474 -1.6342
   94MOL0     H12907   3.891   3.050   9.265  0.0957  0.2365 -0.5392
   94MOL0     H12908   3.846   2.962   9.404 -1.4855  0.0508 -1.6066
   94MOL0     H12909   4.037   2.794   9.357 -2.1757  0.1400 -1.5563
   94MOL0     H12910   4.095   2.911   9.238  2.6077  1.1826  1.1659
   94MOL0     H12911   4.144   3.076   9.404 -3.6937  0.6672 -0.3151
   94MOL0     H12912   4.065   2.986   9.529 -4.6861  1.9343 -2.0753
   94MOL0     H12913   4.316   2.899   9.360  0.9468 -5.2525 -1.0405
   94MOL0     H12914   4.238   2.783   9.474  0.6548  0.5380  3.0577
   94MOL0     H12915   4.329   3.054   9.575  2.1333 -0.3365 -3.0109
   94MOL0     H12916   4.273   2.902   9.659  0.7601  0.8902  1.8013
   94MOL0     H12917   4.531   2.918   9.479 -0.9555  0.0547 -1.0927
   94MOL0     H12918   4.480   2.783   9.571  1.2137 -0.0618  0.2362
   94MOL0     H12919   4.541   3.069   9.679  1.8302 -0.2148 -0.1529
   94MOL0     H12920   4.482   2.937   9.775 -2.0391  1.8785 -1.1015
   94MOL0     H12921   4.778   2.992   9.505  0.2690  3.4231  1.9723
   94MOL0     H12922   5.025   2.886   9.469 -1.3701  3.3858  0.5223
   94MOL0     H12923   5.099   2.805   9.611  2.7231  2.7126 -0.8660
   94MOL0     H12924   5.017   3.090   9.576  2.0205 -0.3384 -2.3431
   94MOL0     H12925   5.092   3.006   9.725 -1.8933 -0.8639  1.0399
   94MOL0     H12926   5.289   2.948   9.595  0.3541 -1.3425 -2.2070
   94MOL0     H12927   5.237   3.054   9.463  4.4906  0.6867  0.3327
   94MOL0     H12928   5.256   3.252   9.607  0.1960 -0.6080 -1.9221
   94MOL0     H12929   5.299   3.150   9.750  0.9297 -1.6582 -0.1171
   94MOL0     H12930   5.400   3.310   9.825  0.0793 -2.9317 -1.0741
   94MOL0     H12931   5.557   3.344  10.105  0.5763  0.8523  0.1103
   94MOL0     H12932   5.433   3.435  10.029  1.6575  3.7464  2.8807
   94MOL0     H12933   5.592   3.503  10.029 -0.6526  1.1841 -3.4157
   94MOL0     H12934   6.057   3.085  10.040 -0.2311  1.6652 -1.4246
   94MOL0     H12935   6.249   3.086  10.230 -1.7910  0.7774  1.8605
   94MOL0     H12936   6.443   3.106  10.320  0.1025  0.9410 -2.2368
   94MOL0     H12937   6.545   3.235  10.381  0.0038 -0.0644  0.1080
   94MOL0     H12938   6.462   3.126  10.561  0.1921 -3.7966 -3.2602
   94MOL0     H12939   6.398   3.293  10.559 -0.6036  1.1634 -2.3098
   94MOL0     H12940   6.212   3.082  10.436  0.8005  0.4737  0.1074
   94MOL0     H12941   6.180   3.238  10.499  2.3200  0.8100  0.1094
   94MOL0     H12942   6.120   3.131  10.700 -1.0625  0.5581 -2.4779
   94MOL0     H12943   6.284   3.108  10.727  0.1532  0.3947  0.7772
   94MOL0     H12944   6.100   2.925  10.551 -0.3260 -2.0211  0.6438
   94MOL0     H12945   6.264   2.897  10.603  0.6660  0.7599 -0.7792
   94MOL0     H12946   6.030   2.944  10.787 -0.0060  2.1164 -3.1125
   94MOL0     H12947   6.192   2.886  10.842 -2.1252 -1.5779  1.7681
   94MOL0     H12948   6.064   2.697  10.835 -0.5893  1.2713  0.5390
   94MOL0     H12949   6.145   2.692  10.667  2.3986  2.7148  0.1927
   94MOL0     H12950   5.942   2.781  10.554 -3.1008 -2.7172 -1.5107
   94MOL0     H12951   5.858   2.776  10.714 -1.6572 -0.5620  0.7781
   94MOL0     H12952   6.266   3.513  10.198  1.5371 -0.0315 -0.8942
   94MOL0     H12953   6.067   3.506  10.038 -1.7595  0.0820  2.5678
   94MOL0     H12954   5.872   3.208   9.738 -0.5220 -2.9605 -1.2512
   94MOL0     H12955   5.706   3.141   9.572 -0.7450  1.1796 -1.6325
   94MOL0     H12956   3.521   2.802   9.340 -1.4858  3.0016 -0.3341
   94MOL0     H12957   3.358   2.625   9.262 -2.6558  2.6880 -0.6083
   94MOL0     H12958   3.414   2.208   8.953  0.4738 -4.1375 -1.2539
   94MOL0     H12959   3.318   2.052   8.792  1.7512  2.6544 -0.2931
   94MOL0     H12960   2.858   2.063   8.737 -0.5960  0.5266 -1.2504
   94MOL0     H12961   2.941   2.175   8.612  2.7550 -0.1764 -0.9675
   94MOL0     H12962   2.947   1.876   8.605  0.9669 -0.8972 -1.2429
   94MOL0     H12963   2.968   1.995   8.467  2.2754  0.1553  2.2339
   94MOL0     H12964   2.717   1.922   8.642  2.9871 -1.4946 -0.3290
   94MOL0     H12965   2.726   2.040   8.505 -2.9358 -1.2746  0.6581
   94MOL0     H12966   2.775   1.751   8.452 -1.7714 -0.8373  1.8353
   94MOL0     H12967   2.768   1.901   8.349 -2.4371  3.8371 -0.2619
   94MOL0     H12968   2.384   1.838   8.327 -0.5493 -0.4087  2.0584
   94MOL0     H12969   2.951   2.290   8.804  1.1547 -1.9067 -1.0679
   94MOL0     H12970   3.052   2.515   9.074 -0.4714 -3.5363  1.6495
   94MOL0     H12971   3.079   2.577   8.921 -1.2815  1.4443  0.7447
   94MOL0     H12972   2.931   2.478   8.958  1.5989 -2.1503 -0.8786
   95MOL0     O12973   7.187   0.857   0.546 -0.0563 -0.1514 -0.1316
   95MOL0     C12974   7.203   0.813   0.664 -0.5511  0.1341 -0.1124
   95MOL0     O12975   7.257   0.886   0.763 -0.4669 -0.3062 -0.7911
   95MOL0     C12976   7.301   1.021   0.731  0.9277 -0.3307  0.0453
   95MOL0     C12977   7.426   1.048   0.740 -0.7445  0.5315  0.6114
   95MOL0     C12978   7.493   1.165   0.696  0.4732 -0.0335  0.4775
   95MOL0     C12979   7.411   1.261   0.635  0.0910 -0.0344  0.3155
   95MOL0     O12980   7.453   1.389   0.613 -0.0891 -0.2090  0.4695
   95MOL0     C12981   7.582   1.395   0.540 -0.7193 -0.6538  0.0462
   95MOL0     C12982   7.593   1.545   0.498  0.1818  0.5416  0.5202
   95MOL0     C12983   7.695   1.552   0.385  0.1869  0.0910  0.1396
   95MOL0     C12984   7.712   1.690   0.346  0.2245 -0.7435 -0.1658
   95MOL0     C12985   7.822   1.714   0.234 -0.5992 -0.2065  0.1773
   95MOL0     C12986   7.879   1.856   0.228 -0.2134  0.1419 -0.3520
   95MOL0     C12987   7.987   1.885   0.332 -0.5090 -0.4496 -0.3074
   95MOL0     C12988   7.990   2.036   0.358 -0.1250  0.4441 -0.0064
   95MOL0     N12989   8.104   2.073   0.435 -0.4015  0.0084 -0.2895
   95MOL0     C12990   8.123   2.081   0.565 -1.7986  0.3390 -0.1053
   95MOL0     C12991   8.256   2.092   0.590  0.9048 -0.5518  0.1013
   95MOL0     C12992   8.332   2.107   0.728  0.1684 -0.4234 -0.2604
   95MOL0     C12993   8.260   2.039   0.845 -0.1301 -1.2722 -0.5320
   95MOL0     C12994   8.249   1.894   0.811 -0.2353  0.5764 -0.2493
   95MOL0     C12995   8.193   1.809   0.924 -1.5819  0.0583 -1.0998
   95MOL0     O12996   8.237   1.685   0.882  0.6258  0.6060 -0.2908
   95MOL0     C12997   8.364   1.642   0.922 -0.0786  0.2071 -0.4032
   95MOL0     C12998   8.440   1.680   1.038  0.1436  0.4086  0.2666
   95MOL0     C12999   8.572   1.622   1.053  1.8880 -0.0241 -0.7521
   95MOL0     C13000   8.653   1.658   1.166  0.3526 -0.9378 -0.5479
   95MOL0     C13001   8.629   1.535   0.965 -0.1953  0.1742  0.0611
   95MOL0     C13002   8.759   1.454   0.982  0.3521 -0.3412 -0.1162
   95MOL0     O13003   8.851   1.467   0.879 -0.2175 -0.0917 -0.0877
   95MOL0     C13004   8.975   1.403   0.866  0.6481  0.9088 -0.3368
   95MOL0     C13005   9.015   1.320   0.759 -0.6655  0.8512  0.1882
   95MOL0     C13006   9.138   1.261   0.759 -0.2861  1.3695 -0.2983
   95MOL0     C13007   9.237   1.298   0.853 -0.5096  0.1862 -0.0941
   95MOL0     O13008   9.359   1.237   0.847  0.4082  0.1961 -0.3920
   95MOL0     C13009   9.452   1.329   0.800  0.1224 -0.3859 -0.1034
   95MOL0     C13010   9.585   1.271   0.753  0.1671 -0.3464 -0.3563
   95MOL0     C13011   9.638   1.146   0.830 -1.3117 -0.6806 -0.7982
   95MOL0     C13012   9.776   1.090   0.774 -0.3772  0.9059  1.0221
   95MOL0     C13013   9.901   1.155   0.827 -0.4222 -0.1922 -0.9544
   95MOL0     C13014  10.031   1.098   0.758 -0.2285  0.5285  0.5361
   95MOL0     C13015  10.154   1.193   0.772 -0.6547 -0.2279 -0.2366
   95MOL0     C13016  10.265   1.162   0.671 -0.8791 -0.2146  0.7579
   95MOL0    Cl13017  10.299   0.988   0.711  0.4363 -0.6999 -0.2414
   95MOL0     C13018   9.199   1.374   0.967  0.9574  0.4137  0.8889
   95MOL0     C13019   9.061   1.425   0.979  0.0905 -0.8512  0.3084
   95MOL0     O13020   8.768   1.373   1.076 -0.4127 -0.3197  0.6291
   95MOL0     C13021   8.556   1.509   0.845  0.3019 -0.3968  0.9354
   95MOL0     C13022   8.431   1.572   0.824  0.3503  1.8822 -0.2600
   95MOL0     N13023   8.316   2.094   0.458 -0.0689 -0.2542  0.4308
   95MOL0     N13024   8.224   2.089   0.371  0.5092  0.4017 -0.5431
   95MOL0     C13025   7.271   1.237   0.619 -1.1589  0.6543  0.1000
   95MOL0     C13026   7.218   1.120   0.675  0.7284 -0.0841 -0.3021
   95MOL0     C13027   7.163   0.669   0.682  0.1072  0.3369 -0.6392
   95MOL0     C13028   7.066   0.615   0.603  0.9792 -0.7288 -0.5923
   95MOL0     C13029   7.021   0.483   0.617  0.0702 -0.1599  0.5363
   95MOL0     C13030   7.071   0.408   0.715 -0.8487  1.0359 -0.3979
   95MOL0     O13031   7.010   0.280   0.730 -0.6391 -0.1885 -0.5147
   95MOL0     C13032   6.996   0.225   0.864  0.2423  0.3230 -0.8206
   95MOL0     C13033   6.883   0.301   0.950  0.4020  0.7093 -0.3913
   95MOL0     C13034   6.863   0.249   1.095  0.2800 -1.0219  0.3350
   95MOL0     C13035   6.977   0.324   1.186  0.2728  0.4229  0.2752
   95MOL0     C13036   7.035   0.220   1.261  0.0607  0.0197 -0.8132
   95MOL0     C13037   7.092   0.127   1.316 -0.3914  0.6046  0.3632
   95MOL0     C13038   7.179   0.457   0.796 -0.6848 -0.2490 -0.1437
   95MOL0     C13039   7.219   0.590   0.777  0.3785  0.3098 -0.6198
   95MOL0     C13040   7.336   0.633   0.864  0.0886 -0.0815 -0.4016
   95MOL0     H13041   7.491   0.961   0.748 -1.8168 -0.2733  0.7663
   95MOL0     H13042   7.600   1.172   0.711  0.4745  0.7692  0.1471
   95MOL0     H13043   7.591   1.324   0.457 -2.5246 -1.5712  0.5734
   95MOL0     H13044   7.658   1.385   0.618 -1.4025 -0.0672  0.8036
   95MOL0     H13045   7.495   1.576   0.463  0.1930  1.2224  1.0708
   95MOL0     H13046   7.625   1.607   0.582 -6.0670  1.9742  2.3201
   95MOL0     H13047   7.787   1.509   0.424 -1.3509 -2.2880  1.3772
   95MOL0     H13048   7.671   1.474   0.313  0.7339 -2.7110  2.7914
   95MOL0     H13049   7.621   1.746   0.320 -0.3012 -1.0927  0.8675
   95MOL0     H13050   7.740   1.744   0.437 -3.1718  0.8326  0.1144
   95MOL0     H13051   7.777   1.704   0.135 -2.1615  4.0571  0.2487
   95MOL0     H13052   7.894   1.635   0.256 -0.6737  0.4132  2.9881
   95MOL0     H13053   7.937   1.848   0.136  2.4286  1.5128  1.0817
   95MOL0     H13054   7.802   1.933   0.226  0.3196  0.6789 -0.3839
   95MOL0     H13055   8.087   1.853   0.302  0.6095 -0.1091  2.7132
   95MOL0     H13056   7.972   1.837   0.429 -0.5117 -1.0673 -0.6147
   95MOL0     H13057   8.003   2.088   0.263 -3.0358 -1.2080 -1.4213
   95MOL0     H13058   7.902   2.072   0.411 -0.7885 -0.6029 -0.3791
   95MOL0     H13059   8.052   2.081   0.648 -2.1576  1.9676 -0.3837
   95MOL0     H13060   8.324   2.215   0.743  0.0645 -0.3740 -0.6718
   95MOL0     H13061   8.435   2.072   0.729 -0.0903 -1.2776  2.0916
   95MOL0     H13062   8.314   2.059   0.938 -0.3321 -0.3663 -0.5983
   95MOL0     H13063   8.165   2.091   0.860  0.9335  0.4838  0.5548
   95MOL0     H13064   8.183   1.883   0.724 -0.2525  0.2132 -0.1935
   95MOL0     H13065   8.348   1.860   0.778  0.1369 -0.2984  1.6658
   95MOL0     H13066   8.238   1.835   1.020 -2.3796  0.1046 -0.7295
   95MOL0     H13067   8.084   1.813   0.937 -2.1285 -3.2910 -3.4161
   95MOL0     H13068   8.400   1.726   1.128 -1.1827 -2.5575  1.3177
   95MOL0     H13069   8.741   1.718   1.142  0.4978  1.2636  4.3252
   95MOL0     H13070   8.686   1.566   1.217 -2.6791 -1.6218  0.3744
   95MOL0     H13071   8.584   1.706   1.236  1.1784 -1.2269  0.5033
   95MOL0     H13072   8.954   1.303   0.671 -0.3044  2.6362 -0.4323
   95MOL0     H13073   9.169   1.201   0.673  0.9363  0.6062  0.6380
   95MOL0     H13074   9.409   1.393   0.722 -3.0012  1.1985  2.6522
   95MOL0     H13075   9.471   1.392   0.888 -3.5918  0.2199  0.4130
   95MOL0     H13076   9.567   1.239   0.650  1.3349 -1.8294 -0.1300
   95MOL0     H13077   9.657   1.353   0.758  1.5572 -1.5945  0.5817
   95MOL0     H13078   9.560   1.069   0.826 -1.4268 -0.5371 -1.6222
   95MOL0     H13079   9.644   1.180   0.933 -1.0911 -1.0230 -0.6953
   95MOL0     H13080   9.766   1.092   0.665 -2.1163 -0.5827  1.1045
   95MOL0     H13081   9.794   0.985   0.798  0.3858 -0.3893 -4.0938
   95MOL0     H13082   9.879   1.258   0.799  2.3840  0.7060 -0.0784
   95MOL0     H13083   9.914   1.159   0.936  2.0536 -2.4821 -1.0713
   95MOL0     H13084  10.002   1.091   0.653 -1.4871  2.9801  0.6501
   95MOL0     H13085  10.046   0.995   0.792 -5.1759 -0.6176  0.1085
   95MOL0     H13086  10.191   1.185   0.875 -1.1398 -1.4384 -0.1331
   95MOL0     H13087  10.118   1.296   0.778 -0.5898 -0.1973  5.4712
   95MOL0     H13088  10.350   1.229   0.683 -0.2981 -1.2891  3.1718
   95MOL0     H13089  10.229   1.168   0.568  0.6072 -0.1958  0.2240
   95MOL0     H13090   9.278   1.381   1.040  1.5097 -0.6597  0.4157
   95MOL0     H13091   9.025   1.484   1.063  1.9358 -2.2197  2.1632
   95MOL0     H13092   8.603   1.443   0.773  0.6475  1.0589 -0.2206
   95MOL0     H13093   8.369   1.544   0.740 -0.0790  1.4092  0.2111
   95MOL0     H13094   7.208   1.312   0.572 -1.7045  0.0799 -0.0996
   95MOL0     H13095   7.113   1.095   0.664  0.1691  0.9191  2.0100
   95MOL0     H13096   7.004   0.663   0.527 -0.7952 -2.2783 -0.2048
   95MOL0     H13097   6.951   0.439   0.547  1.8597  1.3903 -2.4474
   95MOL0     H13098   6.959   0.122   0.861 -2.1472  0.9071  2.3213
   95MOL0     H13099   7.092   0.225   0.917 -0.2521 -3.0732  0.3458
   95MOL0     H13100   6.784   0.273   0.914  0.2898 -2.2299  1.8172
   95MOL0     H13101   6.905   0.407   0.935  1.4599  0.5872  0.1555
   95MOL0     H13102   6.765   0.270   1.140  0.0042 -2.8032  0.6544
   95MOL0     H13103   6.866   0.139   1.097 -1.1800 -1.1011  2.6319
   95MOL0     H13104   6.947   0.407   1.251  2.1699  1.9326 -0.6876
   95MOL0     H13105   7.045   0.369   1.113  1.9357 -1.6104  0.4676
   95MOL0     H13106   7.143   0.041   1.352 -2.1084 -1.3422 -1.5233
   95MOL0     H13107   7.220   0.398   0.877 -2.3686 -0.1566  0.8007
   95MOL0     H13108   7.306   0.718   0.926 -1.7615 -1.5843  0.8876
   95MOL0     H13109   7.372   0.543   0.916 -0.2033 -2.1028 -3.4366
   95MOL0     H13110   7.419   0.661   0.799 -1.0360 -0.2259 -1.9554
   96MOL0     O13111   7.091   5.027  11.112  0.3540  0.0534 -0.3228
   96MOL0     C13112   7.173   5.103  11.059  0.0883 -0.2029 -0.7129
   96MOL0     O13113   7.135   5.207  10.979  0.7540  0.1980 -0.1579
   96MOL0     C13114   6.999   5.210  10.929  0.6825  0.6926 -0.6144
   96MOL0     C13115   6.971   5.171  10.800 -0.6930 -0.2825 -0.0605
   96MOL0     C13116   6.843   5.174  10.753 -0.1584 -0.1478  0.6792
   96MOL0     C13117   6.733   5.213  10.826  0.3715 -0.4509  0.6989
   96MOL0     O13118   6.618   5.227  10.760 -0.0141  0.7260  0.1470
   96MOL0     C13119   6.504   5.276  10.834  0.7352  0.1620  0.7626
   96MOL0     C13120   6.435   5.155  10.904  0.0643 -0.2713  0.6175
   96MOL0     C13121   6.337   5.079  10.808 -0.5227 -0.3693 -0.2566
   96MOL0     C13122   6.287   4.948  10.869 -0.5202 -0.7067  0.3261
   96MOL0     C13123   6.215   4.956  11.005  0.0561  1.0027  0.0724
   96MOL0     C13124   6.169   4.819  11.035  0.1465 -0.4181 -0.4939
   96MOL0     C13125   6.100   4.823  11.161  0.4940 -1.2564 -0.3998
   96MOL0     C13126   5.947   4.823  11.141  0.3012 -0.7951  0.0351
   96MOL0     N13127   5.869   4.891  11.247 -0.3570  0.1183  0.0913
   96MOL0     C13128   5.823   4.838  11.375  0.6859 -1.3715  0.2911
   96MOL0     C13129   5.764   4.943  11.429  0.3203 -0.9164  0.3295
   96MOL0     C13130   5.683   4.956  11.556  0.2113 -0.0924 -0.5260
   96MOL0     C13131   5.587   4.845  11.582  0.4400 -0.0960  0.0271
   96MOL0     C13132   5.471   4.887  11.671 -0.2198  0.5926  1.1578
   96MOL0     C13133   5.402   4.774  11.745 -0.2816  0.0811  0.7718
   96MOL0     O13134   5.276   4.836  11.797 -0.6475  0.0782  0.4963
   96MOL0     C13135   5.235   4.848  11.926  0.2449  0.3804 -1.0643
   96MOL0     C13136   5.314   4.819  12.037 -0.1595 -0.3275  0.3254
   96MOL0     C13137   5.262   4.832  12.174 -0.4190  1.5253 -0.2484
   96MOL0     C13138   5.355   4.803  12.293  0.8276  0.1839  0.9952
   96MOL0     C13139   5.127   4.893  12.194 -0.0926  0.9385 -0.3530
   96MOL0     C13140   5.057   4.909  12.327 -0.8614  0.7997  1.2259
   96MOL0     O13141   4.975   5.015  12.339  0.1914 -0.6123 -0.2147
   96MOL0     C13142   4.870   5.036  12.418 -1.0035 -0.1500  0.5309
   96MOL0     C13143   4.780   5.141  12.377  0.1384  0.6864  0.3184
   96MOL0     C13144   4.669   5.183  12.455 -0.7465  0.3883  0.2609
   96MOL0     C13145   4.630   5.102  12.563  0.1603 -0.0908  0.6453
   96MOL0     O13146   4.500   5.135  12.594  0.5659 -0.2647  0.1998
   96MOL0     C13147   4.433   5.062  12.698  0.8771  0.1749 -0.9114
   96MOL0     C13148   4.287   5.098  12.702 -0.2035 -0.7099  0.7506
   96MOL0     C13149   4.216   5.013  12.814 -0.7928 -0.2926  0.2366
   96MOL0     C13150   4.069   5.056  12.831 -0.0066 -0.6413  0.2282
   96MOL0     C13151   3.978   4.975  12.931 -0.2802 -0.0069 -0.0875
   96MOL0     C13152   3.986   5.015  13.076 -0.0086  0.5479 -0.2770
   96MOL0     C13153   3.908   4.905  13.165 -0.2209  1.2840  0.4779
   96MOL0     C13154   3.929   4.926  13.316 -0.2735  0.1877  0.0580
   96MOL0    Cl13155   3.874   5.088  13.369 -0.8817  0.1824  0.1040
   96MOL0     C13156   4.715   4.993  12.593  0.4008 -0.8553 -0.0394
   96MOL0     C13157   4.831   4.964  12.529 -0.4828  0.1117 -0.4825
   96MOL0     O13158   5.068   4.819  12.410  0.1835  0.2151 -0.1322
   96MOL0     C13159   5.059   4.925  12.080 -1.1621  0.3986 -0.0100
   96MOL0     C13160   5.108   4.908  11.952  1.2332  0.4939 -0.0143
   96MOL0     N13161   5.760   5.052  11.344  0.0872  0.4225  0.3103
   96MOL0     N13162   5.826   5.023  11.236 -0.3496  0.7306 -0.6311
   96MOL0     C13163   6.759   5.258  10.959  0.0625 -0.4600  1.2819
   96MOL0     C13164   6.888   5.251  11.011  0.2156 -0.2240 -0.9323
   96MOL0     C13165   7.324   5.074  11.096 -0.4893 -0.7642  0.1505
   96MOL0     C13166   7.351   4.987  11.200  0.0193 -1.1066  0.4958
   96MOL0     C13167   7.485   4.966  11.239  0.5783  0.9778 -0.0625
   96MOL0     C13168   7.591   5.034  11.182 -0.3651 -0.8533 -1.1069
   96MOL0     O13169   7.717   5.015  11.227 -0.2123  0.6655  0.0294
   96MOL0     C13170   7.822   4.968  11.141  0.8330 -0.1034  0.3561
   96MOL0     C13171   7.949   4.985  11.216  0.2684 -0.5555 -0.5340
   96MOL0     C13172   8.072   4.896  11.174  0.8217 -1.2828 -0.1008
   96MOL0     C13173   8.072   4.751  11.225 -0.1994 -0.9933 -0.2154
   96MOL0     C13174   8.198   4.685  11.185  0.3553 -0.0883 -0.0364
   96MOL0     C13175   8.291   4.609  11.173 -0.5404  0.0846 -0.6645
   96MOL0     C13176   7.567   5.131  11.086  0.5312  0.5684  0.5017
   96MOL0     C13177   7.429   5.147  11.034 -0.1031  0.3307  0.1401
   96MOL0     C13178   7.412   5.242  10.919  0.1093  1.2425 -0.2347
   96MOL0     H13179   7.054   5.143  10.736  1.0787  1.6590  1.2358
   96MOL0     H13180   6.838   5.148  10.647  3.3255  0.7582  0.1566
   96MOL0     H13181   6.429   5.310  10.762  1.8308  2.9031  0.8122
   96MOL0     H13182   6.521   5.357  10.905  1.8945  0.4265  0.2104
   96MOL0     H13183   6.514   5.083  10.927  1.8986  1.7568  0.9016
   96MOL0     H13184   6.381   5.172  10.998 -2.2116 -1.6682 -0.3475
   96MOL0     H13185   6.251   5.143  10.788  2.1519  3.6644  0.0343
   96MOL0     H13186   6.391   5.046  10.719 -2.9164 -3.3585 -0.7787
   96MOL0     H13187   6.231   4.889  10.796  1.5306 -1.4607 -0.6930
   96MOL0     H13188   6.373   4.889  10.901 -1.6400 -1.7342  1.5895
   96MOL0     H13189   6.128   5.013  10.972 -0.5324 -0.1954 -0.5024
   96MOL0     H13190   6.266   4.999  11.092  2.0266  0.4074 -0.7285
   96MOL0     H13191   6.119   4.781  10.945  3.2322  1.0257 -3.0551
   96MOL0     H13192   6.258   4.755  11.043 -0.3518 -0.9571  1.1519
   96MOL0     H13193   6.124   4.912  11.219  1.1377 -2.5693  1.4279
   96MOL0     H13194   6.137   4.745  11.228  0.5415  1.5871  3.1726
   96MOL0     H13195   5.920   4.879  11.051  2.3203  0.9165  0.4246
   96MOL0     H13196   5.920   4.717  11.134 -3.1996 -0.2020  1.8596
   96MOL0     H13197   5.829   4.732  11.396 -2.2191 -2.1487 -2.0777
   96MOL0     H13198   5.619   5.040  11.528  0.4216  0.4511  0.6013
   96MOL0     H13199   5.748   4.975  11.641  2.7262  0.7632 -2.5252
   96MOL0     H13200   5.560   4.818  11.479  2.1789 -0.4548 -0.3688
   96MOL0     H13201   5.630   4.758  11.633 -2.4863 -0.8131  1.4997
   96MOL0     H13202   5.508   4.959  11.744  3.0735  1.8504 -1.5007
   96MOL0     H13203   5.403   4.927  11.595  1.9618 -1.4177 -2.0884
   96MOL0     H13204   5.377   4.699  11.670 -3.0961  2.2332 -0.6526
   96MOL0     H13205   5.461   4.741  11.831 -0.2565 -3.6559 -0.5274
   96MOL0     H13206   5.414   4.776  12.032  0.5638  1.3718 -0.9885
   96MOL0     H13207   5.423   4.887  12.303  0.3129  0.5673  1.3032
   96MOL0     H13208   5.423   4.717  12.287 -3.0273 -3.1230  0.2549
   96MOL0     H13209   5.288   4.785  12.377 -2.5373  1.1909 -1.2354
   96MOL0     H13210   4.836   5.199  12.304  1.4724 -3.1020 -1.9214
   96MOL0     H13211   4.608   5.269  12.432 -2.1630 -0.0880  2.0426
   96MOL0     H13212   4.454   4.955  12.687  0.0177  0.2644 -5.1592
   96MOL0     H13213   4.468   5.097  12.795  0.3727  1.8443 -1.3067
   96MOL0     H13214   4.277   5.205  12.723 -1.3000 -0.8568  1.0779
   96MOL0     H13215   4.233   5.080  12.609 -0.4502 -3.1104  1.3037
   96MOL0     H13216   4.278   5.018  12.904  3.3540 -0.2729 -2.2965
   96MOL0     H13217   4.226   4.912  12.772 -1.6120 -0.0502 -0.5621
   96MOL0     H13218   4.026   5.041  12.731 -0.5715  0.4470  0.2948
   96MOL0     H13219   4.075   5.160  12.863  2.9759 -0.6847  0.0099
   96MOL0     H13220   3.871   4.991  12.911 -0.3445  3.5796  2.1726
   96MOL0     H13221   4.004   4.872  12.907  1.1878  0.2572  0.2781
   96MOL0     H13222   3.935   5.112  13.079 -0.5114  0.2770  0.2255
   96MOL0     H13223   4.087   5.029  13.114  0.5165 -2.1625 -0.4583
   96MOL0     H13224   3.948   4.806  13.141 -0.8913  1.4608 -1.4815
   96MOL0     H13225   3.803   4.892  13.137  0.4227 -1.2466 -1.0393
   96MOL0     H13226   4.028   4.911  13.359 -2.0375 -1.5014  4.0575
   96MOL0     H13227   3.868   4.861  13.380 -0.6288  0.8319  0.3889
   96MOL0     H13228   4.673   4.924  12.666 -2.6491  1.7840  0.9558
   96MOL0     H13229   4.893   4.894  12.585 -0.4997  0.4736 -0.0027
   96MOL0     H13230   4.956   4.959  12.083 -1.4688 -0.4193 -0.8490
   96MOL0     H13231   5.034   4.943  11.881 -0.4619 -2.1054  0.3368
   96MOL0     H13232   6.679   5.286  11.027  0.8683  1.1178  1.6265
   96MOL0     H13233   6.910   5.293  11.109  0.9796 -2.7408  0.0785
   96MOL0     H13234   7.274   4.935  11.256 -0.2145 -2.8653 -1.3305
   96MOL0     H13235   7.510   4.895  11.317  0.5762 -0.7158 -1.5548
   96MOL0     H13236   7.810   4.862  11.120  0.2524  0.5253 -3.1174
   96MOL0     H13237   7.833   5.014  11.042  2.0671 -2.3575 -0.6126
   96MOL0     H13238   7.936   4.957  11.320  0.2043  1.1590 -0.0457
   96MOL0     H13239   7.975   5.091  11.218 -0.9534 -0.2317  1.9710
   96MOL0     H13240   8.078   4.893  11.065  1.6686 -1.9074 -0.0485
   96MOL0     H13241   8.159   4.947  11.217 -1.7319  1.9634  1.6592
   96MOL0     H13242   7.984   4.702  11.183 -2.0517  2.1737 -0.3358
   96MOL0     H13243   8.067   4.758  11.334 -0.3578  2.0011 -0.3312
   96MOL0     H13244   8.375   4.543  11.175  2.1444  3.2348  0.7324
   96MOL0     H13245   7.650   5.179  11.035 -1.6118  0.5947 -3.4107
   96MOL0     H13246   7.340   5.205  10.845  1.9613 -0.1064 -1.4362
   96MOL0     H13247   7.381   5.336  10.966  0.8817  1.8192 -0.8644
   96MOL0     H13248   7.508   5.265  10.874  0.7653 -0.3085  0.3112
   97MOL0     O13249   7.150   2.701   3.568  0.4595 -0.0005  0.1905
   97MOL0     C13250   7.209   2.811   3.544  1.3679 -0.4412 -0.3404
   97MOL0     O13251   7.172   2.930   3.595  0.8901  0.8075 -0.3025
   97MOL0     C13252   7.104   2.938   3.721 -0.0801 -1.1645  0.3894
   97MOL0     C13253   7.112   2.847   3.822  0.1199 -0.3558  0.1281
   97MOL0     C13254   7.034   2.844   3.935  0.6624 -0.1536 -0.2532
   97MOL0     C13255   6.946   2.951   3.955  0.3426 -0.8559 -0.6679
   97MOL0     O13256   6.870   2.962   4.069 -0.2683 -0.1104 -0.0040
   97MOL0     C13257   6.901   2.865   4.173  0.8518  0.8454  1.4154
   97MOL0     C13258   6.828   2.880   4.304 -0.0145 -0.5509  0.6927
   97MOL0     C13259   6.795   3.017   4.364 -0.1991 -0.0628  0.3067
   97MOL0     C13260   6.904   3.043   4.467 -0.3200 -0.1191 -0.7975
   97MOL0     C13261   6.889   3.193   4.534  0.1429 -0.6877  0.2573
   97MOL0     C13262   6.755   3.229   4.601 -0.1133 -0.7961  0.1790
   97MOL0     C13263   6.731   3.120   4.710  0.2632 -1.3097  0.0369
   97MOL0     C13264   6.610   3.174   4.793 -0.2411  1.2926  0.9012
   97MOL0     N13265   6.552   3.054   4.848  0.1987  0.5321 -0.2553
   97MOL0     C13266   6.432   2.990   4.820  1.0075 -0.2303 -1.2156
   97MOL0     C13267   6.430   2.889   4.911 -0.2634 -0.1247  0.3315
   97MOL0     C13268   6.318   2.794   4.931  0.1642 -0.4060 -0.3873
   97MOL0     C13269   6.269   2.744   4.796 -0.0615 -0.0086 -0.5525
   97MOL0     C13270   6.155   2.646   4.813 -0.1062 -0.7288 -0.5890
   97MOL0     C13271   6.188   2.507   4.851 -0.2999  0.1084 -0.0532
   97MOL0     O13272   6.069   2.433   4.868 -0.1666  0.2064 -0.2020
   97MOL0     C13273   6.072   2.300   4.898  0.8986 -0.6693 -0.3347
   97MOL0     C13274   6.183   2.213   4.907  0.7206 -0.3755  0.4803
   97MOL0     C13275   6.162   2.074   4.911 -1.0716  0.2776 -0.1669
   97MOL0     C13276   6.294   1.994   4.908 -0.2387  0.0052 -0.9673
   97MOL0     C13277   6.030   2.024   4.939 -0.5349 -0.5411 -0.2755
   97MOL0     C13278   5.989   1.887   4.948 -0.4084  0.5517 -0.6587
   97MOL0     O13279   6.079   1.801   4.905 -0.4716  0.4266  1.2271
   97MOL0     C13280   6.047   1.671   4.889 -0.6709 -0.7177 -0.1626
   97MOL0     C13281   6.052   1.602   4.765 -0.4749  0.3827 -0.3168
   97MOL0     C13282   6.045   1.458   4.759  0.8088  0.6915  0.0341
   97MOL0     C13283   6.009   1.387   4.880  0.0033 -0.3302  0.2259
   97MOL0     O13284   5.978   1.258   4.863  0.1323  0.0777  0.1649
   97MOL0     C13285   5.994   1.175   4.739  0.2810 -0.2765 -0.4436
   97MOL0     C13286   5.910   1.045   4.764 -0.0018  0.0562  0.5520
   97MOL0     C13287   5.759   1.052   4.803 -0.1540 -0.4607 -0.5536
   97MOL0     C13288   5.676   0.946   4.735  0.2447 -0.3444  0.2750
   97MOL0     C13289   5.650   0.999   4.588 -0.4408  0.5220  0.0074
   97MOL0     C13290   5.538   0.934   4.507 -0.7439  0.0538  0.1127
   97MOL0     C13291   5.536   0.967   4.359  0.4661 -0.0728 -0.4651
   97MOL0     C13292   5.395   0.948   4.302 -0.5267 -0.5634 -0.3139
   97MOL0    Cl13293   5.320   0.779   4.295  0.1125  0.8766  0.3437
   97MOL0     C13294   6.014   1.453   5.001 -0.2806 -0.6624 -0.2987
   97MOL0     C13295   6.035   1.597   5.007 -0.5912 -0.2090 -0.5733
   97MOL0     O13296   5.871   1.864   4.966 -0.5138 -0.4557 -0.6061
   97MOL0     C13297   5.920   2.115   4.947 -0.0577 -0.3998  1.4229
   97MOL0     C13298   5.944   2.250   4.914 -0.1694 -0.7179  0.1309
   97MOL0     N13299   6.550   2.888   4.981 -0.4619 -0.6971 -0.6332
   97MOL0     N13300   6.616   2.988   4.951 -0.1041 -0.2341 -0.2792
   97MOL0     C13301   6.935   3.052   3.853  0.0449  0.2146  0.8097
   97MOL0     C13302   7.020   3.048   3.746 -0.3121  0.2092 -0.3786
   97MOL0     C13303   7.315   2.823   3.447  0.4392  0.6069  0.4686
   97MOL0     C13304   7.337   2.950   3.398 -0.0291 -0.0281  0.3177
   97MOL0     C13305   7.425   2.968   3.288 -0.1633 -0.3699  0.3277
   97MOL0     C13306   7.492   2.857   3.231  0.0399  0.9350  0.3326
   97MOL0     O13307   7.561   2.892   3.119 -0.2392  0.2272 -1.2091
   97MOL0     C13308   7.628   2.797   3.039 -0.5563  0.6358  0.1484
   97MOL0     C13309   7.742   2.840   2.942  0.1763  0.2645 -0.0839
   97MOL0     C13310   7.816   2.954   3.011  0.0481 -0.0443  0.6827
   97MOL0     C13311   7.943   3.002   2.924  0.3884  0.5330  0.3059
   97MOL0     C13312   8.018   3.119   2.981  0.1850  0.7900 -0.4043
   97MOL0     C13313   8.095   3.200   3.017 -0.1334 -0.5009  0.6302
   97MOL0     C13314   7.475   2.734   3.285  0.8651 -0.0145  0.2010
   97MOL0     C13315   7.387   2.714   3.400  1.0011 -0.0128  1.3390
   97MOL0     C13316   7.363   2.571   3.455  0.4395  0.3544 -0.3408
   97MOL0     H13317   7.188   2.770   3.814  0.7005  0.2959 -1.0865
   97MOL0     H13318   7.059   2.767   4.007 -2.1196 -1.0819 -0.1405
   97MOL0     H13319   7.008   2.872   4.193  1.0373  2.6627  0.0503
   97MOL0     H13320   6.876   2.764   4.139  1.4654  0.0229  3.3092
   97MOL0     H13321   6.727   2.845   4.280  0.5775 -1.6019 -0.3695
   97MOL0     H13322   6.858   2.801   4.374  2.2526 -1.5546 -1.3142
   97MOL0     H13323   6.789   3.094   4.287  2.3457 -1.2547 -1.2334
   97MOL0     H13324   6.694   3.017   4.406 -0.0549  3.5615  0.9310
   97MOL0     H13325   6.915   2.964   4.542 -0.9946 -1.1166 -1.7216
   97MOL0     H13326   7.002   3.034   4.420 -0.6720 -3.4774 -1.1097
   97MOL0     H13327   6.900   3.253   4.444  1.8341 -2.3025 -0.6925
   97MOL0     H13328   6.971   3.224   4.600 -0.3512  2.4654 -0.4517
   97MOL0     H13329   6.763   3.318   4.664 -1.3291 -3.0714  3.8989
   97MOL0     H13330   6.670   3.235   4.533  0.2578  1.2519 -0.1487
   97MOL0     H13331   6.823   3.104   4.767 -0.6828  1.1731  2.4689
   97MOL0     H13332   6.722   3.020   4.666 -0.0717 -0.6756 -1.3710
   97MOL0     H13333   6.661   3.233   4.870  1.2681 -2.6427  3.2264
   97MOL0     H13334   6.534   3.226   4.735 -2.0810 -3.1976 -1.1736
   97MOL0     H13335   6.354   3.034   4.758 -1.7215 -1.4593  1.1557
   97MOL0     H13336   6.239   2.847   4.984  1.0074 -0.4033  0.9070
   97MOL0     H13337   6.355   2.710   4.991  1.4510 -1.0214 -1.9590
   97MOL0     H13338   6.228   2.826   4.737  1.3388  1.3692  0.3215
   97MOL0     H13339   6.352   2.712   4.731 -1.2530 -0.3410 -1.9789
   97MOL0     H13340   6.072   2.683   4.873 -2.1831 -2.0888 -2.4623
   97MOL0     H13341   6.104   2.627   4.718 -2.7165  1.0082  0.3510
   97MOL0     H13342   6.266   2.474   4.781  0.4186 -2.3366  1.7646
   97MOL0     H13343   6.244   2.504   4.945 -1.1148  0.4726  0.4565
   97MOL0     H13344   6.282   2.248   4.882 -0.1786  1.8850 -0.1480
   97MOL0     H13345   6.304   1.955   4.806 -1.4457 -1.4166 -0.5815
   97MOL0     H13346   6.285   1.916   4.984  0.8230  1.7417  1.0378
   97MOL0     H13347   6.375   2.064   4.930  1.2372 -2.2780  1.3175
   97MOL0     H13348   6.072   1.660   4.676  0.3550  0.3520 -0.1613
   97MOL0     H13349   6.072   1.404   4.669 -1.6454 -0.6044 -0.0369
   97MOL0     H13350   5.961   1.236   4.654 -0.9313 -1.8622 -1.1608
   97MOL0     H13351   6.099   1.147   4.727  0.3415 -1.2772  1.9755
   97MOL0     H13352   5.928   0.987   4.673  2.4762  1.3306  0.1271
   97MOL0     H13353   5.954   0.982   4.841 -2.0831 -0.1626  1.6256
   97MOL0     H13354   5.729   1.153   4.775 -1.0289 -0.9204 -1.3541
   97MOL0     H13355   5.745   1.052   4.912 -2.4060  2.2308 -0.7413
   97MOL0     H13356   5.579   0.947   4.785  1.6380 -0.7493  3.1679
   97MOL0     H13357   5.714   0.844   4.740  0.5377 -0.1777  3.4002
   97MOL0     H13358   5.637   1.107   4.585  2.1346  0.8898  0.0593
   97MOL0     H13359   5.740   0.979   4.530  1.3445  0.0051  2.7710
   97MOL0     H13360   5.443   0.960   4.555  1.1539  1.2681  3.5996
   97MOL0     H13361   5.540   0.825   4.503 -3.3358 -0.0467 -0.0483
   97MOL0     H13362   5.609   0.905   4.306  0.1687 -1.3944  0.6205
   97MOL0     H13363   5.570   1.071   4.348  5.1850 -1.0925  1.8451
   97MOL0     H13364   5.391   0.982   4.198 -2.5939 -1.3664 -0.5582
   97MOL0     H13365   5.328   1.014   4.359  2.2769 -0.2187  2.8847
   97MOL0     H13366   6.009   1.408   5.099 -2.0966  0.0468 -0.0347
   97MOL0     H13367   6.024   1.647   5.103  1.1915 -0.0971 -0.3956
   97MOL0     H13368   5.817   2.082   4.959  0.6192 -1.9465  3.8227
   97MOL0     H13369   5.858   2.316   4.904 -0.8146 -1.0965  2.6414
   97MOL0     H13370   6.856   3.127   3.848  0.8945  1.0594 -0.4421
   97MOL0     H13371   7.010   3.123   3.668  1.3088 -0.3952 -1.2096
   97MOL0     H13372   7.286   3.034   3.446 -0.4603 -1.6561  2.9298
   97MOL0     H13373   7.445   3.071   3.262 -1.3587  0.2697  1.7655
   97MOL0     H13374   7.655   2.709   3.097 -2.8839 -0.2406 -0.0061
   97MOL0     H13375   7.555   2.760   2.967  2.4257 -1.6486 -1.9490
   97MOL0     H13376   7.696   2.872   2.848 -3.3934 -1.9066  0.7255
   97MOL0     H13377   7.811   2.757   2.932 -0.6663 -0.5025  0.2976
   97MOL0     H13378   7.755   3.045   3.013  1.9904  1.3305  0.7430
   97MOL0     H13379   7.851   2.918   3.108  1.0993 -4.6840 -1.1485
   97MOL0     H13380   7.900   3.033   2.828 -2.3536  3.0219  2.1497
   97MOL0     H13381   8.025   2.933   2.904  2.5913  3.4270 -1.4528
   97MOL0     H13382   8.163   3.280   3.036  0.7420 -0.8862 -0.7751
   97MOL0     H13383   7.517   2.641   3.247 -0.2326 -1.1086  1.5628
   97MOL0     H13384   7.448   2.510   3.423  0.9687 -1.5320  3.9600
   97MOL0     H13385   7.371   2.569   3.564 -0.0304  1.7537 -0.2602
   97MOL0     H13386   7.263   2.545   3.419 -0.4258  1.6632  1.0158
   98MOL0     O13387   2.758   9.782   4.751  0.3748  0.3564 -0.5529
   98MOL0     C13388   2.791   9.745   4.864  0.4969 -0.1581 -0.1688
   98MOL0     O13389   2.883   9.643   4.897  0.5126 -0.6271  1.1030
   98MOL0     C13390   2.963   9.604   4.791 -0.0342 -0.1388  0.1469
   98MOL0     C13391   3.093   9.569   4.833  0.2627  0.3760 -0.2091
   98MOL0     C13392   3.180   9.520   4.746  0.5914 -0.1900 -1.1269
   98MOL0     C13393   3.159   9.500   4.612  0.2162  0.5405  0.2425
   98MOL0     O13394   3.257   9.467   4.523  0.3542  0.5431 -0.6837
   98MOL0     C13395   3.362   9.555   4.512  0.0690  0.3252 -0.6211
   98MOL0     C13396   3.481   9.516   4.596 -0.3426 -0.5065  0.5929
   98MOL0     C13397   3.530   9.374   4.543 -0.6393  0.2264 -0.7027
   98MOL0     C13398   3.620   9.317   4.659  0.1058 -0.3810 -0.1093
   98MOL0     C13399   3.680   9.184   4.625 -0.2914 -0.4476 -1.2174
   98MOL0     C13400   3.797   9.212   4.533 -0.2334  0.6465  0.9500
   98MOL0     C13401   3.904   9.299   4.608  0.0057  0.1629 -0.6786
   98MOL0     C13402   4.039   9.276   4.542 -0.6044 -1.2311 -0.7782
   98MOL0     N13403   4.150   9.334   4.631 -0.9090  0.0729  0.9609
   98MOL0     C13404   4.199   9.464   4.641 -0.3239 -0.0578 -0.0259
   98MOL0     C13405   4.291   9.457   4.735 -0.9568 -0.2585  0.1770
   98MOL0     C13406   4.369   9.565   4.800  0.2241 -0.8878 -1.0158
   98MOL0     C13407   4.433   9.526   4.922  0.5209  1.4675 -0.8270
   98MOL0     C13408   4.512   9.639   4.988  0.2733 -0.4178 -0.5550
   98MOL0     C13409   4.587   9.603   5.118 -0.1507 -0.8588 -1.1941
   98MOL0     O13410   4.669   9.718   5.150 -0.8461 -0.4778 -0.8500
   98MOL0     C13411   4.599   9.834   5.179 -0.2715  0.0214 -0.3324
   98MOL0     C13412   4.464   9.852   5.218  0.3055 -0.1911 -0.0736
   98MOL0     C13413   4.411   9.979   5.242 -0.3906  0.5178  1.2009
   98MOL0     C13414   4.267   9.988   5.280 -0.3057 -0.3937 -0.9741
   98MOL0     C13415   4.489  10.091   5.204  1.0395 -0.1805 -0.2383
   98MOL0     C13416   4.428  10.231   5.195 -0.6269 -1.2082 -0.2800
   98MOL0     O13417   4.484  10.331   5.114  0.4146 -0.3029  0.0245
   98MOL0     C13418   4.419  10.448   5.110  0.2068 -0.6009 -0.6305
   98MOL0     C13419   4.387  10.510   4.987 -0.0618 -0.4449  0.5189
   98MOL0     C13420   4.334  10.634   4.963 -0.1435 -0.0128 -0.2331
   98MOL0     C13421   4.330  10.717   5.077 -0.0911  0.3062  0.4751
   98MOL0     O13422   4.298  10.851   5.055  0.0058 -0.5619  0.4820
   98MOL0     C13423   4.416  10.925   5.075  0.3742 -0.2148  0.2756
   98MOL0     C13424   4.492  10.950   4.941  0.1014  0.3912  0.3668
   98MOL0     C13425   4.385  10.980   4.829  0.3313  1.3579 -0.0261
   98MOL0     C13426   4.452  11.055   4.717 -0.7306  0.8757  0.3095
   98MOL0     C13427   4.353  11.124   4.620 -0.6731 -0.1611  0.2615
   98MOL0     C13428   4.317  11.045   4.502 -0.0226 -0.5239 -0.8656
   98MOL0     C13429   4.223  11.132   4.415 -0.1395 -0.1407 -0.1280
   98MOL0     C13430   4.080  11.078   4.398  0.9766 -0.4128 -0.4562
   98MOL0    Cl13431   4.060  10.919   4.328 -0.1215 -0.0780 -0.0876
   98MOL0     C13432   4.360  10.658   5.200  0.7716 -1.7041 -0.5405
   98MOL0     C13433   4.406  10.525   5.219  0.2316 -0.3727 -0.6170
   98MOL0     O13434   4.341  10.251   5.278 -0.1370  0.4049  0.4108
   98MOL0     C13435   4.624  10.069   5.155  0.6619 -0.0517  0.1492
   98MOL0     C13436   4.671   9.942   5.148 -0.1100 -0.6417  0.3151
   98MOL0     N13437   4.309   9.320   4.773  0.1021  0.2429 -0.4331
   98MOL0     N13438   4.218   9.248   4.710 -0.5803 -0.3415  0.2161
   98MOL0     C13439   3.029   9.529   4.567  0.3104  0.1818 -0.9216
   98MOL0     C13440   2.925   9.577   4.655 -0.1522  0.2657 -0.2265
   98MOL0     C13441   2.726   9.814   4.982  0.2681 -0.1689  0.0250
   98MOL0     C13442   2.777   9.769   5.112 -0.1852  0.9049  0.2884
   98MOL0     C13443   2.733   9.809   5.231 -0.3167 -0.6703  0.7098
   98MOL0     C13444   2.625   9.900   5.234  0.5925 -0.2891  0.4795
   98MOL0     O13445   2.551   9.952   5.339 -0.6540  0.7372  0.1308
   98MOL0     C13446   2.601   9.928   5.472 -0.6223 -0.3700  0.2725
   98MOL0     C13447   2.488   9.957   5.575  0.3352  0.0549  0.0601
   98MOL0     C13448   2.396   9.829   5.593 -0.8658 -0.2424 -0.2452
   98MOL0     C13449   2.453   9.705   5.666 -0.5599 -0.8506  0.8296
   98MOL0     C13450   2.434   9.748   5.803  0.1152  0.0469 -0.1023
   98MOL0     C13451   2.422   9.797   5.916  0.4208  0.5256  0.0376
   98MOL0     C13452   2.583   9.956   5.115  1.3339 -0.2523 -0.0175
   98MOL0     C13453   2.630   9.913   4.988  0.6153 -0.5782  0.4458
   98MOL0     C13454   2.581   9.977   4.864 -0.3530  0.4376 -0.5009
   98MOL0     H13455   3.120   9.578   4.938 -0.9902 -2.8181  0.5106
   98MOL0     H13456   3.268   9.485   4.799  0.5280  1.9217  0.5023
   98MOL0     H13457   3.325   9.653   4.542 -2.1205 -0.3286 -1.0175
   98MOL0     H13458   3.387   9.572   4.407 -2.4498  2.5295 -0.9666
   98MOL0     H13459   3.563   9.586   4.578  1.8868 -2.9209  0.8599
   98MOL0     H13460   3.461   9.523   4.703  2.9257 -1.8123  1.4052
   98MOL0     H13461   3.453   9.298   4.528  1.5853 -2.5175  0.7092
   98MOL0     H13462   3.582   9.401   4.450 -0.8557  2.3552 -0.2455
   98MOL0     H13463   3.688   9.394   4.698 -0.6103  1.7137 -2.6682
   98MOL0     H13464   3.553   9.292   4.742  0.8515 -1.4642  0.1863
   98MOL0     H13465   3.608   9.119   4.573  0.5110 -2.2447 -0.1737
   98MOL0     H13466   3.717   9.141   4.718 -3.0753  0.3292  0.3765
   98MOL0     H13467   3.829   9.117   4.489 -0.0242  2.8938 -4.4758
   98MOL0     H13468   3.761   9.266   4.445  1.9819 -1.3882 -1.4005
   98MOL0     H13469   3.898   9.266   4.712  1.3864 -0.4269 -0.7683
   98MOL0     H13470   3.870   9.403   4.598 -2.1285 -0.3787  0.4748
   98MOL0     H13471   4.053   9.169   4.519 -0.6736 -1.3214 -0.4050
   98MOL0     H13472   4.048   9.327   4.446 -0.0410 -1.5163 -0.8854
   98MOL0     H13473   4.147   9.543   4.589  0.1905 -0.9842 -2.0546
   98MOL0     H13474   4.306   9.654   4.811 -0.6793 -0.9786 -4.3518
   98MOL0     H13475   4.441   9.599   4.725  1.6834 -1.7504 -0.0433
   98MOL0     H13476   4.368   9.475   4.994  1.9898  1.7848  0.7817
   98MOL0     H13477   4.503   9.446   4.900  0.2042  0.3777  1.7484
   98MOL0     H13478   4.577   9.663   4.904 -1.1518 -1.2666 -1.9520
   98MOL0     H13479   4.432   9.712   4.998  1.2792  1.3321 -3.7292
   98MOL0     H13480   4.524   9.575   5.203  1.3617  0.3540  0.3935
   98MOL0     H13481   4.668   9.532   5.103  0.6609 -1.2137  3.4636
   98MOL0     H13482   4.393   9.773   5.239 -0.4579 -0.4530 -3.0911
   98MOL0     H13483   4.224   9.889   5.295  2.4960 -1.3964  1.5358
   98MOL0     H13484   4.199  10.045   5.216 -0.7095  0.1325 -0.1035
   98MOL0     H13485   4.277  10.028   5.381  1.9872 -0.4686 -1.1223
   98MOL0     H13486   4.413  10.455   4.897  0.5674  1.4673 -0.5423
   98MOL0     H13487   4.297  10.670   4.867  1.3944  2.4953  0.0132
   98MOL0     H13488   4.391  11.027   5.103  0.2244 -0.3749  0.7365
   98MOL0     H13489   4.477  10.896   5.161 -1.9981  0.8431  2.4294
   98MOL0     H13490   4.555  11.039   4.950  2.1012 -0.5698 -2.5332
   98MOL0     H13491   4.552  10.859   4.927  2.8725  1.5260  3.4717
   98MOL0     H13492   4.314  11.051   4.872 -1.1991 -0.1015 -0.0261
   98MOL0     H13493   4.337  10.886   4.800  4.4348 -1.4905  1.5572
   98MOL0     H13494   4.511  11.004   4.640 -0.5526 -0.5455  1.3481
   98MOL0     H13495   4.519  11.125   4.767 -1.8332  1.6118  0.7996
   98MOL0     H13496   4.270  11.164   4.679 -0.9213  1.6428 -1.2169
   98MOL0     H13497   4.408  11.210   4.580  2.7045 -2.6146 -0.8287
   98MOL0     H13498   4.274  10.950   4.535  2.8435 -1.7962 -0.5216
   98MOL0     H13499   4.395  11.006   4.436  0.3412 -3.2305  1.0246
   98MOL0     H13500   4.272  11.117   4.318 -1.2448  0.7054 -0.8376
   98MOL0     H13501   4.223  11.241   4.430 -1.6469 -0.1758  0.2854
   98MOL0     H13502   4.024  11.142   4.329 -1.4137 -0.7952  1.0318
   98MOL0     H13503   4.029  11.085   4.495  0.5610 -0.5151 -0.6673
   98MOL0     H13504   4.352  10.733   5.279 -0.4429 -3.1083  0.7270
   98MOL0     H13505   4.429  10.492   5.320  2.4986 -1.2106 -1.3502
   98MOL0     H13506   4.687  10.154   5.132  0.1378 -0.1275 -1.7146
   98MOL0     H13507   4.775   9.922   5.123 -0.1697 -0.9870  0.3338
   98MOL0     H13508   3.001   9.509   4.463 -3.8714 -0.7672  0.1935
   98MOL0     H13509   2.826   9.593   4.615 -0.9601 -1.2521  1.0420
   98MOL0     H13510   2.860   9.700   5.122  0.7782  1.5987 -2.1059
   98MOL0     H13511   2.747   9.751   5.322  2.3831 -0.8180  0.2953
   98MOL0     H13512   2.660   9.837   5.485  3.8771  2.1798 -0.3290
   98MOL0     H13513   2.684   9.998   5.487 -0.7054  0.2110 -1.6517
   98MOL0     H13514   2.424  10.033   5.528  1.1672 -0.6468 -2.3730
   98MOL0     H13515   2.541  10.002   5.659  2.3512 -0.2118 -1.0021
   98MOL0     H13516   2.301   9.862   5.636  0.4574 -1.2453  3.8848
   98MOL0     H13517   2.383   9.806   5.487 -0.6562 -0.7815 -0.1556
   98MOL0     H13518   2.559   9.695   5.640 -1.4214 -3.1440 -2.5177
   98MOL0     H13519   2.394   9.614   5.649 -0.8295 -0.6192  0.4936
   98MOL0     H13520   2.400   9.831   6.015  1.0404  1.1704 -0.0404
   98MOL0     H13521   2.500  10.025   5.127  2.7104  1.7862 -1.5739
   98MOL0     H13522   2.537   9.903   4.797 -2.0829 -0.9649  1.9924
   98MOL0     H13523   2.500  10.050   4.881 -0.2106  0.2108  1.3946
   98MOL0     H13524   2.666  10.030   4.819 -0.5363 -1.0806 -2.7855
   99MOL0     O13525  10.463   1.310   6.124 -0.6232  1.1324  1.0515
   99MOL0     C13526  10.365   1.266   6.175 -0.7427 -0.3294  1.0293
   99MOL0     O13527  10.375   1.181   6.281 -0.0057  0.1598  0.0415
   99MOL0     C13528  10.273   1.172   6.369 -0.7605 -0.0236 -0.2722
   99MOL0     C13529  10.284   1.234   6.501 -0.8666  0.5309 -0.0083
   99MOL0     C13530  10.191   1.202   6.599  0.6807 -0.6922  0.5193
   99MOL0     C13531  10.081   1.127   6.566  0.3830 -0.0736  0.1909
   99MOL0     O13532   9.978   1.098   6.655  1.0044 -0.0079 -0.6963
   99MOL0     C13533   9.961   1.181   6.772 -0.0325 -0.2323  1.0938
   99MOL0     C13534   9.815   1.214   6.815  0.0132  0.5229  0.3423
   99MOL0     C13535   9.719   1.239   6.698  0.2638  0.5878  0.2432
   99MOL0     C13536   9.584   1.300   6.744 -0.0354 -0.0449  0.2436
   99MOL0     C13537   9.491   1.189   6.795 -0.8239 -0.9137  0.0806
   99MOL0     C13538   9.355   1.254   6.820  1.0419 -0.1515 -1.4433
   99MOL0     C13539   9.341   1.306   6.958 -0.2500 -0.8966  0.3411
   99MOL0     C13540   9.275   1.195   7.051 -0.0983 -0.2025  0.6534
   99MOL0     N13541   9.346   1.071   7.084 -0.2609  0.5183  0.6502
   99MOL0     C13542   9.348   0.962   7.005 -0.0873 -0.0791  0.2005
   99MOL0     C13543   9.406   0.861   7.070  0.8263  0.3154 -1.1766
   99MOL0     C13544   9.433   0.715   7.017 -0.3373  0.3463  0.5019
   99MOL0     C13545   9.311   0.639   6.972  0.3424  0.3021  0.2869
   99MOL0     C13546   9.275   0.651   6.820  0.1217 -0.8674  0.1021
   99MOL0     C13547   9.161   0.552   6.784 -0.5055  0.5005 -0.1413
   99MOL0     O13548   9.102   0.586   6.657 -0.5555  0.4628  0.2715
   99MOL0     C13549   9.024   0.497   6.585 -0.7882 -0.7304 -1.1356
   99MOL0     C13550   8.957   0.550   6.480 -0.2698  0.2207 -1.1323
   99MOL0     C13551   8.872   0.470   6.408  0.7601  0.5179 -0.5537
   99MOL0     C13552   8.816   0.537   6.277 -0.4031  0.3887 -0.6073
   99MOL0     C13553   8.846   0.335   6.450  0.1553 -0.4998  0.9664
   99MOL0     C13554   8.750   0.247   6.377  0.1807 -0.4337  0.6089
   99MOL0     O13555   8.732   0.131   6.444 -0.0301 -0.2756 -0.0082
   99MOL0     C13556   8.631   0.050   6.400 -0.0073  0.2158  0.0588
   99MOL0     C13557   8.528   0.017   6.485  0.2313 -0.9167 -0.5860
   99MOL0     C13558   8.440  -0.086   6.462 -0.1768 -0.6485  0.1922
   99MOL0     C13559   8.435  -0.141   6.340 -0.0369  0.9885  0.3305
   99MOL0     O13560   8.323  -0.219   6.289 -0.2260 -0.7542 -0.2117
   99MOL0     C13561   8.293  -0.224   6.152 -0.1095 -0.0727 -0.1776
   99MOL0     C13562   8.146  -0.269   6.132  0.5763  0.1790  0.1093
   99MOL0     C13563   8.118  -0.331   5.996 -0.8765 -0.0063 -0.3028
   99MOL0     C13564   8.119  -0.211   5.894 -0.3557 -0.7379 -1.4251
   99MOL0     C13565   8.110  -0.244   5.752 -0.3198 -0.0210  0.5445
   99MOL0     C13566   8.227  -0.326   5.693 -0.1870 -0.3130  0.3611
   99MOL0     C13567   8.238  -0.351   5.538  0.6092  1.1258 -0.4612
   99MOL0     C13568   8.245  -0.224   5.451  0.8047  0.1959  0.3983
   99MOL0    Cl13569   8.332  -0.083   5.514 -0.0954  0.0987 -0.4858
   99MOL0     C13570   8.540  -0.113   6.245  0.4732 -1.0829  0.4727
   99MOL0     C13571   8.640  -0.019   6.277 -0.0691  0.7234 -0.0823
   99MOL0     O13572   8.684   0.290   6.276  0.6997  0.5706 -0.5649
   99MOL0     C13573   8.908   0.288   6.561 -0.0635  0.2260 -0.7827
   99MOL0     C13574   8.996   0.368   6.633 -0.0866  0.8488  0.0487
   99MOL0     N13575   9.436   0.921   7.199 -0.5542  0.3387  1.0791
   99MOL0     N13576   9.406   1.045   7.205  0.8026  0.0049 -0.2146
   99MOL0     C13577  10.085   1.058   6.448  0.2524  0.5000  0.0791
   99MOL0     C13578  10.179   1.070   6.352 -0.3411 -0.5125 -0.2426
   99MOL0     C13579  10.233   1.319   6.133 -0.4688  0.1589  0.5634
   99MOL0     C13580  10.149   1.236   6.042 -0.9475 -0.7010 -0.0135
   99MOL0     C13581  10.030   1.293   5.993  0.0913 -0.0884 -0.5597
   99MOL0     C13582   9.996   1.426   6.022 -0.2503 -0.9518  0.8022
   99MOL0     O13583   9.881   1.465   5.958  0.5101 -0.7775  0.0500
   99MOL0     C13584   9.834   1.609   5.957 -0.0589 -0.3393  0.2598
   99MOL0     C13585   9.712   1.625   6.050 -0.5688 -0.3707  1.3387
   99MOL0     C13586   9.697   1.774   6.093 -1.6523  0.5817  0.9962
   99MOL0     C13587   9.574   1.794   6.185  0.1858 -0.2074 -0.3354
   99MOL0     C13588   9.542   1.934   6.212  0.1505 -0.9994  0.4313
   99MOL0     C13589   9.521   2.044   6.256 -1.1429 -0.3502  0.2043
   99MOL0     C13590  10.062   1.497   6.120  0.1425  0.3645 -0.0902
   99MOL0     C13591  10.183   1.447   6.176  0.4825 -0.0485  0.0630
   99MOL0     C13592  10.257   1.531   6.277  0.6289  0.6777  0.0010
   99MOL0     H13593  10.368   1.298   6.524 -0.1949  0.3965 -1.9061
   99MOL0     H13594  10.213   1.244   6.696  1.5336 -1.9355  0.8847
   99MOL0     H13595  10.013   1.276   6.752 -0.5211 -0.6894 -3.5904
   99MOL0     H13596  10.002   1.141   6.865  1.3509 -1.1201  0.1525
   99MOL0     H13597   9.770   1.131   6.870 -0.8820  0.4748 -0.4314
   99MOL0     H13598   9.823   1.301   6.881 -0.2304  1.7582 -1.1847
   99MOL0     H13599   9.770   1.314   6.636  2.8384  0.9153  2.5493
   99MOL0     H13600   9.706   1.152   6.633  0.6176  1.5301 -1.1524
   99MOL0     H13601   9.609   1.374   6.821  1.3445 -0.2871  0.0633
   99MOL0     H13602   9.535   1.359   6.666 -1.2792  1.7614  2.2750
   99MOL0     H13603   9.530   1.140   6.884 -0.1630 -0.0838  0.2657
   99MOL0     H13604   9.477   1.122   6.710  0.1733  0.7140 -1.4437
   99MOL0     H13605   9.313   1.337   6.762  0.0120  1.7356  1.7154
   99MOL0     H13606   9.270   1.186   6.814 -1.5687  2.7186  0.0471
   99MOL0     H13607   9.295   1.405   6.965 -1.4247 -1.3415 -0.7545
   99MOL0     H13608   9.443   1.315   6.996  0.2848  0.1090 -1.2307
   99MOL0     H13609   9.266   1.243   7.149 -2.0596 -0.1963  0.5013
   99MOL0     H13610   9.174   1.171   7.018 -0.3441 -0.4476  1.5547
   99MOL0     H13611   9.298   0.953   6.909 -2.2663  2.8284  0.9330
   99MOL0     H13612   9.482   0.661   7.099 -1.1499  1.2732  1.6400
   99MOL0     H13613   9.500   0.704   6.931  0.2399  0.9832  0.8627
   99MOL0     H13614   9.339   0.534   6.992  2.0847  0.9035  1.2602
   99MOL0     H13615   9.224   0.670   7.030 -0.7367  0.4025 -1.3479
   99MOL0     H13616   9.226   0.744   6.788 -2.6176 -2.3611 -0.3126
   99MOL0     H13617   9.360   0.652   6.752  0.4603 -0.7872  0.5197
   99MOL0     H13618   9.199   0.450   6.779 -0.9088  0.3897 -1.3945
   99MOL0     H13619   9.082   0.546   6.859 -0.1192  1.2496  0.3316
   99MOL0     H13620   8.982   0.651   6.449 -0.8721 -0.5526 -4.6063
   99MOL0     H13621   8.854   0.640   6.273  1.1497 -0.1362 -0.4282
   99MOL0     H13622   8.709   0.528   6.260 -0.0056 -1.7769 -2.3900
   99MOL0     H13623   8.874   0.502   6.191  1.3966  3.9821 -1.0558
   99MOL0     H13624   8.518   0.067   6.581  3.1150 -0.6657 -0.3062
   99MOL0     H13625   8.370  -0.110   6.541  0.8056  0.6959  1.5120
   99MOL0     H13626   8.311  -0.123   6.115  0.9758  0.8861  2.6595
   99MOL0     H13627   8.358  -0.293   6.097  0.9772 -1.5499  2.7293
   99MOL0     H13628   8.128  -0.332   6.220  1.3947  1.3705  1.1766
   99MOL0     H13629   8.073  -0.192   6.156  1.7539  0.2996  4.0004
   99MOL0     H13630   8.023  -0.385   5.993 -0.0681 -1.6708  1.5351
   99MOL0     H13631   8.190  -0.412   5.979 -1.8455 -0.8394 -0.5234
   99MOL0     H13632   8.215  -0.161   5.909  0.0469 -1.6550 -0.8720
   99MOL0     H13633   8.039  -0.149   5.936  1.6031  0.8250  0.1614
   99MOL0     H13634   8.026  -0.310   5.730 -0.4660  0.0979  0.7489
   99MOL0     H13635   8.092  -0.149   5.700 -1.0736 -0.1482  0.5612
   99MOL0     H13636   8.214  -0.426   5.736  2.8314 -0.9519 -0.0517
   99MOL0     H13637   8.324  -0.287   5.725 -0.2120  2.5082 -2.5352
   99MOL0     H13638   8.152  -0.407   5.503 -0.1458  1.8956  0.1288
   99MOL0     H13639   8.320  -0.419   5.515 -1.2836 -0.7613 -1.9688
   99MOL0     H13640   8.145  -0.187   5.430  0.2614  1.3126  4.1515
   99MOL0     H13641   8.295  -0.243   5.355 -2.1455  0.8070 -1.3673
   99MOL0     H13642   8.544  -0.153   6.145  2.2881 -0.3664  0.2222
   99MOL0     H13643   8.719  -0.000   6.206  0.4428 -1.9308 -0.3259
   99MOL0     H13644   8.898   0.188   6.604 -0.1853  1.1258  1.4354
   99MOL0     H13645   9.026   0.326   6.729 -1.0564  0.6757  0.2861
   99MOL0     H13646  10.004   0.988   6.429  2.3033 -1.9428 -0.1806
   99MOL0     H13647  10.164   1.008   6.264  1.2399 -2.0092  0.4906
   99MOL0     H13648  10.190   1.148   5.993  2.7011  1.1743 -0.6643
   99MOL0     H13649   9.965   1.223   5.942  0.9909 -0.5183 -1.1490
   99MOL0     H13650   9.919   1.671   5.988  0.2544 -0.0028 -1.1980
   99MOL0     H13651   9.815   1.645   5.855  1.7481  2.9094  0.9109
   99MOL0     H13652   9.740   1.566   6.137  1.0902 -0.1459  0.9783
   99MOL0     H13653   9.632   1.579   5.991  2.2971 -0.3480 -2.9979
   99MOL0     H13654   9.787   1.810   6.143 -2.4173  2.8608  0.8303
   99MOL0     H13655   9.682   1.843   6.009  0.0086 -0.0957  0.0996
   99MOL0     H13656   9.583   1.747   6.283 -0.9630  3.5303  1.7777
   99MOL0     H13657   9.490   1.756   6.125  1.1645 -0.7616 -1.3847
   99MOL0     H13658   9.519   2.149   6.278 -0.8350 -0.4736  0.8529
   99MOL0     H13659  10.028   1.597   6.144 -1.2996  0.1429 -1.0898
   99MOL0     H13660  10.364   1.514   6.289  0.1383 -1.2754  2.6318
   99MOL0     H13661  10.252   1.634   6.242  2.3038  1.4670  1.8834
   99MOL0     H13662  10.214   1.520   6.378  0.0485  0.4159 -0.2664
  100MOL0     O13663   0.271   1.087  10.218 -0.1223 -0.7739 -0.6865
  100MOL0     C13664   0.158   1.133  10.210  0.6693  0.3565  0.2350
  100MOL0     O13665   0.104   1.238  10.275  0.1621  0.3621 -0.4511
  100MOL0     C13666   0.167   1.312  10.371 -0.0142 -1.0718 -0.4218
  100MOL0     C13667   0.201   1.442  10.342 -0.5007  0.7315  0.0287
  100MOL0     C13668   0.289   1.512  10.417 -0.0961  0.6745  0.9316
  100MOL0     C13669   0.337   1.467  10.539  0.1348 -0.7826 -0.0118
  100MOL0     O13670   0.427   1.517  10.630 -0.6514 -0.3534 -0.4282
  100MOL0     C13671   0.523   1.597  10.566 -0.1331 -0.1274 -1.1150
  100MOL0     C13672   0.525   1.732  10.641 -0.2629 -0.5981  0.5181
  100MOL0     C13673   0.575   1.853  10.572  0.0080 -0.7201  0.4115
  100MOL0     C13674   0.571   1.976  10.662 -0.9008  0.8061  0.1050
  100MOL0     C13675   0.637   2.103  10.606  0.1396  0.3543  0.5007
  100MOL0     C13676   0.629   2.203  10.721  0.5828  0.0991 -0.3960
  100MOL0     C13677   0.652   2.342  10.653 -0.8307 -0.0451 -0.4833
  100MOL0     C13678   0.649   2.460  10.756 -0.6209  0.3812 -0.8116
  100MOL0     N13679   0.777   2.464  10.838 -0.0391  0.2825  1.0247
  100MOL0     C13680   0.791   2.452  10.973 -0.0327 -0.0219  0.0655
  100MOL0     C13681   0.920   2.473  10.992 -0.8598 -0.1533  0.7218
  100MOL0     C13682   0.969   2.477  11.133  0.2884  0.9135  1.1356
  100MOL0     C13683   1.123   2.476  11.145  0.1076 -0.1602  0.7910
  100MOL0     C13684   1.176   2.488  11.291 -0.0561 -0.0814  0.0595
  100MOL0     C13685   1.314   2.414  11.298 -0.5103 -1.4521 -1.2126
  100MOL0     O13686   1.395   2.498  11.211 -0.7823  0.1003 -0.9076
  100MOL0     C13687   1.523   2.467  11.163 -0.0949 -0.4067 -0.0407
  100MOL0     C13688   1.593   2.574  11.095  0.1228 -0.1782  0.6473
  100MOL0     C13689   1.722   2.547  11.053  0.2237  0.1395  0.5613
  100MOL0     C13690   1.800   2.657  10.986  0.1967  0.7589 -0.5344
  100MOL0     C13691   1.783   2.415  11.069  0.2229 -0.6692 -0.1251
  100MOL0     C13692   1.924   2.386  11.032 -0.0187  0.7500 -0.2146
  100MOL0     O13693   1.949   2.261  10.982  0.3715  0.6695  0.0803
  100MOL0     C13694   2.075   2.224  10.946  0.2994 -0.5657  0.8209
  100MOL0     C13695   2.118   2.096  10.979  0.1043  0.0986  0.0167
  100MOL0     C13696   2.241   2.052  10.926 -0.1009 -0.2175 -0.0603
  100MOL0     C13697   2.322   2.136  10.852  0.8913  0.6736  0.4694
  100MOL0     O13698   2.442   2.098  10.803  0.0299  0.2775  0.2143
  100MOL0     C13699   2.525   1.979  10.842  0.6758  0.2042 -0.1076
  100MOL0     C13700   2.484   1.853  10.762  0.6380 -0.1343 -0.0456
  100MOL0     C13701   2.537   1.855  10.618  0.1840 -0.0793  0.3835
  100MOL0     C13702   2.567   1.713  10.554  0.0038 -1.1665 -0.9278
  100MOL0     C13703   2.701   1.696  10.486 -0.2946 -0.2192  0.6198
  100MOL0     C13704   2.714   1.741  10.342  0.0774 -0.4080 -0.1774
  100MOL0     C13705   2.857   1.753  10.285 -0.5067  0.4404  0.0324
  100MOL0     C13706   2.931   1.622  10.260 -0.8312 -0.4319  0.1618
  100MOL0    Cl13707   2.983   1.547  10.413  0.3091 -0.0850 -0.4237
  100MOL0     C13708   2.276   2.263  10.817  0.1350 -0.0855 -0.2258
  100MOL0     C13709   2.154   2.312  10.864  1.1576 -0.0058  0.1373
  100MOL0     O13710   2.013   2.467  11.064 -0.8201 -0.0921  0.7669
  100MOL0     C13711   1.701   2.315  11.113  0.2228 -1.2398  0.1899
  100MOL0     C13712   1.576   2.336  11.166 -1.1659 -0.0168  0.5007
  100MOL0     N13713   0.986   2.484  10.879 -1.1695 -0.8129  0.5808
  100MOL0     N13714   0.902   2.502  10.794  0.2570  0.2671  0.0693
  100MOL0     C13715   0.297   1.344  10.584  1.1034  0.5487 -0.3017
  100MOL0     C13716   0.225   1.263  10.490 -0.1549  1.0925  0.3423
  100MOL0     C13717   0.069   1.070  10.115 -0.1902 -0.8928 -0.7543
  100MOL0     C13718   0.126   1.042   9.992  1.3039  0.1089 -0.4183
  100MOL0     C13719   0.041   0.986   9.895  0.2861  0.5962 -0.4183
  100MOL0     C13720  -0.094   0.951   9.920  0.3321 -0.1310 -0.9991
  100MOL0     O13721  -0.161   0.895   9.823 -0.0386  1.1345  0.1373
  100MOL0     C13722  -0.214   0.996   9.737 -1.1799  0.0456 -0.1132
  100MOL0     C13723  -0.250   0.947   9.593 -0.0721 -1.3482 -0.1967
  100MOL0     C13724  -0.391   0.893   9.595 -0.8487  0.1963 -0.1013
  100MOL0     C13725  -0.439   0.845   9.455 -0.1544 -0.3453  0.5582
  100MOL0     C13726  -0.455   0.957   9.356 -0.8435 -0.1236 -0.1900
  100MOL0     C13727  -0.460   1.037   9.267 -0.7325 -0.6625  0.6781
  100MOL0     C13728  -0.148   0.982  10.046  0.1295 -0.1714  0.4052
  100MOL0     C13729  -0.069   1.046  10.148 -0.0480  0.4433  0.7129
  100MOL0     C13730  -0.135   1.086  10.282 -0.3332  0.3739 -0.1316
  100MOL0     H13731   0.166   1.488  10.250  3.1681 -0.2288 -2.0797
  100MOL0     H13732   0.314   1.607  10.371 -0.3856  0.0071 -0.6712
  100MOL0     H13733   0.507   1.603  10.458  0.4957 -3.1121 -1.4543
  100MOL0     H13734   0.618   1.548  10.590  0.1712 -0.0585 -2.1196
  100MOL0     H13735   0.418   1.742  10.658 -0.4514 -1.5869  0.0105
  100MOL0     H13736   0.579   1.713  10.734  0.4322 -2.5644 -0.2399
  100MOL0     H13737   0.678   1.834  10.539 -0.4334  1.0208 -2.2491
  100MOL0     H13738   0.502   1.883  10.496 -0.0913  3.6209  1.9392
  100MOL0     H13739   0.473   1.997  10.707 -2.4756 -0.9242 -2.2530
  100MOL0     H13740   0.619   1.933  10.751 -0.7820 -1.1527 -0.8530
  100MOL0     H13741   0.578   2.128  10.518 -5.0816 -1.7931  2.9654
  100MOL0     H13742   0.743   2.081  10.587  0.8370  2.6011  1.4307
  100MOL0     H13743   0.528   2.196  10.763 -0.1180 -0.4949 -2.1135
  100MOL0     H13744   0.704   2.175  10.796 -0.6262 -2.0914  0.0912
  100MOL0     H13745   0.565   2.357  10.588 -2.6713 -0.2658  1.8268
  100MOL0     H13746   0.747   2.346  10.598 -0.2627 -3.3377  0.0606
  100MOL0     H13747   0.636   2.557  10.708  0.1640  0.5636 -0.6684
  100MOL0     H13748   0.569   2.461  10.831  1.1109  2.1596  1.1370
  100MOL0     H13749   0.713   2.431  11.045 -0.9148  0.2873 -0.7667
  100MOL0     H13750   0.920   2.395  11.187 -0.9470  0.8063 -0.0818
  100MOL0     H13751   0.932   2.569  11.180  0.1054  0.5775  1.6578
  100MOL0     H13752   1.170   2.395  11.090  2.0027  1.4629 -0.0886
  100MOL0     H13753   1.151   2.573  11.103 -1.3172 -0.6957 -1.6040
  100MOL0     H13754   1.184   2.594  11.317 -0.1778 -0.8495  3.6200
  100MOL0     H13755   1.115   2.435  11.364 -0.8330 -1.2997 -1.4182
  100MOL0     H13756   1.349   2.415  11.402 -2.3860 -2.5725 -0.5150
  100MOL0     H13757   1.298   2.311  11.265  1.5567 -2.2384  0.0434
  100MOL0     H13758   1.550   2.673  11.093  3.4286  1.4032  0.0191
  100MOL0     H13759   1.856   2.612  10.904 -4.8484 -2.8863 -2.4794
  100MOL0     H13760   1.872   2.697  11.059  0.5720  1.4591 -1.2725
  100MOL0     H13761   1.737   2.736  10.943 -2.7973 -0.2487  1.6516
  100MOL0     H13762   2.050   2.034  11.037 -0.8316  2.2642  1.3702
  100MOL0     H13763   2.272   1.952  10.955 -1.0919 -0.4292  0.3101
  100MOL0     H13764   2.632   2.005  10.838  0.6026  1.3084  2.7140
  100MOL0     H13765   2.515   1.960  10.950  0.3141 -0.9408 -0.3324
  100MOL0     H13766   2.518   1.763  10.816 -1.0965 -1.1724 -0.6043
  100MOL0     H13767   2.376   1.848  10.746  0.7457  0.2798 -0.9847
  100MOL0     H13768   2.638   1.897  10.623  1.4862 -2.6817 -1.8036
  100MOL0     H13769   2.480   1.918  10.550 -1.1196  0.0026  1.5014
  100MOL0     H13770   2.477   1.666  10.514 -1.9170 -0.4718  2.1978
  100MOL0     H13771   2.576   1.655  10.647 -0.8845 -0.2151 -0.2214
  100MOL0     H13772   2.773   1.744  10.554 -1.4414 -0.1173  1.8069
  100MOL0     H13773   2.727   1.590  10.494 -0.8477 -0.3689  0.4549
  100MOL0     H13774   2.653   1.827  10.313 -1.1877 -1.5048 -0.8984
  100MOL0     H13775   2.660   1.668  10.281 -1.8708  2.0748 -1.6554
  100MOL0     H13776   2.922   1.817  10.344  0.3383  0.9137 -1.3771
  100MOL0     H13777   2.857   1.799  10.185  1.5527 -1.1450 -0.7699
  100MOL0     H13778   3.020   1.642  10.199  0.2656 -0.8593  1.5801
  100MOL0     H13779   2.855   1.556  10.215  1.3161 -3.5970  0.8438
  100MOL0     H13780   2.344   2.314  10.749 -1.5575  1.1527 -1.0506
  100MOL0     H13781   2.115   2.406  10.826  0.4570  0.5618  2.1220
  100MOL0     H13782   1.746   2.217  11.122  1.9149 -0.3449  2.5201
  100MOL0     H13783   1.519   2.255  11.210  1.8023 -0.6986  3.4725
  100MOL0     H13784   0.325   1.316  10.685 -2.1039 -3.1178 -0.1806
  100MOL0     H13785   0.227   1.157  10.510  3.2119  0.7675 -1.1428
  100MOL0     H13786   0.228   1.058   9.959  0.5606  0.4991 -2.6992
  100MOL0     H13787   0.077   0.972   9.793  0.2030  1.7857 -0.6262
  100MOL0     H13788  -0.298   1.032   9.797  2.0344  1.2907  4.0890
  100MOL0     H13789  -0.147   1.082   9.732 -1.3261  0.2560  1.1439
  100MOL0     H13790  -0.179   0.866   9.570 -2.1759 -2.9272 -1.5251
  100MOL0     H13791  -0.253   1.033   9.526 -0.2154  0.7049  2.2746
  100MOL0     H13792  -0.396   0.819   9.676  0.6676  4.4942  4.5037
  100MOL0     H13793  -0.460   0.974   9.621 -0.5229 -0.2713  2.5823
  100MOL0     H13794  -0.538   0.798   9.461  0.6045 -2.1825 -0.5616
  100MOL0     H13795  -0.377   0.769   9.408  1.9590  1.3381  0.4578
  100MOL0     H13796  -0.452   1.110   9.190 -0.3723  3.2016  4.0495
  100MOL0     H13797  -0.252   0.951  10.046 -0.5295  1.7799 -1.0473
  100MOL0     H13798  -0.052   1.094  10.354  0.7138 -0.5322 -1.1992
  100MOL0     H13799  -0.184   1.183  10.270  3.5625  2.2858 -3.0351
  100MOL0     H13800  -0.203   1.006  10.313  1.7204 -0.2974  3.2598
  101MOL0     O13801   7.390   3.448   6.959  0.2707 -0.5859 -0.4035
  101MOL0     C13802   7.275   3.406   6.933  0.2143 -0.1494 -0.3517
  101MOL0     O13803   7.168   3.425   7.009  0.3340 -0.0158 -0.2719
  101MOL0     C13804   7.178   3.495   7.126  0.2254 -0.5220  0.7339
  101MOL0     C13805   7.154   3.639   7.136 -0.1507  0.4945  0.1185
  101MOL0     C13806   7.142   3.695   7.265 -0.0274  0.9283  0.8509
  101MOL0     C13807   7.165   3.614   7.375 -0.9030 -0.4370  0.4033
  101MOL0     O13808   7.156   3.674   7.492  0.9071  0.5998 -0.5042
  101MOL0     C13809   7.148   3.600   7.612  0.1230 -0.1510 -0.0543
  101MOL0     C13810   7.088   3.676   7.732  0.5197 -0.1947  0.1095
  101MOL0     C13811   6.944   3.730   7.716  0.7844  0.9291  0.1860
  101MOL0     C13812   6.919   3.831   7.831  0.2809  1.1873  0.2493
  101MOL0     C13813   6.780   3.890   7.815 -0.0357 -0.3261 -1.1280
  101MOL0     C13814   6.776   4.033   7.895  0.5547  0.4092 -0.2213
  101MOL0     C13815   6.642   4.105   7.898  1.0199  0.1986  0.7138
  101MOL0     C13816   6.520   4.012   7.941  0.4228 -0.3747  0.0957
  101MOL0     N13817   6.553   3.953   8.074 -0.0123 -0.0778  0.1529
  101MOL0     C13818   6.488   3.986   8.190 -0.0729 -0.8385 -0.4573
  101MOL0     C13819   6.510   3.891   8.285 -0.1971  0.2286 -0.2252
  101MOL0     C13820   6.464   3.888   8.431  0.5828  0.7381 -1.0512
  101MOL0     C13821   6.403   3.753   8.464  0.4375 -0.5352 -1.2667
  101MOL0     C13822   6.251   3.754   8.484 -0.3809 -0.9941  0.2046
  101MOL0     C13823   6.200   3.814   8.618  0.6111 -0.9368  0.1590
  101MOL0     O13824   6.073   3.871   8.602  0.1933 -0.1701  0.3606
  101MOL0     C13825   5.958   3.789   8.600 -0.6478 -0.5240 -0.8558
  101MOL0     C13826   5.835   3.862   8.586  0.0573  0.5587  1.1450
  101MOL0     C13827   5.717   3.795   8.599  0.3097  0.9633 -0.6688
  101MOL0     C13828   5.587   3.873   8.568 -0.3525  0.2017  0.2945
  101MOL0     C13829   5.712   3.649   8.629 -0.1963 -0.5546 -0.4238
  101MOL0     C13830   5.585   3.567   8.628 -0.2509 -0.0835  0.5650
  101MOL0     O13831   5.608   3.425   8.629  0.9758  0.7676 -0.1288
  101MOL0     C13832   5.504   3.331   8.648 -0.7058  1.3278 -0.2295
  101MOL0     C13833   5.538   3.201   8.630 -0.6261 -0.4115 -0.3660
  101MOL0     C13834   5.444   3.094   8.658 -0.4596  0.1584 -0.3039
  101MOL0     C13835   5.321   3.126   8.717  0.2102 -0.1824  0.8359
  101MOL0     O13836   5.221   3.032   8.737 -0.2401  1.2079 -0.3200
  101MOL0     C13837   5.206   2.917   8.644 -0.7234  0.0394 -0.5941
  101MOL0     C13838   5.088   2.818   8.674 -0.3849 -1.2490  0.3105
  101MOL0     C13839   4.948   2.884   8.700 -0.0458 -0.3135 -0.0303
  101MOL0     C13840   4.845   2.771   8.729 -0.2181  0.6514 -0.5143
  101MOL0     C13841   4.708   2.831   8.789  0.2899 -0.3967  0.2706
  101MOL0     C13842   4.584   2.831   8.692  0.1813  0.5149 -0.3934
  101MOL0     C13843   4.584   2.962   8.615  0.0081  0.9937  0.4386
  101MOL0     C13844   4.479   2.962   8.507  0.5353 -0.3799  1.1073
  101MOL0    Cl13845   4.329   2.987   8.579  0.3639  0.0046  0.1261
  101MOL0     C13846   5.286   3.260   8.735 -0.2151 -0.0338 -0.6449
  101MOL0     C13847   5.378   3.357   8.709 -0.0638 -0.4224 -0.8154
  101MOL0     O13848   5.476   3.621   8.629  1.0967 -0.1328 -0.1408
  101MOL0     C13849   5.837   3.595   8.655  0.6292 -0.5522 -0.1808
  101MOL0     C13850   5.963   3.657   8.641  0.8137 -0.2774  0.1769
  101MOL0     N13851   6.588   3.799   8.224  0.2173  0.2056 -0.7565
  101MOL0     N13852   6.600   3.827   8.098 -0.8247 -0.4214  0.3779
  101MOL0     C13853   7.207   3.485   7.356  0.8002  0.0701 -0.1297
  101MOL0     C13854   7.199   3.419   7.240 -0.8792 -0.6341  0.2328
  101MOL0     C13855   7.257   3.313   6.821 -0.3845  0.1052  0.4891
  101MOL0     C13856   7.141   3.231   6.821  0.0025 -0.3051  0.6540
  101MOL0     C13857   7.107   3.156   6.706  0.1872  0.6288 -0.9885
  101MOL0     C13858   7.182   3.155   6.589 -0.0691  0.4619 -0.5614
  101MOL0     O13859   7.141   3.077   6.482 -0.6146 -0.7061  0.7910
  101MOL0     C13860   7.206   3.077   6.346  0.2914 -0.0524 -0.1231
  101MOL0     C13861   7.200   3.209   6.272  1.2794 -0.0743  0.0670
  101MOL0     C13862   7.063   3.245   6.216 -0.5577  0.7756 -0.7368
  101MOL0     C13863   7.035   3.188   6.081  0.4001 -0.6537  0.9071
  101MOL0     C13864   7.105   3.253   5.974 -0.9917 -0.2192  0.2248
  101MOL0     C13865   7.165   3.310   5.881  0.0651 -0.7713  0.9860
  101MOL0     C13866   7.304   3.232   6.598 -0.1361 -0.2312 -0.0106
  101MOL0     C13867   7.343   3.306   6.717  0.0957  0.5845  0.1479
  101MOL0     C13868   7.471   3.393   6.716  0.9879  0.2672  0.3412
  101MOL0     H13869   7.138   3.686   7.040  0.5258  1.2534  0.3729
  101MOL0     H13870   7.100   3.795   7.259 -1.0623  0.4499 -0.0880
  101MOL0     H13871   7.249   3.565   7.635  0.1044 -0.8385 -0.9514
  101MOL0     H13872   7.083   3.512   7.601  1.1676 -0.9108 -0.3670
  101MOL0     H13873   7.095   3.615   7.823 -2.0203  1.0210  1.2524
  101MOL0     H13874   7.159   3.759   7.740  1.9901 -1.3633 -0.4936
  101MOL0     H13875   6.936   3.787   7.623  1.3268  3.6347  1.7066
  101MOL0     H13876   6.875   3.645   7.710  0.0808  1.5345 -0.4982
  101MOL0     H13877   6.937   3.776   7.924 -2.8908 -3.6709 -1.6021
  101MOL0     H13878   6.996   3.909   7.833  1.2400  0.2592  2.3307
  101MOL0     H13879   6.703   3.828   7.859 -2.2745  4.1378  1.9938
  101MOL0     H13880   6.764   3.906   7.708  0.5201 -1.2198 -1.3605
  101MOL0     H13881   6.806   4.016   7.998 -3.9272  0.0635  1.2425
  101MOL0     H13882   6.846   4.099   7.843 -1.0095  2.7324  0.4357
  101MOL0     H13883   6.618   4.137   7.797  0.4386 -0.6105  0.5807
  101MOL0     H13884   6.654   4.182   7.975  1.5580 -0.3338  1.1719
  101MOL0     H13885   6.428   4.069   7.955  1.0056  1.3513 -2.3966
  101MOL0     H13886   6.500   3.932   7.870  1.9095 -0.8465  0.1685
  101MOL0     H13887   6.425   4.070   8.218 -1.3269 -2.2755  1.2787
  101MOL0     H13888   6.395   3.961   8.476 -1.3991 -0.9688 -1.1507
  101MOL0     H13889   6.553   3.882   8.494 -0.8211  3.3454  1.4103
  101MOL0     H13890   6.420   3.680   8.385  1.5497 -0.2162 -1.3412
  101MOL0     H13891   6.449   3.719   8.558 -0.0582  0.9979 -0.4362
  101MOL0     H13892   6.205   3.794   8.393  1.8330 -0.9908 -0.9812
  101MOL0     H13893   6.227   3.648   8.489  0.5754 -1.2468 -0.2712
  101MOL0     H13894   6.203   3.735   8.693  3.0465 -1.2296 -0.1835
  101MOL0     H13895   6.274   3.887   8.652  2.9203 -2.4612 -1.3072
  101MOL0     H13896   5.833   3.970   8.571 -0.3224  0.5113  0.8536
  101MOL0     H13897   5.532   3.910   8.655  1.7765  1.2902  1.2455
  101MOL0     H13898   5.512   3.818   8.511 -3.5944  2.3988  2.0835
  101MOL0     H13899   5.616   3.965   8.517 -1.3336 -0.0946 -0.8407
  101MOL0     H13900   5.638   3.172   8.600  0.0757  2.2186 -0.7620
  101MOL0     H13901   5.469   2.993   8.630 -1.2546 -0.5224  1.3107
  101MOL0     H13902   5.191   2.956   8.543 -2.0800  2.3997  0.4385
  101MOL0     H13903   5.300   2.861   8.652 -0.1895  0.6727 -2.1933
  101MOL0     H13904   5.089   2.759   8.582  2.3413  2.2370 -2.2075
  101MOL0     H13905   5.096   2.767   8.770 -1.0842  1.6934  2.0462
  101MOL0     H13906   4.912   2.938   8.612 -3.0076 -0.3128  1.0909
  101MOL0     H13907   4.950   2.961   8.778  2.0069  1.8486 -2.0532
  101MOL0     H13908   4.877   2.707   8.812  0.0085 -0.1160 -1.1718
  101MOL0     H13909   4.831   2.712   8.637  1.8329 -0.6787 -0.0586
  101MOL0     H13910   4.686   2.765   8.874  2.6187  0.3942  1.5739
  101MOL0     H13911   4.725   2.924   8.844  0.2901  0.2982 -0.8725
  101MOL0     H13912   4.499   2.816   8.760  1.7500 -1.2695  1.3014
  101MOL0     H13913   4.581   2.743   8.627 -3.4206 -0.9060  1.3968
  101MOL0     H13914   4.679   2.974   8.563 -0.2573 -0.8454 -0.5630
  101MOL0     H13915   4.574   3.047   8.684 -1.3152  1.2844 -0.0631
  101MOL0     H13916   4.481   2.883   8.432 -0.4596  1.6778 -1.2407
  101MOL0     H13917   4.493   3.052   8.446  2.1106 -1.8655 -0.8234
  101MOL0     H13918   5.186   3.293   8.764 -0.7191 -2.8740  1.1939
  101MOL0     H13919   5.353   3.455   8.749  1.3975 -0.9671  1.6504
  101MOL0     H13920   5.818   3.490   8.678  0.8183 -0.5500 -0.0099
  101MOL0     H13921   6.056   3.602   8.649  0.4033 -1.8847 -3.7447
  101MOL0     H13922   7.253   3.429   7.437  2.6782  0.1332 -1.1217
  101MOL0     H13923   7.223   3.313   7.230  0.4104 -0.5850  2.1898
  101MOL0     H13924   7.069   3.240   6.902 -2.0089  1.2846 -1.1820
  101MOL0     H13925   7.008   3.114   6.717  0.1388  0.5325 -1.7522
  101MOL0     H13926   7.311   3.048   6.360  0.7824  1.6120 -0.1166
  101MOL0     H13927   7.154   2.997   6.293 -0.3198 -0.4433  1.0331
  101MOL0     H13928   7.268   3.226   6.188 -1.6136  3.2375 -1.8691
  101MOL0     H13929   7.229   3.288   6.341  2.4103  0.6959 -1.2323
  101MOL0     H13930   6.998   3.192   6.286  3.4927 -3.3358  0.3787
  101MOL0     H13931   7.049   3.354   6.217 -2.2805  0.6236  1.6858
  101MOL0     H13932   6.930   3.212   6.059  0.8444  0.9329  0.3406
  101MOL0     H13933   7.051   3.080   6.081  0.8065 -0.5993  0.3346
  101MOL0     H13934   7.212   3.332   5.787 -0.9087 -3.6102 -0.2889
  101MOL0     H13935   7.359   3.269   6.513  1.7619 -1.8035  0.4463
  101MOL0     H13936   7.522   3.345   6.632  2.2343 -4.0877  3.2523
  101MOL0     H13937   7.443   3.494   6.686 -1.4721  0.0499  1.7218
  101MOL0     H13938   7.545   3.374   6.794  0.9281 -1.6870 -0.0106
  102MOL0     O13939   8.526   1.800   6.663 -0.1073  0.0049  0.5965
  102MOL0     C13940   8.611   1.859   6.592  0.5890  0.1663 -0.2120
  102MOL0     O13941   8.668   1.980   6.623  1.2121  0.4961  0.2483
  102MOL0     C13942   8.648   2.023   6.749 -0.1558  0.2848 -0.7298
  102MOL0     C13943   8.522   2.092   6.787  0.3131  0.2262  0.3462
  102MOL0     C13944   8.499   2.152   6.912 -0.5271  0.4294  0.5971
  102MOL0     C13945   8.594   2.136   7.013 -0.0436  0.2666  0.5081
  102MOL0     O13946   8.589   2.191   7.141  0.4162  0.4115 -0.4261
  102MOL0     C13947   8.467   2.261   7.184 -0.8210  0.5005 -0.1184
  102MOL0     C13948   8.483   2.290   7.336 -0.1231  0.1861 -0.4927
  102MOL0     C13949   8.605   2.361   7.372  0.4630  0.1092 -0.4283
  102MOL0     C13950   8.588   2.437   7.513  0.1422 -0.3609 -0.0099
  102MOL0     C13951   8.716   2.509   7.560  0.7774  0.1972 -0.2733
  102MOL0     C13952   8.687   2.549   7.705  0.7655  1.0073 -0.1783
  102MOL0     C13953   8.789   2.634   7.778 -0.7350  0.1588  0.1393
  102MOL0     C13954   8.825   2.757   7.699  0.0435  0.3717  0.1080
  102MOL0     N13955   8.892   2.860   7.779  0.7612 -0.2735  0.2364
  102MOL0     C13956   9.000   2.846   7.865 -0.7178  0.3135  0.0339
  102MOL0     C13957   9.033   2.968   7.907 -0.2166  0.2181  0.1535
  102MOL0     C13958   9.145   3.027   7.987  0.1016 -0.0227 -0.0580
  102MOL0     C13959   9.163   2.982   8.130  0.1410  0.7739  0.4287
  102MOL0     C13960   9.048   3.043   8.220 -0.0401  0.1836  0.7729
  102MOL0     C13961   9.041   3.199   8.215 -0.1206  0.8785  0.7623
  102MOL0     O13962   9.161   3.263   8.248  0.4175 -0.3982  0.1915
  102MOL0     C13963   9.197   3.273   8.376 -0.0942 -0.6978 -0.0644
  102MOL0     C13964   9.312   3.333   8.404 -0.3470 -0.2327 -0.0832
  102MOL0     C13965   9.374   3.333   8.535  0.6093 -0.5992 -0.0781
  102MOL0     C13966   9.520   3.385   8.531  0.5450 -0.2511  0.4307
  102MOL0     C13967   9.305   3.297   8.643  0.2725  0.7086 -1.2056
  102MOL0     C13968   9.349   3.313   8.779 -0.4050  0.7584 -0.0777
  102MOL0     O13969   9.477   3.354   8.809  0.1683  0.2294  0.6225
  102MOL0     C13970   9.522   3.375   8.936 -0.6256 -0.2076 -0.4961
  102MOL0     C13971   9.464   3.466   9.024  0.1712 -0.0827 -0.0356
  102MOL0     C13972   9.526   3.489   9.141  1.2099 -0.8464  0.1265
  102MOL0     C13973   9.633   3.411   9.182  0.0730  0.2199 -0.0881
  102MOL0     O13974   9.696   3.445   9.296  0.6734  0.9797  0.4298
  102MOL0     C13975   9.725   3.588   9.322  0.3391  0.3117  0.9212
  102MOL0     C13976   9.824   3.610   9.438  0.2511 -0.2286 -0.4631
  102MOL0     C13977   9.769   3.528   9.558  0.7794  0.7191 -0.4298
  102MOL0     C13978   9.843   3.592   9.679 -0.3377 -0.2610  0.9139
  102MOL0     C13979   9.806   3.505   9.793  0.0509  0.4394  0.7413
  102MOL0     C13980   9.912   3.481   9.905 -1.1011 -0.0854 -0.0652
  102MOL0     C13981   9.884   3.393  10.024  1.6885  0.1624 -0.2727
  102MOL0     C13982   9.796   3.272   9.997 -0.6006 -0.5247  0.1343
  102MOL0    Cl13983   9.754   3.165  10.139  0.5355 -0.4042 -0.3508
  102MOL0     C13984   9.679   3.296   9.108 -0.6788 -0.8873 -0.6235
  102MOL0     C13985   9.627   3.291   8.979 -0.5146  0.4975 -0.6374
  102MOL0     O13986   9.263   3.290   8.864  0.1102  0.7178  1.0359
  102MOL0     C13987   9.173   3.245   8.612  0.4594 -0.0095  0.2658
  102MOL0     C13988   9.121   3.231   8.486  0.4876  0.2202  1.0892
  102MOL0     N13989   8.941   3.053   7.842  0.3911  0.0103 -0.6832
  102MOL0     N13990   8.858   2.991   7.773  0.1740  0.0018  0.5836
  102MOL0     C13991   8.710   2.064   6.978  0.4477  0.0379 -0.3044
  102MOL0     C13992   8.750   2.016   6.849  0.2795 -0.3089  1.0962
  102MOL0     C13993   8.649   1.813   6.458  1.1678 -0.4815  0.0890
  102MOL0     C13994   8.653   1.897   6.344  0.0372  0.1735  0.4107
  102MOL0     C13995   8.683   1.859   6.221 -0.7577  0.3239  0.6057
  102MOL0     C13996   8.710   1.720   6.201 -0.9641 -0.0400  0.1006
  102MOL0     O13997   8.725   1.683   6.068  0.9333 -0.2819  0.2901
  102MOL0     C13998   8.765   1.550   6.030  0.9328 -0.0734 -0.3428
  102MOL0     C13999   8.660   1.451   6.049 -0.2771 -0.2973 -0.0481
  102MOL0     C14000   8.579   1.420   5.930  0.3550 -0.1675 -0.7610
  102MOL0     C14001   8.457   1.331   5.954 -0.6009  1.4498  0.0459
  102MOL0     C14002   8.493   1.190   5.996 -0.7749  0.0188  0.1692
  102MOL0     C14003   8.549   1.081   6.013  0.6364 -0.1767  0.1146
  102MOL0     C14004   8.698   1.632   6.313  0.8976  0.4621 -0.0121
  102MOL0     C14005   8.674   1.681   6.441 -0.0465  0.6061 -0.3032
  102MOL0     C14006   8.687   1.584   6.558  0.2194 -0.0570 -0.1191
  102MOL0     H14007   8.443   2.099   6.714  0.7529  5.5155  0.0051
  102MOL0     H14008   8.407   2.203   6.941  1.2040  3.0027  2.0963
  102MOL0     H14009   8.377   2.206   7.155 -1.6662  1.6764  0.2230
  102MOL0     H14010   8.471   2.357   7.132  2.4046 -0.5982 -2.2357
  102MOL0     H14011   8.394   2.351   7.356 -1.0125 -0.4096 -2.4346
  102MOL0     H14012   8.469   2.190   7.377  1.8242  0.1818  0.2854
  102MOL0     H14013   8.685   2.291   7.399  1.1116  1.9846  3.1726
  102MOL0     H14014   8.639   2.426   7.291  0.2453  0.4255 -0.2680
  102MOL0     H14015   8.514   2.514   7.490  0.3233 -0.3689 -0.6477
  102MOL0     H14016   8.539   2.381   7.593  1.8759 -1.2179  0.4904
  102MOL0     H14017   8.752   2.583   7.487  2.6528 -0.5190 -0.1405
  102MOL0     H14018   8.801   2.440   7.562  0.8987  0.2906 -1.4738
  102MOL0     H14019   8.590   2.599   7.712  0.2166  0.1863 -1.5871
  102MOL0     H14020   8.680   2.452   7.755  0.9297  0.7457 -0.6611
  102MOL0     H14021   8.876   2.569   7.795  0.1232  1.8151  2.6789
  102MOL0     H14022   8.758   2.664   7.878 -0.0193  2.2760 -0.2171
  102MOL0     H14023   8.888   2.733   7.612 -1.6358  0.1800 -1.1126
  102MOL0     H14024   8.731   2.796   7.659 -0.4424 -0.4502  0.4054
  102MOL0     H14025   9.066   2.765   7.894 -0.3430  0.2556 -0.9375
  102MOL0     H14026   9.149   3.135   7.973  1.7478 -0.0956 -0.3456
  102MOL0     H14027   9.235   2.992   7.935 -1.3401 -3.5277 -0.4702
  102MOL0     H14028   9.173   2.873   8.134  2.5517  0.8163 -1.7873
  102MOL0     H14029   9.260   3.019   8.166  0.4615  0.2130  0.1518
  102MOL0     H14030   8.953   3.013   8.174 -0.0339  2.4304 -0.8082
  102MOL0     H14031   9.059   3.003   8.322 -4.4937  0.7178  1.6710
  102MOL0     H14032   9.013   3.227   8.113  0.4214  3.3291  1.2297
  102MOL0     H14033   8.956   3.226   8.279 -0.1260 -0.8661  1.5450
  102MOL0     H14034   9.370   3.379   8.324 -0.4498 -3.7487 -2.4037
  102MOL0     H14035   9.537   3.466   8.602  0.8943  0.7634 -0.7752
  102MOL0     H14036   9.545   3.420   8.430 -0.0640 -1.5594 -0.1977
  102MOL0     H14037   9.596   3.310   8.556  1.6117  0.3493 -0.9046
  102MOL0     H14038   9.377   3.531   9.011 -0.1287 -0.2908  0.8295
  102MOL0     H14039   9.487   3.562   9.211 -0.0147 -0.1937 -1.1982
  102MOL0     H14040   9.752   3.634   9.226 -3.2008  3.3377  1.1407
  102MOL0     H14041   9.637   3.643   9.355 -0.7829  0.2145 -1.6950
  102MOL0     H14042   9.926   3.574   9.418  1.4662  2.9554 -0.6235
  102MOL0     H14043   9.822   3.714   9.471  5.8285 -0.7251  2.6630
  102MOL0     H14044   9.790   3.423   9.537  2.0378  1.1614 -1.4988
  102MOL0     H14045   9.662   3.548   9.564  0.8839  1.4254 -0.7563
  102MOL0     H14046   9.827   3.699   9.695  0.6873 -0.1233  1.0932
  102MOL0     H14047   9.951   3.586   9.666 -0.1156  2.3138  1.0151
  102MOL0     H14048   9.711   3.532   9.840 -0.6516 -0.9587  0.1834
  102MOL0     H14049   9.787   3.403   9.758  0.0468 -0.0672  2.1834
  102MOL0     H14050   9.938   3.579   9.946 -0.8241  0.1464 -0.7878
  102MOL0     H14051   9.994   3.440   9.846  0.9183  1.7782  1.3378
  102MOL0     H14052   9.828   3.455  10.095  0.2193  2.4259 -3.1901
  102MOL0     H14053   9.969   3.348  10.077  0.7015 -1.9055 -0.3502
  102MOL0     H14054   9.859   3.215   9.928  0.3124 -2.4904  2.4426
  102MOL0     H14055   9.704   3.295   9.942 -0.4901 -0.1712  0.0904
  102MOL0     H14056   9.764   3.231   9.124 -2.2406 -2.6710  0.8003
  102MOL0     H14057   9.661   3.229   8.897 -3.9224  0.8725 -2.5070
  102MOL0     H14058   9.101   3.227   8.691 -2.4707 -4.0278 -2.8906
  102MOL0     H14059   9.022   3.188   8.471  0.6792 -0.1515  0.8892
  102MOL0     H14060   8.788   2.038   7.050  1.9956 -0.0500 -1.9406
  102MOL0     H14061   8.838   1.960   6.821  1.6110  1.2676  1.9019
  102MOL0     H14062   8.613   1.998   6.349 -1.6853 -0.4127 -0.6513
  102MOL0     H14063   8.689   1.931   6.140  0.3656  1.0770  1.3249
  102MOL0     H14064   8.815   1.557   5.933  1.0481 -1.5449 -0.4117
  102MOL0     H14065   8.844   1.511   6.095  1.4953 -2.2016 -2.1880
  102MOL0     H14066   8.591   1.486   6.126 -0.3338 -1.0676  0.2557
  102MOL0     H14067   8.707   1.357   6.079 -0.8868 -0.6957 -0.3268
  102MOL0     H14068   8.552   1.520   5.893  0.4311 -0.1609 -0.7985
  102MOL0     H14069   8.648   1.376   5.858  1.5149  0.4198 -0.0324
  102MOL0     H14070   8.395   1.331   5.864 -1.7231 -0.3345  0.7693
  102MOL0     H14071   8.392   1.374   6.031  0.0169  1.1704  0.7397
  102MOL0     H14072   8.590   0.984   6.033  0.0606  0.0909  2.9793
  102MOL0     H14073   8.718   1.526   6.305  2.6445  0.5384  2.2506
  102MOL0     H14074   8.587   1.548   6.586  1.1595 -2.3660  0.4560
  102MOL0     H14075   8.752   1.499   6.533 -2.2976 -2.3576  0.6013
  102MOL0     H14076   8.734   1.621   6.649 -2.3247 -0.3323  1.4164
  103MOL0     O14077   9.463   8.854   7.249  0.5935  0.3392 -0.4833
  103MOL0     C14078   9.454   8.972   7.273 -0.7435 -0.5759  0.9796
  103MOL0     O14079   9.405   9.020   7.385 -0.2504 -0.0194 -0.3706
  103MOL0     C14080   9.428   8.947   7.505 -0.6522 -0.9184 -0.0356
  103MOL0     C14081   9.520   8.839   7.528 -0.5948 -0.5565 -0.1774
  103MOL0     C14082   9.535   8.794   7.657  0.1322 -0.1588  0.1722
  103MOL0     C14083   9.449   8.831   7.756  0.6681 -0.6677 -0.8829
  103MOL0     O14084   9.447   8.783   7.885 -0.3185  0.4567 -0.5761
  103MOL0     C14085   9.562   8.756   7.952 -0.1808  0.1105 -0.2459
  103MOL0     C14086   9.548   8.681   8.093  0.9808 -0.0080 -0.5677
  103MOL0     C14087   9.511   8.524   8.070  0.0814 -0.5759  0.7061
  103MOL0     C14088   9.628   8.436   8.042  0.9538 -0.4757 -0.4827
  103MOL0     C14089   9.584   8.287   8.065 -0.4752  0.7161  0.1232
  103MOL0     C14090   9.703   8.194   8.067 -0.2649  0.4339  0.5491
  103MOL0     C14091   9.657   8.049   8.106  0.3596  0.0438  0.9885
  103MOL0     C14092   9.761   7.962   8.163 -0.2150  0.0439  0.1637
  103MOL0     N14093   9.884   7.937   8.077 -0.2871 -0.4294 -0.5221
  103MOL0     C14094   9.884   7.895   7.946 -0.7015 -1.0463 -0.0586
  103MOL0     C14095  10.010   7.911   7.904 -0.0415  0.7368  0.1338
  103MOL0     C14096  10.044   7.886   7.756 -0.8705 -0.1319  0.9470
  103MOL0     C14097  10.190   7.826   7.725  1.1085  0.0314 -0.7669
  103MOL0     C14098  10.244   7.833   7.582 -0.3622 -0.0932  0.5298
  103MOL0     C14099  10.406   7.846   7.583 -0.3317 -0.0717 -0.2930
  103MOL0     O14100  10.457   7.938   7.683  0.3627  0.1360 -0.1221
  103MOL0     C14101  10.561   8.017   7.660 -0.5390 -0.5748 -0.8629
  103MOL0     C14102  10.561   8.148   7.720  0.8828 -0.3518 -0.5919
  103MOL0     C14103  10.662   8.240   7.701  0.5899  1.0820 -0.5333
  103MOL0     C14104  10.637   8.375   7.760 -0.1645  0.4267  0.7830
  103MOL0     C14105  10.771   8.205   7.624  0.7907 -0.1304 -0.1155
  103MOL0     C14106  10.894   8.284   7.595  0.2243  0.1743 -0.4322
  103MOL0     O14107  10.913   8.399   7.678  0.6765 -0.0949  0.3204
  103MOL0     C14108  11.028   8.476   7.670  0.0533 -0.2389  0.2123
  103MOL0     C14109  11.034   8.615   7.640 -0.3403 -0.0805  0.4366
  103MOL0     C14110  11.149   8.697   7.653 -0.4327 -0.4064 -0.1313
  103MOL0     C14111  11.263   8.636   7.702 -0.8122 -1.1403  1.0550
  103MOL0     O14112  11.358   8.730   7.735  0.6752  0.8312  0.2750
  103MOL0     C14113  11.472   8.697   7.817  0.9211 -0.2272 -1.0896
  103MOL0     C14114  11.583   8.680   7.716 -1.0380  0.3973 -0.1780
  103MOL0     C14115  11.627   8.542   7.705 -0.7962  0.4608  0.1705
  103MOL0     C14116  11.753   8.528   7.620  0.0428 -0.3806  0.2622
  103MOL0     C14117  11.753   8.373   7.594  0.7968 -0.3450  0.1091
  103MOL0     C14118  11.893   8.350   7.525 -0.2079 -0.5438 -0.0913
  103MOL0     C14119  11.863   8.304   7.377 -0.2739 -0.4678 -0.2588
  103MOL0     C14120  11.979   8.269   7.293  0.3807 -0.1610 -0.1072
  103MOL0    Cl14121  12.048   8.116   7.359 -0.0444  0.2735  0.4488
  103MOL0     C14122  11.253   8.503   7.740 -0.0944 -0.3526  0.0481
  103MOL0     C14123  11.144   8.420   7.716 -0.3166  0.1133  0.2222
  103MOL0     O14124  10.968   8.263   7.500  0.1322  0.0664  0.1376
  103MOL0     C14125  10.764   8.081   7.558 -0.0507  0.3293 -0.7288
  103MOL0     C14126  10.653   7.993   7.571 -0.1972  0.0202  0.2196
  103MOL0     N14127  10.086   7.966   8.010 -0.3990  0.1147  0.1362
  103MOL0     N14128  10.004   7.989   8.104  0.0381  0.4570 -0.0390
  103MOL0     C14129   9.361   8.937   7.733  0.3199  0.9528 -0.3778
  103MOL0     C14130   9.347   8.995   7.613 -0.8474  0.1826 -0.7139
  103MOL0     C14131   9.482   9.085   7.179  0.2628  0.5973 -0.0550
  103MOL0     C14132   9.467   9.217   7.228  0.6385  0.3504 -0.3144
  103MOL0     C14133   9.466   9.333   7.145 -0.6225  0.0409 -0.4112
  103MOL0     C14134   9.496   9.325   7.010  0.7798  0.3458 -0.2669
  103MOL0     O14135   9.501   9.433   6.922 -0.5810 -0.0510 -0.0982
  103MOL0     C14136   9.477   9.566   6.976  0.3271 -0.3151  0.9495
  103MOL0     C14137   9.512   9.673   6.878 -0.7671  0.2688  0.1368
  103MOL0     C14138   9.441   9.669   6.747  0.0633  0.5334  0.1648
  103MOL0     C14139   9.470   9.792   6.658  0.4919  0.2606 -0.0217
  103MOL0     C14140   9.606   9.843   6.655 -0.5597  0.4057 -0.3068
  103MOL0     C14141   9.726   9.868   6.655  1.4535  0.2987  0.2271
  103MOL0     C14142   9.530   9.198   6.962 -1.0379  0.2087  0.9132
  103MOL0     C14143   9.522   9.077   7.048 -0.8939  0.2086  0.2871
  103MOL0     C14144   9.586   8.959   6.988  0.1338 -0.2826  0.5069
  103MOL0     H14145   9.594   8.806   7.456  1.5679  0.5079  1.4443
  103MOL0     H14146   9.621   8.728   7.672 -1.1212 -1.8373  0.2865
  103MOL0     H14147   9.616   8.849   7.973 -2.6879  2.0480 -1.8091
  103MOL0     H14148   9.630   8.689   7.899 -0.9139 -1.4653  0.7258
  103MOL0     H14149   9.624   8.688   8.170 -0.0784 -4.4236  1.1979
  103MOL0     H14150   9.468   8.726   8.153 -0.6979 -3.0080 -0.3222
  103MOL0     H14151   9.474   8.482   8.164 -1.8040 -0.5650  0.0083
  103MOL0     H14152   9.434   8.503   7.995 -0.0434  1.1863  0.2927
  103MOL0     H14153   9.667   8.468   7.945 -1.5937 -1.7378 -2.0135
  103MOL0     H14154   9.705   8.457   8.117  0.0576 -4.2316  1.7742
  103MOL0     H14155   9.516   8.258   7.984 -0.9502  0.0321  0.7491
  103MOL0     H14156   9.524   8.274   8.156 -1.1222 -1.4533 -0.5340
  103MOL0     H14157   9.757   8.193   7.971 -1.4536 -2.3203 -0.1929
  103MOL0     H14158   9.771   8.225   8.146 -1.4888  2.2593  0.9613
  103MOL0     H14159   9.606   8.008   8.019  0.3559  3.5077 -0.8048
  103MOL0     H14160   9.584   8.066   8.186  1.7264  1.5026  1.9878
  103MOL0     H14161   9.792   8.012   8.255 -1.1173  1.5449 -0.3039
  103MOL0     H14162   9.707   7.869   8.181 -2.8126  1.5636  0.7751
  103MOL0     H14163   9.789   7.888   7.893 -0.7756 -0.0826 -0.0666
  103MOL0     H14164  10.030   7.985   7.713  0.8660 -0.7153 -1.1587
  103MOL0     H14165   9.961   7.832   7.709 -0.2149 -0.1026 -0.2730
  103MOL0     H14166  10.257   7.884   7.790  1.7294  0.6631 -1.9345
  103MOL0     H14167  10.186   7.721   7.755 -3.3020  0.0255 -0.8064
  103MOL0     H14168  10.202   7.749   7.525  2.0563 -0.1971 -1.2710
  103MOL0     H14169  10.207   7.931   7.552 -1.2159 -0.5695 -0.0024
  103MOL0     H14170  10.464   7.753   7.584  0.6747  0.4468 -2.7066
  103MOL0     H14171  10.417   7.880   7.479 -0.7015  4.3022  0.9314
  103MOL0     H14172  10.478   8.174   7.786  1.8678 -3.0173  1.8973
  103MOL0     H14173  10.536   8.374   7.801  0.2999 -0.6833  1.9645
  103MOL0     H14174  10.644   8.450   7.680 -1.7621  0.9278  1.0939
  103MOL0     H14175  10.716   8.387   7.834  0.8976 -0.2412 -0.2032
  103MOL0     H14176  10.934   8.649   7.617 -1.4853 -2.8360  0.9590
  103MOL0     H14177  11.148   8.803   7.633  0.4790 -0.7516 -2.2218
  103MOL0     H14178  11.492   8.785   7.878  0.0792  0.2812 -1.5368
  103MOL0     H14179  11.461   8.621   7.895 -3.9005  1.5043  0.2280
  103MOL0     H14180  11.554   8.728   7.622 -2.5068  2.2295  1.1199
  103MOL0     H14181  11.661   8.742   7.762 -0.7778 -1.0166  1.3777
  103MOL0     H14182  11.545   8.481   7.666  0.3861 -0.7800 -0.4547
  103MOL0     H14183  11.640   8.501   7.806 -0.8258  0.8772  0.3429
  103MOL0     H14184  11.842   8.562   7.673  1.3629 -0.7259 -1.6335
  103MOL0     H14185  11.737   8.587   7.529 -0.9213  1.3575  1.4921
  103MOL0     H14186  11.740   8.323   7.691  3.2656 -4.9568 -1.5828
  103MOL0     H14187  11.669   8.348   7.529  0.1340  2.4854 -0.2268
  103MOL0     H14188  11.953   8.267   7.564 -0.1336  0.0128  1.0143
  103MOL0     H14189  11.966   8.430   7.538  1.3707 -2.0164  0.5880
  103MOL0     H14190  11.809   8.393   7.344  0.7714 -0.0730 -0.9836
  103MOL0     H14191  11.793   8.221   7.370  3.3783 -3.9969  1.3790
  103MOL0     H14192  12.048   8.352   7.285  1.8524 -1.5239 -2.9168
  103MOL0     H14193  11.938   8.255   7.193  1.5656  1.3047 -0.8354
  103MOL0     H14194  11.344   8.464   7.783 -0.3417 -1.1412 -0.1371
  103MOL0     H14195  11.148   8.315   7.742  1.3923  0.2407  0.5847
  103MOL0     H14196  10.851   8.062   7.497  0.2265 -0.7819 -0.0033
  103MOL0     H14197  10.633   7.908   7.506  2.4107 -0.9827  0.6155
  103MOL0     H14198   9.282   8.973   7.798  0.6887 -2.7448  2.5047
  103MOL0     H14199   9.275   9.073   7.590  0.2094  1.9877  1.6447
  103MOL0     H14200   9.447   9.236   7.333 -0.6854  0.9124 -0.6385
  103MOL0     H14201   9.433   9.421   7.200 -0.0750  1.1289 -1.7654
  103MOL0     H14202   9.370   9.569   6.998 -0.2587 -0.9425 -1.5237
  103MOL0     H14203   9.531   9.583   7.070  0.4604  1.9764  0.5215
  103MOL0     H14204   9.619   9.677   6.855 -0.6148 -0.6252  0.6645
  103MOL0     H14205   9.490   9.764   6.935  0.8839  0.6508  0.2443
  103MOL0     H14206   9.475   9.577   6.699 -2.5471 -0.4853  0.1329
  103MOL0     H14207   9.335   9.658   6.767  0.3262  0.8096  1.8865
  103MOL0     H14208   9.417   9.875   6.706  1.8744  0.9247  0.4205
  103MOL0     H14209   9.428   9.785   6.558 -0.0303  1.2060  0.1161
  103MOL0     H14210   9.833   9.879   6.664  1.4043 -0.4419  2.2531
  103MOL0     H14211   9.562   9.187   6.859  1.7311  0.3274  1.6844
  103MOL0     H14212   9.677   8.918   7.034  0.9052  0.5310 -0.2487
  103MOL0     H14213   9.507   8.884   6.979 -3.1148  2.4345  3.3168
  103MOL0     H14214   9.624   8.984   6.889 -1.4670 -2.2209 -0.6698
  104MOL0     O14215   2.240   4.533   9.389  0.7577 -0.1888  0.4557
  104MOL0     C14216   2.144   4.483   9.326 -1.0073  0.1048 -0.4750
  104MOL0     O14217   2.151   4.370   9.248 -0.3262  1.1353  0.8396
  104MOL0     C14218   2.276   4.307   9.237  0.9924 -1.6194 -0.3003
  104MOL0     C14219   2.341   4.244   9.344 -0.7381 -1.6102  0.2573
  104MOL0     C14220   2.460   4.173   9.319  0.6829 -0.2976 -0.4024
  104MOL0     C14221   2.522   4.172   9.194 -0.0685  0.9610  0.5683
  104MOL0     O14222   2.648   4.112   9.167  0.5762 -0.4875 -0.2915
  104MOL0     C14223   2.733   4.087   9.282 -0.4639 -0.3156  0.2684
  104MOL0     C14224   2.875   4.053   9.237  0.0641  0.2916  0.2227
  104MOL0     C14225   2.984   4.079   9.339  0.1613 -0.8383  0.3352
  104MOL0     C14226   3.101   3.990   9.329  0.8759 -0.2379 -1.2086
  104MOL0     C14227   3.150   3.969   9.181 -0.8708  0.5781 -0.9301
  104MOL0     C14228   3.296   4.005   9.176 -0.1514 -0.2961 -1.3034
  104MOL0     C14229   3.383   3.908   9.253 -1.2099 -0.7108 -0.0917
  104MOL0     C14230   3.507   3.967   9.309 -0.2765 -1.0507 -0.0622
  104MOL0     N14231   3.590   4.025   9.207  0.2763  0.8901  0.6909
  104MOL0     C14232   3.673   3.969   9.109  0.2812  0.6879 -0.4798
  104MOL0     C14233   3.686   4.057   9.007 -0.7038 -0.0666 -0.1364
  104MOL0     C14234   3.788   4.041   8.899  0.2133 -1.2285  1.6055
  104MOL0     C14235   3.927   4.105   8.927 -0.7357  0.3400 -0.1473
  104MOL0     C14236   4.029   4.066   8.826 -0.1068  0.7749  0.6235
  104MOL0     C14237   4.011   4.125   8.692  0.0663  0.7658 -0.3661
  104MOL0     O14238   4.137   4.128   8.627  0.7311 -0.6427 -0.5708
  104MOL0     C14239   4.159   4.200   8.518  0.0707 -0.4089  0.7340
  104MOL0     C14240   4.065   4.286   8.458 -0.3747  0.2752 -0.1099
  104MOL0     C14241   4.099   4.369   8.348 -1.0259 -0.1449 -0.4706
  104MOL0     C14242   3.990   4.466   8.304  0.7182 -0.5193  0.1283
  104MOL0     C14243   4.232   4.357   8.290  0.3989 -0.8474 -0.0400
  104MOL0     C14244   4.270   4.445   8.182  0.7743  0.3104  0.8620
  104MOL0     O14245   4.358   4.387   8.095  0.5900 -0.0510 -0.5344
  104MOL0     C14246   4.371   4.428   7.964  1.3244 -0.3286  0.4323
  104MOL0     C14247   4.493   4.492   7.923  1.3759  0.6791 -0.5552
  104MOL0     C14248   4.511   4.530   7.790 -0.0207  0.0566  1.0352
  104MOL0     C14249   4.414   4.502   7.691  0.6232 -0.5705  0.1153
  104MOL0     O14250   4.430   4.564   7.570 -1.1778  0.2145  0.0762
  104MOL0     C14251   4.326   4.557   7.471  0.2148 -1.0018 -0.2899
  104MOL0     C14252   4.364   4.578   7.322  0.0040 -0.6876 -0.1048
  104MOL0     C14253   4.435   4.713   7.297  0.3488  0.2488  0.0430
  104MOL0     C14254   4.452   4.743   7.152  0.9761  0.3683  0.1982
  104MOL0     C14255   4.517   4.885   7.112 -1.0583 -0.6007 -0.0021
  104MOL0     C14256   4.429   5.012   7.114  0.4732 -0.6308 -0.5693
  104MOL0     C14257   4.400   5.061   7.258  1.1282  0.4752 -0.0552
  104MOL0     C14258   4.344   5.204   7.271 -0.5125  0.8014 -0.2295
  104MOL0    Cl14259   4.495   5.295   7.231  0.3180  0.4726 -0.3045
  104MOL0     C14260   4.293   4.451   7.734  0.8733  0.2832  0.3165
  104MOL0     C14261   4.262   4.412   7.867 -0.9866  0.9605  0.6672
  104MOL0     O14262   4.214   4.549   8.173 -0.6432 -0.9301  0.0941
  104MOL0     C14263   4.328   4.270   8.347 -0.2985  0.2382 -0.5093
  104MOL0     C14264   4.288   4.196   8.459 -0.1860 -0.8689  0.0840
  104MOL0     N14265   3.624   4.173   9.044 -0.0083  1.0418  0.7392
  104MOL0     N14266   3.561   4.151   9.160  0.1339  1.0154 -0.2692
  104MOL0     C14267   2.459   4.240   9.086  0.0071  0.2001  0.0500
  104MOL0     C14268   2.334   4.297   9.109  0.7797 -0.4068 -0.2635
  104MOL0     C14269   2.007   4.549   9.335 -1.7448 -0.3819  0.3899
  104MOL0     C14270   1.936   4.554   9.220  0.2342  0.1912  0.6444
  104MOL0     C14271   1.799   4.596   9.223 -0.2323  0.3449 -1.1257
  104MOL0     C14272   1.744   4.642   9.342 -0.7404  0.0572 -0.2579
  104MOL0     O14273   1.620   4.694   9.322  0.1537 -0.4729 -0.1769
  104MOL0     C14274   1.582   4.799   9.413  1.1505  0.8172  0.2049
  104MOL0     C14275   1.447   4.850   9.363 -1.1730 -0.2785  0.7049
  104MOL0     C14276   1.331   4.752   9.360 -0.0934  0.1480  0.1035
  104MOL0     C14277   1.280   4.719   9.500 -0.3651 -0.0648  0.3574
  104MOL0     C14278   1.349   4.610   9.572  0.3430 -0.0070 -0.3294
  104MOL0     C14279   1.384   4.522   9.647  0.3906  0.1862  0.5007
  104MOL0     C14280   1.825   4.665   9.454  0.3742  0.4822  0.7234
  104MOL0     C14281   1.955   4.608   9.455  0.1743  0.2529 -0.0573
  104MOL0     C14282   2.035   4.599   9.590 -0.3570  0.2516 -0.1210
  104MOL0     H14283   2.315   4.249   9.449  2.0027  1.1043  0.9797
  104MOL0     H14284   2.501   4.118   9.402  0.5321  2.4671  1.6571
  104MOL0     H14285   2.691   3.999   9.333  0.0563 -0.5817  0.2462
  104MOL0     H14286   2.735   4.165   9.358  2.2900  0.8686 -0.9121
  104MOL0     H14287   2.870   3.948   9.207  0.2172 -0.3179  2.1796
  104MOL0     H14288   2.913   4.104   9.148  1.9404 -0.1512  0.7204
  104MOL0     H14289   3.020   4.181   9.323  0.0720 -0.2131  3.4175
  104MOL0     H14290   2.947   4.074   9.442 -2.4410  1.5874 -0.3623
  104MOL0     H14291   3.183   4.019   9.395  1.9124 -3.8196 -0.6685
  104MOL0     H14292   3.086   3.887   9.362  1.6289 -0.4129 -1.3961
  104MOL0     H14293   3.108   4.033   9.103 -2.8902  0.6701  0.1758
  104MOL0     H14294   3.115   3.870   9.151 -2.2409  1.2722 -1.7138
  104MOL0     H14295   3.328   4.015   9.072 -2.9688  2.0514 -2.0847
  104MOL0     H14296   3.293   4.106   9.218 -1.7236 -1.2210  1.0383
  104MOL0     H14297   3.418   3.833   9.181  1.4617  0.1013  0.2455
  104MOL0     H14298   3.327   3.850   9.326 -2.9471 -2.6285 -2.7520
  104MOL0     H14299   3.484   4.041   9.387  3.0488  0.3737 -0.2800
  104MOL0     H14300   3.572   3.896   9.361  0.1039 -0.3813  0.3985
  104MOL0     H14301   3.716   3.871   9.125  0.2533  0.9534  1.3381
  104MOL0     H14302   3.749   4.089   8.809  2.1550 -1.5014  0.5422
  104MOL0     H14303   3.808   3.938   8.867  2.0507 -0.0323 -1.5185
  104MOL0     H14304   3.906   4.212   8.921 -0.8154  0.2936 -0.8884
  104MOL0     H14305   3.967   4.079   9.025 -3.5585 -1.6508  0.6065
  104MOL0     H14306   4.124   4.098   8.870 -1.3283  1.2922  3.0531
  104MOL0     H14307   4.032   3.957   8.815 -0.9085  0.7751  0.3839
  104MOL0     H14308   3.937   4.091   8.619  2.5889 -0.6379 -2.4572
  104MOL0     H14309   3.993   4.230   8.715  3.4024  1.8772 -2.1484
  104MOL0     H14310   3.972   4.306   8.509 -0.0509  2.1400 -0.1843
  104MOL0     H14311   4.009   4.563   8.349 -0.4730 -1.9003  3.9991
  104MOL0     H14312   3.899   4.438   8.358  2.1408  0.4095  3.1996
  104MOL0     H14313   3.980   4.478   8.196  5.2915  1.2355 -0.3147
  104MOL0     H14314   4.564   4.496   8.005 -0.1537 -0.1647  0.8898
  104MOL0     H14315   4.604   4.576   7.758 -0.7290 -1.1784 -3.4209
  104MOL0     H14316   4.296   4.452   7.476 -0.2995 -0.7949  2.0218
  104MOL0     H14317   4.245   4.621   7.506  0.2457 -1.7014  1.1592
  104MOL0     H14318   4.429   4.495   7.291 -0.5320 -1.1310 -0.0396
  104MOL0     H14319   4.269   4.563   7.270  1.7431 -0.8354 -3.5452
  104MOL0     H14320   4.529   4.717   7.354  0.7327  1.5975 -0.6531
  104MOL0     H14321   4.372   4.797   7.327 -3.2606 -1.6661 -1.5440
  104MOL0     H14322   4.355   4.737   7.102 -0.4543  1.3126  2.6666
  104MOL0     H14323   4.506   4.665   7.097  1.2921  1.4846 -1.1536
  104MOL0     H14324   4.615   4.902   7.156 -0.0432  0.5142 -2.4837
  104MOL0     H14325   4.557   4.883   7.010  1.2910 -0.3366  0.8634
  104MOL0     H14326   4.338   4.991   7.056 -1.8507  2.0897  1.7642
  104MOL0     H14327   4.481   5.086   7.053  2.1823 -2.5320 -1.5206
  104MOL0     H14328   4.479   5.051   7.333 -1.3104  1.2663  2.8739
  104MOL0     H14329   4.319   5.001   7.301 -0.1715  2.5894  0.6188
  104MOL0     H14330   4.319   5.227   7.375 -0.3787  1.2770 -0.3006
  104MOL0     H14331   4.263   5.235   7.205 -1.3872 -0.5556  0.1652
  104MOL0     H14332   4.209   4.433   7.667 -0.4985  2.3193  1.3840
  104MOL0     H14333   4.171   4.363   7.901 -0.3220 -1.5687 -0.9805
  104MOL0     H14334   4.430   4.271   8.310  0.5450  0.4906  1.6404
  104MOL0     H14335   4.370   4.134   8.493  1.4213  2.1701  2.2787
  104MOL0     H14336   2.504   4.259   8.989 -1.3693  1.0189 -0.4540
  104MOL0     H14337   2.283   4.335   9.021 -2.7125 -4.0028 -0.0829
  104MOL0     H14338   1.984   4.534   9.125 -1.9200  2.1056 -0.9596
  104MOL0     H14339   1.741   4.599   9.132 -2.8839  0.6914  0.4792
  104MOL0     H14340   1.570   4.774   9.519  1.4787 -0.6981 -0.0998
  104MOL0     H14341   1.656   4.880   9.410  0.4644  1.5853  2.1944
  104MOL0     H14342   1.468   4.897   9.267  1.4181  1.3386  1.9579
  104MOL0     H14343   1.416   4.930   9.431  1.2810  0.1800  1.3679
  104MOL0     H14344   1.244   4.799   9.313  0.9819  1.8046 -0.3146
  104MOL0     H14345   1.361   4.658   9.312  1.1317  0.1547  0.8455
  104MOL0     H14346   1.173   4.700   9.486 -0.2191 -1.3335  0.8176
  104MOL0     H14347   1.290   4.806   9.565  1.3387 -2.1899  3.1371
  104MOL0     H14348   1.436   4.451   9.707  0.7349  1.0935  1.3108
  104MOL0     H14349   1.789   4.705   9.548 -0.0379 -0.7771  1.1222
  104MOL0     H14350   1.961   4.582   9.669  0.0391  0.6554  0.3348
  104MOL0     H14351   2.100   4.511   9.593 -1.0638 -0.4060 -2.0679
  104MOL0     H14352   2.101   4.685   9.605  1.4477 -0.9920 -0.6704
  105MOL0     O14353   0.624   3.902   4.109 -0.2810  0.5592  1.0603
  105MOL0     C14354   0.564   4.006   4.122  0.2165  0.0838 -0.8137
  105MOL0     O14355   0.462   4.040   4.042  0.4257 -0.2157 -0.0317
  105MOL0     C14356   0.405   3.943   3.961 -0.2655  0.7145 -0.7527
  105MOL0     C14357   0.474   3.885   3.854 -0.0698 -0.4872 -0.9143
  105MOL0     C14358   0.432   3.766   3.787  0.2023 -0.8741  0.5423
  105MOL0     C14359   0.307   3.723   3.819  0.0482 -0.5309  0.2249
  105MOL0     O14360   0.274   3.613   3.754 -0.4705  0.4761  0.4538
  105MOL0     C14361   0.202   3.648   3.626 -0.2759  0.5765  0.6568
  105MOL0     C14362   0.139   3.544   3.528 -0.0746 -0.0094 -0.3863
  105MOL0     C14363   0.243   3.495   3.425 -0.4582 -0.2423  0.1840
  105MOL0     C14364   0.181   3.396   3.325  0.7578 -0.4440 -0.1996
  105MOL0     C14365   0.283   3.297   3.286 -0.6902  0.2009 -0.2034
  105MOL0     C14366   0.295   3.183   3.383  0.4784 -0.2040  1.4041
  105MOL0     C14367   0.419   3.096   3.389  0.1985 -0.1567  0.0215
  105MOL0     C14368   0.477   3.060   3.243  0.7787 -0.4378  0.1615
  105MOL0     N14369   0.608   2.999   3.250 -0.3405  0.2550 -1.3901
  105MOL0     C14370   0.733   3.055   3.230  0.0161 -0.3742  0.7631
  105MOL0     C14371   0.828   2.962   3.260 -0.4398  0.1245  0.4086
  105MOL0     C14372   0.975   2.983   3.235 -0.5500 -0.5174  0.9360
  105MOL0     C14373   0.997   2.994   3.080 -0.6779  0.4081  0.0125
  105MOL0     C14374   1.141   3.026   3.055 -0.0394  0.8242 -0.3116
  105MOL0     C14375   1.177   3.024   2.906  0.7062  0.8380  0.6203
  105MOL0     O14376   1.121   2.912   2.834  0.3225 -0.1704  0.5240
  105MOL0     C14377   1.137   2.918   2.694 -0.1252  0.7664  0.2844
  105MOL0     C14378   1.045   2.853   2.618  0.4521  0.7775  0.8722
  105MOL0     C14379   1.056   2.850   2.474  0.7297  0.5397 -0.0977
  105MOL0     C14380   0.935   2.778   2.408  0.6807  0.7370  0.0528
  105MOL0     C14381   1.162   2.906   2.409 -0.4899 -0.2412 -1.1293
  105MOL0     C14382   1.196   2.895   2.265 -1.2251 -1.3245 -0.6579
  105MOL0     O14383   1.117   2.814   2.194  0.2310 -0.0791  0.2329
  105MOL0     C14384   1.139   2.812   2.058 -0.1095 -0.1634 -0.1494
  105MOL0     C14385   1.077   2.907   1.977 -0.5153 -0.4811  0.3616
  105MOL0     C14386   1.098   2.910   1.837 -0.5866  0.3678  0.2393
  105MOL0     C14387   1.190   2.825   1.779  0.3176 -0.3269 -0.3717
  105MOL0     O14388   1.221   2.851   1.650  0.2240  0.6325  0.4544
  105MOL0     C14389   1.353   2.903   1.641 -0.1540 -0.2128 -0.2816
  105MOL0     C14390   1.354   2.966   1.504 -0.2563 -0.1397 -0.5968
  105MOL0     C14391   1.497   2.951   1.439  0.6611 -0.0532  0.3895
  105MOL0     C14392   1.499   3.011   1.296 -0.0487  0.0326  0.1626
  105MOL0     C14393   1.433   2.897   1.198 -0.0719 -0.4358 -0.3654
  105MOL0     C14394   1.484   2.911   1.050  0.1295  0.3712  0.2768
  105MOL0     C14395   1.427   3.037   0.985 -0.5003  0.1668  0.9449
  105MOL0     C14396   1.457   3.050   0.833 -0.6161  0.4701  0.1691
  105MOL0    Cl14397   1.627   2.986   0.806  0.0545 -0.1711  0.0649
  105MOL0     C14398   1.249   2.723   1.856  0.3057  0.1787 -0.5551
  105MOL0     C14399   1.227   2.721   1.998 -0.3476 -0.3425 -0.4538
  105MOL0     O14400   1.283   2.970   2.220 -0.2364 -0.6875 -0.1960
  105MOL0     C14401   1.248   2.984   2.495 -0.9319  0.9182 -1.0280
  105MOL0     C14402   1.227   2.999   2.627  0.5456  0.3659 -0.3763
  105MOL0     N14403   0.755   2.848   3.274 -0.2842 -0.6406 -0.0360
  105MOL0     N14404   0.633   2.871   3.290 -0.2086  0.9851 -0.2390
  105MOL0     C14405   0.229   3.783   3.927  0.7957  0.4400  1.0392
  105MOL0     C14406   0.282   3.890   3.997  0.1884 -0.4119  0.1096
  105MOL0     C14407   0.599   4.092   4.235  0.1861  0.6628 -0.3311
  105MOL0     C14408   0.507   4.176   4.293 -0.1601 -0.0295 -0.4116
  105MOL0     C14409   0.536   4.265   4.390  0.6538 -0.1393  0.6833
  105MOL0     C14410   0.670   4.283   4.430 -0.8128 -0.2017 -0.5032
  105MOL0     O14411   0.719   4.371   4.526  0.2788  0.0565  0.0420
  105MOL0     C14412   0.623   4.438   4.618  0.2798  0.0150  0.3923
  105MOL0     C14413   0.710   4.549   4.673 -0.4866 -0.8683 -1.5453
  105MOL0     C14414   0.780   4.646   4.577  0.7576 -0.6445  0.1556
  105MOL0     C14415   0.682   4.745   4.508  1.0733  0.1438  0.1084
  105MOL0     C14416   0.746   4.829   4.407  0.2862  0.4826  1.4772
  105MOL0     C14417   0.807   4.910   4.334  0.4497  0.7163 -0.2865
  105MOL0     C14418   0.765   4.186   4.379  0.3867 -0.5895  0.2196
  105MOL0     C14419   0.731   4.088   4.284 -0.1745 -0.0298  0.4307
  105MOL0     C14420   0.845   3.999   4.248 -1.3602  0.6990 -0.6980
  105MOL0     H14421   0.578   3.905   3.833  0.6524 -1.0484  1.6737
  105MOL0     H14422   0.495   3.720   3.712 -1.0980 -1.2137 -0.3864
  105MOL0     H14423   0.253   3.729   3.575 -2.9811  0.5520 -2.3800
  105MOL0     H14424   0.110   3.696   3.660 -1.1408 -1.3854  1.2339
  105MOL0     H14425   0.089   3.454   3.564  0.3833 -0.9644 -2.0536
  105MOL0     H14426   0.049   3.588   3.484 -0.0949  1.1255  0.7369
  105MOL0     H14427   0.267   3.583   3.365 -0.6125  0.5520  1.2466
  105MOL0     H14428   0.330   3.451   3.474 -0.5712 -2.2209 -1.2857
  105MOL0     H14429   0.093   3.346   3.365  0.0470 -1.2981 -2.6593
  105MOL0     H14430   0.162   3.451   3.233  0.7723 -1.5269 -0.8687
  105MOL0     H14431   0.378   3.349   3.276 -0.6897  0.4456  0.9684
  105MOL0     H14432   0.270   3.254   3.186  1.1002  1.1361 -0.8896
  105MOL0     H14433   0.278   3.223   3.483  0.3914 -0.6723  1.5837
  105MOL0     H14434   0.210   3.116   3.362  0.4607 -0.7278  3.0608
  105MOL0     H14435   0.388   3.004   3.438 -4.1480  0.5623 -0.9862
  105MOL0     H14436   0.490   3.149   3.454  0.9705 -1.2509  0.1034
  105MOL0     H14437   0.407   2.995   3.190 -4.8969  3.3515  2.1803
  105MOL0     H14438   0.484   3.153   3.186 -2.1794 -0.5952 -0.6058
  105MOL0     H14439   0.747   3.162   3.218 -1.8067  0.0079  1.7303
  105MOL0     H14440   1.031   2.893   3.265  2.6539  0.6217 -1.1220
  105MOL0     H14441   1.008   3.071   3.291 -2.0656  1.5503 -1.2279
  105MOL0     H14442   0.962   2.905   3.026  0.4092  0.6407 -1.1309
  105MOL0     H14443   0.953   3.085   3.039  1.1493  0.4831 -1.9569
  105MOL0     H14444   1.165   3.125   3.096 -3.7004  0.9368  2.0212
  105MOL0     H14445   1.214   2.966   3.110 -1.1178  0.2998  0.5756
  105MOL0     H14446   1.138   3.114   2.859 -4.2054 -1.5172 -0.5181
  105MOL0     H14447   1.286   3.019   2.907  0.7171  1.1290  1.1304
  105MOL0     H14448   0.961   2.814   2.674  2.2568 -0.0357  3.1544
  105MOL0     H14449   0.883   2.839   2.334 -0.1954  0.2436  0.2537
  105MOL0     H14450   0.853   2.767   2.480 -1.8818 -0.2301 -2.7944
  105MOL0     H14451   0.958   2.680   2.365 -0.9037  0.6549 -0.6801
  105MOL0     H14452   1.024   2.988   2.027  0.9029  1.2436 -0.7757
  105MOL0     H14453   1.058   2.987   1.773 -0.3221 -0.6431 -1.2020
  105MOL0     H14454   1.369   2.980   1.716 -3.5017  0.3972 -0.0408
  105MOL0     H14455   1.429   2.824   1.648 -1.1282 -1.0537  1.5831
  105MOL0     H14456   1.287   2.907   1.441  1.9004 -2.1514 -1.1941
  105MOL0     H14457   1.328   3.071   1.515  4.9786  1.1331  4.0043
  105MOL0     H14458   1.533   2.848   1.435  2.5806  0.4497  2.6861
  105MOL0     H14459   1.572   3.010   1.492  0.0427  3.2077 -2.0552
  105MOL0     H14460   1.601   3.040   1.267  1.1104 -1.5869  2.2545
  105MOL0     H14461   1.447   3.107   1.300 -1.2673 -0.5770 -0.6118
  105MOL0     H14462   1.431   2.797   1.241 -3.7744  0.2819  1.5749
  105MOL0     H14463   1.326   2.922   1.194  0.1784  0.9212  0.5210
  105MOL0     H14464   1.446   2.829   0.989  4.9698  0.8799 -4.1280
  105MOL0     H14465   1.594   2.909   1.047  0.2275  2.9146 -1.1295
  105MOL0     H14466   1.459   3.133   1.025 -0.7356  1.0563 -0.9257
  105MOL0     H14467   1.318   3.027   0.994 -0.9279  1.1152 -2.1518
  105MOL0     H14468   1.443   3.150   0.792  1.0900 -0.0890 -1.9128
  105MOL0     H14469   1.388   2.983   0.782  0.5366 -0.7614  0.1797
  105MOL0     H14470   1.315   2.645   1.818 -0.7949 -1.5544  0.8831
  105MOL0     H14471   1.256   2.635   2.057  1.5575 -0.1032 -0.9596
  105MOL0     H14472   1.328   3.046   2.455  2.5751 -1.4827  1.6465
  105MOL0     H14473   1.298   3.069   2.670 -0.6438  1.8987 -0.8047
  105MOL0     H14474   0.129   3.743   3.937  0.0102  1.3372 -2.1195
  105MOL0     H14475   0.229   3.927   4.084  0.5642  0.8361 -0.1830
  105MOL0     H14476   0.404   4.162   4.261 -0.7803  2.5271  0.2184
  105MOL0     H14477   0.470   4.340   4.432  1.4747  0.1875  1.4372
  105MOL0     H14478   0.535   4.471   4.563  0.1629  1.0343  1.1748
  105MOL0     H14479   0.599   4.363   4.694 -0.8704 -1.4209 -1.2892
  105MOL0     H14480   0.781   4.495   4.737 -1.6146 -0.8909 -0.2571
  105MOL0     H14481   0.652   4.611   4.742  2.0615  0.3335 -0.3863
  105MOL0     H14482   0.842   4.717   4.633  0.1491  0.2072 -0.2210
  105MOL0     H14483   0.831   4.595   4.495 -1.1730 -3.3689  0.5220
  105MOL0     H14484   0.630   4.806   4.583 -1.9511 -0.7763 -1.0946
  105MOL0     H14485   0.608   4.692   4.449  2.0460  0.5042 -1.5146
  105MOL0     H14486   0.850   4.980   4.266 -0.0197  1.5359  0.2425
  105MOL0     H14487   0.870   4.191   4.404  0.2058  2.3812  0.7283
  105MOL0     H14488   0.817   3.899   4.281 -2.4226  1.5610  1.1556
  105MOL0     H14489   0.872   4.003   4.142  0.2766  3.1510 -0.2809
  105MOL0     H14490   0.939   4.030   4.296 -1.9754 -0.0364  1.0655
  106MOL0     O14491   6.793   4.123   3.221 -0.1400  0.4046 -0.1921
  106MOL0     C14492   6.804   4.060   3.116 -0.5408 -0.8630 -0.6521
  106MOL0     O14493   6.703   3.994   3.065 -0.2858 -0.6093 -0.1748
  106MOL0     C14494   6.575   4.015   3.123 -0.1475 -1.3923  0.1644
  106MOL0     C14495   6.484   4.123   3.072 -1.2707  0.4924  0.5174
  106MOL0     C14496   6.358   4.141   3.125 -0.4466 -0.1871 -0.0433
  106MOL0     C14497   6.308   4.058   3.220 -0.4220 -0.2280  0.2033
  106MOL0     O14498   6.186   4.081   3.276 -0.2296  0.0111  0.4550
  106MOL0     C14499   6.103   3.966   3.298  0.0240 -0.1145  0.0028
  106MOL0     C14500   6.092   3.926   3.440 -0.3969  0.8623 -0.0662
  106MOL0     C14501   5.973   3.980   3.516  1.1931  0.1147  0.6730
  106MOL0     C14502   5.978   3.948   3.663  0.2086  0.8880 -0.6386
  106MOL0     C14503   5.856   4.011   3.729 -0.6307 -0.2595  0.9911
  106MOL0     C14504   5.836   3.957   3.861 -0.6537  0.1775 -0.6768
  106MOL0     C14505   5.713   4.017   3.950 -0.0498  0.7879 -1.0058
  106MOL0     C14506   5.773   4.129   4.048  0.0281 -0.2751 -0.3693
  106MOL0     N14507   5.872   4.075   4.134  0.6052  0.5965  0.1718
  106MOL0     C14508   5.856   3.983   4.227  0.7603  0.7871  1.6400
  106MOL0     C14509   5.974   3.976   4.298  0.6046 -0.1761 -0.7762
  106MOL0     C14510   5.997   3.895   4.422 -0.2689 -0.4239 -0.0258
  106MOL0     C14511   6.143   3.883   4.452 -0.1183 -0.1487 -1.2862
  106MOL0     C14512   6.204   3.992   4.541 -0.0430  0.6380  0.1906
  106MOL0     C14513   6.219   3.935   4.687 -1.1092 -0.2992 -0.1606
  106MOL0     O14514   6.314   3.819   4.703  0.6525 -0.1488  0.5362
  106MOL0     C14515   6.320   3.777   4.835 -0.2744 -0.3304 -0.8660
  106MOL0     C14516   6.420   3.686   4.857  0.6494 -0.8638  0.5167
  106MOL0     C14517   6.449   3.622   4.977 -0.0587  0.4257 -0.5268
  106MOL0     C14518   6.554   3.508   4.982  0.8053 -0.5004  0.7660
  106MOL0     C14519   6.383   3.664   5.093 -0.5140 -0.2111  0.4658
  106MOL0     C14520   6.428   3.650   5.235  0.2790 -0.7267  0.1853
  106MOL0     O14521   6.335   3.674   5.340 -0.0542  0.4416 -0.4810
  106MOL0     C14522   6.377   3.683   5.474 -0.0216 -0.0792 -0.5533
  106MOL0     C14523   6.263   3.676   5.558 -0.1914  0.0022  0.0967
  106MOL0     C14524   6.279   3.696   5.692  0.7638  0.0319  0.5690
  106MOL0     C14525   6.398   3.734   5.747 -0.6933 -0.2881  0.2612
  106MOL0     O14526   6.419   3.773   5.875 -0.0824  0.4315  0.0804
  106MOL0     C14527   6.331   3.740   5.978 -0.2069  0.1805  1.5790
  106MOL0     C14528   6.347   3.829   6.099 -0.1175  1.5057  0.5438
  106MOL0     C14529   6.486   3.844   6.148 -0.2062  0.1725 -0.1729
  106MOL0     C14530   6.498   3.963   6.232 -0.0392  0.7099 -0.0629
  106MOL0     C14531   6.639   3.959   6.291 -0.4523  0.5929 -0.1990
  106MOL0     C14532   6.679   4.077   6.372 -0.7820 -0.7214 -0.1110
  106MOL0     C14533   6.734   4.196   6.292  0.2559  0.1331 -0.2310
  106MOL0     C14534   6.776   4.309   6.385  0.0999 -0.8464  0.1512
  106MOL0    Cl14535   6.817   4.444   6.270 -0.2953 -0.1606 -0.4337
  106MOL0     C14536   6.519   3.746   5.662  0.4666 -0.2458 -0.4416
  106MOL0     C14537   6.504   3.728   5.522 -0.7395 -0.4255  0.2514
  106MOL0     O14538   6.546   3.636   5.254  0.0878 -0.2986 -0.2959
  106MOL0     C14539   6.271   3.757   5.070 -0.0229  0.1437  0.5089
  106MOL0     C14540   6.245   3.814   4.949  0.4108  1.2436  0.6698
  106MOL0     N14541   6.050   4.087   4.244 -0.3361  0.9212 -0.4679
  106MOL0     N14542   5.988   4.134   4.144 -0.2195  0.9223 -0.2203
  106MOL0     C14543   6.395   3.960   3.266 -0.6932  1.0530  0.8413
  106MOL0     C14544   6.525   3.931   3.219  0.1483 -0.1922  0.3653
  106MOL0     C14545   6.936   4.062   3.046 -0.1868  0.4629 -0.3896
  106MOL0     C14546   7.045   4.138   3.106 -0.0492 -0.1924  0.4508
  106MOL0     C14547   7.161   4.156   3.037 -0.3805  0.5906  0.3273
  106MOL0     C14548   7.179   4.092   2.912  0.3842  0.2896 -0.6043
  106MOL0     O14549   7.288   4.123   2.834  0.8496 -0.2452 -0.7353
  106MOL0     C14550   7.254   4.213   2.727  0.3942  0.8396  0.7066
  106MOL0     C14551   7.255   4.358   2.779  0.7030 -0.9256 -0.3803
  106MOL0     C14552   7.255   4.465   2.669  0.6173  0.5903  0.4250
  106MOL0     C14553   7.271   4.607   2.732  0.4277 -0.0316 -0.2094
  106MOL0     C14554   7.270   4.705   2.625 -1.0934  0.2754  0.1612
  106MOL0     C14555   7.276   4.786   2.529 -0.5999 -1.1363 -0.7858
  106MOL0     C14556   7.078   4.012   2.857  0.5417 -0.4619 -0.8156
  106MOL0     C14557   6.953   4.002   2.916  0.5274 -0.2038 -0.5260
  106MOL0     C14558   6.845   3.946   2.824 -0.8703  0.7763 -0.3679
  106MOL0     H14559   6.532   4.194   3.005  0.6037 -1.0247  0.1495
  106MOL0     H14560   6.299   4.225   3.091 -1.2255 -2.3761 -5.1580
  106MOL0     H14561   6.143   3.880   3.242  0.2471 -0.8619  1.2529
  106MOL0     H14562   6.003   3.981   3.257  0.8233 -0.4534 -2.2315
  106MOL0     H14563   6.099   3.817   3.437  1.0418  0.9354 -0.3182
  106MOL0     H14564   6.181   3.964   3.492  0.3802 -2.6033  1.4236
  106MOL0     H14565   5.972   4.089   3.505  0.4182 -0.0949 -2.0903
  106MOL0     H14566   5.886   3.927   3.473  1.7355 -1.3266  1.2867
  106MOL0     H14567   5.976   3.840   3.678 -0.9028  0.8274 -1.1372
  106MOL0     H14568   6.070   3.986   3.709  1.4770 -3.1785  0.6376
  106MOL0     H14569   5.765   3.996   3.670  0.4872  0.6476 -1.0801
  106MOL0     H14570   5.881   4.117   3.726 -0.3123 -0.3534 -0.1054
  106MOL0     H14571   5.804   3.854   3.846  2.0475 -0.6924 -0.9444
  106MOL0     H14572   5.931   3.952   3.916 -0.0156  2.3189 -1.4717
  106MOL0     H14573   5.670   3.934   4.007 -1.5192  2.0195 -0.2374
  106MOL0     H14574   5.636   4.061   3.885 -2.3267 -1.3549  0.0974
  106MOL0     H14575   5.809   4.218   3.996 -1.8417  1.1546  0.6464
  106MOL0     H14576   5.688   4.154   4.113 -0.6305  1.2314 -1.7156
  106MOL0     H14577   5.770   3.917   4.239  0.5304 -0.1597 -3.1898
  106MOL0     H14578   5.960   3.797   4.393 -1.4941  0.5669 -1.9879
  106MOL0     H14579   5.938   3.935   4.506  0.5096 -0.8426  0.7383
  106MOL0     H14580   6.150   3.786   4.502  0.5505  0.8424  0.6224
  106MOL0     H14581   6.214   3.877   4.368  1.2478 -2.6043 -0.0798
  106MOL0     H14582   6.298   4.030   4.501  0.0585 -0.1051 -0.2887
  106MOL0     H14583   6.129   4.072   4.536 -4.3790 -3.0277 -0.3636
  106MOL0     H14584   6.256   4.013   4.754 -2.4916  0.1952  0.0596
  106MOL0     H14585   6.116   3.918   4.721 -1.1778  1.3729  0.5516
  106MOL0     H14586   6.470   3.663   4.763 -1.3724  2.2800 -1.5389
  106MOL0     H14587   6.656   3.547   4.988  0.3715  1.0806 -1.1442
  106MOL0     H14588   6.535   3.442   4.897 -2.0729 -1.9021  2.3398
  106MOL0     H14589   6.543   3.438   5.066 -0.1572 -0.0148  1.0649
  106MOL0     H14590   6.166   3.654   5.515 -0.0198 -1.9681  0.6025
  106MOL0     H14591   6.187   3.707   5.750  0.2048  1.9812 -0.6022
  106MOL0     H14592   6.227   3.744   5.946  0.4762 -0.1379 -0.9221
  106MOL0     H14593   6.360   3.637   5.999  0.9071  0.0745 -0.2062
  106MOL0     H14594   6.303   3.927   6.081  0.5704  1.7045 -0.0967
  106MOL0     H14595   6.282   3.778   6.171 -0.9589  0.7408 -0.7250
  106MOL0     H14596   6.551   3.860   6.061 -1.4448 -0.2799 -1.2223
  106MOL0     H14597   6.509   3.759   6.212  1.7401  0.9023  0.1450
  106MOL0     H14598   6.427   3.961   6.316 -1.0903 -0.5981 -0.9381
  106MOL0     H14599   6.479   4.055   6.177 -0.6976  0.3231 -0.5012
  106MOL0     H14600   6.654   3.868   6.350  1.2237  0.2757 -1.0743
  106MOL0     H14601   6.714   3.947   6.213 -0.8222 -0.4229 -0.4104
  106MOL0     H14602   6.755   4.035   6.439  2.8308  1.6265 -2.3867
  106MOL0     H14603   6.588   4.104   6.427 -1.7991 -1.7113 -1.2467
  106MOL0     H14604   6.659   4.242   6.227  2.4955  2.5049 -1.3212
  106MOL0     H14605   6.815   4.169   6.223  0.0302 -0.7057 -0.1782
  106MOL0     H14606   6.850   4.259   6.448  0.6402 -1.9806 -1.3170
  106MOL0     H14607   6.688   4.332   6.446  0.2173  2.4122 -0.7475
  106MOL0     H14608   6.617   3.766   5.704  0.4443 -2.7688  1.0488
  106MOL0     H14609   6.594   3.748   5.465  2.6323 -2.2048  4.3559
  106MOL0     H14610   6.196   3.785   5.144  1.7539  3.3900  1.2637
  106MOL0     H14611   6.152   3.870   4.948 -1.2017 -1.2214  1.7368
  106MOL0     H14612   6.370   3.911   3.360 -0.4969 -0.2166  0.2548
  106MOL0     H14613   6.578   3.851   3.269 -0.4047 -0.5433  0.3881
  106MOL0     H14614   7.040   4.189   3.202 -0.3303 -1.6948  1.2620
  106MOL0     H14615   7.234   4.225   3.078 -1.0475  3.0315 -2.2790
  106MOL0     H14616   7.331   4.194   2.652 -2.0069  1.4411 -2.1017
  106MOL0     H14617   7.162   4.181   2.676  2.2573  0.5428 -2.8175
  106MOL0     H14618   7.335   4.381   2.850  1.3873  1.5634 -1.8508
  106MOL0     H14619   7.161   4.370   2.835  1.3629 -1.4395  0.8952
  106MOL0     H14620   7.345   4.443   2.611  1.0408 -2.3857  1.9958
  106MOL0     H14621   7.160   4.450   2.616  2.7651 -5.3885 -2.7464
  106MOL0     H14622   7.368   4.617   2.782  1.8888 -3.4156 -2.0663
  106MOL0     H14623   7.188   4.623   2.802 -1.8295 -4.6224 -1.4515
  106MOL0     H14624   7.264   4.846   2.442 -0.9378 -0.7861 -0.5026
  106MOL0     H14625   7.094   3.965   2.761 -0.9839 -1.5356 -0.5886
  106MOL0     H14626   6.788   3.865   2.870  0.7671  0.5371  1.3730
  106MOL0     H14627   6.779   4.027   2.793  0.2899  2.4949  1.4222
  106MOL0     H14628   6.885   3.912   2.728 -1.6911  1.3148 -0.9052
  107MOL0     O14629   1.268   2.141   0.668  0.5787  0.4511 -0.0981
  107MOL0     C14630   1.221   2.259   0.679  0.3215  1.0627 -1.2457
  107MOL0     O14631   1.124   2.318   0.609  0.0559  0.1943  0.1290
  107MOL0     C14632   1.052   2.251   0.512 -0.3947 -0.3761  0.1684
  107MOL0     C14633   0.976   2.347   0.439 -1.0974 -0.1908 -0.4647
  107MOL0     C14634   0.884   2.311   0.347 -0.2706  0.2591 -0.9559
  107MOL0     C14635   0.847   2.176   0.341  0.3780 -0.1000 -0.5474
  107MOL0     O14636   0.752   2.160   0.250 -0.7606  0.0732  0.6260
  107MOL0     C14637   0.740   2.027   0.193 -0.5328  0.1873  0.2998
  107MOL0     C14638   0.625   2.024   0.100  0.6856  0.2780 -0.1793
  107MOL0     C14639   0.594   1.877   0.058  0.1930  0.5297 -0.1572
  107MOL0     C14640   0.449   1.858   0.003 -0.9324 -0.5260  0.8976
  107MOL0     C14641   0.404   1.713   0.007  1.2602  0.0993 -0.4832
  107MOL0     C14642   0.285   1.697  -0.088  0.1958  0.0412 -0.3504
  107MOL0     C14643   0.241   1.557  -0.079 -0.1280  1.7093  0.7730
  107MOL0     C14644   0.331   1.463  -0.171  0.3008 -0.6141 -0.0419
  107MOL0     N14645   0.286   1.471  -0.313 -0.0836  0.4906 -0.6795
  107MOL0     C14646   0.147   1.464  -0.355  0.3124  0.8085 -0.2362
  107MOL0     C14647   0.146   1.514  -0.474 -0.0515  0.4217  1.1184
  107MOL0     C14648   0.025   1.515  -0.562 -0.3929  0.4794  0.5205
  107MOL0     C14649   0.031   1.377  -0.640  0.0477 -0.4800  0.6125
  107MOL0     C14650  -0.068   1.375  -0.765 -0.5117 -1.0217 -1.7682
  107MOL0     C14651  -0.207   1.424  -0.735 -0.4010  1.3334  0.3446
  107MOL0     O14652  -0.260   1.336  -0.633 -0.3180 -0.2632  0.0608
  107MOL0     C14653  -0.383   1.359  -0.595 -1.8517  0.7244 -0.1579
  107MOL0     C14654  -0.461   1.468  -0.636  0.2460 -1.2519  0.0447
  107MOL0     C14655  -0.599   1.463  -0.603 -0.7743  0.0911 -1.0187
  107MOL0     C14656  -0.674   1.585  -0.654  0.4419 -0.3814 -0.5220
  107MOL0     C14657  -0.657   1.358  -0.524 -1.0320  0.2120  0.5204
  107MOL0     C14658  -0.797   1.355  -0.495 -0.6886  0.1391  0.2493
  107MOL0     O14659  -0.874   1.308  -0.592 -0.7580 -0.2365 -0.8536
  107MOL0     C14660  -1.012   1.304  -0.561 -0.6213 -0.9463  0.5593
  107MOL0     C14661  -1.094   1.426  -0.557 -0.8350 -0.5729 -0.1490
  107MOL0     C14662  -1.223   1.420  -0.505  0.1922  0.2447 -1.0923
  107MOL0     C14663  -1.278   1.288  -0.482  0.3445 -0.1732 -0.1581
  107MOL0     O14664  -1.412   1.266  -0.452 -1.0478 -0.8480 -0.3346
  107MOL0     C14665  -1.501   1.387  -0.466  0.1858 -0.2609 -0.2246
  107MOL0     C14666  -1.655   1.364  -0.444 -0.3986 -0.5845  0.1432
  107MOL0     C14667  -1.701   1.340  -0.302  0.2298  0.0186 -0.4829
  107MOL0     C14668  -1.615   1.225  -0.236  0.2249 -0.0793 -1.0388
  107MOL0     C14669  -1.668   1.189  -0.099 -0.5433 -0.7854 -0.5806
  107MOL0     C14670  -1.572   1.186   0.017  0.5080 -1.5773 -0.6689
  107MOL0     C14671  -1.654   1.198   0.150  0.3169 -0.3103 -0.0821
  107MOL0     C14672  -1.562   1.187   0.273 -0.4244  1.0505  1.1452
  107MOL0    Cl14673  -1.673   1.198   0.409  0.0099 -0.3548  0.0659
  107MOL0     C14674  -1.200   1.170  -0.488  0.9346  0.3605  0.4890
  107MOL0     C14675  -1.067   1.185  -0.527 -0.6726  0.2288 -0.0314
  107MOL0     O14676  -0.834   1.386  -0.379 -0.4868  0.1340 -0.3446
  107MOL0     C14677  -0.564   1.252  -0.478  0.2342 -0.2243  0.0804
  107MOL0     C14678  -0.436   1.261  -0.513 -0.0667  0.0746  0.3176
  107MOL0     N14679   0.275   1.544  -0.509 -0.2880  0.2421  0.5178
  107MOL0     N14680   0.361   1.520  -0.415  0.5309  0.2249  0.0804
  107MOL0     C14681   0.908   2.074   0.409 -0.3675 -0.0912 -0.6015
  107MOL0     C14682   1.015   2.112   0.500  1.0064  0.6179  0.1846
  107MOL0     C14683   1.300   2.347   0.762  0.8801 -0.0996  0.2069
  107MOL0     C14684   1.249   2.435   0.847  0.9999 -0.4082  0.3880
  107MOL0     C14685   1.324   2.507   0.935  0.3240 -0.3973  0.7208
  107MOL0     C14686   1.464   2.497   0.929  0.8393 -0.1561 -0.3789
  107MOL0     O14687   1.541   2.578   1.005 -0.1496 -0.0734 -0.2970
  107MOL0     C14688   1.583   2.520   1.132 -0.0231 -0.4865  0.2810
  107MOL0     C14689   1.734   2.496   1.132  0.3598 -0.5460 -0.2953
  107MOL0     C14690   1.812   2.631   1.148  0.4888 -0.7555 -0.3191
  107MOL0     C14691   1.966   2.604   1.142  0.3430 -0.5191  0.8150
  107MOL0     C14692   2.043   2.721   1.195 -0.0052  0.3739 -0.5714
  107MOL0     C14693   2.115   2.817   1.216 -0.8721  0.0205 -0.7750
  107MOL0     C14694   1.517   2.429   0.828  0.2198 -0.5875 -0.2310
  107MOL0     C14695   1.442   2.347   0.744 -1.1091  0.4352  0.0283
  107MOL0     C14696   1.508   2.275   0.633 -0.7246  0.2786 -1.0946
  107MOL0     H14697   0.995   2.453   0.452 -0.6240 -0.0271 -2.3010
  107MOL0     H14698   0.828   2.387   0.293  0.5664  2.0130  0.5330
  107MOL0     H14699   0.722   1.946   0.265  0.4138 -1.1201 -0.8771
  107MOL0     H14700   0.835   2.004   0.143  0.1881  0.0538  1.6847
  107MOL0     H14701   0.537   2.071   0.144 -0.6037 -1.7508 -0.4811
  107MOL0     H14702   0.642   2.086   0.012  1.0372  1.9011  0.9694
  107MOL0     H14703   0.661   1.854  -0.026  2.2522  0.4235  1.4504
  107MOL0     H14704   0.602   1.801   0.136  0.7858 -1.3073 -1.9168
  107MOL0     H14705   0.385   1.924   0.063  2.5650  2.4494  1.6736
  107MOL0     H14706   0.445   1.885  -0.103 -2.7753  1.3038  1.3681
  107MOL0     H14707   0.364   1.693   0.107 -1.5504  0.3260 -1.4645
  107MOL0     H14708   0.482   1.644  -0.027 -0.7669 -0.9283 -3.5122
  107MOL0     H14709   0.207   1.765  -0.054 -0.5686 -0.7137 -0.5702
  107MOL0     H14710   0.318   1.722  -0.189  1.5133  0.1551  0.0889
  107MOL0     H14711   0.141   1.560  -0.124  1.6357 -3.6483 -5.0000
  107MOL0     H14712   0.247   1.513   0.021  0.4408  1.8783  0.8127
  107MOL0     H14713   0.437   1.487  -0.164  1.2150 -3.7666 -1.2711
  107MOL0     H14714   0.331   1.359  -0.136  1.7405  0.1079  2.3482
  107MOL0     H14715   0.058   1.435  -0.300  1.2559 -1.7320  0.0706
  107MOL0     H14716   0.029   1.601  -0.629  2.0905  0.9708  1.1782
  107MOL0     H14717  -0.062   1.514  -0.495 -2.0894  0.2811 -1.5888
  107MOL0     H14718   0.130   1.360  -0.683 -0.6890 -2.2504 -0.5207
  107MOL0     H14719   0.005   1.295  -0.573 -1.2231  2.4166  3.9675
  107MOL0     H14720  -0.027   1.441  -0.843 -1.0915 -0.3979 -1.5507
  107MOL0     H14721  -0.065   1.278  -0.815 -1.2519 -1.4337 -1.0285
  107MOL0     H14722  -0.214   1.529  -0.706 -0.7886  0.9716  1.6138
  107MOL0     H14723  -0.269   1.403  -0.823  2.2881 -0.3929 -1.3308
  107MOL0     H14724  -0.421   1.542  -0.704  0.3170 -2.3050 -1.0984
  107MOL0     H14725  -0.642   1.601  -0.758  1.7352  3.3393  0.2934
  107MOL0     H14726  -0.646   1.670  -0.591 -2.1079  0.7260 -0.7763
  107MOL0     H14727  -0.782   1.569  -0.648  0.7205 -2.3133  0.2609
  107MOL0     H14728  -1.040   1.519  -0.567 -1.0751 -0.4654 -0.4469
  107MOL0     H14729  -1.272   1.515  -0.487  2.0247  1.1230 -0.5016
  107MOL0     H14730  -1.480   1.475  -0.404 -4.1681 -1.0506  2.8098
  107MOL0     H14731  -1.480   1.420  -0.568  0.8882 -0.6385 -0.2137
  107MOL0     H14732  -1.707   1.455  -0.475  1.0588 -0.0077 -0.7411
  107MOL0     H14733  -1.686   1.286  -0.514 -2.4654 -2.0592  2.5505
  107MOL0     H14734  -1.803   1.302  -0.315  0.1049  0.3312 -0.4228
  107MOL0     H14735  -1.700   1.432  -0.243 -1.0194  2.4640 -3.9120
  107MOL0     H14736  -1.509   1.246  -0.224  0.1709 -0.2341 -0.2178
  107MOL0     H14737  -1.620   1.138  -0.302  4.4824 -0.4418 -1.1289
  107MOL0     H14738  -1.748   1.257  -0.070 -1.9465 -2.8567  0.6278
  107MOL0     H14739  -1.716   1.091  -0.107 -1.2520 -0.7587  2.2342
  107MOL0     H14740  -1.506   1.272   0.029 -1.0135 -0.7027  2.5717
  107MOL0     H14741  -1.510   1.097   0.001  2.2257 -0.2687 -1.6169
  107MOL0     H14742  -1.742   1.134   0.161  0.9585 -1.2071 -0.0327
  107MOL0     H14743  -1.684   1.303   0.155 -1.4837 -0.7595 -0.7278
  107MOL0     H14744  -1.481   1.258   0.294 -0.0615  1.0840 -0.2481
  107MOL0     H14745  -1.523   1.085   0.266 -1.1582  0.8099  0.4641
  107MOL0     H14746  -1.244   1.072  -0.475 -1.8439  1.4100 -0.1681
  107MOL0     H14747  -1.007   1.096  -0.544 -0.3681  0.9366 -3.2034
  107MOL0     H14748  -0.592   1.159  -0.430 -3.8302 -0.8593 -2.9205
  107MOL0     H14749  -0.389   1.169  -0.479 -0.3513  0.1003  0.7892
  107MOL0     H14750   0.876   1.970   0.417  2.2616 -1.2641 -3.5509
  107MOL0     H14751   1.065   2.042   0.567  1.5314  2.3272  1.6586
  107MOL0     H14752   1.142   2.449   0.852  0.9526 -1.1297  2.4056
  107MOL0     H14753   1.273   2.569   1.008 -0.2938  2.8084 -2.2118
  107MOL0     H14754   1.551   2.581   1.217  1.9938  0.8662  0.1501
  107MOL0     H14755   1.542   2.418   1.142 -2.0742  0.1972 -0.6372
  107MOL0     H14756   1.753   2.440   1.040  0.5126 -0.5875 -0.2386
  107MOL0     H14757   1.751   2.436   1.222 -3.0939 -0.6617  0.4183
  107MOL0     H14758   1.789   2.708   1.074 -0.7207 -2.2331 -1.5434
  107MOL0     H14759   1.788   2.681   1.242  1.1447  4.1804 -2.4822
  107MOL0     H14760   2.001   2.574   1.042 -0.5167 -0.2128  0.4114
  107MOL0     H14761   1.987   2.513   1.198 -2.5639 -2.2295 -0.6483
  107MOL0     H14762   2.175   2.902   1.239 -1.0262  1.4043 -4.6711
  107MOL0     H14763   1.625   2.437   0.823  0.1950  0.1458  0.2457
  107MOL0     H14764   1.511   2.173   0.672 -1.2164  0.9951  0.9675
  107MOL0     H14765   1.450   2.294   0.542 -1.7020  1.8880 -0.1774
  107MOL0     H14766   1.616   2.290   0.623 -0.2150 -0.3415  2.1962
  108MOL0     O14767   5.810   6.385   5.830 -0.2177 -0.0733  0.7898
  108MOL0     C14768   5.776   6.305   5.922  0.0811  0.4114  0.4445
  108MOL0     O14769   5.680   6.212   5.914  0.5971 -0.1980 -0.5864
  108MOL0     C14770   5.601   6.210   5.802 -0.5891  0.0289  0.0442
  108MOL0     C14771   5.508   6.317   5.776  0.0006  0.3768 -0.2768
  108MOL0     C14772   5.432   6.328   5.656  0.8101  0.4029  0.3730
  108MOL0     C14773   5.451   6.228   5.558 -0.2631  0.2928  0.5255
  108MOL0     O14774   5.373   6.216   5.447 -0.0415  0.5822  1.0691
  108MOL0     C14775   5.429   6.260   5.329  0.9921  0.6784 -1.3335
  108MOL0     C14776   5.351   6.384   5.268  0.1945  0.4549  0.2593
  108MOL0     C14777   5.243   6.346   5.173 -0.2606 -0.3242  0.2208
  108MOL0     C14778   5.194   6.471   5.091 -0.1617  0.0723  0.3264
  108MOL0     C14779   5.126   6.432   4.960  0.5619 -0.1863  0.0231
  108MOL0     C14780   5.010   6.338   4.976 -0.2718 -0.2335  0.2522
  108MOL0     C14781   4.951   6.312   4.837  0.3131  0.7593  0.0262
  108MOL0     C14782   4.825   6.225   4.829 -0.8371  0.4329 -0.2116
  108MOL0     N14783   4.711   6.261   4.916  0.4045  0.5964  0.3579
  108MOL0     C14784   4.617   6.170   4.958  0.6496 -1.1111 -0.3267
  108MOL0     C14785   4.534   6.241   5.037  0.3290 -1.3401  0.4268
  108MOL0     C14786   4.405   6.186   5.089 -0.0982 -0.8972  0.9033
  108MOL0     C14787   4.287   6.283   5.074  0.0164 -0.2272 -0.2579
  108MOL0     C14788   4.283   6.385   5.182 -0.3097  0.3625  0.5930
  108MOL0     C14789   4.287   6.356   5.325  0.6871  0.2903 -0.5851
  108MOL0     O14790   4.199   6.247   5.354 -0.4789  0.1819 -0.0154
  108MOL0     C14791   4.192   6.203   5.488 -0.2080  0.4163 -0.0225
  108MOL0     C14792   4.120   6.091   5.509  0.2917  0.3395 -0.3806
  108MOL0     C14793   4.085   6.028   5.636 -0.4482  0.1236  0.1349
  108MOL0     C14794   3.992   5.914   5.632 -0.4413  0.0180 -0.0596
  108MOL0     C14795   4.141   6.090   5.756 -0.4507  0.3894  0.1158
  108MOL0     C14796   4.116   6.051   5.898  0.4932  1.3129 -0.2720
  108MOL0     O14797   4.127   6.150   5.985  0.2771  0.1641  0.8813
  108MOL0     C14798   4.112   6.131   6.120 -0.6288  1.3250  0.0306
  108MOL0     C14799   3.991   6.115   6.191 -0.0485 -0.3193  0.0997
  108MOL0     C14800   3.985   6.105   6.330 -0.1752  0.4764 -0.5836
  108MOL0     C14801   4.095   6.090   6.409  0.7104 -0.2550 -0.2202
  108MOL0     O14802   4.091   6.076   6.547 -0.3619  0.6477 -0.7287
  108MOL0     C14803   3.999   6.156   6.623  0.3880 -0.1736 -0.5498
  108MOL0     C14804   4.046   6.170   6.766  0.3862 -0.4485  0.4834
  108MOL0     C14805   4.182   6.255   6.779  0.5440  0.4177  0.6503
  108MOL0     C14806   4.233   6.265   6.921 -0.0686  0.7332  0.8874
  108MOL0     C14807   4.359   6.352   6.927 -0.0444 -0.4437 -0.2255
  108MOL0     C14808   4.414   6.374   7.073 -0.4166 -0.2317  0.3558
  108MOL0     C14809   4.325   6.467   7.156  0.0785  0.1814 -0.2964
  108MOL0     C14810   4.371   6.447   7.294 -0.4203 -0.2337 -0.7946
  108MOL0    Cl14811   4.287   6.546   7.423  0.0805 -0.4566  0.2284
  108MOL0     C14812   4.217   6.108   6.342  1.1637  0.0936  1.2897
  108MOL0     C14813   4.227   6.131   6.203  0.0202 -0.0871  1.1196
  108MOL0     O14814   4.089   5.927   5.916 -0.2234  0.5037 -0.1689
  108MOL0     C14815   4.226   6.202   5.738 -0.8063 -0.3503  0.2612
  108MOL0     C14816   4.250   6.258   5.605  1.4644 -0.1025 -0.2371
  108MOL0     N14817   4.585   6.378   5.052  0.1458  0.0429  0.4527
  108MOL0     N14818   4.685   6.385   4.975  0.4220  0.0565  0.4385
  108MOL0     C14819   5.542   6.119   5.586 -0.3859 -0.5694 -0.4594
  108MOL0     C14820   5.613   6.116   5.705  0.2167  0.3132 -0.1138
  108MOL0     C14821   5.869   6.297   6.044  0.2348  0.2030 -0.7799
  108MOL0     C14822   5.878   6.175   6.111  0.6665  0.1767 -1.0114
  108MOL0     C14823   5.945   6.161   6.237  0.0340 -0.0197  0.5993
  108MOL0     C14824   6.023   6.267   6.293 -0.6164  0.7916  0.3981
  108MOL0     O14825   6.093   6.243   6.408  0.0453 -0.5521  0.5179
  108MOL0     C14826   6.198   6.324   6.446 -0.8920  0.4236 -0.8352
  108MOL0     C14827   6.264   6.245   6.564 -0.7554  0.0035 -0.3195
  108MOL0     C14828   6.393   6.317   6.613 -0.5772  0.2296 -0.3215
  108MOL0     C14829   6.458   6.248   6.736  0.5740  1.2386  0.8910
  108MOL0     C14830   6.535   6.337   6.826 -0.5685 -0.3179  0.3697
  108MOL0     C14831   6.598   6.415   6.892 -0.3695  0.0542 -0.5019
  108MOL0     C14832   6.008   6.389   6.221  0.0116 -0.4786  0.1271
  108MOL0     C14833   5.949   6.399   6.097  0.3605 -0.4054  0.5115
  108MOL0     C14834   5.986   6.528   6.018 -0.4419  0.1846 -0.6463
  108MOL0     H14835   5.505   6.398   5.848 -1.3349 -0.5372  0.7542
  108MOL0     H14836   5.380   6.421   5.638  0.2951  0.1956  0.7595
  108MOL0     H14837   5.449   6.183   5.254 -1.1345 -1.3388  0.0249
  108MOL0     H14838   5.526   6.299   5.360  1.1111 -0.5970  0.0371
  108MOL0     H14839   5.323   6.463   5.338  3.0154  1.6903  0.1313
  108MOL0     H14840   5.429   6.424   5.203 -1.2453 -0.7184 -2.3422
  108MOL0     H14841   5.273   6.280   5.092 -4.1262 -0.6377 -1.1739
  108MOL0     H14842   5.157   6.296   5.218 -1.5008  1.8270  0.4102
  108MOL0     H14843   5.113   6.520   5.145  0.1258 -0.4039  1.2111
  108MOL0     H14844   5.282   6.535   5.084  1.3693 -2.0398 -1.3330
  108MOL0     H14845   5.196   6.386   4.891 -0.2675  3.0072 -3.2309
  108MOL0     H14846   5.092   6.519   4.904 -2.2552 -0.1103  1.6120
  108MOL0     H14847   5.021   6.241   5.026  0.7781  0.1699  0.8157
  108MOL0     H14848   4.934   6.388   5.038 -1.3066 -0.1605 -1.0226
  108MOL0     H14849   5.036   6.272   4.781 -0.6492 -2.3269  0.5690
  108MOL0     H14850   4.926   6.411   4.798  3.0547  1.1904 -0.8680
  108MOL0     H14851   4.776   6.223   4.732 -0.0877  0.6580 -0.6074
  108MOL0     H14852   4.835   6.117   4.846 -1.2832  0.4465  0.1508
  108MOL0     H14853   4.617   6.064   4.936 -0.1981 -1.4956  1.3889
  108MOL0     H14854   4.419   6.164   5.196 -0.2102 -0.3588  1.0324
  108MOL0     H14855   4.368   6.104   5.028 -2.8791  1.6883 -1.1829
  108MOL0     H14856   4.292   6.341   4.982 -1.3207 -1.6695 -1.2839
  108MOL0     H14857   4.193   6.226   5.073 -2.9591  4.1388  1.4570
  108MOL0     H14858   4.354   6.464   5.154 -0.0357  0.2254  0.8977
  108MOL0     H14859   4.193   6.445   5.167  0.3026  1.1034 -0.2369
  108MOL0     H14860   4.382   6.333   5.372 -0.4931 -0.5353  1.5522
  108MOL0     H14861   4.247   6.436   5.390 -0.8132 -0.7036 -0.2280
  108MOL0     H14862   4.076   6.054   5.417  2.8637 -1.8819 -0.8541
  108MOL0     H14863   3.954   5.880   5.729 -1.6607 -2.3300 -1.2604
  108MOL0     H14864   4.039   5.819   5.602 -2.1066 -2.0715  3.3953
  108MOL0     H14865   3.906   5.948   5.574  0.2678  0.3899 -0.9239
  108MOL0     H14866   3.899   6.118   6.134  1.0076  0.9593 -1.6333
  108MOL0     H14867   3.885   6.111   6.372  0.1505  0.3136  0.2348
  108MOL0     H14868   3.995   6.258   6.584 -0.3428  1.3549  3.1339
  108MOL0     H14869   3.894   6.125   6.622  0.3883 -0.2209  0.2125
  108MOL0     H14870   3.964   6.229   6.808 -0.1381  0.0906 -1.2311
  108MOL0     H14871   4.073   6.076   6.815  3.8644 -0.6437 -1.4675
  108MOL0     H14872   4.154   6.356   6.747 -0.0001  1.1967  3.3007
  108MOL0     H14873   4.259   6.206   6.720  2.2593  2.2567  1.2698
  108MOL0     H14874   4.260   6.161   6.938 -1.1631  0.3805  0.5713
  108MOL0     H14875   4.158   6.295   6.994  0.6643  0.2602  1.8574
  108MOL0     H14876   4.438   6.302   6.870  2.4979  2.4568  0.4609
  108MOL0     H14877   4.338   6.452   6.886  2.0154  0.0399 -0.1968
  108MOL0     H14878   4.503   6.437   7.060 -0.3616 -0.2037  0.8509
  108MOL0     H14879   4.433   6.273   7.111 -1.5035 -0.7122 -0.3534
  108MOL0     H14880   4.220   6.437   7.160  0.2323 -0.2868  0.6753
  108MOL0     H14881   4.328   6.574   7.132 -0.4677  0.7659  1.9711
  108MOL0     H14882   4.473   6.486   7.306 -0.6737 -0.1779  1.5891
  108MOL0     H14883   4.363   6.340   7.317 -0.1350  0.0873  0.9668
  108MOL0     H14884   4.309   6.094   6.399  2.0437 -0.3277 -0.1705
  108MOL0     H14885   4.326   6.159   6.171  1.6166 -2.3437  3.6437
  108MOL0     H14886   4.277   6.249   5.821  2.0232 -0.5914 -1.2288
  108MOL0     H14887   4.322   6.338   5.610  4.8871 -2.9933  0.4392
  108MOL0     H14888   5.565   6.038   5.517  3.6453 -0.2238  0.2362
  108MOL0     H14889   5.683   6.034   5.720 -0.0570  0.3458  1.4423
  108MOL0     H14890   5.818   6.092   6.075 -2.0129  1.8190 -0.5899
  108MOL0     H14891   5.955   6.065   6.286 -3.3845 -0.7218  0.1578
  108MOL0     H14892   6.260   6.340   6.357 -1.0170 -1.3667 -1.2852
  108MOL0     H14893   6.169   6.418   6.493  1.3210 -0.2197  2.1320
  108MOL0     H14894   6.299   6.148   6.527 -1.1553 -0.2547 -0.0410
  108MOL0     H14895   6.196   6.221   6.646  2.1855 -0.0601  2.2652
  108MOL0     H14896   6.462   6.313   6.529  0.0598 -0.3351  0.2132
  108MOL0     H14897   6.354   6.418   6.626 -0.2863  0.4801 -1.3032
  108MOL0     H14898   6.527   6.175   6.692 -0.7039  0.8954 -0.6473
  108MOL0     H14899   6.382   6.192   6.791  1.9235 -0.3760  1.1947
  108MOL0     H14900   6.663   6.476   6.952  1.1590  0.0102 -2.0271
  108MOL0     H14901   6.054   6.480   6.258 -1.8069  0.2375  0.7377
  108MOL0     H14902   6.031   6.607   6.078 -0.3487 -0.2744 -0.1105
  108MOL0     H14903   6.063   6.524   5.940  1.9539  2.1546  1.4414
  108MOL0     H14904   5.892   6.562   5.973  0.3419  1.9632 -1.0538
  109MOL0     O14905   3.733  10.962   5.987 -0.6900  0.4601 -0.6229
  109MOL0     C14906   3.668  11.056   5.993  0.4296  0.0436 -0.6600
  109MOL0     O14907   3.654  11.133   5.885  0.3638 -0.6575 -0.1077
  109MOL0     C14908   3.737  11.096   5.776 -0.2796  0.2732 -0.2587
  109MOL0     C14909   3.877  11.107   5.785 -0.4201  0.4779 -0.3991
  109MOL0     C14910   3.952  11.095   5.668  0.2583 -0.5065  0.0533
  109MOL0     C14911   3.881  11.091   5.548  0.6585  0.1222 -0.3195
  109MOL0     O14912   3.954  11.080   5.428 -0.4256 -0.0283 -0.2360
  109MOL0     C14913   3.922  10.955   5.361  0.0167  1.0726  0.2927
  109MOL0     C14914   4.034  10.945   5.257  0.9280  0.2371  0.0024
  109MOL0     C14915   4.017  11.055   5.150  0.1541  0.0043  0.2312
  109MOL0     C14916   3.900  11.018   5.048 -0.9161 -0.2153  0.1464
  109MOL0     C14917   3.941  10.937   4.927  0.6117 -0.1560  1.3952
  109MOL0     C14918   3.989  11.036   4.822 -0.0447  0.7283  0.3895
  109MOL0     C14919   3.884  11.125   4.749  0.0311  0.1226 -0.8155
  109MOL0     C14920   3.780  11.049   4.680 -0.0591  0.3027 -0.4017
  109MOL0     N14921   3.742  11.120   4.563  0.9616  0.0629 -0.3033
  109MOL0     C14922   3.735  11.071   4.438  0.5339 -0.9727 -0.0666
  109MOL0     C14923   3.657  11.156   4.360 -0.7153  0.9711  0.1634
  109MOL0     C14924   3.618  11.123   4.223  0.1202 -0.5209  0.9059
  109MOL0     C14925   3.466  11.146   4.191  0.0387 -0.3917  1.0347
  109MOL0     C14926   3.431  11.292   4.184 -0.9435  0.5321 -0.1579
  109MOL0     C14927   3.509  11.372   4.072 -0.3414  0.9882  0.2894
  109MOL0     O14928   3.526  11.301   3.953 -0.3452  0.1239 -0.3099
  109MOL0     C14929   3.597  11.361   3.850 -0.0777 -0.8400  0.0052
  109MOL0     C14930   3.671  11.490   3.853 -0.7976  0.0695 -0.2324
  109MOL0     C14931   3.731  11.547   3.738  0.0065 -0.4748  0.0169
  109MOL0     C14932   3.757  11.690   3.738 -0.0002  0.1247 -0.6388
  109MOL0     C14933   3.745  11.458   3.634  0.4275 -0.2600 -0.4353
  109MOL0     C14934   3.812  11.497   3.511  0.8198  0.2016 -0.3238
  109MOL0     O14935   3.784  11.415   3.401 -0.1071  0.1446  0.3318
  109MOL0     C14936   3.884  11.378   3.312 -0.6701 -0.5985  0.5152
  109MOL0     C14937   4.022  11.397   3.318 -0.6634  0.2699 -0.1573
  109MOL0     C14938   4.100  11.364   3.214 -0.6996  0.1402 -0.0784
  109MOL0     C14939   4.053  11.298   3.104  0.9081 -0.9035  0.9899
  109MOL0     O14940   4.134  11.247   2.997  0.6775 -0.2024 -0.1079
  109MOL0     C14941   4.241  11.311   2.932  0.4367  0.5015 -0.9145
  109MOL0     C14942   4.308  11.227   2.823  1.3015 -0.9438 -0.0982
  109MOL0     C14943   4.423  11.289   2.748  0.1311 -0.8677  0.0081
  109MOL0     C14944   4.513  11.383   2.823 -1.2023 -1.1541  0.1342
  109MOL0     C14945   4.630  11.434   2.733  0.0476 -0.4161 -0.5354
  109MOL0     C14946   4.719  11.548   2.796  0.4498  0.0113  1.1081
  109MOL0     C14947   4.794  11.493   2.913 -1.1508  0.1603 -0.2527
  109MOL0     C14948   4.894  11.605   2.946  1.1263  0.0615  0.2144
  109MOL0    Cl14949   4.945  11.582   3.111  0.1291  0.0471 -0.2038
  109MOL0     C14950   3.923  11.254   3.102  0.4160  0.1322 -0.0343
  109MOL0     C14951   3.839  11.298   3.206  0.9490  0.5562 -0.1570
  109MOL0     O14952   3.913  11.566   3.522 -0.2950 -0.1913  0.0186
  109MOL0     C14953   3.685  11.332   3.629  0.7302 -0.5794 -0.5214
  109MOL0     C14954   3.605  11.285   3.732  0.5894 -1.0006 -0.1716
  109MOL0     N14955   3.625  11.264   4.441  0.0217 -0.7033 -0.4484
  109MOL0     N14956   3.679  11.241   4.552  0.5614 -0.1541 -0.8302
  109MOL0     C14957   3.742  11.086   5.542 -0.1081 -0.0815  1.2759
  109MOL0     C14958   3.667  11.081   5.659 -0.3080 -0.3234 -0.2908
  109MOL0     C14959   3.578  11.066   6.105 -0.1501 -0.1073  0.0479
  109MOL0     C14960   3.524  10.956   6.161  0.6758  0.1197  1.1429
  109MOL0     C14961   3.416  10.967   6.239 -0.5067 -0.7231  0.0320
  109MOL0     C14962   3.358  11.093   6.269 -0.8230  0.5204  0.3651
  109MOL0     O14963   3.268  11.105   6.365  0.0396 -0.2362 -0.0473
  109MOL0     C14964   3.152  11.195   6.345 -0.1013 -0.0420 -0.3799
  109MOL0     C14965   3.051  11.119   6.274 -1.0856  0.7098  0.1878
  109MOL0     C14966   2.947  11.230   6.231 -1.1894  0.0692  0.3969
  109MOL0     C14967   2.808  11.189   6.228 -0.4200  0.0439  0.0483
  109MOL0     C14968   2.796  11.068   6.142 -0.2320  0.5109 -0.4238
  109MOL0     C14969   2.820  10.970   6.068 -0.6179 -0.3447 -0.5769
  109MOL0     C14970   3.432  11.209   6.230 -0.0711  0.4781  0.5722
  109MOL0     C14971   3.545  11.197   6.144  0.3772 -0.3406 -0.8904
  109MOL0     C14972   3.623  11.337   6.128  0.5430  0.0388  1.0263
  109MOL0     H14973   3.935  11.126   5.875 -0.0890 -0.0662 -0.4932
  109MOL0     H14974   4.060  11.093   5.669  0.6921  0.7709  6.9134
  109MOL0     H14975   3.823  10.959   5.313 -0.0098  0.0754  0.2517
  109MOL0     H14976   3.924  10.862   5.418  3.1038 -0.3965 -1.9677
  109MOL0     H14977   4.126  10.943   5.316  1.2853 -0.4095 -0.5605
  109MOL0     H14978   4.036  10.849   5.205  1.7130  0.6296 -0.7250
  109MOL0     H14979   3.982  11.147   5.198 -1.5709 -0.4747 -0.0307
  109MOL0     H14980   4.112  11.080   5.103  1.7187 -1.8522  2.2198
  109MOL0     H14981   3.819  10.971   5.104 -1.4249 -0.2392 -0.6004
  109MOL0     H14982   3.848  11.108   5.016 -4.2955 -1.6277  1.2351
  109MOL0     H14983   3.863  10.870   4.889  0.1343  1.4204 -0.5467
  109MOL0     H14984   4.021  10.872   4.962  0.8668 -0.3111  0.5469
  109MOL0     H14985   4.072  11.091   4.865  0.2044  0.2808  0.4886
  109MOL0     H14986   4.023  10.980   4.734 -3.6924 -1.8258  0.3768
  109MOL0     H14987   3.936  11.190   4.679 -0.1042  0.8443 -0.2504
  109MOL0     H14988   3.833  11.190   4.821 -2.8753 -1.8847 -0.8483
  109MOL0     H14989   3.816  10.948   4.664  0.3664  0.2693  0.6701
  109MOL0     H14990   3.690  11.023   4.737  0.5129 -2.3051 -0.5892
  109MOL0     H14991   3.777  10.974   4.415  0.2732 -0.5362 -2.7849
  109MOL0     H14992   3.631  11.017   4.198  2.4327  0.4172 -2.7220
  109MOL0     H14993   3.689  11.173   4.156 -0.5624 -1.9388 -0.9590
  109MOL0     H14994   3.445  11.100   4.094  0.4528 -2.2375  1.7746
  109MOL0     H14995   3.407  11.099   4.271 -1.2530  0.9863  0.9339
  109MOL0     H14996   3.326  11.291   4.157 -0.8653 -0.7214 -0.4786
  109MOL0     H14997   3.440  11.338   4.283 -1.9011 -1.1300  0.7371
  109MOL0     H14998   3.456  11.460   4.035  0.8610  0.8642 -1.9071
  109MOL0     H14999   3.606  11.412   4.102  1.6793 -1.0938 -2.8028
  109MOL0     H15000   3.659  11.547   3.944  2.0588  0.1998  0.1684
  109MOL0     H15001   3.717  11.731   3.831 -2.4026 -1.7271 -0.7714
  109MOL0     H15002   3.703  11.744   3.660 -0.5001 -1.0414 -1.1304
  109MOL0     H15003   3.866  11.701   3.731  0.1582  0.4524  1.6323
  109MOL0     H15004   4.082  11.434   3.401  1.2354 -0.1728 -1.2767
  109MOL0     H15005   4.207  11.380   3.200 -0.5175 -2.1192 -1.6869
  109MOL0     H15006   4.201  11.398   2.879  1.0068  1.1393 -0.3151
  109MOL0     H15007   4.316  11.326   3.011 -0.6988  0.0756  0.2649
  109MOL0     H15008   4.333  11.128   2.862  2.0755  0.8260  4.6393
  109MOL0     H15009   4.234  11.208   2.745 -0.3391  1.9088  0.6212
  109MOL0     H15010   4.365  11.337   2.668  0.2005 -0.0672  0.4267
  109MOL0     H15011   4.488  11.213   2.704  2.9277  0.4756  1.5497
  109MOL0     H15012   4.559  11.323   2.902 -1.0851 -1.6906 -0.3375
  109MOL0     H15013   4.456  11.472   2.852 -4.0762 -2.5841 -0.7553
  109MOL0     H15014   4.698  11.356   2.700  2.6184  0.5654  1.9721
  109MOL0     H15015   4.592  11.479   2.641 -0.6896  0.4265  0.1559
  109MOL0     H15016   4.649  11.622   2.838  0.9662  1.4035 -0.3683
  109MOL0     H15017   4.788  11.590   2.722 -3.6716  5.7133 -0.2494
  109MOL0     H15018   4.840  11.398   2.885  1.8734  1.2808  0.5380
  109MOL0     H15019   4.728  11.467   2.997  0.6624  0.0563  1.2037
  109MOL0     H15020   4.843  11.699   2.925 -3.0300 -2.1617 -0.6674
  109MOL0     H15021   4.979  11.583   2.881  2.4714 -1.5881  2.3781
  109MOL0     H15022   3.878  11.183   3.034 -1.8365 -0.9448  2.4036
  109MOL0     H15023   3.733  11.282   3.219  0.3885  1.4273 -2.8753
  109MOL0     H15024   3.707  11.253   3.558  1.9782 -3.7370  2.9801
  109MOL0     H15025   3.553  11.190   3.738 -1.5597  0.0160 -1.5997
  109MOL0     H15026   3.685  11.085   5.450 -1.7173 -0.0616  2.2327
  109MOL0     H15027   3.560  11.063   5.666 -0.4484  0.0555 -1.2969
  109MOL0     H15028   3.555  10.855   6.135  1.1004  0.5301  0.0153
  109MOL0     H15029   3.376  10.881   6.292 -0.1318 -0.4546  0.7498
  109MOL0     H15030   3.127  11.230   6.445  2.8211  0.1545  0.3779
  109MOL0     H15031   3.190  11.279   6.287  0.8764 -0.3159 -0.1457
  109MOL0     H15032   3.013  11.035   6.333  0.2459 -2.6963 -3.2975
  109MOL0     H15033   3.093  11.066   6.188 -3.5201 -0.4963 -0.3637
  109MOL0     H15034   2.952  11.323   6.288  1.2941 -1.7691  3.5494
  109MOL0     H15035   2.987  11.263   6.135  0.0824  1.3279  1.3230
  109MOL0     H15036   2.755  11.277   6.193 -0.2447 -0.2534 -0.9959
  109MOL0     H15037   2.764  11.171   6.327 -1.1984  2.4142  0.1915
  109MOL0     H15038   2.863  10.881   6.025 -1.0098 -2.4767  3.0551
  109MOL0     H15039   3.393  11.307   6.258  1.7886  1.2002  0.7890
  109MOL0     H15040   3.683  11.366   6.215 -0.2547  0.1853  1.5320
  109MOL0     H15041   3.688  11.344   6.040 -2.3181 -1.4147 -1.3872
  109MOL0     H15042   3.540  11.405   6.111 -1.7975 -2.5122  1.4106
  110MOL0     O15043   5.667   7.796   1.876 -0.1688  0.3798  0.6970
  110MOL0     C15044   5.555   7.801   1.844  0.5438  0.2707 -0.7130
  110MOL0     O15045   5.489   7.903   1.790 -0.7516 -0.1994 -1.1211
  110MOL0     C15046   5.540   8.035   1.806  0.1135  0.3925  0.4899
  110MOL0     C15047   5.529   8.096   1.935 -0.0414 -0.6294 -0.7905
  110MOL0     C15048   5.612   8.211   1.951  0.7871 -0.1222  0.9507
  110MOL0     C15049   5.692   8.274   1.853  0.0623 -0.5833  0.0051
  110MOL0     O15050   5.769   8.390   1.882  0.2724 -0.4434  0.0870
  110MOL0     C15051   5.739   8.463   2.005  1.1546  1.3366  0.9454
  110MOL0     C15052   5.811   8.592   2.037  0.3741 -0.0790 -0.6447
  110MOL0     C15053   5.917   8.573   2.147 -0.1696 -0.5387 -0.7207
  110MOL0     C15054   6.018   8.693   2.124  0.1711 -0.2065 -0.3366
  110MOL0     C15055   6.149   8.657   2.197  0.8900 -0.1912  0.2078
  110MOL0     C15056   6.262   8.751   2.188  0.0790  1.4407 -0.3658
  110MOL0     C15057   6.240   8.890   2.235  0.2257  0.2242 -0.1724
  110MOL0     C15058   6.370   8.969   2.211 -0.5879  0.6607 -0.0492
  110MOL0     N15059   6.351   9.117   2.228  0.0959 -0.3753  0.5914
  110MOL0     C15060   6.327   9.188   2.337 -0.7071 -0.2001  0.0798
  110MOL0     C15061   6.343   9.324   2.305  0.3368 -0.1667  0.6389
  110MOL0     C15062   6.353   9.444   2.402 -0.4083  0.4340  0.1195
  110MOL0     C15063   6.474   9.540   2.384  0.6987  0.0457  0.5063
  110MOL0     C15064   6.525   9.607   2.513  1.1303  0.9312 -0.2577
  110MOL0     C15065   6.653   9.691   2.482 -0.2697  0.2537 -0.2668
  110MOL0     O15066   6.766   9.618   2.427 -0.3779 -0.4346 -0.4004
  110MOL0     C15067   6.877   9.631   2.512 -0.6277  0.6851  0.9329
  110MOL0     C15068   6.887   9.616   2.649  0.3724  0.1155  0.8101
  110MOL0     C15069   7.006   9.629   2.722  0.7461  0.4024  0.0879
  110MOL0     C15070   7.003   9.592   2.874  0.3461 -0.1870  0.2677
  110MOL0     C15071   7.119   9.655   2.649 -0.5134  0.1627  0.4127
  110MOL0     C15072   7.260   9.660   2.710  1.2591 -1.0532 -0.7154
  110MOL0     O15073   7.262   9.737   2.825 -0.0565 -0.0081  0.4602
  110MOL0     C15074   7.356   9.700   2.909  0.4088  0.1888  0.0002
  110MOL0     C15075   7.346   9.585   2.985  0.6494  0.2457  0.0729
  110MOL0     C15076   7.440   9.547   3.084 -0.1149  0.3140 -0.0276
  110MOL0     C15077   7.552   9.641   3.109 -1.5799 -0.1198  0.8703
  110MOL0     O15078   7.662   9.618   3.189  0.3271  0.7079 -0.9031
  110MOL0     C15079   7.674   9.490   3.248 -0.1445  0.3506  0.3631
  110MOL0     C15080   7.801   9.476   3.331  0.3860  0.5849  0.2087
  110MOL0     C15081   7.788   9.372   3.442 -0.6651  0.4559  0.2343
  110MOL0     C15082   7.918   9.353   3.524  0.4305  0.4103 -1.1886
  110MOL0     C15083   7.896   9.264   3.646  0.5292  0.2539 -0.9156
  110MOL0     C15084   8.021   9.275   3.734 -0.2721 -0.3559 -0.1827
  110MOL0     C15085   7.980   9.196   3.854 -0.1709 -0.1752 -0.1605
  110MOL0     C15086   7.991   9.043   3.839 -0.0612 -1.3340 -0.4640
  110MOL0    Cl15087   7.957   8.963   4.002 -0.2608 -0.3843  0.0954
  110MOL0     C15088   7.557   9.770   3.040 -0.6779  0.4698  0.5061
  110MOL0     C15089   7.463   9.789   2.940  0.6548 -0.2724 -0.7418
  110MOL0     O15090   7.358   9.618   2.659 -0.9605  1.0362 -0.0014
  110MOL0     C15091   7.116   9.668   2.509  0.2172 -1.6894  0.3464
  110MOL0     C15092   6.994   9.649   2.445 -0.1590 -0.4667 -0.2763
  110MOL0     N15093   6.368   9.325   2.166  0.4152  0.1692  0.0836
  110MOL0     N15094   6.381   9.202   2.128  0.0318  1.1266 -0.3212
  110MOL0     C15095   5.683   8.218   1.730  1.1073  0.3468  0.5200
  110MOL0     C15096   5.618   8.099   1.698 -0.0695 -0.3493  0.4287
  110MOL0     C15097   5.470   7.679   1.872  0.0977  0.6559  0.3633
  110MOL0     C15098   5.340   7.699   1.896  1.0852  0.3853 -0.8476
  110MOL0     C15099   5.258   7.587   1.928  0.3748 -0.4119  0.1642
  110MOL0     C15100   5.307   7.455   1.921  0.4507 -0.6424  0.2770
  110MOL0     O15101   5.207   7.357   1.924 -0.2910  0.7055  0.0333
  110MOL0     C15102   5.243   7.215   1.938  1.0553 -0.8240  0.9886
  110MOL0     C15103   5.241   7.138   1.794  1.0335  0.5686  0.1992
  110MOL0     C15104   5.201   6.983   1.776 -0.4359  0.9639 -0.8445
  110MOL0     C15105   5.158   6.905   1.907  0.2609 -0.0923 -0.1609
  110MOL0     C15106   5.135   6.764   1.892  0.2507  0.2180 -0.6823
  110MOL0     C15107   5.104   6.648   1.884  0.1307 -0.5574 -0.1872
  110MOL0     C15108   5.447   7.432   1.898  0.8782 -0.3144  0.2469
  110MOL0     C15109   5.521   7.546   1.880 -0.0344  0.6353 -0.0202
  110MOL0     C15110   5.669   7.519   1.888 -0.0202  0.2490 -0.3478
  110MOL0     H15111   5.482   8.035   2.011  1.9184 -1.7558 -0.3963
  110MOL0     H15112   5.590   8.266   2.042 -1.0782  1.6992 -0.4958
  110MOL0     H15113   5.756   8.392   2.087  2.0651  0.8800  0.3793
  110MOL0     H15114   5.633   8.488   1.996  1.7648  3.6934 -0.4549
  110MOL0     H15115   5.862   8.623   1.946  2.6563 -0.4193  0.4643
  110MOL0     H15116   5.734   8.666   2.063 -1.8028 -2.6718  0.8414
  110MOL0     H15117   5.864   8.584   2.242 -1.0921  0.4458 -1.3263
  110MOL0     H15118   5.968   8.477   2.143  2.2031  0.6479 -0.9880
  110MOL0     H15119   6.027   8.706   2.016 -1.0377  1.9305 -0.2359
  110MOL0     H15120   5.970   8.784   2.163 -1.6113 -0.1322 -2.5322
  110MOL0     H15121   6.178   8.559   2.156 -0.0635  0.4074 -2.0512
  110MOL0     H15122   6.125   8.641   2.303  0.6725 -1.5123 -0.0216
  110MOL0     H15123   6.347   8.700   2.235 -0.5127 -1.0951 -1.8363
  110MOL0     H15124   6.291   8.756   2.082  0.1078  1.7342 -0.3439
  110MOL0     H15125   6.216   8.906   2.341  2.5306 -0.8847  0.5893
  110MOL0     H15126   6.162   8.927   2.168 -2.0484 -0.6420  1.8532
  110MOL0     H15127   6.451   8.941   2.279 -0.1905  2.3643  0.2144
  110MOL0     H15128   6.404   8.942   2.110 -1.7245 -4.0390  0.6142
  110MOL0     H15129   6.314   9.136   2.431  3.8216 -0.6781  0.6832
  110MOL0     H15130   6.376   9.400   2.500  2.2694 -1.8718 -1.4056
  110MOL0     H15131   6.257   9.496   2.408  0.1574  1.7987 -1.7851
  110MOL0     H15132   6.556   9.480   2.344  0.7381 -0.1753  0.9171
  110MOL0     H15133   6.448   9.615   2.308 -1.2237  1.6247  2.5886
  110MOL0     H15134   6.447   9.679   2.538  0.5738 -0.4127  2.1380
  110MOL0     H15135   6.546   9.537   2.595  3.6806 -0.5946 -2.0534
  110MOL0     H15136   6.624   9.768   2.410 -0.8081  0.2191 -0.0937
  110MOL0     H15137   6.669   9.750   2.573 -0.1053  2.5220 -1.7003
  110MOL0     H15138   6.795   9.584   2.696  0.9238  0.2023  1.9704
  110MOL0     H15139   6.900   9.572   2.904  0.7491 -1.6271  0.8020
  110MOL0     H15140   7.036   9.679   2.932  3.6895  0.1756 -1.8960
  110MOL0     H15141   7.068   9.505   2.893 -2.5579 -2.3343  1.0901
  110MOL0     H15142   7.272   9.507   2.974  2.5858 -2.0127  1.8620
  110MOL0     H15143   7.441   9.448   3.128  1.5309  0.2671 -0.0908
  110MOL0     H15144   7.584   9.477   3.309 -0.4675  0.1198 -0.1564
  110MOL0     H15145   7.670   9.408   3.176  0.1233 -0.0374  0.7869
  110MOL0     H15146   7.880   9.450   3.260 -1.9165 -1.6962 -1.7044
  110MOL0     H15147   7.828   9.574   3.373  0.0488  0.6298  0.3254
  110MOL0     H15148   7.777   9.280   3.382  0.8902  2.2096 -2.9865
  110MOL0     H15149   7.705   9.387   3.512  0.1055  0.0007  1.2631
  110MOL0     H15150   7.960   9.445   3.565  3.0611 -2.0147  2.2205
  110MOL0     H15151   7.987   9.305   3.454  2.9804 -1.2529  2.1736
  110MOL0     H15152   7.806   9.301   3.696 -0.5118 -2.8373 -0.2695
  110MOL0     H15153   7.875   9.160   3.618 -0.7360  1.2392 -4.0662
  110MOL0     H15154   8.039   9.375   3.774 -3.5833 -1.0100  3.5495
  110MOL0     H15155   8.110   9.235   3.685  0.1649  0.3317  0.0347
  110MOL0     H15156   7.889   9.225   3.906  1.5029  0.6974  2.4690
  110MOL0     H15157   8.055   9.220   3.929 -0.1419  0.5196 -0.4080
  110MOL0     H15158   8.090   9.016   3.802  1.1188  0.4255  1.2104
  110MOL0     H15159   7.919   9.003   3.767 -1.0484 -0.6072  0.0967
  110MOL0     H15160   7.637   9.840   3.061 -0.4220 -0.3341  2.4639
  110MOL0     H15161   7.468   9.886   2.890 -1.5068  0.5645  0.5563
  110MOL0     H15162   7.206   9.688   2.451 -1.9558  1.3081 -2.3190
  110MOL0     H15163   6.999   9.635   2.338 -1.8944  1.6503 -0.6997
  110MOL0     H15164   5.762   8.250   1.663  2.2064 -1.6120  0.8166
  110MOL0     H15165   5.624   8.054   1.599 -1.0851 -0.8453  0.5736
  110MOL0     H15166   5.289   7.793   1.879  2.2462  1.4420  1.1067
  110MOL0     H15167   5.158   7.604   1.964  0.9831  3.1456  0.5627
  110MOL0     H15168   5.331   7.205   2.001  1.1013  4.4332  2.1679
  110MOL0     H15169   5.161   7.164   1.991 -1.1164  0.3669 -1.0203
  110MOL0     H15170   5.341   7.153   1.752  0.4631 -1.5027 -2.1091
  110MOL0     H15171   5.170   7.188   1.728  0.5759 -0.0610  0.2130
  110MOL0     H15172   5.128   6.972   1.695 -1.1688 -0.1841 -0.0579
  110MOL0     H15173   5.294   6.931   1.750 -0.0472  2.4250 -2.5167
  110MOL0     H15174   5.068   6.948   1.953  0.5362 -1.5189  1.8715
  110MOL0     H15175   5.234   6.927   1.984  3.3864 -1.0162 -2.7628
  110MOL0     H15176   5.067   6.549   1.902  1.3140 -0.7040  1.7459
  110MOL0     H15177   5.493   7.335   1.909  3.6108  1.2241  5.1435
  110MOL0     H15178   5.723   7.551   1.799  1.5809 -1.9919 -0.2760
  110MOL0     H15179   5.712   7.569   1.975  0.2575  0.6219 -0.7008
  110MOL0     H15180   5.689   7.411   1.897 -3.3622 -0.6120 -1.7680
  111MOL0     O15181   2.266   4.702   8.404 -0.5537 -0.0246  0.6978
  111MOL0     C15182   2.302   4.815   8.444  0.0233  0.0068  0.0271
  111MOL0     O15183   2.215   4.926   8.467  0.2495  0.6793  0.4061
  111MOL0     C15184   2.083   4.933   8.448  0.6230  0.5906  0.5100
  111MOL0     C15185   2.015   5.032   8.522  0.6405  0.3470 -0.4523
  111MOL0     C15186   1.872   5.044   8.511 -0.1350  0.1920 -1.0936
  111MOL0     C15187   1.802   4.969   8.418 -1.1130 -0.8769  1.0463
  111MOL0     O15188   1.670   4.991   8.386  0.1844 -0.2864  0.5882
  111MOL0     C15189   1.595   5.103   8.425  0.5313  0.1045 -0.1388
  111MOL0     C15190   1.463   5.116   8.348 -0.5055  0.0482  0.4501
  111MOL0     C15191   1.384   5.246   8.373  0.3835 -0.0903 -0.6448
  111MOL0     C15192   1.267   5.261   8.271  0.2636  0.9333 -0.0294
  111MOL0     C15193   1.202   5.404   8.272  0.3750  0.6996  0.0235
  111MOL0     C15194   1.089   5.430   8.176  0.6242 -0.1558 -0.5656
  111MOL0     C15195   1.017   5.561   8.227 -0.2459 -0.5733 -0.0760
  111MOL0     C15196   0.908   5.536   8.341  0.3247  1.0105  1.1212
  111MOL0     N15197   0.839   5.652   8.379  0.9527  0.8679 -0.3766
  111MOL0     C15198   0.761   5.731   8.294 -1.0339 -0.6912  0.1421
  111MOL0     C15199   0.686   5.804   8.376  0.4745 -0.0674  0.4364
  111MOL0     C15200   0.556   5.855   8.331  0.9022 -0.3344 -0.7580
  111MOL0     C15201   0.571   5.998   8.266 -0.1323  0.9475  0.0220
  111MOL0     C15202   0.623   6.100   8.369 -0.2229 -0.8534  0.4978
  111MOL0     C15203   0.606   6.251   8.326 -0.2689 -0.7562 -0.6865
  111MOL0     O15204   0.497   6.272   8.233  0.7049 -0.0786  0.0064
  111MOL0     C15205   0.369   6.280   8.291 -0.7412 -0.7025 -0.5444
  111MOL0     C15206   0.266   6.298   8.197 -0.3696  0.1930 -0.6961
  111MOL0     C15207   0.130   6.304   8.244  1.1896  0.6528 -0.5386
  111MOL0     C15208   0.018   6.343   8.146  0.4696 -1.5338  0.4516
  111MOL0     C15209   0.095   6.286   8.380  0.1094  0.8984  0.0310
  111MOL0     C15210  -0.051   6.284   8.424  0.2723 -0.4026 -0.5595
  111MOL0     O15211  -0.139   6.206   8.363  1.2301 -0.6544 -0.4756
  111MOL0     C15212  -0.252   6.176   8.437  1.2115  0.5477 -0.2901
  111MOL0     C15213  -0.375   6.250   8.430  0.0902 -0.3617 -0.1030
  111MOL0     C15214  -0.491   6.203   8.484 -0.2537  0.9569 -0.4923
  111MOL0     C15215  -0.487   6.094   8.570 -0.6399  0.8471 -0.3379
  111MOL0     O15216  -0.613   6.057   8.612  0.2085  0.1616  0.3952
  111MOL0     C15217  -0.631   5.958   8.710  0.1734  0.0150  0.2297
  111MOL0     C15218  -0.780   5.970   8.758  0.2062 -0.0243 -1.4883
  111MOL0     C15219  -0.818   5.843   8.835 -0.9767 -0.1796 -0.3060
  111MOL0     C15220  -0.875   5.869   8.972 -0.3198  0.2035 -0.7843
  111MOL0     C15221  -1.010   5.951   8.970 -1.1337 -0.2028 -0.5685
  111MOL0     C15222  -1.069   5.995   9.108  0.1151 -0.2243 -0.7323
  111MOL0     C15223  -1.209   6.051   9.109 -0.6509 -0.5327  0.1239
  111MOL0     C15224  -1.280   6.068   9.240 -0.7474 -0.5277 -0.2903
  111MOL0    Cl15225  -1.188   6.189   9.333  0.1086 -0.0985 -0.3774
  111MOL0     C15226  -0.369   6.023   8.596 -0.0765  0.9340  1.0183
  111MOL0     C15227  -0.253   6.073   8.535  0.4447  0.6904  0.8624
  111MOL0     O15228  -0.074   6.337   8.531 -0.3357 -0.4774  0.1789
  111MOL0     C15229   0.203   6.264   8.467 -0.3458  0.0221  0.5745
  111MOL0     C15230   0.332   6.271   8.425 -0.9390 -0.5157 -0.6507
  111MOL0     N15231   0.717   5.776   8.508 -0.1742 -0.0548 -0.1071
  111MOL0     N15232   0.803   5.675   8.510  0.3891  0.9115  0.7887
  111MOL0     C15233   1.879   4.880   8.333 -0.2311  1.1900 -0.1209
  111MOL0     C15234   2.011   4.863   8.350  0.3866 -0.6142  0.6814
  111MOL0     C15235   2.444   4.837   8.478 -0.2689  0.6450 -0.4271
  111MOL0     C15236   2.460   4.939   8.575 -0.6943 -0.1225  0.0469
  111MOL0     C15237   2.583   4.969   8.621 -1.3576  0.1073  0.6067
  111MOL0     C15238   2.702   4.900   8.570  0.2740  0.3062 -0.5860
  111MOL0     O15239   2.839   4.911   8.602 -0.0640  0.2235 -0.1716
  111MOL0     C15240   2.875   5.002   8.710  0.3626  0.1489  0.4754
  111MOL0     C15241   3.022   5.001   8.750 -0.1835  0.1155  0.0193
  111MOL0     C15242   3.067   4.865   8.814  0.2640  0.4374  0.9638
  111MOL0     C15243   2.984   4.796   8.927 -0.0004 -0.0296 -0.0876
  111MOL0     C15244   3.017   4.859   9.051 -0.2581 -0.2957 -0.1935
  111MOL0     C15245   3.014   4.906   9.160  1.1304 -0.4488  0.0941
  111MOL0     C15246   2.679   4.801   8.477 -0.2277  1.0578  0.0718
  111MOL0     C15247   2.557   4.767   8.431 -0.8863  0.2222  1.1800
  111MOL0     C15248   2.562   4.639   8.353 -0.0406 -1.0373  1.0529
  111MOL0     H15249   2.068   5.098   8.589  1.3366 -0.5123 -0.1340
  111MOL0     H15250   1.821   5.117   8.572  0.3000 -1.3398  1.2285
  111MOL0     H15251   1.650   5.197   8.433 -2.2354  1.6823  1.9111
  111MOL0     H15252   1.561   5.084   8.527  0.4726 -0.5151 -0.2703
  111MOL0     H15253   1.496   5.112   8.244 -0.4588 -1.5684  0.4985
  111MOL0     H15254   1.397   5.031   8.369 -1.3728 -0.2637 -2.9382
  111MOL0     H15255   1.346   5.256   8.476 -0.1157  0.6147 -0.8825
  111MOL0     H15256   1.454   5.327   8.351  1.4039 -0.2998  1.5855
  111MOL0     H15257   1.289   5.231   8.169 -3.7066 -1.2249 -0.4492
  111MOL0     H15258   1.192   5.187   8.302 -0.8154  1.7161 -0.6991
  111MOL0     H15259   1.284   5.474   8.255 -2.5348  3.7897 -2.9327
  111MOL0     H15260   1.159   5.426   8.370 -3.3089  3.4656 -1.9435
  111MOL0     H15261   1.116   5.440   8.071 -1.8520 -2.5714 -1.5486
  111MOL0     H15262   1.008   5.356   8.176  0.4995 -0.0234 -0.2535
  111MOL0     H15263   0.963   5.602   8.141  1.9879  0.8562 -0.8785
  111MOL0     H15264   1.086   5.642   8.252 -0.7141  0.6499 -2.4373
  111MOL0     H15265   0.828   5.469   8.308  1.6321  1.3159 -3.1735
  111MOL0     H15266   0.952   5.491   8.431 -2.6083  0.7171  2.5525
  111MOL0     H15267   0.758   5.723   8.186  0.7125 -3.4558  0.1983
  111MOL0     H15268   0.487   5.867   8.414  1.5901  0.4023 -0.2706
  111MOL0     H15269   0.514   5.788   8.255  1.5846  2.0357 -3.4079
  111MOL0     H15270   0.634   5.991   8.177  1.1810  0.5764  0.9519
  111MOL0     H15271   0.469   6.024   8.236 -0.4121  0.2421  0.3482
  111MOL0     H15272   0.558   6.096   8.457  0.5720  0.0014  1.1446
  111MOL0     H15273   0.728   6.081   8.394 -0.1089  0.2800  0.9369
  111MOL0     H15274   0.599   6.324   8.407  1.1980  1.2533 -2.2726
  111MOL0     H15275   0.690   6.281   8.263  1.0833 -1.4472  0.7160
  111MOL0     H15276   0.282   6.315   8.091 -1.8376  0.7852 -0.8514
  111MOL0     H15277   0.073   6.395   8.066  1.2282 -0.4481  1.6252
  111MOL0     H15278  -0.050   6.419   8.186 -0.1341 -2.4301  1.1444
  111MOL0     H15279  -0.024   6.250   8.107 -2.1359  0.5689 -2.1993
  111MOL0     H15280  -0.367   6.337   8.366 -0.6079 -0.4606 -0.3367
  111MOL0     H15281  -0.584   6.255   8.466  2.0430  4.6297 -3.4043
  111MOL0     H15282  -0.622   5.859   8.665 -2.0010  0.1591 -0.6585
  111MOL0     H15283  -0.566   5.975   8.796 -1.6389  1.7782  1.3496
  111MOL0     H15284  -0.777   6.053   8.830  1.6856  0.5276 -2.1277
  111MOL0     H15285  -0.857   6.002   8.687 -1.9325  0.5324  0.9544
  111MOL0     H15286  -0.730   5.785   8.865 -0.3139  1.9460  2.1831
  111MOL0     H15287  -0.891   5.777   8.787 -1.0606  0.8417 -1.6268
  111MOL0     H15288  -0.797   5.930   9.019 -1.1649  0.8671 -0.1958
  111MOL0     H15289  -0.905   5.774   9.017  0.4948 -0.2898 -1.2562
  111MOL0     H15290  -0.991   6.044   8.915  4.6797 -0.4262  0.4256
  111MOL0     H15291  -1.078   5.882   8.920  2.1597 -2.7767 -1.8774
  111MOL0     H15292  -0.993   6.063   9.149  0.9066 -2.1620  1.2318
  111MOL0     H15293  -1.072   5.907   9.174 -0.5519  1.8813  2.2652
  111MOL0     H15294  -1.275   5.994   9.042  0.5573 -0.4940 -1.1351
  111MOL0     H15295  -1.216   6.147   9.057 -1.5705 -0.3178  0.6101
  111MOL0     H15296  -1.276   5.969   9.287 -0.1174 -1.6429 -2.5929
  111MOL0     H15297  -1.382   6.108   9.238 -0.1082  1.4284  1.6182
  111MOL0     H15298  -0.371   5.922   8.635 -2.0419 -2.2450 -5.7073
  111MOL0     H15299  -0.164   6.012   8.545 -1.6140 -2.8794 -0.5591
  111MOL0     H15300   0.178   6.241   8.570 -1.4522  0.8580  0.5112
  111MOL0     H15301   0.410   6.252   8.498  0.0100  3.3149 -0.4214
  111MOL0     H15302   1.825   4.822   8.259 -0.2243  1.2563 -0.1787
  111MOL0     H15303   2.059   4.792   8.283  0.6874 -1.2943  1.5948
  111MOL0     H15304   2.382   4.991   8.630  0.7474 -1.1599  3.3509
  111MOL0     H15305   2.609   5.054   8.683  2.0644 -0.1886 -0.2394
  111MOL0     H15306   2.854   5.101   8.668 -4.2282 -0.5645  0.5750
  111MOL0     H15307   2.800   4.990   8.789 -0.6060 -2.0466 -0.7057
  111MOL0     H15308   3.025   5.085   8.819 -2.9636  0.4786 -0.1956
  111MOL0     H15309   3.079   5.008   8.657 -1.5231 -2.1464 -1.0899
  111MOL0     H15310   3.067   4.800   8.727 -6.4684  1.1624 -0.1191
  111MOL0     H15311   3.171   4.886   8.840  1.9126 -3.1340 -1.8989
  111MOL0     H15312   3.018   4.692   8.928 -1.8663 -0.8309  4.8284
  111MOL0     H15313   2.881   4.792   8.892  0.0315  2.9514 -0.8092
  111MOL0     H15314   3.022   4.929   9.264 -1.3959 -3.8255  1.2011
  111MOL0     H15315   2.768   4.748   8.442 -1.3043 -0.7570 -0.0322
  111MOL0     H15316   2.660   4.637   8.304  0.3137  1.9406  1.4821
  111MOL0     H15317   2.556   4.559   8.428 -1.3761  0.3775  2.5251
  111MOL0     H15318   2.488   4.625   8.274  0.8058  0.8306 -0.1345
  112MOL0     O15319   6.084   8.213   7.003  0.6033  0.2167 -0.7839
  112MOL0     C15320   6.193   8.165   7.034  0.0966  0.9691  0.0825
  112MOL0     O15321   6.239   8.161   7.167 -0.1831  0.8388 -0.4001
  112MOL0     C15322   6.192   8.236   7.264  0.8223  0.2708 -0.3975
  112MOL0     C15323   6.183   8.181   7.391 -0.0258 -0.8398  0.1161
  112MOL0     C15324   6.144   8.254   7.509 -0.9378  0.6421  0.5475
  112MOL0     C15325   6.124   8.388   7.483 -0.2769  0.5795 -1.2697
  112MOL0     O15326   6.093   8.469   7.590 -0.1775  0.8431  0.5223
  112MOL0     C15327   6.037   8.600   7.568 -0.1368 -1.3945  0.8295
  112MOL0     C15328   5.974   8.635   7.705 -0.4632 -0.2948  0.7861
  112MOL0     C15329   5.957   8.783   7.718 -0.4941  1.1088  1.2360
  112MOL0     C15330   6.091   8.863   7.722 -1.0792 -0.4838  0.3267
  112MOL0     C15331   6.074   8.999   7.768 -0.6341 -0.4491  0.8411
  112MOL0     C15332   6.209   9.080   7.773  0.5295 -0.1343  0.2539
  112MOL0     C15333   6.264   9.124   7.636 -0.4077 -1.1548 -0.6383
  112MOL0     C15334   6.392   9.205   7.646  0.3848  0.8530 -0.5545
  112MOL0     N15335   6.434   9.266   7.524 -0.0757 -0.9415  0.3641
  112MOL0     C15336   6.525   9.220   7.429 -0.4379 -0.8955 -1.3389
  112MOL0     C15337   6.536   9.320   7.344 -0.0236  0.0855 -0.0202
  112MOL0     C15338   6.629   9.326   7.226 -0.0165  1.1051 -0.1523
  112MOL0     C15339   6.555   9.308   7.088 -0.6483 -0.0459 -0.3245
  112MOL0     C15340   6.507   9.448   7.051  0.8191 -0.0103  0.8120
  112MOL0     C15341   6.444   9.436   6.908  0.0349  0.5625 -0.4608
  112MOL0     O15342   6.348   9.541   6.883 -0.1251 -0.2523  0.5919
  112MOL0     C15343   6.389   9.661   6.821  0.8537  0.4940 -0.0035
  112MOL0     C15344   6.457   9.654   6.693  0.5345  0.0636 -0.1370
  112MOL0     C15345   6.507   9.766   6.625 -0.3726 -0.4293 -1.1666
  112MOL0     C15346   6.582   9.753   6.500 -0.5949 -0.1127 -0.1393
  112MOL0     C15347   6.499   9.885   6.689 -0.3279 -0.5206 -1.1712
  112MOL0     C15348   6.538  10.029   6.640  0.2217 -0.2516 -0.0777
  112MOL0     O15349   6.504  10.136   6.720  0.7704  0.5235  0.5159
  112MOL0     C15350   6.548  10.258   6.686  0.0250  0.3753  0.3041
  112MOL0     C15351   6.483  10.338   6.590  0.2180 -0.1234 -0.8117
  112MOL0     C15352   6.533  10.470   6.554 -0.1528  0.4457  0.0998
  112MOL0     C15353   6.644  10.520   6.635  0.9833 -1.0680  0.8706
  112MOL0     O15354   6.691  10.645   6.594 -0.5629  0.3791  0.1235
  112MOL0     C15355   6.780  10.661   6.485  0.1172  1.1131  0.1462
  112MOL0     C15356   6.924  10.618   6.511 -0.3369 -0.2744 -0.6258
  112MOL0     C15357   7.010  10.731   6.585  0.0874 -0.3196 -0.7048
  112MOL0     C15358   6.995  10.716   6.734 -0.0507  0.3635 -0.0489
  112MOL0     C15359   7.095  10.817   6.804  0.5362 -0.1484  0.3351
  112MOL0     C15360   7.061  10.969   6.777  0.4561  0.0070  0.3258
  112MOL0     C15361   7.112  11.078   6.875  0.7077 -0.4634 -0.6539
  112MOL0     C15362   7.254  11.063   6.908 -0.4987 -1.0065  0.3885
  112MOL0    Cl15363   7.302  11.184   7.026  0.4523 -0.2026  0.1757
  112MOL0     C15364   6.705  10.439   6.733  0.0145  0.2506  0.2652
  112MOL0     C15365   6.662  10.309   6.753 -0.4039 -0.7663  0.4090
  112MOL0     O15366   6.603  10.042   6.537 -0.0173 -0.3128  0.1126
  112MOL0     C15367   6.442   9.890   6.827 -0.3711 -0.3823  0.0997
  112MOL0     C15368   6.384   9.782   6.886  0.3156  0.9945  0.3278
  112MOL0     N15369   6.465   9.432   7.390  0.5804  0.9250 -0.8545
  112MOL0     N15370   6.400   9.401   7.498 -0.7080 -0.1805 -0.1714
  112MOL0     C15371   6.128   8.440   7.346 -0.1639 -0.9463 -0.5975
  112MOL0     C15372   6.154   8.365   7.239 -0.6055  0.1050 -0.0013
  112MOL0     C15373   6.271   8.108   6.916 -0.0317 -1.1411 -0.3732
  112MOL0     C15374   6.247   8.154   6.781  1.0861 -0.1707 -0.6900
  112MOL0     C15375   6.342   8.131   6.684 -0.4232 -0.3389 -0.7392
  112MOL0     C15376   6.463   8.065   6.721  0.4484  0.7491 -0.7013
  112MOL0     O15377   6.556   8.034   6.631 -0.4708  0.0841  0.2361
  112MOL0     C15378   6.545   8.056   6.483 -0.4693 -0.6445 -0.3481
  112MOL0     C15379   6.479   7.940   6.412  0.7640  0.9475 -0.1450
  112MOL0     C15380   6.571   7.814   6.414  0.5456 -0.7657  0.6562
  112MOL0     C15381   6.567   7.732   6.283  0.3829  0.7340  0.0659
  112MOL0     C15382   6.431   7.709   6.225  0.5763 -0.2941  1.5942
  112MOL0     C15383   6.324   7.701   6.164  0.1707 -0.4572  0.5639
  112MOL0     C15384   6.487   8.015   6.851  0.3950 -1.3655 -0.0950
  112MOL0     C15385   6.386   8.026   6.941  0.7489 -0.6747 -0.1762
  112MOL0     C15386   6.421   7.962   7.076  0.0842 -0.7763 -0.3461
  112MOL0     H15387   6.210   8.076   7.387  0.4850 -0.6868 -1.0267
  112MOL0     H15388   6.126   8.214   7.608  0.5411  3.0752  1.9139
  112MOL0     H15389   5.963   8.580   7.490  1.8417  0.3354 -1.6088
  112MOL0     H15390   6.105   8.676   7.530 -1.0001 -2.0156 -2.2269
  112MOL0     H15391   5.885   8.577   7.727  0.7576 -2.5678  0.1056
  112MOL0     H15392   6.046   8.602   7.780 -0.0641  2.3186  1.6750
  112MOL0     H15393   5.901   8.819   7.631  1.2564  0.7292 -0.0978
  112MOL0     H15394   5.890   8.804   7.801 -0.9338  0.5750  1.0291
  112MOL0     H15395   6.155   8.805   7.788 -1.6099 -1.2491  0.1798
  112MOL0     H15396   6.127   8.862   7.618 -0.7149  0.1131  0.4458
  112MOL0     H15397   6.030   9.002   7.868  1.4926  1.4112  1.8076
  112MOL0     H15398   6.002   9.051   7.703 -0.4037 -3.0899 -1.7005
  112MOL0     H15399   6.184   9.172   7.827  3.8624  1.4272 -0.5505
  112MOL0     H15400   6.288   9.030   7.830  1.7475 -0.0339 -1.2781
  112MOL0     H15401   6.192   9.189   7.585 -1.6658 -1.6290  0.4852
  112MOL0     H15402   6.287   9.036   7.575  1.7715 -0.6744 -0.5882
  112MOL0     H15403   6.377   9.264   7.737 -1.7924 -0.0544 -0.2538
  112MOL0     H15404   6.481   9.146   7.670  1.4919  2.5198 -0.3492
  112MOL0     H15405   6.587   9.131   7.437  5.0459  2.5284 -0.7948
  112MOL0     H15406   6.695   9.239   7.232 -0.9711  0.2205 -1.7273
  112MOL0     H15407   6.690   9.417   7.231  1.1556  0.3712  5.2688
  112MOL0     H15408   6.637   9.288   7.019  2.5435  1.8763  2.6385
  112MOL0     H15409   6.470   9.240   7.106 -1.4651  1.7530  3.4674
  112MOL0     H15410   6.426   9.484   7.115 -0.1455  1.2441 -0.9938
  112MOL0     H15411   6.590   9.518   7.046 -3.1557  5.2772 -0.8916
  112MOL0     H15412   6.530   9.448   6.841  0.3909  0.4949 -0.0176
  112MOL0     H15413   6.394   9.340   6.891 -1.8282  1.0544  1.8113
  112MOL0     H15414   6.464   9.556   6.647  0.1854 -0.7934  1.5558
  112MOL0     H15415   6.536   9.798   6.412  2.4321 -0.0550 -1.7990
  112MOL0     H15416   6.609   9.649   6.480 -2.8350 -0.5246 -1.3447
  112MOL0     H15417   6.680   9.800   6.500 -0.0257 -1.2754 -0.1035
  112MOL0     H15418   6.401  10.297   6.532 -0.2380  0.7540 -0.8174
  112MOL0     H15419   6.495  10.530   6.471  0.7686  0.9496  0.0263
  112MOL0     H15420   6.731  10.598   6.410 -1.0942  0.8612  1.1059
  112MOL0     H15421   6.781  10.765   6.451 -1.9114  0.3908 -2.4891
  112MOL0     H15422   6.929  10.533   6.580  1.6582  0.6405  0.4393
  112MOL0     H15423   6.966  10.588   6.415 -0.1015 -1.6733 -0.1127
  112MOL0     H15424   6.975  10.829   6.551  2.3081  0.1995 -1.6809
  112MOL0     H15425   7.112  10.729   6.546  0.5073  0.2070  0.3227
  112MOL0     H15426   7.025  10.616   6.766  1.8629  0.6141 -0.9119
  112MOL0     H15427   6.894  10.737   6.769  0.0190 -0.3594  0.6051
  112MOL0     H15428   7.087  10.804   6.912 -0.1626  0.2171  0.3284
  112MOL0     H15429   7.199  10.796   6.774 -0.0395 -1.1240 -1.0748
  112MOL0     H15430   6.953  10.977   6.770  0.1377 -2.3310  1.4393
  112MOL0     H15431   7.098  10.973   6.674  0.3852  1.5274  0.3336
  112MOL0     H15432   7.058  11.072   6.970 -1.9384  0.4436 -1.9836
  112MOL0     H15433   7.091  11.176   6.831 -0.7273 -1.8419 -3.3250
  112MOL0     H15434   7.317  11.093   6.824  2.0123 -0.3949  2.3670
  112MOL0     H15435   7.285  10.964   6.941  0.9392 -1.5421 -2.2714
  112MOL0     H15436   6.786  10.487   6.787  1.2078 -0.5881 -0.7003
  112MOL0     H15437   6.725  10.248   6.816  4.1972  1.5757 -1.4399
  112MOL0     H15438   6.440   9.981   6.887 -0.6001  0.7300 -1.5216
  112MOL0     H15439   6.337   9.794   6.983 -2.7178 -0.9392 -0.7609
  112MOL0     H15440   6.134   8.547   7.334  0.1174 -0.6401  1.7197
  112MOL0     H15441   6.166   8.408   7.140 -0.0277  0.4959  0.2360
  112MOL0     H15442   6.158   8.212   6.758 -0.2596 -2.9146 -3.0443
  112MOL0     H15443   6.315   8.160   6.583 -1.0147  1.6413 -0.0641
  112MOL0     H15444   6.481   8.141   6.459 -3.3492 -3.0375 -1.7972
  112MOL0     H15445   6.649   8.064   6.448 -0.8784 -1.0680 -1.7453
  112MOL0     H15446   6.456   7.969   6.309 -1.4809  2.2968  0.6583
  112MOL0     H15447   6.379   7.914   6.448  0.1366 -0.4973 -2.7146
  112MOL0     H15448   6.676   7.820   6.443  0.4152 -0.7936  1.1404
  112MOL0     H15449   6.527   7.741   6.482 -1.5620  1.1873  1.5447
  112MOL0     H15450   6.612   7.636   6.311  2.5728  1.9646  1.0749
  112MOL0     H15451   6.645   7.782   6.224  0.6401  0.4400  0.1551
  112MOL0     H15452   6.235   7.694   6.105  1.5481 -2.7017 -1.4445
  112MOL0     H15453   6.577   7.962   6.883 -0.4926 -0.6815  4.1431
  112MOL0     H15454   6.479   8.029   7.140  1.6133 -0.8587 -1.5788
  112MOL0     H15455   6.324   7.936   7.119 -0.8432 -1.5620 -2.7333
  112MOL0     H15456   6.486   7.876   7.061 -0.3831 -1.4960  1.4637
  113MOL0     O15457   8.540   9.791   1.278  0.7572 -0.4312  0.7142
  113MOL0     C15458   8.612   9.861   1.353  0.9405 -1.0960 -0.2349
  113MOL0     O15459   8.651   9.829   1.481 -0.0773  0.2688 -0.0455
  113MOL0     C15460   8.614   9.714   1.539  0.7920  0.1945 -0.2490
  113MOL0     C15461   8.569   9.722   1.672  0.5123  0.2352 -0.3118
  113MOL0     C15462   8.523   9.608   1.740 -0.1333  0.1316 -0.4394
  113MOL0     C15463   8.528   9.476   1.682 -0.2291 -0.0040 -0.7719
  113MOL0     O15464   8.490   9.362   1.752  0.2358 -0.1019 -0.2431
  113MOL0     C15465   8.373   9.382   1.835 -0.5012  0.1060  0.0323
  113MOL0     C15466   8.289   9.258   1.827 -0.3932 -0.2576  0.3794
  113MOL0     C15467   8.243   9.234   1.683  0.7305  0.3700  0.5855
  113MOL0     C15468   8.113   9.146   1.684 -0.0022  0.3509  0.2752
  113MOL0     C15469   8.089   9.078   1.551 -0.8881 -0.3299 -0.0586
  113MOL0     C15470   7.970   8.971   1.571 -0.1534  0.0144  0.2037
  113MOL0     C15471   8.007   8.823   1.605 -0.1063  0.5514 -0.0607
  113MOL0     C15472   7.998   8.805   1.762  0.0089  0.6803 -0.0754
  113MOL0     N15473   8.009   8.660   1.809  0.4676 -0.4613  0.0942
  113MOL0     C15474   8.115   8.577   1.775 -0.2808  1.1767 -0.5782
  113MOL0     C15475   8.072   8.460   1.819  0.1447 -0.2192 -0.8266
  113MOL0     C15476   8.145   8.325   1.824  0.2154 -0.3059 -0.5383
  113MOL0     C15477   8.159   8.255   1.683  0.5593  0.5853 -0.4129
  113MOL0     C15478   8.210   8.113   1.713 -0.0173  0.6641 -0.2642
  113MOL0     C15479   8.209   8.024   1.586  0.1376 -0.6575 -0.5291
  113MOL0     O15480   8.309   8.083   1.497  0.5572 -0.0848  0.3912
  113MOL0     C15481   8.331   8.020   1.376 -1.0611 -0.1489  0.7369
  113MOL0     C15482   8.349   7.881   1.363  0.6650 -0.3322  0.1635
  113MOL0     C15483   8.382   7.814   1.242  1.7197  0.8820 -0.5302
  113MOL0     C15484   8.373   7.656   1.250 -0.4361  0.5770 -0.6023
  113MOL0     C15485   8.403   7.889   1.126  0.2817 -1.0672  0.2308
  113MOL0     C15486   8.425   7.828   0.987 -0.2943  0.7042 -1.0096
  113MOL0     O15487   8.358   7.891   0.888  0.1390  0.2476  0.5191
  113MOL0     C15488   8.374   7.876   0.753 -0.3289  0.3874 -0.2747
  113MOL0     C15489   8.283   7.914   0.653  0.1762 -0.4541 -0.0315
  113MOL0     C15490   8.298   7.880   0.519 -1.0474  0.1846  0.6231
  113MOL0     C15491   8.419   7.823   0.471 -0.5148  1.8209 -0.2937
  113MOL0     O15492   8.445   7.797   0.337  0.3047  0.4982 -0.3224
  113MOL0     C15493   8.570   7.837   0.274 -0.0751  0.5600 -0.1315
  113MOL0     C15494   8.538   7.848   0.124 -0.3159 -0.3317  0.5399
  113MOL0     C15495   8.660   7.810   0.033  0.3707  0.3035 -0.0592
  113MOL0     C15496   8.759   7.923   0.031 -0.2708 -0.7258  0.3543
  113MOL0     C15497   8.884   7.886  -0.051 -0.4937  0.6909  0.9878
  113MOL0     C15498   9.004   7.983  -0.025 -0.4341  0.4759 -0.1247
  113MOL0     C15499   9.137   7.931  -0.088  0.4578 -0.2565  0.7302
  113MOL0     C15500   9.262   7.942  -0.004  0.5239 -0.4339  0.2162
  113MOL0    Cl15501   9.231   7.861   0.151 -0.4175  0.1649 -0.2659
  113MOL0     C15502   8.512   7.788   0.561 -0.8415  0.7962 -0.6775
  113MOL0     C15503   8.490   7.812   0.698  0.9292  0.1824 -0.1605
  113MOL0     O15504   8.503   7.733   0.976  0.2113 -0.6978  0.1693
  113MOL0     C15505   8.387   8.029   1.133  0.4035 -1.1854 -0.1262
  113MOL0     C15506   8.352   8.090   1.254 -0.2529  0.3422 -0.7625
  113MOL0     N15507   7.943   8.468   1.860  1.3026  0.7078  0.1675
  113MOL0     N15508   7.899   8.588   1.844 -0.0200  0.8895 -1.2429
  113MOL0     C15509   8.584   9.470   1.551 -0.2329  0.5028 -0.3196
  113MOL0     C15510   8.623   9.587   1.487  0.0806 -0.0997  0.9426
  113MOL0     C15511   8.661   9.997   1.313  0.7396  0.8116  0.5575
  113MOL0     C15512   8.652  10.092   1.421 -0.3436 -0.3047  0.1706
  113MOL0     C15513   8.698  10.226   1.400 -0.7390 -0.3188  0.1918
  113MOL0     C15514   8.758  10.261   1.272  0.1531 -0.5784  0.0018
  113MOL0     O15515   8.805  10.384   1.235 -0.6833 -0.4611  1.1281
  113MOL0     C15516   8.750  10.498   1.301  0.2888  0.1230  0.6493
  113MOL0     C15517   8.839  10.622   1.286  0.1008  0.5389 -0.1021
  113MOL0     C15518   8.976  10.596   1.350  0.7540 -0.3073 -0.0247
  113MOL0     C15519   9.058  10.725   1.313  0.1446  0.3137  0.6688
  113MOL0     C15520   9.189  10.743   1.384 -0.1842  0.0048  0.7899
  113MOL0     C15521   9.291  10.784   1.430 -0.4760 -0.6143  0.5076
  113MOL0     C15522   8.750  10.169   1.171 -0.5345  0.3644 -0.1339
  113MOL0     C15523   8.702  10.034   1.188 -0.8974  0.3800  0.4069
  113MOL0     C15524   8.687   9.949   1.058  0.7290  0.6726  0.3925
  113MOL0     H15525   8.557   9.815   1.727  2.8115 -1.7328  3.9552
  113MOL0     H15526   8.483   9.616   1.840  0.5348 -6.0023  0.7224
  113MOL0     H15527   8.309   9.464   1.801  0.9679  1.8456  1.2780
  113MOL0     H15528   8.409   9.402   1.937  1.9240 -0.0908 -0.7369
  113MOL0     H15529   8.316   9.160   1.869 -0.5404  0.0798  1.2932
  113MOL0     H15530   8.200   9.281   1.886 -0.5571 -2.2925  1.0096
  113MOL0     H15531   8.206   9.332   1.650  0.5954  1.0994  2.7691
  113MOL0     H15532   8.317   9.204   1.609 -0.1276  2.1921 -1.1003
  113MOL0     H15533   8.129   9.072   1.763  0.2021  0.6372  0.5036
  113MOL0     H15534   8.026   9.201   1.723  1.0398  2.7437 -0.5950
  113MOL0     H15535   8.174   9.016   1.524  0.2704  0.8632  0.7513
  113MOL0     H15536   8.076   9.155   1.475  1.7246  0.1458 -0.0989
  113MOL0     H15537   7.896   9.008   1.642 -1.8682  0.8915 -1.9096
  113MOL0     H15538   7.909   8.976   1.480 -2.0306 -0.7618  1.3769
  113MOL0     H15539   8.102   8.791   1.563  0.3358  1.7592  0.0015
  113MOL0     H15540   7.930   8.752   1.572 -0.1514 -0.3236  1.7986
  113MOL0     H15541   8.092   8.840   1.806  1.5863 -3.5855  0.4295
  113MOL0     H15542   7.909   8.853   1.805  0.1348  1.4494 -0.6649
  113MOL0     H15543   8.212   8.585   1.729 -0.3706 -2.5871 -1.7045
  113MOL0     H15544   8.087   8.260   1.891 -2.9544  1.1210 -1.6994
  113MOL0     H15545   8.248   8.346   1.855  1.3596  0.4040 -4.3512
  113MOL0     H15546   8.066   8.257   1.625 -0.1527 -0.4594  0.6577
  113MOL0     H15547   8.239   8.304   1.626  1.4903  1.7087  1.7669
  113MOL0     H15548   8.304   8.111   1.768  0.3168  2.6284 -0.6785
  113MOL0     H15549   8.133   8.070   1.779 -0.5135  0.0351 -1.2285
  113MOL0     H15550   8.247   7.925   1.614  1.8400  0.4000  1.1169
  113MOL0     H15551   8.104   8.019   1.555 -0.6977  1.6419  1.6536
  113MOL0     H15552   8.329   7.803   1.436 -1.3295  0.0280  0.0367
  113MOL0     H15553   8.360   7.611   1.348  1.4876 -1.4085 -1.1798
  113MOL0     H15554   8.458   7.598   1.211  2.4898  1.9537  3.0507
  113MOL0     H15555   8.273   7.641   1.209  0.2689  1.1249 -2.6674
  113MOL0     H15556   8.185   7.942   0.693 -1.1606 -3.8645 -0.6166
  113MOL0     H15557   8.224   7.910   0.445 -0.7907 -3.2274 -1.1882
  113MOL0     H15558   8.617   7.924   0.321 -0.0967  0.0838  0.7845
  113MOL0     H15559   8.643   7.760   0.296 -0.4009  0.3771  0.3159
  113MOL0     H15560   8.448   7.786   0.113 -0.7810  0.1610  1.4046
  113MOL0     H15561   8.503   7.948   0.096  0.5727 -0.4826 -1.1879
  113MOL0     H15562   8.646   7.787  -0.073  2.7200  1.8775 -0.8011
  113MOL0     H15563   8.704   7.716   0.068 -1.6371 -1.2390 -1.4366
  113MOL0     H15564   8.782   7.948   0.135  0.7238  3.4415 -0.6658
  113MOL0     H15565   8.714   8.013  -0.011  0.1785 -1.0633 -0.8936
  113MOL0     H15566   8.927   7.792  -0.014 -0.0836  0.4010 -0.1684
  113MOL0     H15567   8.869   7.881  -0.159 -0.5682 -2.2775  1.0531
  113MOL0     H15568   9.020   7.977   0.083  1.4552 -4.4503 -0.4308
  113MOL0     H15569   8.983   8.084  -0.062 -3.4647  0.1330  0.4244
  113MOL0     H15570   9.141   7.979  -0.186 -0.9352 -1.7072 -0.0778
  113MOL0     H15571   9.116   7.826  -0.106 -0.9212 -0.0293  0.9533
  113MOL0     H15572   9.287   8.047   0.017 -2.0251 -0.4188  4.2765
  113MOL0     H15573   9.354   7.902  -0.046  2.3803  4.5785 -1.1820
  113MOL0     H15574   8.597   7.723   0.539 -0.4708  0.2008  2.1464
  113MOL0     H15575   8.580   7.777   0.749  0.5035 -0.8213 -0.0822
  113MOL0     H15576   8.395   8.096   1.049 -2.3590  0.3322  0.6970
  113MOL0     H15577   8.356   8.198   1.247  2.9396  0.3117 -0.8311
  113MOL0     H15578   8.595   9.374   1.502 -0.4028  0.7197 -0.7817
  113MOL0     H15579   8.652   9.588   1.383  0.8759 -0.2516  1.1503
  113MOL0     H15580   8.609  10.064   1.517  0.3322  0.8430  0.8393
  113MOL0     H15581   8.693  10.298   1.481 -1.1350 -0.0461 -0.0738
  113MOL0     H15582   8.653  10.528   1.261 -1.4208 -1.0566  3.6029
  113MOL0     H15583   8.731  10.489   1.408 -0.7370  2.3124  0.7241
  113MOL0     H15584   8.785  10.708   1.327 -2.0830 -0.8711  0.1051
  113MOL0     H15585   8.861  10.641   1.180  1.2169  1.4211  0.2676
  113MOL0     H15586   8.985  10.564   1.454 -1.0196 -0.2976  0.1529
  113MOL0     H15587   9.024  10.516   1.293  2.2891  2.1350 -2.4366
  113MOL0     H15588   8.992  10.802   1.352  0.9052  1.5266 -0.3711
  113MOL0     H15589   9.070  10.729   1.204 -0.9909 -1.3228  0.4411
  113MOL0     H15590   9.376  10.829   1.477 -2.6563  5.4301 -0.4232
  113MOL0     H15591   8.768  10.209   1.072  1.0343  1.3042  0.4874
  113MOL0     H15592   8.582   9.921   1.048  0.2852  1.7806  1.5919
  113MOL0     H15593   8.710  10.000   0.964 -3.4040 -0.8615 -1.6696
  113MOL0     H15594   8.746   9.858   1.070 -2.5614 -1.6765  0.0083
  114MOL0     O15595   2.693  10.380   8.495 -0.3358 -0.4224  0.3565
  114MOL0     C15596   2.651  10.318   8.588  0.8364 -0.6729  0.2194
  114MOL0     O15597   2.614  10.186   8.571  0.1902  0.7892  1.3260
  114MOL0     C15598   2.638  10.119   8.449  0.7283  0.3496 -0.3759
  114MOL0     C15599   2.742  10.027   8.442 -0.2960 -0.3716  0.1650
  114MOL0     C15600   2.749   9.941   8.332 -0.1616  1.1214  0.0313
  114MOL0     C15601   2.655   9.937   8.228  0.3149 -0.6804 -0.0139
  114MOL0     O15602   2.687   9.840   8.139 -0.3383  0.0150 -0.9422
  114MOL0     C15603   2.592   9.812   8.033  0.2381 -0.1678  1.1598
  114MOL0     C15604   2.632   9.690   7.960  0.2892  1.2253  0.7096
  114MOL0     C15605   2.534   9.622   7.856 -0.9118  0.8740 -0.1564
  114MOL0     C15606   2.506   9.718   7.748 -0.0557 -0.9153  0.2383
  114MOL0     C15607   2.408   9.674   7.632  0.9199 -0.2891 -0.2342
  114MOL0     C15608   2.444   9.537   7.556  0.8427 -0.1371 -0.3482
  114MOL0     C15609   2.580   9.555   7.479  0.7836 -0.8829 -0.0771
  114MOL0     C15610   2.621   9.428   7.410  0.2229 -0.1570  0.8551
  114MOL0     N15611   2.564   9.403   7.276 -0.9249  0.3797  0.3972
  114MOL0     C15612   2.528   9.488   7.177 -0.4389 -0.9016  0.0726
  114MOL0     C15613   2.455   9.415   7.090 -1.1158 -0.5816  0.4882
  114MOL0     C15614   2.400   9.449   6.946  0.1538  1.0135 -0.2812
  114MOL0     C15615   2.504   9.421   6.835 -0.5531  0.5619 -0.0113
  114MOL0     C15616   2.461   9.444   6.689  0.4122  0.2043 -0.9262
  114MOL0     C15617   2.423   9.592   6.654 -0.5608  1.1082  0.1794
  114MOL0     O15618   2.513   9.698   6.697 -0.8843  0.7182 -0.5449
  114MOL0     C15619   2.646   9.688   6.656 -0.7984  0.6633  0.0387
  114MOL0     C15620   2.725   9.771   6.731 -0.3798  0.3934  0.2849
  114MOL0     C15621   2.862   9.789   6.697  0.7266  0.7530 -0.2303
  114MOL0     C15622   2.940   9.893   6.786  1.0625 -0.0165 -0.2476
  114MOL0     C15623   2.924   9.719   6.595 -0.3699  0.4496 -0.6033
  114MOL0     C15624   3.075   9.710   6.572 -0.2692 -0.3757 -1.4054
  114MOL0     O15625   3.121   9.678   6.449  0.0285  0.3471  0.5566
  114MOL0     C15626   3.254   9.669   6.412 -0.1547  0.0110  0.0084
  114MOL0     C15627   3.361   9.752   6.458 -0.1703 -0.3910 -0.3008
  114MOL0     C15628   3.490   9.728   6.412  0.4814  0.5927  0.2254
  114MOL0     C15629   3.524   9.621   6.326  0.4750 -1.2308  0.2368
  114MOL0     O15630   3.657   9.610   6.288  0.5373 -0.1531 -0.5003
  114MOL0     C15631   3.703   9.521   6.186  0.1450 -0.9027  0.1861
  114MOL0     C15632   3.724   9.584   6.045 -0.2422  0.8786  0.3987
  114MOL0     C15633   3.756   9.731   6.046  0.3930  0.6083  0.3822
  114MOL0     C15634   3.899   9.767   6.091 -0.0115  0.4826 -0.3832
  114MOL0     C15635   3.899   9.911   6.114  0.6168  0.1185  0.3326
  114MOL0     C15636   4.037   9.967   6.145 -1.4367 -0.4752  0.0125
  114MOL0     C15637   4.024  10.111   6.181  0.4255 -0.6590  0.0157
  114MOL0     C15638   4.162  10.182   6.196  0.3386 -0.4304 -0.3784
  114MOL0    Cl15639   4.239  10.111   6.351  0.4780 -0.5503 -0.3379
  114MOL0     C15640   3.421   9.535   6.287 -0.9136  0.3891  0.9547
  114MOL0     C15641   3.290   9.559   6.330  0.0043 -0.3757 -0.0739
  114MOL0     O15642   3.146   9.736   6.666  0.0461  0.0236 -0.3476
  114MOL0     C15643   2.840   9.628   6.523  0.9423 -0.6422  0.0678
  114MOL0     C15644   2.709   9.615   6.559  0.2898 -0.6329  0.4366
  114MOL0     N15645   2.458   9.278   7.137  0.1961 -0.3937 -0.1048
  114MOL0     N15646   2.523   9.277   7.244  0.3994 -0.0200  0.3632
  114MOL0     C15647   2.554  10.035   8.221 -0.1120  0.1811 -0.5599
  114MOL0     C15648   2.550  10.122   8.335  0.4116 -0.8098  0.6642
  114MOL0     C15649   2.637  10.371   8.729  0.4996  0.7291 -0.0455
  114MOL0     C15650   2.551  10.309   8.813  0.6915  1.0792 -1.2402
  114MOL0     C15651   2.537  10.356   8.946 -0.9283  0.6036 -0.3678
  114MOL0     C15652   2.604  10.475   8.987  1.0674 -0.1028 -0.1284
  114MOL0     O15653   2.607  10.527   9.116 -0.0701 -0.3150  0.8239
  114MOL0     C15654   2.636  10.433   9.220 -0.2038  0.5178 -0.2939
  114MOL0     C15655   2.780  10.456   9.271  0.9315 -0.5749 -0.3178
  114MOL0     C15656   2.806  10.363   9.385 -0.2689 -0.3460 -0.1606
  114MOL0     C15657   2.914  10.260   9.357  0.1276 -0.4101  0.7181
  114MOL0     C15658   2.895  10.145   9.440 -0.2823  0.4867 -0.1465
  114MOL0     C15659   2.870  10.052   9.513 -0.4935  0.6456 -0.4019
  114MOL0     C15660   2.675  10.554   8.884  0.4738  0.7184 -0.5618
  114MOL0     C15661   2.690  10.502   8.753  0.8871 -0.6498 -0.7468
  114MOL0     C15662   2.787  10.580   8.668 -0.0942 -0.0670  0.3926
  114MOL0     H15663   2.802  10.013   8.532  0.9338  0.9835 -0.3965
  114MOL0     H15664   2.830   9.870   8.326 -2.4383 -1.5437 -2.1798
  114MOL0     H15665   2.591   9.888   7.954 -1.4508 -2.9361 -1.7339
  114MOL0     H15666   2.492   9.812   8.077 -0.3325  0.3186 -0.0652
  114MOL0     H15667   2.732   9.701   7.916 -0.8800  1.5782 -2.0053
  114MOL0     H15668   2.642   9.606   8.030 -2.1717 -1.7965 -2.2749
  114MOL0     H15669   2.575   9.533   7.808 -4.5862 -1.3313  0.3765
  114MOL0     H15670   2.445   9.594   7.915  0.0060  3.1803  2.5782
  114MOL0     H15671   2.468   9.808   7.798 -2.1106 -2.0254  0.7978
  114MOL0     H15672   2.602   9.755   7.709 -0.9120  0.2056 -0.8728
  114MOL0     H15673   2.404   9.755   7.558 -0.0236  1.5625  1.7331
  114MOL0     H15674   2.311   9.665   7.682  1.3473 -1.2033  0.4485
  114MOL0     H15675   2.439   9.444   7.615 -1.9733  1.9193  3.0839
  114MOL0     H15676   2.373   9.514   7.477  2.4834  0.2658 -2.0114
  114MOL0     H15677   2.653   9.585   7.555  0.2029 -0.9536  0.5112
  114MOL0     H15678   2.566   9.632   7.403  0.7484 -0.9721 -0.1618
  114MOL0     H15679   2.730   9.432   7.404  0.3171 -2.0419  0.5150
  114MOL0     H15680   2.595   9.346   7.478  0.8896 -0.8236  0.3247
  114MOL0     H15681   2.546   9.595   7.170  4.0239 -1.5004 -0.3526
  114MOL0     H15682   2.360   9.551   6.953 -2.2738  0.1334 -0.3140
  114MOL0     H15683   2.313   9.391   6.916  2.0690 -0.4324 -3.5561
  114MOL0     H15684   2.604   9.461   6.850  1.5937 -3.6989 -1.4655
  114MOL0     H15685   2.520   9.313   6.845  0.5007  0.8235  1.2156
  114MOL0     H15686   2.546   9.408   6.629  0.3492 -1.9837  0.1833
  114MOL0     H15687   2.385   9.368   6.665 -0.8052 -0.0121  2.9254
  114MOL0     H15688   2.415   9.594   6.545  0.8905  0.7733  0.0444
  114MOL0     H15689   2.325   9.612   6.699 -0.2446  1.1452  0.8682
  114MOL0     H15690   2.694   9.835   6.812 -1.2459 -1.0979  1.1876
  114MOL0     H15691   3.009   9.842   6.854 -0.9611 -1.0768  1.1002
  114MOL0     H15692   2.874   9.951   6.852  0.9577 -0.1504 -0.2350
  114MOL0     H15693   2.996   9.963   6.724  1.6353 -0.9726 -0.8278
  114MOL0     H15694   3.352   9.818   6.544  1.7372 -1.7538  1.0324
  114MOL0     H15695   3.574   9.792   6.436  2.2750 -1.8244  0.7593
  114MOL0     H15696   3.796   9.489   6.233 -0.8011 -3.0886  0.6933
  114MOL0     H15697   3.638   9.433   6.177  2.8741 -3.1463  0.7780
  114MOL0     H15698   3.810   9.535   5.997 -0.1559 -0.0906  1.4920
  114MOL0     H15699   3.643   9.556   5.976  1.5750 -4.8480  0.0777
  114MOL0     H15700   3.679   9.777   6.108 -1.1118 -2.4737  0.9726
  114MOL0     H15701   3.745   9.777   5.947 -1.2743 -0.5296  0.0025
  114MOL0     H15702   3.965   9.747   6.006 -1.1676  0.7912 -1.3874
  114MOL0     H15703   3.939   9.708   6.174 -0.2291 -0.6582 -1.0645
  114MOL0     H15704   3.855   9.968   6.032  2.4252 -0.6765 -1.2785
  114MOL0     H15705   3.837   9.933   6.202  0.4512 -1.2547  0.5774
  114MOL0     H15706   4.092   9.966   6.050  0.6686  1.4510  1.1293
  114MOL0     H15707   4.094   9.916   6.222 -1.9333 -1.8192 -0.4811
  114MOL0     H15708   3.964  10.124   6.271 -3.5509 -0.3871 -2.4198
  114MOL0     H15709   3.967  10.163   6.103 -0.1297 -3.9852 -2.0276
  114MOL0     H15710   4.144  10.289   6.202 -0.4022 -0.6321  3.3341
  114MOL0     H15711   4.218  10.157   6.105 -0.8055 -3.0032 -0.4868
  114MOL0     H15712   3.449   9.451   6.223  1.7339  2.6435 -1.1257
  114MOL0     H15713   3.206   9.497   6.301  1.4348 -1.9691 -1.0188
  114MOL0     H15714   2.885   9.567   6.446 -1.8897 -2.3692 -0.3539
  114MOL0     H15715   2.649   9.549   6.498 -0.6163  0.1106  0.5139
  114MOL0     H15716   2.480  10.032   8.142 -1.3417  2.9948  0.3549
  114MOL0     H15717   2.466  10.190   8.337  1.1780  0.1350  2.7075
  114MOL0     H15718   2.490  10.226   8.780 -0.7176  2.2789 -1.7645
  114MOL0     H15719   2.475  10.311   9.022  2.6449 -0.6010  2.0766
  114MOL0     H15720   2.567  10.453   9.303  0.3240  1.7777 -0.1395
  114MOL0     H15721   2.625  10.327   9.192  2.5673 -0.8600  3.0584
  114MOL0     H15722   2.796  10.561   9.299  0.0157 -0.2326 -1.0220
  114MOL0     H15723   2.852  10.428   9.194  2.6132 -1.2508  1.4108
  114MOL0     H15724   2.834  10.422   9.473 -1.6740  1.4710 -0.8789
  114MOL0     H15725   2.714  10.307   9.405 -0.6096 -1.1441 -3.4053
  114MOL0     H15726   3.008  10.313   9.377  0.6020 -0.9034 -0.1491
  114MOL0     H15727   2.916  10.235   9.250 -3.3065  1.4628  0.0439
  114MOL0     H15728   2.863   9.968   9.580  0.3295  0.9909  0.1335
  114MOL0     H15729   2.725  10.644   8.920  1.0894  0.1232  0.0994
  114MOL0     H15730   2.829  10.659   8.731 -1.9098 -0.4958  2.2363
  114MOL0     H15731   2.874  10.520   8.637 -0.0573 -1.0181  2.2196
  114MOL0     H15732   2.723  10.619   8.589 -1.0022 -1.4107  0.4252
  115MOL0     O15733   8.147   5.015   5.824 -0.3965  0.3833  0.2107
  115MOL0     C15734   8.120   4.919   5.762  0.3805  0.0995 -0.4947
  115MOL0     O15735   8.175   4.883   5.636 -0.2133 -0.6605 -0.2936
  115MOL0     C15736   8.297   4.934   5.615  0.5312  0.3558  0.0510
  115MOL0     C15737   8.322   5.074   5.607  0.1564 -0.3954 -0.1918
  115MOL0     C15738   8.445   5.123   5.576 -0.1806  0.4100 -0.0990
  115MOL0     C15739   8.550   5.030   5.563  0.9910  0.3764 -0.3353
  115MOL0     O15740   8.671   5.083   5.542 -0.3023 -0.2389 -0.2737
  115MOL0     C15741   8.765   5.001   5.462  0.5415 -0.0549  0.2393
  115MOL0     C15742   8.891   5.067   5.421 -0.4794 -0.5470 -0.5667
  115MOL0     C15743   8.957   4.968   5.328 -0.0167  0.4970  0.2513
  115MOL0     C15744   8.887   4.953   5.198  0.3259 -0.0338 -0.2853
  115MOL0     C15745   8.950   4.852   5.092 -0.0996  0.3047  1.1856
  115MOL0     C15746   8.874   4.720   5.107  0.6713 -0.1709 -0.0887
  115MOL0     C15747   8.815   4.665   4.974 -0.6512 -0.3784 -0.1947
  115MOL0     C15748   8.691   4.745   4.934  1.2073  0.4978 -0.4532
  115MOL0     N15749   8.685   4.739   4.789  0.6971  0.3372  0.7220
  115MOL0     C15750   8.644   4.633   4.714  0.2719  1.0224  1.2323
  115MOL0     C15751   8.620   4.688   4.589  0.3490 -0.1819 -0.7966
  115MOL0     C15752   8.556   4.612   4.479 -0.0957 -0.1745 -0.0690
  115MOL0     C15753   8.592   4.666   4.340 -0.2649  0.2450  1.0732
  115MOL0     C15754   8.743   4.659   4.305  0.2889  0.9293 -1.0150
  115MOL0     C15755   8.784   4.535   4.225  0.8394 -0.1634  0.1587
  115MOL0     O15756   8.716   4.531   4.100  0.2832  0.1334 -0.5121
  115MOL0     C15757   8.778   4.461   3.993  0.4922 -0.3174  0.4788
  115MOL0     C15758   8.906   4.405   3.988  0.2355  1.0887  1.0201
  115MOL0     C15759   8.963   4.343   3.875  0.6527  0.8570 -0.4119
  115MOL0     C15760   9.100   4.288   3.888  0.0921  0.3953  0.3024
  115MOL0     C15761   8.884   4.331   3.763 -0.8186  0.3765  0.0871
  115MOL0     C15762   8.918   4.231   3.663  0.1388  1.0678  0.3518
  115MOL0     O15763   8.955   4.097   3.696  0.1260 -0.0319  0.5471
  115MOL0     C15764   8.997   4.003   3.591 -0.0753 -0.0927 -0.4777
  115MOL0     C15765   9.125   3.945   3.582 -0.2415  0.5147 -0.0147
  115MOL0     C15766   9.161   3.855   3.485  0.6080  0.2009  0.2735
  115MOL0     C15767   9.067   3.814   3.387  0.2326  0.0113  0.4320
  115MOL0     O15768   9.121   3.736   3.291  0.3965 -0.1941 -0.6292
  115MOL0     C15769   9.046   3.712   3.170 -0.4048  0.4442  0.4778
  115MOL0     C15770   9.128   3.611   3.093 -0.2299  0.5881  0.8712
  115MOL0     C15771   9.060   3.577   2.964  0.2245 -0.0230  0.3379
  115MOL0     C15772   9.113   3.438   2.941  0.9595 -0.4220 -0.5857
  115MOL0     C15773   9.048   3.394   2.813  0.6915 -0.9171  0.6134
  115MOL0     C15774   9.080   3.251   2.768  0.2263 -0.6162  0.0441
  115MOL0     C15775   9.225   3.221   2.728  1.1492  0.5950  0.6483
  115MOL0     C15776   9.260   3.068   2.718 -0.2952 -0.0275 -0.9539
  115MOL0    Cl15777   9.134   3.002   2.611  0.1640 -0.1908  0.2396
  115MOL0     C15778   8.936   3.861   3.395  0.1668  0.1009  1.0103
  115MOL0     C15779   8.906   3.951   3.496  1.0114  0.6749 -0.3941
  115MOL0     O15780   8.918   4.271   3.545 -0.1152 -0.1883  0.2804
  115MOL0     C15781   8.749   4.391   3.764  0.6115  0.5908  0.2096
  115MOL0     C15782   8.707   4.461   3.873 -0.7350 -0.6239  0.4161
  115MOL0     N15783   8.667   4.820   4.593  0.4468 -0.0122  0.0076
  115MOL0     N15784   8.709   4.841   4.704 -0.5795 -0.5340  0.6628
  115MOL0     C15785   8.528   4.892   5.562 -0.0198 -0.5342 -0.2060
  115MOL0     C15786   8.401   4.851   5.580 -0.5192  0.0036 -0.4528
  115MOL0     C15787   8.026   4.822   5.824  0.8255  1.0375 -0.4047
  115MOL0     C15788   8.002   4.705   5.745  0.7103  0.5236 -0.0109
  115MOL0     C15789   7.907   4.606   5.792 -0.5731  0.9663 -0.1111
  115MOL0     C15790   7.835   4.624   5.909 -0.6165 -0.0576 -1.2940
  115MOL0     O15791   7.756   4.526   5.971 -0.2533 -0.4838 -0.2316
  115MOL0     C15792   7.729   4.396   5.919 -0.6646  0.3405  1.4117
  115MOL0     C15793   7.666   4.291   6.020 -0.1046  0.4266 -0.9341
  115MOL0     C15794   7.660   4.147   5.968  0.5729  0.9492 -0.5746
  115MOL0     C15795   7.792   4.069   5.996  0.1176 -1.0201 -0.1837
  115MOL0     C15796   7.764   3.933   5.992  0.2122  0.2410  0.2929
  115MOL0     C15797   7.733   3.813   5.985  0.0650 -1.0718 -0.1233
  115MOL0     C15798   7.853   4.748   5.976  0.4343  1.5912  0.6579
  115MOL0     C15799   7.946   4.839   5.936 -0.4419  0.2382 -0.6601
  115MOL0     C15800   7.973   4.951   6.022  0.1024 -0.8665 -1.4792
  115MOL0     H15801   8.246   5.149   5.628  0.3461 -0.1499 -0.3738
  115MOL0     H15802   8.484   5.223   5.586  0.6500 -0.0861  2.3422
  115MOL0     H15803   8.709   4.972   5.372 -0.7534 -2.2332  1.6429
  115MOL0     H15804   8.782   4.909   5.519 -2.5771 -2.6184 -2.4989
  115MOL0     H15805   8.874   5.160   5.366 -0.4314 -0.1349  0.0988
  115MOL0     H15806   8.948   5.094   5.511 -1.7049  1.8442 -0.4394
  115MOL0     H15807   9.059   5.000   5.306  0.4233 -1.1598 -0.2789
  115MOL0     H15808   8.954   4.865   5.365  0.4662 -0.0079 -1.0328
  115MOL0     H15809   8.780   4.932   5.201 -0.3356  2.9516  1.1677
  115MOL0     H15810   8.897   5.052   5.151  1.8914  1.2837  2.5488
  115MOL0     H15811   9.059   4.844   5.089 -0.0894  0.5891 -0.7699
  115MOL0     H15812   8.916   4.878   4.991 -0.0819 -1.5007  0.6910
  115MOL0     H15813   8.947   4.646   5.142  3.1001  1.5962 -1.1653
  115MOL0     H15814   8.790   4.718   5.177  0.4845 -0.7143 -0.3275
  115MOL0     H15815   8.788   4.559   4.982  0.7744 -0.7463  0.0810
  115MOL0     H15816   8.895   4.685   4.901 -0.3379  1.6650  0.6435
  115MOL0     H15817   8.599   4.709   4.980  2.1099  0.4713  1.4222
  115MOL0     H15818   8.694   4.854   4.946 -0.2215  0.7727 -2.1958
  115MOL0     H15819   8.631   4.531   4.749 -0.1132 -0.8089 -3.4636
  115MOL0     H15820   8.451   4.609   4.509  0.7404 -1.8317  3.1873
  115MOL0     H15821   8.576   4.506   4.492 -1.5951 -0.2837  1.8968
  115MOL0     H15822   8.539   4.615   4.260  1.3063  0.5378 -0.1951
  115MOL0     H15823   8.566   4.773   4.335  0.9703  0.8528  4.6479
  115MOL0     H15824   8.766   4.755   4.257  0.7297  0.6929 -1.2801
  115MOL0     H15825   8.796   4.646   4.400 -0.8661 -6.0513 -0.8189
  115MOL0     H15826   8.892   4.539   4.208  0.5164  0.8300 -2.0687
  115MOL0     H15827   8.762   4.449   4.289  0.3852  1.7123  2.6337
  115MOL0     H15828   8.965   4.414   4.078  1.1996 -1.8882  0.7866
  115MOL0     H15829   9.113   4.202   3.955 -3.2890  1.0145  1.9478
  115MOL0     H15830   9.163   4.374   3.909  2.0726 -0.7966 -0.4133
  115MOL0     H15831   9.148   4.256   3.795  3.7196  1.3345  1.6791
  115MOL0     H15832   9.198   3.975   3.657 -1.6135 -3.0087  3.0480
  115MOL0     H15833   9.259   3.809   3.491 -0.2397 -1.8202 -0.3194
  115MOL0     H15834   8.946   3.674   3.195 -0.6701  1.2185  0.6129
  115MOL0     H15835   9.036   3.793   3.098 -0.7418 -2.4798 -3.0324
  115MOL0     H15836   9.228   3.654   3.077 -1.8836  4.0381 -1.7698
  115MOL0     H15837   9.140   3.528   3.162  4.1763  2.0432  2.1851
  115MOL0     H15838   9.080   3.648   2.883  1.3339  0.0461  0.6587
  115MOL0     H15839   8.951   3.570   2.974  0.3697 -2.7286  0.6120
  115MOL0     H15840   9.090   3.365   3.020  1.6686  0.4683  0.4783
  115MOL0     H15841   9.221   3.451   2.930  1.6888 -3.0118  2.0678
  115MOL0     H15842   8.945   3.429   2.820  1.7794  2.8029 -0.1125
  115MOL0     H15843   9.079   3.455   2.727  2.2781 -1.5462  0.6959
  115MOL0     H15844   9.004   3.222   2.695 -0.1037  2.5282 -1.0326
  115MOL0     H15845   9.059   3.191   2.857  1.9360 -1.2482  0.0575
  115MOL0     H15846   9.296   3.269   2.796 -0.0725  0.1608  2.3102
  115MOL0     H15847   9.224   3.254   2.624 -1.1897 -0.5765  0.2217
  115MOL0     H15848   9.254   3.022   2.817 -0.2859 -1.5303 -1.6123
  115MOL0     H15849   9.362   3.065   2.680 -0.3665 -0.2248 -1.1305
  115MOL0     H15850   8.854   3.828   3.333 -0.4390 -0.1280  1.9180
  115MOL0     H15851   8.803   3.981   3.511  1.3108  1.3040  0.4187
  115MOL0     H15852   8.691   4.393   3.672 -0.8439  1.3011  1.1056
  115MOL0     H15853   8.606   4.500   3.870 -1.3559 -2.1701 -2.5809
  115MOL0     H15854   8.607   4.819   5.547  0.9488  0.1697  1.3137
  115MOL0     H15855   8.385   4.744   5.573  0.6601 -0.5659  3.3006
  115MOL0     H15856   8.033   4.688   5.643  2.6642 -0.4159  0.6752
  115MOL0     H15857   7.882   4.519   5.732 -0.3156  0.4276  0.5501
  115MOL0     H15858   7.657   4.396   5.837 -0.5834 -0.3556  1.3309
  115MOL0     H15859   7.818   4.350   5.873 -1.5608 -0.0059 -0.0300
  115MOL0     H15860   7.568   4.314   6.062  1.9549 -0.9776  6.0934
  115MOL0     H15861   7.724   4.289   6.113 -1.9722 -1.8808  0.3027
  115MOL0     H15862   7.572   4.097   6.010  0.9121 -0.7289 -1.7533
  115MOL0     H15863   7.651   4.152   5.860  2.0663  0.7521 -0.7317
  115MOL0     H15864   7.834   4.099   6.093  0.6320 -1.5383 -0.2448
  115MOL0     H15865   7.860   4.090   5.913 -3.4403 -1.3900 -3.4631
  115MOL0     H15866   7.705   3.710   5.991 -2.6222 -0.3937  0.1913
  115MOL0     H15867   7.798   4.762   6.068  0.0423 -0.9996  0.9002
  115MOL0     H15868   7.921   4.951   6.119  4.4922  1.5180  1.1601
  115MOL0     H15869   8.078   4.962   6.050 -0.9181  2.1049  2.0089
  115MOL0     H15870   7.957   5.047   5.972  1.7406 -0.2088 -0.7963
  116MOL0     O15871  10.842  11.589   1.774  0.5751 -0.4144 -0.0294
  116MOL0     C15872  10.945  11.565   1.833 -0.2439  0.0464 -0.4365
  116MOL0     O15873  11.001  11.442   1.835 -0.3477 -0.6171 -0.0046
  116MOL0     C15874  10.938  11.348   1.761  0.5218  1.0333 -0.1401
  116MOL0     C15875  10.812  11.297   1.819  0.2621 -0.2832 -0.3218
  116MOL0     C15876  10.746  11.188   1.751  0.1983 -0.1200 -0.7130
  116MOL0     C15877  10.799  11.138   1.631 -0.3597 -0.2321 -0.2572
  116MOL0     O15878  10.747  11.042   1.553  0.9574  0.7660  0.0190
  116MOL0     C15879  10.649  10.955   1.607 -0.0784 -0.6970 -0.0109
  116MOL0     C15880  10.502  11.004   1.584  0.6976 -0.5477 -0.6049
  116MOL0     C15881  10.402  10.899   1.640 -0.1385  0.1910 -0.6352
  116MOL0     C15882  10.261  10.954   1.645 -0.0802 -0.6829 -0.7297
  116MOL0     C15883  10.224  11.047   1.771 -0.5461  0.2038 -0.8440
  116MOL0     C15884  10.100  11.123   1.775 -1.6102 -0.7337  0.9577
  116MOL0     C15885  10.120  11.267   1.853 -0.8502  0.5829  0.5214
  116MOL0     C15886  10.178  11.378   1.766  0.0841 -0.1369 -0.1301
  116MOL0     N15887  10.245  11.493   1.828  0.3935 -0.1775 -0.0176
  116MOL0     C15888  10.362  11.501   1.901  0.0864  0.1387 -0.6611
  116MOL0     C15889  10.367  11.628   1.949  0.8282 -0.6432  0.3046
  116MOL0     C15890  10.464  11.688   2.055  0.2395  0.0620 -0.8045
  116MOL0     C15891  10.393  11.711   2.192  0.0892 -0.3506  0.0566
  116MOL0     C15892  10.497  11.709   2.300  0.0070 -0.4134 -0.1682
  116MOL0     C15893  10.430  11.738   2.429 -0.5081 -0.3206 -0.3148
  116MOL0     O15894  10.503  11.741   2.549 -0.3761 -1.2722  0.0411
  116MOL0     C15895  10.598  11.646   2.588 -0.5533 -0.1855 -0.1149
  116MOL0     C15896  10.718  11.674   2.656  0.8188 -0.4197  0.0024
  116MOL0     C15897  10.811  11.577   2.699 -0.6932 -0.2113  0.4306
  116MOL0     C15898  10.938  11.609   2.761 -0.6499 -0.0089  0.2379
  116MOL0     C15899  10.766  11.441   2.680  0.4850  0.3618 -0.4758
  116MOL0     C15900  10.854  11.320   2.724 -0.1992  0.3109  0.0984
  116MOL0     O15901  10.898  11.307   2.858 -1.2655 -0.9271  0.2084
  116MOL0     C15902  10.978  11.202   2.907 -1.1117  0.7842  0.0458
  116MOL0     C15903  11.034  11.102   2.832 -0.1895  0.0188  0.7099
  116MOL0     C15904  11.123  11.011   2.895  1.0409  1.1877  0.6708
  116MOL0     C15905  11.155  11.025   3.032 -0.8708 -0.9644  0.3165
  116MOL0     O15906  11.259  10.934   3.050  0.1067  0.1812  0.5418
  116MOL0     C15907  11.318  10.940   3.173 -0.3458  0.6272 -0.2816
  116MOL0     C15908  11.453  10.872   3.167 -0.4578  0.4179 -0.1619
  116MOL0     C15909  11.531  10.882   3.309 -0.4056 -0.3785  0.1734
  116MOL0     C15910  11.669  10.815   3.309  0.2271 -0.7879 -0.7621
  116MOL0     C15911  11.775  10.860   3.422  1.0827 -0.0734  0.1115
  116MOL0     C15912  11.917  10.877   3.380  0.5451  0.5355  0.8616
  116MOL0     C15913  11.945  10.977   3.262  0.6200 -0.8161  0.4062
  116MOL0     C15914  12.097  10.965   3.218 -0.7769 -0.1393  0.2483
  116MOL0    Cl15915  12.127  11.033   3.059  0.1503  0.4796 -0.4415
  116MOL0     C15916  11.117  11.136   3.108  0.2747 -0.3819 -0.5372
  116MOL0     C15917  11.022  11.218   3.042 -0.2474 -0.3031  0.0680
  116MOL0     O15918  10.873  11.238   2.632  0.1710  0.6300  0.1851
  116MOL0     C15919  10.653  11.411   2.610  0.5266 -0.3497 -0.0369
  116MOL0     C15920  10.569  11.515   2.567  0.4891  0.8418  0.1131
  116MOL0     N15921  10.261  11.705   1.896 -0.3689  0.3270  0.7555
  116MOL0     N15922  10.188  11.622   1.825 -0.0244  0.2184  0.0606
  116MOL0     C15923  10.910  11.198   1.572  0.9884 -0.3985 -0.2091
  116MOL0     C15924  10.985  11.302   1.636  1.1771  0.5097 -0.4802
  116MOL0     C15925  11.024  11.685   1.886  0.6789 -0.1897  0.1178
  116MOL0     C15926  11.163  11.659   1.921 -0.2191  0.2455  0.2242
  116MOL0     C15927  11.248  11.759   1.966 -0.0579  0.5516  0.3972
  116MOL0     C15928  11.189  11.884   1.980 -0.7074  0.4751  0.9322
  116MOL0     O15929  11.282  11.981   2.004  0.5502  0.7049  0.1689
  116MOL0     C15930  11.240  12.102   2.062  0.0441  0.9776  0.1536
  116MOL0     C15931  11.206  12.087   2.214 -0.6967  0.2350  0.2853
  116MOL0     C15932  11.140  12.217   2.268 -0.2894 -0.2296 -0.6975
  116MOL0     C15933  11.141  12.243   2.418 -0.4672  0.0215  0.3251
  116MOL0     C15934  11.273  12.191   2.480 -0.3476 -0.2649 -0.4125
  116MOL0     C15935  11.372  12.149   2.521 -0.2351 -0.2016  0.5513
  116MOL0     C15936  11.052  11.903   1.973  0.4034  0.2314 -0.9283
  116MOL0     C15937  10.965  11.799   1.932 -0.0741  0.2291  1.0764
  116MOL0     C15938  10.820  11.839   1.927 -0.3365 -0.9265 -0.6006
  116MOL0     H15939  10.776  11.343   1.910  2.1999  1.8147 -0.5439
  116MOL0     H15940  10.653  11.150   1.790  0.6722 -2.6026 -1.8323
  116MOL0     H15941  10.666  10.945   1.715 -1.0996  2.9147  0.6337
  116MOL0     H15942  10.653  10.864   1.547 -2.5560 -2.2364  1.9524
  116MOL0     H15943  10.491  11.109   1.615  0.1421  0.2948 -3.4060
  116MOL0     H15944  10.472  11.005   1.479 -1.0414 -0.6714 -0.1303
  116MOL0     H15945  10.411  10.806   1.582  2.8413  0.3013 -0.5107
  116MOL0     H15946  10.437  10.889   1.743  0.4190 -0.2598 -0.8652
  116MOL0     H15947  10.248  11.010   1.552  3.3200 -0.4584 -1.2105
  116MOL0     H15948  10.185  10.876   1.654 -1.1525  0.4115 -0.0331
  116MOL0     H15949  10.312  11.112   1.767  0.2968 -0.9097 -0.6155
  116MOL0     H15950  10.235  10.985   1.860  2.2537  0.6519 -0.7879
  116MOL0     H15951  10.076  11.145   1.671 -0.1876  0.8125  0.8984
  116MOL0     H15952  10.033  11.062   1.836  1.7503 -2.0611  3.7183
  116MOL0     H15953  10.195  11.247   1.930 -2.1076 -0.8542  1.4139
  116MOL0     H15954  10.026  11.298   1.900 -1.8850 -2.7652  0.9117
  116MOL0     H15955  10.253  11.316   1.715 -0.1054  0.7762 -1.6070
  116MOL0     H15956  10.118  11.413   1.681 -0.1975 -2.0437 -0.7721
  116MOL0     H15957  10.431  11.418   1.907 -0.1295  0.0393  0.7661
  116MOL0     H15958  10.483  11.788   2.015 -0.0998  0.9829  1.2157
  116MOL0     H15959  10.557  11.631   2.058  0.3629  0.0653 -3.0230
  116MOL0     H15960  10.351  11.811   2.186  1.5961  0.2696 -0.9512
  116MOL0     H15961  10.307  11.646   2.211 -0.0838 -0.7484 -1.8337
  116MOL0     H15962  10.544  11.610   2.301 -0.3200 -0.5687  0.8020
  116MOL0     H15963  10.568  11.790   2.279 -0.9250  0.0927 -1.5008
  116MOL0     H15964  10.389  11.839   2.427  1.4376  0.6238  2.5052
  116MOL0     H15965  10.360  11.655   2.449  1.2572 -2.2215 -1.6263
  116MOL0     H15966  10.741  11.780   2.668 -1.9929  0.1855  0.9056
  116MOL0     H15967  10.938  11.572   2.864 -0.7784 -0.3116  0.1316
  116MOL0     H15968  10.955  11.717   2.760 -2.0977  0.2679 -1.8398
  116MOL0     H15969  11.017  11.557   2.705 -2.0417 -1.4664 -0.4487
  116MOL0     H15970  11.010  11.072   2.731  0.9697  1.3348  0.0075
  116MOL0     H15971  11.156  10.924   2.840 -1.7581  1.7793 -2.2852
  116MOL0     H15972  11.325  11.041   3.216 -1.6906  0.4409  0.4409
  116MOL0     H15973  11.257  10.890   3.249  1.0622  0.2731  0.6685
  116MOL0     H15974  11.421  10.771   3.138  0.3726  0.3032 -0.7340
  116MOL0     H15975  11.522  10.912   3.093 -0.4239  2.3583  0.8607
  116MOL0     H15976  11.470  10.835   3.387 -1.4396  3.9220  2.2308
  116MOL0     H15977  11.529  10.987   3.336 -2.4571 -0.2105 -0.4520
  116MOL0     H15978  11.717  10.820   3.211 -3.6770  0.2602 -2.8046
  116MOL0     H15979  11.646  10.709   3.327 -1.7391 -0.7976 -2.8585
  116MOL0     H15980  11.741  10.953   3.468  3.4854  1.1382 -0.4097
  116MOL0     H15981  11.773  10.790   3.507 -0.9844  1.9708  1.8873
  116MOL0     H15982  11.948  10.778   3.345 -3.2755  0.5014 -3.3652
  116MOL0     H15983  11.977  10.908   3.465  3.1403 -0.7569 -0.3941
  116MOL0     H15984  11.922  11.078   3.296  0.0457 -1.8601  3.4701
  116MOL0     H15985  11.890  10.942   3.175 -2.2020 -1.3128  2.2674
  116MOL0     H15986  12.104  10.856   3.226  0.7144  0.0419  2.5160
  116MOL0     H15987  12.166  11.022   3.281  2.3755 -3.7391  0.4464
  116MOL0     H15988  11.156  11.156   3.207  0.9818  0.4488 -0.9633
  116MOL0     H15989  10.986  11.309   3.090  0.7914 -0.7390  1.7590
  116MOL0     H15990  10.614  11.311   2.592  2.7360 -1.7083  2.1020
  116MOL0     H15991  10.473  11.485   2.526 -1.0975  1.8869  2.8097
  116MOL0     H15992  10.928  11.168   1.469  0.8917 -1.6101  0.1095
  116MOL0     H15993  11.076  11.341   1.591  1.2035 -0.7841 -1.6059
  116MOL0     H15994  11.217  11.564   1.912  1.8634  1.5477 -2.2353
  116MOL0     H15995  11.355  11.745   1.973 -0.0858 -0.0019 -0.2205
  116MOL0     H15996  11.315  12.179   2.044  2.1442 -0.7246  1.2480
  116MOL0     H15997  11.147  12.140   2.018  0.4229  1.2054 -0.4644
  116MOL0     H15998  11.305  12.076   2.260  0.2782  2.2002 -1.1960
  116MOL0     H15999  11.144  11.997   2.221  1.3137 -1.3319 -0.9167
  116MOL0     H16000  11.199  12.305   2.241 -2.2229  0.9793 -1.2577
  116MOL0     H16001  11.050  12.235   2.208  1.0388  1.5838 -2.2563
  116MOL0     H16002  11.056  12.202   2.472 -1.2550 -1.5933 -2.0199
  116MOL0     H16003  11.135  12.351   2.438  0.1761  0.2934 -0.8633
  116MOL0     H16004  11.462  12.096   2.545 -0.4375 -0.9156 -0.2287
  116MOL0     H16005  11.011  12.003   1.986  0.6450  0.2951 -0.6471
  116MOL0     H16006  10.804  11.907   1.843  0.8713 -1.6797 -1.4809
  116MOL0     H16007  10.758  11.749   1.927 -0.6773 -0.6981  0.0993
  116MOL0     H16008  10.787  11.884   2.021 -0.5558 -3.3169  0.5270
  117MOL0     O16009   0.349   4.920   1.806  0.0277  0.0482 -0.6826
  117MOL0     C16010   0.460   4.893   1.762  0.1232  0.6945  0.3882
  117MOL0     O16011   0.499   4.906   1.633  0.0686  0.2469 -0.2612
  117MOL0     C16012   0.406   4.938   1.534 -0.8424 -0.1974  0.2380
  117MOL0     C16013   0.283   4.880   1.512  0.2332  0.6089 -0.1575
  117MOL0     C16014   0.199   4.931   1.411 -0.3297  1.3807 -0.6345
  117MOL0     C16015   0.242   5.032   1.317  0.0172 -0.7296  0.4727
  117MOL0     O16016   0.164   5.076   1.209  0.2005  0.2828 -0.2884
  117MOL0     C16017   0.222   5.105   1.085 -0.1407 -0.0976 -0.5714
  117MOL0     C16018   0.217   4.986   0.995  0.9345 -0.9656  0.5178
  117MOL0     C16019   0.079   4.940   0.970 -0.3935 -1.3146  0.2256
  117MOL0     C16020   0.050   4.832   0.868 -0.3387 -0.3584 -0.7257
  117MOL0     C16021   0.099   4.687   0.917 -0.9734 -0.5555  0.1566
  117MOL0     C16022   0.065   4.577   0.827 -0.3877  0.1780  0.1755
  117MOL0     C16023   0.115   4.583   0.686 -0.6780  1.1688 -0.4573
  117MOL0     C16024   0.048   4.486   0.597  0.2386  0.6325  1.5683
  117MOL0     N16025   0.120   4.480   0.472 -0.8540  0.1154  0.0526
  117MOL0     C16026   0.155   4.588   0.388  0.0380 -0.0315 -0.3900
  117MOL0     C16027   0.235   4.529   0.290  0.6033  1.3275 -0.6831
  117MOL0     C16028   0.299   4.597   0.173 -0.7045 -1.0057 -0.4253
  117MOL0     C16029   0.439   4.666   0.203  0.6950  0.8905  0.3159
  117MOL0     C16030   0.561   4.568   0.219 -0.9877  0.5041  0.6442
  117MOL0     C16031   0.615   4.514   0.081 -0.7831 -0.1601  0.4065
  117MOL0     O16032   0.556   4.390   0.047  0.1840 -0.5126 -0.6609
  117MOL0     C16033   0.632   4.309  -0.032  1.0032 -0.6125  1.3806
  117MOL0     C16034   0.740   4.345  -0.117  0.6137 -0.3551 -0.2381
  117MOL0     C16035   0.820   4.271  -0.202 -0.3501 -0.6786 -0.0133
  117MOL0     C16036   0.949   4.339  -0.257  0.6025 -1.0484  0.8771
  117MOL0     C16037   0.793   4.133  -0.215 -0.1547  0.2470 -0.5809
  117MOL0     C16038   0.881   4.035  -0.289 -0.8959 -0.4732 -0.7650
  117MOL0     O16039   0.970   4.090  -0.373  0.4666  1.1871  0.0126
  117MOL0     C16040   1.035   3.993  -0.453  0.3266 -0.9246  1.0661
  117MOL0     C16041   1.052   4.016  -0.587 -0.8751 -0.2849  0.3966
  117MOL0     C16042   1.154   3.941  -0.661 -0.0811 -0.3817 -0.6346
  117MOL0     C16043   1.210   3.821  -0.612  0.1615  0.2175 -0.4260
  117MOL0     O16044   1.268   3.740  -0.697 -0.4768 -0.5488  0.6979
  117MOL0     C16045   1.398   3.685  -0.657 -0.6820 -0.1242 -0.2736
  117MOL0     C16046   1.511   3.788  -0.624 -0.3316 -0.7358 -0.0372
  117MOL0     C16047   1.566   3.889  -0.726 -0.5616  0.8203  1.2312
  117MOL0     C16048   1.464   4.002  -0.765 -0.6567 -1.3872  0.0815
  117MOL0     C16049   1.529   4.117  -0.851  0.0769  0.4328 -0.1785
  117MOL0     C16050   1.621   4.219  -0.782  0.2066 -0.5881  0.5312
  117MOL0     C16051   1.628   4.349  -0.859  0.7647  0.6611  1.4337
  117MOL0     C16052   1.731   4.441  -0.813  0.1736 -0.1735 -0.2409
  117MOL0    Cl16053   1.711   4.582  -0.913  0.0645  0.2677 -0.7293
  117MOL0     C16054   1.186   3.795  -0.472  0.2066  0.1929 -0.2565
  117MOL0     C16055   1.108   3.887  -0.393 -0.5854  0.0683 -0.3207
  117MOL0     O16056   0.861   3.913  -0.272 -0.0369 -0.6827 -0.1842
  117MOL0     C16057   0.683   4.092  -0.125  0.1052  0.3251  0.2429
  117MOL0     C16058   0.600   4.171  -0.046  0.1257 -0.8055  0.5330
  117MOL0     N16059   0.219   4.391   0.308  0.5424  0.3340  0.3433
  117MOL0     N16060   0.162   4.363   0.416 -0.3515  0.7940  0.2228
  117MOL0     C16061   0.373   5.081   1.341 -0.3475 -0.1650  0.3918
  117MOL0     C16062   0.448   5.041   1.447 -0.1044 -0.0207  0.4950
  117MOL0     C16063   0.557   4.844   1.857  0.9528  0.2375  0.0305
  117MOL0     C16064   0.503   4.759   1.959 -0.7956 -0.7341 -0.4893
  117MOL0     C16065   0.579   4.696   2.064  1.0901 -0.6499  0.3499
  117MOL0     C16066   0.714   4.733   2.074 -0.0607 -0.8893 -0.5546
  117MOL0     O16067   0.800   4.683   2.171 -0.1929  0.6612  0.2610
  117MOL0     C16068   0.754   4.625   2.295 -0.0468  1.9151  0.2230
  117MOL0     C16069   0.851   4.641   2.413  0.7360  0.7904  0.5654
  117MOL0     C16070   0.894   4.784   2.430  0.6221  0.0244 -0.0668
  117MOL0     C16071   0.923   4.811   2.574 -1.1079  0.1518  0.4312
  117MOL0     C16072   0.941   4.958   2.579  0.1646 -0.6135 -0.5480
  117MOL0     C16073   0.952   5.072   2.587  0.9217 -0.9643 -0.0460
  117MOL0     C16074   0.774   4.808   1.970  0.3388 -0.2551 -0.0016
  117MOL0     C16075   0.687   4.870   1.872 -0.0686  0.0009  0.4518
  117MOL0     C16076   0.756   4.957   1.773 -0.0186 -0.9185  0.3028
  117MOL0     H16077   0.261   4.791   1.571 -0.3163 -0.1872 -1.5027
  117MOL0     H16078   0.104   4.879   1.405 -0.1555  0.6355  1.7996
  117MOL0     H16079   0.327   5.133   1.095 -0.2485 -0.1196  0.8029
  117MOL0     H16080   0.162   5.187   1.044  0.0482 -0.1469 -0.9540
  117MOL0     H16081   0.259   5.023   0.900  1.7809 -2.2955  0.3492
  117MOL0     H16082   0.284   4.912   1.040 -0.6648 -3.1951 -0.6005
  117MOL0     H16083   0.029   4.902   1.060 -2.9398 -2.4618 -1.5452
  117MOL0     H16084   0.014   5.021   0.937  0.9548 -0.9865 -1.7858
  117MOL0     H16085  -0.054   4.833   0.835 -0.0933  3.1919 -1.8019
  117MOL0     H16086   0.106   4.849   0.775  0.4609  3.0898  0.2350
  117MOL0     H16087   0.050   4.664   1.012 -1.3003 -0.4089  0.0234
  117MOL0     H16088   0.209   4.686   0.923 -0.6082 -0.1078 -3.7586
  117MOL0     H16089   0.099   4.482   0.870  1.4453  0.1462 -1.2138
  117MOL0     H16090  -0.044   4.567   0.826 -0.4411  0.2560  1.9785
  117MOL0     H16091   0.220   4.555   0.700 -0.9126 -1.3467 -2.8909
  117MOL0     H16092   0.109   4.680   0.637  0.9087  0.5141 -2.0535
  117MOL0     H16093   0.019   4.393   0.647 -0.1414  0.6389  1.3605
  117MOL0     H16094  -0.047   4.529   0.565 -0.7957 -1.9656  0.9349
  117MOL0     H16095   0.141   4.694   0.405  1.6248 -0.0023  0.8952
  117MOL0     H16096   0.215   4.661   0.141  0.2603 -1.2565 -3.8712
  117MOL0     H16097   0.309   4.535   0.083  4.3802 -1.2719  0.0770
  117MOL0     H16098   0.452   4.743   0.126  2.2615 -1.1197 -1.5146
  117MOL0     H16099   0.414   4.719   0.296 -0.0502  1.9915 -0.4782
  117MOL0     H16100   0.646   4.619   0.264  1.0055 -1.7981 -0.2914
  117MOL0     H16101   0.535   4.486   0.286 -2.4967 -0.2784 -0.8300
  117MOL0     H16102   0.585   4.583   0.001  1.6322 -0.2411 -0.6584
  117MOL0     H16103   0.723   4.516   0.094 -1.0393  1.7205  3.2334
  117MOL0     H16104   0.766   4.450  -0.115 -0.6997 -0.0223  0.0877
  117MOL0     H16105   1.038   4.280  -0.232  0.7386 -0.5787  1.5505
  117MOL0     H16106   0.971   4.443  -0.233 -1.6530 -0.2855 -0.0913
  117MOL0     H16107   0.946   4.344  -0.366 -0.1614 -0.3228  0.9186
  117MOL0     H16108   1.018   4.102  -0.643  0.3521  0.7595  1.1884
  117MOL0     H16109   1.188   3.981  -0.756  1.5671  0.7319  0.3816
  117MOL0     H16110   1.382   3.614  -0.575 -3.5051  0.9526  0.2297
  117MOL0     H16111   1.435   3.634  -0.746  0.0908 -4.8689  2.4164
  117MOL0     H16112   1.478   3.847  -0.538  0.5354 -0.2137 -0.0537
  117MOL0     H16113   1.597   3.731  -0.586  0.5501  0.0022 -0.8940
  117MOL0     H16114   1.625   3.856  -0.811  1.4654  1.7230  2.2217
  117MOL0     H16115   1.655   3.933  -0.680  1.9697 -1.6074 -0.9747
  117MOL0     H16116   1.418   4.054  -0.681  3.2327 -1.7076  2.6995
  117MOL0     H16117   1.384   3.950  -0.819  0.5073 -2.2847 -0.8517
  117MOL0     H16118   1.581   4.072  -0.936 -0.5663 -2.3040  0.7819
  117MOL0     H16119   1.442   4.167  -0.896  0.0394 -1.2383 -2.0965
  117MOL0     H16120   1.720   4.176  -0.760  0.1905 -0.5221  0.7410
  117MOL0     H16121   1.585   4.251  -0.684  0.7068  0.9054  0.2460
  117MOL0     H16122   1.529   4.396  -0.847 -0.5855 -1.6794  0.1475
  117MOL0     H16123   1.639   4.333  -0.966  0.1151 -1.7729  1.6710
  117MOL0     H16124   1.829   4.393  -0.818 -0.0671 -0.5493 -2.5568
  117MOL0     H16125   1.699   4.468  -0.712 -0.6791 -0.9790 -0.2811
  117MOL0     H16126   1.231   3.704  -0.432  1.5983  0.6998 -0.5845
  117MOL0     H16127   1.092   3.865  -0.288  1.2465  1.7509  0.3494
  117MOL0     H16128   0.648   3.990  -0.121  0.8131 -0.0356 -1.7741
  117MOL0     H16129   0.515   4.116  -0.007  1.2374 -2.5118  0.6125
  117MOL0     H16130   0.423   5.150   1.273 -0.0462 -0.7550  0.0086
  117MOL0     H16131   0.542   5.092   1.469 -1.2910  2.4858  0.0751
  117MOL0     H16132   0.400   4.725   1.953 -0.8490 -1.9811  4.1321
  117MOL0     H16133   0.531   4.620   2.124  0.2861  0.2779  0.9110
  117MOL0     H16134   0.665   4.677   2.333 -1.3545 -0.4627  0.6207
  117MOL0     H16135   0.735   4.517   2.289 -2.0022  2.2824 -3.6622
  117MOL0     H16136   0.930   4.567   2.394 -3.1834 -4.2477  1.5923
  117MOL0     H16137   0.809   4.599   2.504 -1.8153 -0.5095 -1.0933
  117MOL0     H16138   0.973   4.810   2.360  1.7359 -2.1351  0.2801
  117MOL0     H16139   0.806   4.845   2.410 -1.6853 -2.7538  0.7709
  117MOL0     H16140   0.999   4.745   2.616 -0.1514  1.9851  1.6953
  117MOL0     H16141   0.845   4.782   2.645  0.5663 -2.8986  1.1765
  117MOL0     H16142   0.952   5.179   2.594 -1.8235 -0.9834  2.2547
  117MOL0     H16143   0.877   4.836   1.993  0.2772 -1.3867  1.9114
  117MOL0     H16144   0.689   5.034   1.734 -0.4950 -0.0603  2.6298
  117MOL0     H16145   0.844   5.003   1.818 -1.1845  0.0518  1.6619
  117MOL0     H16146   0.797   4.899   1.690  0.9687 -1.7632  1.3399
  118MOL0     O16147   3.785   6.328   9.945 -0.0073 -0.0568  0.0989
  118MOL0     C16148   3.685   6.256   9.945 -0.0317  0.2632  0.1470
  118MOL0     O16149   3.667   6.142   9.867 -0.2592  0.6235 -0.1173
  118MOL0     C16150   3.785   6.108   9.796  0.5374  0.3977  0.4059
  118MOL0     C16151   3.793   6.133   9.665  0.1259  0.1458 -0.1258
  118MOL0     C16152   3.892   6.074   9.586 -0.3738  0.2894 -0.6015
  118MOL0     C16153   4.005   6.002   9.644  0.1335  0.1525  0.0675
  118MOL0     O16154   4.121   5.952   9.596  0.2032  0.3061 -0.3639
  118MOL0     C16155   4.122   5.929   9.457 -0.0773  0.0106  0.2447
  118MOL0     C16156   4.258   5.870   9.407  0.4799  0.7062 -0.7159
  118MOL0     C16157   4.360   5.984   9.413 -0.1621 -0.1229  0.0091
  118MOL0     C16158   4.507   5.939   9.413 -0.4673 -0.0783 -0.1091
  118MOL0     C16159   4.522   5.863   9.278 -0.1524  0.5765 -0.8325
  118MOL0     C16160   4.660   5.827   9.225  0.3202 -0.1245 -0.7018
  118MOL0     C16161   4.681   5.695   9.156  0.5252 -0.2467  0.0279
  118MOL0     C16162   4.606   5.571   9.209  0.3380  0.4583 -0.3643
  118MOL0     N16163   4.649   5.457   9.137  0.0973 -0.7152  0.0911
  118MOL0     C16164   4.771   5.389   9.141 -0.0112 -0.2095 -0.7872
  118MOL0     C16165   4.752   5.298   9.038 -0.3527 -0.1244  0.5416
  118MOL0     C16166   4.841   5.197   8.981  0.0352 -0.3713  0.0878
  118MOL0     C16167   4.797   5.052   9.016  0.5822 -0.2989  0.4627
  118MOL0     C16168   4.884   4.959   8.949 -0.1933  1.4406  0.1090
  118MOL0     C16169   4.837   4.813   8.940 -0.3208 -0.1544  0.0325
  118MOL0     O16170   4.848   4.746   8.813  0.4313  0.8750  0.1939
  118MOL0     C16171   4.958   4.687   8.773 -0.3173  0.1069  0.0047
  118MOL0     C16172   4.969   4.653   8.633  0.2463  0.3691 -0.9057
  118MOL0     C16173   5.089   4.593   8.581 -0.4652 -0.1766  0.4820
  118MOL0     C16174   5.101   4.563   8.434 -0.1882 -0.4930  0.6772
  118MOL0     C16175   5.199   4.562   8.667  0.0079 -0.1467  0.5952
  118MOL0     C16176   5.329   4.498   8.639 -0.2138 -0.1366  0.0149
  118MOL0     O16177   5.355   4.435   8.524 -0.0888 -0.0026  0.3911
  118MOL0     C16178   5.477   4.370   8.504  0.4106 -1.2789 -0.4534
  118MOL0     C16179   5.529   4.382   8.378  1.0782 -0.8689 -0.5502
  118MOL0     C16180   5.645   4.316   8.341 -0.6161 -0.0293  0.6176
  118MOL0     C16181   5.723   4.255   8.439  0.5309 -0.9025  0.0203
  118MOL0     O16182   5.853   4.217   8.406 -0.1987  0.2173 -0.0312
  118MOL0     C16183   5.870   4.123   8.302  0.0731 -0.5058  0.6001
  118MOL0     C16184   6.017   4.081   8.276 -0.2498 -0.3744  0.0172
  118MOL0     C16185   6.024   3.994   8.150 -1.0749 -0.9968  0.0329
  118MOL0     C16186   6.160   4.006   8.070 -0.2532  0.6723  0.2873
  118MOL0     C16187   6.136   4.017   7.921 -0.3712  0.5967 -0.0256
  118MOL0     C16188   6.073   3.890   7.864 -0.4806 -1.3314  0.2421
  118MOL0     C16189   5.953   3.927   7.774  0.5077 -0.0551 -0.1802
  118MOL0     C16190   5.885   3.794   7.713  0.5198  0.5974  0.0957
  118MOL0    Cl16191   5.728   3.822   7.641  0.4806  0.4023 -0.0603
  118MOL0     C16192   5.673   4.240   8.561 -1.0574 -0.6002 -0.5058
  118MOL0     C16193   5.549   4.288   8.596  0.3814  0.3966  0.6893
  118MOL0     O16194   5.414   4.517   8.723  0.1953 -0.5499  0.1333
  118MOL0     C16195   5.180   4.606   8.798 -0.8146 -0.8280  0.6187
  118MOL0     C16196   5.066   4.667   8.855 -0.6345  0.3759 -0.7498
  118MOL0     N16197   4.640   5.327   8.965  0.4965  1.3970 -0.3022
  118MOL0     N16198   4.577   5.412   9.032 -0.2321 -0.3407 -0.0108
  118MOL0     C16199   3.994   5.978   9.787 -0.4773  0.3065 -0.0295
  118MOL0     C16200   3.883   6.022   9.854 -0.3636  0.2521 -0.0547
  118MOL0     C16201   3.577   6.287  10.044 -0.0758  1.1211  0.7890
  118MOL0     C16202   3.552   6.418  10.064  0.1212 -0.6466 -0.0733
  118MOL0     C16203   3.464   6.464  10.162 -0.1547  0.3897  0.4188
  118MOL0     C16204   3.404   6.379  10.250 -1.5873  0.9364  0.0208
  118MOL0     O16205   3.327   6.425  10.354  0.6397  0.1986  0.2303
  118MOL0     C16206   3.242   6.531  10.343  0.3942 -0.8917 -0.5205
  118MOL0     C16207   3.095   6.479  10.316 -0.2865 -0.4793  0.2830
  118MOL0     C16208   3.083   6.485  10.166  0.1432 -0.1564  0.4634
  118MOL0     C16209   2.938   6.443  10.137  0.2924 -1.1068  0.4070
  118MOL0     C16210   2.919   6.466   9.993  0.5966  0.4840  0.1168
  118MOL0     C16211   2.919   6.486   9.870  0.4258  1.0387  0.6256
  118MOL0     C16212   3.421   6.243  10.227  0.6400  1.2308 -0.1029
  118MOL0     C16213   3.500   6.192  10.124  0.1675 -0.9374  0.1742
  118MOL0     C16214   3.503   6.039  10.113  0.6084 -0.0665  0.3829
  118MOL0     H16215   3.706   6.165   9.607  1.6118  3.0982 -0.9358
  118MOL0     H16216   3.878   6.092   9.480 -1.6317 -2.7298 -1.0602
  118MOL0     H16217   4.107   6.020   9.399 -2.4244 -0.5272 -0.1086
  118MOL0     H16218   4.052   5.850   9.426  4.2872 -3.5444 -1.8184
  118MOL0     H16219   4.297   5.787   9.467  1.6556  0.4534 -1.8039
  118MOL0     H16220   4.253   5.835   9.304  2.7845  3.5108 -1.9107
  118MOL0     H16221   4.342   6.069   9.346  1.1752  2.2112  2.4203
  118MOL0     H16222   4.352   6.021   9.516  0.6453  0.9620 -0.3009
  118MOL0     H16223   4.564   6.033   9.418 -0.5087 -0.1200  2.0140
  118MOL0     H16224   4.524   5.870   9.495 -0.2850 -1.6056 -1.3965
  118MOL0     H16225   4.462   5.909   9.199 -0.5597  0.7424 -0.4262
  118MOL0     H16226   4.470   5.770   9.302  0.2406  0.5637  0.0284
  118MOL0     H16227   4.699   5.902   9.155  1.7991 -0.8991 -0.7579
  118MOL0     H16228   4.730   5.818   9.308 -1.9574  0.0045  1.3470
  118MOL0     H16229   4.786   5.666   9.169  0.4113 -0.6932 -0.0165
  118MOL0     H16230   4.666   5.707   9.048  0.4554  2.8760  0.2912
  118MOL0     H16231   4.629   5.560   9.315  0.7690  1.8425 -0.2853
  118MOL0     H16232   4.501   5.603   9.212  0.0420 -0.2960  3.6030
  118MOL0     H16233   4.849   5.400   9.217 -1.2300 -0.0525  0.4725
  118MOL0     H16234   4.937   5.213   9.031 -0.2116  1.0211  0.1635
  118MOL0     H16235   4.852   5.211   8.873  0.9384  1.4346  0.3769
  118MOL0     H16236   4.805   5.036   9.124 -2.2067 -1.1932  0.6378
  118MOL0     H16237   4.701   5.026   8.970  0.2835 -1.1370  1.5099
  118MOL0     H16238   4.881   4.994   8.845 -0.8419 -2.4011 -1.3572
  118MOL0     H16239   4.978   4.950   9.003  0.5691  1.8147 -1.1245
  118MOL0     H16240   4.885   4.761   9.024 -0.9922  2.6915  2.3827
  118MOL0     H16241   4.729   4.818   8.958 -0.0791  3.0886  1.2596
  118MOL0     H16242   4.873   4.658   8.583 -1.1130 -1.2082  1.3395
  118MOL0     H16243   5.097   4.455   8.414 -2.2398 -0.0326 -1.9004
  118MOL0     H16244   5.194   4.603   8.393 -1.4714  0.2162 -1.6947
  118MOL0     H16245   5.017   4.603   8.378  2.7704  0.9262 -3.2015
  118MOL0     H16246   5.469   4.446   8.315 -0.1288 -0.7924  0.6406
  118MOL0     H16247   5.685   4.319   8.240  1.7071 -2.5772  1.3395
  118MOL0     H16248   5.804   4.040   8.327 -1.7028  0.4240 -0.7957
  118MOL0     H16249   5.831   4.156   8.206  0.1565  0.3920  0.8658
  118MOL0     H16250   6.075   4.173   8.272  0.8281 -1.0889 -1.6873
  118MOL0     H16251   6.057   4.027   8.363 -2.2077 -0.3553  0.9921
  118MOL0     H16252   5.937   4.005   8.085 -0.1820  0.1305 -1.0083
  118MOL0     H16253   6.021   3.891   8.188 -0.9908 -1.0520 -0.1077
  118MOL0     H16254   6.226   3.919   8.078 -0.3127  0.8168  3.7943
  118MOL0     H16255   6.213   4.093   8.108 -1.7724 -0.2798  5.3264
  118MOL0     H16256   6.077   4.107   7.901  1.4893  1.4556 -2.1276
  118MOL0     H16257   6.227   4.039   7.864 -1.0175  0.1669 -1.2575
  118MOL0     H16258   6.037   3.814   7.934 -1.1190 -0.1148  1.2728
  118MOL0     H16259   6.151   3.855   7.796 -2.1025 -5.2273  0.1510
  118MOL0     H16260   5.990   3.995   7.697 -0.0931 -0.6660 -1.0244
  118MOL0     H16261   5.887   3.991   7.833  0.1301 -0.1523 -0.4910
  118MOL0     H16262   5.878   3.712   7.785 -0.2181  1.5306  1.1132
  118MOL0     H16263   5.953   3.761   7.633  0.6538  2.1713 -0.4713
  118MOL0     H16264   5.742   4.205   8.637 -1.1955 -0.5548 -0.3592
  118MOL0     H16265   5.493   4.277   8.688 -0.9088  0.1201 -0.1017
  118MOL0     H16266   5.258   4.584   8.871 -0.5520 -0.5641  0.4199
  118MOL0     H16267   5.077   4.704   8.956 -3.5044 -0.4842 -0.0335
  118MOL0     H16268   4.066   5.908   9.829 -1.5530  0.2737  1.9138
  118MOL0     H16269   3.871   5.998   9.959  1.5688  2.3911  0.7539
  118MOL0     H16270   3.625   6.490  10.029  0.0588  0.0322  1.1131
  118MOL0     H16271   3.464   6.571  10.179 -0.8654  0.1716  1.9687
  118MOL0     H16272   3.249   6.585  10.438  1.9074 -2.8767  0.5924
  118MOL0     H16273   3.268   6.611  10.273  0.9409  1.0231  1.7495
  118MOL0     H16274   3.028   6.556  10.356 -1.9793 -0.6549 -2.0493
  118MOL0     H16275   3.074   6.380  10.359 -2.0858  0.0726  0.7388
  118MOL0     H16276   3.099   6.589  10.138 -0.8054  0.7065  2.8533
  118MOL0     H16277   3.154   6.418  10.116 -2.7041 -2.1119 -1.2874
  118MOL0     H16278   2.869   6.508  10.191  1.1315  0.2876 -0.1553
  118MOL0     H16279   2.913   6.343  10.174  2.3394 -0.2991  4.5784
  118MOL0     H16280   2.892   6.515   9.770 -1.5922 -2.5403 -0.0534
  118MOL0     H16281   3.378   6.179  10.304  0.9297  0.3195 -0.6800
  118MOL0     H16282   3.524   5.985  10.206  1.8085 -0.2106  0.0510
  118MOL0     H16283   3.407   6.003  10.073  0.7257  0.5308 -0.4692
  118MOL0     H16284   3.568   5.998  10.034 -2.4858 -2.6427 -1.0571
  119MOL0     O16285   1.380   5.844   5.281  0.5180  0.6588 -0.5136
  119MOL0     C16286   1.313   5.780   5.202 -0.7057 -0.6703  0.4496
  119MOL0     O16287   1.192   5.821   5.158 -0.3045 -0.0031  0.4241
  119MOL0     C16288   1.126   5.919   5.233 -0.5639 -0.3564 -0.1663
  119MOL0     C16289   1.092   5.902   5.367 -0.0424 -1.0180 -0.1982
  119MOL0     C16290   1.008   5.992   5.426 -0.4837  0.4363 -0.1806
  119MOL0     C16291   0.964   6.103   5.356  0.5101  0.0942  0.3942
  119MOL0     O16292   0.910   6.206   5.422  1.0454  0.0592 -0.0278
  119MOL0     C16293   0.807   6.291   5.364  0.2206 -0.6117  0.0004
  119MOL0     C16294   0.675   6.206   5.337 -0.3194 -0.0513 -1.0718
  119MOL0     C16295   0.565   6.301   5.295 -0.1006 -0.0295 -0.0123
  119MOL0     C16296   0.603   6.384   5.171 -0.0510 -0.0640 -0.1058
  119MOL0     C16297   0.496   6.475   5.113  0.4118  0.0801  0.0568
  119MOL0     C16298   0.392   6.403   5.027  0.6936 -0.1271  0.5309
  119MOL0     C16299   0.347   6.502   4.918  1.6780  0.0367  0.1607
  119MOL0     C16300   0.219   6.454   4.847 -0.4410 -0.0262  0.7723
  119MOL0     N16301   0.238   6.325   4.771 -0.4429 -0.5922  0.3944
  119MOL0     C16302   0.227   6.198   4.819  0.3799  0.2983 -0.3022
  119MOL0     C16303   0.253   6.114   4.721 -1.2525  0.4589 -0.2643
  119MOL0     C16304   0.280   5.966   4.752  1.3149 -0.1171 -0.4047
  119MOL0     C16305   0.150   5.906   4.806  0.7781 -0.2083  0.1851
  119MOL0     C16306   0.147   5.759   4.778  0.2213  0.3810  0.2780
  119MOL0     C16307   0.210   5.661   4.877 -0.3128 -0.4594  0.7464
  119MOL0     O16308   0.187   5.689   5.020  0.2587  0.4950  0.1024
  119MOL0     C16309   0.078   5.641   5.087  0.5656  0.2185  0.1345
  119MOL0     C16310  -0.052   5.604   5.029  0.0438 -0.1713  0.8978
  119MOL0     C16311  -0.164   5.562   5.106  0.2316 -1.2613 -0.3430
  119MOL0     C16312  -0.292   5.521   5.047 -0.3795 -0.6982  0.6142
  119MOL0     C16313  -0.150   5.562   5.247  0.9838  0.4153 -0.7726
  119MOL0     C16314  -0.257   5.515   5.345  0.8339  0.0572 -0.3372
  119MOL0     O16315  -0.256   5.568   5.464 -0.1498 -0.6629  0.4436
  119MOL0     C16316  -0.367   5.543   5.543 -0.4993  0.4631  0.5202
  119MOL0     C16317  -0.466   5.644   5.533 -0.0070  0.0976  0.1060
  119MOL0     C16318  -0.576   5.638   5.618 -0.2936  0.2321 -0.0824
  119MOL0     C16319  -0.598   5.520   5.694  0.4703  0.6539  0.3609
  119MOL0     O16320  -0.706   5.504   5.765 -0.2251  0.4158  0.1474
  119MOL0     C16321  -0.803   5.423   5.691  0.3451  0.0290 -0.6498
  119MOL0     C16322  -0.943   5.473   5.742 -0.2791 -0.2881 -0.2491
  119MOL0     C16323  -0.992   5.411   5.872  0.6146 -0.7221  1.0541
  119MOL0     C16324  -0.892   5.434   5.988 -0.6564 -0.5657  0.9195
  119MOL0     C16325  -0.969   5.410   6.111  0.0148  0.8202 -0.6393
  119MOL0     C16326  -0.870   5.451   6.230 -0.0455  0.0575  0.7663
  119MOL0     C16327  -0.943   5.422   6.364 -0.8362  0.1651 -0.0841
  119MOL0     C16328  -1.031   5.293   6.367  0.2156 -0.3656  0.2135
  119MOL0    Cl16329  -0.956   5.134   6.363 -0.3363  0.2313  0.3219
  119MOL0     C16330  -0.501   5.419   5.695  0.8862  0.6835  0.8521
  119MOL0     C16331  -0.380   5.427   5.623  0.4176  0.2754  0.7950
  119MOL0     O16332  -0.327   5.421   5.316 -0.2111 -0.0317  0.1213
  119MOL0     C16333  -0.026   5.599   5.306  0.7034  0.0305 -0.5852
  119MOL0     C16334   0.077   5.644   5.228 -0.3720 -0.8262  0.4724
  119MOL0     N16335   0.301   6.181   4.614 -0.5331 -0.5292  0.5701
  119MOL0     N16336   0.289   6.310   4.645 -0.8932 -0.8114  0.4919
  119MOL0     C16337   0.999   6.113   5.225  0.3923 -0.7746 -0.6640
  119MOL0     C16338   1.083   6.032   5.165  0.2793 -1.0301  0.8429
  119MOL0     C16339   1.348   5.646   5.153 -0.3718 -0.3355  0.3599
  119MOL0     C16340   1.261   5.574   5.069  0.3619 -0.4225  0.8509
  119MOL0     C16341   1.291   5.438   5.024  1.3254  0.9117  0.0211
  119MOL0     C16342   1.409   5.370   5.058  0.8814  0.2743  0.4458
  119MOL0     O16343   1.445   5.246   5.023  0.6588  0.2798 -0.0595
  119MOL0     C16344   1.403   5.186   4.902 -0.4925  0.0667  0.1610
  119MOL0     C16345   1.505   5.075   4.852  0.3862  0.0951  1.2588
  119MOL0     C16346   1.644   5.145   4.857  0.2274 -0.9389 -0.2892
  119MOL0     C16347   1.776   5.079   4.797  0.6854 -0.4000  0.0567
  119MOL0     C16348   1.822   4.977   4.890  0.4550 -0.1205 -0.6545
  119MOL0     C16349   1.871   4.894   4.964  0.5072  0.5588 -0.3302
  119MOL0     C16350   1.490   5.442   5.139 -0.9447  0.3136 -0.9502
  119MOL0     C16351   1.474   5.577   5.177  0.3568  0.5087 -0.1930
  119MOL0     C16352   1.600   5.640   5.230  0.4127  0.9158 -0.2699
  119MOL0     H16353   1.130   5.829   5.438 -1.4408 -0.3787  1.2652
  119MOL0     H16354   0.986   5.974   5.530  0.8154 -0.4779 -0.0349
  119MOL0     H16355   0.844   6.338   5.272  2.6086  1.0698  1.6883
  119MOL0     H16356   0.788   6.379   5.426 -2.1954 -0.6827 -0.5710
  119MOL0     H16357   0.683   6.122   5.268 -1.2353 -0.2717 -0.9207
  119MOL0     H16358   0.660   6.160   5.435 -1.1208 -1.6336 -1.9016
  119MOL0     H16359   0.475   6.241   5.278  0.9142 -2.3269  1.9598
  119MOL0     H16360   0.553   6.371   5.378 -2.9645 -2.7018  2.0648
  119MOL0     H16361   0.693   6.441   5.193  0.9416 -1.5958 -0.0266
  119MOL0     H16362   0.656   6.323   5.097  2.8831 -0.0328  1.7949
  119MOL0     H16363   0.547   6.543   5.044  0.1735  0.5970  0.3891
  119MOL0     H16364   0.462   6.535   5.198  0.7392 -1.4634  1.3236
  119MOL0     H16365   0.412   6.307   4.980 -1.4686 -0.8359  0.9532
  119MOL0     H16366   0.304   6.400   5.092  1.1896  4.1835  1.7445
  119MOL0     H16367   0.428   6.507   4.845  0.0687 -2.0833 -1.9315
  119MOL0     H16368   0.336   6.603   4.958 -0.5316  0.6826 -1.8521
  119MOL0     H16369   0.140   6.430   4.919 -0.4390 -2.9708 -0.0709
  119MOL0     H16370   0.183   6.529   4.777 -0.2505  2.4883  3.2024
  119MOL0     H16371   0.213   6.168   4.923 -0.3617 -3.7729 -1.4059
  119MOL0     H16372   0.362   5.957   4.824  3.7013  2.5812 -2.5079
  119MOL0     H16373   0.303   5.932   4.651 -1.3269  2.5938 -2.1045
  119MOL0     H16374   0.128   5.937   4.908 -1.4072  3.5700 -1.2513
  119MOL0     H16375   0.070   5.946   4.743  2.8804  3.3976 -0.4837
  119MOL0     H16376   0.042   5.730   4.787  0.5430 -2.5829 -3.0506
  119MOL0     H16377   0.180   5.729   4.678  1.2681 -0.1731  0.7684
  119MOL0     H16378   0.194   5.558   4.845 -1.6775  0.5199 -2.0572
  119MOL0     H16379   0.319   5.672   4.873 -0.4122  0.2233 -0.8848
  119MOL0     H16380  -0.060   5.593   4.921 -2.2262  0.4706  0.9696
  119MOL0     H16381  -0.291   5.583   4.957  1.3701  1.4410  2.0060
  119MOL0     H16382  -0.379   5.538   5.112 -1.3211 -1.7110 -0.3272
  119MOL0     H16383  -0.308   5.415   5.023 -2.9816 -0.5501  1.3317
  119MOL0     H16384  -0.454   5.724   5.461  3.1726 -1.9908 -1.9165
  119MOL0     H16385  -0.641   5.724   5.612  0.6021  0.8152 -3.3475
  119MOL0     H16386  -0.786   5.434   5.583 -0.2087 -2.0985 -1.0102
  119MOL0     H16387  -0.801   5.319   5.725 -1.3319 -0.3597 -1.6468
  119MOL0     H16388  -0.936   5.582   5.750 -0.1341 -0.4418  4.1431
  119MOL0     H16389  -1.017   5.438   5.669  1.1474 -1.2756 -1.2696
  119MOL0     H16390  -1.007   5.303   5.862 -2.4342 -0.4423  1.6600
  119MOL0     H16391  -1.092   5.450   5.896 -0.0183 -0.2375 -1.9720
  119MOL0     H16392  -0.856   5.537   5.985 -1.0140 -0.4561  0.0548
  119MOL0     H16393  -0.801   5.376   5.972  0.0890  1.3169 -2.7306
  119MOL0     H16394  -1.056   5.477   6.114  0.4913  1.5384 -2.0918
  119MOL0     H16395  -0.998   5.304   6.107  3.0109 -0.1066  0.0753
  119MOL0     H16396  -0.827   5.552   6.236  1.3527 -0.4998  0.6859
  119MOL0     H16397  -0.784   5.384   6.234  0.0091 -0.0517 -1.1422
  119MOL0     H16398  -1.014   5.497   6.400  1.3033  1.6074  1.3267
  119MOL0     H16399  -0.865   5.411   6.440  0.8634  3.6556 -1.1007
  119MOL0     H16400  -1.106   5.285   6.288 -1.9145 -0.1345  2.1030
  119MOL0     H16401  -1.081   5.309   6.463  1.1626  3.1902  0.2403
  119MOL0     H16402  -0.529   5.328   5.746  0.3322 -0.2667 -1.0296
  119MOL0     H16403  -0.303   5.350   5.622  1.3607  1.2100  0.4029
  119MOL0     H16404  -0.013   5.604   5.414 -1.1977  2.2120 -0.3804
  119MOL0     H16405   0.175   5.649   5.274  1.0321  0.5037 -2.3632
  119MOL0     H16406   0.948   6.194   5.174 -2.2982 -1.8692  0.1068
  119MOL0     H16407   1.108   6.036   5.059 -2.6410 -1.0408  0.0497
  119MOL0     H16408   1.161   5.602   5.038  1.4075 -1.0987 -3.7926
  119MOL0     H16409   1.212   5.392   4.966 -0.1110  2.7418  0.4216
  119MOL0     H16410   1.305   5.142   4.925  0.8185 -1.8279  2.6647
  119MOL0     H16411   1.391   5.260   4.823 -0.7558  0.0095  0.1465
  119MOL0     H16412   1.490   5.055   4.745 -1.9161  4.1033  0.6465
  119MOL0     H16413   1.518   4.998   4.928 -1.9831  0.1548  1.7862
  119MOL0     H16414   1.626   5.241   4.807 -3.7150 -1.9271 -1.0166
  119MOL0     H16415   1.674   5.178   4.957 -0.4772 -2.4296  0.4363
  119MOL0     H16416   1.853   5.154   4.779 -2.1368  2.7504  0.0342
  119MOL0     H16417   1.758   5.046   4.694  2.4926  4.1785 -2.0048
  119MOL0     H16418   1.902   4.819   5.035 -3.3879 -0.9979 -0.0182
  119MOL0     H16419   1.577   5.390   5.175 -1.6353  1.2645  2.4830
  119MOL0     H16420   1.645   5.703   5.153  1.3039 -1.1198 -1.5129
  119MOL0     H16421   1.583   5.698   5.321 -0.3268 -1.2123  1.0227
  119MOL0     H16422   1.674   5.567   5.264 -0.4984 -0.1210 -0.4562
  120MOL0     O16423   9.175  10.478   7.094 -0.3220 -0.7101 -0.1117
  120MOL0     C16424   9.076  10.537   7.060 -0.1957  0.0998  1.1948
  120MOL0     O16425   8.979  10.570   7.146 -0.2884  0.2941 -0.9419
  120MOL0     C16426   8.998  10.535   7.278 -0.0931 -0.5621 -0.4713
  120MOL0     C16427   9.044  10.629   7.367 -0.6475 -0.7113 -1.1636
  120MOL0     C16428   9.048  10.597   7.499  0.3357  0.6583  0.3839
  120MOL0     C16429   8.987  10.481   7.549 -0.2766 -1.0622 -0.2961
  120MOL0     O16430   8.977  10.465   7.689  0.6012 -0.2000  0.2116
  120MOL0     C16431   8.862  10.397   7.740 -0.6981 -0.3183  0.5724
  120MOL0     C16432   8.900  10.329   7.867 -0.1308  0.0135  0.4166
  120MOL0     C16433   8.910  10.183   7.837 -0.0343  0.3867 -0.1035
  120MOL0     C16434   9.038  10.142   7.761  0.0723 -0.4161 -1.0561
  120MOL0     C16435   9.015   9.998   7.709  0.3809  0.1893 -0.5899
  120MOL0     C16436   9.147   9.953   7.646  0.1074 -0.7368 -0.3424
  120MOL0     C16437   9.131   9.819   7.576 -0.3668  0.4654  0.8199
  120MOL0     C16438   9.237   9.797   7.465  0.2719  0.6742 -0.4814
  120MOL0     N16439   9.237   9.657   7.412  0.6924 -1.4001 -0.2691
  120MOL0     C16440   9.140   9.599   7.324 -0.3683  0.0952  0.7439
  120MOL0     C16441   9.156   9.470   7.332 -0.4325  0.8662 -1.1410
  120MOL0     C16442   9.071   9.372   7.255  1.7833  0.0624  0.2099
  120MOL0     C16443   9.016   9.247   7.326 -0.5307 -0.1818  0.4948
  120MOL0     C16444   9.116   9.131   7.305  0.4589 -1.3007 -0.0759
  120MOL0     C16445   9.045   9.014   7.350 -0.0925  0.4818 -0.3415
  120MOL0     O16446   8.923   8.985   7.279 -1.0184  0.4866  0.0918
  120MOL0     C16447   8.853   8.878   7.336 -0.0244 -1.3602  1.0138
  120MOL0     C16448   8.724   8.863   7.284  0.3041 -0.0065  0.4089
  120MOL0     C16449   8.642   8.752   7.314 -0.2769  0.1235 -0.3813
  120MOL0     C16450   8.501   8.756   7.262 -1.1986  0.6439 -0.5007
  120MOL0     C16451   8.690   8.666   7.422 -0.3053  0.0927  0.8662
  120MOL0     C16452   8.619   8.535   7.457  0.0518  0.1809  0.7395
  120MOL0     O16453   8.675   8.458   7.556  0.0321 -0.1524 -0.3300
  120MOL0     C16454   8.607   8.349   7.618 -0.9037  0.1440  0.7414
  120MOL0     C16455   8.508   8.356   7.716 -0.6438 -0.4978 -0.5165
  120MOL0     C16456   8.437   8.240   7.762 -0.4054 -0.0525  0.8452
  120MOL0     C16457   8.468   8.111   7.718  0.7241 -0.0990  0.6925
  120MOL0     O16458   8.384   8.007   7.747  0.1463  0.4633  0.5967
  120MOL0     C16459   8.435   7.871   7.728  0.7656  0.4095 -0.4036
  120MOL0     C16460   8.549   7.816   7.817  0.1969  0.3866  0.1431
  120MOL0     C16461   8.611   7.678   7.768  0.1336  0.0022 -0.4641
  120MOL0     C16462   8.588   7.558   7.856 -0.5161 -0.1388 -0.6542
  120MOL0     C16463   8.442   7.509   7.831  0.0443 -0.1002  0.9142
  120MOL0     C16464   8.367   7.446   7.955  0.6961  0.4839  0.7819
  120MOL0     C16465   8.229   7.389   7.911  0.1514 -0.1746 -0.1710
  120MOL0     C16466   8.173   7.269   7.984 -0.5931 -0.4516  0.8675
  120MOL0    Cl16467   8.300   7.132   7.997  0.0965 -0.0656 -0.0031
  120MOL0     C16468   8.567   8.110   7.617  0.2999 -0.1953 -1.8760
  120MOL0     C16469   8.627   8.218   7.564  0.0647 -1.6370 -0.2445
  120MOL0     O16470   8.508   8.509   7.411  0.0682  0.2889 -0.1593
  120MOL0     C16471   8.819   8.689   7.483  0.5355  0.1278  0.4150
  120MOL0     C16472   8.899   8.787   7.430 -0.0855 -0.4899 -0.6112
  120MOL0     N16473   9.272   9.442   7.424  0.1418 -0.0148  0.3330
  120MOL0     N16474   9.305   9.557   7.468 -0.2899 -0.1520  0.1783
  120MOL0     C16475   8.940  10.386   7.454 -0.0887 -0.1578 -0.4761
  120MOL0     C16476   8.949  10.412   7.320 -0.2887  0.0185 -0.3037
  120MOL0     C16477   9.057  10.554   6.909 -0.0276 -0.0150 -0.4157
  120MOL0     C16478   9.145  10.474   6.836 -0.2297 -0.3008  0.0782
  120MOL0     C16479   9.139  10.462   6.698 -0.3923  0.8516  1.6243
  120MOL0     C16480   9.064  10.550   6.620 -0.1424 -0.0226 -0.2276
  120MOL0     O16481   9.069  10.557   6.483  0.0295 -0.7820 -0.2740
  120MOL0     C16482   9.054  10.425   6.432  0.4286  0.9611 -0.0044
  120MOL0     C16483   9.068  10.429   6.270 -0.8855 -1.2366 -0.2268
  120MOL0     C16484   9.214  10.460   6.209  0.1406 -0.0292  0.2715
  120MOL0     C16485   9.240  10.396   6.075 -0.2637  0.6280  0.2115
  120MOL0     C16486   9.379  10.416   6.041 -0.8340 -0.0720  0.4953
  120MOL0     C16487   9.497  10.427   5.999 -0.2198  0.3215 -0.3611
  120MOL0     C16488   8.961  10.621   6.697  0.4105 -0.2062  0.2505
  120MOL0     C16489   8.953  10.624   6.836 -0.2585  0.9064  0.5117
  120MOL0     C16490   8.841  10.704   6.897 -0.0298 -0.1082  0.9209
  120MOL0     H16491   9.082  10.727   7.343 -0.5419 -0.6400 -0.7188
  120MOL0     H16492   9.082  10.673   7.570 -0.5716 -1.0306  2.7704
  120MOL0     H16493   8.820  10.326   7.668  0.6749  1.4490 -2.1305
  120MOL0     H16494   8.787  10.474   7.761  1.2785  0.7917  4.4348
  120MOL0     H16495   8.990  10.363   7.920 -1.1165  0.8144  1.6185
  120MOL0     H16496   8.824  10.362   7.939  0.6912 -1.1611  1.9049
  120MOL0     H16497   8.897  10.140   7.936 -1.3287  2.8056  0.8571
  120MOL0     H16498   8.829  10.139   7.779  0.1754 -0.2619  0.0973
  120MOL0     H16499   9.055  10.211   7.678 -0.5157 -2.1455 -2.6881
  120MOL0     H16500   9.120  10.160   7.831 -1.0081  0.7914 -0.0669
  120MOL0     H16501   8.943   9.998   7.627  0.5563 -5.0231 -1.0838
  120MOL0     H16502   8.994   9.927   7.789 -0.3997  1.0003 -0.0597
  120MOL0     H16503   9.190  10.021   7.572  1.4917  1.9009  2.6878
  120MOL0     H16504   9.214   9.933   7.730 -0.4066 -1.4768 -0.0948
  120MOL0     H16505   9.032   9.806   7.533  1.3716 -0.1469 -3.5694
  120MOL0     H16506   9.147   9.739   7.649  0.8543 -0.9968 -0.9502
  120MOL0     H16507   9.216   9.868   7.385 -0.4822  0.3020 -0.6192
  120MOL0     H16508   9.335   9.824   7.505 -0.7655  2.8021  0.8266
  120MOL0     H16509   9.054   9.653   7.288  0.4038  0.1319 -1.1379
  120MOL0     H16510   9.139   9.341   7.175  2.4415 -2.9810  1.8058
  120MOL0     H16511   8.981   9.422   7.219  0.1215 -3.1278 -0.3475
  120MOL0     H16512   9.000   9.257   7.434  1.6530 -0.6524  0.9080
  120MOL0     H16513   8.917   9.225   7.285 -1.2624  3.5830 -0.0525
  120MOL0     H16514   9.145   9.127   7.199  0.0818  0.5361 -0.2708
  120MOL0     H16515   9.207   9.140   7.364  0.9825 -1.0030 -0.9111
  120MOL0     H16516   9.114   8.932   7.330  0.1182  0.1030  1.7171
  120MOL0     H16517   9.023   9.025   7.456 -1.8771  0.7999 -0.7164
  120MOL0     H16518   8.690   8.934   7.209  1.3117  0.9790  0.8417
  120MOL0     H16519   8.484   8.685   7.181 -3.2413 -0.9369  1.1977
  120MOL0     H16520   8.479   8.858   7.229  0.9712  1.8413  1.5249
  120MOL0     H16521   8.426   8.741   7.340  0.4426  0.9674  1.2111
  120MOL0     H16522   8.488   8.454   7.759  3.2380 -0.9522  2.9272
  120MOL0     H16523   8.355   8.251   7.832 -3.1241 -1.4034 -1.8733
  120MOL0     H16524   8.344   7.815   7.751  3.5474 -2.5075  6.0711
  120MOL0     H16525   8.456   7.865   7.621 -1.1673  0.5885 -0.8287
  120MOL0     H16526   8.625   7.895   7.822  1.4987 -0.8463  0.4394
  120MOL0     H16527   8.511   7.798   7.918 -0.8823  3.1482  0.3212
  120MOL0     H16528   8.720   7.684   7.757  0.0802  0.9758 -0.5249
  120MOL0     H16529   8.580   7.664   7.664 -2.2933  3.1476 -0.2881
  120MOL0     H16530   8.609   7.584   7.961 -0.3978 -0.3941 -0.6147
  120MOL0     H16531   8.649   7.471   7.830 -1.9497 -1.6709  0.8918
  120MOL0     H16532   8.375   7.588   7.796  1.0669 -0.1210 -1.2802
  120MOL0     H16533   8.446   7.436   7.749  1.6966 -0.2802  1.1268
  120MOL0     H16534   8.335   7.505   8.041 -3.4257 -0.2691  0.0125
  120MOL0     H16535   8.419   7.356   7.991  1.4008 -0.0520 -1.4415
  120MOL0     H16536   8.231   7.367   7.804 -0.4027  1.5297 -0.5703
  120MOL0     H16537   8.153   7.467   7.910 -0.4125 -0.6800 -2.8478
  120MOL0     H16538   8.082   7.241   7.930 -0.3633 -0.0046  0.2411
  120MOL0     H16539   8.157   7.296   8.089  0.1117 -1.5933  1.2858
  120MOL0     H16540   8.588   8.017   7.565 -2.2836 -0.9459 -1.7674
  120MOL0     H16541   8.698   8.202   7.483 -0.0652 -1.9340 -0.3026
  120MOL0     H16542   8.842   8.622   7.565 -2.5673  1.4773  2.5889
  120MOL0     H16543   9.000   8.800   7.469  0.1548 -1.0110 -1.0441
  120MOL0     H16544   8.910  10.284   7.473 -2.3168  0.8478  2.0886
  120MOL0     H16545   8.901  10.347   7.247 -2.3680  3.4149 -2.1994
  120MOL0     H16546   9.230  10.416   6.871  3.2976  1.8195 -4.0868
  120MOL0     H16547   9.222  10.398   6.668 -0.2852  0.7663  2.0906
  120MOL0     H16548   9.122  10.348   6.469 -0.2595  1.0615  1.5543
  120MOL0     H16549   8.956  10.380   6.452  0.9054  0.8687  2.4916
  120MOL0     H16550   9.006  10.512   6.235 -1.0024 -1.5670 -0.8365
  120MOL0     H16551   9.034  10.335   6.224 -2.8021  0.3499 -2.3184
  120MOL0     H16552   9.215  10.568   6.193 -1.6597 -0.1433 -0.9340
  120MOL0     H16553   9.287  10.428   6.284  2.1488 -1.2969 -2.0776
  120MOL0     H16554   9.171  10.445   6.006 -0.3247 -0.3658 -0.4520
  120MOL0     H16555   9.212  10.291   6.085 -1.1209  0.6912 -1.2985
  120MOL0     H16556   9.590  10.434   5.946  1.4031 -0.8692  2.1265
  120MOL0     H16557   8.889  10.677   6.638  1.4695 -0.2695 -1.1298
  120MOL0     H16558   8.866  10.811   6.907  2.7300 -0.7618  2.1424
  120MOL0     H16559   8.742  10.693   6.853 -0.1639 -3.7794  1.8188
  120MOL0     H16560   8.830  10.668   7.000  0.4168  3.6727  2.4782
  121MOL0     O16561   0.883   4.694  11.498 -0.3038 -0.4335 -0.4320
  121MOL0     C16562   0.985   4.733  11.546 -0.9484 -0.8661  0.3451
  121MOL0     O16563   1.050   4.676  11.653  0.0476 -0.0642 -0.3091
  121MOL0     C16564   1.066   4.540  11.650  0.3597 -1.1111  0.3433
  121MOL0     C16565   0.987   4.463  11.730  0.3329  0.2021 -1.0739
  121MOL0     C16566   0.992   4.322  11.726  0.8063  0.1143  0.1963
  121MOL0     C16567   1.097   4.261  11.661 -0.6049  0.5314 -0.5437
  121MOL0     O16568   1.117   4.125  11.652  1.1349 -0.2209  0.6213
  121MOL0     C16569   1.018   4.034  11.707 -0.5620  0.3574 -0.3371
  121MOL0     C16570   1.041   3.883  11.684 -0.6598  1.1065 -0.3622
  121MOL0     C16571   0.922   3.810  11.752 -0.6870 -0.1523 -0.4968
  121MOL0     C16572   0.935   3.667  11.716  1.1377 -0.2361  0.6555
  121MOL0     C16573   1.055   3.612  11.797  0.0796 -0.4458 -0.8272
  121MOL0     C16574   1.182   3.583  11.714  0.4103  0.4875 -0.3396
  121MOL0     C16575   1.306   3.602  11.811 -0.0110 -0.4603 -0.5533
  121MOL0     C16576   1.417   3.513  11.756  0.5322  0.0961 -0.1977
  121MOL0     N16577   1.410   3.378  11.827  0.4109  0.2672 -0.2161
  121MOL0     C16578   1.467   3.337  11.948  0.2209  0.1177  0.7535
  121MOL0     C16579   1.421   3.217  11.958 -0.3007 -1.0264  0.6385
  121MOL0     C16580   1.456   3.136  12.081 -0.0171 -0.1616 -0.3778
  121MOL0     C16581   1.527   3.007  12.039  0.1240 -0.2609 -0.2184
  121MOL0     C16582   1.675   3.040  12.012  0.7243 -0.3326 -0.2656
  121MOL0     C16583   1.773   2.933  11.958  0.4524 -0.3274 -0.2523
  121MOL0     O16584   1.739   2.901  11.825  0.0933 -0.2813  0.1367
  121MOL0     C16585   1.782   2.782  11.772  0.3990 -0.1620 -0.1900
  121MOL0     C16586   1.750   2.733  11.645 -0.0731  0.7669 -0.7834
  121MOL0     C16587   1.813   2.629  11.580 -0.2872 -0.4427 -0.1183
  121MOL0     C16588   1.771   2.598  11.437 -0.4688 -0.6923  0.2868
  121MOL0     C16589   1.924   2.565  11.642 -0.0020 -0.4405  0.5193
  121MOL0     C16590   1.996   2.445  11.591  1.2233 -1.0546  0.3002
  121MOL0     O16591   2.128   2.468  11.590 -0.6358 -0.0260 -0.1929
  121MOL0     C16592   2.201   2.407  11.492  0.4936  0.1109 -0.1907
  121MOL0     C16593   2.332   2.388  11.533  0.7472 -0.0017  0.2010
  121MOL0     C16594   2.426   2.329  11.443  1.3189 -0.5029  0.0429
  121MOL0     C16595   2.384   2.287  11.316  0.6972  0.5418  0.5283
  121MOL0     O16596   2.482   2.233  11.238 -0.8288  0.0175  0.2335
  121MOL0     C16597   2.478   2.267  11.104  0.2243  0.5599  0.1003
  121MOL0     C16598   2.587   2.373  11.075 -0.0899  0.2877  0.0517
  121MOL0     C16599   2.697   2.293  11.004  0.0669 -0.6829 -0.3885
  121MOL0     C16600   2.820   2.387  10.991 -0.4843  0.9118 -0.7016
  121MOL0     C16601   2.945   2.303  10.957 -0.2236  1.0664  0.4848
  121MOL0     C16602   2.944   2.243  10.807 -0.1743 -1.2064  0.0403
  121MOL0     C16603   3.081   2.171  10.769  0.4953  0.2827 -0.3879
  121MOL0     C16604   3.079   2.117  10.630  0.3678 -0.2429 -0.8691
  121MOL0    Cl16605   2.920   2.032  10.602 -0.3002  0.0658 -0.2835
  121MOL0     C16606   2.248   2.297  11.277 -0.0942  0.1256  0.4679
  121MOL0     C16607   2.157   2.352  11.367  0.8572 -0.5178 -0.0979
  121MOL0     O16608   1.941   2.339  11.570 -0.2444  0.0391  0.2741
  121MOL0     C16609   1.945   2.600  11.777  0.2994  0.2292 -0.0072
  121MOL0     C16610   1.877   2.700  11.840 -0.3009 -0.5512  0.1767
  121MOL0     N16611   1.321   3.183  11.864  0.0759  0.4703 -0.3569
  121MOL0     N16612   1.321   3.274  11.784  0.3739  0.0297  0.1969
  121MOL0     C16613   1.181   4.340  11.582 -0.0566  0.3038 -0.0568
  121MOL0     C16614   1.168   4.478  11.586  0.0600 -0.2448  1.1741
  121MOL0     C16615   1.049   4.856  11.484 -0.6059  0.1332 -0.6452
  121MOL0     C16616   1.033   4.882  11.347  0.0046 -0.1243  0.6429
  121MOL0     C16617   1.094   4.977  11.269  0.2549 -0.4659 -0.1895
  121MOL0     C16618   1.177   5.064  11.348  1.1299  0.6457 -0.1926
  121MOL0     O16619   1.231   5.171  11.285 -0.2910  0.3341 -0.2646
  121MOL0     C16620   1.373   5.177  11.311  0.1606  0.5807  0.2020
  121MOL0     C16621   1.432   5.287  11.227 -0.3324  0.4700 -0.2676
  121MOL0     C16622   1.388   5.421  11.270  0.2082 -0.4711  1.0141
  121MOL0     C16623   1.437   5.534  11.179 -0.5992  0.5606 -0.5392
  121MOL0     C16624   1.436   5.667  11.237 -0.0802  0.7338 -0.4591
  121MOL0     C16625   1.441   5.780  11.265 -0.0005 -0.1672  0.4085
  121MOL0     C16626   1.188   5.052  11.487  0.2544  0.5196  0.2642
  121MOL0     C16627   1.127   4.947  11.554  0.0985  0.1008  0.0789
  121MOL0     C16628   1.169   4.938  11.693  0.5046  1.0309 -0.7515
  121MOL0     H16629   0.913   4.522  11.783 -0.1306  0.1020 -1.6028
  121MOL0     H16630   0.924   4.261  11.785 -0.1601  0.9235 -0.0501
  121MOL0     H16631   0.924   4.059  11.656  0.9517  3.5154 -1.8940
  121MOL0     H16632   1.004   4.068  11.810  0.2162 -3.5526  1.2150
  121MOL0     H16633   1.043   3.860  11.577  0.4127  0.6648 -0.2539
  121MOL0     H16634   1.140   3.856  11.721 -1.8550  0.0739  2.3502
  121MOL0     H16635   0.927   3.829  11.860  1.6308 -2.4355 -0.1082
  121MOL0     H16636   0.831   3.857  11.714 -0.7700  2.1415  2.2155
  121MOL0     H16637   0.843   3.630  11.762  0.9734  1.4119  1.7156
  121MOL0     H16638   0.936   3.642  11.609 -1.1422  0.9153  0.2966
  121MOL0     H16639   1.026   3.516  11.842  2.8561 -0.1810  1.8407
  121MOL0     H16640   1.075   3.685  11.875  1.2751 -1.7582  0.1363
  121MOL0     H16641   1.185   3.479  11.680  3.1497  0.2018  0.4982
  121MOL0     H16642   1.207   3.651  11.633  1.0207  0.9296  0.2054
  121MOL0     H16643   1.271   3.575  11.911 -0.9798  1.9563 -0.1766
  121MOL0     H16644   1.346   3.702  11.826 -0.6314  0.0323 -1.9891
  121MOL0     H16645   1.407   3.500  11.648  1.4406  2.2310 -0.6073
  121MOL0     H16646   1.517   3.554  11.770  0.4620  0.4218 -0.6131
  121MOL0     H16647   1.528   3.389  12.021  0.2215  1.6009 -0.2364
  121MOL0     H16648   1.372   3.121  12.149 -1.9388  2.1955 -2.0660
  121MOL0     H16649   1.529   3.188  12.144  1.6314 -1.9448 -0.6982
  121MOL0     H16650   1.527   2.949  12.131 -2.1966  0.7764  0.5039
  121MOL0     H16651   1.471   2.950  11.964 -0.4571 -0.0751  0.0701
  121MOL0     H16652   1.670   3.128  11.946  2.2921  1.6641  2.1203
  121MOL0     H16653   1.715   3.069  12.109 -2.2935 -4.2583  2.4496
  121MOL0     H16654   1.877   2.967  11.947  0.9746 -2.5005 -3.4530
  121MOL0     H16655   1.772   2.849  12.028  5.6080 -0.3399  0.2512
  121MOL0     H16656   1.672   2.792  11.597  0.4465 -0.5401 -3.4121
  121MOL0     H16657   1.729   2.684  11.383  0.2793 -2.0963 -2.7234
  121MOL0     H16658   1.688   2.530  11.460 -1.1922  0.5287  1.4466
  121MOL0     H16659   1.839   2.549  11.367 -1.9318  1.6506 -3.0479
  121MOL0     H16660   2.356   2.427  11.631  0.0778 -0.7903  0.6986
  121MOL0     H16661   2.531   2.321  11.471  0.7741  0.2767  2.5192
  121MOL0     H16662   2.493   2.175  11.046  0.0771 -0.0225  0.9594
  121MOL0     H16663   2.381   2.306  11.073 -1.6073 -0.3845  4.0148
  121MOL0     H16664   2.543   2.451  11.012  4.4656  1.1699 -2.4933
  121MOL0     H16665   2.622   2.413  11.170 -1.1821  1.1713  0.1043
  121MOL0     H16666   2.671   2.268  10.900  0.4718 -1.4816 -0.3095
  121MOL0     H16667   2.726   2.203  11.058  0.8105 -0.5124 -0.4848
  121MOL0     H16668   2.841   2.443  11.083 -1.2292  4.2448 -2.4230
  121MOL0     H16669   2.801   2.460  10.912 -1.6852 -1.3645 -2.6544
  121MOL0     H16670   3.035   2.365  10.961  0.6788  0.0461 -1.9244
  121MOL0     H16671   2.955   2.221  11.028  1.6876 -0.7887 -1.7566
  121MOL0     H16672   2.937   2.329  10.739 -1.2481 -2.4980 -1.5492
  121MOL0     H16673   2.853   2.186  10.789 -1.8212  1.0138  0.8328
  121MOL0     H16674   3.097   2.091  10.842  1.3258  1.3817  0.6813
  121MOL0     H16675   3.170   2.232  10.792 -2.0528  4.2173  0.0731
  121MOL0     H16676   3.154   2.038  10.617  0.9772  0.1777  0.0117
  121MOL0     H16677   3.109   2.196  10.561  5.4712 -0.8958  0.1929
  121MOL0     H16678   2.216   2.281  11.175  3.4030 -2.4291 -0.4296
  121MOL0     H16679   2.050   2.361  11.350  0.8261  1.3555  0.7907
  121MOL0     H16680   2.025   2.548  11.828 -0.1956 -0.2691  0.2817
  121MOL0     H16681   1.892   2.704  11.948 -0.1639  1.1404  0.1161
  121MOL0     H16682   1.261   4.290  11.529 -1.4957  0.1772 -2.2058
  121MOL0     H16683   1.238   4.538  11.528  0.4637  0.6307  2.4887
  121MOL0     H16684   0.961   4.822  11.292 -2.1382  1.1471  1.9246
  121MOL0     H16685   1.069   4.990  11.164 -0.5836  0.8537  0.1466
  121MOL0     H16686   1.399   5.195  11.416 -0.8541  2.2913  0.1825
  121MOL0     H16687   1.423   5.085  11.278 -0.5335 -0.0744  0.9343
  121MOL0     H16688   1.414   5.265  11.121  0.9966  0.2920 -0.4802
  121MOL0     H16689   1.542   5.289  11.223 -0.2222  1.3733  1.8780
  121MOL0     H16690   1.279   5.413  11.269  0.0637  1.2370  0.5707
  121MOL0     H16691   1.426   5.444  11.370 -0.3599  1.8814  0.7318
  121MOL0     H16692   1.378   5.527  11.087  0.6050 -0.3384 -1.2657
  121MOL0     H16693   1.540   5.506  11.157 -0.8373  0.4677 -1.5935
  121MOL0     H16694   1.458   5.882  11.293  1.0337  0.1506 -1.2174
  121MOL0     H16695   1.267   5.114  11.529  2.8660 -0.7871 -2.3341
  121MOL0     H16696   1.213   4.842  11.722 -1.3146  0.7067  1.1625
  121MOL0     H16697   1.238   5.021  11.711 -1.0776  1.8740  1.9853
  121MOL0     H16698   1.076   4.961  11.745  0.5376  2.1342 -1.1585
  122MOL0     O16699   1.575   0.559   8.784  0.7578  0.3661  0.4701
  122MOL0     C16700   1.600   0.472   8.696  0.1614 -0.2547 -0.4697
  122MOL0     O16701   1.570   0.339   8.713  0.3216 -0.6396  0.1583
  122MOL0     C16702   1.523   0.295   8.832  0.5483 -0.2201 -0.0624
  122MOL0     C16703   1.389   0.282   8.844  0.5623 -0.6755 -0.3689
  122MOL0     C16704   1.336   0.226   8.958 -0.0273  0.4381  0.2639
  122MOL0     C16705   1.408   0.197   9.076  0.4407 -0.1454  1.0010
  122MOL0     O16706   1.344   0.144   9.182 -0.5179  0.3879 -0.3323
  122MOL0     C16707   1.422   0.041   9.255  0.3315  0.4967 -0.7943
  122MOL0     C16708   1.347  -0.064   9.341 -0.5788  0.4755  0.3481
  122MOL0     C16709   1.264   0.002   9.444  0.4962  0.1507  1.1441
  122MOL0     C16710   1.212  -0.096   9.546  0.3465 -0.7690 -0.6410
  122MOL0     C16711   1.147  -0.031   9.669  0.9741  0.0668 -0.1906
  122MOL0     C16712   1.043  -0.125   9.729 -1.1833 -0.8768  0.0191
  122MOL0     C16713   0.963  -0.044   9.830  0.0896 -0.6587 -0.0524
  122MOL0     C16714   0.861  -0.118   9.919 -0.9895  0.0998 -1.1392
  122MOL0     N16715   0.776  -0.026  10.005 -0.7969 -1.0503 -0.9966
  122MOL0     C16716   0.640  -0.039  10.029  0.2718 -0.9722  0.4988
  122MOL0     C16717   0.603   0.072  10.102  0.0518 -0.6561  0.1865
  122MOL0     C16718   0.474   0.106  10.161 -0.0646  0.0033  0.9845
  122MOL0     C16719   0.399  -0.016  10.216 -0.0382  0.2973  0.3086
  122MOL0     C16720   0.268  -0.052  10.127  0.7814  0.8908  0.6000
  122MOL0     C16721   0.304  -0.135  10.011 -0.3235 -0.3555 -1.2485
  122MOL0     O16722   0.199  -0.217   9.969  0.8365 -0.3050 -0.6865
  122MOL0     C16723   0.155  -0.203   9.835 -0.4015  0.0554 -0.4005
  122MOL0     C16724   0.167  -0.082   9.760 -0.8721  0.0408 -0.1887
  122MOL0     C16725   0.125  -0.081   9.623  0.6056 -1.0422  0.3600
  122MOL0     C16726   0.164   0.046   9.537  0.2655  0.6566 -0.0794
  122MOL0     C16727   0.059  -0.200   9.568 -0.3113 -0.6404 -0.1637
  122MOL0     C16728   0.005  -0.200   9.425 -0.6606 -0.7646 -0.1646
  122MOL0     O16729   0.034  -0.310   9.351 -0.3511 -0.1917 -0.7128
  122MOL0     C16730  -0.010  -0.334   9.217 -0.7263 -0.1697  0.0605
  122MOL0     C16731   0.039  -0.458   9.173 -0.1996  0.0611 -0.3106
  122MOL0     C16732   0.002  -0.510   9.046  0.0343 -1.0093 -0.9244
  122MOL0     C16733  -0.093  -0.441   8.969 -0.5751  0.8451 -0.2239
  122MOL0     O16734  -0.117  -0.471   8.834 -0.9310  0.1444  0.2037
  122MOL0     C16735  -0.018  -0.539   8.765  0.2047  0.1988  0.4626
  122MOL0     C16736  -0.025  -0.474   8.625  0.3846 -0.0308  0.6603
  122MOL0     C16737   0.068  -0.556   8.526  0.2011  1.1857 -0.7312
  122MOL0     C16738   0.223  -0.531   8.547  0.2525 -0.8058 -0.9910
  122MOL0     C16739   0.301  -0.596   8.445 -0.5862  0.6841  0.0549
  122MOL0     C16740   0.449  -0.606   8.466  0.7926  0.4905 -0.7242
  122MOL0     C16741   0.489  -0.657   8.601  0.9794 -0.4434  0.0942
  122MOL0     C16742   0.631  -0.684   8.608 -0.2644  0.5998  0.0890
  122MOL0    Cl16743   0.729  -0.538   8.629 -0.0381 -0.1770  0.1671
  122MOL0     C16744  -0.148  -0.324   9.016 -0.7694  0.0288  0.7467
  122MOL0     C16745  -0.106  -0.272   9.141 -0.2383 -0.7190  0.3303
  122MOL0     O16746  -0.035  -0.094   9.381 -0.3972  0.2154 -0.3109
  122MOL0     C16747   0.043  -0.313   9.648 -0.9509  0.1339 -0.5601
  122MOL0     C16748   0.097  -0.316   9.777 -1.0696  0.2093 -0.6262
  122MOL0     N16749   0.720   0.152  10.107  0.0755 -0.0866 -0.0970
  122MOL0     N16750   0.819   0.083  10.064 -0.5525 -0.3000  0.6655
  122MOL0     C16751   1.549   0.211   9.060 -0.1662 -0.4096  0.0972
  122MOL0     C16752   1.600   0.262   8.937 -0.2019  0.1339 -0.3555
  122MOL0     C16753   1.672   0.520   8.575  0.4615 -0.3985 -0.7964
  122MOL0     C16754   1.731   0.650   8.584 -0.4900 -0.4989 -0.5795
  122MOL0     C16755   1.800   0.707   8.486 -0.1455  0.6956  1.2617
  122MOL0     C16756   1.806   0.645   8.359 -0.1995 -1.2143 -0.3080
  122MOL0     O16757   1.868   0.724   8.269  0.0540  0.5301 -0.0421
  122MOL0     C16758   1.915   0.642   8.150  0.8549  0.0775 -0.6952
  122MOL0     C16759   2.005   0.729   8.065  1.0350 -0.3928  0.8814
  122MOL0     C16760   1.935   0.859   8.010  0.4465  0.3120  0.4195
  122MOL0     C16761   2.012   0.935   7.902 -0.2141 -0.1953  0.4455
  122MOL0     C16762   1.939   1.053   7.861 -1.4456 -0.0160 -0.6859
  122MOL0     C16763   1.884   1.160   7.840  0.0096 -0.0532 -0.8258
  122MOL0     C16764   1.743   0.523   8.342 -1.3703  0.4907  0.3638
  122MOL0     C16765   1.680   0.459   8.447  0.6990 -0.5626 -0.5880
  122MOL0     C16766   1.632   0.322   8.436 -0.0745  0.0980 -0.8459
  122MOL0     H16767   1.319   0.278   8.761  0.4663  0.5730 -0.3681
  122MOL0     H16768   1.239   0.179   8.948 -0.0107  0.4757 -0.1105
  122MOL0     H16769   1.490   0.093   9.324  1.3995  2.6199 -3.2474
  122MOL0     H16770   1.482  -0.025   9.192 -0.5055 -0.8434 -0.2269
  122MOL0     H16771   1.286  -0.130   9.279  0.9616 -0.5892 -0.0880
  122MOL0     H16772   1.422  -0.126   9.391 -0.4513  1.9946  2.1548
  122MOL0     H16773   1.324   0.077   9.496  0.5525  0.5271  0.5402
  122MOL0     H16774   1.187   0.055   9.386  2.3781  1.1387 -0.5793
  122MOL0     H16775   1.131  -0.142   9.489  1.0282 -1.0616 -1.3873
  122MOL0     H16776   1.296  -0.159   9.578 -1.0867 -1.1141  2.8343
  122MOL0     H16777   1.104   0.064   9.637 -2.5013 -1.0160  0.8225
  122MOL0     H16778   1.228  -0.001   9.737  1.5088  0.2197 -0.8807
  122MOL0     H16779   0.980  -0.170   9.651  1.2676  0.9083 -3.2105
  122MOL0     H16780   1.102  -0.202   9.779  0.9862  0.7060  0.0523
  122MOL0     H16781   0.906   0.032   9.777  0.9475 -0.4028 -0.6268
  122MOL0     H16782   1.033   0.005   9.898  0.5077 -1.0692 -0.1810
  122MOL0     H16783   0.796  -0.184   9.860  0.5368 -0.9076 -1.7546
  122MOL0     H16784   0.924  -0.176   9.987  1.2302  1.6562 -1.7559
  122MOL0     H16785   0.581  -0.127  10.008 -0.8371 -0.6701  2.1702
  122MOL0     H16786   0.411   0.146  10.081  1.2310 -1.5028 -0.8881
  122MOL0     H16787   0.486   0.178  10.243 -2.5644  1.2257  0.3794
  122MOL0     H16788   0.472  -0.098  10.224  0.9698  1.3490  2.7855
  122MOL0     H16789   0.356   0.009  10.313 -2.0674  1.5850 -0.8472
  122MOL0     H16790   0.209  -0.115  10.195 -0.7188  1.3517 -0.2339
  122MOL0     H16791   0.203   0.030  10.097 -2.5772 -1.8437 -0.1670
  122MOL0     H16792   0.337  -0.074   9.927 -0.9804  2.2450  0.2883
  122MOL0     H16793   0.385  -0.206  10.031 -1.9844 -1.9622  0.1896
  122MOL0     H16794   0.232   0.002   9.779  0.6280 -0.8217 -1.2972
  122MOL0     H16795   0.255   0.093   9.572  0.7469  0.8284 -1.4757
  122MOL0     H16796   0.082   0.117   9.519  1.1528  1.7388  0.0959
  122MOL0     H16797   0.186   0.007   9.437 -1.5229  0.3109 -0.3783
  122MOL0     H16798   0.119  -0.509   9.227 -1.6030 -2.6409 -0.5840
  122MOL0     H16799   0.043  -0.605   9.014 -0.4458 -0.1149 -4.6357
  122MOL0     H16800   0.082  -0.545   8.808  0.2663  2.0799  0.6501
  122MOL0     H16801  -0.072  -0.634   8.763 -1.2156  0.9776  0.7861
  122MOL0     H16802  -0.123  -0.500   8.584 -0.4749  2.1467  1.1905
  122MOL0     H16803   0.009  -0.372   8.611  1.5025 -0.6425 -1.4627
  122MOL0     H16804   0.048  -0.518   8.425  0.9234  2.7406 -0.3158
  122MOL0     H16805   0.054  -0.663   8.539  0.9124  1.1952  0.2096
  122MOL0     H16806   0.232  -0.584   8.642 -2.8055 -2.1495 -1.3456
  122MOL0     H16807   0.234  -0.423   8.554 -2.1939 -0.4762 -1.4672
  122MOL0     H16808   0.265  -0.699   8.440 -0.7773  0.5776  2.3562
  122MOL0     H16809   0.289  -0.546   8.349  0.8497 -1.6725 -1.4490
  122MOL0     H16810   0.503  -0.511   8.458 -0.8218  1.4306 -0.9884
  122MOL0     H16811   0.497  -0.669   8.391 -1.1198 -1.6227 -0.2606
  122MOL0     H16812   0.440  -0.754   8.607 -0.1852  0.0695 -0.7532
  122MOL0     H16813   0.457  -0.583   8.676  0.6180 -0.1295 -0.3641
  122MOL0     H16814   0.664  -0.743   8.522 -1.4424  0.9006 -0.6003
  122MOL0     H16815   0.652  -0.737   8.701 -3.1381  1.1320  1.1385
  122MOL0     H16816  -0.213  -0.268   8.950  0.1685 -0.0654 -0.2833
  122MOL0     H16817  -0.148  -0.175   9.168 -1.0671 -0.9104 -0.2503
  122MOL0     H16818  -0.011  -0.403   9.622  1.0404 -0.6152 -2.4160
  122MOL0     H16819   0.085  -0.405   9.837  0.2391  0.7336  0.4583
  122MOL0     H16820   1.621   0.170   9.131 -0.6837 -1.7981 -0.1631
  122MOL0     H16821   1.707   0.273   8.928  0.1140  0.6075  2.8250
  122MOL0     H16822   1.725   0.699   8.681 -0.3880 -0.1236 -0.7596
  122MOL0     H16823   1.857   0.797   8.506  2.6541 -0.5210 -0.6130
  122MOL0     H16824   1.965   0.548   8.176 -0.5115 -0.2327  0.9323
  122MOL0     H16825   1.824   0.618   8.095  0.1951  1.3596 -0.2080
  122MOL0     H16826   2.022   0.663   7.979  2.4627  1.0561  0.0002
  122MOL0     H16827   2.097   0.748   8.120 -0.3958 -1.5607  3.8733
  122MOL0     H16828   1.848   0.822   7.955  0.5396 -1.1014  1.1817
  122MOL0     H16829   1.908   0.932   8.087 -1.9919  0.3568 -0.3786
  122MOL0     H16830   2.037   0.870   7.818 -0.5040  0.2157  0.0384
  122MOL0     H16831   2.109   0.955   7.949  0.0059 -0.6897  0.2050
  122MOL0     H16832   1.838   1.257   7.844  0.2035  0.0144  0.2952
  122MOL0     H16833   1.744   0.462   8.252 -1.8137 -0.3285  0.9101
  122MOL0     H16834   1.680   0.254   8.507  1.8957 -0.1197 -2.3049
  122MOL0     H16835   1.524   0.304   8.435 -0.4162  0.6698  3.7071
  122MOL0     H16836   1.672   0.292   8.339  4.8461  0.2664  0.8153
  123MOL0     O16837   8.936   7.477   5.968  0.0632  0.0393  0.1534
  123MOL0     C16838   8.822   7.433   5.931  0.1293  0.6528 -0.7076
  123MOL0     O16839   8.742   7.492   5.854 -0.1976  0.1082  0.5946
  123MOL0     C16840   8.755   7.619   5.829 -0.5190 -0.1812  1.3211
  123MOL0     C16841   8.816   7.664   5.707 -0.5453 -0.7089 -0.6566
  123MOL0     C16842   8.822   7.800   5.661  0.7971 -0.3992 -0.2658
  123MOL0     C16843   8.775   7.904   5.747  0.5120  0.1082  0.3436
  123MOL0     O16844   8.765   8.031   5.710 -0.4000  0.4963  0.1610
  123MOL0     C16845   8.721   8.053   5.573 -0.2113  0.3274 -0.4820
  123MOL0     C16846   8.715   8.202   5.551  0.4198  0.4924  0.2347
  123MOL0     C16847   8.650   8.226   5.412 -0.0675 -0.1632 -0.3095
  123MOL0     C16848   8.640   8.375   5.368 -0.2460 -0.7270  0.8181
  123MOL0     C16849   8.603   8.478   5.473 -0.3755 -0.3059 -0.7973
  123MOL0     C16850   8.481   8.455   5.562 -0.2892 -0.1523  0.8977
  123MOL0     C16851   8.470   8.577   5.652 -1.3907  0.3739  0.4742
  123MOL0     C16852   8.339   8.574   5.737 -0.7949 -0.1880 -0.4761
  123MOL0     N16853   8.340   8.650   5.861 -0.0766  0.4288  0.2162
  123MOL0     C16854   8.417   8.621   5.966 -0.0887 -0.0080 -0.8267
  123MOL0     C16855   8.371   8.712   6.056  0.1874  0.8395  0.1238
  123MOL0     C16856   8.406   8.712   6.199  0.7639  0.2722  1.1444
  123MOL0     C16857   8.312   8.635   6.287  0.7223  0.4430  0.0748
  123MOL0     C16858   8.347   8.631   6.433 -0.3409 -0.1439 -0.1315
  123MOL0     C16859   8.230   8.582   6.514  0.1809  0.5011  0.0409
  123MOL0     O16860   8.195   8.446   6.473  0.3339  0.7795 -0.1180
  123MOL0     C16861   8.080   8.393   6.540  0.1686 -1.0604  0.5466
  123MOL0     C16862   8.099   8.364   6.672 -0.0793  0.1146 -0.8649
  123MOL0     C16863   7.997   8.307   6.737  0.0424 -0.1073  0.4748
  123MOL0     C16864   8.029   8.287   6.888 -0.6350 -0.3114  0.3002
  123MOL0     C16865   7.872   8.275   6.678 -1.4441 -0.5284  0.7535
  123MOL0     C16866   7.755   8.216   6.745 -0.3817 -0.1473  0.0590
  123MOL0     O16867   7.680   8.137   6.673  0.0234  0.8758  0.1543
  123MOL0     C16868   7.594   8.050   6.745  0.0748 -0.3611  1.4772
  123MOL0     C16869   7.642   7.979   6.864  0.4450  0.1466  0.7461
  123MOL0     C16870   7.555   7.888   6.924 -0.1031 -0.8546 -0.0294
  123MOL0     C16871   7.428   7.861   6.872 -0.7415  0.0316  0.1416
  123MOL0     O16872   7.331   7.763   6.910 -0.0041 -0.0467  0.0520
  123MOL0     C16873   7.380   7.691   7.029  0.2395  0.9463  0.4967
  123MOL0     C16874   7.260   7.630   7.097 -0.9776 -0.4448 -0.2900
  123MOL0     C16875   7.173   7.745   7.141  0.0317  0.6060  0.0629
  123MOL0     C16876   7.061   7.702   7.238 -0.1882 -0.4880  0.1411
  123MOL0     C16877   6.990   7.832   7.285  0.7157  0.2350  0.1657
  123MOL0     C16878   6.885   7.783   7.393 -0.3400 -0.6542 -0.2301
  123MOL0     C16879   6.894   7.849   7.526 -1.2880 -0.4108  0.3506
  123MOL0     C16880   7.010   7.772   7.599  0.5411  0.5496 -0.2802
  123MOL0    Cl16881   6.976   7.790   7.775  0.0170 -0.5154 -0.4478
  123MOL0     C16882   7.389   7.925   6.753 -0.1079 -0.1823 -0.5649
  123MOL0     C16883   7.473   8.024   6.694  0.1354  0.1116  0.3504
  123MOL0     O16884   7.734   8.254   6.853 -0.2687 -0.4146  0.0043
  123MOL0     C16885   7.858   8.308   6.546 -0.4410  0.3424 -0.1000
  123MOL0     C16886   7.964   8.366   6.473 -0.3034 -1.5292 -0.0601
  123MOL0     N16887   8.265   8.785   6.014 -0.7140 -0.4440  0.3178
  123MOL0     N16888   8.251   8.743   5.901  0.2912  0.1448 -0.5273
  123MOL0     C16889   8.721   7.859   5.870 -0.4378  0.6213 -0.7419
  123MOL0     C16890   8.713   7.722   5.904  0.0829 -0.0730 -0.5283
  123MOL0     C16891   8.767   7.313   6.002  0.2586  0.3869 -0.5302
  123MOL0     C16892   8.728   7.200   5.924 -0.3998  0.0241  1.3715
  123MOL0     C16893   8.692   7.077   5.979  0.5389  0.4207  0.4507
  123MOL0     C16894   8.694   7.060   6.114 -0.2437 -0.1837  0.7252
  123MOL0     O16895   8.641   6.939   6.156  0.0884 -0.3947 -0.0563
  123MOL0     C16896   8.616   6.909   6.298  0.2267 -0.1135 -0.6051
  123MOL0     C16897   8.734   6.863   6.375 -0.5592  0.0358  0.1474
  123MOL0     C16898   8.710   6.845   6.520 -0.1798  0.9773 -0.4068
  123MOL0     C16899   8.810   6.762   6.606  0.5697 -0.4815  1.0100
  123MOL0     C16900   8.940   6.824   6.629 -0.9714 -0.7120  0.6064
  123MOL0     C16901   9.048   6.886   6.642 -0.3564 -0.2907  0.7797
  123MOL0     C16902   8.736   7.171   6.193  0.3094 -0.0195 -0.3269
  123MOL0     C16903   8.768   7.295   6.144 -1.3480 -0.8030 -0.2882
  123MOL0     C16904   8.821   7.400   6.242  0.0960  0.8007 -0.1941
  123MOL0     H16905   8.851   7.578   5.650  1.2004 -0.9595  0.7005
  123MOL0     H16906   8.874   7.828   5.570 -0.5799 -2.1073 -1.6466
  123MOL0     H16907   8.621   8.012   5.556 -0.0943 -0.2225  0.1059
  123MOL0     H16908   8.789   8.009   5.500  3.2165 -0.4288  2.8019
  123MOL0     H16909   8.668   8.248   5.638  1.6234 -1.0156  1.7593
  123MOL0     H16910   8.813   8.251   5.555 -0.4064  2.2539 -0.0370
  123MOL0     H16911   8.700   8.163   5.338  1.4459  1.5250 -0.8047
  123MOL0     H16912   8.548   8.189   5.422 -1.4480  3.3278 -0.2830
  123MOL0     H16913   8.733   8.407   5.320 -1.5759  1.3790 -0.5028
  123MOL0     H16914   8.564   8.372   5.289 -1.0203 -3.8203  1.5095
  123MOL0     H16915   8.589   8.573   5.420  0.9700 -0.0832 -0.7860
  123MOL0     H16916   8.686   8.496   5.542 -0.4664  2.4697 -1.2716
  123MOL0     H16917   8.385   8.452   5.509 -0.4750  1.3308  1.0933
  123MOL0     H16918   8.491   8.363   5.620 -0.0137 -0.6198  0.1254
  123MOL0     H16919   8.467   8.670   5.595  1.3914 -0.5234 -1.3964
  123MOL0     H16920   8.555   8.579   5.721  0.3356  0.7353 -1.5545
  123MOL0     H16921   8.266   8.618   5.669 -0.2101 -2.9470 -3.0893
  123MOL0     H16922   8.318   8.468   5.757  3.3113 -0.5172  3.9407
  123MOL0     H16923   8.495   8.547   5.974  1.0018  1.0445 -1.5080
  123MOL0     H16924   8.407   8.808   6.251 -0.8279  0.4262  0.9307
  123MOL0     H16925   8.509   8.676   6.205  0.6061 -0.0785  1.8450
  123MOL0     H16926   8.215   8.686   6.281 -1.2379 -3.0297 -0.8154
  123MOL0     H16927   8.280   8.532   6.267  2.0673 -0.0160  0.2253
  123MOL0     H16928   8.436   8.567   6.441 -3.3345 -5.5211 -3.6303
  123MOL0     H16929   8.363   8.732   6.472 -0.8612 -0.9665  2.4213
  123MOL0     H16930   8.253   8.578   6.621 -1.0395 -1.3469  0.2797
  123MOL0     H16931   8.136   8.637   6.504 -0.1302 -0.1517 -0.8071
  123MOL0     H16932   8.183   8.380   6.739  1.1662 -3.4724 -1.3343
  123MOL0     H16933   7.991   8.371   6.947 -3.1943 -1.1324 -0.0730
  123MOL0     H16934   8.137   8.286   6.909 -0.8675  2.2068  2.1785
  123MOL0     H16935   7.996   8.195   6.937  2.0425 -2.9900 -2.5094
  123MOL0     H16936   7.735   7.996   6.918 -0.7680  2.7639  2.1911
  123MOL0     H16937   7.596   7.829   7.006 -0.4301 -0.7748  0.1903
  123MOL0     H16938   7.457   7.616   7.010  0.9612  1.7712  0.0777
  123MOL0     H16939   7.415   7.759   7.108  0.6043 -1.0950  2.1969
  123MOL0     H16940   7.201   7.567   7.030 -3.2184  0.7988  0.3925
  123MOL0     H16941   7.268   7.564   7.184 -1.5972 -1.0838 -0.7031
  123MOL0     H16942   7.123   7.778   7.050  1.0371  0.4452 -0.5615
  123MOL0     H16943   7.234   7.824   7.185 -2.4982  1.9659  1.3064
  123MOL0     H16944   7.103   7.666   7.332  1.7863  2.9402  0.7283
  123MOL0     H16945   6.989   7.629   7.199 -1.6045  1.3112 -0.7803
  123MOL0     H16946   7.063   7.890   7.342  1.4434 -0.2143 -0.2944
  123MOL0     H16947   6.941   7.888   7.204 -0.7895 -0.0586  0.8333
  123MOL0     H16948   6.869   7.676   7.408 -0.1167 -0.8565 -1.3685
  123MOL0     H16949   6.796   7.817   7.339  1.7479 -0.9676 -4.2826
  123MOL0     H16950   6.802   7.849   7.585 -1.9538  4.0443 -0.3541
  123MOL0     H16951   6.909   7.957   7.517 -3.3437  0.1169  2.4928
  123MOL0     H16952   7.109   7.804   7.567  0.5386 -0.9890 -1.9479
  123MOL0     H16953   7.007   7.664   7.581 -1.0984  0.7668 -1.5933
  123MOL0     H16954   7.299   7.903   6.697 -0.6794 -0.5471  0.4615
  123MOL0     H16955   7.424   8.057   6.604 -2.0695 -2.2970  0.5419
  123MOL0     H16956   7.760   8.293   6.501  0.3574 -0.6009 -1.6109
  123MOL0     H16957   7.954   8.389   6.368 -0.1316  1.7362  0.5163
  123MOL0     H16958   8.678   7.925   5.944  0.6636  0.2493  0.2656
  123MOL0     H16959   8.664   7.698   5.998 -3.7498 -1.6087 -2.6920
  123MOL0     H16960   8.717   7.194   5.816 -1.9368  2.4254  1.3258
  123MOL0     H16961   8.662   6.994   5.916  1.5482  1.1831 -1.1100
  123MOL0     H16962   8.569   6.991   6.353  1.8702  1.0319 -0.8350
  123MOL0     H16963   8.535   6.837   6.310 -0.9371  1.2198 -0.1721
  123MOL0     H16964   8.806   6.945   6.380 -1.8664  1.4748 -2.2868
  123MOL0     H16965   8.779   6.771   6.338 -2.4842 -2.2241  2.9615
  123MOL0     H16966   8.693   6.942   6.570 -2.7883  1.4672 -2.0272
  123MOL0     H16967   8.622   6.782   6.537  0.3678  0.3281  0.0687
  123MOL0     H16968   8.828   6.667   6.554 -1.9438 -1.2518  1.4036
  123MOL0     H16969   8.751   6.728   6.692 -4.2691  0.1399 -1.6999
  123MOL0     H16970   9.133   6.945   6.671  1.2453 -1.3426 -1.5135
  123MOL0     H16971   8.751   7.163   6.301 -0.2176  1.2172 -0.1386
  123MOL0     H16972   8.921   7.431   6.209 -0.0214 -1.2600 -2.7555
  123MOL0     H16973   8.756   7.488   6.238  1.0866  1.5342 -0.9138
  123MOL0     H16974   8.817   7.353   6.341 -1.1805  0.1304 -0.5461
  124MOL0     O16975   3.638  11.137   6.648  0.6929 -0.6552 -0.2597
  124MOL0     C16976   3.596  11.033   6.600 -0.1824  1.2489  0.1565
  124MOL0     O16977   3.467  10.992   6.625 -0.4763 -0.0024  0.8576
  124MOL0     C16978   3.396  11.056   6.723  0.3463 -0.4766  0.8041
  124MOL0     C16979   3.372  11.198   6.703  0.2887 -0.0298  0.1208
  124MOL0     C16980   3.294  11.267   6.797  0.1332 -0.5568  0.3637
  124MOL0     C16981   3.242  11.210   6.923 -0.7125  0.2178  0.4136
  124MOL0     O16982   3.178  11.284   7.024 -0.1799 -0.1913  0.4165
  124MOL0     C16983   3.189  11.424   7.020 -0.5534 -0.1921  0.5231
  124MOL0     C16984   3.043  11.463   7.001 -0.7149  0.0240  0.5611
  124MOL0     C16985   3.035  11.609   6.974  0.1858 -0.7207 -0.3356
  124MOL0     C16986   3.117  11.661   6.860  0.7483  0.2092 -0.7974
  124MOL0     C16987   3.104  11.807   6.830  0.8552  0.3021 -0.3944
  124MOL0     C16988   3.019  11.834   6.707 -0.3456  0.1059 -0.0088
  124MOL0     C16989   3.025  11.989   6.670  0.0452  0.0479  0.5321
  124MOL0     C16990   2.977  12.013   6.522  0.3715 -0.1299 -1.2256
  124MOL0     N16991   2.985  12.154   6.486  0.2208 -0.4355  0.3153
  124MOL0     C16992   2.873  12.235   6.479 -1.2703  0.1641 -0.4120
  124MOL0     C16993   2.927  12.353   6.443 -0.6958 -0.5037 -0.9354
  124MOL0     C16994   2.850  12.479   6.428  0.0306 -0.1532 -0.1555
  124MOL0     C16995   2.859  12.538   6.285 -0.3811  0.5950 -0.3307
  124MOL0     C16996   2.830  12.692   6.303  0.0458 -0.2129  0.5859
  124MOL0     C16997   2.759  12.770   6.182 -0.1732  0.8664 -0.6073
  124MOL0     O16998   2.768  12.905   6.211 -0.1558  0.4707 -0.6953
  124MOL0     C16999   2.718  12.990   6.114 -0.1488 -0.0919  0.4553
  124MOL0     C17000   2.725  13.126   6.152 -0.0804  0.8942  0.1995
  124MOL0     C17001   2.665  13.226   6.079 -0.0479 -0.8733  0.2808
  124MOL0     C17002   2.671  13.366   6.145  0.5284  0.2416 -1.0062
  124MOL0     C17003   2.606  13.202   5.945  0.0265 -1.2239 -0.6706
  124MOL0     C17004   2.554  13.315   5.855 -0.1358  0.4496 -0.2951
  124MOL0     O17005   2.606  13.436   5.862  0.9307 -0.6184  0.3288
  124MOL0     C17006   2.557  13.543   5.785 -0.8804  0.1033 -0.1112
  124MOL0     C17007   2.433  13.566   5.731 -0.5105 -0.7793  0.3585
  124MOL0     C17008   2.419  13.673   5.636 -0.0594 -0.5016  0.0050
  124MOL0     C17009   2.523  13.758   5.606 -0.0900  0.1951  0.0563
  124MOL0     O17010   2.491  13.858   5.518 -0.0122 -0.0301 -0.5869
  124MOL0     C17011   2.602  13.911   5.448  1.1570  0.7633  0.6694
  124MOL0     C17012   2.580  13.963   5.301  0.1791 -0.3916 -0.2165
  124MOL0     C17013   2.718  14.009   5.236 -0.2645 -0.1408 -0.1000
  124MOL0     C17014   2.688  14.052   5.095  0.4096 -0.5140  0.1505
  124MOL0     C17015   2.813  14.055   4.999  0.0603 -0.0792 -0.6607
  124MOL0     C17016   2.896  13.922   4.998 -1.3470 -0.7618  0.4291
  124MOL0     C17017   2.839  13.805   4.939 -0.6853  0.6877  0.2959
  124MOL0     C17018   2.954  13.702   4.950  0.0650  0.5716  0.2896
  124MOL0    Cl17019   2.891  13.545   4.876  0.1516 -0.1099 -0.5703
  124MOL0     C17020   2.650  13.726   5.663  0.5402 -0.5784 -0.1913
  124MOL0     C17021   2.660  13.616   5.749 -0.3743 -0.5919 -0.1923
  124MOL0     O17022   2.458  13.287   5.777  0.0773  0.2167 -0.6465
  124MOL0     C17023   2.612  13.061   5.901  0.1480 -0.2789  0.4648
  124MOL0     C17024   2.671  12.955   5.983 -0.2392  0.5116  0.2980
  124MOL0     N17025   3.062  12.349   6.427 -0.8839 -0.1742 -0.2764
  124MOL0     N17026   3.099  12.229   6.460  0.2487 -0.0792 -0.5911
  124MOL0     C17027   3.274  11.074   6.942  0.0133  0.4613 -0.3361
  124MOL0     C17028   3.343  10.998   6.841 -0.1489 -0.3183  0.2841
  124MOL0     C17029   3.690  10.941   6.531 -0.2680 -0.2902  0.1679
  124MOL0     C17030   3.652  10.810   6.503 -0.6933 -0.1982 -0.4750
  124MOL0     C17031   3.723  10.720   6.419 -0.6428  0.3401 -0.5205
  124MOL0     C17032   3.844  10.752   6.355  0.5947 -1.0631  0.2358
  124MOL0     O17033   3.919  10.685   6.254 -0.0009 -0.1738  1.3165
  124MOL0     C17034   3.863  10.581   6.177  0.7587 -0.2456 -0.5641
  124MOL0     C17035   3.749  10.634   6.092  0.1169  0.6280 -0.1172
  124MOL0     C17036   3.690  10.515   6.006 -0.8372 -0.7133 -0.4787
  124MOL0     C17037   3.729  10.516   5.860  0.1024  0.3918 -1.0728
  124MOL0     C17038   3.844  10.424   5.838  0.7166 -0.4975 -0.5198
  124MOL0     C17039   3.926  10.342   5.842  0.6816 -0.1954 -0.1509
  124MOL0     C17040   3.891  10.883   6.406  0.9253  0.1662  0.4345
  124MOL0     C17041   3.821  10.974   6.485 -0.1748  0.4152  0.5969
  124MOL0     C17042   3.891  11.109   6.490  0.0068 -0.0669 -0.1665
  124MOL0     H17043   3.412  11.259   6.623  0.2465  0.4060  0.4261
  124MOL0     H17044   3.297  11.370   6.761  1.3951 -0.1638  1.5198
  124MOL0     H17045   3.255  11.463   6.942  3.5818 -0.7100  3.4719
  124MOL0     H17046   3.224  11.473   7.111  1.2375 -0.2803 -0.0924
  124MOL0     H17047   2.998  11.414   6.914 -2.3198  0.8480  0.9006
  124MOL0     H17048   2.981  11.439   7.088  0.1135  0.0401  1.1710
  124MOL0     H17049   2.932  11.644   6.967  0.0826 -0.6786  1.1267
  124MOL0     H17050   3.074  11.654   7.065 -0.3368  1.3091 -1.0689
  124MOL0     H17051   3.225  11.646   6.866  0.4907 -1.2558  1.4054
  124MOL0     H17052   3.075  11.603   6.777  0.0549 -0.4657  0.0035
  124MOL0     H17053   3.200  11.850   6.799  1.2178 -2.4328 -3.6584
  124MOL0     H17054   3.057  11.849   6.919 -2.8318 -1.5970 -1.2257
  124MOL0     H17055   3.073  11.770   6.636 -0.4385 -0.0593  0.0693
  124MOL0     H17056   2.923  11.791   6.737  0.7843 -3.0459 -0.4945
  124MOL0     H17057   3.125  12.033   6.678  0.0650 -0.1242  1.3898
  124MOL0     H17058   2.973  12.050   6.744  1.4182  2.2041 -0.1862
  124MOL0     H17059   3.055  11.969   6.459  0.8415  1.3797 -1.7394
  124MOL0     H17060   2.877  11.976   6.499  0.3368 -0.1143 -1.1046
  124MOL0     H17061   2.766  12.223   6.496 -1.1287 -0.1163  0.3257
  124MOL0     H17062   2.897  12.555   6.491  1.4130 -1.4218  0.3995
  124MOL0     H17063   2.747  12.461   6.462  0.9580 -3.4943  1.3636
  124MOL0     H17064   2.958  12.532   6.240 -0.3790  2.2397 -0.5929
  124MOL0     H17065   2.793  12.476   6.223  0.4749 -3.5095  2.4428
  124MOL0     H17066   2.769  12.715   6.390 -1.7398 -2.1953 -0.0598
  124MOL0     H17067   2.923  12.744   6.327  0.0663  0.0913 -0.1324
  124MOL0     H17068   2.783  12.734   6.081 -3.1796  1.5640 -1.7039
  124MOL0     H17069   2.653  12.742   6.191 -0.1626  0.9344 -0.2822
  124MOL0     H17070   2.773  13.152   6.246  0.8459 -0.5656  0.1677
  124MOL0     H17071   2.596  13.436   6.106 -2.9764 -0.9765  2.8545
  124MOL0     H17072   2.773  13.404   6.155  0.6016 -0.5982  4.5965
  124MOL0     H17073   2.640  13.363   6.249  0.2516  0.4797 -1.0795
  124MOL0     H17074   2.349  13.510   5.772 -0.6187  2.3689  5.2864
  124MOL0     H17075   2.317  13.681   5.598 -1.2467  0.6063  3.0767
  124MOL0     H17076   2.631  13.996   5.511 -0.5976 -0.1935  2.9526
  124MOL0     H17077   2.684  13.840   5.440  1.3022  0.7129  2.2124
  124MOL0     H17078   2.542  13.880   5.240 -0.6760  0.2850 -0.6173
  124MOL0     H17079   2.510  14.045   5.285 -0.0699 -0.3807  0.8933
  124MOL0     H17080   2.784  13.922   5.240 -1.8616 -1.5093 -1.6135
  124MOL0     H17081   2.757  14.089   5.299 -0.5061  0.3669 -0.5949
  124MOL0     H17082   2.637  14.149   5.092 -0.6878 -1.0837 -0.1017
  124MOL0     H17083   2.612  13.984   5.056 -1.1047  0.6711  0.9290
  124MOL0     H17084   2.779  14.076   4.897 -0.1060 -0.8929 -0.7723
  124MOL0     H17085   2.877  14.133   5.042 -0.3812 -2.1236  4.4828
  124MOL0     H17086   2.948  13.896   5.090  0.6014  2.8118  0.5118
  124MOL0     H17087   2.984  13.952   4.940 -1.2710 -1.0083  0.4168
  124MOL0     H17088   2.806  13.825   4.836 -0.9369  1.8956  0.5957
  124MOL0     H17089   2.746  13.771   4.987 -0.2803 -2.8075 -1.0844
  124MOL0     H17090   2.958  13.686   5.058 -2.2668  0.1552  0.3560
  124MOL0     H17091   3.049  13.736   4.907  0.9818 -2.5227 -0.3671
  124MOL0     H17092   2.735  13.792   5.654 -0.8245  0.9585 -3.7266
  124MOL0     H17093   2.758  13.587   5.785  0.7171  1.7509 -1.0247
  124MOL0     H17094   2.571  13.040   5.802  2.3750  4.1188 -1.6579
  124MOL0     H17095   2.672  12.854   5.942  0.0088 -0.5640  2.7442
  124MOL0     H17096   3.239  11.009   7.023  0.4697  2.2646  1.3779
  124MOL0     H17097   3.365  10.894   6.863  0.7622 -0.1018  0.4503
  124MOL0     H17098   3.560  10.772   6.546  1.5404 -4.3140  1.2844
  124MOL0     H17099   3.679  10.621   6.406 -4.7395  1.9977 -0.8354
  124MOL0     H17100   3.952  10.558   6.119  3.3380  1.3618  2.4537
  124MOL0     H17101   3.833  10.497   6.241 -0.6873  1.5738  1.2663
  124MOL0     H17102   3.789  10.714   6.029 -2.4774  1.3779 -0.9069
  124MOL0     H17103   3.671  10.668   6.161 -0.5401  0.3150 -0.6967
  124MOL0     H17104   3.702  10.413   6.043 -3.0434 -1.1252 -0.7796
  124MOL0     H17105   3.583  10.538   6.003 -0.2380  2.4923 -0.7168
  124MOL0     H17106   3.755  10.618   5.833 -0.4377 -0.4747 -5.7561
  124MOL0     H17107   3.640  10.477   5.809 -1.0550  3.6733 -1.7651
  124MOL0     H17108   3.993  10.258   5.844 -0.5432 -1.2412  2.0069
  124MOL0     H17109   3.985  10.908   6.359  0.0049  1.1834 -0.9483
  124MOL0     H17110   3.835  11.182   6.549  2.7199 -0.1307  2.7485
  124MOL0     H17111   3.993  11.098   6.527  0.1376 -1.4231 -0.8675
  124MOL0     H17112   3.899  11.159   6.393 -1.9502  0.0562 -0.3093
  125MOL0     O17113  11.495   4.533   1.833  0.1508  0.0942 -0.2098
  125MOL0     C17114  11.585   4.473   1.763  0.1100 -0.1275  0.7421
  125MOL0     O17115  11.690   4.406   1.815  0.6693  0.2725 -0.6391
  125MOL0     C17116  11.732   4.438   1.938 -0.3491  0.2244 -0.2476
  125MOL0     C17117  11.770   4.563   1.984 -0.1297 -0.1120  0.3793
  125MOL0     C17118  11.817   4.575   2.118  0.4530  0.6480  0.5897
  125MOL0     C17119  11.810   4.468   2.206  0.3026  1.3314 -0.1233
  125MOL0     O17120  11.852   4.488   2.332 -0.4541  0.5068 -0.1602
  125MOL0     C17121  11.849   4.398   2.444  0.2530 -0.7518  0.8354
  125MOL0     C17122  11.945   4.281   2.452 -0.3213  0.0236 -0.4908
  125MOL0     C17123  12.097   4.335   2.464 -0.9920  0.1189 -0.1366
  125MOL0     C17124  12.205   4.233   2.433  0.2475 -0.7080  0.5689
  125MOL0     C17125  12.229   4.110   2.513 -0.2307  0.0953 -0.2367
  125MOL0     C17126  12.285   4.133   2.651 -0.7152 -0.4414 -0.3115
  125MOL0     C17127  12.378   4.023   2.686  0.1837 -0.4109 -0.2602
  125MOL0     C17128  12.462   4.056   2.807  0.1790  0.2796  0.1339
  125MOL0     N17129  12.401   4.030   2.937 -0.2963  0.5656 -0.7539
  125MOL0     C17130  12.416   3.911   3.010 -0.4513  0.0946 -0.7856
  125MOL0     C17131  12.325   3.909   3.100 -0.5301  0.1055 -0.0890
  125MOL0     C17132  12.306   3.807   3.208 -0.2701  1.1194 -0.2334
  125MOL0     C17133  12.291   3.863   3.352  0.0121  0.3713  0.0794
  125MOL0     C17134  12.311   3.766   3.463  0.7156  0.4061  0.0417
  125MOL0     C17135  12.458   3.724   3.498  0.6229 -0.0689  0.0088
  125MOL0     O17136  12.533   3.834   3.552  0.3539  0.3442 -0.1139
  125MOL0     C17137  12.651   3.808   3.615  0.4282  0.9302  0.5561
  125MOL0     C17138  12.694   3.897   3.714 -0.3119 -0.6562 -0.0682
  125MOL0     C17139  12.821   3.900   3.750  0.5666 -0.7338 -0.4385
  125MOL0     C17140  12.848   4.028   3.821 -1.0566  0.5006 -0.3100
  125MOL0     C17141  12.914   3.809   3.710 -0.6352 -0.1658  0.1512
  125MOL0     C17142  13.055   3.814   3.751  0.2245 -0.1216 -0.0575
  125MOL0     O17143  13.111   3.695   3.771 -0.2922  0.2323 -0.2738
  125MOL0     C17144  13.248   3.672   3.757 -1.0377 -0.6012 -0.0059
  125MOL0     C17145  13.332   3.699   3.863  0.5295 -0.7369  0.1120
  125MOL0     C17146  13.473   3.669   3.866  0.7276  0.0695  0.4310
  125MOL0     C17147  13.525   3.609   3.748 -0.2597 -0.6519  0.4243
  125MOL0     O17148  13.654   3.576   3.727 -0.2601  0.3735  1.0729
  125MOL0     C17149  13.727   3.521   3.840  1.2263 -0.3653 -0.0562
  125MOL0     C17150  13.838   3.424   3.817 -1.3031  1.3212  0.0141
  125MOL0     C17151  13.794   3.339   3.687 -1.1810  0.1285  0.5229
  125MOL0     C17152  13.881   3.215   3.683 -0.3596  0.4819 -0.1417
  125MOL0     C17153  13.830   3.097   3.598  0.2688 -0.5844 -0.1636
  125MOL0     C17154  13.929   2.982   3.620  0.8063  0.3444 -0.4202
  125MOL0     C17155  13.886   2.850   3.548 -1.2229 -0.4151  0.6449
  125MOL0     C17156  13.787   2.778   3.635  0.5647  0.2199  0.2109
  125MOL0    Cl17157  13.717   2.651   3.527 -0.1997  0.6279 -0.0736
  125MOL0     C17158  13.449   3.594   3.633 -0.2855  0.1768 -0.4027
  125MOL0     C17159  13.310   3.620   3.641  0.1575  0.8817  0.2132
  125MOL0     O17160  13.111   3.920   3.736 -1.0738 -0.2493 -0.0544
  125MOL0     C17161  12.877   3.710   3.616 -0.0406 -0.7684  0.0178
  125MOL0     C17162  12.749   3.714   3.565 -0.3307 -1.3330  0.6706
  125MOL0     N17163  12.250   4.024   3.093 -0.0795 -0.4282  0.1374
  125MOL0     N17164  12.289   4.090   2.990  0.4904 -0.0541 -0.1725
  125MOL0     C17165  11.757   4.343   2.164  0.3833  0.0952  0.2481
  125MOL0     C17166  11.723   4.324   2.029  0.2162  0.0818  0.3722
  125MOL0     C17167  11.559   4.469   1.623 -0.0414 -0.3631  1.0349
  125MOL0     C17168  11.522   4.592   1.559 -0.5982  0.3203  0.0087
  125MOL0     C17169  11.530   4.604   1.423  0.2599  0.5768 -0.5322
  125MOL0     C17170  11.540   4.489   1.348  0.2878 -0.3233  0.1199
  125MOL0     O17171  11.522   4.486   1.214  0.4711  0.1585 -1.0675
  125MOL0     C17172  11.433   4.594   1.166 -0.3121 -0.0173 -0.0569
  125MOL0     C17173  11.365   4.570   1.029 -0.5715  0.2810 -0.1128
  125MOL0     C17174  11.356   4.424   0.972  0.4997 -0.3623  0.0202
  125MOL0     C17175  11.320   4.413   0.818 -1.2441  0.6682  0.3152
  125MOL0     C17176  11.199   4.484   0.796  0.4330  0.2775 -0.5886
  125MOL0     C17177  11.117   4.570   0.787  0.0624 -0.2782 -0.0283
  125MOL0     C17178  11.581   4.370   1.409  0.4380  0.1001 -0.7974
  125MOL0     C17179  11.579   4.352   1.546 -0.1503  0.8755 -0.3041
  125MOL0     C17180  11.584   4.216   1.604  0.1496 -0.2043  0.1382
  125MOL0     H17181  11.758   4.650   1.921 -0.1652  0.4783  1.1933
  125MOL0     H17182  11.864   4.668   2.147  5.5504 -1.6191  0.6364
  125MOL0     H17183  11.746   4.360   2.446 -1.0366  1.8132 -3.2106
  125MOL0     H17184  11.873   4.468   2.524 -0.1533  0.4026 -0.0252
  125MOL0     H17185  11.916   4.222   2.540  0.1084  0.3844 -0.1007
  125MOL0     H17186  11.936   4.227   2.357 -1.3919  2.2492 -1.7146
  125MOL0     H17187  12.111   4.417   2.392 -0.2073  1.2041  1.2049
  125MOL0     H17188  12.125   4.385   2.557  1.8784  0.5764 -1.1240
  125MOL0     H17189  12.181   4.201   2.331 -0.0169  0.7671  0.1450
  125MOL0     H17190  12.294   4.296   2.423 -0.4134  0.3361  1.0240
  125MOL0     H17191  12.296   4.043   2.459 -1.0257 -0.9793  0.0875
  125MOL0     H17192  12.144   4.043   2.522  2.4484 -3.2746  3.1062
  125MOL0     H17193  12.347   4.223   2.649 -2.9965  1.2061 -1.3670
  125MOL0     H17194  12.204   4.149   2.722 -0.1017 -0.4980  0.4141
  125MOL0     H17195  12.432   3.999   2.594 -3.5556 -4.0473 -1.8051
  125MOL0     H17196  12.310   3.940   2.709 -1.0497  0.9093  1.1032
  125MOL0     H17197  12.550   3.992   2.814 -1.0253 -1.3655  0.9818
  125MOL0     H17198  12.500   4.158   2.808  2.5710 -0.4321 -2.7185
  125MOL0     H17199  12.475   3.825   2.981 -0.4109  0.6539 -2.4942
  125MOL0     H17200  12.396   3.744   3.202 -1.8736 -1.2968 -0.0738
  125MOL0     H17201  12.227   3.736   3.182  1.1211  0.5351 -3.3506
  125MOL0     H17202  12.366   3.942   3.362  0.0418  0.6470 -1.8978
  125MOL0     H17203  12.192   3.910   3.359 -1.3834 -2.1674 -1.1962
  125MOL0     H17204  12.266   3.806   3.554 -0.5085 -1.3278  0.2467
  125MOL0     H17205  12.251   3.676   3.450  0.5235  0.8107 -2.4061
  125MOL0     H17206  12.459   3.630   3.555 -0.7702 -0.6727 -0.8992
  125MOL0     H17207  12.504   3.701   3.401  1.8134 -1.1555  0.7941
  125MOL0     H17208  12.634   3.986   3.725  4.8909  2.9301  4.9169
  125MOL0     H17209  12.935   4.014   3.886 -0.4722  0.2674 -1.1184
  125MOL0     H17210  12.767   4.071   3.880  1.3247  1.5711  2.4134
  125MOL0     H17211  12.874   4.108   3.750  3.5366 -0.9780 -0.6041
  125MOL0     H17212  13.272   3.729   3.949 -1.0456  0.9344 -1.4863
  125MOL0     H17213  13.527   3.683   3.959  1.1406  1.0325  0.0590
  125MOL0     H17214  13.779   3.609   3.879  0.2508  0.4786 -0.5989
  125MOL0     H17215  13.650   3.478   3.904  0.0028 -0.8938 -1.7983
  125MOL0     H17216  13.935   3.469   3.792 -0.0265 -0.2946  1.7442
  125MOL0     H17217  13.849   3.359   3.905  0.9886  1.8637  0.1975
  125MOL0     H17218  13.810   3.401   3.599  0.1280  0.4679  0.9736
  125MOL0     H17219  13.692   3.304   3.702 -0.8789 -0.4741  1.2583
  125MOL0     H17220  13.885   3.191   3.790 -1.5893 -2.0874 -0.5721
  125MOL0     H17221  13.982   3.245   3.656  0.2282 -1.1902  0.0473
  125MOL0     H17222  13.724   3.091   3.625  0.5648 -0.5116  1.1002
  125MOL0     H17223  13.837   3.133   3.495  4.0597  2.7220  0.9900
  125MOL0     H17224  13.927   2.964   3.728 -0.0151 -3.9138 -0.9647
  125MOL0     H17225  14.028   3.002   3.578  0.8437  1.3042  0.0985
  125MOL0     H17226  13.972   2.786   3.530 -1.0452 -0.4729  1.6738
  125MOL0     H17227  13.833   2.873   3.454  1.4971  1.8113 -0.5030
  125MOL0     H17228  13.714   2.853   3.669  2.3047  0.6589  3.4061
  125MOL0     H17229  13.837   2.733   3.721 -0.5552 -1.2120  0.1352
  125MOL0     H17230  13.489   3.559   3.538  1.9250  1.6833 -0.0890
  125MOL0     H17231  13.259   3.612   3.545 -0.5416  1.3845  0.5353
  125MOL0     H17232  12.953   3.636   3.592  0.4963 -1.0130  2.2588
  125MOL0     H17233  12.718   3.637   3.495  1.6572 -2.9452  1.4784
  125MOL0     H17234  11.739   4.265   2.238 -1.3966  0.5728  0.3489
  125MOL0     H17235  11.690   4.229   1.988  1.9813 -1.9150  3.2235
  125MOL0     H17236  11.508   4.676   1.626 -3.1029  0.3211 -0.4402
  125MOL0     H17237  11.506   4.698   1.375  3.6511 -0.3033 -4.6375
  125MOL0     H17238  11.350   4.609   1.235 -1.3612  1.8639 -1.6297
  125MOL0     H17239  11.493   4.685   1.169 -1.8410  1.3098  6.6120
  125MOL0     H17240  11.414   4.628   0.951 -0.0208 -1.8749 -1.4318
  125MOL0     H17241  11.272   4.626   1.041  0.1891  2.0380 -1.8682
  125MOL0     H17242  11.459   4.388   0.987  0.8892  1.6811  3.4645
  125MOL0     H17243  11.275   4.364   1.013  0.1270  0.9412  1.2934
  125MOL0     H17244  11.303   4.311   0.785  1.6552 -0.0220  0.6548
  125MOL0     H17245  11.400   4.465   0.764  1.5597 -2.0456  1.5497
  125MOL0     H17246  11.047   4.649   0.772 -0.0364 -0.4415 -0.4447
  125MOL0     H17247  11.596   4.286   1.342  0.1324 -0.5697 -0.0539
  125MOL0     H17248  11.504   4.197   1.676 -2.6062 -2.0261 -3.1036
  125MOL0     H17249  11.547   4.153   1.522 -2.7187  1.5046  0.0060
  125MOL0     H17250  11.680   4.188   1.649  0.5532 -0.1620 -0.6765
  126MOL0     O17251   1.914   8.663   5.279  0.2145 -0.0744 -0.8050
  126MOL0     C17252   1.814   8.617   5.231  0.2546  0.2019  0.2156
  126MOL0     O17253   1.688   8.660   5.256 -0.8886 -0.3522  0.4743
  126MOL0     C17254   1.679   8.755   5.354 -0.1524 -0.1390 -0.3387
  126MOL0     C17255   1.720   8.891   5.349  0.4597  0.6217 -0.6890
  126MOL0     C17256   1.731   8.966   5.471  0.8125 -0.2783  0.5800
  126MOL0     C17257   1.683   8.922   5.589 -0.1978 -0.2615  0.4531
  126MOL0     O17258   1.696   8.982   5.714 -0.0174  0.3269 -0.1303
  126MOL0     C17259   1.784   9.098   5.710 -0.1240  0.1277 -0.8855
  126MOL0     C17260   1.857   9.128   5.842 -0.3066  0.0804  0.1247
  126MOL0     C17261   1.957   9.240   5.808 -0.1349 -1.2858 -0.5415
  126MOL0     C17262   2.014   9.297   5.939 -0.5440  0.1621  0.3450
  126MOL0     C17263   2.130   9.402   5.921  0.3619 -1.0242 -1.4836
  126MOL0     C17264   2.205   9.404   6.057  0.3407 -0.0058  0.5576
  126MOL0     C17265   2.291   9.522   6.085  0.3624 -0.5290 -0.7061
  126MOL0     C17266   2.344   9.518   6.224  0.1781  0.2482 -1.2718
  126MOL0     N17267   2.427   9.635   6.248  0.4365 -0.3211 -0.1471
  126MOL0     C17268   2.388   9.757   6.300 -0.6213  0.0932  0.2149
  126MOL0     C17269   2.494   9.832   6.308 -0.3766 -0.3388 -0.1554
  126MOL0     C17270   2.467   9.979   6.353 -0.4212 -0.7458  0.4210
  126MOL0     C17271   2.596  10.053   6.328  0.5159  0.6128  0.3085
  126MOL0     C17272   2.717  10.013   6.417 -0.5277  0.4715  0.3628
  126MOL0     C17273   2.828  10.116   6.406  0.9167  0.1126  0.6067
  126MOL0     O17274   2.951  10.064   6.461 -0.4990  0.4557  0.1331
  126MOL0     C17275   3.068  10.131   6.434  1.1181 -0.5604 -0.9259
  126MOL0     C17276   3.079  10.271   6.446 -0.4417 -0.5380  0.4387
  126MOL0     C17277   3.195  10.339   6.432 -0.2978 -0.4078  0.1513
  126MOL0     C17278   3.195  10.488   6.460 -0.3491  0.3519  0.4293
  126MOL0     C17279   3.313  10.258   6.411 -0.6096 -0.3664  0.5260
  126MOL0     C17280   3.444  10.312   6.447 -0.2536  0.1707 -0.2570
  126MOL0     O17281   3.536  10.231   6.521  0.9263  0.1981 -0.7905
  126MOL0     C17282   3.644  10.296   6.553 -0.3300  0.9158  0.4940
  126MOL0     C17283   3.657  10.368   6.666  0.5490  0.0362  0.7680
  126MOL0     C17284   3.779  10.419   6.705 -0.2874  0.5197  0.1757
  126MOL0     C17285   3.881  10.419   6.612  0.3457 -0.2582 -0.2101
  126MOL0     O17286   3.996  10.485   6.645 -0.0810  0.3251 -0.0652
  126MOL0     C17287   4.066  10.570   6.550 -0.1966  0.0497 -0.4212
  126MOL0     C17288   4.211  10.568   6.590 -0.3998 -0.5620 -0.5535
  126MOL0     C17289   4.294  10.671   6.507 -0.6094  0.4164  0.0388
  126MOL0     C17290   4.309  10.616   6.365 -0.0245  0.9008 -0.3658
  126MOL0     C17291   4.411  10.701   6.288 -0.1317  0.1271 -0.1551
  126MOL0     C17292   4.415  10.667   6.139 -0.4504  0.0167 -0.2052
  126MOL0     C17293   4.447  10.524   6.093 -0.8046  0.6136 -0.1873
  126MOL0     C17294   4.589  10.495   6.140  0.1196 -0.6177  0.3865
  126MOL0    Cl17295   4.670  10.351   6.062 -0.5746  0.5000  0.1025
  126MOL0     C17296   3.875  10.339   6.500  0.2119  0.7611  0.7563
  126MOL0     C17297   3.757  10.272   6.471 -0.1034 -0.3432  0.2999
  126MOL0     O17298   3.473  10.421   6.401  0.1356 -0.4485  0.5909
  126MOL0     C17299   3.302  10.120   6.393 -0.1610  0.1760  0.1836
  126MOL0     C17300   3.183  10.061   6.396  0.3379  0.1988 -0.3281
  126MOL0     N17301   2.603   9.763   6.258  1.3188  0.1169  0.5724
  126MOL0     N17302   2.561   9.645   6.230 -0.4654  0.0661 -0.0185
  126MOL0     C17303   1.627   8.797   5.598 -1.3105  0.9519 -1.2184
  126MOL0     C17304   1.624   8.717   5.481  0.0114 -0.5460 -0.3322
  126MOL0     C17305   1.827   8.526   5.117 -0.4342 -0.4477  0.3122
  126MOL0     C17306   1.730   8.535   5.024 -0.1790 -1.0909  0.3436
  126MOL0     C17307   1.738   8.462   4.901  0.3205  0.0053 -0.1143
  126MOL0     C17308   1.842   8.374   4.870  1.1269 -0.9316  0.9139
  126MOL0     O17309   1.854   8.312   4.747 -0.3247  0.1111 -0.3767
  126MOL0     C17310   1.743   8.281   4.665  0.0224 -0.3282  0.2202
  126MOL0     C17311   1.776   8.215   4.523 -0.1884 -0.7110 -1.1768
  126MOL0     C17312   1.841   8.306   4.424 -0.4480 -0.1830  0.2542
  126MOL0     C17313   1.848   8.258   4.270 -0.3200  0.3094 -0.4530
  126MOL0     C17314   1.877   8.114   4.265 -0.0205  0.1994 -0.1776
  126MOL0     C17315   1.920   7.994   4.270 -0.9243 -0.1543 -0.7789
  126MOL0     C17316   1.938   8.384   4.960 -0.3759 -0.2377  0.7941
  126MOL0     C17317   1.930   8.440   5.090  0.3166  0.3147 -0.2090
  126MOL0     C17318   2.041   8.415   5.187 -0.4888 -0.5198  0.0862
  126MOL0     H17319   1.744   8.935   5.253 -2.7465  4.2220 -0.0791
  126MOL0     H17320   1.791   9.055   5.457 -0.6153  0.2845 -2.7138
  126MOL0     H17321   1.720   9.184   5.689 -1.4967 -0.7234 -0.3772
  126MOL0     H17322   1.871   9.092   5.644  2.2905  1.2632  1.9646
  126MOL0     H17323   1.790   9.155   5.924  0.1320  1.5434  0.0216
  126MOL0     H17324   1.914   9.037   5.860  0.3848 -0.5936 -4.3464
  126MOL0     H17325   2.044   9.210   5.750  0.8869  1.7890 -0.8196
  126MOL0     H17326   1.898   9.319   5.760 -0.4113 -0.8300  0.4975
  126MOL0     H17327   1.934   9.319   6.011 -1.2149 -3.2962  0.8504
  126MOL0     H17328   2.072   9.213   5.980 -0.8562 -1.0185 -1.5033
  126MOL0     H17329   2.081   9.498   5.902 -0.6635 -1.2872 -0.3109
  126MOL0     H17330   2.190   9.376   5.832  0.1469  0.1856 -1.9939
  126MOL0     H17331   2.121   9.413   6.127 -1.3031  1.2694 -1.4220
  126MOL0     H17332   2.265   9.313   6.049  3.0271  1.7807 -4.6973
  126MOL0     H17333   2.227   9.609   6.069  1.0398 -0.2359 -1.9652
  126MOL0     H17334   2.365   9.537   6.006  2.1286  0.4698  1.0491
  126MOL0     H17335   2.263   9.505   6.297 -1.3805  2.6742 -2.4189
  126MOL0     H17336   2.402   9.426   6.228 -2.1427 -1.2661  1.9098
  126MOL0     H17337   2.288   9.796   6.317  0.5510  4.4971 -1.6209
  126MOL0     H17338   2.462   9.971   6.462 -3.5753  1.8001  0.5822
  126MOL0     H17339   2.382  10.026   6.304 -0.4733 -0.1693  1.0542
  126MOL0     H17340   2.617  10.018   6.226 -0.8932 -0.9564  0.5203
  126MOL0     H17341   2.585  10.161   6.335  5.3072  1.3382  0.0671
  126MOL0     H17342   2.689   9.995   6.521  1.0270 -1.4739  0.5202
  126MOL0     H17343   2.755   9.912   6.396  1.1449  1.2237 -0.4452
  126MOL0     H17344   2.827  10.133   6.298  0.4303 -0.7119  0.4749
  126MOL0     H17345   2.788  10.207   6.451 -0.6135  0.3261 -1.0420
  126MOL0     H17346   2.988  10.330   6.454 -0.1833  0.0604 -0.7774
  126MOL0     H17347   3.100  10.541   6.467 -0.1549  0.8378 -0.4675
  126MOL0     H17348   3.242  10.527   6.369 -1.1376  1.9993  0.6891
  126MOL0     H17349   3.250  10.510   6.551  1.2324  3.0119 -1.0582
  126MOL0     H17350   3.564  10.369   6.722 -3.1445  0.2822 -4.5253
  126MOL0     H17351   3.786  10.471   6.800 -1.4997 -0.9844  1.1331
  126MOL0     H17352   4.052  10.551   6.444 -1.6093  0.7091 -0.3839
  126MOL0     H17353   4.030  10.672   6.568  1.7555  0.9776 -1.5156
  126MOL0     H17354   4.229  10.593   6.695  1.1106  0.3229 -1.0034
  126MOL0     H17355   4.257  10.469   6.582  3.4334  1.0315 -0.0244
  126MOL0     H17356   4.385  10.697   6.563 -1.5657 -0.0729  1.9214
  126MOL0     H17357   4.232  10.760   6.496  1.0192  1.5124 -0.5996
  126MOL0     H17358   4.211  10.618   6.315 -0.7995 -0.6838  0.9536
  126MOL0     H17359   4.339  10.511   6.365 -1.7989  0.3491 -1.0151
  126MOL0     H17360   4.375  10.804   6.298 -3.0456 -0.7589 -0.5268
  126MOL0     H17361   4.511  10.701   6.331 -0.4136 -0.7143  0.5250
  126MOL0     H17362   4.489  10.737   6.099  0.2808  0.0547  1.1515
  126MOL0     H17363   4.323  10.695   6.087  1.5859 -0.2434 -4.3328
  126MOL0     H17364   4.448  10.521   5.984 -1.0684 -1.2070 -0.1642
  126MOL0     H17365   4.375  10.453   6.133 -0.1691  0.3929  0.5987
  126MOL0     H17366   4.569  10.464   6.243 -3.0198 -2.2118 -0.5669
  126MOL0     H17367   4.662  10.576   6.141  1.0581 -1.3762  2.9427
  126MOL0     H17368   3.965  10.337   6.440  0.9846 -4.4780  1.6698
  126MOL0     H17369   3.746  10.200   6.391  0.8357  1.2891 -1.3764
  126MOL0     H17370   3.391  10.067   6.360  0.1284 -0.6904  2.1895
  126MOL0     H17371   3.178   9.956   6.366 -4.5479 -0.5465  2.0366
  126MOL0     H17372   1.583   8.768   5.693  2.2690  1.8369  0.9039
  126MOL0     H17373   1.578   8.619   5.490  1.6006 -1.2611  0.1573
  126MOL0     H17374   1.641   8.596   5.031  1.5708  1.5061  1.4887
  126MOL0     H17375   1.659   8.491   4.833 -1.4714  4.6408  3.4177
  126MOL0     H17376   1.674   8.222   4.725 -0.9690  2.4441  2.0125
  126MOL0     H17377   1.675   8.363   4.640 -0.7907 -0.4399  1.9692
  126MOL0     H17378   1.684   8.173   4.481 -1.1173  0.9480 -0.9080
  126MOL0     H17379   1.850   8.136   4.540  1.3972  1.0957  0.9029
  126MOL0     H17380   1.794   8.405   4.427 -1.0669 -0.4648  3.8305
  126MOL0     H17381   1.936   8.332   4.473 -0.1596 -1.8645  0.6293
  126MOL0     H17382   1.925   8.319   4.222 -0.0776  1.9708  1.9014
  126MOL0     H17383   1.753   8.273   4.219 -1.5483 -3.8898  0.1973
  126MOL0     H17384   1.948   7.891   4.274  1.3707  0.4337 -0.4785
  126MOL0     H17385   2.018   8.315   4.934  1.0518  0.2178  3.5744
  126MOL0     H17386   2.027   8.436   5.294  0.4199  0.5961 -0.0032
  126MOL0     H17387   2.078   8.314   5.170 -0.4791 -0.4659 -0.2186
  126MOL0     H17388   2.127   8.479   5.165 -1.3348  1.3768  1.9362
  127MOL0     O17389   3.264   6.071   0.547  0.1522  1.1472 -0.6226
  127MOL0     C17390   3.184   6.064   0.637 -0.0102 -0.1982  0.0840
  127MOL0     O17391   3.181   5.958   0.728  0.0573 -0.6139 -1.3401
  127MOL0     C17392   3.266   5.852   0.724  1.3619  0.7543 -1.1010
  127MOL0     C17393   3.268   5.749   0.629  0.1560 -0.0684  0.6011
  127MOL0     C17394   3.347   5.636   0.650 -0.3654 -0.5002 -0.2463
  127MOL0     C17395   3.412   5.608   0.756  0.3635  0.0578 -0.1739
  127MOL0     O17396   3.476   5.488   0.753  0.0141  0.1328  0.0601
  127MOL0     C17397   3.619   5.499   0.780 -0.2639  0.8943  0.2123
  127MOL0     C17398   3.668   5.354   0.815  0.0991 -0.8862  0.4342
  127MOL0     C17399   3.816   5.335   0.872 -0.9267 -0.0694  0.8947
  127MOL0     C17400   3.911   5.309   0.751 -0.5573 -0.3090  0.9837
  127MOL0     C17401   4.046   5.249   0.793  0.1551 -0.0722 -0.4818
  127MOL0     C17402   4.154   5.246   0.677 -0.4530 -1.2376 -0.7145
  127MOL0     C17403   4.288   5.195   0.736 -1.2393 -0.3366 -0.8233
  127MOL0     C17404   4.402   5.204   0.628  0.2203  0.5884  0.2799
  127MOL0     N17405   4.424   5.354   0.590 -0.2768  0.5232 -0.3435
  127MOL0     C17406   4.473   5.409   0.480 -0.4256 -0.3367  0.0540
  127MOL0     C17407   4.491   5.539   0.504 -0.5104 -0.0478 -0.3821
  127MOL0     C17408   4.532   5.647   0.401  0.0744 -0.0300 -0.5695
  127MOL0     C17409   4.452   5.783   0.414  0.0785 -0.5689 -0.3147
  127MOL0     C17410   4.485   5.879   0.302  1.7712 -0.4651 -0.0115
  127MOL0     C17411   4.406   6.018   0.298 -0.3523  0.2777  0.2657
  127MOL0     O17412   4.263   6.016   0.282  0.7087 -0.3666 -0.3709
  127MOL0     C17413   4.192   6.129   0.321  0.1495  0.4089 -0.3291
  127MOL0     C17414   4.253   6.256   0.325  1.0158 -0.2721 -1.4525
  127MOL0     C17415   4.183   6.363   0.355  0.0758 -0.5850  0.5216
  127MOL0     C17416   4.255   6.500   0.349 -0.3484  0.3065  0.0341
  127MOL0     C17417   4.050   6.350   0.404  0.9365 -0.3828  0.6361
  127MOL0     C17418   3.976   6.462   0.456  0.0917 -0.4261  0.9560
  127MOL0     O17419   3.839   6.472   0.422 -0.2082  0.8973 -1.0323
  127MOL0     C17420   3.771   6.571   0.476 -0.3050 -0.7246  0.1914
  127MOL0     C17421   3.642   6.527   0.506 -1.1960 -0.0086 -0.5961
  127MOL0     C17422   3.553   6.617   0.567  0.1642 -0.5092  0.2304
  127MOL0     C17423   3.592   6.754   0.601 -0.5333 -0.5694 -0.3243
  127MOL0     O17424   3.509   6.852   0.654  0.5093  0.3585 -0.2515
  127MOL0     C17425   3.373   6.849   0.588  0.0280 -0.0939  0.1935
  127MOL0     C17426   3.322   6.995   0.577  0.8936 -0.1351 -0.2752
  127MOL0     C17427   3.175   7.008   0.518  0.2918 -0.5900  0.3546
  127MOL0     C17428   3.122   7.158   0.550 -0.1731 -0.6828  0.2113
  127MOL0     C17429   2.966   7.148   0.544  0.2807  0.2508  0.4773
  127MOL0     C17430   2.884   7.263   0.603  0.1067  0.0310  0.2451
  127MOL0     C17431   2.738   7.220   0.649  0.8068  0.1900  0.2153
  127MOL0     C17432   2.656   7.344   0.690  0.6474  0.3225 -0.7600
  127MOL0    Cl17433   2.673   7.359   0.863  0.6411  0.3947 -0.0015
  127MOL0     C17434   3.716   6.792   0.555 -0.2210  1.1381 -0.0047
  127MOL0     C17435   3.803   6.707   0.487 -0.2039 -0.2533 -0.6010
  127MOL0     O17436   4.030   6.524   0.544 -0.1478 -0.6131  0.2277
  127MOL0     C17437   3.981   6.231   0.385 -0.3692  1.5780 -0.3201
  127MOL0     C17438   4.054   6.120   0.337  0.6942 -0.8826 -1.2340
  127MOL0     N17439   4.466   5.565   0.635  0.2627 -0.0778  0.3867
  127MOL0     N17440   4.413   5.456   0.683 -0.2343  0.0985 -0.6998
  127MOL0     C17441   3.402   5.698   0.871 -0.2912 -0.6912  0.4628
  127MOL0     C17442   3.335   5.818   0.849 -0.0357 -0.8005  0.3588
  127MOL0     C17443   3.079   6.173   0.664 -0.7570  0.0710  0.2737
  127MOL0     C17444   2.958   6.134   0.734  1.1917 -0.0075  0.1738
  127MOL0     C17445   2.856   6.241   0.750 -0.1095  0.1940  0.2129
  127MOL0     C17446   2.870   6.368   0.702  0.1861 -0.3120  0.1790
  127MOL0     O17447   2.766   6.451   0.713 -0.3444  0.0813 -0.7654
  127MOL0     C17448   2.788   6.546   0.815 -0.2549 -1.0082  0.1053
  127MOL0     C17449   2.883   6.669   0.787  0.6120  0.5387  0.7737
  127MOL0     C17450   2.836   6.736   0.660 -0.1698  0.2807  0.5965
  127MOL0     C17451   2.717   6.837   0.671 -0.0318 -1.1682 -0.3742
  127MOL0     C17452   2.587   6.764   0.658 -0.7964 -0.2695 -0.2512
  127MOL0     C17453   2.474   6.722   0.660  0.5431 -0.2622  0.3978
  127MOL0     C17454   2.991   6.391   0.634  0.4184 -0.3669  0.2604
  127MOL0     C17455   3.093   6.308   0.614 -0.6097  1.1285  0.3795
  127MOL0     C17456   3.220   6.364   0.537  0.2806  0.1446 -0.6691
  127MOL0     H17457   3.218   5.764   0.534  0.6235  0.8323  0.4853
  127MOL0     H17458   3.353   5.559   0.574 -0.1167  0.0002 -0.7355
  127MOL0     H17459   3.639   5.544   0.878  2.7371 -2.1554  1.2004
  127MOL0     H17460   3.685   5.531   0.699  2.2831 -0.5360  1.5521
  127MOL0     H17461   3.595   5.322   0.889 -2.8330  3.4259 -0.2448
  127MOL0     H17462   3.661   5.292   0.725  2.0158 -0.0197 -0.3645
  127MOL0     H17463   3.831   5.429   0.925 -2.6251 -0.0735  1.4662
  127MOL0     H17464   3.832   5.252   0.941  0.7063 -0.6720 -0.1603
  127MOL0     H17465   3.869   5.248   0.670 -1.9008 -0.4244  1.7387
  127MOL0     H17466   3.944   5.404   0.707 -0.8577  2.0363  5.2410
  127MOL0     H17467   4.046   5.148   0.836 -2.6740  0.7967  1.9502
  127MOL0     H17468   4.076   5.318   0.873 -1.7018  0.4054 -0.1325
  127MOL0     H17469   4.122   5.186   0.591 -1.7465 -2.5810  0.6427
  127MOL0     H17470   4.160   5.350   0.644 -3.2712 -0.2719  1.4020
  127MOL0     H17471   4.277   5.091   0.769 -2.0750  1.5026  6.4476
  127MOL0     H17472   4.304   5.249   0.829 -1.1029  0.4572 -1.2968
  127MOL0     H17473   4.491   5.147   0.656 -0.7989 -1.7089 -0.8794
  127MOL0     H17474   4.358   5.163   0.536  1.0946 -0.1067  0.1541
  127MOL0     H17475   4.491   5.357   0.386 -1.7788  2.1073 -1.6873
  127MOL0     H17476   4.503   5.611   0.302  0.1825  1.9816 -1.3976
  127MOL0     H17477   4.640   5.662   0.409  0.0047  0.7815 -1.0171
  127MOL0     H17478   4.345   5.763   0.413 -0.5903  1.7884  3.5947
  127MOL0     H17479   4.481   5.830   0.508 -0.6618 -0.2049 -0.2657
  127MOL0     H17480   4.592   5.902   0.310  1.1901  2.1353  1.4146
  127MOL0     H17481   4.468   5.838   0.202 -1.9213 -0.1138  0.3500
  127MOL0     H17482   4.435   6.070   0.390 -2.6665  0.9480  0.6819
  127MOL0     H17483   4.439   6.078   0.213 -0.4372 -0.9899 -0.6970
  127MOL0     H17484   4.355   6.255   0.287  0.8271 -1.2551 -1.9755
  127MOL0     H17485   4.304   6.520   0.445 -0.2756  4.2429 -0.6606
  127MOL0     H17486   4.172   6.570   0.333 -1.4994 -1.1845 -0.7980
  127MOL0     H17487   4.323   6.500   0.264 -1.0719  0.9283 -0.5654
  127MOL0     H17488   3.598   6.428   0.502 -3.1230  0.7551  0.4337
  127MOL0     H17489   3.450   6.586   0.584 -0.4843  0.7887 -1.1442
  127MOL0     H17490   3.371   6.803   0.489 -1.4593 -2.0995  1.0805
  127MOL0     H17491   3.303   6.797   0.655  1.3490  0.1865  1.8582
  127MOL0     H17492   3.313   7.033   0.679 -0.2294 -0.8518 -0.0948
  127MOL0     H17493   3.380   7.064   0.514 -1.8645  1.2367 -1.4948
  127MOL0     H17494   3.113   6.929   0.563 -3.1109  2.0791  0.7795
  127MOL0     H17495   3.161   6.979   0.414  0.7636 -0.7247  0.3266
  127MOL0     H17496   3.164   7.225   0.475  1.6349  0.0339  1.7859
  127MOL0     H17497   3.156   7.201   0.644 -0.7166  1.7902 -0.6593
  127MOL0     H17498   2.937   7.134   0.440  2.6871 -2.2835  0.0139
  127MOL0     H17499   2.930   7.060   0.598 -0.9820  0.8816  0.7028
  127MOL0     H17500   2.873   7.327   0.515  2.4881 -2.1502 -1.7915
  127MOL0     H17501   2.930   7.308   0.691 -0.7366  0.0829  0.6729
  127MOL0     H17502   2.743   7.144   0.728 -1.4576  0.4610  0.7003
  127MOL0     H17503   2.688   7.163   0.571  0.4512  1.3034 -0.3858
  127MOL0     H17504   2.552   7.336   0.656 -0.3480 -0.8524  2.2567
  127MOL0     H17505   2.688   7.438   0.643 -1.5923  1.2048 -0.6436
  127MOL0     H17506   3.730   6.898   0.569  0.1873  1.1315 -0.3364
  127MOL0     H17507   3.899   6.750   0.459 -1.0465  1.8661 -0.3929
  127MOL0     H17508   3.877   6.212   0.410 -0.7200  1.9208 -1.4403
  127MOL0     H17509   4.022   6.019   0.312  0.2367 -1.5758  1.7919
  127MOL0     H17510   3.461   5.685   0.960 -1.1558 -2.2992  0.8292
  127MOL0     H17511   3.342   5.898   0.922  3.8656 -0.6613  0.0589
  127MOL0     H17512   2.933   6.039   0.779 -0.1231  1.4498  2.7257
  127MOL0     H17513   2.764   6.227   0.806  0.2203  1.4713  1.1265
  127MOL0     H17514   2.688   6.584   0.838 -0.7749 -2.2091 -0.0476
  127MOL0     H17515   2.829   6.495   0.902 -0.5600  2.0086  2.1596
  127MOL0     H17516   2.989   6.644   0.775  1.0985  2.2216  1.3842
  127MOL0     H17517   2.872   6.750   0.859 -0.4035  1.6149 -0.5368
  127MOL0     H17518   2.925   6.794   0.634 -0.3054 -0.3727 -1.4912
  127MOL0     H17519   2.828   6.679   0.567  3.7638  1.5028 -0.6876
  127MOL0     H17520   2.722   6.903   0.584  0.4518  0.6023  0.9277
  127MOL0     H17521   2.728   6.899   0.760  0.7813 -1.0890 -0.5187
  127MOL0     H17522   2.372   6.690   0.661  0.6285 -0.8796 -2.2937
  127MOL0     H17523   3.001   6.489   0.588  0.0524 -0.4495  0.0038
  127MOL0     H17524   3.222   6.472   0.523  4.2597  0.5174  1.2486
  127MOL0     H17525   3.310   6.351   0.598 -0.8804  0.5282  1.2250
  127MOL0     H17526   3.230   6.307   0.445 -0.8936  0.8985 -1.2867
  128MOL0     O17527   4.137  10.020   1.063 -1.0483 -0.0649 -0.1025
  128MOL0     C17528   4.072  10.078   1.142 -0.1775  0.6100 -0.1930
  128MOL0     O17529   3.935  10.059   1.159 -1.5848  0.4432 -0.0760
  128MOL0     C17530   3.888   9.968   1.069 -0.0361  0.0923  0.1703
  128MOL0     C17531   3.832  10.017   0.948  0.1461 -0.8053  0.0353
  128MOL0     C17532   3.777   9.932   0.852 -1.1225  0.7403 -0.1720
  128MOL0     C17533   3.765   9.797   0.888 -0.5826  0.1228  0.0047
  128MOL0     O17534   3.700   9.722   0.786  0.6197 -0.4125  0.0422
  128MOL0     C17535   3.697   9.579   0.796  0.3189 -0.0901  0.1168
  128MOL0     C17536   3.594   9.540   0.690  0.1518 -0.6700  0.3180
  128MOL0     C17537   3.649   9.591   0.554 -0.6762 -0.1650  0.0904
  128MOL0     C17538   3.582   9.509   0.437 -0.3627 -0.0351  0.2873
  128MOL0     C17539   3.654   9.519   0.296  0.1168 -0.3914  0.2929
  128MOL0     C17540   3.800   9.471   0.298  0.3834  0.0491 -0.4807
  128MOL0     C17541   3.811   9.331   0.351  0.1863  0.9358 -0.5998
  128MOL0     C17542   3.951   9.272   0.375 -0.1658 -0.0617  0.7383
  128MOL0     N17543   3.949   9.131   0.339 -0.2500  0.3111 -0.4452
  128MOL0     C17544   3.967   9.079   0.212 -0.3760 -0.1683 -0.0524
  128MOL0     C17545   3.946   8.940   0.223  0.1119 -0.0799  0.9254
  128MOL0     C17546   3.943   8.829   0.120  0.3185 -0.4507 -0.4186
  128MOL0     C17547   4.076   8.800   0.061 -0.0850 -0.5429 -0.0201
  128MOL0     C17548   4.188   8.781   0.170 -0.0868  0.3007 -0.0784
  128MOL0     C17549   4.216   8.630   0.218  0.1724  0.1394 -0.2552
  128MOL0     O17550   4.345   8.638   0.278 -0.0785 -0.5811 -0.0773
  128MOL0     C17551   4.396   8.547   0.362 -0.4831  0.3756 -0.6372
  128MOL0     C17552   4.497   8.589   0.450 -0.0810 -0.2688  0.8489
  128MOL0     C17553   4.555   8.494   0.534  0.7901 -0.2599 -0.3387
  128MOL0     C17554   4.686   8.551   0.609 -0.6744  0.1018  0.6117
  128MOL0     C17555   4.509   8.361   0.546  0.0410  0.7747  0.2008
  128MOL0     C17556   4.578   8.250   0.615  1.3071 -0.5722 -0.9792
  128MOL0     O17557   4.511   8.136   0.643 -0.3504 -0.3717 -0.2857
  128MOL0     C17558   4.576   8.031   0.710 -0.2973  0.4895 -0.8305
  128MOL0     C17559   4.625   8.051   0.843 -0.4272  0.2060  0.0093
  128MOL0     C17560   4.691   7.937   0.900  0.3476 -0.8695  0.2773
  128MOL0     C17561   4.704   7.810   0.837  0.1462  0.3742 -0.5463
  128MOL0     O17562   4.767   7.701   0.893 -0.0834 -0.6118 -0.1526
  128MOL0     C17563   4.851   7.722   1.008  0.5388 -0.3697 -0.0584
  128MOL0     C17564   4.897   7.580   1.039 -0.0294  0.1035 -0.9565
  128MOL0     C17565   4.938   7.556   1.183  0.3928 -0.6465  0.8761
  128MOL0     C17566   5.011   7.421   1.183 -0.9641 -0.1574 -0.1787
  128MOL0     C17567   5.063   7.398   1.323  0.1348  0.0120 -1.3464
  128MOL0     C17568   5.157   7.285   1.335  0.0264 -0.4174  0.4240
  128MOL0     C17569   5.076   7.152   1.316 -0.0610 -0.6734  0.7464
  128MOL0     C17570   5.153   7.040   1.345  0.5010  0.6251  0.0515
  128MOL0    Cl17571   5.060   6.904   1.381  0.2355  0.2904  0.7948
  128MOL0     C17572   4.648   7.799   0.710  0.4529 -0.1636 -0.0515
  128MOL0     C17573   4.573   7.903   0.653 -0.1465 -0.5205 -0.3550
  128MOL0     O17574   4.700   8.267   0.653  0.2797  0.8257  0.6321
  128MOL0     C17575   4.396   8.319   0.462 -0.3191 -0.2820 -0.4202
  128MOL0     C17576   4.352   8.419   0.367  0.7717  0.6639 -0.7270
  128MOL0     N17577   3.928   8.916   0.353  0.0012  0.0005  0.2622
  128MOL0     N17578   3.926   9.027   0.419  0.2330  0.0353 -0.8391
  128MOL0     C17579   3.812   9.743   1.004  0.2157 -0.4887 -1.3607
  128MOL0     C17580   3.873   9.830   1.096  0.5949 -0.7062  1.1716
  128MOL0     C17581   4.151  10.167   1.233 -0.5155 -0.0673 -0.0716
  128MOL0     C17582   4.132  10.144   1.370  0.3342 -0.1050 -0.3116
  128MOL0     C17583   4.196  10.226   1.462 -0.0741 -0.2803 -0.4584
  128MOL0     C17584   4.279  10.332   1.425  0.1745 -0.1848  0.2397
  128MOL0     O17585   4.344  10.416   1.520  0.0915  0.3335 -0.0297
  128MOL0     C17586   4.432  10.527   1.484 -0.7860  0.2940  0.8595
  128MOL0     C17587   4.479  10.585   1.616 -0.1280 -0.1527  0.0138
  128MOL0     C17588   4.360  10.621   1.716  0.9463 -0.7620 -0.1527
  128MOL0     C17589   4.302  10.756   1.669  0.4844 -0.4097  0.2842
  128MOL0     C17590   4.389  10.877   1.688 -0.2032  0.5086  0.4658
  128MOL0     C17591   4.454  10.978   1.706  0.7131 -0.1748  0.7168
  128MOL0     C17592   4.305  10.346   1.286  0.3946 -0.1820  0.4459
  128MOL0     C17593   4.242  10.263   1.191 -0.0470 -1.7490  0.6081
  128MOL0     C17594   4.278  10.281   1.044  0.2521  0.3482 -0.3261
  128MOL0     H17595   3.841  10.114   0.899 -1.4126  0.0972  1.4564
  128MOL0     H17596   3.742   9.967   0.756 -0.6388  0.2373 -0.5342
  128MOL0     H17597   3.656   9.551   0.894 -2.3223  0.9556 -0.6015
  128MOL0     H17598   3.792   9.535   0.766 -0.4698 -4.0165  2.4883
  128MOL0     H17599   3.584   9.431   0.690 -2.5635 -0.5023 -0.2071
  128MOL0     H17600   3.496   9.585   0.711  0.0056 -2.0459  2.9500
  128MOL0     H17601   3.635   9.699   0.545  3.4879  0.4584 -0.7762
  128MOL0     H17602   3.757   9.581   0.545 -0.7234 -0.4736 -0.1627
  128MOL0     H17603   3.568   9.403   0.458  0.3622 -0.3874 -0.9676
  128MOL0     H17604   3.485   9.559   0.429  0.4107  1.3721 -0.9070
  128MOL0     H17605   3.661   9.625   0.268 -0.2147 -0.0039  1.6127
  128MOL0     H17606   3.604   9.463   0.216  1.4687 -1.5258  0.2134
  128MOL0     H17607   3.864   9.477   0.209  3.2636  3.3432  1.5690
  128MOL0     H17608   3.847   9.542   0.366 -2.1507 -2.2351  4.1290
  128MOL0     H17609   3.738   9.267   0.302  0.6039 -0.3956  0.4607
  128MOL0     H17610   3.772   9.339   0.453 -0.3587 -0.8682 -0.6371
  128MOL0     H17611   4.027   9.325   0.316  2.5677 -2.6528  1.6989
  128MOL0     H17612   3.991   9.277   0.476  0.6856 -0.0432  0.4120
  128MOL0     H17613   3.984   9.139   0.123 -1.5068  0.8218  0.3805
  128MOL0     H17614   3.878   8.854   0.035  1.6842 -2.5188 -2.1738
  128MOL0     H17615   3.906   8.746   0.181 -0.9542  0.1610 -0.3115
  128MOL0     H17616   4.074   8.707   0.003  1.0765 -1.7983  1.8330
  128MOL0     H17617   4.114   8.885   0.003  0.1175 -1.1455 -0.7852
  128MOL0     H17618   4.280   8.827   0.134  3.2443 -1.2267  5.3052
  128MOL0     H17619   4.166   8.836   0.262  1.5588 -3.6497  2.9427
  128MOL0     H17620   4.142   8.595   0.290  1.8212 -3.6636 -0.1732
  128MOL0     H17621   4.212   8.566   0.130  4.6171  1.5672 -1.7970
  128MOL0     H17622   4.524   8.692   0.427 -3.8375  1.3307  2.7804
  128MOL0     H17623   4.697   8.656   0.581 -0.6241 -0.8005 -3.3028
  128MOL0     H17624   4.777   8.503   0.572 -0.3316  3.1086 -2.9857
  128MOL0     H17625   4.682   8.538   0.718  0.7636 -0.8135  0.5905
  128MOL0     H17626   4.627   8.150   0.887 -1.4179  0.9583 -1.5246
  128MOL0     H17627   4.720   7.958   1.002 -2.4168  0.0519  0.9476
  128MOL0     H17628   4.934   7.793   1.000 -1.7592  2.9076  2.4863
  128MOL0     H17629   4.784   7.759   1.086  0.0254  1.0244 -1.1286
  128MOL0     H17630   4.814   7.510   1.026 -0.6101  0.4256  0.8236
  128MOL0     H17631   4.973   7.552   0.966  1.5764  1.2452  0.2125
  128MOL0     H17632   4.849   7.564   1.247 -0.1305 -0.1735  0.1169
  128MOL0     H17633   5.000   7.642   1.212  0.2963 -1.1032  2.5117
  128MOL0     H17634   5.094   7.428   1.112 -0.1350  0.4157  0.8250
  128MOL0     H17635   4.936   7.345   1.158  0.2963 -1.6767  0.4386
  128MOL0     H17636   5.113   7.489   1.357 -4.0169  1.3067  2.2416
  128MOL0     H17637   4.974   7.390   1.386 -0.0163 -0.2642 -1.5910
  128MOL0     H17638   5.203   7.293   1.434  0.6717  1.2103  0.0208
  128MOL0     H17639   5.234   7.286   1.257 -0.4996  1.7682 -0.1299
  128MOL0     H17640   5.019   7.142   1.223 -1.4239 -0.3997  1.5186
  128MOL0     H17641   5.005   7.154   1.400 -0.9417 -1.5534  0.0514
  128MOL0     H17642   5.225   7.046   1.428  1.7028 -3.2717 -0.4676
  128MOL0     H17643   5.209   7.011   1.256 -2.9001 -2.4613 -1.3027
  128MOL0     H17644   4.672   7.707   0.656  0.7203 -0.4428  0.5342
  128MOL0     H17645   4.530   7.898   0.554  2.4257 -0.3889 -1.5625
  128MOL0     H17646   4.351   8.220   0.454 -0.9078 -0.0515  0.0203
  128MOL0     H17647   4.283   8.391   0.288 -1.0421 -1.3103  1.4165
  128MOL0     H17648   3.807   9.640   1.039 -3.1009  0.7412  2.5316
  128MOL0     H17649   3.905   9.799   1.195 -2.0719  0.4197  2.4731
  128MOL0     H17650   4.060  10.067   1.394 -0.1757  1.6939  5.5569
  128MOL0     H17651   4.184  10.196   1.566  2.3618 -0.3062 -0.1256
  128MOL0     H17652   4.516  10.490   1.425 -2.1850  0.5260 -1.4202
  128MOL0     H17653   4.371  10.591   1.418 -0.8316 -0.9126 -0.3017
  128MOL0     H17654   4.547  10.669   1.600 -2.0652  1.2880 -1.0542
  128MOL0     H17655   4.530  10.506   1.672 -0.9061  0.0567  1.0435
  128MOL0     H17656   4.282  10.545   1.717 -2.1513  1.7572 -5.2193
  128MOL0     H17657   4.390  10.627   1.821  0.2241 -1.5823  0.1124
  128MOL0     H17658   4.221  10.791   1.734 -0.1905 -0.9088 -0.2843
  128MOL0     H17659   4.257  10.752   1.570 -0.1496  1.2848  0.4654
  128MOL0     H17660   4.517  11.064   1.708  0.7505 -0.1203 -1.1950
  128MOL0     H17661   4.377  10.420   1.254  1.3213 -1.8061 -1.4138
  128MOL0     H17662   4.339  10.195   1.016 -1.9308 -1.2522 -0.3800
  128MOL0     H17663   4.182  10.274   0.993 -0.9446  0.8498  1.7294
  128MOL0     H17664   4.324  10.376   1.014  2.4109 -0.9192 -1.3006
  129MOL0     O17665  10.650   6.691   0.421 -0.4117 -0.1132  0.3295
  129MOL0     C17666  10.709   6.655   0.523 -0.9990  0.3882  0.7737
  129MOL0     O17667  10.847   6.651   0.539  0.6275  0.5847 -0.5599
  129MOL0     C17668  10.918   6.666   0.432 -0.5112 -0.0140 -0.5095
  129MOL0     C17669  10.969   6.551   0.358  0.2632  1.1571  0.4419
  129MOL0     C17670  11.057   6.562   0.244 -0.3154 -0.0636 -0.1457
  129MOL0     C17671  11.075   6.693   0.191 -0.1929  0.9869  0.6174
  129MOL0     O17672  11.143   6.727   0.070  0.7214  0.0124 -0.2288
  129MOL0     C17673  11.218   6.622   0.007 -0.4376  0.2381  0.2242
  129MOL0     C17674  11.289   6.667  -0.126 -1.9177  0.0054  1.0367
  129MOL0     C17675  11.187   6.700  -0.233  1.2368 -0.0631 -0.3500
  129MOL0     C17676  11.241   6.720  -0.371  0.0014 -0.6681 -0.5128
  129MOL0     C17677  11.313   6.590  -0.431  0.4386 -0.0641  0.7216
  129MOL0     C17678  11.350   6.616  -0.576  0.2724 -0.4396  0.3419
  129MOL0     C17679  11.424   6.487  -0.629 -0.4562  0.0153  1.2981
  129MOL0     C17680  11.525   6.520  -0.738  0.7156 -0.3461  0.1799
  129MOL0     N17681  11.487   6.476  -0.877 -0.6282  0.6405  0.1254
  129MOL0     C17682  11.377   6.525  -0.947  1.5013  1.5156  0.0016
  129MOL0     C17683  11.354   6.431  -1.042  0.1622 -0.5312  0.8536
  129MOL0     C17684  11.227   6.442  -1.131  0.2463  0.0492  0.9335
  129MOL0     C17685  11.260   6.400  -1.269 -0.4889  0.0224 -0.4118
  129MOL0     C17686  11.155   6.448  -1.366  0.6570  0.7967 -0.4353
  129MOL0     C17687  11.198   6.412  -1.497  0.2081  0.0250  0.4002
  129MOL0     O17688  11.105   6.466  -1.605  0.0329  0.9983 -0.3927
  129MOL0     C17689  11.147   6.563  -1.681  0.6144 -0.4781  0.5971
  129MOL0     C17690  11.091   6.566  -1.816 -0.5346  0.5603 -0.4616
  129MOL0     C17691  11.133   6.675  -1.907 -0.1493 -0.6895  0.0505
  129MOL0     C17692  11.080   6.666  -2.042 -0.5635  0.3826 -0.1631
  129MOL0     C17693  11.222   6.778  -1.857  0.0330 -0.1521  0.2433
  129MOL0     C17694  11.278   6.886  -1.935  0.1723 -0.1860  0.0039
  129MOL0     O17695  11.324   6.990  -1.867  0.6082 -0.6281 -0.0908
  129MOL0     C17696  11.341   7.107  -1.938 -0.1399  1.4754  0.2133
  129MOL0     C17697  11.465   7.131  -2.000 -0.3272 -1.3131  0.0894
  129MOL0     C17698  11.489   7.250  -2.073 -0.2821 -0.1424  0.5897
  129MOL0     C17699  11.390   7.344  -2.081  0.7379 -0.6516 -0.1850
  129MOL0     O17700  11.420   7.466  -2.139 -0.0578  0.7176  0.3357
  129MOL0     C17701  11.520   7.544  -2.080  0.1418 -0.2368  0.2551
  129MOL0     C17702  11.480   7.631  -1.952 -0.0111  0.5440  0.3786
  129MOL0     C17703  11.597   7.694  -1.880 -0.2502 -0.0745  0.0151
  129MOL0     C17704  11.702   7.771  -1.962 -0.0374  0.1698  0.2262
  129MOL0     C17705  11.816   7.819  -1.875 -0.2368 -0.4754  0.7316
  129MOL0     C17706  11.936   7.890  -1.945  0.3509 -1.2782 -0.3531
  129MOL0     C17707  12.022   7.781  -2.008 -1.1646 -0.0283 -0.1271
  129MOL0     C17708  12.170   7.802  -1.994  0.9847  0.8732 -0.6864
  129MOL0    Cl17709  12.251   7.650  -2.033  0.0854  0.0203 -0.1512
  129MOL0     C17710  11.269   7.328  -2.007  0.2174  0.0648  1.0866
  129MOL0     C17711  11.236   7.209  -1.939 -0.8037 -0.4798  1.3403
  129MOL0     O17712  11.272   6.870  -2.060  0.2073 -0.6396 -0.3667
  129MOL0     C17713  11.282   6.757  -1.728  0.2961 -0.2392  0.4299
  129MOL0     C17714  11.231   6.666  -1.641 -0.3602  0.0600 -0.0592
  129MOL0     N17715  11.445   6.326  -1.031 -0.7102 -0.5617 -1.1848
  129MOL0     N17716  11.523   6.360  -0.928  0.8787  0.9017  0.6127
  129MOL0     C17717  11.029   6.802   0.269  0.3377 -0.5589 -0.4404
  129MOL0     C17718  10.967   6.793   0.392 -0.4939 -0.1327  0.9065
  129MOL0     C17719  10.623   6.638   0.640 -0.0505 -0.3531  0.1120
  129MOL0     C17720  10.554   6.518   0.655 -0.3292  0.1642 -0.3749
  129MOL0     C17721  10.441   6.516   0.741  0.5157 -0.3034  0.2112
  129MOL0     C17722  10.401   6.633   0.808  1.3305  0.4496  0.4569
  129MOL0     O17723  10.279   6.635   0.877 -0.0756  0.3717  0.9542
  129MOL0     C17724  10.214   6.758   0.903  0.0025  0.7392 -0.1021
  129MOL0     C17725  10.077   6.739   0.963 -0.8499  0.3772 -0.4809
  129MOL0     C17726   9.995   6.866   0.987  0.9362  0.4509  0.2835
  129MOL0     C17727  10.050   6.956   1.092 -0.2301 -0.5970 -0.3070
  129MOL0     C17728   9.950   7.042   1.160  0.0905 -1.4752 -0.1646
  129MOL0     C17729   9.871   7.111   1.230  0.4873 -0.3706 -0.1094
  129MOL0     C17730  10.482   6.744   0.789  0.0076 -0.6322  0.1756
  129MOL0     C17731  10.594   6.749   0.721  0.5064  0.1949 -0.1901
  129MOL0     C17732  10.685   6.862   0.721 -0.2811  0.6475  0.3331
  129MOL0     H17733  10.923   6.456   0.384 -2.2200  1.4657 -2.1674
  129MOL0     H17734  11.080   6.476   0.183  2.2649  0.0405  0.5725
  129MOL0     H17735  11.165   6.529  -0.016  1.1351 -0.8934  0.9668
  129MOL0     H17736  11.304   6.603   0.072  2.4836  1.0161 -3.1238
  129MOL0     H17737  11.359   6.748  -0.102  1.1992 -1.1682 -2.9720
  129MOL0     H17738  11.351   6.585  -0.161 -3.8407 -1.3675  0.6811
  129MOL0     H17739  11.123   6.612  -0.238  2.7219 -1.1625 -0.5700
  129MOL0     H17740  11.126   6.776  -0.183 -1.0822 -3.8110  3.0643
  129MOL0     H17741  11.164   6.744  -0.445 -0.6731 -0.7950  0.1422
  129MOL0     H17742  11.309   6.805  -0.364  2.4732 -2.2705 -2.7388
  129MOL0     H17743  11.259   6.498  -0.410  0.5628  0.3753  3.2908
  129MOL0     H17744  11.407   6.577  -0.377  0.7678 -3.5516 -0.4548
  129MOL0     H17745  11.271   6.623  -0.651  0.6023  1.1871  0.0989
  129MOL0     H17746  11.400   6.713  -0.577  0.7743 -0.6911  0.6685
  129MOL0     H17747  11.350   6.413  -0.659 -0.5224  0.6425 -0.1659
  129MOL0     H17748  11.482   6.448  -0.544 -0.0517 -2.2487  0.0589
  129MOL0     H17749  11.564   6.622  -0.736  1.9512 -0.8022  0.5883
  129MOL0     H17750  11.617   6.466  -0.713  0.9928  0.9414  2.1636
  129MOL0     H17751  11.320   6.614  -0.926 -1.3244  0.0803 -1.1221
  129MOL0     H17752  11.184   6.542  -1.120  0.7711  0.2719  0.9410
  129MOL0     H17753  11.154   6.375  -1.085 -0.7658 -0.1931 -0.9033
  129MOL0     H17754  11.354   6.441  -1.304 -0.8324  1.2379  0.0527
  129MOL0     H17755  11.260   6.291  -1.254  0.4286 -0.5315 -3.6623
  129MOL0     H17756  11.058   6.400  -1.352  1.8618 -1.6476  0.0077
  129MOL0     H17757  11.152   6.556  -1.351  2.0567  0.7241  0.5515
  129MOL0     H17758  11.303   6.438  -1.515  0.7034 -1.3330  1.2230
  129MOL0     H17759  11.197   6.303  -1.489 -1.7657  0.0994  2.3044
  129MOL0     H17760  11.017   6.489  -1.836 -0.4141  0.1330  0.6619
  129MOL0     H17761  11.152   6.644  -2.122 -1.1593 -0.8597 -0.3937
  129MOL0     H17762  11.038   6.759  -2.082 -2.1401 -2.2980 -5.9671
  129MOL0     H17763  11.002   6.589  -2.051 -0.7327  0.6952 -1.5819
  129MOL0     H17764  11.541   7.054  -1.989 -0.6930 -1.4531  2.1594
  129MOL0     H17765  11.582   7.251  -2.130 -2.8583 -1.6500 -4.1480
  129MOL0     H17766  11.617   7.496  -2.064  0.0608  0.0457  1.7907
  129MOL0     H17767  11.542   7.621  -2.155 -1.0022  1.5337  1.6441
  129MOL0     H17768  11.410   7.711  -1.979 -0.7528 -0.0324  0.5674
  129MOL0     H17769  11.439   7.571  -1.871 -1.1226 -1.3967 -1.5253
  129MOL0     H17770  11.662   7.615  -1.841  0.0987 -0.0620 -0.5361
  129MOL0     H17771  11.551   7.763  -1.809 -0.8784  0.0487 -0.5011
  129MOL0     H17772  11.651   7.854  -2.011  2.0589  1.3518 -0.0564
  129MOL0     H17773  11.727   7.698  -2.040 -0.9653  1.8112 -1.6996
  129MOL0     H17774  11.768   7.898  -1.817 -1.6250  0.3752 -1.4501
  129MOL0     H17775  11.855   7.739  -1.812  4.0056 -0.9748 -2.1350
  129MOL0     H17776  12.007   7.932  -1.874  0.2112 -1.3505 -0.1690
  129MOL0     H17777  11.900   7.964  -2.016 -1.0237 -2.7073 -1.2285
  129MOL0     H17778  11.994   7.769  -2.113 -0.6432 -1.6881 -0.1127
  129MOL0     H17779  12.007   7.681  -1.966  2.3603 -1.6529 -2.2613
  129MOL0     H17780  12.188   7.835  -1.891  1.4195 -0.9803 -0.1354
  129MOL0     H17781  12.208   7.875  -2.066  2.6323 -0.6312 -1.4016
  129MOL0     H17782  11.205   7.415  -2.016 -0.7563 -0.5917  1.3721
  129MOL0     H17783  11.139   7.192  -1.895 -1.2391 -2.0341 -0.1554
  129MOL0     H17784  11.368   6.818  -1.704 -1.7828  3.0071  0.1619
  129MOL0     H17785  11.271   6.656  -1.541  2.1283 -5.2415 -1.2232
  129MOL0     H17786  11.034   6.906   0.238 -2.5047 -0.0346  0.5574
  129MOL0     H17787  10.937   6.882   0.446 -1.9484 -0.5280  0.7947
  129MOL0     H17788  10.574   6.427   0.600  1.8112 -0.8285  1.8520
  129MOL0     H17789  10.389   6.422   0.756  1.5303 -0.7445  1.1602
  129MOL0     H17790  10.284   6.809   0.969  1.9915 -2.7170  0.7259
  129MOL0     H17791  10.193   6.802   0.805  0.2607  0.4199 -0.3053
  129MOL0     H17792  10.089   6.685   1.057  2.3416  0.9303 -0.4615
  129MOL0     H17793  10.016   6.677   0.896 -0.6754 -0.0705 -0.2270
  129MOL0     H17794   9.969   6.921   0.896 -4.4360 -0.8141  0.7369
  129MOL0     H17795   9.897   6.832   1.019 -0.1430  1.6191 -1.5678
  129MOL0     H17796  10.122   7.024   1.046  0.4535 -1.4831 -0.5863
  129MOL0     H17797  10.106   6.901   1.169  1.9300 -0.1813 -1.5053
  129MOL0     H17798   9.801   7.173   1.282  0.1899 -0.7282 -0.0762
  129MOL0     H17799  10.473   6.833   0.850  1.3781 -1.0473  1.0441
  129MOL0     H17800  10.781   6.834   0.677 -2.1876 -4.2135 -1.4275
  129MOL0     H17801  10.635   6.940   0.663 -1.6799  0.1542  0.8205
  129MOL0     H17802  10.693   6.883   0.828 -0.7182 -0.0933  0.5182
  130MOL0     O17803   7.253   0.875   2.202  0.7445  0.4319 -0.3595
  130MOL0     C17804   7.303   0.909   2.314 -0.3719 -0.2958 -0.7561
  130MOL0     O17805   7.348   1.032   2.351  0.4376 -0.4820 -0.8125
  130MOL0     C17806   7.338   1.146   2.270  0.6223  0.1091  0.0988
  130MOL0     C17807   7.370   1.143   2.134  0.2204  0.2846  0.3302
  130MOL0     C17808   7.396   1.265   2.061  0.6300  0.8086 -0.5075
  130MOL0     C17809   7.352   1.390   2.123 -1.5887  0.2250 -0.1472
  130MOL0     O17810   7.348   1.516   2.065  0.4437  0.8288  0.7819
  130MOL0     C17811   7.429   1.525   1.951 -0.1743  0.7344  0.7451
  130MOL0     C17812   7.492   1.667   1.931  0.0409 -1.0654 -0.2251
  130MOL0     C17813   7.564   1.705   2.063 -0.5789  0.2779 -0.7012
  130MOL0     C17814   7.714   1.756   2.059 -0.1797  0.2009  1.5342
  130MOL0     C17815   7.760   1.813   2.195 -0.2110 -0.3302 -0.6407
  130MOL0     C17816   7.864   1.915   2.181  0.6804 -0.5175 -0.1593
  130MOL0     C17817   8.002   1.857   2.172  0.2893 -0.0714  0.1220
  130MOL0     C17818   8.107   1.966   2.139  0.0121 -0.6025  0.8344
  130MOL0     N17819   8.071   2.038   2.006 -0.2325 -0.0599  0.1255
  130MOL0     C17820   8.094   2.176   1.977 -0.0833  0.4570  0.2317
  130MOL0     C17821   8.094   2.175   1.845  0.4467 -0.6906  0.5098
  130MOL0     C17822   8.116   2.301   1.758 -0.1317  1.2436 -0.5410
  130MOL0     C17823   8.227   2.391   1.811  0.6668  0.3010  0.4466
  130MOL0     C17824   8.367   2.312   1.833  0.4520  0.4173  0.8192
  130MOL0     C17825   8.410   2.245   1.703  0.1107 -1.3596  0.3962
  130MOL0     O17826   8.519   2.158   1.739  0.0507  0.3951  0.2855
  130MOL0     C17827   8.622   2.146   1.657  0.4177 -0.2374  0.0049
  130MOL0     C17828   8.750   2.171   1.710  0.6073 -0.3671 -0.1007
  130MOL0     C17829   8.875   2.171   1.646 -0.5466  0.3843 -0.8193
  130MOL0     C17830   9.002   2.183   1.729  0.3157  0.2955 -1.0987
  130MOL0     C17831   8.865   2.157   1.504 -0.0408  0.3961 -0.4102
  130MOL0     C17832   8.985   2.162   1.414 -0.1338 -0.8072 -0.4480
  130MOL0     O17833   9.103   2.120   1.468  0.3002  0.6282 -0.1009
  130MOL0     C17834   9.210   2.085   1.400 -0.4983  0.0607 -0.0613
  130MOL0     C17835   9.259   2.155   1.284 -0.1386  0.1223  0.3619
  130MOL0     C17836   9.390   2.126   1.232  0.2170  0.5753 -0.6791
  130MOL0     C17837   9.470   2.032   1.287  0.8234  0.2781  0.1962
  130MOL0     O17838   9.601   2.014   1.252 -0.0604  0.3721 -0.0336
  130MOL0     C17839   9.699   2.087   1.330  0.8085  0.7578  0.0703
  130MOL0     C17840   9.795   2.156   1.241 -0.0638 -0.0830  0.1409
  130MOL0     C17841   9.746   2.276   1.160  0.0237  0.0741  0.0179
  130MOL0     C17842   9.695   2.221   1.027 -0.2792  0.3796  0.1517
  130MOL0     C17843   9.609   2.319   0.944 -1.0731 -0.0904 -1.1951
  130MOL0     C17844   9.681   2.454   0.926 -0.1223 -0.2979 -0.1014
  130MOL0     C17845   9.584   2.530   0.833 -0.1442  0.5632 -0.1123
  130MOL0     C17846   9.634   2.672   0.812 -0.1864 -0.0845 -0.4644
  130MOL0    Cl17847   9.805   2.680   0.756  0.1108 -0.2489 -0.0359
  130MOL0     C17848   9.416   1.968   1.398 -0.0838 -0.0119 -0.9589
  130MOL0     C17849   9.289   1.987   1.447  0.4700 -0.3334  0.3566
  130MOL0     O17850   8.960   2.174   1.292 -0.1724  0.3380 -0.7536
  130MOL0     C17851   8.740   2.142   1.442  0.0551  0.5398 -0.7381
  130MOL0     C17852   8.618   2.142   1.515 -0.8746 -0.3780 -0.7159
  130MOL0     N17853   8.071   2.053   1.788  0.8734 -0.8274 -0.2957
  130MOL0     N17854   8.060   1.970   1.888 -0.1928  0.2517  0.1657
  130MOL0     C17855   7.311   1.393   2.256 -0.0125  0.5457  0.1551
  130MOL0     C17856   7.318   1.271   2.330 -0.2200 -0.0320 -0.4155
  130MOL0     C17857   7.335   0.805   2.417 -0.3916 -0.1850  0.1852
  130MOL0     C17858   7.437   0.834   2.512 -0.8155  0.4676 -0.0222
  130MOL0     C17859   7.471   0.742   2.618 -0.2835 -0.4019 -0.1873
  130MOL0     C17860   7.407   0.616   2.618  1.0035  0.1707  0.5565
  130MOL0     O17861   7.445   0.509   2.694  0.0444 -0.5444  0.1521
  130MOL0     C17862   7.583   0.499   2.748 -0.3000 -0.2000 -0.0896
  130MOL0     C17863   7.613   0.351   2.782 -0.0860  0.1935 -0.1445
  130MOL0     C17864   7.537   0.305   2.908 -0.6061 -0.3709 -0.7432
  130MOL0     C17865   7.570   0.162   2.950 -0.8609 -1.9219 -0.0858
  130MOL0     C17866   7.459   0.109   3.026 -0.6482 -0.3738  0.0076
  130MOL0     C17867   7.375   0.057   3.104  0.1044 -0.5769  0.3695
  130MOL0     C17868   7.312   0.596   2.512 -0.3944  0.4043 -0.6870
  130MOL0     C17869   7.266   0.686   2.424  1.4591 -0.1667 -0.3409
  130MOL0     C17870   7.142   0.642   2.344 -0.4955  0.1434  0.8273
  130MOL0     H17871   7.389   1.057   2.071  2.1916  0.5977  0.4390
  130MOL0     H17872   7.441   1.260   1.962 -1.4437  1.3704 -1.5273
  130MOL0     H17873   7.378   1.483   1.864  0.2859  0.6975  0.4847
  130MOL0     H17874   7.520   1.466   1.965 -2.4598 -3.5019 -0.4916
  130MOL0     H17875   7.569   1.670   1.853 -0.1293  0.4252 -0.3832
  130MOL0     H17876   7.410   1.737   1.911 -0.7436 -2.1901 -1.0916
  130MOL0     H17877   7.512   1.789   2.109  0.8403 -1.2481  4.4081
  130MOL0     H17878   7.556   1.624   2.136  2.0116  0.2159 -0.4147
  130MOL0     H17879   7.786   1.675   2.041 -0.6362 -0.1421  1.2119
  130MOL0     H17880   7.718   1.829   1.978  1.4385 -1.2831  0.2061
  130MOL0     H17881   7.799   1.734   2.259 -1.3620  0.3301  0.9407
  130MOL0     H17882   7.674   1.860   2.244 -1.4655 -1.2269 -1.8839
  130MOL0     H17883   7.840   1.971   2.090 -1.3229 -0.7295  0.2042
  130MOL0     H17884   7.866   1.992   2.259  0.6435 -0.4447 -0.2292
  130MOL0     H17885   8.000   1.779   2.096  0.4855 -2.7473  2.6643
  130MOL0     H17886   8.026   1.805   2.265  0.9680  0.3858  0.2089
  130MOL0     H17887   8.116   2.033   2.224 -0.5186  0.6995 -0.1067
  130MOL0     H17888   8.203   1.920   2.111 -0.2378  0.1317 -1.4572
  130MOL0     H17889   8.119   2.260   2.040  6.3981 -0.6653 -0.1920
  130MOL0     H17890   8.027   2.365   1.755 -2.5556 -1.9063 -3.7960
  130MOL0     H17891   8.143   2.282   1.653  2.2964 -1.3013  0.4080
  130MOL0     H17892   8.254   2.464   1.733  4.0543 -1.3114 -0.0737
  130MOL0     H17893   8.173   2.426   1.899 -1.1644  0.1886 -0.5675
  130MOL0     H17894   8.436   2.390   1.865 -1.5135  2.9923 -0.7695
  130MOL0     H17895   8.345   2.228   1.899 -1.9214  0.4046  0.1014
  130MOL0     H17896   8.324   2.195   1.657  0.8543 -0.8624 -1.6799
  130MOL0     H17897   8.436   2.329   1.638  0.3625  0.1135  2.3255
  130MOL0     H17898   8.752   2.189   1.817 -2.1332 -0.5697  0.0579
  130MOL0     H17899   9.069   2.100   1.706 -0.1096  0.5083 -3.4240
  130MOL0     H17900   8.973   2.169   1.834 -3.3254  2.2226 -1.6565
  130MOL0     H17901   9.043   2.284   1.717 -1.4012  1.3787  1.3371
  130MOL0     H17902   9.196   2.237   1.250 -0.9452  0.3655  2.2923
  130MOL0     H17903   9.427   2.152   1.133  0.3956 -3.5202 -1.8782
  130MOL0     H17904   9.647   2.157   1.397  0.6193 -0.2401  0.9891
  130MOL0     H17905   9.756   2.021   1.395  2.4042  2.5195  0.5540
  130MOL0     H17906   9.878   2.194   1.301  1.5630 -1.1159 -1.3829
  130MOL0     H17907   9.848   2.083   1.180 -1.3090 -0.5425 -0.4237
  130MOL0     H17908   9.813   2.360   1.139 -0.3744  0.8933  1.7969
  130MOL0     H17909   9.659   2.315   1.215 -0.3284 -2.9688  1.8055
  130MOL0     H17910   9.625   2.138   1.036 -0.6993  0.9148  2.3904
  130MOL0     H17911   9.787   2.191   0.976 -1.3377 -2.7146 -0.1062
  130MOL0     H17912   9.596   2.284   0.841  3.0719  3.5310 -3.2873
  130MOL0     H17913   9.514   2.333   0.996 -1.6663 -1.0617 -1.9863
  130MOL0     H17914   9.776   2.452   0.872 -1.6433  1.7949 -3.1106
  130MOL0     H17915   9.696   2.501   1.023 -0.1570 -1.7096  0.6239
  130MOL0     H17916   9.482   2.523   0.873 -0.1366 -0.6037 -0.2663
  130MOL0     H17917   9.588   2.483   0.734 -0.4373 -1.9558  0.9928
  130MOL0     H17918   9.627   2.731   0.905 -1.7266 -0.7217 -0.1489
  130MOL0     H17919   9.572   2.728   0.742  2.1157  1.3331 -1.4981
  130MOL0     H17920   9.477   1.892   1.445  4.2024  3.5482 -0.1081
  130MOL0     H17921   9.265   1.931   1.536 -1.8353 -1.1685 -0.7170
  130MOL0     H17922   8.720   2.143   1.335 -0.5924 -2.5477 -0.7426
  130MOL0     H17923   8.522   2.139   1.463 -1.0185  1.6057 -0.6221
  130MOL0     H17924   7.305   1.486   2.310  1.6014  2.2387 -2.3372
  130MOL0     H17925   7.303   1.261   2.437 -1.9341  2.2127 -0.3611
  130MOL0     H17926   7.505   0.919   2.512  3.2116 -2.4253  1.7054
  130MOL0     H17927   7.552   0.770   2.684 -0.2460  0.8770 -0.7300
  130MOL0     H17928   7.657   0.545   2.682 -1.7991  0.8362 -1.1091
  130MOL0     H17929   7.591   0.565   2.836 -0.6217 -0.5965  0.2420
  130MOL0     H17930   7.718   0.337   2.805 -0.2517 -0.1177  0.4154
  130MOL0     H17931   7.590   0.290   2.694  2.3928  2.8582 -2.9051
  130MOL0     H17932   7.557   0.373   2.991 -2.1669  1.5230 -1.8234
  130MOL0     H17933   7.431   0.305   2.881 -0.3387 -0.5231 -1.8253
  130MOL0     H17934   7.668   0.159   2.999 -1.5209  1.5975  1.7405
  130MOL0     H17935   7.569   0.112   2.853 -0.3673  1.6586 -2.1239
  130MOL0     H17936   7.311   0.017   3.179 -0.1554  0.5984  0.7869
  130MOL0     H17937   7.260   0.501   2.520  0.6500 -0.2912 -1.8122
  130MOL0     H17938   7.101   0.549   2.384 -0.2109 -1.3736 -2.1005
  130MOL0     H17939   7.062   0.716   2.345 -3.1392 -2.4958  0.3510
  130MOL0     H17940   7.169   0.620   2.240 -0.1452  1.7582  0.5466
  131MOL0     O17941  11.396   6.322   4.989 -0.1996 -0.3021 -0.0989
  131MOL0     C17942  11.418   6.246   4.898 -0.6216  1.2433 -0.5997
  131MOL0     O17943  11.403   6.113   4.904  0.2173  0.0271 -0.7497
  131MOL0     C17944  11.411   6.066   5.036  0.4322  0.5950  0.4574
  131MOL0     C17945  11.301   6.003   5.095 -0.4148 -0.0508 -0.6086
  131MOL0     C17946  11.306   5.956   5.227  0.8844 -0.3791  0.4297
  131MOL0     C17947  11.432   5.947   5.283  0.2596  0.5937  0.2594
  131MOL0     O17948  11.429   5.899   5.413  0.6224  0.6386 -0.6311
  131MOL0     C17949  11.494   5.973   5.513 -0.2333 -0.2837  0.3844
  131MOL0     C17950  11.441   6.116   5.541 -0.7880  0.2447  0.0556
  131MOL0     C17951  11.488   6.231   5.440 -0.5593  0.4137  0.4265
  131MOL0     C17952  11.643   6.249   5.454  0.3583 -1.0190  0.2007
  131MOL0     C17953  11.697   6.339   5.350 -0.8039  0.3706  1.0740
  131MOL0     C17954  11.656   6.492   5.356 -0.0461  1.3774 -0.1649
  131MOL0     C17955  11.693   6.577   5.225  0.4949  0.2946  0.0267
  131MOL0     C17956  11.656   6.723   5.233  0.9626 -0.4390 -0.2606
  131MOL0     N17957  11.698   6.799   5.111 -0.0032  0.3873  0.3072
  131MOL0     C17958  11.639   6.805   4.984  0.1806  0.1389  0.4831
  131MOL0     C17959  11.729   6.846   4.899  0.6263  0.8454 -0.3983
  131MOL0     C17960  11.715   6.843   4.752 -0.1376  1.1360 -0.9009
  131MOL0     C17961  11.679   6.969   4.674  0.4137 -0.3615 -0.5400
  131MOL0     C17962  11.562   6.954   4.581  0.2268 -0.5125 -0.2301
  131MOL0     C17963  11.499   7.072   4.523  0.2716  0.8598  0.7154
  131MOL0     O17964  11.375   7.038   4.469  0.7632 -0.4124  0.2367
  131MOL0     C17965  11.263   7.120   4.477  0.3999  0.1641 -0.8116
  131MOL0     C17966  11.141   7.056   4.439 -0.7970 -0.3635 -0.2888
  131MOL0     C17967  11.015   7.114   4.444  0.1886 -0.1110  0.0357
  131MOL0     C17968  10.896   7.026   4.418  0.1206 -1.2787 -0.1432
  131MOL0     C17969  11.008   7.250   4.483  0.6838  0.2353  0.7043
  131MOL0     C17970  10.894   7.335   4.468 -0.4348 -1.0910 -0.0878
  131MOL0     O17971  10.816   7.306   4.365  0.0981 -0.1715 -0.8024
  131MOL0     C17972  10.706   7.398   4.334 -0.1237  0.5679  0.4716
  131MOL0     C17973  10.590   7.339   4.282  0.8126  0.0206 -0.7119
  131MOL0     C17974  10.483   7.427   4.244  0.0680 -0.0145 -0.1386
  131MOL0     C17975  10.500   7.569   4.242 -0.2148  0.4251 -0.2816
  131MOL0     O17976  10.411   7.659   4.177 -0.2221 -0.3436 -0.3459
  131MOL0     C17977  10.299   7.692   4.261 -0.7672  0.3205  0.4443
  131MOL0     C17978  10.200   7.805   4.216  0.3183  0.0283  0.2464
  131MOL0     C17979  10.124   7.765   4.088 -0.2323 -0.1874  0.2907
  131MOL0     C17980  10.194   7.800   3.955 -0.8248  0.2468 -0.5326
  131MOL0     C17981  10.184   7.961   3.925 -0.4600  0.3242  0.1374
  131MOL0     C17982  10.234   7.994   3.780  0.2999 -0.5375 -0.1951
  131MOL0     C17983  10.126   7.968   3.674  0.2524  0.4494 -0.4827
  131MOL0     C17984  10.170   8.004   3.537 -0.8230 -0.2264 -0.9127
  131MOL0    Cl17985  10.227   8.175   3.539 -0.1903  0.5977 -0.0480
  131MOL0     C17986  10.618   7.622   4.305 -0.5187  0.5272 -0.3020
  131MOL0     C17987  10.722   7.542   4.343  0.1879 -0.0259  0.4497
  131MOL0     O17988  10.877   7.429   4.549 -0.0210 -0.2110 -0.4543
  131MOL0     C17989  11.125   7.315   4.520  0.3778  0.0535  0.4708
  131MOL0     C17990  11.256   7.255   4.523  0.4297 -0.3668  0.2067
  131MOL0     N17991  11.835   6.880   4.984 -0.3040 -0.0959 -0.2095
  131MOL0     N17992  11.823   6.852   5.106  0.4606  0.4613  0.0429
  131MOL0     C17993  11.551   5.988   5.221  0.1952 -0.2599  0.9642
  131MOL0     C17994  11.537   6.060   5.101  0.3622  0.3812  0.2476
  131MOL0     C17995  11.468   6.301   4.765  0.3865  0.6261 -0.1056
  131MOL0     C17996  11.530   6.216   4.674  0.5955  0.3231  0.3930
  131MOL0     C17997  11.572   6.259   4.546  0.5353  0.2960 -0.0923
  131MOL0     C17998  11.579   6.395   4.515  0.9469  0.4455 -0.5932
  131MOL0     O17999  11.632   6.448   4.399  0.7308  0.8927  0.5359
  131MOL0     C18000  11.659   6.374   4.275 -0.1757  0.6101 -0.3814
  131MOL0     C18001  11.653   6.463   4.157  0.1090 -0.2703  0.0453
  131MOL0     C18002  11.746   6.597   4.184  1.1737  0.5133 -0.3073
  131MOL0     C18003  11.656   6.723   4.228 -0.6675  0.3327  1.6054
  131MOL0     C18004  11.561   6.750   4.118 -0.0851 -0.6529 -0.1536
  131MOL0     C18005  11.487   6.778   4.024 -0.4122 -0.3731  0.3677
  131MOL0     C18006  11.528   6.479   4.610 -0.2799 -1.0224  0.3918
  131MOL0     C18007  11.470   6.439   4.737 -0.7812 -0.6238 -0.5794
  131MOL0     C18008  11.408   6.556   4.822 -0.3213  0.4425 -0.1990
  131MOL0     H18009  11.206   5.989   5.045 -0.7672  0.8511 -0.2163
  131MOL0     H18010  11.225   5.908   5.282  1.0892 -0.8006  0.3684
  131MOL0     H18011  11.602   5.972   5.494 -0.7726  0.9774 -3.5523
  131MOL0     H18012  11.475   5.926   5.610  0.0795  1.8766  1.5629
  131MOL0     H18013  11.333   6.109   5.556 -0.6351  1.6980  2.2474
  131MOL0     H18014  11.489   6.154   5.632  0.9826 -0.5971 -0.4931
  131MOL0     H18015  11.467   6.214   5.334  1.5430 -2.2917  0.3383
  131MOL0     H18016  11.425   6.318   5.463 -1.1500 -0.1180  0.8626
  131MOL0     H18017  11.672   6.279   5.555 -0.1020  0.6184 -0.1140
  131MOL0     H18018  11.689   6.151   5.441 -3.2369 -2.9662  1.0532
  131MOL0     H18019  11.660   6.311   5.251  0.5202 -1.0120  0.9393
  131MOL0     H18020  11.806   6.332   5.348 -0.5762  3.0663 -0.9287
  131MOL0     H18021  11.549   6.495   5.374 -0.1436  2.1837 -0.8537
  131MOL0     H18022  11.714   6.528   5.442 -1.4698  0.2836  1.3060
  131MOL0     H18023  11.656   6.534   5.131  3.4450  1.0493 -1.6160
  131MOL0     H18024  11.800   6.559   5.206  0.0943 -0.5906 -1.6259
  131MOL0     H18025  11.548   6.728   5.252  0.1450 -3.8017 -3.0446
  131MOL0     H18026  11.703   6.760   5.325  3.1573  0.4171 -1.6303
  131MOL0     H18027  11.535   6.788   4.960  0.3077 -0.5807  0.4230
  131MOL0     H18028  11.630   6.775   4.741  1.7441 -1.4530 -0.5250
  131MOL0     H18029  11.815   6.810   4.722  1.0611  3.0862  0.6880
  131MOL0     H18030  11.649   7.041   4.752  2.3861 -0.0069 -0.0560
  131MOL0     H18031  11.764   7.004   4.616 -0.6426  2.7392 -0.4165
  131MOL0     H18032  11.595   6.897   4.494  1.3890 -1.2125  0.6491
  131MOL0     H18033  11.475   6.906   4.628  0.9415 -3.9246 -2.0510
  131MOL0     H18034  11.505   7.140   4.609  4.3841 -0.8196  2.0142
  131MOL0     H18035  11.564   7.113   4.445  2.3095 -2.4273  0.4832
  131MOL0     H18036  11.153   6.953   4.406 -0.0497 -0.5045  0.3953
  131MOL0     H18037  10.870   7.035   4.312  0.8426  1.1769 -0.1646
  131MOL0     H18038  10.813   7.076   4.470 -0.7547 -2.9162  0.1185
  131MOL0     H18039  10.901   6.924   4.457  1.2604 -1.9934 -2.0367
  131MOL0     H18040  10.566   7.234   4.274 -1.4939  0.1806  2.3175
  131MOL0     H18041  10.397   7.368   4.211  1.9449 -3.2608  0.3644
  131MOL0     H18042  10.242   7.598   4.268 -0.1142 -0.0723  0.5049
  131MOL0     H18043  10.324   7.707   4.367 -2.0702 -1.9578  1.1548
  131MOL0     H18044  10.127   7.830   4.294 -0.4163 -2.3209  0.3875
  131MOL0     H18045  10.264   7.893   4.203 -0.3778  0.6258  0.7817
  131MOL0     H18046  10.027   7.815   4.079 -0.2737  0.0003  1.5451
  131MOL0     H18047  10.128   7.655   4.087  0.0703 -0.1829  0.6434
  131MOL0     H18048  10.149   7.748   3.870  1.0074 -1.6361 -0.4304
  131MOL0     H18049  10.300   7.773   3.959 -1.0896 -1.3716 -2.6548
  131MOL0     H18050  10.082   7.998   3.938 -0.2380  1.2441 -0.5747
  131MOL0     H18051  10.242   8.017   3.999  0.5846 -0.3517 -0.1480
  131MOL0     H18052  10.323   7.931   3.773  1.4125  0.9888 -0.4836
  131MOL0     H18053  10.279   8.094   3.790  0.2058 -0.7184  3.6294
  131MOL0     H18054  10.031   8.020   3.679 -0.8469 -0.7251 -4.8142
  131MOL0     H18055  10.096   7.863   3.671 -1.1553  0.7594  1.0732
  131MOL0     H18056  10.094   8.001   3.459  2.5509  1.1404 -4.5398
  131MOL0     H18057  10.255   7.941   3.509 -0.5919 -2.0454  3.1405
  131MOL0     H18058  10.624   7.730   4.293 -2.3215  0.5263 -1.7636
  131MOL0     H18059  10.817   7.588   4.368  0.0370  0.6559 -0.2128
  131MOL0     H18060  11.116   7.420   4.547  0.2516 -0.5330  3.0552
  131MOL0     H18061  11.337   7.317   4.559  0.4812  0.4191 -1.1784
  131MOL0     H18062  11.649   5.991   5.266  0.7313  1.7269 -0.1916
  131MOL0     H18063  11.618   6.125   5.072 -2.1076  3.8762  0.5722
  131MOL0     H18064  11.530   6.108   4.682  2.0290  0.0509 -2.0517
  131MOL0     H18065  11.633   6.196   4.483 -1.7800 -0.6168 -1.5073
  131MOL0     H18066  11.758   6.332   4.293 -0.5296  0.2709  0.8811
  131MOL0     H18067  11.593   6.287   4.263 -0.1190  0.6870 -1.2902
  131MOL0     H18068  11.547   6.488   4.141  0.7672  1.0401 -2.9521
  131MOL0     H18069  11.673   6.407   4.066 -3.7836  1.3846 -2.0677
  131MOL0     H18070  11.821   6.561   4.255  0.8931  0.0212 -0.2544
  131MOL0     H18071  11.802   6.628   4.095 -0.0741  1.8368 -0.6635
  131MOL0     H18072  11.722   6.809   4.241 -2.1637  1.4520  2.1425
  131MOL0     H18073  11.602   6.700   4.320 -0.0251 -1.4046  1.5816
  131MOL0     H18074  11.419   6.794   3.943 -0.0767  1.9767  0.4778
  131MOL0     H18075  11.527   6.583   4.579 -0.9447 -0.9011  0.8045
  131MOL0     H18076  11.484   6.631   4.847 -1.0600  0.2919  2.9763
  131MOL0     H18077  11.328   6.603   4.763 -1.6773 -1.6619 -0.1415
  131MOL0     H18078  11.349   6.526   4.909 -0.7057 -1.1734 -0.9780
  132MOL0     O18079   3.626  11.546  10.665 -0.8821 -0.6967 -0.3460
  132MOL0     C18080   3.653  11.428  10.703 -0.5128 -0.8698 -0.5888
  132MOL0     O18081   3.760  11.356  10.671 -0.4613  0.0879 -0.5810
  132MOL0     C18082   3.833  11.397  10.557  0.1023  0.5047  0.5986
  132MOL0     C18083   3.951  11.456  10.580  0.2010  0.2741 -0.1001
  132MOL0     C18084   4.028  11.491  10.463  0.8854  0.6638  0.0888
  132MOL0     C18085   3.985  11.448  10.326 -0.4578 -0.0092 -0.1330
  132MOL0     O18086   4.063  11.468  10.210  0.3763  0.2714 -0.0711
  132MOL0     C18087   4.173  11.557  10.230  0.1038  0.6657 -0.8508
  132MOL0     C18088   4.234  11.551  10.087 -0.3620 -0.6157  0.9038
  132MOL0     C18089   4.335  11.666  10.053  0.3641  0.0330 -0.5444
  132MOL0     C18090   4.482  11.645  10.093  0.4002 -0.3552 -0.2374
  132MOL0     C18091   4.513  11.608  10.237 -0.5074 -0.6125  0.4672
  132MOL0     C18092   4.655  11.555  10.267 -1.1566 -0.3563 -1.2093
  132MOL0     C18093   4.781  11.628  10.218  0.4412  0.2479 -1.0158
  132MOL0     C18094   4.788  11.763  10.272  0.4168 -0.7725 -0.0302
  132MOL0     N18095   4.910  11.832  10.226  0.0018  0.5248 -0.1696
  132MOL0     C18096   5.035  11.822  10.273  0.0821  0.1153  0.1456
  132MOL0     C18097   5.109  11.910  10.198 -1.0195 -0.2880  0.1241
  132MOL0     C18098   5.265  11.947  10.209 -0.5082  0.7731  0.0766
  132MOL0     C18099   5.329  11.909  10.347  0.0603  0.4348 -0.4529
  132MOL0     C18100   5.273  11.992  10.475  0.1540 -0.0273 -0.6491
  132MOL0     C18101   5.313  11.929  10.613 -0.6129  0.7646  0.1295
  132MOL0     O18102   5.274  11.794  10.627  0.0229  0.0566  0.2117
  132MOL0     C18103   5.135  11.772  10.636 -0.2014  0.3116 -0.1863
  132MOL0     C18104   5.105  11.638  10.628  0.4511 -0.0004  0.3686
  132MOL0     C18105   4.981  11.578  10.658  0.2681  0.5805  0.1611
  132MOL0     C18106   4.964  11.426  10.644 -0.5238  0.4251  0.8757
  132MOL0     C18107   4.872  11.661  10.687  0.0459 -1.2621  0.5682
  132MOL0     C18108   4.737  11.615  10.711  1.2316  0.0034  0.0088
  132MOL0     O18109   4.692  11.586  10.841 -0.0691  0.2093  0.4167
  132MOL0     C18110   4.564  11.546  10.867  0.2763  0.1679 -0.5038
  132MOL0     C18111   4.521  11.546  11.003 -0.6009  0.3480  0.9405
  132MOL0     C18112   4.393  11.504  11.028  0.3618 -1.1724 -0.2103
  132MOL0     C18113   4.302  11.463  10.931  0.0524  0.2705 -0.9844
  132MOL0     O18114   4.173  11.414  10.958  0.3063  0.2558  0.1127
  132MOL0     C18115   4.122  11.431  11.095  0.0699  0.0409  0.9891
  132MOL0     C18116   3.976  11.402  11.107  0.1086 -0.5261 -0.2776
  132MOL0     C18117   3.922  11.408  11.248 -0.0781 -0.5918  0.3240
  132MOL0     C18118   3.896  11.540  11.320  0.8634  0.7470 -0.7013
  132MOL0     C18119   3.849  11.512  11.466  0.0761  0.7216 -0.5503
  132MOL0     C18120   3.706  11.529  11.497  0.9636  0.0284  0.5335
  132MOL0     C18121   3.659  11.482  11.641  0.1840 -0.6721  1.3515
  132MOL0     C18122   3.522  11.518  11.688  0.0565  0.0844 -0.4383
  132MOL0    Cl18123   3.383  11.462  11.586  0.4914  0.2908 -0.0702
  132MOL0     C18124   4.346  11.450  10.799 -0.3249 -0.0136 -0.7549
  132MOL0     C18125   4.474  11.493  10.771 -0.1049  0.4939  0.2090
  132MOL0     O18126   4.670  11.604  10.607 -0.6971  0.2235 -0.6264
  132MOL0     C18127   4.906  11.802  10.671 -0.5241  0.4362  0.1296
  132MOL0     C18128   5.030  11.854  10.658 -0.5844  0.4551  0.0644
  132MOL0     N18129   5.032  11.972  10.104  0.1596  0.8339  1.3716
  132MOL0     N18130   4.913  11.920  10.121 -0.2330  0.4673  0.0879
  132MOL0     C18131   3.868  11.381  10.319  0.1346  0.1108  0.5047
  132MOL0     C18132   3.793  11.359  10.435  0.4852 -0.6554  0.2448
  132MOL0     C18133   3.546  11.371  10.795  0.0539  0.3627 -0.6618
  132MOL0     C18134   3.504  11.238  10.768  0.1073  0.4112  0.7552
  132MOL0     C18135   3.415  11.168  10.851  0.4114 -0.5336  0.4378
  132MOL0     C18136   3.362  11.227  10.978 -0.5441  1.7624 -0.5361
  132MOL0     O18137   3.299  11.130  11.059 -0.3937 -0.6730 -0.3737
  132MOL0     C18138   3.263  11.182  11.187 -0.0024 -0.4805  0.0290
  132MOL0     C18139   3.374  11.166  11.284  0.0166  0.6335 -1.1135
  132MOL0     C18140   3.434  11.028  11.289  0.0175 -0.0073 -0.5826
  132MOL0     C18141   3.350  10.913  11.347  0.6150 -0.3358  0.2485
  132MOL0     C18142   3.436  10.790  11.352  0.3373 -0.2030  0.8601
  132MOL0     C18143   3.517  10.704  11.351  0.7141  1.6583  0.1751
  132MOL0     C18144   3.407  11.357  11.004  1.0453  0.4641 -0.0067
  132MOL0     C18145   3.489  11.437  10.913 -0.1124 -0.1202 -0.3283
  132MOL0     C18146   3.528  11.571  10.952 -0.0144  0.0149  0.3528
  132MOL0     H18147   3.982  11.489  10.679  1.1610  0.0498 -0.3180
  132MOL0     H18148   4.126  11.524  10.496  1.6935 -2.0903  0.7044
  132MOL0     H18149   4.243  11.521  10.306 -1.0192  1.9796  0.8734
  132MOL0     H18150   4.147  11.654  10.272  2.3413  0.8911  0.1280
  132MOL0     H18151   4.268  11.447  10.083  0.0163 -0.4779  0.2841
  132MOL0     H18152   4.157  11.568  10.011  1.7051  0.7011 -1.0477
  132MOL0     H18153   4.308  11.692   9.951 -2.9692 -0.1697  0.1802
  132MOL0     H18154   4.292  11.754  10.101 -0.8290 -0.0852 -1.3598
  132MOL0     H18155   4.516  11.575  10.016 -0.1000  1.0713 -1.7995
  132MOL0     H18156   4.527  11.742  10.073  0.1391 -0.5464 -1.8965
  132MOL0     H18157   4.448  11.528  10.273  0.1487 -1.7358 -0.7975
  132MOL0     H18158   4.502  11.700  10.296 -1.7703  1.0356 -2.1731
  132MOL0     H18159   4.666  11.540  10.375  1.1780 -0.3951 -1.4145
  132MOL0     H18160   4.655  11.454  10.225  2.0478 -0.6038 -0.8144
  132MOL0     H18161   4.784  11.634  10.109  3.0273 -1.3295 -1.1033
  132MOL0     H18162   4.867  11.565  10.241 -2.4740 -3.1601  1.9178
  132MOL0     H18163   4.698  11.814  10.237 -1.3277 -2.5521  1.6374
  132MOL0     H18164   4.790  11.747  10.381  1.4608 -0.4773  0.0105
  132MOL0     H18165   5.069  11.766  10.359  3.0581 -0.8912 -1.5362
  132MOL0     H18166   5.263  12.056  10.198  2.1427  1.0139  1.2180
  132MOL0     H18167   5.325  11.900  10.132 -1.1249 -0.8539  0.5415
  132MOL0     H18168   5.294  11.806  10.363 -1.3088  0.8086 -0.9661
  132MOL0     H18169   5.437  11.911  10.330  0.0613  0.2015 -0.4868
  132MOL0     H18170   5.330  12.085  10.484  2.9847 -1.8869  3.8032
  132MOL0     H18171   5.164  11.997  10.466 -0.1469 -5.1867 -3.6274
  132MOL0     H18172   5.422  11.945  10.610  0.2603 -3.8396 -3.1675
  132MOL0     H18173   5.274  11.986  10.698 -3.0774  1.1377 -1.1763
  132MOL0     H18174   5.188  11.575  10.600 -1.0274 -1.6414 -0.5204
  132MOL0     H18175   4.866  11.396  10.681  0.2455 -0.9926  1.8213
  132MOL0     H18176   5.048  11.370  10.685 -0.7796 -0.1775  0.5768
  132MOL0     H18177   4.960  11.413  10.535  0.8475  0.6775  0.7757
  132MOL0     H18178   4.589  11.594  11.072  0.2476  2.3189 -1.1303
  132MOL0     H18179   4.361  11.507  11.132 -1.9477 -1.4621 -0.8608
  132MOL0     H18180   4.180  11.368  11.163  1.2830 -1.8894 -1.6468
  132MOL0     H18181   4.139  11.534  11.126 -1.7234  0.6370  0.1029
  132MOL0     H18182   3.908  11.460  11.044  0.9276 -0.3435 -1.0045
  132MOL0     H18183   3.971  11.295  11.084  0.9059  0.0851 -4.0080
  132MOL0     H18184   3.999  11.352  11.303 -0.0329  0.1805  1.0794
  132MOL0     H18185   3.826  11.356  11.258 -0.7115  0.9596  4.0380
  132MOL0     H18186   3.809  11.598  11.288 -0.3783  0.1590  1.4116
  132MOL0     H18187   3.983  11.607  11.318 -0.5343  3.0180  3.1878
  132MOL0     H18188   3.886  11.416  11.505 -1.4051  0.0596 -0.7035
  132MOL0     H18189   3.899  11.588  11.527  0.3856  1.2473 -1.4491
  132MOL0     H18190   3.646  11.453  11.447  0.4658 -1.6125  3.3697
  132MOL0     H18191   3.677  11.631  11.470  0.6690 -0.8111 -2.7776
  132MOL0     H18192   3.734  11.529  11.706  1.9147 -0.3062 -0.7882
  132MOL0     H18193   3.672  11.373  11.648 -0.5215 -1.0010 -1.2931
  132MOL0     H18194   3.515  11.626  11.703 -3.4556 -0.1343  0.3623
  132MOL0     H18195   3.511  11.485  11.792 -0.9603  2.2245  0.1884
  132MOL0     H18196   4.278  11.413  10.723  0.1597  2.8807 -2.7426
  132MOL0     H18197   4.501  11.469  10.669 -0.7154 -0.8377  0.3347
  132MOL0     H18198   4.828  11.876  10.689  0.6805  1.3941  1.6367
  132MOL0     H18199   5.038  11.961  10.672 -0.7832  0.2608  2.0296
  132MOL0     H18200   3.841  11.347  10.219  1.4683  3.4509 -1.1651
  132MOL0     H18201   3.701  11.302  10.445  0.3919 -0.3989  0.9223
  132MOL0     H18202   3.538  11.177  10.686 -0.9458 -2.0857  2.0772
  132MOL0     H18203   3.397  11.067  10.816  1.2095 -0.2170 -0.9730
  132MOL0     H18204   3.217  11.281  11.183 -1.3769 -1.0253  1.2082
  132MOL0     H18205   3.166  11.136  11.208 -0.5948  0.6995 -0.0640
  132MOL0     H18206   3.343  11.191  11.385  0.2738 -0.4529 -0.7535
  132MOL0     H18207   3.457  11.231  11.253  0.6640 -0.1751 -1.1102
  132MOL0     H18208   3.472  11.005  11.189 -1.8489 -4.7428 -0.5041
  132MOL0     H18209   3.521  11.030  11.354  1.0560  2.9818 -1.9285
  132MOL0     H18210   3.256  10.889  11.298  0.1231 -0.3848  1.1950
  132MOL0     H18211   3.329  10.943  11.450  1.5972 -2.2154  1.0555
  132MOL0     H18212   3.577  10.616  11.341  0.3180  1.1559  1.8828
  132MOL0     H18213   3.361  11.419  11.081  0.6032 -0.7787  0.7512
  132MOL0     H18214   3.473  11.646  10.895  1.0544  1.6200  1.3658
  132MOL0     H18215   3.516  11.587  11.059 -0.7564  1.8952  0.0139
  132MOL0     H18216   3.634  11.589  10.932  1.4671 -1.5073  5.3840
  133MOL0     O18217  11.465   4.200  10.329  0.4765  0.7702  0.1458
  133MOL0     C18218  11.438   4.317  10.322 -0.0567 -0.5943  0.0583
  133MOL0     O18219  11.471   4.392  10.218 -0.4471 -0.0289  0.2391
  133MOL0     C18220  11.585   4.369  10.140  1.0431 -0.4302  0.3478
  133MOL0     C18221  11.703   4.424  10.167  0.4735 -0.5325 -0.7632
  133MOL0     C18222  11.812   4.394  10.088 -0.3343 -0.7300 -0.1068
  133MOL0     C18223  11.804   4.313   9.974  0.6380  0.0997  0.0135
  133MOL0     O18224  11.906   4.316   9.882 -0.2862  0.4044 -0.3702
  133MOL0     C18225  12.040   4.249   9.914 -0.2999  0.1709 -0.1884
  133MOL0     C18226  12.139   4.230   9.794 -0.2678  0.6789 -0.6791
  133MOL0     C18227  12.176   4.358   9.727  0.0877 -0.1356  0.0558
  133MOL0     C18228  12.313   4.370   9.670  0.6395  1.2268 -0.2427
  133MOL0     C18229  12.341   4.483   9.573  1.1062 -0.8526 -0.2120
  133MOL0     C18230  12.475   4.542   9.565 -0.5630  0.6026  0.0666
  133MOL0     C18231  12.579   4.439   9.523 -0.2448 -0.5942 -0.1987
  133MOL0     C18232  12.588   4.430   9.376  0.3369  0.5758  0.6322
  133MOL0     N18233  12.697   4.347   9.328 -0.6735 -1.1826  0.8094
  133MOL0     C18234  12.825   4.389   9.303 -0.5766 -0.4002  0.0843
  133MOL0     C18235  12.905   4.279   9.294 -0.7308 -0.5110  0.1397
  133MOL0     C18236  13.052   4.285   9.267  0.2016 -0.7385 -0.3568
  133MOL0     C18237  13.125   4.231   9.389 -0.6445  0.3639  1.1147
  133MOL0     C18238  13.281   4.254   9.366 -0.6075 -0.1324 -0.9527
  133MOL0     C18239  13.363   4.225   9.504  0.0898 -0.6150  0.8380
  133MOL0     O18240  13.504   4.278   9.477 -0.4282  0.6536  0.4489
  133MOL0     C18241  13.585   4.245   9.582  0.6736  0.8425  0.1343
  133MOL0     C18242  13.560   4.286   9.708  0.2929  0.1089  0.0415
  133MOL0     C18243  13.638   4.236   9.813 -0.5781  0.4073 -0.1498
  133MOL0     C18244  13.617   4.276   9.957 -0.4242 -0.2767  0.3730
  133MOL0     C18245  13.743   4.138   9.787  0.3584  0.5227  1.2936
  133MOL0     C18246  13.824   4.090   9.888 -0.5158  0.4339 -0.2169
  133MOL0     O18247  13.938   4.143   9.951  0.4859 -0.6561  0.3455
  133MOL0     C18248  14.006   4.231   9.878 -0.2614 -0.6104  0.0436
  133MOL0     C18249  13.975   4.367   9.864  1.0200  0.5307  0.0618
  133MOL0     C18250  14.036   4.453   9.774  0.2450  0.0240 -0.0676
  133MOL0     C18251  14.157   4.415   9.718 -0.0870 -0.8129 -0.6794
  133MOL0     O18252  14.211   4.517   9.631  0.0417  0.4062 -0.2356
  133MOL0     C18253  14.354   4.499   9.612  0.2745  0.2555  0.3656
  133MOL0     C18254  14.379   4.590   9.504 -1.1414  0.4435 -0.1314
  133MOL0     C18255  14.348   4.525   9.370 -0.0439  0.6318 -0.8546
  133MOL0     C18256  14.374   4.615   9.259 -0.4110  0.2581  0.3155
  133MOL0     C18257  14.357   4.539   9.125 -0.0273  0.4934  0.0098
  133MOL0     C18258  14.480   4.470   9.074  0.7590 -0.2373  0.4518
  133MOL0     C18259  14.439   4.388   8.954  0.5041  0.7685  0.1606
  133MOL0     C18260  14.558   4.352   8.867 -0.6734 -1.0176 -0.2049
  133MOL0    Cl18261  14.688   4.260   8.969 -0.2311 -0.3668 -0.1101
  133MOL0     C18262  14.202   4.285   9.738  0.2020  0.6206 -0.6910
  133MOL0     C18263  14.131   4.198   9.822  0.4901 -0.0553 -0.0429
  133MOL0     O18264  13.772   3.980   9.925 -0.3915  0.4586 -0.2537
  133MOL0     C18265  13.757   4.088   9.650  0.9295 -0.3222  0.2449
  133MOL0     C18266  13.684   4.151   9.550 -1.1643 -0.5249  0.0885
  133MOL0     N18267  12.817   4.172   9.304 -0.9240 -0.0410 -0.2050
  133MOL0     N18268  12.698   4.209   9.315 -0.0369  0.5053 -0.4884
  133MOL0     C18269  11.674   4.259   9.947  0.8726  0.5875 -0.4123
  133MOL0     C18270  11.573   4.281  10.035 -0.2536 -0.0444  0.1165
  133MOL0     C18271  11.335   4.370  10.422  0.1794 -0.4161  0.3760
  133MOL0     C18272  11.288   4.286  10.531  0.1145  0.0472 -0.1889
  133MOL0     C18273  11.215   4.349  10.637 -0.1316  0.2317 -0.4964
  133MOL0     C18274  11.162   4.482  10.625  0.4065  0.3027 -0.0452
  133MOL0     O18275  11.105   4.525  10.744  0.1929 -0.6947  0.1512
  133MOL0     C18276  11.098   4.670  10.769 -0.4151  0.6035  0.2132
  133MOL0     C18277  10.969   4.731  10.723 -0.3335  0.2450 -0.7681
  133MOL0     C18278  10.851   4.674  10.808 -0.4659  0.1560  0.0663
  133MOL0     C18279  10.718   4.722  10.765  0.8154 -0.3263  0.6704
  133MOL0     C18280  10.622   4.665  10.858 -1.4623  0.2993 -1.0626
  133MOL0     C18281  10.539   4.616  10.933 -0.8244  0.0751 -1.5213
  133MOL0     C18282  11.195   4.550  10.507 -0.1354  0.4399  0.7014
  133MOL0     C18283  11.283   4.503  10.415  0.6665  0.4284  0.5346
  133MOL0     C18284  11.320   4.599  10.297  0.5057  0.9547  0.0608
  133MOL0     H18285  11.696   4.495  10.249 -0.5158 -1.5573  0.0744
  133MOL0     H18286  11.900   4.440  10.132 -2.9697  1.8769  2.9800
  133MOL0     H18287  12.023   4.152   9.961 -1.0937  0.9334  1.1850
  133MOL0     H18288  12.092   4.299   9.997 -0.6669  1.4638 -0.7069
  133MOL0     H18289  12.229   4.186   9.838 -0.8335 -1.4431 -1.5225
  133MOL0     H18290  12.111   4.154   9.719 -0.1016 -0.7378  0.6490
  133MOL0     H18291  12.100   4.381   9.651  1.6846  1.0440 -1.2436
  133MOL0     H18292  12.155   4.435   9.801  3.1202  0.9152 -0.0438
  133MOL0     H18293  12.378   4.377   9.758 -0.3578 -0.0830  0.6418
  133MOL0     H18294  12.325   4.278   9.612 -0.6677  1.2450 -0.5673
  133MOL0     H18295  12.271   4.563   9.599 -0.1845 -2.6743  2.2352
  133MOL0     H18296  12.311   4.460   9.470  2.6348  2.7672 -1.6547
  133MOL0     H18297  12.481   4.623   9.492 -1.7258  2.5566  2.0250
  133MOL0     H18298  12.503   4.596   9.656 -4.4396  0.5843  1.4657
  133MOL0     H18299  12.579   4.339   9.567 -1.5805  0.1263  1.5778
  133MOL0     H18300  12.665   4.501   9.551 -0.7879 -0.3008  0.8472
  133MOL0     H18301  12.494   4.387   9.342  0.6682  1.7076 -1.9127
  133MOL0     H18302  12.602   4.527   9.328  1.0335  0.8441  1.3461
  133MOL0     H18303  12.860   4.492   9.294 -0.4025 -0.5984 -1.7720
  133MOL0     H18304  13.090   4.387   9.254 -2.4848  0.6492  1.7199
  133MOL0     H18305  13.087   4.232   9.178 -0.1117  1.1387 -1.6679
  133MOL0     H18306  13.079   4.266   9.481 -3.3467 -1.4877  0.5857
  133MOL0     H18307  13.107   4.123   9.382 -0.2495  0.4067 -2.4894
  133MOL0     H18308  13.333   4.191   9.294 -0.4251  0.8400 -1.6939
  133MOL0     H18309  13.310   4.358   9.349 -2.3101  0.6368  0.4979
  133MOL0     H18310  13.320   4.262   9.598  3.1800  3.5370  0.9103
  133MOL0     H18311  13.383   4.120   9.529  2.2156 -0.7711 -1.1917
  133MOL0     H18312  13.481   4.354   9.738 -0.5417 -0.7430 -0.1653
  133MOL0     H18313  13.553   4.364   9.971  0.7839  0.8832 -0.9882
  133MOL0     H18314  13.716   4.290  10.001  0.1154  0.1789 -0.9146
  133MOL0     H18315  13.572   4.193  10.012 -1.4672 -1.6592 -2.3767
  133MOL0     H18316  13.895   4.416   9.919  0.5808 -0.3270  0.1985
  133MOL0     H18317  14.010   4.556   9.754  0.3328 -0.1886 -1.3364
  133MOL0     H18318  14.412   4.537   9.697  0.2740 -0.6038  0.7682
  133MOL0     H18319  14.389   4.401   9.578  0.7284  0.6910 -0.4177
  133MOL0     H18320  14.316   4.678   9.517 -2.8088  0.0959 -4.1805
  133MOL0     H18321  14.482   4.627   9.505 -1.5777  1.9100 -2.0296
  133MOL0     H18322  14.243   4.492   9.370 -0.7949  2.8433 -0.0562
  133MOL0     H18323  14.421   4.444   9.356 -0.7757 -0.1324 -0.3916
  133MOL0     H18324  14.474   4.659   9.269 -2.0346  4.0525  1.5272
  133MOL0     H18325  14.305   4.698   9.272  0.4929  1.1362 -0.3252
  133MOL0     H18326  14.281   4.463   9.146 -0.2180  0.1631 -1.7172
  133MOL0     H18327  14.323   4.613   9.052  2.0957  2.8943  1.3140
  133MOL0     H18328  14.512   4.410   9.160  0.2647 -0.6188  0.3771
  133MOL0     H18329  14.563   4.541   9.063  0.9240  0.2601  3.8699
  133MOL0     H18330  14.373   4.450   8.893 -2.3335 -0.2286  1.9713
  133MOL0     H18331  14.380   4.300   8.982 -0.2255  0.3091 -2.5529
  133MOL0     H18332  14.609   4.437   8.821  0.2357 -1.2202  0.4058
  133MOL0     H18333  14.530   4.283   8.787 -1.2737 -1.0461  0.0210
  133MOL0     H18334  14.302   4.252   9.711 -0.4053 -0.8811 -1.2139
  133MOL0     H18335  14.179   4.105   9.848  0.9774  0.7018  1.9202
  133MOL0     H18336  13.840   4.023   9.626  0.4449 -0.9646  0.2711
  133MOL0     H18337  13.713   4.117   9.452 -0.3481 -2.2490  0.8964
  133MOL0     H18338  11.653   4.194   9.863 -2.3223  1.9070 -0.8071
  133MOL0     H18339  11.484   4.220  10.019  1.1279 -2.1664  0.1635
  133MOL0     H18340  11.326   4.184  10.532  0.6379  0.2097  2.0380
  133MOL0     H18341  11.193   4.299  10.731  1.1358 -0.3139 -0.4677
  133MOL0     H18342  11.113   4.677  10.877 -0.2340 -0.4783  0.2732
  133MOL0     H18343  11.182   4.718  10.718  0.2229 -0.1625  0.5306
  133MOL0     H18344  10.965   4.711  10.615 -0.4060 -4.1779 -0.1521
  133MOL0     H18345  10.973   4.838  10.745  1.9327 -0.3036  2.0445
  133MOL0     H18346  10.864   4.568  10.828 -4.3613 -0.1204  2.1768
  133MOL0     H18347  10.868   4.728  10.902 -3.1144  2.7044 -0.7717
  133MOL0     H18348  10.705   4.672  10.668  0.0090 -1.0731  1.1393
  133MOL0     H18349  10.708   4.830  10.754  1.6145 -0.3932 -1.0056
  133MOL0     H18350  10.461   4.574  10.993 -0.8308  3.7462  1.3832
  133MOL0     H18351  11.163   4.653  10.498  3.2498  1.4333 -2.5785
  133MOL0     H18352  11.282   4.572  10.198 -0.3514  1.9198  0.1049
  133MOL0     H18353  11.278   4.698  10.313 -0.5517  0.8441 -1.6907
  133MOL0     H18354  11.428   4.598  10.310  0.6536  1.1285 -1.0592
  134MOL0     O18355   8.311   3.659   3.278 -0.6839  0.0477  0.7369
  134MOL0     C18356   8.339   3.571   3.194  0.3693 -0.3005 -0.7072
  134MOL0     O18357   8.257   3.535   3.092 -1.1249  0.7092 -0.0937
  134MOL0     C18358   8.167   3.628   3.053  0.0285  0.4276  0.2378
  134MOL0     C18359   8.205   3.735   2.967 -0.3313 -0.3265 -0.3424
  134MOL0     C18360   8.116   3.840   2.953  0.8822  0.1605  0.0097
  134MOL0     C18361   7.991   3.842   3.018 -0.3988 -0.1121 -0.1557
  134MOL0     O18362   7.894   3.929   3.015 -0.0623 -0.3698 -0.4299
  134MOL0     C18363   7.929   4.059   2.970 -0.7324  0.0630  0.5194
  134MOL0     C18364   7.819   4.156   3.019  0.5367 -0.4021  0.5575
  134MOL0     C18365   7.804   4.176   3.172 -0.0778  1.3350 -0.2135
  134MOL0     C18366   7.934   4.232   3.231 -0.3218 -0.7178  0.3382
  134MOL0     C18367   7.925   4.269   3.377  0.0586  0.0705 -0.6098
  134MOL0     C18368   8.035   4.336   3.444 -0.6609 -0.7536 -0.7549
  134MOL0     C18369   7.990   4.379   3.587  0.4791 -0.2071  0.0265
  134MOL0     C18370   8.103   4.452   3.663 -0.1119  1.2843  0.1829
  134MOL0     N18371   8.222   4.369   3.673 -0.2401 -0.8079 -0.2832
  134MOL0     C18372   8.233   4.254   3.748  0.8182  0.1148  0.4876
  134MOL0     C18373   8.360   4.215   3.742 -0.2116 -0.7764  0.6261
  134MOL0     C18374   8.412   4.090   3.805 -0.3343 -0.2419 -0.8053
  134MOL0     C18375   8.558   4.104   3.857 -0.8527 -0.3084 -0.7402
  134MOL0     C18376   8.620   3.986   3.936  0.2515  1.1207 -0.0107
  134MOL0     C18377   8.754   4.024   3.986  0.2894 -0.0619 -0.4834
  134MOL0     O18378   8.822   3.921   4.065  0.2286 -0.9406 -0.7789
  134MOL0     C18379   8.900   3.852   3.989 -0.2415  0.0147  0.3240
  134MOL0     C18380   9.033   3.877   3.989  1.0145  0.6230 -0.6404
  134MOL0     C18381   9.133   3.802   3.925  0.3139 -0.1270  0.4291
  134MOL0     C18382   9.271   3.855   3.938 -0.8573  0.1041 -0.5893
  134MOL0     C18383   9.090   3.680   3.867 -0.3008  0.1564 -0.9706
  134MOL0     C18384   9.189   3.581   3.826 -1.1135  0.0888 -0.2671
  134MOL0     O18385   9.138   3.465   3.774 -0.6411  0.4106  0.5215
  134MOL0     C18386   9.213   3.355   3.769  0.8255 -0.2408  0.2585
  134MOL0     C18387   9.224   3.261   3.868  0.1726  0.1522  0.0204
  134MOL0     C18388   9.301   3.145   3.847  0.2710  0.1414 -0.3097
  134MOL0     C18389   9.352   3.118   3.722  0.3268 -0.9548 -0.6122
  134MOL0     O18390   9.431   3.008   3.710 -0.2817  0.3239  0.4037
  134MOL0     C18391   9.444   2.939   3.578 -0.0588  0.2060 -0.3253
  134MOL0     C18392   9.567   2.860   3.584  0.4359 -0.3579 -0.1362
  134MOL0     C18393   9.562   2.757   3.703 -0.0556 -0.3032 -1.1287
  134MOL0     C18394   9.691   2.675   3.693  0.1561  0.1776 -0.4849
  134MOL0     C18395   9.704   2.579   3.805  0.1721 -0.1909 -0.0722
  134MOL0     C18396   9.613   2.451   3.782 -0.2521  0.6554  1.2426
  134MOL0     C18397   9.616   2.376   3.911 -0.1938 -0.5035 -0.3835
  134MOL0     C18398   9.551   2.236   3.908 -1.5506 -0.2340 -0.0127
  134MOL0    Cl18399   9.523   2.162   4.065 -0.0699 -0.3877 -0.4134
  134MOL0     C18400   9.346   3.217   3.623  0.3723  0.1575 -0.2800
  134MOL0     C18401   9.268   3.333   3.642 -0.1090 -0.9216 -0.2015
  134MOL0     O18402   9.308   3.602   3.844 -0.1280  0.4966 -0.3104
  134MOL0     C18403   8.947   3.649   3.885 -0.5014 -0.0879 -0.3783
  134MOL0     C18404   8.856   3.732   3.937 -0.9076 -0.1643  0.0535
  134MOL0     N18405   8.431   4.319   3.676  1.3503  0.2004 -0.4906
  134MOL0     N18406   8.346   4.414   3.641  0.8468  1.0927 -0.9944
  134MOL0     C18407   7.956   3.729   3.095 -0.7310 -0.3394 -0.0995
  134MOL0     C18408   8.043   3.621   3.110 -0.2988  0.5704 -0.3115
  134MOL0     C18409   8.477   3.509   3.214 -0.0011  0.9352 -0.6743
  134MOL0     C18410   8.560   3.565   3.320  0.2106 -0.5196 -0.3017
  134MOL0     C18411   8.688   3.514   3.346 -0.1004 -0.1947 -0.7928
  134MOL0     C18412   8.735   3.402   3.276 -0.2180 -0.7425 -0.9498
  134MOL0     O18413   8.863   3.350   3.280  0.0636  1.1040 -0.0480
  134MOL0     C18414   8.935   3.367   3.405  0.0738 -0.4140 -0.4609
  134MOL0     C18415   8.872   3.306   3.534 -0.2797 -0.4193  0.3898
  134MOL0     C18416   8.867   3.151   3.521  0.8943  0.0071  0.6605
  134MOL0     C18417   8.724   3.104   3.484  0.9781  0.5463  0.6297
  134MOL0     C18418   8.751   2.962   3.458  0.5443 -0.2800 -0.7878
  134MOL0     C18419   8.782   2.844   3.445 -0.3305  0.2355  0.0613
  134MOL0     C18420   8.658   3.354   3.171 -0.2664  0.4485 -0.1006
  134MOL0     C18421   8.531   3.405   3.139 -0.0810  0.0335  0.1356
  134MOL0     C18422   8.465   3.348   3.018 -0.4585 -0.4929  0.4914
  134MOL0     H18423   8.305   3.732   2.925  1.0801  1.9477  2.4721
  134MOL0     H18424   8.146   3.929   2.897 -0.2018  0.2612 -0.4412
  134MOL0     H18425   7.920   4.058   2.861  1.0201 -2.2003  0.3029
  134MOL0     H18426   8.025   4.093   3.012 -1.7649  1.9063  1.5291
  134MOL0     H18427   7.827   4.257   2.977 -2.8541  0.5491  1.8407
  134MOL0     H18428   7.721   4.123   2.984  0.7509 -0.6009  0.1484
  134MOL0     H18429   7.721   4.245   3.189 -1.7123 -0.4989 -0.3298
  134MOL0     H18430   7.786   4.082   3.224  0.6342  1.7090  0.7264
  134MOL0     H18431   8.003   4.148   3.220  2.8973  1.9089 -1.0130
  134MOL0     H18432   7.980   4.312   3.172  0.7411 -2.1408 -0.8510
  134MOL0     H18433   7.910   4.176   3.434 -1.1911  1.0497  0.7474
  134MOL0     H18434   7.832   4.324   3.393 -0.9826 -2.0466  1.2099
  134MOL0     H18435   8.116   4.262   3.446  0.6989  0.6900  0.4899
  134MOL0     H18436   8.056   4.430   3.392  0.5243  0.7364  2.1874
  134MOL0     H18437   7.965   4.294   3.652 -1.6263  0.0821 -0.3309
  134MOL0     H18438   7.899   4.439   3.583 -0.5537 -1.7641 -0.6519
  134MOL0     H18439   8.125   4.541   3.603  0.7550  1.0122  0.0796
  134MOL0     H18440   8.080   4.469   3.768  0.2825 -0.9979  0.6848
  134MOL0     H18441   8.164   4.215   3.823  0.7275  3.9625  2.6741
  134MOL0     H18442   8.427   4.011   3.730 -0.7036 -0.3424 -0.7731
  134MOL0     H18443   8.350   4.051   3.886  0.7630 -0.7659 -0.1836
  134MOL0     H18444   8.619   4.132   3.771 -0.2535 -0.6473 -0.4280
  134MOL0     H18445   8.560   4.189   3.927  1.6109  0.0870 -1.2151
  134MOL0     H18446   8.550   3.960   4.017  0.7295 -2.6043 -0.5843
  134MOL0     H18447   8.626   3.893   3.878  4.2329 -0.2699  2.2421
  134MOL0     H18448   8.803   4.035   3.889  3.2065 -2.1361  0.6256
  134MOL0     H18449   8.749   4.116   4.046  1.6219  0.5324 -1.2280
  134MOL0     H18450   9.055   3.968   4.045 -2.8923  1.2949  0.1225
  134MOL0     H18451   9.334   3.838   3.851 -3.3555 -1.3232 -2.2612
  134MOL0     H18452   9.319   3.799   4.019  0.4414  0.9662 -0.7434
  134MOL0     H18453   9.271   3.961   3.965  1.1710  0.1545 -0.6245
  134MOL0     H18454   9.158   3.260   3.954 -1.5572  0.9321 -1.2368
  134MOL0     H18455   9.301   3.070   3.926  0.3922 -0.9090 -1.2822
  134MOL0     H18456   9.359   2.872   3.568  0.3725 -0.6515  1.3629
  134MOL0     H18457   9.454   3.011   3.496  5.1871  1.3553  0.9379
  134MOL0     H18458   9.558   2.796   3.495 -2.0927 -0.0543 -0.1682
  134MOL0     H18459   9.659   2.918   3.582  0.0392  0.3325  1.0011
  134MOL0     H18460   9.472   2.695   3.701  0.2191 -0.7027 -2.3531
  134MOL0     H18461   9.575   2.812   3.796  0.9601 -0.5634 -1.1038
  134MOL0     H18462   9.778   2.740   3.680 -0.7118  1.0139 -2.6904
  134MOL0     H18463   9.694   2.631   3.592  1.5123  3.0711 -1.8193
  134MOL0     H18464   9.804   2.539   3.824 -0.3559 -1.1903  0.7104
  134MOL0     H18465   9.686   2.615   3.907 -0.4286 -2.1785  0.5812
  134MOL0     H18466   9.655   2.384   3.707 -0.4371  0.0658  1.6606
  134MOL0     H18467   9.520   2.492   3.742  2.2505  2.5993 -3.3327
  134MOL0     H18468   9.565   2.427   3.993  1.3602  1.5760 -0.6271
  134MOL0     H18469   9.719   2.374   3.947 -0.9021  1.6552  2.1273
  134MOL0     H18470   9.609   2.161   3.852  1.0097  0.6613  1.2791
  134MOL0     H18471   9.449   2.244   3.871 -1.8208 -0.9255  0.5521
  134MOL0     H18472   9.415   3.204   3.540  0.8917 -1.0490  0.3096
  134MOL0     H18473   9.272   3.404   3.560 -0.7812 -2.1113 -1.2994
  134MOL0     H18474   8.926   3.546   3.858  1.1568 -0.2162 -1.3088
  134MOL0     H18475   8.754   3.696   3.939 -0.8724 -0.4035 -1.1826
  134MOL0     H18476   7.867   3.734   3.157  0.7585 -2.3791  2.4075
  134MOL0     H18477   8.026   3.536   3.175  0.9120  0.7785  0.3100
  134MOL0     H18478   8.524   3.655   3.370  1.5365  0.7246 -1.4671
  134MOL0     H18479   8.757   3.566   3.411 -1.5180 -1.2749  1.6924
  134MOL0     H18480   9.029   3.311   3.394 -0.3466 -1.9410  2.5965
  134MOL0     H18481   8.962   3.471   3.422 -1.6306 -0.1529  0.9574
  134MOL0     H18482   8.781   3.366   3.550  0.4130  0.6543  0.4369
  134MOL0     H18483   8.934   3.331   3.621  1.1342 -2.0104 -0.1064
  134MOL0     H18484   8.938   3.119   3.444 -0.7079  0.2924 -1.0046
  134MOL0     H18485   8.906   3.115   3.617  1.0657 -0.5283  0.3986
  134MOL0     H18486   8.694   3.140   3.385 -2.0815 -1.1332  0.8073
  134MOL0     H18487   8.654   3.126   3.565 -0.4197 -2.3057  0.3251
  134MOL0     H18488   8.814   2.742   3.454  1.4251  0.8693  1.4471
  134MOL0     H18489   8.705   3.278   3.109 -0.5725 -1.7985  2.2591
  134MOL0     H18490   8.534   3.292   2.954  0.9676  1.0561  0.6051
  134MOL0     H18491   8.374   3.291   3.041 -1.1826  1.0186  1.5102
  134MOL0     H18492   8.429   3.426   2.951  0.4713 -0.3860  0.1052
  135MOL0     O18493   3.598   1.678   9.918  0.6172 -0.4539  0.0915
  135MOL0     C18494   3.594   1.565   9.957  0.5187 -0.1127  0.4404
  135MOL0     O18495   3.526   1.465   9.892 -0.2966 -0.1432 -0.2558
  135MOL0     C18496   3.448   1.490   9.772 -0.5136  0.3429 -0.2281
  135MOL0     C18497   3.393   1.614   9.735  0.9318 -0.5092 -0.8098
  135MOL0     C18498   3.336   1.635   9.605 -0.3489 -0.7918 -0.3096
  135MOL0     C18499   3.335   1.537   9.507 -0.9826  0.6260  0.7543
  135MOL0     O18500   3.285   1.575   9.385 -0.3553 -0.0220  0.0720
  135MOL0     C18501   3.305   1.494   9.272 -0.6909  0.1953  0.2599
  135MOL0     C18502   3.273   1.562   9.142 -0.0273 -0.7274 -0.0594
  135MOL0     C18503   3.374   1.670   9.096  0.2293 -0.4976 -1.1307
  135MOL0     C18504   3.366   1.797   9.181  0.0363  0.4504  0.9400
  135MOL0     C18505   3.454   1.901   9.110 -0.4546  0.8919 -0.1498
  135MOL0     C18506   3.448   2.033   9.189 -0.0432 -1.1693  0.6509
  135MOL0     C18507   3.508   2.023   9.337 -1.4312 -0.3853  0.4336
  135MOL0     C18508   3.656   1.975   9.332  0.0267  0.6955  0.0498
  135MOL0     N18509   3.744   2.011   9.441 -0.3400  0.0052  0.5252
  135MOL0     C18510   3.760   1.942   9.559 -0.7651  0.2167  0.5287
  135MOL0     C18511   3.848   2.011   9.632  0.6275 -0.7222 -0.2649
  135MOL0     C18512   3.896   1.966   9.776 -0.6641  0.4800  0.1479
  135MOL0     C18513   4.017   1.876   9.756 -1.2807 -0.3936 -0.0941
  135MOL0     C18514   4.148   1.941   9.787 -0.0780  0.3126 -0.1678
  135MOL0     C18515   4.176   1.986   9.928 -0.4974 -1.1910 -0.6641
  135MOL0     O18516   4.323   1.977   9.949  1.0219  0.1041  0.8889
  135MOL0     C18517   4.391   2.028  10.052 -0.4484 -0.4854 -0.0544
  135MOL0     C18518   4.322   2.087  10.157  0.9671  0.9364 -0.9560
  135MOL0     C18519   4.386   2.142  10.272 -0.3601 -0.2050 -1.6044
  135MOL0     C18520   4.303   2.210  10.380 -0.1906  0.5427  0.0793
  135MOL0     C18521   4.534   2.141  10.277 -0.0691 -0.1463  0.2558
  135MOL0     C18522   4.618   2.190  10.389 -0.5084  0.4938  0.9610
  135MOL0     O18523   4.569   2.171  10.509 -0.1849  0.1523 -0.1267
  135MOL0     C18524   4.605   2.239  10.622 -0.1718  0.6941  0.0413
  135MOL0     C18525   4.570   2.175  10.741 -0.4198  0.6791 -0.5033
  135MOL0     C18526   4.581   2.238  10.866 -0.6623 -0.2233  0.8291
  135MOL0     C18527   4.641   2.367  10.867 -0.5498 -0.2546  0.1224
  135MOL0     O18528   4.666   2.417  10.994  0.1628  0.2819 -0.3339
  135MOL0     C18529   4.735   2.537  11.010 -0.1375 -0.2131  0.1343
  135MOL0     C18530   4.729   2.556  11.160 -0.1193  0.1016  0.3034
  135MOL0     C18531   4.809   2.454  11.253  0.0394 -0.1425  0.0292
  135MOL0     C18532   4.964   2.458  11.245  0.8087 -0.1125 -0.5042
  135MOL0     C18533   5.035   2.355  11.328  0.3201  1.2234  0.4026
  135MOL0     C18534   5.186   2.354  11.298  0.2377  1.2812 -0.2316
  135MOL0     C18535   5.248   2.468  11.370  0.1224 -0.8683  0.2886
  135MOL0     C18536   5.397   2.480  11.352 -0.4206 -0.8797  0.0177
  135MOL0    Cl18537   5.453   2.584  11.476  0.0386  0.1407  0.4287
  135MOL0     C18538   4.677   2.438  10.748  0.4017  0.5950  0.6295
  135MOL0     C18539   4.653   2.370  10.624 -0.2877  0.5244 -0.1106
  135MOL0     O18540   4.727   2.221  10.368 -0.3847 -0.5918  0.1708
  135MOL0     C18541   4.600   2.108  10.157  0.2930 -0.3561  0.6140
  135MOL0     C18542   4.532   2.057  10.049  0.9870  0.8319  0.2731
  135MOL0     N18543   3.872   2.136   9.574 -0.1585  0.0465 -0.2593
  135MOL0     N18544   3.810   2.130   9.460  0.5785  0.2040 -0.0289
  135MOL0     C18545   3.381   1.414   9.544 -0.0107  0.6015  0.0765
  135MOL0     C18546   3.447   1.392   9.671  0.3808  0.2122  0.0498
  135MOL0     C18547   3.659   1.543  10.091  0.1280  0.7781  0.2875
  135MOL0     C18548   3.617   1.424  10.166 -0.9153 -0.8421  0.2872
  135MOL0     C18549   3.683   1.390  10.282  0.1398  0.8062 -0.2789
  135MOL0     C18550   3.772   1.484  10.345  0.6331  0.0400  0.9282
  135MOL0     O18551   3.829   1.451  10.464  0.2522 -0.4933 -0.1044
  135MOL0     C18552   3.954   1.504  10.511  0.1216  0.5745 -0.1945
  135MOL0     C18553   4.007   1.434  10.631  0.5391 -0.9533 -0.0986
  135MOL0     C18554   4.020   1.281  10.622 -0.3639 -0.1792  0.1949
  135MOL0     C18555   4.128   1.229  10.527 -0.4635  0.2466  0.7516
  135MOL0     C18556   4.257   1.286  10.561 -0.0094  0.6693  0.1637
  135MOL0     C18557   4.356   1.348  10.588  0.0659  0.4405 -0.8867
  135MOL0     C18558   3.813   1.591  10.270  0.4264 -0.5220 -0.3732
  135MOL0     C18559   3.765   1.621  10.142 -0.0268 -0.1615  0.2543
  135MOL0     C18560   3.819   1.740  10.078  0.0624 -0.5633  0.1039
  135MOL0     H18561   3.374   1.696   9.803 -0.6260 -0.9906 -0.6176
  135MOL0     H18562   3.307   1.737   9.581 -2.8085 -1.5583 -0.9195
  135MOL0     H18563   3.239   1.407   9.281 -1.8440  1.1370  1.3571
  135MOL0     H18564   3.408   1.459   9.278 -1.5433 -2.7304 -0.2544
  135MOL0     H18565   3.269   1.490   9.060  2.4074 -1.4814  0.4164
  135MOL0     H18566   3.172   1.603   9.150  0.9796  2.0189 -0.3747
  135MOL0     H18567   3.479   1.638   9.092  0.5539  0.2433  0.6664
  135MOL0     H18568   3.349   1.694   8.992  0.9176 -2.4777 -1.8026
  135MOL0     H18569   3.264   1.837   9.183 -1.4337 -2.9188  0.9837
  135MOL0     H18570   3.399   1.771   9.282  0.7914  0.0569  0.5980
  135MOL0     H18571   3.408   1.911   9.011 -0.5683  2.9457  0.0623
  135MOL0     H18572   3.552   1.855   9.094 -1.2235 -1.7553  1.9681
  135MOL0     H18573   3.502   2.117   9.144 -1.0033  0.5535  2.5804
  135MOL0     H18574   3.347   2.076   9.190  0.8949  1.2945 -1.2179
  135MOL0     H18575   3.434   1.976   9.403 -1.2174 -0.8373  0.3597
  135MOL0     H18576   3.521   2.127   9.367 -2.6384  1.1086 -3.5605
  135MOL0     H18577   3.650   1.866   9.332 -1.1678  0.7465  0.4487
  135MOL0     H18578   3.698   1.995   9.233 -1.0426 -0.5726 -0.7004
  135MOL0     H18579   3.720   1.847   9.593 -0.0074 -0.6051 -0.7657
  135MOL0     H18580   3.813   1.913   9.824  0.1357 -1.0848 -0.1420
  135MOL0     H18581   3.914   2.060   9.829 -2.7282  1.4373 -0.7463
  135MOL0     H18582   4.001   1.802   9.834 -1.6768 -0.9229 -0.6681
  135MOL0     H18583   4.031   1.824   9.661  2.8905 -1.0366  0.6822
  135MOL0     H18584   4.226   1.868   9.763 -1.7282 -1.0688 -1.5933
  135MOL0     H18585   4.163   2.025   9.719 -0.1391  0.4212 -0.0454
  135MOL0     H18586   4.148   2.091   9.933  0.2650 -1.0329  0.9139
  135MOL0     H18587   4.128   1.938  10.013  0.3537 -0.5187  0.2207
  135MOL0     H18588   4.215   2.084  10.170  0.7427 -3.9824 -1.9709
  135MOL0     H18589   4.283   2.127  10.447 -0.5360 -2.0241 -2.9847
  135MOL0     H18590   4.214   2.252  10.332  2.2959  3.9860 -2.0539
  135MOL0     H18591   4.348   2.294  10.435 -1.8651  0.9258  0.9377
  135MOL0     H18592   4.531   2.075  10.723  0.0749  0.8125 -2.5018
  135MOL0     H18593   4.556   2.187  10.958  1.1892 -1.6165  0.6234
  135MOL0     H18594   4.838   2.529  10.973 -0.6684  1.2805 -1.8103
  135MOL0     H18595   4.701   2.627  10.959  3.4532 -0.6031 -3.5341
  135MOL0     H18596   4.768   2.657  11.180  0.7941  0.2226 -1.8019
  135MOL0     H18597   4.625   2.545  11.192 -0.5319 -1.5709 -1.4294
  135MOL0     H18598   4.785   2.353  11.219  2.2007 -0.6259 -0.1912
  135MOL0     H18599   4.780   2.481  11.355  1.6625 -1.1323  0.7841
  135MOL0     H18600   4.981   2.557  11.289  2.6148 -0.5216 -0.2095
  135MOL0     H18601   4.985   2.445  11.139 -2.4923 -1.2307 -1.1284
  135MOL0     H18602   5.002   2.368  11.431  0.3211  1.9977  0.3092
  135MOL0     H18603   4.997   2.259  11.291  1.9616  0.1427  1.3902
  135MOL0     H18604   5.194   2.359  11.189 -2.0700 -5.8485 -1.2583
  135MOL0     H18605   5.223   2.256  11.330 -0.7384  0.7023 -0.8322
  135MOL0     H18606   5.226   2.459  11.477 -0.0117 -0.6712  0.2767
  135MOL0     H18607   5.203   2.564  11.344  3.2627  0.8141  0.5856
  135MOL0     H18608   5.425   2.521  11.254  2.9105 -1.2955  0.6850
  135MOL0     H18609   5.439   2.379  11.355  1.8616 -0.0210 -0.5686
  135MOL0     H18610   4.728   2.533  10.736  2.3729 -0.5551 -0.6355
  135MOL0     H18611   4.649   2.427  10.531 -1.7835  1.8830  0.7365
  135MOL0     H18612   4.706   2.128  10.143  0.6054 -0.8266  2.0870
  135MOL0     H18613   4.579   2.038   9.953 -1.1872  0.9744 -0.8969
  135MOL0     H18614   3.370   1.331   9.475 -0.0602  1.7840 -1.3631
  135MOL0     H18615   3.495   1.297   9.692 -0.3918 -0.3862 -0.8198
  135MOL0     H18616   3.543   1.364  10.114  0.9838 -1.3726 -1.9489
  135MOL0     H18617   3.644   1.312  10.346  1.4607  1.4113  1.3221
  135MOL0     H18618   4.028   1.481  10.433 -1.2899  2.7091 -2.2905
  135MOL0     H18619   3.947   1.611  10.531 -0.2028  1.0961 -2.7036
  135MOL0     H18620   3.925   1.447  10.703 -0.8807  0.9219 -1.9283
  135MOL0     H18621   4.097   1.481  10.670  0.5217 -2.4873  1.9708
  135MOL0     H18622   4.056   1.246  10.719 -0.5562  0.5834  0.5481
  135MOL0     H18623   3.924   1.235  10.597 -0.4789  0.5504 -0.7615
  135MOL0     H18624   4.099   1.256  10.426 -3.9951 -1.3908  1.1661
  135MOL0     H18625   4.126   1.120  10.536 -0.2118 -0.0961 -2.4049
  135MOL0     H18626   4.457   1.384  10.595  1.0412 -2.3952  3.1211
  135MOL0     H18627   3.887   1.656  10.314  1.3224 -2.3751  0.9698
  135MOL0     H18628   3.825   1.719   9.971  0.8104 -1.8424  0.3702
  135MOL0     H18629   3.752   1.825  10.093 -1.7445 -1.8147 -0.4592
  135MOL0     H18630   3.919   1.761  10.116 -0.2026  1.7028 -0.2898
  136MOL0     O18631  10.430   6.838  10.523  0.1438 -0.2255 -0.5733
  136MOL0     C18632  10.363   6.785  10.616 -0.1120  0.2193  0.2763
  136MOL0     O18633  10.398   6.791  10.756  0.4170 -0.4579  0.4094
  136MOL0     C18634  10.507   6.851  10.809  0.4102 -0.5629  0.7219
  136MOL0     C18635  10.611   6.908  10.732  0.3486 -0.9699 -0.0333
  136MOL0     C18636  10.716   6.972  10.813 -0.2569 -1.0032  0.6770
  136MOL0     C18637  10.708   6.989  10.942  0.0916  0.0325 -0.4670
  136MOL0     O18638  10.808   7.054  10.998 -0.1106  0.5479 -0.1985
  136MOL0     C18639  10.841   7.050  11.142 -0.4607  0.3711 -0.4452
  136MOL0     C18640  10.981   7.117  11.181  0.0164  0.5080  1.0104
  136MOL0     C18641  11.092   7.039  11.105  0.1910 -0.0977 -0.1679
  136MOL0     C18642  11.171   7.141  11.015  0.3190 -0.3170 -1.0042
  136MOL0     C18643  11.273   7.054  10.945  0.2904 -0.2763 -0.8385
  136MOL0     C18644  11.337   7.137  10.833 -0.2330 -0.0272  0.3207
  136MOL0     C18645  11.419   7.046  10.734 -0.6457 -0.8512 -0.2862
  136MOL0     C18646  11.463   7.109  10.600  0.4195  0.4340 -0.7049
  136MOL0     N18647  11.524   7.239  10.608 -0.9748 -0.5056  0.2997
  136MOL0     C18648  11.640   7.261  10.678  0.0714  0.8089 -0.0877
  136MOL0     C18649  11.665   7.395  10.678 -0.5942  0.3410  0.0741
  136MOL0     C18650  11.775   7.478  10.732 -0.2075  0.5721  0.3328
  136MOL0     C18651  11.739   7.557  10.864 -0.9600  0.4120 -1.2092
  136MOL0     C18652  11.803   7.486  10.979  0.5501 -0.2239 -0.1863
  136MOL0     C18653  11.761   7.530  11.117  0.8209 -0.7200  0.3782
  136MOL0     O18654  11.817   7.439  11.208 -0.5050 -0.4292  0.1388
  136MOL0     C18655  11.760   7.437  11.327 -0.1701  0.1045 -0.3967
  136MOL0     C18656  11.771   7.320  11.398  0.0993  0.3064  0.2172
  136MOL0     C18657  11.715   7.302  11.529  0.3952  0.1622 -0.8179
  136MOL0     C18658  11.718   7.166  11.591 -1.3605  0.7197  0.1887
  136MOL0     C18659  11.649   7.410  11.593  0.2450 -0.6534  0.0594
  136MOL0     C18660  11.574   7.398  11.724  0.6289 -0.4952  0.0094
  136MOL0     O18661  11.448   7.451  11.733  0.0520 -0.0933 -0.4075
  136MOL0     C18662  11.368   7.403  11.830 -0.6227  0.9511  0.0977
  136MOL0     C18663  11.334   7.475  11.943  0.5309 -1.0371 -0.2153
  136MOL0     C18664  11.258   7.423  12.045 -0.2698 -0.5520  1.2017
  136MOL0     C18665  11.216   7.294  12.039  0.4350  0.5078 -0.2950
  136MOL0     O18666  11.156   7.224  12.150  1.3082 -0.1735 -0.1054
  136MOL0     C18667  11.129   7.305  12.266  0.1209 -0.8720  0.0310
  136MOL0     C18668  11.060   7.214  12.379  0.3674 -0.4260  0.0061
  136MOL0     C18669  11.162   7.101  12.401 -0.0269  0.3979 -0.4115
  136MOL0     C18670  11.151   7.051  12.537 -0.4418  0.1504 -0.2139
  136MOL0     C18671  11.064   6.932  12.562 -0.7458  0.0561 -0.6330
  136MOL0     C18672  11.042   6.929  12.706 -0.3454 -1.0097 -0.5362
  136MOL0     C18673  11.160   6.873  12.780 -0.2523  0.2773  0.1975
  136MOL0     C18674  11.131   6.880  12.927 -0.5215  0.0983 -0.1934
  136MOL0    Cl18675  11.276   6.805  13.027  0.0077  0.0078  0.2782
  136MOL0     C18676  11.243   7.223  11.923 -0.1469  0.7162 -0.2067
  136MOL0     C18677  11.323   7.267  11.823 -1.2777  0.2598  1.2438
  136MOL0     O18678  11.637   7.351  11.820 -0.3843 -0.1937 -0.8468
  136MOL0     C18679  11.635   7.525  11.522  0.2772  0.3029 -0.7970
  136MOL0     C18680  11.688   7.540  11.396 -0.9887  0.0779 -1.1119
  136MOL0     N18681  11.548   7.450  10.619 -0.1699  0.1598  0.2348
  136MOL0     N18682  11.461   7.362  10.581 -0.4580  0.3671 -0.0012
  136MOL0     C18683  10.608   6.930  11.011  0.2090 -0.3655 -0.6255
  136MOL0     C18684  10.506   6.861  10.946 -0.5073  0.7852  0.5546
  136MOL0     C18685  10.228   6.718  10.578 -1.2649 -0.3590 -0.3607
  136MOL0     C18686  10.111   6.755  10.650 -0.5739  0.1163  0.3950
  136MOL0     C18687   9.982   6.713  10.611 -0.0083  1.3436  0.3712
  136MOL0     C18688   9.964   6.617  10.508 -0.3600  0.6028 -1.1228
  136MOL0     O18689   9.837   6.565  10.505  0.1168 -0.0578 -0.2183
  136MOL0     C18690   9.806   6.448  10.439  0.3352  0.4082  0.0274
  136MOL0     C18691   9.668   6.399  10.489  0.6381 -0.4209 -1.3898
  136MOL0     C18692   9.610   6.282  10.406  0.6024  0.7253  0.1009
  136MOL0     C18693   9.545   6.158  10.484 -0.4892 -0.1586  0.0600
  136MOL0     C18694   9.581   6.027  10.424 -0.4839  0.7157  0.5500
  136MOL0     C18695   9.617   5.921  10.364 -0.4800  0.6515  0.5258
  136MOL0     C18696  10.075   6.580  10.432 -0.3891 -0.3219  0.0260
  136MOL0     C18697  10.204   6.633  10.463  0.3981 -0.8009 -0.5611
  136MOL0     C18698  10.313   6.590  10.370 -0.0722 -0.0382  1.0510
  136MOL0     H18699  10.628   6.908  10.625 -0.0071 -3.3098 -0.1404
  136MOL0     H18700  10.800   7.006  10.753  0.4053 -3.9049 -0.2234
  136MOL0     H18701  10.837   6.949  11.183 -1.4819  1.8533  3.6096
  136MOL0     H18702  10.770   7.111  11.198  1.1936  2.6970 -0.7197
  136MOL0     H18703  10.981   7.225  11.160  0.3851  0.3373  0.1045
  136MOL0     H18704  11.004   7.097  11.286  0.8840  0.3797  0.7978
  136MOL0     H18705  11.169   6.997  11.171 -1.1646 -2.0238  0.2817
  136MOL0     H18706  11.058   6.959  11.039 -0.2278 -1.0991  1.1987
  136MOL0     H18707  11.094   7.187  10.952  2.7757  0.3425 -3.7639
  136MOL0     H18708  11.239   7.217  11.054  0.4242  1.7014 -4.6586
  136MOL0     H18709  11.230   6.971  10.889 -0.4418 -0.3219 -0.2241
  136MOL0     H18710  11.336   7.013  11.024 -2.0022 -0.4377  0.9940
  136MOL0     H18711  11.263   7.194  10.775  0.9858 -1.4904 -2.9084
  136MOL0     H18712  11.404   7.215  10.869 -1.8997  1.6858 -0.1247
  136MOL0     H18713  11.356   6.963  10.699  0.0784 -0.7378 -1.9781
  136MOL0     H18714  11.501   7.002  10.790 -0.5388  2.6787  2.7022
  136MOL0     H18715  11.513   7.037  10.533 -2.5102 -1.6021 -0.8762
  136MOL0     H18716  11.374   7.116  10.537  0.8659 -1.9021 -1.7110
  136MOL0     H18717  11.695   7.183  10.730 -2.0321 -0.2832  0.6298
  136MOL0     H18718  11.797   7.555  10.657 -0.7934  1.5708  1.1511
  136MOL0     H18719  11.869   7.423  10.746  0.0788  1.2252  1.1184
  136MOL0     H18720  11.769   7.661  10.850  0.6231  0.4851  1.7436
  136MOL0     H18721  11.633   7.555  10.890 -0.0159  2.2740  4.1681
  136MOL0     H18722  11.773   7.382  10.968  3.0780 -1.0736  0.3658
  136MOL0     H18723  11.912   7.493  10.978  0.5326  2.0018 -3.8256
  136MOL0     H18724  11.804   7.629  11.136 -0.3500  0.2937 -1.8133
  136MOL0     H18725  11.652   7.528  11.123  0.6572  2.5343  0.3650
  136MOL0     H18726  11.821   7.240  11.346  0.2865 -0.4253  1.4778
  136MOL0     H18727  11.817   7.149  11.633 -1.3954  2.5701  1.1295
  136MOL0     H18728  11.712   7.092  11.510  0.1180  2.8907 -2.0290
  136MOL0     H18729  11.638   7.170  11.665 -2.6645  4.3058 -1.2205
  136MOL0     H18730  11.361   7.580  11.933  2.5941 -1.6370 -1.8235
  136MOL0     H18731  11.219   7.481  12.129 -0.7661 -1.9919  2.0015
  136MOL0     H18732  11.217   7.362  12.297  1.8286 -0.5631 -4.6433
  136MOL0     H18733  11.058   7.379  12.226 -0.6468 -2.7370 -2.3175
  136MOL0     H18734  11.036   7.280  12.463 -0.0161  0.2920 -0.6521
  136MOL0     H18735  10.963   7.189  12.337  0.5067  2.0052 -1.9952
  136MOL0     H18736  11.264   7.138  12.391  2.0520 -3.8123  2.3913
  136MOL0     H18737  11.142   7.012  12.341  0.6874 -0.7770  1.0311
  136MOL0     H18738  11.126   7.139  12.597 -0.0087  2.0981 -2.7247
  136MOL0     H18739  11.250   7.019  12.570 -0.9381 -0.7285  0.4577
  136MOL0     H18740  10.968   6.953  12.515 -1.4504  0.9781  1.1607
  136MOL0     H18741  11.102   6.835  12.527 -0.3983 -0.9568  2.3272
  136MOL0     H18742  10.962   6.858  12.730  0.1051 -0.9918  1.1075
  136MOL0     H18743  11.006   7.028  12.738 -2.7450 -0.8518 -3.2718
  136MOL0     H18744  11.256   6.919  12.754  0.2642 -0.6116  0.4925
  136MOL0     H18745  11.173   6.764  12.778  0.1081  0.3075  0.6815
  136MOL0     H18746  11.044   6.821  12.956 -0.0158 -0.9125 -0.6629
  136MOL0     H18747  11.112   6.984  12.956 -2.8569  0.0749 -1.4109
  136MOL0     H18748  11.189   7.129  11.918  1.5017 -0.2578 -0.6421
  136MOL0     H18749  11.346   7.197  11.744 -4.5441  1.7772 -1.2753
  136MOL0     H18750  11.577   7.608  11.561  0.5855  0.2048 -0.1186
  136MOL0     H18751  11.682   7.634  11.343 -0.8129  1.0415  0.5106
  136MOL0     H18752  10.600   6.945  11.119 -1.9192 -1.3005 -0.5903
  136MOL0     H18753  10.423   6.821  11.003 -0.0857  1.0918  1.4088
  136MOL0     H18754  10.126   6.821  10.735 -0.6608  0.5028  0.1076
  136MOL0     H18755   9.902   6.761  10.665  0.5149  2.7622 -0.0865
  136MOL0     H18756   9.802   6.476  10.333 -3.7449 -2.3289 -0.7845
  136MOL0     H18757   9.880   6.369  10.452 -1.2980 -1.5841 -1.7379
  136MOL0     H18758   9.597   6.482  10.494  0.7943 -0.2368 -2.1440
  136MOL0     H18759   9.688   6.363  10.591 -0.0016 -0.4228 -1.2614
  136MOL0     H18760   9.523   6.318  10.350  0.2802 -0.0089  0.1197
  136MOL0     H18761   9.680   6.247  10.331  0.9662  0.8807  0.3647
  136MOL0     H18762   9.440   6.180  10.503 -0.1584  0.8954  0.7565
  136MOL0     H18763   9.590   6.152  10.584  2.7801  1.0116 -1.1955
  136MOL0     H18764   9.663   5.828  10.336 -2.1714 -0.1188  0.1883
  136MOL0     H18765  10.078   6.513  10.347  0.7749 -0.6050  0.2725
  136MOL0     H18766  10.417   6.606  10.398 -0.1020 -0.3145  1.3342
  136MOL0     H18767  10.315   6.486  10.335  0.0032 -0.6902  2.8435
  136MOL0     H18768  10.305   6.654  10.282  1.6036 -1.4675 -0.2205
  137MOL0     O18769   3.232   0.146   2.867  0.2659 -0.2738  0.2795
  137MOL0     C18770   3.187   0.208   2.964  0.1581 -0.9584 -0.5905
  137MOL0     O18771   3.063   0.236   2.987 -0.1036  0.0359 -0.2952
  137MOL0     C18772   2.967   0.209   2.896 -0.4712 -0.7567 -0.1005
  137MOL0     C18773   2.905   0.085   2.897  0.0150 -0.4658 -1.2652
  137MOL0     C18774   2.811   0.060   2.800 -0.0924  1.0133 -0.3088
  137MOL0     C18775   2.782   0.139   2.697 -0.3101 -0.0688  0.8945
  137MOL0     O18776   2.682   0.123   2.603 -0.3406  0.6415 -1.0939
  137MOL0     C18777   2.589   0.017   2.607 -0.4944 -0.2225  0.0327
  137MOL0     C18778   2.476   0.041   2.496  0.5545 -0.3010  0.4410
  137MOL0     C18779   2.551   0.079   2.365  0.3381 -0.0258 -0.8213
  137MOL0     C18780   2.447   0.077   2.261 -0.6546 -0.1599  0.2605
  137MOL0     C18781   2.520   0.097   2.120 -0.7249  0.6601  0.0980
  137MOL0     C18782   2.428   0.133   2.003  0.3518 -0.5545 -0.3204
  137MOL0     C18783   2.340   0.261   2.004  0.3922  0.1175 -0.1074
  137MOL0     C18784   2.418   0.392   2.022 -0.0705  1.4393 -0.5489
  137MOL0     N18785   2.517   0.414   1.910  0.0689 -0.1995 -0.2008
  137MOL0     C18786   2.494   0.449   1.787 -0.3877  0.8340  0.5920
  137MOL0     C18787   2.612   0.435   1.721 -1.2229  0.1902  0.2035
  137MOL0     C18788   2.660   0.475   1.580  0.1663 -0.3155 -1.2843
  137MOL0     C18789   2.789   0.398   1.529  0.8319 -0.1563 -0.3380
  137MOL0     C18790   2.834   0.429   1.386 -1.0682  0.4907 -0.4388
  137MOL0     C18791   2.931   0.322   1.342  0.2282  0.3044 -0.8015
  137MOL0     O18792   3.070   0.371   1.355 -0.6080  0.0562  0.3082
  137MOL0     C18793   3.167   0.323   1.270  0.4241 -0.6670  0.3651
  137MOL0     C18794   3.281   0.403   1.243 -0.5165 -0.5123 -0.0044
  137MOL0     C18795   3.376   0.361   1.144  0.0966  0.0586  0.0208
  137MOL0     C18796   3.474   0.476   1.115  0.0191  0.7075  0.4731
  137MOL0     C18797   3.379   0.230   1.085  0.8340  0.5250 -0.9054
  137MOL0     C18798   3.488   0.169   1.003 -0.7637  0.7619 -0.7484
  137MOL0     O18799   3.460   0.044   0.953 -0.6559  0.4693 -1.2178
  137MOL0     C18800   3.548  -0.025   0.871  0.0918 -0.3561  0.9404
  137MOL0     C18801   3.537  -0.163   0.864 -0.5986  0.4704 -0.6034
  137MOL0     C18802   3.602  -0.242   0.774 -0.0492  0.1265 -0.4131
  137MOL0     C18803   3.689  -0.184   0.688 -0.0631 -0.9800  0.6342
  137MOL0     O18804   3.743  -0.258   0.588 -0.6614  0.2990  0.1151
  137MOL0     C18805   3.889  -0.265   0.598 -1.4411  0.3281  0.5086
  137MOL0     C18806   3.965  -0.222   0.472 -0.4826  0.6988  0.5983
  137MOL0     C18807   3.935  -0.328   0.363 -0.0551 -0.5133  0.8814
  137MOL0     C18808   4.055  -0.328   0.272  0.2624  0.6141  0.1283
  137MOL0     C18809   4.024  -0.407   0.150  0.4761  0.3275  0.0160
  137MOL0     C18810   4.137  -0.445   0.056  0.2220  0.4126 -0.9435
  137MOL0     C18811   4.097  -0.530  -0.060  0.7669 -0.1400  0.3841
  137MOL0     C18812   4.220  -0.562  -0.150 -0.2141  0.0950  0.5543
  137MOL0    Cl18813   4.210  -0.624  -0.326  0.0210 -0.5089  0.5305
  137MOL0     C18814   3.706  -0.043   0.682 -0.5283  0.2725 -0.0804
  137MOL0     C18815   3.631   0.036   0.771  0.5281  0.0418 -0.1251
  137MOL0     O18816   3.605   0.217   1.008  0.1861  0.1460  0.5278
  137MOL0     C18817   3.259   0.153   1.115 -0.6300 -0.5151 -0.3447
  137MOL0     C18818   3.164   0.195   1.213  0.3299 -0.0656  0.7870
  137MOL0     N18819   2.702   0.392   1.822 -0.1365  0.9601 -1.3648
  137MOL0     N18820   2.641   0.381   1.935 -0.1323 -0.0721 -0.3919
  137MOL0     C18821   2.841   0.269   2.703  0.1579  0.6454  0.0826
  137MOL0     C18822   2.932   0.302   2.804 -0.7798 -0.5041  1.0517
  137MOL0     C18823   3.295   0.249   3.065  0.4252  0.0423  0.2248
  137MOL0     C18824   3.430   0.283   3.012  1.1591 -0.2618  0.0993
  137MOL0     C18825   3.536   0.318   3.096 -0.2258 -0.6322  0.1651
  137MOL0     C18826   3.511   0.312   3.237 -0.6912  0.5304  0.0427
  137MOL0     O18827   3.610   0.351   3.325  0.0215 -0.0290 -0.0576
  137MOL0     C18828   3.722   0.266   3.339  0.2537 -0.8957 -0.3212
  137MOL0     C18829   3.832   0.350   3.398  0.1704 -0.2931 -0.6651
  137MOL0     C18830   3.880   0.473   3.325  0.0197 -0.0637  0.0119
  137MOL0     C18831   4.001   0.453   3.215  0.7684  0.0770 -0.2597
  137MOL0     C18832   4.032   0.584   3.157 -0.7133 -0.3696  0.3687
  137MOL0     C18833   4.061   0.687   3.096 -0.8969  0.3591  0.3207
  137MOL0     C18834   3.388   0.275   3.291 -0.0433 -0.2271  0.2046
  137MOL0     C18835   3.283   0.241   3.212  1.0763  0.8029  0.1172
  137MOL0     C18836   3.156   0.210   3.287  0.6574 -1.2078 -0.1020
  137MOL0     H18837   2.933   0.012   2.974 -0.3393  0.5525 -0.1378
  137MOL0     H18838   2.762  -0.035   2.816  2.4032 -0.0366  1.8862
  137MOL0     H18839   2.541  -0.003   2.704  0.1205 -0.2219  0.3385
  137MOL0     H18840   2.647  -0.069   2.573  0.1359 -0.8215  2.4495
  137MOL0     H18841   2.405  -0.041   2.491 -2.2814  1.9607  0.9799
  137MOL0     H18842   2.421   0.133   2.517 -0.8007 -1.3249  1.5596
  137MOL0     H18843   2.594   0.180   2.370  2.3227 -0.6665  6.6183
  137MOL0     H18844   2.623  -0.001   2.345  0.7948  0.8087 -2.7084
  137MOL0     H18845   2.395  -0.020   2.268  2.9633 -2.1485  2.3658
  137MOL0     H18846   2.376   0.157   2.284 -1.6688 -1.0027  0.1511
  137MOL0     H18847   2.579   0.007   2.100 -0.6354  1.1389 -2.0356
  137MOL0     H18848   2.578   0.190   2.130 -2.5636  1.6358  2.6932
  137MOL0     H18849   2.481   0.133   1.907 -1.8689  1.6569 -1.6872
  137MOL0     H18850   2.364   0.045   1.993 -0.2491 -0.0425 -1.1249
  137MOL0     H18851   2.260   0.253   2.079  0.2370 -0.0240 -0.2870
  137MOL0     H18852   2.294   0.275   1.906 -1.7187  1.7519  1.0005
  137MOL0     H18853   2.343   0.470   2.009 -0.7135  1.0381  0.5853
  137MOL0     H18854   2.471   0.389   2.118 -1.0942  1.1562  0.0178
  137MOL0     H18855   2.408   0.499   1.743 -1.0461 -2.4805 -2.3215
  137MOL0     H18856   2.689   0.580   1.589  3.5669 -1.3097  2.3914
  137MOL0     H18857   2.577   0.472   1.509  0.2123  2.9195 -1.6468
  137MOL0     H18858   2.870   0.435   1.593  2.8035 -3.4231 -0.7322
  137MOL0     H18859   2.795   0.291   1.552 -1.0390 -0.0510  0.8680
  137MOL0     H18860   2.747   0.407   1.323 -1.9676 -1.3557  1.3363
  137MOL0     H18861   2.878   0.526   1.362 -1.7827  0.7109 -0.9074
  137MOL0     H18862   2.926   0.229   1.400  0.2475  1.1767  0.6566
  137MOL0     H18863   2.907   0.290   1.240 -0.8311 -0.1327 -0.4343
  137MOL0     H18864   3.285   0.498   1.295  2.0688 -0.6107  0.1072
  137MOL0     H18865   3.568   0.449   1.163 -1.0379  1.2477  2.9735
  137MOL0     H18866   3.436   0.571   1.154  0.7786  0.8486  0.8921
  137MOL0     H18867   3.494   0.479   1.007 -2.0861  0.5734  0.0335
  137MOL0     H18868   3.493  -0.217   0.947  3.3686  0.1904  1.5833
  137MOL0     H18869   3.582  -0.348   0.761 -2.2784  0.5302 -0.6340
  137MOL0     H18870   3.924  -0.201   0.679 -1.0071  2.1805 -1.0430
  137MOL0     H18871   3.926  -0.366   0.618  0.4135  0.7115 -0.7642
  137MOL0     H18872   3.924  -0.128   0.436 -0.9316 -0.4102 -1.9796
  137MOL0     H18873   4.072  -0.222   0.497 -0.7481 -4.1719  2.8598
  137MOL0     H18874   3.847  -0.293   0.308  0.2458 -2.0243 -0.6545
  137MOL0     H18875   3.923  -0.427   0.407 -3.9683 -1.2279 -1.2624
  137MOL0     H18876   4.140  -0.376   0.322 -0.9412 -0.7422  0.9522
  137MOL0     H18877   4.086  -0.227   0.241  1.7398 -0.2242 -1.2717
  137MOL0     H18878   3.975  -0.498   0.183 -0.6994  1.8579  2.7808
  137MOL0     H18879   3.952  -0.356   0.084  0.0852 -1.9563 -1.4414
  137MOL0     H18880   4.212  -0.506   0.108 -0.2243  0.3550 -0.3662
  137MOL0     H18881   4.178  -0.352   0.017  1.5364  0.3949  0.3151
  137MOL0     H18882   4.024  -0.484  -0.127  1.3581 -3.5393 -2.9910
  137MOL0     H18883   4.043  -0.620  -0.031 -1.3622  0.1931 -2.1785
  137MOL0     H18884   4.281  -0.633  -0.094  2.5369  2.7610  1.2168
  137MOL0     H18885   4.282  -0.472  -0.156  3.5124 -2.2040  0.9428
  137MOL0     H18886   3.783  -0.000   0.618 -3.0020 -0.6359 -3.9185
  137MOL0     H18887   3.629   0.145   0.770 -2.5403  0.0801 -1.8599
  137MOL0     H18888   3.251   0.056   1.068  3.3820 -1.4871  0.5381
  137MOL0     H18889   3.088   0.126   1.249  0.3914  0.1553  1.3454
  137MOL0     H18890   2.807   0.347   2.635 -1.1895  0.2201  0.2447
  137MOL0     H18891   3.001   0.386   2.804  4.2556 -4.1599  0.3730
  137MOL0     H18892   3.450   0.280   2.905 -1.3760  0.3791 -0.4420
  137MOL0     H18893   3.634   0.357   3.071 -0.2669  1.1062  2.4394
  137MOL0     H18894   3.685   0.186   3.403  0.0021  0.9243  1.9411
  137MOL0     H18895   3.744   0.241   3.234 -1.3393  1.9013 -1.4476
  137MOL0     H18896   3.907   0.283   3.439 -1.8381 -1.7918  0.7744
  137MOL0     H18897   3.801   0.396   3.492  0.9954  3.3091 -1.9984
  137MOL0     H18898   3.795   0.513   3.269 -0.4815  0.7529  1.3184
  137MOL0     H18899   3.912   0.549   3.398  1.0874 -0.3296 -0.1515
  137MOL0     H18900   3.951   0.399   3.134 -0.8045 -1.7920  1.8291
  137MOL0     H18901   4.086   0.405   3.266 -0.3944 -0.5041  1.2187
  137MOL0     H18902   4.092   0.778   3.048  2.3141 -0.9529 -0.3753
  137MOL0     H18903   3.377   0.268   3.398 -1.1568  0.5536  0.1592
  137MOL0     H18904   3.174   0.118   3.344 -0.7139 -3.5431 -3.1601
  137MOL0     H18905   3.120   0.290   3.352  2.7077 -0.6808  0.4739
  137MOL0     H18906   3.074   0.179   3.222 -0.3025 -2.7615  1.7623
  138MOL0     O18907  10.197   0.805   3.738 -0.4853 -0.5636 -0.5647
  138MOL0     C18908  10.291   0.815   3.823 -0.3932 -1.2401  1.2444
  138MOL0     O18909  10.421   0.831   3.773  0.0508  0.5664  0.3886
  138MOL0     C18910  10.446   0.755   3.660 -1.6410  0.4781 -0.2932
  138MOL0     C18911  10.388   0.643   3.609 -0.8260 -0.3805 -0.2319
  138MOL0     C18912  10.437   0.590   3.485  0.2934 -0.1548  0.6824
  138MOL0     C18913  10.536   0.641   3.413  0.4684 -0.1303 -0.5434
  138MOL0     O18914  10.576   0.581   3.298 -0.5235 -0.2923 -0.7030
  138MOL0     C18915  10.481   0.518   3.207 -0.7083 -0.0489 -0.4666
  138MOL0     C18916  10.527   0.521   3.063  0.6313  1.0719  0.0566
  138MOL0     C18917  10.614   0.398   3.040  0.0723  0.3982  0.5867
  138MOL0     C18918  10.751   0.399   3.108  0.1925  0.2571 -0.0820
  138MOL0     C18919  10.850   0.306   3.052 -0.5779 -0.7738  0.2617
  138MOL0     C18920  10.916   0.345   2.924 -0.4258 -0.3455  0.0487
  138MOL0     C18921  10.979   0.479   2.934  0.0006  0.0213 -0.3680
  138MOL0     C18922  11.031   0.507   2.788  0.4393 -0.1799 -0.5269
  138MOL0     N18923  11.080   0.648   2.779  1.0812  0.3262  0.0674
  138MOL0     C18924  11.210   0.688   2.804 -0.4180 -0.3456  0.9602
  138MOL0     C18925  11.204   0.818   2.786 -0.0133 -1.3189  0.6535
  138MOL0     C18926  11.312   0.916   2.785 -0.2636 -0.4879  0.8345
  138MOL0     C18927  11.283   1.047   2.862  0.4526 -0.0703 -0.3747
  138MOL0     C18928  11.223   1.154   2.764 -0.3141 -0.4338 -0.0327
  138MOL0     C18929  11.223   1.286   2.824  0.5363 -1.1470 -0.3628
  138MOL0     O18930  11.135   1.292   2.937 -0.6218 -0.4139 -0.4047
  138MOL0     C18931  11.096   1.423   2.961  0.7064  0.4358 -0.8259
  138MOL0     C18932  10.971   1.443   3.031 -0.3184 -0.1221 -0.4292
  138MOL0     C18933  10.914   1.573   3.051 -0.4556 -0.1820 -0.2736
  138MOL0     C18934  10.762   1.575   3.074 -0.0458  0.4269  1.8948
  138MOL0     C18935  10.994   1.686   2.999 -0.2269 -0.9492  0.1359
  138MOL0     C18936  10.941   1.825   3.006  0.3457 -0.9386 -0.3301
  138MOL0     O18937  11.000   1.928   2.924 -0.8755 -0.6769  0.2703
  138MOL0     C18938  10.934   2.044   2.903  0.6351  1.4479 -0.4949
  138MOL0     C18939  11.004   2.151   2.855 -0.5411  0.0796 -0.2083
  138MOL0     C18940  10.939   2.277   2.842  0.4989 -0.4647 -1.6424
  138MOL0     C18941  10.815   2.294   2.885  0.8708  0.1482 -0.1728
  138MOL0     O18942  10.751   2.422   2.879 -0.7419  0.5831  0.7307
  138MOL0     C18943  10.617   2.444   2.926 -0.4510 -0.6635 -0.1827
  138MOL0     C18944  10.584   2.595   2.919 -0.2120 -0.8856 -0.2500
  138MOL0     C18945  10.684   2.681   2.990  0.0264 -0.5511  0.0438
  138MOL0     C18946  10.693   2.830   2.932 -0.3760 -0.3506  0.3308
  138MOL0     C18947  10.565   2.903   2.972  0.4021 -0.4202  0.5919
  138MOL0     C18948  10.592   3.003   3.088  0.5849 -0.3766  0.3249
  138MOL0     C18949  10.475   3.092   3.112  0.9490 -0.1772  0.0413
  138MOL0     C18950  10.354   3.013   3.163 -0.2241  0.7683  0.2613
  138MOL0    Cl18951  10.233   3.149   3.168  0.0574  0.5373  0.1045
  138MOL0     C18952  10.741   2.184   2.930 -0.2374 -0.1171 -0.3235
  138MOL0     C18953  10.801   2.062   2.935 -0.4074 -0.3411 -0.0402
  138MOL0     O18954  10.857   1.844   3.093 -0.0617  0.9933 -0.1456
  138MOL0     C18955  11.118   1.664   2.949 -0.4608  0.3159  0.2719
  138MOL0     C18956  11.171   1.532   2.932 -0.6162 -0.1115  0.4986
  138MOL0     N18957  11.071   0.854   2.745  0.8997  0.2199  0.0659
  138MOL0     N18958  10.990   0.742   2.751 -0.1841  0.7372 -0.4588
  138MOL0     C18959  10.603   0.753   3.460 -0.7982 -1.6916 -0.1288
  138MOL0     C18960  10.565   0.803   3.589  1.4166  0.2119  0.2049
  138MOL0     C18961  10.246   0.814   3.958  0.4170 -0.1695  0.7280
  138MOL0     C18962  10.315   0.898   4.042 -1.0138  0.8245  0.5392
  138MOL0     C18963  10.294   0.905   4.179 -0.0804  0.1164  0.8860
  138MOL0     C18964  10.199   0.821   4.235  1.0797  0.0526  0.0586
  138MOL0     O18965  10.173   0.810   4.373  0.1892  0.3882 -0.2356
  138MOL0     C18966  10.038   0.814   4.417 -0.6766  0.5325 -0.3222
  138MOL0     C18967  10.044   0.848   4.567  0.0182  0.6640 -0.6974
  138MOL0     C18968   9.974   0.984   4.598  0.1294  1.0178  0.3690
  138MOL0     C18969   9.984   0.997   4.757  0.1384 -0.4880 -0.5158
  138MOL0     C18970   9.889   0.909   4.830 -0.1499 -0.5178 -0.0822
  138MOL0     C18971   9.797   0.835   4.862 -0.3325 -0.0088 -0.4595
  138MOL0     C18972  10.115   0.741   4.148 -0.5793 -0.7288 -1.4513
  138MOL0     C18973  10.130   0.746   4.010  0.2793 -0.1947 -0.0515
  138MOL0     C18974  10.050   0.654   3.926  0.3496 -0.0120 -0.7613
  138MOL0     H18975  10.303   0.587   3.649 -2.9280  0.7774 -2.7732
  138MOL0     H18976  10.389   0.505   3.438 -0.7595  1.0331 -0.4465
  138MOL0     H18977  10.387   0.573   3.210 -0.5348  0.2248  0.3331
  138MOL0     H18978  10.469   0.412   3.230 -0.3682 -0.4259 -1.9231
  138MOL0     H18979  10.446   0.532   2.990  0.7611  3.0743  0.1822
  138MOL0     H18980  10.590   0.607   3.042 -1.0017  4.1937  5.8949
  138MOL0     H18981  10.564   0.304   3.064  1.7427 -1.4684 -2.5560
  138MOL0     H18982  10.631   0.395   2.932  0.3928  2.7331  0.5175
  138MOL0     H18983  10.793   0.500   3.117  2.2926 -0.6230  0.7365
  138MOL0     H18984  10.736   0.365   3.211 -2.1352  3.0668  0.6471
  138MOL0     H18985  10.797   0.212   3.032  1.3609 -1.6173 -1.2347
  138MOL0     H18986  10.925   0.291   3.131 -1.1162  2.8815  1.6880
  138MOL0     H18987  10.989   0.267   2.900 -1.1439 -3.2220  5.6415
  138MOL0     H18988  10.838   0.352   2.848 -2.3608 -2.3558  1.6980
  138MOL0     H18989  11.056   0.482   3.012  0.0744  0.2011 -0.4446
  138MOL0     H18990  10.905   0.554   2.965 -2.9517 -4.3790  4.9473
  138MOL0     H18991  11.113   0.443   2.755  0.0649 -1.2829  0.6129
  138MOL0     H18992  10.954   0.501   2.710  1.8096  1.5987 -2.1015
  138MOL0     H18993  11.303   0.631   2.810 -0.1834 -0.4996 -2.2922
  138MOL0     H18994  11.352   0.942   2.686 -0.8907  0.3114  0.7817
  138MOL0     H18995  11.387   0.865   2.846 -1.9960  0.9355  4.4703
  138MOL0     H18996  11.198   1.032   2.930 -0.2606  0.1794 -1.1901
  138MOL0     H18997  11.365   1.091   2.920 -2.1543  1.5103  2.4088
  138MOL0     H18998  11.261   1.153   2.662 -0.7152  1.4378 -0.2434
  138MOL0     H18999  11.115   1.140   2.748 -0.3316  0.9903 -1.4429
  138MOL0     H19000  11.319   1.305   2.873  0.4033 -2.5721  0.5179
  138MOL0     H19001  11.208   1.352   2.738  1.0428 -2.8495 -1.8085
  138MOL0     H19002  10.912   1.357   3.063 -1.4334  0.4605 -0.8414
  138MOL0     H19003  10.721   1.632   3.159 -1.6078 -0.9065  2.0908
  138MOL0     H19004  10.717   1.477   3.094  1.3597 -0.2674  1.7472
  138MOL0     H19005  10.712   1.607   2.982  1.7219 -0.8007  0.4479
  138MOL0     H19006  11.104   2.130   2.820 -1.4371 -5.2585 -0.3976
  138MOL0     H19007  10.994   2.368   2.819 -0.0647  1.3406  3.0051
  138MOL0     H19008  10.545   2.396   2.859 -1.3880  2.2501 -1.4046
  138MOL0     H19009  10.618   2.407   3.030  0.0251 -1.1010 -0.3387
  138MOL0     H19010  10.572   2.617   2.813 -4.4918 -1.2013  0.0075
  138MOL0     H19011  10.487   2.612   2.967  0.0043 -3.3485  1.2479
  138MOL0     H19012  10.789   2.650   2.995 -0.2038 -1.1007  2.5049
  138MOL0     H19013  10.657   2.689   3.095 -2.0717  3.8083 -0.6097
  138MOL0     H19014  10.702   2.841   2.823 -0.1044 -2.3554  0.1119
  138MOL0     H19015  10.773   2.892   2.973 -1.5480  0.5114  1.4080
  138MOL0     H19016  10.534   2.965   2.888  0.6742 -1.1901 -0.0909
  138MOL0     H19017  10.492   2.826   2.997  0.9660 -0.0123  4.0088
  138MOL0     H19018  10.676   3.069   3.066  0.1145  0.7335  1.7442
  138MOL0     H19019  10.604   2.940   3.176  4.8322 -3.0908 -1.8528
  138MOL0     H19020  10.452   3.148   3.021 -2.2352 -4.3598 -2.0727
  138MOL0     H19021  10.507   3.161   3.191 -0.4246  0.5226  0.0242
  138MOL0     H19022  10.380   2.975   3.263  1.6394  1.2790  0.0035
  138MOL0     H19023  10.324   2.938   3.089 -0.8153  0.6689  0.5961
  138MOL0     H19024  10.640   2.203   2.966 -0.4338 -1.7536  0.0790
  138MOL0     H19025  10.732   1.979   2.949  1.1481 -2.0415 -1.7247
  138MOL0     H19026  11.170   1.750   2.909 -1.2381  0.1944 -1.0511
  138MOL0     H19027  11.272   1.514   2.896  0.8770 -0.1212  4.2595
  138MOL0     H19028  10.682   0.808   3.409 -2.2856  2.1404  1.3249
  138MOL0     H19029  10.633   0.870   3.643 -0.2532  1.9598  0.2424
  138MOL0     H19030  10.403   0.952   4.010 -0.7502  1.5989  2.4388
  138MOL0     H19031  10.349   0.981   4.234  1.3999  0.1274 -0.5254
  138MOL0     H19032   9.988   0.895   4.363  2.3648  2.7933 -0.0227
  138MOL0     H19033   9.998   0.716   4.389  1.9530 -0.7763  0.1846
  138MOL0     H19034  10.148   0.856   4.602 -0.2813  1.3262  0.0836
  138MOL0     H19035   9.984   0.768   4.611  3.0904 -2.1155 -1.1363
  138MOL0     H19036  10.035   1.065   4.557 -1.3787  1.0517 -1.9673
  138MOL0     H19037   9.876   0.986   4.551  0.8644  1.1837 -1.2107
  138MOL0     H19038   9.957   1.101   4.777 -2.2279 -1.4146  1.6359
  138MOL0     H19039  10.086   0.978   4.793  1.4124  1.6956 -2.6133
  138MOL0     H19040   9.717   0.768   4.885  2.7193 -2.6097  4.4107
  138MOL0     H19041  10.034   0.690   4.199 -0.2083  3.0449  3.6569
  138MOL0     H19042  10.124   0.584   3.886  2.0909 -0.0258  2.2312
  138MOL0     H19043   9.990   0.591   3.993  0.0921  1.1349  0.1144
  138MOL0     H19044   9.990   0.712   3.855 -0.0930  3.1401  1.9524
  139MOL0     O19045   0.716   9.440  10.861 -0.0037  0.0646 -0.8569
  139MOL0     C19046   0.677   9.368  10.764 -0.5240 -0.4390 -0.7066
  139MOL0     O19047   0.563   9.289  10.765 -0.1666 -1.1956 -0.4574
  139MOL0     C19048   0.455   9.322  10.852  0.3467  0.5803 -0.3585
  139MOL0     C19049   0.414   9.448  10.902  0.3833 -0.2097  0.1762
  139MOL0     C19050   0.282   9.461  10.960  0.2306  0.5036 -0.0788
  139MOL0     C19051   0.203   9.351  10.986  0.3171  0.1519  0.3826
  139MOL0     O19052   0.084   9.372  11.048  0.4771  0.7386  0.1903
  139MOL0     C19053   0.048   9.269  11.134  0.6045  0.5680 -1.1518
  139MOL0     C19054  -0.065   9.303  11.238  1.2627 -0.8850  0.2743
  139MOL0     C19055  -0.098   9.205  11.352  0.4347 -0.9179  0.0839
  139MOL0     C19056  -0.054   9.232  11.498 -0.3171 -0.6706  0.5931
  139MOL0     C19057  -0.133   9.156  11.606 -0.1436 -0.6546  0.0113
  139MOL0     C19058  -0.127   9.003  11.578 -0.2612 -0.9587 -0.8436
  139MOL0     C19059  -0.215   8.927  11.680 -0.2814  0.5350 -0.2297
  139MOL0     C19060  -0.359   8.947  11.647  0.2189  0.7171  0.1267
  139MOL0     N19061  -0.443   8.870  11.736  0.3975 -0.1701 -0.3986
  139MOL0     C19062  -0.476   8.924  11.854  0.2150 -0.4359  0.1023
  139MOL0     C19063  -0.519   8.825  11.932  0.7667  0.4443 -0.5330
  139MOL0     C19064  -0.558   8.850  12.078 -0.2085 -0.0227  0.0770
  139MOL0     C19065  -0.625   8.739  12.158 -0.0521 -1.1571  0.0926
  139MOL0     C19066  -0.636   8.774  12.313  0.4315  0.4923  0.0463
  139MOL0     C19067  -0.623   8.645  12.391 -0.5553  0.7721 -0.9483
  139MOL0     O19068  -0.577   8.672  12.527  0.5469 -0.0181  0.6702
  139MOL0     C19069  -0.664   8.649  12.632 -0.6937  0.4937  0.3295
  139MOL0     C19070  -0.750   8.534  12.657  0.2081  0.7773 -0.9278
  139MOL0     C19071  -0.804   8.507  12.783  1.0355 -0.7514 -1.3046
  139MOL0     C19072  -0.875   8.382  12.809 -0.4278 -0.2913 -0.9181
  139MOL0     C19073  -0.794   8.612  12.888 -0.0037  0.1571  0.5951
  139MOL0     C19074  -0.860   8.583  13.022  1.5016 -0.7173  0.1297
  139MOL0     O19075  -0.908   8.695  13.085  0.3444 -0.6810  0.8486
  139MOL0     C19076  -0.955   8.670  13.217 -0.4945 -0.4696 -0.6715
  139MOL0     C19077  -1.083   8.653  13.248  0.2013  0.1971 -0.1852
  139MOL0     C19078  -1.121   8.625  13.375  0.5281 -0.8150 -0.2186
  139MOL0     C19079  -1.032   8.615  13.478 -0.0057  0.0193 -0.1522
  139MOL0     O19080  -1.061   8.576  13.604  0.2613 -0.6410  0.4802
  139MOL0     C19081  -1.189   8.607  13.651 -0.8832  0.4888 -0.1467
  139MOL0     C19082  -1.183   8.598  13.801  0.1773 -0.1395 -0.3366
  139MOL0     C19083  -1.301   8.663  13.866  0.0951  0.8494 -0.8411
  139MOL0     C19084  -1.430   8.587  13.846  0.6471 -0.1226  0.5513
  139MOL0     C19085  -1.537   8.669  13.912 -0.0092 -0.0684 -0.1222
  139MOL0     C19086  -1.660   8.596  13.954 -0.3577 -0.2652  0.8493
  139MOL0     C19087  -1.748   8.684  14.040 -0.7276 -0.5326 -0.4525
  139MOL0     C19088  -1.851   8.576  14.088 -0.8508 -0.0471 -0.3657
  139MOL0    Cl19089  -1.945   8.663  14.212 -0.3872  0.1894  0.1512
  139MOL0     C19090  -0.895   8.643  13.446 -1.1192 -0.2729  0.8057
  139MOL0     C19091  -0.856   8.676  13.311  0.5820  0.0125 -0.4961
  139MOL0     O19092  -0.857   8.470  13.072  0.6564  0.3774  0.8279
  139MOL0     C19093  -0.715   8.718  12.863  0.1733 -0.3105 -0.2746
  139MOL0     C19094  -0.653   8.742  12.738 -0.2702  0.0270  0.4581
  139MOL0     N19095  -0.526   8.713  11.850  0.8672 -1.2468 -0.8016
  139MOL0     N19096  -0.499   8.744  11.733 -0.4903  0.1366  0.5741
  139MOL0     C19097   0.243   9.229  10.927  0.4647 -0.1276  0.0592
  139MOL0     C19098   0.368   9.213  10.857 -0.0601  0.6649  0.1297
  139MOL0     C19099   0.776   9.335  10.660  0.1590  0.4562 -0.3147
  139MOL0     C19100   0.778   9.202  10.606 -0.2112 -0.5595 -0.8712
  139MOL0     C19101   0.881   9.158  10.521  0.5911 -0.2617  0.0391
  139MOL0     C19102   0.984   9.250  10.490 -1.2706 -0.9850  0.1805
  139MOL0     O19103   1.088   9.230  10.407 -0.6020  0.0500  1.2880
  139MOL0     C19104   1.131   9.089  10.385  0.4158 -1.7770 -0.3670
  139MOL0     C19105   1.227   9.071  10.266 -1.1609 -0.3865  0.5400
  139MOL0     C19106   1.274   9.205  10.203  1.1552  0.0096  0.0095
  139MOL0     C19107   1.378   9.187  10.098 -0.0664 -0.9431 -0.7961
  139MOL0     C19108   1.329   9.116   9.984  0.3181  0.2741 -0.6120
  139MOL0     C19109   1.286   9.042   9.896 -0.5820 -1.1080 -0.2087
  139MOL0     C19110   0.988   9.388  10.540  0.4099  0.5457  0.6419
  139MOL0     C19111   0.875   9.428  10.611  0.8247 -0.0051  0.2330
  139MOL0     C19112   0.862   9.579  10.635  0.5461 -0.0413  0.2958
  139MOL0     H19113   0.464   9.539  10.871 -1.1138  1.5774  2.6491
  139MOL0     H19114   0.245   9.559  10.989 -0.7202  0.3688 -0.7766
  139MOL0     H19115   0.131   9.235  11.197 -0.0570 -0.0408 -0.5860
  139MOL0     H19116  -0.003   9.187  11.082  2.2304 -2.1708  1.2552
  139MOL0     H19117  -0.026   9.392  11.289 -1.7653  0.6518  0.1447
  139MOL0     H19118  -0.166   9.315  11.197 -0.8466 -3.0688  4.1715
  139MOL0     H19119  -0.207   9.197  11.357  0.4484 -0.3623  2.0247
  139MOL0     H19120  -0.051   9.110  11.326  0.8831 -0.8523  0.6365
  139MOL0     H19121   0.048   9.202  11.522 -1.0714 -0.8913  4.0319
  139MOL0     H19122  -0.066   9.341  11.506 -0.7874 -0.7398  0.8702
  139MOL0     H19123  -0.230   9.199  11.629  0.1695  2.9112 -4.0679
  139MOL0     H19124  -0.073   9.170  11.697  2.7070 -1.9755 -1.5290
  139MOL0     H19125  -0.163   8.980  11.477  0.7944  3.1993 -2.3706
  139MOL0     H19126  -0.024   8.970  11.596  0.1580  1.0469  0.8143
  139MOL0     H19127  -0.194   8.975  11.776 -1.0931  1.9046 -0.7157
  139MOL0     H19128  -0.193   8.820  11.690 -1.9234  0.2446  0.5915
  139MOL0     H19129  -0.373   9.055  11.660  1.7413  0.6451  3.5193
  139MOL0     H19130  -0.375   8.919  11.543  2.5278 -0.7737  0.0850
  139MOL0     H19131  -0.457   9.028  11.879  0.4365 -0.4580  0.0262
  139MOL0     H19132  -0.633   8.929  12.062 -0.1010  0.1779  0.5630
  139MOL0     H19133  -0.468   8.894  12.120  2.1755 -0.6273 -3.8897
  139MOL0     H19134  -0.720   8.720  12.107  1.3843 -2.1939 -2.3975
  139MOL0     H19135  -0.558   8.655  12.136 -0.0617 -1.1390 -0.0105
  139MOL0     H19136  -0.553   8.839  12.344  0.2996  1.0741 -0.7765
  139MOL0     H19137  -0.719   8.836  12.348  0.1525  0.9269 -1.3167
  139MOL0     H19138  -0.710   8.579  12.384 -0.4655  0.6691 -1.1294
  139MOL0     H19139  -0.545   8.573  12.362 -0.5559 -0.3026  1.4955
  139MOL0     H19140  -0.752   8.455  12.583  0.8596  2.8093 -3.2250
  139MOL0     H19141  -0.977   8.398  12.845 -1.6215 -2.2823 -3.1093
  139MOL0     H19142  -0.834   8.314  12.884  1.0867  2.1770  0.6428
  139MOL0     H19143  -0.892   8.325  12.717  0.6928 -0.9897 -0.7134
  139MOL0     H19144  -1.164   8.649  13.176  1.6149  3.1165 -2.1065
  139MOL0     H19145  -1.222   8.587  13.387  1.4263 -3.0239  0.9744
  139MOL0     H19146  -1.219   8.709  13.624  0.7936  0.4275 -2.4633
  139MOL0     H19147  -1.252   8.529  13.607  2.9375 -2.4961 -0.7934
  139MOL0     H19148  -1.171   8.492  13.824 -0.9427 -0.4135 -0.9197
  139MOL0     H19149  -1.101   8.661  13.836 -0.7264  2.4991 -2.5594
  139MOL0     H19150  -1.309   8.762  13.819  2.9415  1.1371 -0.8747
  139MOL0     H19151  -1.283   8.677  13.973 -0.7018  1.0578 -0.7242
  139MOL0     H19152  -1.417   8.487  13.888  0.4770  0.3337  1.7355
  139MOL0     H19153  -1.459   8.586  13.741 -1.1227  1.7490  0.9588
  139MOL0     H19154  -1.493   8.717  14.000 -0.5349  0.0196  0.0970
  139MOL0     H19155  -1.562   8.752  13.845 -2.9090  0.1887  1.1597
  139MOL0     H19156  -1.633   8.503  14.005 -1.7346 -1.8197 -1.1050
  139MOL0     H19157  -1.703   8.587  13.855  0.4156 -0.0384  0.4846
  139MOL0     H19158  -1.780   8.767  13.977 -3.1833 -2.4916 -1.9425
  139MOL0     H19159  -1.693   8.733  14.122 -2.1411  1.3709 -0.5724
  139MOL0     H19160  -1.818   8.476  14.117 -0.2643 -0.1397 -1.2847
  139MOL0     H19161  -1.915   8.578  13.999 -0.9158  1.5928 -0.3128
  139MOL0     H19162  -0.819   8.655  13.522  0.2891  2.4738 -0.8725
  139MOL0     H19163  -0.754   8.704  13.289  0.5601 -2.1660 -4.2214
  139MOL0     H19164  -0.702   8.797  12.936 -3.4985  1.9423 -1.7694
  139MOL0     H19165  -0.595   8.831  12.717  1.3632 -0.6451  1.8416
  139MOL0     H19166   0.171   9.148  10.921 -1.4153  1.5289 -1.1902
  139MOL0     H19167   0.386   9.120  10.804  0.9699  2.3074 -2.6057
  139MOL0     H19168   0.709   9.130  10.649 -0.0122 -1.0341 -1.3287
  139MOL0     H19169   0.882   9.052  10.501  1.7103 -0.0072 -1.4095
  139MOL0     H19170   1.180   9.048  10.474  0.9096  0.2609  0.3543
  139MOL0     H19171   1.038   9.037  10.363  1.1614 -1.9404 -3.5802
  139MOL0     H19172   1.169   9.009  10.197 -0.8106  3.1001 -3.3236
  139MOL0     H19173   1.315   9.018  10.301 -0.6081 -0.0577 -0.3293
  139MOL0     H19174   1.188   9.258  10.162 -0.0926 -2.5919 -0.9270
  139MOL0     H19175   1.312   9.261  10.290  1.4680  0.9191 -0.6920
  139MOL0     H19176   1.453   9.128  10.153  0.0525  0.1273  0.2312
  139MOL0     H19177   1.421   9.286  10.078  0.9306 -1.4452 -1.1855
  139MOL0     H19178   1.237   8.982   9.822 -3.3223 -4.3086  3.7523
  139MOL0     H19179   1.075   9.446  10.512 -1.5226  2.8622 -0.9915
  139MOL0     H19180   0.905   9.613  10.729  0.6737  2.2079 -0.5113
  139MOL0     H19181   0.906   9.632  10.550 -1.6002  4.1765  1.5551
  139MOL0     H19182   0.757   9.608  10.638 -0.0092 -1.6709 -1.2707
  140MOL0     O19183   9.101   6.511   4.806  0.0112  0.9969  0.3283
  140MOL0     C19184   8.984   6.476   4.784 -0.7505  0.6718  0.4061
  140MOL0     O19185   8.942   6.435   4.661 -0.5155 -0.3252 -0.7791
  140MOL0     C19186   9.021   6.434   4.546  1.2426  0.3323  0.6112
  140MOL0     C19187   9.042   6.312   4.473 -0.1591 -0.3805 -0.1608
  140MOL0     C19188   9.131   6.297   4.365 -0.0483 -0.9985  0.3811
  140MOL0     C19189   9.213   6.403   4.329 -0.1910  0.1125 -0.0348
  140MOL0     O19190   9.297   6.407   4.223  0.3394  0.0913 -0.9654
  140MOL0     C19191   9.355   6.290   4.165  0.3063  0.1883  0.1410
  140MOL0     C19192   9.503   6.286   4.131  0.6675 -0.7009 -0.5503
  140MOL0     C19193   9.552   6.382   4.012 -0.1770  0.8813  0.7965
  140MOL0     C19194   9.480   6.341   3.876 -0.7455  0.0178  0.1228
  140MOL0     C19195   9.550   6.422   3.760 -0.5649  0.5930 -0.7317
  140MOL0     C19196   9.512   6.572   3.748  0.6027  0.5929 -0.1224
  140MOL0     C19197   9.556   6.648   3.621 -0.2190 -0.6422  0.0500
  140MOL0     C19198   9.563   6.794   3.660 -0.5753 -1.2929 -0.1919
  140MOL0     N19199   9.610   6.874   3.538  0.1855 -0.3477 -0.7587
  140MOL0     C19200   9.744   6.883   3.506  0.0318 -0.2980 -0.5491
  140MOL0     C19201   9.743   6.932   3.382  1.0416  0.3653  0.3187
  140MOL0     C19202   9.855   6.957   3.282  0.3026 -0.8340  0.2557
  140MOL0     C19203   9.911   6.846   3.196  0.5536 -0.4480 -0.3281
  140MOL0     C19204   9.993   6.762   3.279  0.2715 -0.8673 -0.0879
  140MOL0     C19205  10.080   6.657   3.202 -0.6222 -0.3551 -0.2259
  140MOL0     O19206  10.008   6.575   3.112  0.7732 -0.2120 -0.0082
  140MOL0     C19207  10.072   6.495   3.021 -0.2937 -0.7463 -0.0392
  140MOL0     C19208   9.989   6.400   2.958 -0.1741 -1.1816 -0.5940
  140MOL0     C19209  10.031   6.310   2.863  0.9323  0.7090  0.2005
  140MOL0     C19210   9.921   6.227   2.799  1.1121 -0.1731 -0.4403
  140MOL0     C19211  10.171   6.300   2.838  0.8727  0.0680  0.2299
  140MOL0     C19212  10.236   6.198   2.767 -1.2523  0.4333  0.8001
  140MOL0     O19213  10.371   6.204   2.749  0.7456 -0.1111 -0.8044
  140MOL0     C19214  10.445   6.111   2.680 -0.7614  0.9310 -0.0322
  140MOL0     C19215  10.569   6.069   2.733 -0.2822 -1.2828 -1.0969
  140MOL0     C19216  10.647   5.967   2.679 -0.6641 -0.1266  1.8965
  140MOL0     C19217  10.611   5.918   2.554  0.3286  0.8960 -0.1544
  140MOL0     O19218  10.678   5.826   2.466 -0.2737 -0.0390 -0.9140
  140MOL0     C19219  10.791   5.758   2.522  1.4932  0.2651  0.7099
  140MOL0     C19220  10.815   5.631   2.444 -0.0556 -0.8993 -0.6204
  140MOL0     C19221  10.720   5.530   2.492  0.0654 -0.2091 -1.1974
  140MOL0     C19222  10.731   5.401   2.418  0.9150 -0.0969 -0.4562
  140MOL0     C19223  10.625   5.313   2.483  0.2722 -0.1547 -0.6545
  140MOL0     C19224  10.634   5.181   2.407 -1.2075  0.0311 -0.2356
  140MOL0     C19225  10.496   5.105   2.420 -0.0420 -0.8498  0.6190
  140MOL0     C19226  10.479   5.007   2.302  0.2716  0.5341  0.7626
  140MOL0    Cl19227  10.316   4.987   2.239 -0.5104  0.1724 -0.0565
  140MOL0     C19228  10.484   5.956   2.501 -0.8418 -0.6568  0.3596
  140MOL0     C19229  10.407   6.046   2.568 -0.4052  0.2976 -0.2536
  140MOL0     O19230  10.171   6.096   2.744  0.2450 -0.2475 -0.8938
  140MOL0     C19231  10.247   6.410   2.888  0.3031 -0.4141  0.1431
  140MOL0     C19232  10.203   6.504   2.982 -0.4773 -0.5628  1.0900
  140MOL0     N19233   9.612   6.945   3.346 -0.8001  0.2386 -0.1694
  140MOL0     N19234   9.532   6.915   3.442  0.9523  0.0394  0.4359
  140MOL0     C19235   9.200   6.524   4.395 -0.1567  1.0196 -0.0129
  140MOL0     C19236   9.106   6.541   4.504 -0.1685  0.7102  0.8930
  140MOL0     C19237   8.890   6.482   4.897 -0.6665  0.3350  0.6443
  140MOL0     C19238   8.886   6.610   4.963 -0.6938  0.3910  0.2925
  140MOL0     C19239   8.788   6.637   5.054 -0.6875 -0.5506  0.3062
  140MOL0     C19240   8.702   6.534   5.100 -0.7420 -0.0190 -0.0876
  140MOL0     O19241   8.611   6.561   5.202  0.7880 -0.5121  0.1604
  140MOL0     C19242   8.531   6.463   5.269  0.9977 -0.3258  0.7735
  140MOL0     C19243   8.403   6.467   5.187 -0.6286 -0.6354 -0.3539
  140MOL0     C19244   8.310   6.342   5.188  0.1324  0.4608 -0.4162
  140MOL0     C19245   8.253   6.321   5.325  0.3322  0.5725  0.0227
  140MOL0     C19246   8.197   6.179   5.336  0.0637  0.7478  0.4969
  140MOL0     C19247   8.146   6.075   5.359 -0.5457  0.1497 -0.1718
  140MOL0     C19248   8.723   6.400   5.049 -1.0016  0.3262 -0.4945
  140MOL0     C19249   8.810   6.377   4.943 -0.3149  0.6733 -1.1123
  140MOL0     C19250   8.780   6.255   4.862  0.6188  0.3255 -0.0741
  140MOL0     H19251   8.982   6.228   4.508 -0.6838 -0.1242 -0.4337
  140MOL0     H19252   9.143   6.204   4.310  2.7698  1.1811 -3.1663
  140MOL0     H19253   9.297   6.262   4.076  0.7063 -0.8297  0.1837
  140MOL0     H19254   9.342   6.202   4.228 -1.6569 -1.3399 -2.1899
  140MOL0     H19255   9.561   6.317   4.218 -2.1606  0.2525  1.1316
  140MOL0     H19256   9.524   6.180   4.112 -2.3036 -1.1492 -1.9777
  140MOL0     H19257   9.550   6.489   4.037  2.2751  1.5482 -1.4784
  140MOL0     H19258   9.658   6.359   4.004 -0.2783  0.9490 -1.0548
  140MOL0     H19259   9.488   6.233   3.859  0.6276  0.1032  0.1250
  140MOL0     H19260   9.377   6.375   3.887 -0.8949 -0.6634  1.0022
  140MOL0     H19261   9.531   6.365   3.669  2.7120 -0.5008 -0.8702
  140MOL0     H19262   9.659   6.423   3.762 -0.5544  0.0864 -0.7929
  140MOL0     H19263   9.403   6.582   3.754  0.7014  1.4729  0.4871
  140MOL0     H19264   9.566   6.627   3.825 -1.7195  2.6336  0.1973
  140MOL0     H19265   9.479   6.630   3.545 -0.8976  1.3363  0.1885
  140MOL0     H19266   9.661   6.622   3.605 -0.3870 -0.9319 -0.6198
  140MOL0     H19267   9.463   6.824   3.691 -0.7819  0.0819 -2.0053
  140MOL0     H19268   9.625   6.804   3.750 -1.1339 -0.8561  0.1540
  140MOL0     H19269   9.828   6.844   3.562  0.3646  0.2198 -0.6861
  140MOL0     H19270   9.937   6.997   3.342 -0.4758 -0.8239  1.3392
  140MOL0     H19271   9.809   7.028   3.213 -0.3160 -1.1569  0.3323
  140MOL0     H19272   9.826   6.787   3.160  1.1789 -1.8862  0.4879
  140MOL0     H19273   9.969   6.893   3.116  0.4274 -0.0843 -0.2091
  140MOL0     H19274  10.068   6.821   3.332 -0.5430  0.9397 -0.8397
  140MOL0     H19275   9.936   6.721   3.364  0.3205 -1.2839 -0.2556
  140MOL0     H19276  10.173   6.699   3.162  1.6353 -1.2717  3.5213
  140MOL0     H19277  10.122   6.599   3.285 -0.0567  1.3725  0.7556
  140MOL0     H19278   9.883   6.408   2.981 -0.1903 -0.3614 -0.9246
  140MOL0     H19279   9.830   6.283   2.821  0.9309 -0.5543 -0.2227
  140MOL0     H19280   9.903   6.124   2.831 -1.4283  1.3247  3.7886
  140MOL0     H19281   9.932   6.220   2.690  0.3474  0.3521 -0.5637
  140MOL0     H19282  10.596   6.103   2.833 -1.0139 -0.5235 -1.1455
  140MOL0     H19283  10.738   5.934   2.729  3.1523  1.1302 -3.2743
  140MOL0     H19284  10.877   5.826   2.521 -1.0006  3.6688  0.7421
  140MOL0     H19285  10.771   5.727   2.625 -2.4024  1.4357  0.4666
  140MOL0     H19286  10.803   5.638   2.335 -1.9117  1.2411 -0.3710
  140MOL0     H19287  10.916   5.592   2.454 -0.7034 -2.1617  1.5343
  140MOL0     H19288  10.617   5.567   2.493  0.0476 -0.1860  0.5033
  140MOL0     H19289  10.738   5.506   2.597  1.3786 -1.9511 -1.7810
  140MOL0     H19290  10.831   5.355   2.418  0.0948 -2.0696  1.7946
  140MOL0     H19291  10.711   5.407   2.310  1.3868 -1.6542 -0.6644
  140MOL0     H19292  10.648   5.297   2.589 -4.1146  1.8307  0.8319
  140MOL0     H19293  10.522   5.350   2.474 -0.3948 -2.1238 -1.6302
  140MOL0     H19294  10.717   5.135   2.460 -0.6426  2.6384  1.3138
  140MOL0     H19295  10.656   5.202   2.302 -0.1395 -0.9541 -0.2182
  140MOL0     H19296  10.404   5.165   2.427 -1.0773 -2.3114 -0.0100
  140MOL0     H19297  10.496   5.043   2.510  0.0501 -2.4882 -0.4773
  140MOL0     H19298  10.512   4.912   2.345  0.5135  0.4237  0.3426
  140MOL0     H19299  10.547   5.037   2.222 -0.7022 -0.0680 -0.3282
  140MOL0     H19300  10.453   5.928   2.401 -0.5685 -1.0971  0.3929
  140MOL0     H19301  10.326   6.088   2.508  0.0901  0.7757 -0.5944
  140MOL0     H19302  10.353   6.413   2.866  0.4271 -3.0380  0.1197
  140MOL0     H19303  10.281   6.567   3.023  0.1518 -1.7943  1.8454
  140MOL0     H19304   9.261   6.606   4.358  0.6745 -0.6840 -2.6957
  140MOL0     H19305   9.102   6.642   4.543 -1.3179  1.0140  0.0318
  140MOL0     H19306   8.961   6.687   4.946 -0.5808  0.2736  0.2619
  140MOL0     H19307   8.769   6.734   5.099  4.3072  1.8702 -2.0170
  140MOL0     H19308   8.568   6.361   5.265  1.0594 -0.3555  1.9010
  140MOL0     H19309   8.518   6.491   5.374 -1.1165  2.2637 -0.0453
  140MOL0     H19310   8.436   6.481   5.084  1.1029  2.8324  0.5232
  140MOL0     H19311   8.344   6.558   5.202  0.9139  0.6985 -1.9941
  140MOL0     H19312   8.235   6.368   5.113  0.9463 -1.0476 -1.8459
  140MOL0     H19313   8.377   6.262   5.153  2.2842  1.5353  1.0073
  140MOL0     H19314   8.177   6.393   5.355 -0.3335 -0.5427  1.1347
  140MOL0     H19315   8.333   6.344   5.396  0.1363  0.3665  0.3124
  140MOL0     H19316   8.089   5.989   5.388  2.3043 -0.7259  3.4610
  140MOL0     H19317   8.662   6.315   5.079  0.0667  0.2584  1.6847
  140MOL0     H19318   8.705   6.287   4.789  0.5164 -0.3175 -0.2515
  140MOL0     H19319   8.870   6.216   4.815  1.5857  2.0687  0.2477
  140MOL0     H19320   8.733   6.181   4.928 -2.8447  2.9207  0.7250
  141MOL0     O19321   5.198   5.984   9.855  0.3085  0.6356 -0.3233
  141MOL0     C19322   5.088   6.033   9.879  0.0893  0.3810  0.4021
  141MOL0     O19323   4.970   5.987   9.824  0.2286  0.1849 -0.5482
  141MOL0     C19324   4.957   5.860   9.772 -0.3865 -0.6270 -0.4602
  141MOL0     C19325   4.862   5.843   9.678 -0.1590  0.5959  0.1025
  141MOL0     C19326   4.835   5.716   9.619  0.5922 -0.0793 -0.1438
  141MOL0     C19327   4.906   5.604   9.657 -0.1600  0.3671  0.3020
  141MOL0     O19328   4.865   5.484   9.601  0.0849  0.4768  0.3288
  141MOL0     C19329   4.931   5.362   9.637  0.1515 -0.1127 -0.1954
  141MOL0     C19330   4.831   5.249   9.631 -0.5760  0.0806  0.2013
  141MOL0     C19331   4.772   5.234   9.483 -1.1064 -0.7200  0.5154
  141MOL0     C19332   4.642   5.160   9.500 -0.1490 -0.4278 -0.0996
  141MOL0     C19333   4.618   5.088   9.365  0.9794 -0.0305 -0.2540
  141MOL0     C19334   4.486   5.000   9.342 -0.6150 -1.9696  0.2683
  141MOL0     C19335   4.353   5.071   9.369  0.4327  0.0506  0.7110
  141MOL0     C19336   4.238   4.969   9.362 -0.1212  0.2930 -0.2583
  141MOL0     N19337   4.114   5.041   9.327 -0.3436  0.7460  0.4600
  141MOL0     C19338   4.036   5.019   9.222  0.1618  0.6509 -0.0257
  141MOL0     C19339   3.932   5.106   9.251 -0.3576  1.3446  0.3366
  141MOL0     C19340   3.827   5.153   9.160  0.4033  0.0555  0.4343
  141MOL0     C19341   3.894   5.201   9.027 -0.3174  0.2985 -0.8454
  141MOL0     C19342   3.803   5.266   8.928  0.0199  0.0367  0.2458
  141MOL0     C19343   3.892   5.329   8.822  0.0288  0.1502 -0.4910
  141MOL0     O19344   3.820   5.370   8.706 -0.3747 -0.2692 -0.3658
  141MOL0     C19345   3.773   5.495   8.690  0.2924 -0.3467 -0.2125
  141MOL0     C19346   3.760   5.595   8.790 -1.0536  0.4833 -0.0994
  141MOL0     C19347   3.714   5.723   8.773  0.1411 -0.6036 -0.2291
  141MOL0     C19348   3.711   5.821   8.897 -0.2847  0.1619 -0.4509
  141MOL0     C19349   3.663   5.758   8.644 -0.0002 -0.3900 -0.5243
  141MOL0     C19350   3.595   5.886   8.623  0.4825  0.2941 -0.4198
  141MOL0     O19351   3.496   5.877   8.528 -0.1261  0.4538  0.5390
  141MOL0     C19352   3.409   5.985   8.523  0.8911 -0.8299  0.3667
  141MOL0     C19353   3.447   6.115   8.490 -0.2138  1.8017  0.2075
  141MOL0     C19354   3.352   6.220   8.489 -0.9836  0.9800  0.4950
  141MOL0     C19355   3.226   6.197   8.533  0.2709 -0.4654  0.3252
  141MOL0     O19356   3.128   6.295   8.530 -0.0664 -0.2541 -0.3063
  141MOL0     C19357   2.994   6.280   8.576  0.2619  0.4111  0.4708
  141MOL0     C19358   2.916   6.399   8.535 -0.5951  0.0578  0.0221
  141MOL0     C19359   2.766   6.370   8.568  0.1633 -0.5352 -0.5466
  141MOL0     C19360   2.679   6.492   8.536 -0.0286  0.5430  0.1697
  141MOL0     C19361   2.694   6.602   8.645  0.1570 -0.1163  0.3155
  141MOL0     C19362   2.561   6.666   8.684  0.5096  0.2014  0.6421
  141MOL0     C19363   2.577   6.777   8.796 -0.2877 -0.0812  0.0602
  141MOL0     C19364   2.448   6.832   8.839  0.1544 -0.1532  0.1871
  141MOL0    Cl19365   2.418   6.771   9.002 -0.0686 -0.2333  0.1272
  141MOL0     C19366   3.195   6.068   8.576  1.3462  0.2716  0.3311
  141MOL0     C19367   3.279   5.966   8.557 -0.3476 -0.4986 -1.2395
  141MOL0     O19368   3.632   5.991   8.672 -1.0281 -0.3707  0.0446
  141MOL0     C19369   3.673   5.663   8.539 -0.3222  0.9164 -0.3769
  141MOL0     C19370   3.730   5.537   8.559 -0.2923 -0.0002 -0.1056
  141MOL0     N19371   3.951   5.155   9.377 -0.2459 -1.0039  0.1735
  141MOL0     N19372   4.061   5.119   9.427 -0.0643  0.4287 -0.1995
  141MOL0     C19373   5.010   5.616   9.748  0.7557  0.0121  0.6784
  141MOL0     C19374   5.029   5.750   9.813  0.4612 -0.8454  0.3302
  141MOL0     C19375   5.072   6.159   9.953  0.3043 -0.6792  0.3623
  141MOL0     C19376   5.073   6.284   9.881  0.3389  1.0855  0.5838
  141MOL0     C19377   5.068   6.405   9.950  0.2284  0.3380  0.0152
  141MOL0     C19378   5.066   6.412  10.093  0.5869 -0.7442  0.4076
  141MOL0     O19379   5.043   6.528  10.152  0.1557 -0.1540 -0.1905
  141MOL0     C19380   5.152   6.621  10.141 -0.7736  0.7264 -0.3536
  141MOL0     C19381   5.143   6.753  10.220  0.2847  1.0684 -0.2509
  141MOL0     C19382   5.145   6.743  10.378 -0.3417  0.2675 -0.9460
  141MOL0     C19383   5.089   6.865  10.454 -0.9389 -0.9832  0.0351
  141MOL0     C19384   5.068   6.861  10.604  0.1691  0.2362  0.7574
  141MOL0     C19385   5.040   6.853  10.723  0.6835 -0.4629 -0.2445
  141MOL0     C19386   5.047   6.290  10.150  0.7755  0.0898  0.4034
  141MOL0     C19387   5.057   6.172  10.092 -1.1912  0.8364  0.5125
  141MOL0     C19388   5.055   6.040  10.173  0.5511  0.4989  0.2084
  141MOL0     H19389   4.796   5.923   9.643 -3.2127 -2.4810 -1.9029
  141MOL0     H19390   4.761   5.711   9.539  0.3290  2.7382 -0.1764
  141MOL0     H19391   4.964   5.367   9.741 -0.3882  1.1532 -0.0634
  141MOL0     H19392   5.019   5.336   9.578  1.2946 -0.7726  1.7096
  141MOL0     H19393   4.875   5.156   9.668  1.0071  0.3735 -0.8194
  141MOL0     H19394   4.752   5.275   9.702 -0.2783  5.6657 -1.0708
  141MOL0     H19395   4.758   5.329   9.429  1.9864 -0.9930 -1.0312
  141MOL0     H19396   4.855   5.185   9.432  0.2351  0.5525  1.3950
  141MOL0     H19397   4.649   5.084   9.579 -1.4023 -1.2534 -0.7499
  141MOL0     H19398   4.565   5.233   9.529 -2.0930 -2.0878 -0.8142
  141MOL0     H19399   4.709   5.028   9.356  1.1887 -0.0978  1.8460
  141MOL0     H19400   4.621   5.166   9.288  1.2486 -2.7485 -3.2284
  141MOL0     H19401   4.500   4.963   9.239 -2.2752 -3.4674  0.5267
  141MOL0     H19402   4.502   4.919   9.414  1.4528 -1.9470 -0.0893
  141MOL0     H19403   4.355   5.149   9.292 -0.0480 -0.0224  0.6274
  141MOL0     H19404   4.349   5.125   9.464 -1.5049 -3.3602  2.7697
  141MOL0     H19405   4.260   4.885   9.296  0.2681  1.0488 -1.1158
  141MOL0     H19406   4.229   4.937   9.466 -1.8954  1.2868 -0.0656
  141MOL0     H19407   4.051   4.963   9.131 -1.8404  1.0373 -0.6397
  141MOL0     H19408   3.771   5.230   9.214  0.2907 -0.3411  0.8917
  141MOL0     H19409   3.760   5.067   9.143  0.4567  0.1869 -0.5125
  141MOL0     H19410   3.970   5.270   9.064 -0.6073 -0.5804  1.5755
  141MOL0     H19411   3.938   5.115   8.976  2.9546 -0.1022  2.2284
  141MOL0     H19412   3.725   5.201   8.888  0.3927 -0.8964  0.9899
  141MOL0     H19413   3.753   5.350   8.977  1.1239  2.2662 -2.1912
  141MOL0     H19414   3.962   5.408   8.853  2.0007 -1.2631 -1.1901
  141MOL0     H19415   3.957   5.245   8.797 -0.1325  0.2357 -1.2090
  141MOL0     H19416   3.789   5.573   8.892 -1.0595  1.1128  0.0386
  141MOL0     H19417   3.728   5.772   8.993 -1.0257  0.4538 -0.1555
  141MOL0     H19418   3.616   5.876   8.892 -2.1496 -2.9379 -3.3103
  141MOL0     H19419   3.795   5.890   8.883  0.1709  0.4552  2.9886
  141MOL0     H19420   3.547   6.138   8.454 -0.3217  2.3857  0.2682
  141MOL0     H19421   3.386   6.316   8.452  1.4572 -0.9590 -2.8832
  141MOL0     H19422   2.953   6.182   8.550 -2.4207  2.2844 -3.3270
  141MOL0     H19423   3.000   6.304   8.683  2.7071  1.2534  0.2271
  141MOL0     H19424   2.942   6.498   8.572 -3.7123  1.4611 -1.1095
  141MOL0     H19425   2.921   6.410   8.426 -0.8948 -0.4716 -0.0491
  141MOL0     H19426   2.751   6.331   8.669 -0.8005  1.8662  0.3115
  141MOL0     H19427   2.734   6.286   8.505 -0.1166  0.4483 -1.7618
  141MOL0     H19428   2.576   6.455   8.543 -0.6522  2.5137  2.6272
  141MOL0     H19429   2.693   6.525   8.433  0.1834 -1.0687 -0.3489
  141MOL0     H19430   2.733   6.544   8.729 -2.9373 -3.4349 -0.2718
  141MOL0     H19431   2.776   6.671   8.622 -0.7759  0.3848 -1.7845
  141MOL0     H19432   2.499   6.583   8.717 -0.3580  1.3557  2.0103
  141MOL0     H19433   2.529   6.696   8.583  2.6051  1.0794  0.1717
  141MOL0     H19434   2.648   6.846   8.749 -2.0878  1.2595 -0.8527
  141MOL0     H19435   2.626   6.733   8.883  0.7329 -0.2910 -0.6010
  141MOL0     H19436   2.373   6.804   8.764  2.9779 -1.4007 -2.4055
  141MOL0     H19437   2.438   6.941   8.830 -3.4127 -0.5659 -4.2464
  141MOL0     H19438   3.095   6.038   8.607  1.0720  0.5629 -0.2586
  141MOL0     H19439   3.240   5.866   8.576 -0.1887 -0.2207  0.7495
  141MOL0     H19440   3.654   5.694   8.437 -0.8424 -4.0289 -2.0341
  141MOL0     H19441   3.747   5.472   8.474  0.7700 -0.5073  0.4722
  141MOL0     H19442   5.063   5.531   9.791 -1.6260 -0.6283  2.5601
  141MOL0     H19443   5.107   5.770   9.885  0.4529  0.6406 -0.0368
  141MOL0     H19444   5.073   6.278   9.773 -2.1863  0.1750  0.5591
  141MOL0     H19445   5.062   6.504   9.906 -0.0716  0.0394 -0.6273
  141MOL0     H19446   5.240   6.564  10.170  2.5124  5.6625  0.5068
  141MOL0     H19447   5.175   6.646  10.037  3.0504 -1.0774 -0.1096
  141MOL0     H19448   5.042   6.791  10.201 -0.5690  0.1375  2.1449
  141MOL0     H19449   5.225   6.818  10.187  1.6344  1.3029  3.1408
  141MOL0     H19450   5.076   6.660  10.398  0.2276  0.0110 -0.0036
  141MOL0     H19451   5.244   6.713  10.413 -1.3388 -0.6727  1.2409
  141MOL0     H19452   4.990   6.895  10.418  0.1826  0.4810 -2.0309
  141MOL0     H19453   5.159   6.947  10.434  0.3673 -2.5300 -2.1326
  141MOL0     H19454   5.021   6.876  10.825 -0.9282  1.0650 -0.8374
  141MOL0     H19455   5.020   6.293  10.255  0.2866 -0.0587  0.2851
  141MOL0     H19456   5.007   5.956  10.123  3.0904 -1.1679  0.4120
  141MOL0     H19457   5.155   5.997  10.183 -0.0882 -1.1024 -0.0384
  141MOL0     H19458   5.015   6.057  10.273  0.4547  0.0341  0.2502
  142MOL0     O19459   0.530  10.149   3.868  0.3532  0.3372 -0.1550
  142MOL0     C19460   0.504  10.105   3.985 -0.2643 -0.1531 -0.2303
  142MOL0     O19461   0.437  10.001   4.012 -0.9315 -0.3713  0.0726
  142MOL0     C19462   0.441   9.909   3.899  1.2309  0.0444 -0.9039
  142MOL0     C19463   0.554   9.882   3.807  0.1428  0.6673 -0.3842
  142MOL0     C19464   0.541   9.782   3.702 -0.1852 -0.9861  0.1088
  142MOL0     C19465   0.423   9.709   3.687  0.5424 -0.4478 -0.1446
  142MOL0     O19466   0.401   9.612   3.600  0.1182 -0.7507 -0.0539
  142MOL0     C19467   0.476   9.494   3.611 -0.6824  0.2374 -0.1006
  142MOL0     C19468   0.439   9.391   3.508 -0.2285  0.0198  0.2284
  142MOL0     C19469   0.522   9.266   3.514 -0.1536  0.9236  0.2152
  142MOL0     C19470   0.493   9.189   3.642 -0.3910  0.4168 -0.7599
  142MOL0     C19471   0.535   9.041   3.627 -0.5731 -0.5191 -0.1190
  142MOL0     C19472   0.521   8.955   3.741  0.2736 -0.0177  0.2464
  142MOL0     C19473   0.627   8.991   3.845 -0.3254 -0.2458 -0.2205
  142MOL0     C19474   0.633   8.899   3.963  0.0924 -0.5998  0.3488
  142MOL0     N19475   0.769   8.911   4.026 -0.2055 -0.0091 -0.2356
  142MOL0     C19476   0.804   9.010   4.115 -0.3384  0.7802 -0.2717
  142MOL0     C19477   0.938   9.008   4.114 -0.2333  1.3849 -1.2846
  142MOL0     C19478   1.036   9.099   4.193 -0.0180  0.4250 -0.2600
  142MOL0     C19479   1.046   9.062   4.339  0.7667 -0.2280  0.3787
  142MOL0     C19480   1.108   9.175   4.427  0.2906 -0.3351 -0.2208
  142MOL0     C19481   1.244   9.226   4.369 -0.3542  0.7983  0.8296
  142MOL0     O19482   1.336   9.113   4.343  0.1387 -0.0433  0.8065
  142MOL0     C19483   1.410   9.121   4.228 -0.1524 -0.3694  0.9937
  142MOL0     C19484   1.462   9.240   4.184 -0.0334  0.8709  0.0234
  142MOL0     C19485   1.536   9.263   4.065  0.2856  0.4354  0.5253
  142MOL0     C19486   1.600   9.396   4.054 -0.2199 -0.3654 -0.9029
  142MOL0     C19487   1.566   9.149   3.993 -0.7051  0.1497  0.3706
  142MOL0     C19488   1.638   9.138   3.871  0.4850  0.0953  0.1694
  142MOL0     O19489   1.609   9.223   3.771  0.4664 -0.4144 -0.9029
  142MOL0     C19490   1.674   9.219   3.649  1.1959  0.7305  0.3610
  142MOL0     C19491   1.811   9.196   3.624  0.3384 -0.2731 -0.1800
  142MOL0     C19492   1.854   9.218   3.489  0.5343  0.8468 -0.4204
  142MOL0     C19493   1.766   9.249   3.380  0.5212  0.3382 -0.2319
  142MOL0     O19494   1.809   9.275   3.250  0.0230  0.1568  0.2431
  142MOL0     C19495   1.946   9.281   3.204  0.1230  0.6085  0.1784
  142MOL0     C19496   2.022   9.393   3.277  0.1388  0.2363 -1.0889
  142MOL0     C19497   2.163   9.433   3.220 -0.8972 -0.0650 -0.2180
  142MOL0     C19498   2.256   9.307   3.199  0.3034  1.0054  0.0434
  142MOL0     C19499   2.398   9.349   3.162 -0.0325 -0.0998  0.5291
  142MOL0     C19500   2.474   9.446   3.248 -0.3368 -0.0658  1.1208
  142MOL0     C19501   2.527   9.559   3.160  0.4960  0.3310  0.5181
  142MOL0     C19502   2.614   9.664   3.236  0.2066  0.6946  0.5667
  142MOL0    Cl19503   2.696   9.773   3.112  0.4013 -0.3493 -0.5607
  142MOL0     C19504   1.631   9.270   3.416 -0.7346 -0.0142 -0.3822
  142MOL0     C19505   1.585   9.252   3.546  0.5175  0.4826  0.5320
  142MOL0     O19506   1.718   9.042   3.858 -0.0318 -0.4680  0.4278
  142MOL0     C19507   1.516   9.016   4.032  0.5274 -0.5990 -0.2620
  142MOL0     C19508   1.440   9.011   4.148 -0.1388 -0.7024 -0.1424
  142MOL0     N19509   0.980   8.896   4.048 -0.3390 -0.7747 -0.6733
  142MOL0     N19510   0.882   8.842   3.981 -0.4830  0.6751  0.0832
  142MOL0     C19511   0.312   9.748   3.756 -1.0679 -0.6504 -1.0708
  142MOL0     C19512   0.331   9.831   3.867  0.2497 -0.5729 -0.9271
  142MOL0     C19513   0.537  10.199   4.090  0.2981 -0.2348  0.4618
  142MOL0     C19514   0.520  10.158   4.221  1.1484  0.3625 -0.2383
  142MOL0     C19515   0.561  10.240   4.330  0.7258 -0.7805 -0.4166
  142MOL0     C19516   0.606  10.373   4.307  0.0469 -0.0900  0.1407
  142MOL0     O19517   0.630  10.457   4.410  0.0335 -0.3244  0.2161
  142MOL0     C19518   0.625  10.420   4.547 -0.7606  0.2500  0.1246
  142MOL0     C19519   0.749  10.341   4.598 -0.5637  0.2560 -0.5166
  142MOL0     C19520   0.878  10.418   4.621 -0.2518  0.0580  1.0044
  142MOL0     C19521   0.905  10.459   4.765  0.2563 -0.1027  0.8428
  142MOL0     C19522   0.803  10.531   4.833  0.3733 -0.0268 -0.2499
  142MOL0     C19523   0.698  10.572   4.894 -0.0625 -0.3840 -0.3030
  142MOL0     C19524   0.634  10.413   4.177 -0.5340 -0.3644  0.4195
  142MOL0     C19525   0.608  10.324   4.071 -0.2307 -0.8769 -0.7765
  142MOL0     C19526   0.681  10.377   3.949  0.4806  1.2709 -0.6803
  142MOL0     H19527   0.650   9.932   3.816  0.7737 -0.7387  1.1998
  142MOL0     H19528   0.627   9.759   3.640  1.9985 -0.8817  2.9034
  142MOL0     H19529   0.451   9.461   3.712 -2.4045  1.0993 -0.2088
  142MOL0     H19530   0.580   9.526   3.611 -0.4570 -0.4713 -0.7049
  142MOL0     H19531   0.334   9.361   3.516 -0.4615  0.2178 -1.6454
  142MOL0     H19532   0.455   9.446   3.414 -0.8891 -1.6877 -0.9288
  142MOL0     H19533   0.495   9.204   3.428  1.5975 -2.0577  1.6436
  142MOL0     H19534   0.627   9.289   3.497 -0.4476  1.5661 -0.7745
  142MOL0     H19535   0.556   9.245   3.712 -1.8246  2.7657 -1.2448
  142MOL0     H19536   0.389   9.198   3.674 -0.4874  0.5563 -1.1114
  142MOL0     H19537   0.637   9.039   3.588  0.4511 -0.4026  2.3239
  142MOL0     H19538   0.475   9.009   3.542  0.1301  0.7217 -1.1317
  142MOL0     H19539   0.429   8.972   3.799 -0.2204  0.4671 -0.6619
  142MOL0     H19540   0.517   8.851   3.710 -1.8704  0.2217 -0.4293
  142MOL0     H19541   0.595   9.089   3.882  1.2606 -0.3449  1.5727
  142MOL0     H19542   0.728   9.003   3.805 -0.5447  3.2883  0.0191
  142MOL0     H19543   0.565   8.929   4.043 -2.0542  2.3193 -2.3502
  142MOL0     H19544   0.617   8.794   3.937  0.1447 -1.0818  2.1009
  142MOL0     H19545   0.741   9.086   4.161 -0.4293  0.2780  0.4570
  142MOL0     H19546   1.003   9.201   4.171 -0.2741  0.0945 -1.4799
  142MOL0     H19547   1.135   9.076   4.154  3.6353  3.4180  5.7515
  142MOL0     H19548   0.943   9.041   4.369  0.2832  0.3391 -0.7829
  142MOL0     H19549   1.113   8.976   4.352 -0.9043 -2.2136 -2.7616
  142MOL0     H19550   1.045   9.259   4.459 -2.1278 -1.8422 -0.7536
  142MOL0     H19551   1.119   9.119   4.520 -1.4683  2.5659  1.9080
  142MOL0     H19552   1.223   9.282   4.278  2.7442 -1.0992 -1.2495
  142MOL0     H19553   1.297   9.291   4.440  0.8470 -0.4710  1.1433
  142MOL0     H19554   1.441   9.323   4.249  2.3629  0.8547  0.9111
  142MOL0     H19555   1.691   9.414   4.111 -0.8157  0.9103 -0.3122
  142MOL0     H19556   1.521   9.464   4.087 -0.3330 -1.5963  1.5635
  142MOL0     H19557   1.612   9.431   3.951 -2.3928  1.9910 -0.4542
  142MOL0     H19558   1.881   9.166   3.702  0.4871  1.0144  0.2161
  142MOL0     H19559   1.956   9.193   3.460  0.5201 -2.1914  1.6965
  142MOL0     H19560   2.002   9.187   3.208 -0.1537  0.4785  1.4398
  142MOL0     H19561   1.931   9.308   3.099 -2.9201 -1.9529 -0.2078
  142MOL0     H19562   1.949   9.474   3.271  1.2702  1.4536  0.6231
  142MOL0     H19563   2.034   9.362   3.381 -0.9800  0.3104 -0.9306
  142MOL0     H19564   2.208   9.511   3.280 -2.8687  0.5287  0.5636
  142MOL0     H19565   2.157   9.464   3.115 -0.0354  0.0910 -0.2257
  142MOL0     H19566   2.212   9.225   3.142  2.3166  0.3976 -0.7271
  142MOL0     H19567   2.278   9.261   3.295  1.9236  1.2764 -0.1680
  142MOL0     H19568   2.465   9.263   3.154  1.9961  1.2857  1.7079
  142MOL0     H19569   2.385   9.390   3.061  2.8470 -0.9910 -0.2845
  142MOL0     H19570   2.554   9.388   3.296 -1.2868 -1.4974  1.0702
  142MOL0     H19571   2.409   9.492   3.324 -1.3690  0.7007 -0.1899
  142MOL0     H19572   2.434   9.602   3.120  2.0366  1.9155 -1.5916
  142MOL0     H19573   2.578   9.535   3.067 -0.9474 -0.0693 -0.1920
  142MOL0     H19574   2.682   9.606   3.298  0.3395 -3.3218 -2.8596
  142MOL0     H19575   2.550   9.729   3.297 -2.8891 -0.4513 -1.2189
  142MOL0     H19576   1.565   9.308   3.339  0.7400  0.0609 -1.6564
  142MOL0     H19577   1.482   9.260   3.580  0.9692 -1.8726  2.8019
  142MOL0     H19578   1.523   8.924   3.974 -1.3125 -0.9372  0.0002
  142MOL0     H19579   1.393   8.921   4.186 -0.9415  0.0564  0.7157
  142MOL0     H19580   0.224   9.687   3.736  0.4288 -2.9481 -0.9426
  142MOL0     H19581   0.258   9.856   3.942  1.0111 -1.6653  0.2107
  142MOL0     H19582   0.472  10.066   4.251  1.0917  0.0451 -1.2585
  142MOL0     H19583   0.547  10.200   4.430  0.8005  0.7358  0.2157
  142MOL0     H19584   0.623  10.503   4.618 -0.6286  0.6113 -0.2856
  142MOL0     H19585   0.533  10.369   4.578  1.5370 -3.5525  1.4358
  142MOL0     H19586   0.765  10.263   4.522 -1.5460 -1.6597  1.1517
  142MOL0     H19587   0.730  10.278   4.685  4.0210 -0.0280  0.5189
  142MOL0     H19588   0.968  10.368   4.586  0.4373  1.7168  0.3129
  142MOL0     H19589   0.857  10.509   4.564 -0.7240  0.0539  1.1681
  142MOL0     H19590   0.987  10.531   4.766 -0.7827  1.1527  2.9933
  142MOL0     H19591   0.928  10.367   4.821 -1.2717 -0.2912  1.1914
  142MOL0     H19592   0.601  10.609   4.921 -0.3454 -1.1909 -0.1971
  142MOL0     H19593   0.684  10.509   4.173 -0.1962 -0.4940  1.3215
  142MOL0     H19594   0.733  10.469   3.973  1.0731  0.0303  3.5473
  142MOL0     H19595   0.752  10.298   3.923 -0.4860  0.3237 -0.5098
  142MOL0     H19596   0.613  10.387   3.863  1.3911  3.2814 -1.2100
  143MOL0     O19597   5.765   0.976   8.511 -0.5830 -0.0575  0.2866
  143MOL0     C19598   5.656   0.966   8.570 -0.2275 -0.0710  1.2932
  143MOL0     O19599   5.592   1.078   8.635  0.5018 -0.4095 -0.0487
  143MOL0     C19600   5.666   1.187   8.630 -0.1293 -0.1341  0.4860
  143MOL0     C19601   5.672   1.255   8.505  0.0131  0.5123 -0.0617
  143MOL0     C19602   5.728   1.373   8.485  0.5124 -0.6877  1.0624
  143MOL0     C19603   5.801   1.434   8.587 -0.5021  0.5399 -0.1156
  143MOL0     O19604   5.846   1.563   8.587 -0.1472 -1.1409  0.6662
  143MOL0     C19605   5.888   1.622   8.458 -0.0116 -0.3224 -0.4682
  143MOL0     C19606   5.937   1.764   8.478  0.9387  0.0222 -0.0852
  143MOL0     C19607   6.001   1.820   8.354 -0.1737 -0.7407 -0.0104
  143MOL0     C19608   6.058   1.959   8.369 -0.5620 -0.1264  0.0320
  143MOL0     C19609   5.937   2.053   8.380  0.0675 -0.6621 -0.1571
  143MOL0     C19610   5.997   2.195   8.408 -0.1911  0.0122  0.2512
  143MOL0     C19611   5.887   2.294   8.447 -0.1450  0.6483 -0.5568
  143MOL0     C19612   5.956   2.426   8.489  0.2222  0.0344  0.4322
  143MOL0     N19613   5.859   2.515   8.544  0.1005  0.0984  0.3967
  143MOL0     C19614   5.787   2.609   8.470  0.9562  0.4622  0.0579
  143MOL0     C19615   5.696   2.666   8.555 -0.5394 -0.0525  0.0364
  143MOL0     C19616   5.589   2.767   8.523 -1.5670 -0.2668 -0.8560
  143MOL0     C19617   5.626   2.863   8.415  0.5241  0.2001  0.1158
  143MOL0     C19618   5.752   2.948   8.454  0.4435 -0.0322 -0.1534
  143MOL0     C19619   5.772   3.040   8.337  0.1229 -0.0884  0.7493
  143MOL0     O19620   5.785   2.970   8.217  0.8974 -0.8350  0.3591
  143MOL0     C19621   5.784   3.043   8.105 -1.3151  0.7261 -0.0051
  143MOL0     C19622   5.903   3.082   8.045  0.2696 -0.5271  0.7636
  143MOL0     C19623   5.911   3.139   7.917  0.6015 -1.2925 -0.5417
  143MOL0     C19624   6.046   3.159   7.850 -1.0681 -0.5997  0.7641
  143MOL0     C19625   5.780   3.175   7.862 -0.4990 -0.4630  0.3557
  143MOL0     C19626   5.766   3.261   7.741 -0.8877  0.9032  0.4937
  143MOL0     O19627   5.863   3.352   7.709 -0.1988  0.4183 -0.6306
  143MOL0     C19628   5.866   3.399   7.578 -1.4631  0.7018  0.4826
  143MOL0     C19629   5.768   3.477   7.513  0.0271  0.1743 -0.4520
  143MOL0     C19630   5.790   3.536   7.386 -0.4917  0.8518 -0.1118
  143MOL0     C19631   5.911   3.518   7.317 -0.1165 -0.0673  0.1675
  143MOL0     O19632   5.949   3.567   7.192  0.1005  1.1037  0.2771
  143MOL0     C19633   6.049   3.676   7.206  0.0097 -0.1118 -0.7092
  143MOL0     C19634   5.982   3.823   7.223 -0.4336  0.8996  0.2066
  143MOL0     C19635   5.865   3.873   7.125  0.0413  0.6055  0.5162
  143MOL0     C19636   5.732   3.796   7.136  0.5528  0.4875 -0.5752
  143MOL0     C19637   5.621   3.894   7.110  0.2014  0.2510  0.2118
  143MOL0     C19638   5.476   3.836   7.131 -0.6025 -0.2427  0.5205
  143MOL0     C19639   5.446   3.792   7.282 -0.5182 -0.1920 -0.8289
  143MOL0     C19640   5.295   3.775   7.323  0.0080  0.6318 -0.2312
  143MOL0    Cl19641   5.285   3.767   7.494  0.1996  0.1916 -0.2139
  143MOL0     C19642   6.007   3.451   7.386 -0.2073  0.8602  0.8898
  143MOL0     C19643   5.988   3.394   7.511  0.1448  0.7034 -0.6993
  143MOL0     O19644   5.664   3.242   7.669 -0.0666  0.0190 -0.3166
  143MOL0     C19645   5.659   3.143   7.929  0.1619  0.9704  0.7005
  143MOL0     C19646   5.664   3.071   8.045  0.3381 -0.8207  0.1076
  143MOL0     N19647   5.708   2.601   8.677  0.7954  0.0476 -0.2136
  143MOL0     N19648   5.808   2.519   8.663 -0.3393  0.0151 -0.2090
  143MOL0     C19649   5.804   1.368   8.712  0.1938 -0.2449  0.1169
  143MOL0     C19650   5.744   1.239   8.733  0.6916 -0.4504  0.5011
  143MOL0     C19651   5.608   0.828   8.596  0.2698  0.2007 -0.5339
  143MOL0     C19652   5.700   0.712   8.626 -0.6617 -0.3864  0.5663
  143MOL0     C19653   5.644   0.575   8.634  0.1912  0.5921 -1.0702
  143MOL0     C19654   5.498   0.574   8.639 -0.4287 -0.3477 -0.3597
  143MOL0     O19655   5.438   0.453   8.668 -0.0298  0.0444 -0.2723
  143MOL0     C19656   5.297   0.436   8.687 -0.1727 -0.4268  1.1483
  143MOL0     C19657   5.221   0.412   8.547  0.1578 -0.3979  0.5076
  143MOL0     C19658   5.277   0.298   8.463 -0.5558 -0.6431 -0.7540
  143MOL0     C19659   5.229   0.303   8.317 -0.3188 -0.1713  0.4363
  143MOL0     C19660   5.082   0.289   8.319  0.3341 -0.3310 -0.5281
  143MOL0     C19661   4.961   0.274   8.335  0.0998 -0.2972 -0.0035
  143MOL0     C19662   5.419   0.689   8.613 -0.3278  0.0853  0.0263
  143MOL0     C19663   5.473   0.808   8.590 -0.4151 -0.1283  1.2503
  143MOL0     C19664   5.377   0.909   8.530 -0.1291  0.5919 -0.8355
  143MOL0     H19665   5.623   1.212   8.419 -2.1973  1.4112  0.6463
  143MOL0     H19666   5.729   1.412   8.383 -0.1009 -1.4286  0.7594
  143MOL0     H19667   5.804   1.627   8.387 -1.7065  2.7020  1.5283
  143MOL0     H19668   5.965   1.562   8.409 -0.6886 -1.6092 -0.0205
  143MOL0     H19669   5.848   1.821   8.507  0.9810  0.3914 -0.6861
  143MOL0     H19670   6.016   1.761   8.554  1.1499 -0.6462 -0.3226
  143MOL0     H19671   6.087   1.758   8.327  0.7986 -0.6211  2.5107
  143MOL0     H19672   5.931   1.826   8.270  0.1019 -0.3866 -0.2186
  143MOL0     H19673   6.139   1.968   8.443  0.9707 -0.3207 -1.5534
  143MOL0     H19674   6.107   1.993   8.277 -1.1230  1.1013  0.1593
  143MOL0     H19675   5.872   2.031   8.465  0.6816  2.6083  1.3365
  143MOL0     H19676   5.877   2.041   8.289  0.2643 -0.1744 -0.3582
  143MOL0     H19677   6.084   2.207   8.473  0.6636  2.8280 -1.2584
  143MOL0     H19678   6.038   2.216   8.309 -0.9694 -1.7443 -0.4769
  143MOL0     H19679   5.819   2.261   8.527 -0.4408  3.2690  0.3716
  143MOL0     H19680   5.822   2.314   8.361 -0.1998  0.4004 -0.5731
  143MOL0     H19681   6.028   2.409   8.570  1.7102 -1.4329 -1.1299
  143MOL0     H19682   6.015   2.453   8.402  0.4963  1.1888  0.9617
  143MOL0     H19683   5.813   2.641   8.370 -1.7649 -2.0048 -1.6012
  143MOL0     H19684   5.578   2.824   8.616  0.1348 -1.6809  0.2862
  143MOL0     H19685   5.488   2.729   8.506 -2.3030  0.3905  1.5894
  143MOL0     H19686   5.638   2.815   8.317  3.2018  1.9748 -0.5453
  143MOL0     H19687   5.539   2.927   8.407 -0.4400 -0.5371  3.2453
  143MOL0     H19688   5.738   3.008   8.544 -3.1800  0.5552 -0.9438
  143MOL0     H19689   5.847   2.892   8.457  0.8902  0.6764 -0.7541
  143MOL0     H19690   5.690   3.112   8.335 -0.3261 -0.5184 -2.3478
  143MOL0     H19691   5.861   3.103   8.347  0.8934 -0.7458 -1.4567
  143MOL0     H19692   5.987   3.027   8.086  0.1636 -1.0488  0.2999
  143MOL0     H19693   6.131   3.108   7.897 -1.3009 -1.4727  0.2663
  143MOL0     H19694   6.074   3.264   7.858 -1.6375 -0.3020 -0.8128
  143MOL0     H19695   6.053   3.139   7.743 -1.8706  1.2781  0.3177
  143MOL0     H19696   5.679   3.509   7.567  1.3245 -0.1310  2.0048
  143MOL0     H19697   5.713   3.597   7.340  2.4782  5.5284  0.3751
  143MOL0     H19698   6.118   3.671   7.291 -0.5638 -1.2481 -0.2954
  143MOL0     H19699   6.108   3.676   7.114  0.1240  0.5968 -0.6444
  143MOL0     H19700   5.947   3.817   7.326  0.5483 -0.9012  0.4717
  143MOL0     H19701   6.069   3.888   7.205  1.1366 -0.8918  0.9477
  143MOL0     H19702   5.907   3.883   7.024 -0.3459  3.7717  0.5608
  143MOL0     H19703   5.850   3.978   7.152 -1.5809 -0.0968  2.6607
  143MOL0     H19704   5.709   3.764   7.238 -0.3870 -1.5822 -1.3656
  143MOL0     H19705   5.723   3.712   7.067  0.6611 -1.5941  1.7940
  143MOL0     H19706   5.631   3.978   7.178 -0.1015  0.7498 -0.3514
  143MOL0     H19707   5.620   3.926   7.005  1.8137 -2.8798 -0.8973
  143MOL0     H19708   5.448   3.756   7.062  1.2476 -1.6217  1.2898
  143MOL0     H19709   5.406   3.920   7.123 -1.8563 -1.1918  1.1936
  143MOL0     H19710   5.500   3.854   7.355  0.0690 -3.3159  1.6219
  143MOL0     H19711   5.493   3.694   7.272  0.3765  0.3917 -2.8044
  143MOL0     H19712   5.270   3.676   7.284 -1.3093  1.8402 -2.7257
  143MOL0     H19713   5.230   3.848   7.274  1.2449  2.4661  0.7389
  143MOL0     H19714   6.110   3.455   7.351  0.5170  0.7633  2.8765
  143MOL0     H19715   6.071   3.360   7.572 -0.6989  0.5468  0.4009
  143MOL0     H19716   5.566   3.176   7.885 -1.3664 -1.5414  1.8520
  143MOL0     H19717   5.574   3.036   8.094 -0.9484  1.5201 -0.4571
  143MOL0     H19718   5.855   1.408   8.799  0.6116 -2.6518  1.0678
  143MOL0     H19719   5.747   1.187   8.828  0.8685 -3.3086 -0.9489
  143MOL0     H19720   5.808   0.706   8.619 -0.6841  0.7182 -3.2318
  143MOL0     H19721   5.695   0.479   8.642  1.7277  1.4885  0.5845
  143MOL0     H19722   5.291   0.346   8.749 -0.0199 -1.0434  0.2712
  143MOL0     H19723   5.255   0.524   8.738  2.7520  2.6629 -1.3369
  143MOL0     H19724   5.221   0.507   8.493 -4.4269  0.7603  2.1335
  143MOL0     H19725   5.116   0.390   8.569  0.0946 -1.5230 -0.7345
  143MOL0     H19726   5.386   0.291   8.469 -0.5032 -0.0799 -0.9789
  143MOL0     H19727   5.248   0.206   8.513  1.0970 -0.6099  0.3430
  143MOL0     H19728   5.282   0.231   8.254 -1.0524  2.8524 -4.0955
  143MOL0     H19729   5.259   0.400   8.278  2.5380 -2.5477 -4.0787
  143MOL0     H19730   4.859   0.257   8.361 -0.2093  1.5815  0.1153
  143MOL0     H19731   5.311   0.686   8.618 -0.3317  1.5017  1.5143
  143MOL0     H19732   5.365   0.988   8.605 -0.4747 -0.9448  0.8287
  143MOL0     H19733   5.422   0.958   8.443 -0.5326  1.5106 -0.5406
  143MOL0     H19734   5.278   0.871   8.505 -1.9799  1.3775  4.0614
  144MOL0     O19735   5.356   0.806   3.085 -1.0916  0.1969 -0.2551
  144MOL0     C19736   5.339   0.864   2.982 -0.4512  0.4888 -0.5472
  144MOL0     O19737   5.320   1.005   2.982 -0.8674  0.3118 -1.5219
  144MOL0     C19738   5.255   1.081   2.897 -0.2929  0.2395  0.3283
  144MOL0     C19739   5.122   1.053   2.873  0.4151  0.8385 -0.5385
  144MOL0     C19740   5.040   1.140   2.807 -0.3038  0.6611  0.1991
  144MOL0     C19741   5.100   1.244   2.734  0.1020 -0.0125 -0.0343
  144MOL0     O19742   5.030   1.338   2.669 -0.4706  0.4281 -0.2239
  144MOL0     C19743   4.891   1.319   2.654 -0.1012  0.4601  0.1060
  144MOL0     C19744   4.834   1.406   2.546 -0.9060 -0.8196  0.5729
  144MOL0     C19745   4.682   1.394   2.530 -0.8765 -0.0046  0.8233
  144MOL0     C19746   4.633   1.534   2.470  0.0577 -0.5982 -0.2278
  144MOL0     C19747   4.495   1.571   2.523  0.9123 -0.3334 -0.3710
  144MOL0     C19748   4.384   1.457   2.513 -0.4533 -0.0698 -0.0545
  144MOL0     C19749   4.349   1.425   2.369  0.3318  0.6106  0.2110
  144MOL0     C19750   4.220   1.339   2.367 -0.6686 -0.6648  0.0520
  144MOL0     N19751   4.179   1.323   2.227  0.5027  0.0190 -0.2763
  144MOL0     C19752   4.141   1.424   2.132 -0.4282  0.2068 -0.3003
  144MOL0     C19753   4.120   1.346   2.026  0.5793  0.1672  0.1217
  144MOL0     C19754   4.059   1.395   1.903  0.5608  0.3202 -0.4805
  144MOL0     C19755   4.167   1.417   1.790  0.6381  0.4310 -0.8990
  144MOL0     C19756   4.097   1.471   1.659  0.3937  0.6495  0.1204
  144MOL0     C19757   3.965   1.402   1.619  1.0890 -0.5191 -0.5878
  144MOL0     O19758   3.939   1.462   1.494 -0.1328 -0.3039  0.4109
  144MOL0     C19759   3.815   1.445   1.440  0.3904  0.6636 -0.8120
  144MOL0     C19760   3.742   1.560   1.417 -0.2261 -0.1652  1.0526
  144MOL0     C19761   3.600   1.560   1.381 -0.3251 -0.7099 -0.2032
  144MOL0     C19762   3.526   1.682   1.340 -0.1826  0.1305 -0.6978
  144MOL0     C19763   3.541   1.435   1.383 -0.1288  0.2965  0.5322
  144MOL0     C19764   3.398   1.417   1.364 -0.3930  0.2976  0.5419
  144MOL0     O19765   3.366   1.307   1.283  0.6195 -0.6320  0.5016
  144MOL0     C19766   3.234   1.280   1.250 -0.4894 -0.6477  0.0122
  144MOL0     C19767   3.193   1.243   1.123  0.2933 -0.6682 -0.2379
  144MOL0     C19768   3.057   1.218   1.091  0.3783 -0.5154 -0.1592
  144MOL0     C19769   2.948   1.226   1.184  1.2308  1.2528  0.1535
  144MOL0     O19770   2.819   1.198   1.129 -0.3004  0.6355 -0.6408
  144MOL0     C19771   2.712   1.239   1.206  0.4228  0.3367 -0.7021
  144MOL0     C19772   2.584   1.202   1.145 -0.5619 -0.0742  0.1589
  144MOL0     C19773   2.585   1.269   1.003  0.0807  0.7061 -1.2285
  144MOL0     C19774   2.442   1.300   0.937 -0.6793 -0.6253 -0.4438
  144MOL0     C19775   2.470   1.328   0.786 -0.7454 -0.5748 -0.0906
  144MOL0     C19776   2.344   1.332   0.701  0.0418  1.1387  0.9907
  144MOL0     C19777   2.243   1.448   0.739 -0.1407 -0.1971  1.0706
  144MOL0     C19778   2.097   1.417   0.736 -0.4684  0.5055  0.8158
  144MOL0    Cl19779   2.033   1.389   0.578 -0.0970 -0.2685  0.0726
  144MOL0     C19780   2.990   1.248   1.321  0.5034 -0.3412  0.5422
  144MOL0     C19781   3.130   1.273   1.351  0.0019  0.6837  0.0937
  144MOL0     O19782   3.315   1.480   1.430  0.0530 -0.2613  0.7510
  144MOL0     C19783   3.623   1.316   1.402  0.3023  0.0502  0.7474
  144MOL0     C19784   3.762   1.320   1.416  0.5258  0.6112 -0.5982
  144MOL0     N19785   4.169   1.220   2.047  0.4371 -0.1593  0.6442
  144MOL0     N19786   4.209   1.207   2.166 -0.5791 -0.2689  0.5889
  144MOL0     C19787   5.232   1.278   2.762 -0.3749  0.1995 -0.0033
  144MOL0     C19788   5.314   1.186   2.840 -0.0177 -0.5845  0.9451
  144MOL0     C19789   5.357   0.798   2.856  0.1441  0.2490  0.4816
  144MOL0     C19790   5.438   0.858   2.751  0.2933 -0.3342  0.3388
  144MOL0     C19791   5.457   0.790   2.632 -0.1349  0.5839  0.2781
  144MOL0     C19792   5.396   0.667   2.608  0.2513 -0.6052  0.3513
  144MOL0     O19793   5.433   0.615   2.484 -0.5669  0.3303 -0.1150
  144MOL0     C19794   5.467   0.478   2.482  0.3660  0.1616 -0.2191
  144MOL0     C19795   5.368   0.392   2.402 -0.5843  0.1105  0.3340
  144MOL0     C19796   5.396   0.406   2.261  0.5239  0.7019  0.2116
  144MOL0     C19797   5.349   0.287   2.168  0.4443 -1.2729  0.3061
  144MOL0     C19798   5.202   0.276   2.161  0.7909  0.7141  0.0153
  144MOL0     C19799   5.078   0.262   2.152 -0.3271 -0.0906 -0.0588
  144MOL0     C19800   5.295   0.616   2.696 -0.3499 -0.4903  0.6593
  144MOL0     C19801   5.287   0.680   2.826  0.6979  0.0843  0.2560
  144MOL0     C19802   5.205   0.598   2.933  0.4787  0.3172  0.1552
  144MOL0     H19803   5.082   0.961   2.915  2.9212  0.2439  0.6943
  144MOL0     H19804   4.935   1.116   2.801 -0.3989  1.3776 -3.5707
  144MOL0     H19805   4.831   1.341   2.743 -0.4251  1.1801 -0.2783
  144MOL0     H19806   4.881   1.216   2.620  3.1563  0.3650 -0.8418
  144MOL0     H19807   4.873   1.503   2.577  1.4708 -1.5696  0.0846
  144MOL0     H19808   4.880   1.377   2.452 -0.9554  0.3349  0.1670
  144MOL0     H19809   4.648   1.315   2.463  1.6901  1.1611 -2.0619
  144MOL0     H19810   4.657   1.376   2.635 -0.4735 -0.1341  0.8960
  144MOL0     H19811   4.710   1.610   2.486 -0.7963  0.9686 -2.8590
  144MOL0     H19812   4.631   1.520   2.362  0.2794  0.2241 -0.3452
  144MOL0     H19813   4.455   1.665   2.485  0.8261 -0.9255 -1.8141
  144MOL0     H19814   4.500   1.590   2.631 -1.4975  0.7109 -0.3773
  144MOL0     H19815   4.413   1.366   2.567 -0.2791 -0.2115 -0.3828
  144MOL0     H19816   4.295   1.488   2.569 -1.9343 -0.3560 -2.1494
  144MOL0     H19817   4.436   1.373   2.327 -0.7681  0.0581 -1.4930
  144MOL0     H19818   4.330   1.511   2.305  0.1195  0.4218  0.0150
  144MOL0     H19819   4.246   1.246   2.420  0.4783  0.9027  2.4261
  144MOL0     H19820   4.138   1.380   2.426 -1.8386  1.3876 -2.7902
  144MOL0     H19821   4.117   1.529   2.148 -3.1662  0.2017 -3.1569
  144MOL0     H19822   3.997   1.482   1.927 -1.9937 -1.2569 -0.8958
  144MOL0     H19823   3.992   1.323   1.856  0.7887  0.3034 -0.7778
  144MOL0     H19824   4.236   1.488   1.837  0.0812  0.9574 -0.8661
  144MOL0     H19825   4.214   1.320   1.768 -0.2980 -1.4594  4.0073
  144MOL0     H19826   4.067   1.573   1.683 -3.6515 -0.0753 -1.1768
  144MOL0     H19827   4.177   1.484   1.585  1.2714 -3.1461  0.2028
  144MOL0     H19828   3.976   1.293   1.616 -2.2829 -1.0717  1.5752
  144MOL0     H19829   3.883   1.417   1.690  0.4764 -2.1677 -0.9051
  144MOL0     H19830   3.797   1.650   1.438  0.9543 -1.3084  3.1799
  144MOL0     H19831   3.593   1.767   1.330 -2.7500  2.0462 -3.2928
  144MOL0     H19832   3.449   1.698   1.417  0.3082 -1.8972  0.2770
  144MOL0     H19833   3.474   1.661   1.246 -0.4589 -0.8160 -0.3535
  144MOL0     H19834   3.277   1.247   1.055 -1.3811 -0.7495 -2.4236
  144MOL0     H19835   3.026   1.201   0.989  1.3363 -0.9029 -0.3999
  144MOL0     H19836   2.729   1.199   1.306  0.9465 -2.5663 -1.8618
  144MOL0     H19837   2.726   1.347   1.214 -0.7116  0.4265  0.2277
  144MOL0     H19838   2.581   1.093   1.141  2.1752 -0.1813 -1.4815
  144MOL0     H19839   2.507   1.238   1.214  0.8743  2.5427  0.5362
  144MOL0     H19840   2.641   1.201   0.938 -1.4351  1.4143 -3.4063
  144MOL0     H19841   2.635   1.365   1.017  0.7612  0.0145  1.6125
  144MOL0     H19842   2.411   1.390   0.990  2.8179  0.1417  0.5020
  144MOL0     H19843   2.358   1.231   0.956 -0.7109 -0.7758 -1.1219
  144MOL0     H19844   2.537   1.414   0.787 -0.0471 -0.8999  4.3251
  144MOL0     H19845   2.533   1.249   0.742 -2.6958 -1.4070 -1.5091
  144MOL0     H19846   2.296   1.234   0.706  1.7069  0.0383 -2.0153
  144MOL0     H19847   2.370   1.357   0.598 -0.1289  1.1213  0.9437
  144MOL0     H19848   2.260   1.532   0.672 -1.5259  0.1591  1.1553
  144MOL0     H19849   2.281   1.485   0.835  0.8463  1.6139  0.0206
  144MOL0     H19850   2.044   1.496   0.791 -2.4204 -1.1521  1.4588
  144MOL0     H19851   2.071   1.328   0.793 -1.4611  0.8532  0.9280
  144MOL0     H19852   2.912   1.251   1.396 -0.9738  2.6537 -0.9221
  144MOL0     H19853   3.160   1.298   1.452  2.5181 -1.6160  0.0496
  144MOL0     H19854   3.572   1.226   1.368 -0.2865  1.4026 -2.2134
  144MOL0     H19855   3.816   1.227   1.424 -1.2516 -0.3077  1.3850
  144MOL0     H19856   5.272   1.372   2.725  0.3204  0.0650  0.3989
  144MOL0     H19857   5.421   1.202   2.843  0.2786 -0.3497 -3.7763
  144MOL0     H19858   5.482   0.956   2.766 -0.6100  0.0065  0.8576
  144MOL0     H19859   5.529   0.827   2.560 -0.6000  3.1714  1.0195
  144MOL0     H19860   5.574   0.469   2.461  0.2420  0.1453 -0.8604
  144MOL0     H19861   5.460   0.437   2.583  0.7290 -0.1707 -0.3271
  144MOL0     H19862   5.268   0.424   2.433 -0.4378 -0.4103  1.4108
  144MOL0     H19863   5.390   0.289   2.433  1.4265  0.4599  0.2203
  144MOL0     H19864   5.330   0.489   2.235 -2.1228  0.5412  5.1276
  144MOL0     H19865   5.499   0.432   2.236  0.4558  2.3194  1.3974
  144MOL0     H19866   5.394   0.193   2.200  2.1724 -0.9585 -1.0405
  144MOL0     H19867   5.376   0.312   2.065  0.3713  0.0738  0.5936
  144MOL0     H19868   4.971   0.264   2.149 -0.4030 -0.1515  1.5393
  144MOL0     H19869   5.230   0.534   2.669  0.1886 -1.1413  1.2852
  144MOL0     H19870   5.164   0.666   3.008 -2.3087 -2.5234  1.4824
  144MOL0     H19871   5.116   0.555   2.886  0.3980 -0.3519  0.8906
  144MOL0     H19872   5.266   0.514   2.967 -1.0740 -1.0611 -0.3233
  145MOL0     O19873   1.937   0.435   1.079 -0.0410 -0.2171  0.1139
  145MOL0     C19874   1.985   0.470   0.963  0.3822  0.1255 -0.4732
  145MOL0     O19875   2.116   0.460   0.936  0.0559 -0.0298  0.7179
  145MOL0     C19876   2.193   0.362   0.996 -0.5531 -1.1062 -0.0417
  145MOL0     C19877   2.148   0.227   1.002  0.2904 -0.8907  0.0192
  145MOL0     C19878   2.228   0.130   1.066 -0.4025 -0.4596 -0.2093
  145MOL0     C19879   2.358   0.161   1.121  0.0023  1.0611  0.3369
  145MOL0     O19880   2.434   0.068   1.189 -0.0565 -0.3670  1.3782
  145MOL0     C19881   2.565   0.095   1.202  0.8267 -0.3840 -1.1781
  145MOL0     C19882   2.633  -0.008   1.288  0.2397 -0.3678 -0.0267
  145MOL0     C19883   2.623   0.029   1.438  0.2032 -0.7325  0.1362
  145MOL0     C19884   2.708  -0.067   1.526  0.8497  0.6983 -0.5442
  145MOL0     C19885   2.687  -0.033   1.677  0.0071 -1.7145 -0.4708
  145MOL0     C19886   2.772  -0.127   1.765  0.2688 -0.6585  0.2642
  145MOL0     C19887   2.705  -0.181   1.896  0.0452 -0.9982  1.5088
  145MOL0     C19888   2.604  -0.286   1.856 -0.0047 -0.1596  1.4056
  145MOL0     N19889   2.644  -0.429   1.876 -0.0345  0.3262  0.5849
  145MOL0     C19890   2.546  -0.527   1.898 -0.0541  0.1894 -0.1460
  145MOL0     C19891   2.609  -0.622   1.971 -0.7069  0.9624  0.3328
  145MOL0     C19892   2.539  -0.733   2.042 -0.9922  0.1337  1.0839
  145MOL0     C19893   2.628  -0.798   2.147  0.0323 -0.0359  0.5218
  145MOL0     C19894   2.543  -0.857   2.253 -0.5997 -0.1015  0.5479
  145MOL0     C19895   2.638  -0.886   2.371  1.0224  0.1445 -0.3061
  145MOL0     O19896   2.569  -0.959   2.469 -0.2484  0.3351 -0.0449
  145MOL0     C19897   2.642  -0.992   2.571  0.2965  0.6673 -0.3089
  145MOL0     C19898   2.618  -0.946   2.693 -1.2582  0.6675 -0.2358
  145MOL0     C19899   2.681  -1.006   2.800  0.1764  0.4522 -0.3261
  145MOL0     C19900   2.627  -0.981   2.946 -0.4047 -0.1225  1.0587
  145MOL0     C19901   2.790  -1.092   2.779 -0.6842  0.2206 -0.3184
  145MOL0     C19902   2.860  -1.170   2.886 -0.3943  0.8116 -0.9921
  145MOL0     O19903   2.930  -1.285   2.855 -0.4615 -0.1441  0.2439
  145MOL0     C19904   2.966  -1.362   2.966  0.1366 -0.4008  0.2795
  145MOL0     C19905   2.906  -1.486   3.001 -0.4298  0.2972 -0.5488
  145MOL0     C19906   2.938  -1.556   3.112  0.0881 -0.7158 -0.4706
  145MOL0     C19907   3.053  -1.517   3.193  0.1978  0.5622 -0.2748
  145MOL0     O19908   3.075  -1.578   3.304 -0.0216  0.0230 -0.2189
  145MOL0     C19909   3.035  -1.497   3.414 -0.0935  0.1122 -0.1342
  145MOL0     C19910   3.159  -1.489   3.514 -0.3357 -0.0675  0.7201
  145MOL0     C19911   3.201  -1.622   3.574  0.3326 -0.2077 -0.1973
  145MOL0     C19912   3.255  -1.607   3.717  0.3075 -0.4995  0.6467
  145MOL0     C19913   3.274  -1.741   3.784  0.0318 -0.0265 -0.1821
  145MOL0     C19914   3.264  -1.726   3.932 -0.6925 -0.5167  0.0658
  145MOL0     C19915   3.334  -1.827   4.017 -0.7558  0.4059 -0.5314
  145MOL0     C19916   3.370  -1.795   4.164  0.7013  0.3340  0.3172
  145MOL0    Cl19917   3.216  -1.840   4.257 -0.2524  0.0033  0.1447
  145MOL0     C19918   3.117  -1.394   3.157  0.4488  0.3947 -0.5947
  145MOL0     C19919   3.068  -1.320   3.051  0.6028 -0.5174 -0.6655
  145MOL0     O19920   2.867  -1.118   2.995 -0.1688  0.6222 -0.2532
  145MOL0     C19921   2.822  -1.130   2.652 -0.1827 -0.4578  0.3186
  145MOL0     C19922   2.738  -1.090   2.552  0.1743  2.0866  0.1170
  145MOL0     N19923   2.735  -0.573   2.003 -0.1706  0.2611  0.5821
  145MOL0     N19924   2.757  -0.472   1.931  0.5246 -0.0546  0.0584
  145MOL0     C19925   2.393   0.298   1.115 -0.0488  0.3516  0.3740
  145MOL0     C19926   2.319   0.388   1.043 -0.1153 -0.8696  0.0861
  145MOL0     C19927   1.897   0.495   0.858  1.3407  0.6184 -0.4151
  145MOL0     C19928   1.889   0.412   0.746  1.0687  0.3602 -0.6359
  145MOL0     C19929   1.799   0.438   0.648  0.5339  0.4469  0.2481
  145MOL0     C19930   1.720   0.550   0.648  0.2071 -0.2899  0.4550
  145MOL0     O19931   1.621   0.566   0.554 -0.5521 -0.2078 -0.2879
  145MOL0     C19932   1.589   0.470   0.457  0.2244  0.5840  0.3856
  145MOL0     C19933   1.518   0.547   0.343  0.2186 -0.6070 -0.9153
  145MOL0     C19934   1.604   0.634   0.253 -0.6982  0.9858  0.2836
  145MOL0     C19935   1.516   0.724   0.162 -0.8192 -0.3479  0.1064
  145MOL0     C19936   1.586   0.828   0.083 -0.2965 -0.7789 -0.0812
  145MOL0     C19937   1.647   0.928   0.048  0.3619  0.0227  0.2908
  145MOL0     C19938   1.720   0.632   0.760 -0.1225 -0.2960 -0.8141
  145MOL0     C19939   1.802   0.604   0.870  0.7059 -0.0630  0.0188
  145MOL0     C19940   1.792   0.702   0.977  0.2240  0.2094 -0.1104
  145MOL0     H19941   2.050   0.190   0.973 -0.5679  2.4945 -1.8471
  145MOL0     H19942   2.188   0.030   1.077 -0.6276 -0.5093 -1.3707
  145MOL0     H19943   2.564   0.185   1.265 -2.8184 -1.4176  0.5483
  145MOL0     H19944   2.620   0.107   1.108  1.7593  0.2363 -0.5751
  145MOL0     H19945   2.593  -0.110   1.277 -0.7873 -0.2158  1.8461
  145MOL0     H19946   2.740  -0.015   1.269  0.6103  0.5228  1.5364
  145MOL0     H19947   2.648   0.135   1.450 -0.3918 -0.6590  0.7436
  145MOL0     H19948   2.519   0.021   1.470  0.4287 -0.6011  0.9333
  145MOL0     H19949   2.659  -0.164   1.516  1.6181  0.2388  0.0726
  145MOL0     H19950   2.813  -0.077   1.499  0.9500 -0.0281  0.0997
  145MOL0     H19951   2.580  -0.030   1.698  0.2301 -0.7270  0.6444
  145MOL0     H19952   2.709   0.073   1.696 -1.6450 -1.2643 -0.8320
  145MOL0     H19953   2.789  -0.214   1.700 -0.6861 -0.7138  0.0708
  145MOL0     H19954   2.868  -0.081   1.791  2.0215 -4.2191  0.8026
  145MOL0     H19955   2.656  -0.090   1.933  1.6728  0.8362 -0.5451
  145MOL0     H19956   2.774  -0.203   1.979 -0.5213 -1.3287  1.8933
  145MOL0     H19957   2.526  -0.277   1.932 -1.3522  0.1532  0.0375
  145MOL0     H19958   2.549  -0.282   1.761 -1.3046 -0.7840  2.1031
  145MOL0     H19959   2.438  -0.517   1.897 -0.2164 -1.1444 -2.6715
  145MOL0     H19960   2.509  -0.806   1.966  2.3313 -2.0095  1.6112
  145MOL0     H19961   2.471  -0.672   2.101  1.1704  0.8397  2.9872
  145MOL0     H19962   2.693  -0.876   2.106  0.9265  1.5730 -1.2826
  145MOL0     H19963   2.686  -0.721   2.200 -0.5513 -0.2394  1.4735
  145MOL0     H19964   2.465  -0.790   2.289 -1.7810 -0.3559 -1.3612
  145MOL0     H19965   2.490  -0.947   2.219 -1.6913  0.3721  0.9412
  145MOL0     H19966   2.730  -0.931   2.333  1.0799  2.9027 -4.0594
  145MOL0     H19967   2.668  -0.793   2.420  1.5105 -0.7306  1.1114
  145MOL0     H19968   2.540  -0.872   2.709  0.1706  2.9726 -2.9761
  145MOL0     H19969   2.594  -1.083   2.970  0.3918 -0.4633  0.7304
  145MOL0     H19970   2.537  -0.919   2.948 -1.3377 -1.2750 -1.6080
  145MOL0     H19971   2.696  -0.932   3.016  0.3420 -1.9095  1.6257
  145MOL0     H19972   2.827  -1.520   2.936  0.2560 -1.6441 -0.4353
  145MOL0     H19973   2.878  -1.641   3.144 -1.8537  1.1932  1.2445
  145MOL0     H19974   3.009  -1.393   3.394 -0.0420  0.5415  1.8755
  145MOL0     H19975   2.952  -1.541   3.470  0.5035 -0.1168  0.5885
  145MOL0     H19976   3.238  -1.449   3.449 -0.4821 -1.1601 -0.1607
  145MOL0     H19977   3.134  -1.423   3.598  0.2376 -2.0696  2.5579
  145MOL0     H19978   3.267  -1.679   3.508  0.0048 -0.2816 -0.4601
  145MOL0     H19979   3.115  -1.688   3.585 -0.4335  0.0434 -3.5596
  145MOL0     H19980   3.187  -1.546   3.777  0.0413  0.1496 -0.2979
  145MOL0     H19981   3.345  -1.546   3.725  0.6980 -1.2761  3.3804
  145MOL0     H19982   3.186  -1.802   3.760  1.7267 -2.5475 -0.3289
  145MOL0     H19983   3.355  -1.800   3.740  0.4666  0.5076 -0.1052
  145MOL0     H19984   3.157  -1.719   3.953 -1.5682 -3.8020 -2.3421
  145MOL0     H19985   3.317  -1.637   3.965 -0.5996 -1.3424  2.3251
  145MOL0     H19986   3.431  -1.838   3.967 -0.0855  0.9608  0.6027
  145MOL0     H19987   3.285  -1.924   4.011 -1.1007  0.6498 -2.2805
  145MOL0     H19988   3.387  -1.687   4.170  0.8931  0.3214  0.0194
  145MOL0     H19989   3.457  -1.852   4.197  2.4475  2.6696  0.0229
  145MOL0     H19990   3.214  -1.373   3.201  0.0995 -0.0731  0.4202
  145MOL0     H19991   3.110  -1.221   3.040 -0.0525  0.2631  2.7789
  145MOL0     H19992   2.906  -1.194   2.628 -1.1481 -1.7387  0.2556
  145MOL0     H19993   2.752  -1.122   2.449 -0.6965 -2.4239  1.2048
  145MOL0     H19994   2.481   0.337   1.165 -0.2067  0.1104  0.8355
  145MOL0     H19995   2.351   0.491   1.027  3.9645 -1.9926 -0.0490
  145MOL0     H19996   1.960   0.330   0.743 -0.4187 -0.9409 -2.1158
  145MOL0     H19997   1.803   0.368   0.565 -1.8627  1.1677 -0.5434
  145MOL0     H19998   1.673   0.421   0.407 -0.9168  1.2503 -2.4083
  145MOL0     H19999   1.516   0.400   0.496 -0.5482  0.7744 -0.6670
  145MOL0     H20000   1.455   0.619   0.395 -1.8493 -2.0084 -1.3702
  145MOL0     H20001   1.458   0.473   0.289  0.9819 -1.0571 -1.1735
  145MOL0     H20002   1.666   0.702   0.312 -0.4480  3.2551 -2.3899
  145MOL0     H20003   1.669   0.578   0.185 -3.0468  0.1735 -1.4670
  145MOL0     H20004   1.439   0.776   0.220 -2.0619 -0.9619 -0.9199
  145MOL0     H20005   1.482   0.656   0.084 -1.0560  0.4146 -0.4772
  145MOL0     H20006   1.688   1.022   0.014 -1.1647  0.4221 -0.5627
  145MOL0     H20007   1.642   0.705   0.775 -0.2225 -0.6801  0.7294
  145MOL0     H20008   1.714   0.774   0.951 -0.7397 -1.4765 -2.1987
  145MOL0     H20009   1.757   0.644   1.063  1.0746  1.9536  1.4697
  145MOL0     H20010   1.889   0.748   0.997 -0.9393  1.6654  2.6875
  146MOL0     O20011   7.720   6.780  10.373  0.6468  0.5082 -0.4522
  146MOL0     C20012   7.650   6.748  10.278  0.1340  0.1639  0.0469
  146MOL0     O20013   7.696   6.671  10.173  0.5429 -0.5566  0.2844
  146MOL0     C20014   7.824   6.638  10.174  0.0087 -0.4199 -0.4291
  146MOL0     C20015   7.860   6.553  10.273 -0.2682  0.5985 -0.3268
  146MOL0     C20016   7.994   6.494  10.254  0.0801 -0.2685 -0.3641
  146MOL0     C20017   8.085   6.542  10.164  0.3459 -0.1175  0.4341
  146MOL0     O20018   8.209   6.483  10.153  0.3321 -0.2864  0.3152
  146MOL0     C20019   8.325   6.559  10.107  0.3054  0.1629 -0.0503
  146MOL0     C20020   8.373   6.508   9.968 -0.1911  0.2673 -1.4077
  146MOL0     C20021   8.454   6.615   9.905 -0.2126  0.3725  1.3870
  146MOL0     C20022   8.527   6.571   9.779  0.5288 -0.3830 -0.2563
  146MOL0     C20023   8.596   6.687   9.702  0.4253  1.0030 -1.4287
  146MOL0     C20024   8.675   6.658   9.590 -1.6206  0.8824 -0.2028
  146MOL0     C20025   8.750   6.788   9.524 -0.5018 -0.1408  0.5796
  146MOL0     C20026   8.862   6.849   9.620 -0.0570  0.3833 -0.6042
  146MOL0     N20027   8.911   6.982   9.571  0.0321 -0.4191 -0.7225
  146MOL0     C20028   8.969   7.006   9.452  1.5142 -0.1540  1.1517
  146MOL0     C20029   8.975   7.142   9.438  0.0448  0.1388 -0.6172
  146MOL0     C20030   9.032   7.211   9.322 -0.6151 -1.1257  0.5058
  146MOL0     C20031   8.926   7.261   9.215  0.0918 -0.0878 -0.2146
  146MOL0     C20032   8.979   7.359   9.117 -0.3448 -0.2049  0.0236
  146MOL0     C20033   9.103   7.323   9.049  0.9472  0.2756 -0.3182
  146MOL0     O20034   9.205   7.346   9.145  0.2692  0.7150 -0.8594
  146MOL0     C20035   9.328   7.280   9.132  0.1092  0.5556  0.3043
  146MOL0     C20036   9.414   7.323   9.232 -0.0869  0.5180 -0.6688
  146MOL0     C20037   9.544   7.263   9.254 -0.2943  0.8847 -1.7310
  146MOL0     C20038   9.625   7.319   9.367  0.2703 -0.9797  0.5344
  146MOL0     C20039   9.590   7.158   9.162  0.1043 -0.7175 -0.1615
  146MOL0     C20040   9.709   7.072   9.181 -1.1041 -0.0175 -0.2053
  146MOL0     O20041   9.731   6.984   9.081  1.1334 -0.1523  0.2128
  146MOL0     C20042   9.863   6.944   9.075 -0.8232 -1.3051  0.1719
  146MOL0     C20043   9.897   6.818   9.132 -0.3236 -0.1141 -0.8430
  146MOL0     C20044  10.033   6.790   9.137 -0.4579 -0.0323 -0.5227
  146MOL0     C20045  10.131   6.864   9.072  1.8032 -0.2868  0.0519
  146MOL0     O20046  10.260   6.824   9.087 -0.3456 -0.2076  0.3432
  146MOL0     C20047  10.338   6.803   8.970 -0.3127 -0.3109 -0.1464
  146MOL0     C20048  10.323   6.662   8.911 -0.6887  0.6689 -0.4732
  146MOL0     C20049  10.392   6.562   9.022  0.1920 -0.1649  0.8691
  146MOL0     C20050  10.546   6.561   9.008 -0.3136  0.5496  0.3270
  146MOL0     C20051  10.605   6.449   9.097  0.9265 -0.0262  0.3622
  146MOL0     C20052  10.750   6.439   9.067  0.5541  1.6056 -1.4555
  146MOL0     C20053  10.823   6.330   9.152  0.9189  0.9554 -1.0497
  146MOL0     C20054  10.897   6.391   9.265 -0.4103 -0.0636  0.7079
  146MOL0    Cl20055  10.964   6.275   9.380  0.1523 -0.0353  0.5267
  146MOL0     C20056  10.097   6.990   9.014 -0.5719 -0.0595  0.8595
  146MOL0     C20057   9.966   7.031   9.022  0.2302 -0.3335 -0.3095
  146MOL0     O20058   9.776   7.081   9.286  0.0903 -0.1135 -0.2292
  146MOL0     C20059   9.499   7.132   9.051 -0.8781  0.5691  0.8300
  146MOL0     C20060   9.371   7.187   9.040 -0.4267  0.8872 -0.2027
  146MOL0     N20061   8.932   7.203   9.557  0.3202 -0.2494  0.4514
  146MOL0     N20062   8.900   7.100   9.637  1.5508 -0.7046 -0.8162
  146MOL0     C20063   8.043   6.641  10.074  0.0360  0.2763 -0.0675
  146MOL0     C20064   7.912   6.681  10.074  1.0365 -0.6887 -0.8777
  146MOL0     C20065   7.506   6.790  10.264 -1.7193  0.4605 -0.6805
  146MOL0     C20066   7.440   6.776  10.145  0.3278  1.2422 -0.8016
  146MOL0     C20067   7.306   6.787  10.134 -0.1295 -0.0511  0.8292
  146MOL0     C20068   7.223   6.833  10.238 -0.1593  0.5333  0.1380
  146MOL0     O20069   7.084   6.846  10.211 -0.0743  0.5311 -0.5773
  146MOL0     C20070   6.985   6.876  10.309  0.2630  0.5672  0.0623
  146MOL0     C20071   6.842   6.845  10.258  0.1651 -0.3441  0.8972
  146MOL0     C20072   6.786   6.945  10.154  0.1748 -0.1663  1.2516
  146MOL0     C20073   6.680   6.883  10.066  0.2808  0.5705 -0.3819
  146MOL0     C20074   6.558   6.844  10.139 -0.9762 -0.3594 -0.5855
  146MOL0     C20075   6.456   6.832  10.200  0.1121  0.6506 -0.5467
  146MOL0     C20076   7.283   6.866  10.357 -0.0737 -1.1227  0.4446
  146MOL0     C20077   7.430   6.847  10.367  0.8029 -0.6261  0.1425
  146MOL0     C20078   7.497   6.915  10.484  0.6284  0.0816  0.5515
  146MOL0     H20079   7.791   6.522  10.351 -1.0576  1.1211 -0.8139
  146MOL0     H20080   8.014   6.420  10.331  2.2652  0.6089 -0.0081
  146MOL0     H20081   8.397   6.566  10.189 -2.2206  1.8153  2.1942
  146MOL0     H20082   8.288   6.660  10.089 -2.5193 -0.9475 -1.2488
  146MOL0     H20083   8.432   6.418   9.986  1.3715  0.7574 -3.6095
  146MOL0     H20084   8.286   6.469   9.915 -0.0108 -1.3483 -0.5844
  146MOL0     H20085   8.388   6.698   9.879 -3.2495 -2.1948  0.1154
  146MOL0     H20086   8.540   6.635   9.969  2.0347  1.2639 -1.6733
  146MOL0     H20087   8.605   6.496   9.797  0.4167 -0.4977 -0.2441
  146MOL0     H20088   8.461   6.515   9.712 -1.5959 -0.4501  1.7813
  146MOL0     H20089   8.659   6.741   9.772 -1.4892  1.1472  0.2572
  146MOL0     H20090   8.515   6.750   9.666  1.1610  2.9684  0.1892
  146MOL0     H20091   8.746   6.577   9.609  0.1967  2.3633 -0.4458
  146MOL0     H20092   8.609   6.608   9.519 -0.4796 -0.9045 -0.0711
  146MOL0     H20093   8.677   6.869   9.513  0.8125  1.6821  3.7754
  146MOL0     H20094   8.796   6.753   9.431 -1.1067 -0.8718  0.5505
  146MOL0     H20095   8.820   6.850   9.722  2.3589  1.1618  0.4526
  146MOL0     H20096   8.933   6.765   9.619  0.1775  0.5885 -1.7870
  146MOL0     H20097   8.993   6.931   9.377  0.6877  1.4183 -0.7985
  146MOL0     H20098   9.106   7.150   9.271  1.2511  0.2585  1.4120
  146MOL0     H20099   9.096   7.291   9.361 -0.1230 -0.0624 -2.2457
  146MOL0     H20100   8.894   7.171   9.162 -3.4504  0.5514  0.6021
  146MOL0     H20101   8.847   7.304   9.278 -0.9294 -0.3825 -1.2730
  146MOL0     H20102   8.896   7.375   9.048 -1.9752  2.5111  2.3854
  146MOL0     H20103   8.994   7.452   9.173  4.0217 -0.7830  0.1760
  146MOL0     H20104   9.086   7.222   9.009 -1.7689  1.1144 -1.4971
  146MOL0     H20105   9.113   7.382   8.958 -2.3542 -0.3272 -1.1804
  146MOL0     H20106   9.390   7.407   9.297 -0.8250  0.4362 -0.8270
  146MOL0     H20107   9.689   7.243   9.413 -1.6287 -3.4742 -0.6507
  146MOL0     H20108   9.568   7.360   9.451 -1.1795 -1.8924  0.0303
  146MOL0     H20109   9.681   7.401   9.322  0.6066 -1.8104 -0.6264
  146MOL0     H20110   9.823   6.760   9.185 -1.3138  0.7508 -1.2350
  146MOL0     H20111  10.061   6.700   9.190 -3.4777 -1.1430 -0.6271
  146MOL0     H20112  10.306   6.868   8.889  3.2001  1.6917 -0.1521
  146MOL0     H20113  10.442   6.831   8.992  0.8195 -2.1294 -2.6851
  146MOL0     H20114  10.216   6.642   8.901 -0.3628 -4.3959  2.4506
  146MOL0     H20115  10.371   6.645   8.814  2.3844  2.2386  0.6199
  146MOL0     H20116  10.350   6.463   9.000  2.9414 -1.5488  1.3044
  146MOL0     H20117  10.364   6.599   9.121 -0.0721  2.2152 -0.0291
  146MOL0     H20118  10.593   6.655   9.039  1.6720  0.3402 -1.7302
  146MOL0     H20119  10.575   6.548   8.903 -0.9886 -2.7681  0.4430
  146MOL0     H20120  10.582   6.470   9.201 -0.2946 -2.7342  0.7342
  146MOL0     H20121  10.560   6.356   9.060  0.1656  0.0811  1.0025
  146MOL0     H20122  10.801   6.532   9.092 -2.6468  2.5933  2.4325
  146MOL0     H20123  10.761   6.425   8.959 -0.2682  0.7234 -1.4381
  146MOL0     H20124  10.890   6.273   9.087 -0.6521 -3.0062  0.4920
  146MOL0     H20125  10.749   6.253   9.175  0.5577  0.7067 -2.9128
  146MOL0     H20126  10.841   6.459   9.329  1.5441 -1.8771  4.7712
  146MOL0     H20127  10.985   6.439   9.222  0.4877 -1.3024  1.0945
  146MOL0     H20128  10.180   7.044   8.968 -0.7167 -2.3055 -2.4284
  146MOL0     H20129   9.944   7.126   8.974  5.0478  2.7986  2.7796
  146MOL0     H20130   9.513   7.047   8.985  0.9610 -0.1251  2.0418
  146MOL0     H20131   9.316   7.167   8.948  2.0273 -0.3659 -1.5220
  146MOL0     H20132   8.111   6.677   9.998  2.6316  0.0585  2.0106
  146MOL0     H20133   7.876   6.745   9.994  0.4779  1.1823  0.7913
  146MOL0     H20134   7.486   6.733  10.057 -1.3681 -2.1634 -0.1980
  146MOL0     H20135   7.276   6.758  10.034  4.1587 -3.0821  0.1484
  146MOL0     H20136   7.006   6.809  10.393 -2.7693  1.6321  1.8540
  146MOL0     H20137   6.998   6.978  10.347 -1.4404  1.8648 -2.5641
  146MOL0     H20138   6.762   6.853  10.333 -0.1051  1.2895  0.4918
  146MOL0     H20139   6.845   6.745  10.214 -3.1055  0.1672 -0.8584
  146MOL0     H20140   6.743   7.030  10.206  1.9069  1.8792 -0.4521
  146MOL0     H20141   6.862   6.983  10.085  0.5119  0.0629  1.7396
  146MOL0     H20142   6.732   6.795  10.026 -0.0218  1.2234 -2.3604
  146MOL0     H20143   6.658   6.944   9.977  0.4328 -0.9153 -1.4813
  146MOL0     H20144   6.371   6.813  10.264 -0.4068  2.5957 -0.5726
  146MOL0     H20145   7.230   6.908  10.442  0.1326 -0.3643  0.2044
  146MOL0     H20146   7.588   6.976  10.473  2.7752 -2.2463  3.6064
  146MOL0     H20147   7.434   6.988  10.535  0.6399 -1.3982  2.8136
  146MOL0     H20148   7.504   6.834  10.557 -2.6939 -1.1938 -0.3626
  147MOL0     O20149  11.507   5.593   9.141  0.3277 -0.2259  0.4489
  147MOL0     C20150  11.492   5.572   9.023 -0.2279  0.5148  0.5161
  147MOL0     O20151  11.377   5.573   8.959 -0.1882 -0.0833  0.8286
  147MOL0     C20152  11.274   5.631   9.024 -1.3276  1.2037 -0.0106
  147MOL0     C20153  11.156   5.553   9.033 -0.0158 -0.0957 -1.6743
  147MOL0     C20154  11.051   5.597   9.113 -0.0814  0.4371 -1.0978
  147MOL0     C20155  11.053   5.716   9.185  0.4799 -1.3359  0.6611
  147MOL0     O20156  10.944   5.745   9.262  0.0555  0.0373 -0.2753
  147MOL0     C20157  10.946   5.867   9.338  0.6347  0.1633 -0.2954
  147MOL0     C20158  10.800   5.887   9.383 -0.2778  0.1479  0.5135
  147MOL0     C20159  10.772   5.802   9.509  0.9003  0.7552  0.0349
  147MOL0     C20160  10.631   5.828   9.553 -0.2638  0.1361 -0.6242
  147MOL0     C20161  10.604   5.744   9.678  1.0717 -0.9306  0.1251
  147MOL0     C20162  10.473   5.793   9.739 -0.0666  0.0421 -0.2083
  147MOL0     C20163  10.430   5.688   9.838  0.2568 -0.5450  0.1434
  147MOL0     C20164  10.379   5.545   9.792 -1.0888  0.1872 -1.0030
  147MOL0     N20165  10.272   5.573   9.696  0.5241 -1.5726 -0.5348
  147MOL0     C20166  10.153   5.641   9.720 -0.2783 -0.4246 -0.3917
  147MOL0     C20167  10.098   5.682   9.603 -0.6976  0.2794  0.7838
  147MOL0     C20168   9.969   5.753   9.590 -0.7580 -1.1277  0.8534
  147MOL0     C20169   9.984   5.897   9.630  0.1010 -0.1956 -0.1522
  147MOL0     C20170  10.069   5.982   9.533 -0.2949  0.2474  0.1358
  147MOL0     C20171  10.073   6.122   9.575  0.2245  0.4412  0.2062
  147MOL0     O20172  10.134   6.147   9.701  1.0998 -0.2617 -0.6460
  147MOL0     C20173  10.188   6.269   9.740 -0.8322 -1.0201 -0.6827
  147MOL0     C20174  10.263   6.279   9.859 -0.4288  0.4006 -0.3203
  147MOL0     C20175  10.309   6.393   9.916 -0.6040 -0.0527  0.3968
  147MOL0     C20176  10.376   6.382  10.060  0.1580 -0.0028  0.4266
  147MOL0     C20177  10.290   6.512   9.846 -0.5774  0.1176 -1.0237
  147MOL0     C20178  10.341   6.642   9.912  0.1741  0.8301  0.8866
  147MOL0     O20179  10.255   6.735   9.926 -0.2790 -0.7656  0.2299
  147MOL0     C20180  10.297   6.862   9.967  1.1108  0.4962  1.0649
  147MOL0     C20181  10.388   6.938   9.903  0.2428  0.7154  0.3276
  147MOL0     C20182  10.437   7.058   9.956 -0.3128  0.0666  0.5859
  147MOL0     C20183  10.387   7.105  10.084  0.1602 -0.1518 -0.5464
  147MOL0     O20184  10.453   7.204  10.153 -0.1605 -0.1124  0.4338
  147MOL0     C20185  10.407   7.249  10.282 -0.5319 -0.1647  0.2469
  147MOL0     C20186  10.464   7.165  10.395 -0.2653  0.8313 -0.2251
  147MOL0     C20187  10.431   7.224  10.534 -0.5777 -0.1740 -0.3558
  147MOL0     C20188  10.284   7.190  10.591 -0.9984  0.7175 -0.8116
  147MOL0     C20189  10.228   7.296  10.692  0.0434  0.3419  0.0272
  147MOL0     C20190  10.320   7.304  10.818 -0.2017 -0.1253 -0.4471
  147MOL0     C20191  10.276   7.389  10.933  0.5992 -0.3066 -0.2011
  147MOL0     C20192  10.375   7.439  11.026 -0.6489 -0.5326 -0.1846
  147MOL0    Cl20193  10.454   7.318  11.136  0.2199 -0.0064 -0.3038
  147MOL0     C20194  10.285   7.026  10.141  0.0947  0.9182  0.0000
  147MOL0     C20195  10.238   6.904  10.087 -0.0601 -0.3578  0.0425
  147MOL0     O20196  10.460   6.651   9.917 -0.1836  0.2145  0.1321
  147MOL0     C20197  10.215   6.512   9.724 -0.6330 -0.2144 -0.2931
  147MOL0     C20198  10.162   6.392   9.675 -0.6649 -0.4765  0.4169
  147MOL0     N20199  10.181   5.624   9.509 -0.6560  0.3492  0.6873
  147MOL0     N20200  10.280   5.554   9.559  1.4324  0.3359 -0.8645
  147MOL0     C20201  11.163   5.795   9.173 -0.2825 -1.1730  0.2077
  147MOL0     C20202  11.274   5.751   9.093  0.6323 -1.1955 -0.9193
  147MOL0     C20203  11.609   5.582   8.926 -0.7158  0.1513  1.5936
  147MOL0     C20204  11.601   5.496   8.819  0.5501 -0.5185 -0.6782
  147MOL0     C20205  11.698   5.481   8.723  0.2238 -0.2200 -0.4976
  147MOL0     C20206  11.811   5.566   8.730  0.2661  0.9717  0.9122
  147MOL0     O20207  11.911   5.564   8.635 -0.7222  0.5120 -0.4845
  147MOL0     C20208  12.041   5.620   8.652 -0.0473 -0.3300  0.4117
  147MOL0     C20209  12.135   5.527   8.723  0.1244 -0.2818  0.2502
  147MOL0     C20210  12.168   5.399   8.640  0.4802  0.3354 -0.3159
  147MOL0     C20211  12.276   5.414   8.540  0.4568 -0.5243 -0.1280
  147MOL0     C20212  12.299   5.302   8.444 -1.0785 -1.3131 -0.1982
  147MOL0     C20213  12.325   5.212   8.368  1.1456 -0.4329  0.0097
  147MOL0     C20214  11.829   5.651   8.851  0.0409  0.5858 -0.1671
  147MOL0     C20215  11.728   5.662   8.938 -0.4774 -0.9698 -0.2669
  147MOL0     C20216  11.745   5.767   9.037  0.6857 -0.2433  0.0660
  147MOL0     H20217  11.135   5.468   8.969  1.2363 -0.2405 -1.9276
  147MOL0     H20218  10.970   5.526   9.124 -0.0514  0.4164 -1.0071
  147MOL0     H20219  10.975   5.956   9.282 -1.5594  0.5778 -0.8669
  147MOL0     H20220  11.013   5.854   9.424 -0.6008  1.2572  0.8891
  147MOL0     H20221  10.782   5.991   9.413  0.4383  1.1631 -2.2775
  147MOL0     H20222  10.728   5.864   9.304 -0.4792  1.8631  0.1555
  147MOL0     H20223  10.786   5.696   9.484 -1.2273  0.4503 -0.0415
  147MOL0     H20224  10.843   5.826   9.589  0.1648 -0.8542  1.2449
  147MOL0     H20225  10.641   5.930   9.591  0.7383 -0.5152  0.9711
  147MOL0     H20226  10.550   5.840   9.482  0.1945  2.5384 -0.8350
  147MOL0     H20227  10.690   5.750   9.746 -0.5276 -5.6180  3.0050
  147MOL0     H20228  10.581   5.641   9.649 -2.2913  0.2842 -2.1029
  147MOL0     H20229  10.509   5.878   9.799 -0.0629 -1.5645  2.2301
  147MOL0     H20230  10.400   5.806   9.659  1.1744  1.0494 -1.2133
  147MOL0     H20231  10.363   5.723   9.916  2.2585 -0.8484  2.0919
  147MOL0     H20232  10.520   5.658   9.893 -0.3054 -0.2205  1.2491
  147MOL0     H20233  10.450   5.482   9.738 -0.7869 -0.7386  0.4189
  147MOL0     H20234  10.342   5.483   9.874 -2.2082  1.1169 -0.7795
  147MOL0     H20235  10.113   5.666   9.817 -0.9245 -0.6660 -0.5915
  147MOL0     H20236   9.892   5.698   9.645 -0.2603 -2.7669 -0.0306
  147MOL0     H20237   9.935   5.760   9.486  0.6874 -0.1091  0.4246
  147MOL0     H20238   9.884   5.941   9.637 -0.5081 -0.6275 -3.8118
  147MOL0     H20239  10.023   5.896   9.732 -0.9683  1.1134  0.2975
  147MOL0     H20240  10.175   5.958   9.535 -0.0681  0.9831 -1.5355
  147MOL0     H20241  10.033   5.960   9.432 -0.1045 -1.3279  0.3930
  147MOL0     H20242  10.125   6.177   9.496  0.1502 -2.7420 -2.2586
  147MOL0     H20243   9.976   6.175   9.578 -0.7666 -1.3106  0.2729
  147MOL0     H20244  10.286   6.185   9.908 -1.6421 -0.0278 -0.5397
  147MOL0     H20245  10.457   6.309  10.067  1.8027  1.7275  0.1566
  147MOL0     H20246  10.309   6.338  10.135 -1.2631 -0.4553 -1.0630
  147MOL0     H20247  10.408   6.481  10.094 -0.5028  0.9349 -1.5508
  147MOL0     H20248  10.415   6.902   9.804 -1.0562 -1.6872  0.7499
  147MOL0     H20249  10.506   7.118   9.898 -0.3478  1.5216  1.9921
  147MOL0     H20250  10.451   7.349  10.284 -0.8175  0.1317 -2.8601
  147MOL0     H20251  10.299   7.262  10.287 -0.4020  0.5534  1.6756
  147MOL0     H20252  10.428   7.063  10.380  0.3548  0.8857 -2.4398
  147MOL0     H20253  10.573   7.155  10.384 -0.0724  1.2988  0.9866
  147MOL0     H20254  10.440   7.332  10.530 -2.2478  0.0104 -4.8741
  147MOL0     H20255  10.506   7.189  10.606  1.1100  2.4728 -0.6995
  147MOL0     H20256  10.298   7.094  10.642  2.3642  1.0977 -0.7556
  147MOL0     H20257  10.217   7.186  10.504 -0.3650 -0.0830 -1.2877
  147MOL0     H20258  10.217   7.389  10.636 -3.0837 -0.0402 -0.1608
  147MOL0     H20259  10.128   7.261  10.722 -1.1224  2.2699 -1.3946
  147MOL0     H20260  10.412   7.347  10.778  1.1835 -1.9682  0.5575
  147MOL0     H20261  10.338   7.201  10.851  0.4322  0.3613  0.7771
  147MOL0     H20262  10.195   7.335  10.982  2.2480 -1.1113  1.7700
  147MOL0     H20263  10.225   7.475  10.888  0.9638  1.1377  1.9800
  147MOL0     H20264  10.328   7.514  11.090 -1.1724 -1.4117  0.4962
  147MOL0     H20265  10.457   7.494  10.979  1.2512 -0.9712  2.3914
  147MOL0     H20266  10.233   7.058  10.231 -2.0232 -2.6533  0.2634
  147MOL0     H20267  10.168   6.837  10.137  1.5176 -0.4833  2.2256
  147MOL0     H20268  10.211   6.601   9.662 -0.4831  1.5216  2.0470
  147MOL0     H20269  10.118   6.410   9.577 -2.0538  2.7793  1.5159
  147MOL0     H20270  11.172   5.898   9.207 -0.3706 -1.4826  1.1841
  147MOL0     H20271  11.361   5.816   9.095  0.7981 -1.3288 -2.5126
  147MOL0     H20272  11.519   5.426   8.808  1.1530 -1.5706  1.1718
  147MOL0     H20273  11.697   5.416   8.636  2.7530 -0.5745 -0.3280
  147MOL0     H20274  12.064   5.646   8.548 -4.4583  2.5553 -0.0779
  147MOL0     H20275  12.033   5.721   8.693 -2.9210  0.9158 -2.7095
  147MOL0     H20276  12.090   5.494   8.817  0.3806  0.0807  0.5053
  147MOL0     H20277  12.228   5.579   8.749 -1.1357  0.7604  2.9996
  147MOL0     H20278  12.204   5.316   8.701  1.4725  2.4582  2.1720
  147MOL0     H20279  12.075   5.355   8.602 -0.4413 -0.6486  2.7892
  147MOL0     H20280  12.361   5.440   8.604 -1.1343  2.2294  1.0529
  147MOL0     H20281  12.247   5.504   8.485 -0.6537 -0.7528  0.0645
  147MOL0     H20282  12.339   5.132   8.298 -1.2706 -0.5023 -0.5085
  147MOL0     H20283  11.918   5.712   8.856 -1.0839  2.7013 -2.8947
  147MOL0     H20284  11.687   5.853   9.002 -0.2751 -1.5243 -1.6313
  147MOL0     H20285  11.727   5.742   9.142 -0.9028  1.3257  0.2178
  147MOL0     H20286  11.852   5.790   9.039  0.2999  2.0346 -1.9764
  148MOL0     O20287   9.291  10.625   0.364  0.5373 -0.5484  0.1400
  148MOL0     C20288   9.356  10.596   0.264  1.0361  0.1155 -0.3269
  148MOL0     O20289   9.500  10.602   0.261 -0.0128  0.4454 -0.2042
  148MOL0     C20290   9.556  10.620   0.389  0.4532 -1.1456  0.0363
  148MOL0     C20291   9.587  10.750   0.436 -0.9624 -0.5601 -0.6984
  148MOL0     C20292   9.645  10.778   0.564  0.2222  0.4944  0.1509
  148MOL0     C20293   9.670  10.666   0.646  0.0512  0.3406 -0.1108
  148MOL0     O20294   9.721  10.665   0.770  0.5756 -0.7678 -0.7337
  148MOL0     C20295   9.766  10.782   0.844 -0.5516 -0.0418 -0.0147
  148MOL0     C20296   9.809  10.735   0.981  0.3611  0.0538 -0.6632
  148MOL0     C20297   9.698  10.763   1.082 -0.4412 -0.8834  0.2270
  148MOL0     C20298   9.729  10.704   1.224  1.7355 -0.1331  0.1955
  148MOL0     C20299   9.626  10.774   1.320 -0.9182 -0.0911  0.1673
  148MOL0     C20300   9.659  10.732   1.472  1.0536 -0.1912  0.5580
  148MOL0     C20301   9.672  10.578   1.492 -0.1966 -0.0520  0.0686
  148MOL0     C20302   9.540  10.487   1.472  0.6613 -0.2028  0.0762
  148MOL0     N20303   9.560  10.355   1.539 -0.3350 -0.0469  0.1644
  148MOL0     C20304   9.500  10.241   1.518  0.4949  0.5418  0.2315
  148MOL0     C20305   9.581  10.154   1.593 -0.4573  0.0406  0.3422
  148MOL0     C20306   9.562  10.004   1.615  0.5775  0.4470  0.7502
  148MOL0     C20307   9.611   9.915   1.498 -1.3755  0.0377 -0.2263
  148MOL0     C20308   9.767   9.941   1.466 -0.2021 -0.5531 -0.7014
  148MOL0     C20309   9.808   9.827   1.369 -0.2089  0.3181 -0.0476
  148MOL0     O20310   9.810   9.696   1.432 -0.2018 -0.2910  0.0083
  148MOL0     C20311   9.896   9.599   1.375  0.2813  0.9836 -0.6178
  148MOL0     C20312   9.871   9.533   1.253  0.5098 -0.1256 -0.0410
  148MOL0     C20313   9.960   9.435   1.199  0.4002 -1.1052  0.0128
  148MOL0     C20314   9.922   9.345   1.080 -0.8853  0.0531  0.2533
  148MOL0     C20315  10.077   9.424   1.259 -0.7232 -0.4312 -0.4569
  148MOL0     C20316  10.177   9.332   1.211 -0.2024 -0.3461 -0.3700
  148MOL0     O20317  10.243   9.361   1.099  0.3720  0.4165  0.4785
  148MOL0     C20318  10.306   9.256   1.038 -0.1298  0.3888  0.1825
  148MOL0     C20319  10.242   9.149   0.965 -0.0337  0.0492 -0.6264
  148MOL0     C20320  10.322   9.057   0.896 -0.7162 -0.4281 -0.9715
  148MOL0     C20321  10.456   9.047   0.918  0.3947 -0.0360 -0.5056
  148MOL0     O20322  10.526   8.938   0.863 -0.3070  0.8209  0.0505
  148MOL0     C20323  10.620   8.874   0.942 -0.6837  0.1503  0.1801
  148MOL0     C20324  10.565   8.801   1.066  0.4945  0.9622  0.4539
  148MOL0     C20325  10.461   8.696   1.019  0.2823 -0.2787 -0.5477
  148MOL0     C20326  10.400   8.631   1.144 -0.2849 -0.1965  0.9102
  148MOL0     C20327  10.309   8.501   1.124 -0.2912  0.1504 -0.1815
  148MOL0     C20328  10.372   8.375   1.058  0.9709 -0.4831 -0.0477
  148MOL0     C20329  10.274   8.252   1.062  0.3351 -0.5271  0.4672
  148MOL0     C20330  10.349   8.124   1.034 -0.0546 -0.1559 -0.1109
  148MOL0    Cl20331  10.416   8.140   0.871 -0.4026  0.2880  0.0734
  148MOL0     C20332  10.520   9.149   0.997  0.9360 -0.7458  0.1296
  148MOL0     C20333  10.448   9.256   1.043  0.2727 -0.2694  0.6467
  148MOL0     O20334  10.214   9.242   1.292 -0.3283 -0.0759 -0.6830
  148MOL0     C20335  10.106   9.495   1.379 -0.5147  1.8464 -0.2075
  148MOL0     C20336  10.016   9.582   1.433 -0.2883  0.2704 -0.0056
  148MOL0     N20337   9.687  10.217   1.647 -0.1718 -0.0261 -1.1522
  148MOL0     N20338   9.672  10.342   1.624  0.8568  0.2603 -0.1427
  148MOL0     C20339   9.629  10.542   0.605 -0.0153 -0.1558  0.4925
  148MOL0     C20340   9.584  10.515   0.472  1.3215  0.2184 -0.8274
  148MOL0     C20341   9.278  10.533   0.150  1.3415 -0.0598 -0.8280
  148MOL0     C20342   9.155  10.587   0.121 -0.2824 -0.6266 -0.4571
  148MOL0     C20343   9.066  10.546   0.017 -0.4394  0.0877 -0.7624
  148MOL0     C20344   9.115  10.445  -0.066 -0.3729  0.1276 -0.3156
  148MOL0     O20345   9.035  10.415  -0.174  0.0870  0.5562  0.3857
  148MOL0     C20346   8.934  10.323  -0.141 -0.9045 -0.0769 -0.1241
  148MOL0     C20347   8.854  10.290  -0.271  0.7378  0.1871 -0.4991
  148MOL0     C20348   8.737  10.193  -0.227 -0.3820  1.1635  0.8158
  148MOL0     C20349   8.589  10.247  -0.195 -0.3601  0.1951  0.7275
  148MOL0     C20350   8.533  10.333  -0.301  0.5111 -0.5829  0.3735
  148MOL0     C20351   8.481  10.405  -0.381  0.3487  0.0203  1.0797
  148MOL0     C20352   9.232  10.376  -0.039 -0.0271 -0.1580 -0.0090
  148MOL0     C20353   9.312  10.417   0.076  0.1254 -0.4970 -0.2969
  148MOL0     C20354   9.437  10.343   0.109  0.1259  0.4198 -1.0748
  148MOL0     H20355   9.584  10.837   0.371  2.8211 -0.2650 -0.6666
  148MOL0     H20356   9.668  10.881   0.591 -1.7405  0.1739  3.5653
  148MOL0     H20357   9.691  10.861   0.853 -0.5739 -0.3243  3.3798
  148MOL0     H20358   9.855  10.825   0.797 -0.8800  1.4230  0.6527
  148MOL0     H20359   9.832  10.628   0.975  0.5796 -0.0430  1.2871
  148MOL0     H20360   9.904  10.785   1.003 -0.9855  1.8282  1.5968
  148MOL0     H20361   9.687  10.872   1.085  0.3170 -0.8130  0.9468
  148MOL0     H20362   9.603  10.721   1.047 -0.1723 -2.1095  0.9391
  148MOL0     H20363   9.717  10.595   1.222  0.2265 -0.0012  0.8454
  148MOL0     H20364   9.833  10.734   1.239  2.9793 -2.3286 -3.0259
  148MOL0     H20365   9.529  10.740   1.284  1.0142 -2.2329 -3.6124
  148MOL0     H20366   9.641  10.881   1.300  3.0095 -0.4951  0.0326
  148MOL0     H20367   9.754  10.776   1.502  2.2374 -2.3340  0.1418
  148MOL0     H20368   9.582  10.773   1.539 -0.4441  1.5051 -1.9900
  148MOL0     H20369   9.705  10.575   1.596  0.6730  0.8879 -0.1721
  148MOL0     H20370   9.748  10.523   1.435 -1.9609 -1.1763 -1.3206
  148MOL0     H20371   9.456  10.544   1.513  1.6321  1.3561 -0.0293
  148MOL0     H20372   9.524  10.472   1.365  0.9690  1.4197 -0.2186
  148MOL0     H20373   9.411  10.229   1.457 -0.2526  4.1926  0.3941
  148MOL0     H20374   9.455   9.986   1.621  0.3293  0.8791 -1.6523
  148MOL0     H20375   9.604   9.973   1.711 -0.4990 -0.0485  1.0768
  148MOL0     H20376   9.588   9.809   1.514  3.5196 -1.2210  0.1894
  148MOL0     H20377   9.557   9.937   1.406 -0.0303 -0.5371 -1.1865
  148MOL0     H20378   9.798  10.043   1.443 -0.8175 -0.6457 -1.9994
  148MOL0     H20379   9.824   9.910   1.554 -2.4668 -2.0236  0.3636
  148MOL0     H20380   9.733   9.821   1.290 -1.2372  0.5263  0.8855
  148MOL0     H20381   9.911   9.846   1.338  0.3870 -1.4319  0.7414
  148MOL0     H20382   9.786   9.560   1.192  1.1440 -2.1110 -1.8925
  148MOL0     H20383   9.938   9.241   1.110 -1.8794 -0.3415 -0.5148
  148MOL0     H20384   9.984   9.374   0.994 -2.2957 -2.2519 -1.6692
  148MOL0     H20385   9.819   9.360   1.047 -0.2823  3.4471 -0.4618
  148MOL0     H20386  10.135   9.149   0.949  0.1889 -1.7369 -2.6136
  148MOL0     H20387  10.281   8.986   0.824 -2.8768  2.3676 -2.7416
  148MOL0     H20388  10.674   8.797   0.886 -1.8436 -2.1243  1.9923
  148MOL0     H20389  10.699   8.943   0.973 -1.5255  0.3899  1.9072
  148MOL0     H20390  10.651   8.752   1.112 -1.5566 -1.5525  1.8880
  148MOL0     H20391  10.512   8.873   1.129 -2.2760  1.9464 -2.6877
  148MOL0     H20392  10.510   8.619   0.959  1.8292  1.0466 -1.0378
  148MOL0     H20393  10.377   8.745   0.969  1.2681  3.3658  1.0575
  148MOL0     H20394  10.348   8.710   1.199  0.0075  1.8632 -1.5983
  148MOL0     H20395  10.478   8.622   1.220 -0.5213  4.6886  2.0731
  148MOL0     H20396  10.289   8.472   1.228 -1.1708 -0.3229 -0.4674
  148MOL0     H20397  10.212   8.518   1.078 -0.2959  1.2859  0.2159
  148MOL0     H20398  10.465   8.352   1.109  0.0216 -0.5426  1.7292
  148MOL0     H20399  10.387   8.399   0.952 -4.0502 -0.5618 -1.0588
  148MOL0     H20400  10.197   8.263   0.986  0.9993 -3.2992 -0.7160
  148MOL0     H20401  10.218   8.256   1.156  0.1547 -2.3901  0.4733
  148MOL0     H20402  10.282   8.038   1.025  1.4240 -1.1839 -2.1660
  148MOL0     H20403  10.422   8.100   1.113 -1.5978 -1.8855  0.8639
  148MOL0     H20404  10.628   9.149   1.010  1.0909 -0.7037 -1.0371
  148MOL0     H20405  10.499   9.333   1.101  3.4710 -3.4073  2.4128
  148MOL0     H20406  10.201   9.474   1.426 -0.2049 -0.9949 -1.8884
  148MOL0     H20407  10.025   9.623   1.533 -2.4851 -2.5627  1.5101
  148MOL0     H20408   9.616  10.465   0.680  0.1800  0.6324  1.3441
  148MOL0     H20409   9.555  10.415   0.443  1.1893 -0.3288  1.0192
  148MOL0     H20410   9.106  10.663   0.182  0.6255  1.1550 -1.8466
  148MOL0     H20411   8.966  10.587   0.007 -1.3404 -1.8040 -0.0291
  148MOL0     H20412   8.972  10.231  -0.096 -1.5054  0.0148  0.6070
  148MOL0     H20413   8.865  10.358  -0.063 -1.3125 -1.7480  0.3098
  148MOL0     H20414   8.918  10.234  -0.340 -1.4755 -0.4822 -2.1530
  148MOL0     H20415   8.815  10.378  -0.323 -0.5454  0.5078  0.9271
  148MOL0     H20416   8.730  10.117  -0.305 -1.5772 -0.5006  2.4564
  148MOL0     H20417   8.771  10.133  -0.142  2.2463  1.1845 -0.1526
  148MOL0     H20418   8.607  10.313  -0.109  0.3113  2.1666 -0.8346
  148MOL0     H20419   8.514  10.170  -0.174 -1.3632  0.7505 -0.6236
  148MOL0     H20420   8.420  10.464  -0.446  2.3251 -0.9434 -1.8463
  148MOL0     H20421   9.264  10.296  -0.105 -0.9273 -1.3238  0.9364
  148MOL0     H20422   9.440  10.247   0.056 -0.9673 -0.5070  0.4646
  148MOL0     H20423   9.526  10.399   0.079  0.8627  0.4096  0.9706
  148MOL0     H20424   9.429  10.331   0.217 -3.5270 -1.7314 -1.4309
  149MOL0     O20425  10.531   6.996   4.072 -0.7703 -0.7356  0.4673
  149MOL0     C20426  10.451   6.952   4.149  0.7550  1.0730 -0.4748
  149MOL0     O20427  10.323   6.997   4.164  0.0939  0.8110  0.2641
  149MOL0     C20428  10.267   7.100   4.094 -0.2356  0.6108 -0.9929
  149MOL0     C20429  10.147   7.135   4.145 -0.1674  0.4166  0.4437
  149MOL0     C20430  10.068   7.241   4.107 -0.5822  0.6924  0.1682
  149MOL0     C20431  10.123   7.334   4.017 -0.1802 -0.2456 -0.4675
  149MOL0     O20432  10.044   7.440   3.980 -0.1898 -0.1629 -0.2586
  149MOL0     C20433   9.911   7.420   3.916 -0.4117 -0.7334 -1.2871
  149MOL0     C20434   9.829   7.549   3.939 -0.7847 -0.6562  0.4057
  149MOL0     C20435   9.776   7.558   4.080 -0.4509  0.4915  0.5021
  149MOL0     C20436   9.667   7.662   4.098  0.5000  0.7607  0.1708
  149MOL0     C20437   9.530   7.600   4.072 -0.0625 -0.7843  0.5275
  149MOL0     C20438   9.406   7.688   4.119  0.9767 -0.4982 -0.8235
  149MOL0     C20439   9.411   7.827   4.046  0.1340  0.6970  1.0269
  149MOL0     C20440   9.319   7.924   4.085  0.1764 -0.8042 -0.3703
  149MOL0     N20441   9.323   7.952   4.226  0.7782 -0.9484  0.6549
  149MOL0     C20442   9.214   7.930   4.310  0.1235  0.1836  0.1755
  149MOL0     C20443   9.263   7.960   4.433  0.0086  0.3052  0.3933
  149MOL0     C20444   9.175   7.981   4.556 -0.5959  0.4333  0.3000
  149MOL0     C20445   9.138   8.128   4.592 -0.3708  0.1148 -0.0471
  149MOL0     C20446   9.057   8.195   4.480  0.6990 -0.8416  0.5375
  149MOL0     C20447   8.907   8.158   4.483  0.1488 -0.8056 -0.3110
  149MOL0     O20448   8.860   8.143   4.350  1.2181  0.2209  0.1568
  149MOL0     C20449   8.854   8.024   4.288  0.8227 -0.5195 -0.5233
  149MOL0     C20450   8.877   8.023   4.153 -0.0041 -0.3141  0.1357
  149MOL0     C20451   8.886   7.904   4.074  0.7639 -0.0718 -0.7550
  149MOL0     C20452   8.897   7.926   3.923 -0.1455  0.1774 -0.3073
  149MOL0     C20453   8.876   7.778   4.135  0.4278  0.6381 -0.3088
  149MOL0     C20454   8.890   7.651   4.059  0.2024  0.4754 -0.1891
  149MOL0     O20455   8.834   7.546   4.123  0.2341  0.1508  0.4746
  149MOL0     C20456   8.861   7.418   4.080  0.0946  0.3225  0.0888
  149MOL0     C20457   8.990   7.369   4.093 -0.0736  0.7890  0.4585
  149MOL0     C20458   9.017   7.228   4.093  0.6869  0.7866  0.3309
  149MOL0     C20459   8.908   7.145   4.067 -0.4905 -0.8607  0.3299
  149MOL0     O20460   8.943   7.014   4.063  0.7375 -0.2672  0.3300
  149MOL0     C20461   8.839   6.922   4.088 -0.8203  0.5483 -0.0958
  149MOL0     C20462   8.819   6.902   4.235  0.1925  0.1624  0.5397
  149MOL0     C20463   8.675   6.877   4.276 -1.0577  0.4558  0.4027
  149MOL0     C20464   8.626   6.742   4.241  0.2206  0.0140 -0.2331
  149MOL0     C20465   8.477   6.710   4.282 -0.4388 -1.1165  0.4356
  149MOL0     C20466   8.371   6.790   4.199  0.0427  0.0134 -0.2430
  149MOL0     C20467   8.231   6.771   4.261 -0.2321  0.1780 -1.6730
  149MOL0     C20468   8.124   6.799   4.165 -0.1106  0.5937  0.4912
  149MOL0    Cl20469   7.960   6.747   4.215  0.3853 -0.1508 -0.1612
  149MOL0     C20470   8.778   7.196   4.053  0.0709 -0.4092 -0.3642
  149MOL0     C20471   8.752   7.332   4.057  0.2291 -0.5224  0.6021
  149MOL0     O20472   8.946   7.650   3.956 -1.1653  0.2146  0.9063
  149MOL0     C20473   8.847   7.778   4.272  0.4265  0.2106  0.3693
  149MOL0     C20474   8.845   7.897   4.348  0.0636  0.2276  0.2931
  149MOL0     N20475   9.393   8.007   4.416 -0.1599  0.1959 -0.4923
  149MOL0     N20476   9.434   7.995   4.295  0.9908  0.1301 -0.5896
  149MOL0     C20477  10.249   7.305   3.969 -0.1584  0.1163  0.7050
  149MOL0     C20478  10.316   7.193   4.001 -0.9986  1.1099 -0.9462
  149MOL0     C20479  10.494   6.834   4.244 -0.6965  0.5538 -0.6004
  149MOL0     C20480  10.628   6.818   4.266 -0.4781  1.1159 -0.8445
  149MOL0     C20481  10.672   6.717   4.353  0.5391  0.4547 -0.0450
  149MOL0     C20482  10.591   6.612   4.406 -0.3326 -0.1149  0.0463
  149MOL0     O20483  10.643   6.512   4.489  0.5850 -0.2798  0.4775
  149MOL0     C20484  10.620   6.384   4.420  0.6119 -0.0597 -1.3971
  149MOL0     C20485  10.724   6.284   4.465  0.4688  0.0915  0.2227
  149MOL0     C20486  10.871   6.314   4.406  0.0970 -0.3520  0.2027
  149MOL0     C20487  10.927   6.187   4.343 -0.3168 -1.5653 -0.1776
  149MOL0     C20488  11.073   6.200   4.323  0.4102  0.7307  0.8874
  149MOL0     C20489  11.193   6.198   4.311 -0.9317 -0.0689 -0.3821
  149MOL0     C20490  10.451   6.628   4.373 -0.6952  0.4187  1.1168
  149MOL0     C20491  10.411   6.734   4.301  0.1575 -0.0524  0.2093
  149MOL0     C20492  10.259   6.750   4.312 -0.3437 -0.4216  0.8646
  149MOL0     H20493  10.100   7.065   4.214 -0.3201 -0.5775 -0.6478
  149MOL0     H20494   9.964   7.243   4.140 -0.3624  1.0044  0.8581
  149MOL0     H20495   9.854   7.337   3.959  1.5402 -1.1965  0.5535
  149MOL0     H20496   9.915   7.404   3.808  1.2839 -0.4997 -1.2931
  149MOL0     H20497   9.891   7.635   3.914 -0.2176 -0.3748  2.5605
  149MOL0     H20498   9.748   7.552   3.865 -0.1073 -2.3967 -0.4618
  149MOL0     H20499   9.736   7.461   4.113 -0.0472  0.3500  0.5821
  149MOL0     H20500   9.857   7.586   4.148  0.4822  0.8301 -0.7265
  149MOL0     H20501   9.676   7.704   4.199 -0.1541  2.3949 -0.4160
  149MOL0     H20502   9.701   7.742   4.031 -1.8751  1.3011 -0.5048
  149MOL0     H20503   9.518   7.509   4.131  0.0481 -0.0211  1.7631
  149MOL0     H20504   9.521   7.571   3.967 -2.1275 -0.5835  0.6013
  149MOL0     H20505   9.315   7.629   4.105  1.4130 -1.5815  0.6516
  149MOL0     H20506   9.396   7.696   4.228 -1.0624 -4.1915 -0.5533
  149MOL0     H20507   9.395   7.811   3.939 -2.6527  2.5710  1.0478
  149MOL0     H20508   9.514   7.862   4.053  0.5187  0.2666 -1.5059
  149MOL0     H20509   9.325   8.014   4.023  0.8671  0.9496  2.0862
  149MOL0     H20510   9.224   7.873   4.064 -0.1788 -1.2118  1.9881
  149MOL0     H20511   9.116   7.896   4.279 -0.4703  1.0798  0.9908
  149MOL0     H20512   9.233   7.942   4.640 -2.1994 -1.0973  0.7656
  149MOL0     H20513   9.079   7.931   4.538  0.0947 -0.4496 -1.0867
  149MOL0     H20514   9.092   8.122   4.691  2.0088 -4.1158  1.0800
  149MOL0     H20515   9.236   8.174   4.604 -0.9323  0.6647  3.0100
  149MOL0     H20516   9.060   8.304   4.490 -2.8251 -0.2141 -2.7069
  149MOL0     H20517   9.093   8.164   4.382  3.3825  1.9026  0.4999
  149MOL0     H20518   8.898   8.070   4.548  1.5872 -0.1523  0.8427
  149MOL0     H20519   8.852   8.237   4.535 -0.4883 -1.7769  0.5427
  149MOL0     H20520   8.898   8.120   4.108  2.7676 -1.3030 -0.9095
  149MOL0     H20521   8.834   7.852   3.872  0.9715 -0.6604 -0.4960
  149MOL0     H20522   9.002   7.916   3.896 -0.6394 -0.3595 -2.1965
  149MOL0     H20523   8.860   8.025   3.897  0.2516  0.8653  1.5860
  149MOL0     H20524   9.072   7.430   4.129 -1.3229  2.1080  1.1425
  149MOL0     H20525   9.114   7.182   4.108 -0.2014 -0.7801  1.5771
  149MOL0     H20526   8.748   6.953   4.035 -0.1678  2.1868 -0.3126
  149MOL0     H20527   8.870   6.828   4.040 -0.3686 -0.8126  2.6661
  149MOL0     H20528   8.888   6.821   4.260  1.3177  0.6347 -0.8742
  149MOL0     H20529   8.837   6.996   4.290 -1.0043  1.6640 -1.5031
  149MOL0     H20530   8.613   6.959   4.238  2.3956  2.4961 -1.3860
  149MOL0     H20531   8.676   6.859   4.384 -0.3264 -4.2130 -0.1992
  149MOL0     H20532   8.697   6.664   4.271  3.1230  1.9263 -1.6086
  149MOL0     H20533   8.629   6.756   4.132 -1.2497  2.4328 -0.0310
  149MOL0     H20534   8.456   6.604   4.266  1.7165 -1.7622  1.4646
  149MOL0     H20535   8.460   6.734   4.387 -1.2943 -0.3856  0.1378
  149MOL0     H20536   8.379   6.751   4.097 -2.7534 -1.6195  0.0490
  149MOL0     H20537   8.391   6.897   4.193 -0.1820  0.0811  0.2140
  149MOL0     H20538   8.221   6.834   4.351  3.1396 -2.2865  0.6747
  149MOL0     H20539   8.237   6.667   4.294 -2.2732  1.1727  2.6937
  149MOL0     H20540   8.144   6.752   4.069  1.5106 -2.0403  2.0200
  149MOL0     H20541   8.137   6.907   4.152  0.2421  0.4490 -0.4949
  149MOL0     H20542   8.695   7.129   4.033 -0.6947 -0.3123  2.1640
  149MOL0     H20543   8.654   7.373   4.032  0.5033 -0.0670  0.2564
  149MOL0     H20544   8.831   7.687   4.329 -2.4982  0.2026 -0.3274
  149MOL0     H20545   8.833   7.885   4.455  1.1344 -1.5267  0.2463
  149MOL0     H20546  10.296   7.369   3.895  1.2579  0.1717  1.6106
  149MOL0     H20547  10.415   7.191   3.958  0.2611  1.4712  1.7837
  149MOL0     H20548  10.695   6.891   4.222  1.5154 -0.6499 -0.9348
  149MOL0     H20549  10.780   6.716   4.357  0.7842 -5.3976  0.8399
  149MOL0     H20550  10.519   6.356   4.453  0.6041  1.8730  0.4098
  149MOL0     H20551  10.603   6.377   4.312  2.0728 -2.5424 -1.5335
  149MOL0     H20552  10.676   6.193   4.429  0.1495  1.3749 -2.8851
  149MOL0     H20553  10.746   6.268   4.571  0.0556  0.4220  0.3641
  149MOL0     H20554  10.860   6.391   4.329  2.1958 -0.6109 -0.4110
  149MOL0     H20555  10.943   6.349   4.481  3.8912  0.6098 -3.5171
  149MOL0     H20556  10.879   6.168   4.246 -3.2822  1.3699  0.5421
  149MOL0     H20557  10.913   6.102   4.410 -2.9060 -1.5282 -0.5566
  149MOL0     H20558  11.300   6.200   4.305 -0.7116  2.2882  2.2685
  149MOL0     H20559  10.382   6.546   4.394 -1.9418 -0.3348 -4.3791
  149MOL0     H20560  10.206   6.671   4.366 -1.7299  3.0420  5.1762
  149MOL0     H20561  10.253   6.839   4.374  0.1855 -0.6553  1.2570
  149MOL0     H20562  10.218   6.764   4.211  0.6687 -0.9406  0.3615
  150MOL0     O20563   5.014   0.001   7.687  0.5140 -0.2683 -0.1224
  150MOL0     C20564   5.135   0.030   7.668  0.3125  0.4791 -0.8607
  150MOL0     O20565   5.188   0.158   7.671  0.0659  0.1816 -0.2834
  150MOL0     C20566   5.117   0.268   7.720 -0.3708  0.5338  1.1980
  150MOL0     C20567   5.038   0.347   7.644  0.0338 -0.6156  0.2366
  150MOL0     C20568   4.991   0.476   7.688 -0.3596  0.6652 -0.9493
  150MOL0     C20569   5.011   0.519   7.824  0.0605 -0.0317  1.0723
  150MOL0     O20570   4.956   0.641   7.848  0.2237 -0.6493  0.4385
  150MOL0     C20571   5.009   0.711   7.962 -0.5413  0.2514 -0.5723
  150MOL0     C20572   4.952   0.666   8.095  0.0671  0.4093 -0.2492
  150MOL0     C20573   4.999   0.755   8.215  0.3728 -0.2574  0.4650
  150MOL0     C20574   4.959   0.693   8.339  0.1163  0.8662 -0.5132
  150MOL0     C20575   4.979   0.781   8.467 -0.0864  0.9939  1.0246
  150MOL0     C20576   4.951   0.702   8.598  0.2303  0.2800  0.0278
  150MOL0     C20577   4.806   0.666   8.622 -0.3538  0.2001  0.2284
  150MOL0     C20578   4.794   0.595   8.753 -0.5320  0.1470  0.3502
  150MOL0     N20579   4.871   0.470   8.752 -0.0325  0.0813  0.5491
  150MOL0     C20580   4.830   0.359   8.698 -0.1804  0.5396  1.0510
  150MOL0     C20581   4.907   0.270   8.748 -0.0014  0.7971 -0.2303
  150MOL0     C20582   4.889   0.122   8.714 -0.0966 -0.0775 -0.3807
  150MOL0     C20583   4.910   0.028   8.831  0.4600 -0.5450 -0.1844
  150MOL0     C20584   5.057   0.012   8.877  0.1309 -0.9321 -0.0515
  150MOL0     C20585   5.147  -0.065   8.778  0.5560  0.3117 -0.8165
  150MOL0     O20586   5.143  -0.215   8.772  0.2493  0.2340  0.3261
  150MOL0     C20587   5.252  -0.292   8.737 -0.2203 -0.1734  0.3043
  150MOL0     C20588   5.217  -0.427   8.733  0.4715  1.1549  0.5744
  150MOL0     C20589   5.310  -0.531   8.696 -0.2050 -0.7523  0.4596
  150MOL0     C20590   5.263  -0.670   8.703  0.2494  0.3922  0.4668
  150MOL0     C20591   5.436  -0.490   8.641 -0.3253  0.3190 -0.7552
  150MOL0     C20592   5.542  -0.585   8.600  0.5241 -0.0879  0.7648
  150MOL0     O20593   5.509  -0.711   8.565 -0.0703 -0.6804  0.2971
  150MOL0     C20594   5.604  -0.784   8.507  0.4926 -0.1927  0.7633
  150MOL0     C20595   5.597  -0.798   8.376 -0.1066 -0.4959  0.5743
  150MOL0     C20596   5.683  -0.881   8.306 -0.1508 -0.3142 -0.3482
  150MOL0     C20597   5.769  -0.969   8.390 -0.2324  0.4722  0.2823
  150MOL0     O20598   5.842  -1.070   8.326  0.5261  0.4856 -0.7064
  150MOL0     C20599   5.805  -1.204   8.373  0.9848 -0.2346  0.3096
  150MOL0     C20600   5.802  -1.290   8.257  0.2494  0.1297  1.1313
  150MOL0     C20601   5.771  -1.434   8.292  0.4311 -0.4764 -0.5437
  150MOL0     C20602   5.886  -1.528   8.319 -1.7144  0.1753  0.1860
  150MOL0     C20603   5.828  -1.665   8.310 -0.4479 -0.6321 -0.1317
  150MOL0     C20604   5.940  -1.759   8.353 -0.6110  1.0703  0.6683
  150MOL0     C20605   5.908  -1.902   8.310  0.0712  0.3436 -0.1730
  150MOL0     C20606   5.926  -1.934   8.156 -0.9953 -0.8053  0.4762
  150MOL0    Cl20607   6.093  -1.959   8.101  0.1965 -0.3407 -0.3221
  150MOL0     C20608   5.780  -0.953   8.530 -0.4499 -0.7846  1.4105
  150MOL0     C20609   5.694  -0.857   8.589  0.4228  1.1596  0.3933
  150MOL0     O20610   5.654  -0.532   8.585 -0.4857  0.4612 -0.2284
  150MOL0     C20611   5.458  -0.352   8.642  0.0811 -0.0542  0.5777
  150MOL0     C20612   5.373  -0.255   8.696 -0.8307 -0.5331 -0.3173
  150MOL0     N20613   5.007   0.335   8.823  0.4810  0.7071  0.9115
  150MOL0     N20614   4.985   0.460   8.821  0.0687 -0.6949  0.0367
  150MOL0     C20615   5.103   0.429   7.902 -0.3287  0.3117  0.0330
  150MOL0     C20616   5.145   0.309   7.852 -0.5360  0.9845 -0.7127
  150MOL0     C20617   5.222  -0.091   7.639  0.4085  0.0419 -0.3773
  150MOL0     C20618   5.271  -0.127   7.511  0.0114 -0.5032  0.1009
  150MOL0     C20619   5.356  -0.235   7.476  0.3274 -0.0395 -0.3175
  150MOL0     C20620   5.393  -0.319   7.583  0.3475 -0.3839 -0.4212
  150MOL0     O20621   5.477  -0.419   7.544 -0.8130  0.0829  0.2038
  150MOL0     C20622   5.421  -0.560   7.544 -0.0808 -0.5791  0.1207
  150MOL0     C20623   5.272  -0.567   7.513 -0.8712  0.3806 -0.1910
  150MOL0     C20624   5.235  -0.725   7.511 -0.7668 -0.2925  0.6389
  150MOL0     C20625   5.091  -0.738   7.458  0.5118  0.3612 -0.0370
  150MOL0     C20626   4.989  -0.719   7.550  1.1422 -0.5792  0.2236
  150MOL0     C20627   4.876  -0.700   7.598  0.4841  0.7893 -0.0451
  150MOL0     C20628   5.350  -0.295   7.713 -0.4101 -0.5200 -0.5410
  150MOL0     C20629   5.262  -0.185   7.740  0.0963  0.6426 -0.0161
  150MOL0     C20630   5.228  -0.154   7.883  0.6136 -0.0352  0.3202
  150MOL0     H20631   5.018   0.312   7.543 -3.6552  2.1255 -0.1824
  150MOL0     H20632   4.943   0.555   7.631  1.1331  2.7261  0.5527
  150MOL0     H20633   4.981   0.816   7.947  1.3546  0.9292  0.3837
  150MOL0     H20634   5.118   0.701   7.963 -0.3273  2.1611  0.1611
  150MOL0     H20635   4.843   0.674   8.093  0.1642  1.9885 -0.2251
  150MOL0     H20636   4.968   0.559   8.115 -2.6484  0.2788  1.8197
  150MOL0     H20637   5.105   0.780   8.209  1.9715 -4.6457  4.3366
  150MOL0     H20638   4.953   0.854   8.208  5.0008  2.3830  2.5653
  150MOL0     H20639   4.853   0.667   8.331 -0.4647  1.8264  2.5190
  150MOL0     H20640   5.011   0.597   8.346 -3.7066 -1.3558  1.7527
  150MOL0     H20641   4.900   0.857   8.463  0.1670  1.2118 -0.6606
  150MOL0     H20642   5.073   0.835   8.475 -0.6531  2.1129  0.4243
  150MOL0     H20643   5.019   0.618   8.613  1.0601  1.1100  1.0159
  150MOL0     H20644   4.969   0.762   8.688 -1.5061 -1.5158  1.6834
  150MOL0     H20645   4.780   0.603   8.537 -1.9120  1.8999 -0.6263
  150MOL0     H20646   4.735   0.749   8.626 -0.5544  0.0466 -0.1340
  150MOL0     H20647   4.827   0.661   8.833 -1.8360  0.3543  0.7423
  150MOL0     H20648   4.686   0.578   8.764 -0.6694  0.7500 -0.0329
  150MOL0     H20649   4.756   0.338   8.621  0.9183 -0.1998  0.1622
  150MOL0     H20650   4.958   0.087   8.637 -0.5092  0.6954 -1.1225
  150MOL0     H20651   4.783   0.118   8.685 -0.4810 -1.2566  1.0412
  150MOL0     H20652   4.859   0.072   8.917  1.1183  1.7389 -0.8942
  150MOL0     H20653   4.862  -0.067   8.805  0.2238 -0.6542  0.6336
  150MOL0     H20654   5.097   0.114   8.880 -3.6610  0.7181 -0.0406
  150MOL0     H20655   5.068  -0.027   8.979  1.2697  0.3491  0.3561
  150MOL0     H20656   5.101  -0.029   8.685 -4.0350 -1.2759  0.5781
  150MOL0     H20657   5.247  -0.024   8.790  0.2591  1.2158 -1.3758
  150MOL0     H20658   5.122  -0.460   8.774  0.2681  0.6982 -0.2530
  150MOL0     H20659   5.164  -0.684   8.747  1.0040  0.7139  2.4088
  150MOL0     H20660   5.326  -0.734   8.766  1.4315 -0.0696 -1.1280
  150MOL0     H20661   5.265  -0.714   8.603 -1.6635  1.2061  0.0260
  150MOL0     H20662   5.525  -0.733   8.327 -0.0201  1.8833  3.3494
  150MOL0     H20663   5.672  -0.903   8.200 -0.0922 -2.2880  0.0087
  150MOL0     H20664   5.871  -1.245   8.449  0.5956 -2.8504 -0.6350
  150MOL0     H20665   5.702  -1.202   8.409  1.8173 -0.4335  2.8601
  150MOL0     H20666   5.724  -1.249   8.193  0.5824  1.6204  1.6350
  150MOL0     H20667   5.905  -1.285   8.219  0.6393 -0.8409  2.0255
  150MOL0     H20668   5.737  -1.471   8.195  2.0427 -3.3221 -0.1522
  150MOL0     H20669   5.706  -1.442   8.380 -1.6318  3.2765 -1.5369
  150MOL0     H20670   5.924  -1.510   8.421  1.1916 -1.2049 -0.5423
  150MOL0     H20671   5.967  -1.531   8.246 -0.2954 -0.5316  1.7138
  150MOL0     H20672   5.737  -1.675   8.369  0.2581  3.2807  1.9089
  150MOL0     H20673   5.793  -1.679   8.207 -1.4054 -0.2743  0.1431
  150MOL0     H20674   5.950  -1.768   8.461 -0.6487 -0.8259  0.5511
  150MOL0     H20675   6.038  -1.726   8.316  1.7701 -3.3524  2.2066
  150MOL0     H20676   5.805  -1.920   8.342  0.0213 -1.5350 -1.2023
  150MOL0     H20677   5.965  -1.980   8.360 -0.6490  0.0393  0.1920
  150MOL0     H20678   5.897  -1.839   8.111  2.6562  0.2086 -0.0671
  150MOL0     H20679   5.860  -2.014   8.119 -1.5858 -0.7690  1.4169
  150MOL0     H20680   5.862  -1.004   8.580  2.2291  0.2336 -1.5732
  150MOL0     H20681   5.686  -0.831   8.694 -1.8739  1.4735  0.2046
  150MOL0     H20682   5.551  -0.303   8.614 -1.4305  1.5416 -2.1307
  150MOL0     H20683   5.393  -0.149   8.684 -0.9298 -0.1106  2.4981
  150MOL0     H20684   5.127   0.461   8.003 -0.6278  2.1973 -0.4571
  150MOL0     H20685   5.209   0.249   7.915 -3.1641 -2.4806 -1.0331
  150MOL0     H20686   5.240  -0.069   7.425 -2.3594 -3.8333 -1.5323
  150MOL0     H20687   5.388  -0.261   7.376  0.5174 -1.8014  0.1581
  150MOL0     H20688   5.478  -0.600   7.460  1.2847 -2.2855  1.7713
  150MOL0     H20689   5.448  -0.621   7.631 -0.1986 -1.6501 -0.5764
  150MOL0     H20690   5.249  -0.526   7.414  3.3994 -0.0149 -1.5578
  150MOL0     H20691   5.208  -0.514   7.584 -1.4795  1.5213 -1.5283
  150MOL0     H20692   5.305  -0.767   7.438  1.6882  3.9540  0.2362
  150MOL0     H20693   5.252  -0.777   7.605  0.3356  1.5445  1.4994
  150MOL0     H20694   5.093  -0.841   7.421  1.4303  0.2623  0.2554
  150MOL0     H20695   5.084  -0.673   7.370  2.2234  1.0046  0.2588
  150MOL0     H20696   4.784  -0.674   7.647 -0.2103 -1.4731 -0.0295
  150MOL0     H20697   5.395  -0.354   7.792  2.8705  0.5129 -1.4600
  150MOL0     H20698   5.298  -0.074   7.911 -1.4303  1.6534  0.8904
  150MOL0     H20699   5.129  -0.108   7.888 -0.3634 -1.6455 -2.3892
  150MOL0     H20700   5.247  -0.234   7.955  0.4052 -1.1328 -0.8197
  151MOL0     O20701   9.343   9.274   3.953 -0.0968 -0.1883  0.5913
  151MOL0     C20702   9.244   9.323   4.010  0.3752 -0.1778 -0.4413
  151MOL0     O20703   9.141   9.384   3.944  0.2641  0.2306  0.6079
  151MOL0     C20704   9.180   9.465   3.838  0.5514 -0.0886  0.4528
  151MOL0     C20705   9.103   9.457   3.710  0.0505 -0.4368 -0.6344
  151MOL0     C20706   9.123   9.551   3.602  0.6951 -0.5594 -0.7725
  151MOL0     C20707   9.223   9.651   3.616  0.2023  0.7372  0.6142
  151MOL0     O20708   9.233   9.753   3.525  0.2458  0.5242 -0.5008
  151MOL0     C20709   9.307   9.734   3.409  0.3112  0.6131  0.0497
  151MOL0     C20710   9.257   9.827   3.301 -0.1372 -0.1301  0.0630
  151MOL0     C20711   9.255   9.977   3.350  0.5463  0.1665  0.0588
  151MOL0     C20712   9.399  10.040   3.381 -0.7248 -0.2795 -0.1419
  151MOL0     C20713   9.394  10.123   3.510  0.8477 -0.5780 -0.0822
  151MOL0     C20714   9.330  10.268   3.492  0.3057 -0.4052 -0.2138
  151MOL0     C20715   9.347  10.350   3.620  0.0508 -0.1990  0.1990
  151MOL0     C20716   9.460  10.454   3.616 -0.5984 -0.0492 -0.1508
  151MOL0     N20717   9.448  10.558   3.518 -0.4463 -0.2040 -0.1881
  151MOL0     C20718   9.475  10.544   3.382  0.7402 -0.8807 -0.4149
  151MOL0     C20719   9.443  10.667   3.323  0.5926 -0.7343 -0.3237
  151MOL0     C20720   9.463  10.724   3.182  0.6958  0.1805  0.6435
  151MOL0     C20721   9.360  10.671   3.086 -0.0026  0.1194 -0.5892
  151MOL0     C20722   9.355  10.515   3.068  0.3211 -1.0268  0.5639
  151MOL0     C20723   9.257  10.477   2.952  0.6071  0.3898 -0.2611
  151MOL0     O20724   9.252  10.332   2.946 -0.9678  0.6559 -0.0542
  151MOL0     C20725   9.148  10.254   3.002 -0.5871 -1.1318 -0.1633
  151MOL0     C20726   9.110  10.154   2.919  0.5023  0.4885 -0.2293
  151MOL0     C20727   8.999  10.071   2.963 -0.8615 -0.2324  0.1586
  151MOL0     C20728   8.947   9.961   2.863 -0.3341  0.1616 -0.6598
  151MOL0     C20729   8.933  10.102   3.088 -1.2359 -0.1458 -0.5588
  151MOL0     C20730   8.822  10.029   3.142  0.7452  0.5164  0.3470
  151MOL0     O20731   8.739   9.973   3.048 -0.7360  0.8596  0.1428
  151MOL0     C20732   8.637   9.891   3.086 -0.1879 -0.0587  0.3737
  151MOL0     C20733   8.654   9.780   3.172 -0.1120  0.3964 -0.6939
  151MOL0     C20734   8.546   9.690   3.196  0.3411 -0.3693 -1.0899
  151MOL0     C20735   8.417   9.718   3.145  0.2122 -0.5623  0.5075
  151MOL0     O20736   8.315   9.627   3.160  0.2732 -0.5724  0.5697
  151MOL0     C20737   8.202   9.642   3.075  0.7544 -0.6597  0.1903
  151MOL0     C20738   8.093   9.539   3.103 -0.9860  0.8160  0.2791
  151MOL0     C20739   7.979   9.583   3.014  0.7489 -0.3189 -0.6678
  151MOL0     C20740   7.919   9.467   2.940  0.3491 -0.3960 -0.7581
  151MOL0     C20741   7.823   9.530   2.843  0.6525  0.2482 -0.3786
  151MOL0     C20742   7.778   9.427   2.741 -0.3275  0.8471  0.1502
  151MOL0     C20743   7.662   9.468   2.660  0.5239 -0.5760  0.0881
  151MOL0     C20744   7.694   9.599   2.588  0.4297  0.0047  0.1646
  151MOL0    Cl20745   7.842   9.637   2.523 -0.7925 -0.9042  0.3747
  151MOL0     C20746   8.404   9.844   3.075  0.0467 -0.0316 -0.1135
  151MOL0     C20747   8.515   9.920   3.033  0.9181  0.4879  0.5501
  151MOL0     O20748   8.815  10.015   3.264  0.3644  0.1016  0.2108
  151MOL0     C20749   8.979  10.215   3.163  0.5534 -0.8817 -0.2385
  151MOL0     C20750   9.081  10.291   3.118 -0.4436  0.9613  0.5734
  151MOL0     N20751   9.402  10.751   3.425  0.4110  0.3527  0.2585
  151MOL0     N20752   9.418  10.689   3.548  0.2178  0.0047  0.1762
  151MOL0     C20753   9.296   9.657   3.738  0.0566  0.2906 -0.1319
  151MOL0     C20754   9.278   9.560   3.842 -1.4722 -0.0728 -0.1608
  151MOL0     C20755   9.243   9.302   4.155  0.6575  0.4575 -0.2566
  151MOL0     C20756   9.185   9.412   4.230  0.1592  0.4212 -0.3995
  151MOL0     C20757   9.194   9.426   4.366 -0.0478 -0.4072  0.4266
  151MOL0     C20758   9.274   9.341   4.433  0.2878  1.4148  0.1475
  151MOL0     O20759   9.305   9.353   4.567  0.1847 -0.1581  0.2851
  151MOL0     C20760   9.179   9.354   4.644  0.1844  0.1787 -0.4016
  151MOL0     C20761   9.190   9.251   4.755 -0.7471  1.3949  1.0996
  151MOL0     C20762   9.054   9.242   4.845 -0.2278 -0.2014  0.1995
  151MOL0     C20763   9.065   9.169   4.974 -0.0063 -0.1286 -0.3141
  151MOL0     C20764   9.169   9.239   5.055  0.1933 -0.4311 -0.9183
  151MOL0     C20765   9.253   9.291   5.129 -0.2833  0.2365  0.1154
  151MOL0     C20766   9.334   9.233   4.363  0.3778 -0.0252 -1.0718
  151MOL0     C20767   9.313   9.207   4.223 -0.9855  0.7468 -0.3498
  151MOL0     C20768   9.360   9.080   4.161 -0.0014  0.4701  0.1791
  151MOL0     H20769   9.018   9.390   3.719 -0.2923 -0.2757 -2.4205
  151MOL0     H20770   9.066   9.539   3.511  0.6861  1.6228 -1.1045
  151MOL0     H20771   9.294   9.633   3.370  2.0414  1.6199 -3.5312
  151MOL0     H20772   9.414   9.748   3.428  0.4583 -0.0106 -0.2737
  151MOL0     H20773   9.319   9.823   3.211 -0.1404 -0.2039  0.0631
  151MOL0     H20774   9.161   9.790   3.265  0.0970  1.2395 -2.2092
  151MOL0     H20775   9.214  10.053   3.283  0.7019  1.7186  1.6544
  151MOL0     H20776   9.196   9.994   3.440  2.2463  1.5817  0.9637
  151MOL0     H20777   9.473   9.962   3.401 -0.8411 -1.0575 -2.4286
  151MOL0     H20778   9.440  10.094   3.295 -0.2283 -0.3979  0.0155
  151MOL0     H20779   9.498  10.137   3.540  0.9507 -2.8739  0.8926
  151MOL0     H20780   9.356  10.074   3.601  0.4416  1.1195  0.7103
  151MOL0     H20781   9.361  10.311   3.396  1.0829  2.8488  1.3830
  151MOL0     H20782   9.222  10.247   3.490 -0.1761  1.3967  2.2649
  151MOL0     H20783   9.379  10.282   3.699 -0.4503  1.7417  2.1752
  151MOL0     H20784   9.258  10.405   3.650 -1.4156 -3.8251  3.3097
  151MOL0     H20785   9.472  10.510   3.709 -0.5887  3.4075 -2.0949
  151MOL0     H20786   9.562  10.415   3.602 -0.0539  1.2580  0.0796
  151MOL0     H20787   9.534  10.463   3.340 -2.1773 -2.0794 -2.5406
  151MOL0     H20788   9.561  10.684   3.155 -0.4586 -1.8806 -0.7093
  151MOL0     H20789   9.454  10.833   3.187 -2.0504  0.0144  0.4219
  151MOL0     H20790   9.264  10.708   3.123 -0.0850  1.6389 -2.1796
  151MOL0     H20791   9.367  10.717   2.987 -3.7465 -1.3417 -1.6984
  151MOL0     H20792   9.455  10.491   3.031 -0.3952 -0.3837 -1.9973
  151MOL0     H20793   9.342  10.459   3.162 -0.0277 -0.5016  0.8315
  151MOL0     H20794   9.154  10.511   2.968  0.6067  0.2243  0.0928
  151MOL0     H20795   9.286  10.529   2.860  0.9156 -0.1086 -0.4442
  151MOL0     H20796   9.161  10.137   2.825 -0.1646  1.7186 -0.8458
  151MOL0     H20797   9.004   9.969   2.769  0.2230 -0.6229 -0.4094
  151MOL0     H20798   8.842   9.975   2.835 -0.5735 -1.0482 -0.4297
  151MOL0     H20799   8.972   9.858   2.892 -1.0816  0.1282 -0.1183
  151MOL0     H20800   8.747   9.754   3.220 -0.5147  0.5324  0.1661
  151MOL0     H20801   8.567   9.606   3.262 -0.1852 -0.5091 -1.0974
  151MOL0     H20802   8.155   9.738   3.097 -2.7602 -2.4707  1.2657
  151MOL0     H20803   8.239   9.642   2.972 -0.3430 -2.1845 -0.2301
  151MOL0     H20804   8.137   9.442   3.076  0.8109  1.6703 -0.0110
  151MOL0     H20805   8.067   9.533   3.210 -0.9838 -1.6629  0.2055
  151MOL0     H20806   8.013   9.654   2.938 -0.9091 -1.9481 -3.1149
  151MOL0     H20807   7.911   9.642   3.076  1.5992  0.5372 -0.5264
  151MOL0     H20808   7.882   9.393   3.011  0.7702  0.8140  0.7865
  151MOL0     H20809   8.004   9.422   2.887  2.8576  0.9837  1.7929
  151MOL0     H20810   7.732   9.567   2.890  0.7106  0.2905 -0.2997
  151MOL0     H20811   7.873   9.607   2.784 -0.5747  0.1283 -1.6448
  151MOL0     H20812   7.761   9.326   2.780  1.2715 -0.1140 -1.4759
  151MOL0     H20813   7.861   9.405   2.674 -1.9921 -2.8191 -0.9426
  151MOL0     H20814   7.565   9.477   2.711  0.6060  0.4678  0.0905
  151MOL0     H20815   7.647   9.392   2.583 -0.3405 -1.6145  1.2300
  151MOL0     H20816   7.673   9.684   2.654  2.2018  4.8407 -4.7181
  151MOL0     H20817   7.617   9.605   2.510  0.1739 -0.3872  0.3869
  151MOL0     H20818   8.303   9.875   3.049 -0.6879 -2.1146  0.1124
  151MOL0     H20819   8.499  10.014   2.980 -2.4869 -0.6849 -0.7910
  151MOL0     H20820   8.937  10.258   3.254 -1.0922  0.0522 -1.3855
  151MOL0     H20821   9.112  10.387   3.159  0.1554  1.9008 -1.8706
  151MOL0     H20822   9.368   9.738   3.741  1.5965 -0.9637 -1.4653
  151MOL0     H20823   9.342   9.567   3.929  2.8676 -0.8467 -3.0087
  151MOL0     H20824   9.135   9.484   4.167  1.8580  1.1763 -0.9404
  151MOL0     H20825   9.160   9.515   4.419  1.6203  1.3001 -1.2012
  151MOL0     H20826   9.159   9.450   4.693 -0.5037 -1.1219  2.0207
  151MOL0     H20827   9.090   9.327   4.586  2.7480 -3.9257 -2.8910
  151MOL0     H20828   9.277   9.272   4.818  1.7134 -3.2223 -0.3056
  151MOL0     H20829   9.222   9.165   4.696 -0.4811  3.6537 -2.3396
  151MOL0     H20830   9.023   9.339   4.885 -2.0958 -1.3823  1.7867
  151MOL0     H20831   8.973   9.187   4.798  0.1944  0.6430 -1.6325
  151MOL0     H20832   9.095   9.068   4.945 -0.1536 -0.1306 -0.4604
  151MOL0     H20833   8.973   9.178   5.034  0.7758 -0.9545  1.0695
  151MOL0     H20834   9.322   9.330   5.201  1.2234 -0.2918 -1.0006
  151MOL0     H20835   9.386   9.159   4.424  0.3544  1.0720  0.3252
  151MOL0     H20836   9.369   8.988   4.219  0.8363 -0.1666 -0.9204
  151MOL0     H20837   9.317   9.058   4.063  1.2360  3.1116 -1.0841
  151MOL0     H20838   9.467   9.094   4.144 -0.2952  1.9469 -0.6665
  152MOL0     O20839   0.802   5.411   8.057 -0.0239 -0.3680 -0.1728
  152MOL0     C20840   0.745   5.484   7.973 -0.7530 -0.3789 -0.7903
  152MOL0     O20841   0.785   5.503   7.848 -1.3965 -0.0906  0.1123
  152MOL0     C20842   0.921   5.503   7.850 -0.3390 -1.0357  0.0214
  152MOL0     C20843   0.980   5.389   7.800 -1.2496 -0.1505 -0.4601
  152MOL0     C20844   1.125   5.386   7.760  0.7535 -0.2969 -0.1704
  152MOL0     C20845   1.196   5.501   7.801 -1.2756 -0.3127 -0.7090
  152MOL0     O20846   1.338   5.508   7.780 -0.6397 -0.1979  1.4023
  152MOL0     C20847   1.399   5.400   7.700 -0.5192 -0.4901 -0.6561
  152MOL0     C20848   1.437   5.273   7.781 -0.0830  0.0845  0.1924
  152MOL0     C20849   1.440   5.134   7.717 -0.2020 -1.1156 -0.0379
  152MOL0     C20850   1.582   5.088   7.688 -0.1437  0.6769  0.8290
  152MOL0     C20851   1.575   4.960   7.604 -0.5417 -0.1949  0.1133
  152MOL0     C20852   1.704   4.874   7.602  0.4403  0.7756 -0.6351
  152MOL0     C20853   1.818   4.950   7.537 -0.5212 -0.6982 -0.1608
  152MOL0     C20854   1.958   4.874   7.528  0.0001 -0.1648  0.7810
  152MOL0     N20855   1.947   4.773   7.427  0.6085 -0.4797  0.2204
  152MOL0     C20856   1.939   4.803   7.292 -1.5077 -0.4731  0.5702
  152MOL0     C20857   1.944   4.678   7.228 -0.2595 -0.1615  0.5979
  152MOL0     C20858   1.921   4.677   7.075 -0.4891 -0.3692  0.8471
  152MOL0     C20859   1.768   4.642   7.065  0.2198  0.0147  1.0020
  152MOL0     C20860   1.746   4.486   7.071  0.2984  0.5313  0.0903
  152MOL0     C20861   1.617   4.447   6.987 -0.6661  0.2351 -0.7964
  152MOL0     O20862   1.502   4.500   7.055 -1.0983 -0.1212  0.1968
  152MOL0     C20863   1.378   4.456   7.018  1.1989 -0.0109  0.7349
  152MOL0     C20864   1.280   4.497   7.099  0.1690  0.3099 -0.9991
  152MOL0     C20865   1.148   4.458   7.063 -0.9002 -0.9412  0.5278
  152MOL0     C20866   1.052   4.531   7.152  0.8710  0.2298 -0.0463
  152MOL0     C20867   1.110   4.371   6.958  0.2578 -1.0510 -0.7447
  152MOL0     C20868   0.968   4.347   6.920  0.0154 -0.3385 -0.6625
  152MOL0     O20869   0.868   4.440   6.953  0.2793  0.3011  0.5029
  152MOL0     C20870   0.737   4.400   6.953 -0.2417  0.7155 -0.8594
  152MOL0     C20871   0.676   4.275   6.915 -0.7302 -0.2027  0.5440
  152MOL0     C20872   0.541   4.246   6.935  0.5852 -0.3564 -0.7444
  152MOL0     C20873   0.460   4.340   7.006  0.2167  0.4706  0.9434
  152MOL0     O20874   0.332   4.307   7.043  1.3057 -1.0899 -0.2227
  152MOL0     C20875   0.320   4.288   7.181  1.0444 -0.1705 -0.9079
  152MOL0     C20876   0.170   4.241   7.213  0.3884 -0.3623 -0.3102
  152MOL0     C20877   0.150   4.195   7.359 -0.0646  0.1028 -0.3001
  152MOL0     C20878   0.020   4.116   7.372 -1.2634 -0.3448  0.0399
  152MOL0     C20879   0.019   4.064   7.516  1.0167  0.0035  1.2595
  152MOL0     C20880  -0.042   3.921   7.526 -1.2300 -0.3395  0.0570
  152MOL0     C20881  -0.003   3.857   7.664 -0.0865  0.9733  0.4081
  152MOL0     C20882  -0.045   3.713   7.686 -1.0742 -0.4825 -0.7470
  152MOL0    Cl20883  -0.216   3.695   7.701  0.1800  0.1826 -0.2066
  152MOL0     C20884   0.518   4.463   7.043  1.1103 -1.4574 -0.7195
  152MOL0     C20885   0.648   4.492   7.010  0.5556 -0.8833  0.8024
  152MOL0     O20886   0.946   4.235   6.878 -0.3473  0.7780 -0.1005
  152MOL0     C20887   1.219   4.316   6.888  0.0188  0.0276  0.0912
  152MOL0     C20888   1.349   4.358   6.921 -0.5218  0.0415 -0.0120
  152MOL0     N20889   1.951   4.579   7.321 -0.2759  0.3902  0.0602
  152MOL0     N20890   1.954   4.636   7.440 -0.5597 -0.8021 -0.5914
  152MOL0     C20891   1.128   5.609   7.860  0.3654  0.2178  1.4194
  152MOL0     C20892   0.990   5.616   7.883 -0.4054  0.3772 -0.3816
  152MOL0     C20893   0.615   5.539   8.013 -0.2949  0.7538  0.6739
  152MOL0     C20894   0.551   5.460   8.107  1.0928  0.2161 -0.1124
  152MOL0     C20895   0.433   5.506   8.155  0.1909  0.7365  0.3501
  152MOL0     C20896   0.363   5.613   8.103  0.8868  0.2431 -0.4250
  152MOL0     O20897   0.229   5.634   8.128 -1.0639 -0.3098 -0.1064
  152MOL0     C20898   0.177   5.600   8.256 -0.8008 -0.8468 -1.0414
  152MOL0     C20899   0.058   5.694   8.275  0.5198  0.8471  0.2273
  152MOL0     C20900   0.083   5.840   8.268  0.6730  0.9290  0.0123
  152MOL0     C20901   0.148   5.900   8.385 -0.7409  0.1320 -0.1426
  152MOL0     C20902   0.098   5.874   8.517  0.1779  0.6997 -0.6965
  152MOL0     C20903   0.043   5.844   8.623 -0.2263 -0.0449 -0.1871
  152MOL0     C20904   0.421   5.683   8.005 -1.1326  0.3643  1.1034
  152MOL0     C20905   0.546   5.650   7.950 -0.1731  0.0743 -0.8505
  152MOL0     C20906   0.598   5.737   7.833 -0.8425 -0.1240  0.6334
  152MOL0     H20907   0.915   5.309   7.767 -3.0118 -0.2742  2.8531
  152MOL0     H20908   1.157   5.304   7.696  2.2923 -2.4631  3.1245
  152MOL0     H20909   1.498   5.434   7.669 -1.0627 -0.1880 -2.1368
  152MOL0     H20910   1.348   5.381   7.605 -0.7951 -2.2433 -0.1870
  152MOL0     H20911   1.525   5.299   7.841  0.7974  1.7324 -1.6737
  152MOL0     H20912   1.354   5.265   7.851 -1.6878 -0.4240 -1.6807
  152MOL0     H20913   1.389   5.064   7.784 -0.3182 -1.7374 -0.7629
  152MOL0     H20914   1.377   5.137   7.628 -0.9269 -0.9157  0.4783
  152MOL0     H20915   1.633   5.171   7.639 -4.4077  2.5418 -0.9016
  152MOL0     H20916   1.634   5.063   7.781 -1.2344  0.7281  1.4688
  152MOL0     H20917   1.549   4.992   7.503  0.5336  0.9316  0.1651
  152MOL0     H20918   1.490   4.901   7.638 -1.0610  1.1084  1.2026
  152MOL0     H20919   1.724   4.846   7.706 -2.3581  2.4633  0.4516
  152MOL0     H20920   1.694   4.783   7.542 -0.3713 -0.3675  1.1229
  152MOL0     H20921   1.825   5.033   7.608 -3.0771 -2.0950  1.8790
  152MOL0     H20922   1.779   4.999   7.446 -0.3900  1.0147  0.6623
  152MOL0     H20923   2.038   4.947   7.511  0.3468 -0.4929  0.9743
  152MOL0     H20924   1.979   4.821   7.622  0.5847  1.8614  1.8441
  152MOL0     H20925   1.932   4.898   7.240  3.8603 -0.0705 -0.0067
  152MOL0     H20926   1.987   4.601   7.034 -0.9848 -0.9411  1.0917
  152MOL0     H20927   1.949   4.775   7.036  0.0208 -0.0050  2.1058
  152MOL0     H20928   1.708   4.693   7.141  1.4334  2.5108  0.4003
  152MOL0     H20929   1.737   4.678   6.966  0.4294 -1.9676  0.1676
  152MOL0     H20930   1.835   4.443   7.024 -1.0201  2.2921 -4.5383
  152MOL0     H20931   1.728   4.458   7.175  1.1202  2.6318  0.8667
  152MOL0     H20932   1.624   4.473   6.881  1.6539 -1.5057 -1.1535
  152MOL0     H20933   1.605   4.338   6.979  0.2114  0.0981 -0.4239
  152MOL0     H20934   1.306   4.574   7.171 -1.2944  1.4774 -1.6919
  152MOL0     H20935   0.989   4.467   7.214  0.0117 -0.2225 -1.3386
  152MOL0     H20936   0.993   4.591   7.082 -0.2420  1.4315  1.8247
  152MOL0     H20937   1.105   4.597   7.221  2.0773 -0.2929 -0.4505
  152MOL0     H20938   0.719   4.195   6.855 -3.8210 -1.9871  0.4796
  152MOL0     H20939   0.507   4.157   6.883  2.4716 -3.3394  2.6102
  152MOL0     H20940   0.392   4.214   7.217  0.8640  0.1219  0.0710
  152MOL0     H20941   0.360   4.368   7.243  1.6720  0.1152 -1.6595
  152MOL0     H20942   0.097   4.321   7.194  1.9594  1.3587  0.6247
  152MOL0     H20943   0.135   4.164   7.143  2.0064 -0.6908 -0.7863
  152MOL0     H20944   0.148   4.280   7.428  2.7708  0.8695 -1.0103
  152MOL0     H20945   0.239   4.136   7.382 -1.6201 -2.0822  0.4619
  152MOL0     H20946   0.018   4.029   7.306 -0.2990  0.6552 -1.3601
  152MOL0     H20947  -0.058   4.190   7.350  0.6184  1.0181 -2.6410
  152MOL0     H20948   0.113   4.061   7.572  0.3282 -3.3961  2.5163
  152MOL0     H20949  -0.053   4.129   7.568  1.9070  2.3161 -0.2866
  152MOL0     H20950   0.002   3.863   7.445  1.3628 -1.6142  2.2259
  152MOL0     H20951  -0.151   3.933   7.523 -1.6369 -3.2065  0.7126
  152MOL0     H20952  -0.046   3.918   7.743 -0.7809  0.4265  0.4606
  152MOL0     H20953   0.105   3.870   7.675  0.6221 -1.9221 -1.8487
  152MOL0     H20954  -0.005   3.688   7.785 -2.6936  1.6430  0.5155
  152MOL0     H20955  -0.003   3.658   7.601 -1.9511  2.4825 -3.2468
  152MOL0     H20956   0.458   4.533   7.100  1.0873 -1.0770 -1.2020
  152MOL0     H20957   0.697   4.583   7.045  0.7462 -0.0162 -1.5671
  152MOL0     H20958   1.204   4.245   6.807  0.1372 -0.6436  0.6534
  152MOL0     H20959   1.421   4.313   6.853 -0.1391 -0.8283  0.9540
  152MOL0     H20960   1.183   5.701   7.880 -0.5728  1.3595 -0.9571
  152MOL0     H20961   0.950   5.704   7.934 -0.3608 -0.2383  0.7467
  152MOL0     H20962   0.589   5.362   8.133  0.3157 -0.0680 -0.0280
  152MOL0     H20963   0.376   5.442   8.221  0.6714  0.7251  0.7522
  152MOL0     H20964   0.161   5.491   8.257  1.2631 -1.1996  0.2307
  152MOL0     H20965   0.257   5.612   8.329 -0.3991 -0.7526 -1.4956
  152MOL0     H20966   0.016   5.670   8.373 -0.8167 -1.3818 -0.8136
  152MOL0     H20967  -0.014   5.656   8.203  2.2242  2.2118 -2.3403
  152MOL0     H20968   0.139   5.849   8.174 -0.6167  0.9729 -0.7779
  152MOL0     H20969  -0.015   5.887   8.253 -0.1096 -0.6372 -0.0171
  152MOL0     H20970   0.165   6.006   8.367  1.6698 -0.4492 -1.7843
  152MOL0     H20971   0.251   5.863   8.374 -1.1725 -1.0756 -0.2891
  152MOL0     H20972  -0.004   5.834   8.719 -1.0786  2.2733 -0.2859
  152MOL0     H20973   0.369   5.760   7.949 -0.8194 -2.2439 -3.2413
  152MOL0     H20974   0.540   5.727   7.741 -0.4172  0.9811  0.2414
  152MOL0     H20975   0.591   5.844   7.854  0.4951 -0.0756  0.9105
  152MOL0     H20976   0.701   5.717   7.803 -0.3427 -1.0249  2.7175
  153MOL0     O20977   0.143   9.844   8.573 -0.2568 -0.6242 -1.3060
  153MOL0     C20978   0.070   9.759   8.611 -0.7084  0.4662  0.2125
  153MOL0     O20979  -0.063   9.774   8.622  0.1591 -0.2849 -0.1209
  153MOL0     C20980  -0.119   9.895   8.619  0.3313  0.6948 -0.6330
  153MOL0     C20981  -0.061   9.997   8.697 -0.6287  0.5966  0.0860
  153MOL0     C20982  -0.116  10.125   8.701 -0.2931  0.7407  0.2727
  153MOL0     C20983  -0.240  10.149   8.640 -0.1675 -0.0145 -0.6141
  153MOL0     O20984  -0.307  10.270   8.645 -0.3207  0.1996 -0.2015
  153MOL0     C20985  -0.282  10.368   8.751  0.1039  0.8008 -0.7245
  153MOL0     C20986  -0.332  10.508   8.730  0.3621 -1.3334 -0.3173
  153MOL0     C20987  -0.299  10.597   8.857  1.4667 -0.4544 -1.2345
  153MOL0     C20988  -0.324  10.751   8.817 -0.5515  0.2942  0.2455
  153MOL0     C20989  -0.426  10.811   8.914 -0.0378  1.1139 -0.7950
  153MOL0     C20990  -0.523  10.904   8.858  0.6652 -0.0067  0.6744
  153MOL0     C20991  -0.548  11.023   8.955 -0.6474  0.3564 -0.8176
  153MOL0     C20992  -0.430  11.122   8.981 -0.1234 -0.0253 -0.5094
  153MOL0     N20993  -0.483  11.258   9.003  0.1679  0.9887 -0.1586
  153MOL0     C20994  -0.529  11.339   8.906  0.0013 -0.1786  0.7654
  153MOL0     C20995  -0.539  11.469   8.959 -0.0666  0.5102 -0.2110
  153MOL0     C20996  -0.557  11.603   8.902  0.0230 -0.0923 -0.1858
  153MOL0     C20997  -0.629  11.594   8.770  0.9880  0.2086  0.2538
  153MOL0     C20998  -0.631  11.727   8.690  0.8681 -0.3532 -1.0887
  153MOL0     C20999  -0.722  11.701   8.568  0.4053  0.2010 -0.9528
  153MOL0     O21000  -0.749  11.820   8.491  0.5796 -0.0685  0.3897
  153MOL0     C21001  -0.835  11.821   8.383  0.4898 -0.0182  0.4427
  153MOL0     C21002  -0.805  11.877   8.265 -0.0121 -0.7461 -0.2969
  153MOL0     C21003  -0.874  11.868   8.148 -0.5055 -0.0600  0.4636
  153MOL0     C21004  -0.805  11.917   8.026 -0.0061 -0.7969 -0.1991
  153MOL0     C21005  -1.000  11.808   8.148 -0.3833 -0.1205  0.6035
  153MOL0     C21006  -1.084  11.776   8.026 -0.0865 -0.3333  1.2574
  153MOL0     O21007  -1.204  11.728   8.059  0.9925  0.0950  0.5431
  153MOL0     C21008  -1.299  11.757   7.967  0.1577 -0.1746  0.2108
  153MOL0     C21009  -1.347  11.664   7.867 -0.3324  0.5614  0.1950
  153MOL0     C21010  -1.456  11.706   7.796 -0.2290 -0.1565  0.2273
  153MOL0     C21011  -1.523  11.828   7.813  0.3314 -0.3115  0.3443
  153MOL0     O21012  -1.637  11.843   7.746 -0.0864  0.1030 -0.5987
  153MOL0     C21013  -1.675  11.974   7.713 -0.8441  0.2875  0.8006
  153MOL0     C21014  -1.781  12.034   7.802 -0.7825  0.0282 -0.4402
  153MOL0     C21015  -1.841  12.151   7.728 -0.5930  0.4706  0.3124
  153MOL0     C21016  -1.852  12.151   7.577 -0.4571 -0.4132 -0.2337
  153MOL0     C21017  -1.920  12.283   7.523 -1.0356 -0.7833 -0.9691
  153MOL0     C21018  -2.038  12.245   7.430  0.2997 -0.1292  0.0931
  153MOL0     C21019  -2.163  12.214   7.528 -0.9465  0.3888 -0.1882
  153MOL0     C21020  -2.293  12.179   7.453 -0.2811 -0.9889 -0.3014
  153MOL0    Cl21021  -2.405  12.086   7.568 -0.3703 -0.4848 -0.1097
  153MOL0     C21022  -1.473  11.921   7.902  0.1238 -0.2188 -0.2927
  153MOL0     C21023  -1.366  11.879   7.980 -0.1261 -0.2893 -0.1381
  153MOL0     O21024  -1.040  11.797   7.907  0.3590 -0.3914  0.1362
  153MOL0     C21025  -1.042  11.751   8.270  0.4309  0.1859 -0.2016
  153MOL0     C21026  -0.960  11.756   8.385 -0.6608 -0.0507  0.5512
  153MOL0     N21027  -0.519  11.457   9.097 -0.3057  0.4755 -0.1589
  153MOL0     N21028  -0.486  11.331   9.123 -0.1717  0.7312 -0.0022
  153MOL0     C21029  -0.313  10.039   8.582 -0.5254 -0.0418 -0.4204
  153MOL0     C21030  -0.243   9.917   8.560  1.1230  0.1975 -0.5260
  153MOL0     C21031   0.130   9.618   8.641  0.6772  0.3650  1.1085
  153MOL0     C21032   0.049   9.538   8.720 -0.3088 -0.5516  0.1378
  153MOL0     C21033   0.108   9.414   8.757  0.8758 -0.9470  0.4256
  153MOL0     C21034   0.232   9.376   8.718  0.8582 -0.5878  0.9552
  153MOL0     O21035   0.300   9.273   8.769  0.5920  0.3220 -0.2244
  153MOL0     C21036   0.391   9.309   8.874  0.0236  0.4264 -0.1739
  153MOL0     C21037   0.471   9.194   8.942  0.4997  0.9991  1.0053
  153MOL0     C21038   0.589   9.146   8.853  0.1902  1.2064 -1.0536
  153MOL0     C21039   0.660   9.014   8.909 -0.2477 -0.1504 -0.0102
  153MOL0     C21040   0.771   8.981   8.816 -0.4401  0.6048  1.0683
  153MOL0     C21041   0.853   8.955   8.729  0.5042  0.8218 -0.4305
  153MOL0     C21042   0.303   9.454   8.630 -0.5634 -0.3486 -1.2225
  153MOL0     C21043   0.257   9.581   8.586  0.1860  0.0699 -0.0469
  153MOL0     C21044   0.345   9.662   8.496 -0.6634 -0.0052  0.5159
  153MOL0     H21045   0.035   9.978   8.743  0.2910  2.3844 -0.9961
  153MOL0     H21046  -0.059  10.198   8.758  0.7851 -0.9682  1.5191
  153MOL0     H21047  -0.175  10.371   8.774 -0.9175  1.6068  5.5288
  153MOL0     H21048  -0.329  10.330   8.842  2.6008  1.3987  0.9243
  153MOL0     H21049  -0.290  10.548   8.637 -1.2001 -1.4012 -1.0837
  153MOL0     H21050  -0.436  10.502   8.698  1.1333 -1.0327 -3.1241
  153MOL0     H21051  -0.363  10.563   8.939  1.0369 -0.8619 -1.7295
  153MOL0     H21052  -0.193  10.592   8.886  0.2659 -1.7871  3.7380
  153MOL0     H21053  -0.234  10.813   8.810  0.9888 -1.2555  3.8452
  153MOL0     H21054  -0.377  10.765   8.722  0.5311  4.0071  0.0072
  153MOL0     H21055  -0.373  10.853   9.001  0.4291  0.3273 -0.6865
  153MOL0     H21056  -0.492  10.730   8.946 -1.7212  2.2575 -1.2802
  153MOL0     H21057  -0.497  10.941   8.758  1.8625 -0.2422  0.8746
  153MOL0     H21058  -0.614  10.845   8.849  1.7161 -1.3489 -3.5893
  153MOL0     H21059  -0.560  10.984   9.057 -0.2635 -1.1284 -1.3162
  153MOL0     H21060  -0.643  11.069   8.930 -0.8584 -0.9055 -2.4924
  153MOL0     H21061  -0.372  11.090   9.067  2.3352  2.7280 -0.9893
  153MOL0     H21062  -0.358  11.121   8.899  0.9457 -0.3609  0.4220
  153MOL0     H21063  -0.532  11.306   8.803  2.8139 -0.0969  0.5882
  153MOL0     H21064  -0.462  11.656   8.891  0.1652 -0.1860  0.5503
  153MOL0     H21065  -0.622  11.652   8.976 -0.8820 -2.1097  0.4273
  153MOL0     H21066  -0.572  11.520   8.713 -0.2482 -0.5011 -0.1210
  153MOL0     H21067  -0.732  11.558   8.783  1.0294 -0.4503 -1.0998
  153MOL0     H21068  -0.684  11.798   8.755 -1.8308 -1.2922 -2.1308
  153MOL0     H21069  -0.527  11.761   8.681  0.8452 -0.4853 -1.8550
  153MOL0     H21070  -0.678  11.616   8.516  1.4882 -0.7609  1.3954
  153MOL0     H21071  -0.820  11.663   8.598  1.0302 -2.7783 -2.2822
  153MOL0     H21072  -0.718  11.942   8.261  0.9854 -2.0860 -1.5363
  153MOL0     H21073  -0.712  11.971   8.048  0.1627 -0.2100 -2.1230
  153MOL0     H21074  -0.875  11.989   7.982  0.4826 -0.6949 -0.8390
  153MOL0     H21075  -0.783  11.843   7.949 -0.0426 -1.9480  0.8771
  153MOL0     H21076  -1.293  11.570   7.856 -0.5916  0.2976  1.1041
  153MOL0     H21077  -1.500  11.634   7.727 -1.8639  0.1118  0.9566
  153MOL0     H21078  -1.586  12.035   7.702 -0.1095 -1.0628 -1.3739
  153MOL0     H21079  -1.689  11.956   7.606 -0.1476  0.6830  0.6372
  153MOL0     H21080  -1.859  11.958   7.809 -0.1805 -0.6253 -0.7827
  153MOL0     H21081  -1.735  12.070   7.894  1.7207  2.1168 -2.3579
  153MOL0     H21082  -1.782  12.242   7.745  0.5395  0.1223 -1.4852
  153MOL0     H21083  -1.938  12.169   7.776 -1.2833 -0.6808 -0.6189
  153MOL0     H21084  -1.905  12.061   7.542  3.2848 -2.4662 -1.1722
  153MOL0     H21085  -1.756  12.137   7.527 -0.6424 -2.8147 -0.0622
  153MOL0     H21086  -1.961  12.328   7.614  0.4032  0.8552 -1.0874
  153MOL0     H21087  -1.849  12.347   7.470 -0.1580 -2.2596 -1.6354
  153MOL0     H21088  -2.017  12.155   7.371 -1.2595 -3.6292  4.3257
  153MOL0     H21089  -2.048  12.338   7.373  1.6056  1.0305  1.6756
  153MOL0     H21090  -2.181  12.298   7.596  0.5398  0.6035 -0.0118
  153MOL0     H21091  -2.137  12.124   7.585 -0.4371 -0.5973 -1.9098
  153MOL0     H21092  -2.264  12.139   7.355  3.1273 -0.3044  0.3081
  153MOL0     H21093  -2.343  12.274   7.432 -0.4863 -1.7184 -3.6778
  153MOL0     H21094  -1.518  12.018   7.919 -0.1781 -0.4121  0.0318
  153MOL0     H21095  -1.328  11.941   8.059  5.0699 -2.9049 -0.1435
  153MOL0     H21096  -1.141  11.709   8.275  0.0110  1.1522 -0.1638
  153MOL0     H21097  -1.006  11.729   8.479 -4.9605  0.8491 -1.0772
  153MOL0     H21098  -0.409  10.055   8.533 -0.9438  1.5584  0.8483
  153MOL0     H21099  -0.295   9.844   8.499 -0.2662  0.2074  0.6091
  153MOL0     H21100  -0.049   9.573   8.750 -0.8689 -1.1285 -0.9551
  153MOL0     H21101   0.048   9.360   8.829  1.4529 -2.7461 -0.3799
  153MOL0     H21102   0.463   9.386   8.846  1.5063 -1.5027 -1.9689
  153MOL0     H21103   0.324   9.352   8.949  0.6487  1.2891 -0.1016
  153MOL0     H21104   0.406   9.107   8.953  2.4201 -0.6370 -0.0497
  153MOL0     H21105   0.495   9.225   9.044  1.1609  0.1533  1.1083
  153MOL0     H21106   0.548   9.116   8.756 -1.1195 -2.1194  0.3814
  153MOL0     H21107   0.653   9.234   8.842  1.6974 -0.0460 -2.6802
  153MOL0     H21108   0.593   8.928   8.917  0.3000 -0.7004 -1.1214
  153MOL0     H21109   0.712   9.010   9.005 -0.2289 -2.4700 -0.0685
  153MOL0     H21110   0.919   8.916   8.654 -2.8596 -2.1627 -2.1078
  153MOL0     H21111   0.399   9.417   8.596 -0.5776 -1.8795  0.2870
  153MOL0     H21112   0.383   9.752   8.546  0.4793  1.9078 -3.4445
  153MOL0     H21113   0.432   9.607   8.458 -0.4162 -0.1475  1.2655
  153MOL0     H21114   0.278   9.688   8.414  1.5292  2.7088 -0.6042
  154MOL0     O21115   5.720   9.589   6.121 -0.3792  0.3260  0.4260
  154MOL0     C21116   5.649   9.493   6.147  0.2962  0.7098 -0.4315
  154MOL0     O21117   5.625   9.387   6.067 -0.2935  0.0973 -0.1477
  154MOL0     C21118   5.683   9.399   5.932  0.0407 -0.5082 -0.5479
  154MOL0     C21119   5.602   9.427   5.816 -0.2177  0.0667 -0.1831
  154MOL0     C21120   5.657   9.431   5.692 -0.0471  1.0622 -0.2295
  154MOL0     C21121   5.793   9.424   5.667  0.6778  0.3575 -0.4813
  154MOL0     O21122   5.842   9.418   5.544  0.9348 -0.0054 -0.4029
  154MOL0     C21123   5.773   9.520   5.463 -0.3917  0.7152  0.7236
  154MOL0     C21124   5.871   9.522   5.346 -0.2750  0.8914 -0.8386
  154MOL0     C21125   5.874   9.387   5.274 -0.6724  0.3548  0.9903
  154MOL0     C21126   5.980   9.373   5.159 -0.2533  0.5925 -1.1516
  154MOL0     C21127   5.996   9.230   5.113 -0.1018 -0.6586 -0.4721
  154MOL0     C21128   5.886   9.189   5.027  0.3201  0.1238  0.2883
  154MOL0     C21129   5.889   9.045   4.989 -0.4971  1.2845  0.2798
  154MOL0     C21130   5.820   9.024   4.854 -0.0225 -0.1094  0.1088
  154MOL0     N21131   5.899   9.033   4.727 -0.0705 -0.3330  0.0216
  154MOL0     C21132   5.941   9.146   4.661  0.0852 -0.1445 -0.3174
  154MOL0     C21133   5.964   9.102   4.536 -0.7883  0.2295 -0.4739
  154MOL0     C21134   6.031   9.179   4.430 -0.4511 -0.8715 -0.1763
  154MOL0     C21135   5.962   9.213   4.298 -0.3210  0.2849 -0.6763
  154MOL0     C21136   5.825   9.279   4.309  0.6224 -0.5371  1.1961
  154MOL0     C21137   5.704   9.184   4.306 -0.5091 -0.5322  0.1040
  154MOL0     O21138   5.581   9.257   4.317 -0.5001  0.6028 -0.3957
  154MOL0     C21139   5.537   9.287   4.442  0.1461  1.1373  0.1671
  154MOL0     C21140   5.421   9.366   4.463  0.3260  0.3614 -0.2682
  154MOL0     C21141   5.359   9.396   4.591 -1.5109 -0.0209  0.9970
  154MOL0     C21142   5.222   9.460   4.583  0.4656 -0.3862  0.0783
  154MOL0     C21143   5.418   9.347   4.705 -0.9189  0.3261 -0.9656
  154MOL0     C21144   5.369   9.363   4.845 -0.7560 -0.0088 -0.1447
  154MOL0     O21145   5.429   9.281   4.937  0.1371  0.0665  0.0842
  154MOL0     C21146   5.399   9.273   5.068  1.0744 -0.1046  0.3608
  154MOL0     C21147   5.373   9.145   5.127 -0.2190  0.2803 -0.7458
  154MOL0     C21148   5.375   9.131   5.267  0.3383 -0.4736  0.7787
  154MOL0     C21149   5.383   9.254   5.347  0.9252  0.1227  0.6995
  154MOL0     O21150   5.393   9.256   5.483  0.0932 -0.3296 -0.9797
  154MOL0     C21151   5.340   9.132   5.548  0.5218  0.7007 -0.6964
  154MOL0     C21152   5.324   9.144   5.699  0.9871  0.3430  0.4431
  154MOL0     C21153   5.230   9.247   5.767 -0.1968 -0.0743  0.1137
  154MOL0     C21154   5.220   9.379   5.698 -0.0965 -0.4897 -0.9251
  154MOL0     C21155   5.138   9.471   5.785  0.5470  0.4250  0.6306
  154MOL0     C21156   5.134   9.618   5.736  0.4783  0.0309  0.2304
  154MOL0     C21157   5.068   9.620   5.600 -0.4302 -0.9945 -0.9116
  154MOL0     C21158   5.025   9.759   5.544  0.0057  0.0869 -2.0239
  154MOL0    Cl21159   5.182   9.845   5.534 -0.1152 -0.0548 -0.0133
  154MOL0     C21160   5.393   9.379   5.284 -0.5691  0.2286  0.8320
  154MOL0     C21161   5.406   9.390   5.147  0.0308  0.0987  0.0375
  154MOL0     O21162   5.274   9.437   4.866  0.4260 -0.9347 -0.4622
  154MOL0     C21163   5.540   9.270   4.683 -0.5204 -1.1164 -0.3149
  154MOL0     C21164   5.594   9.248   4.562  0.4572  0.4026  0.0332
  154MOL0     N21165   5.934   8.968   4.525  0.0850  0.1017  0.0222
  154MOL0     N21166   5.904   8.928   4.640  0.4929  0.5500 -0.7153
  154MOL0     C21167   5.874   9.401   5.782  0.7034 -0.1885  0.5175
  154MOL0     C21168   5.825   9.395   5.907  0.5540  0.3870 -0.3616
  154MOL0     C21169   5.601   9.494   6.274  0.8214  0.6325 -0.6307
  154MOL0     C21170   5.671   9.538   6.381  0.1930  0.5598 -0.3371
  154MOL0     C21171   5.639   9.511   6.506  0.9565 -0.2797 -0.5026
  154MOL0     C21172   5.518   9.456   6.536  0.2708  0.8477 -0.5725
  154MOL0     O21173   5.483   9.438   6.673  0.9158  0.4565 -0.0693
  154MOL0     C21174   5.350   9.391   6.711  0.0648  0.0753  0.4111
  154MOL0     C21175   5.322   9.397   6.855  0.4130  0.4515  0.0443
  154MOL0     C21176   5.278   9.551   6.885  0.2930 -0.3681  0.1577
  154MOL0     C21177   5.217   9.572   7.017 -0.1953 -0.1173  0.0875
  154MOL0     C21178   5.068   9.567   7.012 -0.1373  0.6451  0.5469
  154MOL0     C21179   4.946   9.574   7.020  0.9265  0.4774  0.2543
  154MOL0     C21180   5.430   9.418   6.429  1.1648 -0.9061 -0.0917
  154MOL0     C21181   5.464   9.463   6.299  0.5942 -0.2141 -0.9926
  154MOL0     C21182   5.368   9.437   6.186 -0.3509 -0.2087  0.4166
  154MOL0     H21183   5.495   9.429   5.831  0.1301  0.0033  2.8369
  154MOL0     H21184   5.576   9.437   5.620 -1.5666 -1.8345  1.0703
  154MOL0     H21185   5.778   9.623   5.500 -3.1764  0.2032  2.8661
  154MOL0     H21186   5.671   9.492   5.436 -0.6967  2.7676 -0.3889
  154MOL0     H21187   5.830   9.593   5.274 -0.6865  1.3681 -0.1438
  154MOL0     H21188   5.970   9.557   5.375  0.4662 -1.8412  0.2491
  154MOL0     H21189   5.893   9.307   5.346  1.1289  1.1247  1.4023
  154MOL0     H21190   5.779   9.373   5.220  0.4415 -0.7537 -0.7840
  154MOL0     H21191   5.966   9.446   5.079 -0.4791  1.4429 -0.3554
  154MOL0     H21192   6.078   9.401   5.200 -0.9117  1.0379  0.1576
  154MOL0     H21193   5.975   9.166   5.200 -1.2090  0.4058  0.0760
  154MOL0     H21194   6.095   9.205   5.074  1.9211  5.1388 -0.0133
  154MOL0     H21195   5.789   9.218   5.068  0.7634  1.1499  0.6586
  154MOL0     H21196   5.909   9.246   4.936  3.4917 -2.9389 -1.0874
  154MOL0     H21197   5.824   8.988   5.057 -1.7206  1.5458 -0.6345
  154MOL0     H21198   5.995   9.023   4.981 -0.5550  1.1525 -0.1103
  154MOL0     H21199   5.782   8.921   4.857 -0.9418  0.2488  2.1725
  154MOL0     H21200   5.733   9.089   4.851  1.6875  2.2768 -1.4763
  154MOL0     H21201   5.976   9.241   4.702  1.6612 -0.2239 -1.4041
  154MOL0     H21202   6.127   9.134   4.404  2.3246  4.0529  0.2498
  154MOL0     H21203   6.061   9.274   4.476  3.6475 -2.2569  0.3828
  154MOL0     H21204   6.039   9.273   4.248  1.0010 -0.9804 -0.2316
  154MOL0     H21205   5.956   9.117   4.246 -0.1524  0.2243 -0.5866
  154MOL0     H21206   5.819   9.329   4.406 -1.2871  0.0667  0.7958
  154MOL0     H21207   5.810   9.343   4.223  1.3471 -3.0955 -0.9691
  154MOL0     H21208   5.702   9.145   4.204 -0.5798 -0.0350 -0.0873
  154MOL0     H21209   5.717   9.101   4.376  1.9750  0.1088  0.4963
  154MOL0     H21210   5.373   9.406   4.374 -1.2284 -0.3819  0.2134
  154MOL0     H21211   5.191   9.464   4.478  1.2058  2.7298 -0.1172
  154MOL0     H21212   5.230   9.558   4.631  1.4396 -0.8578  0.9347
  154MOL0     H21213   5.150   9.394   4.633  1.0670 -2.3238 -1.4704
  154MOL0     H21214   5.367   9.059   5.062  3.0647 -0.3864 -0.3831
  154MOL0     H21215   5.347   9.032   5.301 -2.8023 -0.4736 -1.3844
  154MOL0     H21216   5.245   9.105   5.501 -1.2729 -1.9617  3.8934
  154MOL0     H21217   5.411   9.055   5.517  0.9245  0.6977  0.1967
  154MOL0     H21218   5.288   9.046   5.731 -0.4752  0.4450 -0.7535
  154MOL0     H21219   5.415   9.179   5.748  2.0313  0.0265 -1.2104
  154MOL0     H21220   5.272   9.269   5.866 -1.7328  0.4190  0.7001
  154MOL0     H21221   5.128   9.210   5.782 -0.1881 -0.3066 -0.3918
  154MOL0     H21222   5.178   9.361   5.598  0.4883 -0.8609 -1.1130
  154MOL0     H21223   5.322   9.419   5.686 -0.2332  0.6988  1.4117
  154MOL0     H21224   5.037   9.428   5.786 -1.2045  4.0315  2.8692
  154MOL0     H21225   5.168   9.480   5.889  2.4055  1.8120  0.0241
  154MOL0     H21226   5.231   9.667   5.726 -0.2219  1.1353 -1.7654
  154MOL0     H21227   5.075   9.678   5.805  0.9214  0.1445  0.5085
  154MOL0     H21228   4.974   9.569   5.618 -2.4498  2.8646  0.7143
  154MOL0     H21229   5.127   9.571   5.522 -2.1058 -1.8918 -1.6753
  154MOL0     H21230   4.965   9.810   5.620 -1.7546 -0.8140 -2.7494
  154MOL0     H21231   4.970   9.752   5.450  0.6510  1.3053 -2.5126
  154MOL0     H21232   5.395   9.466   5.349  3.1389  0.4546  0.6313
  154MOL0     H21233   5.423   9.482   5.092  0.0238 -0.3796 -0.7848
  154MOL0     H21234   5.599   9.233   4.766 -0.0618 -2.1132 -1.0786
  154MOL0     H21235   5.682   9.184   4.560  0.0790 -0.1248 -1.8297
  154MOL0     H21236   5.979   9.392   5.759  0.3845 -1.8092 -0.4701
  154MOL0     H21237   5.888   9.399   5.995  1.1552 -4.2885 -0.3305
  154MOL0     H21238   5.769   9.582   6.362 -0.3935  2.1229  0.1139
  154MOL0     H21239   5.699   9.544   6.589  1.7385 -0.6668 -0.9045
  154MOL0     H21240   5.276   9.445   6.651  0.1861  1.2949  1.3107
  154MOL0     H21241   5.354   9.286   6.680  0.4716  0.2672 -0.2236
  154MOL0     H21242   5.411   9.367   6.912 -0.1604 -0.1946  0.6080
  154MOL0     H21243   5.235   9.336   6.880 -0.5339  0.7121 -2.3546
  154MOL0     H21244   5.364   9.618   6.898 -0.6528  0.9356 -0.0221
  154MOL0     H21245   5.216   9.598   6.808  0.6616  1.7677  1.0686
  154MOL0     H21246   5.238   9.675   7.048 -1.1399  0.3433 -0.7614
  154MOL0     H21247   5.254   9.499   7.090 -0.9292  2.0344  2.7710
  154MOL0     H21248   4.842   9.598   7.027  0.5548 -1.3884  2.4663
  154MOL0     H21249   5.331   9.375   6.440  0.7033  0.6304  2.8205
  154MOL0     H21250   5.365   9.533   6.134 -1.4241 -1.1986 -1.4677
  154MOL0     H21251   5.391   9.361   6.110  0.0031  1.0154 -0.7386
  154MOL0     H21252   5.267   9.401   6.213 -1.0207  0.1846 -1.4082
  155MOL0     O21253   1.993   3.587   7.444 -0.4527 -0.2314  0.5582
  155MOL0     C21254   2.073   3.680   7.444  0.3077 -0.4964  0.5442
  155MOL0     O21255   2.059   3.793   7.374  0.5353  0.4858  0.2627
  155MOL0     C21256   1.971   3.804   7.264 -0.2569  0.5381 -1.1886
  155MOL0     C21257   1.952   3.710   7.160  0.9321  0.4013 -0.2683
  155MOL0     C21258   1.851   3.748   7.073  0.6508 -0.9593  0.0753
  155MOL0     C21259   1.776   3.872   7.085 -0.8546 -0.7265 -0.7110
  155MOL0     O21260   1.706   3.931   6.984  0.5684  0.0608  0.5400
  155MOL0     C21261   1.632   3.861   6.879 -0.2838  0.0187 -0.2138
  155MOL0     C21262   1.541   3.961   6.802  0.7862  0.8318 -0.0626
  155MOL0     C21263   1.612   4.008   6.679  0.5471  0.0233 -0.4817
  155MOL0     C21264   1.537   4.124   6.618 -0.9561 -0.4743 -1.0514
  155MOL0     C21265   1.604   4.183   6.499  0.1450 -0.3525 -0.7251
  155MOL0     C21266   1.575   4.111   6.362 -0.1217 -0.6501  0.0951
  155MOL0     C21267   1.656   4.168   6.247 -0.7152 -0.6756 -0.6788
  155MOL0     C21268   1.608   4.109   6.117 -1.0080 -0.3045  0.1108
  155MOL0     N21269   1.666   4.156   5.983 -0.4932  0.1685  0.9481
  155MOL0     C21270   1.776   4.234   5.957 -0.4891  0.0113 -0.2341
  155MOL0     C21271   1.811   4.196   5.832 -0.3337  0.0598 -0.3054
  155MOL0     C21272   1.932   4.261   5.764  0.8392  0.0992  1.2791
  155MOL0     C21273   2.014   4.170   5.671 -0.2458  0.5483  0.6299
  155MOL0     C21274   2.114   4.251   5.582 -0.7721  0.1852  0.4156
  155MOL0     C21275   2.219   4.161   5.523  0.2215  0.8923 -0.8867
  155MOL0     O21276   2.304   4.109   5.626 -0.1681 -0.1437  0.0166
  155MOL0     C21277   2.439   4.108   5.585  0.0866 -0.0920 -0.3524
  155MOL0     C21278   2.526   4.212   5.624  0.5268 -0.3599 -0.0249
  155MOL0     C21279   2.663   4.199   5.598 -0.1529 -0.5389 -0.0258
  155MOL0     C21280   2.750   4.312   5.640 -0.4063  0.2923 -0.1428
  155MOL0     C21281   2.705   4.083   5.524 -0.3113  0.4120 -0.5576
  155MOL0     C21282   2.848   4.070   5.485 -0.6328  1.3182  0.3226
  155MOL0     O21283   2.922   4.171   5.442  1.1075 -0.1670 -0.2187
  155MOL0     C21284   3.050   4.150   5.421 -0.0090  0.4788 -0.6079
  155MOL0     C21285   3.135   4.225   5.494  0.0866 -1.1919 -0.1881
  155MOL0     C21286   3.275   4.216   5.484  0.7485 -0.1911 -0.2990
  155MOL0     C21287   3.328   4.139   5.394  0.2515  0.3745  0.6586
  155MOL0     O21288   3.458   4.119   5.397  0.5042  0.0004 -0.6345
  155MOL0     C21289   3.526   4.056   5.285  0.4021 -0.4416 -0.4048
  155MOL0     C21290   3.677   4.069   5.317  0.0466  0.4244 -0.0473
  155MOL0     C21291   3.761   4.025   5.197  0.1370  0.3736 -0.2333
  155MOL0     C21292   3.719   4.104   5.066 -0.2771 -0.1959 -0.2494
  155MOL0     C21293   3.794   4.050   4.936 -0.8313 -0.2220 -0.9731
  155MOL0     C21294   3.779   3.897   4.900 -0.2380 -0.9118 -1.5578
  155MOL0     C21295   3.909   3.827   4.851  0.2907 -0.4919 -0.3971
  155MOL0     C21296   3.991   3.908   4.753 -0.7213  0.3954  0.0895
  155MOL0    Cl21297   3.921   3.944   4.608  0.0125 -0.0961  0.0020
  155MOL0     C21298   3.245   4.076   5.303  1.1002 -1.1254  0.1164
  155MOL0     C21299   3.103   4.083   5.324  0.5534  0.8942  0.8409
  155MOL0     O21300   2.889   3.953   5.490  0.5196  0.4940 -0.2803
  155MOL0     C21301   2.616   3.981   5.486 -0.4934 -0.0929 -0.6653
  155MOL0     C21302   2.483   3.993   5.523 -1.0973 -0.7184  0.3992
  155MOL0     N21303   1.718   4.107   5.780 -0.8797 -0.3595 -0.8182
  155MOL0     N21304   1.631   4.078   5.874 -0.6738 -0.3345  0.1158
  155MOL0     C21305   1.794   3.954   7.197 -0.3656 -1.0427 -0.0668
  155MOL0     C21306   1.888   3.915   7.280 -0.4938 -0.6767  0.7271
  155MOL0     C21307   2.186   3.687   7.543 -0.2011 -0.3964 -0.7471
  155MOL0     C21308   2.245   3.810   7.581 -0.0620  0.0113  0.7535
  155MOL0     C21309   2.331   3.820   7.686  0.2717 -0.6078  0.6995
  155MOL0     C21310   2.352   3.713   7.771  0.5954 -0.3422  0.4303
  155MOL0     O21311   2.414   3.728   7.888  0.0692 -0.4571  0.1866
  155MOL0     C21312   2.449   3.859   7.946  0.4257  0.4955  0.5391
  155MOL0     C21313   2.450   3.848   8.099  0.4639  0.1324  1.0773
  155MOL0     C21314   2.316   3.817   8.174  0.8288 -0.0885  0.1587
  155MOL0     C21315   2.342   3.764   8.316  0.9281 -1.3224  0.9185
  155MOL0     C21316   2.357   3.620   8.334  0.1951 -0.1877 -0.0304
  155MOL0     C21317   2.377   3.498   8.338  0.0391 -1.0963 -0.5465
  155MOL0     C21318   2.292   3.593   7.745 -1.0000  0.6379  0.4150
  155MOL0     C21319   2.216   3.576   7.629  0.3948  0.8353 -0.4399
  155MOL0     C21320   2.148   3.445   7.629 -0.5635  0.2703  0.1646
  155MOL0     H21321   2.016   3.622   7.159 -0.6215 -0.9345  3.2059
  155MOL0     H21322   1.833   3.684   6.988 -2.0471 -0.1139 -0.1164
  155MOL0     H21323   1.573   3.780   6.924  1.2687 -0.3812  1.1840
  155MOL0     H21324   1.694   3.806   6.808 -0.1390 -0.3282  0.1796
  155MOL0     H21325   1.459   3.909   6.751  2.5764 -0.7134 -1.4868
  155MOL0     H21326   1.507   4.041   6.870  0.8211  0.8850 -0.1075
  155MOL0     H21327   1.714   4.025   6.714  0.3182 -3.1885  2.3008
  155MOL0     H21328   1.626   3.930   6.604  3.1824  1.0316 -1.1490
  155MOL0     H21329   1.440   4.087   6.586 -2.7832  1.4038  1.8559
  155MOL0     H21330   1.510   4.196   6.696 -0.6446 -1.0271 -0.4223
  155MOL0     H21331   1.710   4.201   6.515  0.2502  0.0456 -1.8067
  155MOL0     H21332   1.570   4.287   6.489 -0.4250 -0.5444 -0.8088
  155MOL0     H21333   1.604   4.006   6.372 -2.0479 -2.0253 -5.2221
  155MOL0     H21334   1.468   4.113   6.338  0.1148  0.6182 -0.9507
  155MOL0     H21335   1.758   4.132   6.261  0.5297  1.8374 -2.6182
  155MOL0     H21336   1.664   4.277   6.247 -1.2568 -0.6296 -0.8467
  155MOL0     H21337   1.619   4.000   6.110  1.3727 -0.0388 -1.5079
  155MOL0     H21338   1.501   4.130   6.114 -0.7610  1.2108  0.8948
  155MOL0     H21339   1.816   4.317   6.015 -1.0318 -0.6276  1.1160
  155MOL0     H21340   1.989   4.306   5.846 -1.1833  2.4365  1.5179
  155MOL0     H21341   1.905   4.348   5.702 -2.0087 -0.5351  1.5158
  155MOL0     H21342   2.070   4.100   5.733 -1.6355 -0.2872  0.9829
  155MOL0     H21343   1.951   4.109   5.605 -0.8453  1.9456 -0.1411
  155MOL0     H21344   2.067   4.321   5.513 -0.0638  1.4729  1.1935
  155MOL0     H21345   2.168   4.318   5.650 -0.5713  0.8357 -0.3702
  155MOL0     H21346   2.169   4.081   5.469 -1.9999 -0.8951  3.3492
  155MOL0     H21347   2.281   4.229   5.463  1.6985  0.7492  0.3867
  155MOL0     H21348   2.486   4.304   5.665  1.6172  1.6011 -3.0323
  155MOL0     H21349   2.695   4.351   5.726  1.0343  0.5321  0.7005
  155MOL0     H21350   2.761   4.390   5.564 -0.7990  0.1414 -0.3561
  155MOL0     H21351   2.849   4.277   5.671  0.7108  2.9346 -0.4520
  155MOL0     H21352   3.089   4.281   5.575 -1.6278  1.6162 -2.8773
  155MOL0     H21353   3.339   4.272   5.551  0.3166 -0.5137  0.4040
  155MOL0     H21354   3.504   3.949   5.279 -0.0417 -0.5870  2.5299
  155MOL0     H21355   3.487   4.113   5.200 -0.9570  4.9216  3.2748
  155MOL0     H21356   3.708   4.170   5.346 -1.5269  0.6875  0.7912
  155MOL0     H21357   3.696   4.001   5.400 -0.8487  0.6573  0.3551
  155MOL0     H21358   3.728   3.922   5.178  2.5588 -0.7399  1.0367
  155MOL0     H21359   3.870   4.030   5.211 -0.1159  2.3843  1.4716
  155MOL0     H21360   3.749   4.204   5.097  0.2300 -0.8691  1.6248
  155MOL0     H21361   3.611   4.089   5.055 -0.1296 -2.9231  0.9497
  155MOL0     H21362   3.762   4.116   4.855  1.0081 -0.0884 -1.6458
  155MOL0     H21363   3.901   4.071   4.948 -0.4840 -1.1322 -2.2584
  155MOL0     H21364   3.687   3.884   4.843 -1.5233  1.4480 -0.1719
  155MOL0     H21365   3.755   3.852   4.997 -2.3765 -1.9986 -2.5466
  155MOL0     H21366   3.878   3.731   4.810 -0.3667 -0.2761 -0.4269
  155MOL0     H21367   3.977   3.820   4.937  2.2355 -0.3025 -1.8614
  155MOL0     H21368   4.081   3.854   4.720 -2.0579  0.3532 -3.9726
  155MOL0     H21369   4.032   3.988   4.816  1.3887 -0.3992 -0.1875
  155MOL0     H21370   3.299   4.027   5.223  3.7450 -1.8963  2.2291
  155MOL0     H21371   3.032   4.027   5.262 -0.0274 -0.5744  2.7205
  155MOL0     H21372   2.651   3.889   5.439  1.8805 -0.8962  2.3756
  155MOL0     H21373   2.417   3.911   5.494 -2.1777  0.7865 -1.6400
  155MOL0     H21374   1.739   4.044   7.220 -1.1036 -1.9836  2.1433
  155MOL0     H21375   1.919   3.973   7.367  2.4681  0.3186 -0.8445
  155MOL0     H21376   2.220   3.900   7.526  0.1673 -1.6475 -2.3427
  155MOL0     H21377   2.374   3.915   7.718  0.3268 -0.9181  1.5773
  155MOL0     H21378   2.546   3.886   7.904  2.0439 -0.8524  3.1176
  155MOL0     H21379   2.374   3.934   7.921  0.2845 -0.0919 -0.8467
  155MOL0     H21380   2.481   3.950   8.123  0.4201  0.9886 -2.0319
  155MOL0     H21381   2.520   3.772   8.135 -0.4086 -1.5423 -0.5761
  155MOL0     H21382   2.248   3.902   8.178  1.1176  0.1638 -0.2402
  155MOL0     H21383   2.262   3.738   8.121 -0.6892 -0.2960  1.8980
  155MOL0     H21384   2.249   3.792   8.365 -0.9379 -2.7431 -1.5957
  155MOL0     H21385   2.419   3.830   8.357  0.3925  0.6658 -1.0938
  155MOL0     H21386   2.400   3.394   8.351  1.3478 -0.6637  0.9851
  155MOL0     H21387   2.305   3.512   7.816 -2.0737  0.2819  0.2286
  155MOL0     H21388   2.042   3.453   7.653 -1.3517 -3.9461 -1.1897
  155MOL0     H21389   2.155   3.403   7.529  1.8611  1.0611 -0.0624
  155MOL0     H21390   2.191   3.370   7.696 -0.4252 -2.5619 -2.8386
  156MOL0     O21391   3.483   7.180   6.305 -0.2985  0.5409  0.0402
  156MOL0     C21392   3.468   7.273   6.224 -0.3421 -0.7077  0.0065
  156MOL0     O21393   3.364   7.362   6.234  0.0013 -0.2446 -0.1962
  156MOL0     C21394   3.277   7.363   6.341  0.2466  0.4946  0.2655
  156MOL0     C21395   3.156   7.419   6.307  0.1656 -0.4837 -0.8545
  156MOL0     C21396   3.052   7.415   6.400 -0.2392 -0.3218 -0.4272
  156MOL0     C21397   3.066   7.365   6.531 -0.1831 -0.0163  0.2696
  156MOL0     O21398   2.965   7.379   6.614 -0.1128  0.1247  0.5625
  156MOL0     C21399   2.963   7.325   6.751  0.5911 -0.0420  0.0082
  156MOL0     C21400   2.826   7.357   6.818  0.0961  0.1945 -0.6195
  156MOL0     C21401   2.797   7.278   6.945 -0.8501 -0.6102  0.4715
  156MOL0     C21402   2.650   7.283   6.986  0.1024  0.3876 -0.1660
  156MOL0     C21403   2.605   7.192   7.102 -0.7389 -0.2161 -1.4480
  156MOL0     C21404   2.475   7.242   7.160  0.5237  0.3450  0.8673
  156MOL0     C21405   2.416   7.125   7.219  0.8427 -0.5572 -0.3647
  156MOL0     C21406   2.267   7.145   7.253  0.1198  1.0719 -0.1581
  156MOL0     N21407   2.247   7.236   7.363  0.4821  0.2661  0.1218
  156MOL0     C21408   2.322   7.230   7.481 -0.4215  0.1614 -0.0175
  156MOL0     C21409   2.288   7.347   7.537 -0.1972  0.1276 -0.5447
  156MOL0     C21410   2.333   7.391   7.671  0.5672 -0.2588 -0.3719
  156MOL0     C21411   2.209   7.399   7.765  0.5677  0.3728  1.6278
  156MOL0     C21412   2.241   7.398   7.917 -0.1997 -0.9721  0.0980
  156MOL0     C21413   2.352   7.493   7.951 -0.0133 -0.1391 -0.5591
  156MOL0     O21414   2.392   7.442   8.084  0.0502  0.0192 -0.2869
  156MOL0     C21415   2.496   7.524   8.128  0.5258  0.4005 -0.2058
  156MOL0     C21416   2.619   7.476   8.158 -0.3361 -0.8920  0.3144
  156MOL0     C21417   2.737   7.543   8.212  0.1288  0.0847  0.0999
  156MOL0     C21418   2.862   7.458   8.261 -0.2026  1.2511 -0.1896
  156MOL0     C21419   2.729   7.687   8.208  0.0497 -0.7860 -0.1814
  156MOL0     C21420   2.846   7.774   8.261  0.5826  0.1078 -0.6988
  156MOL0     O21421   2.809   7.904   8.293 -0.3302  0.6664 -0.3941
  156MOL0     C21422   2.899   8.001   8.321  0.0688  0.3850  0.1413
  156MOL0     C21423   2.891   8.131   8.257  0.5915  0.1618  0.1215
  156MOL0     C21424   2.993   8.218   8.281  0.7060 -0.1962  1.0671
  156MOL0     C21425   3.105   8.197   8.365 -0.2900  0.4609  0.4065
  156MOL0     O21426   3.209   8.276   8.403  0.3167  0.2322  0.4210
  156MOL0     C21427   3.224   8.397   8.329 -0.5785  0.7834 -0.1793
  156MOL0     C21428   3.129   8.512   8.377  0.1297  0.3310 -0.6523
  156MOL0     C21429   3.196   8.581   8.504  1.2933  0.1349  0.3028
  156MOL0     C21430   3.103   8.661   8.587  0.8013 -0.1159 -0.4200
  156MOL0     C21431   3.162   8.737   8.702  0.2416  0.5355 -0.3606
  156MOL0     C21432   3.194   8.644   8.816 -0.2829  0.1408 -0.2450
  156MOL0     C21433   3.247   8.694   8.954  0.1433 -0.5474  1.0456
  156MOL0     C21434   3.276   8.580   9.045  0.8910 -0.1611 -0.3732
  156MOL0    Cl21435   3.415   8.491   8.997  0.1975 -0.0562  0.1533
  156MOL0     C21436   3.096   8.083   8.442  0.6961 -0.1416  0.0773
  156MOL0     C21437   2.998   7.984   8.419  0.4997 -0.9846  0.2199
  156MOL0     O21438   2.952   7.720   8.298 -0.1406  0.4744 -0.3937
  156MOL0     C21439   2.602   7.743   8.176  0.1389 -0.3718 -0.7064
  156MOL0     C21440   2.494   7.666   8.138  0.1001  0.2638 -1.0348
  156MOL0     N21441   2.205   7.422   7.456 -0.0903 -0.3432  0.5051
  156MOL0     N21442   2.178   7.349   7.354 -0.1349 -0.3733 -0.7424
  156MOL0     C21443   3.191   7.324   6.562 -0.2529 -0.2863 -0.2758
  156MOL0     C21444   3.296   7.320   6.472  0.3676 -0.3509  0.4398
  156MOL0     C21445   3.567   7.301   6.109  0.7945  0.1163 -1.1531
  156MOL0     C21446   3.700   7.310   6.140  0.0112 -0.5510 -0.3789
  156MOL0     C21447   3.793   7.344   6.044 -0.1946  0.7347  0.5819
  156MOL0     C21448   3.756   7.388   5.913  0.9281  0.3281 -0.3518
  156MOL0     O21449   3.845   7.409   5.809 -0.7045  0.3727  0.2303
  156MOL0     C21450   3.853   7.289   5.719  0.9888 -0.6258  0.0542
  156MOL0     C21451   3.779   7.303   5.586  0.9365 -0.6358  0.3030
  156MOL0     C21452   3.831   7.413   5.488 -0.1006 -0.9822  0.8310
  156MOL0     C21453   3.989   7.419   5.464 -0.1600  0.3709 -0.0588
  156MOL0     C21454   4.021   7.465   5.332 -0.1664  0.2925  0.1239
  156MOL0     C21455   4.038   7.485   5.214 -0.5578 -0.2230 -0.1082
  156MOL0     C21456   3.616   7.391   5.885 -0.3218 -0.5977 -0.4195
  156MOL0     C21457   3.523   7.350   5.984 -0.1277 -0.1796 -0.6169
  156MOL0     C21458   3.387   7.332   5.936 -0.0018  0.5671  0.0571
  156MOL0     H21459   3.140   7.451   6.204 -1.6108 -0.0748 -0.4805
  156MOL0     H21460   2.960   7.456   6.359 -0.9864 -0.4847  1.0270
  156MOL0     H21461   3.038   7.381   6.807 -0.6351  2.4948 -0.7415
  156MOL0     H21462   2.985   7.218   6.739  2.4811  0.4287 -1.2591
  156MOL0     H21463   2.828   7.466   6.832  0.5072  0.2536 -1.1046
  156MOL0     H21464   2.749   7.331   6.745  0.8027 -0.4410 -1.1630
  156MOL0     H21465   2.830   7.174   6.941  2.0942  0.2433  0.0729
  156MOL0     H21466   2.859   7.323   7.023  0.9006  0.2995 -1.3300
  156MOL0     H21467   2.632   7.385   7.022 -0.9040 -0.1930  1.0405
  156MOL0     H21468   2.589   7.246   6.904  1.2255 -3.2424  0.4561
  156MOL0     H21469   2.671   7.182   7.189 -1.5494  2.0019 -0.4977
  156MOL0     H21470   2.602   7.093   7.055  1.6673 -0.4208 -1.2929
  156MOL0     H21471   2.498   7.319   7.234 -1.3216 -0.3395  2.2130
  156MOL0     H21472   2.417   7.281   7.076  1.9187 -2.0203 -1.3208
  156MOL0     H21473   2.478   7.087   7.300 -0.1658 -3.3880 -0.8052
  156MOL0     H21474   2.423   7.051   7.139  3.1286  1.6988 -2.4086
  156MOL0     H21475   2.207   7.166   7.164 -2.2049 -1.7793  0.5601
  156MOL0     H21476   2.229   7.045   7.276 -1.8034  0.7091 -4.0918
  156MOL0     H21477   2.387   7.158   7.529 -0.5501  0.4822  0.6508
  156MOL0     H21478   2.389   7.484   7.655 -1.5187  1.2376  0.5703
  156MOL0     H21479   2.417   7.335   7.713  1.1986 -0.1428 -1.4291
  156MOL0     H21480   2.149   7.488   7.740  1.1599  1.1883  3.0261
  156MOL0     H21481   2.155   7.304   7.755  2.3387 -0.5889  0.6822
  156MOL0     H21482   2.152   7.427   7.974  0.7194 -1.9847  2.1494
  156MOL0     H21483   2.263   7.296   7.951  1.5471 -1.3405 -1.9556
  156MOL0     H21484   2.441   7.491   7.888 -0.0955 -1.8138 -0.6835
  156MOL0     H21485   2.308   7.593   7.957  2.5419  1.1254 -1.6084
  156MOL0     H21486   2.635   7.369   8.171  1.5837 -0.6333  0.3503
  156MOL0     H21487   2.949   7.505   8.213  1.8687 -0.3818  1.7119
  156MOL0     H21488   2.859   7.354   8.228 -1.7692  0.7871  1.2845
  156MOL0     H21489   2.868   7.450   8.370  0.6100 -0.7265 -0.3419
  156MOL0     H21490   2.811   8.143   8.185  1.1213 -0.7076 -0.6327
  156MOL0     H21491   2.987   8.313   8.228  2.2891 -0.8925 -0.4725
  156MOL0     H21492   3.328   8.428   8.339  0.1569 -1.5146 -0.0933
  156MOL0     H21493   3.208   8.395   8.221 -0.2300  3.9646 -0.3970
  156MOL0     H21494   3.133   8.585   8.295  2.2111 -0.5748 -1.4264
  156MOL0     H21495   3.028   8.471   8.386  0.3839 -0.1729 -0.0273
  156MOL0     H21496   3.279   8.639   8.464  1.4017  0.4127  0.9174
  156MOL0     H21497   3.233   8.502   8.570  0.7601 -0.8713 -0.5771
  156MOL0     H21498   3.025   8.594   8.623  2.8844 -2.0605  0.7635
  156MOL0     H21499   3.046   8.731   8.525 -1.0650 -0.8224  0.4135
  156MOL0     H21500   3.253   8.792   8.675 -0.1360  1.0731 -0.5540
  156MOL0     H21501   3.085   8.807   8.738  1.6886  1.4495  1.1215
  156MOL0     H21502   3.273   8.578   8.780 -1.4144 -1.2460 -0.2562
  156MOL0     H21503   3.110   8.578   8.837  0.7023  0.0003  4.2515
  156MOL0     H21504   3.178   8.762   9.005  1.1036 -0.3196  2.0756
  156MOL0     H21505   3.338   8.753   8.942 -0.8972  0.7882 -0.8301
  156MOL0     H21506   3.182   8.524   9.041  0.6261  0.1858  0.5832
  156MOL0     H21507   3.283   8.627   9.144  0.6057  0.5206 -0.6730
  156MOL0     H21508   3.168   8.069   8.521  1.6829  0.2715 -0.7200
  156MOL0     H21509   3.002   7.888   8.470 -0.6968 -0.3004  1.6469
  156MOL0     H21510   2.579   7.849   8.186 -1.0381 -0.7507  1.0957
  156MOL0     H21511   2.401   7.716   8.115  1.1337  2.3574 -0.8573
  156MOL0     H21512   3.213   7.304   6.666  0.0343  1.4870  0.0306
  156MOL0     H21513   3.389   7.274   6.503  0.6319  0.4837  0.9223
  156MOL0     H21514   3.716   7.291   6.245  0.3046 -2.2268 -0.6881
  156MOL0     H21515   3.896   7.350   6.078  0.3549  0.6644 -0.9585
  156MOL0     H21516   3.957   7.295   5.687  0.1140  1.0500 -2.8392
  156MOL0     H21517   3.838   7.189   5.762 -0.0214  0.3157  2.0576
  156MOL0     H21518   3.675   7.332   5.606  1.3701  1.0677  0.1856
  156MOL0     H21519   3.779   7.207   5.534  1.1801 -0.1980 -0.5224
  156MOL0     H21520   3.776   7.410   5.394  1.4197  0.5226 -0.1624
  156MOL0     H21521   3.810   7.511   5.533  1.4913  1.4278 -3.1527
  156MOL0     H21522   4.030   7.320   5.485  0.7890  0.8905  0.6284
  156MOL0     H21523   4.033   7.494   5.531 -1.6700  1.7743 -0.5732
  156MOL0     H21524   4.071   7.505   5.114  2.0768  1.1005  0.9185
  156MOL0     H21525   3.574   7.433   5.794  0.2750 -3.1451 -1.9645
  156MOL0     H21526   3.334   7.264   6.003 -1.8915  0.2287 -1.6761
  156MOL0     H21527   3.333   7.427   5.930 -0.5042  0.3573  0.9918
  156MOL0     H21528   3.388   7.294   5.833 -0.5261  3.6494 -1.1942
  157MOL0     O21529   5.776   1.874   3.825  0.0307 -0.3497 -0.1083
  157MOL0     C21530   5.843   1.781   3.871  0.0809  0.1513  0.0029
  157MOL0     O21531   5.911   1.798   3.989 -0.5899  0.3533 -1.1304
  157MOL0     C21532   5.923   1.925   4.038 -0.4623 -0.1352  0.9871
  157MOL0     C21533   5.824   1.992   4.110  0.4824 -0.2213  0.2608
  157MOL0     C21534   5.844   2.127   4.153  0.3353 -0.2210  0.5472
  157MOL0     C21535   5.961   2.204   4.119  0.0977  0.9862 -0.3434
  157MOL0     O21536   5.976   2.335   4.162  0.2119 -0.4049 -0.1654
  157MOL0     C21537   5.883   2.392   4.254 -0.8347  0.1433  0.6147
  157MOL0     C21538   5.931   2.530   4.308 -0.6830  0.6398 -0.0958
  157MOL0     C21539   5.815   2.588   4.397 -1.6517 -0.0350  0.4575
  157MOL0     C21540   5.858   2.671   4.511 -0.1134  0.2343 -0.4557
  157MOL0     C21541   5.744   2.689   4.618 -0.2308 -0.1024  0.0927
  157MOL0     C21542   5.794   2.786   4.732 -0.6263 -0.2381  0.6481
  157MOL0     C21543   5.684   2.794   4.839 -0.7398 -0.5556 -0.1205
  157MOL0     C21544   5.581   2.909   4.810 -0.4351 -0.1088 -0.0490
  157MOL0     N21545   5.623   3.042   4.855 -0.2109 -0.2283  0.2226
  157MOL0     C21546   5.652   3.086   4.982  0.4423 -0.9622 -0.5369
  157MOL0     C21547   5.700   3.210   4.979 -0.3025 -0.7377  0.2492
  157MOL0     C21548   5.732   3.305   5.106  0.4428 -0.3434  1.0723
  157MOL0     C21549   5.686   3.252   5.246 -0.6719 -0.3418 -0.1468
  157MOL0     C21550   5.815   3.204   5.321 -0.5625 -0.8221 -0.1139
  157MOL0     C21551   5.786   3.101   5.428  0.2574  0.0915  0.6773
  157MOL0     O21552   5.697   3.164   5.517 -0.4512  0.1886  0.4630
  157MOL0     C21553   5.702   3.133   5.652  1.1316  0.3844 -0.7332
  157MOL0     C21554   5.804   3.056   5.703 -0.0054 -0.6859 -0.7633
  157MOL0     C21555   5.808   3.030   5.849  0.7656  0.3743  0.7234
  157MOL0     C21556   5.941   2.989   5.906 -0.0426  0.1091  0.3832
  157MOL0     C21557   5.699   3.066   5.926  0.1008  0.1771 -1.0235
  157MOL0     C21558   5.699   3.051   6.080  0.1419 -0.6121 -0.4118
  157MOL0     O21559   5.588   3.087   6.148 -0.4627  0.4306  0.0929
  157MOL0     C21560   5.562   3.063   6.279 -0.0774 -0.1683  0.2620
  157MOL0     C21561   5.654   3.037   6.386 -0.2723  0.6582  0.3781
  157MOL0     C21562   5.605   3.030   6.515  0.1396  0.5714 -0.9357
  157MOL0     C21563   5.471   3.016   6.550 -0.3887  0.4437  0.3411
  157MOL0     O21564   5.435   2.978   6.682  0.3506  0.2936 -0.2550
  157MOL0     C21565   5.313   3.033   6.734 -0.1864  1.1544 -1.6153
  157MOL0     C21566   5.318   3.192   6.765 -0.3855  0.8109 -0.0679
  157MOL0     C21567   5.178   3.261   6.776 -0.4427  0.3592  0.0791
  157MOL0     C21568   5.146   3.274   6.926 -0.1666 -0.2145  0.8780
  157MOL0     C21569   5.021   3.365   6.946  0.4637  0.2926 -0.4805
  157MOL0     C21570   5.056   3.516   6.947 -0.0897 -0.4183 -0.0372
  157MOL0     C21571   4.950   3.598   7.022 -0.1645 -0.3918 -0.0309
  157MOL0     C21572   5.004   3.709   7.104  0.2055 -0.2976  0.3356
  157MOL0    Cl21573   5.115   3.814   7.003  0.4084  0.0742  0.0981
  157MOL0     C21574   5.389   3.027   6.445  0.6751 -0.1122 -0.8722
  157MOL0     C21575   5.427   3.055   6.317 -1.0366  0.0490 -0.7648
  157MOL0     O21576   5.800   3.023   6.140  0.0851 -0.3046 -0.4428
  157MOL0     C21577   5.588   3.124   5.858 -0.0353 -0.4065 -0.6975
  157MOL0     C21578   5.588   3.163   5.722  0.0680 -0.3203 -0.5355
  157MOL0     N21579   5.680   3.251   4.845 -0.9543 -0.8006 -0.1110
  157MOL0     N21580   5.646   3.149   4.771  0.3322  0.5198 -0.5915
  157MOL0     C21581   6.056   2.137   4.052  0.1819  0.2162  0.2271
  157MOL0     C21582   6.045   2.001   4.007  0.6609 -0.2362  0.4346
  157MOL0     C21583   5.851   1.656   3.806  0.8070  0.8821  0.7081
  157MOL0     C21584   5.928   1.549   3.862  0.1378 -0.8162  0.5906
  157MOL0     C21585   5.961   1.435   3.793  0.0527  0.5754 -0.5710
  157MOL0     C21586   5.886   1.392   3.682  0.4614 -0.5115  0.6015
  157MOL0     O21587   5.910   1.267   3.634  0.1336  0.0617  0.4506
  157MOL0     C21588   5.877   1.171   3.740 -0.2050  0.6686  0.3441
  157MOL0     C21589   5.830   1.043   3.679  0.4038  0.3169 -0.0090
  157MOL0     C21590   5.681   1.059   3.649  0.1460  0.1731  0.6262
  157MOL0     C21591   5.578   0.989   3.746 -0.0646 -1.0230 -0.1243
  157MOL0     C21592   5.595   1.005   3.883 -0.3788  0.2646 -0.4701
  157MOL0     C21593   5.591   1.003   4.007 -0.9740  0.7483 -0.2313
  157MOL0     C21594   5.790   1.489   3.631 -0.8664  0.5437 -0.6491
  157MOL0     C21595   5.782   1.627   3.682 -0.3278 -0.5647 -1.2720
  157MOL0     C21596   5.710   1.726   3.595  0.8385 -0.0440 -1.2269
  157MOL0     H21597   5.728   1.943   4.120 -0.3261 -1.0986 -6.6997
  157MOL0     H21598   5.771   2.156   4.227  0.2051 -1.3972  0.8876
  157MOL0     H21599   5.878   2.328   4.343 -1.3822 -0.4310  0.1778
  157MOL0     H21600   5.782   2.402   4.215 -0.4715  0.4911 -0.2622
  157MOL0     H21601   6.020   2.518   4.371 -1.1874  0.5190  0.6151
  157MOL0     H21602   5.954   2.598   4.226 -2.2559 -0.0742 -1.1832
  157MOL0     H21603   5.753   2.651   4.332  0.7076  0.8454 -1.0311
  157MOL0     H21604   5.761   2.495   4.418 -0.4827 -1.3554 -1.9819
  157MOL0     H21605   5.933   2.608   4.560  1.4466 -1.4811 -4.5628
  157MOL0     H21606   5.914   2.762   4.487  1.6134 -0.5621  0.4013
  157MOL0     H21607   5.715   2.591   4.657  1.6880 -0.6619  0.2073
  157MOL0     H21608   5.655   2.734   4.573 -1.5092  0.9946  3.3747
  157MOL0     H21609   5.894   2.759   4.766  1.2756  0.7140 -3.4927
  157MOL0     H21610   5.802   2.886   4.687 -3.4026  0.5341  1.6540
  157MOL0     H21611   5.717   2.807   4.943 -1.9023  1.0111  0.0889
  157MOL0     H21612   5.637   2.695   4.852 -1.7025  0.0631  1.4625
  157MOL0     H21613   5.575   2.918   4.701 -0.9473  4.2994  0.1744
  157MOL0     H21614   5.484   2.864   4.831  1.1242 -3.2013  1.3168
  157MOL0     H21615   5.645   3.028   5.074 -1.4217  0.2812  0.1714
  157MOL0     H21616   5.675   3.396   5.084  1.1873  0.0042  0.5042
  157MOL0     H21617   5.833   3.346   5.118  1.5647 -3.3341  2.8654
  157MOL0     H21618   5.638   3.329   5.306  2.1367 -0.4017  2.4648
  157MOL0     H21619   5.612   3.172   5.235 -3.0356  1.7476 -0.1134
  157MOL0     H21620   5.874   3.155   5.242  2.8590 -0.8377  2.2238
  157MOL0     H21621   5.875   3.290   5.353 -2.3263  0.7831 -0.9689
  157MOL0     H21622   5.747   3.010   5.382  1.2829 -0.4945  0.9315
  157MOL0     H21623   5.889   3.080   5.460  1.3809  2.2350 -1.1830
  157MOL0     H21624   5.870   3.003   5.635  1.7976 -0.6844  0.8849
  157MOL0     H21625   5.998   2.968   5.816 -0.8753  1.1805 -0.4201
  157MOL0     H21626   5.932   2.891   5.953  0.3273 -0.4303 -0.6663
  157MOL0     H21627   5.972   3.071   5.973 -0.7534 -1.5055  2.8256
  157MOL0     H21628   5.759   3.058   6.366 -0.6282  3.2591  0.9610
  157MOL0     H21629   5.677   3.003   6.592  1.4555  0.4449 -2.1528
  157MOL0     H21630   5.229   3.019   6.665 -0.4972  2.1445 -1.4547
  157MOL0     H21631   5.298   2.976   6.826  2.5825 -0.3664 -1.9834
  157MOL0     H21632   5.389   3.221   6.843 -1.1237  0.7241  0.6555
  157MOL0     H21633   5.371   3.242   6.684 -3.3015  2.8551 -0.8493
  157MOL0     H21634   5.103   3.188   6.742 -0.8988  0.0042  1.7504
  157MOL0     H21635   5.173   3.357   6.724 -1.3756 -0.1777 -0.8730
  157MOL0     H21636   5.231   3.309   6.984  2.9196 -5.4798  0.1888
  157MOL0     H21637   5.129   3.170   6.954  1.0434 -0.9541 -0.9964
  157MOL0     H21638   4.957   3.352   6.858  3.3152  0.3109 -2.7124
  157MOL0     H21639   4.972   3.346   7.042  0.3228  0.0626 -0.5965
  157MOL0     H21640   5.069   3.567   6.851 -3.4218 -2.4206 -1.7341
  157MOL0     H21641   5.150   3.522   7.003  0.4902 -4.0830 -0.3637
  157MOL0     H21642   4.884   3.533   7.080  0.6329  0.1806  1.5993
  157MOL0     H21643   4.894   3.645   6.941 -0.0387 -2.4626 -1.3728
  157MOL0     H21644   5.065   3.656   7.178  2.3434 -3.6048 -3.4113
  157MOL0     H21645   4.923   3.766   7.151 -0.0267  0.9267 -1.4568
  157MOL0     H21646   5.282   3.010   6.460  1.0375 -3.7132 -1.4977
  157MOL0     H21647   5.348   3.073   6.245 -1.3131  3.0254  0.1389
  157MOL0     H21648   5.503   3.153   5.920 -1.3073 -1.8665 -1.7003
  157MOL0     H21649   5.509   3.207   5.662  1.5999  1.0107 -1.6643
  157MOL0     H21650   6.150   2.188   4.032  1.6768 -1.8216  1.6192
  157MOL0     H21651   6.116   1.936   3.958 -1.9300 -0.7111 -3.0415
  157MOL0     H21652   5.961   1.571   3.963 -2.4852  1.1300  1.1484
  157MOL0     H21653   6.026   1.359   3.837 -3.7180 -1.6666  1.7326
  157MOL0     H21654   5.969   1.157   3.797  0.7841  1.3401 -1.0008
  157MOL0     H21655   5.802   1.216   3.806  0.0023  2.3049 -0.4690
  157MOL0     H21656   5.840   0.954   3.742 -0.0166  0.6520  0.5387
  157MOL0     H21657   5.889   1.020   3.589 -0.8879  1.6890 -1.2812
  157MOL0     H21658   5.649   1.161   3.622 -0.7493 -0.8814 -2.8905
  157MOL0     H21659   5.651   1.000   3.562 -2.6193  0.5205  1.2391
  157MOL0     H21660   5.592   0.882   3.732  3.6215 -0.5984 -0.7421
  157MOL0     H21661   5.473   1.012   3.725  0.0571  0.2406  0.5678
  157MOL0     H21662   5.585   1.011   4.114  1.3798 -1.4811  0.1751
  157MOL0     H21663   5.736   1.460   3.542 -0.1228 -2.6026 -0.1854
  157MOL0     H21664   5.758   1.824   3.596 -0.3100  0.5274 -0.8230
  157MOL0     H21665   5.702   1.683   3.495 -0.3224  0.7622 -1.5069
  157MOL0     H21666   5.608   1.738   3.635  1.2071 -1.2468  0.1746
  158MOL0     O21667   2.773   9.912   3.973  0.4174  1.3778  0.1561
  158MOL0     C21668   2.679   9.837   3.961 -0.1056 -0.5966 -1.4625
  158MOL0     O21669   2.567   9.841   4.044  0.1790 -0.2229  0.2611
  158MOL0     C21670   2.562   9.949   4.133 -0.5071  0.1821  0.9743
  158MOL0     C21671   2.556  10.084   4.083  0.8961  0.2321 -0.5246
  158MOL0     C21672   2.558  10.197   4.180  0.6920 -0.0037 -0.6700
  158MOL0     C21673   2.559  10.163   4.324  0.2396  0.1235  0.1887
  158MOL0     O21674   2.556  10.263   4.416 -0.2565 -0.5809  0.6298
  158MOL0     C21675   2.433  10.284   4.487  0.3369  0.2465  0.1986
  158MOL0     C21676   2.459  10.413   4.567 -0.3899  0.6272 -0.5252
  158MOL0     C21677   2.585  10.387   4.657  0.8944  0.2787  0.4352
  158MOL0     C21678   2.587  10.483   4.767  0.3090 -0.0037 -0.1470
  158MOL0     C21679   2.600  10.633   4.724 -0.4107  0.5790 -0.1553
  158MOL0     C21680   2.646  10.713   4.848  0.9954 -0.9327 -0.2095
  158MOL0     C21681   2.542  10.741   4.942  0.2024 -0.7966  0.1350
  158MOL0     C21682   2.573  10.823   5.074  0.1440  0.2386  0.2348
  158MOL0     N21683   2.451  10.811   5.162  0.7870  0.6977 -0.7894
  158MOL0     C21684   2.336  10.889   5.152  0.2663  0.0763  0.2300
  158MOL0     C21685   2.257  10.833   5.248  0.7207 -0.2956  0.2878
  158MOL0     C21686   2.121  10.878   5.299 -0.4660 -0.2622 -0.3337
  158MOL0     C21687   2.009  10.801   5.228 -0.3684  0.6025 -0.0724
  158MOL0     C21688   1.984  10.858   5.095 -0.5880  0.9371  0.5160
  158MOL0     C21689   1.894  10.981   5.095  0.0799 -0.6210 -0.4186
  158MOL0     O21690   1.796  10.970   5.199  0.0361  0.5463  0.1341
  158MOL0     C21691   1.681  11.056   5.194 -0.0022  0.3868  0.2840
  158MOL0     C21692   1.584  11.015   5.279 -0.7976 -0.9058  0.1931
  158MOL0     C21693   1.463  11.080   5.300 -0.3571 -0.3202 -1.2355
  158MOL0     C21694   1.367  11.032   5.402 -0.2033  0.2912  0.6552
  158MOL0     C21695   1.433  11.181   5.210 -0.1961 -0.3786  0.3700
  158MOL0     C21696   1.305  11.269   5.226 -0.4069 -1.1029  0.2530
  158MOL0     O21697   1.262  11.327   5.108 -0.6716  0.1596 -0.5016
  158MOL0     C21698   1.169  11.432   5.113 -0.2731  1.3913 -1.2283
  158MOL0     C21699   1.036  11.415   5.155 -0.5233 -0.6369 -0.3985
  158MOL0     C21700   0.933  11.511   5.124 -0.3058 -0.2022  0.3640
  158MOL0     C21701   0.980  11.639   5.083  0.6478 -0.3795 -0.2711
  158MOL0     O21702   0.894  11.744   5.072 -0.1066 -0.2007 -0.4543
  158MOL0     C21703   0.807  11.755   5.180  0.5816 -0.1942 -0.0549
  158MOL0     C21704   0.741  11.887   5.178  0.1361  0.2458 -0.7691
  158MOL0     C21705   0.653  11.912   5.305  0.4233  0.0078  0.2573
  158MOL0     C21706   0.587  12.051   5.294  0.5224  0.3356  0.2158
  158MOL0     C21707   0.479  12.080   5.391 -0.1946 -0.7972 -0.7202
  158MOL0     C21708   0.522  12.089   5.542  0.0373 -0.6254 -0.1024
  158MOL0     C21709   0.405  12.128   5.631  0.0850 -0.5621  0.0546
  158MOL0     C21710   0.438  12.137   5.783  0.2065 -0.5412 -0.2310
  158MOL0    Cl21711   0.574  12.248   5.817  0.1594 -0.1962 -0.5161
  158MOL0     C21712   1.107  11.644   5.028 -1.1006  0.1030 -0.0906
  158MOL0     C21713   1.209  11.546   5.046  0.8922 -0.7744 -0.5672
  158MOL0     O21714   1.275  11.303   5.338  0.0988  0.2876 -0.5018
  158MOL0     C21715   1.534  11.230   5.118  0.0151 -0.1059  0.3961
  158MOL0     C21716   1.653  11.159   5.105 -0.2302 -0.4834 -0.2105
  158MOL0     N21717   2.316  10.709   5.291 -0.6280 -0.3863 -0.7876
  158MOL0     N21718   2.431  10.710   5.245  0.5601  0.1022 -0.4625
  158MOL0     C21719   2.581  10.029   4.364  0.4910  0.1537  0.7555
  158MOL0     C21720   2.578   9.924   4.272 -0.6602  0.1887  0.2600
  158MOL0     C21721   2.664   9.735   3.850  0.0284 -0.0955 -0.7150
  158MOL0     C21722   2.544   9.664   3.833  0.1412  0.7199  0.6674
  158MOL0     C21723   2.540   9.558   3.749  0.0756  0.8318 -0.3801
  158MOL0     C21724   2.653   9.519   3.673  0.1273  0.5296  0.2987
  158MOL0     O21725   2.632   9.402   3.597 -0.0614 -0.7978  0.9446
  158MOL0     C21726   2.748   9.327   3.562  0.4461  0.3484  0.3106
  158MOL0     C21727   2.718   9.175   3.524  0.3003 -0.3099 -1.2012
  158MOL0     C21728   2.819   9.110   3.441  0.1828 -0.2998  0.5586
  158MOL0     C21729   2.957   9.115   3.512 -0.0307 -0.1207 -0.3694
  158MOL0     C21730   3.062   9.040   3.444  0.4300  0.2399 -0.0553
  158MOL0     C21731   3.141   8.984   3.384 -0.0390 -0.3398 -0.0021
  158MOL0     C21732   2.760   9.601   3.667 -1.3036 -0.0999 -0.1458
  158MOL0     C21733   2.773   9.703   3.758 -0.0975  0.1544  0.2024
  158MOL0     C21734   2.902   9.779   3.760  0.3754 -0.0983 -0.1344
  158MOL0     H21735   2.568  10.104   3.977  0.2483 -1.7033 -1.0067
  158MOL0     H21736   2.553  10.299   4.142 -2.6882 -0.1796 -1.0285
  158MOL0     H21737   2.400  10.198   4.545 -4.8359 -0.1874 -2.7150
  158MOL0     H21738   2.353  10.301   4.414  1.9335  2.3732 -1.1846
  158MOL0     H21739   2.482  10.502   4.507  1.2610 -1.9971 -4.1210
  158MOL0     H21740   2.376  10.442   4.632 -0.2415 -0.9580  0.4320
  158MOL0     H21741   2.576  10.286   4.697 -1.2749  0.0800 -0.4067
  158MOL0     H21742   2.679  10.406   4.604  1.6015  1.8428  2.1675
  158MOL0     H21743   2.499  10.470   4.832 -0.6563  3.0222 -0.7062
  158MOL0     H21744   2.671  10.449   4.828 -0.6654 -1.1852  0.5987
  158MOL0     H21745   2.505  10.671   4.686 -1.0776 -4.3156 -4.5955
  158MOL0     H21746   2.676  10.628   4.645 -1.0335 -0.6498 -0.7143
  158MOL0     H21747   2.734  10.664   4.892 -1.4166 -3.5306  2.0853
  158MOL0     H21748   2.670  10.805   4.794 -1.6392  0.2329  0.4320
  158MOL0     H21749   2.508  10.643   4.978  0.1267 -0.5995  0.6090
  158MOL0     H21750   2.462  10.800   4.896 -2.3884 -1.3151  3.5705
  158MOL0     H21751   2.662  10.779   5.120  0.3089  2.4819  2.2423
  158MOL0     H21752   2.594  10.927   5.050  0.0851  0.6312  1.7275
  158MOL0     H21753   2.330  10.982   5.097 -3.6947 -0.8927 -1.3134
  158MOL0     H21754   2.109  10.985   5.282  0.9056  0.3841  2.3396
  158MOL0     H21755   2.115  10.870   5.408  2.2680  1.9770  0.0730
  158MOL0     H21756   2.046  10.701   5.200 -1.5334  0.5746 -1.6690
  158MOL0     H21757   1.915  10.791   5.284 -0.6591  0.4515 -0.5775
  158MOL0     H21758   2.078  10.889   5.050  0.4812  0.7096  2.4914
  158MOL0     H21759   1.940  10.787   5.024  0.4062  2.4428 -1.7258
  158MOL0     H21760   1.951  11.066   5.136 -2.4204 -0.2644  2.7215
  158MOL0     H21761   1.847  10.994   4.998 -0.0682  2.1729 -0.0621
  158MOL0     H21762   1.609  10.922   5.329  1.7061 -0.0778  0.5930
  158MOL0     H21763   1.394  10.929   5.427 -0.8457 -0.4683 -1.5470
  158MOL0     H21764   1.263  11.030   5.369  0.5815 -0.4441 -2.0803
  158MOL0     H21765   1.366  11.095   5.491  3.0124  1.4179  0.0259
  158MOL0     H21766   1.014  11.320   5.201  3.3265 -1.9285 -0.8885
  158MOL0     H21767   0.829  11.488   5.145 -0.4127 -1.2813 -1.2373
  158MOL0     H21768   0.733  11.675   5.177  1.9751 -1.7399  2.4588
  158MOL0     H21769   0.865  11.740   5.272  0.8814 -2.7093 -0.5850
  158MOL0     H21770   0.809  11.973   5.173  0.9661 -0.1850  1.7382
  158MOL0     H21771   0.674  11.889   5.092 -2.1320 -1.1181  0.8645
  158MOL0     H21772   0.698  11.916   5.405 -1.7614  2.6122  1.2493
  158MOL0     H21773   0.572  11.840   5.298  0.2902  0.1579  0.2690
  158MOL0     H21774   0.534  12.052   5.198  0.3660  1.6188  0.2973
  158MOL0     H21775   0.667  12.124   5.299  0.5885  0.2976 -0.2551
  158MOL0     H21776   0.433  12.172   5.353 -0.1573 -0.1529  0.7172
  158MOL0     H21777   0.409  11.998   5.374  0.4492 -1.5049  0.0017
  158MOL0     H21778   0.610  12.152   5.555 -1.0843  0.5057  3.0187
  158MOL0     H21779   0.552  11.989   5.575 -1.7405 -1.8453 -1.8871
  158MOL0     H21780   0.329  12.050   5.633 -0.6008  0.0824 -0.1167
  158MOL0     H21781   0.351  12.217   5.598 -0.1369 -0.6592  0.1561
  158MOL0     H21782   0.468  12.038   5.818 -0.8809 -1.0713 -0.7594
  158MOL0     H21783   0.356  12.162   5.851  0.6631 -0.1635  0.1894
  158MOL0     H21784   1.147  11.735   4.985  2.9637 -1.7999 -0.8365
  158MOL0     H21785   1.305  11.552   4.996 -0.0860 -2.7616 -2.8754
  158MOL0     H21786   1.500  11.314   5.059 -0.9958  2.0091  3.6810
  158MOL0     H21787   1.725  11.181   5.027  1.3251  0.7622  1.4957
  158MOL0     H21788   2.586  10.012   4.471  2.0022 -0.5791  0.6072
  158MOL0     H21789   2.561   9.825   4.311 -1.3456  0.2334  0.0798
  158MOL0     H21790   2.455   9.693   3.887 -1.4960  1.0275 -1.9965
  158MOL0     H21791   2.450   9.498   3.744  0.6912 -0.0202 -2.8924
  158MOL0     H21792   2.795   9.381   3.480  1.3660 -0.5176  0.2562
  158MOL0     H21793   2.812   9.326   3.651  0.3065 -0.2514  0.4071
  158MOL0     H21794   2.631   9.171   3.459  0.5383  0.4274 -1.5687
  158MOL0     H21795   2.703   9.126   3.621  2.6849  2.9563  1.0238
  158MOL0     H21796   2.785   9.007   3.432 -1.2366  0.2711 -1.2371
  158MOL0     H21797   2.822   9.164   3.346  1.1227 -0.1015  0.6912
  158MOL0     H21798   2.948   9.062   3.607  3.2139  0.9636  0.6952
  158MOL0     H21799   2.994   9.215   3.538  1.8686 -0.3475 -1.9240
  158MOL0     H21800   3.215   8.936   3.323  1.0794 -0.4387  1.3745
  158MOL0     H21801   2.847   9.580   3.605 -1.0439  0.7580 -0.0831
  158MOL0     H21802   2.963   9.771   3.850 -1.0060  3.4757  1.2833
  158MOL0     H21803   2.960   9.753   3.671  0.0197  1.1959 -0.7737
  158MOL0     H21804   2.878   9.886   3.755  0.0474 -0.1033  0.9823
  159MOL0     O21805   7.894  11.231  11.126  0.2890  0.7843 -0.7911
  159MOL0     C21806   7.955  11.223  11.021 -0.5027  0.5132 -0.3151
  159MOL0     O21807   8.090  11.186  11.011 -1.1820 -0.0128  0.2790
  159MOL0     C21808   8.158  11.154  11.130  0.7886  0.1916  0.1608
  159MOL0     C21809   8.103  11.077  11.238 -0.8996  0.3390  0.3408
  159MOL0     C21810   8.185  11.059  11.350 -0.6731 -0.2203  1.1025
  159MOL0     C21811   8.322  11.107  11.365 -0.0419  0.3389  0.5253
  159MOL0     O21812   8.400  11.099  11.478  0.4175  0.5883  0.5630
  159MOL0     C21813   8.400  11.218  11.550  0.0326 -0.2202  1.2921
  159MOL0     C21814   8.542  11.246  11.608 -0.2379 -1.1616 -0.2307
  159MOL0     C21815   8.620  11.140  11.694  1.2960  1.2132  0.1066
  159MOL0     C21816   8.556  11.141  11.833 -0.2243  0.9173  0.9924
  159MOL0     C21817   8.643  11.076  11.937 -0.1137  1.6935  0.2497
  159MOL0     C21818   8.697  10.933  11.900 -0.6631  0.0719 -1.1835
  159MOL0     C21819   8.814  10.880  11.980  0.9491  0.5229 -0.5086
  159MOL0     C21820   8.860  10.739  11.965  1.2820 -0.3399  0.0377
  159MOL0     N21821   8.930  10.689  12.079 -0.9086 -0.5346  0.2744
  159MOL0     C21822   9.040  10.750  12.150  0.2185 -0.6152 -0.0571
  159MOL0     C21823   9.058  10.662  12.259  0.3588  0.0609  0.5539
  159MOL0     C21824   9.188  10.680  12.338 -0.2270  0.4272  0.0935
  159MOL0     C21825   9.172  10.625  12.480 -0.2762 -0.1147  0.6228
  159MOL0     C21826   9.132  10.477  12.500  0.5562  0.0252  0.0225
  159MOL0     C21827   9.203  10.375  12.405 -0.9589 -0.0014 -0.8216
  159MOL0     O21828   9.345  10.409  12.412 -0.4228  0.3947  0.7479
  159MOL0     C21829   9.438  10.357  12.505  0.5491  1.0860  0.7574
  159MOL0     C21830   9.423  10.232  12.560  0.2963  0.3079  0.0340
  159MOL0     C21831   9.507  10.190  12.667  0.2705  1.2080 -0.2343
  159MOL0     C21832   9.461  10.058  12.730  0.2760 -0.5051 -0.2396
  159MOL0     C21833   9.617  10.271  12.702  0.3746  0.3616 -0.2592
  159MOL0     C21834   9.715  10.246  12.807  1.2941  0.8094 -0.0627
  159MOL0     O21835   9.819  10.330  12.829 -0.1850  0.3933  0.4542
  159MOL0     C21836   9.924  10.278  12.895  0.0586  0.2168  0.3791
  159MOL0     C21837   9.932  10.285  13.034  0.1780 -0.1519 -0.3029
  159MOL0     C21838  10.036  10.224  13.103  0.2142  0.1652 -0.5797
  159MOL0     C21839  10.134  10.156  13.034  0.5608 -0.7621 -0.4013
  159MOL0     O21840  10.238  10.099  13.101  0.5721  0.2509 -0.2096
  159MOL0     C21841  10.202   9.983  13.177 -0.5782 -0.8516 -0.7953
  159MOL0     C21842  10.324   9.894  13.190 -0.5232 -0.1748 -0.3870
  159MOL0     C21843  10.281   9.757  13.263 -0.4443 -1.4475  0.0082
  159MOL0     C21844  10.385   9.647  13.230 -0.2784  0.1961  0.8907
  159MOL0     C21845  10.329   9.533  13.325  0.7364 -0.1481 -0.1409
  159MOL0     C21846  10.417   9.407  13.330 -0.2834  0.7114  0.7913
  159MOL0     C21847  10.387   9.323  13.458 -0.0642 -0.2909  0.2272
  159MOL0     C21848  10.485   9.373  13.580 -0.4693  0.2356  0.0241
  159MOL0    Cl21849  10.413   9.498  13.684  0.0261 -0.6743 -0.1086
  159MOL0     C21850  10.136  10.154  12.902  0.5188 -0.9752  0.0362
  159MOL0     C21851  10.028  10.210  12.829 -0.5802 -0.0666 -0.3358
  159MOL0     O21852   9.697  10.144  12.875 -0.3859 -1.3578  0.5911
  159MOL0     C21853   9.627  10.390  12.641  0.0618 -0.0480 -0.3721
  159MOL0     C21854   9.546  10.428  12.545  1.3174 -0.0102 -1.0373
  159MOL0     N21855   8.975  10.552  12.240  0.1472 -0.4122  0.1629
  159MOL0     N21856   8.906  10.570  12.133 -0.3962  0.2010 -0.1625
  159MOL0     C21857   8.369  11.183  11.256 -0.4788 -0.0114 -0.1421
  159MOL0     C21858   8.288  11.197  11.141  0.2147 -0.0250 -0.1427
  159MOL0     C21859   7.891  11.254  10.890  0.1006  0.1915  0.6243
  159MOL0     C21860   7.941  11.199  10.778  0.8067 -0.2256  0.1202
  159MOL0     C21861   7.888  11.227  10.646 -0.2665  0.1410 -0.0733
  159MOL0     C21862   7.770  11.291  10.637  0.7144 -1.1842  0.0180
  159MOL0     O21863   7.702  11.302  10.524 -0.0955  0.2482  0.3824
  159MOL0     C21864   7.752  11.224  10.413  0.2694 -0.2265  0.3191
  159MOL0     C21865   7.661  11.243  10.293 -0.0173  0.0843 -0.0915
  159MOL0     C21866   7.727  11.166  10.175 -0.2204  0.1449 -0.1457
  159MOL0     C21867   7.640  11.205  10.051  0.6741 -0.0703 -0.3773
  159MOL0     C21868   7.660  11.111   9.939  0.7936  0.5812  0.4741
  159MOL0     C21869   7.711  11.036   9.862 -0.3829 -0.7892  0.5261
  159MOL0     C21870   7.705  11.343  10.748 -0.4438  0.4110 -0.9254
  159MOL0     C21871   7.765  11.318  10.875  0.5220 -0.2090  1.0691
  159MOL0     C21872   7.689  11.373  10.994  0.3858 -0.3587  0.6767
  159MOL0     H21873   8.001  11.038  11.240 -0.2285 -1.6511  2.9131
  159MOL0     H21874   8.136  11.001  11.428 -1.3868 -0.4734  0.4716
  159MOL0     H21875   8.322  11.213  11.627 -1.2843 -1.0035 -0.0472
  159MOL0     H21876   8.371  11.310  11.499  4.1651  1.4499  1.5705
  159MOL0     H21877   8.611  11.268  11.525 -0.0913  0.0442  0.1870
  159MOL0     H21878   8.522  11.341  11.658 -0.9349 -1.2199 -0.3873
  159MOL0     H21879   8.613  11.036  11.661  1.2803  2.2139 -3.4196
  159MOL0     H21880   8.725  11.169  11.702  1.2628  1.7565 -1.1939
  159MOL0     H21881   8.548  11.248  11.857  0.6230  1.8916 -2.5283
  159MOL0     H21882   8.459  11.092  11.821 -0.5093  1.8284 -0.7570
  159MOL0     H21883   8.594  11.052  12.032  0.7036  1.0764  0.5320
  159MOL0     H21884   8.729  11.145  11.937 -0.9483  2.7883 -1.1813
  159MOL0     H21885   8.615  10.862  11.913  0.4108 -0.9182  0.6272
  159MOL0     H21886   8.723  10.927  11.793 -4.0581 -1.7122 -2.0808
  159MOL0     H21887   8.794  10.894  12.087  2.2377  1.1214 -0.3276
  159MOL0     H21888   8.907  10.935  11.964  1.9405 -1.7693 -3.4336
  159MOL0     H21889   8.768  10.685  11.941  0.1914  2.4461 -2.9399
  159MOL0     H21890   8.927  10.744  11.878 -0.8809 -1.9483 -1.8637
  159MOL0     H21891   9.094  10.842  12.132 -2.7199  1.6489  1.8040
  159MOL0     H21892   9.219  10.784  12.353 -1.5649  1.0720 -1.2558
  159MOL0     H21893   9.273  10.633  12.288 -1.8909  0.1997 -2.7702
  159MOL0     H21894   9.252  10.656  12.548 -0.8609 -1.1282  1.8110
  159MOL0     H21895   9.096  10.685  12.531 -0.6943 -2.4556  2.9221
  159MOL0     H21896   9.150  10.455  12.606 -0.8459  0.0178  0.2854
  159MOL0     H21897   9.024  10.463  12.489  0.2506  0.9506  1.5216
  159MOL0     H21898   9.172  10.277  12.443 -1.1462 -1.6655 -4.7762
  159MOL0     H21899   9.159  10.384  12.305  1.2142 -0.7179 -1.9142
  159MOL0     H21900   9.349  10.157  12.534  0.5643  1.0761 -3.4480
  159MOL0     H21901   9.553   9.999  12.734  1.4846  1.2489 -0.8946
  159MOL0     H21902   9.385  10.003  12.674  1.7829 -1.6776 -1.2124
  159MOL0     H21903   9.422  10.088  12.827 -4.1244 -1.6616 -1.4539
  159MOL0     H21904   9.848  10.341  13.071  2.1720  3.3595 -0.6322
  159MOL0     H21905  10.035  10.221  13.212  1.3067  0.4488 -0.5449
  159MOL0     H21906  10.169  10.010  13.277 -0.6102  0.7650 -1.2132
  159MOL0     H21907  10.124   9.924  13.127  0.6156 -0.6850 -3.0173
  159MOL0     H21908  10.375   9.878  13.094 -0.1835  0.8229 -0.3821
  159MOL0     H21909  10.394   9.949  13.253  0.1500 -0.2378 -1.0664
  159MOL0     H21910  10.176   9.735  13.240 -1.4595  0.9912  1.9327
  159MOL0     H21911  10.288   9.771  13.371 -0.7440 -2.1497  0.1267
  159MOL0     H21912  10.489   9.668  13.256  0.3647 -1.3586 -0.2628
  159MOL0     H21913  10.384   9.626  13.122 -1.9729 -0.9242  1.0798
  159MOL0     H21914  10.327   9.576  13.425 -1.4448 -2.0967  0.7480
  159MOL0     H21915  10.223   9.510  13.306  1.1198 -1.1076 -1.2971
  159MOL0     H21916  10.523   9.429  13.322 -0.5200  1.2357 -2.0885
  159MOL0     H21917  10.390   9.344  13.245  0.4490 -1.7875  2.3189
  159MOL0     H21918  10.402   9.217  13.439 -4.5259 -0.8679 -1.1504
  159MOL0     H21919  10.283   9.327  13.492  0.4678 -0.7461  2.0509
  159MOL0     H21920  10.580   9.412  13.541  0.7986 -3.7208 -1.3783
  159MOL0     H21921  10.512   9.288  13.643  1.2696 -0.1508 -1.1670
  159MOL0     H21922  10.217  10.108  12.846 -0.4983 -1.9176 -0.7337
  159MOL0     H21923  10.020  10.202  12.721  5.0672  0.1267 -1.0761
  159MOL0     H21924   9.708  10.460  12.663 -0.1837  0.0679  0.1674
  159MOL0     H21925   9.558  10.528  12.504  2.1869 -0.4120 -1.7970
  159MOL0     H21926   8.456  11.248  11.252 -0.5578  0.0410 -3.0639
  159MOL0     H21927   8.335  11.256  11.062  5.2528 -0.2948  2.2689
  159MOL0     H21928   8.040  11.157  10.794  1.6703  0.7893 -2.1777
  159MOL0     H21929   7.942  11.185  10.562  4.0689 -0.2026  2.5580
  159MOL0     H21930   7.849  11.254  10.371 -0.0533 -1.5029 -1.4635
  159MOL0     H21931   7.768  11.117  10.429 -2.4618 -1.5162 -3.7177
  159MOL0     H21932   7.636  11.348  10.273  0.6159  1.0062  3.3373
  159MOL0     H21933   7.568  11.198  10.330 -0.4513  2.4091  1.9480
  159MOL0     H21934   7.832  11.196  10.164 -0.8793  3.0257  0.3825
  159MOL0     H21935   7.718  11.057  10.176  4.1572 -0.3963 -0.2698
  159MOL0     H21936   7.656  11.309  10.022 -2.5928  0.5444 -0.3471
  159MOL0     H21937   7.536  11.193  10.084  0.1428  2.3046 -1.0014
  159MOL0     H21938   7.754  10.962   9.798  1.0276 -0.8033  1.4576
  159MOL0     H21939   7.608  11.392  10.754 -1.3064 -1.4408  2.1204
  159MOL0     H21940   7.673  11.295  11.069  2.3636 -1.6803 -0.1823
  159MOL0     H21941   7.721  11.467  11.039 -0.3438  0.6413 -0.8273
  159MOL0     H21942   7.585  11.392  10.966  0.7039  0.3122 -0.0830
  160MOL0     O21943   2.280   4.789   1.752 -0.0276  0.1524 -0.7067
  160MOL0     C21944   2.251   4.716   1.848  0.0206  0.4586 -0.5890
  160MOL0     O21945   2.142   4.639   1.855  0.7742 -0.3546 -1.0431
  160MOL0     C21946   2.061   4.630   1.745  0.2978  0.7553  0.1040
  160MOL0     C21947   1.955   4.725   1.739 -0.5125  0.7834 -0.3970
  160MOL0     C21948   1.886   4.718   1.628  0.4819  0.0028  0.4612
  160MOL0     C21949   1.916   4.646   1.511 -0.5425  0.2852  0.7261
  160MOL0     O21950   1.834   4.661   1.392 -0.3445 -0.2179 -0.3986
  160MOL0     C21951   1.741   4.549   1.382 -0.7288 -1.0138 -0.6371
  160MOL0     C21952   1.658   4.566   1.258 -0.1608  0.7399 -0.5409
  160MOL0     C21953   1.512   4.524   1.270  0.2277 -0.0551 -0.4076
  160MOL0     C21954   1.498   4.372   1.296  0.2158  0.1250 -0.2498
  160MOL0     C21955   1.358   4.328   1.307  0.0049  0.1719  0.7293
  160MOL0     C21956   1.295   4.307   1.165 -0.5118  0.4088 -1.0002
  160MOL0     C21957   1.140   4.282   1.177  0.6468  0.5682  0.2181
  160MOL0     C21958   1.094   4.168   1.269  0.1021 -0.8294  0.3881
  160MOL0     N21959   0.937   4.171   1.268 -0.0561  1.1761  0.0661
  160MOL0     C21960   0.852   4.063   1.226  0.4350  0.5048  1.4615
  160MOL0     C21961   0.725   4.113   1.234  0.2611 -0.1872 -1.1815
  160MOL0     C21962   0.600   4.041   1.226 -0.4623  0.9278 -0.0825
  160MOL0     C21963   0.595   3.918   1.318  0.3725  1.1550  0.3614
  160MOL0     C21964   0.558   3.793   1.243 -0.8621  0.0254 -1.0430
  160MOL0     C21965   0.598   3.659   1.330  0.2901 -0.3198  0.5183
  160MOL0     O21966   0.500   3.646   1.433  0.0728 -0.2406 -0.2032
  160MOL0     C21967   0.501   3.525   1.491  0.2632  1.0222 -0.7276
  160MOL0     C21968   0.372   3.478   1.548  0.1426 -0.4090  0.2888
  160MOL0     C21969   0.376   3.352   1.617  1.2642  0.2063  0.4618
  160MOL0     C21970   0.248   3.305   1.681  0.2861 -0.6461 -0.8199
  160MOL0     C21971   0.489   3.263   1.604 -0.7096 -0.7069  0.1292
  160MOL0     C21972   0.489   3.115   1.652  1.0830  0.1895 -0.6280
  160MOL0     O21973   0.609   3.062   1.648 -0.4353  0.0011 -0.8064
  160MOL0     C21974   0.634   2.944   1.717 -0.6374  0.1668  0.0493
  160MOL0     C21975   0.742   2.926   1.811 -0.2516 -0.0150  0.1861
  160MOL0     C21976   0.756   2.804   1.879 -0.4049  0.8971  0.2444
  160MOL0     C21977   0.676   2.693   1.841 -0.1242 -0.1832  1.0176
  160MOL0     O21978   0.694   2.564   1.872 -1.2079  0.0383  0.5456
  160MOL0     C21979   0.721   2.535   2.013  0.0630  0.3315 -0.1113
  160MOL0     C21980   0.863   2.500   2.037  0.1980 -0.2165  0.1232
  160MOL0     C21981   0.880   2.430   2.173 -0.5367 -0.1096 -0.0806
  160MOL0     C21982   1.034   2.431   2.216 -0.5847  1.4389 -0.9163
  160MOL0     C21983   1.047   2.390   2.371 -0.7980  0.3845  0.4258
  160MOL0     C21984   1.183   2.341   2.418 -0.2063 -1.5322  0.2891
  160MOL0     C21985   1.199   2.285   2.564  0.8003  0.9905  0.1306
  160MOL0     C21986   1.166   2.363   2.687 -0.9488 -0.3442  0.6131
  160MOL0    Cl21987   1.004   2.334   2.731 -0.0003  0.3237 -0.1663
  160MOL0     C21988   0.576   2.716   1.748  0.5438 -0.0970  0.2811
  160MOL0     C21989   0.555   2.833   1.684 -0.3674 -1.2386  0.1471
  160MOL0     O21990   0.395   3.067   1.718  0.5513  0.1433  0.8473
  160MOL0     C21991   0.610   3.309   1.539 -0.4257 -0.7266 -0.3147
  160MOL0     C21992   0.611   3.438   1.487 -0.2976 -0.4196 -0.8404
  160MOL0     N21993   0.738   4.245   1.274 -0.1831 -0.8234 -0.6240
  160MOL0     N21994   0.860   4.279   1.289 -0.4487  0.0218  0.3047
  160MOL0     C21995   2.021   4.550   1.521 -1.1516  0.2045  0.1636
  160MOL0     C21996   2.095   4.543   1.642 -0.0668 -0.0909  0.0131
  160MOL0     C21997   2.347   4.702   1.962  0.5491 -0.5260 -1.1453
  160MOL0     C21998   2.317   4.626   2.073  0.1638 -0.0853 -0.4362
  160MOL0     C21999   2.387   4.634   2.196  1.0671  0.4368 -0.4087
  160MOL0     C22000   2.507   4.711   2.200  0.3569 -0.5511  0.2749
  160MOL0     O22001   2.591   4.725   2.316 -0.7835 -0.0407  0.4334
  160MOL0     C22002   2.600   4.612   2.407 -0.5423  0.0038 -0.3165
  160MOL0     C22003   2.753   4.590   2.458  0.1205  0.4373  0.6136
  160MOL0     C22004   2.819   4.712   2.536  0.1393  0.3624  0.2743
  160MOL0     C22005   2.904   4.804   2.455 -0.9306 -0.3754  0.0683
  160MOL0     C22006   2.941   4.918   2.537  0.0587 -0.3640 -0.0916
  160MOL0     C22007   2.946   5.012   2.617 -0.2052 -1.0863  0.6071
  160MOL0     C22008   2.548   4.765   2.074 -0.1535  0.4596  0.7823
  160MOL0     C22009   2.471   4.771   1.961 -0.5526  0.2889 -0.0954
  160MOL0     C22010   2.540   4.826   1.845 -0.7420  0.7165  0.1540
  160MOL0     H22011   1.943   4.790   1.825  1.0999  0.8416 -0.1767
  160MOL0     H22012   1.799   4.780   1.609  0.4366 -0.7664 -2.2350
  160MOL0     H22013   1.681   4.549   1.474  2.8887  1.9092  2.0320
  160MOL0     H22014   1.789   4.453   1.363 -1.6451 -2.1458  2.1632
  160MOL0     H22015   1.665   4.674   1.246  3.6364  0.8820  1.5246
  160MOL0     H22016   1.710   4.510   1.180 -1.1549 -2.4747  0.9274
  160MOL0     H22017   1.453   4.582   1.343  0.5145 -1.2074  0.7886
  160MOL0     H22018   1.462   4.535   1.173  2.7947  1.6294 -1.6234
  160MOL0     H22019   1.567   4.309   1.239 -0.5131 -1.4764  0.5634
  160MOL0     H22020   1.537   4.339   1.393  0.8889  2.2290  0.2578
  160MOL0     H22021   1.304   4.412   1.352  1.6920  0.8149  1.6132
  160MOL0     H22022   1.347   4.231   1.357 -2.5974  0.2572  0.4857
  160MOL0     H22023   1.318   4.395   1.105  1.5326  0.0257 -0.8409
  160MOL0     H22024   1.335   4.221   1.109 -4.8470 -1.3902 -1.7510
  160MOL0     H22025   1.100   4.256   1.078 -1.8617  3.0828  0.4542
  160MOL0     H22026   1.101   4.381   1.204  2.5029  1.4369 -0.1046
  160MOL0     H22027   1.122   4.069   1.232 -0.7633 -1.0344  0.2624
  160MOL0     H22028   1.140   4.182   1.367 -0.5806 -1.4323  0.8025
  160MOL0     H22029   0.887   3.962   1.208  0.7448  0.9689 -0.9310
  160MOL0     H22030   0.578   4.002   1.126 -0.2680  2.3108 -0.6824
  160MOL0     H22031   0.521   4.112   1.250  0.0424  1.0242  1.3722
  160MOL0     H22032   0.686   3.908   1.378 -0.6253  0.5943  1.8396
  160MOL0     H22033   0.514   3.924   1.391 -3.2319 -4.8334 -2.3342
  160MOL0     H22034   0.453   3.795   1.214 -0.4605  3.1277 -2.6959
  160MOL0     H22035   0.619   3.793   1.152  3.6246 -0.5523  1.6712
  160MOL0     H22036   0.598   3.569   1.268  0.7143  0.5947 -0.8363
  160MOL0     H22037   0.698   3.674   1.372  0.2004  0.2659  0.5381
  160MOL0     H22038   0.289   3.548   1.552  1.7404  1.6542 -1.0176
  160MOL0     H22039   0.280   3.285   1.783 -1.0808  0.5062 -0.1355
  160MOL0     H22040   0.219   3.214   1.628  2.9889 -1.0643 -1.7909
  160MOL0     H22041   0.164   3.374   1.687 -2.9962 -4.4750  2.5725
  160MOL0     H22042   0.804   3.011   1.834  0.9849 -0.6740 -0.6050
  160MOL0     H22043   0.838   2.779   1.945  0.6752 -1.8438 -1.9417
  160MOL0     H22044   0.700   2.620   2.078 -0.1690 -1.1173  1.7659
  160MOL0     H22045   0.667   2.449   2.052 -1.2333  1.4751  0.6953
  160MOL0     H22046   0.904   2.437   1.958 -0.3752  1.3690 -1.5174
  160MOL0     H22047   0.918   2.594   2.042  0.4117 -0.2632 -1.0520
  160MOL0     H22048   0.859   2.326   2.149 -1.4060  0.0430 -0.0251
  160MOL0     H22049   0.805   2.458   2.247 -0.9840 -0.0729 -0.5403
  160MOL0     H22050   1.058   2.537   2.205 -1.2779  1.3815 -3.7554
  160MOL0     H22051   1.078   2.365   2.140 -3.0521  1.1530 -2.2128
  160MOL0     H22052   1.011   2.479   2.424 -0.9046  1.3690 -1.2343
  160MOL0     H22053   0.980   2.304   2.382  0.3853 -1.1171 -2.8508
  160MOL0     H22054   1.250   2.425   2.400 -1.3379  0.1315  3.2046
  160MOL0     H22055   1.215   2.255   2.358 -1.8551 -1.1971 -1.1557
  160MOL0     H22056   1.307   2.267   2.576  1.0486  2.9747  1.2197
  160MOL0     H22057   1.162   2.182   2.563  0.9515  0.9270 -1.3650
  160MOL0     H22058   1.159   2.472   2.682 -2.6475 -0.2964  2.7163
  160MOL0     H22059   1.231   2.334   2.770 -3.2542  3.3839  4.0803
  160MOL0     H22060   0.512   2.636   1.711 -3.5636  3.2384 -0.5740
  160MOL0     H22061   0.473   2.848   1.615  3.4488  0.8936 -4.6010
  160MOL0     H22062   0.700   3.248   1.529  2.1772  2.0929  3.2606
  160MOL0     H22063   0.710   3.469   1.455 -0.1220  2.3060  1.8846
  160MOL0     H22064   2.050   4.473   1.449  1.3094  0.9595  0.2444
  160MOL0     H22065   2.177   4.472   1.651 -0.0353 -0.1153 -0.4784
  160MOL0     H22066   2.229   4.563   2.071 -1.7762  2.2194  2.9391
  160MOL0     H22067   2.343   4.587   2.284 -0.9592  3.2910  0.2443
  160MOL0     H22068   2.538   4.642   2.492 -1.8677 -1.1482 -0.8559
  160MOL0     H22069   2.548   4.523   2.372 -2.5341  1.5678 -1.5741
  160MOL0     H22070   2.824   4.565   2.380  2.1393 -0.5245  2.6449
  160MOL0     H22071   2.760   4.511   2.534  1.1300  0.4030  0.4979
  160MOL0     H22072   2.752   4.764   2.605  0.1791 -0.9706  1.3766
  160MOL0     H22073   2.898   4.668   2.597 -0.3184 -0.7071  0.1146
  160MOL0     H22074   2.844   4.837   2.369  2.4334  0.8513 -1.9767
  160MOL0     H22075   2.997   4.759   2.420  0.4308  1.2950  1.3662
  160MOL0     H22076   2.955   5.090   2.690  0.6116 -0.0396 -0.5760
  160MOL0     H22077   2.643   4.818   2.072  0.4107 -0.5038 -2.1711
  160MOL0     H22078   2.545   4.750   1.766  0.3086  0.7730  0.1411
  160MOL0     H22079   2.488   4.912   1.803 -0.3594  0.4531 -0.9171
  160MOL0     H22080   2.644   4.861   1.850 -0.8927  1.2341 -0.2316
  161MOL0     O22081   9.248   1.432   2.560  0.2905 -0.0842  0.5951
  161MOL0     C22082   9.324   1.514   2.611  0.5411 -0.2090 -1.4015
  161MOL0     O22083   9.366   1.519   2.744  0.0870  0.4253  0.1465
  161MOL0     C22084   9.334   1.411   2.821 -0.4220  0.5572 -0.1520
  161MOL0     C22085   9.271   1.422   2.950 -0.5087 -1.1094 -0.3317
  161MOL0     C22086   9.231   1.316   3.027  0.3964  0.5234 -1.3018
  161MOL0     C22087   9.241   1.190   2.981  1.0167  1.7017  0.6980
  161MOL0     O22088   9.181   1.083   3.053 -0.3107 -0.1098  0.3953
  161MOL0     C22089   9.228   0.956   3.020  0.0854  0.0547  1.0783
  161MOL0     C22090   9.226   0.861   3.139 -0.0657 -0.0622  0.8430
  161MOL0     C22091   9.337   0.899   3.219  0.1115 -0.3345 -0.2643
  161MOL0     C22092   9.340   0.830   3.349 -0.1943 -0.2825  0.4451
  161MOL0     C22093   9.477   0.857   3.424  0.4768  0.7267  0.1670
  161MOL0     C22094   9.578   0.738   3.405  0.6130  0.1356 -0.3926
  161MOL0     C22095   9.718   0.768   3.448 -0.3761  0.6937  0.3664
  161MOL0     C22096   9.736   0.779   3.599  0.3831 -0.1689 -0.4484
  161MOL0     N22097   9.754   0.636   3.643  0.0451 -0.0668 -0.0555
  161MOL0     C22098   9.651   0.552   3.671  0.0298  0.4133  0.6165
  161MOL0     C22099   9.695   0.425   3.651 -0.0806 -0.8187 -1.0004
  161MOL0     C22100   9.614   0.300   3.671 -0.2750  0.3984  0.1351
  161MOL0     C22101   9.681   0.171   3.602 -0.2089  0.1875  0.5155
  161MOL0     C22102   9.671   0.168   3.455  0.2985 -0.9250  0.6642
  161MOL0     C22103   9.767   0.060   3.394  0.0549 -0.6019  0.6678
  161MOL0     O22104   9.764  -0.069   3.455 -0.1616  0.6379  0.0738
  161MOL0     C22105   9.857  -0.097   3.550  0.7869 -0.5371  0.4782
  161MOL0     C22106   9.814  -0.149   3.674 -0.3279 -0.0955 -1.1020
  161MOL0     C22107   9.901  -0.167   3.783 -0.1915 -0.8479 -0.0917
  161MOL0     C22108   9.841  -0.238   3.895  0.2623  0.1547 -0.9183
  161MOL0     C22109  10.030  -0.107   3.787 -0.1141 -0.0163 -0.7324
  161MOL0     C22110  10.131  -0.122   3.899  0.2305 -0.8561 -1.1230
  161MOL0     O22111  10.231  -0.033   3.892 -0.5206  0.3295  0.5782
  161MOL0     C22112  10.301   0.017   3.993  0.3276  0.6450  0.5804
  161MOL0     C22113  10.429   0.059   3.969 -1.4253 -1.2182 -0.2111
  161MOL0     C22114  10.517   0.117   4.066 -0.4327 -0.9073  0.5015
  161MOL0     C22115  10.465   0.148   4.192 -0.0378  0.4431 -0.2958
  161MOL0     O22116  10.546   0.199   4.294 -0.5419 -0.4252  0.4429
  161MOL0     C22117  10.677   0.248   4.263 -0.5148 -0.0266  0.3807
  161MOL0     C22118  10.738   0.286   4.389  0.7212  0.2595  1.6743
  161MOL0     C22119  10.866   0.368   4.362 -0.5856 -0.6474  0.1451
  161MOL0     C22120  10.993   0.284   4.365  0.2260 -0.0179 -0.0765
  161MOL0     C22121  11.110   0.361   4.328  0.6683  1.0142  0.1801
  161MOL0     C22122  11.239   0.271   4.332  0.8083 -0.4617 -0.6022
  161MOL0     C22123  11.370   0.350   4.309 -0.1393 -0.4901  0.3023
  161MOL0     C22124  11.495   0.256   4.309 -0.0034  0.6970 -0.1743
  161MOL0    Cl22125  11.519   0.144   4.171 -0.2267  0.1423  0.3145
  161MOL0     C22126  10.341   0.108   4.217  0.8723  0.1002  0.1644
  161MOL0     C22127  10.266   0.035   4.127  0.5390  0.4870  0.6099
  161MOL0     O22128  10.118  -0.212   3.986 -0.3316 -0.5755 -0.2771
  161MOL0     C22129  10.071  -0.050   3.669 -0.0774 -0.0379  0.3102
  161MOL0     C22130   9.987  -0.053   3.558 -0.3970 -0.5686 -0.4540
  161MOL0     N22131   9.836   0.436   3.634  0.2421 -0.3281  0.5425
  161MOL0     N22132   9.864   0.566   3.619  0.4833 -0.2591  0.2665
  161MOL0     C22133   9.305   1.167   2.848  1.3231 -0.6676 -0.0650
  161MOL0     C22134   9.354   1.274   2.774  0.0285 -0.3272 -0.2785
  161MOL0     C22135   9.390   1.611   2.521  0.2514 -0.0889  1.0917
  161MOL0     C22136   9.523   1.622   2.528 -0.2831 -0.3642  0.5641
  161MOL0     C22137   9.586   1.706   2.439  0.0890  0.5856  0.3282
  161MOL0     C22138   9.529   1.784   2.341  1.2162 -0.4261 -0.0245
  161MOL0     O22139   9.619   1.860   2.266  0.3626 -0.2018 -0.3479
  161MOL0     C22140   9.567   1.954   2.166  0.5856  0.5491  0.0334
  161MOL0     C22141   9.575   1.904   2.016 -0.5317  0.1283 -0.5446
  161MOL0     C22142   9.719   1.861   1.979  0.3913 -1.2573  0.7669
  161MOL0     C22143   9.726   1.854   1.826  0.0276 -0.3563  0.1543
  161MOL0     C22144   9.862   1.818   1.779 -0.3431 -0.8369  0.3855
  161MOL0     C22145   9.979   1.780   1.764  0.3725 -0.8396  0.9188
  161MOL0     C22146   9.388   1.784   2.340 -0.0472 -0.8372 -0.3523
  161MOL0     C22147   9.324   1.695   2.425 -0.0843  0.0764 -0.1775
  161MOL0     C22148   9.175   1.699   2.420  0.5141 -0.2049  0.0589
  161MOL0     H22149   9.272   1.524   2.987  1.0874 -1.6617  1.3114
  161MOL0     H22150   9.200   1.323   3.131  2.9566  0.3866 -0.4489
  161MOL0     H22151   9.337   0.962   3.006  0.7531 -2.3145  4.1296
  161MOL0     H22152   9.181   0.900   2.939  2.3828 -1.4312  0.6716
  161MOL0     H22153   9.136   0.881   3.198 -3.8864 -4.3071 -2.8350
  161MOL0     H22154   9.218   0.765   3.088  1.4864  1.2588 -2.2077
  161MOL0     H22155   9.427   0.876   3.160 -0.5584  0.6517 -1.7479
  161MOL0     H22156   9.340   1.008   3.229  1.3304  0.0765 -3.6152
  161MOL0     H22157   9.251   0.855   3.407 -1.2213 -0.4295 -1.0384
  161MOL0     H22158   9.350   0.722   3.341  5.5778 -0.0099 -0.7047
  161MOL0     H22159   9.457   0.870   3.530 -0.6510  0.1270  0.0471
  161MOL0     H22160   9.522   0.952   3.394 -0.4831  2.1984  3.0202
  161MOL0     H22161   9.533   0.656   3.462 -1.6375  1.3008 -0.3576
  161MOL0     H22162   9.566   0.714   3.299  1.2483 -0.7138 -0.2773
  161MOL0     H22163   9.734   0.869   3.411 -0.5327  2.0245  3.6210
  161MOL0     H22164   9.785   0.701   3.393 -1.6869 -2.1519  2.0017
  161MOL0     H22165   9.823   0.843   3.621 -0.5423  1.1053 -0.3638
  161MOL0     H22166   9.647   0.815   3.651  1.0089  2.4893 -1.0687
  161MOL0     H22167   9.554   0.596   3.690  0.9451  2.1661  1.5072
  161MOL0     H22168   9.512   0.320   3.636  0.0928  0.3764 -1.0008
  161MOL0     H22169   9.597   0.273   3.776  1.0780 -1.3842 -0.0667
  161MOL0     H22170   9.780   0.151   3.644 -1.0369 -0.7252  2.1489
  161MOL0     H22171   9.610   0.090   3.622 -0.5933  0.0494 -1.2262
  161MOL0     H22172   9.569   0.135   3.435  1.2518 -5.1107  1.7397
  161MOL0     H22173   9.666   0.265   3.404 -1.7817 -2.2722 -1.9574
  161MOL0     H22174   9.756   0.062   3.285 -0.4381 -0.0258  0.7240
  161MOL0     H22175   9.866   0.102   3.414  0.5309 -1.7010  0.7023
  161MOL0     H22176   9.713  -0.187   3.682 -0.4550  0.4287 -0.0717
  161MOL0     H22177   9.855  -0.177   3.986 -1.3028 -0.0344 -0.5207
  161MOL0     H22178   9.888  -0.335   3.912 -1.7678 -0.4888  1.8664
  161MOL0     H22179   9.733  -0.247   3.878  0.1039  1.7141 -0.9342
  161MOL0     H22180  10.476   0.040   3.873  1.6244  0.8522  0.6916
  161MOL0     H22181  10.615   0.136   4.025  0.1239 -2.2019  1.1660
  161MOL0     H22182  10.732   0.167   4.214 -0.7445  0.1896 -0.2394
  161MOL0     H22183  10.678   0.332   4.193  5.4485  0.0041  0.0136
  161MOL0     H22184  10.661   0.345   4.439 -2.2452  0.6517 -2.8168
  161MOL0     H22185  10.760   0.200   4.454 -0.0282 -3.1450 -2.1347
  161MOL0     H22186  10.866   0.426   4.455 -0.0862 -2.2288  1.1728
  161MOL0     H22187  10.870   0.435   4.275  3.3202  0.5047  1.0237
  161MOL0     H22188  10.984   0.197   4.299 -2.9076  0.5696 -0.6266
  161MOL0     H22189  11.012   0.234   4.460 -1.0931 -0.0943  0.1751
  161MOL0     H22190  11.101   0.394   4.224 -1.5869  1.8730  0.5930
  161MOL0     H22191  11.108   0.462   4.371 -2.4023  2.7402 -3.4289
  161MOL0     H22192  11.236   0.182   4.269  1.0503 -1.2506  0.4799
  161MOL0     H22193  11.262   0.233   4.432  2.3882 -1.0495 -1.1449
  161MOL0     H22194  11.378   0.438   4.373  1.4506 -0.6122  0.3028
  161MOL0     H22195  11.365   0.391   4.208 -1.0256 -0.0582  0.5091
  161MOL0     H22196  11.500   0.193   4.398  1.0454  0.9969 -0.0075
  161MOL0     H22197  11.585   0.318   4.314 -1.4177  3.0901 -2.1143
  161MOL0     H22198  10.303   0.128   4.317 -1.2502  0.4371 -0.6679
  161MOL0     H22199  10.174  -0.009   4.164  0.0668  0.7066 -0.2949
  161MOL0     H22200  10.169  -0.005   3.677  0.4665 -1.1609  0.1110
  161MOL0     H22201  10.022   0.001   3.470 -4.4496  1.2933 -1.1797
  161MOL0     H22202   9.301   1.071   2.798  1.9118 -0.2582 -0.9088
  161MOL0     H22203   9.408   1.258   2.681 -0.7161 -1.0464 -0.5955
  161MOL0     H22204   9.581   1.564   2.599 -1.6201 -1.7699  0.5406
  161MOL0     H22205   9.694   1.711   2.444  0.2172 -0.0390 -1.2553
  161MOL0     H22206   9.467   1.991   2.188 -0.5985 -0.8368 -2.5108
  161MOL0     H22207   9.638   2.037   2.176  0.8641  0.1174  1.9073
  161MOL0     H22208   9.540   1.987   1.954 -1.2963  1.2286  1.2643
  161MOL0     H22209   9.515   1.812   2.012  1.1873 -1.0166 -0.8690
  161MOL0     H22210   9.782   1.944   2.011  1.2644 -1.7696  0.3996
  161MOL0     H22211   9.761   1.773   2.029  2.1830 -1.3885 -0.8512
  161MOL0     H22212   9.709   1.952   1.781 -2.2363 -0.7312  0.0949
  161MOL0     H22213   9.648   1.784   1.795  0.3209 -1.3810  1.6408
  161MOL0     H22214  10.081   1.758   1.738  0.4529  1.2097 -0.7627
  161MOL0     H22215   9.340   1.828   2.254  2.7692 -0.6242 -1.9151
  161MOL0     H22216   9.133   1.606   2.382  1.4639  0.1630 -2.0427
  161MOL0     H22217   9.124   1.742   2.507  1.4485  2.6329 -0.6585
  161MOL0     H22218   9.133   1.763   2.342 -1.7095 -1.1634  0.3985
  162MOL0     O22219   0.346  10.819   6.345  0.1473 -0.1552  0.8727
  162MOL0     C22220   0.458  10.834   6.304 -0.8054  0.4479  0.5714
  162MOL0     O22221   0.497  10.841   6.177  0.6965  0.0592 -0.3550
  162MOL0     C22222   0.416  10.804   6.072  0.4631  0.6393 -0.6200
  162MOL0     C22223   0.320  10.702   6.081 -0.1502  0.0207 -0.0758
  162MOL0     C22224   0.237  10.677   5.981  0.6043  0.8367  0.8818
  162MOL0     C22225   0.246  10.752   5.858  0.5132  0.0013 -0.1896
  162MOL0     O22226   0.175  10.721   5.740 -0.5821  0.1001  0.5616
  162MOL0     C22227   0.150  10.582   5.711  0.0777  0.1571 -0.1276
  162MOL0     C22228   0.076  10.570   5.578  0.2921  0.0575 -0.7365
  162MOL0     C22229   0.099  10.429   5.515 -0.4039 -0.3426 -0.2306
  162MOL0     C22230  -0.023  10.352   5.548  1.0130 -0.6240 -0.7416
  162MOL0     C22231  -0.069  10.237   5.454 -0.6680 -0.5047 -0.2351
  162MOL0     C22232   0.028  10.112   5.455  0.2597  0.1954  0.1683
  162MOL0     C22233   0.012  10.027   5.588  0.8022 -0.4037  0.9295
  162MOL0     C22234  -0.110   9.922   5.581  0.2564  0.8776  0.6187
  162MOL0     N22235  -0.107   9.836   5.461  0.0536  0.1857 -0.1852
  162MOL0     C22236   0.007   9.759   5.441  0.8822  0.1751 -0.1905
  162MOL0     C22237  -0.012   9.701   5.314  0.6237  0.4480 -0.5075
  162MOL0     C22238   0.082   9.613   5.239  0.2489 -0.2028 -0.0223
  162MOL0     C22239   0.118   9.628   5.084 -0.9537  0.0953 -0.1243
  162MOL0     C22240   0.181   9.500   5.048 -0.0791  0.5177  0.7413
  162MOL0     C22241   0.276   9.519   4.925 -0.1246  0.1890  0.1475
  162MOL0     O22242   0.390   9.603   4.951  0.1773  0.4139 -0.4752
  162MOL0     C22243   0.471   9.628   4.845  0.6500 -0.0662 -0.4117
  162MOL0     C22244   0.566   9.722   4.861 -0.0955 -0.7797  0.1339
  162MOL0     C22245   0.658   9.767   4.763 -0.4760  0.0622 -0.7312
  162MOL0     C22246   0.752   9.878   4.805  0.3368  0.5309  0.0092
  162MOL0     C22247   0.657   9.700   4.640  1.6160  0.5023  0.4182
  162MOL0     C22248   0.740   9.740   4.532  0.3647  0.0432  0.2168
  162MOL0     O22249   0.792   9.869   4.527 -0.0073  0.6795  0.4897
  162MOL0     C22250   0.880   9.903   4.429  0.3071 -0.1830 -0.0564
  162MOL0     C22251   0.822   9.971   4.320  0.1891  0.1912  0.1345
  162MOL0     C22252   0.905  10.021   4.221  0.4360 -0.3814 -0.1098
  162MOL0     C22253   1.046  10.012   4.221  0.2019  0.6021 -0.5008
  162MOL0     O22254   1.136  10.052   4.125 -1.0026  0.1729 -0.2112
  162MOL0     C22255   1.098  10.158   4.032 -0.1084  0.2712  1.0861
  162MOL0     C22256   1.036  10.101   3.907 -0.3665  0.7825  0.5995
  162MOL0     C22257   1.030  10.223   3.811  0.5972  0.6992 -0.0862
  162MOL0     C22258   0.974  10.175   3.682  1.1783 -0.2251 -0.6319
  162MOL0     C22259   0.998  10.279   3.573 -0.5978  0.0255  0.2011
  162MOL0     C22260   0.880  10.290   3.476 -0.8858  0.7124  0.6001
  162MOL0     C22261   0.770  10.390   3.515  0.0082  1.0128 -1.3880
  162MOL0     C22262   0.664  10.415   3.415 -0.2954  0.6735  0.3167
  162MOL0    Cl22263   0.589  10.562   3.472  0.0459  0.1038  0.1665
  162MOL0     C22264   1.102   9.939   4.329 -0.4070 -0.2225 -0.3521
  162MOL0     C22265   1.012   9.889   4.434 -0.5206  0.3563  0.5287
  162MOL0     O22266   0.772   9.651   4.449 -0.4569  0.0261  1.4126
  162MOL0     C22267   0.561   9.598   4.620  0.1655  0.1092  0.5034
  162MOL0     C22268   0.462   9.576   4.715 -0.2716  0.0497  0.6417
  162MOL0     N22269  -0.141   9.744   5.275 -0.7523  0.8346  0.5279
  162MOL0     N22270  -0.199   9.817   5.363 -0.0615  0.5509  0.1188
  162MOL0     C22271   0.346  10.844   5.850 -0.3829  0.0007  0.3312
  162MOL0     C22272   0.437  10.869   5.950  0.9431 -0.7287 -0.9765
  162MOL0     C22273   0.557  10.854   6.414  0.1830  1.0119  0.9450
  162MOL0     C22274   0.632  10.971   6.393 -1.1575  0.4274 -0.0249
  162MOL0     C22275   0.734  11.004   6.485  0.3077  0.0561 -0.1989
  162MOL0     C22276   0.770  10.915   6.591 -0.3622  0.2271  1.2350
  162MOL0     O22277   0.874  10.957   6.662  0.9382  0.4727 -0.7476
  162MOL0     C22278   0.916  10.869   6.761  0.3743  0.4906  0.3746
  162MOL0     C22279   1.059  10.901   6.805 -0.7853 -0.0223  0.0253
  162MOL0     C22280   1.082  10.893   6.955  0.2745 -0.4800 -0.0824
  162MOL0     C22281   1.219  10.946   6.990 -1.2622  0.1243  0.3300
  162MOL0     C22282   1.323  10.837   7.004  0.9103 -0.5486 -0.3175
  162MOL0     C22283   1.414  10.770   7.031  0.5100  0.6711 -1.0939
  162MOL0     C22284   0.687  10.804   6.609  0.2543  0.3365  0.1774
  162MOL0     C22285   0.575  10.779   6.520  0.6247 -0.0451  0.3854
  162MOL0     C22286   0.488  10.669   6.559  0.7017 -0.8253 -0.5495
  162MOL0     H22287   0.301  10.636   6.165  0.1261  1.8638  1.5171
  162MOL0     H22288   0.159  10.602   5.984 -0.7190  1.8800 -2.8821
  162MOL0     H22289   0.090  10.550   5.797  1.3406  1.5123  1.3360
  162MOL0     H22290   0.238  10.517   5.712 -3.1596 -4.8474  0.5449
  162MOL0     H22291  -0.026  10.601   5.605  0.7096  2.1181 -1.3236
  162MOL0     H22292   0.123  10.638   5.507 -0.2587  0.0737 -1.0948
  162MOL0     H22293   0.099  10.452   5.408 -4.4224  3.3133  0.3159
  162MOL0     H22294   0.188  10.376   5.550 -2.4841 -3.5671  0.6698
  162MOL0     H22295  -0.003  10.318   5.650 -0.8536  2.7098  0.9152
  162MOL0     H22296  -0.119  10.403   5.560 -0.0669 -2.3496 -1.5875
  162MOL0     H22297  -0.067  10.280   5.354  3.1955  1.6496  0.5590
  162MOL0     H22298  -0.170  10.210   5.486 -0.8028  1.3513  1.0689
  162MOL0     H22299   0.010  10.065   5.358 -1.3744  2.1278 -0.5424
  162MOL0     H22300   0.131  10.148   5.453  0.4510 -0.2594  1.1328
  162MOL0     H22301   0.004  10.093   5.675 -0.5244  1.9072 -0.8216
  162MOL0     H22302   0.104   9.970   5.603 -0.2077 -2.1336  0.7995
  162MOL0     H22303  -0.088   9.850   5.660  1.8677 -0.0235 -0.5840
  162MOL0     H22304  -0.212   9.956   5.598 -0.3828 -1.5111  1.9233
  162MOL0     H22305   0.102   9.749   5.493 -0.2030 -3.1395  1.4258
  162MOL0     H22306   0.036   9.514   5.243 -2.3677  0.9303  0.4969
  162MOL0     H22307   0.171   9.615   5.303  0.2279  2.6295  0.0772
  162MOL0     H22308   0.025   9.645   5.029 -1.9380  1.7882  1.9131
  162MOL0     H22309   0.182   9.715   5.074  0.9039 -0.7393  3.0320
  162MOL0     H22310   0.247   9.473   5.131  2.3337  0.1422 -1.1930
  162MOL0     H22311   0.108   9.421   5.031  1.0625 -0.6903  1.3029
  162MOL0     H22312   0.300   9.419   4.888 -0.8916  0.9579 -2.6313
  162MOL0     H22313   0.223   9.562   4.840  0.8379  0.9814 -0.0695
  162MOL0     H22314   0.566   9.759   4.963  0.6272 -0.4384  0.0177
  162MOL0     H22315   0.856   9.861   4.778 -0.3823 -0.3350 -2.5484
  162MOL0     H22316   0.745   9.885   4.914 -2.8599  0.6338 -0.0925
  162MOL0     H22317   0.721   9.979   4.774 -0.4769 -0.3298 -2.1973
  162MOL0     H22318   0.720  10.003   4.302  0.2753  0.2185 -0.3222
  162MOL0     H22319   0.859  10.074   4.138  1.4621  0.0480 -0.4174
  162MOL0     H22320   1.034  10.230   4.083  0.0983  0.6103  0.8694
  162MOL0     H22321   1.183  10.221   4.003  0.3569 -0.4578  0.8274
  162MOL0     H22322   1.096  10.021   3.864  0.4971  0.8520  1.6239
  162MOL0     H22323   0.940  10.057   3.933 -0.0583  0.3295  0.9875
  162MOL0     H22324   1.125  10.272   3.787 -0.1672  1.0494 -2.7103
  162MOL0     H22325   0.971  10.304   3.854  3.2275  1.1664  3.0267
  162MOL0     H22326   0.865  10.165   3.691  0.7660  2.3606 -1.7844
  162MOL0     H22327   0.998  10.071   3.655 -0.0637 -2.3674  4.9839
  162MOL0     H22328   1.008  10.382   3.608  2.1365  1.7917 -4.7225
  162MOL0     H22329   1.093  10.262   3.520  1.1418  3.6557  1.7871
  162MOL0     H22330   0.841  10.189   3.463  2.6183 -0.7366  0.1734
  162MOL0     H22331   0.926  10.315   3.380 -2.7824  0.5135 -0.4020
  162MOL0     H22332   0.819  10.488   3.522 -0.4091  1.3742 -2.9835
  162MOL0     H22333   0.716  10.366   3.606 -1.5573  0.3967 -2.4274
  162MOL0     H22334   0.610  10.320   3.413  1.1255 -0.1654 -1.1177
  162MOL0     H22335   0.719  10.423   3.321  1.3609 -2.5946  0.8685
  162MOL0     H22336   1.210   9.922   4.336  0.4205  3.9181 -0.6206
  162MOL0     H22337   1.068   9.841   4.514  1.2393  0.0003 -0.8577
  162MOL0     H22338   0.548   9.559   4.519  0.6014  1.4844 -0.1258
  162MOL0     H22339   0.383   9.503   4.699 -0.5394  0.5669 -0.5177
  162MOL0     H22340   0.372  10.891   5.756  0.5225 -0.2851  0.4266
  162MOL0     H22341   0.520  10.938   5.934 -0.5907  0.9642 -2.1383
  162MOL0     H22342   0.615  11.039   6.310  2.5508  0.8621 -0.5918
  162MOL0     H22343   0.795  11.093   6.471 -2.2754  1.9311 -0.3034
  162MOL0     H22344   0.865  10.864   6.857  3.5195 -2.3622  2.0880
  162MOL0     H22345   0.923  10.765   6.727 -1.0577  0.3533  0.4396
  162MOL0     H22346   1.091  11.001   6.772  1.6983 -0.7586  0.0266
  162MOL0     H22347   1.130  10.839   6.751 -2.6356  0.1026 -2.7881
  162MOL0     H22348   1.013  10.962   7.003  1.1613  2.6951 -2.9657
  162MOL0     H22349   1.062  10.790   6.987 -2.5451 -0.1579 -0.6086
  162MOL0     H22350   1.215  11.000   7.085 -0.8292  2.2452 -0.7773
  162MOL0     H22351   1.237  11.023   6.914 -0.9128 -0.0403  0.2459
  162MOL0     H22352   1.499  10.711   7.057  0.6129  0.5937 -1.5963
  162MOL0     H22353   0.688  10.737   6.694 -0.6550  0.0344 -0.0333
  162MOL0     H22354   0.478  10.591   6.483  1.6534 -1.4127 -0.1079
  162MOL0     H22355   0.530  10.606   6.639  4.7950  0.3564 -1.5317
  162MOL0     H22356   0.393  10.710   6.592  0.4881 -2.9393  1.8409
  163MOL0     O22357   9.325   5.985   7.142  0.5768  0.5500 -0.1377
  163MOL0     C22358   9.401   5.887   7.131  1.0170 -0.3414  0.3085
  163MOL0     O22359   9.382   5.792   7.037 -1.0289  0.3150  0.3283
  163MOL0     C22360   9.269   5.778   6.956 -0.1259 -0.8129 -0.9362
  163MOL0     C22361   9.286   5.706   6.847 -0.1857  0.6305  0.3115
  163MOL0     C22362   9.179   5.667   6.761 -0.5899 -1.0493 -0.0432
  163MOL0     C22363   9.053   5.706   6.802 -0.0971 -0.3195  0.5179
  163MOL0     O22364   8.940   5.645   6.744  0.1212  0.2401 -0.1068
  163MOL0     C22365   8.943   5.502   6.773  0.7518 -0.7037 -0.3879
  163MOL0     C22366   8.818   5.417   6.754 -0.2364 -0.0042 -0.0665
  163MOL0     C22367   8.704   5.470   6.828  0.8490 -0.6347 -0.2683
  163MOL0     C22368   8.575   5.376   6.818 -0.3417 -0.9360 -0.0293
  163MOL0     C22369   8.607   5.231   6.872 -0.3935 -0.1177  0.5671
  163MOL0     C22370   8.484   5.145   6.850 -0.1989 -1.4548 -0.1767
  163MOL0     C22371   8.518   4.999   6.832  0.1559 -0.2975  1.2795
  163MOL0     C22372   8.423   4.893   6.879  1.2202  0.7895 -0.5548
  163MOL0     N22373   8.402   4.900   7.025  0.2829  0.2699  0.1003
  163MOL0     C22374   8.495   4.895   7.128  0.3840 -0.1862 -0.4479
  163MOL0     C22375   8.412   4.922   7.231 -0.0048  0.3937  0.2192
  163MOL0     C22376   8.477   4.942   7.373 -0.5880  0.2612  0.6900
  163MOL0     C22377   8.545   5.079   7.395 -1.0096 -0.1695  0.4289
  163MOL0     C22378   8.464   5.177   7.478  0.0616  0.1628 -0.3242
  163MOL0     C22379   8.510   5.322   7.496 -0.7869 -0.5771  0.4144
  163MOL0     O22380   8.585   5.365   7.382  0.5495  0.9733 -0.4529
  163MOL0     C22381   8.619   5.499   7.397  1.1165 -0.3230  0.0894
  163MOL0     C22382   8.656   5.571   7.276  0.5886  0.1339 -1.3676
  163MOL0     C22383   8.702   5.704   7.284 -0.4964  0.6267  0.2982
  163MOL0     C22384   8.755   5.769   7.155  0.5412 -0.0198  0.0138
  163MOL0     C22385   8.689   5.779   7.399 -0.0983 -0.4547  0.5580
  163MOL0     C22386   8.713   5.924   7.401  0.1777 -1.1158 -0.0400
  163MOL0     O22387   8.716   5.978   7.528 -0.2483  0.9438  0.2486
  163MOL0     C22388   8.730   6.110   7.537  0.2445 -0.0446  0.0610
  163MOL0     C22389   8.859   6.159   7.560 -0.1296 -0.7407  0.3474
  163MOL0     C22390   8.878   6.294   7.566 -0.7792 -0.3057 -0.5670
  163MOL0     C22391   8.769   6.383   7.574  0.5798 -0.9310  0.4511
  163MOL0     O22392   8.793   6.518   7.572  0.1740  0.0014  0.5851
  163MOL0     C22393   8.807   6.581   7.704  0.2956  0.2039 -0.2061
  163MOL0     C22394   8.874   6.721   7.680 -1.0366 -0.2287  0.7174
  163MOL0     C22395   9.016   6.713   7.638 -0.0386  0.5173 -0.0532
  163MOL0     C22396   9.091   6.847   7.633  0.4708 -0.4241 -0.7297
  163MOL0     C22397   9.201   6.844   7.520 -0.5143 -0.0381 -0.1777
  163MOL0     C22398   9.259   6.983   7.495 -0.3508 -0.7261 -0.2800
  163MOL0     C22399   9.164   7.088   7.424  0.0295  0.6277  0.0808
  163MOL0     C22400   9.102   7.039   7.291 -0.5596 -0.4002 -0.6502
  163MOL0    Cl22401   9.007   7.171   7.212  0.2416  0.2164  0.3327
  163MOL0     C22402   8.639   6.331   7.552 -0.8719  0.1150 -0.1458
  163MOL0     C22403   8.616   6.198   7.535 -0.4192  0.0277  0.3377
  163MOL0     O22404   8.716   5.998   7.302  0.5319  0.3323  0.1224
  163MOL0     C22405   8.644   5.713   7.517  0.5179 -0.8522 -0.4006
  163MOL0     C22406   8.619   5.571   7.519  0.8836  0.6516  0.5478
  163MOL0     N22407   8.279   4.937   7.194 -0.0053  0.5572 -1.4717
  163MOL0     N22408   8.271   4.907   7.070  0.6626  0.0382  0.8405
  163MOL0     C22409   9.035   5.782   6.910  0.3184 -0.5375 -0.4440
  163MOL0     C22410   9.138   5.822   6.989 -1.4466  0.9026  0.3007
  163MOL0     C22411   9.518   5.875   7.225  0.3708  0.3774  0.1732
  163MOL0     C22412   9.574   5.994   7.284  0.3579  0.8883 -0.0832
  163MOL0     C22413   9.692   5.993   7.356  0.1847  0.8938 -0.5786
  163MOL0     C22414   9.754   5.873   7.392 -0.5174 -0.2316 -1.0040
  163MOL0     O22415   9.862   5.861   7.481  1.0377  0.3068 -0.2162
  163MOL0     C22416   9.938   5.976   7.503  0.1196  0.3112  0.0134
  163MOL0     C22417  10.045   5.945   7.605  0.3334  0.5550  0.5676
  163MOL0     C22418  10.108   6.069   7.659  0.3026  0.2407  0.1143
  163MOL0     C22419  10.229   6.035   7.753  0.1445 -0.4301 -0.4431
  163MOL0     C22420  10.343   6.008   7.676 -0.9302 -0.7356 -0.6072
  163MOL0     C22421  10.447   5.993   7.608 -0.4329  0.3616 -0.7490
  163MOL0     C22422   9.700   5.759   7.338 -0.6168 -0.9029  0.4768
  163MOL0     C22423   9.586   5.756   7.254 -0.1907  0.7608  0.5959
  163MOL0     C22424   9.557   5.626   7.193 -0.3946  0.6887 -0.2444
  163MOL0     H22425   9.385   5.669   6.822 -0.0157  1.8319 -0.9343
  163MOL0     H22426   9.202   5.600   6.679 -0.4560 -1.3144  0.2096
  163MOL0     H22427   8.966   5.498   6.880  1.1332 -4.8793 -0.4872
  163MOL0     H22428   9.019   5.448   6.715 -0.3621 -0.1910 -2.4217
  163MOL0     H22429   8.796   5.402   6.648  2.8107  1.4067 -1.0293
  163MOL0     H22430   8.843   5.317   6.792  1.8171  0.2340 -0.6588
  163MOL0     H22431   8.736   5.479   6.932  0.5437 -2.7466  0.0652
  163MOL0     H22432   8.674   5.569   6.792  0.4003 -0.0337  1.6665
  163MOL0     H22433   8.499   5.400   6.893  2.1623  1.4936  1.9731
  163MOL0     H22434   8.538   5.376   6.715  1.2314 -2.4326 -0.6371
  163MOL0     H22435   8.620   5.235   6.980  1.1242 -0.8903  0.4286
  163MOL0     H22436   8.696   5.185   6.828 -0.9102  1.7115 -2.7788
  163MOL0     H22437   8.428   5.159   6.943 -1.2139  0.5509 -1.0349
  163MOL0     H22438   8.411   5.180   6.776 -1.2744 -2.6273  0.2917
  163MOL0     H22439   8.610   4.980   6.889  1.3527  4.5472  1.4762
  163MOL0     H22440   8.543   4.994   6.726  1.1852  0.2872  1.4722
  163MOL0     H22441   8.331   4.910   6.822  0.9815 -1.7426 -1.0712
  163MOL0     H22442   8.466   4.796   6.852  0.7338  0.2903  0.4126
  163MOL0     H22443   8.603   4.900   7.128  0.3945 -0.1988  0.4518
  163MOL0     H22444   8.566   4.879   7.369 -0.8442 -0.0668 -0.3269
  163MOL0     H22445   8.409   4.910   7.452  1.6804 -1.3579  2.1006
  163MOL0     H22446   8.645   5.074   7.439 -1.7422  1.6628  2.4984
  163MOL0     H22447   8.544   5.128   7.297 -4.0547  0.0841  0.4960
  163MOL0     H22448   8.372   5.181   7.418  1.9472 -0.9789 -3.5733
  163MOL0     H22449   8.432   5.141   7.576 -0.2178  2.4572  0.4945
  163MOL0     H22450   8.428   5.389   7.523  1.4275  2.1589  0.7482
  163MOL0     H22451   8.572   5.317   7.586  2.7050  0.8375 -1.7279
  163MOL0     H22452   8.676   5.514   7.186  2.3803 -7.7029  3.0780
  163MOL0     H22453   8.773   5.700   7.072 -0.8508 -2.4039  1.5589
  163MOL0     H22454   8.852   5.804   7.190  1.9191  0.1254 -3.5681
  163MOL0     H22455   8.700   5.852   7.110  2.2552  0.1447 -1.9112
  163MOL0     H22456   8.940   6.087   7.570 -0.3384 -0.8730  1.1816
  163MOL0     H22457   8.974   6.339   7.586 -2.7880  2.8489  3.4355
  163MOL0     H22458   8.710   6.580   7.755 -0.4655 -2.8841 -1.5199
  163MOL0     H22459   8.877   6.527   7.768  3.8579  0.7597 -3.3051
  163MOL0     H22460   8.831   6.770   7.592  2.3187  1.6894 -0.0184
  163MOL0     H22461   8.864   6.786   7.767  0.1381  1.5733 -0.4215
  163MOL0     H22462   9.031   6.665   7.541  0.3027  0.1208  0.1947
  163MOL0     H22463   9.061   6.648   7.714 -0.4733 -1.4700 -1.4163
  163MOL0     H22464   9.142   6.859   7.728  0.0894 -1.6753 -0.3459
  163MOL0     H22465   9.028   6.935   7.618 -0.1392 -0.7967 -0.3776
  163MOL0     H22466   9.277   6.785   7.573 -1.6672 -1.5483 -0.1215
  163MOL0     H22467   9.168   6.800   7.425 -3.1646  1.2311  0.0708
  163MOL0     H22468   9.356   6.972   7.445 -0.3403 -1.4733 -0.1115
  163MOL0     H22469   9.271   7.024   7.596 -0.4154  1.8981 -1.2742
  163MOL0     H22470   9.225   7.175   7.400 -0.5928  0.1932 -3.6325
  163MOL0     H22471   9.084   7.120   7.491  0.0935  2.5053 -0.6797
  163MOL0     H22472   9.031   6.960   7.317 -2.5525  0.5089 -2.9528
  163MOL0     H22473   9.186   6.999   7.233  0.6785  0.7937  0.2428
  163MOL0     H22474   8.560   6.404   7.547  0.4890  1.5513 -3.2557
  163MOL0     H22475   8.520   6.151   7.522 -1.0663  2.1212 -4.9006
  163MOL0     H22476   8.628   5.758   7.615 -3.5443  1.5492 -1.9032
  163MOL0     H22477   8.599   5.524   7.615 -0.5661  0.4704  0.1851
  163MOL0     H22478   8.934   5.813   6.933  0.5066  0.4645 -0.9236
  163MOL0     H22479   9.118   5.871   7.084 -0.4056 -1.4876  1.8552
  163MOL0     H22480   9.522   6.088   7.266  1.2747  1.5212  0.4730
  163MOL0     H22481   9.746   6.086   7.372  0.7665  0.9890 -2.7308
  163MOL0     H22482   9.984   6.013   7.411 -0.7221 -0.9894 -0.9651
  163MOL0     H22483   9.881   6.061   7.541  2.3419  1.8272  0.1164
  163MOL0     H22484  10.116   5.878   7.555 -1.0242  1.4876 -2.8826
  163MOL0     H22485  10.004   5.891   7.690 -1.5630  1.9366  0.5858
  163MOL0     H22486  10.139   6.120   7.568 -0.5063  4.1885  1.8261
  163MOL0     H22487  10.031   6.119   7.719  0.6476  0.7145  0.1649
  163MOL0     H22488  10.202   5.947   7.812  0.9778 -0.5301 -0.1912
  163MOL0     H22489  10.235   6.120   7.822 -2.2087  0.5116 -1.3146
  163MOL0     H22490  10.541   5.973   7.561  1.3877  0.3052  2.6087
  163MOL0     H22491   9.759   5.671   7.363  1.9754  0.4082 -0.6344
  163MOL0     H22492   9.451   5.598   7.201 -0.3749  0.8976  0.9690
  163MOL0     H22493   9.578   5.640   7.086 -1.9440  2.7972 -0.3556
  163MOL0     H22494   9.623   5.547   7.229 -2.4387 -1.4981 -0.9925
  164MOL0     O22495   9.583  10.360   5.674  0.1145  0.0441 -0.9841
  164MOL0     C22496   9.506  10.403   5.581 -0.1865  0.4427 -0.7589
  164MOL0     O22497   9.481  10.537   5.551 -0.2452 -1.2976 -0.0645
  164MOL0     C22498   9.558  10.641   5.611  0.5470  0.0098  0.7428
  164MOL0     C22499   9.700  10.631   5.644  0.2344  0.4023  1.3449
  164MOL0     C22500   9.762  10.731   5.711  0.3524  0.6927  0.4537
  164MOL0     C22501   9.692  10.844   5.758 -0.1158 -0.4193 -0.6375
  164MOL0     O22502   9.766  10.941   5.837  0.4205 -0.5502  0.7965
  164MOL0     C22503   9.706  11.065   5.873 -0.2162 -1.0846  0.6709
  164MOL0     C22504   9.775  11.125   5.997 -0.3596 -0.3572 -0.3114
  164MOL0     C22505   9.922  11.143   5.988 -0.3477 -0.2417 -0.0702
  164MOL0     C22506   9.989  11.202   6.112  0.1637  0.5983 -0.0619
  164MOL0     C22507   9.980  11.131   6.248 -0.0863  0.4139 -0.2950
  164MOL0     C22508  10.024  11.217   6.353  0.6370 -0.0125 -0.8457
  164MOL0     C22509  10.014  11.148   6.499 -0.1895  0.1821  0.0187
  164MOL0     C22510  10.120  11.037   6.520 -0.4704  0.4445  0.0200
  164MOL0     N22511  10.255  11.082   6.487 -0.6952  0.5644  0.5505
  164MOL0     C22512  10.352  10.995   6.435  0.0408 -0.6846 -0.4475
  164MOL0     C22513  10.462  11.067   6.429  0.3743 -0.1373  0.2219
  164MOL0     C22514  10.590  11.017   6.389 -0.0187  0.5632 -0.2047
  164MOL0     C22515  10.689  10.999   6.504  0.5205 -0.4464 -0.2308
  164MOL0     C22516  10.825  10.954   6.449 -0.2926 -0.8688  0.5563
  164MOL0     C22517  10.916  10.918   6.555  0.5660  1.7098  0.3434
  164MOL0     O22518  11.031  10.876   6.484  0.2861 -0.4920 -0.1988
  164MOL0     C22519  11.123  10.808   6.557 -0.8452 -0.7766 -0.2526
  164MOL0     C22520  11.143  10.818   6.694  0.3260  0.0268 -1.1076
  164MOL0     C22521  11.209  10.713   6.767 -0.2591 -0.3082 -0.7492
  164MOL0     C22522  11.206  10.719   6.919  0.3174  0.6212  0.9227
  164MOL0     C22523  11.276  10.612   6.700 -0.3466 -0.4703 -0.0895
  164MOL0     C22524  11.362  10.512   6.770 -0.2658  0.2968 -0.6409
  164MOL0     O22525  11.339  10.477   6.911 -0.8202  0.1324 -0.8588
  164MOL0     C22526  11.415  10.374   6.959 -0.0217  0.1881  0.2319
  164MOL0     C22527  11.558  10.373   6.942  0.7427  0.6752  0.6759
  164MOL0     C22528  11.634  10.273   7.002 -0.1423 -1.0127 -0.3902
  164MOL0     C22529  11.568  10.170   7.080  0.1905  0.2773 -0.5831
  164MOL0     O22530  11.622  10.070   7.154  0.2249  0.4179 -0.3026
  164MOL0     C22531  11.764  10.047   7.140 -0.1310 -0.7686 -0.1357
  164MOL0     C22532  11.816   9.958   7.249  0.7852  0.1169 -0.3728
  164MOL0     C22533  11.807  10.019   7.383 -0.8179 -0.2832  0.9412
  164MOL0     C22534  11.896   9.943   7.488  0.3407 -0.5793  0.4517
  164MOL0     C22535  11.848   9.970   7.630 -0.3926  0.6830 -0.3354
  164MOL0     C22536  11.862  10.114   7.688 -0.1349  0.4871  0.6244
  164MOL0     C22537  11.998  10.185   7.681  0.9512 -0.2349  0.0624
  164MOL0     C22538  12.105  10.105   7.747 -0.5297  0.7071  0.9349
  164MOL0    Cl22539  12.259  10.201   7.755 -0.7317 -0.0508 -0.0133
  164MOL0     C22540  11.433  10.169   7.086  0.2289 -1.8056 -0.2431
  164MOL0     C22541  11.354  10.272   7.036 -0.0981 -0.8674 -0.2355
  164MOL0     O22542  11.441  10.460   6.697 -0.7901  0.4349  0.2033
  164MOL0     C22543  11.268  10.620   6.559 -1.3158 -0.7801 -0.2106
  164MOL0     C22544  11.199  10.717   6.490 -0.4003 -1.3412 -0.6099
  164MOL0     N22545  10.448  11.188   6.485 -0.2556 -0.4480 -0.5683
  164MOL0     N22546  10.320  11.199   6.516 -0.0803 -0.4123  0.5429
  164MOL0     C22547   9.567  10.864   5.708  0.4499  0.8983  0.5003
  164MOL0     C22548   9.494  10.763   5.647  0.8625  0.3901  0.4082
  164MOL0     C22549   9.432  10.306   5.507  0.1906 -0.1644  0.2238
  164MOL0     C22550   9.434  10.317   5.362  0.5744 -0.1873  0.0591
  164MOL0     C22551   9.372  10.224   5.287  0.4701  0.3642  0.1888
  164MOL0     C22552   9.296  10.121   5.344  0.3116  0.1550  0.4930
  164MOL0     O22553   9.232  10.043   5.255 -0.4183  0.3574  0.0527
  164MOL0     C22554   9.157   9.931   5.309  0.0599 -0.3794  0.0453
  164MOL0     C22555   9.079   9.863   5.197 -0.4625  0.1098 -0.6492
  164MOL0     C22556   9.017   9.719   5.220 -0.6489  0.1982 -0.4305
  164MOL0     C22557   9.052   9.613   5.113  0.6391  0.1302  0.4692
  164MOL0     C22558   9.011   9.654   4.980  0.5838 -0.6847 -0.3913
  164MOL0     C22559   8.971   9.710   4.880 -0.0303 -0.3066  0.2686
  164MOL0     C22560   9.319  10.095   5.475 -0.6028  0.6888  0.5187
  164MOL0     C22561   9.382  10.183   5.557  0.1779 -0.9209 -0.0686
  164MOL0     C22562   9.380  10.148   5.701 -0.2315  1.1043 -0.0923
  164MOL0     H22563   9.742  10.544   5.593  0.5850  2.2746 -1.8159
  164MOL0     H22564   9.866  10.719   5.740 -0.8190 -3.4065  4.2032
  164MOL0     H22565   9.602  11.047   5.900  0.2182 -3.2220  1.0815
  164MOL0     H22566   9.725  11.139   5.794  0.1770 -0.0939  1.6786
  164MOL0     H22567   9.737  11.226   6.014 -0.6719  0.2596 -3.9944
  164MOL0     H22568   9.742  11.061   6.080  0.0261 -0.4047 -0.1943
  164MOL0     H22569   9.973  11.048   5.972 -1.2719 -0.9004  0.7324
  164MOL0     H22570   9.943  11.208   5.903 -1.2147 -0.5038 -0.4997
  164MOL0     H22571  10.095  11.218   6.091  0.6863  2.4894  3.2192
  164MOL0     H22572   9.947  11.302   6.127  2.2086  1.6770 -1.1652
  164MOL0     H22573  10.027  11.033   6.237 -0.3643  0.3166 -0.6672
  164MOL0     H22574   9.876  11.101   6.260 -0.0656  0.8376  1.0254
  164MOL0     H22575  10.129  11.237   6.327  1.3086  0.7598  2.0996
  164MOL0     H22576   9.964  11.307   6.347  0.2549 -0.1183  0.9657
  164MOL0     H22577   9.914  11.105   6.509 -0.3223  0.8543  2.0716
  164MOL0     H22578  10.033  11.223   6.577 -0.2592 -0.2929  0.5020
  164MOL0     H22579  10.128  11.005   6.625  1.1230  4.7176  1.3949
  164MOL0     H22580  10.092  10.956   6.453 -1.6632  1.0665 -0.2521
  164MOL0     H22581  10.341  10.891   6.409 -0.5595 -0.6798 -0.2205
  164MOL0     H22582  10.642  11.089   6.325 -0.8195  0.8813 -0.5155
  164MOL0     H22583  10.575  10.917   6.346 -2.6669  0.9250 -0.2925
  164MOL0     H22584  10.692  11.093   6.558 -1.5301 -0.2157 -0.4498
  164MOL0     H22585  10.654  10.923   6.574 -0.8799  0.5893  0.2249
  164MOL0     H22586  10.809  10.856   6.403 -0.5281 -0.3587 -0.4620
  164MOL0     H22587  10.862  11.035   6.386 -2.8602  0.7059  0.9051
  164MOL0     H22588  10.928  11.009   6.614 -1.7940  1.0450  1.9679
  164MOL0     H22589  10.879  10.842   6.623 -3.2515  1.0722 -2.1595
  164MOL0     H22590  11.104  10.904   6.747  1.2906 -0.8452  1.1469
  164MOL0     H22591  11.130  10.648   6.952 -0.8725  0.6037 -1.5866
  164MOL0     H22592  11.185  10.821   6.953  2.5058  0.5340  2.7263
  164MOL0     H22593  11.299  10.707   6.975  0.2069  1.4792  1.3080
  164MOL0     H22594  11.620  10.444   6.888  0.2387  2.4678  2.3149
  164MOL0     H22595  11.742  10.264   6.999  0.1482  0.9483  1.5696
  164MOL0     H22596  11.773   9.998   7.042 -3.2132 -2.2465  0.1920
  164MOL0     H22597  11.823  10.139   7.142  0.9915 -1.4369  2.8581
  164MOL0     H22598  11.763   9.863   7.252  0.7971  0.1100  2.6666
  164MOL0     H22599  11.916   9.928   7.217  0.9760  0.9686 -0.6038
  164MOL0     H22600  11.704  10.040   7.412 -1.1964  0.6419 -0.8938
  164MOL0     H22601  11.861  10.115   7.377  0.7348 -1.1773 -3.0515
  164MOL0     H22602  12.002   9.966   7.474 -0.0015  1.4527  0.7746
  164MOL0     H22603  11.871   9.842   7.454 -0.5829  0.8679 -3.9739
  164MOL0     H22604  11.744   9.944   7.649 -0.2537  1.5932  1.9888
  164MOL0     H22605  11.892   9.896   7.697 -3.2393  1.5536  2.7758
  164MOL0     H22606  11.831  10.117   7.793  3.8238  1.9367  1.9031
  164MOL0     H22607  11.792  10.176   7.630  0.2869 -0.1397 -0.5999
  164MOL0     H22608  11.991  10.278   7.739  0.1762  0.5550 -1.2264
  164MOL0     H22609  12.020  10.208   7.576  1.4168 -3.9402 -0.7628
  164MOL0     H22610  12.120  10.014   7.688  1.8589  0.8637  1.1967
  164MOL0     H22611  12.076  10.075   7.848 -0.2392  0.4410  0.9431
  164MOL0     H22612  11.377  10.082   7.118 -2.1080 -1.0168 -1.8422
  164MOL0     H22613  11.247  10.277   7.053 -0.6208  0.3511 -3.2137
  164MOL0     H22614  11.345  10.566   6.504  1.8372  2.0919  1.0147
  164MOL0     H22615  11.202  10.719   6.382  0.1533  1.0552 -0.6056
  164MOL0     H22616   9.508  10.948   5.741  1.6754  1.7930  0.4967
  164MOL0     H22617   9.392  10.789   5.619  0.7035  0.3777  0.9592
  164MOL0     H22618   9.489  10.402   5.323  0.4106  1.0992  2.4258
  164MOL0     H22619   9.357  10.235   5.180 -1.2731 -2.7226  0.0098
  164MOL0     H22620   9.230   9.863   5.355 -0.3424 -0.4604  0.5698
  164MOL0     H22621   9.089   9.967   5.387  1.3788 -0.9137  1.4930
  164MOL0     H22622   9.146   9.861   5.110 -2.8004  1.3240 -2.5762
  164MOL0     H22623   9.001   9.934   5.167  1.4350  3.0162  0.8227
  164MOL0     H22624   9.046   9.678   5.317 -1.4363 -2.6597 -1.3204
  164MOL0     H22625   8.909   9.725   5.235 -0.3479 -0.0014  2.3255
  164MOL0     H22626   8.986   9.529   5.137 -1.7534  1.3399 -1.4155
  164MOL0     H22627   9.159   9.590   5.117  0.8968  1.3887  1.3386
  164MOL0     H22628   8.933   9.768   4.798  1.0792 -1.3928 -1.0488
  164MOL0     H22629   9.275  10.005   5.516 -0.3778 -0.7423 -2.1495
  164MOL0     H22630   9.480  10.128   5.742  0.1533  0.8058 -1.1298
  164MOL0     H22631   9.339  10.226   5.765  1.8135  3.4901 -1.4720
  164MOL0     H22632   9.319  10.061   5.727 -0.6280  1.1805 -0.7496
  165MOL0     O22633   9.524   5.867   1.327 -0.7579 -0.2726 -0.4416
  165MOL0     C22634   9.642   5.903   1.321  0.7664 -1.1866  0.2868
  165MOL0     O22635   9.743   5.847   1.250  0.0189 -0.1616 -0.1334
  165MOL0     C22636   9.759   5.714   1.267 -0.0445 -0.2398 -0.1978
  165MOL0     C22637   9.707   5.629   1.360  0.6323 -0.0748  0.1867
  165MOL0     C22638   9.739   5.496   1.365  0.5681  0.8199 -0.5430
  165MOL0     C22639   9.847   5.442   1.291  0.3756 -0.5228 -0.8608
  165MOL0     O22640   9.894   5.314   1.304 -0.3960  0.1830  0.1863
  165MOL0     C22641   9.805   5.215   1.351 -0.3236 -0.2744 -0.2267
  165MOL0     C22642   9.889   5.085   1.378  0.5705 -0.3816 -0.7343
  165MOL0     C22643   9.810   4.980   1.458 -0.3830  0.0747  0.2220
  165MOL0     C22644   9.890   4.844   1.428  0.1459 -0.2489 -0.0197
  165MOL0     C22645   9.853   4.729   1.537  0.2115 -0.6813 -1.0460
  165MOL0     C22646   9.696   4.720   1.578 -0.0449  0.1062 -0.3678
  165MOL0     C22647   9.662   4.599   1.677  0.0196  0.5078  0.4201
  165MOL0     C22648   9.724   4.608   1.815  0.9507 -0.4481 -0.9339
  165MOL0     N22649   9.869   4.608   1.827 -0.0045  0.8589 -0.9806
  165MOL0     C22650   9.934   4.713   1.898 -0.0456  1.4786  0.8468
  165MOL0     C22651  10.055   4.649   1.926 -0.5678 -0.3470  0.0070
  165MOL0     C22652  10.165   4.705   2.010  0.3472 -0.0583  0.9843
  165MOL0     C22653  10.158   4.640   2.155  0.2320  0.6482  0.4196
  165MOL0     C22654  10.261   4.524   2.171 -0.3392 -0.3282 -0.1613
  165MOL0     C22655  10.405   4.573   2.146  0.2324 -1.0101 -0.0582
  165MOL0     O22656  10.488   4.459   2.183 -0.5212  0.0079 -1.0514
  165MOL0     C22657  10.614   4.512   2.229  0.8165  0.5403  0.3373
  165MOL0     C22658  10.656   4.642   2.219 -0.3218 -0.9184  0.0462
  165MOL0     C22659  10.789   4.678   2.253 -0.3995 -0.1908 -0.8015
  165MOL0     C22660  10.820   4.826   2.252 -0.0166  0.7152  0.1173
  165MOL0     C22661  10.888   4.582   2.296  0.1731 -0.4932  0.7470
  165MOL0     C22662  11.032   4.599   2.311  0.1576  0.1932 -0.0368
  165MOL0     O22663  11.075   4.722   2.317 -0.7749 -0.0471  1.3436
  165MOL0     C22664  11.211   4.754   2.333  0.5034  0.2039  0.2383
  165MOL0     C22665  11.238   4.871   2.395 -0.6115 -0.2912 -0.5288
  165MOL0     C22666  11.365   4.917   2.428 -0.3624  0.1347  0.5086
  165MOL0     C22667  11.475   4.845   2.387 -0.1265 -0.6087  0.2310
  165MOL0     O22668  11.601   4.906   2.403 -0.3423 -0.0153  0.0481
  165MOL0     C22669  11.716   4.823   2.421 -0.5013 -0.2927  0.2873
  165MOL0     C22670  11.828   4.912   2.466  0.0661  0.2361 -0.2594
  165MOL0     C22671  11.962   4.829   2.432  0.1650 -0.8705  0.8334
  165MOL0     C22672  12.081   4.900   2.492  0.3888  0.3312  0.1321
  165MOL0     C22673  12.127   5.013   2.401 -0.2153  0.4300  1.0164
  165MOL0     C22674  12.174   4.975   2.260  0.8167  0.1026 -0.6224
  165MOL0     C22675  12.233   5.085   2.185  0.1429  0.4024  0.5968
  165MOL0     C22676  12.372   5.119   2.218  0.7187 -0.0574  0.0297
  165MOL0    Cl22677  12.416   5.280   2.154  0.3013 -0.3491  0.2319
  165MOL0     C22678  11.458   4.733   2.305 -0.1251  0.0094 -0.6307
  165MOL0     C22679  11.323   4.692   2.273  1.0566 -0.0424  0.5644
  165MOL0     O22680  11.103   4.497   2.338 -0.7619  0.4242 -0.8226
  165MOL0     C22681  10.841   4.445   2.313  0.7297 -0.8922 -0.3133
  165MOL0     C22682  10.700   4.410   2.278  0.0211 -0.0181 -0.2829
  165MOL0     N22683  10.065   4.529   1.877 -1.1156  0.3015 -0.1101
  165MOL0     N22684   9.955   4.500   1.815  1.1598 -0.5317  0.3529
  165MOL0     C22685   9.906   5.528   1.203 -0.4645 -0.8994  0.1363
  165MOL0     C22686   9.862   5.658   1.194  0.0995 -0.5812  0.4109
  165MOL0     C22687   9.682   6.038   1.363 -0.2435  0.4504 -0.3383
  165MOL0     C22688   9.734   6.126   1.274  0.0718 -0.1386  0.2230
  165MOL0     C22689   9.785   6.250   1.316 -0.0274  1.0564  0.0950
  165MOL0     C22690   9.776   6.290   1.448  0.1476 -0.1845 -0.2193
  165MOL0     O22691   9.815   6.413   1.497 -0.7505  0.3533  0.4390
  165MOL0     C22692   9.907   6.486   1.418 -0.4631 -1.0642 -1.0115
  165MOL0     C22693   9.843   6.594   1.326  0.4805  0.7661 -0.1350
  165MOL0     C22694   9.792   6.720   1.385  0.2727  0.2171 -0.7833
  165MOL0     C22695   9.889   6.798   1.476  0.0831 -0.0332 -0.7757
  165MOL0     C22696   9.820   6.910   1.538  1.0666  0.4667 -1.3407
  165MOL0     C22697   9.762   7.011   1.580  0.7692 -0.1577  0.3364
  165MOL0     C22698   9.707   6.202   1.528 -0.2314  0.7408 -0.2320
  165MOL0     C22699   9.661   6.076   1.494  0.0786 -0.2122  0.4239
  165MOL0     C22700   9.612   5.981   1.604 -0.5942  0.3164  0.9764
  165MOL0     H22701   9.631   5.656   1.433  0.7624  3.2424 -0.7457
  165MOL0     H22702   9.685   5.436   1.438  3.4503 -3.1234 -1.3169
  165MOL0     H22703   9.733   5.192   1.272 -0.0328  0.4166 -0.7043
  165MOL0     H22704   9.752   5.242   1.444 -0.9441 -1.3593 -0.2390
  165MOL0     H22705   9.922   5.047   1.281 -0.0648 -0.4130 -0.9463
  165MOL0     H22706   9.978   5.116   1.432  0.1544 -2.6210  1.4502
  165MOL0     H22707   9.802   5.013   1.562 -2.1667 -0.9393  0.4419
  165MOL0     H22708   9.707   4.968   1.425 -0.7139  0.2014  1.1753
  165MOL0     H22709   9.853   4.805   1.333 -3.8239 -0.1465  1.2948
  165MOL0     H22710   9.997   4.864   1.428 -0.3457  2.7422  0.4327
  165MOL0     H22711   9.916   4.742   1.625  1.0871 -1.7861 -1.4833
  165MOL0     H22712   9.889   4.635   1.495 -0.3344 -1.2016 -0.3597
  165MOL0     H22713   9.662   4.815   1.621  0.6214  0.8968 -1.5196
  165MOL0     H22714   9.634   4.709   1.488  0.6295 -3.2217 -0.5463
  165MOL0     H22715   9.683   4.498   1.639 -2.0701 -0.7186  2.3390
  165MOL0     H22716   9.554   4.596   1.693 -0.8070 -1.1049 -3.9485
  165MOL0     H22717   9.691   4.702   1.860 -4.5295 -2.6637  0.5101
  165MOL0     H22718   9.673   4.547   1.890  0.2242  1.4901  0.2276
  165MOL0     H22719   9.892   4.807   1.931 -1.9978  2.7270 -4.2828
  165MOL0     H22720  10.139   4.810   2.020 -3.0468 -0.3752 -2.3448
  165MOL0     H22721  10.255   4.688   1.950 -0.8667 -2.3377 -0.3306
  165MOL0     H22722  10.176   4.728   2.218 -0.7122  1.1394  0.0322
  165MOL0     H22723  10.064   4.591   2.183 -0.1807  0.9508 -0.4060
  165MOL0     H22724  10.260   4.478   2.271  2.4856  0.3960  0.3027
  165MOL0     H22725  10.229   4.444   2.104  1.2226 -2.2178  1.2162
  165MOL0     H22726  10.435   4.600   2.045  1.2918 -0.6053  0.3542
  165MOL0     H22727  10.425   4.661   2.209 -1.5387 -1.8484  1.8066
  165MOL0     H22728  10.599   4.726   2.181 -0.3436 -1.1385 -0.4087
  165MOL0     H22729  10.744   4.867   2.185 -0.0588  0.0369 -0.2529
  165MOL0     H22730  10.917   4.839   2.205  0.8734 -3.3071  0.5075
  165MOL0     H22731  10.812   4.847   2.359 -1.0379  1.9988 -0.1782
  165MOL0     H22732  11.154   4.933   2.425 -0.6673  1.2582 -3.4902
  165MOL0     H22733  11.374   5.015   2.473 -2.8996  0.8000 -0.2284
  165MOL0     H22734  11.698   4.738   2.487  0.5554 -0.1227  0.8191
  165MOL0     H22735  11.738   4.790   2.319 -2.3809  0.7714 -0.5306
  165MOL0     H22736  11.824   5.013   2.424 -1.8603  1.3426  2.3256
  165MOL0     H22737  11.828   4.920   2.575  0.2912 -0.2817 -0.2197
  165MOL0     H22738  11.967   4.812   2.324  1.3039 -3.7117  1.2398
  165MOL0     H22739  11.955   4.727   2.470  2.4836 -0.1658  3.4783
  165MOL0     H22740  12.158   4.826   2.514  0.9754  1.2555  1.2929
  165MOL0     H22741  12.049   4.944   2.587 -0.3712 -0.2050  0.1324
  165MOL0     H22742  12.051   5.090   2.386 -1.2843 -0.6085  0.8750
  165MOL0     H22743  12.206   5.070   2.449  0.3877 -0.3829  1.0090
  165MOL0     H22744  12.093   4.940   2.195  1.7327 -1.6980 -0.8751
  165MOL0     H22745  12.255   4.903   2.278  2.8394  3.1686  4.6889
  165MOL0     H22746  12.166   5.168   2.204 -1.8519 -0.5672 -1.7161
  165MOL0     H22747  12.227   5.071   2.077  0.1470  2.5490  0.2825
  165MOL0     H22748  12.444   5.046   2.180 -1.0863 -2.2555  0.5772
  165MOL0     H22749  12.385   5.122   2.327 -0.3765 -1.2790  0.2222
  165MOL0     H22750  11.541   4.675   2.265 -2.2760 -1.9659 -2.5002
  165MOL0     H22751  11.315   4.603   2.211  1.5747 -1.1793  2.0660
  165MOL0     H22752  10.911   4.366   2.332  1.8861  0.3873  0.9464
  165MOL0     H22753  10.667   4.307   2.284 -0.2821 -0.0870 -2.4695
  165MOL0     H22754   9.988   5.492   1.142 -0.8628  0.1861 -1.0928
  165MOL0     H22755   9.917   5.718   1.122 -1.3264 -0.0685 -0.2763
  165MOL0     H22756   9.747   6.110   1.168  1.7056  0.1198  0.3548
  165MOL0     H22757   9.825   6.309   1.234  1.1180 -0.7727 -0.7347
  165MOL0     H22758   9.969   6.521   1.501 -1.3420  0.6618 -1.0345
  165MOL0     H22759   9.970   6.416   1.361 -1.9591 -2.4314 -1.0537
  165MOL0     H22760   9.751   6.555   1.282 -1.5653  0.9530  3.5902
  165MOL0     H22761   9.915   6.617   1.247  2.6984  3.0796  2.3665
  165MOL0     H22762   9.756   6.786   1.306 -4.3430 -0.9214  0.0752
  165MOL0     H22763   9.697   6.701   1.436  1.1136 -1.4775  0.2620
  165MOL0     H22764   9.977   6.829   1.420  0.1835  1.0827 -0.0301
  165MOL0     H22765   9.920   6.736   1.561 -3.8353  1.5476  2.1397
  165MOL0     H22766   9.691   7.087   1.609 -1.7247 -1.4741 -1.8269
  165MOL0     H22767   9.689   6.235   1.630  0.4965 -1.9609  0.8836
  165MOL0     H22768   9.649   5.883   1.570  1.8453  0.7830  2.0446
  165MOL0     H22769   9.649   6.010   1.703 -1.6300  1.4777  1.0332
  165MOL0     H22770   9.505   5.977   1.585 -0.6058  2.5702  0.2994
  166MOL0     O22771   4.862   8.509   5.401  0.3465  0.0731 -0.3422
  166MOL0     C22772   4.898   8.612   5.448 -0.4666  0.6122 -0.2564
  166MOL0     O22773   4.982   8.706   5.387 -0.0189  0.5410 -0.6545
  166MOL0     C22774   5.000   8.710   5.250  0.3987  0.7859  0.3094
  166MOL0     C22775   5.068   8.823   5.199 -0.5649 -0.4441 -0.1282
  166MOL0     C22776   5.092   8.826   5.067 -0.2252 -0.6479 -0.2511
  166MOL0     C22777   5.061   8.732   4.974 -0.4386 -1.2405  0.1624
  166MOL0     O22778   5.100   8.738   4.838  0.5460  0.3546 -0.2474
  166MOL0     C22779   5.167   8.855   4.791 -0.3168 -0.3326 -0.4758
  166MOL0     C22780   5.163   8.855   4.641 -0.9278 -0.3022  1.0515
  166MOL0     C22781   5.154   8.998   4.594 -0.6494 -0.1177 -0.5238
  166MOL0     C22782   5.129   9.016   4.444 -0.0384  0.1882  0.6912
  166MOL0     C22783   5.075   9.153   4.407  0.2894  0.2867 -0.1483
  166MOL0     C22784   5.083   9.162   4.253 -0.8236 -0.8724  0.0206
  166MOL0     C22785   5.072   9.312   4.203 -0.5603  0.7198  0.2599
  166MOL0     C22786   4.940   9.384   4.234  0.2844  0.1961  0.6602
  166MOL0     N22787   4.929   9.511   4.159  0.2752  0.0327 -0.7285
  166MOL0     C22788   4.888   9.630   4.209 -0.5552 -0.0763 -0.0569
  166MOL0     C22789   4.878   9.708   4.107  1.5583  0.9262  0.2259
  166MOL0     C22790   4.822   9.849   4.102  0.0609 -0.7909 -0.1576
  166MOL0     C22791   4.788   9.912   4.239  0.8305  0.4819 -1.8802
  166MOL0     C22792   4.715  10.049   4.229 -0.5317 -1.4296  0.0883
  166MOL0     C22793   4.664  10.086   4.368  0.9367  0.9657  0.8586
  166MOL0     O22794   4.604  10.213   4.360  0.1899  1.0290  0.7111
  166MOL0     C22795   4.475  10.228   4.313  0.4848  0.5516  0.3115
  166MOL0     C22796   4.455  10.274   4.186 -0.8011  0.6580 -0.3373
  166MOL0     C22797   4.327  10.284   4.134 -0.5730  0.0558  0.9376
  166MOL0     C22798   4.317  10.341   3.992  0.2494 -0.6972  0.0304
  166MOL0     C22799   4.215  10.254   4.218  0.7121  0.0121  0.1208
  166MOL0     C22800   4.070  10.283   4.189  0.1245  0.4006 -0.7119
  166MOL0     O22801   3.977  10.211   4.261 -0.1144 -0.0670  0.1386
  166MOL0     C22802   3.843  10.248   4.234 -0.6333 -0.8584  0.2929
  166MOL0     C22803   3.777  10.315   4.335  0.6006  0.0492  0.5719
  166MOL0     C22804   3.637  10.335   4.307  0.1940  0.3292  0.2554
  166MOL0     C22805   3.575  10.284   4.198  0.4812 -1.2893 -0.7981
  166MOL0     O22806   3.436  10.308   4.208  0.2390 -0.3471  0.4986
  166MOL0     C22807   3.341  10.213   4.181  0.8138 -0.0387 -1.0468
  166MOL0     C22808   3.209  10.265   4.244 -0.6754  0.6603 -0.2546
  166MOL0     C22809   3.100  10.159   4.224  0.8653  0.0838  0.0363
  166MOL0     C22810   2.978  10.197   4.300 -0.3525 -0.5858  0.1285
  166MOL0     C22811   2.963  10.136   4.448  0.1681  0.3914 -0.5632
  166MOL0     C22812   3.086  10.146   4.537  0.8596  0.1675  0.4080
  166MOL0     C22813   3.072  10.055   4.658 -0.0411  1.0348  0.0143
  166MOL0     C22814   3.046  10.140   4.789 -0.7347  0.0168 -0.5886
  166MOL0    Cl22815   2.887  10.230   4.781 -0.3806 -0.0378  0.6179
  166MOL0     C22816   3.643  10.211   4.102 -0.5022  0.1331  0.0746
  166MOL0     C22817   3.782  10.206   4.119  0.9895  0.7519  0.2581
  166MOL0     O22818   4.045  10.366   4.109  0.3525  0.0860  0.8049
  166MOL0     C22819   4.236  10.195   4.346  0.0585  0.2968 -0.1659
  166MOL0     C22820   4.370  10.184   4.393  0.0749 -0.8080 -1.0774
  166MOL0     N22821   4.935   9.647   3.999  0.6982 -0.1695 -0.7007
  166MOL0     N22822   4.963   9.524   4.028  0.0425 -0.8797  0.3101
  166MOL0     C22823   4.989   8.628   5.017  1.2909 -0.0281 -0.0639
  166MOL0     C22824   4.970   8.611   5.152 -0.4734  0.1105  1.0213
  166MOL0     C22825   4.894   8.638   5.601  0.1295  0.4253  0.4139
  166MOL0     C22826   4.895   8.768   5.639  0.5361  0.1593 -0.2891
  166MOL0     C22827   4.887   8.809   5.770  0.2704 -0.1472  0.3906
  166MOL0     C22828   4.849   8.718   5.874  0.2440  0.2028  0.4565
  166MOL0     O22829   4.826   8.766   5.999  0.4371  0.6104 -0.0006
  166MOL0     C22830   4.784   8.670   6.095 -0.1983  0.0596  0.4768
  166MOL0     C22831   4.785   8.735   6.232 -0.4288  0.6385 -0.5200
  166MOL0     C22832   4.688   8.670   6.336 -0.7168  0.0020  0.1060
  166MOL0     C22833   4.549   8.727   6.347  0.8479  1.0570 -0.5321
  166MOL0     C22834   4.455   8.633   6.421 -0.2409  0.0856 -0.7092
  166MOL0     C22835   4.378   8.562   6.476 -0.9512  0.9281 -0.4959
  166MOL0     C22836   4.845   8.586   5.832 -0.4626  0.8496 -0.1716
  166MOL0     C22837   4.877   8.538   5.695 -0.3842  0.0202 -1.1442
  166MOL0     C22838   4.873   8.386   5.670 -0.4790 -1.3171 -0.3059
  166MOL0     H22839   5.103   8.901   5.266  0.2251 -0.0093 -1.0358
  166MOL0     H22840   5.138   8.922   5.047 -1.3048 -0.0493  0.0540
  166MOL0     H22841   5.265   8.855   4.838  0.4805 -0.5017 -2.0783
  166MOL0     H22842   5.110   8.943   4.822  0.1818  0.4233 -1.6292
  166MOL0     H22843   5.259   8.824   4.599 -3.2310 -2.5287 -3.1732
  166MOL0     H22844   5.084   8.793   4.597  0.8765 -0.1742 -2.8516
  166MOL0     H22845   5.067   9.049   4.637 -0.7027  0.4502 -1.2913
  166MOL0     H22846   5.248   9.050   4.615  0.0057 -1.2599 -0.5880
  166MOL0     H22847   5.215   8.982   4.386 -0.6930  2.0423 -1.5197
  166MOL0     H22848   5.052   8.941   4.424  1.1906 -1.7814  2.8690
  166MOL0     H22849   5.135   9.226   4.463  0.2443 -1.5520  2.5217
  166MOL0     H22850   4.976   9.168   4.450  1.2426  0.6837  2.0814
  166MOL0     H22851   5.177   9.135   4.206 -0.0647 -1.1014  1.6054
  166MOL0     H22852   5.009   9.095   4.209 -0.6954 -0.1771 -1.3095
  166MOL0     H22853   5.077   9.304   4.094  0.4718  1.5344  0.2328
  166MOL0     H22854   5.162   9.363   4.238  1.1490 -2.0471  0.2066
  166MOL0     H22855   4.853   9.323   4.208 -0.5071  0.4728  2.4932
  166MOL0     H22856   4.912   9.389   4.340 -3.0555 -3.3665  0.1713
  166MOL0     H22857   4.864   9.659   4.310 -1.2481 -1.0980  0.0772
  166MOL0     H22858   4.742   9.851   4.028  1.8820 -2.2697 -2.3083
  166MOL0     H22859   4.891   9.918   4.052  0.1029  0.8049  1.9396
  166MOL0     H22860   4.715   9.840   4.277 -0.9645  2.2539 -1.7703
  166MOL0     H22861   4.876   9.915   4.303 -0.0946 -0.1771 -0.5307
  166MOL0     H22862   4.790  10.125   4.207 -1.5118 -0.0142  1.3745
  166MOL0     H22863   4.636  10.044   4.153  0.7963 -0.9735 -1.3545
  166MOL0     H22864   4.595  10.004   4.393  0.2966 -0.0324 -3.4099
  166MOL0     H22865   4.750  10.091   4.435  1.4432  0.8150  0.2246
  166MOL0     H22866   4.545  10.309   4.135 -1.9420  1.3984 -1.9435
  166MOL0     H22867   4.406  10.400   3.971 -1.4427  1.6009 -1.1506
  166MOL0     H22868   4.237  10.416   3.986  0.6572 -0.3753 -1.9048
  166MOL0     H22869   4.286  10.254   3.932  0.0659 -1.3190  1.0022
  166MOL0     H22870   3.825  10.349   4.426 -2.4375  2.6710  1.3925
  166MOL0     H22871   3.580  10.393   4.379 -2.4863 -0.5430 -1.0350
  166MOL0     H22872   3.326  10.204   4.074  4.7935  1.7063 -1.9417
  166MOL0     H22873   3.355  10.116   4.231  0.1318  0.1885 -0.3914
  166MOL0     H22874   3.239  10.282   4.348  1.5988 -1.4916 -0.4726
  166MOL0     H22875   3.180  10.362   4.202  0.1089  0.7096 -0.6881
  166MOL0     H22876   3.130  10.058   4.253 -0.1509 -0.4387 -0.6839
  166MOL0     H22877   3.068  10.140   4.121  1.1594 -1.1064  0.1514
  166MOL0     H22878   2.892  10.163   4.242 -0.0265  1.1266 -1.4378
  166MOL0     H22879   2.961  10.305   4.302 -1.4891 -0.7295 -0.7342
  166MOL0     H22880   2.885  10.186   4.505 -0.4639 -1.1698 -0.0139
  166MOL0     H22881   2.933  10.031   4.435  2.2741 -0.8300  3.0659
  166MOL0     H22882   3.100  10.251   4.564 -0.4460  0.9667 -1.8026
  166MOL0     H22883   3.169  10.110   4.475  1.4863  1.8285  0.2300
  166MOL0     H22884   3.163   9.996   4.669  0.9731  2.3804 -0.8549
  166MOL0     H22885   2.987   9.986   4.648 -1.2845  2.2952  1.4513
  166MOL0     H22886   3.132  10.205   4.807 -2.8123  2.6551  0.6243
  166MOL0     H22887   3.036  10.071   4.873 -1.4137  2.7602  1.7463
  166MOL0     H22888   3.591  10.173   4.015 -0.4992 -0.8210  0.4845
  166MOL0     H22889   3.834  10.154   4.039 -1.3960  0.0939 -0.9664
  166MOL0     H22890   4.178  10.151   4.426  3.4179 -0.8561  1.8732
  166MOL0     H22891   4.397  10.132   4.484  1.0582  0.9528 -0.3063
  166MOL0     H22892   4.941   8.553   4.954 -1.2206  1.6176 -0.2393
  166MOL0     H22893   4.912   8.523   5.180  0.6541 -0.8694  0.3881
  166MOL0     H22894   4.886   8.841   5.558 -1.4560  0.8745  0.5086
  166MOL0     H22895   4.874   8.914   5.792  1.1545 -0.2193  1.3110
  166MOL0     H22896   4.688   8.628   6.062  0.0541 -2.0886  2.2262
  166MOL0     H22897   4.860   8.591   6.100 -1.7135 -1.7031 -1.8747
  166MOL0     H22898   4.761   8.841   6.221 -1.1393  0.8953  2.5414
  166MOL0     H22899   4.884   8.728   6.278 -1.0920 -3.1850  0.7465
  166MOL0     H22900   4.676   8.565   6.308  2.8494 -0.4339 -0.2916
  166MOL0     H22901   4.729   8.660   6.437 -2.2402 -0.6636  0.6815
  166MOL0     H22902   4.517   8.730   6.243  1.8740  1.5956 -0.8412
  166MOL0     H22903   4.545   8.824   6.396  0.7902  1.0746 -0.5709
  166MOL0     H22904   4.324   8.492   6.537  0.4954  1.6161  1.7003
  166MOL0     H22905   4.810   8.520   5.910 -1.3666 -1.5192 -2.4427
  166MOL0     H22906   4.766   8.373   5.648 -0.2781  0.6175 -2.8445
  166MOL0     H22907   4.935   8.352   5.587 -1.1376 -2.2510 -0.4370
  166MOL0     H22908   4.899   8.321   5.753 -1.5490 -2.1211 -0.5761
  167MOL0     O22909   1.331   9.292   6.767  0.2330  0.7236  0.6907
  167MOL0     C22910   1.231   9.228   6.791  0.9032 -0.9290  0.5276
  167MOL0     O22911   1.127   9.191   6.706 -0.3767 -0.0230  0.6380
  167MOL0     C22912   1.120   9.263   6.585  0.0446 -0.9419  0.1031
  167MOL0     C22913   1.152   9.190   6.474  0.9302 -0.8910 -0.2242
  167MOL0     C22914   1.131   9.257   6.352 -0.6395  0.7039 -0.4367
  167MOL0     C22915   1.094   9.395   6.336 -0.1290  0.6117 -0.2633
  167MOL0     O22916   1.079   9.458   6.220 -0.4361  0.2520 -0.3152
  167MOL0     C22917   1.130   9.394   6.102 -0.8271  0.2751 -1.5036
  167MOL0     C22918   1.146   9.484   5.990 -0.8887 -1.0574  0.1118
  167MOL0     C22919   1.267   9.584   5.995  0.0173 -0.0716  0.1890
  167MOL0     C22920   1.256   9.682   6.109 -0.0586 -0.3818 -0.3596
  167MOL0     C22921   1.364   9.790   6.111 -0.2924  0.6233  0.6481
  167MOL0     C22922   1.352   9.912   6.027  0.2983  0.5478  0.0378
  167MOL0     C22923   1.474  10.011   6.054 -0.3499  0.2219  0.1475
  167MOL0     C22924   1.504  10.127   5.948  0.6727  0.4550  0.3774
  167MOL0     N22925   1.622  10.198   5.981 -0.1410 -0.0739  1.1513
  167MOL0     C22926   1.683  10.273   5.887  0.0572  0.1322 -0.7045
  167MOL0     C22927   1.779  10.336   5.954 -0.5685 -0.1879  0.5465
  167MOL0     C22928   1.874  10.439   5.908 -0.4385  0.6645  0.6593
  167MOL0     C22929   1.835  10.503   5.774 -0.2838 -0.1384 -0.4572
  167MOL0     C22930   1.938  10.623   5.735 -0.8210 -0.1151  0.2407
  167MOL0     C22931   1.946  10.653   5.587 -0.3931 -0.7486  0.8501
  167MOL0     O22932   1.827  10.702   5.522 -0.0535 -0.0107 -0.5813
  167MOL0     C22933   1.759  10.809   5.574 -0.8594 -0.4592 -1.1381
  167MOL0     C22934   1.816  10.931   5.619  0.8304 -0.8321  0.1758
  167MOL0     C22935   1.742  11.039   5.672  0.1071  0.3866 -0.5674
  167MOL0     C22936   1.827  11.147   5.733  1.1164  0.1723  0.2454
  167MOL0     C22937   1.607  11.020   5.688  0.5133 -0.6171  0.2630
  167MOL0     C22938   1.508  11.116   5.742 -0.0473 -0.0060 -0.8289
  167MOL0     O22939   1.545  11.242   5.733  0.2574 -0.6545 -0.5843
  167MOL0     C22940   1.455  11.340   5.739  0.9924 -0.1659  0.2663
  167MOL0     C22941   1.317  11.336   5.709  0.7133 -1.0063 -0.3925
  167MOL0     C22942   1.240  11.456   5.698 -0.1593 -0.0232 -0.3848
  167MOL0     C22943   1.296  11.573   5.730 -0.0793 -0.1217 -1.5344
  167MOL0     O22944   1.198  11.676   5.736 -0.0833  0.4664 -0.2318
  167MOL0     C22945   1.221  11.771   5.622  0.0412  0.3089  0.0248
  167MOL0     C22946   1.138  11.899   5.647 -0.9755  0.5268  0.8234
  167MOL0     C22947   0.991  11.886   5.656 -0.0331 -0.2640 -0.4355
  167MOL0     C22948   0.946  12.028   5.700 -0.3616 -0.3863 -0.0686
  167MOL0     C22949   0.950  12.136   5.583 -0.1221  0.3470 -0.4975
  167MOL0     C22950   0.897  12.272   5.638 -0.3590  1.3945 -0.2304
  167MOL0     C22951   0.954  12.310   5.771  0.1770  0.1273 -0.6378
  167MOL0     C22952   0.893  12.444   5.815 -0.4110 -0.4254  0.8201
  167MOL0    Cl22953   0.936  12.572   5.698  0.2136 -0.3452  0.5780
  167MOL0     C22954   1.425  11.578   5.782 -0.1432 -0.6243  0.0979
  167MOL0     C22955   1.509  11.460   5.789 -0.1203 -0.1902  0.4947
  167MOL0     O22956   1.399  11.081   5.805  0.0486  0.2327  1.0329
  167MOL0     C22957   1.544  10.908   5.631 -0.1821 -0.2464  0.6069
  167MOL0     C22958   1.623  10.797   5.585  0.4758 -0.9189 -0.2270
  167MOL0     N22959   1.756  10.313   6.093  0.4357 -0.8336 -0.8636
  167MOL0     N22960   1.656  10.228   6.110  0.2154 -0.1737  1.2510
  167MOL0     C22961   1.082   9.468   6.453  0.0258 -0.4424 -0.2339
  167MOL0     C22962   1.087   9.404   6.578 -0.5381  0.0130  0.4932
  167MOL0     C22963   1.224   9.174   6.926  0.2243  0.9497  0.3450
  167MOL0     C22964   1.122   9.086   6.958  0.2782  0.0698 -0.1034
  167MOL0     C22965   1.090   9.054   7.082  0.3037 -0.8765 -0.5993
  167MOL0     C22966   1.165   9.096   7.193 -1.2641 -0.4325 -1.2349
  167MOL0     O22967   1.117   9.057   7.323 -0.6488 -0.1397 -0.0784
  167MOL0     C22968   1.144   9.157   7.421  0.0152  0.5742  0.5286
  167MOL0     C22969   1.085   9.109   7.553 -0.2039 -0.6285  0.8963
  167MOL0     C22970   1.182   9.002   7.615 -0.4225  0.1800 -0.1725
  167MOL0     C22971   1.306   9.053   7.691  0.0164  0.7005 -0.4143
  167MOL0     C22972   1.278   9.152   7.791  0.9676 -0.1883 -0.8025
  167MOL0     C22973   1.261   9.227   7.887 -0.3442 -0.8972  0.7309
  167MOL0     C22974   1.278   9.172   7.175  0.8863 -0.9566 -0.2541
  167MOL0     C22975   1.296   9.224   7.040  0.1621  0.1463  0.7173
  167MOL0     C22976   1.391   9.331   7.039 -0.2231 -0.1646 -1.0472
  167MOL0     H22977   1.173   9.084   6.477  0.6746 -0.9130  1.8100
  167MOL0     H22978   1.141   9.191   6.266 -0.2707  2.1068 -1.5060
  167MOL0     H22979   1.055   9.321   6.069 -0.7608  0.6922 -2.5920
  167MOL0     H22980   1.227   9.347   6.119 -0.4960  2.0457  2.6988
  167MOL0     H22981   1.161   9.423   5.901 -0.4723  1.1445 -1.4154
  167MOL0     H22982   1.053   9.542   5.984 -0.8351 -1.1083 -1.9802
  167MOL0     H22983   1.357   9.522   5.987 -0.3731 -0.5218 -1.0126
  167MOL0     H22984   1.248   9.642   5.903  0.5085  3.0268  1.8817
  167MOL0     H22985   1.160   9.733   6.118  1.2086  2.1416 -0.3341
  167MOL0     H22986   1.262   9.629   6.204 -1.5251  2.0896  1.2315
  167MOL0     H22987   1.458   9.736   6.095 -1.7292 -3.1604  3.4060
  167MOL0     H22988   1.365   9.822   6.216 -0.1951  0.2104  0.7782
  167MOL0     H22989   1.373   9.880   5.924 -1.2586 -2.1918  0.4688
  167MOL0     H22990   1.254   9.961   6.026 -0.5913 -1.1427 -0.4995
  167MOL0     H22991   1.567   9.956   6.066 -0.6966 -0.2695  0.6378
  167MOL0     H22992   1.444  10.065   6.144 -0.3522 -0.9907  0.8980
  167MOL0     H22993   1.503  10.075   5.852  0.8793 -3.0729  2.1336
  167MOL0     H22994   1.417  10.191   5.932  0.8916  0.2389 -2.2331
  167MOL0     H22995   1.662  10.283   5.781  1.8983  0.7170 -1.0576
  167MOL0     H22996   1.970  10.392   5.886 -1.3284 -0.2737 -1.5123
  167MOL0     H22997   1.895  10.509   5.989  1.9351  2.0704 -1.0415
  167MOL0     H22998   1.845  10.430   5.693  1.2989 -1.3347  0.7535
  167MOL0     H22999   1.730  10.535   5.765  0.2198  1.3478 -1.3622
  167MOL0     H23000   1.896  10.714   5.780 -3.4326 -1.0493 -0.1512
  167MOL0     H23001   2.038  10.605   5.776 -1.3596 -3.2302  0.4757
  167MOL0     H23002   2.029  10.718   5.562 -0.9857 -0.4742 -0.5068
  167MOL0     H23003   1.974  10.565   5.528 -2.6120 -0.2315 -1.1340
  167MOL0     H23004   1.921  10.941   5.596  0.9666 -0.5525  0.8862
  167MOL0     H23005   1.888  11.186   5.650 -0.3568  2.0155 -0.0313
  167MOL0     H23006   1.894  11.107   5.810  1.2421  0.6075  0.3676
  167MOL0     H23007   1.777  11.237   5.771  3.7356  0.5601  3.1480
  167MOL0     H23008   1.255  11.252   5.679 -2.7026  0.7780  1.0038
  167MOL0     H23009   1.134  11.454   5.672  0.1828 -2.3930 -1.8708
  167MOL0     H23010   1.328  11.796   5.613 -0.1678  0.7373 -1.5286
  167MOL0     H23011   1.187  11.726   5.529 -1.7820 -1.6363  1.5289
  167MOL0     H23012   1.175  11.951   5.736  0.0261  0.0535  0.6945
  167MOL0     H23013   1.162  11.961   5.560  4.6583 -2.3893 -0.1788
  167MOL0     H23014   0.975  11.801   5.723  1.0334 -0.3742 -0.3023
  167MOL0     H23015   0.938  11.869   5.562 -1.9799  0.3940  0.4994
  167MOL0     H23016   1.009  12.052   5.787  0.5721  0.6744 -1.0002
  167MOL0     H23017   0.845  12.021   5.741  0.3949  0.3511  2.0983
  167MOL0     H23018   1.050  12.152   5.541  0.2355 -1.9691 -0.6757
  167MOL0     H23019   0.897  12.100   5.494  1.7615  0.5098 -1.7550
  167MOL0     H23020   0.788  12.261   5.635 -0.5189  2.3499  1.1392
  167MOL0     H23021   0.927  12.342   5.560  0.1177  2.1736  0.6417
  167MOL0     H23022   1.063  12.320   5.776  0.4963 -2.9978  1.3347
  167MOL0     H23023   0.940  12.231   5.845  1.1166  0.2450 -0.3189
  167MOL0     H23024   0.935  12.462   5.914  0.9245  3.1146 -0.2486
  167MOL0     H23025   0.785  12.437   5.829 -0.2422 -0.5943  2.1172
  167MOL0     H23026   1.460  11.673   5.822  2.4788 -0.9874 -1.1641
  167MOL0     H23027   1.612  11.460   5.824  0.6219  0.8785 -1.5307
  167MOL0     H23028   1.436  10.908   5.634 -0.2670 -0.9812 -1.0455
  167MOL0     H23029   1.591  10.694   5.575  5.3067 -2.8411  1.1342
  167MOL0     H23030   1.053   9.571   6.436  3.8897  0.3159 -3.8082
  167MOL0     H23031   1.062   9.459   6.668  2.5851  2.8274 -0.1600
  167MOL0     H23032   1.061   9.043   6.878 -0.6813  0.2970  0.4864
  167MOL0     H23033   1.003   8.990   7.093 -1.7082  1.7357 -0.5889
  167MOL0     H23034   1.249   9.188   7.423  0.0767  0.6451 -1.4786
  167MOL0     H23035   1.088   9.248   7.399 -0.6368 -0.5902 -3.2658
  167MOL0     H23036   0.983   9.075   7.538  0.3960 -1.6822 -1.1936
  167MOL0     H23037   1.068   9.193   7.621  2.2740  0.0143  0.8308
  167MOL0     H23038   1.126   8.944   7.689  0.2888  1.6104  1.5659
  167MOL0     H23039   1.203   8.936   7.530 -1.5735 -0.1959 -0.1734
  167MOL0     H23040   1.371   9.102   7.619  1.2116  0.5093  0.5147
  167MOL0     H23041   1.355   8.969   7.741  2.2184  1.2520 -1.5426
  167MOL0     H23042   1.263   9.303   7.962  0.4564  4.1433 -3.7578
  167MOL0     H23043   1.343   9.204   7.256  0.8578  0.6719 -0.8528
  167MOL0     H23044   1.434   9.360   7.136 -1.7603 -1.0954 -0.0485
  167MOL0     H23045   1.469   9.311   6.964  2.8450  2.7474  1.0612
  167MOL0     H23046   1.339   9.422   7.008 -1.3402  0.2748  1.8235
  168MOL0     O23047   9.782   6.481   0.443  0.9085  0.0428 -0.1388
  168MOL0     C23048   9.880   6.485   0.517  0.0334  0.0070  0.1227
  168MOL0     O23049   9.888   6.560   0.637  0.4551 -0.2650 -0.3029
  168MOL0     C23050   9.812   6.674   0.643  0.9533 -0.8899 -0.0521
  168MOL0     C23051   9.878   6.794   0.666 -0.3910  0.3981  0.5775
  168MOL0     C23052   9.804   6.915   0.682  0.8725 -0.1628 -0.5250
  168MOL0     C23053   9.665   6.913   0.682  0.3490 -0.2398  0.0462
  168MOL0     O23054   9.598   7.034   0.697 -0.1063  0.2607  0.7466
  168MOL0     C23055   9.602   7.072   0.829 -0.4218  0.6831 -0.0831
  168MOL0     C23056   9.514   7.191   0.854 -0.1537  0.5098 -0.1303
  168MOL0     C23057   9.366   7.176   0.806  0.1135 -0.8748 -0.2419
  168MOL0     C23058   9.281   7.300   0.834 -0.7951  0.6795  0.1671
  168MOL0     C23059   9.142   7.287   0.762  0.0504 -0.2436  0.3518
  168MOL0     C23060   9.053   7.408   0.782 -0.9834  0.8985 -0.2029
  168MOL0     C23061   8.943   7.427   0.671 -0.1368 -0.6548  0.6482
  168MOL0     C23062   8.852   7.311   0.659  0.1398  0.5661 -0.8124
  168MOL0     N23063   8.745   7.301   0.759 -0.0402 -1.3801 -0.2632
  168MOL0     C23064   8.657   7.403   0.802  0.3592  0.9279  0.0558
  168MOL0     C23065   8.575   7.327   0.884 -0.3068 -0.2416 -0.3746
  168MOL0     C23066   8.462   7.379   0.961  0.3909 -1.5351 -1.1351
  168MOL0     C23067   8.346   7.309   0.910  0.0586 -0.5973 -0.3961
  168MOL0     C23068   8.269   7.406   0.818 -0.5015  0.1038 -0.0297
  168MOL0     C23069   8.179   7.503   0.895  0.4213  0.2937 -0.5983
  168MOL0     O23070   8.101   7.426   0.990 -0.9447  0.0034 -1.1277
  168MOL0     C23071   8.010   7.489   1.078  0.2324  0.5987  0.0339
  168MOL0     C23072   8.010   7.620   1.122  0.0890 -1.1446 -0.8156
  168MOL0     C23073   7.903   7.664   1.202  1.3264  0.2653 -0.3237
  168MOL0     C23074   7.922   7.783   1.296  0.3646 -0.1982  0.5162
  168MOL0     C23075   7.784   7.590   1.217 -0.3975  1.0870  0.4176
  168MOL0     C23076   7.658   7.622   1.286 -0.0009 -0.2598  0.1764
  168MOL0     O23077   7.640   7.743   1.333 -0.2018 -0.3958 -0.0333
  168MOL0     C23078   7.520   7.793   1.395 -1.7741  0.3861  0.4400
  168MOL0     C23079   7.517   7.935   1.375  0.6610 -0.7633  0.0733
  168MOL0     C23080   7.419   8.018   1.429 -0.1464  0.0079  0.7673
  168MOL0     C23081   7.305   7.965   1.489 -0.5837 -0.6464  0.4756
  168MOL0     O23082   7.200   8.035   1.541  0.6643  0.0565 -0.4581
  168MOL0     C23083   7.184   8.170   1.506 -0.1587  0.3505 -0.7595
  168MOL0     C23084   7.071   8.247   1.561  0.9777 -1.1816  0.0003
  168MOL0     C23085   6.933   8.177   1.574 -0.8217  0.2142 -0.3417
  168MOL0     C23086   6.897   8.100   1.442 -0.6927  0.5268 -0.2677
  168MOL0     C23087   6.759   8.022   1.458 -0.3180 -0.6874  0.1360
  168MOL0     C23088   6.768   7.915   1.559  0.4544 -0.1386  0.9769
  168MOL0     C23089   6.670   7.807   1.529  0.2675  0.5404 -0.3622
  168MOL0     C23090   6.677   7.686   1.627 -0.9271 -0.3796  0.1895
  168MOL0    Cl23091   6.523   7.605   1.616  0.1123  0.0916  0.6540
  168MOL0     C23092   7.296   7.828   1.488  0.3283  0.3206  0.4403
  168MOL0     C23093   7.400   7.734   1.449  0.2443 -0.6784  0.5821
  168MOL0     O23094   7.572   7.537   1.310 -0.1879  0.5971  0.3241
  168MOL0     C23095   7.784   7.462   1.143  0.0694 -0.7925  0.3247
  168MOL0     C23096   7.892   7.405   1.087 -0.0580  0.2545  0.8104
  168MOL0     N23097   8.615   7.199   0.883  0.8326  0.6971 -0.1628
  168MOL0     N23098   8.705   7.179   0.798 -0.6461 -0.0180 -0.5334
  168MOL0     C23099   9.598   6.796   0.673 -0.0860 -0.2426  0.1111
  168MOL0     C23100   9.671   6.676   0.660  0.1039  0.7693  0.0992
  168MOL0     C23101  10.002   6.414   0.467 -0.0043 -0.6731  0.8309
  168MOL0     C23102  10.005   6.396   0.329  0.7431 -0.0256  0.1205
  168MOL0     C23103  10.110   6.342   0.260 -0.0182 -0.4058  0.3781
  168MOL0     C23104  10.217   6.308   0.340  1.2999  0.3719 -0.2666
  168MOL0     O23105  10.319   6.260   0.273  0.0688  0.1433 -0.9550
  168MOL0     C23106  10.438   6.335   0.281  0.0989  0.7226 -0.0620
  168MOL0     C23107  10.521   6.320   0.155 -0.0083 -0.3053 -0.6271
  168MOL0     C23108  10.645   6.412   0.184 -0.5961 -0.0755 -1.2020
  168MOL0     C23109  10.757   6.413   0.082 -0.1978  0.1209 -1.1922
  168MOL0     C23110  10.780   6.280   0.024 -0.0192 -0.3641  1.1641
  168MOL0     C23111  10.790   6.183  -0.049 -0.6868  0.4844 -0.3197
  168MOL0     C23112  10.210   6.311   0.476 -0.4880 -0.1483  0.6150
  168MOL0     C23113  10.102   6.371   0.546 -0.2578  0.1736  0.4523
  168MOL0     C23114  10.104   6.383   0.705 -0.9417  0.5706  0.7175
  168MOL0     H23115   9.986   6.789   0.668  0.0559  3.3410 -3.1882
  168MOL0     H23116   9.870   7.000   0.693  0.7168 -0.0306 -0.6069
  168MOL0     H23117   9.704   7.095   0.861 -0.8799  0.8273  1.3543
  168MOL0     H23118   9.559   6.990   0.887  0.2678 -0.2417 -0.8316
  168MOL0     H23119   9.518   7.221   0.959  0.2542  2.1049 -0.5735
  168MOL0     H23120   9.549   7.273   0.790 -0.1171  0.6812  0.1098
  168MOL0     H23121   9.377   7.162   0.698  1.9190 -0.1145 -0.1879
  168MOL0     H23122   9.310   7.094   0.851  0.0995  0.1295  1.6650
  168MOL0     H23123   9.259   7.329   0.937 -0.6372 -0.8242  0.6478
  168MOL0     H23124   9.343   7.379   0.792  0.4981 -1.1583 -1.5331
  168MOL0     H23125   9.093   7.195   0.795 -0.0265 -0.5972 -0.7245
  168MOL0     H23126   9.167   7.278   0.656  1.4886  2.8508  0.3205
  168MOL0     H23127   9.009   7.416   0.882  0.9139  0.9619  0.6839
  168MOL0     H23128   9.122   7.491   0.761 -0.2361  0.6146  1.0229
  168MOL0     H23129   8.999   7.434   0.576 -2.9344 -1.0248 -1.1446
  168MOL0     H23130   8.890   7.522   0.682  0.7680  0.4249 -2.7894
  168MOL0     H23131   8.798   7.326   0.565 -4.1541  0.6970  1.4071
  168MOL0     H23132   8.904   7.215   0.657 -1.0346 -0.2256  1.9566
  168MOL0     H23133   8.642   7.508   0.782  1.0364  1.4525  2.1315
  168MOL0     H23134   8.448   7.485   0.942 -2.3627 -1.7609 -0.7197
  168MOL0     H23135   8.480   7.362   1.067  0.5034  0.6740 -0.7580
  168MOL0     H23136   8.365   7.228   0.839  1.9647 -1.6574  1.2186
  168MOL0     H23137   8.293   7.271   0.997  3.4314 -1.8921  1.2711
  168MOL0     H23138   8.338   7.455   0.749 -1.8109  1.0462 -0.7318
  168MOL0     H23139   8.206   7.338   0.759  1.8257 -1.2094 -1.1343
  168MOL0     H23140   8.245   7.576   0.941  1.8790  0.8495 -3.3507
  168MOL0     H23141   8.116   7.554   0.821  0.6449  0.9621 -0.3327
  168MOL0     H23142   8.099   7.678   1.098 -0.6048 -0.7552 -2.5760
  168MOL0     H23143   8.028   7.810   1.293  0.4309 -0.5023 -0.2429
  168MOL0     H23144   7.880   7.751   1.392  0.0554 -0.8588  0.1704
  168MOL0     H23145   7.864   7.868   1.256 -3.1888 -0.8525  3.6810
  168MOL0     H23146   7.595   7.981   1.315  1.8398  0.4258  2.3771
  168MOL0     H23147   7.430   8.124   1.411 -1.0635 -0.1023 -0.6450
  168MOL0     H23148   7.275   8.222   1.535 -0.8482  0.7512  0.7628
  168MOL0     H23149   7.166   8.161   1.398 -0.0309 -5.1149 -0.6310
  168MOL0     H23150   7.108   8.294   1.653  0.5875 -1.5942  0.3758
  168MOL0     H23151   7.064   8.331   1.492  1.7757 -0.1067  1.1822
  168MOL0     H23152   6.855   8.252   1.589  1.3745  2.3439  1.4269
  168MOL0     H23153   6.924   8.112   1.662 -1.5230  0.1528 -0.4567
  168MOL0     H23154   6.977   8.029   1.420 -0.8525 -0.2823  1.5889
  168MOL0     H23155   6.894   8.184   1.372 -0.2847  1.0756  0.3529
  168MOL0     H23156   6.682   8.092   1.491  1.2229  2.5243 -2.3979
  168MOL0     H23157   6.728   7.973   1.366 -2.2777 -0.9147  0.8723
  168MOL0     H23158   6.748   7.958   1.657 -2.0231 -0.8871  0.8504
  168MOL0     H23159   6.868   7.870   1.556  0.2101 -0.7164 -2.7992
  168MOL0     H23160   6.692   7.764   1.430  1.6339 -0.5347  0.3726
  168MOL0     H23161   6.572   7.857   1.526  0.3107  0.6419 -0.0090
  168MOL0     H23162   6.698   7.722   1.728  1.1585  1.2433 -0.7456
  168MOL0     H23163   6.749   7.609   1.600  0.7057  1.2599 -0.3668
  168MOL0     H23164   7.206   7.783   1.528  0.0461  2.2230  2.0783
  168MOL0     H23165   7.388   7.629   1.471  1.1238 -1.9188 -3.7535
  168MOL0     H23166   7.692   7.404   1.148 -1.9425  2.3058  2.7148
  168MOL0     H23167   7.882   7.306   1.045  1.8926  0.6269 -0.7366
  168MOL0     H23168   9.490   6.781   0.672  0.2730 -4.0212 -2.1344
  168MOL0     H23169   9.618   6.581   0.665 -0.4937  1.0741 -0.3435
  168MOL0     H23170   9.934   6.433   0.255  1.4568  1.1849  0.0121
  168MOL0     H23171  10.118   6.318   0.154  1.0517 -0.3809  0.4349
  168MOL0     H23172  10.428   6.437   0.320  2.5565  0.3160  1.8750
  168MOL0     H23173  10.491   6.297   0.369 -0.2799 -1.8745 -0.8888
  168MOL0     H23174  10.458   6.346   0.070 -2.0650  0.2143  0.9671
  168MOL0     H23175  10.546   6.214   0.141 -3.4165 -1.1115 -1.6697
  168MOL0     H23176  10.610   6.516   0.188 -0.6421 -0.0724 -1.6814
  168MOL0     H23177  10.698   6.385   0.276  2.7822  2.7203 -2.1040
  168MOL0     H23178  10.847   6.452   0.131 -0.9186  1.2744 -0.7531
  168MOL0     H23179  10.734   6.477  -0.003  0.6737  0.9391 -0.8339
  168MOL0     H23180  10.798   6.109  -0.127 -0.5866  1.1114 -0.9175
  168MOL0     H23181  10.289   6.260   0.531 -0.3353 -2.1508 -1.3203
  168MOL0     H23182  10.118   6.489   0.731 -1.0793  1.2326 -1.6430
  168MOL0     H23183  10.012   6.339   0.744 -1.5075 -1.9751 -2.9411
  168MOL0     H23184  10.189   6.328   0.747 -1.6450  0.3598  1.9195
  169MOL0     O23185   0.534   8.449  10.999 -0.1786  0.1264 -0.3308
  169MOL0     C23186   0.574   8.334  10.988  0.5144 -0.7039  1.5852
  169MOL0     O23187   0.504   8.225  11.023  0.2588 -0.6863 -0.8775
  169MOL0     C23188   0.402   8.247  11.112  0.7496 -0.0416  0.2569
  169MOL0     C23189   0.420   8.217  11.243 -1.0727 -0.6143 -1.0720
  169MOL0     C23190   0.310   8.221  11.333  1.0037  0.3051  0.6337
  169MOL0     C23191   0.183   8.258  11.281 -1.2340 -1.1821 -0.0303
  169MOL0     O23192   0.069   8.271  11.362  0.1129 -0.8914 -0.2257
  169MOL0     C23193   0.075   8.262  11.499 -0.6871 -0.7110  0.2313
  169MOL0     C23194   0.149   8.392  11.555 -0.2045  0.2295 -0.9054
  169MOL0     C23195   0.200   8.369  11.703 -0.6670 -0.6093 -0.6408
  169MOL0     C23196   0.217   8.497  11.779 -0.2138 -0.5332  0.7250
  169MOL0     C23197   0.340   8.579  11.726 -0.4339  0.0115  0.6052
  169MOL0     C23198   0.360   8.723  11.780 -1.1378 -0.1768  0.2155
  169MOL0     C23199   0.244   8.829  11.757 -0.1680 -0.4255 -0.7805
  169MOL0     C23200   0.248   8.948  11.857 -0.0016  1.0304 -0.1492
  169MOL0     N23201   0.266   9.076  11.792 -0.2777  0.1405  0.8700
  169MOL0     C23202   0.376   9.128  11.735 -0.0908  0.4126 -1.2016
  169MOL0     C23203   0.346   9.261  11.715  0.3727 -0.8800 -0.5554
  169MOL0     C23204   0.438   9.353  11.636 -0.7861 -0.5073 -0.2741
  169MOL0     C23205   0.376   9.439  11.514 -0.1398  1.1469 -0.2362
  169MOL0     C23206   0.343   9.339  11.400  0.0524  0.1699 -1.4418
  169MOL0     C23207   0.469   9.312  11.311  0.7522  0.9274  0.6930
  169MOL0     O23208   0.418   9.215  11.217 -0.3823  0.1009 -0.9719
  169MOL0     C23209   0.518   9.155  11.139  1.1500  0.5457 -0.6279
  169MOL0     C23210   0.478   9.027  11.097  0.1241 -0.2816  0.1219
  169MOL0     C23211   0.570   8.943  11.034  0.3262  0.4542  0.5952
  169MOL0     C23212   0.521   8.808  10.991  0.6564  0.3642  0.7174
  169MOL0     C23213   0.707   8.990  11.013  0.0510 -0.4613 -0.5724
  169MOL0     C23214   0.809   8.910  10.945 -0.5352  1.0248  0.4143
  169MOL0     O23215   0.805   8.909  10.809 -0.1506 -0.2171  0.0207
  169MOL0     C23216   0.891   8.829  10.743  0.4117 -0.4081 -0.5145
  169MOL0     C23217   0.867   8.690  10.726  0.0799  0.6249  1.5250
  169MOL0     C23218   0.968   8.603  10.673  0.4950 -0.4425  0.2285
  169MOL0     C23219   1.087   8.647  10.641  0.4361  0.4316 -0.3625
  169MOL0     O23220   1.178   8.558  10.596  0.7148  0.1933  1.2555
  169MOL0     C23221   1.151   8.504  10.461  0.0565 -0.0910 -0.0579
  169MOL0     C23222   1.156   8.605  10.336  1.5550 -0.0730  0.5114
  169MOL0     C23223   1.291   8.630  10.291  0.3943  0.4875  1.0009
  169MOL0     C23224   1.283   8.665  10.135  0.4997 -0.2163 -0.4242
  169MOL0     C23225   1.418   8.639  10.064  1.1435 -0.8287 -0.2370
  169MOL0     C23226   1.523   8.746  10.105  0.3932 -0.6914  0.4398
  169MOL0     C23227   1.647   8.700  10.025  0.5236  0.3149  0.0592
  169MOL0     C23228   1.723   8.583  10.077 -0.3189 -0.0004 -0.4576
  169MOL0    Cl23229   1.847   8.631  10.197  0.6708 -0.2342  0.1058
  169MOL0     C23230   1.117   8.782  10.652  0.4479 -0.3273 -0.3427
  169MOL0     C23231   1.015   8.873  10.697 -0.4135 -0.9997 -0.2511
  169MOL0     O23232   0.904   8.866  11.006  0.0650  0.7022 -0.3273
  169MOL0     C23233   0.739   9.122  11.057  0.0132  0.1636  0.2319
  169MOL0     C23234   0.646   9.198  11.116  0.2207 -0.0896  0.8181
  169MOL0     N23235   0.206   9.275  11.741 -0.5728  0.3323  0.7005
  169MOL0     N23236   0.164   9.167  11.791 -0.9253 -0.6443 -0.1533
  169MOL0     C23237   0.169   8.286  11.142  1.7053 -0.2596 -0.4804
  169MOL0     C23238   0.280   8.281  11.059  0.2465 -0.4720 -0.7745
  169MOL0     C23239   0.707   8.310  10.935  0.2940 -0.8574 -0.1643
  169MOL0     C23240   0.813   8.396  10.982  0.2789  0.2680 -0.1867
  169MOL0     C23241   0.945   8.354  10.943 -0.6209 -0.4107  0.3129
  169MOL0     C23242   0.973   8.233  10.879  0.4899 -0.0990 -0.3620
  169MOL0     O23243   1.103   8.195  10.861 -0.3512  0.8200 -0.4036
  169MOL0     C23244   1.206   8.286  10.876  0.0045  0.3008  0.5900
  169MOL0     C23245   1.336   8.208  10.847  0.0302 -0.0190 -0.1417
  169MOL0     C23246   1.383   8.131  10.972 -0.2364  0.4039 -0.4480
  169MOL0     C23247   1.398   8.210  11.110 -0.4235  0.7904 -0.5029
  169MOL0     C23248   1.480   8.333  11.096  0.2861 -0.2167 -0.0410
  169MOL0     C23249   1.535   8.441  11.072 -0.2858  0.2140  0.0035
  169MOL0     C23250   0.863   8.143  10.852  0.1541  0.1055  0.9006
  169MOL0     C23251   0.732   8.192  10.865 -0.5665  0.6131  0.2181
  169MOL0     C23252   0.621   8.104  10.809 -0.0753 -0.4885  0.2073
  169MOL0     H23253   0.514   8.184  11.286 -1.6158  1.1974  1.7801
  169MOL0     H23254   0.321   8.204  11.439 -0.5742  1.8840  1.1124
  169MOL0     H23255   0.139   8.174  11.514  0.0083 -0.5497 -1.5422
  169MOL0     H23256  -0.028   8.251  11.535 -1.2148  1.5575 -0.4563
  169MOL0     H23257   0.241   8.408  11.498  0.7083  0.5192  0.5777
  169MOL0     H23258   0.072   8.468  11.570 -0.4515 -0.1636 -0.1119
  169MOL0     H23259   0.138   8.292  11.750  1.5917 -1.3804  1.3205
  169MOL0     H23260   0.295   8.315  11.710  0.8283  1.9902  0.7011
  169MOL0     H23261   0.128   8.560  11.766  2.3352  2.6725 -4.2163
  169MOL0     H23262   0.226   8.455  11.880 -0.4370 -1.5447  0.3381
  169MOL0     H23263   0.330   8.593  11.618  0.3841 -0.9207  0.3993
  169MOL0     H23264   0.429   8.519  11.744 -1.1398 -1.5173 -0.7782
  169MOL0     H23265   0.362   8.715  11.889 -1.8052 -0.1078  0.2375
  169MOL0     H23266   0.450   8.773  11.743 -2.6283  2.5752  0.0651
  169MOL0     H23267   0.153   8.776  11.785 -0.3935  0.6961  0.7088
  169MOL0     H23268   0.249   8.873  11.657 -2.2935 -0.7056 -1.0512
  169MOL0     H23269   0.163   8.950  11.926 -0.5287  2.9516 -0.7788
  169MOL0     H23270   0.318   8.936  11.941 -2.2390 -0.1104  1.6790
  169MOL0     H23271   0.464   9.071  11.709 -0.4869  0.6813 -3.3382
  169MOL0     H23272   0.535   9.308  11.616  0.8119  1.1954  2.7862
  169MOL0     H23273   0.478   9.422  11.711 -1.7662 -1.3996  1.1342
  169MOL0     H23274   0.283   9.484  11.550 -0.1990  2.3688 -1.8331
  169MOL0     H23275   0.446   9.520  11.490 -0.2011  1.2031 -0.2226
  169MOL0     H23276   0.312   9.248  11.451 -3.2527  1.4560 -0.9023
  169MOL0     H23277   0.255   9.368  11.343 -2.9060 -2.9122  1.1498
  169MOL0     H23278   0.505   9.404  11.265 -0.6810  2.2961  2.1542
  169MOL0     H23279   0.549   9.258  11.363 -1.2686 -1.5047  1.4437
  169MOL0     H23280   0.374   8.998  11.107  0.5231 -1.0883  2.3693
  169MOL0     H23281   0.426   8.822  10.940  0.4324  0.7270  1.2273
  169MOL0     H23282   0.498   8.744  11.078  0.7886  1.3123  1.4664
  169MOL0     H23283   0.593   8.756  10.927 -0.3887 -0.1611 -0.0643
  169MOL0     H23284   0.777   8.637  10.757 -0.1378 -0.9237 -1.3558
  169MOL0     H23285   0.955   8.495  10.674 -1.8546 -0.2233  1.9927
  169MOL0     H23286   1.208   8.412  10.450 -1.3632 -0.9537 -0.3896
  169MOL0     H23287   1.047   8.472  10.460  0.8156 -3.0024  1.7625
  169MOL0     H23288   1.088   8.581  10.254  1.7623  2.7471 -0.6209
  169MOL0     H23289   1.123   8.702  10.375  0.4694  0.8639 -2.4446
  169MOL0     H23290   1.341   8.533  10.297 -4.2592 -2.5997 -2.5063
  169MOL0     H23291   1.337   8.717  10.338  2.2838  0.3799 -0.5419
  169MOL0     H23292   1.261   8.772  10.125 -3.1056 -0.7318  0.3890
  169MOL0     H23293   1.211   8.618  10.067 -0.2651  1.4317 -0.8274
  169MOL0     H23294   1.449   8.538  10.092 -1.6422 -1.6051  0.3028
  169MOL0     H23295   1.426   8.645   9.955  2.2019  0.0281 -0.1413
  169MOL0     H23296   1.542   8.734  10.212  1.8031  1.1540  0.4561
  169MOL0     H23297   1.493   8.848  10.080  0.8316  0.0353  2.6258
  169MOL0     H23298   1.712   8.786  10.047 -1.1201  2.0616 -1.6095
  169MOL0     H23299   1.633   8.688   9.917  1.4214  2.5462 -0.3567
  169MOL0     H23300   1.769   8.533   9.991  1.8464  0.6831  0.2468
  169MOL0     H23301   1.646   8.513  10.111 -0.5221  0.4443 -0.0039
  169MOL0     H23302   1.217   8.817  10.629  0.9093 -1.8339 -0.7800
  169MOL0     H23303   1.039   8.976  10.721  1.6354 -1.3252 -0.7313
  169MOL0     H23304   0.838   9.167  11.048 -0.1322  0.1175 -2.4923
  169MOL0     H23305   0.663   9.300  11.149 -1.8262  0.8689 -0.8575
  169MOL0     H23306   0.072   8.308  11.099  0.6026 -0.4766  1.7394
  169MOL0     H23307   0.260   8.296  10.953 -1.0016 -0.3376 -0.5301
  169MOL0     H23308   0.798   8.493  11.029 -1.1035  0.8971 -1.8322
  169MOL0     H23309   1.018   8.431  10.965 -2.1759  1.8282 -1.8537
  169MOL0     H23310   1.181   8.363  10.802 -2.5671 -0.3404  0.7006
  169MOL0     H23311   1.217   8.344  10.968 -2.8152  1.4179  0.3028
  169MOL0     H23312   1.415   8.281  10.826 -0.2174  0.2441 -0.1486
  169MOL0     H23313   1.309   8.156  10.754  0.0948  0.7960 -0.6251
  169MOL0     H23314   1.314   8.050  10.994  0.4878  0.6046  3.2474
  169MOL0     H23315   1.471   8.070  10.951 -1.2634 -1.1153 -0.4929
  169MOL0     H23316   1.432   8.141  11.189 -2.2082 -0.0445 -0.4053
  169MOL0     H23317   1.304   8.249  11.150 -0.4753  1.0460 -0.8681
  169MOL0     H23318   1.570   8.541  11.062 -5.3412  2.0777 -2.2668
  169MOL0     H23319   0.886   8.050  10.801  0.9272 -0.1572  1.6978
  169MOL0     H23320   0.656   8.049  10.721 -0.3111  0.7984 -0.7313
  169MOL0     H23321   0.582   8.031  10.881 -0.3935 -0.2828  0.2454
  169MOL0     H23322   0.543   8.176  10.781 -1.5435 -0.7025  3.3205
  170MOL0     O23323   5.432   1.342   4.520 -1.0412 -1.2078 -0.4195
  170MOL0     C23324   5.510   1.380   4.605 -0.9929  0.0262  0.6677
  170MOL0     O23325   5.498   1.342   4.739  0.7010 -0.3307  0.2257
  170MOL0     C23326   5.385   1.291   4.793  0.4292  0.6528  0.0417
  170MOL0     C23327   5.345   1.156   4.769  0.0074  0.2379  0.0640
  170MOL0     C23328   5.229   1.111   4.843  0.0292 -0.4502 -0.3409
  170MOL0     C23329   5.164   1.199   4.941  0.6788 -0.5204 -0.4724
  170MOL0     O23330   5.051   1.148   4.998  0.2275  0.4462 -0.0178
  170MOL0     C23331   4.949   1.240   5.049 -0.2004  0.1287 -0.5977
  170MOL0     C23332   4.844   1.168   5.114  0.5273  0.8362 -0.7189
  170MOL0     C23333   4.828   1.020   5.069  0.6049  0.5929 -0.8699
  170MOL0     C23334   4.749   0.957   5.187  0.8183 -0.2820  0.0692
  170MOL0     C23335   4.701   0.812   5.153 -0.0105  0.0689 -0.5773
  170MOL0     C23336   4.613   0.746   5.262  0.5711  0.5466 -0.0768
  170MOL0     C23337   4.557   0.600   5.226 -0.7141 -0.1024 -0.4403
  170MOL0     C23338   4.570   0.508   5.346  0.3782 -0.7892 -0.5574
  170MOL0     N23339   4.704   0.472   5.398  0.4257  0.7021 -0.0230
  170MOL0     C23340   4.806   0.460   5.309  0.1557 -0.0141  0.9086
  170MOL0     C23341   4.911   0.448   5.398 -0.3856  0.4910  0.2623
  170MOL0     C23342   5.055   0.433   5.376 -0.3133  0.4234  1.1848
  170MOL0     C23343   5.103   0.386   5.233  0.1975  0.8907  0.2652
  170MOL0     C23344   5.244   0.428   5.200 -0.8092 -0.1687 -0.7616
  170MOL0     C23345   5.306   0.369   5.065  0.0554  0.3207 -0.2378
  170MOL0     O23346   5.310   0.218   5.081  0.2179  0.3047  0.7320
  170MOL0     C23347   5.363   0.140   5.182 -0.2089 -0.3111 -0.9751
  170MOL0     C23348   5.337   0.004   5.177 -0.4903 -0.0946 -0.0376
  170MOL0     C23349   5.411  -0.090   5.256  0.1813 -0.9191 -0.4571
  170MOL0     C23350   5.385  -0.232   5.226 -0.3110  1.3496  0.3918
  170MOL0     C23351   5.508  -0.038   5.343 -0.6811 -0.3363  0.2058
  170MOL0     C23352   5.600  -0.132   5.423  0.9155 -0.1299  0.4055
  170MOL0     O23353   5.653  -0.072   5.533  0.7120  0.3085 -0.4316
  170MOL0     C23354   5.744  -0.128   5.613  0.0507 -0.2191  1.3857
  170MOL0     C23355   5.730  -0.254   5.673  0.1999 -0.8253  0.1968
  170MOL0     C23356   5.828  -0.305   5.752  0.1542 -0.4093 -0.7209
  170MOL0     C23357   5.955  -0.240   5.754  0.4540 -0.0052 -0.7369
  170MOL0     O23358   6.060  -0.316   5.804 -0.5695 -0.0854  0.0466
  170MOL0     C23359   6.169  -0.249   5.875 -0.0336  0.2397 -0.9951
  170MOL0     C23360   6.266  -0.366   5.936 -0.7347 -0.1556  0.7619
  170MOL0     C23361   6.175  -0.466   6.017  0.4565  0.8168 -0.0023
  170MOL0     C23362   6.255  -0.578   6.092  0.0390 -0.2374  0.3482
  170MOL0     C23363   6.163  -0.667   6.179  0.1562  0.4821 -0.2128
  170MOL0     C23364   6.251  -0.785   6.220 -0.0108  0.0321  0.3057
  170MOL0     C23365   6.164  -0.888   6.301  0.2781  0.3218 -0.3252
  170MOL0     C23366   6.174  -0.870   6.456 -0.0631 -0.2397 -0.8859
  170MOL0    Cl23367   6.071  -0.998   6.541  0.4276  0.0039  0.4738
  170MOL0     C23368   5.970  -0.113   5.690  0.1754  0.5524 -0.6473
  170MOL0     C23369   5.868  -0.061   5.617  0.1917  0.3945 -0.8100
  170MOL0     O23370   5.605  -0.250   5.395  0.6912 -0.3201  0.0754
  170MOL0     C23371   5.515   0.101   5.359  0.2877 -0.2348 -0.4276
  170MOL0     C23372   5.463   0.183   5.264  0.5126 -0.0616  0.5124
  170MOL0     N23373   4.870   0.450   5.531  0.7428 -0.2737 -0.1536
  170MOL0     N23374   4.749   0.469   5.521 -0.4993 -0.3124 -1.4126
  170MOL0     C23375   5.211   1.325   4.963 -0.7896  0.2934  0.2176
  170MOL0     C23376   5.320   1.369   4.889 -0.5867  0.1734 -0.7651
  170MOL0     C23377   5.619   1.478   4.586 -0.2411  0.0531 -0.2605
  170MOL0     C23378   5.629   1.581   4.680 -0.0630  0.7223  0.2283
  170MOL0     C23379   5.729   1.675   4.665 -1.9134 -0.0744 -0.0593
  170MOL0     C23380   5.815   1.680   4.558  0.3560 -0.0819 -0.3024
  170MOL0     O23381   5.887   1.795   4.547 -0.5034  0.2957 -0.0298
  170MOL0     C23382   5.974   1.807   4.434 -0.3574 -0.4255 -0.5979
  170MOL0     C23383   6.008   1.952   4.406  0.5625  0.1541 -0.8679
  170MOL0     C23384   6.120   1.992   4.507  0.1507  0.4224  0.0743
  170MOL0     C23385   6.170   2.130   4.463 -1.4086  0.0231  0.1216
  170MOL0     C23386   6.306   2.157   4.528 -0.5402 -0.8825  0.3983
  170MOL0     C23387   6.421   2.186   4.568  0.3434 -0.4008 -0.5111
  170MOL0     C23388   5.816   1.569   4.469 -0.5210  1.1099 -0.8005
  170MOL0     C23389   5.712   1.476   4.476  0.6373  0.2247 -0.9364
  170MOL0     C23390   5.709   1.362   4.380  0.1787  0.3852 -0.1245
  170MOL0     H23391   5.407   1.079   4.725  0.6348 -0.4484  2.0616
  170MOL0     H23392   5.189   1.013   4.821  0.3522 -0.7827  0.5114
  170MOL0     H23393   4.895   1.295   4.972 -2.9136 -1.8803 -0.2696
  170MOL0     H23394   4.987   1.324   5.108  0.4010 -0.5852  0.0604
  170MOL0     H23395   4.873   1.163   5.220  1.2283 -1.4271 -0.9767
  170MOL0     H23396   4.748   1.220   5.115 -1.6059 -2.7002  1.2033
  170MOL0     H23397   4.776   1.000   4.975  0.0408  0.2857 -0.4963
  170MOL0     H23398   4.924   0.968   5.064  0.2545  0.0218 -2.0620
  170MOL0     H23399   4.801   0.960   5.283 -1.7599 -0.5770  1.5634
  170MOL0     H23400   4.654   1.011   5.192 -0.4500 -2.4818  1.0543
  170MOL0     H23401   4.787   0.756   5.116 -1.3222 -0.3785 -3.2089
  170MOL0     H23402   4.634   0.826   5.067  0.1565  2.1187 -0.4214
  170MOL0     H23403   4.671   0.740   5.354  3.0914 -4.4797 -1.6724
  170MOL0     H23404   4.525   0.807   5.288 -1.3594 -0.3957 -3.6977
  170MOL0     H23405   4.612   0.568   5.137 -2.3707 -0.1955 -1.4873
  170MOL0     H23406   4.450   0.599   5.200 -1.4628 -3.0856  2.0796
  170MOL0     H23407   4.509   0.553   5.425  2.6513  1.6402 -0.0900
  170MOL0     H23408   4.509   0.419   5.326  0.1321 -0.9152  0.6256
  170MOL0     H23409   4.810   0.489   5.205  1.1460  1.8146  1.4176
  170MOL0     H23410   5.089   0.347   5.436 -1.5845 -1.5091 -0.7115
  170MOL0     H23411   5.107   0.525   5.403  1.1952 -0.9092  3.0908
  170MOL0     H23412   5.090   0.279   5.215 -1.1601  1.3241 -1.6162
  170MOL0     H23413   5.042   0.421   5.149  4.5709  1.3881 -3.0760
  170MOL0     H23414   5.242   0.537   5.187  1.7901  0.2541  1.4750
  170MOL0     H23415   5.310   0.414   5.286 -1.6187  1.2468  0.1265
  170MOL0     H23416   5.259   0.395   4.970  3.5957  2.4615 -1.6179
  170MOL0     H23417   5.408   0.407   5.052  0.4925 -0.2964  1.1872
  170MOL0     H23418   5.279  -0.034   5.094 -0.2246 -0.0047 -0.2691
  170MOL0     H23419   5.291  -0.246   5.172 -0.9214  0.7329  1.5549
  170MOL0     H23420   5.387  -0.284   5.322  0.8057  1.6201  0.5300
  170MOL0     H23421   5.459  -0.285   5.167 -0.2648 -1.2833  2.6461
  170MOL0     H23422   5.633  -0.299   5.652 -0.1553 -0.3080  0.6684
  170MOL0     H23423   5.827  -0.401   5.803 -0.9427 -0.3516 -0.5956
  170MOL0     H23424   6.223  -0.180   5.809  1.5692 -0.8775 -0.9059
  170MOL0     H23425   6.116  -0.197   5.956 -1.1854 -2.1887 -0.0989
  170MOL0     H23426   6.310  -0.428   5.857 -1.0402 -2.8302  2.5350
  170MOL0     H23427   6.347  -0.315   5.988  1.2080  2.4530 -4.1641
  170MOL0     H23428   6.110  -0.510   5.941  2.2178 -1.0327 -0.5288
  170MOL0     H23429   6.115  -0.410   6.089 -3.0355 -2.1532 -0.3175
  170MOL0     H23430   6.325  -0.517   6.150 -1.1673  1.4302  0.1257
  170MOL0     H23431   6.313  -0.636   6.020 -2.6756 -3.2921  0.3673
  170MOL0     H23432   6.131  -0.617   6.271  3.2965  2.1020  0.1292
  170MOL0     H23433   6.084  -0.700   6.111 -1.3005  0.1683  1.5560
  170MOL0     H23434   6.335  -0.759   6.287 -0.6074 -2.1623  2.0425
  170MOL0     H23435   6.300  -0.835   6.137  0.5183  2.1598 -0.7362
  170MOL0     H23436   6.207  -0.986   6.280 -3.1166 -1.4074  0.1328
  170MOL0     H23437   6.062  -0.873   6.264  0.5774 -1.1526 -1.8640
  170MOL0     H23438   6.127  -0.774   6.483  0.7197 -0.6185  2.2582
  170MOL0     H23439   6.274  -0.884   6.497 -0.7732 -0.6483  0.8007
  170MOL0     H23440   6.070  -0.071   5.691  0.0828  0.7747  0.3798
  170MOL0     H23441   5.872   0.035   5.566 -1.4107  1.8841  1.6159
  170MOL0     H23442   5.571   0.150   5.438 -0.2461 -0.6751  0.2372
  170MOL0     H23443   5.485   0.288   5.280  0.1802  0.2630 -1.0447
  170MOL0     H23444   5.158   1.400   5.021  0.2765  1.4440 -0.2517
  170MOL0     H23445   5.355   1.465   4.925 -3.7238  0.6093  1.5506
  170MOL0     H23446   5.554   1.605   4.753 -3.3068 -0.2213 -2.5274
  170MOL0     H23447   5.730   1.763   4.728  2.3203  0.4763 -0.6561
  170MOL0     H23448   6.067   1.751   4.448  0.1583  0.2673 -1.1983
  170MOL0     H23449   5.934   1.775   4.338  0.0570  0.0311 -0.9281
  170MOL0     H23450   5.921   2.015   4.425  1.7326  2.1243 -1.7549
  170MOL0     H23451   6.034   1.964   4.300 -1.3437 -1.8352 -1.6581
  170MOL0     H23452   6.082   1.988   4.609  1.4595 -3.2933  0.5537
  170MOL0     H23453   6.205   1.924   4.495 -1.1780 -1.2619 -0.1324
  170MOL0     H23454   6.099   2.207   4.496 -0.6913 -0.4658  3.0762
  170MOL0     H23455   6.177   2.137   4.354  1.9809  2.8404  0.3412
  170MOL0     H23456   6.514   2.217   4.610  0.2788 -2.0066  0.9483
  170MOL0     H23457   5.888   1.570   4.387  1.5659  3.1782  0.9223
  170MOL0     H23458   5.685   1.394   4.278  1.0446 -1.5996 -1.0190
  170MOL0     H23459   5.809   1.316   4.377 -0.5308 -1.2508  0.0772
  170MOL0     H23460   5.645   1.278   4.407 -0.8240  0.3114 -2.4851
  171MOL0     O23461   8.317   1.068   4.984 -0.3679  0.5499  0.7990
  171MOL0     C23462   8.431   1.045   4.932 -1.0969 -0.6082  0.7414
  171MOL0     O23463   8.464   1.079   4.804 -0.3819  0.2529 -0.1788
  171MOL0     C23464   8.359   1.099   4.723  0.4676  0.0863  0.1203
  171MOL0     C23465   8.299   1.227   4.713  0.0183 -1.0136  0.5698
  171MOL0     C23466   8.173   1.241   4.653  0.0559  0.5000  0.8803
  171MOL0     C23467   8.109   1.128   4.589 -0.7174 -0.0658  0.1348
  171MOL0     O23468   7.992   1.154   4.518  1.3106  0.1381  0.2741
  171MOL0     C23469   7.922   1.040   4.469  0.4138  0.5140  0.0620
  171MOL0     C23470   7.819   1.087   4.363 -0.0117 -0.4018 -0.3114
  171MOL0     C23471   7.702   1.160   4.423  0.1393  0.1079  0.5552
  171MOL0     C23472   7.632   1.269   4.346 -0.2115  0.3067 -0.4421
  171MOL0     C23473   7.541   1.210   4.236  1.2836 -0.2873 -0.4036
  171MOL0     C23474   7.422   1.152   4.309  0.3169 -0.1035 -0.5369
  171MOL0     C23475   7.329   1.079   4.211 -0.8933  0.1039  0.9839
  171MOL0     C23476   7.215   1.000   4.271  0.2606  0.2498 -0.2986
  171MOL0     N23477   7.125   1.086   4.352  0.3035 -0.5475  0.0959
  171MOL0     C23478   7.134   1.126   4.489  0.3550 -0.8843  0.6536
  171MOL0     C23479   7.020   1.196   4.512  0.5409 -0.3652  0.6434
  171MOL0     C23480   6.983   1.249   4.646  0.1782  0.1196 -1.3608
  171MOL0     C23481   6.910   1.378   4.643 -0.0460  0.2609 -0.5482
  171MOL0     C23482   6.995   1.485   4.568 -0.2943  0.0276 -0.3959
  171MOL0     C23483   7.141   1.485   4.597 -0.1512  0.2017 -0.0673
  171MOL0     O23484   7.179   1.458   4.731 -0.5256 -0.4424 -0.1542
  171MOL0     C23485   7.303   1.435   4.777  0.2852  0.3153 -0.5963
  171MOL0     C23486   7.330   1.387   4.902  0.0551 -0.0229 -0.2955
  171MOL0     C23487   7.455   1.380   4.956  0.2531 -0.2266 -0.1198
  171MOL0     C23488   7.474   1.303   5.092  0.6120 -0.4014  0.0581
  171MOL0     C23489   7.565   1.441   4.877 -1.2053  0.2565  0.2326
  171MOL0     C23490   7.712   1.425   4.927  0.6395  0.7467 -0.8607
  171MOL0     O23491   7.725   1.438   5.060 -0.3494 -0.5144 -0.8110
  171MOL0     C23492   7.824   1.381   5.133  0.0405  0.8340 -0.9440
  171MOL0     C23493   7.925   1.293   5.107 -0.0302  0.0032  0.1643
  171MOL0     C23494   8.001   1.235   5.214  0.1550 -0.0909 -0.9938
  171MOL0     C23495   7.975   1.268   5.350  0.1656 -0.7099 -0.3084
  171MOL0     O23496   8.046   1.204   5.456  0.0965 -0.9235 -0.7068
  171MOL0     C23497   8.159   1.117   5.416 -0.7256 -0.3771  0.4183
  171MOL0     C23498   8.248   1.090   5.551 -0.2548 -0.5989  0.0434
  171MOL0     C23499   8.390   1.055   5.516  0.3217 -0.3461  0.0410
  171MOL0     C23500   8.484   1.072   5.641  0.7532  0.9042  0.1640
  171MOL0     C23501   8.636   1.072   5.593 -0.1694 -0.7483 -0.6927
  171MOL0     C23502   8.733   1.072   5.712  0.0107  1.0592  0.0737
  171MOL0     C23503   8.880   1.100   5.672  0.4314 -0.0600  0.8390
  171MOL0     C23504   8.973   1.049   5.786  0.7788 -0.3295  0.6850
  171MOL0    Cl23505   8.957   1.149   5.931  0.1726  0.0123  0.1496
  171MOL0     C23506   7.873   1.372   5.374 -0.2142 -0.1766 -0.0741
  171MOL0     C23507   7.803   1.425   5.269  0.2551  0.4906  0.3323
  171MOL0     O23508   7.798   1.397   4.849  0.2975 -0.4636  0.2584
  171MOL0     C23509   7.538   1.499   4.755 -0.4892 -0.4934 -0.5711
  171MOL0     C23510   7.411   1.492   4.703  0.6395  0.1390  0.1712
  171MOL0     N23511   6.937   1.198   4.400 -0.3094 -0.4350 -0.4941
  171MOL0     N23512   7.001   1.122   4.317  0.5636  0.3938  0.3067
  171MOL0     C23513   8.172   0.998   4.606  0.4387  0.5965  1.0036
  171MOL0     C23514   8.296   0.987   4.662 -0.5359 -0.1870 -0.5504
  171MOL0     C23515   8.543   1.004   5.034  0.5047 -0.7064 -0.0197
  171MOL0     C23516   8.501   0.973   5.165  0.1830 -0.0626 -0.5237
  171MOL0     C23517   8.585   0.894   5.252  0.7912 -0.0165 -0.0466
  171MOL0     C23518   8.718   0.869   5.202 -0.7467  0.3449 -0.4534
  171MOL0     O23519   8.801   0.770   5.270 -0.3736 -0.6409  1.0927
  171MOL0     C23520   8.941   0.766   5.256 -0.2730  0.1532 -0.2733
  171MOL0     C23521   8.994   0.866   5.368 -0.6321  0.4126  0.3600
  171MOL0     C23522   9.156   0.875   5.360 -0.4633  0.1420  0.3557
  171MOL0     C23523   9.224   0.942   5.474  0.6296  0.3913  0.0749
  171MOL0     C23524   9.213   1.093   5.453  0.0079  1.1272 -0.1635
  171MOL0     C23525   9.190   1.210   5.442  0.1068 -0.6567 -0.2194
  171MOL0     C23526   8.770   0.934   5.084 -0.3174  1.2719  0.9134
  171MOL0     C23527   8.680   1.011   5.006 -0.0815 -0.2355 -1.0424
  171MOL0     C23528   8.749   1.065   4.878 -0.4749  0.4009 -0.3824
  171MOL0     H23529   8.350   1.316   4.751 -2.7911  0.3812  1.3555
  171MOL0     H23530   8.127   1.339   4.647  0.3187  0.8808  3.7477
  171MOL0     H23531   7.866   0.985   4.545  0.5414  0.4964  0.1432
  171MOL0     H23532   7.996   0.980   4.415 -0.1108  0.3979 -0.5348
  171MOL0     H23533   7.876   1.154   4.298  0.8404 -0.5880  0.2267
  171MOL0     H23534   7.801   0.993   4.310  0.3208 -1.3391  1.1717
  171MOL0     H23535   7.640   1.090   4.480  1.5177 -0.7572  1.0477
  171MOL0     H23536   7.750   1.213   4.505 -0.2753  3.5258 -1.2417
  171MOL0     H23537   7.584   1.338   4.416 -2.1188  0.3193 -1.6960
  171MOL0     H23538   7.721   1.319   4.305 -1.1447  5.7863  3.1737
  171MOL0     H23539   7.603   1.133   4.189  4.7442 -1.2033  4.8159
  171MOL0     H23540   7.506   1.283   4.163 -0.4218  1.8904  2.3674
  171MOL0     H23541   7.447   1.081   4.388  0.6440  1.5788  0.9411
  171MOL0     H23542   7.367   1.238   4.349  3.6281  2.2383 -0.5251
  171MOL0     H23543   7.391   1.006   4.158 -2.0233  0.5684 -1.0710
  171MOL0     H23544   7.281   1.145   4.139 -1.5552 -0.8674  0.5052
  171MOL0     H23545   7.158   0.944   4.197 -1.3261 -1.1889  1.8884
  171MOL0     H23546   7.249   0.923   4.341 -0.3322  1.9906  2.0203
  171MOL0     H23547   7.219   1.110   4.554  0.0600 -1.3680  0.9180
  171MOL0     H23548   7.071   1.248   4.710 -0.4598 -0.3251 -0.4735
  171MOL0     H23549   6.917   1.172   4.688  0.5687  1.4035  1.8903
  171MOL0     H23550   6.819   1.347   4.590  2.1578 -2.8989 -2.8475
  171MOL0     H23551   6.887   1.413   4.744  2.3791 -1.2694  0.6169
  171MOL0     H23552   6.968   1.494   4.463 -1.0798 -5.3602 -0.9184
  171MOL0     H23553   6.960   1.576   4.618 -4.3674 -1.3106 -0.4378
  171MOL0     H23554   7.191   1.424   4.521 -2.1694  0.3838 -1.6108
  171MOL0     H23555   7.166   1.590   4.580  1.0437  0.4247  2.4788
  171MOL0     H23556   7.250   1.345   4.961  0.7469  1.3781  1.7810
  171MOL0     H23557   7.529   1.359   5.169 -1.8177 -1.4585  2.7496
  171MOL0     H23558   7.517   1.203   5.079 -1.3939 -1.4007  0.6426
  171MOL0     H23559   7.377   1.282   5.138  0.6180  2.3964  1.5058
  171MOL0     H23560   7.940   1.260   5.005 -3.2428  1.8578 -1.0862
  171MOL0     H23561   8.081   1.165   5.195  3.0048  2.1641  1.7592
  171MOL0     H23562   8.122   1.026   5.367  3.6079 -2.8922  1.2862
  171MOL0     H23563   8.221   1.163   5.339  0.1822 -0.2482  1.2078
  171MOL0     H23564   8.243   1.178   5.615  2.8875  2.4886 -3.4130
  171MOL0     H23565   8.212   1.013   5.620 -1.0726  2.0035  2.6842
  171MOL0     H23566   8.427   1.127   5.442 -0.9915  0.4575  0.1333
  171MOL0     H23567   8.389   0.951   5.482  4.2202 -0.6864  0.4506
  171MOL0     H23568   8.478   0.976   5.693 -2.2392  1.8005  1.6893
  171MOL0     H23569   8.452   1.147   5.713  0.5608 -0.1266  1.1793
  171MOL0     H23570   8.670   0.987   5.534  0.4203 -1.9740  1.3360
  171MOL0     H23571   8.651   1.169   5.545 -0.9787  0.0751  0.6306
  171MOL0     H23572   8.708   0.979   5.765 -0.6149 -0.2036 -2.2612
  171MOL0     H23573   8.703   1.153   5.779  0.7656 -0.9380  3.0332
  171MOL0     H23574   8.889   1.206   5.647  0.3515 -0.4566 -1.0229
  171MOL0     H23575   8.909   1.035   5.589 -4.0897 -1.6873  0.2074
  171MOL0     H23576   9.077   1.047   5.754  1.3616  2.3602  2.0570
  171MOL0     H23577   8.944   0.946   5.807 -1.5173  0.4520  1.7147
  171MOL0     H23578   7.851   1.409   5.474 -2.8946 -2.1779  0.1836
  171MOL0     H23579   7.731   1.501   5.297 -1.1571 -0.6751 -0.0146
  171MOL0     H23580   7.612   1.551   4.694  0.3872 -0.9999  0.0310
  171MOL0     H23581   7.392   1.533   4.604 -1.5345  0.6756  0.7508
  171MOL0     H23582   8.112   0.912   4.578  3.0285 -1.5250  1.5971
  171MOL0     H23583   8.334   0.886   4.672 -0.0800 -0.2917 -2.8056
  171MOL0     H23584   8.398   0.990   5.196  0.5118  2.1248 -0.4599
  171MOL0     H23585   8.567   0.853   5.351  2.6074  1.0560  0.7713
  171MOL0     H23586   8.968   0.666   5.289  3.5282  1.5267  1.3416
  171MOL0     H23587   8.985   0.783   5.157  0.8719  0.8785  0.3432
  171MOL0     H23588   8.953   0.838   5.465 -1.3343  0.1521  0.0023
  171MOL0     H23589   8.956   0.966   5.344  2.4765  2.0388  1.6861
  171MOL0     H23590   9.180   0.769   5.358 -3.0348 -0.5438  1.4274
  171MOL0     H23591   9.177   0.932   5.268 -1.6886  1.1792  0.6796
  171MOL0     H23592   9.330   0.916   5.485  0.3967  0.3065  3.0617
  171MOL0     H23593   9.187   0.915   5.574 -0.7573 -0.8995 -0.7362
  171MOL0     H23594   9.183   1.316   5.426  0.9616 -0.5611 -0.0147
  171MOL0     H23595   8.873   0.922   5.053 -0.6520 -1.9556  0.7373
  171MOL0     H23596   8.856   1.040   4.875 -0.3049  1.1935 -2.1682
  171MOL0     H23597   8.694   1.014   4.798 -0.0648 -1.7248  0.6059
  171MOL0     H23598   8.745   1.173   4.862  1.9466  0.6131 -0.0199
  172MOL0     O23599   0.474   1.918   3.864 -0.4810  0.6290 -0.7511
  172MOL0     C23600   0.586   1.957   3.833  0.2003 -0.2257 -0.6888
  172MOL0     O23601   0.624   2.085   3.822 -0.3743  0.0335  0.5487
  172MOL0     C23602   0.584   2.171   3.922  0.0322 -0.2457  0.1341
  172MOL0     C23603   0.497   2.279   3.902 -1.0337 -0.2867  0.3064
  172MOL0     C23604   0.479   2.379   3.998 -0.9372  0.1888 -0.1034
  172MOL0     C23605   0.548   2.362   4.125  0.2973 -0.5514  0.2461
  172MOL0     O23606   0.521   2.451   4.230  0.4934 -0.0468 -0.2883
  172MOL0     C23607   0.406   2.543   4.238 -0.7163 -0.8017 -0.4516
  172MOL0     C23608   0.354   2.548   4.382 -0.5532  0.2453 -0.5288
  172MOL0     C23609   0.202   2.573   4.397  0.2308 -0.2072 -0.5860
  172MOL0     C23610   0.169   2.562   4.556 -0.2213 -0.6195 -0.3967
  172MOL0     C23611   0.032   2.599   4.599  0.2935  0.1367  0.1188
  172MOL0     C23612   0.014   2.616   4.751  0.4611  0.7276  1.0402
  172MOL0     C23613  -0.132   2.644   4.774 -0.7113 -0.6252  1.0206
  172MOL0     C23614  -0.180   2.602   4.921  0.3172  0.2992 -0.8585
  172MOL0     N23615  -0.105   2.677   5.028 -0.7241  0.3185  0.3173
  172MOL0     C23616  -0.028   2.616   5.126  0.1495 -0.4763  0.1384
  172MOL0     C23617   0.041   2.714   5.187  0.2906  0.3603 -1.4060
  172MOL0     C23618   0.139   2.696   5.296 -0.5910  0.6469  0.5985
  172MOL0     C23619   0.235   2.810   5.323  0.5279 -0.3308 -0.4181
  172MOL0     C23620   0.318   2.861   5.208  0.1088 -0.0862  0.3395
  172MOL0     C23621   0.406   2.980   5.247  0.7295  0.9383 -1.1030
  172MOL0     O23622   0.530   2.943   5.316 -0.4111  0.1879  0.1109
  172MOL0     C23623   0.547   2.961   5.449  0.4622  1.1212 -0.8254
  172MOL0     C23624   0.680   2.947   5.488  0.2819 -0.2099 -0.3666
  172MOL0     C23625   0.723   2.965   5.624 -0.6988  0.7722  0.0448
  172MOL0     C23626   0.869   2.938   5.669  0.1658 -0.2085 -0.5055
  172MOL0     C23627   0.629   2.999   5.717  0.5280 -0.4227  0.0594
  172MOL0     C23628   0.656   3.054   5.849 -0.5535  0.4800 -1.0949
  172MOL0     O23629   0.770   3.107   5.877 -0.5162 -0.4886 -0.7156
  172MOL0     C23630   0.781   3.160   6.008  0.6158 -0.1649  0.2073
  172MOL0     C23631   0.712   3.275   6.060  0.3161 -0.6037 -0.3965
  172MOL0     C23632   0.710   3.311   6.196  1.0884 -1.2730  0.5256
  172MOL0     C23633   0.791   3.251   6.286 -0.4663  0.3589  0.0018
  172MOL0     O23634   0.800   3.308   6.406 -0.0702 -0.6459 -0.7943
  172MOL0     C23635   0.917   3.294   6.490 -0.3581 -0.2205  0.5716
  172MOL0     C23636   0.873   3.230   6.620 -0.9954  0.7126 -0.3940
  172MOL0     C23637   0.819   3.074   6.599 -0.4330 -0.5416  0.2825
  172MOL0     C23638   0.832   2.997   6.722  0.0981  0.5133  0.7077
  172MOL0     C23639   0.768   2.852   6.716 -0.6266  0.6809  0.0075
  172MOL0     C23640   0.783   2.787   6.852 -0.0614  1.0540  0.0533
  172MOL0     C23641   0.922   2.744   6.884  0.1948 -0.4064  0.1275
  172MOL0     C23642   0.933   2.600   6.915 -0.8224  1.3587  0.3106
  172MOL0    Cl23643   0.927   2.591   7.092  0.4085 -0.5822 -0.2124
  172MOL0     C23644   0.865   3.134   6.237  0.6541 -0.5161  0.3643
  172MOL0     C23645   0.861   3.087   6.103  0.2383 -0.6757 -0.0779
  172MOL0     O23646   0.566   3.032   5.937 -0.4929 -0.4594  0.7732
  172MOL0     C23647   0.491   3.001   5.678 -0.1896 -0.4016 -0.2923
  172MOL0     C23648   0.452   2.987   5.547 -0.5695 -0.1122  0.4940
  172MOL0     N23649  -0.005   2.835   5.136 -0.0558 -0.6131  0.2674
  172MOL0     N23650  -0.091   2.811   5.042 -0.2635  1.2222  1.1442
  172MOL0     C23651   0.624   2.245   4.147 -1.1535 -0.9788 -0.3558
  172MOL0     C23652   0.649   2.154   4.044  0.3319  0.4803 -0.6257
  172MOL0     C23653   0.692   1.854   3.810  0.5505  0.6623 -0.0757
  172MOL0     C23654   0.654   1.728   3.854 -0.3623 -0.3786  1.0170
  172MOL0     C23655   0.734   1.615   3.832  0.0460  0.1537  1.0406
  172MOL0     C23656   0.860   1.619   3.779 -0.3987  0.1071  0.3288
  172MOL0     O23657   0.921   1.498   3.758  0.4120 -0.4287 -0.3685
  172MOL0     C23658   1.061   1.502   3.707  0.4824 -0.4860 -0.6987
  172MOL0     C23659   1.109   1.353   3.718  0.3256  0.4008  0.0278
  172MOL0     C23660   1.142   1.323   3.860 -0.7954  0.7901  0.3957
  172MOL0     C23661   1.193   1.172   3.885 -0.1890 -0.3832 -0.0226
  172MOL0     C23662   1.082   1.082   3.851  0.4063  1.3734 -1.0878
  172MOL0     C23663   0.996   1.000   3.828  0.3630  0.9637 -0.7376
  172MOL0     C23664   0.909   1.748   3.753 -0.6134 -0.0655  0.2714
  172MOL0     C23665   0.834   1.865   3.773 -0.1242  1.1646  0.8763
  172MOL0     C23666   0.896   2.001   3.764 -0.1156 -0.3754  1.4809
  172MOL0     H23667   0.441   2.278   3.809  0.9149 -3.3469 -0.9748
  172MOL0     H23668   0.401   2.452   3.982 -2.0596 -0.4034  2.1975
  172MOL0     H23669   0.319   2.510   4.182 -0.5521  1.2244 -2.0325
  172MOL0     H23670   0.435   2.642   4.201  0.4037 -1.4863 -1.5157
  172MOL0     H23671   0.369   2.455   4.438  2.9385  0.8697 -0.2230
  172MOL0     H23672   0.415   2.623   4.432  2.3324 -1.6932 -0.9383
  172MOL0     H23673   0.174   2.666   4.348 -2.3728 -0.1951  0.7390
  172MOL0     H23674   0.133   2.502   4.352  1.5124 -0.1456 -2.7795
  172MOL0     H23675   0.179   2.456   4.578 -0.8234 -0.6456 -0.2217
  172MOL0     H23676   0.243   2.626   4.606  0.4656 -0.6359 -1.3655
  172MOL0     H23677  -0.033   2.518   4.565  1.4110 -2.4922  3.6000
  172MOL0     H23678   0.010   2.698   4.557  0.0834 -0.8548 -2.2427
  172MOL0     H23679   0.057   2.525   4.794  0.0527 -1.4810 -2.7782
  172MOL0     H23680   0.070   2.706   4.779  3.8877 -0.3740 -1.5236
  172MOL0     H23681  -0.199   2.606   4.696 -0.9890 -0.0850  0.9961
  172MOL0     H23682  -0.141   2.751   4.755 -1.1856 -0.5332  1.7294
  172MOL0     H23683  -0.285   2.624   4.940  0.5802 -0.8770  2.6355
  172MOL0     H23684  -0.168   2.494   4.935  1.4512  0.7315  2.1918
  172MOL0     H23685  -0.031   2.510   5.150 -3.3831 -0.6797 -0.6982
  172MOL0     H23686   0.190   2.600   5.278 -2.2194 -0.2204  0.4113
  172MOL0     H23687   0.086   2.680   5.390 -1.6167  2.3237  0.3434
  172MOL0     H23688   0.169   2.893   5.350 -0.6911 -0.3404 -3.0162
  172MOL0     H23689   0.304   2.790   5.405 -2.6360  1.8709  3.0799
  172MOL0     H23690   0.379   2.781   5.167  0.7674  0.3743  0.4064
  172MOL0     H23691   0.256   2.887   5.122 -1.9742  1.4434  2.1898
  172MOL0     H23692   0.426   3.037   5.156 -1.4325  0.2266 -2.1084
  172MOL0     H23693   0.349   3.041   5.317 -0.9642  0.3482 -1.8971
  172MOL0     H23694   0.746   2.906   5.412 -3.4207 -0.9362 -3.5221
  172MOL0     H23695   0.865   2.878   5.760 -1.6893 -0.6501 -0.8223
  172MOL0     H23696   0.925   3.030   5.683  4.6069 -2.8355  1.0758
  172MOL0     H23697   0.925   2.873   5.600 -1.0098 -1.9522  0.1032
  172MOL0     H23698   0.657   3.338   5.991  0.6713  0.2836  0.1101
  172MOL0     H23699   0.659   3.396   6.240  2.7200 -1.1395  2.2781
  172MOL0     H23700   0.994   3.236   6.438  0.8540  1.9222 -0.1346
  172MOL0     H23701   0.948   3.396   6.510  1.3597  0.1678 -3.1701
  172MOL0     H23702   0.953   3.233   6.695 -0.3735  0.8841 -1.0591
  172MOL0     H23703   0.793   3.294   6.659 -0.5108  1.9372 -1.3344
  172MOL0     H23704   0.877   3.038   6.514 -3.1221  2.7410 -3.3011
  172MOL0     H23705   0.715   3.085   6.566  0.2005  0.9100 -1.3466
  172MOL0     H23706   0.763   3.044   6.793 -2.1415  0.5667 -1.3742
  172MOL0     H23707   0.935   2.994   6.761  0.5645 -1.1216 -0.5540
  172MOL0     H23708   0.662   2.865   6.692 -0.4546  1.7382 -0.2445
  172MOL0     H23709   0.813   2.791   6.638 -3.1476  0.8160 -1.6954
  172MOL0     H23710   0.720   2.697   6.851 -0.4766  1.3282 -1.6481
  172MOL0     H23711   0.760   2.863   6.926 -1.5291  1.0452 -0.3609
  172MOL0     H23712   0.975   2.802   6.961  1.0614  1.5183 -1.8034
  172MOL0     H23713   0.975   2.747   6.788  0.4315 -0.5996  0.2496
  172MOL0     H23714   1.029   2.558   6.883 -1.3153  0.2499  0.2424
  172MOL0     H23715   0.859   2.537   6.865 -0.7647  0.5765  1.1884
  172MOL0     H23716   0.926   3.080   6.308  0.6491  1.6348  2.1113
  172MOL0     H23717   0.908   2.994   6.074  0.6725 -0.7615  0.8682
  172MOL0     H23718   0.403   3.019   5.739 -0.5719 -1.2612 -0.5777
  172MOL0     H23719   0.352   3.013   5.514 -0.5772  5.2390  3.6131
  172MOL0     H23720   0.675   2.234   4.242  0.0198  3.9098 -0.1429
  172MOL0     H23721   0.717   2.072   4.063 -3.4203 -2.7726  0.0820
  172MOL0     H23722   0.554   1.704   3.887  0.2411 -3.7188  0.7792
  172MOL0     H23723   0.703   1.512   3.843 -0.6510  0.2757  0.3068
  172MOL0     H23724   1.069   1.552   3.610  0.2883  1.8424  0.3959
  172MOL0     H23725   1.119   1.565   3.776 -3.1989  0.5545  1.7355
  172MOL0     H23726   1.200   1.351   3.658  0.2123 -0.0248 -0.1365
  172MOL0     H23727   1.037   1.284   3.672 -0.3556  1.7215 -0.9516
  172MOL0     H23728   1.220   1.386   3.903 -0.9831  0.9290  0.5313
  172MOL0     H23729   1.049   1.323   3.918 -0.7072 -2.0886  0.6912
  172MOL0     H23730   1.230   1.169   3.988 -0.7975 -2.3278  0.1757
  172MOL0     H23731   1.285   1.146   3.831 -2.0889  0.4362 -4.0574
  172MOL0     H23732   0.933   0.923   3.790  0.7438  0.0194  0.4727
  172MOL0     H23733   1.015   1.759   3.734 -0.5863 -0.0690  0.4170
  172MOL0     H23734   0.880   2.054   3.859  0.9947 -2.9013  3.1646
  172MOL0     H23735   1.003   1.991   3.749 -0.3743 -0.8326 -0.3256
  172MOL0     H23736   0.840   2.049   3.682  1.4712 -2.4792 -0.9654
  173MOL0     O23737   5.809   2.451   9.458  0.2485  0.5309 -0.1725
  173MOL0     C23738   5.893   2.537   9.423  1.0094  0.2464  0.8112
  173MOL0     O23739   5.898   2.670   9.471  0.0261 -0.1064 -0.8233
  173MOL0     C23740   5.895   2.703   9.609 -0.5464 -0.5184  0.5344
  173MOL0     C23741   5.824   2.626   9.702  0.4496 -0.1392  1.1225
  173MOL0     C23742   5.831   2.672   9.833  0.8118 -0.4368  0.6333
  173MOL0     C23743   5.883   2.792   9.881  0.3212  0.7024 -0.0188
  173MOL0     O23744   5.880   2.837  10.010 -0.4339  1.0021  0.4201
  173MOL0     C23745   5.829   2.751  10.111 -0.2389  0.4419 -0.9119
  173MOL0     C23746   5.854   2.821  10.249 -0.1283 -0.2642  0.0481
  173MOL0     C23747   5.850   2.974  10.249 -0.1839 -0.8444  0.0879
  173MOL0     C23748   5.823   3.029  10.394  0.7626  0.3783 -0.6960
  173MOL0     C23749   5.758   3.161  10.396 -0.2197 -0.1909  0.6178
  173MOL0     C23750   5.865   3.272  10.400 -0.0639  0.4696  0.5362
  173MOL0     C23751   5.827   3.412  10.380  0.0801  0.7702  0.1783
  173MOL0     C23752   5.796   3.483  10.509  0.4339 -0.3808  0.8368
  173MOL0     N23753   5.881   3.464  10.626  0.1565 -0.1835  0.1500
  173MOL0     C23754   6.018   3.487  10.641  0.3840 -0.5777 -0.4978
  173MOL0     C23755   6.054   3.455  10.766  0.7908  0.7493 -0.5907
  173MOL0     C23756   6.190   3.465  10.828 -0.9616 -0.4935 -0.0707
  173MOL0     C23757   6.255   3.606  10.809  0.1004  0.3744 -0.7531
  173MOL0     C23758   6.167   3.718  10.868  0.7797 -0.2347 -0.0045
  173MOL0     C23759   6.218   3.862  10.846  0.3105  0.2650  0.3708
  173MOL0     O23760   6.348   3.877  10.909  0.4037 -0.3320  0.0732
  173MOL0     C23761   6.367   3.906  11.041 -0.3099  0.0853 -0.2703
  173MOL0     C23762   6.490   3.871  11.098  0.8228 -0.8193  0.1782
  173MOL0     C23763   6.513   3.890  11.234  0.8223  0.0859 -0.1143
  173MOL0     C23764   6.658   3.836  11.262  0.0571 -0.7647  0.6198
  173MOL0     C23765   6.410   3.938  11.320 -0.7888  0.1862  0.0260
  173MOL0     C23766   6.431   3.938  11.471 -0.6207  1.1484  1.3846
  173MOL0     O23767   6.361   4.025  11.553  0.2284 -0.4948  0.5774
  173MOL0     C23768   6.403   4.027  11.687 -0.1019  0.8229  0.0986
  173MOL0     C23769   6.355   3.933  11.782 -0.0558 -0.8101 -1.0800
  173MOL0     C23770   6.404   3.923  11.913  0.2088 -0.7581  0.0697
  173MOL0     C23771   6.503   4.022  11.956  0.7139 -0.7101 -0.0635
  173MOL0     O23772   6.542   4.026  12.092 -0.1337  0.5093  0.0149
  173MOL0     C23773   6.617   4.137  12.138  0.4558  0.4821  0.6154
  173MOL0     C23774   6.625   4.135  12.291 -0.5619  0.2013 -0.0339
  173MOL0     C23775   6.676   3.998  12.342  0.5909  0.5016  0.6277
  173MOL0     C23776   6.733   3.981  12.486  0.2448 -0.4733 -0.2103
  173MOL0     C23777   6.631   3.984  12.595 -0.8093 -0.0067  0.3777
  173MOL0     C23778   6.688   3.940  12.741 -0.1230 -0.2322 -0.0416
  173MOL0     C23779   6.708   3.794  12.761  0.2602 -1.1183  0.5081
  173MOL0     C23780   6.723   3.749  12.900  0.1526 -0.4216  0.1028
  173MOL0    Cl23781   6.884   3.794  12.962 -0.2164  0.3351 -0.8036
  173MOL0     C23782   6.531   4.128  11.865  1.0232 -0.0562  0.2599
  173MOL0     C23783   6.481   4.128  11.730 -0.1542 -0.5058 -0.1935
  173MOL0     O23784   6.510   3.855  11.512 -0.0210  0.3208  0.7135
  173MOL0     C23785   6.294   3.978  11.251  0.6118  1.3217  0.4182
  173MOL0     C23786   6.267   3.957  11.122  1.8048  0.6845  0.0428
  173MOL0     N23787   5.934   3.411  10.831 -0.2435 -0.4246  0.0281
  173MOL0     N23788   5.832   3.415  10.748 -1.0794 -0.2849  0.6180
  173MOL0     C23789   5.949   2.867   9.788  0.4069 -0.3026 -0.2581
  173MOL0     C23790   5.963   2.824   9.656 -1.3586  0.6113 -0.0556
  173MOL0     C23791   5.973   2.519   9.300  0.8105  0.2279 -0.6255
  173MOL0     C23792   5.993   2.625   9.215 -0.2519  0.2720  0.2997
  173MOL0     C23793   6.078   2.618   9.106  0.5769 -0.5345 -0.4511
  173MOL0     C23794   6.136   2.498   9.083 -0.7243 -0.6189 -0.0747
  173MOL0     O23795   6.220   2.485   8.978 -0.2099 -1.0383  0.5373
  173MOL0     C23796   6.327   2.577   8.973  0.7900  0.3969 -0.6703
  173MOL0     C23797   6.434   2.569   9.081  0.2006 -0.1548  0.8042
  173MOL0     C23798   6.526   2.450   9.056  0.4265 -0.4457  0.8533
  173MOL0     C23799   6.646   2.449   9.152  0.0236 -0.7609 -0.6467
  173MOL0     C23800   6.741   2.560   9.126 -0.0699 -0.3417 -0.5115
  173MOL0     C23801   6.823   2.652   9.096 -0.0418  0.6256  0.9147
  173MOL0     C23802   6.122   2.395   9.167  0.3617  0.5087 -0.2235
  173MOL0     C23803   6.036   2.396   9.276 -0.5681  0.9651 -1.1923
  173MOL0     C23804   6.015   2.269   9.359 -0.6673  0.8600  0.5485
  173MOL0     H23805   5.785   2.527   9.680  1.0146 -0.0569 -0.4108
  173MOL0     H23806   5.777   2.615   9.909  1.3587  1.1286  2.2735
  173MOL0     H23807   5.884   2.657  10.100  1.4486  1.3065 -0.1452
  173MOL0     H23808   5.721   2.741  10.097 -0.4443  2.4565 -1.0712
  173MOL0     H23809   5.784   2.772  10.318 -1.1394 -0.0937 -0.8453
  173MOL0     H23810   5.955   2.787  10.276  0.2948  1.7827  1.2513
  173MOL0     H23811   5.947   3.016  10.219  0.9306 -1.6227  2.3509
  173MOL0     H23812   5.770   2.990  10.177 -1.2621 -0.5968  1.3114
  173MOL0     H23813   5.769   2.950  10.447  2.6441 -2.3215 -2.5282
  173MOL0     H23814   5.913   3.031  10.456  2.6506  0.6457 -3.2798
  173MOL0     H23815   5.691   3.172  10.482  1.2957  1.4870  1.6475
  173MOL0     H23816   5.691   3.163  10.309  0.4328 -1.6558  0.0494
  173MOL0     H23817   5.920   3.270  10.495  0.7251 -0.2779  0.0763
  173MOL0     H23818   5.947   3.263  10.329  2.8569  2.0995  3.4084
  173MOL0     H23819   5.741   3.426  10.314 -0.6380 -3.2855  0.0014
  173MOL0     H23820   5.920   3.458  10.346  1.1586 -0.9341  0.7205
  173MOL0     H23821   5.795   3.588  10.476 -0.5479 -1.4367 -3.0795
  173MOL0     H23822   5.694   3.462  10.542  0.5389 -3.1380 -0.3945
  173MOL0     H23823   6.084   3.530  10.566  1.5543 -2.9540 -0.9280
  173MOL0     H23824   6.257   3.388  10.787 -1.2604  0.8738 -3.4534
  173MOL0     H23825   6.178   3.440  10.933  1.0793 -0.9007  0.1015
  173MOL0     H23826   6.348   3.612  10.866  0.3238  4.4874 -1.2713
  173MOL0     H23827   6.274   3.629  10.703  0.0560 -0.4251 -0.9387
  173MOL0     H23828   6.063   3.701  10.837 -0.2126  2.3399  1.5674
  173MOL0     H23829   6.167   3.715  10.977  1.3341 -1.4716 -0.0179
  173MOL0     H23830   6.227   3.881  10.738 -1.0821  1.5415  0.4554
  173MOL0     H23831   6.150   3.939  10.882 -1.1612  0.6080 -2.8166
  173MOL0     H23832   6.564   3.826  11.033 -0.4355  0.3762 -2.2105
  173MOL0     H23833   6.708   3.886  11.346  6.0756 -1.5498 -1.9556
  173MOL0     H23834   6.726   3.848  11.177  1.8410  0.3957  2.1243
  173MOL0     H23835   6.658   3.728  11.278 -0.2013 -1.0306 -1.0061
  173MOL0     H23836   6.276   3.863  11.756 -0.1287 -1.1116 -0.0860
  173MOL0     H23837   6.349   3.864  11.985 -1.6784 -0.0652 -0.7299
  173MOL0     H23838   6.718   4.124  12.098  0.2061 -0.8619  0.3385
  173MOL0     H23839   6.581   4.237  12.113 -1.3611 -0.0865  0.8007
  173MOL0     H23840   6.694   4.217  12.315  0.1211 -0.3718 -0.0031
  173MOL0     H23841   6.531   4.151  12.344  0.7032  2.9240  1.6306
  173MOL0     H23842   6.757   3.958  12.281  2.5863  0.3319  3.1949
  173MOL0     H23843   6.591   3.930  12.326 -2.8355  4.3217  0.8670
  173MOL0     H23844   6.800   4.067  12.497  0.4746 -0.3300 -2.3025
  173MOL0     H23845   6.777   3.881  12.485  0.3153 -0.4475  0.1552
  173MOL0     H23846   6.579   4.079  12.606 -0.2889  0.1497  1.7357
  173MOL0     H23847   6.550   3.917  12.562  1.5771 -2.2187 -1.4566
  173MOL0     H23848   6.614   3.981  12.810 -2.4687 -0.6720 -2.1689
  173MOL0     H23849   6.787   3.985  12.751 -0.5055  0.6128  0.0167
  173MOL0     H23850   6.785   3.759  12.691 -0.0471  0.9465 -0.9490
  173MOL0     H23851   6.618   3.753  12.712 -0.8188  0.2859  1.2316
  173MOL0     H23852   6.710   3.641  12.908  0.4874 -0.3361  2.3829
  173MOL0     H23853   6.648   3.800  12.960  0.7255  2.1280 -1.1730
  173MOL0     H23854   6.597   4.206  11.903  1.4804 -0.1233 -0.3867
  173MOL0     H23855   6.497   4.220  11.675 -3.6944  0.1485 -0.3423
  173MOL0     H23856   6.213   4.019  11.311  0.0017  0.3807  0.2580
  173MOL0     H23857   6.170   3.976  11.078  0.8433 -0.0651  1.7377
  173MOL0     H23858   6.004   2.958   9.810  1.2312 -1.0613  0.9460
  173MOL0     H23859   6.021   2.882   9.585  0.7336 -0.2680  0.8438
  173MOL0     H23860   5.945   2.723   9.218 -0.2124  0.4181 -2.0004
  173MOL0     H23861   6.094   2.702   9.039 -0.5597  1.8741  2.1316
  173MOL0     H23862   6.371   2.557   8.875  0.1005 -2.4532 -0.5080
  173MOL0     H23863   6.291   2.679   8.956  3.8440  2.1647  2.3864
  173MOL0     H23864   6.383   2.584   9.176 -1.5120 -1.0336  0.0730
  173MOL0     H23865   6.500   2.656   9.075  0.6736 -0.4198  1.9706
  173MOL0     H23866   6.483   2.349   9.061  1.0557 -0.8904 -1.4557
  173MOL0     H23867   6.571   2.452   8.957  1.4930  0.0973  1.3346
  173MOL0     H23868   6.690   2.349   9.150 -0.8111 -1.2463  2.0099
  173MOL0     H23869   6.614   2.464   9.255 -3.7987 -2.4342 -1.4145
  173MOL0     H23870   6.898   2.711   9.047  0.5858  0.0141  1.1192
  173MOL0     H23871   6.164   2.304   9.124 -0.8537  0.6500 -1.8369
  173MOL0     H23872   6.071   2.180   9.329 -2.5671 -0.9170  1.9736
  173MOL0     H23873   6.043   2.279   9.464  0.9350 -1.5417  0.4177
  173MOL0     H23874   5.912   2.238   9.339  0.5013 -2.9922 -0.4382
  174MOL0     O23875   3.316   9.726   5.118  0.1532  0.8972  0.5369
  174MOL0     C23876   3.323   9.690   5.234  0.1881 -0.2089 -0.0405
  174MOL0     O23877   3.435   9.660   5.304 -0.6221  0.8105 -0.3225
  174MOL0     C23878   3.541   9.630   5.213 -0.1424  0.4913 -0.4887
  174MOL0     C23879   3.644   9.731   5.205  0.1956  0.1093 -0.3469
  174MOL0     C23880   3.754   9.701   5.123 -0.2824  0.2367  0.1448
  174MOL0     C23881   3.758   9.590   5.046 -1.1507  0.0278 -0.2863
  174MOL0     O23882   3.862   9.584   4.950  0.0563 -0.3954 -0.4859
  174MOL0     C23883   3.907   9.446   4.939  0.1709 -0.1395  0.9649
  174MOL0     C23884   3.977   9.399   5.065 -0.0120  0.9899  0.5806
  174MOL0     C23885   4.014   9.256   5.043  0.9302  0.4695 -0.1556
  174MOL0     C23886   3.914   9.153   5.121  0.2304 -0.3610  0.8133
  174MOL0     C23887   3.799   9.105   5.023  0.6578 -0.0548  0.4722
  174MOL0     C23888   3.716   8.985   5.076 -0.0131  0.0951  1.3170
  174MOL0     C23889   3.612   8.935   4.982  0.2008 -0.6448  0.0523
  174MOL0     C23890   3.485   9.030   4.983 -0.3614  0.3381 -0.6017
  174MOL0     N23891   3.423   9.082   5.108  0.2756  0.2402  0.0201
  174MOL0     C23892   3.377   9.009   5.213 -0.1278 -1.0432 -0.7938
  174MOL0     C23893   3.333   9.109   5.292 -0.2594 -0.1964  0.2672
  174MOL0     C23894   3.269   9.065   5.407 -0.1020  0.2772 -0.5870
  174MOL0     C23895   3.361   8.986   5.499  0.6430  0.2686 -0.6705
  174MOL0     C23896   3.286   8.933   5.621 -0.6426  0.6620 -0.5262
  174MOL0     C23897   3.391   8.886   5.728  0.2662  0.4635  0.4294
  174MOL0     O23898   3.330   8.822   5.839 -0.6593 -0.5661  0.0517
  174MOL0     C23899   3.275   8.902   5.934 -1.1039  0.0483 -0.5728
  174MOL0     C23900   3.173   8.854   6.004 -0.5933 -0.6923  0.1877
  174MOL0     C23901   3.105   8.932   6.095  0.5088 -1.0738 -0.2667
  174MOL0     C23902   2.987   8.872   6.159  0.7476 -0.1257 -0.0340
  174MOL0     C23903   3.147   9.063   6.126  0.2379 -1.1946 -0.3856
  174MOL0     C23904   3.099   9.137   6.250 -0.2097 -0.4650 -0.3787
  174MOL0     O23905   3.083   9.072   6.364 -0.0507  0.6203  0.0064
  174MOL0     C23906   3.037   9.129   6.477 -0.0457  0.3886  1.2609
  174MOL0     C23907   2.901   9.140   6.493  0.6639  0.4136  0.3827
  174MOL0     C23908   2.851   9.205   6.602  0.0796 -1.1598 -0.2831
  174MOL0     C23909   2.934   9.267   6.706 -0.1400  0.2273 -0.3436
  174MOL0     O23910   2.877   9.342   6.810 -0.1103 -0.0439  0.0047
  174MOL0     C23911   2.955   9.423   6.893  0.7318 -0.1763  0.6409
  174MOL0     C23912   2.855   9.488   6.982  0.2978  0.3115 -0.8778
  174MOL0     C23913   2.915   9.557   7.102 -0.2430 -1.4267  0.2683
  174MOL0     C23914   2.936   9.472   7.222  0.2086  0.5096 -0.3802
  174MOL0     C23915   2.973   9.555   7.347 -0.8882 -0.3952 -0.0627
  174MOL0     C23916   3.031   9.483   7.464 -0.5260 -0.8765 -0.0581
  174MOL0     C23917   3.084   9.578   7.571 -0.0071 -0.0971  0.2059
  174MOL0     C23918   2.973   9.631   7.662  0.0247 -0.3111  0.4856
  174MOL0    Cl23919   3.042   9.701   7.810 -0.7711  0.3377  0.1780
  174MOL0     C23920   3.068   9.259   6.683 -0.6350  0.2582  0.0311
  174MOL0     C23921   3.122   9.186   6.569  0.6383 -0.8604  0.6601
  174MOL0     O23922   3.095   9.256   6.237 -0.3543  0.3647  0.1229
  174MOL0     C23923   3.262   9.116   6.055  0.2051  0.1178  0.0605
  174MOL0     C23924   3.317   9.035   5.961 -0.1607 -0.2090 -0.2197
  174MOL0     N23925   3.356   9.234   5.243 -0.1821  0.0975 -0.0427
  174MOL0     N23926   3.408   9.212   5.130  0.6026  0.3978 -0.1179
  174MOL0     C23927   3.658   9.492   5.058 -1.3534 -0.1115 -0.4469
  174MOL0     C23928   3.545   9.513   5.128 -0.0972 -0.4797  0.2277
  174MOL0     C23929   3.207   9.703   5.315 -0.1812 -0.1761  0.3481
  174MOL0     C23930   3.142   9.823   5.309  0.4537 -0.5603 -0.6444
  174MOL0     C23931   3.043   9.862   5.403  0.3186 -0.5110  0.0862
  174MOL0     C23932   2.987   9.778   5.492  0.1989 -0.6954  1.8381
  174MOL0     O23933   2.896   9.826   5.586  0.8569 -0.4434 -0.4187
  174MOL0     C23934   2.883   9.758   5.712 -0.2061  0.5017 -0.1403
  174MOL0     C23935   2.814   9.838   5.819  0.2577 -0.1808 -1.2483
  174MOL0     C23936   2.907   9.966   5.871  0.2718 -1.5358 -0.4888
  174MOL0     C23937   2.878  10.026   6.010 -0.4554  0.4520 -0.1502
  174MOL0     C23938   2.973  10.126   6.057  0.0587  0.7266 -0.5514
  174MOL0     C23939   3.058  10.202   6.093  0.4597 -0.5353  1.1965
  174MOL0     C23940   3.053   9.655   5.501 -0.2098 -0.8384  0.2154
  174MOL0     C23941   3.165   9.612   5.418 -0.5170 -0.1495 -0.3513
  174MOL0     C23942   3.229   9.477   5.426 -0.3247 -0.2644  0.2469
  174MOL0     H23943   3.632   9.816   5.271  0.2574 -0.8330  0.9331
  174MOL0     H23944   3.833   9.774   5.109 -0.3836  0.0536 -1.6039
  174MOL0     H23945   3.989   9.442   4.866 -0.4862  1.4117  0.0924
  174MOL0     H23946   3.831   9.383   4.891 -2.6384  4.7940 -1.9156
  174MOL0     H23947   4.069   9.457   5.071  2.2296 -2.4450  1.6932
  174MOL0     H23948   3.908   9.409   5.150 -0.2901  2.8709  0.1871
  174MOL0     H23949   4.013   9.236   4.936  0.8233  0.3155 -0.1260
  174MOL0     H23950   4.114   9.233   5.082  1.1763  3.8548  1.5156
  174MOL0     H23951   3.965   9.057   5.138  2.2905  0.3885 -0.7756
  174MOL0     H23952   3.873   9.194   5.214 -1.0162 -0.8215  0.4811
  174MOL0     H23953   3.832   9.073   4.924 -0.6210  1.8296 -0.6305
  174MOL0     H23954   3.736   9.193   5.008  0.0514 -0.6645 -0.6456
  174MOL0     H23955   3.785   8.902   5.095 -0.4529 -0.4930  0.4279
  174MOL0     H23956   3.658   9.016   5.163  0.6401  0.8355  1.5001
  174MOL0     H23957   3.577   8.835   5.008 -1.8439 -0.3551 -1.3927
  174MOL0     H23958   3.648   8.928   4.879 -0.2550  2.3869 -0.3930
  174MOL0     H23959   3.505   9.116   4.917 -3.1537  0.7322 -1.0439
  174MOL0     H23960   3.417   8.968   4.925  1.8702 -0.1373 -2.9382
  174MOL0     H23961   3.394   8.902   5.226  1.9110 -0.7937 -1.0650
  174MOL0     H23962   3.174   9.014   5.389  0.4397 -1.7971  1.8181
  174MOL0     H23963   3.239   9.156   5.459 -1.2920  1.4699 -3.1692
  174MOL0     H23964   3.399   8.894   5.454  2.3229 -0.6217  2.2832
  174MOL0     H23965   3.454   9.039   5.525  2.9230 -3.1617 -1.2001
  174MOL0     H23966   3.210   9.001   5.661 -0.9375 -0.4482  0.8933
  174MOL0     H23967   3.249   8.838   5.583  4.7835 -2.9609  1.9925
  174MOL0     H23968   3.455   8.824   5.664 -0.8368  0.1639 -0.4081
  174MOL0     H23969   3.459   8.956   5.778  1.3074 -0.9848  1.1358
  174MOL0     H23970   3.139   8.751   5.996  0.1282 -0.8215 -1.7410
  174MOL0     H23971   2.902   8.939   6.176 -1.2280 -2.2449 -1.0618
  174MOL0     H23972   2.999   8.825   6.257 -2.7581 -2.1850 -0.4488
  174MOL0     H23973   2.944   8.792   6.098 -0.1822 -1.1786  1.9352
  174MOL0     H23974   2.833   9.096   6.422 -2.0427  1.4277  2.2037
  174MOL0     H23975   2.742   9.212   6.606  0.0087 -1.3833 -1.5069
  174MOL0     H23976   3.016   9.363   6.961 -2.0100 -1.4981  2.0984
  174MOL0     H23977   3.018   9.497   6.843  0.6315 -1.3690 -1.3485
  174MOL0     H23978   2.802   9.563   6.923 -2.2076  1.3708  2.4145
  174MOL0     H23979   2.776   9.420   7.016 -0.8772  1.7726 -0.5985
  174MOL0     H23980   2.850   9.641   7.126 -0.6435 -2.3128  2.5602
  174MOL0     H23981   3.013   9.602   7.085 -1.6290  0.9517 -2.3589
  174MOL0     H23982   3.017   9.407   7.190  1.7058  0.7609  2.5524
  174MOL0     H23983   2.854   9.407   7.255  0.5203  0.5061  0.4098
  174MOL0     H23984   3.046   9.634   7.330 -0.7958 -0.5068 -0.1884
  174MOL0     H23985   2.883   9.610   7.377 -0.8361 -0.4942  0.2786
  174MOL0     H23986   3.117   9.422   7.434 -1.7386 -1.6951 -2.1325
  174MOL0     H23987   2.950   9.417   7.496 -1.1824 -0.3896 -0.6787
  174MOL0     H23988   3.124   9.667   7.520 -0.8532 -0.2764 -0.8002
  174MOL0     H23989   3.158   9.530   7.636 -0.1126 -2.8736 -1.5528
  174MOL0     H23990   2.892   9.561   7.688 -4.2623  3.4990 -1.2240
  174MOL0     H23991   2.919   9.712   7.612  1.2595  1.3992  1.8313
  174MOL0     H23992   3.139   9.305   6.751 -0.7312  2.4356 -1.2636
  174MOL0     H23993   3.230   9.180   6.566  0.9042  1.8630  1.7905
  174MOL0     H23994   3.310   9.208   6.089 -3.3272  2.0874  0.2114
  174MOL0     H23995   3.407   9.081   5.920  1.1214 -2.1751  0.2365
  174MOL0     H23996   3.663   9.400   5.001 -1.3774 -0.6175  0.3500
  174MOL0     H23997   3.458   9.448   5.134 -2.2300  2.1798  0.1553
  174MOL0     H23998   3.181   9.888   5.231 -0.0248  0.0178 -0.4081
  174MOL0     H23999   3.000   9.961   5.402 -1.4637 -1.2397  0.7261
  174MOL0     H24000   2.826   9.667   5.694  0.3403  0.3256 -1.0979
  174MOL0     H24001   2.980   9.716   5.740 -0.2369 -1.6621 -2.8564
  174MOL0     H24002   2.793   9.770   5.903  1.7020 -0.0286 -0.7331
  174MOL0     H24003   2.719   9.878   5.781  0.8412  1.1574 -1.3423
  174MOL0     H24004   3.010   9.927   5.872 -0.0052 -2.3129 -1.2565
  174MOL0     H24005   2.914  10.050   5.801 -0.4967  1.4274  2.7260
  174MOL0     H24006   2.869   9.944   6.082 -2.7652  0.4430 -0.3900
  174MOL0     H24007   2.777  10.067   6.011 -0.8706 -0.4274  2.7625
  174MOL0     H24008   3.134  10.271   6.123  2.2836 -0.9496 -2.0278
  174MOL0     H24009   3.023   9.582   5.575  1.2872 -1.8030 -0.0774
  174MOL0     H24010   3.337   9.469   5.415 -0.3438  2.1361 -3.6358
  174MOL0     H24011   3.194   9.422   5.514 -0.5633  0.8583  0.8714
  174MOL0     H24012   3.203   9.421   5.336  2.8598 -1.0675 -0.2826
  175MOL0     O24013   3.954   8.726   4.953  0.9328  0.3358  0.2121
  175MOL0     C24014   4.051   8.658   4.931 -0.4013 -0.4003 -0.6857
  175MOL0     O24015   4.088   8.541   5.008 -0.1343 -0.5171  0.4956
  175MOL0     C24016   3.993   8.456   5.059  0.5017 -0.0668  0.3098
  175MOL0     C24017   3.871   8.425   4.998 -0.0418  0.1254  0.8941
  175MOL0     C24018   3.780   8.338   5.053  0.1144 -0.3587 -0.2690
  175MOL0     C24019   3.805   8.273   5.172  0.2779 -0.1341  0.0698
  175MOL0     O24020   3.721   8.184   5.232 -0.6916  0.8480 -0.4120
  175MOL0     C24021   3.616   8.114   5.153  0.3039 -0.4352 -0.6953
  175MOL0     C24022   3.532   8.014   5.230 -1.1111 -0.9507  0.2253
  175MOL0     C24023   3.613   7.918   5.318  0.9178  0.6595 -0.2535
  175MOL0     C24024   3.515   7.820   5.388 -0.1307 -0.8698 -0.4848
  175MOL0     C24025   3.581   7.757   5.529  0.2240  0.2523  0.2183
  175MOL0     C24026   3.534   7.614   5.536 -0.0239  0.6761 -0.0090
  175MOL0     C24027   3.382   7.620   5.560  0.9633 -1.0394  0.7924
  175MOL0     C24028   3.313   7.486   5.564 -0.0205 -0.1384  0.2637
  175MOL0     N24029   3.172   7.500   5.592  0.2274 -0.0013  0.3751
  175MOL0     C24030   3.122   7.507   5.724  0.0808  0.0452 -0.0583
  175MOL0     C24031   2.994   7.471   5.704 -0.9455  0.1502  0.8869
  175MOL0     C24032   2.903   7.475   5.820 -0.6492 -1.0543 -0.0674
  175MOL0     C24033   2.918   7.357   5.907  0.0565 -0.4404 -0.2957
  175MOL0     C24034   2.881   7.226   5.852  0.8536  0.9250  0.2412
  175MOL0     C24035   2.877   7.127   5.965  0.9130 -0.2484  0.3297
  175MOL0     O24036   2.987   7.111   6.053  0.2396  0.0859 -0.3082
  175MOL0     C24037   2.958   7.038   6.163 -1.5015 -0.3413 -0.2898
  175MOL0     C24038   2.849   6.949   6.188 -0.1624 -0.0856  0.0887
  175MOL0     C24039   2.839   6.876   6.308 -0.4279 -0.7995  0.2027
  175MOL0     C24040   2.723   6.788   6.334 -0.2109 -0.0247 -0.1870
  175MOL0     C24041   2.928   6.908   6.415 -0.0416 -0.2385  0.7812
  175MOL0     C24042   2.917   6.847   6.557  0.1844 -0.2524 -1.0539
  175MOL0     O24043   2.797   6.791   6.602  0.0680 -0.7779 -0.5808
  175MOL0     C24044   2.759   6.765   6.731 -0.1744  0.6766  0.6422
  175MOL0     C24045   2.661   6.672   6.754  0.2108 -0.2823  0.4626
  175MOL0     C24046   2.612   6.643   6.888  1.1668 -1.4902 -0.7363
  175MOL0     C24047   2.672   6.706   6.996 -0.1831 -0.2755  0.5944
  175MOL0     O24048   2.633   6.671   7.119 -0.4578  0.6990 -0.4246
  175MOL0     C24049   2.656   6.759   7.236 -0.5231  0.4040  0.8768
  175MOL0     C24050   2.614   6.715   7.377  0.1253 -0.1466  0.4224
  175MOL0     C24051   2.474   6.660   7.371 -0.9778  0.4617 -0.2551
  175MOL0     C24052   2.372   6.772   7.387  0.5776 -0.4852 -0.4070
  175MOL0     C24053   2.245   6.706   7.421  0.3438  0.3069  0.1945
  175MOL0     C24054   2.131   6.802   7.423 -0.3511 -0.0474 -0.4238
  175MOL0     C24055   1.999   6.743   7.469  0.3272 -0.0120 -0.4866
  175MOL0     C24056   1.888   6.853   7.451  0.3077 -0.2511 -0.0633
  175MOL0    Cl24057   1.893   6.963   7.588 -0.2105  0.4919 -0.0403
  175MOL0     C24058   2.778   6.797   6.967  0.3929 -0.6190 -1.1708
  175MOL0     C24059   2.814   6.828   6.841 -0.6201 -0.1889 -0.6647
  175MOL0     O24060   3.021   6.861   6.625  0.4938  0.2334 -0.6040
  175MOL0     C24061   3.035   6.997   6.399 -0.5901  0.8505  1.1943
  175MOL0     C24062   3.053   7.057   6.271 -0.2001 -0.2319 -0.0271
  175MOL0     N24063   2.968   7.452   5.567 -0.3849 -1.3606  0.1747
  175MOL0     N24064   3.073   7.494   5.492  0.7611 -0.3245 -0.6981
  175MOL0     C24065   3.927   8.297   5.238  0.2186  0.4458  0.4610
  175MOL0     C24066   4.012   8.396   5.187 -0.2169 -0.2742  0.2786
  175MOL0     C24067   4.149   8.696   4.821  0.6246 -0.3670 -1.1170
  175MOL0     C24068   4.193   8.585   4.748 -0.3568  0.0195  0.4191
  175MOL0     C24069   4.258   8.597   4.627 -0.1153 -0.5165  0.1081
  175MOL0     C24070   4.279   8.725   4.575  0.5342 -0.5475 -0.2845
  175MOL0     O24071   4.340   8.736   4.454 -0.0233  0.4708 -0.3437
  175MOL0     C24072   4.385   8.863   4.397  0.7624 -0.3822  0.5470
  175MOL0     C24073   4.274   8.956   4.348  0.4013 -0.0558 -0.1948
  175MOL0     C24074   4.326   9.093   4.290  0.4200 -0.3045 -0.4141
  175MOL0     C24075   4.216   9.155   4.200  0.3626 -0.2540 -0.5568
  175MOL0     C24076   4.274   9.235   4.092  0.8025  0.0687  0.3165
  175MOL0     C24077   4.315   9.291   3.994  0.0011 -0.1106 -0.1231
  175MOL0     C24078   4.240   8.838   4.653 -0.5597  0.1373 -0.5084
  175MOL0     C24079   4.181   8.822   4.777  0.2833 -0.6010 -0.2356
  175MOL0     C24080   4.144   8.938   4.868 -0.0082 -0.6827 -0.5064
  175MOL0     H24081   3.849   8.469   4.901 -0.6468 -0.8622  0.5598
  175MOL0     H24082   3.686   8.327   5.000 -0.3618  1.2788  0.1784
  175MOL0     H24083   3.661   8.061   5.069 -0.9321 -0.1113 -1.5832
  175MOL0     H24084   3.544   8.190   5.120  1.7760  1.4648  0.2470
  175MOL0     H24085   3.459   8.074   5.284 -0.9460 -1.3029  0.8552
  175MOL0     H24086   3.477   7.957   5.154 -2.4483 -0.7132  0.9884
  175MOL0     H24087   3.690   7.865   5.262 -0.0316 -0.8430 -0.1940
  175MOL0     H24088   3.665   7.981   5.391 -1.9813  2.1964  0.6487
  175MOL0     H24089   3.434   7.880   5.431 -0.2537 -0.3504 -1.4158
  175MOL0     H24090   3.468   7.743   5.326  1.6030 -2.2080 -0.2079
  175MOL0     H24091   3.553   7.814   5.618 -2.0893  0.1497 -0.3850
  175MOL0     H24092   3.685   7.748   5.494  0.3082  0.1350  0.5004
  175MOL0     H24093   3.573   7.554   5.454  0.3618  0.8546  0.0406
  175MOL0     H24094   3.561   7.567   5.631  0.7428 -2.3046 -1.5753
  175MOL0     H24095   3.342   7.675   5.475  3.3205 -0.3492  0.0479
  175MOL0     H24096   3.365   7.681   5.650  2.8229  0.3135  0.3000
  175MOL0     H24097   3.307   7.441   5.464  0.6775  1.8922 -0.7562
  175MOL0     H24098   3.362   7.415   5.631  0.7444  0.1579  0.0385
  175MOL0     H24099   3.174   7.521   5.818  0.7209 -1.5450 -0.1401
  175MOL0     H24100   2.802   7.464   5.779  0.3669 -1.2643 -2.7549
  175MOL0     H24101   2.919   7.568   5.875  4.8785 -1.0822 -1.0600
  175MOL0     H24102   3.022   7.355   5.940 -0.6544  1.7727  2.4416
  175MOL0     H24103   2.863   7.365   6.001  0.4778  0.3433 -0.1123
  175MOL0     H24104   2.783   7.218   5.805 -0.2754 -1.2811  2.7501
  175MOL0     H24105   2.953   7.194   5.775 -2.7185  0.6644 -3.3422
  175MOL0     H24106   2.783   7.156   6.012  0.2244  0.8123 -1.6055
  175MOL0     H24107   2.858   7.024   5.931 -1.6264  0.5722 -1.0259
  175MOL0     H24108   2.767   6.924   6.121 -0.0184  0.6358 -0.3642
  175MOL0     H24109   2.674   6.760   6.241  2.5883  1.5684 -2.3076
  175MOL0     H24110   2.663   6.844   6.406  1.7489 -1.8594  3.1505
  175MOL0     H24111   2.741   6.695   6.388 -1.6927  0.0621  0.5248
  175MOL0     H24112   2.615   6.619   6.670  0.7156 -0.4491  0.2891
  175MOL0     H24113   2.526   6.577   6.901  1.6347 -1.8543  0.6744
  175MOL0     H24114   2.763   6.782   7.231 -0.3318 -0.5912 -0.1406
  175MOL0     H24115   2.617   6.859   7.213  1.2334  1.2559  1.4267
  175MOL0     H24116   2.683   6.635   7.406  2.8123  1.2202 -1.7272
  175MOL0     H24117   2.631   6.795   7.450 -0.7211  1.8832 -1.4721
  175MOL0     H24118   2.458   6.592   7.455 -1.4260  0.0181 -0.6936
  175MOL0     H24119   2.466   6.595   7.284  1.8641  4.7214 -4.1737
  175MOL0     H24120   2.358   6.825   7.292  3.4493  0.6855 -0.2824
  175MOL0     H24121   2.403   6.843   7.464 -2.3056 -0.1357  0.5375
  175MOL0     H24122   2.215   6.623   7.356 -1.1828 -0.6976  2.0594
  175MOL0     H24123   2.250   6.644   7.511 -0.9449  0.9940  0.7502
  175MOL0     H24124   2.119   6.846   7.324  2.1517  0.5651 -0.5136
  175MOL0     H24125   2.156   6.890   7.483  1.5915 -0.5277 -0.4518
  175MOL0     H24126   2.000   6.726   7.577 -0.3814  0.8009 -0.3361
  175MOL0     H24127   1.981   6.658   7.403  0.3977  2.0727 -3.3480
  175MOL0     H24128   1.789   6.807   7.451  0.8308 -1.4173  0.0265
  175MOL0     H24129   1.918   6.901   7.358  2.5070  2.4962  1.8633
  175MOL0     H24130   2.823   6.860   7.043 -3.5276 -1.1111  1.8828
  175MOL0     H24131   2.889   6.906   6.842 -0.1097 -0.6749 -0.7399
  175MOL0     H24132   3.102   7.035   6.475 -0.2123  1.2278  0.6748
  175MOL0     H24133   3.135   7.128   6.263 -1.2846  0.8756 -2.0070
  175MOL0     H24134   3.938   8.230   5.323 -0.3641 -2.6510 -1.7031
  175MOL0     H24135   4.095   8.426   5.250 -1.1789  2.9240  0.1927
  175MOL0     H24136   4.173   8.480   4.765 -2.4208 -0.9398 -5.4491
  175MOL0     H24137   4.272   8.504   4.574 -0.0055  1.1796 -3.1182
  175MOL0     H24138   4.430   8.919   4.480 -2.1290  1.0060  1.3174
  175MOL0     H24139   4.449   8.859   4.309 -0.7712  0.6506 -0.6716
  175MOL0     H24140   4.202   8.984   4.426  1.1531  2.6932 -0.3827
  175MOL0     H24141   4.231   8.899   4.266 -1.3167  0.5801  0.2267
  175MOL0     H24142   4.359   9.158   4.371  2.2508 -1.3559 -0.2769
  175MOL0     H24143   4.414   9.074   4.229  0.8440 -1.8212  0.5941
  175MOL0     H24144   4.156   9.221   4.263 -0.7193 -0.2966 -1.5229
  175MOL0     H24145   4.143   9.077   4.177  1.5448 -1.8161  0.7288
  175MOL0     H24146   4.339   9.357   3.913 -2.3597  1.2122  0.1538
  175MOL0     H24147   4.253   8.940   4.619 -2.1610  1.0269  1.3229
  175MOL0     H24148   4.195   9.030   4.836 -4.1302  3.0043  2.3636
  175MOL0     H24149   4.040   8.973   4.869 -0.1031 -0.8329  2.0975
  175MOL0     H24150   4.178   8.927   4.971 -1.1520  1.2680  0.1437
  176MOL0     O24151   9.149   0.315   9.799  0.1565 -0.7374  0.6514
  176MOL0     C24152   9.254   0.341   9.844  0.4635  0.1955  0.7196
  176MOL0     O24153   9.364   0.361   9.768  0.1879  0.1535 -0.2640
  176MOL0     C24154   9.339   0.407   9.636 -0.6460  0.3372 -1.0613
  176MOL0     C24155   9.349   0.537   9.599  0.5716 -0.4982  0.1678
  176MOL0     C24156   9.320   0.583   9.472 -0.5407  0.5243 -0.0170
  176MOL0     C24157   9.278   0.499   9.368 -0.4201  0.2078  0.0729
  176MOL0     O24158   9.276   0.552   9.238  0.1890  0.8730 -0.0348
  176MOL0     C24159   9.170   0.511   9.150 -0.0880  0.7383 -0.7800
  176MOL0     C24160   9.234   0.426   9.044  0.6963  0.1642  0.4461
  176MOL0     C24161   9.141   0.338   8.959 -1.0425 -0.1105  0.1710
  176MOL0     C24162   9.090   0.217   9.045 -0.6319  0.0877 -0.1519
  176MOL0     C24163   8.984   0.133   8.963 -0.1783 -0.0131  0.0789
  176MOL0     C24164   8.963  -0.000   9.024 -0.6679 -0.8594 -0.4822
  176MOL0     C24165   8.860   0.025   9.129  0.5336  0.7992 -0.6598
  176MOL0     C24166   8.817  -0.119   9.180  0.3204 -0.6605  0.4844
  176MOL0     N24167   8.727  -0.117   9.293  0.4848 -0.2423  0.5797
  176MOL0     C24168   8.621  -0.035   9.308 -0.7513  0.6740  0.5122
  176MOL0     C24169   8.536  -0.096   9.394 -0.8587  0.0746  0.4597
  176MOL0     C24170   8.401  -0.056   9.444 -0.4171 -1.4833 -0.1295
  176MOL0     C24171   8.375   0.097   9.443  0.6553 -0.1668 -0.6777
  176MOL0     C24172   8.464   0.172   9.549 -0.5584 -0.6443 -0.9410
  176MOL0     C24173   8.422   0.320   9.567 -0.6460  1.0558 -1.1992
  176MOL0     O24174   8.291   0.329   9.630  0.7349 -0.9402 -0.2159
  176MOL0     C24175   8.262   0.357   9.761 -0.7271 -0.6547  0.9171
  176MOL0     C24176   8.345   0.351   9.881 -0.1641 -0.0071  0.5044
  176MOL0     C24177   8.299   0.353  10.003 -1.1446 -0.7618 -0.3151
  176MOL0     C24178   8.394   0.339  10.119 -0.5328  0.1774  0.3762
  176MOL0     C24179   8.166   0.369  10.027  0.3856 -0.5080  0.1116
  176MOL0     C24180   8.110   0.377  10.158  0.1998  0.6416  0.6035
  176MOL0     O24181   8.170   0.458  10.245 -0.2932 -0.1517  1.1270
  176MOL0     C24182   8.129   0.481  10.373  0.4041 -0.1636  0.3423
  176MOL0     C24183   8.031   0.579  10.382  0.7752 -0.1553  0.1606
  176MOL0     C24184   7.973   0.612  10.505 -0.5371  0.3196  0.4766
  176MOL0     C24185   8.007   0.530  10.617  0.0832 -0.4107  0.5826
  176MOL0     O24186   7.941   0.570  10.728  0.4068 -0.3850  0.0328
  176MOL0     C24187   7.998   0.525  10.847  1.0983  0.2156 -1.1756
  176MOL0     C24188   8.137   0.593  10.861 -0.4444  0.0278 -0.1224
  176MOL0     C24189   8.137   0.753  10.879  0.1036 -0.5884 -0.5433
  176MOL0     C24190   8.203   0.821  10.762  0.0976  0.1682 -0.2001
  176MOL0     C24191   8.215   0.970  10.798 -0.1358  0.0317 -0.6197
  176MOL0     C24192   8.288   1.041  10.692  0.9125  0.1964  0.3133
  176MOL0     C24193   8.313   1.184  10.744 -0.0275  0.4882  0.1139
  176MOL0     C24194   8.372   1.276  10.633  0.1556 -0.8179  0.6812
  176MOL0    Cl24195   8.549   1.230  10.611 -0.2578 -0.4339 -0.0528
  176MOL0     C24196   8.089   0.412  10.602  0.3192  0.0661  0.1500
  176MOL0     C24197   8.160   0.400  10.482 -0.4020 -0.6975 -0.7889
  176MOL0     O24198   8.010   0.313  10.182  1.0499  0.4577 -0.1351
  176MOL0     C24199   8.085   0.395   9.919  1.4292 -0.1916  0.0924
  176MOL0     C24200   8.131   0.382   9.787  1.3382  0.1664 -0.6469
  176MOL0     N24201   8.593  -0.222   9.433 -0.1347  0.1883 -0.5788
  176MOL0     N24202   8.713  -0.223   9.376 -0.2277  0.3555 -0.5854
  176MOL0     C24203   9.270   0.360   9.395 -0.4915 -0.3853 -0.4206
  176MOL0     C24204   9.291   0.318   9.531 -0.0644  0.6066 -0.3246
  176MOL0     C24205   9.277   0.341   9.991 -0.7388  0.9948 -1.1277
  176MOL0     C24206   9.412   0.349  10.034 -0.1562  0.4760 -0.1148
  176MOL0     C24207   9.451   0.324  10.166 -0.5206 -0.0668  0.5226
  176MOL0     C24208   9.357   0.292  10.264 -0.0873  1.1231  0.0332
  176MOL0     O24209   9.391   0.247  10.385  0.4608 -0.5949 -0.3451
  176MOL0     C24210   9.473   0.341  10.466  0.2466 -0.7312  0.3666
  176MOL0     C24211   9.489   0.290  10.614 -0.9194  0.3621  0.3337
  176MOL0     C24212   9.360   0.239  10.681  0.3046 -0.8781  0.6688
  176MOL0     C24213   9.328   0.094  10.656 -0.2018  0.1935 -0.3404
  176MOL0     C24214   9.247   0.031  10.754 -0.1243 -1.7418  0.7940
  176MOL0     C24215   9.193  -0.025  10.838 -0.6392  0.3051 -2.1581
  176MOL0     C24216   9.223   0.292  10.227  0.3313  0.0574 -0.7592
  176MOL0     C24217   9.181   0.313  10.095 -0.1004 -0.0070  0.2500
  176MOL0     C24218   9.029   0.287  10.066 -0.2671  0.3620  0.4136
  176MOL0     H24219   9.377   0.607   9.678 -0.8592  0.7033 -0.3505
  176MOL0     H24220   9.322   0.688   9.445 -3.4273  0.5853 -0.2880
  176MOL0     H24221   9.122   0.600   9.109 -1.0473 -0.0396 -1.3737
  176MOL0     H24222   9.095   0.455   9.207  0.4085 -0.4058 -1.2171
  176MOL0     H24223   9.287   0.487   8.971  0.6874 -1.7592 -1.2768
  176MOL0     H24224   9.308   0.364   9.095  1.6749  0.8872 -0.0579
  176MOL0     H24225   9.056   0.397   8.923 -0.5939  0.2152 -0.3760
  176MOL0     H24226   9.198   0.304   8.872 -1.0361  1.9877 -0.7089
  176MOL0     H24227   9.174   0.154   9.075 -0.2210  1.4713  1.7745
  176MOL0     H24228   9.049   0.256   9.138  1.1708 -2.2530  1.7603
  176MOL0     H24229   9.029   0.115   8.865  0.5983 -0.7793  0.5582
  176MOL0     H24230   8.891   0.185   8.943 -2.2941 -3.7803 -0.8317
  176MOL0     H24231   8.929  -0.062   8.941  1.3152  0.0407 -2.0549
  176MOL0     H24232   9.046  -0.045   9.079 -2.0340  0.0927  2.5845
  176MOL0     H24233   8.781   0.071   9.070  2.2737  2.1175 -2.0790
  176MOL0     H24234   8.896   0.093   9.207 -0.1045 -1.5092  1.7789
  176MOL0     H24235   8.764  -0.161   9.094  1.8268 -0.6044 -0.4977
  176MOL0     H24236   8.912  -0.171   9.193  1.3640  0.5589 -1.6896
  176MOL0     H24237   8.605   0.053   9.247 -2.7082 -0.6641 -1.0580
  176MOL0     H24238   8.392  -0.098   9.544  1.4595  2.0320  1.6802
  176MOL0     H24239   8.329  -0.110   9.382 -0.7525 -2.2491  0.9173
  176MOL0     H24240   8.389   0.130   9.340 -2.0706  0.1223 -1.0280
  176MOL0     H24241   8.273   0.118   9.478  1.3872  0.1811  1.4266
  176MOL0     H24242   8.461   0.126   9.648 -2.3439 -3.1834 -2.0518
  176MOL0     H24243   8.570   0.172   9.521  1.0985 -0.1487  4.3106
  176MOL0     H24244   8.493   0.363   9.639 -1.1309 -3.2553  2.2501
  176MOL0     H24245   8.425   0.375   9.472 -1.6725 -1.3431 -2.6879
  176MOL0     H24246   8.446   0.334   9.846 -1.5378 -0.6749 -3.6890
  176MOL0     H24247   8.490   0.296  10.088 -1.5753 -2.5839  0.6797
  176MOL0     H24248   8.338   0.280  10.192 -1.5613  0.5248 -0.1066
  176MOL0     H24249   8.426   0.428  10.174  0.6172 -0.0925  0.1616
  176MOL0     H24250   8.000   0.644  10.301  1.5048  2.3294  1.7593
  176MOL0     H24251   7.905   0.695  10.520  1.4798  2.7203 -2.3851
  176MOL0     H24252   7.956   0.547  10.946  1.6890 -3.5170  0.0490
  176MOL0     H24253   8.008   0.417  10.856 -0.8601  0.1305  0.6796
  176MOL0     H24254   8.193   0.554  10.946  1.2584  0.0793 -1.1741
  176MOL0     H24255   8.202   0.556  10.781 -0.7684  0.9603 -0.8470
  176MOL0     H24256   8.194   0.786  10.966 -1.8304 -0.4976  0.7462
  176MOL0     H24257   8.034   0.786  10.892 -0.8925 -2.9103 -1.9448
  176MOL0     H24258   8.138   0.802  10.676  0.3463 -2.0857  0.0483
  176MOL0     H24259   8.297   0.771  10.737 -1.0076 -1.5786 -1.0142
  176MOL0     H24260   8.115   1.010  10.818  0.0861 -0.1991  1.1192
  176MOL0     H24261   8.270   0.976  10.893 -4.1240 -0.5394  1.9565
  176MOL0     H24262   8.231   1.047  10.599  3.0851  1.3919 -1.0317
  176MOL0     H24263   8.381   0.987  10.669  0.2324 -0.9046  0.0680
  176MOL0     H24264   8.392   1.191  10.819  0.2223  1.8437 -0.2507
  176MOL0     H24265   8.221   1.229  10.782 -0.1073  0.2156  0.2474
  176MOL0     H24266   8.367   1.381  10.662 -1.3093 -0.1004 -1.8965
  176MOL0     H24267   8.323   1.261  10.537  1.4780 -0.3137 -0.1028
  176MOL0     H24268   8.093   0.336  10.679 -1.3331 -1.4697 -1.1935
  176MOL0     H24269   8.214   0.306  10.476  0.8760 -0.0539  0.2602
  176MOL0     H24270   7.979   0.415   9.928  1.3376 -1.4134  2.6765
  176MOL0     H24271   8.061   0.381   9.704  1.4202 -0.0843 -0.7135
  176MOL0     H24272   9.251   0.290   9.315  0.2327 -0.9613 -0.0954
  176MOL0     H24273   9.285   0.210   9.540  0.7915  0.4200 -1.6868
  176MOL0     H24274   9.499   0.385   9.981  0.4606  0.5888  0.9381
  176MOL0     H24275   9.557   0.335  10.185  0.3554 -3.2420 -1.8182
  176MOL0     H24276   9.569   0.363  10.417 -1.1517  2.2893 -1.3248
  176MOL0     H24277   9.423   0.438  10.456  0.6325 -0.7367 -2.2705
  176MOL0     H24278   9.532   0.372  10.673 -0.2105  1.4079 -1.5241
  176MOL0     H24279   9.555   0.204  10.623 -3.0660 -1.4780 -0.5168
  176MOL0     H24280   9.375   0.253  10.789  1.5615 -2.7048  0.7616
  176MOL0     H24281   9.272   0.296  10.649  0.7234 -0.8908 -0.5312
  176MOL0     H24282   9.423   0.040  10.660  0.7878  1.6135 -2.5262
  176MOL0     H24283   9.289   0.085  10.554 -1.2513  0.8537 -0.0156
  176MOL0     H24284   9.161  -0.089  10.918  1.2341 -0.2130 -1.7574
  176MOL0     H24285   9.164   0.251  10.308  1.1320 -0.6961 -0.5478
  176MOL0     H24286   9.013   0.348   9.977  3.4778  1.1483  0.1202
  176MOL0     H24287   9.013   0.184  10.033 -0.5713 -0.2353  2.2698
  176MOL0     H24288   8.965   0.323  10.148  0.1824  1.0043  0.4970
  177MOL0     O24289   7.533   7.067   2.358  0.0830 -0.0020 -0.0007
  177MOL0     C24290   7.495   7.086   2.239 -0.3263  0.2831 -0.9090
  177MOL0     O24291   7.431   7.196   2.198 -0.2306 -0.3824  0.2617
  177MOL0     C24292   7.354   7.272   2.269 -0.3123 -0.9391 -0.2589
  177MOL0     C24293   7.210   7.235   2.266  0.7611 -0.4514 -0.2145
  177MOL0     C24294   7.120   7.290   2.359  0.5566 -0.4993  0.5391
  177MOL0     C24295   7.162   7.393   2.443 -0.7954  0.1626  0.3398
  177MOL0     O24296   7.077   7.466   2.524  0.5004  0.5801 -0.8796
  177MOL0     C24297   6.987   7.547   2.465  0.2219 -0.5055  0.2650
  177MOL0     C24298   6.851   7.503   2.513 -0.2496 -0.1934  0.1725
  177MOL0     C24299   6.736   7.591   2.462 -0.6769  0.3399 -0.3924
  177MOL0     C24300   6.733   7.631   2.320 -0.1926  0.5901  0.0632
  177MOL0     C24301   6.697   7.512   2.222  0.1376 -0.0677  0.5758
  177MOL0     C24302   6.710   7.544   2.073  0.6757  0.0823 -0.8371
  177MOL0     C24303   6.615   7.452   1.992 -0.0627  0.0488 -0.6053
  177MOL0     C24304   6.658   7.303   1.977 -0.2600 -0.5656 -0.1784
  177MOL0     N24305   6.695   7.266   1.839 -0.1543 -0.6913  0.2507
  177MOL0     C24306   6.641   7.304   1.722  0.2604 -0.2282  0.4674
  177MOL0     C24307   6.714   7.240   1.627 -0.1852 -0.5612  0.4274
  177MOL0     C24308   6.696   7.227   1.483  0.9522 -0.0952 -0.0024
  177MOL0     C24309   6.819   7.270   1.403  0.2317  0.2305 -0.5925
  177MOL0     C24310   6.874   7.402   1.449 -0.5026 -0.9371  0.3751
  177MOL0     C24311   6.988   7.433   1.354  0.1177 -0.8936  0.1278
  177MOL0     O24312   7.002   7.575   1.339 -0.5084  0.3432  0.0558
  177MOL0     C24313   7.098   7.626   1.252  0.8096 -0.9679 -0.4390
  177MOL0     C24314   7.100   7.764   1.243  0.7998  0.8993  0.6021
  177MOL0     C24315   7.182   7.823   1.144  0.2299 -0.3632 -0.3945
  177MOL0     C24316   7.186   7.971   1.138 -0.8465 -0.0159 -0.7952
  177MOL0     C24317   7.272   7.748   1.064 -0.7894  0.5297 -0.3458
  177MOL0     C24318   7.369   7.806   0.961 -0.3854 -0.6523 -0.5371
  177MOL0     O24319   7.496   7.753   0.980 -0.2871 -0.6554 -0.0303
  177MOL0     C24320   7.612   7.836   0.969  0.0198 -0.3046 -0.8247
  177MOL0     C24321   7.609   7.978   0.953  0.9253  0.2687 -0.9551
  177MOL0     C24322   7.724   8.053   0.919  0.9248  0.4131 -0.4476
  177MOL0     C24323   7.853   7.989   0.916  0.2317 -0.0520  0.0028
  177MOL0     O24324   7.963   8.062   0.897 -0.0381  0.0232  0.3598
  177MOL0     C24325   8.071   8.039   0.993  0.5553 -1.0676 -0.0264
  177MOL0     C24326   8.032   8.097   1.124 -0.6014 -0.0731  0.1143
  177MOL0     C24327   8.023   8.255   1.130  0.0291 -0.6397 -1.1148
  177MOL0     C24328   8.031   8.293   1.284 -0.0850 -0.1668  0.8647
  177MOL0     C24329   7.993   8.438   1.319 -0.1855 -0.5234  0.0273
  177MOL0     C24330   8.103   8.540   1.284 -0.5018  0.5555 -0.0026
  177MOL0     C24331   8.221   8.551   1.386 -0.0735 -0.4778  0.7925
  177MOL0     C24332   8.332   8.630   1.335 -0.1488  0.0697 -0.5023
  177MOL0    Cl24333   8.488   8.624   1.440 -0.1831 -0.3393  0.0583
  177MOL0     C24334   7.858   7.849   0.913 -0.4083  0.8361 -0.1449
  177MOL0     C24335   7.748   7.778   0.946  1.3300 -0.2061  0.0357
  177MOL0     O24336   7.338   7.906   0.896 -1.1074  0.4489  1.0770
  177MOL0     C24337   7.270   7.605   1.075 -0.0868 -0.1355 -0.1967
  177MOL0     C24338   7.185   7.545   1.168  0.1317  0.2027  0.9845
  177MOL0     N24339   6.811   7.166   1.698  0.0736 -1.0659  0.0121
  177MOL0     N24340   6.804   7.195   1.823 -0.3873 -0.1770  0.4851
  177MOL0     C24341   7.298   7.428   2.435  0.1403 -0.3848 -0.2786
  177MOL0     C24342   7.396   7.361   2.363  0.0732  0.3018  0.3624
  177MOL0     C24343   7.516   6.985   2.141 -0.5209  0.2448  0.6379
  177MOL0     C24344   7.558   7.032   2.017  0.3289 -0.1565 -1.3660
  177MOL0     C24345   7.585   6.939   1.916  0.4747  0.1391  0.2183
  177MOL0     C24346   7.566   6.806   1.926  1.0346 -0.0307  0.6696
  177MOL0     O24347   7.598   6.723   1.817  0.4035  0.0158 -0.4588
  177MOL0     C24348   7.609   6.777   1.685 -0.3786  0.6208  0.7734
  177MOL0     C24349   7.573   6.669   1.590 -0.3227 -0.1972 -0.5052
  177MOL0     C24350   7.543   6.710   1.447  0.6874  0.9963 -0.2714
  177MOL0     C24351   7.600   6.614   1.342  0.3337 -0.2233  0.1264
  177MOL0     C24352   7.565   6.473   1.362  0.2031  0.2460  0.0597
  177MOL0     C24353   7.536   6.351   1.352 -0.5936  0.3634 -0.3484
  177MOL0     C24354   7.530   6.754   2.048 -0.2898 -0.0754 -0.2388
  177MOL0     C24355   7.502   6.844   2.161 -0.1768  0.2875  0.3370
  177MOL0     C24356   7.434   6.797   2.278 -0.4704 -0.3790  0.1679
  177MOL0     H24357   7.170   7.158   2.200  3.0996 -2.0900  0.1388
  177MOL0     H24358   7.021   7.255   2.383  0.2177  0.5940  0.7778
  177MOL0     H24359   6.977   7.538   2.356 -2.5073 -2.0180  0.5506
  177MOL0     H24360   7.018   7.649   2.490 -2.6968  0.5758 -0.1250
  177MOL0     H24361   6.833   7.397   2.494 -1.3136  0.2146 -1.1930
  177MOL0     H24362   6.846   7.517   2.622 -3.8915  3.2441 -0.2141
  177MOL0     H24363   6.642   7.541   2.484  0.5341 -3.1336 -2.2538
  177MOL0     H24364   6.742   7.688   2.512  0.6873 -0.2023  0.5502
  177MOL0     H24365   6.659   7.708   2.296 -1.8082 -0.1324  2.4333
  177MOL0     H24366   6.831   7.661   2.282  0.1629  0.5652  0.9448
  177MOL0     H24367   6.600   7.477   2.259  0.8325  0.0464  2.6095
  177MOL0     H24368   6.783   7.449   2.244  0.1913  0.0332  0.6520
  177MOL0     H24369   6.674   7.647   2.059  0.3161  0.3376  1.5111
  177MOL0     H24370   6.817   7.530   2.055  1.2494  0.9300  1.5002
  177MOL0     H24371   6.601   7.499   1.894 -0.6629 -0.4373 -0.7628
  177MOL0     H24372   6.521   7.462   2.047  0.1929  3.3164 -0.5447
  177MOL0     H24373   6.734   7.289   2.055  0.3028  4.2856  0.4845
  177MOL0     H24374   6.580   7.235   2.013 -2.6045  1.6526 -0.7771
  177MOL0     H24375   6.551   7.361   1.697  1.8565  2.9189  1.2948
  177MOL0     H24376   6.619   7.295   1.446 -0.5786 -1.4967  0.4710
  177MOL0     H24377   6.663   7.127   1.453  0.6772  0.6158 -2.2610
  177MOL0     H24378   6.887   7.187   1.425 -1.6721 -1.0745  0.7268
  177MOL0     H24379   6.795   7.267   1.297 -0.0886 -0.3937 -0.5084
  177MOL0     H24380   6.796   7.479   1.446 -0.7043 -1.1072  1.0991
  177MOL0     H24381   6.907   7.398   1.553  2.7894 -3.0545 -0.6213
  177MOL0     H24382   7.076   7.385   1.397 -0.3517 -1.8642  0.0308
  177MOL0     H24383   6.959   7.391   1.257 -2.8813 -1.0922  1.0063
  177MOL0     H24384   7.034   7.823   1.305  1.1287 -0.5531  2.4368
  177MOL0     H24385   7.288   8.007   1.119 -0.4550 -0.3832  0.4875
  177MOL0     H24386   7.146   8.021   1.226 -0.5378 -2.0405  0.5731
  177MOL0     H24387   7.126   7.990   1.048 -2.3519  1.1312  0.3929
  177MOL0     H24388   7.522   8.040   0.969  0.5833 -0.9133  2.6869
  177MOL0     H24389   7.704   8.158   0.900  3.5054  1.0548  0.0289
  177MOL0     H24390   8.094   7.934   1.013  0.8646 -0.7939  1.1328
  177MOL0     H24391   8.158   8.097   0.959 -0.4767 -0.8363 -2.4280
  177MOL0     H24392   7.934   8.056   1.152 -2.3780  3.1013 -0.8341
  177MOL0     H24393   8.108   8.059   1.193  1.3770  2.0434 -0.7599
  177MOL0     H24394   7.927   8.288   1.089  0.1499 -0.8130 -1.5449
  177MOL0     H24395   8.103   8.297   1.068  3.0323 -1.5635  1.8528
  177MOL0     H24396   8.132   8.267   1.318  0.6381  1.4338  0.0678
  177MOL0     H24397   7.957   8.233   1.337  0.2978  0.3900  2.0979
  177MOL0     H24398   7.903   8.461   1.261 -0.4596 -1.1716  0.1947
  177MOL0     H24399   7.966   8.445   1.424 -0.0008 -0.8959  0.0977
  177MOL0     H24400   8.058   8.639   1.278 -0.2833  0.6025 -1.2322
  177MOL0     H24401   8.143   8.529   1.182 -1.4377 -0.6116 -0.2658
  177MOL0     H24402   8.251   8.447   1.399  0.9109 -1.2171 -4.6928
  177MOL0     H24403   8.182   8.596   1.478 -0.8325  1.5265 -0.4448
  177MOL0     H24404   8.300   8.732   1.314  2.1062  0.6084 -1.6896
  177MOL0     H24405   8.353   8.599   1.232 -0.8445  0.3225 -0.7202
  177MOL0     H24406   7.946   7.785   0.901  1.6313  2.3167  4.5056
  177MOL0     H24407   7.750   7.670   0.942  0.9101 -0.2938  1.5121
  177MOL0     H24408   7.328   7.550   1.001  0.5884  2.1101 -1.4035
  177MOL0     H24409   7.180   7.437   1.164  1.6637  0.0051  2.8123
  177MOL0     H24410   7.333   7.496   2.512 -3.1658 -0.9606  1.9489
  177MOL0     H24411   7.503   7.376   2.372  0.1925  2.2953 -2.9518
  177MOL0     H24412   7.579   7.138   2.007 -2.0895  0.6115  0.7389
  177MOL0     H24413   7.612   6.976   1.819  2.1751  0.2166  0.6953
  177MOL0     H24414   7.540   6.860   1.667 -0.2405  0.3496 -1.2819
  177MOL0     H24415   7.716   6.796   1.672 -0.8671  1.6287 -2.8074
  177MOL0     H24416   7.480   6.619   1.618 -0.3136 -0.1518 -0.3942
  177MOL0     H24417   7.654   6.595   1.581 -2.5818 -2.5672 -4.0429
  177MOL0     H24418   7.434   6.721   1.441  0.8748  3.9720  0.3374
  177MOL0     H24419   7.578   6.812   1.430 -0.2938  0.7402 -5.0539
  177MOL0     H24420   7.709   6.625   1.340  0.7299 -2.2801  3.1759
  177MOL0     H24421   7.555   6.636   1.245 -1.5708 -1.2351  0.7247
  177MOL0     H24422   7.502   6.249   1.348 -2.2317  0.9002 -0.5489
  177MOL0     H24423   7.509   6.650   2.068 -1.9466 -0.2489 -2.5922
  177MOL0     H24424   7.371   6.710   2.260  1.8085 -1.9696 -0.5571
  177MOL0     H24425   7.513   6.778   2.352  0.6894 -0.6614 -1.1108
  177MOL0     H24426   7.366   6.874   2.316  0.2688 -0.4508  1.7292
  178MOL0     O24427   1.943  10.325   0.073  0.0525 -0.1989  0.9398
  178MOL0     C24428   2.060  10.279   0.076 -1.3542  0.1465 -0.2435
  178MOL0     O24429   2.127  10.239   0.190 -0.9274  0.6215  0.4856
  178MOL0     C24430   2.049  10.222   0.299 -0.6010 -0.3502  0.2636
  178MOL0     C24431   2.006  10.326   0.384 -0.2998  0.1988  0.7372
  178MOL0     C24432   1.925  10.305   0.488  0.5336 -1.3168 -0.4189
  178MOL0     C24433   1.881  10.172   0.516  0.3380  0.2439 -0.3496
  178MOL0     O24434   1.785  10.150   0.613  0.3913  0.6135 -0.3368
  178MOL0     C24435   1.650  10.181   0.578  0.1168 -0.5382  1.0231
  178MOL0     C24436   1.541  10.167   0.684 -1.5543  0.5865 -0.1313
  178MOL0     C24437   1.491  10.022   0.686  0.0418 -0.0922  0.3032
  178MOL0     C24438   1.393  10.002   0.800 -0.1628 -0.7591  0.5970
  178MOL0     C24439   1.291   9.887   0.757  0.1913 -0.2345  0.2822
  178MOL0     C24440   1.169   9.876   0.844 -0.2322  0.2217 -0.2986
  178MOL0     C24441   1.206   9.849   0.990 -0.1627  0.9563 -0.4787
  178MOL0     C24442   1.084   9.804   1.076 -0.2949 -0.0521  0.3628
  178MOL0     N24443   0.976   9.899   1.073  1.1135  0.2905  0.8671
  178MOL0     C24444   0.879   9.913   0.976  0.3588 -0.3676  0.4576
  178MOL0     C24445   0.798  10.011   1.022  0.2394  0.9838 -0.0068
  178MOL0     C24446   0.661  10.038   0.962  0.3866 -1.2713 -0.6199
  178MOL0     C24447   0.544  10.099   1.047  0.5817  0.5663 -0.1334
  178MOL0     C24448   0.529  10.035   1.194  0.0603 -0.0662 -0.3757
  178MOL0     C24449   0.479   9.886   1.193 -0.1114 -1.0283 -0.0375
  178MOL0     O24450   0.447   9.839   1.326 -1.0211 -0.7952 -0.2398
  178MOL0     C24451   0.414   9.713   1.355 -0.2662 -0.1496 -0.7546
  178MOL0     C24452   0.328   9.643   1.262 -0.5403  0.3050 -0.2131
  178MOL0     C24453   0.303   9.502   1.276 -1.3559 -0.0286 -1.4570
  178MOL0     C24454   0.215   9.429   1.183  0.8533  0.3680  0.4908
  178MOL0     C24455   0.352   9.431   1.392  0.1564  0.5920 -0.3871
  178MOL0     C24456   0.333   9.280   1.422  1.0467 -0.0313 -0.0817
  178MOL0     O24457   0.362   9.249   1.554 -0.0529 -0.8645  0.4926
  178MOL0     C24458   0.386   9.116   1.570  0.6645  0.5254  0.8079
  178MOL0     C24459   0.478   9.029   1.507 -1.1001 -0.6077  0.3172
  178MOL0     C24460   0.491   8.901   1.555  0.2022  0.2323  0.3327
  178MOL0     C24461   0.407   8.848   1.651  0.3878  0.2203 -0.8854
  178MOL0     O24462   0.433   8.722   1.697  1.0239  0.9612  0.4238
  178MOL0     C24463   0.332   8.655   1.777 -0.6973 -1.0955  0.4104
  178MOL0     C24464   0.336   8.507   1.765  0.0382  0.8148  0.2274
  178MOL0     C24465   0.291   8.443   1.634 -0.2787  0.1306  0.3954
  178MOL0     C24466   0.280   8.292   1.644 -0.3356 -0.6622  1.0055
  178MOL0     C24467   0.418   8.215   1.655  0.4706 -0.4639 -0.6759
  178MOL0     C24468   0.421   8.069   1.667  0.2278 -0.2845  0.7895
  178MOL0     C24469   0.560   8.024   1.731  0.4234 -0.7245  0.1289
  178MOL0     C24470   0.554   7.881   1.788 -0.4509 -0.0311 -0.3365
  178MOL0    Cl24471   0.471   7.778   1.664  0.1669 -0.1988 -0.1758
  178MOL0     C24472   0.307   8.931   1.700  0.1641 -1.1824 -0.8060
  178MOL0     C24473   0.292   9.064   1.656 -0.1132  0.0501  0.3458
  178MOL0     O24474   0.297   9.204   1.339  0.7702 -0.1339 -0.5583
  178MOL0     C24475   0.431   9.509   1.483  0.2225  0.1471  0.0291
  178MOL0     C24476   0.472   9.641   1.463 -0.3344  0.0464  0.6723
  178MOL0     N24477   0.854  10.072   1.136  0.0062 -0.4435  0.2706
  178MOL0     N24478   0.967  10.012   1.161 -1.2336  0.1997  1.0006
  178MOL0     C24479   1.915  10.068   0.435  0.4678 -0.3450  0.3164
  178MOL0     C24480   2.002  10.095   0.326 -0.1175 -1.1590 -0.9718
  178MOL0     C24481   2.148  10.266  -0.045  0.3418 -0.9028  1.1475
  178MOL0     C24482   2.283  10.296  -0.039  0.5554 -0.0939  0.0997
  178MOL0     C24483   2.365  10.281  -0.153 -0.0325  0.6220 -0.8009
  178MOL0     C24484   2.319  10.223  -0.261 -0.5792  0.0662  0.6865
  178MOL0     O24485   2.422  10.187  -0.343 -0.0937 -0.5664 -0.5101
  178MOL0     C24486   2.401  10.143  -0.475  0.7314  0.8635  0.5256
  178MOL0     C24487   2.543  10.095  -0.530  0.4234 -0.5870 -0.8133
  178MOL0     C24488   2.638  10.202  -0.536 -0.4496 -0.3477 -1.3267
  178MOL0     C24489   2.778  10.137  -0.581 -0.1601  0.3161  0.9422
  178MOL0     C24490   2.843  10.065  -0.467 -0.0577  0.3049 -0.0626
  178MOL0     C24491   2.887  10.012  -0.368  0.1489  0.4847  0.1276
  178MOL0     C24492   2.191  10.208  -0.287 -0.2198 -0.3148 -0.1216
  178MOL0     C24493   2.099  10.232  -0.179 -0.0540 -0.1416  0.4258
  178MOL0     C24494   1.954  10.205  -0.206  0.0860  0.0288 -0.2949
  178MOL0     H24495   2.028  10.432   0.374 -1.7952  0.4767  0.0474
  178MOL0     H24496   1.896  10.387   0.553 -1.4344 -2.2213 -0.0680
  178MOL0     H24497   1.620  10.119   0.492  0.4067  1.9061 -0.9628
  178MOL0     H24498   1.641  10.283   0.538  1.5227 -0.0585  1.8801
  178MOL0     H24499   1.586  10.201   0.777  2.5679 -2.1173 -0.8659
  178MOL0     H24500   1.467  10.242   0.656 -0.8511  0.1867 -3.5686
  178MOL0     H24501   1.443   9.995   0.592 -0.3275  2.6676 -0.3720
  178MOL0     H24502   1.574   9.951   0.700  1.2869  1.6515  2.3831
  178MOL0     H24503   1.438   9.991   0.899 -0.5688 -0.0974  0.8630
  178MOL0     H24504   1.334  10.095   0.803 -2.1367 -1.9186 -0.1456
  178MOL0     H24505   1.356   9.799   0.749  1.8460  0.9306  0.3135
  178MOL0     H24506   1.255   9.898   0.655  0.5379 -0.9477  0.0749
  178MOL0     H24507   1.113   9.970   0.836 -0.8333  0.2285  2.7313
  178MOL0     H24508   1.110   9.787   0.823  1.0666 -0.4799 -1.0636
  178MOL0     H24509   1.255   9.932   1.043  1.0141  0.5813 -0.9431
  178MOL0     H24510   1.275   9.765   0.993 -1.5158 -0.1774 -0.0401
  178MOL0     H24511   1.053   9.705   1.039 -2.0821 -1.0145  4.0205
  178MOL0     H24512   1.110   9.778   1.179  0.5509 -2.2045 -0.3312
  178MOL0     H24513   0.846   9.842   0.901 -0.5945 -0.5749  1.0598
  178MOL0     H24514   0.619   9.943   0.926 -1.0167  0.2920 -3.4456
  178MOL0     H24515   0.677  10.095   0.870 -0.3980  0.8173  0.4677
  178MOL0     H24516   0.545  10.205   1.070 -2.2005  0.8106 -0.8126
  178MOL0     H24517   0.453  10.080   0.990  1.1955 -1.3809 -0.5574
  178MOL0     H24518   0.627  10.052   1.242  0.5591  0.0302 -1.4020
  178MOL0     H24519   0.452  10.090   1.249 -0.0851 -1.1744  0.5713
  178MOL0     H24520   0.380   9.891   1.147 -0.8508  1.0459  1.6184
  178MOL0     H24521   0.545   9.820   1.135  2.6026  2.8616 -1.8490
  178MOL0     H24522   0.283   9.694   1.177 -2.2973  1.4641  1.3434
  178MOL0     H24523   0.265   9.370   1.106 -2.7737  1.8989 -3.4388
  178MOL0     H24524   0.154   9.499   1.125  0.1834 -0.0871  0.6381
  178MOL0     H24525   0.149   9.369   1.246  1.8037 -1.8753 -0.5606
  178MOL0     H24526   0.547   9.068   1.433 -0.4522 -0.9785  0.7142
  178MOL0     H24527   0.571   8.839   1.517 -1.8186 -3.0473  0.9990
  178MOL0     H24528   0.358   8.677   1.881  1.8967 -2.7893  0.2195
  178MOL0     H24529   0.227   8.676   1.753 -0.0349 -1.1736 -3.0793
  178MOL0     H24530   0.435   8.463   1.776  0.2666  1.1325 -0.4853
  178MOL0     H24531   0.273   8.459   1.841  1.6347  0.6979  1.5258
  178MOL0     H24532   0.350   8.480   1.550 -0.9692  1.9208  0.6550
  178MOL0     H24533   0.188   8.473   1.610 -0.0850 -0.8581 -2.0191
  178MOL0     H24534   0.227   8.256   1.555  0.9046 -0.1652  0.0264
  178MOL0     H24535   0.222   8.260   1.731  0.0434  4.0532  3.3472
  178MOL0     H24536   0.477   8.242   1.566  3.1641 -1.1686  0.8013
  178MOL0     H24537   0.466   8.248   1.747 -0.8187  0.5520 -0.3532
  178MOL0     H24538   0.407   8.009   1.577  3.4779  0.6772 -0.5157
  178MOL0     H24539   0.344   8.041   1.739 -1.6053 -3.1654 -2.0359
  178MOL0     H24540   0.581   8.099   1.808  0.5126 -0.7712  0.1483
  178MOL0     H24541   0.635   8.032   1.653  0.9716  1.4521  0.7944
  178MOL0     H24542   0.491   7.886   1.878  0.8465 -0.0981  0.6059
  178MOL0     H24543   0.652   7.842   1.820 -1.1537  0.8602  3.3823
  178MOL0     H24544   0.232   8.898   1.770 -1.7941  2.5674 -0.8797
  178MOL0     H24545   0.212   9.121   1.704  0.5086  0.3590  1.0381
  178MOL0     H24546   0.483   9.451   1.558  1.4473 -3.0624 -3.0531
  178MOL0     H24547   0.538   9.698   1.528 -0.1524  2.3290 -1.3540
  178MOL0     H24548   1.869   9.971   0.451 -0.0065 -0.2432 -0.3807
  178MOL0     H24549   2.022  10.017   0.253  0.5179  1.6481 -4.0553
  178MOL0     H24550   2.325  10.319   0.059 -1.6657  0.3222  1.0167
  178MOL0     H24551   2.472  10.297  -0.150 -0.3281  2.9011 -0.1412
  178MOL0     H24552   2.332  10.057  -0.476  0.3251  1.1877 -0.3357
  178MOL0     H24553   2.374  10.226  -0.542  2.3954 -0.2417 -1.6695
  178MOL0     H24554   2.518  10.056  -0.629 -1.3051  2.3007 -1.6328
  178MOL0     H24555   2.570  10.014  -0.462  0.5687 -0.7276 -1.0375
  178MOL0     H24556   2.626  10.279  -0.614  3.8081  1.4063 -0.5251
  178MOL0     H24557   2.637  10.248  -0.437 -3.1011  2.7973 -2.6155
  178MOL0     H24558   2.840  10.215  -0.626 -0.5571  0.0243 -0.1253
  178MOL0     H24559   2.759  10.065  -0.661  1.1497  1.8420 -0.8240
  178MOL0     H24560   2.911   9.976  -0.270  3.4986  2.1452  0.0463
  178MOL0     H24561   2.143  10.171  -0.376 -0.6435 -0.2847  0.0919
  178MOL0     H24562   1.938  10.157  -0.303 -2.0320 -2.1590  1.0105
  178MOL0     H24563   1.905  10.140  -0.132  0.8622 -1.7485 -1.2720
  178MOL0     H24564   1.912  10.306  -0.208  1.0025  0.5364  2.3147
  179MOL0     O24565   4.797   7.709  10.036  0.8297  0.1078  0.4619
  179MOL0     C24566   4.833   7.590  10.023 -0.2418 -1.2133 -0.6026
  179MOL0     O24567   4.797   7.483  10.105 -0.5079  0.3294 -0.8110
  179MOL0     C24568   4.732   7.501  10.223 -0.4193 -0.8789  0.1107
  179MOL0     C24569   4.621   7.582  10.251  0.0923 -0.2479  0.1690
  179MOL0     C24570   4.551   7.578  10.370 -0.7524  0.2216 -0.6186
  179MOL0     C24571   4.594   7.481  10.465 -0.2363  0.2673  0.0182
  179MOL0     O24572   4.514   7.456  10.575 -0.0581  0.5216 -0.1624
  179MOL0     C24573   4.455   7.570  10.639  0.3461 -0.0557  0.4115
  179MOL0     C24574   4.404   7.538  10.783 -0.2151 -0.3105 -0.1114
  179MOL0     C24575   4.360   7.396  10.808 -0.2225  0.0275 -0.2306
  179MOL0     C24576   4.242   7.336  10.742 -0.5615  0.0980  0.2577
  179MOL0     C24577   4.140   7.257  10.826 -0.9399  0.1379 -0.0692
  179MOL0     C24578   4.083   7.333  10.955  0.0373  0.5759  0.3784
  179MOL0     C24579   3.992   7.252  11.037  0.2422 -0.0299  1.1361
  179MOL0     C24580   3.859   7.209  10.981 -0.1334 -0.9167 -0.1004
  179MOL0     N24581   3.762   7.328  10.960  0.4315  0.2261  0.0663
  179MOL0     C24582   3.679   7.391  11.054  0.6693  0.1806 -0.5937
  179MOL0     C24583   3.625   7.499  11.001  0.7730  0.0303  0.0102
  179MOL0     C24584   3.539   7.609  11.059  0.7496  0.3144 -0.2622
  179MOL0     C24585   3.389   7.578  11.027 -0.0898  0.0046 -0.3757
  179MOL0     C24586   3.293   7.640  11.128  0.1225  0.1258  0.6627
  179MOL0     C24587   3.276   7.794  11.092  0.6981  0.4935 -0.5220
  179MOL0     O24588   3.251   7.822  10.947  0.8858  0.4005 -0.2706
  179MOL0     C24589   3.117   7.814  10.909 -0.0283 -0.8195  0.6806
  179MOL0     C24590   3.009   7.885  10.968 -0.2332 -0.7347 -1.1708
  179MOL0     C24591   2.882   7.900  10.913  1.0017  0.4013 -0.1335
  179MOL0     C24592   2.790   7.983  10.999  0.8922  0.0382  0.5310
  179MOL0     C24593   2.855   7.849  10.785  0.1945  1.8132 -0.3067
  179MOL0     C24594   2.722   7.856  10.720  0.1717  0.0155  1.0235
  179MOL0     O24595   2.619   7.813  10.798  0.3659 -0.2820 -0.4942
  179MOL0     C24596   2.490   7.799  10.738 -0.4027 -0.3657  0.1435
  179MOL0     C24597   2.434   7.678  10.734  0.1540  0.5202 -0.1773
  179MOL0     C24598   2.317   7.647  10.672 -0.2459 -0.8571  0.6878
  179MOL0     C24599   2.238   7.759  10.628 -0.0200  0.4850 -0.7250
  179MOL0     O24600   2.120   7.737  10.563 -0.2915  0.3140  0.3365
  179MOL0     C24601   2.116   7.634  10.463 -0.0551  0.5494  0.3795
  179MOL0     C24602   1.985   7.624  10.381  1.1610  0.5971 -0.3429
  179MOL0     C24603   1.989   7.504  10.280  0.0370 -0.5501 -0.1899
  179MOL0     C24604   1.849   7.489  10.222  0.2043 -0.6231  1.0788
  179MOL0     C24605   1.833   7.608  10.115  0.0254 -0.1719  0.9137
  179MOL0     C24606   1.702   7.591  10.043  0.1581  1.2431  0.3630
  179MOL0     C24607   1.669   7.681   9.917 -0.0251  0.8740 -0.0088
  179MOL0     C24608   1.544   7.767   9.935 -0.5485  0.0069  0.0471
  179MOL0    Cl24609   1.501   7.866   9.798  0.0597  0.1565 -0.2317
  179MOL0     C24610   2.292   7.889  10.641  1.4905 -0.8521  0.6167
  179MOL0     C24611   2.422   7.904  10.690  0.9525 -0.5157  0.0330
  179MOL0     O24612   2.710   7.892  10.607 -0.5980 -0.5792  0.9529
  179MOL0     C24613   2.960   7.788  10.718  0.0631 -1.2195 -1.2106
  179MOL0     C24614   3.085   7.769  10.781 -0.3200  0.9188 -0.0199
  179MOL0     N24615   3.666   7.500  10.870 -0.9123 -0.2422 -0.6374
  179MOL0     N24616   3.752   7.400  10.843 -0.6895  0.3673 -0.7035
  179MOL0     C24617   4.706   7.405  10.445  0.4273  0.1085 -0.1122
  179MOL0     C24618   4.770   7.412  10.324  0.2698  0.0521 -0.7952
  179MOL0     C24619   4.937   7.559   9.926 -0.1388 -0.3138  0.1903
  179MOL0     C24620   5.065   7.602   9.960  0.0069 -0.6123  0.0790
  179MOL0     C24621   5.171   7.585   9.866  0.3987 -0.1743  0.9726
  179MOL0     C24622   5.157   7.508   9.753  0.6688 -0.2099  0.8565
  179MOL0     O24623   5.272   7.501   9.671  0.3922  0.4580 -0.7252
  179MOL0     C24624   5.238   7.433   9.546 -0.7328  0.5788  0.3760
  179MOL0     C24625   5.381   7.387   9.492 -0.6647  0.2409  0.3286
  179MOL0     C24626   5.468   7.305   9.585 -0.5489  0.3854 -0.1426
  179MOL0     C24627   5.586   7.266   9.496  0.0133 -0.7030  0.6660
  179MOL0     C24628   5.666   7.157   9.548 -0.2909  0.4762  0.5898
  179MOL0     C24629   5.736   7.055   9.578  0.0930  0.1918  0.3602
  179MOL0     C24630   5.029   7.452   9.728 -0.4469  0.3491 -0.6290
  179MOL0     C24631   4.923   7.472   9.813  0.8911 -1.4750  0.7113
  179MOL0     C24632   4.799   7.404   9.777 -0.4157 -0.4347  0.2904
  179MOL0     H24633   4.594   7.647  10.167  2.5965 -0.2361 -0.7129
  179MOL0     H24634   4.461   7.638  10.380 -0.3514  1.1414 -2.1602
  179MOL0     H24635   4.366   7.597  10.581 -0.6268 -0.8378  1.4888
  179MOL0     H24636   4.514   7.662  10.638  0.1448  0.0884  1.1719
  179MOL0     H24637   4.478   7.567  10.858 -0.7715  1.4642 -0.1992
  179MOL0     H24638   4.322   7.604  10.811  0.0703 -0.7112  1.7519
  179MOL0     H24639   4.445   7.338  10.768 -0.2901 -0.4788  0.3477
  179MOL0     H24640   4.353   7.379  10.915  0.6317 -1.5341 -0.3837
  179MOL0     H24641   4.193   7.419  10.691 -0.5603  1.0878  1.7974
  179MOL0     H24642   4.274   7.274  10.658 -0.7218  0.5366 -0.1276
  179MOL0     H24643   4.194   7.171  10.866  1.2477  1.7764  0.7418
  179MOL0     H24644   4.054   7.231  10.764 -1.3078 -4.7335  2.0910
  179MOL0     H24645   4.173   7.358  11.012  1.2186 -1.5381 -0.4560
  179MOL0     H24646   4.035   7.426  10.920 -1.4992 -0.0250  0.8190
  179MOL0     H24647   3.965   7.314  11.123 -0.7912  1.7694 -0.3993
  179MOL0     H24648   4.047   7.164  11.073  0.2821 -1.0634 -1.2787
  179MOL0     H24649   3.878   7.166  10.883  0.2932 -0.4733 -0.2166
  179MOL0     H24650   3.817   7.132  11.046  2.5361 -1.7435  0.8020
  179MOL0     H24651   3.662   7.362  11.157 -1.2432 -3.0676 -1.6842
  179MOL0     H24652   3.554   7.704  11.007  0.6113 -1.9445 -4.9941
  179MOL0     H24653   3.551   7.618  11.167 -2.7293  1.0553  0.2105
  179MOL0     H24654   3.349   7.602  10.928 -1.3899 -1.3003 -0.2036
  179MOL0     H24655   3.379   7.469  11.020  2.7462 -0.2976 -0.8430
  179MOL0     H24656   3.193   7.598  11.109  0.2225  0.7387 -1.4255
  179MOL0     H24657   3.310   7.626  11.236 -2.7206  0.4378  1.2410
  179MOL0     H24658   3.207   7.832  11.167 -0.5975 -3.2352  0.4038
  179MOL0     H24659   3.367   7.847  11.120  0.2175  0.6154  0.8767
  179MOL0     H24660   3.019   7.942  11.060 -2.5538 -0.8831 -0.7794
  179MOL0     H24661   2.848   8.055  11.057  2.2827 -0.8685  0.3419
  179MOL0     H24662   2.727   7.924  11.066 -5.2055  1.8963 -2.8377
  179MOL0     H24663   2.721   8.044  10.940  0.9124 -0.0718  0.3913
  179MOL0     H24664   2.484   7.592  10.778  0.2608 -0.5406 -2.2787
  179MOL0     H24665   2.306   7.542  10.649 -4.1206 -0.6864  1.1960
  179MOL0     H24666   2.204   7.641  10.399 -1.2183  3.2111 -1.1049
  179MOL0     H24667   2.120   7.539  10.516 -3.2210 -1.5071 -2.5844
  179MOL0     H24668   1.899   7.610  10.448 -0.3172  1.1010 -2.0448
  179MOL0     H24669   1.981   7.720  10.329  2.1580 -0.5917 -2.7687
  179MOL0     H24670   2.011   7.408  10.327 -0.4019 -1.1462 -1.1528
  179MOL0     H24671   2.072   7.512  10.210  1.8423 -2.5960  1.5760
  179MOL0     H24672   1.775   7.512  10.300 -1.0210  0.4721 -0.3486
  179MOL0     H24673   1.839   7.386  10.186 -2.2089  0.3293 -1.2984
  179MOL0     H24674   1.838   7.707  10.162 -3.3863  0.6697 -0.2319
  179MOL0     H24675   1.920   7.599  10.048 -1.0403 -1.1472 -0.3967
  179MOL0     H24676   1.623   7.595  10.119  0.7008 -1.3472  1.1461
  179MOL0     H24677   1.700   7.487  10.009 -2.4253  0.1732  3.3081
  179MOL0     H24678   1.657   7.617   9.829 -0.5329  1.3812 -0.3145
  179MOL0     H24679   1.753   7.749   9.898 -0.1043  1.0099  0.1258
  179MOL0     H24680   1.558   7.829  10.024 -1.5322 -2.0433  1.7333
  179MOL0     H24681   1.463   7.700   9.963  1.8784 -2.5081  1.5827
  179MOL0     H24682   2.233   7.965  10.591 -0.7257 -1.2715  2.4255
  179MOL0     H24683   2.482   7.993  10.675  0.9339 -0.6172 -0.6704
  179MOL0     H24684   2.948   7.755  10.616 -3.0226  0.0901 -1.3795
  179MOL0     H24685   3.161   7.727  10.716  0.7663 -0.9525  2.3225
  179MOL0     H24686   4.748   7.343  10.524 -0.0510  0.3431  0.3351
  179MOL0     H24687   4.860   7.354  10.303  1.7506  1.4920  1.1664
  179MOL0     H24688   5.081   7.664  10.048  0.9075 -2.6846  1.4646
  179MOL0     H24689   5.259   7.646   9.883  2.4597 -2.0005 -2.2337
  179MOL0     H24690   5.174   7.345   9.555 -4.9149  3.5430  3.1361
  179MOL0     H24691   5.195   7.501   9.472  0.2840  1.8562  0.9185
  179MOL0     H24692   5.429   7.483   9.472 -1.3952  0.8079  1.2237
  179MOL0     H24693   5.364   7.328   9.402  2.8452  0.2159 -0.4378
  179MOL0     H24694   5.504   7.350   9.678 -2.7120 -0.8639  1.3731
  179MOL0     H24695   5.422   7.212   9.620  1.1365 -0.1880  0.6790
  179MOL0     H24696   5.646   7.354   9.474 -0.0736 -0.9166 -0.5091
  179MOL0     H24697   5.552   7.224   9.401 -1.0393 -1.4673  1.3521
  179MOL0     H24698   5.807   6.980   9.608  1.9534  2.5223  2.2096
  179MOL0     H24699   5.015   7.393   9.638  2.2385  0.7862 -1.4316
  179MOL0     H24700   4.820   7.303   9.739  1.1654 -0.5849  1.4502
  179MOL0     H24701   4.729   7.397   9.861 -2.3172 -2.8011 -1.3239
  179MOL0     H24702   4.747   7.465   9.702  0.9387  0.9446  0.4443
  180MOL0     O24703   4.685   1.214   4.688 -0.4341  0.0805  0.7017
  180MOL0     C24704   4.782   1.148   4.648 -0.2460  0.1060  0.3509
  180MOL0     O24705   4.909   1.198   4.637 -0.1213 -0.1960 -0.3335
  180MOL0     C24706   4.940   1.332   4.631  1.7967  0.0174  0.0197
  180MOL0     C24707   4.876   1.432   4.707 -0.1991 -0.1521  0.1823
  180MOL0     C24708   4.921   1.568   4.697  0.2560 -0.3859 -0.0921
  180MOL0     C24709   5.045   1.597   4.633  0.3610  0.8135  0.6292
  180MOL0     O24710   5.114   1.712   4.654  0.1882 -0.2716  0.1314
  180MOL0     C24711   5.051   1.839   4.634 -0.3166 -0.5770  0.2174
  180MOL0     C24712   5.061   1.888   4.487  0.8670  0.2433  0.0309
  180MOL0     C24713   4.945   1.830   4.399  0.0524 -0.1036 -0.0620
  180MOL0     C24714   4.927   1.921   4.278  0.2703 -0.5050 -0.1225
  180MOL0     C24715   4.802   1.879   4.187 -0.1903 -0.3827 -1.0136
  180MOL0     C24716   4.795   1.964   4.063 -0.5963 -0.3511 -1.1515
  180MOL0     C24717   4.809   2.119   4.083  0.0875 -0.4447 -0.0194
  180MOL0     C24718   4.822   2.195   3.949  0.1574  0.2165  0.5940
  180MOL0     N24719   4.796   2.332   3.963  1.3226 -0.8006  0.4955
  180MOL0     C24720   4.675   2.398   3.957 -0.9347  0.0967  0.1657
  180MOL0     C24721   4.712   2.528   3.942  0.5054  1.2633  0.0788
  180MOL0     C24722   4.614   2.635   3.887  0.1808 -0.9187 -0.2530
  180MOL0     C24723   4.502   2.671   3.977  0.4305  0.8459  0.7277
  180MOL0     C24724   4.551   2.757   4.086  0.1307 -0.4875 -0.5778
  180MOL0     C24725   4.428   2.828   4.149 -0.9373  1.1804  0.2296
  180MOL0     O24726   4.371   2.916   4.050 -0.3805  0.2363  0.2774
  180MOL0     C24727   4.333   3.040   4.098 -0.6763 -0.3987  0.2001
  180MOL0     C24728   4.228   3.052   4.183 -0.6061  0.0894  0.2377
  180MOL0     C24729   4.182   3.173   4.239  0.1318 -0.4520  0.4020
  180MOL0     C24730   4.063   3.174   4.338 -0.3076 -0.4069  0.1665
  180MOL0     C24731   4.268   3.291   4.214 -0.1346 -0.9698 -0.8311
  180MOL0     C24732   4.246   3.418   4.292  0.2398 -0.0665  0.3146
  180MOL0     O24733   4.308   3.434   4.412  0.0442 -0.1943  0.4177
  180MOL0     C24734   4.328   3.562   4.462  0.4532  0.3960 -0.3401
  180MOL0     C24735   4.350   3.681   4.384  0.0844  0.2243 -0.2345
  180MOL0     C24736   4.374   3.803   4.434  0.6220  0.4105  0.1409
  180MOL0     C24737   4.384   3.814   4.574  0.1662  0.2143  0.2195
  180MOL0     O24738   4.402   3.937   4.629  0.2239  0.6131 -0.7746
  180MOL0     C24739   4.508   3.947   4.731  0.3169 -0.8143 -0.4801
  180MOL0     C24740   4.480   4.083   4.807  0.2942  0.5693  0.4530
  180MOL0     C24741   4.589   4.107   4.912 -0.4707  0.7903  0.6620
  180MOL0     C24742   4.600   3.995   5.027 -0.5999 -0.4865 -0.6927
  180MOL0     C24743   4.707   4.025   5.133  0.0056  0.9238 -0.1523
  180MOL0     C24744   4.687   4.167   5.200  0.5969 -0.6832 -0.5136
  180MOL0     C24745   4.783   4.169   5.327  0.0539 -1.0652  0.0412
  180MOL0     C24746   4.759   4.308   5.404  0.4442 -0.6458  0.7187
  180MOL0    Cl24747   4.634   4.302   5.529  0.0277  0.0451  0.4369
  180MOL0     C24748   4.364   3.699   4.657  0.6598  0.9530  0.3658
  180MOL0     C24749   4.333   3.575   4.602  0.2874 -0.9361  0.4388
  180MOL0     O24750   4.164   3.496   4.240  0.1180  0.5172  0.3674
  180MOL0     C24751   4.378   3.279   4.132 -0.4188 -0.3369  0.5972
  180MOL0     C24752   4.405   3.159   4.066 -0.0038 -0.0796  0.6990
  180MOL0     N24753   4.850   2.536   3.944  1.1834 -0.1149 -0.4807
  180MOL0     N24754   4.895   2.426   3.962  0.2857  0.1024 -0.0932
  180MOL0     C24755   5.105   1.496   4.547  0.1151  0.0898  0.6346
  180MOL0     C24756   5.042   1.370   4.540 -0.3648 -0.3564 -0.3125
  180MOL0     C24757   4.752   0.996   4.620 -0.1899  0.0363  0.3317
  180MOL0     C24758   4.623   0.954   4.638  0.1220 -0.6242  0.3607
  180MOL0     C24759   4.587   0.829   4.640 -1.1172  0.6013  0.7640
  180MOL0     C24760   4.677   0.727   4.609 -0.0159 -0.3557  0.2372
  180MOL0     O24761   4.622   0.597   4.605  1.0778 -0.1469 -0.0428
  180MOL0     C24762   4.715   0.493   4.635  0.5213  0.2147  0.1210
  180MOL0     C24763   4.652   0.354   4.651  0.3765 -0.5814  0.9267
  180MOL0     C24764   4.568   0.332   4.778  0.0381 -0.1096  0.0742
  180MOL0     C24765   4.617   0.386   4.916 -0.3349 -0.4858 -0.3688
  180MOL0     C24766   4.723   0.299   4.969 -0.1567 -0.9000 -0.2932
  180MOL0     C24767   4.821   0.230   4.999  0.0136 -0.1273 -0.0209
  180MOL0     C24768   4.807   0.763   4.574 -0.3964  0.4748  0.6622
  180MOL0     C24769   4.850   0.900   4.585 -1.2023 -0.2014  0.4213
  180MOL0     C24770   4.997   0.929   4.574  0.1699 -0.2767 -0.2462
  180MOL0     H24771   4.785   1.417   4.764 -0.9192  1.5542 -0.4676
  180MOL0     H24772   4.864   1.637   4.758 -0.3924 -0.9124 -0.0911
  180MOL0     H24773   5.108   1.913   4.691  1.7698 -3.1779  1.7196
  180MOL0     H24774   4.947   1.837   4.668  0.4416 -0.5304  2.7125
  180MOL0     H24775   5.068   1.997   4.490 -1.9403  0.5583 -1.6440
  180MOL0     H24776   5.148   1.839   4.443  2.1306  0.6854  1.9093
  180MOL0     H24777   4.960   1.724   4.375 -1.6094 -0.3583 -0.1056
  180MOL0     H24778   4.852   1.835   4.456  1.2627  0.2647  1.9798
  180MOL0     H24779   4.884   2.014   4.315 -2.3725 -2.4870  2.2518
  180MOL0     H24780   5.013   1.923   4.210 -1.4866 -3.3761 -2.7333
  180MOL0     H24781   4.714   1.894   4.250 -0.2883  0.6362 -1.3716
  180MOL0     H24782   4.811   1.774   4.161 -3.2051 -1.1875  0.7760
  180MOL0     H24783   4.878   1.936   3.998 -2.2299 -0.0396 -3.4881
  180MOL0     H24784   4.709   1.942   4.000 -2.1455  0.3029  0.6477
  180MOL0     H24785   4.893   2.141   4.149  0.1511 -1.5292  0.2799
  180MOL0     H24786   4.724   2.166   4.134 -0.8488  2.4538 -3.7651
  180MOL0     H24787   4.925   2.192   3.913 -0.4292  2.0573 -1.4135
  180MOL0     H24788   4.769   2.140   3.871  0.2385 -0.6255  1.1211
  180MOL0     H24789   4.586   2.338   3.938 -0.1282 -0.6675 -1.4320
  180MOL0     H24790   4.567   2.600   3.794  0.5211  2.4815 -1.8544
  180MOL0     H24791   4.668   2.725   3.859  1.4519 -1.7199 -0.4507
  180MOL0     H24792   4.422   2.714   3.916  0.8269 -0.3831 -0.7309
  180MOL0     H24793   4.472   2.576   4.023 -1.4378 -0.9882 -3.7128
  180MOL0     H24794   4.608   2.691   4.151  2.5837  1.2655 -0.7896
  180MOL0     H24795   4.626   2.832   4.060 -2.0071  2.0866  0.2241
  180MOL0     H24796   4.355   2.755   4.187  0.0727  0.4039  0.7195
  180MOL0     H24797   4.470   2.870   4.241 -1.1603 -2.0212  1.9411
  180MOL0     H24798   4.165   2.968   4.213 -2.1617  0.8828 -0.6457
  180MOL0     H24799   3.999   3.262   4.331 -1.0090 -0.9941 -1.1294
  180MOL0     H24800   4.121   3.176   4.431  1.3744  1.5193 -0.8313
  180MOL0     H24801   3.994   3.090   4.326 -1.2940  0.3609  0.3155
  180MOL0     H24802   4.350   3.678   4.275  1.4920 -0.4123 -0.2394
  180MOL0     H24803   4.375   3.892   4.372 -1.7147  0.9902  0.8247
  180MOL0     H24804   4.497   3.863   4.799  4.1887 -1.4823 -0.4628
  180MOL0     H24805   4.611   3.943   4.693  0.8719 -1.1359  1.0033
  180MOL0     H24806   4.490   4.149   4.721 -1.5924 -2.5292 -2.4209
  180MOL0     H24807   4.376   4.082   4.841 -0.5717  0.1598 -2.0039
  180MOL0     H24808   4.563   4.190   4.978 -1.5084 -2.5096  4.8436
  180MOL0     H24809   4.689   4.123   4.870 -0.6672  1.2556  0.3580
  180MOL0     H24810   4.632   3.899   4.986  0.6414 -0.1930 -0.4389
  180MOL0     H24811   4.504   3.988   5.080  1.1754 -2.3614  2.6434
  180MOL0     H24812   4.685   3.952   5.211  3.4804 -1.9595 -1.6298
  180MOL0     H24813   4.809   4.002   5.101 -0.8705  0.9356 -3.2971
  180MOL0     H24814   4.584   4.173   5.236  0.4688 -2.0344 -0.5957
  180MOL0     H24815   4.716   4.245   5.129 -0.2710 -0.6381 -0.8295
  180MOL0     H24816   4.885   4.171   5.287 -0.3042  0.8195 -0.9074
  180MOL0     H24817   4.775   4.081   5.392  0.6408 -0.9500  0.2779
  180MOL0     H24818   4.729   4.376   5.324  0.3085  0.8123  1.9809
  180MOL0     H24819   4.857   4.339   5.441  0.0564 -1.0203  2.0956
  180MOL0     H24820   4.382   3.697   4.764  1.4787 -4.5788  0.4041
  180MOL0     H24821   4.307   3.495   4.671 -0.5240 -1.0226  0.0422
  180MOL0     H24822   4.436   3.359   4.087 -1.6789 -0.5387 -1.5325
  180MOL0     H24823   4.488   3.155   3.997  0.2867 -2.5206  1.0661
  180MOL0     H24824   5.190   1.497   4.480 -2.2028 -3.2381 -2.7094
  180MOL0     H24825   5.105   1.299   4.487  1.3468  0.5258  0.4700
  180MOL0     H24826   4.542   1.026   4.647  0.5969 -0.1572  0.9455
  180MOL0     H24827   4.479   0.821   4.647 -1.2136  2.3633  1.6260
  180MOL0     H24828   4.777   0.490   4.545 -1.1261  1.3563 -1.1080
  180MOL0     H24829   4.780   0.510   4.722  1.3789 -1.3689 -0.1764
  180MOL0     H24830   4.731   0.278   4.651  0.9734  0.0362  0.9939
  180MOL0     H24831   4.582   0.328   4.570  3.0267  0.0617 -1.7467
  180MOL0     H24832   4.466   0.368   4.770  0.1750  0.5435  1.1199
  180MOL0     H24833   4.557   0.225   4.798 -0.1947  0.0948  1.1112
  180MOL0     H24834   4.537   0.393   4.991 -0.9301 -2.7433 -0.7004
  180MOL0     H24835   4.660   0.486   4.907  1.6234 -1.1948  0.3351
  180MOL0     H24836   4.893   0.156   5.026 -0.4917  0.0448  1.9698
  180MOL0     H24837   4.888   0.703   4.533 -0.3788  0.2068  1.0854
  180MOL0     H24838   5.033   0.995   4.653  0.6137 -0.1682 -0.5379
  180MOL0     H24839   5.054   0.836   4.583  0.6892  0.2329  3.1417
  180MOL0     H24840   5.026   0.984   4.484  3.7718  0.5776  1.2524
  181MOL0     O24841   8.157   1.083   7.077  0.1114  0.0918 -0.1928
  181MOL0     C24842   8.045   1.065   7.048  0.2488 -0.2449 -1.2010
  181MOL0     O24843   7.945   1.128   7.106  0.0123 -0.8292 -0.3008
  181MOL0     C24844   7.967   1.201   7.225 -0.9992  0.1483 -1.2915
  181MOL0     C24845   8.001   1.341   7.219 -0.7535 -1.2806 -0.0096
  181MOL0     C24846   8.005   1.417   7.340 -0.2848  0.1445  0.8399
  181MOL0     C24847   7.987   1.353   7.464 -0.5734 -0.3843 -0.2155
  181MOL0     O24848   7.993   1.411   7.585 -0.9076  0.5649  0.3433
  181MOL0     C24849   8.005   1.562   7.586  0.3953 -0.6075 -0.4971
  181MOL0     C24850   8.058   1.610   7.720 -0.3927 -0.2047  0.0433
  181MOL0     C24851   7.952   1.580   7.836 -1.0555  1.2128 -0.6201
  181MOL0     C24852   7.821   1.658   7.838 -0.0616 -0.6174  0.0840
  181MOL0     C24853   7.700   1.602   7.915  0.6038  0.0913 -0.3508
  181MOL0     C24854   7.558   1.658   7.892  0.0479 -0.7668  0.5973
  181MOL0     C24855   7.449   1.553   7.931  0.2914 -0.0992 -0.7200
  181MOL0     C24856   7.457   1.527   8.086  1.2841  0.5889 -0.0478
  181MOL0     N24857   7.559   1.433   8.134 -0.1297  0.0013 -0.2659
  181MOL0     C24858   7.567   1.301   8.088 -0.3968 -0.3885  0.6818
  181MOL0     C24859   7.658   1.256   8.166 -0.4300  1.0415  0.9421
  181MOL0     C24860   7.712   1.123   8.149  0.0663  0.4600 -0.0790
  181MOL0     C24861   7.798   1.122   8.022  0.3564  0.1824 -0.8841
  181MOL0     C24862   7.847   0.981   7.994 -0.6498  0.2459  0.7050
  181MOL0     C24863   7.734   0.893   7.949 -0.1682 -0.2555  0.1556
  181MOL0     O24864   7.665   0.825   8.047  0.4480 -0.2413 -0.2698
  181MOL0     C24865   7.529   0.795   8.029 -1.8460  0.5176  0.5305
  181MOL0     C24866   7.486   0.765   7.899  0.2738  0.5766  0.0996
  181MOL0     C24867   7.347   0.758   7.878 -1.3580  0.9172 -1.3365
  181MOL0     C24868   7.299   0.739   7.734 -0.0865  0.4753  0.1099
  181MOL0     C24869   7.261   0.778   7.985  0.1579 -0.8533  0.1482
  181MOL0     C24870   7.114   0.761   7.973 -0.1949  0.2271  0.5248
  181MOL0     O24871   7.032   0.840   8.049 -0.1846 -0.4734 -0.7208
  181MOL0     C24872   6.917   0.795   8.087  0.1823 -0.3651 -0.8736
  181MOL0     C24873   6.890   0.728   8.204 -0.6244  0.6649 -0.5541
  181MOL0     C24874   6.769   0.686   8.246  0.0397  0.0534  0.8064
  181MOL0     C24875   6.657   0.728   8.172 -1.4610 -0.1028  0.3672
  181MOL0     O24876   6.522   0.687   8.211  0.6962  0.3560 -0.1703
  181MOL0     C24877   6.407   0.761   8.159  0.7694 -0.9109 -0.4969
  181MOL0     C24878   6.282   0.693   8.205 -0.2001  0.6927  1.5492
  181MOL0     C24879   6.157   0.784   8.180  0.1970  0.4651  1.2120
  181MOL0     C24880   6.144   0.834   8.043  0.2457 -0.2981  0.9522
  181MOL0     C24881   5.994   0.884   8.021 -0.6532  0.4728 -0.7821
  181MOL0     C24882   5.966   0.929   7.876  1.3093 -0.4213 -0.8185
  181MOL0     C24883   5.825   0.997   7.855  0.8447  0.6896  0.5709
  181MOL0     C24884   5.796   1.045   7.703  0.4351 -0.2653  0.6392
  181MOL0    Cl24885   5.903   1.170   7.639 -0.3153 -0.5634  0.2839
  181MOL0     C24886   6.681   0.798   8.049 -0.1836 -0.0958 -0.5585
  181MOL0     C24887   6.810   0.829   8.002  1.0297  0.0185 -0.0711
  181MOL0     O24888   7.071   0.679   7.893  0.3953  0.7401  0.2091
  181MOL0     C24889   7.309   0.827   8.103 -0.4604 -0.1055 -0.4409
  181MOL0     C24890   7.445   0.842   8.117  0.0515 -0.4285  0.1474
  181MOL0     N24891   7.706   1.344   8.253 -0.4654 -0.5818 -0.2233
  181MOL0     N24892   7.641   1.457   8.236 -0.1143  0.3425 -0.1085
  181MOL0     C24893   7.945   1.220   7.472 -0.4907  0.8858  0.6638
  181MOL0     C24894   7.934   1.140   7.352 -1.0469 -0.6379 -0.1375
  181MOL0     C24895   8.000   0.955   6.960 -0.2679  0.4924 -0.3282
  181MOL0     C24896   7.880   0.972   6.879 -0.5557  0.4537  0.3067
  181MOL0     C24897   7.837   0.864   6.798  0.7122  0.2062 -0.1952
  181MOL0     C24898   7.900   0.736   6.792  1.8059 -1.4098 -0.1801
  181MOL0     O24899   7.845   0.651   6.701 -0.5755  0.5971 -0.0964
  181MOL0     C24900   7.902   0.518   6.666 -0.1427 -0.0832 -1.2401
  181MOL0     C24901   7.967   0.533   6.534 -0.9211  0.3219 -0.3389
  181MOL0     C24902   7.870   0.544   6.421  1.3768 -0.6587  1.2267
  181MOL0     C24903   7.949   0.548   6.285 -0.5426  1.2410  0.7173
  181MOL0     C24904   7.856   0.547   6.165 -0.2340 -1.1059 -0.1506
  181MOL0     C24905   7.770   0.539   6.077 -0.3851 -0.5841 -0.4670
  181MOL0     C24906   8.018   0.733   6.865 -0.5927 -0.0600  1.1436
  181MOL0     C24907   8.065   0.827   6.954  0.6322  0.2144  0.1080
  181MOL0     C24908   8.188   0.792   7.033  0.4683 -0.0750  0.0271
  181MOL0     H24909   8.026   1.395   7.128  0.8180  0.5337  1.4176
  181MOL0     H24910   8.027   1.523   7.330 -1.7576  0.3248 -0.9937
  181MOL0     H24911   7.903   1.596   7.567  0.5123 -1.4127 -2.8668
  181MOL0     H24912   8.062   1.610   7.506  0.2398 -1.1695 -0.9492
  181MOL0     H24913   8.155   1.564   7.742 -1.1564 -2.0027 -0.1710
  181MOL0     H24914   8.062   1.719   7.722  0.3148  0.0082  6.1102
  181MOL0     H24915   7.919   1.476   7.825 -0.7781  1.2181 -1.6035
  181MOL0     H24916   7.995   1.574   7.937 -2.5986 -0.8999 -0.0103
  181MOL0     H24917   7.850   1.758   7.872 -2.1296 -0.6817  2.3174
  181MOL0     H24918   7.782   1.666   7.736  0.9622  1.1758 -0.2135
  181MOL0     H24919   7.731   1.613   8.019  2.7180 -0.6462 -0.8546
  181MOL0     H24920   7.690   1.498   7.882  1.1239  0.3500 -1.3708
  181MOL0     H24921   7.550   1.748   7.953 -4.4258 -1.2692  1.0697
  181MOL0     H24922   7.540   1.697   7.792 -1.6300 -0.0170  1.1601
  181MOL0     H24923   7.438   1.473   7.857 -1.4077  1.2424 -2.0167
  181MOL0     H24924   7.361   1.618   7.926  0.6922  0.9041  2.6595
  181MOL0     H24925   7.472   1.618   8.146  0.6846 -0.2308  1.3893
  181MOL0     H24926   7.359   1.485   8.110  2.4529 -2.7219 -0.6287
  181MOL0     H24927   7.520   1.265   7.997 -1.0176  1.4292  0.2255
  181MOL0     H24928   7.629   1.053   8.137 -1.0327  1.4615  1.4225
  181MOL0     H24929   7.772   1.100   8.238 -2.4201 -1.2105  1.2931
  181MOL0     H24930   7.742   1.153   7.933  0.1452 -1.6074 -1.4369
  181MOL0     H24931   7.883   1.189   8.035  0.7220 -0.1510 -1.5153
  181MOL0     H24932   7.914   1.006   7.911  1.3262  0.3669  2.2647
  181MOL0     H24933   7.896   0.942   8.083 -2.4824  0.2414  1.7674
  181MOL0     H24934   7.664   0.947   7.885  0.8648  2.2585  1.0456
  181MOL0     H24935   7.778   0.811   7.890 -4.1923 -0.4215 -3.0185
  181MOL0     H24936   7.546   0.753   7.809  0.6471  0.6696  0.3392
  181MOL0     H24937   7.254   0.838   7.719  0.1583  0.6975  0.7779
  181MOL0     H24938   7.222   0.664   7.717 -1.7335  1.8544  1.1887
  181MOL0     H24939   7.382   0.711   7.667 -0.0863 -1.9304  1.0452
  181MOL0     H24940   6.976   0.707   8.266 -1.6111  2.1212  1.4051
  181MOL0     H24941   6.742   0.625   8.332 -0.9855  0.6608  0.9272
  181MOL0     H24942   6.399   0.861   8.203  1.6200 -0.4551 -1.3283
  181MOL0     H24943   6.409   0.767   8.050 -1.0917  2.2280 -0.4956
  181MOL0     H24944   6.287   0.603   8.142 -0.1547  2.2974 -0.8739
  181MOL0     H24945   6.278   0.657   8.308 -0.8582 -2.4950  0.5268
  181MOL0     H24946   6.161   0.863   8.254  3.9156  0.7625  0.8628
  181MOL0     H24947   6.073   0.714   8.193  1.3458 -2.4430 -4.0179
  181MOL0     H24948   6.170   0.749   7.979  1.1095 -1.5105  2.8259
  181MOL0     H24949   6.219   0.911   8.022  1.4092 -0.4840  3.9596
  181MOL0     H24950   5.933   0.796   8.045 -1.7839  0.2604 -3.9379
  181MOL0     H24951   5.967   0.966   8.088 -1.1424 -0.6966  0.4794
  181MOL0     H24952   5.980   0.844   7.809  0.2441 -0.5750 -0.8619
  181MOL0     H24953   6.047   0.992   7.839  2.0576 -4.1255 -6.8277
  181MOL0     H24954   5.818   1.084   7.921  2.3295  2.0500 -0.9706
  181MOL0     H24955   5.746   0.929   7.888 -0.7497  0.1701 -3.6415
  181MOL0     H24956   5.691   1.072   7.689  0.6980  0.2277 -0.5240
  181MOL0     H24957   5.798   0.959   7.636 -1.3749 -1.2198  1.7260
  181MOL0     H24958   6.598   0.828   7.986 -0.4953 -0.4493 -0.3190
  181MOL0     H24959   6.837   0.853   7.900  2.0052 -2.0345 -0.3556
  181MOL0     H24960   7.248   0.876   8.179 -0.0776  1.0247 -0.8382
  181MOL0     H24961   7.477   0.900   8.203 -0.8740  1.6896 -0.8730
  181MOL0     H24962   7.925   1.168   7.566 -0.2263 -1.1474 -0.3409
  181MOL0     H24963   7.915   1.033   7.359 -0.2687 -0.6784  4.6166
  181MOL0     H24964   7.811   1.055   6.894 -2.4119 -1.4003  2.9511
  181MOL0     H24965   7.748   0.893   6.743 -0.4901  0.7780  1.9336
  181MOL0     H24966   7.970   0.488   6.747  0.3434  0.1181 -1.5694
  181MOL0     H24967   7.818   0.448   6.667  1.2197 -1.8522 -2.8562
  181MOL0     H24968   8.028   0.446   6.507  0.2106  1.3250 -1.1040
  181MOL0     H24969   8.029   0.622   6.526 -0.8387  0.1243 -2.9599
  181MOL0     H24970   7.798   0.461   6.424 -1.1369  1.1675 -1.8299
  181MOL0     H24971   7.814   0.637   6.432 -0.7298 -1.4868 -1.4068
  181MOL0     H24972   8.005   0.454   6.287 -1.6099  0.6094  1.1758
  181MOL0     H24973   8.031   0.621   6.278  2.6757 -1.9508  1.6146
  181MOL0     H24974   7.694   0.541   6.001 -1.5499 -0.4438  0.6702
  181MOL0     H24975   8.076   0.642   6.854 -0.8325  0.0375 -2.0003
  181MOL0     H24976   8.272   0.840   6.982  0.5656  0.0314  0.2836
  181MOL0     H24977   8.185   0.834   7.134  1.2408 -1.4011  0.6284
  181MOL0     H24978   8.205   0.684   7.038 -0.3017 -0.1564  2.9478
  182MOL0     O24979   6.840   9.978  10.341  0.5581 -1.1389  0.3853
  182MOL0     C24980   6.848   9.985  10.457  0.0629  0.7483 -0.5190
  182MOL0     O24981   6.840   9.884  10.544 -1.0649  0.0184 -0.5440
  182MOL0     C24982   6.790   9.757  10.511 -0.4187  0.2073  0.1868
  182MOL0     C24983   6.720   9.690  10.609 -0.1671 -0.5449 -0.4428
  182MOL0     C24984   6.678   9.557  10.601 -0.0047  0.3548  0.5572
  182MOL0     C24985   6.703   9.483  10.488  0.8685  0.0425  0.5212
  182MOL0     O24986   6.659   9.353  10.460  0.2747 -1.3750  0.1298
  182MOL0     C24987   6.575   9.277  10.536  0.1076  0.4635 -0.9865
  182MOL0     C24988   6.666   9.196  10.640 -0.5619 -0.3934  0.5063
  182MOL0     C24989   6.778   9.111  10.575 -0.4787 -1.6834 -0.0786
  182MOL0     C24990   6.745   8.966  10.570  0.0788  0.5915  0.0794
  182MOL0     C24991   6.851   8.901  10.488 -0.9535  1.4228 -0.3896
  182MOL0     C24992   6.842   8.926  10.340 -1.2771  0.7679  0.0806
  182MOL0     C24993   6.724   8.858  10.269  0.6748 -0.5368  0.4043
  182MOL0     C24994   6.711   8.858  10.110  0.0373 -0.5164  0.0168
  182MOL0     N24995   6.684   8.996  10.059 -0.2059  1.1788 -0.2099
  182MOL0     C24996   6.587   9.075  10.101 -0.9810 -0.5419  0.5839
  182MOL0     C24997   6.585   9.171  10.005 -0.1616  0.1986 -0.1339
  182MOL0     C24998   6.508   9.297   9.999  0.5265  0.2303 -0.2094
  182MOL0     C24999   6.489   9.367  10.132  0.4625 -0.6738  0.1877
  182MOL0     C25000   6.482   9.518  10.116 -0.3311  0.3394 -0.0173
  182MOL0     C25001   6.407   9.588  10.229  1.1928  0.4066  0.1347
  182MOL0     O25002   6.332   9.702  10.186 -0.2169  0.6627 -0.4451
  182MOL0     C25003   6.402   9.803  10.120 -0.1158 -0.2276 -0.8630
  182MOL0     C25004   6.331   9.858  10.013  0.1018  0.7711  0.0047
  182MOL0     C25005   6.397   9.946   9.919 -0.3177 -0.2298 -0.6143
  182MOL0     C25006   6.306  10.004   9.814 -0.0902  0.6521 -0.1666
  182MOL0     C25007   6.537   9.963   9.949 -0.1005 -0.1010  0.0632
  182MOL0     C25008   6.612  10.059   9.869  0.3912  1.1347 -1.4140
  182MOL0     O25009   6.709  10.138   9.933  0.5427  0.4480 -0.0432
  182MOL0     C25010   6.775  10.233   9.862  0.5572 -0.1707  0.5288
  182MOL0     C25011   6.737  10.362   9.868 -0.2508 -0.1656 -0.0727
  182MOL0     C25012   6.813  10.467   9.820 -0.1617  0.1505  0.6949
  182MOL0     C25013   6.929  10.444   9.749  0.0481  0.4605  0.4605
  182MOL0     O25014   7.015  10.532   9.685  0.9319  1.0270  0.3789
  182MOL0     C25015   6.972  10.673   9.688 -0.0256  0.3906  0.0279
  182MOL0     C25016   7.075  10.754   9.618 -0.3043  0.5776  0.2356
  182MOL0     C25017   7.066  10.727   9.465  1.0759 -0.1581  0.1483
  182MOL0     C25018   6.943  10.800   9.405 -0.1341  0.6269 -0.0465
  182MOL0     C25019   6.937  10.795   9.249  0.4137  0.0935 -0.9468
  182MOL0     C25020   7.054  10.881   9.187 -0.0111  0.3515  0.1689
  182MOL0     C25021   7.049  10.890   9.039 -0.2287  0.4422  1.0527
  182MOL0     C25022   7.045  11.039   8.988 -0.2212 -0.1906  0.6315
  182MOL0    Cl25023   7.209  11.112   9.020 -0.8143 -0.0128  0.0916
  182MOL0     C25024   6.971  10.304   9.732 -0.4319 -0.0599 -0.4770
  182MOL0     C25025   6.889  10.207   9.790  0.0313  0.3483 -0.6905
  182MOL0     O25026   6.588  10.061   9.752  0.0561  0.2861  0.1604
  182MOL0     C25027   6.608   9.898  10.051  0.5718 -0.4086 -0.9213
  182MOL0     C25028   6.538   9.827  10.138  0.5865 -0.5007 -0.2491
  182MOL0     N25029   6.668   9.124   9.906  0.2974  0.3046 -0.2981
  182MOL0     N25030   6.734   9.020   9.936 -0.3989 -0.9280  0.8653
  182MOL0     C25031   6.772   9.551  10.387 -0.0903  0.0721  0.0092
  182MOL0     C25032   6.820   9.684  10.395 -0.4397  0.9764  0.1628
  182MOL0     C25033   6.867  10.118  10.527 -0.2347 -0.8479  0.7138
  182MOL0     C25034   6.810  10.126  10.656  0.2077 -0.6225  0.2930
  182MOL0     C25035   6.829  10.244  10.728  1.1594  0.4730 -0.2791
  182MOL0     C25036   6.900  10.353  10.681  0.9804  0.4645 -0.4287
  182MOL0     O25037   6.920  10.473  10.748 -0.4478  0.2541  0.5685
  182MOL0     C25038   6.816  10.535  10.824 -0.9524  0.2955 -0.2812
  182MOL0     C25039   6.876  10.661  10.884 -0.2096  0.0319 -0.5057
  182MOL0     C25040   6.835  10.796  10.818  0.1191  0.7259  0.4216
  182MOL0     C25041   6.955  10.889  10.849 -0.1323 -0.4385  0.0560
  182MOL0     C25042   6.948  10.925  10.988 -0.0116 -0.4205 -0.0980
  182MOL0     C25043   6.936  10.975  11.095  1.0768 -0.5370  0.9117
  182MOL0     C25044   6.942  10.350  10.549 -0.1085  0.5889  0.1030
  182MOL0     C25045   6.924  10.237  10.473  0.8963 -0.8258 -0.2111
  182MOL0     C25046   6.980  10.246  10.337  0.0309 -0.0593 -0.6667
  182MOL0     H25047   6.699   9.754  10.694 -1.2525  0.9944 -1.8072
  182MOL0     H25048   6.619   9.525  10.687  0.0205  0.6898  0.7016
  182MOL0     H25049   6.517   9.207  10.475 -2.5258  2.1533 -0.5465
  182MOL0     H25050   6.504   9.336  10.595 -0.7648 -2.1012  0.7216
  182MOL0     H25051   6.703   9.247  10.730 -0.2302 -0.8747  0.6441
  182MOL0     H25052   6.597   9.127  10.687  0.3312 -1.5298  0.1908
  182MOL0     H25053   6.786   9.152  10.474  0.2669  2.0980  1.3342
  182MOL0     H25054   6.868   9.129  10.635  0.5172  2.2916 -2.3796
  182MOL0     H25055   6.736   8.924  10.671  3.0222  1.3156  0.7247
  182MOL0     H25056   6.653   8.938  10.517  0.8695 -2.1576 -0.0244
  182MOL0     H25057   6.853   8.792  10.496 -1.7859  1.2164 -2.3062
  182MOL0     H25058   6.949   8.936  10.519  1.2963 -3.2135 -1.3927
  182MOL0     H25059   6.848   9.034  10.324  0.1311  0.7142  0.0809
  182MOL0     H25060   6.934   8.887  10.296 -0.4241  3.5161 -0.7758
  182MOL0     H25061   6.626   8.889  10.308  0.8128  1.7721 -0.8729
  182MOL0     H25062   6.737   8.754  10.300 -2.0040 -0.6075  1.5892
  182MOL0     H25063   6.795   8.807  10.063  0.9847  1.4260 -0.4773
  182MOL0     H25064   6.617   8.802  10.095  0.7804 -1.3147 -1.9627
  182MOL0     H25065   6.524   9.068  10.189 -0.3087  2.6605  1.4330
  182MOL0     H25066   6.420   9.256   9.948  2.7356 -2.8395 -1.8999
  182MOL0     H25067   6.566   9.358   9.929  1.6540 -1.9483 -1.2921
  182MOL0     H25068   6.398   9.328  10.180  0.8975 -3.6930 -1.2242
  182MOL0     H25069   6.573   9.347  10.199 -0.0515  1.6673  1.6757
  182MOL0     H25070   6.586   9.550  10.118 -0.1158 -0.3821  0.7817
  182MOL0     H25071   6.435   9.548  10.022 -1.6403  0.5593  0.6777
  182MOL0     H25072   6.329   9.516  10.255  3.6830 -3.9306 -2.9635
  182MOL0     H25073   6.460   9.605  10.323  0.9666  2.1121 -0.0089
  182MOL0     H25074   6.225   9.843   9.998 -0.3273  0.2497  2.9084
  182MOL0     H25075   6.354  10.092   9.773  0.9383  0.5334  0.7343
  182MOL0     H25076   6.210  10.027   9.862  0.1991  0.3676  0.5604
  182MOL0     H25077   6.293   9.923   9.741 -1.0269  2.3221 -1.9455
  182MOL0     H25078   6.649  10.378   9.929 -0.3950  0.4539 -0.4327
  182MOL0     H25079   6.771  10.566   9.835 -0.7521 -0.0807  0.5834
  182MOL0     H25080   6.875  10.676   9.639  0.4276 -0.8043 -1.0033
  182MOL0     H25081   6.977  10.707   9.791  1.0256  0.9582 -0.1883
  182MOL0     H25082   7.068  10.860   9.647  2.6056  1.0404 -0.4341
  182MOL0     H25083   7.176  10.720   9.644 -1.1284 -1.9368  0.3969
  182MOL0     H25084   7.067  10.621   9.441 -0.5379 -0.3265  0.7038
  182MOL0     H25085   7.154  10.779   9.425 -0.3535  1.3904 -1.1290
  182MOL0     H25086   6.942  10.899   9.450  1.4223  1.7250 -2.2300
  182MOL0     H25087   6.863  10.741   9.451 -0.1309  2.1080  1.9735
  182MOL0     H25088   6.948  10.696   9.205  3.8223 -0.2873  0.4678
  182MOL0     H25089   6.841  10.836   9.215  1.3484  1.8968 -1.5549
  182MOL0     H25090   7.146  10.836   9.223  1.0078  1.3056 -1.1600
  182MOL0     H25091   7.051  10.985   9.220  0.1954  1.5955 -3.3079
  182MOL0     H25092   6.960  10.834   9.008 -0.5719  1.1993  0.6490
  182MOL0     H25093   7.136  10.837   8.998 -0.2246  0.5755  0.8915
  182MOL0     H25094   6.973  11.088   9.053 -0.5210 -1.6837  1.4757
  182MOL0     H25095   7.007  11.052   8.886  2.1531  0.9145 -0.1757
  182MOL0     H25096   7.058  10.271   9.676 -1.4565 -1.3928 -1.3702
  182MOL0     H25097   6.922  10.105   9.770 -0.2179  0.3942 -1.3561
  182MOL0     H25098   6.710   9.928  10.074 -0.5034  2.3954  0.7765
  182MOL0     H25099   6.570   9.791  10.235  0.4888 -2.2567 -0.8201
  182MOL0     H25100   6.793   9.515  10.286 -2.8363  2.6507 -1.6468
  182MOL0     H25101   6.889   9.733  10.327 -0.6701  1.0672 -0.0075
  182MOL0     H25102   6.752  10.042  10.692  1.1841 -1.7410 -0.6626
  182MOL0     H25103   6.799  10.246  10.833 -0.9045 -1.3865 -0.7772
  182MOL0     H25104   6.730  10.551  10.759  0.8207  2.1157 -2.3765
  182MOL0     H25105   6.798  10.474  10.913  0.0894  1.7145  0.9721
  182MOL0     H25106   6.985  10.660  10.880 -0.2271 -0.2863 -0.9210
  182MOL0     H25107   6.853  10.662  10.991  3.8969 -2.8338  0.6544
  182MOL0     H25108   6.835  10.783  10.709  2.5690  1.6530  0.2542
  182MOL0     H25109   6.736  10.832  10.849  0.5523  1.9013  0.5074
  182MOL0     H25110   6.940  10.978  10.787  0.4343 -0.4524 -0.0998
  182MOL0     H25111   7.043  10.839  10.809  1.3327  2.0391  0.0052
  182MOL0     H25112   6.939  11.041  11.179  1.0652  0.7764 -0.0967
  182MOL0     H25113   6.999  10.436  10.519  0.1994 -0.4487 -2.5296
  182MOL0     H25114   6.908  10.254  10.254 -3.0927 -2.8692  1.5009
  182MOL0     H25115   7.044  10.334  10.330  0.4373 -0.3675 -0.8918
  182MOL0     H25116   7.041  10.157  10.318 -0.3394 -0.5884  0.5213
  183MOL0     O25117   2.014  10.514   0.751 -1.1445 -0.1850  0.3439
  183MOL0     C25118   1.988  10.523   0.866  0.0103  0.4243 -0.8655
  183MOL0     O25119   2.057  10.586   0.961  0.1934 -0.1686 -0.3585
  183MOL0     C25120   2.150  10.671   0.917  1.0286  0.1735 -0.6921
  183MOL0     C25121   2.273  10.613   0.925 -0.8306 -0.3593  0.9140
  183MOL0     C25122   2.379  10.698   0.882  0.1258 -0.9391 -0.4543
  183MOL0     C25123   2.354  10.833   0.849 -0.1099  0.6905  0.2504
  183MOL0     O25124   2.443  10.939   0.834 -0.3112 -0.5724  0.6239
  183MOL0     C25125   2.578  10.906   0.816  0.4461  0.3981  1.7473
  183MOL0     C25126   2.657  11.025   0.751  0.0564 -0.0399  0.3414
  183MOL0     C25127   2.611  11.079   0.620  0.1893  0.7555  0.0958
  183MOL0     C25128   2.709  11.186   0.563 -0.0562  0.6925  0.1963
  183MOL0     C25129   2.638  11.240   0.437  0.2576  0.7245 -0.0483
  183MOL0     C25130   2.694  11.367   0.388  0.4674  0.9336  0.3563
  183MOL0     C25131   2.624  11.418   0.261  0.0732  0.4036  1.5194
  183MOL0     C25132   2.702  11.543   0.210  0.1538  1.6183  0.0283
  183MOL0     N25133   2.680  11.658   0.291  1.0447  0.5517 -0.0850
  183MOL0     C25134   2.560  11.719   0.326  0.1731  0.9741  0.3776
  183MOL0     C25135   2.587  11.812   0.415 -0.2192 -0.3636 -0.4160
  183MOL0     C25136   2.490  11.913   0.485 -0.1024  0.0692  0.3066
  183MOL0     C25137   2.394  11.826   0.573 -0.3951  0.0845  0.1310
  183MOL0     C25138   2.296  11.909   0.654  0.5976  0.4514  0.3697
  183MOL0     C25139   2.216  12.014   0.574  0.3439  0.6530 -0.2860
  183MOL0     O25140   2.117  11.937   0.497 -0.3116 -0.5505  0.0931
  183MOL0     C25141   2.079  11.999   0.380  0.0193  0.8275 -0.2234
  183MOL0     C25142   2.018  12.118   0.400  1.7308  0.3903 -0.5241
  183MOL0     C25143   2.009  12.206   0.292  0.4539 -0.3764  0.4157
  183MOL0     C25144   1.971  12.351   0.325  0.5263 -0.2451  0.0840
  183MOL0     C25145   2.046  12.168   0.164 -0.3001  0.1318  0.5779
  183MOL0     C25146   2.029  12.258   0.046  0.0714  0.3621 -0.2234
  183MOL0     O25147   1.956  12.195  -0.053  0.3963  0.4413  0.3183
  183MOL0     C25148   1.939  12.247  -0.179  0.4750  0.0874  0.1433
  183MOL0     C25149   1.818  12.308  -0.209 -0.4856 -0.0316 -0.0109
  183MOL0     C25150   1.799  12.377  -0.330 -0.4231  0.9123  0.0067
  183MOL0     C25151   1.917  12.393  -0.412  0.7090 -0.2321 -0.1413
  183MOL0     O25152   1.893  12.467  -0.527 -0.6433 -0.1755 -0.2714
  183MOL0     C25153   1.978  12.451  -0.640  0.1454 -0.0728  0.3382
  183MOL0     C25154   1.914  12.548  -0.749  0.2689  0.6917  0.7080
  183MOL0     C25155   1.783  12.499  -0.803  0.4027  0.0611 -1.0513
  183MOL0     C25156   1.735  12.584  -0.925 -0.2032  0.3740  0.0500
  183MOL0     C25157   1.595  12.524  -0.961  0.3471  0.1435  0.8291
  183MOL0     C25158   1.503  12.607  -1.050  0.4174 -0.5231  0.1863
  183MOL0     C25159   1.372  12.517  -1.070  0.3862  0.9914 -0.4621
  183MOL0     C25160   1.275  12.608  -1.142  0.3079 -1.0283 -0.1492
  183MOL0    Cl25161   1.119  12.516  -1.152  0.2127  0.3404  0.1200
  183MOL0     C25162   2.034  12.326  -0.383  0.4456 -0.2794  0.2533
  183MOL0     C25163   2.053  12.255  -0.262  0.7828 -0.0020  0.1032
  183MOL0     O25164   2.082  12.373   0.049 -0.1528 -0.6618  0.3966
  183MOL0     C25165   2.091  12.037   0.140 -0.1093  0.6086 -0.1681
  183MOL0     C25166   2.105  11.954   0.251 -0.8400  0.7217  0.0074
  183MOL0     N25167   2.722  11.806   0.431  0.8330 -0.2763 -0.5291
  183MOL0     N25168   2.774  11.713   0.368  0.3774  0.6153 -0.4016
  183MOL0     C25169   2.228  10.880   0.847 -0.5708  0.3331 -0.0428
  183MOL0     C25170   2.123  10.801   0.880  0.6355  0.3673  0.4582
  183MOL0     C25171   1.846  10.489   0.904 -0.4059 -0.2642  0.4832
  183MOL0     C25172   1.741  10.561   0.835  0.5801  0.4255  1.2414
  183MOL0     C25173   1.607  10.552   0.862  0.3055  0.0190 -0.6645
  183MOL0     C25174   1.560  10.463   0.966 -0.0731  0.0495  0.8116
  183MOL0     O25175   1.428  10.440   1.010 -0.1738 -0.6628 -0.1857
  183MOL0     C25176   1.327  10.523   0.961  0.3018  0.5611  0.0884
  183MOL0     C25177   1.189  10.518   1.037 -0.8169 -0.2141  0.1631
  183MOL0     C25178   1.189  10.599   1.159  0.3100 -0.6464 -0.0779
  183MOL0     C25179   1.301  10.588   1.271  0.6481 -0.1439 -0.1984
  183MOL0     C25180   1.239  10.658   1.391 -0.3381 -0.5584 -2.2125
  183MOL0     C25181   1.197  10.729   1.487 -1.4078  0.0018  0.2769
  183MOL0     C25182   1.660  10.385   1.029  0.0675  0.1459 -0.1948
  183MOL0     C25183   1.800  10.401   0.996 -0.0367  0.8053 -0.0716
  183MOL0     C25184   1.891  10.332   1.092  0.2142 -0.0320  0.1933
  183MOL0     H25185   2.285  10.508   0.946 -1.2773 -0.4213  0.8636
  183MOL0     H25186   2.479  10.661   0.903 -0.1285 -1.5241 -0.2546
  183MOL0     H25187   2.592  10.815   0.757 -2.3502  1.2494 -0.5129
  183MOL0     H25188   2.619  10.883   0.914 -1.8947 -0.4366  2.6140
  183MOL0     H25189   2.675  11.106   0.823  1.3286 -1.3122  1.5093
  183MOL0     H25190   2.760  10.993   0.731  0.3849  1.1893  0.0026
  183MOL0     H25191   2.612  10.995   0.549 -2.8403 -2.4275  3.3947
  183MOL0     H25192   2.507  11.114   0.625 -0.1659  0.0165 -1.4916
  183MOL0     H25193   2.740  11.248   0.647  3.4325  0.0113 -0.4308
  183MOL0     H25194   2.800  11.131   0.537 -0.0629  2.6600 -5.3098
  183MOL0     H25195   2.530  11.258   0.431  0.5417  2.5677 -0.2322
  183MOL0     H25196   2.657  11.166   0.359  0.7321 -0.5547  1.2486
  183MOL0     H25197   2.675  11.447   0.460 -0.7930 -0.8747  2.1497
  183MOL0     H25198   2.802  11.350   0.376 -0.0979 -3.6723 -0.0948
  183MOL0     H25199   2.519  11.438   0.283 -0.1277 -0.2192  1.1361
  183MOL0     H25200   2.640  11.337   0.189 -0.7919 -0.2228  2.0010
  183MOL0     H25201   2.807  11.519   0.227 -0.0610 -0.4696 -1.1552
  183MOL0     H25202   2.690  11.566   0.104  0.8023 -0.5235 -0.5694
  183MOL0     H25203   2.469  11.704   0.270 -0.2414  4.6699 -0.1905
  183MOL0     H25204   2.440  11.972   0.408 -1.5060  0.9506  1.8206
  183MOL0     H25205   2.545  11.986   0.545  0.1096  1.5542 -1.6386
  183MOL0     H25206   2.355  11.750   0.506 -0.4566  0.6006 -0.4287
  183MOL0     H25207   2.453  11.769   0.645 -0.1714 -2.8860 -2.2120
  183MOL0     H25208   2.226  11.838   0.700  0.1088 -0.7587 -2.0955
  183MOL0     H25209   2.347  11.972   0.727  0.2888 -0.0509  1.0374
  183MOL0     H25210   2.157  12.075   0.642 -0.9637 -1.0724  0.1954
  183MOL0     H25211   2.283  12.078   0.516  0.9168  1.0077  0.7420
  183MOL0     H25212   1.998  12.157   0.499 -0.7589 -0.2599 -0.6915
  183MOL0     H25213   1.891  12.389   0.261 -0.1830 -0.0716  1.0440
  183MOL0     H25214   2.068  12.402   0.325  2.1924 -3.1969 -1.4727
  183MOL0     H25215   1.932  12.352   0.427 -0.2841  0.7993 -0.2119
  183MOL0     H25216   1.734  12.301  -0.140 -0.1733  2.1050  0.6356
  183MOL0     H25217   1.701  12.413  -0.360 -3.3295 -3.8751  2.5453
  183MOL0     H25218   2.081  12.484  -0.628  0.1268  0.9883 -1.9083
  183MOL0     H25219   1.984  12.349  -0.679  0.5815  0.5681 -1.3578
  183MOL0     H25220   1.904  12.647  -0.704  1.6283  1.3647 -0.4004
  183MOL0     H25221   1.978  12.541  -0.837 -3.1553 -4.8681 -1.8970
  183MOL0     H25222   1.710  12.512  -0.723  0.9599  1.7112 -0.7664
  183MOL0     H25223   1.791  12.392  -0.822  0.3543 -0.3597  1.0696
  183MOL0     H25224   1.804  12.568  -1.008  0.2375  3.1046 -0.1991
  183MOL0     H25225   1.728  12.691  -0.903  3.1994  0.8790 -0.8511
  183MOL0     H25226   1.619  12.421  -0.986 -2.3152 -0.9012  2.1402
  183MOL0     H25227   1.543  12.504  -0.867 -0.5504  0.5125  0.4197
  183MOL0     H25228   1.545  12.620  -1.150  0.4731 -1.9117 -0.0001
  183MOL0     H25229   1.476  12.701  -1.001 -3.1201 -1.3568  0.0724
  183MOL0     H25230   1.341  12.491  -0.968  2.0321  0.7014 -0.0096
  183MOL0     H25231   1.396  12.429  -1.130  0.8695  0.0323  1.0821
  183MOL0     H25232   1.314  12.624  -1.243  1.6017 -1.2946  0.2896
  183MOL0     H25233   1.274  12.707  -1.096  3.1414 -1.0416  0.1709
  183MOL0     H25234   2.122  12.331  -0.447 -0.0070  2.9493 -0.2388
  183MOL0     H25235   2.141  12.209  -0.217  0.2707  1.9153  3.3762
  183MOL0     H25236   2.096  12.003   0.037  1.7037 -0.4506  0.2286
  183MOL0     H25237   2.131  11.856   0.214  2.3014  0.8745  1.4701
  183MOL0     H25238   2.214  10.986   0.823  1.2294  0.5408 -0.3156
  183MOL0     H25239   2.019  10.831   0.891  0.3993  0.3725 -1.4947
  183MOL0     H25240   1.785  10.634   0.767 -0.0753  1.3195  1.7546
  183MOL0     H25241   1.547  10.598   0.785  1.5438 -0.2140 -1.8106
  183MOL0     H25242   1.355  10.629   0.959 -0.1866  0.7123 -3.1014
  183MOL0     H25243   1.307  10.487   0.859 -1.8015 -0.4026  0.7676
  183MOL0     H25244   1.148  10.418   1.054  2.4140 -1.8144 -0.7137
  183MOL0     H25245   1.108  10.550   0.971  0.6192 -2.0101 -2.7194
  183MOL0     H25246   1.201  10.702   1.124  1.5889 -1.3342 -1.8183
  183MOL0     H25247   1.090  10.578   1.201  0.1075 -0.7263 -0.5860
  183MOL0     H25248   1.392  10.643   1.248 -0.3533  3.3703  3.2820
  183MOL0     H25249   1.328  10.481   1.275 -1.7701 -1.3156 -5.7678
  183MOL0     H25250   1.169  10.797   1.565  0.0584  0.0674  0.7743
  183MOL0     H25251   1.629  10.340   1.122 -4.2533  0.4344 -1.3020
  183MOL0     H25252   1.984  10.386   1.110  0.5323 -0.9347  1.3987
  183MOL0     H25253   1.850  10.321   1.193 -1.2627 -0.6929 -0.4441
  183MOL0     H25254   1.912  10.232   1.052 -1.3665 -0.5717  0.6379
  184MOL0     O25255   8.257   1.429   9.341  0.4320  0.6733 -0.3281
  184MOL0     C25256   8.343   1.346   9.349 -0.5688  0.4631  0.1714
  184MOL0     O25257   8.337   1.214   9.305 -0.8772 -0.1784  0.0445
  184MOL0     C25258   8.207   1.158   9.316 -0.0792 -0.2646 -0.4006
  184MOL0     C25259   8.106   1.196   9.229  0.1119  0.1154  0.0255
  184MOL0     C25260   7.973   1.158   9.249  0.1351  0.0348 -0.2910
  184MOL0     C25261   7.936   1.081   9.367  0.1707  0.0084  0.3915
  184MOL0     O25262   7.808   1.033   9.362 -0.0460 -0.2409 -0.7077
  184MOL0     C25263   7.806   0.899   9.406  0.4876 -0.5228 -0.4539
  184MOL0     C25264   7.672   0.829   9.389  0.3546  0.3678  0.9037
  184MOL0     C25265   7.639   0.826   9.237 -0.1562 -1.0884  0.4376
  184MOL0     C25266   7.505   0.760   9.204  0.5262  0.1780  0.1261
  184MOL0     C25267   7.437   0.825   9.091  0.9625  0.9514  0.5997
  184MOL0     C25268   7.303   0.767   9.051  0.3686 -0.2701 -0.8858
  184MOL0     C25269   7.242   0.857   8.948  0.5648 -0.3656 -0.3015
  184MOL0     C25270   7.135   0.791   8.861  0.3216  0.2715  0.7350
  184MOL0     N25271   7.018   0.754   8.942 -0.2501  1.3523  0.2722
  184MOL0     C25272   6.950   0.843   9.026  0.1099  0.6742  0.3596
  184MOL0     C25273   6.849   0.779   9.079  0.1846 -0.4875  0.4549
  184MOL0     C25274   6.739   0.831   9.160  0.3089 -0.1047 -0.0392
  184MOL0     C25275   6.628   0.901   9.073 -1.2664  0.0239 -0.0994
  184MOL0     C25276   6.504   0.935   9.167  0.2852 -0.0695  0.2152
  184MOL0     C25277   6.432   0.813   9.212  0.6747 -0.2803  0.5567
  184MOL0     O25278   6.411   0.714   9.109  0.4595 -0.0917 -0.7142
  184MOL0     C25279   6.351   0.594   9.139 -0.6021 -0.2540  0.1064
  184MOL0     C25280   6.275   0.577   9.254 -0.5153 -0.1677  0.0396
  184MOL0     C25281   6.213   0.453   9.280  0.0357  0.1230  0.6480
  184MOL0     C25282   6.138   0.446   9.401  0.4281 -0.1158 -0.3259
  184MOL0     C25283   6.223   0.347   9.199  0.5350  0.0679  0.2993
  184MOL0     C25284   6.145   0.224   9.199 -0.4287  0.8428  0.4875
  184MOL0     O25285   6.234   0.118   9.198  0.7530 -0.2020  0.2415
  184MOL0     C25286   6.168  -0.000   9.208 -0.0516 -1.1978  0.7908
  184MOL0     C25287   6.154  -0.079   9.319  0.3313 -0.3349 -0.0406
  184MOL0     C25288   6.092  -0.202   9.323 -1.0445  0.5970 -0.2692
  184MOL0     C25289   6.023  -0.250   9.211 -0.1709  0.4560  0.1972
  184MOL0     O25290   5.953  -0.362   9.208  0.1036  0.3941 -0.6381
  184MOL0     C25291   5.972  -0.465   9.306 -0.5717  0.8774 -0.1761
  184MOL0     C25292   5.876  -0.462   9.418 -0.5584  0.1250  0.0522
  184MOL0     C25293   5.744  -0.504   9.354  0.5111 -0.6804 -0.6941
  184MOL0     C25294   5.633  -0.466   9.450 -0.1393  0.3386 -0.0104
  184MOL0     C25295   5.502  -0.519   9.406  0.6411  0.1674 -0.1048
  184MOL0     C25296   5.400  -0.520   9.517 -0.1507 -0.6200 -0.3874
  184MOL0     C25297   5.276  -0.606   9.488 -0.7843  0.2291  0.4704
  184MOL0     C25298   5.202  -0.623   9.620 -0.1442  0.8736 -0.2413
  184MOL0    Cl25299   5.043  -0.694   9.605  0.4063  0.5355 -0.8677
  184MOL0     C25300   6.031  -0.165   9.098 -0.4578  0.1914 -0.2330
  184MOL0     C25301   6.109  -0.048   9.090 -0.4539 -0.9085  0.2510
  184MOL0     O25302   6.022   0.227   9.210  0.2068  0.3662  0.7614
  184MOL0     C25303   6.318   0.356   9.091 -1.1283 -0.4480  0.4349
  184MOL0     C25304   6.381   0.480   9.065 -0.6000 -0.1704 -0.1514
  184MOL0     N25305   6.847   0.651   9.023  0.4257 -0.2449 -0.1233
  184MOL0     N25306   6.941   0.642   8.936  0.7233  0.1015 -0.3317
  184MOL0     C25307   8.042   1.050   9.459  0.5292  0.2263 -0.9035
  184MOL0     C25308   8.172   1.089   9.433 -0.6155  0.1554 -0.4978
  184MOL0     C25309   8.476   1.391   9.414  0.3731  0.0567 -0.4824
  184MOL0     C25310   8.587   1.333   9.345  0.3724 -0.1927 -0.1077
  184MOL0     C25311   8.712   1.372   9.373  0.6323 -0.2597  0.2091
  184MOL0     C25312   8.734   1.464   9.475 -0.0735 -0.6613 -0.7202
  184MOL0     O25313   8.870   1.480   9.496 -0.0785 -0.3092  0.2068
  184MOL0     C25314   8.903   1.617   9.490 -0.0656  0.3525  0.9196
  184MOL0     C25315   9.046   1.640   9.440 -1.1319  0.4366  0.6744
  184MOL0     C25316   9.056   1.606   9.294 -0.7283 -0.5403  0.0763
  184MOL0     C25317   9.202   1.609   9.251  0.3485 -0.7577  0.2038
  184MOL0     C25318   9.214   1.599   9.102  0.1054 -0.7616 -0.2400
  184MOL0     C25319   9.225   1.581   8.981 -0.0297 -1.1456 -0.4401
  184MOL0     C25320   8.625   1.529   9.541 -0.3161 -0.1491  0.5938
  184MOL0     C25321   8.496   1.488   9.515 -0.0266 -0.2388  0.9868
  184MOL0     C25322   8.375   1.552   9.583 -0.6074 -0.0617 -0.3246
  184MOL0     H25323   8.136   1.256   9.144 -0.3808  2.7831  1.6050
  184MOL0     H25324   7.912   1.176   9.161  0.4559 -3.1015 -1.2917
  184MOL0     H25325   7.834   0.882   9.510 -1.0988  1.7255  0.3954
  184MOL0     H25326   7.884   0.849   9.347 -0.9145 -0.5219 -2.4368
  184MOL0     H25327   7.672   0.726   9.428  0.8007 -0.3853 -0.9955
  184MOL0     H25328   7.587   0.875   9.442 -0.8435  0.6957 -1.1999
  184MOL0     H25329   7.632   0.927   9.196 -4.1625 -1.7560 -1.0342
  184MOL0     H25330   7.720   0.770   9.189 -0.0046 -2.9292  2.6444
  184MOL0     H25331   7.512   0.651   9.200  0.0021  0.1738 -1.2869
  184MOL0     H25332   7.446   0.772   9.295  0.2695 -0.2291  0.0135
  184MOL0     H25333   7.498   0.822   9.000  0.3954 -2.8727  0.1983
  184MOL0     H25334   7.427   0.932   9.114  0.4405  1.8069 -3.0063
  184MOL0     H25335   7.317   0.663   9.022  1.4260 -0.6594  0.8493
  184MOL0     H25336   7.241   0.772   9.142  1.4581  1.0707 -0.1627
  184MOL0     H25337   7.321   0.894   8.883  2.1281  0.3749  1.9208
  184MOL0     H25338   7.202   0.950   8.988 -0.1962 -0.7381 -0.1797
  184MOL0     H25339   7.093   0.869   8.796 -0.2637  1.9999  3.0584
  184MOL0     H25340   7.181   0.712   8.801 -0.1723  0.4926  0.0435
  184MOL0     H25341   6.967   0.949   9.037  1.0303  1.0757 -3.5343
  184MOL0     H25342   6.764   0.899   9.242  0.2215  2.9356 -2.3508
  184MOL0     H25343   6.698   0.741   9.207  2.3908 -0.2332  1.6846
  184MOL0     H25344   6.676   0.996   9.049 -1.2379 -0.2844 -1.3441
  184MOL0     H25345   6.613   0.852   8.976  1.2955  1.3461 -1.2583
  184MOL0     H25346   6.531   0.989   9.258 -0.5800  1.9136 -0.6220
  184MOL0     H25347   6.443   1.014   9.121  0.2156  1.1993  2.3716
  184MOL0     H25348   6.499   0.771   9.289  4.7341  0.6880 -2.1143
  184MOL0     H25349   6.339   0.853   9.253 -0.0553 -0.9797 -0.3743
  184MOL0     H25350   6.271   0.653   9.331  1.3983 -0.7141  0.7373
  184MOL0     H25351   6.191   0.450   9.496  1.3817 -1.6653 -0.7483
  184MOL0     H25352   6.076   0.356   9.409  2.5077 -1.5813  0.3794
  184MOL0     H25353   6.072   0.533   9.400  0.0211 -0.2690  2.9330
  184MOL0     H25354   6.185  -0.042   9.417 -0.8799  0.3760  0.0957
  184MOL0     H25355   6.079  -0.259   9.414 -2.6771 -3.5196 -2.7836
  184MOL0     H25356   5.979  -0.564   9.259 -2.7626  1.5324 -2.0795
  184MOL0     H25357   6.071  -0.463   9.351 -0.5004 -1.9956 -0.0573
  184MOL0     H25358   5.900  -0.541   9.490  0.2494 -1.2521 -1.6482
  184MOL0     H25359   5.873  -0.360   9.459 -2.2459 -0.0244  0.3799
  184MOL0     H25360   5.732  -0.613   9.355 -2.2146 -0.4413  0.2590
  184MOL0     H25361   5.727  -0.456   9.257 -0.6857  5.0081  1.9332
  184MOL0     H25362   5.623  -0.357   9.456  0.1583  0.2980  4.7992
  184MOL0     H25363   5.658  -0.507   9.548  1.0195  0.6582 -0.1633
  184MOL0     H25364   5.476  -0.452   9.324 -2.4174 -0.4282  0.2619
  184MOL0     H25365   5.499  -0.613   9.350 -1.3687  3.0233 -5.4749
  184MOL0     H25366   5.382  -0.414   9.537  4.7386  0.3168  0.2533
  184MOL0     H25367   5.452  -0.560   9.605  1.6689 -2.9096 -2.3424
  184MOL0     H25368   5.316  -0.703   9.459  4.0008  1.7321  1.1758
  184MOL0     H25369   5.209  -0.566   9.410  0.6010 -1.2735 -1.5934
  184MOL0     H25370   5.204  -0.527   9.671  1.7444  1.1281 -0.7255
  184MOL0     H25371   5.258  -0.696   9.680  0.0963  0.1940 -1.2634
  184MOL0     H25372   5.984  -0.192   9.004  0.3279  0.5710 -0.7365
  184MOL0     H25373   6.110  -0.009   8.988  1.8428  0.9738  0.8864
  184MOL0     H25374   6.330   0.268   9.028 -1.7546 -2.1513  2.5763
  184MOL0     H25375   6.434   0.491   8.971 -0.5877  2.0487  0.0688
  184MOL0     H25376   8.020   1.002   9.554  2.5576 -1.2387 -1.0952
  184MOL0     H25377   8.247   1.062   9.507  0.3454  0.2487 -1.4223
  184MOL0     H25378   8.564   1.263   9.265 -1.5953  0.4032 -0.1210
  184MOL0     H25379   8.800   1.338   9.320 -1.0869 -1.4687 -2.0369
  184MOL0     H25380   8.831   1.674   9.430 -0.9835 -0.6351  1.0534
  184MOL0     H25381   8.891   1.664   9.588  0.4953  0.5616  0.8900
  184MOL0     H25382   9.117   1.576   9.494 -0.1144  1.5764  0.7330
  184MOL0     H25383   9.083   1.741   9.461  1.0668 -0.1150 -0.2892
  184MOL0     H25384   9.023   1.503   9.277 -1.8186 -0.7981  3.1146
  184MOL0     H25385   8.997   1.676   9.234  0.8817  2.4759  1.7697
  184MOL0     H25386   9.265   1.531   9.297  1.5410 -0.6285 -1.1441
  184MOL0     H25387   9.244   1.703   9.288  0.0128  0.1494 -1.6584
  184MOL0     H25388   9.227   1.552   8.878  4.1659 -4.2053  0.2401
  184MOL0     H25389   8.633   1.606   9.616 -0.9153 -0.7274  1.2642
  184MOL0     H25390   8.316   1.463   9.610  0.3792 -1.0197 -1.2347
  184MOL0     H25391   8.406   1.599   9.676 -0.0117 -1.9256  0.4831
  184MOL0     H25392   8.322   1.622   9.518 -1.0276  1.8870  2.0068
  185MOL0     O25393   8.977   6.497   0.709 -0.2081 -0.4163  0.1276
  185MOL0     C25394   8.877   6.564   0.726  0.1755  0.7865  0.3811
  185MOL0     O25395   8.791   6.590   0.628 -0.1226  0.3858 -0.3718
  185MOL0     C25396   8.816   6.573   0.496  0.7221  0.4051  0.4213
  185MOL0     C25397   8.929   6.521   0.437 -0.5258  1.2602  1.8473
  185MOL0     C25398   8.950   6.503   0.298  0.4746 -0.1134  1.1068
  185MOL0     C25399   8.841   6.552   0.208 -1.0399  1.0781  0.2114
  185MOL0     O25400   8.853   6.548   0.071 -0.7290 -0.5959  0.0008
  185MOL0     C25401   8.738   6.566  -0.009 -0.1467 -0.0672  0.6953
  185MOL0     C25402   8.795   6.558  -0.148  0.0802 -0.4846 -0.6044
  185MOL0     C25403   8.851   6.427  -0.185 -0.7229 -1.2356  0.0235
  185MOL0     C25404   8.870   6.404  -0.335 -0.3008  0.7174 -0.4393
  185MOL0     C25405   8.920   6.509  -0.420 -0.9284 -0.6237 -0.5364
  185MOL0     C25406   8.939   6.473  -0.573  0.1553 -0.1176  0.1352
  185MOL0     C25407   8.976   6.610  -0.644  0.1795 -0.8167 -0.6723
  185MOL0     C25408   9.004   6.571  -0.791  0.1497 -0.3206  1.3401
  185MOL0     N25409   9.145   6.533  -0.803 -0.1909 -0.0876 -0.2750
  185MOL0     C25410   9.244   6.617  -0.785 -0.7253 -0.2741  0.4949
  185MOL0     C25411   9.356   6.543  -0.802  0.0285  0.2532  0.8020
  185MOL0     C25412   9.497   6.593  -0.777  0.8563  0.5101  0.9893
  185MOL0     C25413   9.589   6.479  -0.717  1.2284  0.4342  0.3153
  185MOL0     C25414   9.735   6.478  -0.759 -0.2270 -0.4418 -0.2369
  185MOL0     C25415   9.804   6.603  -0.727 -0.2066  0.0650  0.5803
  185MOL0     O25416   9.795   6.643  -0.594 -0.5153 -0.5998 -0.0411
  185MOL0     C25417   9.839   6.774  -0.559 -0.3810  0.2043  0.4072
  185MOL0     C25418   9.925   6.855  -0.632 -0.1773 -0.1395 -0.2297
  185MOL0     C25419   9.985   6.974  -0.587  0.6056  0.2648  0.4813
  185MOL0     C25420  10.084   7.043  -0.679  0.5937 -0.0149 -0.6670
  185MOL0     C25421   9.941   7.025  -0.470 -1.3548 -0.5246  0.0300
  185MOL0     C25422   9.975   7.157  -0.406 -0.4337 -0.3996  0.2378
  185MOL0     O25423   9.978   7.168  -0.270 -0.0434 -0.8209  0.6323
  185MOL0     C25424  10.028   7.285  -0.216  0.3532  0.4989 -0.0006
  185MOL0     C25425  10.132   7.363  -0.282  0.9222  0.6280  0.8283
  185MOL0     C25426  10.205   7.460  -0.211  1.1221  0.6990  0.4798
  185MOL0     C25427  10.179   7.484  -0.076  0.0524  0.8687 -0.5919
  185MOL0     O25428  10.257   7.566  -0.001  0.1457  0.3056 -0.5970
  185MOL0     C25429  10.218   7.706  -0.007  0.5402 -0.0988 -0.0604
  185MOL0     C25430  10.276   7.783   0.112  0.1355 -0.5410  0.5827
  185MOL0     C25431  10.430   7.784   0.106 -0.5230 -0.1083  0.2592
  185MOL0     C25432  10.483   7.875   0.215 -0.8501  0.0249 -0.2080
  185MOL0     C25433  10.648   7.858   0.235  0.0901 -0.0064 -0.5426
  185MOL0     C25434  10.675   7.916   0.380 -0.4200  0.7835 -0.0353
  185MOL0     C25435  10.824   7.892   0.414  0.6355 -0.1849  0.6162
  185MOL0     C25436  10.862   7.752   0.396 -0.2625  0.3683  0.1197
  185MOL0    Cl25437  11.027   7.719   0.453  0.3227  0.3191 -0.4978
  185MOL0     C25438  10.069   7.412  -0.009  0.5461  0.8611 -0.2330
  185MOL0     C25439  10.001   7.313  -0.080  0.7675 -0.3456  0.7654
  185MOL0     O25440   9.970   7.253  -0.489  0.2970  0.4524 -0.9659
  185MOL0     C25441   9.856   6.941  -0.394  0.7902 -0.5094 -0.4782
  185MOL0     C25442   9.800   6.825  -0.438 -0.1906  0.9815  1.1588
  185MOL0     N25443   9.318   6.410  -0.839 -0.8947 -0.4806 -0.7457
  185MOL0     N25444   9.189   6.403  -0.832  0.0579  0.1493  0.5100
  185MOL0     C25445   8.727   6.607   0.269 -0.2748  0.2108  0.0735
  185MOL0     C25446   8.718   6.617   0.410 -0.3935 -0.2131  0.7197
  185MOL0     C25447   8.849   6.620   0.868 -0.6408 -0.2464 -0.2477
  185MOL0     C25448   8.742   6.706   0.882 -0.2017  0.4985  0.1988
  185MOL0     C25449   8.724   6.793   0.991 -0.3201  0.2389  0.4121
  185MOL0     C25450   8.815   6.790   1.095 -0.0038  0.5595 -0.2562
  185MOL0     O25451   8.797   6.871   1.199  0.1027 -0.1251  0.7946
  185MOL0     C25452   8.677   6.944   1.224 -0.1335  0.2771  0.1265
  185MOL0     C25453   8.664   6.995   1.369  1.0043 -0.4750  0.0492
  185MOL0     C25454   8.529   7.074   1.397  0.1572  0.2267  0.0846
  185MOL0     C25455   8.507   7.095   1.547 -0.6541  1.3430  1.2400
  185MOL0     C25456   8.441   7.226   1.577 -0.8152 -0.2593  0.3563
  185MOL0     C25457   8.400   7.339   1.603 -0.2849  0.4529 -0.1973
  185MOL0     C25458   8.926   6.710   1.098  0.2650 -0.0787 -0.1723
  185MOL0     C25459   8.935   6.617   0.989 -0.1577  0.0704  0.7870
  185MOL0     C25460   9.046   6.515   0.996 -0.2687  0.3089  0.1157
  185MOL0     H25461   9.023   6.491   0.483  1.3499  2.2350 -1.0927
  185MOL0     H25462   9.042   6.471   0.250  0.7015 -0.2491  1.6288
  185MOL0     H25463   8.686   6.659   0.014  1.9899  1.2728  0.4163
  185MOL0     H25464   8.671   6.484   0.018 -0.7042  0.7185  1.7335
  185MOL0     H25465   8.714   6.597  -0.209  0.8604  2.3684  0.0304
  185MOL0     H25466   8.872   6.635  -0.159 -1.6031  1.3683  0.0571
  185MOL0     H25467   8.945   6.416  -0.130 -0.6489 -0.4067  0.0781
  185MOL0     H25468   8.790   6.344  -0.147  2.6055 -4.1955 -0.5575
  185MOL0     H25469   8.940   6.323  -0.356 -3.8803 -2.4567 -1.3179
  185MOL0     H25470   8.767   6.382  -0.367 -0.4236 -0.7188  0.8236
  185MOL0     H25471   9.020   6.533  -0.382 -1.1938  0.2748 -0.3760
  185MOL0     H25472   8.868   6.603  -0.399  3.1162  1.2901  2.1764
  185MOL0     H25473   9.019   6.399  -0.581  0.7921  0.5558  0.2012
  185MOL0     H25474   8.848   6.429  -0.616  2.4303 -3.3872 -1.8213
  185MOL0     H25475   9.059   6.655  -0.589 -0.6869 -1.2316  1.0150
  185MOL0     H25476   8.896   6.684  -0.634  0.4734 -0.3394 -1.6981
  185MOL0     H25477   8.939   6.491  -0.829 -2.7454  2.0457  0.9231
  185MOL0     H25478   8.991   6.660  -0.854  2.8548 -0.4583  0.4530
  185MOL0     H25479   9.241   6.723  -0.762 -0.1155 -0.6266  2.3727
  185MOL0     H25480   9.487   6.671  -0.700 -0.2242  1.5932 -0.2006
  185MOL0     H25481   9.538   6.639  -0.867 -2.7434 -1.0882 -1.7417
  185MOL0     H25482   9.583   6.485  -0.608 -0.8473 -2.4569  0.4692
  185MOL0     H25483   9.554   6.380  -0.747  1.6166  0.0932  0.9726
  185MOL0     H25484   9.777   6.401  -0.693  2.8812  2.9098  2.0412
  185MOL0     H25485   9.752   6.446  -0.862  1.3366  1.5591 -0.6501
  185MOL0     H25486   9.908   6.584  -0.754 -0.3640 -0.2639  0.1934
  185MOL0     H25487   9.762   6.685  -0.785 -1.6296  0.9844  2.7823
  185MOL0     H25488   9.966   6.819  -0.726 -1.9312 -0.9446 -0.7466
  185MOL0     H25489  10.158   7.087  -0.612  1.0993 -0.0599 -1.1903
  185MOL0     H25490  10.052   7.122  -0.748 -0.4214 -2.3833 -3.0984
  185MOL0     H25491  10.133   6.972  -0.746  3.8126  1.3477  0.0529
  185MOL0     H25492  10.166   7.354  -0.385 -1.4627  0.8786 -0.0612
  185MOL0     H25493  10.280   7.521  -0.260  1.3276  0.8308  0.9551
  185MOL0     H25494  10.240   7.757  -0.101 -1.0571  0.3736 -0.2256
  185MOL0     H25495  10.109   7.713   0.000  0.7745  2.7608  4.2699
  185MOL0     H25496  10.243   7.888   0.108  0.4355 -0.4614  0.0233
  185MOL0     H25497  10.254   7.740   0.210  3.7913 -1.7084  1.0668
  185MOL0     H25498  10.484   7.809   0.015  3.5313 -1.0651  2.1887
  185MOL0     H25499  10.469   7.684   0.125  2.1272  0.8328  0.2344
  185MOL0     H25500  10.439   7.845   0.310  3.2535 -1.7394  1.3476
  185MOL0     H25501  10.460   7.981   0.200 -1.7222  0.1890  1.9425
  185MOL0     H25502  10.674   7.752   0.227  0.3573  0.1125 -1.3626
  185MOL0     H25503  10.696   7.918   0.158 -0.7844 -0.3270 -1.3656
  185MOL0     H25504  10.611   7.879   0.461  1.9309 -0.2717  1.4627
  185MOL0     H25505  10.669   8.026   0.379  0.3742  0.8300 -0.0641
  185MOL0     H25506  10.842   7.909   0.521  0.9635  2.8813  0.1540
  185MOL0     H25507  10.876   7.964   0.352 -0.3405  1.1752  1.3160
  185MOL0     H25508  10.870   7.736   0.288 -1.4539  0.2116  0.0451
  185MOL0     H25509  10.789   7.684   0.441 -1.3638  0.5424 -1.3523
  185MOL0     H25510  10.044   7.433   0.095 -0.2711  0.7152 -0.3949
  185MOL0     H25511   9.930   7.245  -0.034 -1.7045  0.9704 -0.8943
  185MOL0     H25512   9.809   6.984  -0.306  1.1535 -1.9320  0.4591
  185MOL0     H25513   9.723   6.782  -0.375 -0.5676  4.6012  3.5145
  185MOL0     H25514   8.633   6.630   0.219  0.4766  0.3885 -1.3107
  185MOL0     H25515   8.631   6.666   0.452  1.2885  3.6238  0.1350
  185MOL0     H25516   8.688   6.732   0.792  0.3418  3.0778  0.5459
  185MOL0     H25517   8.659   6.878   0.972  0.5761  0.7899 -0.2796
  185MOL0     H25518   8.646   7.018   1.149 -1.6511  0.5025  0.9328
  185MOL0     H25519   8.593   6.875   1.212  1.0326 -0.8968 -2.0025
  185MOL0     H25520   8.757   7.048   1.392  0.5894  1.7811 -2.8333
  185MOL0     H25521   8.673   6.916   1.444  0.1545 -0.2216  0.4381
  185MOL0     H25522   8.533   7.174   1.351  1.3659  2.1658  3.9711
  185MOL0     H25523   8.442   7.019   1.361  0.9304 -2.3448  1.8181
  185MOL0     H25524   8.599   7.095   1.607 -0.8886  1.3883  1.6065
  185MOL0     H25525   8.443   7.010   1.573 -1.8065  2.0077  0.6279
  185MOL0     H25526   8.375   7.428   1.657  1.1852 -0.4104  2.0525
  185MOL0     H25527   9.006   6.721   1.169  2.6292  0.1224 -2.7095
  185MOL0     H25528   9.002   6.420   0.962  1.4729 -0.3280 -0.4757
  185MOL0     H25529   9.129   6.529   0.927 -0.6930 -1.3104 -0.7743
  185MOL0     H25530   9.090   6.504   1.095 -2.6870 -0.0123  1.2239
  186MOL0     O25531   1.430   6.642   9.392  0.1916  0.2550 -0.5372
  186MOL0     C25532   1.431   6.682   9.276  0.2661  0.0113  0.5175
  186MOL0     O25533   1.517   6.646   9.172  0.3672 -0.1802 -0.1318
  186MOL0     C25534   1.636   6.597   9.217 -0.7443 -0.3948  0.2550
  186MOL0     C25535   1.749   6.674   9.204  0.1390 -0.0551  0.1485
  186MOL0     C25536   1.871   6.623   9.260 -0.3326 -0.2319 -0.0100
  186MOL0     C25537   1.877   6.508   9.334 -0.8659 -0.4626  0.0727
  186MOL0     O25538   1.999   6.476   9.382  0.3481  0.2186 -0.3535
  186MOL0     C25539   2.059   6.377   9.291 -0.3803 -0.5371  0.4735
  186MOL0     C25540   2.172   6.458   9.231  0.1935 -0.0103  0.7340
  186MOL0     C25541   2.269   6.355   9.162  0.5458 -0.0517  0.7904
  186MOL0     C25542   2.407   6.427   9.125  0.5026  0.0009  0.1499
  186MOL0     C25543   2.526   6.343   9.106  0.7215 -0.5132 -0.4306
  186MOL0     C25544   2.649   6.428   9.075 -0.9816 -0.3907  2.1222
  186MOL0     C25545   2.766   6.330   9.078  0.3014 -0.1257  0.2011
  186MOL0     C25546   2.889   6.406   9.036 -0.3747 -0.4630  0.4948
  186MOL0     N25547   3.004   6.314   9.017  0.2820  0.0164  0.5271
  186MOL0     C25548   3.125   6.313   9.081  0.4826  0.0534 -0.2238
  186MOL0     C25549   3.212   6.218   9.031 -0.1150 -0.1543 -0.2010
  186MOL0     C25550   3.344   6.170   9.098 -0.2131  0.0590 -0.2614
  186MOL0     C25551   3.335   6.071   9.216  0.4003  0.4497 -0.3296
  186MOL0     C25552   3.464   6.019   9.269  0.1338  0.3760  0.4252
  186MOL0     C25553   3.521   5.910   9.182  0.5734 -0.3795  0.1611
  186MOL0     O25554   3.454   5.794   9.221  0.5624 -0.4655  0.0746
  186MOL0     C25555   3.351   5.737   9.147  0.8628  0.7207 -0.4154
  186MOL0     C25556   3.341   5.721   9.007 -0.6316  0.0628 -0.8788
  186MOL0     C25557   3.233   5.643   8.950 -0.0365  0.1213  0.0876
  186MOL0     C25558   3.200   5.662   8.808  0.2329  0.2174  0.3288
  186MOL0     C25559   3.150   5.566   9.036 -0.0407 -0.2587  0.2100
  186MOL0     C25560   3.040   5.493   8.981 -0.1819  0.4312  0.9635
  186MOL0     O25561   2.936   5.474   9.063  0.4283 -0.3532 -0.7333
  186MOL0     C25562   2.842   5.385   9.039 -0.7510 -0.3224  0.2175
  186MOL0     C25563   2.734   5.408   8.967  0.8891 -0.8305 -0.2926
  186MOL0     C25564   2.634   5.304   8.963 -0.0538  0.4084  0.6567
  186MOL0     C25565   2.639   5.186   9.030 -0.6715  0.1993  0.8128
  186MOL0     O25566   2.544   5.085   9.012  0.3671 -0.6046 -0.4575
  186MOL0     C25567   2.582   4.948   9.053  0.1245  0.1315  0.1035
  186MOL0     C25568   2.451   4.861   9.066 -0.0210 -0.4803  0.7576
  186MOL0     C25569   2.408   4.782   8.937  0.0417  0.3119  0.8858
  186MOL0     C25570   2.502   4.675   8.899  1.1393 -0.3054  1.2857
  186MOL0     C25571   2.470   4.600   8.767  0.8995  0.3426 -0.0957
  186MOL0     C25572   2.434   4.457   8.793  1.3724 -0.4093 -0.0532
  186MOL0     C25573   2.342   4.389   8.693 -0.0003  0.0893  0.2917
  186MOL0     C25574   2.299   4.246   8.726 -0.4730 -0.9399 -0.5532
  186MOL0    Cl25575   2.236   4.153   8.588  0.6400  0.2516 -0.0266
  186MOL0     C25576   2.768   5.165   9.096 -0.7968  0.1640  0.2458
  186MOL0     C25577   2.858   5.263   9.099  0.5078 -0.5020 -0.7483
  186MOL0     O25578   3.038   5.449   8.863 -0.5511 -0.4166  0.3447
  186MOL0     C25579   3.167   5.579   9.180  0.0880  0.3263  0.3742
  186MOL0     C25580   3.265   5.658   9.230 -0.4154  0.1303  0.0059
  186MOL0     N25581   3.140   6.160   8.936  0.0012  0.0023 -0.0797
  186MOL0     N25582   3.018   6.209   8.926 -0.7379 -0.5119 -0.3017
  186MOL0     C25583   1.760   6.431   9.349 -0.1699  0.3784 -0.2454
  186MOL0     C25584   1.646   6.470   9.291 -0.7833 -0.0834 -0.0668
  186MOL0     C25585   1.311   6.769   9.240 -1.3220 -0.1092 -0.0874
  186MOL0     C25586   1.340   6.880   9.162  0.4995  1.1719 -0.2741
  186MOL0     C25587   1.230   6.967   9.125 -1.1446 -0.4639  0.1052
  186MOL0     C25588   1.103   6.954   9.174 -0.6767 -1.0375 -0.8582
  186MOL0     O25589   1.008   7.050   9.150 -0.2493 -0.4437  0.4342
  186MOL0     C25590   0.869   7.030   9.183  0.2044  0.6967 -0.0345
  186MOL0     C25591   0.777   7.127   9.114  0.2385  0.4040  1.4972
  186MOL0     C25592   0.747   7.077   8.970 -0.5044 -0.8268 -0.7205
  186MOL0     C25593   0.636   6.980   8.962 -0.6575 -0.1829  0.5386
  186MOL0     C25594   0.640   6.927   8.831 -0.3977 -0.2443  0.0738
  186MOL0     C25595   0.635   6.887   8.721  0.0147 -0.3291 -1.1734
  186MOL0     C25596   1.078   6.846   9.258  0.0185 -0.0410 -0.0946
  186MOL0     C25597   1.174   6.748   9.291  0.0865  0.4287  0.4216
  186MOL0     C25598   1.131   6.633   9.375  0.1515  0.5953 -0.4565
  186MOL0     H25599   1.744   6.775   9.164  1.0849 -1.1534 -2.9916
  186MOL0     H25600   1.958   6.687   9.254  0.6269 -1.3902  1.0636
  186MOL0     H25601   1.992   6.349   9.209 -1.1793  1.2894  0.4645
  186MOL0     H25602   2.086   6.284   9.342 -0.0021 -1.1827 -0.8522
  186MOL0     H25603   2.134   6.532   9.160  0.3616 -1.4701 -0.9488
  186MOL0     H25604   2.225   6.513   9.310 -2.3184  2.0572  1.0953
  186MOL0     H25605   2.284   6.267   9.226  3.2127  0.3629  0.8695
  186MOL0     H25606   2.229   6.321   9.066  2.3657  0.3480 -0.1461
  186MOL0     H25607   2.393   6.503   9.048 -1.1912  0.7551  1.1390
  186MOL0     H25608   2.431   6.493   9.209 -0.0816 -0.2413  0.5160
  186MOL0     H25609   2.502   6.274   9.025  0.3244  0.2000 -0.9427
  186MOL0     H25610   2.539   6.291   9.202 -1.1658  1.0995  0.7796
  186MOL0     H25611   2.632   6.484   8.982  0.1513  0.2283  2.2639
  186MOL0     H25612   2.660   6.489   9.166 -1.3818 -1.0245  2.5957
  186MOL0     H25613   2.766   6.234   9.026 -2.1637  0.3784 -0.8843
  186MOL0     H25614   2.782   6.303   9.183  0.6895 -3.0046 -0.5070
  186MOL0     H25615   2.856   6.449   8.941  0.1864 -1.2134 -0.0572
  186MOL0     H25616   2.920   6.487   9.102  4.4725 -0.1787 -1.7027
  186MOL0     H25617   3.164   6.367   9.167  0.0350 -3.7991  2.6453
  186MOL0     H25618   3.410   6.255   9.120 -0.0947 -0.3162  0.9325
  186MOL0     H25619   3.404   6.117   9.024  3.7391  1.0070  2.0006
  186MOL0     H25620   3.283   6.115   9.301  0.1898  0.2997 -0.3810
  186MOL0     H25621   3.270   5.992   9.177  0.6478 -0.3604  0.8327
  186MOL0     H25622   3.535   6.102   9.280  0.1608  0.5133 -0.6611
  186MOL0     H25623   3.439   5.980   9.368  0.9706  0.6979  0.7682
  186MOL0     H25624   3.518   5.931   9.075 -1.6941  1.7358  0.5456
  186MOL0     H25625   3.624   5.909   9.220  0.7635  1.1302 -0.2623
  186MOL0     H25626   3.405   5.782   8.943  0.3346 -0.3750 -0.3428
  186MOL0     H25627   3.209   5.581   8.734  1.5941  0.2016  0.4735
  186MOL0     H25628   3.269   5.739   8.774  2.5305 -2.8162 -2.6120
  186MOL0     H25629   3.096   5.692   8.799  0.2780 -0.1200 -1.7250
  186MOL0     H25630   2.727   5.501   8.912  2.3535  0.7905  2.1118
  186MOL0     H25631   2.544   5.319   8.905 -1.0485  2.9986  2.6870
  186MOL0     H25632   2.651   4.901   8.982 -2.2166 -1.5393 -1.2076
  186MOL0     H25633   2.635   4.950   9.148 -1.5580 -1.1983  1.1327
  186MOL0     H25634   2.449   4.785   9.144 -1.7313 -2.4672 -1.0968
  186MOL0     H25635   2.378   4.941   9.083  0.6104 -0.1934  2.3065
  186MOL0     H25636   2.406   4.860   8.860  0.5460  1.1565  1.7006
  186MOL0     H25637   2.312   4.738   8.964 -0.1123 -0.8223 -1.2488
  186MOL0     H25638   2.509   4.600   8.977 -0.8932 -1.5756  0.3487
  186MOL0     H25639   2.603   4.709   8.873  1.7233 -3.7379 -1.7145
  186MOL0     H25640   2.382   4.648   8.723 -0.4546 -3.3062 -1.7802
  186MOL0     H25641   2.548   4.612   8.690 -0.0209  1.5719 -0.8786
  186MOL0     H25642   2.383   4.449   8.890 -1.0372  1.4217 -1.0647
  186MOL0     H25643   2.531   4.406   8.790  1.8095  0.3889  0.2730
  186MOL0     H25644   2.396   4.375   8.599  2.6453 -2.9705  2.0605
  186MOL0     H25645   2.251   4.449   8.688 -0.1648 -0.0582  1.2229
  186MOL0     H25646   2.219   4.245   8.800  0.6156 -0.6308  0.6670
  186MOL0     H25647   2.389   4.211   8.778  1.2087  4.3628  0.8412
  186MOL0     H25648   2.795   5.066   9.131 -1.2945 -0.8991 -2.1683
  186MOL0     H25649   2.948   5.237   9.154  0.5703 -1.9427 -1.4843
  186MOL0     H25650   3.101   5.527   9.249  0.7169  0.8707  1.3982
  186MOL0     H25651   3.281   5.667   9.337  2.5936 -0.8187 -0.2634
  186MOL0     H25652   1.774   6.347   9.416  0.1494  0.0577 -0.7095
  186MOL0     H25653   1.554   6.411   9.293  0.2137 -1.7618 -1.1460
  186MOL0     H25654   1.442   6.903   9.133  0.6251  0.5377 -0.3441
  186MOL0     H25655   1.260   7.057   9.072 -2.4675  0.4591  0.8610
  186MOL0     H25656   0.835   6.932   9.151 -1.6105  1.0023  0.8683
  186MOL0     H25657   0.847   7.045   9.289 -0.7209  5.0897 -0.6202
  186MOL0     H25658   0.829   7.224   9.115  2.4152 -0.6537 -0.0825
  186MOL0     H25659   0.685   7.148   9.168  0.7610  2.0919  1.7929
  186MOL0     H25660   0.726   7.171   8.918 -1.5537 -1.5274 -1.6058
  186MOL0     H25661   0.841   7.045   8.924  2.5706  2.5176  2.5417
  186MOL0     H25662   0.546   7.027   9.003 -1.5590 -2.4334  1.2635
  186MOL0     H25663   0.645   6.892   9.025 -2.5960 -0.1811  0.8720
  186MOL0     H25664   0.627   6.857   8.618  0.4760 -0.3791 -1.1998
  186MOL0     H25665   0.974   6.837   9.287  0.3041 -0.1147  0.9160
  186MOL0     H25666   1.035   6.586   9.352  0.8532 -1.0726 -0.1443
  186MOL0     H25667   1.193   6.545   9.354 -2.9045 -1.1134 -3.3144
  186MOL0     H25668   1.134   6.670   9.478 -0.9353 -0.1471 -0.1406
  187MOL0     O25669   4.425   4.939   0.392  0.1598 -0.2711  0.6252
  187MOL0     C25670   4.538   4.921   0.440 -0.1392 -0.1100  0.5490
  187MOL0     O25671   4.665   4.974   0.392 -0.0444  0.2957 -0.2548
  187MOL0     C25672   4.673   5.045   0.277  0.9108 -0.8057  0.6497
  187MOL0     C25673   4.616   5.001   0.152 -0.1834  0.0850  0.6007
  187MOL0     C25674   4.659   5.060   0.027  0.2923  0.7852 -0.5206
  187MOL0     C25675   4.750   5.173   0.022  0.3824  0.3773 -0.3665
  187MOL0     O25676   4.768   5.232  -0.096 -0.2323 -0.0999  0.2989
  187MOL0     C25677   4.899   5.221  -0.150 -0.0047 -0.2237 -0.6659
  187MOL0     C25678   4.937   5.324  -0.257 -1.0802 -0.0236 -0.2557
  187MOL0     C25679   4.968   5.462  -0.202  0.4858  0.2382 -0.1405
  187MOL0     C25680   4.880   5.520  -0.089 -0.3219 -0.4238  0.0194
  187MOL0     C25681   4.887   5.674  -0.084  0.4046  1.2418  0.1655
  187MOL0     C25682   4.818   5.738  -0.205  0.5676 -0.1393  0.0746
  187MOL0     C25683   4.788   5.893  -0.187  0.1104 -0.9048  0.3706
  187MOL0     C25684   4.684   5.923  -0.079 -0.4709 -0.4463 -0.3992
  187MOL0     N25685   4.628   6.062  -0.082  0.1961  0.1408  0.0250
  187MOL0     C25686   4.593   6.143  -0.187 -0.4539 -1.3277  0.1974
  187MOL0     C25687   4.563   6.269  -0.129  0.2146  0.6373 -0.3730
  187MOL0     C25688   4.529   6.396  -0.200 -0.8401  0.5892  0.3283
  187MOL0     C25689   4.405   6.468  -0.147  1.2332  0.4410 -0.9795
  187MOL0     C25690   4.369   6.605  -0.208 -0.5082  0.0668  0.1598
  187MOL0     C25691   4.439   6.709  -0.117  0.6561 -0.4913 -0.4179
  187MOL0     O25692   4.579   6.690  -0.130 -0.5857  0.6452  0.2597
  187MOL0     C25693   4.670   6.785  -0.091 -0.4285  0.4154 -0.5275
  187MOL0     C25694   4.635   6.920  -0.059  0.4399 -0.6560  0.3233
  187MOL0     C25695   4.732   7.018  -0.016  1.3991 -0.4316  0.2334
  187MOL0     C25696   4.666   7.154   0.022 -0.0802 -0.6252  0.4432
  187MOL0     C25697   4.867   6.984  -0.004 -0.3614 -0.4821 -0.7593
  187MOL0     C25698   4.974   7.073   0.042 -0.5048 -0.3989 -0.9837
  187MOL0     O25699   5.085   7.006   0.076 -0.3312  1.3125  0.5432
  187MOL0     C25700   5.198   7.069   0.104  0.4983 -1.0984 -0.2460
  187MOL0     C25701   5.292   6.990   0.182 -0.1157 -0.2859  0.1454
  187MOL0     C25702   5.416   7.047   0.217  0.1510 -0.3602  0.1468
  187MOL0     C25703   5.445   7.172   0.176  0.2474 -1.1364 -0.4913
  187MOL0     O25704   5.565   7.236   0.184  0.0718  0.1476 -0.4714
  187MOL0     C25705   5.682   7.167   0.214  0.1978  0.4212 -0.7900
  187MOL0     C25706   5.791   7.273   0.231  0.6040 -0.1225 -0.1755
  187MOL0     C25707   5.813   7.362   0.102 -0.5934 -0.4941  0.4278
  187MOL0     C25708   5.724   7.483   0.100 -0.1189 -0.0996 -0.6695
  187MOL0     C25709   5.740   7.562  -0.022 -0.4205  0.3388  0.3125
  187MOL0     C25710   5.845   7.672  -0.005  0.6510  0.3447  0.1532
  187MOL0     C25711   5.851   7.783  -0.107  0.4711  0.0933  0.2739
  187MOL0     C25712   5.983   7.856  -0.093  0.1532 -0.9262  0.1229
  187MOL0    Cl25713   6.021   7.973  -0.230  0.2272  0.0017 -0.3427
  187MOL0     C25714   5.349   7.257   0.107  0.2200  0.4452  0.1637
  187MOL0     C25715   5.230   7.201   0.073 -0.1139  0.7448  0.4560
  187MOL0     O25716   4.946   7.184   0.079 -0.4515 -0.9296  0.1929
  187MOL0     C25717   4.899   6.855  -0.042  0.1183 -0.5383  0.8893
  187MOL0     C25718   4.803   6.766  -0.084 -0.3807  0.2900 -0.4502
  187MOL0     N25719   4.571   6.258   0.010  0.0142 -0.6484  0.7809
  187MOL0     N25720   4.614   6.135   0.033  0.7976 -0.0974  0.3769
  187MOL0     C25721   4.794   5.215   0.144  0.0665 -0.1357 -0.2577
  187MOL0     C25722   4.764   5.146   0.267 -0.5363  0.9455 -0.3225
  187MOL0     C25723   4.546   4.832   0.562  0.1930 -0.8011  0.1010
  187MOL0     C25724   4.670   4.795   0.603 -1.5106  0.4451 -1.0838
  187MOL0     C25725   4.683   4.722   0.719  0.4933  0.3980  0.2197
  187MOL0     C25726   4.581   4.661   0.794  0.2064  0.2468 -0.0616
  187MOL0     O25727   4.599   4.578   0.902  0.1089  0.1444 -0.0678
  187MOL0     C25728   4.602   4.436   0.861 -0.7598 -0.3163  0.0899
  187MOL0     C25729   4.750   4.401   0.819 -0.2098 -0.2873 -0.6139
  187MOL0     C25730   4.851   4.423   0.934 -0.2208 -1.2224 -0.1887
  187MOL0     C25731   4.991   4.370   0.904  0.7694 -0.2466  0.1336
  187MOL0     C25732   4.988   4.222   0.897  0.8499  0.1236 -0.4118
  187MOL0     C25733   4.983   4.102   0.879  0.7736 -0.7835 -0.7428
  187MOL0     C25734   4.451   4.678   0.738 -0.2643  0.6808 -0.1797
  187MOL0     C25735   4.428   4.770   0.626  0.4302  1.0105 -1.1105
  187MOL0     C25736   4.290   4.787   0.580 -0.4163 -0.8993  0.5507
  187MOL0     H25737   4.544   4.920   0.152 -0.9262  0.7315  1.1682
  187MOL0     H25738   4.619   5.024  -0.067 -0.9009  2.9893 -0.9234
  187MOL0     H25739   4.900   5.120  -0.195 -1.4019 -0.9808  0.8813
  187MOL0     H25740   4.974   5.214  -0.071  0.6387 -3.1080 -1.3953
  187MOL0     H25741   5.015   5.284  -0.321 -1.2220 -2.8516  1.1879
  187MOL0     H25742   4.846   5.340  -0.316 -2.4037 -0.6269  1.5214
  187MOL0     H25743   5.070   5.458  -0.164  0.0162 -0.0414  1.1219
  187MOL0     H25744   4.977   5.542  -0.277 -1.3886 -2.3587 -3.4119
  187MOL0     H25745   4.779   5.483  -0.112 -2.3648  3.0251  2.4870
  187MOL0     H25746   4.904   5.478   0.009 -3.0509 -0.8891  0.5842
  187MOL0     H25747   4.992   5.702  -0.075  0.7579 -0.7615  4.6930
  187MOL0     H25748   4.833   5.711   0.003 -1.6485 -1.0789 -0.0221
  187MOL0     H25749   4.867   5.722  -0.301  0.9731  2.7932 -0.3211
  187MOL0     H25750   4.716   5.698  -0.215  0.6016 -0.8657  2.0915
  187MOL0     H25751   4.749   5.925  -0.284 -1.0168 -1.6481  0.5617
  187MOL0     H25752   4.883   5.940  -0.161 -0.8740  2.3335 -1.2948
  187MOL0     H25753   4.615   5.839  -0.094 -0.8366  0.2523 -3.0840
  187MOL0     H25754   4.722   5.927   0.023 -3.4447 -0.4264  0.8042
  187MOL0     H25755   4.614   6.134  -0.292 -2.1622  2.2942 -0.6282
  187MOL0     H25756   4.513   6.376  -0.306  1.8842 -2.2409  0.2887
  187MOL0     H25757   4.617   6.459  -0.183 -0.9346  0.4897  1.2448
  187MOL0     H25758   4.327   6.402  -0.185  2.4345 -0.9941 -1.0391
  187MOL0     H25759   4.401   6.470  -0.038  2.7077 -1.1280 -0.8497
  187MOL0     H25760   4.404   6.607  -0.312 -2.4419 -3.1215 -0.6811
  187MOL0     H25761   4.261   6.619  -0.212 -1.0029 -3.1390 -3.1408
  187MOL0     H25762   4.413   6.812  -0.146 -0.8291 -0.6774  0.1557
  187MOL0     H25763   4.418   6.703  -0.010  1.0249  2.2554 -0.0968
  187MOL0     H25764   4.533   6.957  -0.068  1.0581  0.7358 -2.6323
  187MOL0     H25765   4.699   7.226  -0.054 -1.0769  0.7623  1.2983
  187MOL0     H25766   4.694   7.182   0.124  1.8536  1.5447 -0.5745
  187MOL0     H25767   4.558   7.144   0.016 -0.0330 -2.5238  1.7844
  187MOL0     H25768   5.275   6.893   0.226 -1.3877  0.9928  2.6689
  187MOL0     H25769   5.488   6.975   0.255 -0.5978 -0.1185  2.1549
  187MOL0     H25770   5.678   7.108   0.306  5.1657 -0.3389 -0.8424
  187MOL0     H25771   5.711   7.105   0.128  2.2930  3.1473 -2.2121
  187MOL0     H25772   5.755   7.338   0.311 -0.2971  0.7949 -1.2907
  187MOL0     H25773   5.885   7.221   0.252  1.0863  1.1621  1.0068
  187MOL0     H25774   5.795   7.305   0.011  0.1803  3.4768 -2.4670
  187MOL0     H25775   5.912   7.407   0.092 -2.1820  3.1132 -1.1000
  187MOL0     H25776   5.733   7.538   0.194 -1.0302 -0.2412 -0.4945
  187MOL0     H25777   5.622   7.444   0.102  0.1544 -0.8021 -0.1611
  187MOL0     H25778   5.749   7.497  -0.110  1.9722 -1.8380  1.9938
  187MOL0     H25779   5.645   7.615  -0.029 -0.7527  0.1154  2.5282
  187MOL0     H25780   5.938   7.614  -0.009  1.2900  1.4200 -1.1030
  187MOL0     H25781   5.832   7.705   0.099 -2.6558  0.1902 -0.1097
  187MOL0     H25782   5.776   7.860  -0.088 -0.4608 -1.4670  3.4989
  187MOL0     H25783   5.833   7.747  -0.209 -0.7011 -1.3606  0.9677
  187MOL0     H25784   6.066   7.786  -0.082 -1.9070 -3.2740  1.9653
  187MOL0     H25785   5.973   7.911   0.001 -0.4189 -0.3847 -0.2400
  187MOL0     H25786   5.378   7.352   0.065 -3.1879  1.0606 -1.1450
  187MOL0     H25787   5.156   7.248   0.009 -2.1204 -2.0256  0.5515
  187MOL0     H25788   5.004   6.829  -0.047  0.4696  0.9517 -0.5708
  187MOL0     H25789   4.851   6.673  -0.115  0.1557  0.3970  0.0374
  187MOL0     H25790   4.848   5.310   0.140 -2.2474  1.2471 -0.6617
  187MOL0     H25791   4.814   5.182   0.356 -1.8290  0.3747  0.6598
  187MOL0     H25792   4.760   4.817   0.546  0.0435 -3.0833 -0.2423
  187MOL0     H25793   4.783   4.707   0.759 -0.0002 -2.2546  0.6012
  187MOL0     H25794   4.571   4.375   0.946 -4.1592  3.4896  1.9409
  187MOL0     H25795   4.538   4.407   0.777  1.5144  1.2741 -2.3679
  187MOL0     H25796   4.793   4.441   0.727 -1.5909  2.2231 -0.2478
  187MOL0     H25797   4.741   4.296   0.791 -1.7925  0.0066 -1.3018
  187MOL0     H25798   4.840   4.531   0.947 -1.3243 -1.2626 -0.6512
  187MOL0     H25799   4.819   4.390   1.034  2.5285  1.4322  1.7692
  187MOL0     H25800   5.039   4.396   0.999  0.3638 -1.1629  0.6077
  187MOL0     H25801   5.045   4.411   0.818  1.5422 -2.7190 -0.6729
  187MOL0     H25802   4.976   3.997   0.859  1.4963 -0.9981  0.0776
  187MOL0     H25803   4.368   4.625   0.784  1.6669 -1.7310  0.7011
  187MOL0     H25804   4.261   4.892   0.565  2.1764 -0.1573  0.3373
  187MOL0     H25805   4.291   4.735   0.484  0.6646 -1.1492  0.6837
  187MOL0     H25806   4.203   4.757   0.639 -0.9357  2.1337  1.4859
  188MOL0     O25807   9.602   6.567   7.372 -0.2478  0.1898  0.6388
  188MOL0     C25808   9.576   6.462   7.318  1.4822  0.6061  0.1814
  188MOL0     O25809   9.668   6.375   7.267 -0.4298 -0.7431  0.3361
  188MOL0     C25810   9.798   6.371   7.317 -0.0487  0.6829 -0.4054
  188MOL0     C25811   9.899   6.324   7.234 -0.8745 -0.1712  0.1364
  188MOL0     C25812  10.033   6.327   7.271  0.8750  0.5999 -0.1606
  188MOL0     C25813  10.068   6.364   7.408  0.1221  0.2853  0.2300
  188MOL0     O25814  10.197   6.351   7.445 -0.6966 -0.5294  0.2655
  188MOL0     C25815  10.240   6.391   7.577 -0.9014  0.1730  0.4026
  188MOL0     C25816  10.391   6.373   7.610 -0.0002 -0.5072 -0.4281
  188MOL0     C25817  10.421   6.436   7.745 -0.4441 -0.8639  0.1104
  188MOL0     C25818  10.552   6.365   7.805  0.4023 -0.1235 -0.1315
  188MOL0     C25819  10.619   6.460   7.905  0.2754  0.6427  0.4211
  188MOL0     C25820  10.693   6.575   7.870  0.3192  0.0044  1.0816
  188MOL0     C25821  10.839   6.577   7.876  0.9499 -0.2482 -0.2465
  188MOL0     C25822  10.891   6.576   8.024  0.0804 -0.2371  0.7912
  188MOL0     N25823  11.039   6.577   8.011  0.4121  0.4344  0.7885
  188MOL0     C25824  11.128   6.662   7.944  1.6172 -0.1679 -0.1838
  188MOL0     C25825  11.255   6.621   7.980  0.4621  0.8099 -0.3781
  188MOL0     C25826  11.370   6.682   7.907  0.2182  0.5550  0.2531
  188MOL0     C25827  11.494   6.596   7.928 -0.8199 -0.1359 -0.4275
  188MOL0     C25828  11.629   6.647   7.876 -0.5451 -0.0736  0.0064
  188MOL0     C25829  11.623   6.612   7.728  0.6053  0.5720 -0.2077
  188MOL0     O25830  11.749   6.646   7.663 -0.0692  0.7222 -0.4254
  188MOL0     C25831  11.732   6.720   7.549  0.3465  0.4164  0.0783
  188MOL0     C25832  11.831   6.808   7.514 -1.2872 -1.2361 -0.7967
  188MOL0     C25833  11.829   6.898   7.404 -0.5377  0.8803  0.1821
  188MOL0     C25834  11.955   6.982   7.380  0.0488 -1.5216 -1.1452
  188MOL0     C25835  11.719   6.896   7.315  0.4414 -0.3369 -0.5241
  188MOL0     C25836  11.710   6.977   7.190 -0.1206  0.8971  0.3362
  188MOL0     O25837  11.635   6.926   7.086  0.5359  0.6008  0.7404
  188MOL0     C25838  11.665   6.962   6.958 -0.6630 -0.1441 -0.4051
  188MOL0     C25839  11.778   6.938   6.891 -0.3838 -0.2868  0.2968
  188MOL0     C25840  11.788   6.956   6.754  0.6381 -1.1726  1.1695
  188MOL0     C25841  11.677   7.025   6.682  0.5119 -1.3573  0.6653
  188MOL0     O25842  11.691   7.068   6.552 -0.5010  0.2008 -0.3596
  188MOL0     C25843  11.675   7.209   6.528  1.0301 -0.6587 -0.2725
  188MOL0     C25844  11.792   7.289   6.587 -0.2567 -0.3986  0.6100
  188MOL0     C25845  11.928   7.234   6.556 -0.6383  0.0912  0.0648
  188MOL0     C25846  12.026   7.323   6.643  0.2945 -0.4129 -0.1345
  188MOL0     C25847  12.159   7.254   6.663  0.7315 -0.4776  0.6224
  188MOL0     C25848  12.250   7.313   6.782  0.3014 -0.8815  0.0780
  188MOL0     C25849  12.224   7.464   6.817  0.7293  0.7566  0.3643
  188MOL0     C25850  12.280   7.550   6.708  0.6213  0.7210  0.1572
  188MOL0    Cl25851  12.212   7.706   6.694 -0.4560  0.2587  0.0647
  188MOL0     C25852  11.576   7.073   6.766 -0.0907 -0.4927 -0.4705
  188MOL0     C25853  11.562   7.038   6.897 -0.3964  0.2857  0.1349
  188MOL0     O25854  11.773   7.080   7.194  0.0228 -0.4155 -0.2382
  188MOL0     C25855  11.615   6.810   7.350 -0.2528  0.6876 -0.6820
  188MOL0     C25856  11.617   6.727   7.462  0.0565 -0.9890  0.3493
  188MOL0     N25857  11.242   6.515   8.067 -0.1098 -1.1973 -0.0991
  188MOL0     N25858  11.117   6.492   8.086 -0.5163  0.0376 -0.0655
  188MOL0     C25859   9.970   6.413   7.492 -0.9060  0.0937  0.7384
  188MOL0     C25860   9.837   6.413   7.449 -1.0037  0.8812 -0.6450
  188MOL0     C25861   9.436   6.427   7.297 -0.2471  0.8630 -0.0426
  188MOL0     C25862   9.398   6.360   7.176 -1.0211 -0.2871 -1.3054
  188MOL0     C25863   9.271   6.314   7.152 -1.1828  0.3420 -0.5648
  188MOL0     C25864   9.169   6.342   7.249 -0.1277  0.3349  0.1925
  188MOL0     O25865   9.035   6.310   7.233  0.7330 -0.4849  0.2185
  188MOL0     C25866   8.988   6.183   7.171 -0.7149  0.9960  0.0686
  188MOL0     C25867   8.929   6.216   7.030  0.1943 -0.0216 -0.5533
  188MOL0     C25868   8.973   6.114   6.919 -0.2674 -0.6110  0.5353
  188MOL0     C25869   8.969   6.190   6.790  0.1007 -0.2065  0.3523
  188MOL0     C25870   8.970   6.093   6.685  0.3447 -0.2583 -0.7470
  188MOL0     C25871   8.965   5.999   6.607  0.0351 -0.2815 -0.1123
  188MOL0     C25872   9.204   6.407   7.366 -0.2922 -1.4668  0.8591
  188MOL0     C25873   9.336   6.441   7.393  0.7538 -0.4139  0.0228
  188MOL0     C25874   9.373   6.505   7.519 -0.1994 -0.2116 -0.1676
  188MOL0     H25875   9.877   6.292   7.132 -1.8746 -1.4462  0.7343
  188MOL0     H25876  10.101   6.278   7.202 -1.7115  0.2315 -2.6486
  188MOL0     H25877  10.184   6.329   7.647 -0.4524 -2.5447 -1.4412
  188MOL0     H25878  10.205   6.492   7.596 -1.2147  0.4049 -1.2240
  188MOL0     H25879  10.415   6.266   7.615 -1.0238 -0.6928  1.6040
  188MOL0     H25880  10.457   6.412   7.532  0.7793 -1.2398 -0.1421
  188MOL0     H25881  10.430   6.544   7.735 -0.3071 -1.0814 -2.9279
  188MOL0     H25882  10.348   6.410   7.823 -0.6002 -1.7419 -0.3144
  188MOL0     H25883  10.531   6.270   7.854  3.5714 -1.0334 -0.2798
  188MOL0     H25884  10.627   6.348   7.727  0.5802 -0.4865  0.1155
  188MOL0     H25885  10.689   6.392   7.954 -0.1067  0.7267  1.0920
  188MOL0     H25886  10.551   6.490   7.986  1.8715  0.0341  2.0608
  188MOL0     H25887  10.674   6.603   7.766 -0.0014 -2.6598  0.3498
  188MOL0     H25888  10.665   6.651   7.944 -3.5414  0.6721 -0.7904
  188MOL0     H25889  10.872   6.665   7.820 -0.9470  0.4982 -0.2717
  188MOL0     H25890  10.872   6.484   7.829 -0.0804 -1.1962  0.8380
  188MOL0     H25891  10.842   6.656   8.080 -2.8203 -0.0957 -1.6761
  188MOL0     H25892  10.854   6.485   8.071 -2.4879  1.2378  1.8470
  188MOL0     H25893  11.101   6.756   7.899 -4.2650 -1.0659  0.6906
  188MOL0     H25894  11.388   6.776   7.960 -1.8189 -0.0088  2.1261
  188MOL0     H25895  11.349   6.694   7.801  1.2982 -2.0397 -0.3507
  188MOL0     H25896  11.524   6.584   8.033 -1.2226 -1.2339 -0.4139
  188MOL0     H25897  11.470   6.494   7.897 -1.6273  0.5183 -2.0409
  188MOL0     H25898  11.640   6.755   7.890 -1.9885  0.0898  0.0270
  188MOL0     H25899  11.710   6.591   7.923  2.5806  1.2995 -3.2233
  188MOL0     H25900  11.609   6.503   7.719 -2.1732  0.9475 -1.8760
  188MOL0     H25901  11.538   6.665   7.684  1.4418  0.6570 -1.7990
  188MOL0     H25902  11.910   6.815   7.588 -0.5484  1.4788 -1.7161
  188MOL0     H25903  11.932   7.089   7.384  3.5222 -0.5284  5.2640
  188MOL0     H25904  12.012   6.968   7.287  3.3864  2.1340  0.0827
  188MOL0     H25905  12.028   6.958   7.458 -0.0552  1.0520 -0.1763
  188MOL0     H25906  11.865   6.897   6.941 -0.4169  0.2520  0.8003
  188MOL0     H25907  11.875   6.926   6.696  0.9230  0.2699  0.8263
  188MOL0     H25908  11.674   7.218   6.419 -2.0040  0.3541 -0.2657
  188MOL0     H25909  11.582   7.249   6.570  0.8145 -1.6010  0.1810
  188MOL0     H25910  11.793   7.395   6.557 -1.2759  0.4204  3.2091
  188MOL0     H25911  11.759   7.293   6.691 -2.9170 -0.9848 -0.1377
  188MOL0     H25912  11.951   7.245   6.450  1.4866 -3.2229  0.0304
  188MOL0     H25913  11.930   7.127   6.576  0.4412  0.0260 -0.3327
  188MOL0     H25914  11.981   7.343   6.740  0.3402 -1.5909  0.1429
  188MOL0     H25915  12.048   7.417   6.592  4.6253 -0.0345  1.9911
  188MOL0     H25916  12.141   7.149   6.686 -2.4737 -0.2015 -0.1065
  188MOL0     H25917  12.209   7.256   6.565 -2.8348 -0.5802 -1.3830
  188MOL0     H25918  12.359   7.311   6.770  0.2629 -2.4829 -0.2222
  188MOL0     H25919  12.238   7.268   6.881 -0.0274  3.7879  2.4256
  188MOL0     H25920  12.280   7.496   6.905  1.0394  1.0888  0.0465
  188MOL0     H25921  12.126   7.500   6.852 -0.8259 -3.2722  0.7573
  188MOL0     H25922  12.280   7.504   6.609 -0.7822 -3.8398  2.0125
  188MOL0     H25923  12.386   7.562   6.730  0.3577  0.0805  1.9280
  188MOL0     H25924  11.486   7.121   6.730 -0.5244 -0.6608  0.3441
  188MOL0     H25925  11.471   7.059   6.953  0.3106  0.1893  1.3700
  188MOL0     H25926  11.523   6.826   7.294 -2.3865 -1.6180  1.8425
  188MOL0     H25927  11.524   6.671   7.474 -2.7549  2.7102 -1.7673
  188MOL0     H25928   9.992   6.426   7.598  2.0348  1.8790 -0.0046
  188MOL0     H25929   9.764   6.442   7.525  1.0179 -1.5635  2.5275
  188MOL0     H25930   9.474   6.346   7.100  3.1399  0.4370  2.2997
  188MOL0     H25931   9.253   6.262   7.059 -1.3908 -1.4959  0.4503
  188MOL0     H25932   9.066   6.108   7.160 -0.5299  1.3751 -1.4937
  188MOL0     H25933   8.913   6.136   7.235 -0.9279 -1.2760 -1.7109
  188MOL0     H25934   8.977   6.308   6.997  3.4538 -0.8215  1.4819
  188MOL0     H25935   8.820   6.227   7.035  0.1560 -0.8254  1.0382
  188MOL0     H25936   9.080   6.092   6.926  0.1477  0.0625 -2.3095
  188MOL0     H25937   8.913   6.023   6.916 -0.0251 -0.7446 -0.3979
  188MOL0     H25938   9.051   6.262   6.779 -0.3996  0.7337  2.2769
  188MOL0     H25939   8.876   6.248   6.796 -0.0294 -0.4670  1.0303
  188MOL0     H25940   8.970   5.925   6.530 -0.8306  0.9402 -1.4054
  188MOL0     H25941   9.133   6.453   7.434  0.4265  2.1767 -0.6166
  188MOL0     H25942   9.449   6.446   7.571  0.3142  0.0667 -0.5949
  188MOL0     H25943   9.409   6.604   7.491 -0.0409 -0.5713 -1.2797
  188MOL0     H25944   9.283   6.519   7.580 -1.1878 -2.9093 -0.8627
  189MOL0     O25945  10.180  10.768   0.077  0.2991 -0.7296 -0.1780
  189MOL0     C25946  10.159  10.880   0.121  0.7028 -0.4110  0.2261
  189MOL0     O25947  10.163  10.917   0.251 -0.3366 -0.0487 -0.4224
  189MOL0     C25948  10.161  10.815   0.351  0.2565 -0.5243  0.9325
  189MOL0     C25949  10.039  10.806   0.423 -0.6256 -0.2694 -0.2993
  189MOL0     C25950  10.035  10.704   0.525 -0.2760 -0.8593 -1.4707
  189MOL0     C25951  10.139  10.618   0.557 -0.1102  0.4974 -0.0186
  189MOL0     O25952  10.132  10.522   0.656 -0.1608  0.0062  0.1978
  189MOL0     C25953  10.108  10.565   0.783 -0.0948  1.2955 -0.1451
  189MOL0     C25954  10.130  10.452   0.881 -0.6048  0.7005 -0.3186
  189MOL0     C25955  10.265  10.451   0.925 -0.3314  0.1040  0.3163
  189MOL0     C25956  10.300  10.551   1.043  0.0145  0.2283 -0.1172
  189MOL0     C25957  10.272  10.487   1.166 -0.0279 -0.1025 -0.7613
  189MOL0     C25958  10.295  10.590   1.266  0.2826  0.7225 -0.3809
  189MOL0     C25959  10.310  10.550   1.413 -0.3141 -1.1361 -0.9189
  189MOL0     C25960  10.450  10.482   1.440  0.0629  0.2333  0.0051
  189MOL0     N25961  10.473  10.447   1.583  0.7754  0.6733 -0.1649
  189MOL0     C25962  10.420  10.341   1.641  0.2899 -0.3782  0.4708
  189MOL0     C25963  10.466  10.352   1.775 -0.5210  0.6654 -0.2794
  189MOL0     C25964  10.426  10.271   1.897  0.4069 -0.8642  0.2202
  189MOL0     C25965  10.441  10.117   1.882  0.6190  0.8432  0.9654
  189MOL0     C25966  10.428  10.030   2.011 -0.1829  0.5682 -0.3389
  189MOL0     C25967  10.301  10.045   2.094  0.9595 -1.1590  0.1255
  189MOL0     O25968  10.198  10.066   1.995  0.0440  0.2223 -0.2661
  189MOL0     C25969  10.118   9.960   1.966 -0.2556  0.3045  0.0937
  189MOL0     C25970  10.135   9.831   2.012  0.4990 -0.3408 -0.4992
  189MOL0     C25971  10.032   9.740   1.981  0.1641 -0.3475 -0.5194
  189MOL0     C25972  10.032   9.605   2.032  0.8898  0.2005  0.3077
  189MOL0     C25973   9.935   9.771   1.877  0.4008  0.1887  0.0830
  189MOL0     C25974   9.837   9.671   1.832  0.3933 -0.7918  0.9867
  189MOL0     O25975   9.710   9.715   1.838  0.0501  0.9670  0.8765
  189MOL0     C25976   9.615   9.616   1.847 -0.6372  0.0519  0.9083
  189MOL0     C25977   9.587   9.554   1.729 -0.4693  0.0602  0.6301
  189MOL0     C25978   9.489   9.453   1.726 -1.1620  0.3241  0.6510
  189MOL0     C25979   9.421   9.429   1.848 -0.0369  0.7405  0.6014
  189MOL0     O25980   9.315   9.341   1.839 -0.4389 -0.4685 -0.7201
  189MOL0     C25981   9.337   9.200   1.821  1.0744  0.0802 -0.4944
  189MOL0     C25982   9.263   9.104   1.922 -0.8057 -0.7798 -0.1394
  189MOL0     C25983   9.119   9.126   1.915 -0.6045  0.1807  0.3809
  189MOL0     C25984   9.043   9.012   1.991  0.4457 -0.0970  0.0840
  189MOL0     C25985   8.892   8.997   1.963  0.4239  0.7907 -0.2941
  189MOL0     C25986   8.848   8.939   1.829  0.1841 -0.2455  0.2643
  189MOL0     C25987   8.822   9.051   1.720  0.2440  0.4489 -0.6500
  189MOL0     C25988   8.674   9.091   1.702  0.2651 -0.6463  0.1747
  189MOL0    Cl25989   8.587   8.958   1.657  0.2532 -0.3748 -0.3521
  189MOL0     C25990   9.451   9.496   1.968  0.1348  0.1397 -0.3175
  189MOL0     C25991   9.545   9.603   1.962  0.5720  0.1598 -0.2520
  189MOL0     O25992   9.870   9.554   1.815  0.4515  0.5085  0.8003
  189MOL0     C25993   9.927   9.904   1.831  0.1170 -0.5287  0.1514
  189MOL0     C25994  10.017   9.989   1.876 -0.2128 -0.4211 -0.3533
  189MOL0     N25995  10.550  10.457   1.785  0.1560  0.0816  0.1889
  189MOL0     N25996  10.543  10.519   1.671  0.2210  0.1069  0.3176
  189MOL0     C25997  10.261  10.638   0.488 -0.1687 -0.5020 -1.5699
  189MOL0     C25998  10.271  10.739   0.390  0.8993 -0.6931 -1.0003
  189MOL0     C25999  10.142  10.994   0.027 -0.5568  0.4644  0.1164
  189MOL0     C26000  10.232  11.002  -0.076  0.4467 -0.8707 -0.5226
  189MOL0     C26001  10.223  11.103  -0.171 -0.7024 -1.2891  0.3802
  189MOL0     C26002  10.112  11.197  -0.163 -0.9819  0.2121  0.9277
  189MOL0     O26003  10.083  11.307  -0.243 -0.6689 -0.4842  0.2067
  189MOL0     C26004  10.178  11.334  -0.350 -0.3255  0.1582 -0.9582
  189MOL0     C26005  10.146  11.230  -0.462  0.5779  0.2993  0.1680
  189MOL0     C26006  10.260  11.205  -0.563 -0.0023  1.1989 -0.1826
  189MOL0     C26007  10.255  11.081  -0.660  0.9141 -0.1018 -0.2561
  189MOL0     C26008  10.121  11.018  -0.696  0.6961  0.5745  0.3176
  189MOL0     C26009  10.020  10.960  -0.746 -0.1213  0.1704 -0.7265
  189MOL0     C26010  10.028  11.194  -0.051 -0.3988  0.2304  0.7945
  189MOL0     C26011  10.038  11.096   0.047 -1.0851  0.0557 -0.9884
  189MOL0     C26012   9.925  11.084   0.147 -0.4111  0.6754  0.0800
  189MOL0     H26013   9.958  10.874   0.400  0.3580  0.8392 -0.5778
  189MOL0     H26014   9.950  10.694   0.591  1.1688 -0.3918  0.5422
  189MOL0     H26015  10.000  10.576   0.798 -0.1600 -1.9369  2.9441
  189MOL0     H26016  10.172  10.644   0.823 -0.6165  0.4959  2.4024
  189MOL0     H26017  10.066  10.478   0.966  0.2366  3.1652 -0.3472
  189MOL0     H26018  10.097  10.358   0.837 -0.2818 -0.7150  2.2482
  189MOL0     H26019  10.280  10.345   0.951  1.7185  0.3419  0.1993
  189MOL0     H26020  10.332  10.468   0.841 -1.6547  1.8698 -0.4384
  189MOL0     H26021  10.406  10.569   1.029  0.7956 -2.5655  1.4660
  189MOL0     H26022  10.262  10.651   1.021 -0.5567 -0.5810 -3.4417
  189MOL0     H26023  10.318  10.389   1.187 -2.3997 -1.3127 -0.8591
  189MOL0     H26024  10.167  10.458   1.158  0.4325 -1.9213 -0.6986
  189MOL0     H26025  10.380  10.654   1.241  0.2372  0.8695 -0.1516
  189MOL0     H26026  10.211  10.659   1.259  1.4912  2.8125  3.4124
  189MOL0     H26027  10.229  10.486   1.449  0.5007 -2.4682 -1.3923
  189MOL0     H26028  10.303  10.643   1.470 -2.3022 -1.6662 -0.2467
  189MOL0     H26029  10.457  10.386   1.387  1.6440 -1.3261  2.7533
  189MOL0     H26030  10.531  10.546   1.406  1.8539 -1.2274  1.2497
  189MOL0     H26031  10.355  10.268   1.592 -0.0859  0.4983 -0.3884
  189MOL0     H26032  10.321  10.293   1.920  0.2711 -0.5416 -0.6674
  189MOL0     H26033  10.496  10.292   1.978  2.3668 -3.0102 -0.8239
  189MOL0     H26034  10.374  10.070   1.809  2.0634 -0.1067  0.1901
  189MOL0     H26035  10.540  10.106   1.838  0.0870 -1.3530  0.1978
  189MOL0     H26036  10.448   9.924   1.992  2.8708  1.1745 -1.1326
  189MOL0     H26037  10.515  10.062   2.069 -2.3921  1.7539  2.5225
  189MOL0     H26038  10.293   9.960   2.163  1.7072 -1.6029 -0.3248
  189MOL0     H26039  10.291  10.141   2.145  0.0726 -0.6508 -0.9434
  189MOL0     H26040  10.218   9.799   2.075 -0.4197  1.8054  2.0179
  189MOL0     H26041  10.089   9.599   2.125  2.8362  0.4272 -0.8303
  189MOL0     H26042  10.070   9.538   1.954  3.4305 -1.9843  3.1785
  189MOL0     H26043   9.934   9.567   2.063  0.4769  0.9481 -0.0607
  189MOL0     H26044   9.637   9.592   1.641  0.2294  1.1729  1.4776
  189MOL0     H26045   9.475   9.382   1.645  0.8050 -1.0513  1.4492
  189MOL0     H26046   9.303   9.171   1.722 -3.7664  0.9657  0.6273
  189MOL0     H26047   9.443   9.183   1.839  1.0235  0.6651  0.5083
  189MOL0     H26048   9.293   9.002   1.896 -1.8503 -0.3325 -3.5295
  189MOL0     H26049   9.283   9.129   2.027 -3.0084  0.5183  0.0315
  189MOL0     H26050   9.099   9.119   1.807  3.0176  0.1306 -0.4278
  189MOL0     H26051   9.093   9.226   1.949 -1.9902 -0.5219  1.5171
  189MOL0     H26052   9.058   9.028   2.098 -0.1015  1.5893 -0.0642
  189MOL0     H26053   9.088   8.913   1.974  0.2442  0.0424 -1.3455
  189MOL0     H26054   8.840   8.938   2.039 -2.4009  1.9179 -1.2171
  189MOL0     H26055   8.858   9.101   1.970 -0.2947  0.6708 -1.5708
  189MOL0     H26056   8.754   8.887   1.852 -1.8342  1.9863 -2.2435
  189MOL0     H26057   8.926   8.871   1.792  0.7836  1.5612 -2.0402
  189MOL0     H26058   8.866   9.027   1.623  1.1260 -1.0099  0.0836
  189MOL0     H26059   8.862   9.145   1.760 -1.2076  1.5396 -1.6299
  189MOL0     H26060   8.682   9.175   1.633  4.5264 -0.8201  0.1735
  189MOL0     H26061   8.627   9.115   1.798  1.5890 -0.2602  0.7525
  189MOL0     H26062   9.402   9.481   2.064 -1.8213 -2.2849 -1.5693
  189MOL0     H26063   9.547   9.668   2.049 -4.5949 -1.8419  1.7342
  189MOL0     H26064   9.850   9.926   1.758  2.2695  2.0702 -1.5272
  189MOL0     H26065  10.008  10.092   1.845  1.3606 -0.4290 -0.9657
  189MOL0     H26066  10.347  10.574   0.502  1.1118  1.6037  1.2821
  189MOL0     H26067  10.360  10.754   0.329  1.5074 -3.9088 -1.0424
  189MOL0     H26068  10.312  10.928  -0.067  0.4267 -0.8378 -0.0572
  189MOL0     H26069  10.300  11.105  -0.248  0.7025  2.5634  1.6540
  189MOL0     H26070  10.152  11.433  -0.390 -2.1602  1.1945  2.4016
  189MOL0     H26071  10.281  11.326  -0.312 -0.9822  1.3852  1.2348
  189MOL0     H26072  10.055  11.274  -0.505  1.1599  2.9865  1.4617
  189MOL0     H26073  10.129  11.131  -0.419 -0.3112  0.3975  0.0587
  189MOL0     H26074  10.283  11.300  -0.612  3.9717  0.7873  0.5585
  189MOL0     H26075  10.352  11.175  -0.511  0.3184  1.2250 -0.7334
  189MOL0     H26076  10.306  11.001  -0.605  0.3335  0.0603  0.5333
  189MOL0     H26077  10.309  11.096  -0.753 -1.6199 -0.7727 -1.9377
  189MOL0     H26078   9.929  10.910  -0.770 -0.6883 -0.1285  1.7315
  189MOL0     H26079   9.950  11.269  -0.046 -0.9766  0.0033 -2.4519
  189MOL0     H26080   9.873  10.989   0.143  0.9065 -0.0422 -1.0364
  189MOL0     H26081   9.963  11.096   0.250  0.5424 -1.7364  0.0742
  189MOL0     H26082   9.863  11.173   0.138 -2.7595 -0.8589  0.4289
  190MOL0     O26083  10.472   2.067   2.994  0.0967 -0.1749  0.2353
  190MOL0     C26084  10.388   1.992   2.946 -0.5106 -0.6663 -0.4866
  190MOL0     O26085  10.281   2.033   2.869  0.3607 -0.4134  0.0084
  190MOL0     C26086  10.278   2.171   2.852 -0.2889 -0.2137  0.3557
  190MOL0     C26087  10.324   2.229   2.732 -0.1209 -0.6875 -0.4545
  190MOL0     C26088  10.302   2.369   2.705 -0.3706  0.3036 -0.0498
  190MOL0     C26089  10.259   2.465   2.802  0.0717  0.2365  0.1329
  190MOL0     O26090  10.238   2.596   2.768 -0.0332  0.5289  0.5337
  190MOL0     C26091  10.170   2.676   2.856  1.0624 -0.1790  0.0860
  190MOL0     C26092  10.141   2.813   2.786 -0.3282  0.8199 -0.1397
  190MOL0     C26093  10.002   2.863   2.800  0.3207 -0.3180 -0.7356
  190MOL0     C26094  10.008   2.996   2.722 -0.0490 -0.3134 -0.9153
  190MOL0     C26095   9.868   3.079   2.741  0.2951 -0.8526  0.5533
  190MOL0     C26096   9.846   3.141   2.884 -0.3273  0.8220 -0.7645
  190MOL0     C26097   9.739   3.253   2.865 -0.8233 -0.5269 -0.0990
  190MOL0     C26098   9.801   3.390   2.825 -0.6600 -0.1897  0.5470
  190MOL0     N26099   9.722   3.505   2.862  0.5983  0.0248 -0.6288
  190MOL0     C26100   9.623   3.549   2.783 -0.8872  0.7942  0.0447
  190MOL0     C26101   9.564   3.640   2.848 -0.2382  0.1883 -0.3670
  190MOL0     C26102   9.446   3.711   2.801  0.7308  0.6689 -0.2714
  190MOL0     C26103   9.498   3.853   2.789  0.0109  0.0975 -0.2717
  190MOL0     C26104   9.395   3.957   2.732 -0.6708  0.5689  0.0918
  190MOL0     C26105   9.295   4.012   2.838 -0.0499 -0.1888 -0.6592
  190MOL0     O26106   9.375   4.060   2.949  0.4667  0.5677 -0.2408
  190MOL0     C26107   9.324   4.137   3.053  0.4061  0.2263 -0.3398
  190MOL0     C26108   9.404   4.220   3.127 -0.7422 -0.3030 -0.9310
  190MOL0     C26109   9.353   4.305   3.224  1.3129  0.3864 -0.4854
  190MOL0     C26110   9.449   4.389   3.306 -0.4043 -0.2855  0.1683
  190MOL0     C26111   9.213   4.310   3.254 -0.0050  0.3738 -0.1546
  190MOL0     C26112   9.154   4.412   3.340  0.2945 -0.8101  0.1167
  190MOL0     O26113   9.028   4.460   3.291  0.3829  0.1436  0.5032
  190MOL0     C26114   8.938   4.529   3.363  1.1209 -0.1172 -0.4428
  190MOL0     C26115   8.808   4.506   3.320  0.0876  0.5134 -0.2428
  190MOL0     C26116   8.703   4.558   3.395  0.2314  0.4151 -0.0588
  190MOL0     C26117   8.731   4.639   3.509 -0.3695 -0.6855  0.2454
  190MOL0     O26118   8.625   4.675   3.594 -0.1903 -0.0925 -0.0799
  190MOL0     C26119   8.540   4.772   3.522 -0.0811  0.8514 -0.9373
  190MOL0     C26120   8.392   4.725   3.519 -0.2454 -0.0438  0.4207
  190MOL0     C26121   8.318   4.826   3.429 -0.7065  0.2252  0.2648
  190MOL0     C26122   8.203   4.878   3.523 -0.1383  0.0004  0.7490
  190MOL0     C26123   8.100   4.947   3.436  0.0796  1.3329  0.7464
  190MOL0     C26124   8.151   5.047   3.327  0.3474  1.1891  0.6785
  190MOL0     C26125   8.028   5.110   3.268 -0.1359  0.6469 -0.2307
  190MOL0     C26126   8.032   5.133   3.115 -0.2592  0.1554  0.7427
  190MOL0    Cl26127   7.868   5.153   3.050  0.1906  0.2447 -0.2778
  190MOL0     C26128   8.863   4.665   3.558  0.2050 -0.0413  0.7503
  190MOL0     C26129   8.959   4.613   3.473  0.0388  0.4504 -0.2526
  190MOL0     O26130   9.209   4.454   3.439  0.2985  0.1449 -0.4031
  190MOL0     C26131   9.136   4.241   3.166 -0.0703  1.2261 -0.3360
  190MOL0     C26132   9.186   4.144   3.071  0.2385 -0.2864 -0.5238
  190MOL0     N26133   9.617   3.650   2.977 -0.7888 -0.1770  0.2476
  190MOL0     N26134   9.722   3.565   2.985  0.1767  0.5686  0.1748
  190MOL0     C26135  10.208   2.402   2.922 -0.2723  0.3665 -0.0690
  190MOL0     C26136  10.216   2.260   2.943 -0.7108 -0.4501 -0.5045
  190MOL0     C26137  10.377   1.850   2.987  0.4817 -0.5256 -0.4166
  190MOL0     C26138  10.300   1.756   2.910  0.8810 -0.3825  0.2281
  190MOL0     C26139  10.294   1.625   2.945  0.8926  0.9835 -0.0238
  190MOL0     C26140  10.363   1.579   3.055 -0.6261 -0.2257 -0.8760
  190MOL0     O26141  10.351   1.448   3.100  0.4327  0.8413  0.1875
  190MOL0     C26142  10.385   1.348   2.998 -0.0591  0.0451  0.3212
  190MOL0     C26143  10.315   1.214   3.041  0.2984 -0.2186  0.4478
  190MOL0     C26144  10.307   1.138   2.911 -0.1440  0.5552  0.7745
  190MOL0     C26145  10.259   0.997   2.926  0.3141 -0.0705 -0.1690
  190MOL0     C26146  10.298   0.921   3.047 -1.8807  0.1971  1.0001
  190MOL0     C26147  10.341   0.873   3.144  0.6850 -0.2246 -0.3625
  190MOL0     C26148  10.436   1.670   3.130 -0.6405  1.1055 -0.5010
  190MOL0     C26149  10.447   1.800   3.099  0.1854 -0.6420  0.5345
  190MOL0     C26150  10.504   1.888   3.215 -0.0429 -0.1713 -0.0335
  190MOL0     H26151  10.358   2.170   2.647 -0.2586 -0.9917 -0.3011
  190MOL0     H26152  10.319   2.408   2.605  1.3340 -3.5376 -1.4386
  190MOL0     H26153  10.223   2.700   2.948  1.4148  2.8390 -0.7903
  190MOL0     H26154  10.070   2.643   2.883 -0.3937  2.1018 -2.0189
  190MOL0     H26155  10.214   2.887   2.820  1.8779  0.2469 -3.2221
  190MOL0     H26156  10.160   2.800   2.679  2.7191  1.8280  0.2081
  190MOL0     H26157   9.919   2.800   2.766 -0.9657 -1.2838  3.6486
  190MOL0     H26158   9.978   2.883   2.905 -0.0197 -1.0814 -0.6664
  190MOL0     H26159  10.085   3.072   2.740 -1.9310  0.9679  2.9643
  190MOL0     H26160  10.016   2.965   2.618  0.8183 -0.6063 -0.7644
  190MOL0     H26161   9.798   3.002   2.709 -0.1864 -0.2341  0.1118
  190MOL0     H26162   9.873   3.160   2.667  1.0592  0.1250  1.6311
  190MOL0     H26163   9.815   3.061   2.951  1.8373  0.0783 -0.5809
  190MOL0     H26164   9.944   3.172   2.922 -0.5778  3.5794 -2.0581
  190MOL0     H26165   9.688   3.274   2.959 -1.6957  2.9847 -1.2040
  190MOL0     H26166   9.671   3.221   2.785  1.4741 -1.0723 -1.9418
  190MOL0     H26167   9.902   3.402   2.865  1.6825 -4.9408 -2.9505
  190MOL0     H26168   9.818   3.385   2.718  0.8606  2.6290  0.5581
  190MOL0     H26169   9.594   3.510   2.686  0.6023 -0.4233  0.0350
  190MOL0     H26170   9.351   3.700   2.854  0.3603  2.2660 -0.5468
  190MOL0     H26171   9.415   3.677   2.701 -1.1438  1.3613  0.0266
  190MOL0     H26172   9.531   3.886   2.888 -0.3134  0.8069 -0.3928
  190MOL0     H26173   9.586   3.857   2.722  0.7482  0.3152  0.6894
  190MOL0     H26174   9.440   4.043   2.683 -1.2140 -0.7148 -2.8846
  190MOL0     H26175   9.340   3.908   2.651  1.9101 -2.6166  0.0743
  190MOL0     H26176   9.239   4.095   2.794 -1.2049  1.8114  3.9807
  190MOL0     H26177   9.228   3.931   2.871  0.5026 -1.1104 -1.7421
  190MOL0     H26178   9.511   4.223   3.107 -0.8307  1.3922 -1.2816
  190MOL0     H26179   9.431   4.497   3.307 -2.2746 -0.4908 -2.2688
  190MOL0     H26180   9.554   4.373   3.278 -0.9518 -1.5539 -1.2804
  190MOL0     H26181   9.431   4.346   3.405 -3.5965  0.4204 -0.0153
  190MOL0     H26182   8.795   4.436   3.238  0.0410 -1.7021  1.5411
  190MOL0     H26183   8.601   4.535   3.366  0.5728  1.9628 -2.7312
  190MOL0     H26184   8.557   4.863   3.581 -2.8249  1.3416 -0.7723
  190MOL0     H26185   8.585   4.789   3.423  1.4835 -2.4024 -0.9267
  190MOL0     H26186   8.402   4.627   3.471 -0.2957  0.8862 -1.5872
  190MOL0     H26187   8.347   4.713   3.618 -0.7606 -2.8021 -0.0611
  190MOL0     H26188   8.261   4.774   3.352 -1.1428  1.9512 -0.6295
  190MOL0     H26189   8.377   4.908   3.386 -5.5176  5.5380  2.3902
  190MOL0     H26190   8.257   4.943   3.592 -0.1643 -0.9943  1.7411
  190MOL0     H26191   8.149   4.794   3.566  1.0891 -1.5457 -0.5877
  190MOL0     H26192   8.052   4.865   3.381  3.1675  0.4331 -0.8343
  190MOL0     H26193   8.034   5.001   3.504 -2.6196 -1.5779  0.6786
  190MOL0     H26194   8.208   5.000   3.246 -5.0807  0.1399 -3.0970
  190MOL0     H26195   8.222   5.122   3.364  0.3547  1.2764  0.4930
  190MOL0     H26196   8.010   5.210   3.309  3.6366  2.5975 -2.7354
  190MOL0     H26197   7.947   5.040   3.290  0.7736 -0.0690  1.0291
  190MOL0     H26198   8.088   5.054   3.063  1.0965  0.2898  1.9337
  190MOL0     H26199   8.097   5.221   3.121  0.1642 -0.1204  0.3167
  190MOL0     H26200   8.863   4.703   3.659 -3.0072 -1.4618  1.4067
  190MOL0     H26201   9.060   4.644   3.494 -0.5223  1.6494  0.7760
  190MOL0     H26202   9.029   4.248   3.185 -0.0906 -0.6062  0.4386
  190MOL0     H26203   9.105   4.096   3.017 -2.2533  2.2452  0.7258
  190MOL0     H26204  10.155   2.451   3.003 -0.1445 -0.6011  0.6268
  190MOL0     H26205  10.187   2.209   3.034 -0.2575 -0.1069 -0.1698
  190MOL0     H26206  10.261   1.772   2.810  1.6616  3.5301  0.3721
  190MOL0     H26207  10.239   1.558   2.880  4.9072 -2.5404 -0.2907
  190MOL0     H26208  10.371   1.376   2.893  3.1568 -1.3922 -0.6154
  190MOL0     H26209  10.493   1.335   3.013  0.6212  2.7088 -1.5042
  190MOL0     H26210  10.214   1.231   3.078 -0.4287 -2.6642 -0.1852
  190MOL0     H26211  10.369   1.152   3.113  0.3082 -0.0633  0.5727
  190MOL0     H26212  10.237   1.190   2.845  0.9675  2.0490  0.7233
  190MOL0     H26213  10.395   1.139   2.845 -2.5225  1.9395 -2.7013
  190MOL0     H26214  10.286   0.936   2.840  0.1807  0.9859 -0.9734
  190MOL0     H26215  10.151   1.011   2.933  0.2521 -1.1796  2.5161
  190MOL0     H26216  10.384   0.844   3.238  0.9446  0.2163 -0.3418
  190MOL0     H26217  10.477   1.627   3.221  0.2958 -1.5602 -2.0672
  190MOL0     H26218  10.429   1.941   3.274  0.1781 -0.3514  0.4180
  190MOL0     H26219  10.557   1.817   3.280 -1.8660  0.4399  2.2637
  190MOL0     H26220  10.579   1.960   3.181 -1.4156  2.2738  1.7842
  191MOL0     O26221   7.637   0.930   2.167 -0.6675 -0.0504  0.5836
  191MOL0     C26222   7.750   0.890   2.122  1.1137  0.2093 -0.6645
  191MOL0     O26223   7.807   0.941   2.006 -0.7882  0.1752 -0.0336
  191MOL0     C26224   7.756   1.056   1.950  0.9469  0.2207 -0.0743
  191MOL0     C26225   7.811   1.187   1.969 -0.2821 -0.7363  0.0487
  191MOL0     C26226   7.759   1.294   1.899 -0.5815 -0.0503 -0.1909
  191MOL0     C26227   7.661   1.281   1.794  0.5996 -0.4392  0.3644
  191MOL0     O26228   7.636   1.381   1.708 -0.2809  0.8458  0.1931
  191MOL0     C26229   7.598   1.333   1.573 -0.6197  0.1354 -0.4926
  191MOL0     C26230   7.632   1.443   1.473  0.5885  0.5648  0.3400
  191MOL0     C26231   7.511   1.541   1.450 -0.8531  0.4278  0.0599
  191MOL0     C26232   7.381   1.470   1.387 -0.0630 -0.4177 -0.0386
  191MOL0     C26233   7.315   1.564   1.280  0.3400  0.0735  0.1456
  191MOL0     C26234   7.239   1.688   1.335 -0.5353  0.8875 -0.2059
  191MOL0     C26235   7.255   1.820   1.260 -0.0211 -1.0891 -1.1218
  191MOL0     C26236   7.399   1.873   1.302 -0.4865  0.2063 -0.4023
  191MOL0     N26237   7.432   2.010   1.268  0.6680  0.1819  0.9315
  191MOL0     C26238   7.506   2.050   1.161  0.0696  0.0064 -0.4264
  191MOL0     C26239   7.497   2.190   1.159 -0.0493  1.5313 -0.8484
  191MOL0     C26240   7.565   2.280   1.055 -0.4587  0.5905 -0.6721
  191MOL0     C26241   7.572   2.429   1.093  0.0393 -0.6445 -0.8911
  191MOL0     C26242   7.661   2.500   1.003 -0.4180 -0.0440 -0.3585
  191MOL0     C26243   7.654   2.648   1.021 -0.9326  0.0369 -0.7975
  191MOL0     O26244   7.519   2.691   1.015  0.1823 -0.2291  0.7524
  191MOL0     C26245   7.478   2.800   1.089  0.4551 -0.1041  0.2092
  191MOL0     C26246   7.496   2.936   1.075  0.3695  0.2340  0.9985
  191MOL0     C26247   7.446   3.036   1.160 -0.0564  0.4702  0.0955
  191MOL0     C26248   7.478   3.194   1.145  0.2110 -0.6187  0.6564
  191MOL0     C26249   7.359   2.988   1.265  0.1858 -0.1622 -0.0738
  191MOL0     C26250   7.294   3.066   1.371  0.0713 -0.4658  0.5202
  191MOL0     O26251   7.196   2.995   1.445 -0.6433 -1.0095 -0.7414
  191MOL0     C26252   7.152   3.042   1.566  0.1103 -0.8625 -0.1155
  191MOL0     C26253   7.229   3.076   1.668 -0.7266  0.0524 -0.0092
  191MOL0     C26254   7.183   3.115   1.791 -0.6049 -0.6428 -0.1635
  191MOL0     C26255   7.038   3.128   1.812 -0.0363  0.6053  0.1150
  191MOL0     O26256   6.986   3.177   1.933 -0.8861  1.1546  0.0024
  191MOL0     C26257   7.027   3.088   2.038 -1.0023 -0.0167  0.8474
  191MOL0     C26258   6.895   3.023   2.085  0.6256  0.3961 -1.1006
  191MOL0     C26259   6.901   2.946   2.219  0.7926  0.8430 -0.7614
  191MOL0     C26260   6.764   2.896   2.258  0.5245 -0.5303  0.6290
  191MOL0     C26261   6.761   2.828   2.392 -0.1340  0.3265  0.3451
  191MOL0     C26262   6.625   2.786   2.435 -0.6341  0.2206  0.1530
  191MOL0     C26263   6.606   2.634   2.472  0.3216 -0.5467  0.7510
  191MOL0     C26264   6.615   2.546   2.354 -0.0637  0.3885  0.0423
  191MOL0    Cl26265   6.561   2.383   2.414  0.1616  0.4101 -0.1736
  191MOL0     C26266   6.954   3.102   1.703  0.2452 -0.1131  0.3143
  191MOL0     C26267   7.010   3.047   1.590  0.3785 -0.1621  0.4881
  191MOL0     O26268   7.335   3.173   1.401 -0.2800  0.0030 -0.7230
  191MOL0     C26269   7.337   2.850   1.279 -0.3651  0.3834  0.2851
  191MOL0     C26270   7.397   2.762   1.192  0.6320  0.3631 -0.3073
  191MOL0     N26271   7.418   2.229   1.266 -0.2982  0.2284  0.0235
  191MOL0     N26272   7.374   2.123   1.323 -0.4538 -0.0390  0.0879
  191MOL0     C26273   7.611   1.146   1.782 -0.4056  0.0577  0.3317
  191MOL0     C26274   7.663   1.040   1.853 -0.7816  0.5935  0.0025
  191MOL0     C26275   7.805   0.778   2.184 -1.1673  0.3365  0.4544
  191MOL0     C26276   7.742   0.720   2.294 -0.4773  0.2706 -0.4690
  191MOL0     C26277   7.780   0.604   2.363 -0.2845 -0.5140 -1.3387
  191MOL0     C26278   7.907   0.539   2.338 -0.1853 -0.3569 -0.9332
  191MOL0     O26279   7.964   0.440   2.421 -0.4664  0.2235 -0.0858
  191MOL0     C26280   7.891   0.379   2.521  0.1584  0.6600 -1.2641
  191MOL0     C26281   7.946   0.238   2.556 -0.0199 -0.5745 -0.7455
  191MOL0     C26282   8.103   0.216   2.581  0.2077  0.8109 -1.0989
  191MOL0     C26283   8.146   0.078   2.632 -0.0167 -0.0903  0.2786
  191MOL0     C26284   8.285   0.084   2.681 -0.5129  0.0780  0.9752
  191MOL0     C26285   8.403   0.078   2.694 -0.1682 -0.6462  1.0776
  191MOL0     C26286   7.977   0.596   2.230  0.3495 -0.5053  0.0999
  191MOL0     C26287   7.931   0.710   2.148 -0.0761  0.9594  0.3249
  191MOL0     C26288   8.016   0.740   2.026  0.7372  0.7707 -0.4586
  191MOL0     H26289   7.900   1.202   2.028  0.8322  1.5099 -2.0016
  191MOL0     H26290   7.812   1.387   1.918  4.3319 -2.9737  2.4086
  191MOL0     H26291   7.497   1.290   1.567 -0.4286 -1.0959  2.9791
  191MOL0     H26292   7.666   1.254   1.539  0.7401  1.5712 -1.2253
  191MOL0     H26293   7.723   1.487   1.515  1.6731 -3.1721  2.4006
  191MOL0     H26294   7.655   1.397   1.377  0.2311 -1.5735  1.2095
  191MOL0     H26295   7.477   1.574   1.548 -4.5384 -1.7700 -0.2652
  191MOL0     H26296   7.542   1.629   1.393  0.5182  0.2220  0.4563
  191MOL0     H26297   7.412   1.378   1.338 -0.0722  0.6213 -2.1188
  191MOL0     H26298   7.306   1.439   1.461 -1.6825  2.2534 -0.3829
  191MOL0     H26299   7.243   1.504   1.223 -1.0576 -1.1329  2.9586
  191MOL0     H26300   7.386   1.607   1.209  0.7248  1.0107  1.0702
  191MOL0     H26301   7.135   1.654   1.341  0.7062 -3.4748  0.3218
  191MOL0     H26302   7.274   1.702   1.438 -0.6407  2.1384 -0.3193
  191MOL0     H26303   7.174   1.887   1.291  0.1392 -1.3180 -0.1507
  191MOL0     H26304   7.256   1.811   1.151  6.1948  1.5503 -1.7406
  191MOL0     H26305   7.417   1.860   1.409  0.9662  0.6054 -0.5736
  191MOL0     H26306   7.476   1.813   1.252  1.1804 -0.3512  2.5975
  191MOL0     H26307   7.570   1.989   1.099 -0.4446 -2.9932  1.7904
  191MOL0     H26308   7.522   2.276   0.954  2.6686 -1.4096 -2.0846
  191MOL0     H26309   7.667   2.246   1.033 -1.0361 -0.1524 -2.4420
  191MOL0     H26310   7.468   2.461   1.084  1.3140  4.3509 -0.5906
  191MOL0     H26311   7.607   2.448   1.195  0.2332 -0.7404 -0.9388
  191MOL0     H26312   7.766   2.472   1.018 -0.3446  1.7845  3.7885
  191MOL0     H26313   7.633   2.487   0.898  0.2461  0.0086 -0.5521
  191MOL0     H26314   7.697   2.650   1.122  0.7178  4.1833 -1.4079
  191MOL0     H26315   7.710   2.706   0.948 -1.8108  0.7861 -0.8905
  191MOL0     H26316   7.546   2.968   0.985 -0.5342 -0.3541  0.2619
  191MOL0     H26317   7.559   3.224   1.212  2.3123  2.3040 -2.8469
  191MOL0     H26318   7.388   3.257   1.150 -0.3053 -0.5778 -4.2718
  191MOL0     H26319   7.509   3.209   1.042 -1.1756 -3.0060 -0.1863
  191MOL0     H26320   7.335   3.059   1.649 -1.1052 -1.3473 -1.0224
  191MOL0     H26321   7.250   3.127   1.875  2.0108 -0.5006 -2.1758
  191MOL0     H26322   7.099   3.008   2.018 -1.5265 -0.2469 -0.1590
  191MOL0     H26323   7.064   3.145   2.124  1.3681  1.8438 -1.2670
  191MOL0     H26324   6.820   3.101   2.101 -1.1910 -1.6765  1.6220
  191MOL0     H26325   6.849   2.955   2.013 -0.6236 -1.2107  1.0743
  191MOL0     H26326   6.930   3.014   2.300  0.0752  1.4684 -1.0191
  191MOL0     H26327   6.960   2.858   2.195 -2.7004 -1.6013 -1.1060
  191MOL0     H26328   6.728   2.820   2.189  1.7056 -1.3510  0.8837
  191MOL0     H26329   6.696   2.982   2.262  0.0202 -0.2787 -5.2138
  191MOL0     H26330   6.826   2.739   2.393 -0.8248 -0.2752 -1.9355
  191MOL0     H26331   6.797   2.898   2.468  0.6188  0.0262  0.2759
  191MOL0     H26332   6.542   2.807   2.367 -1.6514  1.0366  1.5790
  191MOL0     H26333   6.597   2.842   2.525 -2.0708 -0.4133  0.1218
  191MOL0     H26334   6.509   2.628   2.521  0.8841  2.2905  2.4047
  191MOL0     H26335   6.678   2.597   2.546  2.8393  0.0712 -1.2219
  191MOL0     H26336   6.720   2.538   2.322 -0.3398  0.4458 -0.9027
  191MOL0     H26337   6.556   2.587   2.271 -1.0397 -0.2215  0.4227
  191MOL0     H26338   6.847   3.107   1.721  0.8445  3.3267  4.3816
  191MOL0     H26339   6.945   3.010   1.511  1.1389 -1.6069  0.4977
  191MOL0     H26340   7.274   2.808   1.356 -0.1257 -0.4250  0.0565
  191MOL0     H26341   7.398   2.653   1.195  3.4196  0.0380 -4.3635
  191MOL0     H26342   7.532   1.142   1.707  0.9354  4.5054 -1.7161
  191MOL0     H26343   7.620   0.940   1.851 -1.1784  0.7391 -2.5380
  191MOL0     H26344   7.651   0.765   2.333  0.8803  1.6670  1.2044
  191MOL0     H26345   7.718   0.566   2.443 -0.5008 -0.3823 -1.4424
  191MOL0     H26346   7.873   0.438   2.611 -0.6504 -0.5858 -0.5644
  191MOL0     H26347   7.795   0.359   2.473  0.2090 -1.1580 -0.6868
  191MOL0     H26348   7.921   0.174   2.471 -0.6720 -0.0866 -0.9307
  191MOL0     H26349   7.897   0.194   2.642  2.3540  0.3534  1.2087
  191MOL0     H26350   8.157   0.228   2.486  2.6195  1.0827  0.2243
  191MOL0     H26351   8.136   0.287   2.657  0.9746 -0.4937 -0.1847
  191MOL0     H26352   8.130   0.012   2.546 -0.6712  0.4960 -0.0617
  191MOL0     H26353   8.078   0.038   2.707  0.5774 -1.9986 -0.1372
  191MOL0     H26354   8.508   0.094   2.684 -0.8359  4.0068 -0.8836
  191MOL0     H26355   8.074   0.553   2.206 -0.2737 -2.1983  0.4584
  191MOL0     H26356   8.120   0.715   2.052  0.7332 -1.7321 -2.4773
  191MOL0     H26357   8.001   0.671   1.943 -0.8445  1.6880 -0.9755
  191MOL0     H26358   8.023   0.845   1.996 -2.0825 -0.0620 -5.0816
  192MOL0     O26359   6.532   0.581   2.783 -0.5651  0.0307 -0.0501
  192MOL0     C26360   6.571   0.574   2.901  0.2907  0.6496  0.0798
  192MOL0     O26361   6.691   0.630   2.946 -0.2135 -0.3376 -0.1366
  192MOL0     C26362   6.775   0.689   2.852  1.1442 -0.4913  0.2949
  192MOL0     C26363   6.774   0.826   2.853  0.0432  0.3055 -0.6490
  192MOL0     C26364   6.828   0.889   2.743 -0.9354  0.0640  0.9725
  192MOL0     C26365   6.914   0.820   2.649 -0.0167  0.2622 -0.3731
  192MOL0     O26366   6.974   0.871   2.540 -0.4011 -0.2596 -0.0558
  192MOL0     C26367   6.901   0.982   2.473 -0.7148 -0.0695 -0.0670
  192MOL0     C26368   6.962   1.014   2.335  0.1094  0.5804 -0.5979
  192MOL0     C26369   6.895   1.112   2.235 -0.0267 -0.2955  0.0561
  192MOL0     C26370   6.852   1.244   2.307  0.1126  0.4228 -0.7252
  192MOL0     C26371   6.829   1.364   2.214 -0.4694  0.9369 -0.3803
  192MOL0     C26372   6.735   1.339   2.104 -0.6526 -0.8632  0.7842
  192MOL0     C26373   6.730   1.447   1.998  0.9147 -0.5685  0.0983
  192MOL0     C26374   6.605   1.441   1.914  1.2579  0.3300 -0.9904
  192MOL0     N26375   6.610   1.519   1.785  0.9075 -0.0952 -0.5441
  192MOL0     C26376   6.664   1.648   1.777 -0.1108  0.7084  1.2394
  192MOL0     C26377   6.610   1.705   1.662 -0.1858 -0.0764 -0.0878
  192MOL0     C26378   6.627   1.842   1.610  0.2751 -0.9479 -0.4288
  192MOL0     C26379   6.769   1.895   1.613  0.5835 -0.4566 -0.3486
  192MOL0     C26380   6.789   2.021   1.524 -0.3381 -0.0015  0.6932
  192MOL0     C26381   6.753   2.149   1.584 -0.1080 -0.7691 -0.6057
  192MOL0     O26382   6.805   2.179   1.713 -0.0877  0.0790 -0.1134
  192MOL0     C26383   6.932   2.241   1.715 -0.4360  0.1023 -0.0367
  192MOL0     C26384   7.047   2.250   1.625  0.1544  0.2230 -0.4662
  192MOL0     C26385   7.163   2.330   1.650  0.2502 -0.7203 -0.1285
  192MOL0     C26386   7.272   2.338   1.547 -0.4224  0.6380 -0.2433
  192MOL0     C26387   7.162   2.412   1.766 -1.0532 -0.4396 -0.6687
  192MOL0     C26388   7.266   2.506   1.801 -0.9567  0.6785  0.5674
  192MOL0     O26389   7.225   2.633   1.834  0.1598  0.1984 -0.2949
  192MOL0     C26390   7.325   2.724   1.820  0.2207  0.2540  0.1942
  192MOL0     C26391   7.356   2.807   1.929 -0.0102 -0.7690  0.5812
  192MOL0     C26392   7.480   2.884   1.935  0.7576  1.1927  0.1738
  192MOL0     C26393   7.566   2.885   1.821 -0.3105  0.0007 -0.4091
  192MOL0     O26394   7.673   2.976   1.823 -0.7634  0.5166 -0.6086
  192MOL0     C26395   7.776   2.963   1.725  0.7254  0.0662  0.7484
  192MOL0     C26396   7.751   3.032   1.584 -0.2275 -0.5001  0.3804
  192MOL0     C26397   7.808   2.958   1.466 -0.8946 -0.1245  0.2372
  192MOL0     C26398   7.776   3.020   1.335  0.6812  0.4898  0.6597
  192MOL0     C26399   7.829   2.929   1.217  0.1828 -0.7117 -0.0441
  192MOL0     C26400   7.977   2.905   1.200 -0.6555 -0.6452 -1.0461
  192MOL0     C26401   8.062   3.038   1.190 -0.1273  0.2703  0.1663
  192MOL0     C26402   8.214   3.021   1.201 -0.4946  0.5106  0.5642
  192MOL0    Cl26403   8.254   2.948   1.045  0.3659  0.0571  0.8533
  192MOL0     C26404   7.533   2.808   1.712  0.0593 -0.4966 -0.4491
  192MOL0     C26405   7.417   2.727   1.708  0.7802 -0.5768 -0.4458
  192MOL0     O26406   7.382   2.460   1.799  0.7621  0.2934  0.0400
  192MOL0     C26407   7.048   2.404   1.859 -0.5053 -0.3133 -0.4080
  192MOL0     C26408   6.946   2.318   1.836 -0.3347  0.2901  0.8315
  192MOL0     N26409   6.523   1.616   1.614 -0.0452  0.3742  0.1799
  192MOL0     N26410   6.514   1.505   1.688  0.0878  0.4453  0.0826
  192MOL0     C26411   6.907   0.683   2.646 -0.7681 -0.0369 -0.1262
  192MOL0     C26412   6.838   0.618   2.757 -0.3173  0.5982  0.7937
  192MOL0     C26413   6.497   0.496   2.994 -0.5511  0.4734  0.4627
  192MOL0     C26414   6.457   0.557   3.113 -0.7451 -0.0128 -0.6634
  192MOL0     C26415   6.379   0.489   3.207  0.6476 -0.3295  0.6350
  192MOL0     C26416   6.352   0.355   3.181 -0.3428 -0.5180 -1.3624
  192MOL0     O26417   6.280   0.276   3.270 -0.4017  0.2420 -0.5702
  192MOL0     C26418   6.234   0.334   3.393  0.5137 -0.1882  0.8667
  192MOL0     C26419   6.161   0.246   3.500 -1.0527 -0.4772  0.0200
  192MOL0     C26420   6.178   0.290   3.645  0.6290  0.0093 -0.9468
  192MOL0     C26421   6.295   0.218   3.724  0.4325  0.6511 -0.0229
  192MOL0     C26422   6.427   0.257   3.664  0.0133  0.1942  0.2208
  192MOL0     C26423   6.525   0.299   3.611 -0.1878  0.1858 -0.2195
  192MOL0     C26424   6.410   0.291   3.075  0.9527  0.1841 -0.4186
  192MOL0     C26425   6.482   0.351   2.982 -0.0932 -0.3239  0.1176
  192MOL0     C26426   6.546   0.275   2.871 -0.0731  0.0685  0.5290
  192MOL0     H26427   6.713   0.884   2.921  0.0319  0.5571 -0.8730
  192MOL0     H26428   6.806   0.992   2.718  1.9372  0.6525  0.4791
  192MOL0     H26429   6.914   1.069   2.538  0.0303 -2.1556  2.7808
  192MOL0     H26430   6.795   0.969   2.451 -0.5654 -1.3392 -0.0909
  192MOL0     H26431   7.058   1.060   2.360  1.7753 -1.3661 -2.9605
  192MOL0     H26432   6.977   0.915   2.290  0.7382  0.5684 -0.3692
  192MOL0     H26433   6.965   1.141   2.156 -1.7238  0.1661 -1.3480
  192MOL0     H26434   6.813   1.064   2.181  0.1110  0.2665 -0.6638
  192MOL0     H26435   6.778   1.222   2.384  0.9859  1.8271  0.5625
  192MOL0     H26436   6.943   1.287   2.350  0.1380  0.6590 -1.0121
  192MOL0     H26437   6.922   1.387   2.161 -0.2179 -1.6265 -1.1995
  192MOL0     H26438   6.794   1.450   2.272  1.3878  2.5878 -1.5706
  192MOL0     H26439   6.765   1.244   2.058  0.5006 -0.6283  1.0124
  192MOL0     H26440   6.640   1.321   2.156 -0.9214 -3.4139 -0.4596
  192MOL0     H26441   6.825   1.447   1.945 -0.7167 -0.8673 -3.0556
  192MOL0     H26442   6.716   1.544   2.047 -3.5668  0.2025 -2.1481
  192MOL0     H26443   6.567   1.345   1.879 -2.6237  1.5082 -0.4290
  192MOL0     H26444   6.516   1.480   1.963 -1.7156 -2.5000 -3.6877
  192MOL0     H26445   6.735   1.695   1.844  0.1596  0.6182  1.0135
  192MOL0     H26446   6.566   1.906   1.674 -1.4352 -1.3464 -1.5809
  192MOL0     H26447   6.595   1.837   1.506  1.4565 -2.7793 -0.7710
  192MOL0     H26448   6.817   1.912   1.710  1.3046 -1.0433 -0.5907
  192MOL0     H26449   6.824   1.813   1.565 -1.7440 -1.2518 -1.8393
  192MOL0     H26450   6.896   2.032   1.504 -0.2124 -1.3490  0.5534
  192MOL0     H26451   6.740   2.012   1.427 -0.0461  0.7734  0.4699
  192MOL0     H26452   6.779   2.228   1.512 -1.7405 -0.6226 -1.0716
  192MOL0     H26453   6.644   2.154   1.589 -0.0956  0.3472 -1.1410
  192MOL0     H26454   7.039   2.191   1.535 -1.4848  1.7564 -1.3969
  192MOL0     H26455   7.357   2.281   1.585 -1.1747 -0.4649 -0.1899
  192MOL0     H26456   7.296   2.445   1.539 -1.2691  0.9088  0.6858
  192MOL0     H26457   7.232   2.304   1.450 -0.8078 -0.3769  0.2600
  192MOL0     H26458   7.294   2.798   2.018 -0.0383 -0.6891  0.5697
  192MOL0     H26459   7.494   2.946   2.024 -1.6849 -0.4025  1.7940
  192MOL0     H26460   7.873   2.988   1.768 -0.1417  1.7838  1.7867
  192MOL0     H26461   7.791   2.858   1.699 -2.7615 -0.6420  1.1639
  192MOL0     H26462   7.643   3.044   1.569  0.1600  0.7176 -1.9604
  192MOL0     H26463   7.788   3.135   1.585 -2.0391  0.2349 -0.9328
  192MOL0     H26464   7.762   2.859   1.463  2.2657 -1.9362  3.2976
  192MOL0     H26465   7.917   2.948   1.476 -0.7076  0.1053 -1.3384
  192MOL0     H26466   7.825   3.118   1.324  0.5797  0.4083 -0.6765
  192MOL0     H26467   7.667   3.026   1.328  0.7153 -0.2852 -0.8385
  192MOL0     H26468   7.770   2.837   1.216 -1.3432  0.1806  1.7401
  192MOL0     H26469   7.803   2.988   1.130 -1.6951  1.2342  1.7357
  192MOL0     H26470   7.985   2.846   1.108 -3.7157 -1.4809 -0.8924
  192MOL0     H26471   8.025   2.856   1.286  0.4478  2.9363  0.5556
  192MOL0     H26472   8.042   3.100   1.278  1.5347  1.7002 -0.4073
  192MOL0     H26473   8.037   3.104   1.106  0.9044  4.5412  2.9072
  192MOL0     H26474   8.243   2.966   1.292  0.3599  0.2696  0.1592
  192MOL0     H26475   8.271   3.114   1.211 -1.6950  1.2116  1.1675
  192MOL0     H26476   7.585   2.820   1.617  2.7784 -0.4372  0.9655
  192MOL0     H26477   7.405   2.670   1.617  0.7146  1.4572 -1.7843
  192MOL0     H26478   7.045   2.467   1.947 -0.2714 -1.3281  0.3425
  192MOL0     H26479   6.860   2.319   1.902  1.2545 -0.6110  3.0282
  192MOL0     H26480   6.963   0.627   2.572 -1.6494 -4.7495  2.4297
  192MOL0     H26481   6.846   0.509   2.755  0.7136  0.6692  0.4671
  192MOL0     H26482   6.474   0.662   3.135 -3.2535 -0.0117  1.8552
  192MOL0     H26483   6.331   0.544   3.288  1.3375  0.1204  0.7465
  192MOL0     H26484   6.324   0.367   3.447  0.9381  0.9966 -0.5034
  192MOL0     H26485   6.175   0.417   3.353  0.2786 -0.8469 -0.1870
  192MOL0     H26486   6.213   0.150   3.508  1.0233  0.6882  1.6511
  192MOL0     H26487   6.052   0.241   3.491 -1.3663  1.0641  2.3103
  192MOL0     H26488   6.168   0.399   3.641 -0.9321 -0.1070 -1.0945
  192MOL0     H26489   6.082   0.261   3.691 -1.4703  4.5219 -1.9061
  192MOL0     H26490   6.282   0.110   3.716 -1.1622  0.7894  0.2383
  192MOL0     H26491   6.287   0.251   3.828 -1.7676  1.5672 -0.4150
  192MOL0     H26492   6.618   0.318   3.563 -0.2693 -1.2729 -1.0131
  192MOL0     H26493   6.392   0.184   3.066  2.8835 -0.0755 -1.8254
  192MOL0     H26494   6.554   0.346   2.788 -2.8607  5.3531  4.1285
  192MOL0     H26495   6.649   0.250   2.899 -0.7514 -1.5456  1.7174
  192MOL0     H26496   6.475   0.200   2.835 -0.0649  0.5610 -0.5599
  193MOL0     O26497   4.684  10.647   1.307 -0.1277 -0.0788 -0.6793
  193MOL0     C26498   4.777  10.713   1.257 -0.1979  1.4019 -0.4234
  193MOL0     O26499   4.891  10.738   1.331 -0.3066  0.4846  0.5996
  193MOL0     C26500   4.866  10.732   1.464  0.2954  1.2167  0.4327
  193MOL0     C26501   4.850  10.607   1.532 -0.1884  0.0467  0.9487
  193MOL0     C26502   4.804  10.601   1.667 -0.7138 -0.4148 -0.1303
  193MOL0     C26503   4.790  10.715   1.744  0.3446  0.1261 -0.6687
  193MOL0     O26504   4.779  10.687   1.883  0.0883 -0.8337  0.0955
  193MOL0     C26505   4.715  10.781   1.965  0.6994  0.2477  1.2030
  193MOL0     C26506   4.799  10.835   2.082 -0.0978  0.0735 -0.1307
  193MOL0     C26507   4.857  10.974   2.051  0.1905  1.0080 -0.1844
  193MOL0     C26508   4.896  11.036   2.190  0.5906 -0.9127 -0.1833
  193MOL0     C26509   5.010  11.142   2.188 -0.5411  0.1044  0.0991
  193MOL0     C26510   5.146  11.068   2.176  0.0414  0.1850  0.1632
  193MOL0     C26511   5.255  11.178   2.166  0.7533  0.4956 -0.1365
  193MOL0     C26512   5.396  11.121   2.185 -0.1737  0.5259 -0.8060
  193MOL0     N26513   5.432  11.035   2.076 -0.0093  0.3535 -0.0062
  193MOL0     C26514   5.492  11.072   1.958 -1.4258 -0.4286 -0.9750
  193MOL0     C26515   5.476  10.964   1.884  0.6720  0.2243  0.1875
  193MOL0     C26516   5.530  10.950   1.742  0.1701  0.6912 -0.1719
  193MOL0     C26517   5.665  10.875   1.744 -1.2541  0.4764  0.2608
  193MOL0     C26518   5.762  10.931   1.634  0.1517  0.4220  0.4387
  193MOL0     C26519   5.900  10.847   1.624  0.1690 -0.8113  0.3000
  193MOL0     O26520   5.993  10.918   1.542 -0.5065 -0.0609 -0.6173
  193MOL0     C26521   6.121  10.870   1.553 -0.8512  1.2442 -0.7085
  193MOL0     C26522   6.220  10.962   1.540  0.5134 -0.5272  0.7764
  193MOL0     C26523   6.360  10.931   1.547 -0.6102  0.3669  0.7015
  193MOL0     C26524   6.475  11.029   1.507  0.4143 -1.2467 -0.0606
  193MOL0     C26525   6.394  10.796   1.579  0.4261 -0.4325  0.6275
  193MOL0     C26526   6.530  10.763   1.611  0.1967  0.6664 -0.1154
  193MOL0     O26527   6.588  10.838   1.698  1.0219 -0.2121 -0.3187
  193MOL0     C26528   6.713  10.838   1.730  0.4297 -0.8773  1.5776
  193MOL0     C26529   6.786  10.957   1.723 -0.0123 -0.7083 -0.2505
  193MOL0     C26530   6.921  10.972   1.771 -0.7663 -0.1916  0.3355
  193MOL0     C26531   6.981  10.862   1.832  0.1164 -0.6963 -0.1441
  193MOL0     O26532   7.111  10.867   1.858  0.0207 -0.2065  0.0519
  193MOL0     C26533   7.191  10.752   1.878 -0.3631 -0.3460 -0.3628
  193MOL0     C26534   7.333  10.782   1.880  0.8262 -0.1194  1.5873
  193MOL0     C26535   7.384  10.857   1.993  0.1818 -1.4842  0.1899
  193MOL0     C26536   7.544  10.847   1.995  1.0136  0.8511  0.6076
  193MOL0     C26537   7.611  10.928   2.111  0.7139 -0.1600 -2.0268
  193MOL0     C26538   7.544  10.880   2.248 -0.3353 -0.5516 -0.8354
  193MOL0     C26539   7.579  10.979   2.365  0.7671  0.0086  0.4748
  193MOL0     C26540   7.568  10.909   2.498 -0.2271  1.1304  0.8471
  193MOL0    Cl26541   7.604  11.028   2.624  0.0706  0.2126  0.4786
  193MOL0     C26542   6.905  10.745   1.843 -0.1403 -0.7314  0.6449
  193MOL0     C26543   6.780  10.730   1.781  0.9865 -0.2692 -0.9589
  193MOL0     O26544   6.574  10.658   1.566 -0.6141  0.9123  0.4839
  193MOL0     C26545   6.298  10.702   1.616  0.2829 -0.4173  0.0189
  193MOL0     C26546   6.165  10.736   1.595 -0.2649 -0.0746  0.6183
  193MOL0     N26547   5.415  10.859   1.949 -0.0127 -0.1168  0.2333
  193MOL0     N26548   5.378  10.912   2.063  0.4236  0.3889  0.2026
  193MOL0     C26549   4.813  10.842   1.684 -0.3421  0.1906  0.0653
  193MOL0     C26550   4.849  10.845   1.542  0.1469 -0.1560 -0.3812
  193MOL0     C26551   4.750  10.749   1.121 -0.7163 -0.5145 -0.2418
  193MOL0     C26552   4.618  10.791   1.080 -0.4651  1.0985  0.2508
  193MOL0     C26553   4.584  10.830   0.953 -0.5138  0.1715  0.2120
  193MOL0     C26554   4.683  10.809   0.850  0.0129  0.1227 -0.6255
  193MOL0     O26555   4.643  10.837   0.719 -0.4209  0.2797  0.1859
  193MOL0     C26556   4.547  10.744   0.661 -0.9959 -0.8451  0.9495
  193MOL0     C26557   4.573  10.752   0.512 -0.5087 -0.2740  0.6205
  193MOL0     C26558   4.702  10.715   0.466 -0.1753 -0.5846  0.4229
  193MOL0     C26559   4.723  10.699   0.314  0.3161  0.7316 -0.0506
  193MOL0     C26560   4.656  10.577   0.260  0.3913 -0.3905  0.0008
  193MOL0     C26561   4.596  10.488   0.210 -0.1039  0.3737  0.7112
  193MOL0     C26562   4.807  10.753   0.887  0.8140  0.6707 -0.1731
  193MOL0     C26563   4.845  10.734   1.016  0.3361 -0.6297  0.3445
  193MOL0     C26564   4.973  10.670   1.041 -0.7349  1.5615 -0.3216
  193MOL0     H26565   4.863  10.515   1.475 -3.5750 -0.3358  0.5341
  193MOL0     H26566   4.782  10.503   1.708 -3.0541  0.5087  1.0086
  193MOL0     H26567   4.625  10.737   2.008 -1.1497 -0.1216 -2.6090
  193MOL0     H26568   4.682  10.866   1.905  2.8691 -0.3004 -0.9317
  193MOL0     H26569   4.729  10.845   2.166 -1.6501  2.1960 -1.5903
  193MOL0     H26570   4.869  10.757   2.114 -0.7961 -0.3323  0.4471
  193MOL0     H26571   4.945  10.946   1.993 -0.7093  2.0016 -2.1478
  193MOL0     H26572   4.789  11.044   2.001 -1.6747 -0.2369  0.4895
  193MOL0     H26573   4.803  11.080   2.227 -0.3611 -4.0717  1.4934
  193MOL0     H26574   4.926  10.968   2.270  3.0913  2.2151  1.7920
  193MOL0     H26575   4.998  11.178   2.290 -1.6353 -3.7346  1.5226
  193MOL0     H26576   4.997  11.221   2.113  2.4004  0.5296 -0.0885
  193MOL0     H26577   5.168  11.009   2.265 -2.9629 -0.1336  0.7936
  193MOL0     H26578   5.159  11.003   2.089 -0.2784 -1.1711  1.0952
  193MOL0     H26579   5.232  11.256   2.239  2.1350  1.4042 -0.6355
  193MOL0     H26580   5.251  11.219   2.065 -0.4159  0.6380 -0.0502
  193MOL0     H26581   5.466  11.205   2.196 -1.9356  1.7649  1.8334
  193MOL0     H26582   5.390  11.067   2.279  0.6782  3.3799  1.0228
  193MOL0     H26583   5.541  11.167   1.940  1.8105 -2.0610 -1.4766
  193MOL0     H26584   5.523  11.044   1.686 -4.3349  0.8429  0.2821
  193MOL0     H26585   5.459  10.878   1.702 -0.1115 -0.2052  1.8226
  193MOL0     H26586   5.710  10.892   1.842  0.1731 -0.0678 -0.2774
  193MOL0     H26587   5.662  10.766   1.747  0.6905  0.4086  1.4655
  193MOL0     H26588   5.709  10.923   1.539 -1.6483  4.4826  0.9044
  193MOL0     H26589   5.771  11.037   1.660 -0.8617 -0.1692  3.7883
  193MOL0     H26590   5.936  10.839   1.727 -1.8365  2.7647  1.4539
  193MOL0     H26591   5.881  10.749   1.579  1.9156  0.0657 -2.5678
  193MOL0     H26592   6.194  11.065   1.518  1.6930  0.2235  2.5738
  193MOL0     H26593   6.458  11.059   1.404  1.8649 -0.5385 -0.1071
  193MOL0     H26594   6.577  10.993   1.496  1.2503  1.4391 -2.3579
  193MOL0     H26595   6.474  11.106   1.585 -3.1832  0.0154 -1.1276
  193MOL0     H26596   6.747  11.053   1.692  0.1079 -0.4871  0.2680
  193MOL0     H26597   6.968  11.070   1.773 -2.9531  0.9220  0.4755
  193MOL0     H26598   7.164  10.697   1.969  0.7296 -0.4728 -0.1056
  193MOL0     H26599   7.187  10.673   1.802  2.7206 -3.2337  2.1161
  193MOL0     H26600   7.390  10.688   1.879  0.3386 -0.5598 -2.6033
  193MOL0     H26601   7.345  10.836   1.786 -2.9965 -0.6989  0.5885
  193MOL0     H26602   7.356  10.801   2.084  2.4251  1.4827  2.9455
  193MOL0     H26603   7.350  10.960   2.003  2.2401 -0.5129 -2.0398
  193MOL0     H26604   7.580  10.864   1.893  1.7726 -2.3079  0.2307
  193MOL0     H26605   7.585  10.746   2.002 -0.8719  0.0291  0.6715
  193MOL0     H26606   7.719  10.911   2.119  0.4796 -2.4708 -2.9023
  193MOL0     H26607   7.585  11.034   2.106  0.9534  0.1330  0.9943
  193MOL0     H26608   7.584  10.779   2.263  1.4325  0.2525  0.1227
  193MOL0     H26609   7.434  10.883   2.250 -0.3897  3.2200 -1.8510
  193MOL0     H26610   7.497  11.051   2.358  0.5012 -0.1610  1.6074
  193MOL0     H26611   7.678  11.015   2.335  0.0800  0.7987 -0.9561
  193MOL0     H26612   7.639  10.825   2.497 -1.9272 -0.4983 -2.6508
  193MOL0     H26613   7.471  10.868   2.528 -0.3747  1.3707  0.6963
  193MOL0     H26614   6.939  10.652   1.887  2.7874  1.5572  3.7138
  193MOL0     H26615   6.718  10.643   1.800 -1.2571  1.4710  0.2723
  193MOL0     H26616   6.327  10.598   1.628 -5.6461 -2.6541 -1.3479
  193MOL0     H26617   6.087  10.663   1.619 -0.9473 -0.4679 -2.3323
  193MOL0     H26618   4.796  10.937   1.736 -1.6953 -0.0172  0.0319
  193MOL0     H26619   4.855  10.940   1.489 -2.0765  0.6343  0.6586
  193MOL0     H26620   4.546  10.794   1.162  0.2244 -1.5680  1.0498
  193MOL0     H26621   4.484  10.859   0.922 -0.6053 -1.2658 -0.9967
  193MOL0     H26622   4.578  10.646   0.698 -0.1819 -0.9490  0.0434
  193MOL0     H26623   4.442  10.766   0.683 -0.3169  1.8283  1.9749
  193MOL0     H26624   4.565  10.857   0.481 -0.0129  0.7676  3.6985
  193MOL0     H26625   4.497  10.688   0.465 -0.4398 -0.3346  0.5924
  193MOL0     H26626   4.776  10.789   0.500  0.0210 -0.5949  0.0155
  193MOL0     H26627   4.737  10.626   0.518  0.2400 -1.0390 -0.6131
  193MOL0     H26628   4.830  10.697   0.291  0.2659  4.6791 -1.3656
  193MOL0     H26629   4.683  10.787   0.264  0.8960  2.1217  1.8055
  193MOL0     H26630   4.569  10.394   0.168 -1.0560  0.6896  0.5945
  193MOL0     H26631   4.886  10.756   0.812  0.6931  3.5735 -0.3250
  193MOL0     H26632   5.017  10.643   0.944 -1.1439 -0.4986  0.0250
  193MOL0     H26633   5.042  10.743   1.085 -2.2632  1.4665  2.4357
  193MOL0     H26634   4.958  10.589   1.113  2.5172  0.7948 -0.3431
  194MOL0     O26635   5.903   0.040   6.622 -0.0238 -0.0771 -1.0764
  194MOL0     C26636   5.939  -0.003   6.513  0.0835 -0.9079  0.4948
  194MOL0     O26637   5.993  -0.124   6.477  0.3388  0.3210 -0.3421
  194MOL0     C26638   6.023  -0.233   6.566  0.0368  0.4743  0.8029
  194MOL0     C26639   6.001  -0.241   6.710  0.4541 -0.5598  0.6541
  194MOL0     C26640   6.037  -0.358   6.768 -0.0916  1.2147  0.0506
  194MOL0     C26641   6.097  -0.467   6.712 -0.0337  0.3864  0.2906
  194MOL0     O26642   6.131  -0.591   6.763 -0.3150  0.5883  0.3039
  194MOL0     C26643   6.180  -0.597   6.901  0.0546 -0.1019  0.3474
  194MOL0     C26644   6.310  -0.690   6.910 -0.3873 -1.1455  0.8277
  194MOL0     C26645   6.296  -0.838   6.868  0.6122  0.0702  1.0527
  194MOL0     C26646   6.204  -0.933   6.951 -1.5106 -0.0378  0.5158
  194MOL0     C26647   6.262  -0.958   7.088  0.2730  0.4817  0.7083
  194MOL0     C26648   6.193  -1.056   7.181 -0.3003 -0.3473 -0.0376
  194MOL0     C26649   6.257  -1.046   7.323  0.5252  0.5187  0.0736
  194MOL0     C26650   6.182  -1.122   7.428  0.5453  0.0930 -0.4795
  194MOL0     N26651   6.195  -1.076   7.567 -1.0208 -0.3731  0.3189
  194MOL0     C26652   6.292  -1.113   7.661  0.3340  0.6489  0.4997
  194MOL0     C26653   6.250  -1.056   7.780 -0.2287  0.0237  0.8782
  194MOL0     C26654   6.333  -1.078   7.909  0.0860  0.0028 -0.4961
  194MOL0     C26655   6.243  -1.137   8.020 -0.6525 -0.4633  0.2283
  194MOL0     C26656   6.334  -1.188   8.136 -0.5480 -0.2334 -0.0918
  194MOL0     C26657   6.273  -1.314   8.205 -0.0944 -0.1936 -0.9149
  194MOL0     O26658   6.343  -1.338   8.329 -0.0955 -0.5285 -0.1382
  194MOL0     C26659   6.427  -1.448   8.330  0.2391  0.1125 -0.7997
  194MOL0     C26660   6.489  -1.499   8.212  0.1473  0.1575 -0.6508
  194MOL0     C26661   6.585  -1.609   8.222 -0.6251  0.0784  0.3958
  194MOL0     C26662   6.639  -1.654   8.080  0.4087 -0.2263 -0.2360
  194MOL0     C26663   6.612  -1.670   8.344  0.0056  0.5338 -1.0490
  194MOL0     C26664   6.700  -1.794   8.365 -0.4980 -0.4759  1.0735
  194MOL0     O26665   6.719  -1.836   8.502  0.3469 -0.2922 -0.2522
  194MOL0     C26666   6.795  -1.936   8.543 -0.2406 -0.0696 -0.1651
  194MOL0     C26667   6.789  -1.967   8.680 -0.4423 -1.0565  0.8402
  194MOL0     C26668   6.862  -2.079   8.725  0.7953  0.2530  0.7092
  194MOL0     C26669   6.957  -2.150   8.647 -0.3785  0.3936 -0.7784
  194MOL0     O26670   7.044  -2.255   8.694  0.4249 -0.4162 -0.2763
  194MOL0     C26671   7.082  -2.262   8.832  1.0867  0.9220 -0.2330
  194MOL0     C26672   7.190  -2.362   8.875  0.3313  0.2082 -0.4493
  194MOL0     C26673   7.157  -2.429   9.010 -0.4380  0.3355  0.2496
  194MOL0     C26674   7.167  -2.337   9.134  0.4175 -0.1474  0.9518
  194MOL0     C26675   7.257  -2.377   9.251 -0.8202  0.6209  0.2107
  194MOL0     C26676   7.198  -2.505   9.323 -0.0959 -0.7483 -0.7462
  194MOL0     C26677   7.333  -2.560   9.406 -0.7161 -0.4745  0.5200
  194MOL0     C26678   7.286  -2.613   9.536  0.4375 -0.2351  0.0535
  194MOL0    Cl26679   7.438  -2.614   9.637 -0.3617  0.3727  0.2515
  194MOL0     C26680   6.983  -2.098   8.519  0.1143  0.0899 -0.2609
  194MOL0     C26681   6.894  -2.006   8.458  0.6123 -0.1027  0.6718
  194MOL0     O26682   6.747  -1.844   8.261 -0.0194  0.0160 -0.4722
  194MOL0     C26683   6.550  -1.619   8.458 -0.3772  0.2943  0.5642
  194MOL0     C26684   6.464  -1.513   8.453 -0.2056 -0.5802  0.0245
  194MOL0     N26685   6.140  -0.978   7.756 -0.0330 -0.0076  0.8745
  194MOL0     N26686   6.107  -1.000   7.637 -0.0038  0.6475  0.2672
  194MOL0     C26687   6.104  -0.468   6.574 -0.8260  0.4092 -0.5257
  194MOL0     C26688   6.075  -0.351   6.505 -0.3164  0.0494 -0.2125
  194MOL0     C26689   5.947   0.117   6.420 -0.2451  1.0380 -0.3450
  194MOL0     C26690   5.850   0.135   6.323 -0.2281  0.4226  0.2996
  194MOL0     C26691   5.864   0.233   6.234  0.8552 -0.9754  0.3495
  194MOL0     C26692   5.956   0.337   6.239 -0.0619  1.0867 -0.3249
  194MOL0     O26693   5.959   0.408   6.134 -0.1677  0.7147  0.0537
  194MOL0     C26694   6.067   0.498   6.116  0.1090 -0.0499  0.2183
  194MOL0     C26695   6.049   0.597   5.999  0.1215 -0.5968  0.0143
  194MOL0     C26696   6.080   0.541   5.863 -0.0146 -0.5649 -0.1865
  194MOL0     C26697   6.071   0.655   5.753  0.5012  0.6116  0.2037
  194MOL0     C26698   5.939   0.710   5.731  0.1474 -0.1855 -1.1268
  194MOL0     C26699   5.832   0.738   5.703 -0.4612  0.2426 -0.4388
  194MOL0     C26700   6.049   0.320   6.343 -0.0129  0.9735 -0.3560
  194MOL0     C26701   6.053   0.202   6.424 -0.6829 -0.1179  1.0748
  194MOL0     C26702   6.159   0.189   6.524  0.0077  0.1533 -0.4557
  194MOL0     H26703   5.965  -0.162   6.774 -2.1633  0.0168 -1.3968
  194MOL0     H26704   6.019  -0.366   6.875  1.0079 -0.1154  0.1661
  194MOL0     H26705   6.112  -0.652   6.968  1.0350  0.1214  1.5619
  194MOL0     H26706   6.202  -0.500   6.946 -0.5999  0.4562 -0.5080
  194MOL0     H26707   6.393  -0.650   6.851 -0.6503 -2.8647 -0.8004
  194MOL0     H26708   6.337  -0.684   7.016 -0.9317  0.9632  0.8956
  194MOL0     H26709   6.267  -0.842   6.763  0.0000  1.6401  1.1366
  194MOL0     H26710   6.399  -0.877   6.874  1.5020  2.2469  0.6653
  194MOL0     H26711   6.100  -0.899   6.952 -2.2355 -2.0463  2.2538
  194MOL0     H26712   6.200  -1.029   6.898  2.9088  0.2103 -0.6363
  194MOL0     H26713   6.269  -0.863   7.142  2.4322  0.8379 -0.1361
  194MOL0     H26714   6.364  -0.998   7.084 -0.1462 -0.5038 -1.0607
  194MOL0     H26715   6.089  -1.023   7.188 -0.7288 -1.9492  2.6884
  194MOL0     H26716   6.225  -1.150   7.137  1.8429 -1.3069  3.1697
  194MOL0     H26717   6.254  -0.938   7.343  3.6595  0.5853  0.7773
  194MOL0     H26718   6.358  -1.088   7.320 -0.6967 -2.7477  0.4729
  194MOL0     H26719   6.081  -1.140   7.390  0.0022  0.9370  0.5148
  194MOL0     H26720   6.225  -1.223   7.429 -0.5552 -0.4070 -0.8423
  194MOL0     H26721   6.380  -1.175   7.648 -0.0825 -0.6791  3.1969
  194MOL0     H26722   6.380  -0.986   7.944  0.6824  0.3570 -2.1111
  194MOL0     H26723   6.413  -1.150   7.892  2.0659  1.0907  3.2289
  194MOL0     H26724   6.171  -1.061   8.052  0.6629  0.7421  0.4515
  194MOL0     H26725   6.187  -1.222   7.980  0.8043 -1.5866  0.4736
  194MOL0     H26726   6.433  -1.213   8.100  1.3165  1.9232  3.0044
  194MOL0     H26727   6.340  -1.100   8.201  0.1093  1.2322 -2.0491
  194MOL0     H26728   6.167  -1.301   8.226  0.4036 -0.7780  2.6497
  194MOL0     H26729   6.274  -1.394   8.131  0.7633  0.3300 -1.4886
  194MOL0     H26730   6.473  -1.458   8.113  0.4991 -4.0520 -2.6628
  194MOL0     H26731   6.742  -1.618   8.069 -0.0321  1.4626  0.8301
  194MOL0     H26732   6.577  -1.611   8.001 -2.2481  0.9151  2.2789
  194MOL0     H26733   6.636  -1.763   8.068  3.8069 -0.1397 -4.2251
  194MOL0     H26734   6.720  -1.908   8.739  1.2461  3.2607 -1.0673
  194MOL0     H26735   6.839  -2.093   8.830  1.6908  1.1488  1.0357
  194MOL0     H26736   7.129  -2.167   8.860  1.6675  0.0247  2.0951
  194MOL0     H26737   6.997  -2.266   8.900 -0.9581  0.3735 -2.6869
  194MOL0     H26738   7.205  -2.433   8.793 -1.0715 -4.2377  2.7458
  194MOL0     H26739   7.285  -2.309   8.891 -0.4886  1.2475  1.3968
  194MOL0     H26740   7.227  -2.513   9.008 -0.8540 -0.0054 -1.6804
  194MOL0     H26741   7.054  -2.466   9.007 -0.0943 -0.5663 -2.2428
  194MOL0     H26742   7.061  -2.317   9.153 -0.0055 -2.4205  1.2374
  194MOL0     H26743   7.203  -2.242   9.093 -1.2734  0.0127 -0.2873
  194MOL0     H26744   7.359  -2.399   9.217  0.1643  0.1301  3.1781
  194MOL0     H26745   7.273  -2.291   9.318 -2.1102  1.1836 -0.1829
  194MOL0     H26746   7.157  -2.581   9.256 -0.0793 -1.5697  0.1610
  194MOL0     H26747   7.122  -2.473   9.395  1.8477 -3.2683  2.7330
  194MOL0     H26748   7.413  -2.489   9.426 -3.1017  1.9723  2.0714
  194MOL0     H26749   7.390  -2.631   9.346  1.1447 -0.9743  2.7122
  194MOL0     H26750   7.238  -2.709   9.517  2.6799 -1.4659  0.2502
  194MOL0     H26751   7.213  -2.544   9.581 -0.3216 -1.6353  1.0472
  194MOL0     H26752   7.057  -2.131   8.447 -1.7326  0.3306 -2.3893
  194MOL0     H26753   6.910  -1.971   8.356  0.1786  0.2690  0.7271
  194MOL0     H26754   6.562  -1.657   8.559  0.1336 -1.0653  0.0213
  194MOL0     H26755   6.420  -1.480   8.546 -0.5316  0.0994 -0.3613
  194MOL0     H26756   6.125  -0.560   6.522  2.5138 -1.4144  3.4638
  194MOL0     H26757   6.090  -0.353   6.397  3.2006 -0.2611  0.1552
  194MOL0     H26758   5.772   0.060   6.329  0.3588 -0.1148  1.8988
  194MOL0     H26759   5.792   0.245   6.154  1.0157  3.5338  0.6252
  194MOL0     H26760   6.076   0.558   6.207 -1.3401 -2.3215  1.9782
  194MOL0     H26761   6.163   0.445   6.121 -0.3255 -0.9880 -0.8417
  194MOL0     H26762   6.117   0.682   6.012  0.5701 -0.9563  0.0343
  194MOL0     H26763   5.948   0.638   6.012  1.5201  2.5075  2.5439
  194MOL0     H26764   6.176   0.491   5.875 -0.8095 -2.8327 -2.3647
  194MOL0     H26765   6.009   0.459   5.848  2.4340 -3.1015  1.1995
  194MOL0     H26766   6.106   0.606   5.662  0.8597  1.9725 -0.4139
  194MOL0     H26767   6.144   0.735   5.769  4.3030 -2.1660 -1.6671
  194MOL0     H26768   5.741   0.759   5.651 -2.1372 -2.8891  0.9576
  194MOL0     H26769   6.129   0.393   6.343  2.1530 -1.0073 -4.8189
  194MOL0     H26770   6.239   0.261   6.505  1.1041 -1.2795 -1.5168
  194MOL0     H26771   6.110   0.199   6.621 -0.2136 -0.0177 -0.5498
  194MOL0     H26772   6.212   0.094   6.518  2.5457  1.3442  1.3238
  195MOL0     O26773   1.168   6.695  10.498 -0.3722 -0.1235 -0.0699
  195MOL0     C26774   1.121   6.658  10.384  0.7226 -0.0717  0.8038
  195MOL0     O26775   1.210   6.628  10.274  0.2178  0.5417 -0.7371
  195MOL0     C26776   1.346   6.613  10.305  0.1782 -0.3212 -0.0294
  195MOL0     C26777   1.416   6.492  10.312  0.7404  0.0205  0.4247
  195MOL0     C26778   1.555   6.489  10.331  0.1363  0.2744 -0.3018
  195MOL0     C26779   1.630   6.609  10.342 -0.8192  0.6984 -0.3758
  195MOL0     O26780   1.770   6.618  10.360  0.3969  0.0259 -0.0838
  195MOL0     C26781   1.855   6.495  10.357  0.2187  0.0989 -0.4513
  195MOL0     C26782   1.866   6.470  10.208 -0.2486  0.7014  0.6474
  195MOL0     C26783   1.991   6.554  10.159  0.3881  0.1852  0.0810
  195MOL0     C26784   1.953   6.692  10.110  0.5438  0.8389  0.8303
  195MOL0     C26785   2.052   6.779  10.025  1.0710  0.2998 -1.6594
  195MOL0     C26786   1.993   6.910   9.968 -0.6312 -0.5014  0.1796
  195MOL0     C26787   2.040   7.033  10.045 -0.0638  0.0838 -0.1037
  195MOL0     C26788   1.991   7.158   9.967 -0.6470 -0.1867 -0.6195
  195MOL0     N26789   1.845   7.164   9.939 -0.9105  0.2562  0.2584
  195MOL0     C26790   1.760   7.141  10.044  0.4039  0.1476  0.1174
  195MOL0     C26791   1.639   7.125   9.983 -0.0597 -0.4552  0.0495
  195MOL0     C26792   1.519   7.103  10.066 -0.3515  0.8679  0.6585
  195MOL0     C26793   1.445   7.231  10.107 -0.8281  0.5521 -0.3274
  195MOL0     C26794   1.428   7.338   9.993 -0.3112 -0.3861 -0.3022
  195MOL0     C26795   1.329   7.444  10.026  0.7673  0.4593  0.3452
  195MOL0     O26796   1.371   7.489  10.153 -0.5741 -0.6505 -0.0818
  195MOL0     C26797   1.322   7.608  10.199  0.8571 -0.4677 -0.5043
  195MOL0     C26798   1.389   7.654  10.309 -1.0879  0.2791  0.1265
  195MOL0     C26799   1.357   7.771  10.371 -0.3858  0.0986 -0.0240
  195MOL0     C26800   1.433   7.797  10.501  0.1332  0.4668 -0.1899
  195MOL0     C26801   1.245   7.845  10.328  0.7647  0.9930  0.0725
  195MOL0     C26802   1.171   7.943  10.398  0.7849 -1.1318 -0.1816
  195MOL0     O26803   1.061   7.995  10.335 -0.0865 -0.2355 -0.3765
  195MOL0     C26804   0.980   8.097  10.375 -0.6084  0.0731  0.0777
  195MOL0     C26805   0.907   8.161  10.273  0.0456  0.6431 -0.5584
  195MOL0     C26806   0.802   8.247  10.300  0.3565 -0.8482  0.9063
  195MOL0     C26807   0.772   8.288  10.433  0.5637  0.5288 -0.2155
  195MOL0     O26808   0.679   8.385  10.462  0.1809  0.6541 -0.8479
  195MOL0     C26809   0.651   8.474  10.353 -1.0328  0.6327  0.2511
  195MOL0     C26810   0.640   8.616  10.413 -0.0807 -0.0725 -0.0540
  195MOL0     C26811   0.544   8.629  10.544 -0.2417  0.1274 -0.2410
  195MOL0     C26812   0.543   8.777  10.580 -0.9712  0.3588 -0.2990
  195MOL0     C26813   0.433   8.867  10.508 -0.5523  0.5141  0.0570
  195MOL0     C26814   0.301   8.867  10.572  0.1635 -0.2082  0.4432
  195MOL0     C26815   0.205   8.955  10.478  0.1589  0.2622  0.1906
  195MOL0     C26816   0.056   8.938  10.510  0.9918  0.5598 -0.9515
  195MOL0    Cl26817   0.005   9.049  10.637 -0.2964  0.1159 -0.5743
  195MOL0     C26818   0.850   8.234  10.534 -0.7481  0.1214  0.2415
  195MOL0     C26819   0.952   8.145  10.511  0.6999  0.7415 -0.1327
  195MOL0     O26820   1.222   7.989  10.504  0.5524 -0.2224 -0.2157
  195MOL0     C26821   1.172   7.799  10.210  0.0270 -0.5185 -0.5821
  195MOL0     C26822   1.211   7.683  10.151  0.3100  0.7020 -0.5621
  195MOL0     N26823   1.644   7.137   9.848  0.3842 -0.1182 -0.6204
  195MOL0     N26824   1.778   7.159   9.822 -0.1073 -0.5290  0.1341
  195MOL0     C26825   1.563   6.726  10.339  0.5887 -0.5020 -0.2177
  195MOL0     C26826   1.426   6.735  10.323 -0.0733  0.0408 -0.1352
  195MOL0     C26827   0.973   6.670  10.359 -0.5455  0.6201 -0.6114
  195MOL0     C26828   0.922   6.610  10.236 -0.0036 -0.4663 -0.6085
  195MOL0     C26829   0.785   6.607  10.219 -0.1470  0.1727 -0.2413
  195MOL0     C26830   0.699   6.667  10.303  0.2206  0.3890 -0.5230
  195MOL0     O26831   0.570   6.656  10.268  0.3042  0.1605 -0.2865
  195MOL0     C26832   0.490   6.536  10.303 -0.1089 -0.7580  0.0432
  195MOL0     C26833   0.368   6.515  10.205  0.5887 -1.1617  0.5203
  195MOL0     C26834   0.247   6.596  10.251  0.2283 -0.3892 -0.8495
  195MOL0     C26835   0.140   6.520  10.326  0.6733 -0.7754 -0.5309
  195MOL0     C26836   0.172   6.441  10.441 -0.6639  0.9790 -0.3657
  195MOL0     C26837   0.213   6.373  10.532  0.1543  0.5187 -0.1016
  195MOL0     C26838   0.749   6.743  10.402  0.2797 -0.0507  0.1456
  195MOL0     C26839   0.889   6.758  10.430  0.6530  0.7834 -0.0011
  195MOL0     C26840   0.937   6.855  10.541  0.2334 -1.4570  0.3052
  195MOL0     H26841   1.352   6.404  10.311  1.1234 -0.2635 -0.4752
  195MOL0     H26842   1.608   6.396  10.349  0.9040  0.9153  0.9059
  195MOL0     H26843   1.819   6.408  10.413  0.1714  0.1988 -0.3259
  195MOL0     H26844   1.947   6.524  10.407 -0.3870 -0.4271  0.9974
  195MOL0     H26845   1.887   6.364  10.193 -2.7593 -0.2393  2.9099
  195MOL0     H26846   1.774   6.485  10.150 -0.5112 -1.0195  0.5703
  195MOL0     H26847   2.058   6.574  10.243  0.2010 -3.1586  1.1648
  195MOL0     H26848   2.043   6.497  10.082 -1.0481 -1.6805  0.4195
  195MOL0     H26849   1.858   6.684  10.056  1.2329  1.6948 -0.5820
  195MOL0     H26850   1.923   6.755  10.194 -2.3094  0.2515  0.3286
  195MOL0     H26851   2.089   6.715   9.944  2.2555 -2.5415  0.9246
  195MOL0     H26852   2.135   6.800  10.094 -0.6164 -5.0833  2.7562
  195MOL0     H26853   2.035   6.911   9.867  1.6499 -1.3055  1.0544
  195MOL0     H26854   1.884   6.908   9.964 -0.6363 -1.4157 -4.0546
  195MOL0     H26855   2.148   7.039  10.063 -0.5735  0.2414  3.8500
  195MOL0     H26856   1.992   7.037  10.143 -0.4013 -1.1751 -0.2017
  195MOL0     H26857   2.006   7.245  10.032 -0.4153  1.9577 -3.3782
  195MOL0     H26858   2.058   7.160   9.881 -0.9824 -0.5977 -0.8997
  195MOL0     H26859   1.778   7.149  10.151 -2.4188 -0.8351  0.7590
  195MOL0     H26860   1.550   7.044  10.153  1.2647  0.0172 -0.4385
  195MOL0     H26861   1.444   7.054  10.004  1.0675  1.2736 -1.5143
  195MOL0     H26862   1.351   7.196  10.152 -0.3604 -0.8514 -0.3876
  195MOL0     H26863   1.511   7.281  10.179 -0.7738 -2.4386  1.9018
  195MOL0     H26864   1.518   7.396   9.972  0.1895 -1.2005 -0.4586
  195MOL0     H26865   1.418   7.282   9.899  1.3357 -2.1124  0.4775
  195MOL0     H26866   1.324   7.520   9.948  0.9757 -1.2183 -1.3941
  195MOL0     H26867   1.232   7.394  10.027 -0.6888  3.1089  1.8530
  195MOL0     H26868   1.456   7.581  10.354 -1.0638 -1.1713 -2.0746
  195MOL0     H26869   1.520   7.732  10.511 -1.0532 -1.1435  0.0290
  195MOL0     H26870   1.373   7.777  10.590  0.7739  0.5253  0.2547
  195MOL0     H26871   1.478   7.897  10.503 -1.6517  1.4249 -2.2589
  195MOL0     H26872   0.928   8.130  10.171 -2.0876  2.1688 -1.5528
  195MOL0     H26873   0.762   8.301  10.215  3.4399 -0.9621 -0.7704
  195MOL0     H26874   0.730   8.481  10.278 -1.7884  0.0572 -0.6207
  195MOL0     H26875   0.562   8.448  10.295  0.4522 -0.4537 -1.6228
  195MOL0     H26876   0.741   8.649  10.440 -1.2240  1.5322  2.6404
  195MOL0     H26877   0.623   8.694  10.339  0.4329  0.8512  0.7689
  195MOL0     H26878   0.596   8.568  10.619  0.9909 -0.4587 -1.5288
  195MOL0     H26879   0.445   8.588  10.525 -0.2072  0.5731 -1.4337
  195MOL0     H26880   0.637   8.821  10.546 -0.8757 -0.2515 -0.8317
  195MOL0     H26881   0.529   8.780  10.689  0.5546  5.2561 -0.0272
  195MOL0     H26882   0.467   8.969  10.530  1.2875 -0.2805  1.1060
  195MOL0     H26883   0.431   8.850  10.400  0.4535  1.5972 -0.1448
  195MOL0     H26884   0.300   8.919  10.668 -0.6627  0.9304 -0.1598
  195MOL0     H26885   0.266   8.763  10.581  0.8365 -0.3721  1.3483
  195MOL0     H26886   0.227   8.938  10.373  1.7865  2.2548  0.1426
  195MOL0     H26887   0.235   9.058  10.498  1.0106 -0.1465  1.1112
  195MOL0     H26888   0.041   8.832  10.531  3.7813  0.6914  2.5980
  195MOL0     H26889  -0.001   8.960  10.420  0.4731 -1.2163 -1.0841
  195MOL0     H26890   0.829   8.275  10.632  0.7979  4.3623 -0.9447
  195MOL0     H26891   1.008   8.103  10.594  0.1417  0.5516  0.1489
  195MOL0     H26892   1.092   7.859  10.167  0.1399  0.7492  0.8572
  195MOL0     H26893   1.169   7.641  10.060 -1.2702 -1.5824  1.1052
  195MOL0     H26894   1.627   6.813  10.337 -0.0607 -0.0079  0.1675
  195MOL0     H26895   1.399   6.839  10.331  0.0988  0.0175  1.0093
  195MOL0     H26896   0.996   6.565  10.171 -0.1275 -0.2801 -0.8804
  195MOL0     H26897   0.742   6.555  10.134  1.1696 -0.0818 -0.7779
  195MOL0     H26898   0.559   6.452  10.292 -1.5106 -1.8804 -0.3637
  195MOL0     H26899   0.455   6.544  10.407 -1.2520  0.3928 -0.4113
  195MOL0     H26900   0.340   6.409  10.198  1.0500 -1.4207  2.1883
  195MOL0     H26901   0.385   6.554  10.104  0.9962  1.2191  1.4629
  195MOL0     H26902   0.277   6.682  10.312 -1.1124  1.4364 -2.6259
  195MOL0     H26903   0.200   6.632  10.159  0.5864 -1.0624 -1.2968
  195MOL0     H26904   0.087   6.451  10.260  3.7742 -0.0415 -4.0982
  195MOL0     H26905   0.062   6.587  10.363  0.4080 -1.8727  0.9906
  195MOL0     H26906   0.257   6.315  10.610  1.8557  1.4828 -0.3220
  195MOL0     H26907   0.687   6.801  10.468 -0.7732 -1.3131  0.3175
  195MOL0     H26908   0.995   6.945  10.519 -0.4437 -0.2603  2.9958
  195MOL0     H26909   0.851   6.901  10.590  0.5703 -0.2619 -0.1919
  195MOL0     H26910   0.993   6.798  10.615  1.8120 -0.7280 -0.2866
  196MOL0     O26911   3.662   4.785   6.991 -0.3300 -0.3461  0.1320
  196MOL0     C26912   3.668   4.841   6.879  0.4907 -0.1424 -1.6935
  196MOL0     O26913   3.752   4.940   6.841 -0.0912 -0.2024 -0.4283
  196MOL0     C26914   3.808   5.028   6.934 -0.1318 -0.7032 -0.0482
  196MOL0     C26915   3.725   5.112   7.011 -0.1491 -1.2197  0.6302
  196MOL0     C26916   3.776   5.184   7.120  0.4117  0.0310 -0.2540
  196MOL0     C26917   3.909   5.197   7.126 -0.3552  0.2036 -0.0700
  196MOL0     O26918   3.987   5.257   7.222 -0.2939 -0.3579  0.2878
  196MOL0     C26919   3.932   5.288   7.349 -0.6729 -0.2405 -0.7110
  196MOL0     C26920   4.054   5.341   7.434  0.4586  0.4341 -0.9462
  196MOL0     C26921   4.113   5.478   7.376  0.2572  0.1719  0.0696
  196MOL0     C26922   4.218   5.539   7.472  0.4900  0.2071 -0.3921
  196MOL0     C26923   4.251   5.690   7.445  0.7496 -0.6132  0.1632
  196MOL0     C26924   4.375   5.689   7.361  0.0689 -0.6715 -0.8745
  196MOL0     C26925   4.440   5.827   7.317  0.0066 -0.3034  0.1118
  196MOL0     C26926   4.504   5.901   7.435  0.6814 -0.7352  1.1010
  196MOL0     N26927   4.563   6.031   7.405  0.6180 -0.9423 -0.1223
  196MOL0     C26928   4.642   6.069   7.304 -1.2805  0.5097  0.5147
  196MOL0     C26929   4.676   6.196   7.320  0.0050  0.1430 -0.4488
  196MOL0     C26930   4.767   6.277   7.229 -0.4361 -1.5547  0.9897
  196MOL0     C26931   4.819   6.211   7.089  0.4764  0.5363  0.0549
  196MOL0     C26932   4.686   6.172   7.000 -0.0710 -0.6022  0.0469
  196MOL0     C26933   4.703   6.059   6.897  0.2431 -0.0073  0.0297
  196MOL0     O26934   4.579   6.022   6.831 -0.4680  0.2878 -0.2078
  196MOL0     C26935   4.580   5.938   6.720 -0.4168 -0.0719  0.1950
  196MOL0     C26936   4.459   5.915   6.645  0.8383 -0.3489 -0.5684
  196MOL0     C26937   4.450   5.831   6.526  0.1081 -0.2644  0.7936
  196MOL0     C26938   4.317   5.787   6.468 -0.5995 -0.3390  0.6139
  196MOL0     C26939   4.577   5.783   6.476 -0.9912  0.7272  0.1672
  196MOL0     C26940   4.602   5.698   6.368 -0.2535  0.4743 -0.2014
  196MOL0     O26941   4.517   5.719   6.254 -0.0161 -0.3469  0.6140
  196MOL0     C26942   4.505   5.649   6.136 -0.9627 -1.1647 -0.6319
  196MOL0     C26943   4.612   5.584   6.075  0.3535 -0.0978 -0.0640
  196MOL0     C26944   4.587   5.516   5.959 -0.3596 -0.2717 -0.6302
  196MOL0     C26945   4.464   5.520   5.897 -0.4804 -0.2873  0.2704
  196MOL0     O26946   4.435   5.438   5.798 -0.3751 -0.0377  0.2658
  196MOL0     C26947   4.411   5.481   5.662 -0.7325  0.6001 -0.3207
  196MOL0     C26948   4.555   5.460   5.597 -0.3104 -0.5790 -0.9640
  196MOL0     C26949   4.525   5.432   5.451  0.7552 -0.2443 -0.8424
  196MOL0     C26950   4.647   5.367   5.382 -0.6704 -0.4031 -0.2749
  196MOL0     C26951   4.654   5.365   5.222 -0.6510 -0.3398  0.2023
  196MOL0     C26952   4.622   5.501   5.160  0.1463  0.4474 -0.4673
  196MOL0     C26953   4.670   5.520   5.020 -0.1359 -0.2750  0.5177
  196MOL0     C26954   4.654   5.661   4.959 -0.7020 -0.4156 -0.1542
  196MOL0    Cl26955   4.735   5.664   4.810  0.0810  0.3775  0.3251
  196MOL0     C26956   4.361   5.594   5.958  0.2340  0.9191  0.2156
  196MOL0     C26957   4.379   5.660   6.076  0.4895  0.0441  0.5157
  196MOL0     O26958   4.694   5.613   6.365  0.4164 -0.2979 -0.0402
  196MOL0     C26959   4.696   5.801   6.560  0.2709 -0.0006  0.4671
  196MOL0     C26960   4.701   5.881   6.678  0.9571  0.5583  0.3366
  196MOL0     N26961   4.610   6.247   7.424  1.2347 -0.1239 -0.1735
  196MOL0     N26962   4.539   6.149   7.475 -0.4350 -0.6795  0.6990
  196MOL0     C26963   3.991   5.126   7.040 -0.5302 -0.0474 -0.4698
  196MOL0     C26964   3.941   5.034   6.951 -0.1444  0.7690 -0.3170
  196MOL0     C26965   3.551   4.803   6.793  0.1938 -0.7878 -0.1643
  196MOL0     C26966   3.498   4.912   6.716  0.2978 -0.0239  0.3433
  196MOL0     C26967   3.363   4.894   6.657  0.3729 -0.4414 -0.0374
  196MOL0     C26968   3.299   4.775   6.662 -0.0834 -0.8010 -0.6500
  196MOL0     O26969   3.169   4.782   6.625  0.2778 -0.3308  0.9432
  196MOL0     C26970   3.100   4.657   6.613  0.1270 -1.0285  0.5807
  196MOL0     C26971   2.946   4.661   6.572 -0.2176 -0.6222 -0.1974
  196MOL0     C26972   2.886   4.810   6.604  0.0275 -0.2405 -0.6568
  196MOL0     C26973   2.877   4.837   6.756 -0.2125 -0.7380 -0.4304
  196MOL0     C26974   2.798   4.740   6.836  0.0519  0.2821 -0.0926
  196MOL0     C26975   2.733   4.678   6.920  0.1042 -0.2559 -0.3996
  196MOL0     C26976   3.364   4.662   6.722  0.5081 -0.6196  0.5057
  196MOL0     C26977   3.488   4.675   6.793  0.2819  0.7258  0.2363
  196MOL0     C26978   3.536   4.551   6.868 -0.5248  0.2258 -0.2672
  196MOL0     H26979   3.622   5.137   6.991  0.4391  0.6521 -0.2577
  196MOL0     H26980   3.705   5.241   7.179  0.5453  0.2008 -0.2549
  196MOL0     H26981   3.892   5.199   7.399 -1.0126  0.1348 -0.3052
  196MOL0     H26982   3.846   5.356   7.345 -1.4458 -1.0083  1.3643
  196MOL0     H26983   4.021   5.359   7.536  2.6849 -2.4192  0.4242
  196MOL0     H26984   4.132   5.264   7.436  0.8424  0.7861  2.1881
  196MOL0     H26985   4.152   5.466   7.274 -0.5883 -0.6168 -0.1709
  196MOL0     H26986   4.027   5.545   7.377 -0.2365 -0.4592  0.2649
  196MOL0     H26987   4.174   5.529   7.571 -0.4319  1.3672 -0.6523
  196MOL0     H26988   4.308   5.477   7.472  0.0810 -0.3975  0.1159
  196MOL0     H26989   4.280   5.742   7.536  0.7730 -0.2296 -0.0635
  196MOL0     H26990   4.175   5.749   7.393 -0.2811  0.3680  2.6217
  196MOL0     H26991   4.440   5.631   7.427 -1.6935 -0.5182  1.1013
  196MOL0     H26992   4.344   5.632   7.273  1.3296  1.4168 -2.7671
  196MOL0     H26993   4.361   5.882   7.264 -0.2021 -4.7056 -5.0366
  196MOL0     H26994   4.518   5.820   7.240  0.7048  1.0068  0.6739
  196MOL0     H26995   4.412   5.918   7.493 -0.5490 -1.2973 -0.6089
  196MOL0     H26996   4.575   5.832   7.480  1.2717 -1.8313 -1.3593
  196MOL0     H26997   4.670   6.009   7.217 -2.8443  3.0900 -1.9414
  196MOL0     H26998   4.857   6.294   7.289 -0.2323  0.4751  0.1930
  196MOL0     H26999   4.727   6.374   7.198  3.2265 -0.5542 -1.3432
  196MOL0     H27000   4.895   6.265   7.031  1.9688 -2.2685 -0.7907
  196MOL0     H27001   4.866   6.115   7.111  3.1129  1.2796 -1.8002
  196MOL0     H27002   4.601   6.140   7.061 -2.1551  1.0136 -1.8759
  196MOL0     H27003   4.647   6.259   6.947 -1.9203 -1.5741 -0.2555
  196MOL0     H27004   4.789   6.081   6.833  1.9814 -1.6508  1.6663
  196MOL0     H27005   4.739   5.981   6.965  0.8338  1.8911  2.0205
  196MOL0     H27006   4.369   5.955   6.690  1.9917 -0.7221  2.2720
  196MOL0     H27007   4.277   5.845   6.384  1.3762 -0.4792 -0.4689
  196MOL0     H27008   4.242   5.789   6.548 -0.4158 -3.1643  0.9469
  196MOL0     H27009   4.328   5.680   6.446 -3.1240 -1.4867  4.0773
  196MOL0     H27010   4.711   5.593   6.118 -1.0357  1.9530  3.0821
  196MOL0     H27011   4.658   5.464   5.896 -0.0007  1.1554 -1.4401
  196MOL0     H27012   4.329   5.424   5.619 -1.5117  1.9797 -0.7101
  196MOL0     H27013   4.379   5.585   5.662 -0.6317  0.6800  1.7421
  196MOL0     H27014   4.602   5.558   5.614  0.8282 -1.0881 -1.0797
  196MOL0     H27015   4.618   5.386   5.645  0.2653 -2.7040 -4.5902
  196MOL0     H27016   4.510   5.528   5.400  1.2840 -0.6151 -1.6992
  196MOL0     H27017   4.431   5.378   5.437  0.5525 -0.1113 -0.0794
  196MOL0     H27018   4.652   5.264   5.418 -1.0981 -0.0064  0.9682
  196MOL0     H27019   4.733   5.424   5.418  0.7138 -2.0926 -0.7446
  196MOL0     H27020   4.751   5.327   5.188  1.2685  4.9255 -1.1598
  196MOL0     H27021   4.580   5.293   5.185 -2.2351  1.9022 -1.2545
  196MOL0     H27022   4.672   5.573   5.226  1.8591 -0.5876 -0.5884
  196MOL0     H27023   4.515   5.523   5.170  0.4588  1.8585  0.0104
  196MOL0     H27024   4.621   5.451   4.952  1.2498  0.2476 -1.0968
  196MOL0     H27025   4.776   5.493   5.011 -0.8708 -2.7887 -1.9307
  196MOL0     H27026   4.709   5.726   5.028  0.9311 -0.2167 -1.5894
  196MOL0     H27027   4.551   5.698   4.956 -0.1308  1.3951  1.0808
  196MOL0     H27028   4.257   5.575   5.934 -0.5230  1.4965  2.7306
  196MOL0     H27029   4.285   5.693   6.117 -0.7445  0.0312 -2.1195
  196MOL0     H27030   4.792   5.755   6.538  1.3630  0.8207  3.1791
  196MOL0     H27031   4.797   5.905   6.722  0.6578  1.2039  0.6554
  196MOL0     H27032   4.098   5.121   7.055 -0.3957  0.0461 -1.3141
  196MOL0     H27033   4.000   4.962   6.896 -1.3551  0.0465 -0.6937
  196MOL0     H27034   3.540   5.012   6.708 -0.3374  0.1349 -1.3873
  196MOL0     H27035   3.308   4.973   6.607  0.3527  0.6399  1.6169
  196MOL0     H27036   3.161   4.596   6.546  1.3785 -1.3402  1.9301
  196MOL0     H27037   3.092   4.603   6.709 -3.1752 -1.3949  0.2200
  196MOL0     H27038   2.896   4.579   6.625 -0.4286 -2.9441 -3.7085
  196MOL0     H27039   2.930   4.629   6.469 -0.8965  0.0031 -0.2978
  196MOL0     H27040   2.931   4.894   6.549  3.1400 -1.4013 -0.1032
  196MOL0     H27041   2.784   4.814   6.564  0.1284  1.0672 -0.8481
  196MOL0     H27042   2.849   4.943   6.762  1.6699 -0.1914 -0.4695
  196MOL0     H27043   2.974   4.845   6.807 -0.9839  1.7553  0.8354
  196MOL0     H27044   2.677   4.611   6.982 -2.0032  0.3103 -1.6052
  196MOL0     H27045   3.331   4.560   6.709 -2.8583  0.5046 -0.9700
  196MOL0     H27046   3.642   4.553   6.894 -0.4491  1.9009 -0.6246
  196MOL0     H27047   3.469   4.527   6.951 -1.0823 -0.0400 -0.7869
  196MOL0     H27048   3.525   4.465   6.800 -1.9912  0.2536 -0.0915
  197MOL0     O27049   3.455   0.212  10.431  0.8308 -0.3804 -0.2691
  197MOL0     C27050   3.447   0.097  10.401  0.3723 -0.1225  0.5210
  197MOL0     O27051   3.549   0.038  10.342 -0.2061  0.4915 -0.0973
  197MOL0     C27052   3.670   0.101  10.315  0.6002 -0.5533 -0.5129
  197MOL0     C27053   3.731   0.066  10.198 -0.7775 -0.0048 -0.0562
  197MOL0     C27054   3.857   0.127  10.169 -0.5586 -0.0999 -0.1428
  197MOL0     C27055   3.925   0.213  10.256  0.4945  0.0901 -0.4114
  197MOL0     O27056   4.049   0.257  10.228  0.4853 -0.6916 -0.6826
  197MOL0     C27057   4.111   0.365  10.312  0.4369  1.8141 -0.2403
  197MOL0     C27058   4.252   0.386  10.258 -0.3647  0.6236  0.5726
  197MOL0     C27059   4.283   0.536  10.272  0.3652  0.1626  0.3119
  197MOL0     C27060   4.207   0.628  10.172  0.3012  0.4155  0.5797
  197MOL0     C27061   4.242   0.776  10.190 -0.8594  0.9406  0.0568
  197MOL0     C27062   4.195   0.872  10.074 -0.7861  0.6551 -1.6330
  197MOL0     C27063   4.053   0.848  10.013 -0.1454 -0.2449  0.2998
  197MOL0     C27064   4.062   0.736   9.905  0.0747  0.9334 -0.6029
  197MOL0     N27065   3.942   0.737   9.820  0.1369 -0.8106 -0.2885
  197MOL0     C27066   3.857   0.634   9.795 -0.4782 -0.0546 -0.5044
  197MOL0     C27067   3.771   0.672   9.702  0.6745 -0.2038  0.8758
  197MOL0     C27068   3.658   0.590   9.637 -1.1252 -0.9576  0.7931
  197MOL0     C27069   3.511   0.597   9.686 -0.4743  0.5112  0.0896
  197MOL0     C27070   3.446   0.724   9.649 -1.3822 -0.3796 -0.4441
  197MOL0     C27071   3.482   0.834   9.744 -0.3651 -0.4408  0.2005
  197MOL0     O27072   3.392   0.809   9.856  0.3340  0.6846 -0.1569
  197MOL0     C27073   3.400   0.862   9.979 -0.4024  0.1277  1.3084
  197MOL0     C27074   3.521   0.901  10.031  1.1133 -1.1084 -0.0846
  197MOL0     C27075   3.532   0.972  10.154  0.1859 -0.4171  0.4336
  197MOL0     C27076   3.671   1.037  10.178  0.0014 -0.2620 -0.9990
  197MOL0     C27077   3.413   0.984  10.232 -0.2144 -0.2011  0.1057
  197MOL0     C27078   3.400   1.041  10.369 -0.4427 -0.5820  0.7307
  197MOL0     O27079   3.295   1.003  10.435 -0.3082  0.1847 -0.5170
  197MOL0     C27080   3.283   1.052  10.563 -0.1269  0.6612  0.8265
  197MOL0     C27081   3.376   1.037  10.668 -0.9592 -0.6584  0.1117
  197MOL0     C27082   3.357   1.102  10.788 -0.0110  0.3208 -0.4035
  197MOL0     C27083   3.234   1.163  10.817  0.7995  0.4862 -0.3278
  197MOL0     O27084   3.205   1.206  10.944  0.1594  0.6316 -0.7673
  197MOL0     C27085   3.113   1.121  11.004 -0.8165  0.2046  0.2115
  197MOL0     C27086   3.125   1.130  11.151 -0.1737  0.0405  0.0970
  197MOL0     C27087   3.086   1.264  11.205  1.0098  1.0229 -0.5322
  197MOL0     C27088   2.944   1.298  11.162 -0.8923  0.8636 -1.1103
  197MOL0     C27089   2.895   1.429  11.225 -0.0504  0.5145 -0.0283
  197MOL0     C27090   2.746   1.444  11.232  0.6898  0.3648  0.2919
  197MOL0     C27091   2.696   1.567  11.304 -0.1578  0.4035  0.5391
  197MOL0     C27092   2.740   1.585  11.450  0.3987  1.3699 -1.2946
  197MOL0    Cl27093   2.673   1.440  11.550  0.1926 -0.2227 -0.1805
  197MOL0     C27094   3.143   1.181  10.712  0.6274  0.5709  0.2539
  197MOL0     C27095   3.168   1.121  10.585  0.2499 -0.9097 -0.3822
  197MOL0     O27096   3.497   1.105  10.411  1.3173  0.4174 -0.7401
  197MOL0     C27097   3.290   0.931  10.176 -0.7788 -1.4926  0.3834
  197MOL0     C27098   3.284   0.879  10.049 -0.3202  0.1071  0.7876
  197MOL0     N27099   3.809   0.804   9.655  0.5679 -0.5090 -0.0735
  197MOL0     N27100   3.912   0.841   9.733 -0.3916  0.5983 -0.0819
  197MOL0     C27101   3.860   0.255  10.373  0.1302  1.0177 -0.6206
  197MOL0     C27102   3.735   0.199  10.400 -0.1328  0.2712 -0.3873
  197MOL0     C27103   3.323   0.018  10.414 -0.9491 -1.2770  0.2507
  197MOL0     C27104   3.345  -0.130  10.408  0.4198  0.0627  0.1253
  197MOL0     C27105   3.237  -0.217  10.405 -0.6689 -0.1634  1.1740
  197MOL0     C27106   3.105  -0.166  10.416 -0.5007  1.1949  0.2663
  197MOL0     O27107   3.001  -0.255  10.422  0.4843  1.1494 -0.4046
  197MOL0     C27108   2.879  -0.216  10.470  0.4700 -0.8672  0.4594
  197MOL0     C27109   2.794  -0.332  10.504  0.4292  0.0351  0.1997
  197MOL0     C27110   2.726  -0.416  10.385  0.7375 -0.1696 -1.1421
  197MOL0     C27111   2.661  -0.542  10.455  0.8482 -0.9655 -0.1330
  197MOL0     C27112   2.762  -0.646  10.488  0.0344 -0.8616  0.1351
  197MOL0     C27113   2.844  -0.733  10.525 -0.0565 -0.3232 -0.4007
  197MOL0     C27114   3.087  -0.026  10.415  0.0477  0.2218  0.0185
  197MOL0     C27115   3.193   0.072  10.400  0.0195  0.5624 -0.1890
  197MOL0     C27116   3.162   0.219  10.364 -0.5138 -0.8595  0.6832
  197MOL0     H27117   3.683  -0.010  10.138  1.0641  0.3886 -2.1527
  197MOL0     H27118   3.909   0.087  10.083 -5.2284 -2.0652 -2.4201
  197MOL0     H27119   4.116   0.332  10.416 -0.5877 -1.4388 -1.0994
  197MOL0     H27120   4.051   0.457  10.308 -2.1923  0.1599 -2.1072
  197MOL0     H27121   4.334   0.329  10.303 -2.0419 -3.3310 -0.9312
  197MOL0     H27122   4.258   0.350  10.155 -1.9976 -2.0342  1.3131
  197MOL0     H27123   4.264   0.571  10.374  1.8392 -1.7130  1.3038
  197MOL0     H27124   4.390   0.551  10.252  0.8495 -4.4758 -1.9441
  197MOL0     H27125   4.239   0.607  10.070  0.5864 -0.8708  0.9101
  197MOL0     H27126   4.097   0.622  10.178 -0.0610  3.9284 -0.6146
  197MOL0     H27127   4.349   0.791  10.203 -0.8173  0.2362  0.5437
  197MOL0     H27128   4.176   0.811  10.270 -2.6355 -2.8378  0.4351
  197MOL0     H27129   4.203   0.978  10.101  0.2958  1.1550 -3.6413
  197MOL0     H27130   4.261   0.860   9.988 -0.3398  0.5429 -1.2764
  197MOL0     H27131   3.997   0.932   9.971 -1.3130 -0.5129  1.2742
  197MOL0     H27132   3.986   0.814  10.093 -1.8839  4.3333  1.0811
  197MOL0     H27133   4.149   0.749   9.840  1.0671  2.3471  0.9383
  197MOL0     H27134   4.066   0.643   9.962  1.4083  0.5613 -1.2559
  197MOL0     H27135   3.847   0.532   9.831 -2.2953 -1.0195 -3.3172
  197MOL0     H27136   3.690   0.486   9.647 -1.3594 -1.0459  0.6189
  197MOL0     H27137   3.657   0.622   9.533  1.0857 -0.9103  0.7503
  197MOL0     H27138   3.451   0.517   9.642 -0.6458  1.5862 -1.7681
  197MOL0     H27139   3.499   0.574   9.792 -2.6772 -0.1315 -0.2609
  197MOL0     H27140   3.463   0.758   9.546  0.8900  4.4626  1.2197
  197MOL0     H27141   3.338   0.711   9.658 -1.6252  1.9423  0.7030
  197MOL0     H27142   3.586   0.828   9.777  1.1629  2.6910 -3.3559
  197MOL0     H27143   3.473   0.928   9.690  2.3439 -1.5307 -2.4627
  197MOL0     H27144   3.613   0.898   9.973  2.0714  0.8541  1.2110
  197MOL0     H27145   3.747   0.976  10.130  0.2440 -1.9569  1.3528
  197MOL0     H27146   3.709   1.047  10.280 -1.2240  0.8375 -0.6172
  197MOL0     H27147   3.678   1.140  10.140  1.1797  0.1611  0.2628
  197MOL0     H27148   3.469   0.982  10.664  1.6084  2.2016  6.2984
  197MOL0     H27149   3.424   1.092  10.872 -0.5557  2.2412  0.3000
  197MOL0     H27150   3.008   1.141  10.980 -1.2840 -0.5561  1.5174
  197MOL0     H27151   3.115   1.014  10.980 -3.0051  0.1521  0.0587
  197MOL0     H27152   3.061   1.056  11.200 -0.2701  0.9214  1.3531
  197MOL0     H27153   3.226   1.102  11.181 -0.7077 -1.7862  0.2959
  197MOL0     H27154   3.152   1.344  11.170  1.2077  1.9342  1.7825
  197MOL0     H27155   3.086   1.254  11.314 -4.6344 -1.3218 -0.4181
  197MOL0     H27156   2.885   1.211  11.192 -1.2848  1.5687  0.2252
  197MOL0     H27157   2.938   1.305  11.053  4.3941 -0.6849 -1.7832
  197MOL0     H27158   2.935   1.443  11.326 -3.4280  1.1534  1.3293
  197MOL0     H27159   2.935   1.513  11.169  1.9248 -0.0480  0.4470
  197MOL0     H27160   2.731   1.356  11.294  0.1820  1.3080  1.5483
  197MOL0     H27161   2.702   1.438  11.132 -1.9641  0.7126  1.3591
  197MOL0     H27162   2.587   1.572  11.292 -0.4037 -3.2345  0.3646
  197MOL0     H27163   2.736   1.651  11.247  1.1359 -2.8804 -3.8584
  197MOL0     H27164   2.700   1.680  11.484  0.0675  0.8647 -0.2450
  197MOL0     H27165   2.850   1.584  11.450  0.4672 -1.5657 -1.6792
  197MOL0     H27166   3.055   1.244  10.723  0.5885  0.7986 -1.2141
  197MOL0     H27167   3.101   1.138  10.501  1.8064 -0.7582 -1.6375
  197MOL0     H27168   3.200   0.943  10.236 -1.4650  0.4679 -0.9427
  197MOL0     H27169   3.195   0.850   9.994  0.7235 -2.1036  0.1292
  197MOL0     H27170   3.897   0.327  10.445 -3.6167  4.7858 -2.0164
  197MOL0     H27171   3.694   0.249  10.487  0.2223  1.3252 -0.8014
  197MOL0     H27172   3.446  -0.168  10.419  1.4927  1.8977 -2.3781
  197MOL0     H27173   3.249  -0.325  10.410 -1.6575 -0.4739 -1.5390
  197MOL0     H27174   2.881  -0.158  10.562  1.7872 -3.4858  2.2169
  197MOL0     H27175   2.837  -0.152  10.391 -0.9687 -1.9766  0.2778
  197MOL0     H27176   2.705  -0.289  10.551  0.1540 -0.1990 -0.1072
  197MOL0     H27177   2.846  -0.396  10.575 -1.3875  0.9010  2.4476
  197MOL0     H27178   2.660  -0.348  10.330  1.9520  3.3295  1.3956
  197MOL0     H27179   2.810  -0.457  10.328  0.2986 -0.9739 -1.2300
  197MOL0     H27180   2.602  -0.590  10.376  0.8779 -0.8424 -0.2298
  197MOL0     H27181   2.604  -0.517  10.545 -1.3884 -0.1448 -1.6998
  197MOL0     H27182   2.914  -0.809  10.552  1.3798  0.5874 -1.4324
  197MOL0     H27183   2.991   0.020  10.395  1.7345  2.7824 -3.3536
  197MOL0     H27184   3.204   0.236  10.265 -1.4137  1.2853  0.6172
  197MOL0     H27185   3.053   0.223  10.356 -0.6269 -1.5688  1.6271
  197MOL0     H27186   3.188   0.306  10.426  0.0134 -0.5477  0.0321
  198MOL0     O27187  10.664   0.625   4.801  0.2115 -0.2244  0.2271
  198MOL0     C27188  10.736   0.726   4.797 -0.7863 -0.3542  0.3759
  198MOL0     O27189  10.717   0.839   4.882 -0.3053 -0.3661 -0.9410
  198MOL0     C27190  10.597   0.859   4.950  0.2749  0.1524 -0.5784
  198MOL0     C27191  10.484   0.917   4.903 -0.9701 -0.3413  0.0518
  198MOL0     C27192  10.365   0.913   4.976 -0.0023  0.5851 -0.7324
  198MOL0     C27193  10.348   0.849   5.106  0.3489  0.2893  0.6401
  198MOL0     O27194  10.229   0.825   5.165 -0.1445  0.0914 -0.6679
  198MOL0     C27195  10.115   0.876   5.090  0.0479 -0.3005 -0.1685
  198MOL0     C27196  10.079   1.019   5.118  0.0356  0.5042  0.1982
  198MOL0     C27197  10.118   1.066   5.257  0.6984  0.2102  0.1476
  198MOL0     C27198  10.060   1.206   5.268  0.2164 -0.8475 -0.0532
  198MOL0     C27199  10.130   1.283   5.386 -1.4196 -0.4887  0.1790
  198MOL0     C27200  10.091   1.429   5.398 -0.5279 -0.9376 -0.0181
  198MOL0     C27201  10.151   1.493   5.520 -0.0804  0.2067  0.7997
  198MOL0     C27202  10.050   1.591   5.594 -1.2755  0.4673  0.5377
  198MOL0     N27203  10.121   1.677   5.683  0.4881 -0.7580 -0.2732
  198MOL0     C27204  10.187   1.637   5.798  1.0135  1.0474 -0.0384
  198MOL0     C27205  10.268   1.740   5.831 -0.3526  0.3188 -0.6916
  198MOL0     C27206  10.362   1.729   5.942  0.6176 -0.4809  0.1101
  198MOL0     C27207  10.519   1.746   5.907 -0.2355 -0.6699 -0.0876
  198MOL0     C27208  10.610   1.720   6.024  0.1505  0.7380  0.0974
  198MOL0     C27209  10.621   1.849   6.119 -0.1979  0.1480  0.0839
  198MOL0     O27210  10.490   1.853   6.189 -0.3737  0.2405  0.0361
  198MOL0     C27211  10.473   1.940   6.291  0.6514  0.1113 -0.3999
  198MOL0     C27212  10.566   1.951   6.396 -0.3511  0.3720 -0.4353
  198MOL0     C27213  10.546   2.045   6.502  0.3120 -0.3386  0.6029
  198MOL0     C27214  10.652   2.047   6.607  0.8280  0.1765 -0.6961
  198MOL0     C27215  10.420   2.120   6.505 -0.4093  0.7591  0.9658
  198MOL0     C27216  10.392   2.224   6.613  0.7202  0.2209  0.5243
  198MOL0     O27217  10.293   2.319   6.588  0.2399  0.4262  0.5689
  198MOL0     C27218  10.226   2.371   6.696 -0.3183 -0.2720  0.1423
  198MOL0     C27219  10.278   2.478   6.776 -0.5591  0.5607  1.1118
  198MOL0     C27220  10.207   2.531   6.884 -0.4136  0.1675  1.1086
  198MOL0     C27221  10.081   2.474   6.919 -0.7020 -0.6119 -0.9548
  198MOL0     O27222  10.021   2.522   7.031  0.5734  0.0648 -0.3233
  198MOL0     C27223  10.015   2.433   7.135 -0.3569 -1.0886 -0.3585
  198MOL0     C27224  10.010   2.513   7.260 -0.2929  0.5570  0.4102
  198MOL0     C27225  10.115   2.625   7.295  0.4708 -0.8038 -0.5534
  198MOL0     C27226  10.250   2.581   7.308 -0.3599 -0.3604  1.4044
  198MOL0     C27227  10.341   2.695   7.350  0.5872 -0.6852  0.1518
  198MOL0     C27228  10.483   2.638   7.331  0.4529  0.3130 -0.1873
  198MOL0     C27229  10.528   2.583   7.199  0.3282  0.5424  1.2175
  198MOL0     C27230  10.665   2.635   7.156  0.5967  0.5759 -1.5264
  198MOL0    Cl27231  10.794   2.553   7.261  0.7252 -0.0827  0.5069
  198MOL0     C27232  10.019   2.376   6.833 -0.2784  0.3086 -0.7346
  198MOL0     C27233  10.097   2.319   6.735 -0.2252 -0.0285 -0.3397
  198MOL0     O27234  10.449   2.219   6.719  0.2110 -0.6696  0.0011
  198MOL0     C27235  10.328   2.095   6.402 -0.0070  0.0394 -1.0450
  198MOL0     C27236  10.355   1.999   6.300  0.0683 -1.0310  0.8897
  198MOL0     N27237  10.257   1.836   5.735  0.5570 -0.5189 -0.5715
  198MOL0     N27238  10.173   1.796   5.645 -0.0016  0.3668 -0.0923
  198MOL0     C27239  10.459   0.779   5.150 -0.7360  0.6584  0.0017
  198MOL0     C27240  10.582   0.782   5.073 -0.3861 -0.4158  0.2268
  198MOL0     C27241  10.840   0.730   4.687 -1.2231  0.2444 -0.1055
  198MOL0     C27242  10.911   0.615   4.662 -0.7049 -0.0389  0.6817
  198MOL0     C27243  11.032   0.623   4.597 -0.3350  0.2074  0.2735
  198MOL0     C27244  11.083   0.738   4.535  0.3460  0.4863  0.4344
  198MOL0     O27245  11.186   0.726   4.439  0.6014  0.4377 -0.1397
  198MOL0     C27246  11.244   0.847   4.402 -0.3880  0.1408  0.1276
  198MOL0     C27247  11.326   0.790   4.295 -0.1299 -0.1299  0.3350
  198MOL0     C27248  11.427   0.894   4.245 -0.8064 -0.0860 -0.3805
  198MOL0     C27249  11.543   0.831   4.146 -0.3431  0.0998 -0.5255
  198MOL0     C27250  11.597   0.946   4.063 -0.1035  0.0690 -0.9219
  198MOL0     C27251  11.632   1.042   3.993 -0.8996  0.7168  0.6694
  198MOL0     C27252  11.010   0.854   4.567  0.0449  0.2193 -0.6960
  198MOL0     C27253  10.884   0.852   4.628  0.5917  0.3421 -0.8081
  198MOL0     C27254  10.805   0.974   4.646 -0.7360  0.1132  0.9327
  198MOL0     H27255  10.493   0.975   4.812 -1.5725 -1.9823 -1.0900
  198MOL0     H27256  10.294   0.983   4.931  1.2587  1.8774 -0.7841
  198MOL0     H27257  10.032   0.812   5.122 -2.4029  3.4602  1.6411
  198MOL0     H27258  10.126   0.866   4.982 -1.3193  0.3446 -0.3876
  198MOL0     H27259  10.136   1.078   5.045  1.1031  0.6886  1.1457
  198MOL0     H27260   9.972   1.029   5.099 -0.3015 -1.8723  0.5558
  198MOL0     H27261  10.069   0.993   5.323  1.4469 -2.4487 -2.0629
  198MOL0     H27262  10.226   1.063   5.275  0.7758 -0.5207 -0.3861
  198MOL0     H27263  10.078   1.263   5.176  2.0814 -1.5504 -0.1656
  198MOL0     H27264   9.951   1.199   5.277  0.3633 -2.1630  1.0513
  198MOL0     H27265  10.235   1.271   5.359 -1.9618 -4.2212 -0.8063
  198MOL0     H27266  10.125   1.231   5.482  1.1356  2.2741  1.9704
  198MOL0     H27267  10.120   1.482   5.307  0.1064  1.2071  1.3806
  198MOL0     H27268   9.983   1.440   5.412 -0.6122 -2.3806  0.6546
  198MOL0     H27269  10.230   1.558   5.482  0.5462 -0.8216  0.3123
  198MOL0     H27270  10.195   1.421   5.589  3.8373  0.9027 -0.7345
  198MOL0     H27271   9.991   1.652   5.525  1.4426  1.2718 -1.2477
  198MOL0     H27272   9.988   1.519   5.648 -2.1399 -0.3869 -1.5111
  198MOL0     H27273  10.175   1.543   5.852 -0.6651  1.4812  0.4088
  198MOL0     H27274  10.337   1.636   5.995  0.3595 -1.4916 -1.6920
  198MOL0     H27275  10.318   1.805   6.007  0.3907  0.3394 -0.9912
  198MOL0     H27276  10.544   1.675   5.828  0.6886 -1.6185  1.0254
  198MOL0     H27277  10.544   1.843   5.863  2.3888 -1.9916 -1.7521
  198MOL0     H27278  10.578   1.641   6.092  5.6356 -1.1873  0.9263
  198MOL0     H27279  10.703   1.695   5.973 -2.2622 -1.1009 -3.9736
  198MOL0     H27280  10.701   1.847   6.193 -1.9190  4.1468  2.3349
  198MOL0     H27281  10.645   1.934   6.055  0.0313 -0.2891 -0.4190
  198MOL0     H27282  10.656   1.892   6.392 -0.3029  0.1739  1.9811
  198MOL0     H27283  10.658   2.142   6.660 -2.5756 -1.2903  2.7793
  198MOL0     H27284  10.744   2.019   6.554  3.1010  1.4578  2.2892
  198MOL0     H27285  10.630   1.974   6.685  1.6710 -1.0685 -1.5744
  198MOL0     H27286  10.377   2.521   6.763  0.1959 -1.3093  0.2652
  198MOL0     H27287  10.249   2.602   6.954 -2.1719  0.2409  2.1312
  198MOL0     H27288   9.930   2.365   7.121 -0.5456 -0.6413 -1.4394
  198MOL0     H27289  10.106   2.372   7.139 -1.3104 -2.5346  0.0217
  198MOL0     H27290   9.908   2.551   7.257 -1.3018 -1.9838 -0.3070
  198MOL0     H27291  10.033   2.451   7.347  1.8326 -0.1766 -0.6086
  198MOL0     H27292  10.081   2.681   7.383 -1.2372  0.1273 -1.7438
  198MOL0     H27293  10.095   2.700   7.218 -2.6697 -1.5425 -0.5753
  198MOL0     H27294  10.277   2.545   7.208 -0.7665  0.2410  1.0682
  198MOL0     H27295  10.251   2.497   7.378 -2.6986 -0.9476  0.8082
  198MOL0     H27296  10.335   2.774   7.274 -0.4815  0.4378  1.3563
  198MOL0     H27297  10.319   2.738   7.448  0.2253  0.3767 -0.3776
  198MOL0     H27298  10.510   2.570   7.412  1.4738  2.4410  1.3549
  198MOL0     H27299  10.549   2.725   7.340 -2.3643  2.6301 -0.4857
  198MOL0     H27300  10.457   2.616   7.122  2.5112  0.3086 -1.0019
  198MOL0     H27301  10.535   2.474   7.199  0.8602  0.5576 -0.2419
  198MOL0     H27302  10.663   2.745   7.159  1.0445  0.6606  3.1425
  198MOL0     H27303  10.692   2.616   7.052  0.6525  0.3852 -1.4773
  198MOL0     H27304   9.922   2.340   6.867  0.0830 -0.0005  0.0092
  198MOL0     H27305  10.050   2.238   6.679 -1.5031  1.5035 -1.5646
  198MOL0     H27306  10.236   2.153   6.395 -1.4530 -2.2662 -2.6045
  198MOL0     H27307  10.281   1.988   6.221  0.9490  0.9919 -0.3047
  198MOL0     H27308  10.437   0.703   5.224 -2.6845  0.3189 -0.8521
  198MOL0     H27309  10.660   0.714   5.104  1.4184  1.4677 -0.0060
  198MOL0     H27310  10.869   0.526   4.707 -0.9314 -1.9805 -2.9358
  198MOL0     H27311  11.066   0.520   4.591  1.0727  0.5452  1.7768
  198MOL0     H27312  11.187   0.925   4.351  1.3147  1.1074 -0.3567
  198MOL0     H27313  11.308   0.894   4.477  3.8844 -3.7939 -0.5642
  198MOL0     H27314  11.263   0.749   4.216  1.4195 -3.7386  0.7923
  198MOL0     H27315  11.372   0.695   4.322  0.1288 -0.7561 -2.0796
  198MOL0     H27316  11.376   0.970   4.185 -2.4597 -1.5087 -0.8705
  198MOL0     H27317  11.478   0.943   4.328  0.8082 -1.6420 -0.4074
  198MOL0     H27318  11.522   0.745   4.083  2.2088 -0.3366 -0.8917
  198MOL0     H27319  11.626   0.805   4.212 -1.3571 -0.2875  0.6327
  198MOL0     H27320  11.686   1.117   3.939 -0.3434  1.0010  1.6035
  198MOL0     H27321  11.045   0.942   4.514  3.4936  0.6664  1.9772
  198MOL0     H27322  10.840   1.055   4.582 -1.6103 -0.2300 -0.0036
  198MOL0     H27323  10.700   0.959   4.619 -0.7517 -0.1625  1.1362
  198MOL0     H27324  10.809   1.013   4.748  0.4145 -0.8752  1.2902
  199MOL0     O27325   9.545   7.481   9.704  0.4690 -0.4708 -0.8063
  199MOL0     C27326   9.446   7.410   9.722 -0.2193 -0.3254  0.3313
  199MOL0     O27327   9.446   7.283   9.767 -0.2593 -0.0268  0.1298
  199MOL0     C27328   9.561   7.212   9.750 -0.1011 -0.0234 -0.3307
  199MOL0     C27329   9.575   7.145   9.632 -0.1175 -0.2228  0.1153
  199MOL0     C27330   9.686   7.066   9.617  0.5409  0.0673  0.1006
  199MOL0     C27331   9.795   7.050   9.719  0.6782  0.0259  0.2062
  199MOL0     O27332   9.915   6.978   9.712  0.0923 -1.1201  0.3118
  199MOL0     C27333   9.962   6.929   9.584 -0.3872 -1.0704 -0.6641
  199MOL0     C27334  10.121   6.901   9.579 -0.5483  0.4271  0.2794
  199MOL0     C27335  10.162   6.885   9.433 -0.1317  0.3620  0.6009
  199MOL0     C27336  10.314   6.890   9.416 -0.4037 -0.1043 -0.4678
  199MOL0     C27337  10.375   6.767   9.491 -0.0393  0.4007 -0.1762
  199MOL0     C27338  10.526   6.758   9.483 -0.1961 -0.6038 -0.9815
  199MOL0     C27339  10.578   6.635   9.571  0.2411 -0.4977 -0.4884
  199MOL0     C27340  10.732   6.642   9.579 -0.4253  0.2258 -0.6599
  199MOL0     N27341  10.779   6.764   9.655 -1.2510  0.3916 -0.9137
  199MOL0     C27342  10.791   6.753   9.792  0.7164  0.3083  0.4082
  199MOL0     C27343  10.850   6.873   9.832  0.0504  0.6677  0.4725
  199MOL0     C27344  10.894   6.920   9.969  0.4577  1.7518  0.3540
  199MOL0     C27345  10.765   6.986  10.022  0.3776 -0.2968 -0.4203
  199MOL0     C27346  10.767   7.013  10.168  0.1811 -0.0784 -0.6801
  199MOL0     C27347  10.713   6.903  10.249 -0.2198  1.2049 -0.5976
  199MOL0     O27348  10.767   6.780  10.208  0.1467 -0.7228  0.1460
  199MOL0     C27349  10.755   6.662  10.275  1.1607  0.5886  0.2036
  199MOL0     C27350  10.706   6.657  10.411  0.9013 -0.5477 -0.1495
  199MOL0     C27351  10.697   6.537  10.483  0.0332  0.1076  0.1546
  199MOL0     C27352  10.632   6.538  10.618  1.0941 -0.0235 -0.4404
  199MOL0     C27353  10.742   6.417  10.424 -0.6849  0.0600  0.3534
  199MOL0     C27354  10.722   6.280  10.460  0.6318  0.3330  0.7013
  199MOL0     O27355  10.691   6.272  10.597  0.0598  0.0172  0.2965
  199MOL0     C27356  10.632   6.165  10.661 -0.5504 -1.2456  0.3290
  199MOL0     C27357  10.560   6.072  10.592 -0.0648  0.1526 -0.4857
  199MOL0     C27358  10.491   5.978  10.659  0.0132 -0.0308 -0.2064
  199MOL0     C27359  10.484   5.972  10.800 -1.0159  0.3991 -0.2703
  199MOL0     O27360  10.410   5.861  10.849 -0.4306 -0.1402  0.6631
  199MOL0     C27361  10.443   5.834  10.981 -1.2424 -0.9159 -0.7932
  199MOL0     C27362  10.402   5.690  11.007 -0.3239  0.1707 -1.1251
  199MOL0     C27363  10.439   5.642  11.154 -0.3136 -0.5733  0.7687
  199MOL0     C27364  10.520   5.511  11.147  0.1844 -0.0202  0.2216
  199MOL0     C27365  10.583   5.495  11.295 -0.8315  0.3180 -0.1874
  199MOL0     C27366  10.654   5.364  11.297  0.6282 -0.3928 -0.1527
  199MOL0     C27367  10.741   5.365  11.422  0.4741  0.1679 -0.5975
  199MOL0     C27368  10.799   5.231  11.456 -0.0985  0.9909 -0.2801
  199MOL0    Cl27369  10.929   5.261  11.558  0.2714 -0.1827  0.2169
  199MOL0     C27370  10.554   6.070  10.882  0.6288 -0.1138  1.4739
  199MOL0     C27371  10.620   6.164  10.809 -0.8987 -0.0824  0.2907
  199MOL0     O27372  10.730   6.181  10.382 -0.0396 -0.4289  0.0066
  199MOL0     C27373  10.790   6.425  10.291 -0.2852  0.4273  0.0051
  199MOL0     C27374  10.803   6.543  10.217  0.9252  0.4646 -0.7804
  199MOL0     N27375  10.866   6.955   9.718  0.3557  0.4721  0.4769
  199MOL0     N27376  10.820   6.897   9.609  0.5475  0.0349 -0.0855
  199MOL0     C27377   9.759   7.123   9.836 -1.1702 -0.6174  0.4593
  199MOL0     C27378   9.652   7.206   9.853  0.2539  0.2540  1.1287
  199MOL0     C27379   9.305   7.478   9.728 -0.1600 -0.5351  0.3052
  199MOL0     C27380   9.194   7.398   9.763  0.3325  0.9870  0.7701
  199MOL0     C27381   9.062   7.445   9.761  0.6900 -0.5214  0.1778
  199MOL0     C27382   9.035   7.580   9.715 -0.4343  0.6081  0.4912
  199MOL0     O27383   8.905   7.631   9.708  0.5803  0.2289  0.1748
  199MOL0     C27384   8.808   7.571   9.791 -0.7094 -0.4378  0.4938
  199MOL0     C27385   8.704   7.670   9.823  0.8473  0.1542 -0.3182
  199MOL0     C27386   8.629   7.738   9.707  0.0084  0.7596 -1.0747
  199MOL0     C27387   8.495   7.817   9.746  0.5425 -0.9369  0.1649
  199MOL0     C27388   8.452   7.901   9.638  0.1639  0.1271 -0.0961
  199MOL0     C27389   8.397   7.952   9.551  0.2570 -0.2181  0.6913
  199MOL0     C27390   9.140   7.653   9.672 -0.4897  0.4321  0.3546
  199MOL0     C27391   9.272   7.610   9.686  0.0939 -0.0823 -0.7945
  199MOL0     C27392   9.373   7.721   9.666  0.5261 -0.0936 -0.3799
  199MOL0     H27393   9.496   7.158   9.559  0.2157  0.1237 -0.1815
  199MOL0     H27394   9.696   7.029   9.516  0.3162  5.4790 -2.2365
  199MOL0     H27395   9.940   6.997   9.501 -1.0776  0.2645  0.5573
  199MOL0     H27396   9.908   6.837   9.558 -2.6442  0.2037 -0.7908
  199MOL0     H27397  10.167   6.996   9.609 -0.7739  0.4202  0.6529
  199MOL0     H27398  10.160   6.818   9.638  1.1379  0.8163 -0.2355
  199MOL0     H27399  10.115   6.797   9.388 -2.3555  2.3626 -1.3397
  199MOL0     H27400  10.110   6.968   9.383  0.0112  0.0226 -0.1172
  199MOL0     H27401  10.339   6.895   9.310  0.1500 -0.4659 -0.3571
  199MOL0     H27402  10.340   6.982   9.470 -3.2115 -0.5212  1.8537
  199MOL0     H27403  10.344   6.666   9.464  2.5130 -0.6108  0.3809
  199MOL0     H27404  10.352   6.789   9.596 -3.5367  1.7111 -1.0746
  199MOL0     H27405  10.557   6.758   9.378  1.1435  0.0472 -0.6154
  199MOL0     H27406  10.559   6.853   9.527  1.6315  1.0450 -5.3941
  199MOL0     H27407  10.541   6.544   9.523  0.5554  0.0711 -1.8535
  199MOL0     H27408  10.525   6.639   9.667 -0.4282 -1.7844 -0.7737
  199MOL0     H27409  10.760   6.544   9.617  0.7819 -1.0879 -4.4476
  199MOL0     H27410  10.777   6.648   9.479 -0.1878  0.7327 -0.5255
  199MOL0     H27411  10.763   6.674   9.861  1.5202  0.8808  1.4189
  199MOL0     H27412  10.983   6.982   9.961  3.8040 -2.3582  2.1528
  199MOL0     H27413  10.921   6.833  10.030 -0.8518 -1.1787 -2.9328
  199MOL0     H27414  10.747   7.081   9.971  0.5221 -1.2522 -2.3414
  199MOL0     H27415  10.681   6.924   9.991 -1.1292  2.8726 -3.3412
  199MOL0     H27416  10.865   7.041  10.209 -1.6726  4.0886  1.4886
  199MOL0     H27417  10.703   7.094  10.202  0.5984 -0.0216 -0.0172
  199MOL0     H27418  10.729   6.920  10.356 -0.8236  0.6965 -0.4219
  199MOL0     H27419  10.605   6.893  10.232 -0.1702  1.7656 -1.2746
  199MOL0     H27420  10.673   6.750  10.455  1.9748 -0.1006 -0.2586
  199MOL0     H27421  10.535   6.489  10.624  0.0872  1.5388 -2.4763
  199MOL0     H27422  10.609   6.639  10.653 -0.9294 -1.3339  2.4315
  199MOL0     H27423  10.691   6.494  10.698  1.2844  1.4541  0.2595
  199MOL0     H27424  10.556   6.082  10.484 -2.1158  0.1381 -0.4520
  199MOL0     H27425  10.448   5.897  10.600 -0.2559  0.6308 -0.9359
  199MOL0     H27426  10.548   5.836  11.011 -1.3589  1.6997 -0.2942
  199MOL0     H27427  10.389   5.896  11.054  1.3468 -0.8868  1.2437
  199MOL0     H27428  10.295   5.684  10.988 -0.2114  0.7136 -2.0001
  199MOL0     H27429  10.450   5.630  10.930  1.1527  1.9863 -1.6996
  199MOL0     H27430  10.350   5.607  11.207  0.4767  0.9637  3.2876
  199MOL0     H27431  10.489   5.728  11.199 -2.3451  1.6202 -0.9238
  199MOL0     H27432  10.600   5.516  11.073 -0.8562 -1.0017 -0.9983
  199MOL0     H27433  10.453   5.429  11.118  0.0154  0.8861 -2.1575
  199MOL0     H27434  10.656   5.575  11.305  0.1086 -0.2420 -1.9945
  199MOL0     H27435  10.505   5.492  11.371  0.5712 -1.7091  1.2643
  199MOL0     H27436  10.721   5.350  11.212 -0.9071 -0.0256 -1.4841
  199MOL0     H27437  10.575   5.288  11.304  0.2957 -0.2503 -1.9222
  199MOL0     H27438  10.676   5.388  11.508  3.3636 -0.8110  2.0523
  199MOL0     H27439  10.823   5.437  11.414  1.4252 -1.0666 -2.5901
  199MOL0     H27440  10.838   5.192  11.361 -0.9187 -0.2377 -0.1374
  199MOL0     H27441  10.729   5.155  11.492 -0.8332  2.4982  1.6409
  199MOL0     H27442  10.551   6.077  10.991 -0.6230  0.6454  1.4098
  199MOL0     H27443  10.668   6.239  10.871 -0.6269  2.7028 -2.9989
  199MOL0     H27444  10.812   6.337  10.230 -1.1348 -0.0327  0.3500
  199MOL0     H27445  10.838   6.545  10.115  0.6745  0.6572 -0.8629
  199MOL0     H27446   9.834   7.121   9.915 -1.5466  4.3888  1.2321
  199MOL0     H27447   9.635   7.261   9.945 -0.7492 -1.8105  2.2455
  199MOL0     H27448   9.226   7.301   9.801 -3.3724 -0.6622  0.0630
  199MOL0     H27449   8.990   7.373   9.798  2.2675 -2.6347 -0.6561
  199MOL0     H27450   8.780   7.477   9.742  4.7478 -1.0965 -2.1445
  199MOL0     H27451   8.853   7.541   9.886  2.5455  0.6717 -0.5665
  199MOL0     H27452   8.743   7.759   9.873 -2.9070  0.9074  1.6201
  199MOL0     H27453   8.630   7.631   9.893  1.5332 -1.1145 -0.2602
  199MOL0     H27454   8.698   7.803   9.653 -0.8603  1.4925 -1.3274
  199MOL0     H27455   8.601   7.655   9.641 -0.6441  0.1081 -0.0136
  199MOL0     H27456   8.524   7.883   9.829  1.4351 -3.2722  1.8185
  199MOL0     H27457   8.421   7.740   9.771  0.8403 -1.4074 -0.3904
  199MOL0     H27458   8.327   8.000   9.485  0.8697 -3.8167 -2.9504
  199MOL0     H27459   9.112   7.752   9.638 -0.0692  0.8155  1.0865
  199MOL0     H27460   9.422   7.719   9.568  2.6925  0.3400  0.6290
  199MOL0     H27461   9.316   7.811   9.687 -1.0631 -1.0895 -0.2371
  199MOL0     H27462   9.455   7.713   9.739 -0.4389 -2.4837  0.5380
  200MOL0     O27463   9.744   5.626   6.147  0.3486  0.1531  0.2429
  200MOL0     C27464   9.701   5.718   6.209 -0.8980  0.1533 -1.4380
  200MOL0     O27465   9.621   5.821   6.157 -0.2232 -0.6473 -0.6533
  200MOL0     C27466   9.599   5.831   6.024 -0.5004  0.2527 -0.4792
  200MOL0     C27467   9.554   5.724   5.943  0.0142 -0.6586  0.1622
  200MOL0     C27468   9.533   5.738   5.808  0.2588  0.0392 -0.2231
  200MOL0     C27469   9.554   5.863   5.750 -0.0060 -0.7239  0.3467
  200MOL0     O27470   9.522   5.863   5.619 -0.2981 -1.2261  0.1375
  200MOL0     C27471   9.544   5.977   5.532 -0.5554  0.7450  0.3196
  200MOL0     C27472   9.465   5.949   5.410 -0.4297  0.3139 -0.0169
  200MOL0     C27473   9.465   6.061   5.314  0.4797  0.5736  0.6876
  200MOL0     C27474   9.360   6.057   5.200  0.3903 -0.4710  0.5472
  200MOL0     C27475   9.396   5.949   5.092 -0.0344  0.5239  0.1098
  200MOL0     C27476   9.514   5.986   5.006 -0.1239  0.1922  0.4343
  200MOL0     C27477   9.586   5.862   4.953  0.8636 -1.0309 -0.6253
  200MOL0     C27478   9.673   5.895   4.834 -0.1066 -0.7684  0.2624
  200MOL0     N27479   9.793   5.972   4.881 -0.4334 -0.0261  0.4340
  200MOL0     C27480   9.820   6.108   4.868 -0.6133 -0.4578 -0.7018
  200MOL0     C27481   9.947   6.118   4.910  0.9273 -0.8359  0.5247
  200MOL0     C27482  10.012   6.236   4.940  0.1998 -0.6318 -0.8043
  200MOL0     C27483  10.169   6.232   4.992  0.0107 -0.0967 -0.1080
  200MOL0     C27484  10.225   6.371   5.005  0.5220  0.8005 -0.2480
  200MOL0     C27485  10.157   6.461   5.105  0.5704  0.0683  0.1569
  200MOL0     O27486  10.018   6.481   5.067 -0.6121 -0.3661  0.0971
  200MOL0     C27487   9.939   6.579   5.122 -0.3962 -0.4515 -0.7328
  200MOL0     C27488   9.994   6.683   5.203 -0.0025  0.3121 -0.4702
  200MOL0     C27489   9.915   6.789   5.265 -0.9414 -0.6214  0.5888
  200MOL0     C27490   9.991   6.888   5.348 -0.5640  0.0970 -0.2092
  200MOL0     C27491   9.774   6.797   5.231  0.1587  0.2485  0.0777
  200MOL0     C27492   9.678   6.891   5.298 -0.7110 -0.9492  0.4211
  200MOL0     O27493   9.546   6.846   5.288 -0.3787 -0.5031  0.0979
  200MOL0     C27494   9.469   6.900   5.375 -0.4437 -0.0218 -0.7202
  200MOL0     C27495   9.448   6.847   5.500  0.9804 -1.1174 -0.6621
  200MOL0     C27496   9.358   6.905   5.592  0.4681  0.4587  0.3659
  200MOL0     C27497   9.279   7.026   5.558  0.1591  0.6937  0.1903
  200MOL0     O27498   9.187   7.095   5.637  0.2030 -0.1417  0.2436
  200MOL0     C27499   9.104   7.031   5.720 -0.4079 -1.1795 -0.1852
  200MOL0     C27500   9.156   7.070   5.859  0.4210 -0.4864  0.3443
  200MOL0     C27501   9.076   6.982   5.960 -1.4199  0.1662  0.4514
  200MOL0     C27502   9.139   6.987   6.100 -0.5039  0.2333 -0.1924
  200MOL0     C27503   9.095   7.108   6.182  0.0091  0.0803 -0.0915
  200MOL0     C27504   9.187   7.149   6.299 -0.2517 -0.3375  0.1699
  200MOL0     C27505   9.269   7.047   6.378  0.9894 -0.1493  0.1844
  200MOL0     C27506   9.352   7.120   6.488  0.4687  0.5176 -1.1954
  200MOL0    Cl27507   9.473   7.232   6.406 -0.5721  0.5644 -0.3575
  200MOL0     C27508   9.303   7.080   5.431  0.3347  0.5295  0.0137
  200MOL0     C27509   9.387   7.008   5.338 -0.2504 -0.4927  0.6934
  200MOL0     O27510   9.724   6.989   5.359 -0.4072 -0.7029  0.0321
  200MOL0     C27511   9.729   6.694   5.142  0.1011 -0.2884  0.6453
  200MOL0     C27512   9.807   6.596   5.084 -0.3362  0.7532 -1.0669
  200MOL0     N27513   9.983   5.996   4.960 -0.9351  0.6122 -0.0611
  200MOL0     N27514   9.889   5.906   4.945 -0.0679 -0.0588  0.0197
  200MOL0     C27515   9.595   5.972   5.825  0.1897 -0.9222 -0.9466
  200MOL0     C27516   9.631   5.948   5.956  0.0483 -0.2635 -0.1985
  200MOL0     C27517   9.708   5.709   6.358 -0.4298 -1.3072 -0.1601
  200MOL0     C27518   9.692   5.586   6.416 -0.8925 -0.8630 -0.8785
  200MOL0     C27519   9.711   5.571   6.549  0.1665  0.6276 -0.0306
  200MOL0     C27520   9.736   5.686   6.628  0.0908  0.2583  0.4231
  200MOL0     O27521   9.753   5.672   6.765  0.0851  0.0952  0.3901
  200MOL0     C27522   9.875   5.598   6.793 -0.3630 -0.8311  0.1834
  200MOL0     C27523   9.860   5.603   6.955  0.1374  0.7149  0.0555
  200MOL0     C27524   9.986   5.555   7.021 -0.0712 -0.0999  0.4737
  200MOL0     C27525  10.009   5.559   7.173 -0.2048  0.3332 -0.6125
  200MOL0     C27526   9.906   5.476   7.236  0.4380 -0.6794 -0.8086
  200MOL0     C27527   9.828   5.397   7.292  0.8426 -0.3497  0.0880
  200MOL0     C27528   9.738   5.812   6.572  0.1293  0.3841 -0.4595
  200MOL0     C27529   9.732   5.822   6.440  0.2498 -0.4950  0.9533
  200MOL0     C27530   9.751   5.962   6.390  0.1205  0.2448  0.4975
  200MOL0     H27531   9.523   5.639   6.003 -1.7357 -1.4039 -1.6865
  200MOL0     H27532   9.493   5.660   5.744  1.7961  0.0362 -1.2383
  200MOL0     H27533   9.649   5.979   5.500 -1.0999  0.4026 -1.6495
  200MOL0     H27534   9.510   6.070   5.578 -0.4988 -0.3922  2.8073
  200MOL0     H27535   9.513   5.866   5.357  0.0454  1.6719 -1.7987
  200MOL0     H27536   9.360   5.925   5.431  0.2040 -1.0197  1.9339
  200MOL0     H27537   9.450   6.149   5.377 -0.8039  1.9871 -1.4370
  200MOL0     H27538   9.568   6.068   5.278  0.9858 -0.4456  1.8738
  200MOL0     H27539   9.259   6.040   5.240  0.8763  0.1176  2.0635
  200MOL0     H27540   9.362   6.156   5.154  1.0394 -0.9143 -0.4272
  200MOL0     H27541   9.309   5.936   5.026  1.5306 -0.6800 -1.8161
  200MOL0     H27542   9.414   5.856   5.146 -3.2453 -0.1734  0.1574
  200MOL0     H27543   9.477   6.042   4.920  0.8883 -1.3004 -1.0629
  200MOL0     H27544   9.588   6.051   5.054 -0.3126  1.0587 -0.4121
  200MOL0     H27545   9.505   5.792   4.930 -2.3463  2.3752 -0.5976
  200MOL0     H27546   9.660   5.820   5.021  3.1029  2.5088 -0.6213
  200MOL0     H27547   9.712   5.809   4.779  0.8684 -0.8180  0.9924
  200MOL0     H27548   9.612   5.951   4.763 -0.7546 -0.5623  0.9646
  200MOL0     H27549   9.753   6.188   4.836 -3.6418 -2.0442  1.1984
  200MOL0     H27550   9.963   6.268   5.032  0.8937 -1.1897 -0.2297
  200MOL0     H27551   9.992   6.314   4.866 -2.8385 -1.3837 -0.9075
  200MOL0     H27552  10.171   6.181   5.089 -0.3853 -1.1663 -0.6439
  200MOL0     H27553  10.227   6.181   4.914 -0.6639  2.4997 -2.4592
  200MOL0     H27554  10.330   6.361   5.034  0.9343  1.7233 -1.3362
  200MOL0     H27555  10.213   6.409   4.903 -0.0149 -2.1335 -1.3960
  200MOL0     H27556  10.150   6.417   5.204  1.0720 -2.0980 -0.7245
  200MOL0     H27557  10.214   6.555   5.102 -1.3895  1.4298  2.4695
  200MOL0     H27558  10.100   6.679   5.225  0.0397 -1.7871 -0.8994
  200MOL0     H27559   9.996   6.986   5.300 -1.5391 -1.1113 -3.0372
  200MOL0     H27560  10.099   6.872   5.354 -0.0365  3.2465  0.7831
  200MOL0     H27561   9.953   6.884   5.451 -1.0856  0.2699 -0.3911
  200MOL0     H27562   9.487   6.752   5.534 -0.9668 -1.6778  0.0802
  200MOL0     H27563   9.365   6.855   5.688  1.1943 -0.6474 -0.2416
  200MOL0     H27564   9.007   7.079   5.702  0.9889  2.3432  0.8310
  200MOL0     H27565   9.112   6.923   5.701  2.6728 -0.8718 -1.3061
  200MOL0     H27566   9.264   7.053   5.862  0.3785 -0.8250  0.0373
  200MOL0     H27567   9.145   7.175   5.888 -0.3927 -0.9688  1.9177
  200MOL0     H27568   9.079   6.878   5.926  0.0688  0.7153 -1.2414
  200MOL0     H27569   8.971   7.014   5.965 -1.4701 -0.0543  0.8799
  200MOL0     H27570   9.248   6.992   6.095 -0.1901  0.5839  3.8226
  200MOL0     H27571   9.107   6.898   6.155  0.9941 -2.0394 -2.7403
  200MOL0     H27572   9.072   7.188   6.111 -1.9714 -1.5106 -1.3652
  200MOL0     H27573   8.997   7.085   6.226 -0.6782 -0.9678 -2.0388
  200MOL0     H27574   9.122   7.210   6.362 -0.6949  1.4729 -1.9116
  200MOL0     H27575   9.257   7.223   6.258  1.8888 -2.1834  0.3069
  200MOL0     H27576   9.334   6.983   6.318  1.2351 -1.1250  1.4507
  200MOL0     H27577   9.202   6.977   6.430 -0.8484  0.2776 -1.4883
  200MOL0     H27578   9.391   7.045   6.557 -0.3552  1.5101  0.3902
  200MOL0     H27579   9.294   7.188   6.550  0.6735  1.0820 -1.6124
  200MOL0     H27580   9.245   7.165   5.395 -1.4235 -0.7928 -0.4655
  200MOL0     H27581   9.411   7.049   5.240  2.9766 -3.2272  0.1617
  200MOL0     H27582   9.627   6.697   5.104  0.4090 -0.3967 -0.1994
  200MOL0     H27583   9.770   6.515   5.022 -1.3978  1.2103 -1.0574
  200MOL0     H27584   9.615   6.068   5.779  2.2972 -2.0036 -2.4368
  200MOL0     H27585   9.671   6.028   6.018  2.6726  0.0380 -2.1000
  200MOL0     H27586   9.661   5.501   6.356 -0.5248 -0.3429 -1.8402
  200MOL0     H27587   9.680   5.474   6.588  0.7383  0.4981  0.1100
  200MOL0     H27588   9.889   5.497   6.753 -1.0807 -0.9321  0.1849
  200MOL0     H27589   9.954   5.666   6.759 -1.2825  0.6724  0.9807
  200MOL0     H27590   9.778   5.538   6.985 -2.0541  4.1280  2.2319
  200MOL0     H27591   9.822   5.701   6.987 -2.4601 -0.3754  0.5762
  200MOL0     H27592  10.001   5.451   6.990  0.6864 -0.4902  2.0412
  200MOL0     H27593  10.073   5.609   6.981 -0.6619  0.8963  0.4901
  200MOL0     H27594   9.997   5.653   7.226  2.4093  0.0358  0.6219
  200MOL0     H27595  10.113   5.528   7.184  0.0379 -0.2602 -3.5365
  200MOL0     H27596   9.758   5.333   7.342 -0.1740  3.3536  3.9896
  200MOL0     H27597   9.736   5.896   6.640 -2.9142 -1.6467  2.2511
  200MOL0     H27598   9.821   5.968   6.306 -3.6961  2.0690 -2.8877
  200MOL0     H27599   9.658   5.994   6.343  0.7575 -0.1202 -1.0515
  200MOL0     H27600   9.778   6.023   6.477 -0.6422  2.1154 -0.5276
  201MOL0     O27601  11.037  10.481   4.434 -0.1085 -0.0546 -0.5527
  201MOL0     C27602  11.155  10.436   4.428 -0.1371 -0.1870  0.1854
  201MOL0     O27603  11.202  10.340   4.348  0.7090  0.5492  0.5831
  201MOL0     C27604  11.115  10.261   4.280  0.7963 -0.0882 -0.9441
  201MOL0     C27605  11.143  10.121   4.278 -0.0080  0.6080  0.6986
  201MOL0     C27606  11.055  10.040   4.204 -1.5391 -1.1348  0.9983
  201MOL0     C27607  10.938  10.086   4.141 -0.0564  0.0775  0.4682
  201MOL0     O27608  10.834  10.000   4.118  0.2683 -0.3204  0.2008
  201MOL0     C27609  10.852   9.946   3.988  0.5342  0.1354  0.6631
  201MOL0     C27610  10.918   9.813   3.974 -0.9076 -0.0654 -0.4632
  201MOL0     C27611  10.872   9.713   4.078 -0.4780 -0.3726  0.4036
  201MOL0     C27612  10.753   9.637   4.029  0.6311  0.4310 -0.5825
  201MOL0     C27613  10.669   9.565   4.136 -0.0867  1.1145  0.0856
  201MOL0     C27614  10.562   9.468   4.076  0.0789  0.8676 -0.1142
  201MOL0     C27615  10.463   9.408   4.177  1.0394 -0.3458  0.2466
  201MOL0     C27616  10.359   9.319   4.102 -0.6556  0.5448 -0.3251
  201MOL0     N27617  10.244   9.294   4.197 -0.8123  0.6276  0.1156
  201MOL0     C27618  10.146   9.377   4.234  0.1542  0.1637 -0.2280
  201MOL0     C27619  10.072   9.310   4.339 -0.2741 -0.1087  0.1630
  201MOL0     C27620   9.952   9.341   4.423  0.2938  0.2752  0.3749
  201MOL0     C27621   9.825   9.269   4.372 -0.0136 -0.0199 -1.4002
  201MOL0     C27622   9.725   9.230   4.485 -0.7652 -0.3307  0.6340
  201MOL0     C27623   9.763   9.108   4.568 -0.7887  1.1235 -0.2150
  201MOL0     O27624   9.734   8.990   4.489  0.3201  0.0252  0.0582
  201MOL0     C27625   9.600   8.948   4.489 -0.2236  0.9526 -0.0959
  201MOL0     C27626   9.580   8.840   4.401  0.0418  0.1590 -0.3520
  201MOL0     C27627   9.465   8.762   4.400  0.7113 -0.3310  0.0107
  201MOL0     C27628   9.434   8.658   4.288 -0.1484  0.1793 -0.8494
  201MOL0     C27629   9.373   8.785   4.502  0.1592  1.0781 -0.4912
  201MOL0     C27630   9.239   8.726   4.522  0.3595 -0.7464 -0.2830
  201MOL0     O27631   9.176   8.766   4.637 -0.1049  0.3044  0.6659
  201MOL0     C27632   9.061   8.715   4.684  0.3205 -0.2881  0.1830
  201MOL0     C27633   9.028   8.577   4.659  0.9684 -0.4611 -0.1786
  201MOL0     C27634   8.907   8.521   4.701 -0.1757 -0.3739 -0.6574
  201MOL0     C27635   8.821   8.611   4.758 -0.3032  0.2519 -1.0660
  201MOL0     O27636   8.694   8.570   4.776  0.6246  0.8015 -0.6299
  201MOL0     C27637   8.612   8.546   4.658 -0.0088  0.2551 -0.3789
  201MOL0     C27638   8.460   8.546   4.705 -0.1888  0.0406 -0.5597
  201MOL0     C27639   8.408   8.695   4.689 -0.3835  0.1647 -0.5266
  201MOL0     C27640   8.367   8.721   4.545 -0.2968  0.5673  0.3939
  201MOL0     C27641   8.309   8.872   4.529 -0.9833  0.1499  0.8139
  201MOL0     C27642   8.276   8.887   4.382 -0.3524 -0.2348  0.8043
  201MOL0     C27643   8.240   9.023   4.320  0.9220  0.4876  0.0384
  201MOL0     C27644   8.318   9.048   4.184  0.3603 -0.5395  0.2837
  201MOL0    Cl27645   8.342   9.227   4.167 -0.2126 -0.0238  0.1189
  201MOL0     C27646   8.845   8.744   4.771 -0.7085 -0.2460 -0.4465
  201MOL0     C27647   8.964   8.793   4.736  0.8618  0.4927  0.1352
  201MOL0     O27648   9.186   8.662   4.431 -0.6230 -0.2343 -0.3751
  201MOL0     C27649   9.408   8.888   4.600  0.6632  0.2849 -0.0488
  201MOL0     C27650   9.515   8.969   4.594  0.5129 -0.2833  0.4112
  201MOL0     N27651  10.141   9.188   4.349  0.4035  0.7547  0.2924
  201MOL0     N27652  10.235   9.177   4.267 -0.0476  0.0739  0.4755
  201MOL0     C27653  10.913  10.224   4.152 -0.3019 -0.4053  0.0761
  201MOL0     C27654  10.996  10.313   4.216  0.4224  0.2097 -0.2693
  201MOL0     C27655  11.251  10.513   4.515  0.1932  0.8795 -0.6382
  201MOL0     C27656  11.234  10.653   4.509  0.0800  0.7121  0.4746
  201MOL0     C27657  11.307  10.738   4.579 -1.2347 -0.2219  1.0793
  201MOL0     C27658  11.403  10.696   4.664 -1.4447  0.3614 -0.2812
  201MOL0     O27659  11.486  10.780   4.736  0.3483  0.4373 -1.1507
  201MOL0     C27660  11.457  10.796   4.872  1.0317  0.7688  0.2747
  201MOL0     C27661  11.470  10.932   4.925  0.8738  0.1311 -0.7055
  201MOL0     C27662  11.376  11.023   4.851 -0.0578  0.0586  0.2917
  201MOL0     C27663  11.310  11.127   4.943 -0.2784  0.2439  0.1872
  201MOL0     C27664  11.232  11.220   4.853  0.6438 -0.5101 -0.0082
  201MOL0     C27665  11.180  11.311   4.790 -0.2442  0.3117  0.4877
  201MOL0     C27666  11.428  10.557   4.676 -0.8661 -0.4393  0.1979
  201MOL0     C27667  11.348  10.468   4.615  0.4850  0.7945 -0.2763
  201MOL0     C27668  11.344  10.322   4.652 -0.1810  0.0244  0.3922
  201MOL0     H27669  11.236  10.095   4.327 -0.6289 -1.0227  1.0714
  201MOL0     H27670  11.069   9.933   4.197 -0.7538 -0.9264 -1.6509
  201MOL0     H27671  10.894  10.020   3.918  0.6259 -0.3755  0.1677
  201MOL0     H27672  10.759   9.914   3.942  1.1479 -1.6402  0.5778
  201MOL0     H27673  10.901   9.770   3.875 -0.3571 -1.9562  0.2302
  201MOL0     H27674  11.025   9.828   3.989 -0.5984 -0.3973 -2.0859
  201MOL0     H27675  10.955   9.642   4.090  0.3876  0.9261  2.6455
  201MOL0     H27676  10.846   9.764   4.171 -1.6456 -0.0954 -0.0516
  201MOL0     H27677  10.672   9.699   3.989  0.1445  0.7248  0.7825
  201MOL0     H27678  10.800   9.570   3.957  3.9770  1.1076  0.7851
  201MOL0     H27679  10.643   9.652   4.197  1.0522  3.8645 -3.0369
  201MOL0     H27680  10.738   9.502   4.193 -0.1529  0.4142 -0.5884
  201MOL0     H27681  10.512   9.518   3.993  1.9834  0.9482 -1.2617
  201MOL0     H27682  10.621   9.387   4.031 -2.3373 -0.2112 -1.5740
  201MOL0     H27683  10.413   9.488   4.233 -0.7560 -1.9074  0.9775
  201MOL0     H27684  10.512   9.350   4.255 -0.5921  0.2089  1.7552
  201MOL0     H27685  10.315   9.363   4.012 -0.7161  0.4903 -0.3225
  201MOL0     H27686  10.407   9.228   4.066  0.5586  1.6555 -1.6153
  201MOL0     H27687  10.111   9.468   4.186  0.4152  0.5037  0.2217
  201MOL0     H27688   9.936   9.449   4.432 -0.0221  0.4897 -1.9554
  201MOL0     H27689   9.977   9.306   4.523  2.7064 -0.0337 -0.2818
  201MOL0     H27690   9.780   9.329   4.292 -1.3281  1.8940  0.6627
  201MOL0     H27691   9.865   9.180   4.323  0.3578 -1.1259  0.8104
  201MOL0     H27692   9.699   9.318   4.545 -3.5767  0.1540 -1.1114
  201MOL0     H27693   9.632   9.199   4.436 -0.7529 -0.1003  0.4601
  201MOL0     H27694   9.870   9.106   4.589 -0.4215 -2.6868 -1.6052
  201MOL0     H27695   9.715   9.120   4.666 -0.0388 -1.0436  0.4679
  201MOL0     H27696   9.659   8.821   4.330 -0.6467 -0.5285 -0.9567
  201MOL0     H27697   9.420   8.565   4.344 -1.2928  1.6129  1.4060
  201MOL0     H27698   9.522   8.647   4.224 -0.3844 -0.8424 -1.0175
  201MOL0     H27699   9.344   8.690   4.236 -2.2781  1.0093  2.9384
  201MOL0     H27700   9.097   8.503   4.621  0.1042  0.4009 -3.8785
  201MOL0     H27701   8.874   8.419   4.680 -1.8023  0.6239 -3.5086
  201MOL0     H27702   8.643   8.617   4.581  1.8138 -0.8670 -0.7525
  201MOL0     H27703   8.641   8.446   4.623 -1.0291  0.9871 -3.6668
  201MOL0     H27704   8.404   8.476   4.642 -1.6873  1.2109 -0.5848
  201MOL0     H27705   8.448   8.525   4.812 -1.5098  1.2863 -0.4320
  201MOL0     H27706   8.482   8.762   4.736 -1.3440 -2.1219  5.0408
  201MOL0     H27707   8.321   8.712   4.753  0.2267  0.4564  0.2451
  201MOL0     H27708   8.283   8.656   4.518 -0.4046  1.2354 -0.9622
  201MOL0     H27709   8.455   8.704   4.482 -0.3539 -2.8551  1.0577
  201MOL0     H27710   8.219   8.892   4.588 -2.4321 -1.5892 -0.6817
  201MOL0     H27711   8.389   8.936   4.567 -1.0501  0.2941  0.7145
  201MOL0     H27712   8.186   8.828   4.360 -1.2754  1.1265  0.8217
  201MOL0     H27713   8.363   8.852   4.325 -2.0511 -2.7474 -0.4914
  201MOL0     H27714   8.268   9.104   4.387  2.8797 -0.7319  0.7897
  201MOL0     H27715   8.133   9.030   4.299  1.2092  0.8562 -1.3549
  201MOL0     H27716   8.244   9.013   4.111 -0.3327 -3.4006  2.1636
  201MOL0     H27717   8.417   9.004   4.174 -1.1577 -4.5574  0.8110
  201MOL0     H27718   8.771   8.814   4.808 -0.2599 -0.7304  1.4633
  201MOL0     H27719   8.998   8.894   4.754  3.4644 -0.1843 -0.5606
  201MOL0     H27720   9.343   8.914   4.683  0.7976 -2.9240  1.2103
  201MOL0     H27721   9.525   9.052   4.663  2.4169 -0.1329  0.0053
  201MOL0     H27722  10.826  10.274   4.110  1.1507  1.1201 -1.3111
  201MOL0     H27723  10.962  10.416   4.213 -1.3196 -0.3283 -0.1743
  201MOL0     H27724  11.157  10.692   4.443  0.2156 -1.7947 -1.3317
  201MOL0     H27725  11.283  10.843   4.563 -0.8259 -0.2386  0.2862
  201MOL0     H27726  11.353  10.767   4.892 -0.3845  3.2357 -2.8344
  201MOL0     H27727  11.518  10.734   4.939 -4.0811 -1.8089  3.1427
  201MOL0     H27728  11.574  10.958   4.903  1.4063 -1.1189  0.2202
  201MOL0     H27729  11.445  10.926   5.031 -2.6813 -3.3946 -1.5050
  201MOL0     H27730  11.437  11.070   4.774  0.5078  2.2049  1.9521
  201MOL0     H27731  11.294  10.967   4.805 -1.9724  1.1238  2.2006
  201MOL0     H27732  11.398  11.179   4.982 -0.9463  1.1552  0.5230
  201MOL0     H27733  11.249  11.077   5.018  0.3839  0.7551  1.0877
  201MOL0     H27734  11.127  11.384   4.733 -0.2280 -0.6862 -0.8582
  201MOL0     H27735  11.510  10.529   4.742 -1.4111 -2.3532  0.1114
  201MOL0     H27736  11.405  10.267   4.580  0.6219 -0.8250  1.6790
  201MOL0     H27737  11.385  10.315   4.753  2.1908 -4.4945 -0.6116
  201MOL0     H27738  11.247  10.272   4.650  0.0566 -0.4299 -0.1056
  202MOL0     O27739   6.506   1.790   1.154  0.0483  0.2758 -0.5360
  202MOL0     C27740   6.453   1.740   1.056 -0.4132 -0.6246 -0.4959
  202MOL0     O27741   6.486   1.776   0.932  0.5493  0.6955 -1.0003
  202MOL0     C27742   6.563   1.888   0.920 -0.4762 -0.1017 -0.2025
  202MOL0     C27743   6.519   2.012   0.942 -0.0442 -0.1192  0.4908
  202MOL0     C27744   6.572   2.128   0.876 -0.2442  0.5212  0.5484
  202MOL0     C27745   6.689   2.107   0.801  0.2060 -0.3206  1.1308
  202MOL0     O27746   6.755   2.224   0.760  0.7593  0.0384  0.0955
  202MOL0     C27747   6.846   2.207   0.646  0.2995 -0.1917 -0.3076
  202MOL0     C27748   6.902   2.349   0.596 -0.3837  0.1601 -0.7185
  202MOL0     C27749   6.963   2.430   0.708  0.2575 -0.3352  0.8583
  202MOL0     C27750   7.067   2.528   0.653  0.4078  0.2546  0.6877
  202MOL0     C27751   7.210   2.473   0.633 -0.0577  0.7819 -0.1117
  202MOL0     C27752   7.285   2.560   0.540  0.3329  0.2341 -0.0147
  202MOL0     C27753   7.329   2.703   0.598  0.0521  0.1804  0.4305
  202MOL0     C27754   7.436   2.770   0.514 -1.3954  0.9522 -0.0571
  202MOL0     N27755   7.484   2.887   0.585 -0.1394  0.3257  0.7635
  202MOL0     C27756   7.418   3.001   0.592  0.1102  0.3140 -0.1685
  202MOL0     C27757   7.490   3.078   0.678 -0.5710  1.5073 -0.3731
  202MOL0     C27758   7.468   3.216   0.714 -1.0360  0.5536 -0.5830
  202MOL0     C27759   7.465   3.302   0.589 -0.9875 -0.7820 -0.7522
  202MOL0     C27760   7.607   3.371   0.582 -0.0644 -0.4569  0.1276
  202MOL0     C27761   7.636   3.436   0.453 -0.4726  0.5331  0.2875
  202MOL0     O27762   7.552   3.548   0.423  0.7794  0.3144 -0.2967
  202MOL0     C27763   7.591   3.635   0.315  0.6485  0.2537 -0.7451
  202MOL0     C27764   7.506   3.736   0.280  0.3394 -0.4363 -0.9414
  202MOL0     C27765   7.527   3.826   0.173 -0.2953 -0.1981 -0.3378
  202MOL0     C27766   7.427   3.939   0.159 -0.2040  0.2825  0.3599
  202MOL0     C27767   7.633   3.807   0.090 -0.8347 -0.5019  0.5007
  202MOL0     C27768   7.646   3.880  -0.041 -0.7804  1.0990 -0.6737
  202MOL0     O27769   7.575   3.819  -0.142  0.4216  0.5970  0.1460
  202MOL0     C27770   7.556   3.871  -0.264 -0.3303 -0.3385  1.0361
  202MOL0     C27771   7.430   3.917  -0.311 -0.9924 -0.0977 -0.8659
  202MOL0     C27772   7.421   3.965  -0.439  0.4974 -0.5394 -0.2490
  202MOL0     C27773   7.524   3.961  -0.531 -0.1315  0.4025  0.7053
  202MOL0     O27774   7.500   4.000  -0.657  0.7881 -0.1420  0.3113
  202MOL0     C27775   7.591   4.001  -0.768 -0.2752 -0.8872  0.1817
  202MOL0     C27776   7.508   4.005  -0.898 -0.1613 -0.0088 -0.2934
  202MOL0     C27777   7.589   4.058  -1.023  0.8869 -0.3972 -0.3347
  202MOL0     C27778   7.704   3.979  -1.086  1.1427 -0.6595 -0.0985
  202MOL0     C27779   7.805   4.066  -1.156 -0.1523  0.0208  0.0874
  202MOL0     C27780   7.934   3.975  -1.178  0.1301 -0.4850  0.6096
  202MOL0     C27781   8.042   4.068  -1.239 -0.9078 -0.3931  0.3089
  202MOL0     C27782   8.024   4.063  -1.386 -0.5612 -0.4328 -0.0633
  202MOL0    Cl27783   8.159   4.088  -1.493 -0.0616  0.1042 -0.0216
  202MOL0     C27784   7.646   3.922  -0.487 -0.0204 -0.2739  0.2280
  202MOL0     C27785   7.661   3.879  -0.356 -0.6606 -0.4597  0.8639
  202MOL0     O27786   7.710   3.982  -0.044  0.6507 -0.1348 -0.5532
  202MOL0     C27787   7.725   3.703   0.118  0.0079  0.3078 -0.5046
  202MOL0     C27788   7.702   3.621   0.230 -0.1416  0.4688  0.2580
  202MOL0     N27789   7.601   3.007   0.714  0.8817 -0.2592 -0.3721
  202MOL0     N27790   7.601   2.893   0.656 -0.6721 -0.0473  0.0147
  202MOL0     C27791   6.745   1.986   0.804  0.3209  0.2547  0.7983
  202MOL0     C27792   6.683   1.872   0.852  0.3637 -0.4858 -0.6310
  202MOL0     C27793   6.369   1.620   1.079  0.0912 -0.8887 -0.0511
  202MOL0     C27794   6.333   1.557   0.963 -0.0086 -0.3603  0.3368
  202MOL0     C27795   6.251   1.447   0.967 -0.9841 -0.3613 -0.4299
  202MOL0     C27796   6.206   1.404   1.090 -0.6877 -0.7862 -0.9457
  202MOL0     O27797   6.123   1.294   1.087 -0.0178  0.3558 -0.1273
  202MOL0     C27798   6.127   1.194   1.191  0.3313  0.3296 -0.4636
  202MOL0     C27799   6.264   1.133   1.228  0.3999 -0.0328 -0.1421
  202MOL0     C27800   6.322   1.047   1.118  0.4354  0.8629 -0.6156
  202MOL0     C27801   6.358   0.899   1.145 -0.8789  1.1554 -0.1023
  202MOL0     C27802   6.448   0.882   1.261  0.0959  0.0633  0.0802
  202MOL0     C27803   6.525   0.877   1.355 -1.1406  0.7649 -0.2137
  202MOL0     C27804   6.237   1.477   1.212  0.0796 -0.0831 -0.1807
  202MOL0     C27805   6.317   1.588   1.205 -0.9447  0.1005  0.7930
  202MOL0     C27806   6.349   1.659   1.339  0.2472  0.1357 -0.2252
  202MOL0     H27807   6.428   2.016   1.001 -0.0427 -1.5350  0.6244
  202MOL0     H27808   6.532   2.226   0.898  3.7719  2.0420  2.1210
  202MOL0     H27809   6.817   2.155   0.555  1.1250  0.6522 -1.0751
  202MOL0     H27810   6.924   2.146   0.692 -1.4269 -1.3923  1.1788
  202MOL0     H27811   6.965   2.342   0.507  0.2179  2.1572 -0.4931
  202MOL0     H27812   6.820   2.414   0.563 -0.8859  0.9203  1.7957
  202MOL0     H27813   6.878   2.478   0.757 -1.7117 -1.3829 -1.3257
  202MOL0     H27814   7.009   2.358   0.776  1.8202  0.0288  0.2202
  202MOL0     H27815   7.020   2.552   0.557  0.5710 -0.8741  0.3183
  202MOL0     H27816   7.062   2.616   0.718 -2.6598 -1.1179  2.5696
  202MOL0     H27817   7.200   2.374   0.588  2.4972  0.4957 -0.2437
  202MOL0     H27818   7.255   2.457   0.732 -1.7018 -0.6093  0.4705
  202MOL0     H27819   7.379   2.510   0.514  0.4171 -0.1317  0.9401
  202MOL0     H27820   7.234   2.579   0.446 -0.0650 -2.4854 -0.4373
  202MOL0     H27821   7.361   2.693   0.702  1.1616  1.7612  0.2853
  202MOL0     H27822   7.243   2.772   0.594 -1.0561 -1.2165 -1.0709
  202MOL0     H27823   7.522   2.705   0.498 -0.0786  1.9439  2.4871
  202MOL0     H27824   7.402   2.802   0.415 -0.6606 -0.4206 -0.7883
  202MOL0     H27825   7.330   3.031   0.537  0.4291 -0.0946 -0.9176
  202MOL0     H27826   7.543   3.244   0.789 -2.2171 -1.5038  1.5164
  202MOL0     H27827   7.373   3.223   0.767 -2.2994 -3.2802 -1.9772
  202MOL0     H27828   7.438   3.243   0.501 -4.4839  0.7766 -0.8677
  202MOL0     H27829   7.404   3.393   0.599  3.4191  2.5951 -1.1054
  202MOL0     H27830   7.600   3.443   0.664 -2.1102  1.2964 -1.4849
  202MOL0     H27831   7.675   3.286   0.598 -2.5672 -2.4695  0.7672
  202MOL0     H27832   7.739   3.473   0.463 -0.1553 -0.4376  0.8280
  202MOL0     H27833   7.635   3.366   0.368  0.4129  1.2872 -0.3641
  202MOL0     H27834   7.413   3.735   0.336  1.8017 -0.6739  1.6478
  202MOL0     H27835   7.356   3.928   0.077 -1.9306  2.1847  1.4998
  202MOL0     H27836   7.466   4.039   0.137 -0.7761  0.1678 -1.2781
  202MOL0     H27837   7.364   3.960   0.246  3.6328  1.4693  3.1556
  202MOL0     H27838   7.358   3.902  -0.232  1.4506  0.2013  1.5500
  202MOL0     H27839   7.327   4.004  -0.476  0.7329  0.5867  0.3028
  202MOL0     H27840   7.661   4.085  -0.772 -0.0052 -1.1115  0.1828
  202MOL0     H27841   7.651   3.910  -0.763 -0.7062 -1.1888 -0.1395
  202MOL0     H27842   7.474   3.902  -0.906  3.7504 -1.3427 -2.1915
  202MOL0     H27843   7.424   4.074  -0.892  0.6537  1.0074 -0.2405
  202MOL0     H27844   7.629   4.159  -1.010 -0.4567  0.5180 -2.5751
  202MOL0     H27845   7.523   4.073  -1.110  2.7605 -4.2083 -2.6784
  202MOL0     H27846   7.652   3.917  -1.159  1.5090  1.7075 -2.5173
  202MOL0     H27847   7.753   3.913  -1.014 -2.0781 -1.3178  1.7043
  202MOL0     H27848   7.763   4.088  -1.254  0.2854 -0.0325 -0.1140
  202MOL0     H27849   7.839   4.154  -1.102  2.5163 -0.4464 -0.6573
  202MOL0     H27850   7.896   3.896  -1.244 -3.7575  2.2143 -0.6884
  202MOL0     H27851   7.971   3.935  -1.083  0.0959  0.3057  0.9630
  202MOL0     H27852   8.143   4.033  -1.213 -0.8393 -0.2676  0.2054
  202MOL0     H27853   8.038   4.168  -1.196  3.5610 -1.8742  5.4505
  202MOL0     H27854   7.954   4.143  -1.412 -0.9353 -0.3124  1.2161
  202MOL0     H27855   7.982   3.966  -1.411 -0.0724 -0.5061 -0.6141
  202MOL0     H27856   7.732   3.908  -0.552  2.6665  3.0458  2.6867
  202MOL0     H27857   7.764   3.849  -0.337 -0.6521 -2.1191 -1.3719
  202MOL0     H27858   7.811   3.677   0.057  1.4131 -2.0725  2.2435
  202MOL0     H27859   7.763   3.532   0.236  1.0058  1.0159 -1.9138
  202MOL0     H27860   6.840   1.957   0.759  0.5230 -1.2171  2.1025
  202MOL0     H27861   6.737   1.780   0.870 -0.6227 -1.2910 -1.6516
  202MOL0     H27862   6.350   1.598   0.864 -2.4187 -0.4081 -0.1378
  202MOL0     H27863   6.201   1.411   0.878 -2.1118  3.1428 -1.3716
  202MOL0     H27864   6.095   1.233   1.288 -1.0096 -1.1680 -0.2557
  202MOL0     H27865   6.056   1.112   1.176  2.5370 -1.6091 -0.9048
  202MOL0     H27866   6.256   1.070   1.317  3.8540 -2.3582 -1.2557
  202MOL0     H27867   6.340   1.211   1.234  2.2603 -1.7137 -0.6337
  202MOL0     H27868   6.255   1.046   1.031 -0.4758  2.1365  0.0429
  202MOL0     H27869   6.411   1.095   1.076 -0.1529  1.0141 -1.7496
  202MOL0     H27870   6.430   0.867   1.069  0.8365 -0.2321  1.9741
  202MOL0     H27871   6.283   0.819   1.149  1.2841 -0.9843  0.5948
  202MOL0     H27872   6.586   0.898   1.440  1.1760  2.8830 -2.2280
  202MOL0     H27873   6.209   1.443   1.312 -1.2296  1.5974  0.0745
  202MOL0     H27874   6.456   1.653   1.358  0.0578  0.9435  1.2568
  202MOL0     H27875   6.320   1.764   1.346 -3.9822 -0.8645  0.5575
  202MOL0     H27876   6.312   1.603   1.426 -0.4970  2.5772  1.1029
  203MOL0     O27877   3.009   9.461   3.936 -0.4124 -0.3101 -0.1436
  203MOL0     C27878   3.056   9.439   4.050 -0.1467  0.7013  0.2641
  203MOL0     O27879   2.989   9.432   4.165  0.0067  0.2523  0.6541
  203MOL0     C27880   2.853   9.431   4.154  0.3771  0.2035 -0.6806
  203MOL0     C27881   2.782   9.324   4.086  0.5395 -0.1869  0.7663
  203MOL0     C27882   2.643   9.323   4.107  0.3624  0.0740  0.4938
  203MOL0     C27883   2.570   9.418   4.172 -0.6765  0.1635  0.3092
  203MOL0     O27884   2.433   9.406   4.193 -0.0699 -0.5842 -0.2298
  203MOL0     C27885   2.351   9.349   4.092  0.4078  0.8567 -0.8667
  203MOL0     C27886   2.200   9.354   4.137 -0.2327  0.0073 -0.7413
  203MOL0     C27887   2.168   9.219   4.213  0.2316 -0.2024  0.0797
  203MOL0     C27888   2.006   9.210   4.214 -0.9140  0.2598 -0.6500
  203MOL0     C27889   1.959   9.064   4.252  0.0398  0.3754 -0.7183
  203MOL0     C27890   1.973   8.974   4.136 -0.0740  0.6500 -0.4068
  203MOL0     C27891   1.929   8.828   4.177 -0.4966  0.2597 -0.2104
  203MOL0     C27892   1.779   8.799   4.151 -0.3125 -0.1883 -0.2143
  203MOL0     N27893   1.699   8.762   4.268  1.0908 -0.2627 -0.1717
  203MOL0     C27894   1.644   8.841   4.374  0.5333 -0.5637 -0.5279
  203MOL0     C27895   1.571   8.749   4.450  0.1004 -0.0408  1.9901
  203MOL0     C27896   1.469   8.782   4.557  0.3530 -0.8653 -0.3110
  203MOL0     C27897   1.322   8.801   4.516 -0.2746 -0.9478 -0.7873
  203MOL0     C27898   1.249   8.673   4.538  1.2927  0.9817  0.7613
  203MOL0     C27899   1.101   8.666   4.474 -0.0646  0.3305 -0.7187
  203MOL0     O27900   1.008   8.710   4.568  0.7457 -1.0929 -0.2978
  203MOL0     C27901   0.913   8.793   4.527 -0.5907  1.6148  0.1054
  203MOL0     C27902   0.874   8.899   4.607 -0.3709 -1.1198  0.2483
  203MOL0     C27903   0.754   8.978   4.585 -0.2832  0.3469 -0.7335
  203MOL0     C27904   0.717   9.070   4.714  0.3531  1.0702  0.8390
  203MOL0     C27905   0.680   8.944   4.471  0.8980  0.1264 -0.7333
  203MOL0     C27906   0.546   9.013   4.441 -0.1959  0.0253 -0.1237
  203MOL0     O27907   0.527   9.019   4.309  0.1693  0.2493 -0.0689
  203MOL0     C27908   0.423   9.082   4.252  0.0322  0.8328  0.4570
  203MOL0     C27909   0.286   9.077   4.292  0.2610 -0.5223  0.7789
  203MOL0     C27910   0.189   9.165   4.232  0.7005 -0.1637  0.3286
  203MOL0     C27911   0.219   9.251   4.131  0.2713  0.8047 -0.4716
  203MOL0     O27912   0.132   9.339   4.084  0.9119  0.2954  0.6296
  203MOL0     C27913   0.123   9.340   3.938 -0.0383  0.7039  0.5540
  203MOL0     C27914   0.013   9.420   3.888 -0.6722  0.4733  0.4208
  203MOL0     C27915   0.004   9.408   3.738  0.4447  0.6246 -0.5992
  203MOL0     C27916  -0.135   9.455   3.687  0.6619 -0.9192  0.6610
  203MOL0     C27917  -0.170   9.596   3.734  0.3400 -0.3059 -0.7419
  203MOL0     C27918  -0.277   9.653   3.646 -0.3037 -0.1461 -0.8766
  203MOL0     C27919  -0.412   9.578   3.629 -0.0611 -0.2625  0.0370
  203MOL0     C27920  -0.520   9.680   3.654  0.2417  0.3862 -0.4647
  203MOL0    Cl27921  -0.682   9.605   3.658 -0.2637 -0.1597 -0.2813
  203MOL0     C27922   0.356   9.244   4.074  1.7994 -0.2495 -0.1059
  203MOL0     C27923   0.447   9.166   4.142 -0.1956  0.3106 -0.0291
  203MOL0     O27924   0.471   9.051   4.529  0.2909  0.1339 -0.0386
  203MOL0     C27925   0.725   8.844   4.388 -0.8040 -0.3918 -0.1879
  203MOL0     C27926   0.833   8.760   4.421  0.9219  0.1918  0.1072
  203MOL0     N27927   1.581   8.620   4.386 -0.2887 -0.8096 -1.2248
  203MOL0     N27928   1.643   8.635   4.278 -0.8005  0.6601  0.2898
  203MOL0     C27929   2.648   9.516   4.233 -0.2816 -1.2700 -0.1307
  203MOL0     C27930   2.785   9.521   4.229  0.6698  0.6283  0.8586
  203MOL0     C27931   3.197   9.397   4.053  0.8528 -0.3440 -0.1104
  203MOL0     C27932   3.233   9.331   4.172  0.4243  0.0719  0.4369
  203MOL0     C27933   3.355   9.269   4.182 -0.6285  0.0065 -0.0256
  203MOL0     C27934   3.451   9.273   4.075 -0.3606  0.4317  0.2668
  203MOL0     O27935   3.567   9.205   4.098 -0.4023  0.5930 -0.9663
  203MOL0     C27936   3.659   9.183   3.992 -0.2667 -0.6533 -0.3345
  203MOL0     C27937   3.800   9.234   4.040 -0.4603 -0.5827  0.2627
  203MOL0     C27938   3.790   9.369   4.108  0.7076  0.7356  0.7709
  203MOL0     C27939   3.818   9.489   4.010  0.2697  0.1659 -0.6737
  203MOL0     C27940   3.960   9.528   4.007  0.4814  0.9682  0.1491
  203MOL0     C27941   4.078   9.553   3.993 -0.2521 -0.8612  1.2678
  203MOL0     C27942   3.419   9.355   3.961 -0.3144 -0.4494 -0.2055
  203MOL0     C27943   3.297   9.407   3.950 -0.5865 -0.0187 -0.0643
  203MOL0     C27944   3.271   9.478   3.818 -0.3798  0.4235 -0.3463
  203MOL0     H27945   2.842   9.256   4.027  0.5405 -0.8411  1.5059
  203MOL0     H27946   2.591   9.245   4.051  2.3465 -1.6719  0.9400
  203MOL0     H27947   2.367   9.244   4.066 -3.1268 -0.5272  1.8094
  203MOL0     H27948   2.362   9.399   3.995 -4.7144 -2.8289 -3.8489
  203MOL0     H27949   2.175   9.438   4.202  0.4758 -0.2236 -0.1557
  203MOL0     H27950   2.125   9.362   4.058 -0.0877  0.5168 -0.8334
  203MOL0     H27951   2.216   9.139   4.156 -1.8190 -0.2641 -1.6828
  203MOL0     H27952   2.215   9.215   4.312  0.1294 -0.0934  0.1329
  203MOL0     H27953   1.964   9.289   4.277 -1.7315 -1.1429  0.6184
  203MOL0     H27954   1.970   9.224   4.111 -3.8437  1.0263  0.3884
  203MOL0     H27955   1.853   9.073   4.278  0.4755  1.4889  0.7954
  203MOL0     H27956   2.012   9.037   4.343 -1.5427  2.2764  0.8678
  203MOL0     H27957   1.905   9.001   4.055 -1.7491  0.6337  0.9482
  203MOL0     H27958   2.080   8.981   4.114  0.7264  2.6501  3.3672
  203MOL0     H27959   1.962   8.801   4.277  4.8562  2.8630 -0.8830
  203MOL0     H27960   1.994   8.762   4.118 -1.0621 -0.4211 -0.0796
  203MOL0     H27961   1.733   8.890   4.111 -1.2066  1.1943  3.6032
  203MOL0     H27962   1.772   8.719   4.077 -1.0749  0.0639 -0.4279
  203MOL0     H27963   1.648   8.947   4.395  2.5256 -0.6542 -0.3176
  203MOL0     H27964   1.501   8.871   4.612  1.2458 -2.4518  1.8993
  203MOL0     H27965   1.466   8.700   4.629 -0.2279 -2.0831 -1.6737
  203MOL0     H27966   1.273   8.884   4.568 -0.0519  1.2297 -3.7755
  203MOL0     H27967   1.309   8.831   4.411 -2.7559 -0.9551 -0.5445
  203MOL0     H27968   1.306   8.591   4.495  1.4626  2.1726 -1.4508
  203MOL0     H27969   1.231   8.637   4.640 -0.6297  0.5304  0.2995
  203MOL0     H27970   1.094   8.726   4.383 -0.0480  3.3754  1.1193
  203MOL0     H27971   1.072   8.561   4.472 -2.0626  0.7151  1.8881
  203MOL0     H27972   0.939   8.911   4.693  1.8635 -1.2997 -1.3346
  203MOL0     H27973   0.778   9.161   4.720 -2.6264  3.2896 -0.4435
  203MOL0     H27974   0.721   8.998   4.796 -1.8763 -1.5861 -1.1873
  203MOL0     H27975   0.616   9.103   4.693 -0.7311 -2.0809  0.5376
  203MOL0     H27976   0.257   9.020   4.379 -1.2489  0.6954  1.1270
  203MOL0     H27977   0.086   9.157   4.266 -0.8003 -0.4952 -3.7828
  203MOL0     H27978   0.214   9.375   3.887 -0.8643 -0.9525 -2.3074
  203MOL0     H27979   0.105   9.238   3.905 -1.8952 -0.3183  4.1951
  203MOL0     H27980  -0.069   9.375   3.945  0.3460 -0.3397  1.2909
  203MOL0     H27981   0.026   9.524   3.918  0.8387  0.2784  0.5267
  203MOL0     H27982   0.022   9.306   3.703 -0.7896 -0.4158  1.5427
  203MOL0     H27983   0.080   9.477   3.702 -0.2837  1.4071 -0.6732
  203MOL0     H27984  -0.217   9.389   3.717 -0.0175 -1.7704 -2.6543
  203MOL0     H27985  -0.133   9.460   3.578  0.2329 -2.2280  0.5812
  203MOL0     H27986  -0.178   9.602   3.843 -1.6241  3.8133 -0.8854
  203MOL0     H27987  -0.083   9.658   3.709  0.2967 -0.3145 -0.9159
  203MOL0     H27988  -0.233   9.659   3.546  0.6417 -0.4447 -0.4913
  203MOL0     H27989  -0.293   9.756   3.678  2.0746  0.4423 -1.3783
  203MOL0     H27990  -0.434   9.485   3.683 -2.3758 -0.1990 -0.7058
  203MOL0     H27991  -0.425   9.544   3.526 -0.1754  1.6893 -0.6246
  203MOL0     H27992  -0.512   9.759   3.578  2.4084 -0.4243 -1.1623
  203MOL0     H27993  -0.498   9.730   3.749 -0.6838 -1.1403  0.5824
  203MOL0     H27994   0.385   9.303   3.987  0.0545 -1.0949 -1.3241
  203MOL0     H27995   0.551   9.192   4.123  0.5116 -1.1197  1.5953
  203MOL0     H27996   0.657   8.813   4.309 -0.1299 -0.2414 -0.8336
  203MOL0     H27997   0.860   8.678   4.355 -2.1398  0.3261 -1.5176
  203MOL0     H27998   2.606   9.586   4.305 -1.9758 -2.9110  0.5442
  203MOL0     H27999   2.844   9.594   4.283  3.3277 -1.7388  1.3950
  203MOL0     H28000   3.161   9.326   4.253  0.7684  0.2965  0.7623
  203MOL0     H28001   3.379   9.202   4.264 -3.8721 -2.2392 -0.7278
  203MOL0     H28002   3.690   9.081   3.966  0.3711 -0.3486 -0.7801
  203MOL0     H28003   3.627   9.232   3.900 -0.4767  0.1067  0.1368
  203MOL0     H28004   3.867   9.232   3.953  1.4206  0.7802  1.6208
  203MOL0     H28005   3.838   9.163   4.113  1.0273  0.2500  0.3183
  203MOL0     H28006   3.703   9.386   4.172 -0.1512  0.5938 -0.3437
  203MOL0     H28007   3.869   9.374   4.185  1.7904  0.7943 -0.3127
  203MOL0     H28008   3.758   9.571   4.051  0.3477  0.6021 -1.4208
  203MOL0     H28009   3.785   9.472   3.908 -0.3875 -0.7871 -0.3119
  203MOL0     H28010   4.172   9.585   3.953 -2.5655  0.3819 -4.0848
  203MOL0     H28011   3.489   9.380   3.882  0.0003  0.5706  0.3915
  203MOL0     H28012   3.363   9.502   3.765 -0.8021 -2.5158 -2.7054
  203MOL0     H28013   3.212   9.412   3.754 -1.3188  1.5529 -0.6991
  203MOL0     H28014   3.216   9.572   3.829 -0.4601  0.4686 -1.0629
  204MOL0     O28015   5.897   8.425   1.391 -0.1397 -0.3053 -0.0891
  204MOL0     C28016   5.813   8.440   1.298  0.4625  0.7182  0.7596
  204MOL0     O28017   5.806   8.529   1.195  1.0827  0.0776 -0.3172
  204MOL0     C28018   5.891   8.634   1.210 -0.2603  0.3724  1.1236
  204MOL0     C28019   6.026   8.632   1.149 -0.2884  0.9089 -0.5089
  204MOL0     C28020   6.115   8.727   1.183 -0.0980 -0.1022 -0.8790
  204MOL0     C28021   6.085   8.829   1.283 -0.6959  0.0989  0.5154
  204MOL0     O28022   6.174   8.932   1.298  0.0567 -0.4587 -0.9549
  204MOL0     C28023   6.183   9.012   1.427 -0.0618  1.0718  0.5302
  204MOL0     C28024   6.322   9.065   1.436  0.1695 -0.4610 -0.0688
  204MOL0     C28025   6.434   8.957   1.418  0.4125 -0.2155 -0.4845
  204MOL0     C28026   6.567   8.994   1.487 -0.4322 -0.0603  0.1426
  204MOL0     C28027   6.670   8.885   1.451 -0.1455  0.4694 -0.0719
  204MOL0     C28028   6.790   8.932   1.537 -1.3266 -0.2031 -0.4031
  204MOL0     C28029   6.922   8.852   1.535  0.5348  0.3220 -0.3025
  204MOL0     C28030   7.021   8.897   1.638  0.3907 -0.2643  0.1299
  204MOL0     N28031   7.096   9.021   1.606  0.3993 -0.4165  0.3913
  204MOL0     C28032   7.223   9.048   1.633 -0.1436  0.0721  0.1971
  204MOL0     C28033   7.255   9.166   1.575 -0.8117  0.3023 -0.1682
  204MOL0     C28034   7.391   9.223   1.540  0.3742  0.4236 -0.3640
  204MOL0     C28035   7.406   9.370   1.544 -0.2073  0.2727  0.0350
  204MOL0     C28036   7.395   9.412   1.689  0.7717 -0.2233 -0.3259
  204MOL0     C28037   7.300   9.526   1.714  0.1624  0.0262 -0.7453
  204MOL0     O28038   7.304   9.630   1.608 -1.2853 -0.1710  0.4510
  204MOL0     C28039   7.412   9.720   1.621  0.4104  1.0847  0.2308
  204MOL0     C28040   7.530   9.711   1.542 -0.2587  0.4916 -0.7810
  204MOL0     C28041   7.646   9.787   1.565 -0.2272  0.5813 -0.2218
  204MOL0     C28042   7.767   9.738   1.499 -0.6287  0.7960  0.5362
  204MOL0     C28043   7.639   9.887   1.668 -0.0402 -0.1511  0.8836
  204MOL0     C28044   7.731   9.990   1.692 -0.0771 -2.2207  0.5042
  204MOL0     O28045   7.769  10.015   1.826 -1.0736 -0.3504  0.3070
  204MOL0     C28046   7.826  10.145   1.847  0.3055  0.5299  0.7345
  204MOL0     C28047   7.762  10.264   1.852  0.0823 -0.4733 -0.3709
  204MOL0     C28048   7.823  10.384   1.877 -0.8463  1.0979  0.5718
  204MOL0     C28049   7.965  10.395   1.892 -0.2978  0.2845  0.1304
  204MOL0     O28050   8.035  10.510   1.908  0.1089 -0.6847  0.0056
  204MOL0     C28051   7.981  10.635   1.871 -0.0591 -0.6990  0.0117
  204MOL0     C28052   8.086  10.736   1.907 -0.4725 -1.3407 -0.4779
  204MOL0     C28053   8.031  10.874   1.894  0.5503  0.7801 -1.0462
  204MOL0     C28054   7.987  10.920   1.759 -0.7029 -1.3064 -0.0188
  204MOL0     C28055   7.915  11.054   1.777  0.1839  0.9023  0.6921
  204MOL0     C28056   8.003  11.172   1.830 -0.9153  0.2684 -0.2434
  204MOL0     C28057   7.925  11.301   1.861  0.1739  0.0062 -0.3881
  204MOL0     C28058   8.013  11.430   1.853 -0.0556 -0.2310 -0.7835
  204MOL0    Cl28059   8.149  11.413   1.975 -0.6946  0.2551  0.3707
  204MOL0     C28060   8.030  10.270   1.893  0.4085 -0.0456 -0.3554
  204MOL0     C28061   7.965  10.147   1.874  0.1240  0.0926  0.0509
  204MOL0     O28062   7.768  10.055   1.588 -0.3268  0.5831  0.0357
  204MOL0     C28063   7.523   9.893   1.750  0.2617  0.6029 -0.2345
  204MOL0     C28064   7.411   9.808   1.725  0.0420  0.8157 -1.1731
  204MOL0     N28065   7.139   9.216   1.520 -0.4786 -0.4958  0.2717
  204MOL0     N28066   7.040   9.137   1.546 -0.4479  0.5927 -0.1356
  204MOL0     C28067   5.960   8.822   1.346 -1.0480 -0.5309 -0.5143
  204MOL0     C28068   5.859   8.732   1.299  0.2990 -0.2600 -0.4010
  204MOL0     C28069   5.716   8.337   1.282 -0.8300  0.1173 -0.5204
  204MOL0     C28070   5.734   8.244   1.180 -1.7323  0.8520 -0.0930
  204MOL0     C28071   5.651   8.129   1.177  0.0902  0.7925  0.2080
  204MOL0     C28072   5.549   8.107   1.269 -0.0407 -0.1291  0.2664
  204MOL0     O28073   5.470   7.988   1.269  0.3449 -0.7114 -0.1415
  204MOL0     C28074   5.376   7.973   1.379  0.4133 -0.9018  0.5843
  204MOL0     C28075   5.320   7.835   1.393 -0.4146  0.1254  0.4917
  204MOL0     C28076   5.421   7.724   1.364 -0.0895  0.5169 -0.9809
  204MOL0     C28077   5.463   7.634   1.483 -0.0918 -0.2682 -0.4868
  204MOL0     C28078   5.340   7.562   1.532  0.3342  0.5976  0.5225
  204MOL0     C28079   5.266   7.488   1.585 -0.3740  0.0438  0.2581
  204MOL0     C28080   5.523   8.208   1.363 -0.0987  0.0647 -0.5892
  204MOL0     C28081   5.609   8.317   1.376 -0.1748 -0.2545  0.0180
  204MOL0     C28082   5.598   8.420   1.490  0.6651 -0.2982 -0.2910
  204MOL0     H28083   6.049   8.538   1.100  4.2380  2.4820 -1.8665
  204MOL0     H28084   6.221   8.730   1.160  0.3016  1.1911  0.8829
  204MOL0     H28085   6.166   8.953   1.518 -1.0746  1.1299  0.3961
  204MOL0     H28086   6.120   9.101   1.428 -1.9035 -0.1537  2.4715
  204MOL0     H28087   6.341   9.152   1.372  0.7429  0.7345  1.6530
  204MOL0     H28088   6.327   9.102   1.539 -0.5932  1.7830 -0.7817
  204MOL0     H28089   6.403   8.858   1.454 -1.2332  0.5129  0.2300
  204MOL0     H28090   6.452   8.936   1.313 -1.5859  1.1984 -1.1649
  204MOL0     H28091   6.598   9.093   1.452 -0.9296  0.3971  0.9627
  204MOL0     H28092   6.549   8.999   1.595  1.1792 -1.3381  0.4974
  204MOL0     H28093   6.690   8.890   1.344  1.8868  0.6921  0.2713
  204MOL0     H28094   6.635   8.783   1.470  1.8902 -0.4788 -1.0992
  204MOL0     H28095   6.817   9.031   1.497  2.6268 -1.5330 -1.4577
  204MOL0     H28096   6.757   8.922   1.641 -0.3924  0.7633  0.0116
  204MOL0     H28097   6.959   8.849   1.432 -0.2090 -0.9312 -0.5557
  204MOL0     H28098   6.903   8.749   1.567 -1.5276  0.8531  0.3591
  204MOL0     H28099   6.975   8.916   1.735  1.3136  2.4548  0.1288
  204MOL0     H28100   7.092   8.816   1.654 -2.3980 -2.2541  3.9677
  204MOL0     H28101   7.292   8.979   1.681 -0.6072 -2.2702 -2.2842
  204MOL0     H28102   7.407   9.191   1.437 -2.7194 -0.1069 -0.8021
  204MOL0     H28103   7.468   9.170   1.596  1.4776  2.2911 -0.0288
  204MOL0     H28104   7.505   9.379   1.499  0.0551  0.3009  0.6082
  204MOL0     H28105   7.329   9.411   1.479 -2.2515 -1.8892  0.9474
  204MOL0     H28106   7.374   9.324   1.751 -3.1500 -0.0632 -1.2072
  204MOL0     H28107   7.499   9.443   1.706  0.6317 -0.0618  0.2471
  204MOL0     H28108   7.199   9.486   1.709 -0.9862  2.5193  0.5519
  204MOL0     H28109   7.328   9.557   1.815 -1.1214  0.0655 -0.3894
  204MOL0     H28110   7.530   9.626   1.474  1.1528 -1.2364  1.2170
  204MOL0     H28111   7.749   9.740   1.391  1.9976  0.9730  0.0394
  204MOL0     H28112   7.796   9.637   1.531 -1.3363  0.3794 -0.0978
  204MOL0     H28113   7.853   9.798   1.529 -0.2903  0.7743 -0.3592
  204MOL0     H28114   7.658  10.280   1.825 -0.3217  2.3478  2.2760
  204MOL0     H28115   7.775  10.479   1.897  1.4114  2.1994  1.0574
  204MOL0     H28116   7.974  10.638   1.762 -0.5520 -0.0823  0.0529
  204MOL0     H28117   7.889  10.656   1.927 -0.2250  1.6374 -1.0279
  204MOL0     H28118   8.094  10.727   2.016 -0.9401 -1.5079 -0.4560
  204MOL0     H28119   8.184  10.725   1.860 -0.6874 -1.9149 -0.8052
  204MOL0     H28120   8.103  10.947   1.933 -0.5878  0.0537  2.9215
  204MOL0     H28121   7.939  10.868   1.954  0.0845 -3.9935 -1.8817
  204MOL0     H28122   7.926  10.841   1.713 -1.4649 -0.3683 -0.6814
  204MOL0     H28123   8.078  10.942   1.702 -1.9997  0.9321 -1.3961
  204MOL0     H28124   7.872  11.084   1.681  3.5383 -1.0594 -1.6014
  204MOL0     H28125   7.824  11.046   1.837  0.2236 -0.1637  0.6291
  204MOL0     H28126   8.089  11.192   1.764  0.2107 -0.4396  0.9645
  204MOL0     H28127   8.046  11.136   1.924 -2.5100 -0.1947  0.3413
  204MOL0     H28128   7.888  11.289   1.964  3.4032 -1.9143  0.6998
  204MOL0     H28129   7.844  11.308   1.788 -1.5354 -1.3276  1.2747
  204MOL0     H28130   7.952  11.513   1.889  0.0803 -0.3161 -0.3461
  204MOL0     H28131   8.055  11.437   1.752  1.9504  0.6263  0.0694
  204MOL0     H28132   8.134  10.278   1.922 -0.3832  2.8931  2.3405
  204MOL0     H28133   8.023  10.056   1.888  2.3116  1.5051  0.6838
  204MOL0     H28134   7.516   9.973   1.822  0.7805  0.7857 -0.3816
  204MOL0     H28135   7.321   9.810   1.787  2.3571 -1.5923  2.6882
  204MOL0     H28136   5.944   8.886   1.433 -1.6857 -3.4847  1.7443
  204MOL0     H28137   5.762   8.726   1.346  0.0207  0.6966 -0.8317
  204MOL0     H28138   5.818   8.261   1.114  0.9641  2.0112  3.3299
  204MOL0     H28139   5.670   8.051   1.104 -4.5501  1.0691 -1.6406
  204MOL0     H28140   5.432   7.996   1.470 -1.0314  0.0727  1.2824
  204MOL0     H28141   5.286   8.036   1.371  0.7516 -0.5189 -0.3965
  204MOL0     H28142   5.235   7.809   1.328  0.5537 -2.6799  0.1901
  204MOL0     H28143   5.283   7.823   1.495  0.1444  1.7411  0.9077
  204MOL0     H28144   5.381   7.658   1.287 -2.9227  1.7455 -0.6815
  204MOL0     H28145   5.514   7.763   1.320  0.3927 -1.0630 -1.4153
  204MOL0     H28146   5.502   7.702   1.560  0.5144  0.9805 -1.8641
  204MOL0     H28147   5.541   7.558   1.470  1.2439  1.0013 -0.1543
  204MOL0     H28148   5.202   7.415   1.630  1.4885 -1.8772 -0.0476
  204MOL0     H28149   5.436   8.194   1.425 -3.7927 -2.4861 -5.6172
  204MOL0     H28150   5.498   8.412   1.534  1.2166 -0.5121  0.9791
  204MOL0     H28151   5.675   8.403   1.566 -0.1744  0.6262  0.7875
  204MOL0     H28152   5.602   8.519   1.445 -1.6495 -1.3757 -3.2278
  205MOL0     O28153   5.767   9.424   9.400 -0.1412  0.1503 -1.1176
  205MOL0     C28154   5.848   9.405   9.304  0.7687  1.2220 -0.8156
  205MOL0     O28155   5.819   9.382   9.170  0.5557  0.1893 -0.0015
  205MOL0     C28156   5.683   9.373   9.139  0.8349  0.4529 -0.7109
  205MOL0     C28157   5.626   9.459   9.037 -0.3496 -0.9076  0.2567
  205MOL0     C28158   5.492   9.451   8.996  0.0846  0.5906 -1.0959
  205MOL0     C28159   5.417   9.348   9.049  1.2346  0.0178  0.5419
  205MOL0     O28160   5.299   9.322   8.975  0.1749 -0.5653 -0.6080
  205MOL0     C28161   5.224   9.206   9.013 -0.0776 -0.4470 -0.5120
  205MOL0     C28162   5.104   9.213   8.929 -0.4735 -0.0356 -0.0949
  205MOL0     C28163   5.024   9.090   8.948  0.2163 -0.3652  0.3937
  205MOL0     C28164   4.918   9.063   8.844  0.6643  0.7283 -0.0206
  205MOL0     C28165   4.825   9.177   8.823 -0.4806 -0.8925 -0.6357
  205MOL0     C28166   4.709   9.142   8.725 -0.4370 -0.2317 -0.0175
  205MOL0     C28167   4.585   9.084   8.792 -0.5113  0.9412 -0.3592
  205MOL0     C28168   4.503   9.002   8.688 -0.5720 -0.0569  0.7236
  205MOL0     N28169   4.387   8.948   8.747 -0.9483 -0.4649  0.0300
  205MOL0     C28170   4.277   9.022   8.775  0.4512 -0.0196  0.8517
  205MOL0     C28171   4.188   8.944   8.844  0.5368  0.4887 -0.2890
  205MOL0     C28172   4.058   8.980   8.906 -1.4592 -0.1389 -0.4283
  205MOL0     C28173   3.928   8.965   8.817  0.0641 -0.5358  0.5398
  205MOL0     C28174   3.934   9.072   8.694  0.7744 -0.7931  0.7071
  205MOL0     C28175   3.814   9.080   8.596  0.7324 -0.5273  0.0314
  205MOL0     O28176   3.865   9.154   8.483 -0.9477  0.0635 -0.4659
  205MOL0     C28177   3.799   9.180   8.368 -0.5674 -0.8494 -0.9651
  205MOL0     C28178   3.664   9.183   8.368 -0.5134 -0.1307  0.4281
  205MOL0     C28179   3.596   9.238   8.263 -0.0249  0.0730  1.4035
  205MOL0     C28180   3.446   9.241   8.281  0.5393  0.5139 -0.8623
  205MOL0     C28181   3.654   9.290   8.144  0.8988  0.3721 -0.5724
  205MOL0     C28182   3.590   9.352   8.027 -0.7088  0.4264 -0.6406
  205MOL0     O28183   3.682   9.398   7.931 -0.1794 -0.1495 -0.1213
  205MOL0     C28184   3.637   9.478   7.832  0.5472  0.6932  0.5619
  205MOL0     C28185   3.567   9.407   7.726  0.2763  0.4052 -0.2526
  205MOL0     C28186   3.507   9.482   7.629  0.5776  1.0025  0.3596
  205MOL0     C28187   3.528   9.619   7.622  0.8307  0.3099 -0.2994
  205MOL0     O28188   3.460   9.700   7.539 -0.2328  0.2297 -0.2271
  205MOL0     C28189   3.431   9.643   7.404  0.4533  0.6196  0.4273
  205MOL0     C28190   3.387   9.752   7.310  0.2327 -0.5767 -0.1731
  205MOL0     C28191   3.326   9.712   7.176 -0.0523 -0.2179 -0.1434
  205MOL0     C28192   3.430   9.682   7.071  0.1098  0.2352 -0.0654
  205MOL0     C28193   3.368   9.648   6.941  0.4161  0.3641 -0.4260
  205MOL0     C28194   3.456   9.555   6.856 -1.1587  0.2349  0.2535
  205MOL0     C28195   3.391   9.515   6.724 -0.2750 -0.1505  0.7402
  205MOL0     C28196   3.497   9.426   6.664 -0.0727  0.4558  0.1081
  205MOL0    Cl28197   3.501   9.268   6.753 -0.5502 -0.2352 -0.0034
  205MOL0     C28198   3.596   9.685   7.725  1.2595 -0.0965  0.8574
  205MOL0     C28199   3.653   9.613   7.829  0.8360 -0.4555 -0.1672
  205MOL0     O28200   3.466   9.343   8.007  0.0115  0.1021  0.2168
  205MOL0     C28201   3.790   9.273   8.141  0.5193 -0.1841  0.2919
  205MOL0     C28202   3.865   9.220   8.254 -0.1477 -1.0080  0.2260
  205MOL0     N28203   4.256   8.819   8.846 -0.0809  0.9593  0.3797
  205MOL0     N28204   4.373   8.823   8.797 -0.1326  1.0212 -0.4812
  205MOL0     C28205   5.473   9.262   9.152  0.0078 -0.6731 -0.1488
  205MOL0     C28206   5.603   9.279   9.193  0.8194 -0.2706  0.6066
  205MOL0     C28207   5.991   9.398   9.348  0.3123 -0.3998  0.3120
  205MOL0     C28208   6.018   9.366   9.481 -0.7538  0.3842 -0.6083
  205MOL0     C28209   6.146   9.372   9.532 -0.0864 -1.2268  0.0923
  205MOL0     C28210   6.253   9.409   9.451  0.6775 -0.1892 -0.1411
  205MOL0     O28211   6.386   9.407   9.486 -0.0758  0.5376  0.0044
  205MOL0     C28212   6.432   9.335   9.598 -0.0395 -0.8258  0.4170
  205MOL0     C28213   6.582   9.331   9.591  0.5315  0.0845 -0.9339
  205MOL0     C28214   6.621   9.196   9.529 -0.8299  0.5671 -0.0953
  205MOL0     C28215   6.764   9.191   9.480  0.1264 -0.3453 -0.7222
  205MOL0     C28216   6.858   9.212   9.586  0.2322  0.0663  0.2701
  205MOL0     C28217   6.926   9.248   9.677  0.9031  0.2495 -0.6178
  205MOL0     C28218   6.230   9.446   9.316 -0.5218  0.0623 -0.0130
  205MOL0     C28219   6.100   9.447   9.268 -0.1580  0.0721  0.2019
  205MOL0     C28220   6.077   9.476   9.120  0.9559 -0.6968 -0.1635
  205MOL0     H28221   5.695   9.524   8.983  0.4810  0.9667  3.3388
  205MOL0     H28222   5.456   9.522   8.922 -1.7616  1.2489  0.3329
  205MOL0     H28223   5.195   9.211   9.118 -2.5019 -0.6295 -1.1123
  205MOL0     H28224   5.262   9.106   8.991 -2.5685 -1.9670  1.5414
  205MOL0     H28225   5.050   9.301   8.964  0.5164 -0.5662  3.1173
  205MOL0     H28226   5.131   9.218   8.823  2.0996 -0.3772  0.4846
  205MOL0     H28227   5.092   9.005   8.943 -0.9907 -1.3131 -3.0991
  205MOL0     H28228   4.973   9.092   9.045 -2.2310  0.0303 -0.8110
  205MOL0     H28229   4.960   9.051   8.744 -0.0541  1.1500 -0.3821
  205MOL0     H28230   4.866   8.974   8.879  1.8549  0.7526  2.0149
  205MOL0     H28231   4.873   9.265   8.781 -0.7177 -1.0416 -1.2250
  205MOL0     H28232   4.776   9.205   8.917 -1.2371  0.3701 -1.3805
  205MOL0     H28233   4.674   9.209   8.647  0.0269 -0.5948 -0.5435
  205MOL0     H28234   4.755   9.068   8.659 -2.3686 -1.7362  0.2253
  205MOL0     H28235   4.522   9.158   8.842  0.9584  1.2296  1.1867
  205MOL0     H28236   4.626   9.025   8.875  0.3158  2.0961  0.0962
  205MOL0     H28237   4.485   9.058   8.596 -0.3533 -0.2315  0.5718
  205MOL0     H28238   4.563   8.916   8.655 -1.7819 -0.1692 -1.3694
  205MOL0     H28239   4.264   9.123   8.737  0.3463 -0.7624 -1.1681
  205MOL0     H28240   4.065   9.083   8.940  0.9215  0.2067 -1.7914
  205MOL0     H28241   4.056   8.908   8.989  0.6827  0.4355  0.1775
  205MOL0     H28242   3.920   8.868   8.769 -0.5105  0.6158 -1.8485
  205MOL0     H28243   3.840   8.988   8.877  0.7551  3.8951  0.2115
  205MOL0     H28244   3.947   9.168   8.745 -1.9049 -0.2859  0.5432
  205MOL0     H28245   4.025   9.047   8.638  0.1730  3.0362 -2.3719
  205MOL0     H28246   3.776   8.980   8.575 -0.0637  0.5595 -4.8350
  205MOL0     H28247   3.721   9.127   8.629 -0.9475 -2.9607 -0.9575
  205MOL0     H28248   3.614   9.120   8.441 -2.0664 -1.9617 -2.0559
  205MOL0     H28249   3.408   9.183   8.366 -0.7773  2.2835 -0.1629
  205MOL0     H28250   3.377   9.217   8.199 -1.7878  2.3390  0.4046
  205MOL0     H28251   3.408   9.339   8.311 -0.5180 -0.2556  0.4381
  205MOL0     H28252   3.562   9.299   7.737  2.5463  0.5064  3.6500
  205MOL0     H28253   3.442   9.423   7.566  0.0972 -0.4648  2.1547
  205MOL0     H28254   3.507   9.581   7.356  2.2213 -0.1513  3.9067
  205MOL0     H28255   3.342   9.582   7.418  1.0709 -0.2459  0.6542
  205MOL0     H28256   3.313   9.811   7.366 -0.3528 -4.6949  4.0268
  205MOL0     H28257   3.478   9.810   7.291 -0.8099  1.1152 -0.2921
  205MOL0     H28258   3.279   9.803   7.137  1.5198  1.2365  1.1585
  205MOL0     H28259   3.255   9.630   7.182 -1.3315  0.6947 -1.8395
  205MOL0     H28260   3.493   9.599   7.104 -0.6139 -0.0521  0.6303
  205MOL0     H28261   3.498   9.766   7.057 -3.0222  2.6511 -2.3618
  205MOL0     H28262   3.269   9.602   6.948  1.9909 -3.1211  1.4718
  205MOL0     H28263   3.345   9.741   6.888  1.4023  0.2909 -0.9999
  205MOL0     H28264   3.472   9.464   6.913 -1.3525 -0.4236 -0.7128
  205MOL0     H28265   3.556   9.599   6.846 -0.8943 -0.5719 -0.8043
  205MOL0     H28266   3.373   9.603   6.660 -1.4161 -1.1892 -0.4171
  205MOL0     H28267   3.292   9.471   6.735 -0.3819 -0.4692 -1.1618
  205MOL0     H28268   3.595   9.475   6.665 -0.5596  1.4502  0.3601
  205MOL0     H28269   3.462   9.410   6.561 -0.8555 -2.0481  0.6925
  205MOL0     H28270   3.601   9.793   7.729  4.5172 -0.0048 -1.4157
  205MOL0     H28271   3.701   9.663   7.913  2.0274  0.0757 -1.1300
  205MOL0     H28272   3.846   9.301   8.053  0.9093 -3.2666 -0.5608
  205MOL0     H28273   3.973   9.230   8.252 -0.1745 -0.8378 -0.4057
  205MOL0     H28274   5.410   9.189   9.202 -0.1748 -0.4073  0.0133
  205MOL0     H28275   5.648   9.215   9.268 -1.6178 -0.4347  2.0645
  205MOL0     H28276   5.940   9.359   9.556 -0.4016  0.0113 -0.2752
  205MOL0     H28277   6.161   9.355   9.638 -1.4161 -0.7212  0.3771
  205MOL0     H28278   6.397   9.387   9.688  2.7672 -0.4163  1.3762
  205MOL0     H28279   6.393   9.233   9.599 -1.0794 -0.4939  3.3416
  205MOL0     H28280   6.629   9.339   9.689 -1.7733  2.9801  0.0947
  205MOL0     H28281   6.613   9.424   9.541  1.4420  1.1275  1.4355
  205MOL0     H28282   6.608   9.118   9.605  1.4370 -1.1347 -1.3668
  205MOL0     H28283   6.563   9.181   9.438  1.6465  1.0314 -1.8278
  205MOL0     H28284   6.779   9.258   9.394  1.8066 -0.7463 -0.7766
  205MOL0     H28285   6.783   9.090   9.442  3.5270  1.3577 -4.3235
  205MOL0     H28286   6.991   9.288   9.752 -3.7383  0.2268  3.9890
  205MOL0     H28287   6.312   9.467   9.249  1.0940 -0.3316  1.7446
  205MOL0     H28288   6.154   9.542   9.080 -0.0671  0.6464  0.0235
  205MOL0     H28289   6.071   9.381   9.065  0.2870 -0.4573 -0.5256
  205MOL0     H28290   5.980   9.525   9.114 -0.0781 -2.5382  0.6325
  206MOL0     O28291   1.985   2.721   7.969 -0.5337  0.4539  0.3126
  206MOL0     C28292   1.890   2.776   7.912  0.0691 -0.1114  0.6485
  206MOL0     O28293   1.764   2.717   7.896  0.1064 -0.2708  0.0693
  206MOL0     C28294   1.743   2.578   7.917  0.6301  0.0543 -0.0898
  206MOL0     C28295   1.763   2.503   8.028 -0.2003 -0.3068  0.4592
  206MOL0     C28296   1.755   2.362   8.041  0.5307  0.4233 -0.1492
  206MOL0     C28297   1.716   2.278   7.928  1.2291 -0.2844  0.7905
  206MOL0     O28298   1.712   2.141   7.944  0.0193  0.0463  0.8758
  206MOL0     C28299   1.735   2.058   7.829 -0.3379  0.9657 -0.5200
  206MOL0     C28300   1.674   1.918   7.858  0.2349 -0.1906  0.0978
  206MOL0     C28301   1.758   1.849   7.971 -0.2717 -0.5183 -0.7123
  206MOL0     C28302   1.891   1.781   7.935 -0.3248 -0.1574 -0.2383
  206MOL0     C28303   1.939   1.688   8.055  0.0316  0.2239 -0.7749
  206MOL0     C28304   2.014   1.761   8.164 -0.4254 -0.2287 -0.3523
  206MOL0     C28305   1.995   1.697   8.298  0.1907 -0.5663  0.7579
  206MOL0     C28306   1.984   1.810   8.399  0.1046  0.5990 -0.1147
  206MOL0     N28307   1.879   1.912   8.398  0.8359 -0.1968 -0.8770
  206MOL0     C28308   1.761   1.900   8.327  0.4550 -0.1726  0.0574
  206MOL0     C28309   1.699   2.018   8.350 -0.0309 -0.3595  0.8254
  206MOL0     C28310   1.560   2.054   8.310 -0.4007 -0.2693  0.7174
  206MOL0     C28311   1.466   2.007   8.421 -0.0536 -0.7624  0.4576
  206MOL0     C28312   1.332   2.076   8.421 -1.1937 -0.3000 -0.8410
  206MOL0     C28313   1.234   2.006   8.521 -0.3296  0.3150  0.6494
  206MOL0     O28314   1.184   1.891   8.459  0.4896  0.4018 -0.2684
  206MOL0     C28315   1.051   1.884   8.435  1.1535 -1.4006 -0.4445
  206MOL0     C28316   0.999   1.908   8.304 -0.2264  0.6922 -0.5981
  206MOL0     C28317   0.857   1.906   8.287 -0.0266 -0.0750  0.2977
  206MOL0     C28318   0.810   1.934   8.146  0.3329  0.2087  0.5570
  206MOL0     C28319   0.767   1.876   8.389 -0.7133 -0.4877  0.0127
  206MOL0     C28320   0.629   1.860   8.368 -0.0731 -0.1280  0.0581
  206MOL0     O28321   0.579   1.772   8.461  0.0298  0.0036 -0.3561
  206MOL0     C28322   0.445   1.738   8.432 -0.7240  0.3807  0.4596
  206MOL0     C28323   0.360   1.787   8.521  0.7955  0.6208  0.7686
  206MOL0     C28324   0.219   1.768   8.503 -0.1370  0.0912  1.0024
  206MOL0     C28325   0.176   1.688   8.395  0.4044  0.3994  0.1696
  206MOL0     O28326   0.038   1.663   8.381 -0.5150  0.0381 -0.4473
  206MOL0     C28327   0.001   1.519   8.397  0.0496 -1.1093  0.5321
  206MOL0     C28328  -0.133   1.493   8.329 -0.1708 -0.7318  0.0135
  206MOL0     C28329  -0.123   1.498   8.172  0.5966  0.2515 -0.0027
  206MOL0     C28330  -0.239   1.414   8.103 -0.1665 -0.5418  0.2043
  206MOL0     C28331  -0.221   1.414   7.955 -0.0156  0.4787 -0.9004
  206MOL0     C28332  -0.354   1.379   7.877 -0.3229  0.3539 -0.1299
  206MOL0     C28333  -0.379   1.229   7.875  0.1242  0.3042  0.4061
  206MOL0     C28334  -0.526   1.211   7.839  0.7893 -0.7253  0.2043
  206MOL0    Cl28335  -0.551   1.041   7.841 -0.3692  0.1217 -0.0209
  206MOL0     C28336   0.270   1.638   8.308 -1.0103  1.1084  0.3936
  206MOL0     C28337   0.407   1.665   8.321  0.0442  0.0016 -1.0869
  206MOL0     O28338   0.562   1.928   8.291  0.3160  0.1397  0.4327
  206MOL0     C28339   0.829   1.860   8.517  0.1759  0.3654  0.5439
  206MOL0     C28340   0.967   1.854   8.544  0.4500 -0.7574 -0.6209
  206MOL0     N28341   1.789   2.099   8.425  0.2178  0.1089 -0.3508
  206MOL0     N28342   1.897   2.036   8.455  1.0014 -0.2607  0.2804
  206MOL0     C28343   1.693   2.349   7.810  0.1902 -0.0963 -1.0902
  206MOL0     C28344   1.712   2.492   7.808 -0.8812  0.6379 -0.8781
  206MOL0     C28345   1.888   2.928   7.880 -0.9458  1.6629  0.2037
  206MOL0     C28346   1.777   2.982   7.821  1.2402 -0.1097  1.0331
  206MOL0     C28347   1.769   3.113   7.790 -0.0208 -0.3919  0.5668
  206MOL0     C28348   1.883   3.188   7.813  0.4447 -0.7542  0.7120
  206MOL0     O28349   1.872   3.314   7.771  0.4257 -0.5389 -0.5216
  206MOL0     C28350   1.763   3.393   7.827 -0.1345 -0.1873 -0.7290
  206MOL0     C28351   1.807   3.543   7.857  0.0319 -0.1389 -0.1762
  206MOL0     C28352   1.766   3.593   7.995 -0.0931  0.1813  0.1789
  206MOL0     C28353   1.856   3.706   8.047  1.2669 -0.0407  0.3403
  206MOL0     C28354   1.837   3.833   7.975  0.7128  0.3729 -0.0648
  206MOL0     C28355   1.809   3.940   7.926  0.0780 -0.3130 -1.3173
  206MOL0     C28356   1.992   3.137   7.862 -0.3364 -0.4874  0.8107
  206MOL0     C28357   2.004   3.007   7.902 -0.6747 -0.0586 -1.7305
  206MOL0     C28358   2.129   2.957   7.977  0.0071 -0.8040 -1.5403
  206MOL0     H28359   1.788   2.542   8.127 -0.2873 -0.5911  0.5928
  206MOL0     H28360   1.759   2.322   8.142  0.9734 -0.5032 -0.5152
  206MOL0     H28361   1.839   2.048   7.797 -0.5027 -0.2973 -0.7285
  206MOL0     H28362   1.676   2.104   7.749  0.3222 -0.0814 -1.6444
  206MOL0     H28363   1.567   1.914   7.883 -0.2606 -1.5996 -1.9288
  206MOL0     H28364   1.674   1.869   7.760 -1.5973  1.2193 -0.6807
  206MOL0     H28365   1.786   1.925   8.043  0.3833 -1.2356 -0.1947
  206MOL0     H28366   1.692   1.772   8.012 -0.8073  0.4041  0.2004
  206MOL0     H28367   1.876   1.722   7.843  1.4999  2.8424 -2.6322
  206MOL0     H28368   1.957   1.863   7.906 -0.2773  0.9040  2.6060
  206MOL0     H28369   2.006   1.611   8.016 -0.3044 -0.6584  0.3509
  206MOL0     H28370   1.852   1.631   8.092 -1.6044  3.0584  0.0178
  206MOL0     H28371   2.120   1.760   8.137  0.3278  2.5768  2.0868
  206MOL0     H28372   1.982   1.866   8.158  3.1971  0.9190 -2.3723
  206MOL0     H28373   2.073   1.625   8.321  0.9166  0.0254  0.1866
  206MOL0     H28374   1.899   1.643   8.294 -0.2373  0.1024  1.5612
  206MOL0     H28375   1.964   1.750   8.488  0.0894 -0.4403 -0.7934
  206MOL0     H28376   2.081   1.862   8.401 -0.5922  1.9062  0.5078
  206MOL0     H28377   1.722   1.815   8.273  1.8244 -1.7837  1.4824
  206MOL0     H28378   1.548   2.004   8.213 -0.9715  3.7355 -1.5067
  206MOL0     H28379   1.566   2.162   8.299  0.7941 -0.3674  0.2220
  206MOL0     H28380   1.450   1.901   8.403  2.0334 -0.6426 -3.0330
  206MOL0     H28381   1.506   2.017   8.522 -1.1028 -0.2688  0.8372
  206MOL0     H28382   1.335   2.184   8.442 -2.1218 -0.4637  0.2246
  206MOL0     H28383   1.295   2.059   8.320 -0.2024  0.7417 -1.3952
  206MOL0     H28384   1.290   1.978   8.611  2.8799 -2.8371 -2.0373
  206MOL0     H28385   1.159   2.084   8.538 -0.8654 -0.1774  0.5446
  206MOL0     H28386   1.067   1.920   8.220 -0.8036  1.8118 -0.9246
  206MOL0     H28387   0.754   2.027   8.137  2.3621  1.5302  0.8933
  206MOL0     H28388   0.755   1.845   8.114  1.1038 -0.2941  0.5977
  206MOL0     H28389   0.899   1.938   8.082  0.6627  1.1353  1.0437
  206MOL0     H28390   0.393   1.828   8.616 -0.6184 -1.4367  2.2098
  206MOL0     H28391   0.142   1.803   8.572 -1.8517  3.6526 -2.3299
  206MOL0     H28392   0.085   1.458   8.362  1.4870  1.9246 -1.7123
  206MOL0     H28393  -0.001   1.505   8.505  1.9872 -1.0616  0.5973
  206MOL0     H28394  -0.166   1.394   8.359  1.9435 -1.6859 -0.6224
  206MOL0     H28395  -0.202   1.570   8.366  0.9511  0.2571  0.1439
  206MOL0     H28396  -0.025   1.474   8.130 -0.7909 -2.9526 -1.7649
  206MOL0     H28397  -0.145   1.601   8.143 -3.1671 -0.4106 -0.0671
  206MOL0     H28398  -0.336   1.466   8.109  1.3359  2.4401  0.6469
  206MOL0     H28399  -0.245   1.317   8.153  1.7683 -0.7628  0.0775
  206MOL0     H28400  -0.197   1.515   7.919  4.1909  0.1717  0.4544
  206MOL0     H28401  -0.145   1.341   7.926 -1.8790 -2.0495  0.2260
  206MOL0     H28402  -0.342   1.416   7.775 -0.5587 -1.7925 -1.0069
  206MOL0     H28403  -0.433   1.434   7.929  1.0148 -1.4655  4.3406
  206MOL0     H28404  -0.368   1.185   7.975  2.4178  0.9797  0.5016
  206MOL0     H28405  -0.308   1.178   7.810 -1.8213  1.0558 -2.4918
  206MOL0     H28406  -0.544   1.253   7.739  1.1546 -3.2292 -0.9805
  206MOL0     H28407  -0.591   1.246   7.919 -0.8549 -5.0466  1.0431
  206MOL0     H28408   0.225   1.573   8.234  1.6536  0.0035 -0.4008
  206MOL0     H28409   0.493   1.632   8.263  0.3195 -0.7358 -0.2969
  206MOL0     H28410   0.764   1.845   8.602  0.8874 -1.7151  0.7845
  206MOL0     H28411   1.012   1.833   8.640  0.2478  0.9196 -0.1273
  206MOL0     H28412   1.657   2.306   7.717 -0.2843 -1.4326 -0.3257
  206MOL0     H28413   1.701   2.540   7.711  1.1961  1.9649 -0.5174
  206MOL0     H28414   1.691   2.923   7.791  2.1118  0.2000 -2.6101
  206MOL0     H28415   1.677   3.163   7.762 -0.4634  1.4429  4.5248
  206MOL0     H28416   1.668   3.383   7.773  0.5999 -0.0603 -2.0742
  206MOL0     H28417   1.729   3.360   7.926 -0.6350  3.7379  0.5995
  206MOL0     H28418   1.769   3.604   7.775  0.3000  1.0611  0.5694
  206MOL0     H28419   1.916   3.551   7.846  0.3001 -2.6235 -0.0416
  206MOL0     H28420   1.658   3.611   8.007 -0.6756 -2.3600 -0.5111
  206MOL0     H28421   1.783   3.512   8.067 -2.7285  0.4366  1.2235
  206MOL0     H28422   1.962   3.681   8.043  2.1480  3.1695  1.0415
  206MOL0     H28423   1.822   3.725   8.149  0.7629 -0.0286  0.1754
  206MOL0     H28424   1.802   4.034   7.875 -1.0463  1.5203  1.9318
  206MOL0     H28425   2.070   3.210   7.879 -0.6171 -0.0628  0.3031
  206MOL0     H28426   2.203   3.038   7.982 -0.1635 -0.6541 -1.4129
  206MOL0     H28427   2.099   2.921   8.075 -0.4484 -0.7826 -1.6658
  206MOL0     H28428   2.176   2.879   7.916  2.0766  0.7008 -1.9724
  207MOL0     O28429   0.958   8.239   5.566 -0.1671 -0.5218 -0.3095
  207MOL0     C28430   0.948   8.124   5.582 -0.9806  0.9337  0.2132
  207MOL0     O28431   1.033   8.045   5.642  0.0342  0.3359 -0.4171
  207MOL0     C28432   1.149   8.103   5.689  0.4309  0.8962  0.2573
  207MOL0     C28433   1.149   8.196   5.795  0.5957  0.2786 -0.9577
  207MOL0     C28434   1.271   8.254   5.837 -0.7383  0.0429 -0.4382
  207MOL0     C28435   1.395   8.203   5.798 -0.5163 -0.3868 -0.1963
  207MOL0     O28436   1.515   8.263   5.829  0.6626 -0.1197  0.0939
  207MOL0     C28437   1.518   8.380   5.912  0.4573  0.0725 -0.0122
  207MOL0     C28438   1.663   8.434   5.908  0.5190 -0.1915 -0.4626
  207MOL0     C28439   1.733   8.489   5.782  0.8794  0.0275  0.0049
  207MOL0     C28440   1.881   8.528   5.797 -0.9442 -0.3142  0.0458
  207MOL0     C28441   1.946   8.597   5.669  0.1720 -0.0051  0.1720
  207MOL0     C28442   2.095   8.646   5.674 -1.2451 -0.4997 -1.0933
  207MOL0     C28443   2.146   8.734   5.562  0.1964 -0.3037 -0.6199
  207MOL0     C28444   2.080   8.871   5.571 -0.6656  0.3582  0.3082
  207MOL0     N28445   2.133   8.966   5.474  0.4438 -0.0920  0.6603
  207MOL0     C28446   2.131   8.950   5.346 -0.5643 -0.8814 -0.4840
  207MOL0     C28447   2.223   9.045   5.296  0.2222  0.3462 -0.7241
  207MOL0     C28448   2.242   9.090   5.151  0.3910 -0.0759  0.0060
  207MOL0     C28449   2.382   9.067   5.089 -0.3118 -0.5311 -0.1355
  207MOL0     C28450   2.374   9.107   4.937 -0.7715 -1.0200  0.5169
  207MOL0     C28451   2.500   9.089   4.860 -0.2994  0.8297  0.2049
  207MOL0     O28452   2.494   9.175   4.746  0.0387  0.0245 -0.2668
  207MOL0     C28453   2.492   9.120   4.619 -0.0174  0.3614  0.4588
  207MOL0     C28454   2.406   9.017   4.590 -0.1765 -0.0327 -0.2396
  207MOL0     C28455   2.390   8.953   4.466 -0.5470 -0.1428  0.0738
  207MOL0     C28456   2.279   8.853   4.446 -0.0637 -0.2440  0.2240
  207MOL0     C28457   2.482   9.001   4.364 -0.1245 -0.4298 -0.9199
  207MOL0     C28458   2.492   8.945   4.234  0.7261 -0.0279 -0.3642
  207MOL0     O28459   2.614   8.914   4.187 -0.2930 -0.4340 -0.8384
  207MOL0     C28460   2.629   8.826   4.081  0.5586 -0.1406 -0.4207
  207MOL0     C28461   2.592   8.686   4.089 -0.8074  0.2677 -0.3678
  207MOL0     C28462   2.600   8.598   3.981  0.4795 -0.8357  1.8511
  207MOL0     C28463   2.651   8.655   3.856 -1.0762  0.4678 -0.4171
  207MOL0     O28464   2.651   8.585   3.734 -0.4964 -0.1248 -0.5280
  207MOL0     C28465   2.610   8.443   3.724 -0.0820  0.7014 -0.1947
  207MOL0     C28466   2.602   8.387   3.581 -0.4814  0.8157 -0.1334
  207MOL0     C28467   2.514   8.492   3.510  0.5842 -0.4595 -0.3725
  207MOL0     C28468   2.368   8.507   3.525 -0.3859  0.1926  0.4517
  207MOL0     C28469   2.293   8.588   3.419  0.5937  0.2276 -0.2852
  207MOL0     C28470   2.348   8.724   3.377  0.0527  0.1764  0.1274
  207MOL0     C28471   2.236   8.820   3.335 -0.8487 -0.0358 -0.4041
  207MOL0     C28472   2.312   8.919   3.247  0.4090 -0.6922 -0.2416
  207MOL0    Cl28473   2.440   9.008   3.317 -0.2538 -0.3057  0.2721
  207MOL0     C28474   2.689   8.787   3.851  0.7556  0.2515 -0.3595
  207MOL0     C28475   2.670   8.877   3.956 -0.3553 -0.1969 -0.1323
  207MOL0     O28476   2.384   8.929   4.181  0.1618 -0.1522  0.7989
  207MOL0     C28477   2.566   9.113   4.395 -0.0457 -1.0609 -0.6437
  207MOL0     C28478   2.562   9.177   4.521 -0.5490 -0.2220  0.2333
  207MOL0     N28479   2.270   9.114   5.402  0.2751  0.3354 -0.0401
  207MOL0     N28480   2.220   9.064   5.503  0.2668 -0.3056  0.5506
  207MOL0     C28481   1.403   8.091   5.709 -0.3759 -0.2576  0.4944
  207MOL0     C28482   1.281   8.045   5.653  0.2337 -0.1084 -0.5741
  207MOL0     C28483   0.823   8.063   5.530  1.0751  0.0966 -1.1067
  207MOL0     C28484   0.706   8.146   5.521 -0.9927 -0.4914 -0.3876
  207MOL0     C28485   0.584   8.089   5.488  0.5093 -0.5624 -0.7974
  207MOL0     C28486   0.572   7.953   5.468  0.2670  0.1174 -1.0957
  207MOL0     O28487   0.450   7.903   5.435 -0.1064  1.0448 -0.5989
  207MOL0     C28488   0.351   7.903   5.541  0.1125  0.1925 -0.4381
  207MOL0     C28489   0.233   7.811   5.519 -0.3413  0.0547 -0.1431
  207MOL0     C28490   0.182   7.811   5.370 -0.0194  0.0293  0.1635
  207MOL0     C28491   0.147   7.959   5.326 -0.6261  0.0235 -0.1767
  207MOL0     C28492   0.072   7.949   5.198 -0.3224  0.1565  0.5451
  207MOL0     C28493   0.015   7.938   5.092  0.6276 -0.1313  0.1216
  207MOL0     C28494   0.677   7.870   5.483  1.0525 -0.0882 -0.1595
  207MOL0     C28495   0.800   7.920   5.516 -0.3860  0.0028  0.2466
  207MOL0     C28496   0.910   7.816   5.533 -0.6190 -0.3793 -0.5237
  207MOL0     H28497   1.053   8.229   5.834  0.7270  1.5100 -1.6169
  207MOL0     H28498   1.273   8.332   5.912  3.2503 -0.8392  0.6150
  207MOL0     H28499   1.494   8.339   6.010  0.5364 -2.5738 -1.0332
  207MOL0     H28500   1.445   8.457   5.888 -0.1679 -0.6958 -0.6175
  207MOL0     H28501   1.682   8.506   5.988  0.8092 -2.0658  1.2293
  207MOL0     H28502   1.723   8.347   5.938  0.3796 -0.0883  0.1314
  207MOL0     H28503   1.719   8.418   5.700 -0.1996  1.6885 -1.3174
  207MOL0     H28504   1.676   8.574   5.744 -0.1112 -1.2192 -1.4450
  207MOL0     H28505   1.890   8.596   5.882  0.0526  1.0138 -1.0901
  207MOL0     H28506   1.947   8.442   5.815  1.6009  0.4689 -4.1541
  207MOL0     H28507   1.883   8.682   5.642 -3.2593 -1.9691  1.2798
  207MOL0     H28508   1.928   8.531   5.583 -1.2019 -0.3413  0.6887
  207MOL0     H28509   2.120   8.689   5.771  4.9781 -3.1714 -1.0596
  207MOL0     H28510   2.153   8.554   5.664  1.9155  1.0212  1.4961
  207MOL0     H28511   2.132   8.688   5.464 -0.8311 -0.1942 -0.5418
  207MOL0     H28512   2.254   8.750   5.569 -0.1181  2.2013 -0.5288
  207MOL0     H28513   1.981   8.856   5.527 -0.1600  0.0089 -0.7414
  207MOL0     H28514   2.070   8.915   5.670  2.2503  5.3719 -1.2415
  207MOL0     H28515   2.081   8.868   5.297 -0.9680 -0.8779 -0.0796
  207MOL0     H28516   2.216   9.196   5.156  3.5028  0.7496  0.5681
  207MOL0     H28517   2.166   9.046   5.086 -1.5141  1.9782  0.7308
  207MOL0     H28518   2.451   9.139   5.135  0.6842 -1.5051 -0.0498
  207MOL0     H28519   2.410   8.965   5.117  0.1236 -0.5478 -0.6257
  207MOL0     H28520   2.302   9.042   4.888  0.0928 -2.4437  1.0682
  207MOL0     H28521   2.336   9.209   4.940 -3.4182 -1.9129 -0.2069
  207MOL0     H28522   2.598   9.117   4.899  0.8487 -2.4814  0.0138
  207MOL0     H28523   2.517   8.984   4.832  3.1391  1.3952 -0.2817
  207MOL0     H28524   2.354   8.966   4.670  2.9597 -2.3454  0.5000
  207MOL0     H28525   2.262   8.816   4.548  3.9064 -2.5815  0.2283
  207MOL0     H28526   2.309   8.774   4.376  0.3777 -1.0697  1.3206
  207MOL0     H28527   2.185   8.891   4.405  0.2508 -1.1079 -1.3876
  207MOL0     H28528   2.547   8.647   4.180 -1.3172  2.1648  0.2341
  207MOL0     H28529   2.571   8.494   3.990 -1.7263 -0.4887 -0.1533
  207MOL0     H28530   2.675   8.380   3.785  0.7092  0.6660 -1.0392
  207MOL0     H28531   2.510   8.436   3.768 -1.4872 -0.8893 -3.3049
  207MOL0     H28532   2.701   8.383   3.535  1.0340 -1.9535  2.9549
  207MOL0     H28533   2.551   8.291   3.587 -1.4672  1.2092 -1.7305
  207MOL0     H28534   2.541   8.486   3.404  3.2754 -0.5197  0.2529
  207MOL0     H28535   2.558   8.591   3.527 -2.0689  0.6516  0.6080
  207MOL0     H28536   2.363   8.553   3.624  4.0416 -0.7621  1.3344
  207MOL0     H28537   2.340   8.403   3.541  0.0652 -0.1550 -0.9050
  207MOL0     H28538   2.278   8.523   3.333  2.5294  1.9681 -2.0338
  207MOL0     H28539   2.188   8.602   3.450  1.3625  1.1584  2.1869
  207MOL0     H28540   2.423   8.705   3.299  0.1794 -1.3805  0.6024
  207MOL0     H28541   2.392   8.785   3.457  0.3136  0.5218 -0.2707
  207MOL0     H28542   2.190   8.853   3.429 -1.9907 -0.8345 -0.6654
  207MOL0     H28543   2.160   8.778   3.269 -2.8086  2.0735  0.3835
  207MOL0     H28544   2.233   8.984   3.209  2.1598  1.3514 -0.5972
  207MOL0     H28545   2.350   8.866   3.159  1.3059 -0.7507  0.1705
  207MOL0     H28546   2.720   8.824   3.754  0.5385  0.3468 -0.3948
  207MOL0     H28547   2.709   8.978   3.949  2.2897 -1.1297  0.0097
  207MOL0     H28548   2.643   9.151   4.329  1.0383  2.5143  2.3630
  207MOL0     H28549   2.630   9.260   4.538  2.5769 -2.2711 -1.1753
  207MOL0     H28550   1.490   8.029   5.689  1.5096  1.1501  3.4603
  207MOL0     H28551   1.282   7.961   5.584 -0.2163 -2.2118  1.8610
  207MOL0     H28552   0.718   8.253   5.532  2.9665 -0.6440 -1.5157
  207MOL0     H28553   0.495   8.146   5.462  2.2182  3.6192  1.5151
  207MOL0     H28554   0.402   7.876   5.634 -0.6045  1.5758  0.3767
  207MOL0     H28555   0.311   8.003   5.556  1.7705  0.5293  2.3954
  207MOL0     H28556   0.155   7.820   5.595  0.5591 -2.6135  1.2219
  207MOL0     H28557   0.275   7.711   5.537  0.4309  0.3999  0.0035
  207MOL0     H28558   0.246   7.751   5.305 -5.1271 -6.1362 -0.2259
  207MOL0     H28559   0.091   7.751   5.366 -0.4024  0.5356  1.0022
  207MOL0     H28560   0.237   8.019   5.310 -1.3752  0.3519 -4.2635
  207MOL0     H28561   0.081   8.005   5.400 -0.1529  0.3120  0.0671
  207MOL0     H28562  -0.042   7.941   5.001  1.8126  2.4074 -0.6229
  207MOL0     H28563   0.646   7.768   5.466  0.9540  0.0676 -0.9498
  207MOL0     H28564   0.997   7.848   5.475 -0.2912  2.8339  1.4671
  207MOL0     H28565   0.943   7.809   5.637  1.1843 -1.1777 -1.1053
  207MOL0     H28566   0.884   7.712   5.517  0.0235 -0.7412  0.6374
  208MOL0     O28567   8.040  10.961   7.210  0.1085 -0.3279  0.3834
  208MOL0     C28568   8.081  10.856   7.150  0.4587  0.3820  0.2657
  208MOL0     O28569   8.210  10.846   7.102 -0.6180  0.3111 -0.2453
  208MOL0     C28570   8.299  10.944   7.139  0.1317  0.7341 -0.7208
  208MOL0     C28571   8.330  11.043   7.039  0.6582 -0.2466 -0.5217
  208MOL0     C28572   8.417  11.146   7.065 -0.0701  1.1294  0.2716
  208MOL0     C28573   8.461  11.170   7.197  0.0822  0.0965  0.4393
  208MOL0     O28574   8.550  11.260   7.233 -0.0636  0.2507  0.4588
  208MOL0     C28575   8.625  11.337   7.130  0.0947  0.5816  0.0748
  208MOL0     C28576   8.687  11.462   7.197  0.3819  0.3611  0.5155
  208MOL0     C28577   8.577  11.575   7.211 -0.5106  0.2689 -0.2549
  208MOL0     C28578   8.629  11.696   7.288  0.8724 -0.8548 -0.8723
  208MOL0     C28579   8.543  11.825   7.267 -0.3617 -0.0749  0.4025
  208MOL0     C28580   8.401  11.792   7.320 -0.2013  1.0287  0.4573
  208MOL0     C28581   8.306  11.905   7.277  0.2551  0.3531  0.6361
  208MOL0     C28582   8.156  11.877   7.316 -0.0658  0.0014  0.4701
  208MOL0     N28583   8.053  11.954   7.245  0.6980  0.0778 -0.3378
  208MOL0     C28584   7.923  11.923   7.240  0.6934 -0.7226 -0.0810
  208MOL0     C28585   7.866  12.031   7.176 -0.2921 -0.1947  1.0007
  208MOL0     C28586   7.730  12.027   7.128 -0.2840  0.5005 -1.4447
  208MOL0     C28587   7.704  12.075   6.988  0.0501 -0.1752 -0.5105
  208MOL0     C28588   7.553  12.085   6.956  0.8783 -0.2191  0.7543
  208MOL0     C28589   7.523  12.143   6.806 -1.0120  1.1816 -1.1375
  208MOL0     O28590   7.534  12.028   6.715 -0.0461  0.1769  0.0184
  208MOL0     C28591   7.517  12.060   6.586  0.4003  0.6605 -0.2640
  208MOL0     C28592   7.477  12.189   6.531 -0.5591  0.4672 -0.0027
  208MOL0     C28593   7.446  12.198   6.398  0.0934  0.2553  0.3791
  208MOL0     C28594   7.424  12.332   6.344 -0.8186 -0.8481 -0.1447
  208MOL0     C28595   7.447  12.079   6.316  0.4847 -0.5290  0.1302
  208MOL0     C28596   7.400  12.074   6.178  0.2838  0.4197  0.3399
  208MOL0     O28597   7.448  11.972   6.109 -0.2156 -1.0448 -0.0741
  208MOL0     C28598   7.400  11.948   5.985 -0.0692  0.0381  0.0228
  208MOL0     C28599   7.317  11.834   5.972  0.2296 -0.0595  0.6561
  208MOL0     C28600   7.255  11.812   5.854 -0.1355  1.5419  0.1416
  208MOL0     C28601   7.272  11.890   5.742 -0.6127 -0.8053 -0.3400
  208MOL0     O28602   7.206  11.858   5.626  0.2337 -0.2296  0.0900
  208MOL0     C28603   7.222  11.931   5.504 -0.0832 -0.3686  0.2662
  208MOL0     C28604   7.126  11.870   5.396  0.5984 -0.2666 -0.8673
  208MOL0     C28605   7.046  11.985   5.340  0.4639  0.5287 -0.1351
  208MOL0     C28606   6.933  11.941   5.246 -0.1404 -0.4643 -0.3418
  208MOL0     C28607   6.828  12.055   5.219 -1.0914  0.1446  0.5420
  208MOL0     C28608   6.879  12.169   5.125 -0.1010  0.1324  0.9462
  208MOL0     C28609   6.760  12.234   5.055  0.8016 -0.0611 -0.0586
  208MOL0     C28610   6.730  12.174   4.923 -0.1792  0.3065 -0.4461
  208MOL0    Cl28611   6.867  12.193   4.810  0.2485 -0.1338  0.1149
  208MOL0     C28612   7.361  12.001   5.757  0.9059 -0.5296 -0.3606
  208MOL0     C28613   7.428  12.030   5.874 -0.1657  0.4775 -0.0037
  208MOL0     O28614   7.312  12.147   6.140 -0.5364 -0.1471  0.3428
  208MOL0     C28615   7.500  11.958   6.367 -0.0497  0.2833  0.2372
  208MOL0     C28616   7.541  11.950   6.505  0.1583 -0.6422  0.7051
  208MOL0     N28617   7.968  12.119   7.139 -0.4771 -0.2004 -0.7488
  208MOL0     N28618   8.079  12.079   7.197 -0.9524 -0.2750  0.2994
  208MOL0     C28619   8.427  11.069   7.291  0.1805  0.5034  0.1198
  208MOL0     C28620   8.340  10.965   7.267 -0.9716  0.3202 -0.6476
  208MOL0     C28621   7.996  10.731   7.136 -0.2429 -0.2307 -0.2533
  208MOL0     C28622   8.061  10.613   7.092 -0.2130 -0.8041  0.5846
  208MOL0     C28623   7.995  10.494   7.090  0.8711  0.7425  0.4363
  208MOL0     C28624   7.864  10.476   7.116  0.8290  0.5716 -1.0333
  208MOL0     O28625   7.794  10.354   7.125 -0.1669 -0.7469 -0.3857
  208MOL0     C28626   7.852  10.238   7.080 -0.3839  0.4185  0.4701
  208MOL0     C28627   7.765  10.109   7.104  0.2130 -0.5904 -0.0773
  208MOL0     C28628   7.708  10.104   7.246  0.3748  0.4684 -0.3539
  208MOL0     C28629   7.569  10.045   7.250  0.4012 -0.7990  0.7050
  208MOL0     C28630   7.572   9.902   7.214  0.5133  0.2107  0.1822
  208MOL0     C28631   7.561   9.781   7.186 -0.7497  0.5937 -0.5141
  208MOL0     C28632   7.795  10.587   7.164  0.1763 -0.0455  0.5181
  208MOL0     C28633   7.856  10.712   7.179 -0.8186  0.0120 -0.4432
  208MOL0     C28634   7.766  10.811   7.249  0.8768 -0.4270  0.7822
  208MOL0     H28635   8.277  11.026   6.946  0.2416  0.1648 -0.3648
  208MOL0     H28636   8.443  11.216   6.986  0.5601 -1.2380 -1.7519
  208MOL0     H28637   8.572  11.364   7.038  0.7635 -0.1749 -0.5426
  208MOL0     H28638   8.709  11.275   7.097  1.1501  0.9229  1.9402
  208MOL0     H28639   8.729  11.439   7.296  0.9444  2.3265  0.7774
  208MOL0     H28640   8.768  11.497   7.132  0.2809 -2.7239 -1.4632
  208MOL0     H28641   8.535  11.618   7.120  1.3527 -0.3954 -1.4889
  208MOL0     H28642   8.505  11.528   7.279 -0.7433 -0.9145 -1.2766
  208MOL0     H28643   8.645  11.671   7.394  2.9257 -0.2700 -0.9936
  208MOL0     H28644   8.729  11.721   7.250  0.3305  0.4104 -1.5229
  208MOL0     H28645   8.537  11.833   7.158  0.2527 -1.4466  0.2471
  208MOL0     H28646   8.608  11.903   7.307  2.0875  0.4205 -3.9382
  208MOL0     H28647   8.358  11.696   7.289  0.8582 -0.5360  3.4574
  208MOL0     H28648   8.404  11.785   7.429  3.1306 -1.7306  0.3564
  208MOL0     H28649   8.311  11.909   7.168 -0.0433 -2.8819  0.3773
  208MOL0     H28650   8.340  12.002   7.313 -0.4689  0.5475  0.8163
  208MOL0     H28651   8.128  11.774   7.297 -2.1791  0.1581  2.3500
  208MOL0     H28652   8.154  11.890   7.425  1.3457  0.0796  0.5076
  208MOL0     H28653   7.867  11.839   7.281 -3.3460 -1.6347 -6.2158
  208MOL0     H28654   7.679  12.083   7.207  0.8047 -0.6263  0.1153
  208MOL0     H28655   7.695  11.924   7.123  0.8077  0.1457 -1.9333
  208MOL0     H28656   7.749  12.168   6.952 -1.0426  1.4514  2.1090
  208MOL0     H28657   7.732  11.995   6.918 -1.7765 -2.6104  1.3683
  208MOL0     H28658   7.507  11.988   6.979 -0.3945  0.5872  1.7360
  208MOL0     H28659   7.515  12.161   7.025  0.4476 -0.0121  0.2905
  208MOL0     H28660   7.418  12.174   6.811 -2.2920 -2.7124 -0.3018
  208MOL0     H28661   7.592  12.223   6.777  2.2815 -0.7906  0.6482
  208MOL0     H28662   7.452  12.269   6.599 -2.5391 -0.1584  0.0632
  208MOL0     H28663   7.462  12.347   6.243 -0.3150 -0.1878  0.1333
  208MOL0     H28664   7.479  12.405   6.404  0.0298 -0.0064 -1.8985
  208MOL0     H28665   7.317  12.358   6.349 -0.5449  0.7617 -1.4729
  208MOL0     H28666   7.293  11.780   6.063  0.9844 -2.3073 -0.4029
  208MOL0     H28667   7.190  11.726   5.845  0.7096  0.6992  1.6999
  208MOL0     H28668   7.211  12.040   5.512  1.3760 -0.1219 -0.6712
  208MOL0     H28669   7.329  11.930   5.477 -0.5888  0.9927 -2.1356
  208MOL0     H28670   7.202  11.826   5.331  1.3077  0.9646 -0.9101
  208MOL0     H28671   7.053  11.811   5.452 -1.0450  2.5603  0.1920
  208MOL0     H28672   7.113  12.051   5.282  0.4795  0.8287  0.2217
  208MOL0     H28673   7.004  12.027   5.432  1.1513  1.8952 -0.4149
  208MOL0     H28674   6.875  11.867   5.301 -2.7572  0.8036 -1.2312
  208MOL0     H28675   6.960  11.913   5.144  3.5102  2.3775 -0.3870
  208MOL0     H28676   6.740  12.016   5.167  0.6627 -0.4089 -2.2727
  208MOL0     H28677   6.797  12.102   5.313  0.7105  1.2508  0.6415
  208MOL0     H28678   6.955  12.123   5.061 -0.3271  0.4084  0.4777
  208MOL0     H28679   6.926  12.241   5.193 -1.3264 -0.3415  2.3375
  208MOL0     H28680   6.776  12.341   5.036  0.2293  0.3204  1.4365
  208MOL0     H28681   6.676  12.229   5.125 -1.1240 -2.5175 -2.3300
  208MOL0     H28682   6.641  12.215   4.874  0.2402  2.4449  0.4980
  208MOL0     H28683   6.707  12.067   4.934 -0.1102  0.2617 -0.7372
  208MOL0     H28684   7.392  12.055   5.669  0.5561 -1.6760 -1.2047
  208MOL0     H28685   7.499  12.112   5.869  2.0249 -1.3122 -4.7464
  208MOL0     H28686   7.525  11.874   6.303  3.3186  0.2581  1.3724
  208MOL0     H28687   7.575  11.856   6.545 -3.7494 -2.9397 -0.8295
  208MOL0     H28688   8.469  11.088   7.389 -0.1817  0.4079  0.2964
  208MOL0     H28689   8.309  10.901   7.349 -0.8695  3.0051  1.6238
  208MOL0     H28690   8.165  10.623   7.061 -0.2696  0.5777  0.7660
  208MOL0     H28691   8.050  10.410   7.049 -1.4289 -0.7196  0.1483
  208MOL0     H28692   7.872  10.241   6.973  0.9786  1.7952  0.7416
  208MOL0     H28693   7.945  10.226   7.135 -0.7938 -0.0230  1.0921
  208MOL0     H28694   7.833  10.026   7.084  3.2152  1.4221  1.0312
  208MOL0     H28695   7.685  10.115   7.030  1.6046  3.2678 -1.4904
  208MOL0     H28696   7.777  10.039   7.302 -0.7049 -2.1397 -1.8509
  208MOL0     H28697   7.714  10.199   7.299  1.4759 -0.2043  0.7959
  208MOL0     H28698   7.506  10.104   7.183 -0.7824 -2.1784  0.5438
  208MOL0     H28699   7.531  10.060   7.352 -2.3963  3.7573 -0.7193
  208MOL0     H28700   7.559   9.675   7.171  1.9499  0.6319 -1.7908
  208MOL0     H28701   7.690  10.589   7.191  0.0166  4.4690  0.4077
  208MOL0     H28702   7.726  10.778   7.346 -1.6803  2.5488  0.8832
  208MOL0     H28703   7.800  10.914   7.263 -1.6374  0.7687 -1.2049
  208MOL0     H28704   7.686  10.830   7.178  0.1624 -1.0063  1.4178
  209MOL0     O28705   1.480   7.382   9.288  0.5236  0.6496 -0.7272
  209MOL0     C28706   1.407   7.383   9.389 -0.8317  0.2910  0.1944
  209MOL0     O28707   1.380   7.493   9.455 -0.1723  0.0777 -0.7458
  209MOL0     C28708   1.427   7.609   9.393 -0.1818 -0.5738  0.3378
  209MOL0     C28709   1.522   7.686   9.458 -0.0765 -0.1727  0.3121
  209MOL0     C28710   1.561   7.808   9.405  0.4176 -0.4884  0.8255
  209MOL0     C28711   1.494   7.859   9.288 -0.7251  0.8593  0.2142
  209MOL0     O28712   1.528   7.989   9.251 -0.7597  0.7708  0.1217
  209MOL0     C28713   1.448   8.055   9.158  0.2121 -0.3488  0.1461
  209MOL0     C28714   1.490   8.199   9.156  0.4446 -0.2635  0.1903
  209MOL0     C28715   1.456   8.283   9.031  0.0707 -0.4152 -0.1320
  209MOL0     C28716   1.495   8.430   9.060  0.5735  0.9694 -0.0165
  209MOL0     C28717   1.448   8.531   8.955 -0.1297 -0.6361 -0.4890
  209MOL0     C28718   1.484   8.518   8.809 -0.1158  0.1395  1.0877
  209MOL0     C28719   1.634   8.574   8.789  0.0423  1.0236  0.0734
  209MOL0     C28720   1.635   8.627   8.642  0.5963  0.0312 -0.4966
  209MOL0     N28721   1.758   8.698   8.608  0.4487 -1.0837 -0.0417
  209MOL0     C28722   1.882   8.651   8.617 -0.0748 -1.1421  0.0831
  209MOL0     C28723   1.961   8.745   8.551 -0.3152  0.0976 -0.3574
  209MOL0     C28724   2.114   8.753   8.550  0.3992 -0.0022  0.7369
  209MOL0     C28725   2.186   8.766   8.684  0.5124 -0.4092  0.0452
  209MOL0     C28726   2.191   8.913   8.722  0.2413 -0.0807 -0.1395
  209MOL0     C28727   2.072   8.951   8.819 -0.4574  0.3283 -0.4839
  209MOL0     O28728   2.045   8.868   8.942  0.3897 -0.9249  0.3822
  209MOL0     C28729   1.918   8.858   8.992 -0.4944  0.7255 -0.0712
  209MOL0     C28730   1.810   8.949   8.979 -0.0886  0.6449 -1.5550
  209MOL0     C28731   1.692   8.935   9.058 -0.6504  1.1154 -1.3223
  209MOL0     C28732   1.599   9.056   9.056 -0.6175 -0.2611  0.0349
  209MOL0     C28733   1.676   8.817   9.140  1.0767  0.2167  0.0741
  209MOL0     C28734   1.562   8.794   9.240  0.1895 -0.5630  0.0213
  209MOL0     O28735   1.535   8.669   9.286  0.6831 -0.2555 -0.2414
  209MOL0     C28736   1.428   8.656   9.375  0.3470 -0.3208 -0.5156
  209MOL0     C28737   1.299   8.629   9.336 -0.6116 -0.0826 -0.0623
  209MOL0     C28738   1.200   8.614   9.433  0.8924  0.1072  0.3035
  209MOL0     C28739   1.226   8.621   9.571  0.0567  1.0415  0.7888
  209MOL0     O28740   1.143   8.619   9.676  0.1724  0.1472  0.0679
  209MOL0     C28741   1.013   8.550   9.653 -0.2120 -0.4317 -0.2319
  209MOL0     C28742   0.952   8.540   9.792  0.0606  0.4635  0.0098
  209MOL0     C28743   0.821   8.474   9.783 -0.1748 -0.6644 -1.1398
  209MOL0     C28744   0.754   8.446   9.917  0.0427 -0.6669  0.0150
  209MOL0     C28745   0.626   8.354   9.908 -0.5034  0.1371 -0.8094
  209MOL0     C28746   0.515   8.423   9.816  0.3737 -0.3957 -0.5417
  209MOL0     C28747   0.386   8.342   9.836 -0.5365  0.7782  1.2934
  209MOL0     C28748   0.300   8.337   9.704  0.2871 -0.2110  0.5362
  209MOL0    Cl28749   0.151   8.284   9.754 -0.2269  0.0848  0.3966
  209MOL0     C28750   1.357   8.647   9.610  0.1370 -0.0777 -0.4682
  209MOL0     C28751   1.459   8.666   9.519 -0.1649  0.4834 -0.3755
  209MOL0     O28752   1.503   8.895   9.273  0.4787 -0.0997 -0.1074
  209MOL0     C28753   1.770   8.719   9.135  0.4236 -0.1149  0.6913
  209MOL0     C28754   1.894   8.749   9.081  0.6013  0.9122 -0.5073
  209MOL0     N28755   1.876   8.849   8.497  0.3174  0.2807 -0.4394
  209MOL0     N28756   1.755   8.822   8.551  0.3139 -0.1195  0.2529
  209MOL0     C28757   1.390   7.781   9.227  0.5441 -0.1315  0.1204
  209MOL0     C28758   1.356   7.652   9.286  0.5866 -1.1136  0.5331
  209MOL0     C28759   1.351   7.257   9.427  0.6976  0.3541  0.6314
  209MOL0     C28760   1.430   7.161   9.487 -0.2441  0.0601  0.0318
  209MOL0     C28761   1.370   7.045   9.548 -1.0800  0.8553  0.3948
  209MOL0     C28762   1.233   7.032   9.557  0.2890 -0.3739 -0.4811
  209MOL0     O28763   1.158   6.937   9.611 -0.8270  0.5258 -0.5425
  209MOL0     C28764   1.234   6.845   9.701 -0.2860  0.2377 -0.2827
  209MOL0     C28765   1.141   6.763   9.792  0.6314 -0.3029  0.0867
  209MOL0     C28766   1.020   6.838   9.859  0.5836 -0.0937 -0.0836
  209MOL0     C28767   1.071   6.905   9.982 -0.0727 -0.0242  0.1038
  209MOL0     C28768   0.965   6.946  10.062  0.6051 -0.4500 -0.8157
  209MOL0     C28769   0.882   6.973  10.146 -0.3358  0.3371 -0.3248
  209MOL0     C28770   1.159   7.128   9.500 -1.1085 -0.4740  1.3074
  209MOL0     C28771   1.211   7.243   9.424 -0.5588 -0.2500  0.5348
  209MOL0     C28772   1.121   7.340   9.340  0.1508 -0.7751 -1.3816
  209MOL0     H28773   1.579   7.655   9.545  1.4279 -0.3599 -0.7106
  209MOL0     H28774   1.634   7.874   9.450  0.9307  1.8646 -3.0142
  209MOL0     H28775   1.349   8.049   9.204 -0.7029  0.3741 -1.6676
  209MOL0     H28776   1.451   8.020   9.055  0.7719  2.3102 -0.8260
  209MOL0     H28777   1.449   8.249   9.244 -0.0441  0.3995 -0.4045
  209MOL0     H28778   1.598   8.195   9.171  0.3172 -0.4670  1.1088
  209MOL0     H28779   1.514   8.247   8.946  2.7394  1.1029  0.9321
  209MOL0     H28780   1.350   8.268   9.007  0.5661 -7.2519  0.2079
  209MOL0     H28781   1.454   8.449   9.160 -0.0162 -0.9314  0.1473
  209MOL0     H28782   1.602   8.434   9.079  0.7028 -2.1899  0.6107
  209MOL0     H28783   1.450   8.637   8.984 -1.4458 -1.3631  2.7127
  209MOL0     H28784   1.343   8.501   8.963  0.0367 -1.6645 -1.7968
  209MOL0     H28785   1.478   8.411   8.789  2.1199  0.1043  0.2977
  209MOL0     H28786   1.415   8.573   8.745  1.3123  2.7515  1.6204
  209MOL0     H28787   1.701   8.489   8.808  2.8554  3.4908  2.1659
  209MOL0     H28788   1.656   8.654   8.861  1.3154 -1.1562  2.3152
  209MOL0     H28789   1.593   8.566   8.561 -0.2436  1.9861 -1.6188
  209MOL0     H28790   1.563   8.709   8.646 -2.7226 -2.4673 -2.9469
  209MOL0     H28791   1.912   8.557   8.663  0.2685 -0.7057  0.7586
  209MOL0     H28792   2.136   8.841   8.487 -0.1680 -1.4551 -1.6308
  209MOL0     H28793   2.156   8.673   8.488  0.5288  1.2142 -0.8249
  209MOL0     H28794   2.136   8.695   8.750  1.1489 -0.6570  0.2731
  209MOL0     H28795   2.291   8.738   8.672  0.5666  0.3533 -1.5770
  209MOL0     H28796   2.287   8.936   8.767  0.8280 -0.4000 -1.1842
  209MOL0     H28797   2.193   8.977   8.634 -0.6435  0.9374  0.5625
  209MOL0     H28798   2.090   9.053   8.854 -2.8291  1.1927 -1.5858
  209MOL0     H28799   1.987   8.951   8.750 -1.3205 -3.6054  0.3263
  209MOL0     H28800   1.825   9.039   8.921 -1.2059  0.7806 -1.6508
  209MOL0     H28801   1.514   9.040   8.988  2.5708 -4.2246 -3.5800
  209MOL0     H28802   1.658   9.133   9.005 -0.6223 -2.3290 -3.4641
  209MOL0     H28803   1.576   9.090   9.157  1.9199 -0.0171  0.5945
  209MOL0     H28804   1.249   8.628   9.239  1.1024  0.6887 -1.0031
  209MOL0     H28805   1.097   8.604   9.403  0.4970  3.2631  0.2281
  209MOL0     H28806   0.945   8.603   9.586  0.4301 -1.8267 -2.0701
  209MOL0     H28807   1.034   8.447   9.621 -0.2010  0.2113 -2.4776
  209MOL0     H28808   1.012   8.485   9.865 -0.7830  1.3216  1.3807
  209MOL0     H28809   0.929   8.641   9.829  0.7876  0.1166  1.4930
  209MOL0     H28810   0.826   8.374   9.740 -1.1125 -1.3672  0.3008
  209MOL0     H28811   0.772   8.549   9.721  1.3925  0.3601 -1.2091
  209MOL0     H28812   0.728   8.543   9.961  1.2528  1.4739 -3.5938
  209MOL0     H28813   0.820   8.398   9.990  0.6447  0.3360  0.1482
  209MOL0     H28814   0.669   8.260   9.872 -1.8620 -0.5079 -0.8098
  209MOL0     H28815   0.584   8.341  10.008 -2.2741  2.9101 -1.0737
  209MOL0     H28816   0.544   8.417   9.711  1.2705  1.1537 -0.4077
  209MOL0     H28817   0.499   8.528   9.843 -3.1808 -1.1853  1.0606
  209MOL0     H28818   0.332   8.398   9.914 -1.2161  1.6736  0.2070
  209MOL0     H28819   0.404   8.240   9.871  0.0083  0.0803 -0.9012
  209MOL0     H28820   0.330   8.264   9.628  1.0393  1.6005 -0.9663
  209MOL0     H28821   0.288   8.435   9.657  2.3934 -0.8960 -1.6415
  209MOL0     H28822   1.374   8.651   9.717 -0.5680  3.3936 -0.3687
  209MOL0     H28823   1.559   8.685   9.557  0.7198  0.5268 -2.5657
  209MOL0     H28824   1.763   8.622   9.182  0.4186 -0.6522 -0.3766
  209MOL0     H28825   1.972   8.674   9.093 -1.5353 -1.5632 -1.3201
  209MOL0     H28826   1.333   7.826   9.146  2.4883  0.4599 -1.0012
  209MOL0     H28827   1.268   7.606   9.242  0.8822  0.0139 -1.3652
  209MOL0     H28828   1.537   7.177   9.488 -0.1979 -0.2790  1.2178
  209MOL0     H28829   1.425   6.963   9.593 -2.3929  0.8050  2.0381
  209MOL0     H28830   1.291   6.768   9.648 -0.6219  1.1148 -2.0112
  209MOL0     H28831   1.295   6.893   9.777 -1.8158 -2.6182  3.0080
  209MOL0     H28832   1.193   6.695   9.859  1.1867  1.1030  1.1407
  209MOL0     H28833   1.080   6.700   9.726 -1.1768  2.9162 -1.5806
  209MOL0     H28834   0.972   6.907   9.788 -1.6560 -0.3614  1.0680
  209MOL0     H28835   0.948   6.761   9.888 -1.3762  1.3083 -0.9438
  209MOL0     H28836   1.123   6.998   9.958  4.9553 -1.6371  3.1629
  209MOL0     H28837   1.140   6.845  10.042  2.6859  1.4563 -1.3567
  209MOL0     H28838   0.794   6.992  10.205 -2.3011 -2.0074 -2.2865
  209MOL0     H28839   1.051   7.117   9.507 -1.5647  3.2277  2.8202
  209MOL0     H28840   1.169   7.401   9.262  3.5108  2.1313  2.4674
  209MOL0     H28841   1.044   7.273   9.302  0.2873 -1.1266 -1.0501
  209MOL0     H28842   1.073   7.415   9.404  2.3928 -0.7433  0.4117
  210MOL0     O28843   0.301  10.055   4.483 -0.1672 -0.1653  0.0506
  210MOL0     C28844   0.221   9.978   4.533  0.9840  0.0032  0.1103
  210MOL0     O28845   0.214   9.848   4.499 -0.4119 -0.0124  0.0486
  210MOL0     C28846   0.296   9.803   4.400  0.0983 -0.0831  0.4217
  210MOL0     C28847   0.444   9.833   4.383 -0.2005  0.1285  0.3682
  210MOL0     C28848   0.508   9.780   4.271 -0.6502 -0.5065 -0.5974
  210MOL0     C28849   0.453   9.682   4.188 -0.5174  1.0365  0.3464
  210MOL0     O28850   0.526   9.631   4.080  0.7218 -0.3028 -0.5608
  210MOL0     C28851   0.662   9.593   4.100 -0.2965 -0.4835  0.0445
  210MOL0     C28852   0.693   9.498   3.985 -0.5629 -0.3558  0.1251
  210MOL0     C28853   0.845   9.471   3.977 -0.7267 -0.4075  0.1705
  210MOL0     C28854   0.888   9.365   3.875  0.5287  0.1411  0.2675
  210MOL0     C28855   1.051   9.355   3.876  0.7914  0.1473 -0.5183
  210MOL0     C28856   1.102   9.241   3.786 -0.3205 -0.2294 -0.9880
  210MOL0     C28857   1.237   9.187   3.845 -0.7090 -0.3817 -0.5944
  210MOL0     C28858   1.300   9.089   3.739  0.5692  0.2500  0.3604
  210MOL0     N28859   1.217   8.971   3.694  0.9068 -0.0510  0.5382
  210MOL0     C28860   1.141   8.881   3.770 -1.5400  0.5736  0.4759
  210MOL0     C28861   1.096   8.791   3.682  0.5059 -0.3220 -0.4357
  210MOL0     C28862   1.007   8.663   3.710  0.2321  0.0238 -0.8774
  210MOL0     C28863   1.089   8.528   3.707 -0.3172 -0.0496 -0.0353
  210MOL0     C28864   1.011   8.401   3.694 -0.1234  0.1429 -0.4262
  210MOL0     C28865   1.110   8.281   3.724  0.4615  0.8618 -0.2749
  210MOL0     O28866   1.021   8.159   3.749  0.1999 -0.2156  0.4955
  210MOL0     C28867   0.976   8.090   3.637 -0.1545 -0.3862  0.0827
  210MOL0     C28868   0.993   8.121   3.503  0.7381 -1.4250  0.5605
  210MOL0     C28869   0.928   8.061   3.398  0.1475 -0.1704  0.0088
  210MOL0     C28870   0.971   8.109   3.257 -0.1764  0.3248  0.6564
  210MOL0     C28871   0.842   7.950   3.432 -0.1379  0.3969 -1.2775
  210MOL0     C28872   0.758   7.886   3.335  0.3060  0.0439 -0.6575
  210MOL0     O28873   0.701   7.775   3.368  0.2239 -0.3058 -0.6066
  210MOL0     C28874   0.612   7.709   3.291 -0.2899  0.3098  0.3951
  210MOL0     C28875   0.625   7.572   3.304 -0.3358 -0.7456  0.4496
  210MOL0     C28876   0.538   7.488   3.235  0.2229  0.3337  0.6773
  210MOL0     C28877   0.454   7.544   3.131 -0.2108  0.0040  0.7873
  210MOL0     O28878   0.359   7.479   3.046 -0.3430 -0.2797 -0.1810
  210MOL0     C28879   0.400   7.356   2.983  0.4812 -0.9739 -0.1299
  210MOL0     C28880   0.319   7.327   2.855 -0.9534 -0.6513 -0.7222
  210MOL0     C28881   0.165   7.333   2.872 -0.5153 -0.5820  0.2017
  210MOL0     C28882   0.097   7.424   2.764 -0.6253  0.7705  0.0325
  210MOL0     C28883   0.120   7.362   2.620  0.1945  0.3663 -0.5025
  210MOL0     C28884   0.001   7.284   2.572  0.0821  1.0809 -0.0866
  210MOL0     C28885   0.030   7.198   2.452  0.1772  0.6563  0.4253
  210MOL0     C28886  -0.077   7.104   2.409  0.7898  0.3676  1.0064
  210MOL0    Cl28887  -0.110   6.986   2.541  0.0842 -0.0496 -0.7773
  210MOL0     C28888   0.445   7.679   3.110  0.9845  0.1739 -0.0809
  210MOL0     C28889   0.522   7.762   3.195 -0.0194  0.0791 -0.5866
  210MOL0     O28890   0.742   7.946   3.231 -0.4675  0.0393  0.0198
  210MOL0     C28891   0.844   7.897   3.558  0.3711  0.0835  0.3644
  210MOL0     C28892   0.904   7.975   3.661 -0.3849  1.0967  0.6179
  210MOL0     N28893   1.134   8.829   3.552  0.6980  0.2543 -0.4601
  210MOL0     N28894   1.207   8.934   3.564 -0.1040 -0.1512 -0.3699
  210MOL0     C28895   0.328   9.630   4.230 -0.1254 -0.0472 -1.0250
  210MOL0     C28896   0.242   9.701   4.323 -0.0634  0.0140 -0.6985
  210MOL0     C28897   0.141  10.011   4.653 -0.5242  0.4093  0.4528
  210MOL0     C28898   0.086   9.911   4.733  0.4606 -0.0777 -0.4002
  210MOL0     C28899   0.008   9.940   4.845 -0.3955  0.6217  0.0523
  210MOL0     C28900  -0.014  10.076   4.883 -0.8096  0.3392  0.7547
  210MOL0     O28901  -0.084  10.121   4.988  0.3257  0.5077 -0.5027
  210MOL0     C28902  -0.127  10.020   5.084  0.0421  0.0894 -0.0489
  210MOL0     C28903  -0.251   9.942   5.039 -0.3283  0.7412  0.4465
  210MOL0     C28904  -0.375  10.020   5.014  0.7109 -0.4801 -0.1149
  210MOL0     C28905  -0.400  10.114   5.125 -0.0255 -0.3593  1.7605
  210MOL0     C28906  -0.542  10.153   5.161 -0.2785 -0.8198 -0.5262
  210MOL0     C28907  -0.657  10.198   5.189 -0.0312  0.3842  0.3262
  210MOL0     C28908   0.031  10.173   4.793  0.3896  0.0980  0.6562
  210MOL0     C28909   0.111  10.144   4.684  0.5527 -0.1020 -0.3500
  210MOL0     C28910   0.132  10.270   4.592 -0.1266  0.3813 -0.9378
  210MOL0     H28911   0.490   9.892   4.462 -1.5230 -1.6043  2.5448
  210MOL0     H28912   0.607   9.815   4.245 -0.7924 -0.6031 -1.2913
  210MOL0     H28913   0.686   9.536   4.190 -4.0343 -2.4805 -0.0491
  210MOL0     H28914   0.725   9.682   4.111  0.9900 -1.5107  1.4528
  210MOL0     H28915   0.642   9.402   3.997 -0.9477 -0.1711 -0.0227
  210MOL0     H28916   0.662   9.542   3.891  0.0787 -0.3610 -0.0968
  210MOL0     H28917   0.889   9.568   3.950  1.8088 -1.2966  0.8504
  210MOL0     H28918   0.871   9.437   4.077 -1.9148 -1.7574  0.0506
  210MOL0     H28919   0.857   9.265   3.908  3.8320 -0.6520  1.3845
  210MOL0     H28920   0.844   9.386   3.777 -0.5343 -1.9065  0.2437
  210MOL0     H28921   1.078   9.333   3.980 -2.1770  2.5185  0.9392
  210MOL0     H28922   1.100   9.450   3.852  4.6479 -1.5403 -0.1301
  210MOL0     H28923   1.037   9.155   3.802  2.9443 -2.7753 -0.2539
  210MOL0     H28924   1.098   9.279   3.684 -1.2368  0.6752 -0.6276
  210MOL0     H28925   1.214   9.139   3.941 -2.2045  3.7422  1.3365
  210MOL0     H28926   1.313   9.265   3.846  0.6765 -1.6327 -2.1070
  210MOL0     H28927   1.316   9.140   3.644 -1.4392 -0.8775 -0.6497
  210MOL0     H28928   1.401   9.059   3.766  1.1177  2.6358  1.1374
  210MOL0     H28929   1.149   8.883   3.879  3.0639 -1.2346  0.3816
  210MOL0     H28930   0.924   8.684   3.642 -1.4431 -0.2533  0.9828
  210MOL0     H28931   0.961   8.672   3.809 -0.6608 -0.3515 -1.2429
  210MOL0     H28932   1.166   8.532   3.630 -0.6457 -0.3292 -0.3871
  210MOL0     H28933   1.148   8.524   3.799 -0.7406 -0.3862  0.2263
  210MOL0     H28934   0.937   8.397   3.775 -0.4790 -2.6835 -0.7853
  210MOL0     H28935   0.956   8.383   3.602  1.6900  2.8578 -2.1748
  210MOL0     H28936   1.164   8.265   3.630 -0.3822 -2.3092 -0.3345
  210MOL0     H28937   1.184   8.294   3.803  2.4839  2.3168 -2.2847
  210MOL0     H28938   1.056   8.206   3.481 -4.0481  2.7805  1.2954
  210MOL0     H28939   0.894   8.168   3.207  0.3394 -0.1715 -0.7621
  210MOL0     H28940   0.984   8.028   3.186 -1.6207  0.3700  0.3170
  210MOL0     H28941   1.056   8.179   3.259 -1.9923  2.7221 -0.4510
  210MOL0     H28942   0.694   7.532   3.377 -1.4736 -1.5434  1.1066
  210MOL0     H28943   0.537   7.381   3.251 -0.3089 -0.1269 -2.0705
  210MOL0     H28944   0.508   7.372   2.969  1.0267 -2.5983  1.6718
  210MOL0     H28945   0.378   7.268   3.045  2.6903 -2.1762 -0.9283
  210MOL0     H28946   0.350   7.381   2.765 -1.9036  3.1113  1.0203
  210MOL0     H28947   0.348   7.223   2.842  0.3144 -1.2583  4.6512
  210MOL0     H28948   0.141   7.369   2.973  1.8170  0.3974  0.4749
  210MOL0     H28949   0.127   7.231   2.863 -2.4801 -0.2741  3.3621
  210MOL0     H28950   0.137   7.526   2.764  0.3404  0.4226  1.8147
  210MOL0     H28951  -0.010   7.442   2.780 -0.4477 -0.0902  2.6281
  210MOL0     H28952   0.123   7.441   2.545 -2.1603 -0.0249 -1.1101
  210MOL0     H28953   0.209   7.299   2.616  0.7906  1.1816 -0.1622
  210MOL0     H28954  -0.080   7.349   2.537 -1.0168 -1.3734 -2.4875
  210MOL0     H28955  -0.031   7.221   2.654  1.9599  0.2656  0.0669
  210MOL0     H28956   0.119   7.137   2.468  0.2176  0.7287  0.4745
  210MOL0     H28957   0.050   7.262   2.365  1.2374  0.1623  0.2949
  210MOL0     H28958  -0.052   7.040   2.324 -2.0955  0.8295 -0.3231
  210MOL0     H28959  -0.165   7.169   2.408  2.8965  3.5896  3.4937
  210MOL0     H28960   0.388   7.711   3.023 -0.9312 -0.3229  0.9480
  210MOL0     H28961   0.510   7.866   3.167  0.1336  0.3886  0.4724
  210MOL0     H28962   0.791   7.806   3.585  0.6437 -1.6377 -4.0434
  210MOL0     H28963   0.887   7.941   3.762 -2.8548 -0.6199 -0.2764
  210MOL0     H28964   0.279   9.547   4.180  0.1752 -1.4006  0.8128
  210MOL0     H28965   0.141   9.666   4.342 -1.3531  4.0739  0.9898
  210MOL0     H28966   0.099   9.808   4.700  1.3399 -0.1861  0.2595
  210MOL0     H28967  -0.039   9.865   4.907  0.1292 -1.7795 -2.2934
  210MOL0     H28968  -0.048   9.950   5.109 -0.1589 -0.0862  0.0856
  210MOL0     H28969  -0.150  10.067   5.180  0.1366  0.2346 -0.0958
  210MOL0     H28970  -0.280   9.868   5.115  2.2798 -1.8257 -0.8256
  210MOL0     H28971  -0.233   9.888   4.945 -0.3448  0.4670  0.5994
  210MOL0     H28972  -0.371  10.069   4.917  1.6365 -0.8065 -0.2485
  210MOL0     H28973  -0.460   9.955   4.992 -0.5042  0.4706  1.5718
  210MOL0     H28974  -0.345  10.204   5.095 -4.3028  2.4973  1.6617
  210MOL0     H28975  -0.363  10.095   5.226 -1.1307 -0.0075  2.2442
  210MOL0     H28976  -0.755  10.223   5.224 -0.0688 -0.1116  0.5866
  210MOL0     H28977  -0.007  10.272   4.815 -0.3260  0.0842 -0.4797
  210MOL0     H28978   0.232  10.309   4.612 -0.2459 -0.1750  0.9813
  210MOL0     H28979   0.124  10.245   4.486  0.0645  2.1274 -1.3914
  210MOL0     H28980   0.047  10.334   4.618 -0.4896 -0.5969  0.4099
  211MOL0     O28981   8.966   1.562   2.005  0.2323 -0.4318  0.2499
  211MOL0     C28982   8.870   1.622   2.046  0.9624 -0.8079  0.7318
  211MOL0     O28983   8.801   1.710   1.978 -0.0081  0.4844  0.2184
  211MOL0     C28984   8.812   1.716   1.836  0.4216  0.6490 -0.0850
  211MOL0     C28985   8.776   1.624   1.740 -0.1748  0.8686 -0.1989
  211MOL0     C28986   8.794   1.645   1.598  0.5777  0.9766  0.0434
  211MOL0     C28987   8.849   1.760   1.553  0.1257  0.8587 -0.7247
  211MOL0     O28988   8.867   1.793   1.427 -0.1739  0.3185  0.2668
  211MOL0     C28989   9.003   1.770   1.368  0.9352 -0.4876 -0.0871
  211MOL0     C28990   9.009   1.816   1.219  0.4568  0.7018 -0.0332
  211MOL0     C28991   9.148   1.781   1.169 -0.5462  0.2193  0.3709
  211MOL0     C28992   9.169   1.842   1.029  0.1420  0.5950  0.6037
  211MOL0     C28993   9.321   1.855   0.992  0.5771  0.1026  0.3263
  211MOL0     C28994   9.390   1.726   0.975  0.5229  0.6882 -0.1593
  211MOL0     C28995   9.519   1.727   0.901 -0.5559  0.1866  0.9120
  211MOL0     C28996   9.617   1.810   0.970 -0.0583  0.2437 -0.1508
  211MOL0     N28997   9.717   1.863   0.878  0.2640  0.0465 -0.7166
  211MOL0     C28998   9.702   1.962   0.791  0.4571 -0.9271 -0.1362
  211MOL0     C28999   9.828   1.982   0.734  0.3268  0.7047 -1.0793
  211MOL0     C29000   9.871   2.095   0.648  0.1289 -0.5311  0.0587
  211MOL0     C29001  10.004   2.167   0.693  0.0497 -0.6933 -0.5558
  211MOL0     C29002   9.999   2.248   0.824 -0.2164  0.5119 -0.0053
  211MOL0     C29003  10.116   2.341   0.843 -0.0001  0.5447 -0.1577
  211MOL0     O29004  10.245   2.285   0.833 -0.1096  0.1161  0.5758
  211MOL0     C29005  10.294   2.228   0.946 -0.3076  0.2730  0.9739
  211MOL0     C29006  10.417   2.164   0.930 -0.3741 -0.5248 -0.1416
  211MOL0     C29007  10.459   2.073   1.032  0.3565 -0.0111  0.1904
  211MOL0     C29008  10.585   1.992   1.005 -0.5459 -0.3297 -0.6673
  211MOL0     C29009  10.388   2.055   1.151  0.3196 -0.2022  0.5575
  211MOL0     C29010  10.416   1.961   1.264 -0.8151 -0.5387  0.7717
  211MOL0     O29011  10.349   1.993   1.381  0.9252 -0.1077  0.0093
  211MOL0     C29012  10.360   1.918   1.494 -0.3829  1.0494 -0.1883
  211MOL0     C29013  10.295   1.968   1.604  0.5128  0.5158  0.4076
  211MOL0     C29014  10.301   1.903   1.726  0.2640 -0.9009  0.3355
  211MOL0     C29015  10.369   1.782   1.752 -0.2020 -0.8865  0.4645
  211MOL0     O29016  10.371   1.732   1.875  0.2396  0.2894 -0.1330
  211MOL0     C29017  10.501   1.738   1.944 -0.1047  0.0135  0.0847
  211MOL0     C29018  10.569   1.608   1.990  0.3800  0.0724  0.4463
  211MOL0     C29019  10.673   1.553   1.891  0.2792  0.4596 -0.3345
  211MOL0     C29020  10.784   1.483   1.964 -0.3351 -0.2712 -0.2524
  211MOL0     C29021  10.741   1.376   2.064  0.0948 -0.5343 -0.5746
  211MOL0     C29022  10.645   1.263   2.012  0.0770 -0.0689  0.1618
  211MOL0     C29023  10.556   1.216   2.130  0.5273 -0.4527  0.0527
  211MOL0     C29024  10.499   1.075   2.124 -0.2136 -0.2701 -0.5493
  211MOL0    Cl29025  10.599   0.947   2.072 -0.4799  0.1937 -0.6220
  211MOL0     C29026  10.419   1.725   1.640  0.5200  0.0744 -0.3842
  211MOL0     C29027  10.418   1.792   1.510 -0.4808  1.1133 -0.9350
  211MOL0     O29028  10.501   1.871   1.244  0.2607 -0.3207  0.4243
  211MOL0     C29029  10.273   2.130   1.170  0.9204 -0.6776  0.3137
  211MOL0     C29030  10.232   2.217   1.068 -0.3627 -0.2630  0.4758
  211MOL0     N29031   9.912   1.883   0.798 -0.3794  0.1164 -0.1483
  211MOL0     N29032   9.838   1.798   0.863  0.2064  0.3667 -0.5340
  211MOL0     C29033   8.902   1.845   1.648  0.3881 -0.4366 -0.0078
  211MOL0     C29034   8.883   1.835   1.786  0.3492  0.2130  0.8567
  211MOL0     C29035   8.821   1.596   2.175 -0.2894 -1.0251 -0.7922
  211MOL0     C29036   8.774   1.471   2.212 -0.2776 -0.4562 -0.0086
  211MOL0     C29037   8.731   1.447   2.336 -1.1517  0.8057 -0.6842
  211MOL0     C29038   8.740   1.548   2.431  0.6125 -1.1187  0.3052
  211MOL0     O29039   8.718   1.527   2.566 -0.2181  0.9382 -0.1660
  211MOL0     C29040   8.816   1.428   2.612 -0.4372  0.8275 -1.1973
  211MOL0     C29041   8.948   1.493   2.658  1.2147 -0.5616 -0.4957
  211MOL0     C29042   8.926   1.623   2.733 -1.2873  0.3766  0.6952
  211MOL0     C29043   8.830   1.610   2.859 -0.0389 -0.2796 -0.0247
  211MOL0     C29044   8.889   1.705   2.961  0.2287 -0.1902  0.0501
  211MOL0     C29045   8.925   1.773   3.056 -1.0912 -0.1020 -0.1866
  211MOL0     C29046   8.787   1.673   2.401 -0.5236 -0.4969  0.1820
  211MOL0     C29047   8.830   1.697   2.267 -0.3019  0.7378  0.6158
  211MOL0     C29048   8.888   1.827   2.227  0.2830 -0.3604 -1.0497
  211MOL0     H29049   8.738   1.524   1.760  1.2247 -0.5950 -3.9342
  211MOL0     H29050   8.762   1.572   1.524  0.4421  0.3574  0.6998
  211MOL0     H29051   9.038   1.666   1.373  0.2763 -0.6431  3.0405
  211MOL0     H29052   9.067   1.826   1.437 -1.3350 -0.1411  1.8385
  211MOL0     H29053   8.930   1.758   1.170  2.3924 -1.9982 -0.1307
  211MOL0     H29054   8.991   1.924   1.211  0.2463  0.8611  2.0359
  211MOL0     H29055   9.221   1.824   1.238  1.0370  0.4354 -1.3548
  211MOL0     H29056   9.169   1.674   1.161  1.1663  0.6882 -3.2745
  211MOL0     H29057   9.112   1.794   0.950 -0.0812  0.1800  1.0104
  211MOL0     H29058   9.146   1.949   1.038  0.6845  0.8564 -0.8134
  211MOL0     H29059   9.354   1.902   1.086 -0.2327  1.8837 -0.2222
  211MOL0     H29060   9.332   1.929   0.912  1.6426  0.7000  0.9904
  211MOL0     H29061   9.414   1.698   1.078 -3.5304 -0.3665  0.6483
  211MOL0     H29062   9.317   1.656   0.935  0.7620  0.5953 -0.4372
  211MOL0     H29063   9.497   1.759   0.799  3.5195  0.8312  0.0529
  211MOL0     H29064   9.568   1.629   0.893 -5.3342 -2.6032  2.0221
  211MOL0     H29065   9.569   1.893   1.022 -3.3464 -0.8318 -1.2485
  211MOL0     H29066   9.658   1.756   1.056 -2.2178 -0.2956  0.6158
  211MOL0     H29067   9.623   2.034   0.770  0.2225 -0.7971  1.0779
  211MOL0     H29068   9.787   2.163   0.631  1.4833  0.5740 -2.7851
  211MOL0     H29069   9.882   2.053   0.548 -1.6733 -0.7794 -0.0676
  211MOL0     H29070  10.090   2.101   0.708  3.1178  2.7359 -1.7022
  211MOL0     H29071  10.047   2.222   0.609 -0.8912 -0.4397 -0.8908
  211MOL0     H29072   9.908   2.307   0.814  0.9441  2.1887 -1.2021
  211MOL0     H29073   9.977   2.171   0.898 -3.5113  2.1965  0.9474
  211MOL0     H29074  10.095   2.414   0.764 -1.0946 -2.2648 -2.6615
  211MOL0     H29075  10.107   2.400   0.935  1.7199  1.4007 -0.4855
  211MOL0     H29076  10.472   2.167   0.837 -0.7921 -1.8577 -0.4505
  211MOL0     H29077  10.561   1.886   0.994 -2.9478  0.3841 -3.6390
  211MOL0     H29078  10.651   2.014   1.089  1.7516 -0.9609 -2.2227
  211MOL0     H29079  10.644   2.030   0.920 -0.0180  1.7289  0.5470
  211MOL0     H29080  10.251   2.067   1.604 -0.9167 -0.0871  0.7374
  211MOL0     H29081  10.244   1.961   1.798 -0.6139  1.5819 -2.2326
  211MOL0     H29082  10.577   1.794   1.889 -1.9402  0.5507 -2.0494
  211MOL0     H29083  10.490   1.789   2.039  0.0955 -0.3025  0.2798
  211MOL0     H29084  10.621   1.622   2.086 -2.3448  0.8676  1.9166
  211MOL0     H29085  10.498   1.527   2.010  0.2140  0.4108  1.2897
  211MOL0     H29086  10.716   1.629   1.825  3.0200 -1.8730 -1.4177
  211MOL0     H29087  10.621   1.481   1.828  3.4098 -1.5148 -0.8844
  211MOL0     H29088  10.831   1.561   2.024  1.5791 -0.1695 -1.8100
  211MOL0     H29089  10.852   1.441   1.890  0.4932  1.1473 -0.3336
  211MOL0     H29090  10.827   1.334   2.117  0.2737  0.4928 -0.0237
  211MOL0     H29091  10.689   1.431   2.143 -2.0910  0.5443 -2.6301
  211MOL0     H29092  10.705   1.184   1.965 -1.4661 -1.1129 -0.1267
  211MOL0     H29093  10.573   1.288   1.935 -2.4070  1.3226  2.7398
  211MOL0     H29094  10.470   1.281   2.149  1.5982  1.2158 -0.5753
  211MOL0     H29095  10.622   1.227   2.216  0.9782  3.1837 -0.6043
  211MOL0     H29096  10.407   1.081   2.064 -1.0360  0.5730  0.7554
  211MOL0     H29097  10.463   1.044   2.223  0.0024  3.9049  1.0234
  211MOL0     H29098  10.473   1.635   1.667 -1.8337 -0.3639  3.7633
  211MOL0     H29099  10.473   1.738   1.435  0.8329 -2.7915  2.4579
  211MOL0     H29100  10.198   2.128   1.248 -0.8233 -1.6530 -1.2970
  211MOL0     H29101  10.138   2.271   1.078  0.1603  0.7683  0.0102
  211MOL0     H29102   8.955   1.929   1.605  3.0349 -2.2800 -0.6018
  211MOL0     H29103   8.914   1.904   1.864 -2.7478  2.0928  0.5929
  211MOL0     H29104   8.772   1.397   2.133  0.0482  1.0436 -1.4763
  211MOL0     H29105   8.691   1.347   2.350  3.8058 -1.2865  0.7440
  211MOL0     H29106   8.775   1.384   2.704  3.6233  2.2191  1.5805
  211MOL0     H29107   8.848   1.353   2.539  0.3547 -1.6004  1.4621
  211MOL0     H29108   9.012   1.507   2.571  2.1701 -0.0206  0.2810
  211MOL0     H29109   8.989   1.433   2.740 -3.0327  0.9839  3.2082
  211MOL0     H29110   9.021   1.666   2.766 -0.3552  0.2462 -1.6251
  211MOL0     H29111   8.878   1.693   2.663 -2.9781 -1.2207  0.1908
  211MOL0     H29112   8.836   1.509   2.900  2.8041 -1.0140 -1.9586
  211MOL0     H29113   8.725   1.633   2.837  0.3929  1.0330 -0.8290
  211MOL0     H29114   8.916   1.841   3.138 -1.3915 -0.7540  0.3315
  211MOL0     H29115   8.782   1.755   2.472  1.6283 -0.7013  0.6331
  211MOL0     H29116   8.972   1.834   2.157 -1.7872  0.3615 -3.6197
  211MOL0     H29117   8.804   1.892   2.203  0.2248 -0.2894 -0.6524
  211MOL0     H29118   8.930   1.858   2.323 -1.8424  0.2868 -0.2757
  212MOL0     O29119   4.533   9.250   6.883 -0.2828  0.9760  0.9877
  212MOL0     C29120   4.640   9.232   6.820 -0.3391  0.0968  0.1258
  212MOL0     O29121   4.748   9.160   6.861 -0.6219 -0.0880  0.4612
  212MOL0     C29122   4.749   9.130   6.996  0.0335  0.2778  1.0014
  212MOL0     C29123   4.682   9.028   7.053  0.7275  0.1773  0.8400
  212MOL0     C29124   4.703   8.999   7.188 -0.2454 -0.1636  0.5003
  212MOL0     C29125   4.796   9.061   7.263  0.0918 -0.2781 -0.6977
  212MOL0     O29126   4.826   9.031   7.401  0.7056  0.1197  0.5085
  212MOL0     C29127   4.733   8.944   7.464 -0.7854  0.4679  0.0776
  212MOL0     C29128   4.752   8.790   7.462 -0.6662 -0.4335 -0.4069
  212MOL0     C29129   4.888   8.749   7.526  0.6813 -0.1504 -0.7964
  212MOL0     C29130   4.893   8.790   7.676 -0.1658 -0.4910 -0.3870
  212MOL0     C29131   5.004   8.708   7.743 -0.5457  0.1800 -0.2952
  212MOL0     C29132   5.031   8.760   7.883 -1.2861 -0.2903  0.2501
  212MOL0     C29133   5.144   8.698   7.955  0.5031 -0.7925  0.0437
  212MOL0     C29134   5.142   8.548   7.949 -0.5100  1.0592  0.6120
  212MOL0     N29135   5.252   8.494   8.037  0.4673  0.2961  0.3627
  212MOL0     C29136   5.367   8.558   8.079  0.0432 -0.1786 -0.6249
  212MOL0     C29137   5.425   8.484   8.175 -0.0416  0.6424  0.0241
  212MOL0     C29138   5.555   8.515   8.239  0.9310  0.8038  0.1510
  212MOL0     C29139   5.643   8.393   8.218 -0.3317 -0.6167  0.7068
  212MOL0     C29140   5.778   8.428   8.282  0.4907  0.1799  0.6124
  212MOL0     C29141   5.886   8.344   8.234  0.2388 -0.6258 -0.1358
  212MOL0     O29142   5.975   8.310   8.335  0.4945  0.2498 -0.2658
  212MOL0     C29143   6.077   8.218   8.310 -0.4468 -0.2995 -0.3133
  212MOL0     C29144   6.057   8.083   8.332 -0.3603 -0.4081  0.1068
  212MOL0     C29145   6.146   7.992   8.297 -0.6317 -1.0979 -0.4807
  212MOL0     C29146   6.123   7.853   8.312  0.0293  0.1408 -0.0600
  212MOL0     C29147   6.273   8.029   8.236  0.8307 -0.3234  0.1090
  212MOL0     C29148   6.386   7.927   8.192 -0.1892 -0.9965 -0.5149
  212MOL0     O29149   6.506   7.991   8.176  0.4377  0.5864  0.4685
  212MOL0     C29150   6.624   7.923   8.177 -0.2479  0.0754 -0.9706
  212MOL0     C29151   6.744   7.994   8.129  0.6215 -0.9440 -0.4830
  212MOL0     C29152   6.876   7.938   8.134  0.3262  0.1023 -0.0622
  212MOL0     C29153   6.884   7.811   8.192  0.0035 -0.4984 -0.5298
  212MOL0     O29154   7.002   7.751   8.211 -0.2665  0.5460  1.1575
  212MOL0     C29155   7.079   7.717   8.091 -0.4685  0.7289 -1.6473
  212MOL0     C29156   7.210   7.648   8.120 -0.4432  0.2001  0.9460
  212MOL0     C29157   7.314   7.735   8.201 -0.6094  0.6204 -0.1078
  212MOL0     C29158   7.423   7.644   8.250  0.1238 -0.2262  0.1281
  212MOL0     C29159   7.531   7.716   8.333  0.3150  0.3226  0.2602
  212MOL0     C29160   7.485   7.758   8.466  0.3513 -0.5664 -0.2177
  212MOL0     C29161   7.604   7.766   8.566 -0.5318 -0.1167  1.2254
  212MOL0     C29162   7.552   7.848   8.681  0.3775 -0.5625 -0.8081
  212MOL0    Cl29163   7.669   7.822   8.818 -0.5787  0.3044  0.0228
  212MOL0     C29164   6.772   7.745   8.241 -0.3461 -0.3210 -0.1820
  212MOL0     C29165   6.643   7.800   8.239 -1.1186  1.1960 -0.3274
  212MOL0     O29166   6.356   7.820   8.148  0.0247  0.1268  0.2069
  212MOL0     C29167   6.296   8.168   8.212  0.3307  0.3282 -0.3986
  212MOL0     C29168   6.190   8.254   8.247 -0.4519  0.0597 -0.1329
  212MOL0     N29169   5.346   8.372   8.189  0.4896 -0.9268 -0.9557
  212MOL0     N29170   5.245   8.377   8.107 -0.7002  0.0694  0.2312
  212MOL0     C29171   4.862   9.165   7.212  0.5436 -0.1673  0.5753
  212MOL0     C29172   4.841   9.190   7.079 -0.6937  0.1274  0.4615
  212MOL0     C29173   4.654   9.306   6.687 -0.3640  0.0672  0.3879
  212MOL0     C29174   4.556   9.278   6.588  0.7378  0.8337 -0.1530
  212MOL0     C29175   4.547   9.341   6.468  0.1818  0.1934 -0.3966
  212MOL0     C29176   4.649   9.429   6.437  0.3688 -1.2975 -0.7399
  212MOL0     O29177   4.626   9.493   6.318 -0.8455 -0.2546 -0.8555
  212MOL0     C29178   4.731   9.578   6.258  0.4781 -0.4940  0.5833
  212MOL0     C29179   4.685   9.649   6.133 -0.1341 -0.2252  0.0636
  212MOL0     C29180   4.559   9.738   6.152  0.3022 -0.4195 -0.3988
  212MOL0     C29181   4.540   9.817   6.284  0.1528 -0.4831  0.0024
  212MOL0     C29182   4.632   9.928   6.304  1.4429 -0.9666 -0.1485
  212MOL0     C29183   4.711  10.015   6.344  1.2301 -0.3752 -0.0295
  212MOL0     C29184   4.755   9.459   6.527  0.5087  0.1992  0.4252
  212MOL0     C29185   4.763   9.382   6.646  0.5932 -0.8682  0.3564
  212MOL0     C29186   4.885   9.404   6.731 -0.6117  0.1591 -0.9667
  212MOL0     H29187   4.608   8.963   7.008  1.3399 -0.7835  1.1907
  212MOL0     H29188   4.651   8.912   7.224 -0.6142 -0.0122  0.3285
  212MOL0     H29189   4.632   8.955   7.422 -1.9446 -1.3154  2.1898
  212MOL0     H29190   4.731   8.974   7.570 -0.6933 -0.5947  0.3875
  212MOL0     H29191   4.671   8.738   7.515  0.3241 -0.5325  1.0429
  212MOL0     H29192   4.732   8.751   7.361 -1.2204 -0.8757 -0.1339
  212MOL0     H29193   4.900   8.641   7.512 -1.4868 -1.1148  3.2842
  212MOL0     H29194   4.975   8.803   7.486 -1.1712  4.1052  0.4262
  212MOL0     H29195   4.921   8.895   7.674  0.3330 -0.6029  0.2154
  212MOL0     H29196   4.801   8.785   7.735 -0.6288  1.5335 -0.8543
  212MOL0     H29197   5.096   8.707   7.683 -1.9447  1.1671 -2.6186
  212MOL0     H29198   4.973   8.603   7.744 -1.7283  0.5186 -0.2978
  212MOL0     H29199   5.051   8.867   7.893 -4.2508  0.1565  3.2763
  212MOL0     H29200   4.940   8.739   7.939 -1.0189 -2.0410  0.0760
  212MOL0     H29201   5.128   8.723   8.060 -2.1377 -5.9989  1.2016
  212MOL0     H29202   5.230   8.756   7.918 -1.5005  1.8980 -0.6966
  212MOL0     H29203   5.052   8.511   7.998 -1.2350  0.8451 -0.8427
  212MOL0     H29204   5.145   8.499   7.852  0.0433  1.6974  0.2994
  212MOL0     H29205   5.404   8.650   8.034  0.0489  0.6786  1.0618
  212MOL0     H29206   5.531   8.536   8.344 -1.3504 -0.0598 -0.1325
  212MOL0     H29207   5.598   8.599   8.185  0.5971  0.5515 -0.5231
  212MOL0     H29208   5.605   8.299   8.260 -1.4922  0.2854  1.7556
  212MOL0     H29209   5.656   8.385   8.110 -1.5270  1.8489  0.3243
  212MOL0     H29210   5.793   8.531   8.247 -2.0567  1.4004  2.6673
  212MOL0     H29211   5.765   8.427   8.391 -2.1247 -1.0867  0.3692
  212MOL0     H29212   5.845   8.262   8.175 -0.4802  1.5070 -2.7701
  212MOL0     H29213   5.948   8.404   8.167 -1.7301 -0.3032 -1.7597
  212MOL0     H29214   5.962   8.057   8.378  0.1989 -1.0302  0.9281
  212MOL0     H29215   6.204   7.807   8.369 -0.0202  2.0109  1.6131
  212MOL0     H29216   6.113   7.800   8.217  1.1706 -2.8390  1.3521
  212MOL0     H29217   6.030   7.846   8.368  0.2078  1.9025  0.5025
  212MOL0     H29218   6.725   8.089   8.079  2.0966 -0.4319 -0.1411
  212MOL0     H29219   6.970   7.984   8.105 -0.4481  1.6880 -0.1695
  212MOL0     H29220   7.030   7.649   8.021  3.3171 -0.5733 -3.2821
  212MOL0     H29221   7.102   7.816   8.050 -1.3161  1.3592 -0.6647
  212MOL0     H29222   7.202   7.551   8.171  0.2845 -1.0887 -1.2805
  212MOL0     H29223   7.255   7.620   8.025  2.9832  0.1131  2.4534
  212MOL0     H29224   7.254   7.777   8.281 -0.8637  0.0020  0.0363
  212MOL0     H29225   7.345   7.821   8.142 -1.0424  1.1388  0.4106
  212MOL0     H29226   7.468   7.591   8.166  1.5659 -1.1440  1.4088
  212MOL0     H29227   7.382   7.569   8.318  0.4178 -0.4807  0.0278
  212MOL0     H29228   7.608   7.642   8.354  0.4994 -0.2156 -2.0842
  212MOL0     H29229   7.571   7.805   8.284 -0.0343 -0.5750 -1.7424
  212MOL0     H29230   7.416   7.687   8.511  1.3205 -0.5105  1.4143
  212MOL0     H29231   7.434   7.852   8.441  2.3683  1.2969  2.1889
  212MOL0     H29232   7.700   7.798   8.523 -1.1855 -0.8475 -0.8640
  212MOL0     H29233   7.612   7.659   8.589 -3.2620 -1.6194 -3.5404
  212MOL0     H29234   7.458   7.801   8.711  0.4516 -0.7475 -0.8625
  212MOL0     H29235   7.533   7.955   8.664 -0.3688 -0.5204  0.2021
  212MOL0     H29236   6.778   7.645   8.283  2.1444  0.3063  1.1925
  212MOL0     H29237   6.561   7.731   8.259 -1.8596  2.8003  2.8450
  212MOL0     H29238   6.384   8.201   8.158  0.1858 -0.6556 -1.2682
  212MOL0     H29239   6.198   8.358   8.219 -0.1578  0.9658  2.9693
  212MOL0     H29240   4.932   9.209   7.283  1.6074 -1.6055  0.4548
  212MOL0     H29241   4.899   9.262   7.023 -1.7305  1.0679  0.5686
  212MOL0     H29242   4.475   9.210   6.611  1.2797 -0.2766 -1.4054
  212MOL0     H29243   4.466   9.313   6.402  1.1599 -0.2740 -1.4324
  212MOL0     H29244   4.769   9.654   6.327 -0.7024  0.1071  0.5812
  212MOL0     H29245   4.822   9.524   6.228  1.2868  0.2832  1.5369
  212MOL0     H29246   4.683   9.573   6.054  1.7553 -1.4303  1.1319
  212MOL0     H29247   4.765   9.717   6.103 -4.3579  5.4998 -0.1487
  212MOL0     H29248   4.571   9.806   6.067  1.9602 -1.3644 -0.9630
  212MOL0     H29249   4.465   9.683   6.134 -0.3546  1.0637 -1.8165
  212MOL0     H29250   4.560   9.752   6.369 -0.2026 -4.6482 -2.7950
  212MOL0     H29251   4.434   9.843   6.294 -0.0526 -1.3381  0.1369
  212MOL0     H29252   4.778  10.089   6.383  0.1824  2.3343 -2.9147
  212MOL0     H29253   4.829   9.532   6.497  1.9694 -0.2005  2.7335
  212MOL0     H29254   4.926   9.505   6.723 -0.4535  0.3819  1.8536
  212MOL0     H29255   4.855   9.405   6.836  1.2172  4.0026 -0.2944
  212MOL0     H29256   4.960   9.331   6.699 -0.1241  1.5325 -3.2096
  213MOL0     O29257   8.547   9.437   3.687  0.2936  0.1832  0.4486
  213MOL0     C29258   8.433   9.388   3.658 -1.1704  0.8675 -0.0707
  213MOL0     O29259   8.320   9.463   3.633  0.3369 -0.5340 -0.3748
  213MOL0     C29260   8.337   9.597   3.608  0.1159 -0.1273 -0.9347
  213MOL0     C29261   8.433   9.657   3.514  0.2012  0.9021 -0.5447
  213MOL0     C29262   8.449   9.798   3.502 -0.2822  0.4891 -0.5851
  213MOL0     C29263   8.361   9.882   3.573  0.4393  0.4352 -0.4071
  213MOL0     O29264   8.359  10.021   3.568  0.5132  0.5087 -0.0546
  213MOL0     C29265   8.481  10.096   3.545 -0.6024  0.6105  0.3653
  213MOL0     C29266   8.454  10.218   3.445  0.4603  0.7204 -0.6692
  213MOL0     C29267   8.402  10.163   3.316  0.9135 -0.2923  0.2425
  213MOL0     C29268   8.395  10.283   3.218  0.0536 -0.9285 -0.3569
  213MOL0     C29269   8.276  10.278   3.121  0.8636  0.3785 -0.4534
  213MOL0     C29270   8.272  10.415   3.040 -0.1885  0.2136 -0.5191
  213MOL0     C29271   8.148  10.421   2.941 -0.2982 -0.2339 -0.8279
  213MOL0     C29272   8.176  10.526   2.834  0.0804  0.5447 -0.1874
  213MOL0     N29273   8.058  10.556   2.759 -0.5006 -0.1285  1.0273
  213MOL0     C29274   8.034  10.502   2.637  0.2670 -0.4877 -0.6685
  213MOL0     C29275   7.900  10.512   2.622  0.2927 -0.5433  0.0263
  213MOL0     C29276   7.834  10.436   2.522  0.4619  0.2832  0.0108
  213MOL0     C29277   7.899  10.482   2.389  0.5780  0.2604 -0.1658
  213MOL0     C29278   7.796  10.497   2.278 -0.9023 -0.1998 -0.1697
  213MOL0     C29279   7.690  10.386   2.248 -0.2131 -1.0115 -0.3115
  213MOL0     O29280   7.591  10.439   2.153 -0.2333 -0.6397 -0.3639
  213MOL0     C29281   7.485  10.358   2.111 -0.8330 -0.6494  0.1472
  213MOL0     C29282   7.428  10.388   1.990  1.0750  0.0200  0.6514
  213MOL0     C29283   7.333  10.303   1.933  1.2253 -0.3247  0.2891
  213MOL0     C29284   7.278  10.324   1.788 -0.7815 -0.7291 -0.6117
  213MOL0     C29285   7.294  10.190   2.008  0.4676 -0.5606  0.0141
  213MOL0     C29286   7.197  10.090   1.967  0.6960 -0.4822 -1.1235
  213MOL0     O29287   7.103  10.043   2.055 -0.2738  0.6822  0.8149
  213MOL0     C29288   7.008   9.950   2.012 -0.5826 -1.0773 -0.6215
  213MOL0     C29289   6.958   9.921   1.878 -0.0459  0.0795 -0.4037
  213MOL0     C29290   6.857   9.831   1.858 -0.0098 -0.8678  0.4702
  213MOL0     C29291   6.800   9.756   1.964  0.4510 -0.5167 -0.6370
  213MOL0     O29292   6.714   9.660   1.932 -0.1286  0.4396  1.0022
  213MOL0     C29293   6.675   9.550   2.012  0.3778  0.0753 -0.1067
  213MOL0     C29294   6.615   9.433   1.943  0.0326  0.4408  0.5130
  213MOL0     C29295   6.709   9.357   1.849  0.4712 -0.3098  0.1487
  213MOL0     C29296   6.820   9.294   1.925  0.3872  0.1326 -0.6609
  213MOL0     C29297   6.931   9.262   1.824 -0.9550  0.3481  0.4006
  213MOL0     C29298   7.074   9.253   1.899 -0.2753  0.1611 -0.0176
  213MOL0     C29299   7.098   9.108   1.956  1.4477 -0.0146  0.4205
  213MOL0     C29300   7.214   9.101   2.036 -0.9972  0.7663  0.7283
  213MOL0    Cl29301   7.359   9.180   1.980 -0.6096  0.1164  0.3445
  213MOL0     C29302   6.847   9.774   2.093  0.0411  0.9109  0.8789
  213MOL0     C29303   6.945   9.870   2.117 -0.4999 -0.1156 -0.3756
  213MOL0     O29304   7.218  10.043   1.860 -0.7842  1.0846  0.3608
  213MOL0     C29305   7.353  10.158   2.129 -0.1689 -0.0910  0.2872
  213MOL0     C29306   7.451  10.237   2.175  0.0361  0.1932  0.3505
  213MOL0     N29307   7.849  10.582   2.730 -1.0876 -0.7396 -0.0701
  213MOL0     N29308   7.948  10.611   2.810  0.0821 -0.0110  1.1470
  213MOL0     C29309   8.255   9.826   3.651 -0.4395  0.1307 -0.1797
  213MOL0     C29310   8.253   9.687   3.666  0.6123  0.1009  1.0103
  213MOL0     C29311   8.429   9.238   3.654  1.3449  0.4082  0.3011
  213MOL0     C29312   8.334   9.183   3.563 -0.2224  0.1518 -0.4748
  213MOL0     C29313   8.296   9.045   3.572 -0.1005 -0.4227 -0.3871
  213MOL0     C29314   8.359   8.966   3.665 -0.0229  0.0600  0.6112
  213MOL0     O29315   8.319   8.840   3.665  0.8001 -0.3093 -0.6729
  213MOL0     C29316   8.371   8.745   3.765  0.5965 -0.2522  0.9919
  213MOL0     C29317   8.304   8.763   3.897  0.3398  0.7327 -0.8688
  213MOL0     C29318   8.160   8.708   3.908  0.1785 -0.1209  0.4184
  213MOL0     C29319   8.118   8.681   4.045  0.3776  0.3183 -0.5358
  213MOL0     C29320   7.974   8.643   4.037  0.4358 -1.3761 -0.0480
  213MOL0     C29321   7.862   8.594   4.021  0.1852 -0.5400 -0.2321
  213MOL0     C29322   8.456   9.015   3.750 -0.8805  0.4037 -0.4801
  213MOL0     C29323   8.489   9.153   3.747  0.7770 -0.2830  0.1362
  213MOL0     C29324   8.586   9.201   3.853  0.5416  1.6881 -0.4419
  213MOL0     H29325   8.502   9.591   3.462  0.7702  0.7571  0.3790
  213MOL0     H29326   8.528   9.833   3.437 -1.6895 -0.6407 -3.0659
  213MOL0     H29327   8.563  10.046   3.492 -1.0512  1.4415 -1.1675
  213MOL0     H29328   8.514  10.127   3.644  0.1609  2.3831 -0.4179
  213MOL0     H29329   8.381  10.285   3.492 -0.0661 -1.1244  1.2627
  213MOL0     H29330   8.542  10.281   3.429 -0.1631  1.6617 -0.5164
  213MOL0     H29331   8.486  10.104   3.279  1.0959  0.1056  0.0128
  213MOL0     H29332   8.319  10.096   3.338 -0.5694  0.8728 -1.4396
  213MOL0     H29333   8.402  10.368   3.286 -3.2080 -1.9708  1.4646
  213MOL0     H29334   8.492  10.290   3.168 -0.7623  0.9744 -1.7974
  213MOL0     H29335   8.181  10.272   3.175  1.8671 -0.0332  1.3106
  213MOL0     H29336   8.269  10.192   3.053 -0.6905  1.1586 -1.3404
  213MOL0     H29337   8.280  10.506   3.101  3.3410  0.3185 -0.9320
  213MOL0     H29338   8.360  10.403   2.977  1.6434 -1.8204  2.1792
  213MOL0     H29339   8.057  10.440   2.998  0.6549  1.2150  0.3043
  213MOL0     H29340   8.136  10.331   2.880 -0.8849 -2.0154  1.7708
  213MOL0     H29341   8.217  10.616   2.882 -1.4616  1.1149  0.1310
  213MOL0     H29342   8.254  10.492   2.765 -1.6452 -2.1270 -0.9431
  213MOL0     H29343   8.094  10.448   2.565  1.8543 -0.4996  0.6207
  213MOL0     H29344   7.725  10.450   2.521  0.4211  0.3916 -2.7972
  213MOL0     H29345   7.839  10.328   2.538  1.7412  0.5504  1.6268
  213MOL0     H29346   7.951  10.577   2.400 -0.1882  0.5454  1.1874
  213MOL0     H29347   7.970  10.400   2.380 -0.3978 -0.5529 -0.7033
  213MOL0     H29348   7.741  10.590   2.298  1.8029  1.3150  0.6302
  213MOL0     H29349   7.845  10.524   2.185 -0.7592  0.9901  0.2262
  213MOL0     H29350   7.733  10.295   2.205  1.2936 -1.0239  1.1370
  213MOL0     H29351   7.632  10.366   2.338 -1.4104  0.7452 -0.6284
  213MOL0     H29352   7.450  10.479   1.936 -2.8801  0.0771 -1.2473
  213MOL0     H29353   7.264  10.430   1.763 -2.2558 -0.8832 -0.4827
  213MOL0     H29354   7.189  10.267   1.762 -1.0092 -1.0124  0.7150
  213MOL0     H29355   7.359  10.299   1.719 -2.6101 -2.4839 -2.2341
  213MOL0     H29356   6.995   9.967   1.787 -0.3962  0.8181 -0.1799
  213MOL0     H29357   6.825   9.820   1.755  2.1091 -0.3625 -0.2826
  213MOL0     H29358   6.761   9.528   2.076 -1.5353 -0.1246  2.5772
  213MOL0     H29359   6.595   9.582   2.079  2.7203  2.8355  1.6456
  213MOL0     H29360   6.581   9.358   2.015  3.2252 -1.0677  0.6143
  213MOL0     H29361   6.526   9.463   1.886  0.3924  1.4475  0.4561
  213MOL0     H29362   6.761   9.431   1.788  0.9059 -1.6035 -1.0939
  213MOL0     H29363   6.661   9.281   1.787  1.6049 -0.3934 -0.6462
  213MOL0     H29364   6.776   9.203   1.966  0.7567  0.6123  0.8627
  213MOL0     H29365   6.849   9.349   2.015  0.1617 -0.4992 -0.1960
  213MOL0     H29366   6.913   9.171   1.766  1.7402 -0.5050  0.7678
  213MOL0     H29367   6.944   9.345   1.754 -1.3180 -0.0356 -0.1209
  213MOL0     H29368   7.073   9.335   1.972 -1.1375 -0.4784  0.7096
  213MOL0     H29369   7.159   9.270   1.832  0.1632 -2.3526 -0.1842
  213MOL0     H29370   7.126   9.043   1.872  5.0654 -0.0774  1.5029
  213MOL0     H29371   7.007   9.079   2.010  1.4541  0.4460  0.6804
  213MOL0     H29372   7.242   8.997   2.056  1.4615  1.4408  1.0409
  213MOL0     H29373   7.193   9.145   2.134  2.1844  1.9215  0.9744
  213MOL0     H29374   6.816   9.715   2.178  0.5322 -1.3606 -0.4462
  213MOL0     H29375   6.980   9.874   2.219 -0.6013 -0.6887 -0.3122
  213MOL0     H29376   7.331  10.060   2.169 -2.8444 -0.2828 -1.3629
  213MOL0     H29377   7.513  10.209   2.259  0.0514  3.1674  1.4667
  213MOL0     H29378   8.179   9.873   3.712  0.0519  0.1167  0.4583
  213MOL0     H29379   8.184   9.654   3.742 -0.5475  0.0615 -0.0249
  213MOL0     H29380   8.302   9.237   3.475  0.8034  0.3638 -0.7297
  213MOL0     H29381   8.220   8.996   3.511 -0.1595 -1.3549  0.4097
  213MOL0     H29382   8.367   8.643   3.726 -1.1541  0.2940 -0.4192
  213MOL0     H29383   8.479   8.752   3.781  1.0277 -0.4647 -1.3726
  213MOL0     H29384   8.286   8.870   3.907  2.0435  1.0499 -1.0182
  213MOL0     H29385   8.368   8.708   3.967  0.3429  3.1489  1.1623
  213MOL0     H29386   8.090   8.778   3.862  0.7288  0.5067  0.5192
  213MOL0     H29387   8.159   8.611   3.858 -0.3329 -0.1460  0.4740
  213MOL0     H29388   8.151   8.760   4.114  3.8047  0.1000 -1.7113
  213MOL0     H29389   8.171   8.593   4.083  0.5610  0.1026 -1.2813
  213MOL0     H29390   7.773   8.538   3.999 -0.4338 -0.1846  1.2291
  213MOL0     H29391   8.487   8.960   3.838 -1.9145  0.6944  0.0850
  213MOL0     H29392   8.682   9.235   3.811  1.6668 -0.4297  0.2795
  213MOL0     H29393   8.557   9.283   3.919 -0.8782  0.3108  0.7196
  213MOL0     H29394   8.615   9.125   3.927 -0.9949  1.2914 -0.2176
  214MOL0     O29395   7.747   6.997   8.697 -0.6634 -0.0757 -0.6940
  214MOL0     C29396   7.841   6.956   8.766 -0.2109 -0.9130 -0.5709
  214MOL0     O29397   7.835   6.945   8.906  0.6416  0.6060  0.4695
  214MOL0     C29398   7.712   6.957   8.957 -0.3331 -0.3247 -0.2896
  214MOL0     C29399   7.687   7.055   9.061  0.0284 -0.3557  0.9518
  214MOL0     C29400   7.559   7.070   9.115 -0.1386 -0.2231  0.0022
  214MOL0     C29401   7.452   6.995   9.081  0.0051 -0.0153  0.3634
  214MOL0     O29402   7.324   7.018   9.126  0.4397 -0.2276 -0.3969
  214MOL0     C29403   7.250   7.084   9.028  0.2353 -0.5703 -1.3143
  214MOL0     C29404   7.118   7.100   9.081 -0.2234  0.0387 -0.6241
  214MOL0     C29405   7.116   7.231   9.173 -0.2889  0.0982 -0.6069
  214MOL0     C29406   7.029   7.232   9.299 -0.3728  0.2584  0.4683
  214MOL0     C29407   6.906   7.317   9.287 -0.5068 -0.1998  0.8034
  214MOL0     C29408   6.809   7.259   9.180 -0.3411  0.2505  0.1548
  214MOL0     C29409   6.685   7.346   9.158 -0.3428  0.0720 -0.5416
  214MOL0     C29410   6.594   7.292   9.048  0.4919 -0.3843  0.3465
  214MOL0     N29411   6.482   7.382   9.001 -0.3257 -0.9526 -0.3716
  214MOL0     C29412   6.450   7.494   9.066  0.2578 -0.3136  0.5974
  214MOL0     C29413   6.362   7.546   8.982 -0.3479 -0.1562  1.0639
  214MOL0     C29414   6.299   7.682   9.006  0.4033 -0.7813 -0.5483
  214MOL0     C29415   6.246   7.714   9.148 -0.5194 -1.3842 -0.2059
  214MOL0     C29416   6.163   7.839   9.139 -0.9851 -0.0337  0.1452
  214MOL0     C29417   6.232   7.956   9.062  0.0046  0.6157  0.5726
  214MOL0     O29418   6.357   7.991   9.125  0.2718  0.7921  0.1509
  214MOL0     C29419   6.426   8.101   9.084 -0.4782  0.1344 -0.1649
  214MOL0     C29420   6.390   8.181   8.979  1.2673  0.7250 -1.1125
  214MOL0     C29421   6.464   8.284   8.933  0.1821 -0.1592  0.4075
  214MOL0     C29422   6.396   8.362   8.826 -0.0672 -0.2823  0.7047
  214MOL0     C29423   6.587   8.313   9.002 -0.4453  0.2777 -0.8621
  214MOL0     C29424   6.691   8.405   8.956 -0.2812  0.5143  0.1282
  214MOL0     O29425   6.815   8.383   8.999 -0.1457 -0.3740 -0.2862
  214MOL0     C29426   6.941   8.418   8.960  0.3044  0.3503  0.4484
  214MOL0     C29427   6.983   8.435   8.828  0.5019  0.2905  0.5567
  214MOL0     C29428   7.116   8.471   8.801  0.0600  0.8520 -0.3702
  214MOL0     C29429   7.203   8.502   8.897  1.0006  0.3372 -0.9431
  214MOL0     O29430   7.335   8.536   8.881 -0.4802  0.3851  0.1608
  214MOL0     C29431   7.411   8.530   8.759  0.2078  0.1588  0.6012
  214MOL0     C29432   7.553   8.577   8.794  0.9347 -0.6854  0.2228
  214MOL0     C29433   7.620   8.488   8.900 -0.3563  0.8630 -0.0285
  214MOL0     C29434   7.769   8.533   8.928  0.4252  0.5217 -0.1840
  214MOL0     C29435   7.838   8.457   9.043 -0.3020 -0.2084  0.0212
  214MOL0     C29436   7.974   8.509   9.065 -0.0800 -0.3160  0.4579
  214MOL0     C29437   8.063   8.529   8.937 -1.5844 -0.5669 -0.4197
  214MOL0     C29438   8.205   8.557   8.995 -0.1021 -1.3725  0.2443
  214MOL0    Cl29439   8.190   8.732   9.065  0.1270 -0.0250 -0.0295
  214MOL0     C29440   7.163   8.495   9.031  0.2387 -0.2927 -0.0841
  214MOL0     C29441   7.036   8.439   9.065 -0.3141  0.0241  1.2790
  214MOL0     O29442   6.663   8.486   8.873  0.0435  0.0753  0.4018
  214MOL0     C29443   6.622   8.237   9.115 -0.0278  0.2351  0.0125
  214MOL0     C29444   6.546   8.117   9.147 -0.7768  1.1985  0.1752
  214MOL0     N29445   6.339   7.471   8.878 -0.8817  0.2211 -0.7947
  214MOL0     N29446   6.418   7.373   8.878  0.5079  1.1287  0.2026
  214MOL0     C29447   7.473   6.886   8.984  0.0913 -0.4461  0.4485
  214MOL0     C29448   7.604   6.875   8.921  1.5976  0.1136 -0.0156
  214MOL0     C29449   7.968   6.943   8.702 -0.1776 -0.0949  0.2426
  214MOL0     C29450   7.987   6.885   8.566  0.0488 -0.0516  0.1605
  214MOL0     C29451   8.109   6.882   8.512  0.8941 -0.4439 -0.1206
  214MOL0     C29452   8.223   6.925   8.571  0.6525  0.0724  0.3427
  214MOL0     O29453   8.350   6.901   8.521 -0.2850 -0.7444  0.5366
  214MOL0     C29454   8.349   6.841   8.384  0.8630  0.7522 -0.6222
  214MOL0     C29455   8.487   6.841   8.322  0.1678 -0.4234 -1.0560
  214MOL0     C29456   8.488   6.824   8.167 -0.1047  0.2733 -0.5511
  214MOL0     C29457   8.621   6.812   8.108  0.3033  0.9735  0.5626
  214MOL0     C29458   8.694   6.932   8.129  0.5290 -0.3668  1.5465
  214MOL0     C29459   8.749   7.032   8.165 -0.2330 -0.2258  1.0755
  214MOL0     C29460   8.207   7.000   8.687 -1.0097 -0.0367  0.2180
  214MOL0     C29461   8.083   7.006   8.756  0.2578  0.2573  0.9180
  214MOL0     C29462   8.080   7.096   8.878 -0.0300  0.3542 -0.2805
  214MOL0     H29463   7.759   7.127   9.097 -0.8812  1.6662 -0.9967
  214MOL0     H29464   7.534   7.145   9.189 -1.0513 -0.6869  0.1790
  214MOL0     H29465   7.234   7.026   8.936 -0.5479  1.0912 -2.2929
  214MOL0     H29466   7.298   7.179   9.000 -2.6502  2.2878  2.3863
  214MOL0     H29467   7.058   7.118   8.991 -0.9947  1.2919  0.1068
  214MOL0     H29468   7.079   7.007   9.123 -3.9104  2.0683  0.8892
  214MOL0     H29469   7.211   7.272   9.208 -0.7597 -2.0167  4.0243
  214MOL0     H29470   7.075   7.307   9.106 -0.1022  0.7529  0.0035
  214MOL0     H29471   7.006   7.126   9.312 -0.6508  0.4242  1.4569
  214MOL0     H29472   7.084   7.272   9.385  0.0970  1.9829 -0.5997
  214MOL0     H29473   6.941   7.416   9.255 -0.0408 -0.3932  0.7080
  214MOL0     H29474   6.857   7.308   9.384 -0.0226  0.1256  1.0779
  214MOL0     H29475   6.867   7.253   9.087 -2.7111 -1.7189 -1.3253
  214MOL0     H29476   6.776   7.157   9.201 -0.4866 -0.0037 -1.2051
  214MOL0     H29477   6.714   7.446   9.123 -0.1111  1.0148  2.1085
  214MOL0     H29478   6.643   7.362   9.258 -0.3236  0.8964 -0.6527
  214MOL0     H29479   6.651   7.259   8.961  0.9991  0.4429  0.3587
  214MOL0     H29480   6.535   7.210   9.089 -0.5113  0.2141  0.1362
  214MOL0     H29481   6.488   7.535   9.159 -0.0382  0.6407  0.3143
  214MOL0     H29482   6.220   7.704   8.934  2.7437  4.3074 -2.0494
  214MOL0     H29483   6.372   7.761   8.984 -0.4183 -0.2101 -1.2793
  214MOL0     H29484   6.200   7.630   9.201 -1.4270 -0.8314 -0.0901
  214MOL0     H29485   6.330   7.751   9.207 -1.3718 -2.0821  1.5373
  214MOL0     H29486   6.072   7.800   9.091  1.0531 -1.8676 -2.5404
  214MOL0     H29487   6.140   7.866   9.242  2.0187  1.0072  0.6173
  214MOL0     H29488   6.253   7.926   8.959 -2.1782 -2.4293  0.8730
  214MOL0     H29489   6.172   8.048   9.064  0.9475  1.3281  4.2949
  214MOL0     H29490   6.290   8.167   8.940  1.6382  0.5924 -2.0451
  214MOL0     H29491   6.314   8.315   8.772  2.1054 -2.3441 -1.0516
  214MOL0     H29492   6.475   8.378   8.752  1.5306 -2.2987  1.8684
  214MOL0     H29493   6.361   8.461   8.856  2.3999  1.3880 -1.4074
  214MOL0     H29494   6.918   8.409   8.745  0.6697 -3.9763  1.4887
  214MOL0     H29495   7.160   8.486   8.703  5.1513  0.2293  1.5638
  214MOL0     H29496   7.412   8.425   8.729 -2.5756  0.3808 -0.5912
  214MOL0     H29497   7.362   8.602   8.693  0.5541  0.1551  0.3441
  214MOL0     H29498   7.607   8.559   8.700 -3.1990 -2.2652 -2.1048
  214MOL0     H29499   7.538   8.679   8.831 -5.8815 -2.2764  3.3047
  214MOL0     H29500   7.632   8.390   8.853  0.0720  0.1105  1.5529
  214MOL0     H29501   7.552   8.473   8.985 -0.8316  0.0171 -0.5480
  214MOL0     H29502   7.752   8.638   8.952  1.5196  1.4409 -3.0451
  214MOL0     H29503   7.833   8.519   8.840 -0.8887  0.6358 -1.2048
  214MOL0     H29504   7.785   8.450   9.138  2.0115 -0.1624  1.3956
  214MOL0     H29505   7.848   8.352   9.013 -2.0895 -0.6452  0.8522
  214MOL0     H29506   8.018   8.439   9.136 -0.6876 -0.5047  0.6555
  214MOL0     H29507   7.964   8.606   9.114  1.3572  1.3968 -2.3517
  214MOL0     H29508   8.038   8.608   8.865 -1.1187  0.0249  0.0519
  214MOL0     H29509   8.063   8.434   8.883 -2.2779 -2.1378  2.1739
  214MOL0     H29510   8.288   8.555   8.923  0.5912 -1.5617  1.0362
  214MOL0     H29511   8.231   8.478   9.065  0.4635  0.7776  2.5787
  214MOL0     H29512   7.217   8.528   9.120 -1.9657  0.3189  1.0913
  214MOL0     H29513   6.999   8.438   9.167 -1.1020 -2.9652  1.0596
  214MOL0     H29514   6.714   8.255   9.169 -1.9327  3.2738  2.6468
  214MOL0     H29515   6.581   8.040   9.214 -1.0985 -0.4748 -1.5112
  214MOL0     H29516   7.394   6.815   8.964  0.4030 -0.3342 -1.3426
  214MOL0     H29517   7.611   6.794   8.850 -1.8047 -0.9043  0.6493
  214MOL0     H29518   7.919   6.814   8.520  0.3219  1.5192 -2.9412
  214MOL0     H29519   8.109   6.824   8.420 -1.4697  0.4317 -0.7611
  214MOL0     H29520   8.307   6.741   8.399  2.4460  0.0914 -0.4015
  214MOL0     H29521   8.282   6.893   8.315  1.0444  0.0667 -1.3288
  214MOL0     H29522   8.545   6.771   8.384 -0.1021  2.4951  2.9470
  214MOL0     H29523   8.533   6.938   8.346  0.0111 -0.9313  1.6680
  214MOL0     H29524   8.426   6.738   8.140 -0.1123 -0.3704  1.3820
  214MOL0     H29525   8.448   6.918   8.128  1.5778  1.8112  1.2041
  214MOL0     H29526   8.608   6.797   8.000  0.5485 -1.4991  0.8279
  214MOL0     H29527   8.663   6.725   8.158  2.1780  1.4670 -0.0751
  214MOL0     H29528   8.811   7.109   8.206 -0.1647  1.8524 -2.4815
  214MOL0     H29529   8.292   7.048   8.735 -0.5791  0.3266 -0.8646
  214MOL0     H29530   8.140   7.049   8.957  2.4605  0.0440 -2.2555
  214MOL0     H29531   8.130   7.192   8.860  0.9525 -0.4747 -2.2147
  214MOL0     H29532   7.980   7.125   8.914 -0.0484 -0.1766  0.0984
  215MOL0     O29533   3.101   2.504   0.270  0.5013  0.4973  0.8131
  215MOL0     C29534   3.074   2.543   0.378  0.6385 -0.3867 -0.3833
  215MOL0     O29535   3.063   2.464   0.486 -0.5951 -0.7203  0.2887
  215MOL0     C29536   3.104   2.335   0.475  0.1181  0.3615  0.6995
  215MOL0     C29537   3.228   2.294   0.520 -0.1907 -0.6505 -0.8681
  215MOL0     C29538   3.265   2.157   0.533  0.7632 -0.4052  0.6741
  215MOL0     C29539   3.174   2.057   0.493 -0.6963  0.0771  0.6839
  215MOL0     O29540   3.195   1.918   0.489 -0.0572 -0.3074 -0.4539
  215MOL0     C29541   3.256   1.882   0.614  0.7447 -0.5729  0.9457
  215MOL0     C29542   3.237   1.740   0.642 -0.4472  0.9791  0.1083
  215MOL0     C29543   3.084   1.701   0.671 -0.7154  0.6315  0.2627
  215MOL0     C29544   3.083   1.562   0.720 -0.0769  0.9542 -0.6682
  215MOL0     C29545   2.944   1.487   0.694 -1.3635  0.4400 -0.4919
  215MOL0     C29546   2.973   1.349   0.741 -0.5921  1.0194  0.0329
  215MOL0     C29547   2.853   1.260   0.702 -1.2263  0.6598  0.4606
  215MOL0     C29548   2.843   1.246   0.548 -0.3863 -0.2488 -0.8172
  215MOL0     N29549   2.781   1.112   0.507  0.6836  0.0283 -0.0094
  215MOL0     C29550   2.837   1.000   0.449  0.9673  0.7126 -0.1092
  215MOL0     C29551   2.744   0.904   0.446  0.6097  0.0479  0.2349
  215MOL0     C29552   2.760   0.767   0.385  0.4925  0.4471 -0.0935
  215MOL0     C29553   2.630   0.680   0.385 -0.2880  0.3695  0.2676
  215MOL0     C29554   2.515   0.743   0.296 -0.3512 -0.0597  0.0891
  215MOL0     C29555   2.390   0.654   0.273 -0.8279 -0.9718  0.2792
  215MOL0     O29556   2.435   0.526   0.246 -0.0331 -0.4203  0.0050
  215MOL0     C29557   2.417   0.492   0.112 -0.0469 -0.7662 -0.9642
  215MOL0     C29558   2.428   0.361   0.074  0.4398  0.2536 -0.5951
  215MOL0     C29559   2.416   0.314  -0.057 -0.2041  0.0537 -0.6443
  215MOL0     C29560   2.450   0.171  -0.064 -0.2677 -0.0448 -0.0583
  215MOL0     C29561   2.378   0.400  -0.163 -0.2939 -0.6092  0.0867
  215MOL0     C29562   2.367   0.353  -0.298  0.3312  0.5778  0.5489
  215MOL0     O29563   2.250   0.392  -0.363 -0.7823  0.3626  0.8742
  215MOL0     C29564   2.214   0.348  -0.485 -1.2269 -0.0721 -0.3454
  215MOL0     C29565   2.217   0.207  -0.503  0.7880  0.3321 -0.5021
  215MOL0     C29566   2.189   0.163  -0.633  0.4021 -0.5475  0.1271
  215MOL0     C29567   2.157   0.249  -0.739 -0.4620 -0.7247  0.5883
  215MOL0     O29568   2.162   0.217  -0.875 -0.7986  0.7401  0.1036
  215MOL0     C29569   2.127   0.079  -0.900 -1.1407  0.0082 -0.1017
  215MOL0     C29570   2.131   0.054  -1.050  0.1313 -0.9990 -0.3004
  215MOL0     C29571   2.076   0.168  -1.142  1.2598  0.7693 -0.4338
  215MOL0     C29572   1.934   0.165  -1.153 -0.3221 -0.1798 -0.1613
  215MOL0     C29573   1.850   0.188  -1.031  0.2931  1.2026 -0.4826
  215MOL0     C29574   1.708   0.222  -1.071 -0.4005 -0.7298  0.3288
  215MOL0     C29575   1.651   0.326  -0.976  0.7162 -0.5840  0.0596
  215MOL0     C29576   1.494   0.337  -0.997 -0.3107 -0.4084 -0.7802
  215MOL0    Cl29577   1.424   0.222  -0.897 -0.0957  0.1516 -0.4889
  215MOL0     C29578   2.145   0.384  -0.716  1.2055 -0.4328  0.5448
  215MOL0     C29579   2.163   0.428  -0.587 -0.7494 -1.0327  0.3654
  215MOL0     O29580   2.467   0.289  -0.347  0.5751 -0.2172  0.8583
  215MOL0     C29581   2.372   0.538  -0.133 -1.2077  0.7606 -0.3796
  215MOL0     C29582   2.402   0.580   0.001 -0.0767 -0.3994 -0.6671
  215MOL0     N29583   2.634   0.956   0.524 -0.1846  1.0530  0.0902
  215MOL0     N29584   2.661   1.079   0.556  0.5935  0.5481 -1.0322
  215MOL0     C29585   3.050   2.095   0.442 -0.8023  0.2260 -0.8569
  215MOL0     C29586   3.023   2.234   0.425 -0.6180  0.1540  1.5169
  215MOL0     C29587   3.057   2.694   0.389  0.9671 -0.1903 -0.1027
  215MOL0     C29588   3.008   2.766   0.278  0.5728 -0.3931  0.2143
  215MOL0     C29589   2.981   2.900   0.295 -0.8379  0.8041  0.5791
  215MOL0     C29590   2.994   2.966   0.417  0.3687 -0.3243 -1.0785
  215MOL0     O29591   2.970   3.099   0.447 -0.5985 -0.9814 -0.2967
  215MOL0     C29592   2.998   3.203   0.350  0.6034 -0.0261 -0.6657
  215MOL0     C29593   2.952   3.348   0.405  0.1600  0.1301 -0.6326
  215MOL0     C29594   2.803   3.365   0.443  0.9874 -0.4158 -0.8019
  215MOL0     C29595   2.685   3.314   0.336  0.4543 -0.8940 -0.1064
  215MOL0     C29596   2.715   3.365   0.200 -0.0188  0.3198 -0.0075
  215MOL0     C29597   2.761   3.425   0.103  0.2576  0.5181  0.0027
  215MOL0     C29598   3.040   2.901   0.525 -1.0959  0.8379 -0.7041
  215MOL0     C29599   3.082   2.762   0.515  0.4421 -0.0373  1.0302
  215MOL0     C29600   3.157   2.693   0.625 -0.3417 -0.5371 -0.0701
  215MOL0     H29601   3.306   2.358   0.560 -0.3388 -1.2576  0.4576
  215MOL0     H29602   3.367   2.129   0.560  2.6422  1.9764 -3.0213
  215MOL0     H29603   3.220   1.934   0.703 -2.0376 -1.2763  0.3094
  215MOL0     H29604   3.365   1.896   0.610  0.6220  0.6133  1.4435
  215MOL0     H29605   3.269   1.677   0.559  0.2349 -1.6801  2.2581
  215MOL0     H29606   3.305   1.707   0.721  0.5362  1.1324 -0.6512
  215MOL0     H29607   3.028   1.767   0.738 -5.8807 -2.9282  0.0604
  215MOL0     H29608   3.032   1.722   0.577  0.7001  4.0072  0.0824
  215MOL0     H29609   3.156   1.505   0.661 -0.7153 -1.0700  0.4023
  215MOL0     H29610   3.124   1.547   0.820 -0.1944 -3.0780 -1.0687
  215MOL0     H29611   2.925   1.491   0.586 -1.3708  0.9919 -0.4733
  215MOL0     H29612   2.858   1.538   0.738 -0.2963  2.1852 -0.3359
  215MOL0     H29613   3.070   1.305   0.714 -1.3641  0.1628 -1.5021
  215MOL0     H29614   2.973   1.354   0.850 -3.1825  0.4712  0.1195
  215MOL0     H29615   2.756   1.291   0.740 -1.8069 -1.5586  0.9218
  215MOL0     H29616   2.877   1.162   0.745 -0.5471  1.3205  1.6697
  215MOL0     H29617   2.794   1.336   0.509 -2.0911 -1.5123 -1.7729
  215MOL0     H29618   2.946   1.249   0.512 -0.2628  2.7668 -0.4802
  215MOL0     H29619   2.939   0.997   0.412  1.4261  3.4505  0.7067
  215MOL0     H29620   2.840   0.724   0.446  0.0696  1.1085  0.9582
  215MOL0     H29621   2.794   0.789   0.283 -0.0162  1.2895 -0.0925
  215MOL0     H29622   2.654   0.579   0.350  0.9917  0.2167  1.5538
  215MOL0     H29623   2.583   0.665   0.482  3.9271 -0.0017  2.4453
  215MOL0     H29624   2.488   0.840   0.337 -1.2694 -0.6717  0.9791
  215MOL0     H29625   2.552   0.766   0.196 -1.0112  1.6649  0.2014
  215MOL0     H29626   2.318   0.655   0.356 -0.9154  1.7536  0.2727
  215MOL0     H29627   2.329   0.700   0.194  1.9801  2.6352 -0.0528
  215MOL0     H29628   2.431   0.293   0.158  0.5197  2.0368  0.8988
  215MOL0     H29629   2.540   0.144  -0.008  2.3626  0.7496 -3.5276
  215MOL0     H29630   2.470   0.140  -0.167  2.6444  0.9433  0.1294
  215MOL0     H29631   2.375   0.111  -0.011  0.8259 -0.7760  0.7122
  215MOL0     H29632   2.248   0.152  -0.414  1.3245 -1.1184 -1.5424
  215MOL0     H29633   2.190   0.055  -0.646  1.7121 -0.4726 -0.6499
  215MOL0     H29634   2.204   0.018  -0.851 -0.1685 -1.1001 -2.8107
  215MOL0     H29635   2.030   0.049  -0.859 -1.9912  0.1300 -1.9149
  215MOL0     H29636   2.239   0.058  -1.064  0.7230  0.7889  3.5840
  215MOL0     H29637   2.090  -0.042  -1.082 -0.9090 -0.0979 -1.8801
  215MOL0     H29638   2.109   0.151  -1.245 -1.3525 -1.0053 -1.0774
  215MOL0     H29639   2.107   0.268  -1.108  1.3838  1.7302 -3.0855
  215MOL0     H29640   1.907   0.077  -1.213  3.8542 -2.3955  0.7920
  215MOL0     H29641   1.908   0.250  -1.216 -0.7030 -0.3290 -0.2072
  215MOL0     H29642   1.853   0.103  -0.962 -1.0994  1.6398  0.1413
  215MOL0     H29643   1.892   0.278  -0.986  1.7262  0.7818 -0.9200
  215MOL0     H29644   1.652   0.129  -1.061  1.2683 -1.6723  1.2226
  215MOL0     H29645   1.704   0.261  -1.173  0.4174 -0.4469  0.3963
  215MOL0     H29646   1.702   0.419  -1.004  0.4827 -0.9787 -1.8123
  215MOL0     H29647   1.679   0.300  -0.874 -2.0829  1.1483  1.4177
  215MOL0     H29648   1.457   0.316  -1.097 -0.2780  2.2839 -1.4322
  215MOL0     H29649   1.461   0.440  -0.976  0.2221 -0.7336  2.1888
  215MOL0     H29650   2.139   0.455  -0.798  0.5027  0.1009  1.0521
  215MOL0     H29651   2.156   0.536  -0.574 -0.3518 -1.0302  0.5629
  215MOL0     H29652   2.366   0.601  -0.221 -1.3117  0.0435 -0.8916
  215MOL0     H29653   2.432   0.684   0.006 -0.8690  0.0057 -2.9924
  215MOL0     H29654   2.995   2.009   0.407 -0.0508  0.1562 -1.8964
  215MOL0     H29655   2.924   2.259   0.387 -0.6979 -2.2414 -0.0153
  215MOL0     H29656   2.983   2.719   0.183  1.4719  1.0632 -0.8024
  215MOL0     H29657   2.953   2.958   0.208  0.4732  2.6048  1.3229
  215MOL0     H29658   3.107   3.200   0.345  0.6174 -0.1986 -0.3405
  215MOL0     H29659   2.953   3.182   0.253  0.4174 -0.6764 -0.4463
  215MOL0     H29660   2.969   3.406   0.313 -0.5805 -2.9008 -2.8360
  215MOL0     H29661   3.023   3.373   0.485 -1.4062  0.4100  0.7179
  215MOL0     H29662   2.784   3.330   0.545 -1.0271  4.4718  0.8013
  215MOL0     H29663   2.781   3.473   0.445 -3.1544 -1.0868 -0.0149
  215MOL0     H29664   2.585   3.351   0.360  0.1498  0.6757 -3.2077
  215MOL0     H29665   2.683   3.205   0.330 -0.4060 -0.8941  0.0341
  215MOL0     H29666   2.799   3.474   0.016 -1.2109 -0.2118 -1.1031
  215MOL0     H29667   3.050   2.948   0.622 -0.4774  1.4031 -1.0308
  215MOL0     H29668   3.208   2.765   0.689  0.4391 -1.0935 -0.0487
  215MOL0     H29669   3.086   2.642   0.690  1.1998  0.1443  2.2910
  215MOL0     H29670   3.234   2.625   0.586  1.3298  1.3977 -0.3092
  216MOL0     O29671  10.795   2.335   8.519  0.5937  0.0966  0.2309
  216MOL0     C29672  10.755   2.355   8.410 -0.4039  0.3467 -0.3882
  216MOL0     O29673  10.753   2.259   8.306  0.0374 -0.1122  0.0120
  216MOL0     C29674  10.703   2.135   8.348  0.2411 -0.7706  1.0947
  216MOL0     C29675  10.564   2.125   8.340  0.1849 -0.4826 -0.5006
  216MOL0     C29676  10.498   2.012   8.390 -0.5569  0.9005 -0.1071
  216MOL0     C29677  10.571   1.913   8.457  0.4424  0.3719 -0.4279
  216MOL0     O29678  10.497   1.804   8.502  0.5618 -0.1401 -0.6391
  216MOL0     C29679  10.458   1.805   8.636  0.2464  0.8332  0.0378
  216MOL0     C29680  10.367   1.686   8.664  0.5738  0.5456  0.2097
  216MOL0     C29681  10.220   1.700   8.612  0.1785  0.0527 -0.0918
  216MOL0     C29682  10.149   1.825   8.670  0.3888  0.4441  0.2125
  216MOL0     C29683  10.002   1.815   8.641  0.1412  0.1637 -0.0128
  216MOL0     C29684   9.914   1.938   8.702 -0.7807 -0.7650 -0.1498
  216MOL0     C29685   9.783   1.936   8.633 -0.1477 -1.1212  0.1849
  216MOL0     C29686   9.694   2.054   8.675  0.0302 -0.5647  0.4532
  216MOL0     N29687   9.746   2.194   8.685 -0.4977  0.7334  0.7718
  216MOL0     C29688   9.851   2.259   8.618 -1.1887 -0.0223 -0.2859
  216MOL0     C29689   9.840   2.390   8.636  0.4380  0.4361 -0.2465
  216MOL0     C29690   9.925   2.501   8.593 -0.6358 -0.0177 -0.2490
  216MOL0     C29691   9.835   2.594   8.508 -0.2020  0.2004 -0.1971
  216MOL0     C29692   9.928   2.667   8.405  0.0670  0.3112 -0.3862
  216MOL0     C29693   9.861   2.778   8.324 -0.4238  0.6541  0.5527
  216MOL0     O29694   9.946   2.873   8.272  0.1335  0.0738  0.0612
  216MOL0     C29695   9.889   2.990   8.210 -0.1151  1.2431  0.0348
  216MOL0     C29696   9.764   3.052   8.243  0.4083 -0.9411  0.4237
  216MOL0     C29697   9.721   3.168   8.169  0.3986 -0.1705  0.0119
  216MOL0     C29698   9.584   3.224   8.218 -1.1568 -0.6902  0.4332
  216MOL0     C29699   9.795   3.208   8.060 -0.2193 -0.5799  0.5704
  216MOL0     C29700   9.738   3.315   7.963 -1.2700 -0.9609  0.6851
  216MOL0     O29701   9.830   3.358   7.865 -0.0929  1.0055 -0.8606
  216MOL0     C29702   9.784   3.401   7.744 -0.4520  0.1605  0.7020
  216MOL0     C29703   9.785   3.534   7.715 -0.0119 -0.5707 -0.0290
  216MOL0     C29704   9.764   3.568   7.587 -0.1425 -0.3615  0.7331
  216MOL0     C29705   9.736   3.474   7.490 -0.6388  0.0555 -0.1965
  216MOL0     O29706   9.707   3.516   7.361 -0.8274 -0.9001 -0.3782
  216MOL0     C29707   9.815   3.561   7.275  0.3474 -0.5318  0.1453
  216MOL0     C29708   9.788   3.548   7.123 -0.4170 -0.0661 -0.0455
  216MOL0     C29709   9.716   3.679   7.066  0.2041  0.5883  0.5397
  216MOL0     C29710   9.772   3.724   6.930 -0.5424 -0.0552  0.5157
  216MOL0     C29711   9.680   3.815   6.856 -0.2637  0.0917  0.0318
  216MOL0     C29712   9.698   3.820   6.705 -0.0600 -0.3551 -1.0426
  216MOL0     C29713   9.843   3.845   6.655  0.5397 -0.1018 -0.1104
  216MOL0     C29714   9.857   3.826   6.505  0.2636  0.7859 -0.2250
  216MOL0    Cl29715   9.768   3.952   6.407  0.0563 -0.2489  0.0190
  216MOL0     C29716   9.734   3.333   7.522  0.1565  0.0570 -0.1649
  216MOL0     C29717   9.752   3.302   7.655 -0.1473 -0.0225  0.2657
  216MOL0     O29718   9.623   3.349   7.968 -0.5970  0.9433 -0.8706
  216MOL0     C29719   9.918   3.150   8.030 -0.4650 -0.3999  0.1194
  216MOL0     C29720   9.966   3.049   8.111  0.3236  0.5425 -1.0026
  216MOL0     N29721   9.713   2.407   8.704 -0.8628 -0.3334  0.1051
  216MOL0     N29722   9.662   2.292   8.732 -0.5292 -0.4169  0.3331
  216MOL0     C29723  10.709   1.917   8.461  0.2575 -0.8179  0.6119
  216MOL0     C29724  10.775   2.035   8.408 -0.1167  0.1042 -0.1393
  216MOL0     C29725  10.712   2.490   8.365 -0.9295 -0.8376  1.0356
  216MOL0     C29726  10.701   2.512   8.227 -0.6836 -0.6205  0.0303
  216MOL0     C29727  10.670   2.632   8.164  0.3329  0.9676  0.0412
  216MOL0     C29728  10.646   2.742   8.241  0.8449  0.0696  1.4329
  216MOL0     O29729  10.616   2.861   8.180 -0.4497  0.2080  0.6398
  216MOL0     C29730  10.712   2.905   8.080 -0.2759 -0.5200  0.1932
  216MOL0     C29731  10.634   3.018   8.010  0.2449 -0.1283 -1.2668
  216MOL0     C29732  10.516   2.971   7.915  0.6928 -1.1154  0.0676
  216MOL0     C29733  10.574   2.936   7.773 -0.4456  0.7200 -0.0156
  216MOL0     C29734  10.598   2.793   7.746  0.1275  0.4278  0.5515
  216MOL0     C29735  10.604   2.679   7.708 -0.9412 -0.2626  0.2730
  216MOL0     C29736  10.641   2.727   8.378 -0.6269 -0.3884  0.2438
  216MOL0     C29737  10.677   2.608   8.438  0.0609 -0.6332  0.7033
  216MOL0     C29738  10.663   2.606   8.594  0.1811 -0.7867 -0.6172
  216MOL0     H29739  10.512   2.206   8.289  0.4908 -1.6735 -2.8577
  216MOL0     H29740  10.390   2.002   8.378 -0.4318 -1.7335  0.4768
  216MOL0     H29741  10.403   1.892   8.672 -2.1180 -0.7262  0.4142
  216MOL0     H29742  10.547   1.804   8.699  0.7400 -0.3422 -0.6412
  216MOL0     H29743  10.423   1.601   8.625  2.4141  2.3814 -1.4231
  216MOL0     H29744  10.360   1.656   8.769 -3.0327 -2.3431 -0.6575
  216MOL0     H29745  10.225   1.706   8.503  3.6509  0.0639 -0.0638
  216MOL0     H29746  10.166   1.615   8.653  0.7513  0.5397  1.7693
  216MOL0     H29747  10.159   1.820   8.779  0.5920  0.2588  0.1869
  216MOL0     H29748  10.187   1.920   8.630 -1.8481 -0.4041 -4.6756
  216MOL0     H29749   9.970   1.713   8.666  4.1148 -1.6442 -1.4497
  216MOL0     H29750  10.001   1.825   8.532  0.6045  1.6152  0.0988
  216MOL0     H29751   9.903   1.940   8.810  2.0722  0.9919  0.2322
  216MOL0     H29752   9.964   2.033   8.682 -1.5345 -0.4307 -0.4763
  216MOL0     H29753   9.729   1.843   8.648  0.1644 -1.7824 -2.2498
  216MOL0     H29754   9.796   1.958   8.526 -1.9488 -4.0538 -0.7625
  216MOL0     H29755   9.605   2.076   8.615  1.9386  2.9469 -1.4099
  216MOL0     H29756   9.661   2.037   8.778  2.3286  3.9764  2.2395
  216MOL0     H29757   9.937   2.212   8.572 -0.2632  0.4241  0.9073
  216MOL0     H29758  10.006   2.452   8.538 -1.0882 -1.1811  0.0935
  216MOL0     H29759   9.961   2.558   8.679 -0.7694 -3.3877  2.2480
  216MOL0     H29760   9.755   2.540   8.457 -2.1389  1.3586  1.4551
  216MOL0     H29761   9.797   2.673   8.573 -0.0670  1.5069 -1.6431
  216MOL0     H29762  10.016   2.701   8.460  1.2996 -3.0679 -0.0807
  216MOL0     H29763   9.953   2.592   8.330  1.6268 -1.2120  1.5682
  216MOL0     H29764   9.820   2.716   8.244  3.0004  1.1515 -1.8100
  216MOL0     H29765   9.789   2.827   8.390 -2.4317 -1.1301 -0.1952
  216MOL0     H29766   9.697   3.014   8.319 -0.3396  0.7085  0.6435
  216MOL0     H29767   9.501   3.199   8.152 -1.0238 -0.0708  0.0251
  216MOL0     H29768   9.591   3.333   8.222  0.7982 -0.7223 -0.5830
  216MOL0     H29769   9.569   3.198   8.323 -0.4540 -3.4817 -0.0692
  216MOL0     H29770   9.825   3.593   7.797  1.1279 -0.6566 -0.5032
  216MOL0     H29771   9.770   3.669   7.548  0.0256 -0.4413  0.5541
  216MOL0     H29772   9.832   3.667   7.294 -4.4689  1.1881 -3.1746
  216MOL0     H29773   9.908   3.512   7.307  0.8202 -1.1404 -1.9856
  216MOL0     H29774   9.887   3.546   7.077  0.1178  0.1768  1.0478
  216MOL0     H29775   9.723   3.461   7.109 -1.0310  0.5007 -0.8000
  216MOL0     H29776   9.716   3.761   7.139 -2.0257 -0.6880  2.0861
  216MOL0     H29777   9.613   3.647   7.050  0.8428 -2.1772  1.4283
  216MOL0     H29778   9.794   3.641   6.862 -1.1969  0.6560 -0.6085
  216MOL0     H29779   9.869   3.765   6.957  1.5483 -4.8521  1.3246
  216MOL0     H29780   9.576   3.783   6.866  0.5110 -2.5707  0.5684
  216MOL0     H29781   9.702   3.907   6.911 -1.1620 -0.2920  1.0617
  216MOL0     H29782   9.628   3.900   6.678  0.3477  0.5859  0.5416
  216MOL0     H29783   9.658   3.725   6.667 -0.6545 -2.2816  3.6389
  216MOL0     H29784   9.922   3.785   6.701  0.2110  1.2936  2.4824
  216MOL0     H29785   9.862   3.949   6.685 -1.1000 -0.5917  3.0193
  216MOL0     H29786   9.825   3.728   6.469  1.6949  0.3226 -0.2643
  216MOL0     H29787   9.956   3.861   6.477 -1.0201  3.0073 -2.4793
  216MOL0     H29788   9.740   3.254   7.447  2.7285  1.5510 -1.6712
  216MOL0     H29789   9.748   3.199   7.689 -1.3808  0.1663  0.7336
  216MOL0     H29790   9.990   3.179   7.954  2.9014 -2.0416  2.4252
  216MOL0     H29791  10.067   3.014   8.092  0.2939 -0.2447  0.2236
  216MOL0     H29792  10.770   1.845   8.515  1.9508  0.0062 -0.1315
  216MOL0     H29793  10.883   2.045   8.420 -0.3701  0.2433  2.8569
  216MOL0     H29794  10.734   2.439   8.154  4.2293  0.6874  0.5514
  216MOL0     H29795  10.673   2.640   8.056 -1.1836  0.3528 -0.0806
  216MOL0     H29796  10.805   2.931   8.130 -0.8556 -2.0765  2.2160
  216MOL0     H29797  10.733   2.825   8.008 -1.1619  0.9549 -1.7837
  216MOL0     H29798  10.710   3.072   7.954  0.7914 -1.4940 -1.8871
  216MOL0     H29799  10.594   3.089   8.083  1.0408 -0.8888 -0.0358
  216MOL0     H29800  10.454   2.888   7.951 -5.0849  1.0198 -3.5351
  216MOL0     H29801  10.440   3.049   7.903 -1.5718 -3.3772 -1.4366
  216MOL0     H29802  10.673   2.982   7.765  0.0860 -0.5727 -1.3312
  216MOL0     H29803  10.513   2.972   7.690  1.1105 -1.0213 -2.0307
  216MOL0     H29804  10.602   2.578   7.671  0.3573 -0.1847 -0.0744
  216MOL0     H29805  10.610   2.817   8.431 -0.8012  1.1062 -2.2613
  216MOL0     H29806  10.589   2.679   8.626 -0.9628 -1.3665 -1.8339
  216MOL0     H29807  10.609   2.516   8.628 -4.0383  1.0981 -1.6765
  216MOL0     H29808  10.758   2.630   8.643 -0.3942  2.5044 -0.9092
  217MOL0     O29809  11.244  10.033   7.917  0.2041 -0.0731  1.1135
  217MOL0     C29810  11.338  10.107   7.886  0.7118  0.2455 -0.1241
  217MOL0     O29811  11.336  10.222   7.806 -0.1071 -0.8854  0.8508
  217MOL0     C29812  11.211  10.261   7.769 -0.1046  1.0736  0.6756
  217MOL0     C29813  11.141  10.176   7.672  0.0099 -0.7815 -1.6277
  217MOL0     C29814  11.019  10.223   7.631  0.6591 -0.0716 -0.7030
  217MOL0     C29815  10.978  10.352   7.661  0.7051 -0.1189 -0.8963
  217MOL0     O29816  10.862  10.413   7.614  0.2463 -0.5053  0.6435
  217MOL0     C29817  10.744  10.438   7.695 -0.4439 -0.0472  0.1009
  217MOL0     C29818  10.614  10.465   7.623  0.4377  0.1445 -0.2661
  217MOL0     C29819  10.499  10.495   7.729 -0.0499 -0.0811 -0.0181
  217MOL0     C29820  10.492  10.643   7.756  0.1304 -0.1700  0.4612
  217MOL0     C29821  10.368  10.699   7.816 -0.4109  0.3046 -0.2107
  217MOL0     C29822  10.316  10.618   7.937 -0.3592  0.0192  0.2334
  217MOL0     C29823  10.203  10.690   8.012  0.6803  0.8401 -1.1811
  217MOL0     C29824  10.071  10.707   7.930 -0.2840  1.0365  0.2206
  217MOL0     N29825   9.960  10.774   7.998  0.0721 -0.2589 -0.1618
  217MOL0     C29826   9.974  10.906   8.031  0.0124 -0.5372 -0.1490
  217MOL0     C29827   9.843  10.946   8.023 -1.0076  0.5233 -0.0564
  217MOL0     C29828   9.797  11.086   8.033  0.3872  0.2316  0.0991
  217MOL0     C29829   9.815  11.141   8.176  0.0420  0.0767 -0.1295
  217MOL0     C29830   9.677  11.138   8.248  0.3352 -0.4894  0.4639
  217MOL0     C29831   9.699  11.241   8.370  0.0159 -0.3350 -0.7045
  217MOL0     O29832   9.587  11.251   8.453 -0.6176 -0.4614  0.8579
  217MOL0     C29833   9.615  11.329   8.566  0.8685  0.7131 -0.1788
  217MOL0     C29834   9.724  11.407   8.597  0.4398 -0.4562  0.0083
  217MOL0     C29835   9.716  11.485   8.712 -0.0618 -0.4829  0.1839
  217MOL0     C29836   9.839  11.583   8.721 -0.1888 -1.6104  0.4692
  217MOL0     C29837   9.613  11.474   8.810 -0.6354  0.9946  0.0077
  217MOL0     C29838   9.594  11.542   8.936 -0.4302  0.1382  0.1034
  217MOL0     O29839   9.519  11.478   9.028  0.5098 -0.3153 -0.4405
  217MOL0     C29840   9.523  11.524   9.159  0.4382 -0.3684  0.0651
  217MOL0     C29841   9.632  11.487   9.244  0.0060  0.6989  0.5236
  217MOL0     C29842   9.646  11.532   9.376  0.1453 -0.2176  0.2528
  217MOL0     C29843   9.547  11.614   9.429  0.3377  1.1305  0.3605
  217MOL0     O29844   9.524  11.647   9.556 -0.0899 -0.0829 -0.3769
  217MOL0     C29845   9.580  11.576   9.666 -0.1383  0.4081 -0.8744
  217MOL0     C29846   9.560  11.664   9.789 -0.3969  0.4684 -0.2748
  217MOL0     C29847   9.570  11.576   9.918  0.5812 -0.2612 -0.0621
  217MOL0     C29848   9.446  11.491   9.957 -0.8670 -0.6078  0.5481
  217MOL0     C29849   9.473  11.402  10.070  0.1876  0.4508 -0.6867
  217MOL0     C29850   9.487  11.466  10.208 -0.1033 -0.0166  0.3754
  217MOL0     C29851   9.478  11.362  10.327 -0.7011 -0.5700  0.5270
  217MOL0     C29852   9.495  11.432  10.462  0.1698  0.6080 -0.6535
  217MOL0    Cl29853   9.412  11.325  10.582  0.5743 -0.4009 -0.1920
  217MOL0     C29854   9.452  11.665   9.345  0.7565 -0.5163  0.2301
  217MOL0     C29855   9.435  11.616   9.212  0.2042  0.9635  0.1001
  217MOL0     O29856   9.665  11.638   8.959  0.0759 -0.5560 -1.3744
  217MOL0     C29857   9.507  11.391   8.773  0.3361 -0.6865  0.9810
  217MOL0     C29858   9.503  11.323   8.653 -0.4938  0.2621 -0.2246
  217MOL0     N29859   9.758  10.853   7.982 -0.2725 -0.7402  0.3076
  217MOL0     N29860   9.835  10.748   7.963  0.1465 -0.1711 -0.0134
  217MOL0     C29861  11.042  10.432   7.748 -0.7050 -0.0200  0.5780
  217MOL0     C29862  11.166  10.385   7.799  0.0274  0.1962  0.5928
  217MOL0     C29863  11.468  10.086   7.967  0.5232  0.2025  0.5640
  217MOL0     C29864  11.576  10.182   7.943 -0.2204 -0.2199 -0.3068
  217MOL0     C29865  11.701  10.176   8.000  0.2547 -0.6692 -0.7600
  217MOL0     C29866  11.722  10.081   8.100 -0.3100 -0.0216 -0.2954
  217MOL0     O29867  11.839  10.095   8.177 -0.1705  0.0737  0.8938
  217MOL0     C29868  11.860  10.035   8.302  0.0366  0.6001 -0.8685
  217MOL0     C29869  11.985  10.092   8.350  0.2152  0.0557  0.3547
  217MOL0     C29870  12.122  10.047   8.304 -0.9918 -0.9458 -0.5982
  217MOL0     C29871  12.139  10.008   8.155  0.2273  0.1331  0.4768
  217MOL0     C29872  12.284  10.012   8.110  0.9423 -0.8615 -0.3620
  217MOL0     C29873  12.387  10.037   8.058  0.3256  0.1414 -0.0824
  217MOL0     C29874  11.628   9.977   8.119 -0.6044  0.9757 -0.2978
  217MOL0     C29875  11.504   9.981   8.050  0.5856  0.4979  0.0140
  217MOL0     C29876  11.411   9.860   8.093  0.4677 -0.4804  0.2099
  217MOL0     H29877  11.191  10.091   7.628  3.5710 -0.5411  1.4265
  217MOL0     H29878  10.944  10.169   7.575 -2.3599 -0.6219  3.3975
  217MOL0     H29879  10.777  10.528   7.749  1.6057  0.4696 -1.8731
  217MOL0     H29880  10.717  10.350   7.754  0.5427 -0.1520  0.4249
  217MOL0     H29881  10.636  10.536   7.543  0.5735 -1.8127 -2.0518
  217MOL0     H29882  10.594  10.368   7.576  0.9727 -0.1765  0.1475
  217MOL0     H29883  10.404  10.467   7.682 -0.3573  0.0620  0.5048
  217MOL0     H29884  10.505  10.440   7.824 -1.5190 -0.3664 -0.0658
  217MOL0     H29885  10.579  10.682   7.808 -1.5991  5.0541  0.0304
  217MOL0     H29886  10.507  10.684   7.655 -2.8787 -2.4649 -1.1183
  217MOL0     H29887  10.292  10.693   7.737 -1.0153  2.0866  0.1869
  217MOL0     H29888  10.381  10.807   7.832  1.1966  0.4297 -1.9809
  217MOL0     H29889  10.279  10.526   7.893  0.6283  0.0383 -0.6873
  217MOL0     H29890  10.401  10.608   8.006  0.6719  2.2592 -0.5852
  217MOL0     H29891  10.249  10.785   8.040  3.1142 -0.5074 -0.3437
  217MOL0     H29892  10.195  10.629   8.102 -4.5981 -0.3433 -2.1378
  217MOL0     H29893  10.087  10.750   7.831 -2.7645  0.2325 -0.6046
  217MOL0     H29894  10.038  10.606   7.901  0.6858  0.6367  0.4598
  217MOL0     H29895  10.064  10.960   8.058  0.4549 -1.2464 -0.1629
  217MOL0     H29896   9.694  11.103   8.000 -0.3827 -1.5347  1.3947
  217MOL0     H29897   9.859  11.147   7.966  0.7983 -2.5890 -2.3086
  217MOL0     H29898   9.903  11.099   8.224 -0.0105  2.1408  1.9367
  217MOL0     H29899   9.836  11.246   8.160 -2.9917  0.7198 -0.5882
  217MOL0     H29900   9.589  11.181   8.199 -1.4865  2.2854  5.3669
  217MOL0     H29901   9.651  11.041   8.290 -1.8631 -0.0990  0.1190
  217MOL0     H29902   9.780  11.207   8.435 -2.5782  1.7043  4.0734
  217MOL0     H29903   9.721  11.343   8.336 -0.7198  0.2005  0.3711
  217MOL0     H29904   9.812  11.416   8.534  0.1694  3.6044 -0.0700
  217MOL0     H29905   9.915  11.557   8.647  0.5446 -1.9968  1.3343
  217MOL0     H29906   9.891  11.560   8.815 -2.0868 -3.2131  1.2073
  217MOL0     H29907   9.814  11.689   8.711  1.0196 -1.4540 -1.2955
  217MOL0     H29908   9.706  11.419   9.204 -0.5727  1.1782 -1.5103
  217MOL0     H29909   9.717  11.484   9.442  0.2945 -0.7945 -0.3204
  217MOL0     H29910   9.542  11.475   9.679 -1.1456  0.7648 -0.9618
  217MOL0     H29911   9.687  11.568   9.641 -0.4520  2.0901 -3.1242
  217MOL0     H29912   9.632  11.745   9.777  3.8222 -2.5221  2.1783
  217MOL0     H29913   9.456  11.698   9.779 -0.0123  1.8545  0.2773
  217MOL0     H29914   9.572  11.645  10.003  0.9242 -3.7176  3.0020
  217MOL0     H29915   9.662  11.519   9.903  1.1812  1.1091 -1.8443
  217MOL0     H29916   9.425  11.422   9.875  0.8204  1.1018 -1.4452
  217MOL0     H29917   9.356  11.552   9.971 -3.3969 -3.0411 -3.2154
  217MOL0     H29918   9.387  11.335  10.072 -1.7309  2.7803 -0.3602
  217MOL0     H29919   9.565  11.343  10.059 -0.0822  0.1299 -1.2678
  217MOL0     H29920   9.415  11.547  10.219  1.1873  1.3619 -0.9669
  217MOL0     H29921   9.584  11.517  10.202 -1.1916  2.0421 -0.6639
  217MOL0     H29922   9.556  11.288  10.305 -0.1132  0.5104 -1.1905
  217MOL0     H29923   9.394  11.292  10.321  1.7170 -4.0154  2.6604
  217MOL0     H29924   9.461  11.535  10.467 -1.1054  0.2187 -0.9918
  217MOL0     H29925   9.603  11.433  10.483  0.3029  1.9992 -1.3306
  217MOL0     H29926   9.382  11.736   9.389  1.2960  1.2420 -1.5742
  217MOL0     H29927   9.374  11.676   9.146  1.7075  4.6907  1.8639
  217MOL0     H29928   9.421  11.382   8.839 -3.3163  1.0112 -3.0689
  217MOL0     H29929   9.424  11.250   8.646 -0.4037 -0.2566  2.9340
  217MOL0     H29930  10.998  10.531   7.760 -2.2003  0.3326 -5.0791
  217MOL0     H29931  11.236  10.449   7.851 -0.5857  0.0776  1.6028
  217MOL0     H29932  11.547  10.266   7.880  0.4447  0.1832 -0.0884
  217MOL0     H29933  11.773  10.257   7.998 -2.5356  2.2763  3.2659
  217MOL0     H29934  11.775  10.050   8.370  0.7336  0.0862  0.1583
  217MOL0     H29935  11.881   9.928   8.297 -0.8846  0.3796 -0.3809
  217MOL0     H29936  11.989  10.090   8.459  3.5535 -0.6283  0.3378
  217MOL0     H29937  11.974  10.198   8.322 -2.9291  0.2604  1.9647
  217MOL0     H29938  12.191  10.127   8.330 -3.2204  1.2276 -1.0098
  217MOL0     H29939  12.157   9.972   8.376  2.4753  2.3359  1.4680
  217MOL0     H29940  12.079  10.067   8.086 -1.2494 -1.8478 -0.0399
  217MOL0     H29941  12.112   9.904   8.133  0.3569  0.0065  0.8976
  217MOL0     H29942  12.488  10.058   8.027  0.4625  1.8245  1.3285
  217MOL0     H29943  11.635   9.897   8.192 -1.9639  1.5104  0.4480
  217MOL0     H29944  11.358   9.879   8.187 -0.3401 -0.7611 -0.1817
  217MOL0     H29945  11.349   9.819   8.013 -0.8383  2.3299 -0.3376
  217MOL0     H29946  11.469   9.776   8.132 -0.1374  0.2374  2.8502
  218MOL0     O29947   1.437  10.282  10.999  1.4410  0.1562  1.2768
  218MOL0     C29948   1.472  10.365  10.918 -0.4107  0.0511  0.3860
  218MOL0     O29949   1.472  10.498  10.938  0.8296 -0.4262 -0.0446
  218MOL0     C29950   1.398  10.573  11.031 -0.3290 -0.1629 -0.4770
  218MOL0     C29951   1.296  10.517  11.101  0.0296 -0.5289 -0.1810
  218MOL0     C29952   1.212  10.606  11.179 -0.5483  0.8765 -0.6429
  218MOL0     C29953   1.245  10.743  11.192 -0.6995 -0.2740  0.5850
  218MOL0     O29954   1.171  10.840  11.272  0.4266  0.1292 -0.0762
  218MOL0     C29955   1.084  10.781  11.371  0.1291 -0.9115  0.1411
  218MOL0     C29956   1.044  10.913  11.456 -0.0292  0.3159  0.0690
  218MOL0     C29957   1.121  10.953  11.570  0.1929  0.4742  0.4923
  218MOL0     C29958   1.070  10.901  11.707 -0.8056  0.8078  0.9352
  218MOL0     C29959   1.082  10.753  11.720 -0.5132 -0.1070 -0.2688
  218MOL0     C29960   1.048  10.711  11.868  0.3316 -0.7253  0.3821
  218MOL0     C29961   1.093  10.562  11.908 -0.0394 -0.1515  0.9486
  218MOL0     C29962   1.038  10.556  12.055  0.1898  0.4506 -0.8731
  218MOL0     N29963   1.124  10.622  12.155  0.4482 -0.7698  0.7721
  218MOL0     C29964   1.098  10.739  12.209 -1.4907 -0.3170  0.1028
  218MOL0     C29965   1.219  10.758  12.272 -0.0823 -0.3283 -0.7170
  218MOL0     C29966   1.260  10.883  12.348  1.1240 -0.2793  1.1321
  218MOL0     C29967   1.276  10.999  12.251  0.1301 -0.4647 -0.5929
  218MOL0     C29968   1.382  10.984  12.153  0.4656  0.0785  1.0791
  218MOL0     C29969   1.392  11.113  12.072 -0.6192 -0.1293  1.2815
  218MOL0     O29970   1.277  11.143  11.989  0.1098 -0.2191 -0.2161
  218MOL0     C29971   1.267  11.261  11.920 -0.5156  0.6500  0.5218
  218MOL0     C29972   1.361  11.363  11.940 -0.2279 -0.1352 -0.7623
  218MOL0     C29973   1.349  11.483  11.873  0.7155  0.8401 -0.0106
  218MOL0     C29974   1.454  11.579  11.908  0.1534 -0.2382  0.4750
  218MOL0     C29975   1.235  11.505  11.791  0.2647  0.1343 -0.2968
  218MOL0     C29976   1.202  11.631  11.722  0.7223 -0.2074  0.5461
  218MOL0     O29977   1.246  11.747  11.792  0.4706 -0.4063  0.6232
  218MOL0     C29978   1.213  11.875  11.757  0.1026 -0.3780 -0.3598
  218MOL0     C29979   1.225  11.968  11.864 -0.8293  0.1602  0.2510
  218MOL0     C29980   1.210  12.110  11.833  0.1320  0.7519  0.6063
  218MOL0     C29981   1.162  12.167  11.706  0.9897  0.8770  0.2918
  218MOL0     O29982   1.110  12.285  11.671 -0.0437  0.0597  0.1367
  218MOL0     C29983   1.131  12.385  11.771  0.1415 -0.5044 -0.7281
  218MOL0     C29984   1.101  12.525  11.717  0.0816  0.3033  0.0144
  218MOL0     C29985   1.216  12.567  11.632  0.4862  0.7066 -0.1178
  218MOL0     C29986   1.194  12.715  11.615  0.5323 -0.9398 -0.3929
  218MOL0     C29987   1.304  12.779  11.521  0.2085 -0.6818 -0.1192
  218MOL0     C29988   1.421  12.833  11.607 -0.1870 -1.4141  0.3615
  218MOL0     C29989   1.539  12.881  11.528 -0.5484  0.0608  0.9721
  218MOL0     C29990   1.520  12.991  11.435  0.2777 -0.4898 -0.3792
  218MOL0    Cl29991   1.590  12.957  11.272 -0.4892  0.4378  0.3782
  218MOL0     C29992   1.141  12.062  11.612 -0.1764 -0.0997 -0.8044
  218MOL0     C29993   1.161  11.924  11.639  0.5477  0.4330 -0.4638
  218MOL0     O29994   1.145  11.628  11.610  0.6367  0.0918 -0.3911
  218MOL0     C29995   1.153  11.395  11.762  0.3003  0.5700  0.3868
  218MOL0     C29996   1.165  11.270  11.830  0.6104  0.0113 -0.7430
  218MOL0     N29997   1.303  10.658  12.247  0.4850  0.4926  0.1507
  218MOL0     N29998   1.250  10.573  12.179 -0.0146 -0.1883  0.8854
  218MOL0     C29999   1.348  10.791  11.113  0.4858 -0.2445  0.0537
  218MOL0     C30000   1.429  10.713  11.034 -0.9030 -0.8042 -0.3049
  218MOL0     C30001   1.535  10.301  10.797 -0.9797 -0.2241  0.7366
  218MOL0     C30002   1.618  10.386  10.720 -0.7737 -0.1991 -0.3999
  218MOL0     C30003   1.677  10.340  10.600 -0.0720 -0.0031  0.3580
  218MOL0     C30004   1.636  10.217  10.536 -0.2967 -0.3484  0.7760
  218MOL0     O30005   1.696  10.170  10.413  0.1489  0.4821  0.0791
  218MOL0     C30006   1.832  10.138  10.420  0.0001 -1.0816 -0.0203
  218MOL0     C30007   1.853  10.004  10.344  0.7300 -0.6697  0.1684
  218MOL0     C30008   1.840  10.011  10.198  0.5941  0.6111 -0.2154
  218MOL0     C30009   1.831   9.868  10.128 -0.7197 -0.2745 -0.3558
  218MOL0     C30010   1.782   9.878   9.990 -0.2415  0.4996  0.5768
  218MOL0     C30011   1.746   9.892   9.875 -0.8868 -0.5338 -0.6358
  218MOL0     C30012   1.563  10.127  10.618  0.5080 -0.8285  0.3716
  218MOL0     C30013   1.524  10.166  10.751 -0.0398  0.3946  0.1356
  218MOL0     C30014   1.436  10.061  10.824  0.2552 -0.1200 -0.7163
  218MOL0     H30015   1.261  10.415  11.106  0.9546 -1.0174 -2.3095
  218MOL0     H30016   1.139  10.556  11.241 -1.2687  0.2866 -1.9164
  218MOL0     H30017   1.138  10.713  11.437  1.4997 -1.9074 -1.8825
  218MOL0     H30018   0.996  10.733  11.329  0.0805 -1.3751  0.7718
  218MOL0     H30019   1.072  10.999  11.394  0.5802 -0.3617 -0.6155
  218MOL0     H30020   0.935  10.903  11.465 -0.4323  4.3754  2.4435
  218MOL0     H30021   1.220  10.918  11.542 -1.0569 -0.7264 -2.8837
  218MOL0     H30022   1.110  11.060  11.586  2.4592  0.5114  2.3285
  218MOL0     H30023   1.125  10.949  11.788 -0.2941 -0.5281  1.3892
  218MOL0     H30024   0.968  10.931  11.735 -1.8860 -1.5811 -0.1851
  218MOL0     H30025   1.178  10.706  11.699  0.8400  2.6735 -0.7894
  218MOL0     H30026   1.009  10.701  11.658  1.4465 -1.8625 -1.2161
  218MOL0     H30027   1.090  10.789  11.933  1.1775  2.6562 -3.7989
  218MOL0     H30028   0.940  10.719  11.880  0.3628  0.4689 -0.0075
  218MOL0     H30029   1.200  10.541  11.903 -0.7306 -4.4824  0.3071
  218MOL0     H30030   1.045  10.487  11.845  1.0412  1.3726 -1.8187
  218MOL0     H30031   0.931  10.578  12.064  0.0573 -0.7089  0.8051
  218MOL0     H30032   1.047  10.451  12.083  0.9247  0.8395  0.4082
  218MOL0     H30033   1.024  10.818  12.210  2.3923  3.7019 -0.1362
  218MOL0     H30034   1.357  10.855  12.390  1.9377 -0.6078 -0.9010
  218MOL0     H30035   1.190  10.899  12.432 -3.0155 -1.9238 -1.6722
  218MOL0     H30036   1.182  11.015  12.198  1.0426 -0.6848 -2.3351
  218MOL0     H30037   1.301  11.093  12.301  0.3853  0.1232 -1.7929
  218MOL0     H30038   1.478  10.958  12.197  0.6330 -0.2336  0.5431
  218MOL0     H30039   1.348  10.899  12.092  1.4469 -0.0753  0.7315
  218MOL0     H30040   1.417  11.198  12.136  0.4719  0.2164  0.4165
  218MOL0     H30041   1.480  11.092  12.011 -0.2794 -4.2466  2.8425
  218MOL0     H30042   1.448  11.356  12.004 -0.8594  0.0776  0.1355
  218MOL0     H30043   1.428  11.643  11.993 -1.0265  1.2995 -0.9598
  218MOL0     H30044   1.461  11.643  11.820  1.6064 -2.7767 -1.3717
  218MOL0     H30045   1.551  11.537  11.933  1.2235  2.2617  0.8551
  218MOL0     H30046   1.269  11.960  11.963 -0.4382 -0.5838  0.0238
  218MOL0     H30047   1.225  12.182  11.912 -0.6593  1.1842  0.3788
  218MOL0     H30048   1.073  12.366  11.861 -0.4628 -0.1090 -1.0327
  218MOL0     H30049   1.235  12.396  11.804  0.0997  3.8353 -1.4135
  218MOL0     H30050   1.020  12.514  11.645 -0.6072  0.2384  0.7868
  218MOL0     H30051   1.082  12.592  11.801 -0.2472 -0.0473  0.2222
  218MOL0     H30052   1.213  12.522  11.532  2.1591  2.1731 -0.8934
  218MOL0     H30053   1.309  12.552  11.688 -1.6991 -0.2161  3.5446
  218MOL0     H30054   1.191  12.767  11.711  1.1227  1.2072 -1.4617
  218MOL0     H30055   1.099  12.729  11.563  0.8860 -2.6349 -1.5891
  218MOL0     H30056   1.326  12.713  11.436 -0.9794 -0.4977 -0.5819
  218MOL0     H30057   1.256  12.862  11.470 -1.7996 -2.0401 -0.5436
  218MOL0     H30058   1.457  12.752  11.670  1.8412  0.9566  2.4773
  218MOL0     H30059   1.394  12.917  11.673  4.1318 -0.3640  1.0821
  218MOL0     H30060   1.584  12.802  11.467  3.5058  1.3835  1.8934
  218MOL0     H30061   1.621  12.911  11.594  0.3475  1.5066 -0.7049
  218MOL0     H30062   1.556  13.087  11.474  1.3389  0.0619 -2.5458
  218MOL0     H30063   1.417  13.013  11.408  0.1440 -1.3615 -0.6141
  218MOL0     H30064   1.115  12.083  11.509  1.4913 -0.5424 -1.3528
  218MOL0     H30065   1.140  11.862  11.552  0.7123  1.3194 -1.1509
  218MOL0     H30066   1.068  11.409  11.696  0.7515  2.4560  0.1525
  218MOL0     H30067   1.095  11.188  11.817 -0.3904  0.4717  1.2872
  218MOL0     H30068   1.368  10.898  11.124  0.4062  0.0472 -2.2684
  218MOL0     H30069   1.511  10.746  10.971  0.7566 -0.9977  1.6364
  218MOL0     H30070   1.642  10.482  10.763 -2.5605  0.1353 -0.0996
  218MOL0     H30071   1.737  10.404  10.537 -1.9405 -1.5422 -3.2853
  218MOL0     H30072   1.897  10.217  10.382  1.1525 -2.2414 -0.5585
  218MOL0     H30073   1.868  10.112  10.520  0.5240  1.4713  0.5066
  218MOL0     H30074   1.794   9.930  10.398  0.6669  0.6519  2.0051
  218MOL0     H30075   1.958   9.975  10.357  1.3049 -0.3379 -2.8906
  218MOL0     H30076   1.747  10.061  10.169  0.1605  0.4576  0.8803
  218MOL0     H30077   1.926  10.063  10.154  1.1409  1.1476  1.4189
  218MOL0     H30078   1.778   9.798  10.194 -1.1433 -0.7085 -1.1447
  218MOL0     H30079   1.936   9.839  10.123 -0.4148  1.0292 -2.5738
  218MOL0     H30080   1.723   9.899   9.771  0.2431  0.5670 -0.8398
  218MOL0     H30081   1.535  10.025  10.595 -3.3682 -0.0261  0.9357
  218MOL0     H30082   1.334  10.100  10.811  1.0489  3.5681  2.4875
  218MOL0     H30083   1.440   9.965  10.771 -0.2291  0.8871 -2.7051
  218MOL0     H30084   1.455  10.056  10.931 -2.5598  0.4454 -0.1172
  219MOL0     O30085   4.514  11.363   1.738 -0.8712 -0.1508  0.0108
  219MOL0     C30086   4.432  11.433   1.687 -0.3617  1.1996 -0.2462
  219MOL0     O30087   4.438  11.460   1.554 -0.2592  0.1527 -0.1811
  219MOL0     C30088   4.537  11.406   1.480  0.7054  0.1091 -0.4808
  219MOL0     C30089   4.610  11.481   1.392  0.0805  0.4677  0.5368
  219MOL0     C30090   4.698  11.416   1.305 -0.3076  0.4667  0.5244
  219MOL0     C30091   4.736  11.277   1.313  0.1544 -0.4557  0.5453
  219MOL0     O30092   4.847  11.228   1.259  0.4876 -0.0540  0.4723
  219MOL0     C30093   4.868  11.091   1.239 -0.1563 -0.4108 -0.2989
  219MOL0     C30094   4.942  11.075   1.097 -0.3859  0.2782  0.2299
  219MOL0     C30095   4.854  11.111   0.972  0.4247 -1.2452  0.5718
  219MOL0     C30096   4.923  11.102   0.843  0.4843 -0.4110 -0.3616
  219MOL0     C30097   4.857  11.165   0.724  0.4245 -0.1894  0.0373
  219MOL0     C30098   4.942  11.154   0.597  0.1440 -0.1027  0.6589
  219MOL0     C30099   4.916  11.028   0.522  0.4940  0.1494  0.2391
  219MOL0     C30100   4.965  11.056   0.380 -1.0165  0.4618  0.1316
  219MOL0     N30101   4.976  10.949   0.278  0.4638 -1.0127 -0.7883
  219MOL0     C30102   5.048  10.840   0.294  0.3021 -0.0455  0.9919
  219MOL0     C30103   5.037  10.776   0.171  0.5221  0.0377 -0.3687
  219MOL0     C30104   5.120  10.651   0.137 -0.0492  0.1862 -0.0056
  219MOL0     C30105   5.044  10.534   0.070  0.4236 -0.6774 -0.5673
  219MOL0     C30106   5.127  10.407   0.050  0.1029 -0.1385  0.4707
  219MOL0     C30107   5.180  10.337   0.178  0.9461  0.1076 -0.8792
  219MOL0     O30108   5.224  10.210   0.120  0.5707  0.0169  0.6699
  219MOL0     C30109   5.316  10.146   0.197  0.0448  0.1452  1.2739
  219MOL0     C30110   5.264  10.071   0.302 -0.3199 -0.2157 -0.6736
  219MOL0     C30111   5.347  10.011   0.393 -0.3138 -0.4676 -0.0243
  219MOL0     C30112   5.287   9.953   0.520 -0.2846  0.0683  0.8614
  219MOL0     C30113   5.484  10.025   0.381  0.2090  0.2877 -0.6868
  219MOL0     C30114   5.579   9.953   0.465  0.1293 -0.5040  1.2445
  219MOL0     O30115   5.562   9.961   0.598 -0.8779 -0.3940  0.1015
  219MOL0     C30116   5.646   9.896   0.687  0.2335  0.4923  0.2651
  219MOL0     C30117   5.723   9.770   0.667 -0.7917 -0.9724  1.0364
  219MOL0     C30118   5.811   9.731   0.763 -0.8312  0.6587 -1.2985
  219MOL0     C30119   5.830   9.806   0.883 -0.1157 -0.3800 -0.4546
  219MOL0     O30120   5.899   9.760   0.996  1.0865  0.0989 -0.1852
  219MOL0     C30121   5.999   9.658   0.996 -0.2067 -0.0731  0.2435
  219MOL0     C30122   5.988   9.575   1.120  0.9421 -0.4817  0.1043
  219MOL0     C30123   5.875   9.469   1.105 -0.1661 -0.5979  0.2981
  219MOL0     C30124   5.734   9.521   1.140 -0.4179  0.4162 -0.0422
  219MOL0     C30125   5.636   9.411   1.149  0.1032  0.7134 -0.0651
  219MOL0     C30126   5.493   9.462   1.139  0.1311  0.2143  0.0270
  219MOL0     C30127   5.371   9.363   1.115 -0.6077 -0.9022 -0.2229
  219MOL0     C30128   5.341   9.268   1.227 -0.6353  0.1819  0.3087
  219MOL0    Cl30129   5.249   9.146   1.134  0.6694 -0.0417 -0.3015
  219MOL0     C30130   5.762   9.922   0.905 -0.0284 -1.1558  0.6382
  219MOL0     C30131   5.670   9.966   0.809  1.2381  0.1000 -0.3153
  219MOL0     O30132   5.674   9.894   0.414  0.3277 -0.1726 -0.2587
  219MOL0     C30133   5.531  10.106   0.276  0.7360  0.7221  0.1517
  219MOL0     C30134   5.457  10.164   0.176 -0.0986  0.0789 -0.2224
  219MOL0     N30135   4.970  10.854   0.084  0.3067 -0.8979  0.0012
  219MOL0     N30136   4.936  10.964   0.145 -0.0706 -0.4051 -0.8496
  219MOL0     C30137   4.668  11.200   1.409  0.9419 -0.1828 -0.5286
  219MOL0     C30138   4.564  11.265   1.477 -1.1586  0.1155 -0.2202
  219MOL0     C30139   4.323  11.492   1.760 -1.0481 -1.4424 -0.0062
  219MOL0     C30140   4.262  11.602   1.706  0.0280 -0.3395  0.2029
  219MOL0     C30141   4.153  11.656   1.770 -0.4948  0.0108  0.4290
  219MOL0     C30142   4.112  11.617   1.898  0.1703  0.5428  0.0266
  219MOL0     O30143   4.008  11.681   1.965 -0.4704 -0.4079 -0.4700
  219MOL0     C30144   3.919  11.778   1.913 -0.5648  0.3916  0.2806
  219MOL0     C30145   3.815  11.721   1.830 -0.2951 -0.9007 -0.9103
  219MOL0     C30146   3.701  11.637   1.896 -0.1608  0.7727  0.9940
  219MOL0     C30147   3.621  11.565   1.800  0.0385  1.2728 -0.3676
  219MOL0     C30148   3.497  11.515   1.858  0.4184 -0.6908 -0.0182
  219MOL0     C30149   3.389  11.480   1.904  0.3899 -0.2429 -0.2740
  219MOL0     C30150   4.176  11.507   1.952  0.2593 -0.2859  0.7030
  219MOL0     C30151   4.287  11.444   1.886 -0.3691  0.0084 -1.0445
  219MOL0     C30152   4.341  11.327   1.971 -0.1519 -0.5581  0.2321
  219MOL0     H30153   4.587  11.587   1.388 -2.4144 -0.0291 -0.0069
  219MOL0     H30154   4.746  11.472   1.226 -2.3730 -0.9811 -1.9118
  219MOL0     H30155   4.774  11.035   1.241  0.2380 -1.0684  0.9286
  219MOL0     H30156   4.937  11.062   1.319 -0.9419  1.7541  1.2575
  219MOL0     H30157   5.029  11.139   1.111  0.0116 -0.7197  2.7081
  219MOL0     H30158   4.977  10.972   1.101 -0.1409  0.3011 -0.9908
  219MOL0     H30159   4.758  11.061   0.968 -0.7449  0.9213 -0.4673
  219MOL0     H30160   4.825  11.216   0.983  1.3029 -1.1041  1.7290
  219MOL0     H30161   5.018  11.155   0.853  0.5326 -0.3308 -1.1951
  219MOL0     H30162   4.949  10.997   0.825 -0.9271 -1.0373  1.0538
  219MOL0     H30163   4.838  11.270   0.751 -3.4915 -1.5719  3.9970
  219MOL0     H30164   4.762  11.112   0.711  0.2846  0.8411 -4.4983
  219MOL0     H30165   4.910  11.238   0.535  1.3946 -0.7556 -0.9423
  219MOL0     H30166   5.047  11.167   0.622 -0.6685  3.1123  3.1823
  219MOL0     H30167   4.810  11.001   0.523  0.7305 -0.9771 -1.2315
  219MOL0     H30168   4.977  10.945   0.559  0.7809  1.4688  3.0226
  219MOL0     H30169   4.891  11.124   0.337  1.6379  3.2071 -0.5103
  219MOL0     H30170   5.064  11.103   0.376 -1.1039  0.5385 -1.9128
  219MOL0     H30171   5.112  10.815   0.378  1.0205 -1.3460  0.0846
  219MOL0     H30172   5.179  10.617   0.223  1.4801  2.9032  0.1281
  219MOL0     H30173   5.199  10.682   0.068  2.5600 -3.8652  0.7917
  219MOL0     H30174   4.961  10.503   0.134  0.7096 -2.3407 -0.9450
  219MOL0     H30175   5.009  10.570  -0.027 -0.4763 -2.5392 -0.9750
  219MOL0     H30176   5.067  10.348  -0.019 -2.0448  1.1611  1.1405
  219MOL0     H30177   5.210  10.453  -0.006 -1.5574  1.2352 -0.9647
  219MOL0     H30178   5.262  10.398   0.215 -1.3134  2.2853  0.9535
  219MOL0     H30179   5.098  10.321   0.249 -0.7257 -0.6907 -2.8633
  219MOL0     H30180   5.156  10.065   0.313 -0.4059  1.8387 -0.0722
  219MOL0     H30181   5.322   9.850   0.532  0.2097 -0.0577 -1.1846
  219MOL0     H30182   5.178   9.956   0.516 -0.2373  1.0309 -1.1074
  219MOL0     H30183   5.312  10.012   0.608 -1.9283  0.0794  1.3570
  219MOL0     H30184   5.694   9.706   0.584  0.2820 -2.3989  1.7121
  219MOL0     H30185   5.853   9.633   0.745 -5.7044 -2.0299  0.2081
  219MOL0     H30186   6.002   9.598   0.904  0.9405 -1.8040  1.3477
  219MOL0     H30187   6.089   9.719   1.009 -1.7343  2.9381 -2.1921
  219MOL0     H30188   6.083   9.525   1.143  0.4859 -1.1623  0.5206
  219MOL0     H30189   5.958   9.630   1.210  2.1473 -0.4433  0.5120
  219MOL0     H30190   5.874   9.385   1.175 -2.9449 -0.2348  0.8032
  219MOL0     H30191   5.880   9.425   1.005  1.0438  0.1451  0.0086
  219MOL0     H30192   5.712   9.589   1.058  0.5808 -0.8836 -1.4353
  219MOL0     H30193   5.741   9.573   1.236  1.2119 -2.1661  1.3517
  219MOL0     H30194   5.643   9.347   1.061 -0.1008 -1.0470  1.1551
  219MOL0     H30195   5.646   9.350   1.239 -0.1991  1.2795  0.3606
  219MOL0     H30196   5.497   9.518   1.045 -1.4714 -3.9093 -2.8115
  219MOL0     H30197   5.461   9.531   1.218 -3.3533 -1.1489 -0.0307
  219MOL0     H30198   5.391   9.308   1.023 -2.5353  1.0521 -1.9007
  219MOL0     H30199   5.282   9.422   1.095  0.1868  0.1161 -0.8357
  219MOL0     H30200   5.291   9.309   1.314 -0.1011 -2.6472  2.0745
  219MOL0     H30201   5.427   9.219   1.274 -1.6617 -3.0971 -0.9871
  219MOL0     H30202   5.767   9.978   0.998 -0.6082  2.5570 -1.3826
  219MOL0     H30203   5.622  10.060   0.833 -0.1693 -0.5544 -0.5060
  219MOL0     H30204   5.636  10.134   0.271  1.5067 -2.0101 -0.6774
  219MOL0     H30205   5.497  10.232   0.102 -1.9702  0.5998 -0.8099
  219MOL0     H30206   4.700  11.100   1.435  3.3210  1.0839  1.9575
  219MOL0     H30207   4.508  11.193   1.536 -0.7672 -0.3178 -0.3665
  219MOL0     H30208   4.283  11.643   1.608  1.6021 -0.6682  0.3823
  219MOL0     H30209   4.115  11.752   1.736  0.5072  0.5669  0.8319
  219MOL0     H30210   3.886  11.844   1.994 -2.1523 -0.0467  0.0263
  219MOL0     H30211   3.977  11.842   1.847  1.7891 -0.5466  1.3003
  219MOL0     H30212   3.870  11.658   1.759  1.7987 -1.3092  0.9995
  219MOL0     H30213   3.767  11.797   1.767  0.2324  0.2789  0.0798
  219MOL0     H30214   3.742  11.568   1.970  1.3143  1.7956  1.1656
  219MOL0     H30215   3.637  11.715   1.937  0.5222  2.4997 -1.0316
  219MOL0     H30216   3.679  11.482   1.761  2.0593  0.6996  3.3788
  219MOL0     H30217   3.593  11.631   1.717  1.0730  0.7466 -1.1445
  219MOL0     H30218   3.299  11.451   1.953  2.2567 -0.2520  3.5640
  219MOL0     H30219   4.132  11.471   2.044  0.2544 -1.1231  0.3867
  219MOL0     H30220   4.449  11.318   1.963  0.3132  3.3635  0.1862
  219MOL0     H30221   4.320  11.341   2.077 -0.4548 -1.4648  0.3010
  219MOL0     H30222   4.293  11.238   1.928 -1.1806  1.2827 -2.7648
  220MOL0     O30223   2.556   7.114  10.354  0.3422  0.1676 -0.1030
  220MOL0     C30224   2.648   7.186  10.394  0.4863  1.0325  0.5212
  220MOL0     O30225   2.742   7.240  10.311  0.1631 -0.6716 -0.8722
  220MOL0     C30226   2.818   7.164  10.233 -0.5144  0.0910  0.4842
  220MOL0     C30227   2.906   7.224  10.130  0.5218  0.6805  0.7032
  220MOL0     C30228   2.957   7.127  10.041 -0.1164  0.2487  0.0932
  220MOL0     C30229   2.965   6.982  10.063 -0.7536  1.1381  0.2939
  220MOL0     O30230   3.021   6.889   9.978 -0.3502 -0.2570 -0.5001
  220MOL0     C30231   3.098   6.924   9.865  0.0432 -0.7380  0.5723
  220MOL0     C30232   3.205   6.822   9.822 -0.5607 -0.6361 -0.0994
  220MOL0     C30233   3.347   6.873   9.866  0.4989 -0.5816 -0.0007
  220MOL0     C30234   3.458   6.788   9.808  0.6231 -1.1036  0.5980
  220MOL0     C30235   3.604   6.818   9.849  0.1096 -0.2124 -0.5274
  220MOL0     C30236   3.620   6.793   9.996 -0.2152  0.7013  0.3180
  220MOL0     C30237   3.761   6.837  10.045 -0.0169  1.1225  0.4808
  220MOL0     C30238   3.776   6.855  10.194  0.5138 -0.6230 -0.4321
  220MOL0     N30239   3.730   6.740  10.277  0.6142  0.7097 -0.0878
  220MOL0     C30240   3.781   6.615  10.246 -0.2189 -1.2273  0.1031
  220MOL0     C30241   3.762   6.540  10.356  0.3116  0.5366  0.0334
  220MOL0     C30242   3.806   6.400  10.372 -0.3183 -0.1293 -0.0195
  220MOL0     C30243   3.764   6.315  10.495 -0.0605  0.2365 -0.3393
  220MOL0     C30244   3.852   6.191  10.499  0.9055 -0.0108  0.1957
  220MOL0     C30245   3.818   6.113  10.630  0.2346  0.7379 -0.1394
  220MOL0     O30246   3.684   6.068  10.638  0.0272 -0.6592 -0.4331
  220MOL0     C30247   3.641   5.960  10.576 -0.0693  0.5262 -0.2575
  220MOL0     C30248   3.724   5.878  10.495  0.8315  0.1980 -0.0910
  220MOL0     C30249   3.681   5.770  10.421 -1.1286  0.3322 -0.6982
  220MOL0     C30250   3.775   5.694  10.334  0.0385 -0.7801  0.7164
  220MOL0     C30251   3.545   5.731  10.426  1.6779  0.5681  0.0683
  220MOL0     C30252   3.495   5.603  10.374  0.7443 -0.3655 -0.2773
  220MOL0     O30253   3.397   5.550  10.448 -0.3068  0.8436 -0.5746
  220MOL0     C30254   3.396   5.407  10.462 -0.1820 -0.8514 -0.0171
  220MOL0     C30255   3.493   5.347  10.532  0.7987 -0.5590 -0.6114
  220MOL0     C30256   3.515   5.211  10.534  1.2309  0.1901 -1.1613
  220MOL0     C30257   3.430   5.126  10.459  0.7438  1.2705 -0.3841
  220MOL0     O30258   3.447   4.985  10.442 -0.3836  0.3571 -1.0831
  220MOL0     C30259   3.562   4.920  10.489 -0.5866  0.4486  0.0265
  220MOL0     C30260   3.575   4.772  10.446  0.0455  0.6246  0.5308
  220MOL0     C30261   3.720   4.727  10.480  0.9386  0.8291 -0.8606
  220MOL0     C30262   3.742   4.581  10.435  0.5248  0.4211 -0.6542
  220MOL0     C30263   3.880   4.521  10.461  0.2180  0.5464  0.3421
  220MOL0     C30264   3.906   4.393  10.376 -0.5532 -0.5851 -0.7795
  220MOL0     C30265   3.919   4.416  10.235  0.0715 -0.3609 -0.4072
  220MOL0     C30266   3.813   4.346  10.156 -0.1496 -0.4720 -0.0578
  220MOL0    Cl30267   3.841   4.363   9.984  0.2166 -0.2908 -0.1663
  220MOL0     C30268   3.325   5.182  10.388 -0.4788 -0.4354  0.3947
  220MOL0     C30269   3.306   5.321  10.385  0.5966  0.3757 -0.4037
  220MOL0     O30270   3.536   5.557  10.274 -0.3863  0.2107 -0.2294
  220MOL0     C30271   3.463   5.807  10.516  0.1787 -0.2658  1.4441
  220MOL0     C30272   3.512   5.916  10.579  0.3874  0.2567  1.0111
  220MOL0     N30273   3.677   6.608  10.445  0.0516  0.1586  0.1925
  220MOL0     N30274   3.646   6.729  10.388 -0.5505  0.0366 -0.2313
  220MOL0     C30275   2.886   6.942  10.169  0.8470 -0.4627  0.9121
  220MOL0     C30276   2.807   7.025  10.247  0.2498 -0.0192 -1.3400
  220MOL0     C30277   2.653   7.223  10.533 -0.6157 -0.0642 -0.9061
  220MOL0     C30278   2.776   7.224  10.606  0.3205  0.7016 -0.4112
  220MOL0     C30279   2.789   7.239  10.740 -0.1897 -0.1734 -0.1164
  220MOL0     C30280   2.674   7.288  10.803 -0.1086  0.2105 -0.1970
  220MOL0     O30281   2.666   7.302  10.938  0.2827 -0.2468 -0.3000
  220MOL0     C30282   2.775   7.371  11.002 -0.4387  0.5459  1.0657
  220MOL0     C30283   2.738   7.393  11.148  0.3868 -0.5947 -0.3460
  220MOL0     C30284   2.857   7.456  11.221 -0.7073  0.0998 -0.6939
  220MOL0     C30285   2.829   7.493  11.364 -0.8718  0.6099  0.5587
  220MOL0     C30286   2.946   7.556  11.426 -0.1404  0.2434  0.5826
  220MOL0     C30287   3.046   7.610  11.465  1.0607  0.7091 -0.3274
  220MOL0     C30288   2.559   7.299  10.740  1.1021  0.4125 -0.5439
  220MOL0     C30289   2.530   7.257  10.612  0.8879  0.0931  1.2880
  220MOL0     C30290   2.384   7.249  10.567  0.4209 -0.1824  0.6117
  220MOL0     H30291   2.909   7.331  10.116 -0.1075  0.4852 -1.2043
  220MOL0     H30292   3.003   7.171   9.953  0.8560  0.7219  0.8106
  220MOL0     H30293   3.150   7.020   9.859 -0.9881 -0.2504 -3.0946
  220MOL0     H30294   3.036   6.936   9.775  2.6839  1.1635 -1.1679
  220MOL0     H30295   3.175   6.738   9.885  0.1317  0.0500  1.1724
  220MOL0     H30296   3.210   6.790   9.717 -0.5570  1.1653 -0.6930
  220MOL0     H30297   3.363   6.977   9.839  1.9225 -0.3124  1.6908
  220MOL0     H30298   3.337   6.860   9.975 -0.5064 -4.2569 -0.3979
  220MOL0     H30299   3.424   6.685   9.822 -3.9042 -0.2995 -2.3220
  220MOL0     H30300   3.468   6.803   9.700  0.4064 -0.4704  0.6612
  220MOL0     H30301   3.627   6.920   9.817 -1.9179  0.2526 -0.6377
  220MOL0     H30302   3.669   6.750   9.794 -1.1456  0.1366 -2.5539
  220MOL0     H30303   3.545   6.850  10.053 -2.5002 -2.8576  1.2138
  220MOL0     H30304   3.607   6.685  10.012  1.3924  0.8003  2.7945
  220MOL0     H30305   3.786   6.932   9.996 -0.5281  1.7844  1.4845
  220MOL0     H30306   3.845   6.778  10.007 -0.5935 -0.0352  0.9715
  220MOL0     H30307   3.882   6.877  10.211  0.0355  1.6109 -0.0521
  220MOL0     H30308   3.713   6.940  10.224 -0.3859 -2.0625  2.1421
  220MOL0     H30309   3.832   6.583  10.156 -0.8384 -1.6951 -0.0960
  220MOL0     H30310   3.915   6.411  10.367 -0.4066  0.9677  0.1875
  220MOL0     H30311   3.785   6.340  10.283  0.2002 -1.2865  0.6088
  220MOL0     H30312   3.788   6.377  10.581  2.0427  0.4092 -1.0078
  220MOL0     H30313   3.657   6.289  10.497  0.1543 -0.6322  1.2982
  220MOL0     H30314   3.844   6.121  10.415 -0.2530 -1.4051  1.4118
  220MOL0     H30315   3.956   6.220  10.514  0.5819  1.3135  0.0024
  220MOL0     H30316   3.898   6.040  10.647  0.7294  2.1250  5.6395
  220MOL0     H30317   3.834   6.174  10.719 -1.5697 -0.7275  1.2916
  220MOL0     H30318   3.832   5.894  10.495  0.4566  3.3029 -1.3780
  220MOL0     H30319   3.772   5.591  10.372 -1.2543 -1.0751 -0.0869
  220MOL0     H30320   3.873   5.737  10.353 -0.8816  1.0764  1.5385
  220MOL0     H30321   3.735   5.689  10.232 -1.3385 -4.3918  1.2868
  220MOL0     H30322   3.565   5.397  10.597 -1.2063  1.9666 -0.1547
  220MOL0     H30323   3.590   5.170  10.601 -0.5120  1.7498  1.9954
  220MOL0     H30324   3.640   4.993  10.465 -1.1949  1.0146 -0.2777
  220MOL0     H30325   3.573   4.921  10.598  1.9890 -1.1041 -0.1520
  220MOL0     H30326   3.502   4.714  10.502 -2.2434  1.1692 -1.7026
  220MOL0     H30327   3.544   4.754  10.342 -1.6490 -2.0649  1.4003
  220MOL0     H30328   3.738   4.725  10.587  0.3063 -2.5718 -0.7099
  220MOL0     H30329   3.788   4.798  10.433  0.9674  1.5587  0.2507
  220MOL0     H30330   3.707   4.580  10.332 -1.0636 -2.0859 -0.1566
  220MOL0     H30331   3.668   4.518  10.484 -2.5835  2.5868 -2.2035
  220MOL0     H30332   3.963   4.587  10.435  1.8445 -1.5415 -0.0260
  220MOL0     H30333   3.897   4.500  10.567 -1.3127  0.6051  0.6140
  220MOL0     H30334   3.821   4.328  10.399  0.0255 -2.2855 -3.0751
  220MOL0     H30335   3.989   4.328  10.406  0.2230  1.1477  1.0656
  220MOL0     H30336   4.017   4.382  10.200  0.2992  0.9968 -1.1437
  220MOL0     H30337   3.921   4.521  10.204  0.1737 -0.1708  0.2264
  220MOL0     H30338   3.717   4.391  10.181  0.5981 -0.0677  2.3944
  220MOL0     H30339   3.807   4.239  10.174  0.6398 -0.4694  0.2988
  220MOL0     H30340   3.255   5.115  10.339 -1.7926  0.6620  0.7151
  220MOL0     H30341   3.223   5.370  10.336 -0.5645  0.2399  1.3464
  220MOL0     H30342   3.358   5.784  10.530  0.0062 -2.5915 -2.4711
  220MOL0     H30343   3.430   5.972  10.623 -1.6756  0.1792 -2.4240
  220MOL0     H30344   2.897   6.838  10.196 -2.9089 -1.0449  0.6256
  220MOL0     H30345   2.755   6.988  10.334  1.0953  2.5820  0.3859
  220MOL0     H30346   2.866   7.185  10.559  0.2551 -1.6052  1.1692
  220MOL0     H30347   2.884   7.208  10.781 -1.2517 -4.1733 -0.3058
  220MOL0     H30348   2.865   7.310  10.991  1.6415  2.5583  4.9585
  220MOL0     H30349   2.775   7.471  10.960  0.9475  0.7052  1.4211
  220MOL0     H30350   2.699   7.300  11.190 -0.5542 -3.0336 -5.8271
  220MOL0     H30351   2.654   7.463  11.158  0.4629 -0.6728  1.0671
  220MOL0     H30352   2.935   7.380  11.218 -0.9960 -0.1857 -1.3759
  220MOL0     H30353   2.878   7.541  11.155 -1.9255  1.9337  1.1431
  220MOL0     H30354   2.786   7.408  11.418  0.6032  0.7478  2.0182
  220MOL0     H30355   2.750   7.567  11.352 -2.5888 -1.4327 -1.9952
  220MOL0     H30356   3.130   7.660  11.509  3.6153 -0.6844 -3.2432
  220MOL0     H30357   2.472   7.337  10.792  1.0688 -0.3663 -0.0316
  220MOL0     H30358   2.373   7.309  10.477  0.0052  3.3593  2.8231
  220MOL0     H30359   2.350   7.147  10.548  1.4954 -0.3989 -0.2584
  220MOL0     H30360   2.318   7.288  10.645 -1.4608 -1.4032 -0.3054
  221MOL0     O30361   8.103   5.468   4.153  0.1545 -0.9447 -1.0973
  221MOL0     C30362   8.184   5.382   4.130  0.9438  0.2888 -0.3894
  221MOL0     O30363   8.200   5.320   4.011  0.4528  0.1555  0.4848
  221MOL0     C30364   8.136   5.347   3.895 -0.8087  0.1264  0.3019
  221MOL0     C30365   8.146   5.238   3.803  0.1215  0.3170  0.1049
  221MOL0     C30366   8.078   5.228   3.688  1.1972 -0.7239 -0.2889
  221MOL0     C30367   7.982   5.325   3.647  0.1405  0.9288 -0.9937
  221MOL0     O30368   7.911   5.309   3.534 -0.4589  0.1466 -0.2480
  221MOL0     C30369   7.830   5.429   3.493  0.1879 -0.7703 -0.1434
  221MOL0     C30370   7.768   5.395   3.368 -0.4564  0.3313 -0.4792
  221MOL0     C30371   7.726   5.514   3.285 -0.0846 -0.6236 -0.5560
  221MOL0     C30372   7.593   5.576   3.328  0.5465 -0.6534  0.3223
  221MOL0     C30373   7.544   5.715   3.274 -0.9034 -0.1512  0.2481
  221MOL0     C30374   7.636   5.832   3.307 -0.4289 -1.3312  0.2456
  221MOL0     C30375   7.640   5.856   3.458 -0.5359  0.4186 -1.2216
  221MOL0     C30376   7.726   5.969   3.511 -0.2343  0.3597 -0.1206
  221MOL0     N30377   7.868   5.914   3.511  0.5186 -0.3961 -0.1379
  221MOL0     C30378   7.939   5.843   3.610 -0.1303  0.3133  0.1697
  221MOL0     C30379   8.061   5.813   3.555 -0.0800 -1.0577 -0.5108
  221MOL0     C30380   8.182   5.744   3.616 -0.8394  0.3008 -0.4603
  221MOL0     C30381   8.258   5.650   3.507  0.4581  0.4700 -0.7055
  221MOL0     C30382   8.315   5.521   3.573 -0.2192  0.5486  0.9205
  221MOL0     C30383   8.317   5.402   3.487  0.1344  0.3850  1.6929
  221MOL0     O30384   8.403   5.295   3.543 -0.4387 -0.0993 -0.3487
  221MOL0     C30385   8.501   5.236   3.455  0.7380  0.8571 -0.4979
  221MOL0     C30386   8.619   5.180   3.510 -0.3166 -0.4630 -0.0287
  221MOL0     C30387   8.717   5.110   3.433 -0.4673  0.2875  0.0818
  221MOL0     C30388   8.823   5.036   3.511 -0.4768 -0.2619  0.1074
  221MOL0     C30389   8.691   5.085   3.297  0.3941  0.4883 -0.1432
  221MOL0     C30390   8.784   5.006   3.217  0.8508  0.0407  0.4294
  221MOL0     O30391   8.719   4.918   3.126 -0.5690 -0.0947 -0.6880
  221MOL0     C30392   8.788   4.878   3.023 -1.1833  0.1166 -0.0121
  221MOL0     C30393   8.846   4.752   2.998  1.2162 -0.6187  0.3982
  221MOL0     C30394   8.931   4.729   2.886 -0.4277  0.0059 -0.6464
  221MOL0     C30395   8.964   4.825   2.798  0.1314  0.0336  0.2318
  221MOL0     O30396   9.036   4.797   2.692 -0.5048 -1.0575  0.3939
  221MOL0     C30397   8.983   4.693   2.603  0.1434  0.7490 -0.0007
  221MOL0     C30398   8.997   4.737   2.461  0.2587 -0.3157 -0.3003
  221MOL0     C30399   8.947   4.640   2.366  0.4179  0.4596 -0.7897
  221MOL0     C30400   8.940   4.687   2.222 -0.0637 -0.7851  0.1299
  221MOL0     C30401   9.056   4.645   2.138 -0.5364  0.5486 -0.4762
  221MOL0     C30402   9.051   4.671   1.985 -0.3366  0.1057 -0.2832
  221MOL0     C30403   9.180   4.636   1.921  0.6483 -0.1014 -0.4174
  221MOL0     C30404   9.234   4.498   1.962  0.0520  0.4946  1.5577
  221MOL0    Cl30405   9.377   4.443   1.858 -0.2506 -0.2394 -0.3173
  221MOL0     C30406   8.917   4.949   2.826  0.7934  0.3345  0.2681
  221MOL0     C30407   8.832   4.974   2.935  0.1529  0.0847  0.0993
  221MOL0     O30408   8.906   5.017   3.228  0.3321  0.3461  0.3039
  221MOL0     C30409   8.573   5.138   3.238  0.6804 -0.1900 -0.3975
  221MOL0     C30410   8.475   5.200   3.326  0.2924  0.0599  1.3219
  221MOL0     N30411   8.060   5.870   3.429 -0.0880 -0.3247 -0.2612
  221MOL0     N30412   7.945   5.918   3.400  0.7116 -0.6980 -0.9605
  221MOL0     C30413   7.981   5.444   3.733  0.3859  0.2270 -0.0061
  221MOL0     C30414   8.053   5.453   3.854 -0.1385 -0.1577 -0.3332
  221MOL0     C30415   8.270   5.332   4.233  0.3272 -1.3806  0.8450
  221MOL0     C30416   8.349   5.220   4.200 -0.0143 -0.0360  0.1978
  221MOL0     C30417   8.445   5.179   4.280 -0.3192 -0.3259 -0.2202
  221MOL0     C30418   8.477   5.245   4.396  0.2088 -0.2131 -0.2632
  221MOL0     O30419   8.585   5.198   4.472 -0.5161  0.0172  0.4118
  221MOL0     C30420   8.549   5.149   4.602 -0.0989 -0.6248 -0.3527
  221MOL0     C30421   8.654   5.182   4.711 -0.4759 -0.1197 -0.2898
  221MOL0     C30422   8.610   5.157   4.857 -0.5203  0.5374 -0.2561
  221MOL0     C30423   8.741   5.165   4.934 -0.9929  0.7100  0.4394
  221MOL0     C30424   8.764   5.311   4.943 -0.3266  1.0452  0.7633
  221MOL0     C30425   8.770   5.429   4.933 -0.3900  0.1809  0.0713
  221MOL0     C30426   8.399   5.347   4.441  0.0353  0.1555 -0.0730
  221MOL0     C30427   8.302   5.400   4.354  0.3081 -0.0354  0.0228
  221MOL0     C30428   8.231   5.535   4.405 -0.9699 -0.1261 -0.2334
  221MOL0     H30429   8.215   5.154   3.808 -1.0871 -0.6415  1.3337
  221MOL0     H30430   8.109   5.145   3.625 -2.6503  0.0182 -3.6387
  221MOL0     H30431   7.887   5.522   3.489  1.4448 -1.5642 -1.4240
  221MOL0     H30432   7.745   5.427   3.562  0.5279 -4.8951  0.3735
  221MOL0     H30433   7.838   5.340   3.305 -3.7237 -1.9236 -2.4468
  221MOL0     H30434   7.681   5.334   3.395  2.1483 -2.5108  2.3964
  221MOL0     H30435   7.794   5.599   3.284 -1.2133  0.3656 -3.8873
  221MOL0     H30436   7.738   5.488   3.180 -0.7471 -1.4683 -0.4351
  221MOL0     H30437   7.523   5.498   3.298 -1.0367  0.8486  0.0190
  221MOL0     H30438   7.584   5.577   3.437 -1.4188  0.0240  0.1766
  221MOL0     H30439   7.449   5.741   3.321 -0.5483  0.9003  0.4261
  221MOL0     H30440   7.526   5.694   3.169  0.0025 -0.4061  0.1334
  221MOL0     H30441   7.741   5.829   3.277  0.6751 -1.7109  3.6348
  221MOL0     H30442   7.582   5.918   3.267  0.8659 -2.5307 -4.6864
  221MOL0     H30443   7.675   5.764   3.505  2.1605  1.6952 -0.5367
  221MOL0     H30444   7.539   5.875   3.496  0.2369  2.3220  0.0482
  221MOL0     H30445   7.717   6.042   3.430  3.1979 -0.1081 -1.0657
  221MOL0     H30446   7.701   6.013   3.608 -0.3076 -0.0152  0.0339
  221MOL0     H30447   7.902   5.807   3.705 -3.6732 -2.3374 -1.9412
  221MOL0     H30448   8.144   5.688   3.702  0.3652  1.1461  0.6679
  221MOL0     H30449   8.243   5.826   3.655 -1.4151 -0.0742  1.3108
  221MOL0     H30450   8.185   5.624   3.429 -1.4257 -2.4072  1.8094
  221MOL0     H30451   8.350   5.701   3.477  4.7558 -6.5183 -1.6448
  221MOL0     H30452   8.416   5.547   3.605  0.5929  0.7814 -1.5932
  221MOL0     H30453   8.257   5.500   3.663  0.6855  3.0347  2.1777
  221MOL0     H30454   8.214   5.365   3.486  0.9259 -2.0268  1.3243
  221MOL0     H30455   8.346   5.427   3.384  1.4023  0.5168  2.0671
  221MOL0     H30456   8.627   5.177   3.618 -4.4071 -0.2234  0.4528
  221MOL0     H30457   8.838   5.088   3.606  0.5907  0.0440 -0.2082
  221MOL0     H30458   8.921   5.031   3.462 -0.9220  0.0937 -0.8393
  221MOL0     H30459   8.795   4.932   3.529 -2.0528  0.1355  0.0546
  221MOL0     H30460   8.817   4.667   3.060 -1.3173  0.0916  0.2945
  221MOL0     H30461   8.964   4.626   2.876  1.2991  0.5970 -1.3407
  221MOL0     H30462   9.024   4.595   2.626  2.0884  1.6664  0.6987
  221MOL0     H30463   8.875   4.687   2.619 -0.2189  2.1507 -1.5648
  221MOL0     H30464   8.946   4.833   2.453 -2.5371 -1.6207  0.6281
  221MOL0     H30465   9.104   4.753   2.444  0.1353  1.6762  0.5111
  221MOL0     H30466   8.854   4.610   2.414  0.5966  0.8600 -0.1810
  221MOL0     H30467   9.021   4.560   2.372 -0.2408 -0.1265 -0.3778
  221MOL0     H30468   8.923   4.794   2.207  4.1913 -0.0369 -0.6018
  221MOL0     H30469   8.860   4.620   2.190 -0.5682 -2.0659  3.5678
  221MOL0     H30470   9.148   4.677   2.189 -0.7719  0.5197 -0.0281
  221MOL0     H30471   9.061   4.536   2.150  0.2049  0.4044 -1.8463
  221MOL0     H30472   9.017   4.773   1.962 -1.6488  0.2096  1.8913
  221MOL0     H30473   8.970   4.602   1.960 -2.7832  1.8975  2.0989
  221MOL0     H30474   9.263   4.701   1.948  0.1890  0.4799 -0.4059
  221MOL0     H30475   9.161   4.644   1.813 -1.3860 -0.9379 -0.1674
  221MOL0     H30476   9.152   4.425   1.965  0.2449  0.2917  2.0090
  221MOL0     H30477   9.284   4.505   2.058  2.4187 -0.2045  0.4355
  221MOL0     H30478   8.931   5.023   2.748 -2.5717 -0.7623 -1.5841
  221MOL0     H30479   8.801   5.078   2.942  0.9979  0.7582 -3.7461
  221MOL0     H30480   8.541   5.126   3.135  1.0997  0.2054 -0.5801
  221MOL0     H30481   8.380   5.231   3.283  0.1595 -1.2066  0.6533
  221MOL0     H30482   7.919   5.528   3.706 -3.9620 -3.1539 -1.8588
  221MOL0     H30483   8.034   5.530   3.928  1.4434 -0.9805  1.0267
  221MOL0     H30484   8.342   5.171   4.104  2.6457  0.7501 -0.4941
  221MOL0     H30485   8.507   5.095   4.249 -0.6022 -1.4540  2.0459
  221MOL0     H30486   8.456   5.188   4.646 -0.2217 -1.1519 -0.1395
  221MOL0     H30487   8.533   5.041   4.604  0.2391 -0.6731 -0.2455
  221MOL0     H30488   8.690   5.283   4.687  1.7926 -0.7867  0.0560
  221MOL0     H30489   8.739   5.118   4.687  3.6044  3.4589  2.8842
  221MOL0     H30490   8.532   5.221   4.898 -0.7703  1.2241 -1.7654
  221MOL0     H30491   8.570   5.057   4.876  1.8202 -0.3615  0.3537
  221MOL0     H30492   8.825   5.114   4.886  0.9065  0.1314  4.0602
  221MOL0     H30493   8.732   5.132   5.037  2.0999  1.0176  0.9026
  221MOL0     H30494   8.780   5.535   4.926 -0.9882  0.1276 -2.0860
  221MOL0     H30495   8.417   5.397   4.535  2.3647 -2.4520  1.0118
  221MOL0     H30496   8.304   5.596   4.459 -0.6847 -0.7679  0.1217
  221MOL0     H30497   8.211   5.592   4.314 -0.4669 -1.1991 -1.0303
  221MOL0     H30498   8.135   5.529   4.459 -0.2857  0.1356  1.0606
  222MOL0     O30499   9.290  11.355   2.834  0.3164  0.3907  0.2116
  222MOL0     C30500   9.396  11.385   2.881 -1.4827 -0.5369  0.0656
  222MOL0     O30501   9.483  11.485   2.831  0.1942 -0.3118  0.1989
  222MOL0     C30502   9.443  11.550   2.721  0.3907 -0.3074  0.5109
  222MOL0     C30503   9.355  11.659   2.722  1.1410  0.1562 -0.1068
  222MOL0     C30504   9.316  11.727   2.603 -0.7135 -0.4483  0.3490
  222MOL0     C30505   9.357  11.669   2.477  0.0385  0.4056  0.2919
  222MOL0     O30506   9.334  11.735   2.357  0.5353  0.2548 -0.4150
  222MOL0     C30507   9.288  11.871   2.360 -0.5398  0.1960 -0.0422
  222MOL0     C30508   9.257  11.926   2.218 -0.5809  0.9903 -0.0342
  222MOL0     C30509   9.155  11.826   2.157  0.4109  0.0218  0.2511
  222MOL0     C30510   9.083  11.890   2.036  0.7571  0.7218  0.1237
  222MOL0     C30511   8.967  11.812   1.981  0.0291 -0.5284  0.9086
  222MOL0     C30512   8.942  11.830   1.834  0.8427 -0.3493 -0.2242
  222MOL0     C30513   8.907  11.977   1.800 -0.6598  0.5073  0.0117
  222MOL0     C30514   8.794  12.030   1.890 -0.9737  0.0575 -0.4849
  222MOL0     N30515   8.673  11.954   1.863  0.0864 -0.0268 -0.1848
  222MOL0     C30516   8.603  11.935   1.748 -0.6433  0.5446  0.1774
  222MOL0     C30517   8.503  11.850   1.776 -0.0393  0.5819  0.4204
  222MOL0     C30518   8.393  11.811   1.673 -0.5031  0.1225 -0.2430
  222MOL0     C30519   8.427  11.819   1.522  0.5829  0.2406  0.7761
  222MOL0     C30520   8.530  11.708   1.482  0.1832 -1.0069  0.0374
  222MOL0     C30521   8.485  11.570   1.521 -0.0391 -0.5756  0.3378
  222MOL0     O30522   8.570  11.494   1.445  0.7581  0.1912 -0.4227
  222MOL0     C30523   8.534  11.359   1.433 -1.3369  0.2928  1.0735
  222MOL0     C30524   8.411  11.297   1.460 -0.8461  0.3177 -0.7481
  222MOL0     C30525   8.388  11.160   1.438  0.0968  0.8059 -0.4553
  222MOL0     C30526   8.252  11.101   1.474  0.8088  0.0157 -0.3134
  222MOL0     C30527   8.499  11.080   1.411 -0.3039 -0.0719 -0.3496
  222MOL0     C30528   8.477  10.935   1.401 -0.9963  0.8796  0.2055
  222MOL0     O30529   8.363  10.890   1.329  1.0100  0.9377  0.4708
  222MOL0     C30530   8.328  10.762   1.321 -0.0987  0.1500 -0.5028
  222MOL0     C30531   8.231  10.708   1.410  0.6896 -0.2828  0.8613
  222MOL0     C30532   8.181  10.580   1.388  0.0426 -0.7207 -0.3365
  222MOL0     C30533   8.233  10.503   1.284  0.8064 -0.1439  0.7980
  222MOL0     O30534   8.170  10.388   1.253 -0.1716  1.2173  0.5692
  222MOL0     C30535   8.223  10.265   1.301  0.6105 -0.7151 -0.4311
  222MOL0     C30536   8.134  10.149   1.246 -0.3081  0.6687  0.3451
  222MOL0     C30537   8.133  10.125   1.088  0.4077 -0.0131 -0.8068
  222MOL0     C30538   8.179   9.979   1.062  0.0216  0.0779  0.4991
  222MOL0     C30539   8.263   9.987   0.946 -0.6058 -0.3212  0.8722
  222MOL0     C30540   8.282   9.845   0.881 -0.8323  0.3779 -0.2670
  222MOL0     C30541   8.359   9.865   0.747 -0.8305  0.2679 -0.8620
  222MOL0     C30542   8.441   9.731   0.711  0.4292  0.5612 -0.6169
  222MOL0    Cl30543   8.574   9.688   0.830 -0.1380 -0.2944  0.0417
  222MOL0     C30544   8.331  10.559   1.201 -0.9848 -0.2164  0.8517
  222MOL0     C30545   8.385  10.683   1.220 -0.7892  0.1978  0.9081
  222MOL0     O30546   8.564  10.861   1.449 -0.4185  0.3350 -0.7945
  222MOL0     C30547   8.626  11.137   1.376  0.2227  0.3358  0.1901
  222MOL0     C30548   8.639  11.277   1.391 -0.5659 -0.4982 -0.2581
  222MOL0     N30549   8.521  11.807   1.904 -0.7324  0.6087 -0.8246
  222MOL0     N30550   8.617  11.871   1.959 -0.6973 -0.0237  0.0943
  222MOL0     C30551   9.419  11.547   2.471  0.5194  1.0425 -0.1741
  222MOL0     C30552   9.466  11.495   2.592 -0.2931  0.7989 -1.2721
  222MOL0     C30553   9.426  11.328   3.014 -0.3330  1.1381  0.2280
  222MOL0     C30554   9.503  11.406   3.109 -1.1449 -0.5502  0.0029
  222MOL0     C30555   9.508  11.369   3.237 -0.0672  0.0102  0.4038
  222MOL0     C30556   9.444  11.249   3.283  1.1570  1.2051  0.3575
  222MOL0     O30557   9.452  11.231   3.411 -0.0918  0.2692 -0.1599
  222MOL0     C30558   9.407  11.107   3.472 -0.3323  0.6257  0.5729
  222MOL0     C30559   9.423  11.110   3.628  0.1088  0.7620  0.0537
  222MOL0     C30560   9.336  11.213   3.686  0.0286 -0.5571  0.8999
  222MOL0     C30561   9.396  11.358   3.695 -1.0136  0.7609 -0.0587
  222MOL0     C30562   9.447  11.380   3.829 -0.6775  0.6355 -0.0852
  222MOL0     C30563   9.470  11.414   3.941 -0.4796 -0.3124 -0.1287
  222MOL0     C30564   9.388  11.162   3.185 -0.2317  0.3588 -0.2574
  222MOL0     C30565   9.375  11.195   3.058 -0.2862 -0.3530 -0.4192
  222MOL0     C30566   9.316  11.087   2.960 -1.0394  0.1943 -0.8406
  222MOL0     H30567   9.318  11.710   2.811  2.4009 -0.4121  0.7721
  222MOL0     H30568   9.266  11.823   2.616 -1.1061 -0.0636 -3.1663
  222MOL0     H30569   9.370  11.938   2.388 -0.5706  1.0778 -1.9464
  222MOL0     H30570   9.200  11.891   2.421 -0.4852  0.5342 -0.0711
  222MOL0     H30571   9.211  12.024   2.235 -0.5419  0.8648  0.8483
  222MOL0     H30572   9.353  11.932   2.166  1.3263 -1.5945  2.8350
  222MOL0     H30573   9.205  11.733   2.129  2.9006  0.1571  3.6852
  222MOL0     H30574   9.088  11.812   2.242  1.1671  1.7920  1.2078
  222MOL0     H30575   9.048  11.989   2.065 -0.9342  0.3561 -0.5718
  222MOL0     H30576   9.153  11.905   1.952  0.7275  0.3815  0.0372
  222MOL0     H30577   8.886  11.851   2.043  0.2889  1.9875 -0.2042
  222MOL0     H30578   8.973  11.703   1.980 -3.6771 -1.0091 -3.0473
  222MOL0     H30579   9.033  11.809   1.777 -1.2090  0.2327 -4.0086
  222MOL0     H30580   8.871  11.753   1.804  2.3910 -2.4403  1.1698
  222MOL0     H30581   8.863  11.989   1.700 -2.3677  1.3710  0.8256
  222MOL0     H30582   8.995  12.042   1.808  1.3170 -2.1258  1.1667
  222MOL0     H30583   8.818  12.027   1.996 -0.6707 -1.8703 -0.5722
  222MOL0     H30584   8.782  12.138   1.874 -0.2691  0.2647  0.3193
  222MOL0     H30585   8.628  11.986   1.655 -1.2681  0.5688  0.0177
  222MOL0     H30586   8.308  11.877   1.692 -0.6580 -0.6934  2.3122
  222MOL0     H30587   8.363  11.707   1.689  2.2873 -1.1656 -2.4859
  222MOL0     H30588   8.344  11.791   1.456 -0.4766 -0.9014  2.5271
  222MOL0     H30589   8.457  11.919   1.487 -0.4427 -0.1473 -1.4060
  222MOL0     H30590   8.547  11.719   1.375 -5.5298  2.8442 -0.9126
  222MOL0     H30591   8.628  11.731   1.526 -0.9639  3.1480  0.9133
  222MOL0     H30592   8.499  11.555   1.628  1.4983  2.5022  0.6755
  222MOL0     H30593   8.381  11.562   1.486 -0.2636 -1.2546  1.1359
  222MOL0     H30594   8.329  11.354   1.502  1.4636  0.2477  4.6158
  222MOL0     H30595   8.207  11.060   1.383 -1.5957  1.3148  0.2015
  222MOL0     H30596   8.182  11.183   1.491  1.2799  0.7208 -1.6587
  222MOL0     H30597   8.235  11.021   1.547 -0.7570  0.6092  0.0079
  222MOL0     H30598   8.183  10.773   1.483  4.0513  2.0768  1.2375
  222MOL0     H30599   8.101  10.539   1.450 -1.5118 -0.2698 -1.9452
  222MOL0     H30600   8.326  10.253   1.266  1.3619 -3.9061  2.3052
  222MOL0     H30601   8.224  10.261   1.411  0.8638  1.8228 -0.2730
  222MOL0     H30602   8.153  10.055   1.297  0.9964 -0.3915 -1.9227
  222MOL0     H30603   8.028  10.159   1.273  0.2745  1.5442  2.4625
  222MOL0     H30604   8.197  10.198   1.038 -1.0529 -0.0203 -2.8155
  222MOL0     H30605   8.037  10.142   1.037  0.3454 -3.1985 -1.9768
  222MOL0     H30606   8.094   9.912   1.053  1.0770 -1.4569  1.4925
  222MOL0     H30607   8.251   9.942   1.136  0.9838  0.8120 -0.0478
  222MOL0     H30608   8.209  10.042   0.868  0.5537  1.2662  1.1518
  222MOL0     H30609   8.351  10.044   0.978 -1.2424  0.0838  1.9469
  222MOL0     H30610   8.181   9.808   0.863 -0.1530 -0.8358 -1.8888
  222MOL0     H30611   8.333   9.794   0.964  1.4480 -2.0247 -2.9212
  222MOL0     H30612   8.428   9.949   0.749 -0.1706 -0.2512  1.5055
  222MOL0     H30613   8.286   9.879   0.666 -1.3844  1.7925 -0.1427
  222MOL0     H30614   8.489   9.740   0.613 -0.3844  3.1808 -0.8383
  222MOL0     H30615   8.372   9.646   0.703  2.3495 -0.9024 -3.0021
  222MOL0     H30616   8.355  10.499   1.114 -0.9661 -2.0835  2.0755
  222MOL0     H30617   8.469  10.718   1.160  0.3577 -0.6108  1.9878
  222MOL0     H30618   8.703  11.065   1.350  0.7863  1.0443 -0.1329
  222MOL0     H30619   8.731  11.329   1.367 -0.2474  0.0684  1.9154
  222MOL0     H30620   9.441  11.509   2.371  2.8095  1.7254  0.0142
  222MOL0     H30621   9.535  11.414   2.571 -0.8296  0.1552 -0.6161
  222MOL0     H30622   9.570  11.486   3.078 -1.2474 -0.4013  0.1646
  222MOL0     H30623   9.561  11.429   3.310 -2.6514  1.1732  1.4239
  222MOL0     H30624   9.301  11.082   3.463 -0.5846  1.8356 -0.0134
  222MOL0     H30625   9.455  11.022   3.422 -3.5942 -1.9372  1.4228
  222MOL0     H30626   9.528  11.124   3.655  0.2632  2.8057 -1.3536
  222MOL0     H30627   9.390  11.011   3.661  1.1545  0.8525  1.4651
  222MOL0     H30628   9.245  11.223   3.627 -0.1681 -3.2160  0.6621
  222MOL0     H30629   9.313  11.176   3.786  2.2985  0.1776  1.7746
  222MOL0     H30630   9.327  11.438   3.669 -0.8612  0.6155 -0.9391
  222MOL0     H30631   9.483  11.371   3.629 -0.0626  1.5140  1.2878
  222MOL0     H30632   9.489  11.452   4.040  1.3897 -0.3687 -0.4226
  222MOL0     H30633   9.364  11.063   3.224  1.8624  0.7686  2.3920
  222MOL0     H30634   9.207  11.088   2.976 -0.6989 -2.0057  2.5909
  222MOL0     H30635   9.349  11.103   2.857 -0.7857  0.4829 -0.7165
  222MOL0     H30636   9.353  10.989   2.991 -3.8077 -0.1007  2.0724
  223MOL0     O30637   7.545   4.299   0.292  0.1251 -0.3381 -0.6467
  223MOL0     C30638   7.640   4.223   0.325  0.2436 -0.3467  0.3889
  223MOL0     O30639   7.755   4.212   0.257  0.3786 -0.4463  0.0479
  223MOL0     C30640   7.785   4.320   0.173 -0.4542 -0.7621 -0.1378
  223MOL0     C30641   7.874   4.415   0.229 -0.0564 -0.2189 -0.0998
  223MOL0     C30642   7.924   4.514   0.151 -0.0165 -0.0947  0.0044
  223MOL0     C30643   7.873   4.526   0.021 -0.0503 -0.1400 -0.0180
  223MOL0     O30644   7.920   4.630  -0.058  0.4284 -0.9899 -0.1996
  223MOL0     C30645   7.863   4.761  -0.038 -0.9253  0.9715 -0.2849
  223MOL0     C30646   7.981   4.864  -0.012 -0.0498 -0.0044 -0.3507
  223MOL0     C30647   8.086   4.839   0.092  0.1777  0.7729 -1.2362
  223MOL0     C30648   8.189   4.950   0.086 -0.2256 -0.2638  0.1144
  223MOL0     C30649   8.321   4.923   0.162  0.4786 -0.7311 -0.2997
  223MOL0     C30650   8.285   4.874   0.304  0.6481 -0.0010  0.6944
  223MOL0     C30651   8.411   4.846   0.385 -0.8074 -0.7967 -0.3464
  223MOL0     C30652   8.374   4.800   0.524  0.7352 -0.4157  0.0631
  223MOL0     N30653   8.306   4.669   0.521  0.1767 -0.2226  0.1549
  223MOL0     C30654   8.357   4.553   0.471  1.1342 -0.1455  0.4522
  223MOL0     C30655   8.255   4.464   0.487  0.3888 -1.0938 -0.5724
  223MOL0     C30656   8.281   4.327   0.444  0.6149 -0.8865 -0.4662
  223MOL0     C30657   8.276   4.300   0.297 -0.5277  0.5537  0.1993
  223MOL0     C30658   8.344   4.165   0.266 -0.2483 -0.0078 -0.2813
  223MOL0     C30659   8.267   4.038   0.316 -0.0902  0.0453 -0.3197
  223MOL0     O30660   8.125   4.039   0.277 -0.1225  0.0746  0.6771
  223MOL0     C30661   8.091   3.956   0.173  0.3164 -0.4878 -0.3827
  223MOL0     C30662   8.081   3.817   0.192  0.2436 -0.4320  0.4196
  223MOL0     C30663   8.054   3.730   0.086 -0.4493 -1.1117 -0.2660
  223MOL0     C30664   8.085   3.581   0.095  0.7880 -0.7886  0.1576
  223MOL0     C30665   8.029   3.791  -0.042 -0.2563 -0.4928 -0.2879
  223MOL0     C30666   8.001   3.719  -0.169 -1.1735 -0.3661 -0.1826
  223MOL0     O30667   7.922   3.619  -0.160  0.5459 -0.1407 -0.8460
  223MOL0     C30668   7.893   3.544  -0.273 -0.1952 -0.6753 -0.1100
  223MOL0     C30669   8.007   3.466  -0.322 -0.2583 -0.0963  0.3827
  223MOL0     C30670   7.985   3.386  -0.437 -0.3901 -0.7437  0.5712
  223MOL0     C30671   7.858   3.382  -0.494  0.0838 -0.8185 -0.4495
  223MOL0     O30672   7.843   3.283  -0.587  0.0906  0.5992 -0.3335
  223MOL0     C30673   7.722   3.201  -0.590  0.0917 -0.1270  0.5394
  223MOL0     C30674   7.733   3.174  -0.739  0.3956  0.7713  0.2379
  223MOL0     C30675   7.666   3.037  -0.777  0.9883  0.7256  0.5031
  223MOL0     C30676   7.630   3.019  -0.916 -0.5953  0.6996 -0.4382
  223MOL0     C30677   7.531   3.114  -0.962  0.4692 -1.0661 -0.3025
  223MOL0     C30678   7.398   3.146  -0.877 -0.5614 -0.2404  0.7224
  223MOL0     C30679   7.282   3.184  -0.971  1.0027  0.2453  0.1924
  223MOL0     C30680   7.165   3.222  -0.889  0.4569  0.8403 -0.4746
  223MOL0    Cl30681   7.065   3.090  -0.804  0.2178  0.0799  0.3598
  223MOL0     C30682   7.754   3.453  -0.444 -0.2156 -0.1949  0.0756
  223MOL0     C30683   7.774   3.537  -0.326 -0.7472  0.3524 -0.0447
  223MOL0     O30684   8.052   3.763  -0.270 -0.6584  0.1032 -0.4529
  223MOL0     C30685   8.020   3.933  -0.047 -0.5787  0.2118  0.5144
  223MOL0     C30686   8.049   4.017   0.055 -0.1878 -0.2789  0.6177
  223MOL0     N30687   8.149   4.523   0.546  0.0636 -0.4670  0.5304
  223MOL0     N30688   8.177   4.644   0.551 -0.2323 -0.7863  0.4236
  223MOL0     C30689   7.786   4.436  -0.038  0.2143 -0.4950  0.3574
  223MOL0     C30690   7.740   4.331   0.038 -0.0191  0.7372  0.2514
  223MOL0     C30691   7.612   4.123   0.433  0.0526 -0.0867 -1.6461
  223MOL0     C30692   7.653   3.987   0.417 -0.5866 -0.7672 -0.8473
  223MOL0     C30693   7.656   3.899   0.528 -0.8672 -0.9282  0.4461
  223MOL0     C30694   7.593   3.938   0.644 -0.0440 -0.1657 -1.4763
  223MOL0     O30695   7.574   3.861   0.749  0.0657  0.2653 -0.9374
  223MOL0     C30696   7.628   3.730   0.750 -0.6716 -0.3675 -0.7415
  223MOL0     C30697   7.616   3.683   0.888 -0.2872 -0.0704  0.2899
  223MOL0     C30698   7.644   3.534   0.929 -0.1779  0.4050 -0.2311
  223MOL0     C30699   7.776   3.498   0.870  0.0684  0.0836 -1.1516
  223MOL0     C30700   7.818   3.360   0.892  0.4858  0.3377  0.2083
  223MOL0     C30701   7.863   3.249   0.905 -0.0133 -0.3495  1.0362
  223MOL0     C30702   7.543   4.065   0.657  1.0387  0.1903 -0.8087
  223MOL0     C30703   7.556   4.160   0.557  0.3970 -0.2748 -0.6690
  223MOL0     C30704   7.506   4.297   0.579 -0.6731  0.0678  0.7596
  223MOL0     H30705   7.917   4.398   0.328  1.8105 -2.6574 -1.2237
  223MOL0     H30706   7.995   4.591   0.180  0.4832  0.2655 -1.9785
  223MOL0     H30707   7.792   4.751   0.045 -2.7927 -0.8571 -2.0074
  223MOL0     H30708   7.799   4.781  -0.124 -1.8473 -0.9609 -0.0881
  223MOL0     H30709   8.027   4.885  -0.109 -1.5406  1.3853 -0.7980
  223MOL0     H30710   7.933   4.957   0.020 -2.1262 -0.2380 -2.5024
  223MOL0     H30711   8.041   4.847   0.191 -3.7109 -1.4562 -2.6077
  223MOL0     H30712   8.119   4.735   0.086  3.0026  1.5223 -0.2821
  223MOL0     H30713   8.220   4.979  -0.015  0.8302  0.5974  0.6650
  223MOL0     H30714   8.148   5.041   0.131  1.9664 -0.0353  1.7770
  223MOL0     H30715   8.380   5.015   0.159 -0.2179 -0.1976  1.3515
  223MOL0     H30716   8.391   4.846   0.128  1.8768 -0.9660  2.8301
  223MOL0     H30717   8.233   4.956   0.354 -0.0942  0.3389 -0.5880
  223MOL0     H30718   8.230   4.779   0.304  2.6330 -1.3097  3.8630
  223MOL0     H30719   8.450   4.947   0.398 -1.1720 -0.8436  1.2978
  223MOL0     H30720   8.489   4.788   0.336  2.0004  3.6392 -1.6997
  223MOL0     H30721   8.462   4.788   0.588 -1.1773 -5.1364  2.3063
  223MOL0     H30722   8.295   4.862   0.567  0.9785 -0.0495 -0.0139
  223MOL0     H30723   8.460   4.541   0.438  0.1618 -1.2784 -2.4354
  223MOL0     H30724   8.207   4.262   0.492  1.6741 -1.5564  0.3227
  223MOL0     H30725   8.374   4.289   0.488  1.6905  2.1180  0.0970
  223MOL0     H30726   8.172   4.300   0.261 -0.2093  2.3399 -0.7956
  223MOL0     H30727   8.336   4.379   0.253 -1.1107  0.3151 -1.0772
  223MOL0     H30728   8.351   4.156   0.157  2.2753 -0.0415 -0.1777
  223MOL0     H30729   8.444   4.167   0.311  1.1784  0.3599 -3.2486
  223MOL0     H30730   8.323   3.950   0.282  1.7536 -0.1302  2.8247
  223MOL0     H30731   8.263   4.030   0.425  1.3901 -1.6071 -0.3307
  223MOL0     H30732   8.101   3.779   0.291 -2.3563  1.5784  1.8346
  223MOL0     H30733   8.078   3.523   0.002  1.6594 -3.0168  1.3910
  223MOL0     H30734   8.025   3.529   0.171  2.4166  0.0683  2.1179
  223MOL0     H30735   8.185   3.569   0.136  1.4647  2.5072 -0.2926
  223MOL0     H30736   8.100   3.471  -0.267 -0.9206  0.6014  1.4928
  223MOL0     H30737   8.064   3.332  -0.489 -0.8193 -4.0337  3.0202
  223MOL0     H30738   7.735   3.102  -0.544  0.9092  0.0683  0.7421
  223MOL0     H30739   7.624   3.233  -0.552  0.3680 -3.0807  4.3768
  223MOL0     H30740   7.676   3.255  -0.785  1.7269  0.4688 -2.0624
  223MOL0     H30741   7.835   3.182  -0.776  0.7801  4.1409  1.6604
  223MOL0     H30742   7.590   3.008  -0.704  0.7970 -1.1108 -0.3713
  223MOL0     H30743   7.745   2.963  -0.760 -1.2646 -1.7380  0.8101
  223MOL0     H30744   7.605   2.915  -0.934  2.8683 -0.1792 -1.0251
  223MOL0     H30745   7.724   3.034  -0.971  1.1181  0.1550  2.1788
  223MOL0     H30746   7.576   3.212  -0.980  2.6740 -1.9308  0.2130
  223MOL0     H30747   7.495   3.067  -1.055  1.8390  0.8854 -1.9074
  223MOL0     H30748   7.419   3.224  -0.802  0.6075 -0.1203  0.2990
  223MOL0     H30749   7.362   3.061  -0.820 -1.3938 -0.8307 -0.6382
  223MOL0     H30750   7.248   3.101  -1.033  2.1234  0.0685 -0.2088
  223MOL0     H30751   7.312   3.256  -1.048  0.0542 -2.1805 -2.6148
  223MOL0     H30752   7.085   3.267  -0.950  0.0261 -1.1011 -1.4290
  223MOL0     H30753   7.202   3.288  -0.811 -2.5177  1.8153  0.2352
  223MOL0     H30754   7.653   3.448  -0.485 -1.2205  0.5604  2.2446
  223MOL0     H30755   7.702   3.604  -0.281 -1.4393 -1.0655  1.0440
  223MOL0     H30756   7.988   3.987  -0.136 -1.7199  0.9625  1.3423
  223MOL0     H30757   8.030   4.123   0.059 -0.2259 -0.2579 -0.0756
  223MOL0     H30758   7.766   4.423  -0.144  0.1207 -0.3206  0.3553
  223MOL0     H30759   7.673   4.257  -0.005  0.8974  0.6163 -1.0036
  223MOL0     H30760   7.712   3.949   0.335  3.0152 -0.6440  1.4571
  223MOL0     H30761   7.698   3.799   0.531 -1.7220 -1.3911 -1.5352
  223MOL0     H30762   7.589   3.654   0.681  0.5272  1.7158 -3.9732
  223MOL0     H30763   7.734   3.747   0.728 -1.0667  4.4734 -0.0970
  223MOL0     H30764   7.515   3.709   0.920  0.5393  1.4893  1.7971
  223MOL0     H30765   7.701   3.733   0.936 -0.2034 -1.4195  1.6143
  223MOL0     H30766   7.652   3.512   1.036 -0.9667  1.1098 -0.0188
  223MOL0     H30767   7.563   3.475   0.884  2.9719 -1.0623 -4.6236
  223MOL0     H30768   7.859   3.551   0.917 -0.2007 -0.0764 -0.4823
  223MOL0     H30769   7.763   3.520   0.764 -2.2465  0.1760 -0.9130
  223MOL0     H30770   7.897   3.148   0.900  1.7691  0.1328  2.5860
  223MOL0     H30771   7.505   4.093   0.755 -0.0161 -0.9009 -0.8767
  223MOL0     H30772   7.499   4.309   0.688 -0.9511  0.8085  0.6664
  223MOL0     H30773   7.574   4.367   0.531 -2.3829 -0.0765 -2.1004
  223MOL0     H30774   7.407   4.313   0.536 -0.7217  2.2472  1.5793
  224MOL0     O30775   3.871  11.044   8.169  0.0267  0.2687 -0.8186
  224MOL0     C30776   3.777  11.129   8.206  0.5302  1.0636  0.2860
  224MOL0     O30777   3.798  11.257   8.242 -0.8813  0.2914  0.1266
  224MOL0     C30778   3.935  11.289   8.255  0.3452 -0.6296  0.6173
  224MOL0     C30779   3.966  11.337   8.386 -0.2940 -0.5679 -0.0027
  224MOL0     C30780   4.098  11.388   8.411  0.7437 -0.7532  0.0362
  224MOL0     C30781   4.184  11.395   8.300 -0.5446  0.5336  0.2060
  224MOL0     O30782   4.314  11.424   8.328 -0.4785  0.6157  0.3287
  224MOL0     C30783   4.379  11.510   8.228 -0.2610  0.2134 -0.1364
  224MOL0     C30784   4.513  11.564   8.273  0.1530  0.7702  1.5377
  224MOL0     C30785   4.618  11.455   8.252  0.5407  0.0003 -0.5346
  224MOL0     C30786   4.758  11.521   8.276  0.0916  0.3567  0.3507
  224MOL0     C30787   4.862  11.415   8.318 -0.3531 -0.0031 -0.3164
  224MOL0     C30788   5.005  11.480   8.310  0.1538  0.3841 -0.6008
  224MOL0     C30789   5.109  11.432   8.412 -0.0596 -0.1396  0.5040
  224MOL0     C30790   5.146  11.277   8.401 -1.1293  0.1824  0.6951
  224MOL0     N30791   5.191  11.226   8.268 -0.2236 -0.6545 -0.2130
  224MOL0     C30792   5.107  11.185   8.170 -0.2800  0.2946  0.1952
  224MOL0     C30793   5.189  11.145   8.071 -0.1571  0.0292 -0.1196
  224MOL0     C30794   5.126  11.079   7.944  0.3225 -0.6966  0.1293
  224MOL0     C30795   5.201  10.954   7.895 -1.0114 -0.5171 -0.9686
  224MOL0     C30796   5.193  10.838   7.996 -0.2362 -0.1541  0.3281
  224MOL0     C30797   5.306  10.739   7.971 -0.6814 -0.3222 -0.2301
  224MOL0     O30798   5.308  10.681   7.834  0.3575 -0.2327  0.0040
  224MOL0     C30799   5.214  10.589   7.791  0.1025 -0.2812 -0.2175
  224MOL0     C30800   5.204  10.571   7.656 -0.2719 -0.2902  0.1659
  224MOL0     C30801   5.117  10.487   7.584  0.1104  0.0686 -0.0666
  224MOL0     C30802   5.126  10.479   7.431  0.3606 -0.7860  1.0667
  224MOL0     C30803   5.024  10.412   7.664 -0.2441  0.7671  0.4519
  224MOL0     C30804   4.932  10.304   7.605 -0.4957 -0.7697 -0.1773
  224MOL0     O30805   4.891  10.210   7.699 -0.0269 -0.0457 -0.7308
  224MOL0     C30806   4.802  10.117   7.658  0.4310  0.7452  0.9020
  224MOL0     C30807   4.855  10.019   7.578 -0.5998  0.3532 -0.2065
  224MOL0     C30808   4.772   9.929   7.515  0.1159 -0.0413  0.5112
  224MOL0     C30809   4.641   9.916   7.555  0.4753 -0.6877 -0.9682
  224MOL0     O30810   4.573   9.819   7.492 -0.3425  0.0228 -0.2137
  224MOL0     C30811   4.449   9.771   7.551 -0.0301 -0.7080 -0.6476
  224MOL0     C30812   4.412   9.634   7.475  0.8231 -0.0315  0.0790
  224MOL0     C30813   4.267   9.614   7.496 -0.2929  1.0583 -0.5669
  224MOL0     C30814   4.233   9.465   7.453  0.6946  0.1930  0.3049
  224MOL0     C30815   4.096   9.400   7.466 -0.4709  0.6091 -0.8792
  224MOL0     C30816   3.987   9.493   7.403  0.0836  0.3319 -0.0950
  224MOL0     C30817   3.851   9.419   7.414  0.2989  0.7574  0.1534
  224MOL0     C30818   3.749   9.509   7.331 -0.0123 -0.7324  0.1731
  224MOL0    Cl30819   3.778   9.689   7.352  0.1822 -0.6029 -0.1982
  224MOL0     C30820   4.582  10.013   7.639 -0.3793 -0.4464  0.3422
  224MOL0     C30821   4.665  10.115   7.696 -0.3022 -0.8832  0.7640
  224MOL0     O30822   4.882  10.312   7.492 -0.4353 -0.4578  0.0669
  224MOL0     C30823   5.026  10.436   7.806  0.5972  0.8666  1.0778
  224MOL0     C30824   5.118  10.526   7.864 -0.2394 -0.2250  0.3800
  224MOL0     N30825   5.319  11.161   8.113 -0.2888  0.5897 -0.3140
  224MOL0     N30826   5.321  11.209   8.235 -0.3754  0.2643  0.2220
  224MOL0     C30827   4.143  11.344   8.172 -1.1434  0.3053  0.3138
  224MOL0     C30828   4.022  11.294   8.153  0.3665  0.3687 -0.0708
  224MOL0     C30829   3.645  11.067   8.218  0.8014 -0.4908 -0.1148
  224MOL0     C30830   3.600  10.969   8.127  0.1833 -0.1151  0.5669
  224MOL0     C30831   3.491  10.904   8.136  0.3410  0.5595 -0.3837
  224MOL0     C30832   3.404  10.937   8.240 -0.0166 -1.3529 -0.9186
  224MOL0     O30833   3.280  10.889   8.248  0.4326 -0.5047 -0.4398
  224MOL0     C30834   3.244  10.818   8.361 -0.0519 -1.0960  0.1734
  224MOL0     C30835   3.119  10.753   8.309  1.0894  0.0198 -0.4136
  224MOL0     C30836   2.991  10.836   8.314  0.4346 -1.2539  0.6078
  224MOL0     C30837   2.863  10.773   8.266 -0.3174  0.7468 -0.5894
  224MOL0     C30838   2.739  10.833   8.326 -0.4839  0.0053 -0.2182
  224MOL0     C30839   2.650  10.904   8.372 -0.6043  1.2552 -0.2213
  224MOL0     C30840   3.441  11.041   8.329  0.3774 -0.1207  0.2246
  224MOL0     C30841   3.567  11.102   8.332 -0.1672  0.3735  0.2466
  224MOL0     C30842   3.605  11.190   8.453 -0.0957  0.2415  0.7397
  224MOL0     H30843   3.903  11.349   8.473  0.0928 -3.9123  0.8907
  224MOL0     H30844   4.131  11.425   8.508  3.0230  2.7400 -1.8526
  224MOL0     H30845   4.312  11.597   8.231 -0.7220 -0.0518 -1.9476
  224MOL0     H30846   4.395  11.467   8.129 -0.3287 -0.4560  0.1405
  224MOL0     H30847   4.544  11.646   8.207  1.2358 -0.9273 -0.1906
  224MOL0     H30848   4.499  11.595   8.376 -0.4692 -2.4811  2.5484
  224MOL0     H30849   4.602  11.380   8.330  1.1110 -0.6413 -1.0197
  224MOL0     H30850   4.603  11.413   8.152 -1.1661  0.3678 -0.4697
  224MOL0     H30851   4.800  11.545   8.178  2.1492 -2.4788  0.4387
  224MOL0     H30852   4.760  11.609   8.340  0.8611  0.7461 -0.1924
  224MOL0     H30853   4.856  11.327   8.254 -1.6460  0.0193 -0.2588
  224MOL0     H30854   4.848  11.386   8.422 -1.3989  4.3001  0.9677
  224MOL0     H30855   5.034  11.486   8.205 -1.7259  0.3679 -1.1583
  224MOL0     H30856   4.992  11.583   8.344 -1.4413 -0.3033  1.0189
  224MOL0     H30857   5.056  11.445   8.507  1.4989 -3.7914  2.0838
  224MOL0     H30858   5.199  11.492   8.394  1.6095 -2.5422  0.4567
  224MOL0     H30859   5.218  11.240   8.476  0.4647  0.5144 -0.6053
  224MOL0     H30860   5.058  11.216   8.423  0.7367 -2.8368  0.4099
  224MOL0     H30861   5.001  11.166   8.178 -0.5892  0.4047 -2.5306
  224MOL0     H30862   5.138  11.152   7.864 -2.1696 -1.3725 -0.9559
  224MOL0     H30863   5.019  11.062   7.957  0.0785  1.2541  1.0415
  224MOL0     H30864   5.166  10.918   7.798 -1.1363 -0.7579 -0.8377
  224MOL0     H30865   5.307  10.978   7.883 -0.3429 -2.0521  1.2104
  224MOL0     H30866   5.208  10.871   8.099  1.7351  0.5837 -0.1455
  224MOL0     H30867   5.095  10.789   7.992 -1.7263  2.6468  0.2775
  224MOL0     H30868   5.397  10.800   7.975 -1.5201  0.8966  1.0675
  224MOL0     H30869   5.302  10.665   8.051  1.7084  0.5421  0.7944
  224MOL0     H30870   5.276  10.639   7.611  0.4230 -0.8186  0.4438
  224MOL0     H30871   5.157  10.378   7.403 -2.4334 -2.0510  2.2202
  224MOL0     H30872   5.197  10.549   7.384 -1.4310  0.8669  0.6987
  224MOL0     H30873   5.029  10.500   7.386  1.7739  0.8361 -1.4735
  224MOL0     H30874   4.962  10.021   7.562 -0.6041 -1.6109 -0.7992
  224MOL0     H30875   4.804   9.861   7.437 -1.1177  1.9301 -1.8618
  224MOL0     H30876   4.447   9.763   7.660  1.9632  1.3845 -0.3633
  224MOL0     H30877   4.375   9.847   7.525  0.5257  0.0181 -0.1386
  224MOL0     H30878   4.432   9.642   7.368 -0.9192  1.4687 -0.1891
  224MOL0     H30879   4.471   9.556   7.524  1.8867 -0.4850 -1.8275
  224MOL0     H30880   4.199   9.685   7.448 -3.7928 -1.3882  0.3514
  224MOL0     H30881   4.240   9.617   7.602 -0.2392 -1.6997 -0.4203
  224MOL0     H30882   4.306   9.402   7.504 -0.8951 -1.2970  0.8354
  224MOL0     H30883   4.249   9.449   7.346 -4.3218 -1.7104 -0.4628
  224MOL0     H30884   4.084   9.303   7.417 -3.2277  0.4184 -0.0312
  224MOL0     H30885   4.081   9.394   7.575  0.7374 -0.6343 -0.7438
  224MOL0     H30886   4.003   9.506   7.296 -1.2537  0.8531 -0.2445
  224MOL0     H30887   3.979   9.580   7.469 -3.0212 -0.8765  1.2921
  224MOL0     H30888   3.813   9.413   7.516  0.6797 -0.4295  0.2373
  224MOL0     H30889   3.859   9.315   7.380 -1.7821  1.6473 -3.6882
  224MOL0     H30890   3.654   9.479   7.376  0.2761  0.7210  1.8626
  224MOL0     H30891   3.763   9.489   7.224  1.4121  1.6684 -0.1533
  224MOL0     H30892   4.477  10.012   7.666 -1.1052 -2.5022 -2.1464
  224MOL0     H30893   4.634  10.199   7.757  0.0213  0.7311 -1.1814
  224MOL0     H30894   4.957  10.380   7.869  0.4661 -0.1341  0.0871
  224MOL0     H30895   5.112  10.540   7.972  1.5324  1.1105  0.3535
  224MOL0     H30896   4.216  11.325   8.094 -3.1468 -1.5000 -1.2344
  224MOL0     H30897   3.986  11.248   8.062  0.4997 -0.1749  0.1469
  224MOL0     H30898   3.672  10.954   8.047  1.9980 -2.2888  2.4521
  224MOL0     H30899   3.465  10.822   8.070 -3.6344  2.4620 -1.4784
  224MOL0     H30900   3.320  10.742   8.383  1.4233 -0.2635 -1.7708
  224MOL0     H30901   3.235  10.894   8.439  1.8347 -0.8905  0.2364
  224MOL0     H30902   3.097  10.654   8.351  1.6598  1.3861  3.4912
  224MOL0     H30903   3.149  10.722   8.209  1.0127 -1.7534  0.0743
  224MOL0     H30904   2.982  10.866   8.419  0.9290 -1.4776  0.7191
  224MOL0     H30905   3.007  10.921   8.246 -0.1349 -2.0062 -0.5019
  224MOL0     H30906   2.867  10.666   8.289  0.0309  1.0823  1.0032
  224MOL0     H30907   2.850  10.782   8.158 -3.1667 -0.6376 -0.4486
  224MOL0     H30908   2.571  10.970   8.402  0.0722  2.5483 -1.1674
  224MOL0     H30909   3.358  11.061   8.395  0.6581 -3.5405  1.8197
  224MOL0     H30910   3.566  11.292   8.446 -0.2516  0.3386  2.6221
  224MOL0     H30911   3.561  11.153   8.546 -2.4403 -0.9490 -0.7399
  224MOL0     H30912   3.713  11.189   8.466 -0.4394 -1.2587  5.3851
  225MOL0     O30913  11.317   3.061   0.592  0.0212 -0.1368  0.6124
  225MOL0     C30914  11.333   2.943   0.550  0.5405  0.4310  0.9734
  225MOL0     O30915  11.423   2.896   0.454  0.3078 -0.7376 -0.4434
  225MOL0     C30916  11.516   2.990   0.408  0.4565  0.7744 -0.5338
  225MOL0     C30917  11.606   3.055   0.499  0.7432 -0.3335 -0.1099
  225MOL0     C30918  11.711   3.126   0.449 -0.8785 -0.1129 -0.0270
  225MOL0     C30919  11.739   3.144   0.316 -0.3305  0.2416  1.2700
  225MOL0     O30920  11.827   3.244   0.295 -0.2516 -0.7629  0.2822
  225MOL0     C30921  11.866   3.270   0.162 -1.2528 -0.2459  1.2276
  225MOL0     C30922  11.987   3.372   0.159  0.3326  0.1239  0.0765
  225MOL0     C30923  12.045   3.384   0.019 -0.3280 -0.2289  0.0880
  225MOL0     C30924  12.160   3.496   0.028  0.6259 -1.0303 -0.7502
  225MOL0     C30925  12.236   3.517  -0.104 -0.7962 -0.1172 -1.0547
  225MOL0     C30926  12.220   3.658  -0.162  0.1735 -0.2109  0.0606
  225MOL0     C30927  12.098   3.658  -0.245  0.7569 -0.7729  0.6302
  225MOL0     C30928  12.099   3.791  -0.325 -0.6541 -0.2162 -1.3938
  225MOL0     N30929  12.040   3.900  -0.253  0.2745 -0.2499 -0.0070
  225MOL0     C30930  11.994   3.893  -0.119  0.1519 -0.7158  0.1367
  225MOL0     C30931  11.933   4.010  -0.100  0.4816 -0.6654 -0.0973
  225MOL0     C30932  11.867   4.056   0.023 -0.4309 -0.3132  0.2315
  225MOL0     C30933  11.751   4.157   0.006  0.1111 -0.3639 -0.1928
  225MOL0     C30934  11.634   4.090  -0.073 -0.6017  0.3009  0.4995
  225MOL0     C30935  11.547   4.008   0.020 -0.1898 -0.2230  0.3755
  225MOL0     O30936  11.465   3.936  -0.068  0.0049 -0.1620 -0.1376
  225MOL0     C30937  11.393   3.833  -0.009 -0.8677 -0.2043 -0.1826
  225MOL0     C30938  11.353   3.817   0.120  0.2038 -0.5381 -0.8340
  225MOL0     C30939  11.283   3.708   0.164 -0.0635 -0.3001 -0.6151
  225MOL0     C30940  11.243   3.697   0.309  0.1769  0.0818  0.6121
  225MOL0     C30941  11.259   3.594   0.075  0.0372  0.4686 -0.6655
  225MOL0     C30942  11.202   3.470   0.122 -0.6282 -0.0945  0.1253
  225MOL0     O30943  11.281   3.360   0.098  0.5954  0.5473 -0.4728
  225MOL0     C30944  11.232   3.233   0.118  0.3031 -0.2885  0.3058
  225MOL0     C30945  11.225   3.135   0.012  0.2627  0.3477 -0.8423
  225MOL0     C30946  11.169   3.006   0.035 -0.0426  0.3525 -0.5302
  225MOL0     C30947  11.139   2.973   0.165 -0.1616  0.8148  0.0008
  225MOL0     O30948  11.077   2.846   0.179 -0.2826  0.0015 -0.5453
  225MOL0     C30949  11.017   2.803   0.303  0.9532 -0.2266 -0.2048
  225MOL0     C30950  10.917   2.693   0.260 -0.0197 -0.1605 -0.5943
  225MOL0     C30951  10.806   2.664   0.361 -0.7353 -0.1652  0.0565
  225MOL0     C30952  10.672   2.726   0.321  0.5863  0.5829 -0.8781
  225MOL0     C30953  10.560   2.704   0.429  0.4320  0.5319  0.3399
  225MOL0     C30954  10.578   2.742   0.579 -1.1871  0.2556 -0.7161
  225MOL0     C30955  10.461   2.694   0.671 -0.1776 -0.4119  0.4372
  225MOL0     C30956  10.433   2.554   0.684  0.2366  0.0017 -0.8215
  225MOL0    Cl30957  10.586   2.452   0.701 -0.1270  0.3058 -0.2063
  225MOL0     C30958  11.155   3.070   0.270  0.5219  0.9165  0.7910
  225MOL0     C30959  11.198   3.200   0.251 -0.3287  0.7853 -0.4690
  225MOL0     O30960  11.091   3.478   0.180 -0.8950 -0.0595 -0.2867
  225MOL0     C30961  11.287   3.625  -0.060  0.1951  0.3491  0.8000
  225MOL0     C30962  11.354   3.737  -0.099  0.2237  0.3550  0.5445
  225MOL0     N30963  11.943   4.085  -0.213 -0.6170 -0.8877 -0.3776
  225MOL0     N30964  11.995   4.017  -0.309 -0.2292  0.2110 -1.5889
  225MOL0     C30965  11.647   3.090   0.224  0.6696 -0.4073  0.3263
  225MOL0     C30966  11.536   3.008   0.278 -0.1810 -1.1904  0.8577
  225MOL0     C30967  11.242   2.826   0.597 -0.0640 -1.1380  0.2664
  225MOL0     C30968  11.306   2.696   0.593  1.5024  0.2326  0.2794
  225MOL0     C30969  11.233   2.581   0.633  1.3211  1.1456  0.7545
  225MOL0     C30970  11.100   2.587   0.667 -0.0574 -0.4651  0.6220
  225MOL0     O30971  11.031   2.475   0.701 -0.4417  0.6474 -0.5186
  225MOL0     C30972  10.993   2.481   0.840 -0.0546 -0.2194 -0.6222
  225MOL0     C30973  10.928   2.346   0.866  0.2297 -0.5100 -0.3778
  225MOL0     C30974  11.017   2.235   0.923 -0.8864  0.9566 -0.2408
  225MOL0     C30975  11.116   2.179   0.810 -0.8342  0.5617  0.2049
  225MOL0     C30976  11.163   2.035   0.835 -0.8100 -0.0035  0.1839
  225MOL0     C30977  11.205   1.924   0.862  0.3435  0.7990 -0.1686
  225MOL0     C30978  11.035   2.712   0.671  0.1944  1.1618 -0.3793
  225MOL0     C30979  11.116   2.828   0.663 -0.0278 -0.8714  0.4467
  225MOL0     C30980  11.042   2.968   0.668 -0.2328 -0.4356  0.6047
  225MOL0     H30981  11.585   3.040   0.605  2.2060  0.1425  0.2709
  225MOL0     H30982  11.774   3.176   0.522 -1.9523 -0.5579  1.2553
  225MOL0     H30983  11.792   3.316   0.096 -0.3415 -2.4372 -1.5556
  225MOL0     H30984  11.902   3.184   0.104 -2.8731  0.1115 -0.3786
  225MOL0     H30985  11.960   3.471   0.198  1.4682  0.8409 -0.8488
  225MOL0     H30986  12.064   3.332   0.224  1.1405  0.6335 -0.5388
  225MOL0     H30987  12.096   3.292  -0.010  1.1885  0.2866  1.0191
  225MOL0     H30988  11.972   3.411  -0.058 -0.8730 -0.9088  0.3614
  225MOL0     H30989  12.110   3.589   0.057 -0.0553 -1.0207 -1.8953
  225MOL0     H30990  12.225   3.476   0.113 -2.2673 -0.5343  1.7645
  225MOL0     H30991  12.197   3.437  -0.167  1.7215 -1.9357 -0.4238
  225MOL0     H30992  12.341   3.499  -0.078 -1.8143 -4.6133  0.9847
  225MOL0     H30993  12.229   3.727  -0.077  2.4105 -0.9632  0.4952
  225MOL0     H30994  12.309   3.652  -0.226 -0.2264 -0.9345 -0.4392
  225MOL0     H30995  12.007   3.643  -0.185  1.5266 -0.2646  1.9702
  225MOL0     H30996  12.100   3.571  -0.311 -0.4921  1.2488 -2.2707
  225MOL0     H30997  12.201   3.827  -0.344 -1.0015  2.7156  1.4486
  225MOL0     H30998  12.047   3.776  -0.420 -1.1025  3.7930 -1.9590
  225MOL0     H30999  12.007   3.818  -0.041 -0.8527 -2.2494 -1.1175
  225MOL0     H31000  11.940   4.108   0.087 -0.4626 -0.3752  0.3181
  225MOL0     H31001  11.842   3.964   0.077  1.3030 -1.4208 -0.7591
  225MOL0     H31002  11.720   4.190   0.105  0.8692 -0.7050  0.1749
  225MOL0     H31003  11.784   4.247  -0.046 -0.9494 -0.6508 -1.4155
  225MOL0     H31004  11.569   4.168  -0.114 -2.3435  0.4456  3.3214
  225MOL0     H31005  11.682   4.035  -0.155 -1.9623  0.4562 -0.4314
  225MOL0     H31006  11.594   3.932   0.083  1.6322  2.6300  2.7109
  225MOL0     H31007  11.487   4.079   0.078 -2.3651 -1.4484 -0.2502
  225MOL0     H31008  11.377   3.897   0.189 -0.2213 -2.7444  2.0405
  225MOL0     H31009  11.307   3.620   0.355 -1.9590 -0.6581  2.5386
  225MOL0     H31010  11.136   3.677   0.317  0.2549 -0.2443  0.8740
  225MOL0     H31011  11.259   3.784   0.373  0.8502 -2.4965  4.2873
  225MOL0     H31012  11.242   3.152  -0.094 -2.9585 -0.6612 -1.6386
  225MOL0     H31013  11.163   2.931  -0.043 -0.4810 -0.4867  0.2971
  225MOL0     H31014  11.091   2.752   0.365 -0.4699 -2.1395  0.0122
  225MOL0     H31015  10.961   2.884   0.351 -1.4794 -0.9225 -1.6830
  225MOL0     H31016  10.871   2.709   0.161 -2.3775  1.8856  0.7023
  225MOL0     H31017  10.981   2.605   0.257  2.6360  1.5914  0.8134
  225MOL0     H31018  10.829   2.708   0.458 -1.1603 -1.2848  0.6796
  225MOL0     H31019  10.799   2.555   0.374  2.5910 -0.6430 -1.0212
  225MOL0     H31020  10.634   2.696   0.222 -1.8440  1.2006 -0.2127
  225MOL0     H31021  10.670   2.836   0.321 -0.3295  0.5792 -0.9347
  225MOL0     H31022  10.470   2.759   0.400  0.5681  1.6643  1.9559
  225MOL0     H31023  10.533   2.598   0.428 -1.1777  0.8333 -2.8343
  225MOL0     H31024  10.602   2.847   0.599 -0.4479  0.4578 -2.5135
  225MOL0     H31025  10.664   2.689   0.620 -0.5875  1.8840  0.2413
  225MOL0     H31026  10.374   2.756   0.648 -0.0238 -0.2292  0.3508
  225MOL0     H31027  10.469   2.720   0.777  1.3163 -0.5678  0.3852
  225MOL0     H31028  10.373   2.517   0.599 -0.5547 -1.4054  0.2997
  225MOL0     H31029  10.371   2.530   0.771  1.3206 -1.7953 -0.4961
  225MOL0     H31030  11.124   3.042   0.370 -1.3591  2.0859  0.5983
  225MOL0     H31031  11.201   3.269   0.335 -0.2111 -3.0814  3.0357
  225MOL0     H31032  11.244   3.566  -0.140  0.2127  1.2512  0.1103
  225MOL0     H31033  11.361   3.753  -0.206  0.6390  1.1809  0.6952
  225MOL0     H31034  11.663   3.097   0.117 -2.4482 -0.5975 -0.2501
  225MOL0     H31035  11.476   2.952   0.207  0.7271 -0.6348 -0.3843
  225MOL0     H31036  11.405   2.676   0.554  2.0532 -0.5683  2.0061
  225MOL0     H31037  11.268   2.479   0.628  0.3369  0.8429 -1.9393
  225MOL0     H31038  11.070   2.493   0.916 -1.8150  1.9163  0.9397
  225MOL0     H31039  10.919   2.558   0.864 -0.6977 -1.0317  0.0728
  225MOL0     H31040  10.874   2.317   0.776 -3.2782  1.9201  0.7106
  225MOL0     H31041  10.843   2.365   0.933  0.2770 -1.2129 -0.1075
  225MOL0     H31042  11.081   2.267   1.006  1.2365 -1.8014 -0.6578
  225MOL0     H31043  10.942   2.164   0.957 -0.4932  0.4835 -0.3462
  225MOL0     H31044  11.211   2.233   0.804 -0.8713  0.5024 -1.2105
  225MOL0     H31045  11.066   2.179   0.713  1.2840  0.9225 -0.9531
  225MOL0     H31046  11.258   1.831   0.861  3.9222  2.4815  3.2312
  225MOL0     H31047  10.927   2.713   0.687  0.3652 -2.2221  1.9052
  225MOL0     H31048  11.006   3.000   0.570 -0.6412  1.7035  1.4130
  225MOL0     H31049  10.951   2.948   0.726  0.1149 -2.4281  0.5542
  225MOL0     H31050  11.100   3.048   0.714  3.4037 -2.9169  0.7520
  226MOL0     O31051   7.386  10.746   5.960 -0.4709 -0.6070 -0.1547
  226MOL0     C31052   7.353  10.673   6.052  0.1882  0.2830  0.3013
  226MOL0     O31053   7.437  10.602   6.124 -0.3080 -1.1455 -0.2044
  226MOL0     C31054   7.418  10.596   6.261 -0.6119  1.2093 -1.0991
  226MOL0     C31055   7.474  10.694   6.339 -0.6854  0.7048 -0.1039
  226MOL0     C31056   7.469  10.681   6.478 -1.0064  0.4935 -0.5087
  226MOL0     C31057   7.415  10.573   6.545 -0.2286 -0.1746  0.4758
  226MOL0     O31058   7.429  10.551   6.679  1.0901  0.9292  0.3804
  226MOL0     C31059   7.497  10.643   6.773 -0.8082 -0.0423 -0.8135
  226MOL0     C31060   7.648  10.601   6.797 -0.8874  0.4672 -0.0509
  226MOL0     C31061   7.661  10.451   6.821  0.2977  0.3836 -0.8260
  226MOL0     C31062   7.655  10.363   6.691 -0.4743  0.4620  0.5544
  226MOL0     C31063   7.627  10.216   6.729  0.1182 -0.5889  0.0377
  226MOL0     C31064   7.600  10.131   6.596  0.2671 -0.5301 -0.1830
  226MOL0     C31065   7.580   9.989   6.639  0.6955 -0.5923  0.7636
  226MOL0     C31066   7.436   9.941   6.645 -1.0024  1.1540  0.3935
  226MOL0     N31067   7.424   9.803   6.693 -0.1863  0.2071 -0.5162
  226MOL0     C31068   7.327   9.751   6.780 -0.0919  0.7139  0.0473
  226MOL0     C31069   7.352   9.615   6.776 -0.6145 -1.1273 -0.4115
  226MOL0     C31070   7.275   9.510   6.851 -1.0345  0.8110 -0.2155
  226MOL0     C31071   7.365   9.398   6.894  1.0701  0.6516 -0.3889
  226MOL0     C31072   7.418   9.290   6.789  0.0492 -0.3791  0.7139
  226MOL0     C31073   7.481   9.172   6.867 -0.9275 -0.8708 -0.6212
  226MOL0     O31074   7.569   9.209   6.981  0.8886  1.6926  0.4775
  226MOL0     C31075   7.690   9.272   6.955 -0.4869  1.0635  0.2836
  226MOL0     C31076   7.774   9.275   7.069 -0.8227  0.4174  0.0941
  226MOL0     C31077   7.907   9.311   7.058 -1.4257  0.1284  0.0731
  226MOL0     C31078   7.999   9.291   7.171  0.5623 -0.0389 -1.2327
  226MOL0     C31079   7.957   9.351   6.931 -0.2004  0.0228  0.6878
  226MOL0     C31080   8.095   9.403   6.905 -0.1588  0.7244 -0.4388
  226MOL0     O31081   8.142   9.371   6.770 -1.0815 -0.3083  1.0048
  226MOL0     C31082   8.269   9.401   6.735 -0.3202  0.1803 -0.3198
  226MOL0     C31083   8.341   9.291   6.685  0.1596  0.2912 -0.5388
  226MOL0     C31084   8.474   9.319   6.648 -0.4657  0.1552  0.5301
  226MOL0     C31085   8.527   9.452   6.642  0.3530  1.3695 -0.9226
  226MOL0     O31086   8.654   9.465   6.605  0.1986  0.5365 -0.6744
  226MOL0     C31087   8.715   9.596   6.566 -0.1723  1.0847  0.1611
  226MOL0     C31088   8.860   9.573   6.511  0.3338  0.1956 -0.0731
  226MOL0     C31089   8.963   9.498   6.604 -0.0983 -0.6659  0.0985
  226MOL0     C31090   9.090   9.479   6.528 -0.0122 -0.0962  0.3336
  226MOL0     C31091   9.171   9.354   6.566 -0.4439  0.1793  0.3807
  226MOL0     C31092   9.187   9.247   6.454 -0.4878 -0.7046  0.2673
  226MOL0     C31093   9.068   9.134   6.450 -0.3240 -0.0470  0.1518
  226MOL0     C31094   9.112   9.000   6.401 -0.6913 -0.7460 -0.2591
  226MOL0    Cl31095   9.148   8.983   6.234  0.1207  0.1207  0.0875
  226MOL0     C31096   8.437   9.556   6.681 -0.0074 -1.1432 -0.4657
  226MOL0     C31097   8.315   9.531   6.735  0.0961 -1.3980 -0.2199
  226MOL0     O31098   8.157   9.472   6.984 -0.7053  0.2892  0.4474
  226MOL0     C31099   7.874   9.340   6.815  0.0282  0.2970 -0.4469
  226MOL0     C31100   7.742   9.297   6.829 -0.1823 -0.4651  0.0500
  226MOL0     N31101   7.461   9.593   6.689  0.2748 -0.4490  0.2108
  226MOL0     N31102   7.504   9.703   6.647 -0.0713 -0.5060  1.0108
  226MOL0     C31103   7.349  10.473   6.454 -0.1199  0.6235 -1.3989
  226MOL0     C31104   7.359  10.486   6.321 -0.3869 -0.2262 -0.3505
  226MOL0     C31105   7.205  10.669   6.091 -0.4583  0.3074  0.1070
  226MOL0     C31106   7.134  10.557   6.071  0.2214 -0.2625  0.5908
  226MOL0     C31107   6.996  10.554   6.084  0.2824 -0.6921 -0.1783
  226MOL0     C31108   6.933  10.671   6.118  0.6555  0.1665  0.9828
  226MOL0     O31109   6.792  10.665   6.142  0.0372  0.4933 -0.2679
  226MOL0     C31110   6.714  10.750   6.055 -1.0749  0.5234 -0.6840
  226MOL0     C31111   6.690  10.673   5.919  0.7906 -0.1820  0.5845
  226MOL0     C31112   6.630  10.533   5.939 -0.6808  0.0364  0.2744
  226MOL0     C31113   6.493  10.524   6.018 -0.8115 -0.1220  0.9874
  226MOL0     C31114   6.497  10.395   6.086  0.5526 -0.3293  0.6125
  226MOL0     C31115   6.514  10.286   6.136  1.1419  0.9001 -0.2879
  226MOL0     C31116   7.002  10.790   6.152 -1.1544  0.6109 -0.4237
  226MOL0     C31117   7.141  10.783   6.144 -0.8235  1.0156  0.0613
  226MOL0     C31118   7.220  10.918   6.165  1.4784  0.3721  0.7843
  226MOL0     H31119   7.523  10.768   6.276  4.2960 -2.5998 -0.7161
  226MOL0     H31120   7.516  10.762   6.533  3.0202 -0.7234 -1.8186
  226MOL0     H31121   7.448  10.648   6.871  1.4540  1.6765  0.3263
  226MOL0     H31122   7.493  10.746   6.737  2.2340  1.0538  1.5532
  226MOL0     H31123   7.697  10.615   6.700 -1.3587  1.1452 -0.2005
  226MOL0     H31124   7.704  10.671   6.860 -0.2450  0.7871 -0.9598
  226MOL0     H31125   7.757  10.439   6.870  2.1047  1.8545 -3.7163
  226MOL0     H31126   7.575  10.430   6.886  1.9673 -1.9742  0.7810
  226MOL0     H31127   7.584  10.405   6.619  1.1315  0.2648 -1.2228
  226MOL0     H31128   7.755  10.374   6.650 -0.8511 -1.0396 -0.8718
  226MOL0     H31129   7.539  10.218   6.793  0.2897  0.0550  0.2653
  226MOL0     H31130   7.705  10.178   6.795  0.9428  0.4364 -0.3126
  226MOL0     H31131   7.510  10.167   6.545 -0.0260  2.5014  2.1793
  226MOL0     H31132   7.697  10.144   6.546  2.0509 -1.1972  2.8616
  226MOL0     H31133   7.619   9.986   6.741 -2.8062  0.5024  2.2896
  226MOL0     H31134   7.625   9.924   6.563 -4.0860 -1.7220 -1.4927
  226MOL0     H31135   7.387  10.009   6.715  0.4614  2.3175  0.3254
  226MOL0     H31136   7.382   9.960   6.551 -2.4760  3.5111  1.6063
  226MOL0     H31137   7.259   9.813   6.837  2.4947  1.0079  3.1240
  226MOL0     H31138   7.196   9.468   6.787  0.0031 -1.9924  0.1828
  226MOL0     H31139   7.226   9.552   6.938  0.2545 -1.7804  1.9173
  226MOL0     H31140   7.454   9.445   6.937 -0.0843  1.2017  1.5144
  226MOL0     H31141   7.296   9.345   6.960 -1.7655  3.5675 -0.7438
  226MOL0     H31142   7.332   9.260   6.728 -3.3369  3.6700  2.9666
  226MOL0     H31143   7.488   9.336   6.719  1.5817  2.6401  3.9232
  226MOL0     H31144   7.410   9.095   6.898  0.0219 -1.0355  1.3319
  226MOL0     H31145   7.543   9.121   6.793  1.2850 -0.3522  0.7689
  226MOL0     H31146   7.743   9.256   7.171  1.9867  1.1853  1.2087
  226MOL0     H31147   7.997   9.386   7.226 -0.2341 -0.4123 -0.5884
  226MOL0     H31148   8.104   9.277   7.145  1.2201  1.4001  0.3772
  226MOL0     H31149   7.965   9.215   7.242  3.5903  0.2140  0.6574
  226MOL0     H31150   8.290   9.196   6.695  1.9010 -0.4385  4.4747
  226MOL0     H31151   8.542   9.243   6.611  1.9944  1.1871  2.6337
  226MOL0     H31152   8.656   9.640   6.485  0.5534 -1.4237 -1.8480
  226MOL0     H31153   8.733   9.654   6.657  1.4835 -0.3746  0.8232
  226MOL0     H31154   8.847   9.523   6.415  0.0968 -0.2413  0.1773
  226MOL0     H31155   8.888   9.674   6.481 -0.6590  0.9242  1.3084
  226MOL0     H31156   8.919   9.400   6.625 -0.7313 -0.6409 -1.0774
  226MOL0     H31157   8.978   9.550   6.699  2.6019 -1.1594  0.0156
  226MOL0     H31158   9.150   9.566   6.555 -0.0026 -0.7232  2.4974
  226MOL0     H31159   9.074   9.475   6.419 -3.4991  2.3217  0.6298
  226MOL0     H31160   9.274   9.385   6.585 -0.4512  0.2474  0.3112
  226MOL0     H31161   9.143   9.302   6.658  0.6980  0.8237  1.1202
  226MOL0     H31162   9.281   9.193   6.467 -0.8986 -1.1168  1.8202
  226MOL0     H31163   9.196   9.303   6.360  0.9052  0.4045  1.0099
  226MOL0     H31164   8.986   9.178   6.394  1.0607  2.4778 -0.0550
  226MOL0     H31165   9.023   9.126   6.549 -2.1102 -0.5659 -0.6743
  226MOL0     H31166   9.032   8.930   6.426 -0.3859 -0.7602  0.7348
  226MOL0     H31167   9.199   8.974   6.463  0.9720  1.7568 -1.3610
  226MOL0     H31168   8.457   9.662   6.677 -0.1416 -1.0994  0.0657
  226MOL0     H31169   8.256   9.614   6.771 -0.0516 -1.3665 -0.5339
  226MOL0     H31170   7.903   9.361   6.713 -4.4733  1.4687 -1.7062
  226MOL0     H31171   7.669   9.301   6.749 -1.1058  3.3837  0.8859
  226MOL0     H31172   7.289  10.393   6.496  0.0676  1.3637  0.3331
  226MOL0     H31173   7.328  10.412   6.248  1.4942  2.2223 -3.9426
  226MOL0     H31174   7.183  10.465   6.043 -0.6818 -1.2476  2.0856
  226MOL0     H31175   6.938  10.464   6.067 -2.0983 -0.1186  3.7082
  226MOL0     H31176   6.622  10.777   6.108 -1.0396 -1.5071  0.5159
  226MOL0     H31177   6.770  10.839   6.023  0.5347  0.1026  0.8207
  226MOL0     H31178   6.784  10.683   5.865  2.4286 -0.1756  3.2547
  226MOL0     H31179   6.615  10.735   5.868  4.3070  3.1276 -1.1026
  226MOL0     H31180   6.598  10.504   5.839 -0.7731  1.8169 -0.2397
  226MOL0     H31181   6.711  10.471   5.979 -0.5497  0.0312 -0.0001
  226MOL0     H31182   6.402  10.531   5.958 -0.1218  2.4560  0.0792
  226MOL0     H31183   6.504  10.604   6.092  2.9303 -0.3779  0.9004
  226MOL0     H31184   6.529  10.188   6.177  3.3037 -0.2798 -3.5398
  226MOL0     H31185   6.962  10.878   6.201 -1.4472  0.8515 -1.0822
  226MOL0     H31186   7.326  10.895   6.182  1.0619 -0.3514  2.6638
  226MOL0     H31187   7.198  10.978   6.077 -0.4201  2.2509  2.4462
  226MOL0     H31188   7.188  10.966   6.258  0.7007  3.1830 -0.8538
  227MOL0     O31189   3.677   9.814   9.646 -0.2124 -0.4929 -0.1697
  227MOL0     C31190   3.561   9.840   9.683  0.0053  0.1641 -0.6304
  227MOL0     O31191   3.526   9.863   9.808  0.1629 -0.5986 -0.2556
  227MOL0     C31192   3.626   9.833   9.897  0.4619 -0.7142 -0.0513
  227MOL0     C31193   3.708   9.717   9.889 -0.4136 -0.7676 -0.9927
  227MOL0     C31194   3.806   9.692   9.987 -0.0501 -0.4347 -0.3007
  227MOL0     C31195   3.825   9.790  10.092  0.5714  0.3255  0.7558
  227MOL0     O31196   3.904   9.755  10.197  0.1675 -0.2054  0.5537
  227MOL0     C31197   4.021   9.836  10.219 -0.1846  0.5989 -0.1176
  227MOL0     C31198   4.099   9.779  10.338 -0.7009 -0.5533 -0.2080
  227MOL0     C31199   4.192   9.888  10.403  0.3774  0.5419 -0.5976
  227MOL0     C31200   4.291   9.930  10.302  0.8299  0.9182  0.2860
  227MOL0     C31201   4.425   9.992  10.364  0.5266 -0.4457 -0.5393
  227MOL0     C31202   4.389  10.134  10.390  0.4781 -0.2079  0.0228
  227MOL0     C31203   4.499  10.218  10.455 -0.3118 -0.4627 -0.4569
  227MOL0     C31204   4.533  10.177  10.595 -1.1604  0.2286  0.3721
  227MOL0     N31205   4.624  10.286  10.646 -0.7975  0.3793 -0.2070
  227MOL0     C31206   4.594  10.362  10.759  0.0385  0.5196  0.0515
  227MOL0     C31207   4.706  10.453  10.755  0.0405  1.2073 -0.1329
  227MOL0     C31208   4.695  10.575  10.841 -0.9006  0.6515 -0.5667
  227MOL0     C31209   4.724  10.533  10.985  0.1275 -0.3094  0.6331
  227MOL0     C31210   4.853  10.469  11.038  0.6973  0.1687  0.2809
  227MOL0     C31211   4.986  10.520  10.971 -0.4654  0.2669 -0.6461
  227MOL0     O31212   4.994  10.660  10.989 -0.7190  0.1727 -0.1592
  227MOL0     C31213   5.068  10.742  10.910 -1.2025 -0.4266 -0.0069
  227MOL0     C31214   5.041  10.881  10.926 -0.0159 -0.2256  0.8748
  227MOL0     C31215   5.086  10.977  10.834  0.4283 -0.1610 -1.0360
  227MOL0     C31216   5.029  11.108  10.854  0.0731 -0.9022  0.2263
  227MOL0     C31217   5.185  10.936  10.749 -0.3160 -0.6553  0.9101
  227MOL0     C31218   5.257  11.029  10.657  0.0482  0.9643 -0.8883
  227MOL0     O31219   5.296  11.143  10.722 -0.0152 -0.1711 -0.4801
  227MOL0     C31220   5.386  11.226  10.663 -0.6562 -0.6397  0.0726
  227MOL0     C31221   5.518  11.247  10.719  1.0972 -0.5298 -0.0684
  227MOL0     C31222   5.602  11.342  10.660  0.1344 -0.8053 -0.0578
  227MOL0     C31223   5.565  11.422  10.550  0.8729  0.6534  1.2229
  227MOL0     O31224   5.655  11.509  10.502  0.5327 -0.8377 -0.2926
  227MOL0     C31225   5.620  11.622  10.420  1.0843  0.3554 -0.4859
  227MOL0     C31226   5.737  11.716  10.424  0.9102 -0.0627  0.1813
  227MOL0     C31227   5.760  11.777  10.566  0.4645  0.1637 -0.2619
  227MOL0     C31228   5.869  11.879  10.579  0.0275 -0.2168 -0.6535
  227MOL0     C31229   5.941  11.866  10.717  0.5533  0.0128  0.0437
  227MOL0     C31230   5.894  11.954  10.838  0.0709 -0.3384 -0.9151
  227MOL0     C31231   5.898  12.107  10.815 -0.4071  0.5206  0.3409
  227MOL0     C31232   6.026  12.149  10.764 -0.6923 -0.6016  0.0010
  227MOL0    Cl31233   6.158  12.082  10.867 -0.0137  0.3534 -0.0174
  227MOL0     C31234   5.431  11.420  10.512  0.0906  0.3839 -0.4585
  227MOL0     C31235   5.340  11.324  10.567 -1.2764  0.2343 -0.6588
  227MOL0     O31236   5.296  10.984  10.550 -0.0502 -0.9586  0.0437
  227MOL0     C31237   5.217  10.795  10.731  0.8486  0.6176  0.3245
  227MOL0     C31238   5.153  10.703  10.813 -0.0489  0.0039 -0.5176
  227MOL0     N31239   4.794  10.426  10.644  0.4536 -0.4478  0.5946
  227MOL0     N31240   4.738  10.328  10.584 -0.8058 -0.3287 -0.0838
  227MOL0     C31241   3.753   9.910  10.095 -0.2352  0.6325  0.4474
  227MOL0     C31242   3.650   9.925   9.995 -0.5536 -1.2279 -0.3674
  227MOL0     C31243   3.456   9.840   9.580  0.5830 -1.1996  0.0353
  227MOL0     C31244   3.324   9.873   9.622 -0.1728  0.1822  0.4738
  227MOL0     C31245   3.222   9.889   9.530  0.0699  0.3818  0.6867
  227MOL0     C31246   3.244   9.874   9.392 -0.0313 -0.7859 -0.3631
  227MOL0     O31247   3.131   9.893   9.315 -0.6807  0.0473  0.5374
  227MOL0     C31248   3.112   9.848   9.175  0.0438  0.4973  0.6482
  227MOL0     C31249   3.059   9.700   9.185  0.4199  0.0454 -0.1938
  227MOL0     C31250   2.913   9.681   9.223 -0.7142  0.0004  0.1797
  227MOL0     C31251   2.856   9.540   9.182  0.1831 -0.6182 -0.4920
  227MOL0     C31252   2.905   9.422   9.254 -0.5880 -0.1230  0.4797
  227MOL0     C31253   2.932   9.327   9.326  0.0857  0.3494  0.7609
  227MOL0     C31254   3.371   9.838   9.349 -0.9987  1.7698  0.2991
  227MOL0     C31255   3.476   9.825   9.439 -0.4197  0.1522 -0.5711
  227MOL0     C31256   3.611   9.793   9.375  0.4928  0.3797 -0.3054
  227MOL0     H31257   3.700   9.644   9.809 -0.9202 -0.7714 -0.9403
  227MOL0     H31258   3.873   9.608   9.974  0.2077  0.1559 -3.4191
  227MOL0     H31259   3.991   9.941  10.227  0.5275  0.7859  0.1367
  227MOL0     H31260   4.087   9.827  10.133  1.3107 -3.6638  1.1983
  227MOL0     H31261   4.035   9.750  10.422 -2.9590 -0.6024 -1.8466
  227MOL0     H31262   4.153   9.697  10.289 -0.9633 -0.5917 -0.4337
  227MOL0     H31263   4.146   9.973  10.453 -0.6218 -0.4740  0.2782
  227MOL0     H31264   4.241   9.832  10.483  2.2188 -0.7749 -2.5257
  227MOL0     H31265   4.330   9.838  10.257  1.0451 -0.1791  2.5843
  227MOL0     H31266   4.235   9.990  10.230 -0.6714 -0.6970  0.0263
  227MOL0     H31267   4.494   9.988  10.280  2.6210 -0.8287  1.1066
  227MOL0     H31268   4.480   9.942  10.445  0.5084  1.3997  0.6855
  227MOL0     H31269   4.372  10.173  10.290 -1.7745  0.1015  0.4751
  227MOL0     H31270   4.291  10.137  10.438 -0.0778  2.9664 -1.0787
  227MOL0     H31271   4.463  10.321  10.463  0.8313  0.0561 -1.6121
  227MOL0     H31272   4.590  10.224  10.394 -0.7079  1.3862 -0.9209
  227MOL0     H31273   4.444  10.168  10.658  1.3245 -1.1153  4.0003
  227MOL0     H31274   4.582  10.080  10.589 -1.2808  0.1602  0.5228
  227MOL0     H31275   4.511  10.360  10.828 -0.6671  0.9764 -0.7700
  227MOL0     H31276   4.596  10.617  10.823 -0.5497  0.4223 -3.3552
  227MOL0     H31277   4.776  10.645  10.821 -1.6723  1.8217  0.2789
  227MOL0     H31278   4.724  10.622  11.048  3.7979 -1.5779  2.7458
  227MOL0     H31279   4.646  10.466  11.023  1.7807 -3.6777 -1.3965
  227MOL0     H31280   4.863  10.474  11.147  1.1603 -2.2995  0.3955
  227MOL0     H31281   4.840  10.363  11.018  2.8924  0.1204 -1.2095
  227MOL0     H31282   5.061  10.463  11.027 -1.3314  0.3502  0.6354
  227MOL0     H31283   4.986  10.492  10.865  1.9553 -1.6087 -0.2610
  227MOL0     H31284   4.974  10.925  11.000  0.5896  2.4776 -0.0749
  227MOL0     H31285   5.075  11.162  10.936 -1.6752  2.1176 -0.6236
  227MOL0     H31286   4.921  11.097  10.873 -0.0453  1.2423  1.0435
  227MOL0     H31287   5.041  11.175  10.768 -1.0722  1.8223  2.0564
  227MOL0     H31288   5.543  11.192  10.809 -2.2764 -1.0019  0.7344
  227MOL0     H31289   5.703  11.355  10.699 -0.7374  0.2509  1.9794
  227MOL0     H31290   5.609  11.581  10.319  0.7707  0.9302 -0.6868
  227MOL0     H31291   5.534  11.676  10.459  0.4540  1.5087 -3.2598
  227MOL0     H31292   5.834  11.672  10.401  2.2072  2.7006 -0.0490
  227MOL0     H31293   5.720  11.794  10.350 -1.0891 -0.0062  0.6386
  227MOL0     H31294   5.771  11.710  10.652 -0.8082  0.9740  0.5691
  227MOL0     H31295   5.658  11.815  10.580 -0.2376 -1.4409 -0.8744
  227MOL0     H31296   5.845  11.986  10.580  1.7547  0.2150  1.4717
  227MOL0     H31297   5.945  11.854  10.505  0.8950 -0.7290  0.3900
  227MOL0     H31298   5.939  11.761  10.746 -2.1611 -0.0514 -0.0648
  227MOL0     H31299   6.046  11.880  10.693 -0.0837  1.7509 -2.1084
  227MOL0     H31300   5.959  11.928  10.922 -0.7570 -0.8484 -0.4137
  227MOL0     H31301   5.793  11.918  10.863  0.8284 -1.7279  0.2698
  227MOL0     H31302   5.889  12.162  10.910  2.4426 -1.4704  1.9278
  227MOL0     H31303   5.818  12.142  10.750 -0.1470 -2.3840 -1.7290
  227MOL0     H31304   6.038  12.257  10.769  2.0671 -0.7873 -0.8494
  227MOL0     H31305   6.041  12.128  10.657 -2.5512  0.6659 -0.5677
  227MOL0     H31306   5.401  11.490  10.435 -1.1438  1.8780  1.2876
  227MOL0     H31307   5.237  11.318  10.534 -1.4616  0.9033 -0.2128
  227MOL0     H31308   5.275  10.764  10.645 -1.3591 -2.9820 -0.0577
  227MOL0     H31309   5.167  10.597  10.797  1.2741  0.1625 -0.5601
  227MOL0     H31310   3.765   9.977  10.180  2.6682 -1.7740  2.1354
  227MOL0     H31311   3.582  10.009  10.000  1.0600  0.0808  0.7928
  227MOL0     H31312   3.295   9.881   9.726  0.2259  1.8066  0.4876
  227MOL0     H31313   3.126   9.921   9.569 -0.4189 -0.1036 -0.0761
  227MOL0     H31314   3.038   9.904   9.117 -1.6208 -1.2092  1.0063
  227MOL0     H31315   3.206   9.848   9.118  0.7711 -0.5237  1.7996
  227MOL0     H31316   3.109   9.640   9.262  0.2176 -0.3084 -0.3386
  227MOL0     H31317   3.071   9.637   9.096  2.4677 -0.6242  0.5016
  227MOL0     H31318   2.904   9.695   9.331 -1.7356  2.3741 -0.1331
  227MOL0     H31319   2.850   9.757   9.175 -1.8564 -3.1565 -3.9512
  227MOL0     H31320   2.881   9.528   9.076  1.6405 -0.2877 -0.2083
  227MOL0     H31321   2.747   9.539   9.191  0.1542  1.4740 -0.0033
  227MOL0     H31322   2.947   9.244   9.392  0.7409  0.0662  0.2726
  227MOL0     H31323   3.391   9.820   9.244 -1.0210  1.5820  0.3255
  227MOL0     H31324   3.612   9.738   9.280  1.5998  0.0333 -0.1087
  227MOL0     H31325   3.684   9.873   9.363  0.3736  1.1154  3.0253
  227MOL0     H31326   3.640   9.707   9.436 -1.4746 -1.3017 -1.6030
  228MOL0     O31327   4.141  10.132   4.696 -0.1537  0.3715  0.1938
  228MOL0     C31328   4.156  10.206   4.791  0.8663  1.1807 -0.4122
  228MOL0     O31329   4.275  10.220   4.860 -0.9268 -0.2175 -0.6473
  228MOL0     C31330   4.378  10.153   4.807  0.1838  0.4496 -0.1658
  228MOL0     C31331   4.394  10.019   4.818  0.8276  1.1429  0.4532
  228MOL0     C31332   4.508   9.949   4.776 -0.5965  0.0503  0.3063
  228MOL0     C31333   4.608  10.022   4.702  0.6860  0.2448 -1.0610
  228MOL0     O31334   4.727   9.963   4.655  0.3342 -0.7042 -1.2164
  228MOL0     C31335   4.816   9.930   4.762 -0.3526 -0.3364 -0.3287
  228MOL0     C31336   4.940   9.875   4.694  0.3031  0.9820  0.4803
  228MOL0     C31337   5.058   9.833   4.788 -0.2059  0.1144 -0.4021
  228MOL0     C31338   5.045   9.688   4.865 -0.5730  0.2971  0.0308
  228MOL0     C31339   5.004   9.702   5.006  0.4298 -0.0315 -1.0000
  228MOL0     C31340   5.055   9.591   5.101 -0.5226 -0.3983  0.3336
  228MOL0     C31341   4.972   9.461   5.100  0.3542  0.2288  0.3744
  228MOL0     C31342   5.060   9.337   5.136  0.2628  1.0265 -0.4399
  228MOL0     N31343   4.972   9.224   5.170  0.1684 -0.0843  0.4700
  228MOL0     C31344   4.901   9.149   5.085 -0.8355  0.0900 -0.0255
  228MOL0     C31345   4.794   9.111   5.170  0.2530  0.5845 -0.7774
  228MOL0     C31346   4.673   9.025   5.130 -0.1775  0.8600 -0.3068
  228MOL0     C31347   4.575   9.096   5.042  0.2267 -0.1058 -0.3090
  228MOL0     C31348   4.469   9.164   5.128  0.6724  0.8619  0.4226
  228MOL0     C31349   4.367   9.055   5.178  0.3809  0.4713 -0.4462
  228MOL0     O31350   4.311   9.090   5.305 -0.0975  0.3673 -0.1012
  228MOL0     C31351   4.198   9.012   5.342  0.9573  1.0543 -0.0149
  228MOL0     C31352   4.092   9.073   5.419 -1.6223 -0.5219  0.0455
  228MOL0     C31353   3.959   9.013   5.438  0.0705 -0.5005  0.0636
  228MOL0     C31354   3.862   9.091   5.514  0.6252  0.8448 -0.1652
  228MOL0     C31355   3.929   8.890   5.378  0.5637 -0.1159 -0.4483
  228MOL0     C31356   3.809   8.814   5.391  0.0437  0.0410  0.5230
  228MOL0     O31357   3.813   8.686   5.341 -1.2763  0.0961 -0.0789
  228MOL0     C31358   3.702   8.608   5.346  1.0039 -0.0973 -0.2578
  228MOL0     C31359   3.669   8.544   5.459 -0.0510  0.8145 -0.1889
  228MOL0     C31360   3.550   8.472   5.454  0.1664 -0.2377  0.1424
  228MOL0     C31361   3.467   8.459   5.337 -1.0629 -1.5707 -0.8108
  228MOL0     O31362   3.361   8.382   5.336  0.4513 -1.1534  0.3368
  228MOL0     C31363   3.323   8.298   5.447  0.1004  0.4452 -0.7516
  228MOL0     C31364   3.201   8.208   5.430  0.0306  0.9788 -0.9609
  228MOL0     C31365   3.165   8.089   5.527 -0.2465 -0.3886  0.3636
  228MOL0     C31366   3.021   8.040   5.513  0.1988  0.4853 -0.5719
  228MOL0     C31367   2.985   7.953   5.638  0.5106  0.4317 -0.8403
  228MOL0     C31368   2.893   7.826   5.613  0.4454  0.0093 -0.4841
  228MOL0     C31369   2.756   7.865   5.555 -0.2152  0.5958 -0.0339
  228MOL0     C31370   2.688   7.990   5.604  0.1919 -0.0172 -0.3916
  228MOL0    Cl31371   2.622   7.971   5.770 -0.0139  0.1751  0.6578
  228MOL0     C31372   3.516   8.516   5.222 -0.0247  0.4873  0.1123
  228MOL0     C31373   3.629   8.595   5.229  0.5071 -0.7904 -0.0443
  228MOL0     O31374   3.704   8.857   5.448  0.5555  0.1226  0.5061
  228MOL0     C31375   4.032   8.828   5.303  0.3782  0.2785  0.0026
  228MOL0     C31376   4.162   8.884   5.279  0.0128  0.3409 -1.0267
  228MOL0     N31377   4.833   9.142   5.304  0.3466  0.0062 -0.9137
  228MOL0     N31378   4.939   9.212   5.300  0.0797  0.2937 -0.6928
  228MOL0     C31379   4.584  10.158   4.678 -0.6758 -0.1869  0.3365
  228MOL0     C31380   4.478  10.223   4.731  0.2841  0.1683  0.3500
  228MOL0     C31381   4.040  10.291   4.847  0.9676 -0.2695  1.3124
  228MOL0     C31382   4.070  10.375   4.952  0.4495  0.5923 -0.8325
  228MOL0     C31383   3.978  10.468   5.000  0.5043  0.2234 -0.4249
  228MOL0     C31384   3.856  10.480   4.938 -0.5537  0.0846 -0.1089
  228MOL0     O31385   3.765  10.577   4.979 -0.5440 -0.2347  0.3750
  228MOL0     C31386   3.626  10.561   4.933  0.1568 -1.1348  1.0126
  228MOL0     C31387   3.542  10.663   5.014 -0.0659  0.1940  0.6251
  228MOL0     C31388   3.573  10.813   4.996  0.5555  0.1394  0.8469
  228MOL0     C31389   3.484  10.881   4.889  0.7743  0.9692 -0.6354
  228MOL0     C31390   3.516  10.854   4.753  0.0190 -0.2070 -0.3474
  228MOL0     C31391   3.516  10.843   4.634 -0.1231  0.2626  0.9634
  228MOL0     C31392   3.819  10.395   4.835  0.9356 -0.3836  0.4701
  228MOL0     C31393   3.909  10.301   4.785  0.3814  0.2582 -0.2166
  228MOL0     C31394   3.860  10.214   4.671 -0.0066 -0.0456  0.9707
  228MOL0     H31395   4.315   9.962   4.866  0.6444 -0.0660 -1.2160
  228MOL0     H31396   4.530   9.845   4.798 -0.0476 -0.1223 -0.9897
  228MOL0     H31397   4.771   9.854   4.827 -2.4968 -0.4181 -1.8159
  228MOL0     H31398   4.840  10.018   4.821 -3.2712  0.7817 -0.6686
  228MOL0     H31399   4.914   9.780   4.648 -4.4059  2.4785 -0.4979
  228MOL0     H31400   4.963   9.950   4.618 -1.9033 -1.4504 -2.8212
  228MOL0     H31401   5.141   9.826   4.717 -1.2575  0.7709 -1.7398
  228MOL0     H31402   5.069   9.907   4.869 -1.0157  1.0814 -1.1453
  228MOL0     H31403   4.980   9.615   4.816  0.9956 -2.6626  2.0511
  228MOL0     H31404   5.149   9.654   4.873 -0.8230 -0.0467  3.3095
  228MOL0     H31405   4.899   9.729   5.016  0.9339  1.1487  5.0494
  228MOL0     H31406   5.050   9.791   5.050 -0.5671 -0.4852  1.0911
  228MOL0     H31407   5.161   9.574   5.079  0.3738  4.6115 -0.4278
  228MOL0     H31408   5.058   9.641   5.199  0.0501 -2.2680  1.3241
  228MOL0     H31409   4.943   9.437   4.998 -2.1995 -0.7278  1.2611
  228MOL0     H31410   4.891   9.483   5.170 -0.4289  0.4052 -0.5760
  228MOL0     H31411   5.122   9.307   5.051 -1.7248  0.0842 -1.6267
  228MOL0     H31412   5.129   9.348   5.219  0.4673 -1.5222 -0.1911
  228MOL0     H31413   4.904   9.135   4.978 -1.9591 -1.2484  0.0797
  228MOL0     H31414   4.622   8.988   5.219  0.6233  1.3402  0.3730
  228MOL0     H31415   4.699   8.940   5.067 -1.8033 -2.3283  2.9914
  228MOL0     H31416   4.632   9.170   4.985  0.4371  1.5380  1.8764
  228MOL0     H31417   4.534   9.021   4.974 -0.0413 -0.3408  0.1061
  228MOL0     H31418   4.526   9.206   5.212  0.8088 -0.2615  0.9177
  228MOL0     H31419   4.414   9.239   5.072 -0.9296 -0.0125  0.7628
  228MOL0     H31420   4.293   9.045   5.097 -0.4435  1.3312  0.1836
  228MOL0     H31421   4.406   8.956   5.201 -0.7667  0.1872  0.3553
  228MOL0     H31422   4.108   9.154   5.489 -0.6915 -3.8884  4.1596
  228MOL0     H31423   3.822   9.034   5.599  0.5502 -2.1536 -2.0494
  228MOL0     H31424   3.780   9.138   5.460 -0.9319  1.0322  2.2190
  228MOL0     H31425   3.904   9.181   5.559 -1.2273  0.8566  1.6664
  228MOL0     H31426   3.732   8.560   5.546  0.4146 -0.7145 -0.2039
  228MOL0     H31427   3.506   8.424   5.542 -2.1487  0.2592 -0.6714
  228MOL0     H31428   3.405   8.227   5.460 -1.3043 -0.6342  3.7614
  228MOL0     H31429   3.307   8.362   5.534  0.2696 -2.0474  1.2073
  228MOL0     H31430   3.109   8.266   5.420 -1.0959 -0.2532  1.4751
  228MOL0     H31431   3.208   8.144   5.341  0.5284 -0.4935  0.0967
  228MOL0     H31432   3.180   8.130   5.627 -1.5057  1.3471 -0.1055
  228MOL0     H31433   3.232   8.003   5.519 -0.9808 -0.9845  0.5125
  228MOL0     H31434   3.007   7.990   5.416 -0.7394 -1.9649  0.7253
  228MOL0     H31435   2.953   8.125   5.516  1.1112  1.2157  1.4824
  228MOL0     H31436   3.076   7.909   5.681  0.4211 -0.9396 -1.9777
  228MOL0     H31437   2.946   8.024   5.711 -0.6495  0.4662 -1.4692
  228MOL0     H31438   2.886   7.768   5.706  0.3178 -0.2619 -0.6619
  228MOL0     H31439   2.948   7.759   5.547  4.7578  2.7538 -0.0862
  228MOL0     H31440   2.684   7.783   5.558 -1.3929  1.5939 -0.2536
  228MOL0     H31441   2.765   7.876   5.447  1.1124  2.1532  0.1917
  228MOL0     H31442   2.610   8.031   5.540 -0.5243  0.8388  0.9701
  228MOL0     H31443   2.770   8.062   5.619  0.9133 -1.2608  2.1664
  228MOL0     H31444   3.464   8.516   5.127  5.0715 -0.0913 -3.0773
  228MOL0     H31445   3.662   8.651   5.142  0.6967  0.6969  0.9280
  228MOL0     H31446   4.034   8.731   5.255  2.9356 -0.3658  1.2200
  228MOL0     H31447   4.233   8.828   5.218 -0.0604  0.8794 -1.6240
  228MOL0     H31448   4.642  10.207   4.602  0.2027 -2.4287 -0.5355
  228MOL0     H31449   4.471  10.330   4.714 -0.5687  0.9021  4.3572
  228MOL0     H31450   4.158  10.343   5.008 -0.6232 -2.1455 -0.5646
  228MOL0     H31451   4.007  10.536   5.079  1.8839  0.7105 -1.3127
  228MOL0     H31452   3.632  10.591   4.827 -2.4162 -0.5016  0.9834
  228MOL0     H31453   3.573  10.465   4.937  0.9614 -1.6136  0.6160
  228MOL0     H31454   3.546  10.634   5.119 -2.6722  1.0497  1.0308
  228MOL0     H31455   3.437  10.646   4.987 -0.4567  1.9963  0.8574
  228MOL0     H31456   3.552  10.858   5.094  1.3590 -2.1836  2.1761
  228MOL0     H31457   3.677  10.838   4.974  0.5516 -2.2194 -2.5310
  228MOL0     H31458   3.502  10.989   4.896 -0.5383  1.2295 -0.9029
  228MOL0     H31459   3.380  10.851   4.907  0.7184  1.4280 -0.1664
  228MOL0     H31460   3.517  10.844   4.527  2.8488  3.4420  0.8373
  228MOL0     H31461   3.720  10.393   4.791  2.0388  0.4177 -2.2423
  228MOL0     H31462   3.774  10.256   4.618  2.4529  0.2362 -3.3627
  228MOL0     H31463   3.931  10.207   4.588  1.1821  0.4145  1.9200
  228MOL0     H31464   3.837  10.115   4.710 -0.1393 -0.5405 -0.3124
  229MOL0     O31465   6.774  11.176   3.861 -0.1574  0.0107  0.2057
  229MOL0     C31466   6.857  11.156   3.952  0.6919  0.3586  0.0154
  229MOL0     O31467   6.833  11.115   4.074 -0.2451 -0.0458  0.2717
  229MOL0     C31468   6.704  11.125   4.118  0.9491 -0.2520 -0.9636
  229MOL0     C31469   6.662  11.252   4.164 -0.2699 -0.1424  0.4007
  229MOL0     C31470   6.535  11.266   4.210  0.6793 -0.8264  0.2004
  229MOL0     C31471   6.446  11.156   4.224  0.0827  0.3991 -0.3500
  229MOL0     O31472   6.323  11.162   4.290 -0.5021  0.4527 -0.0767
  229MOL0     C31473   6.286  11.282   4.363  0.4552  0.1104  0.3447
  229MOL0     C31474   6.136  11.297   4.397  0.1563 -0.0458 -0.5007
  229MOL0     C31475   6.093  11.196   4.497  0.3850 -0.0490 -0.8478
  229MOL0     C31476   5.954  11.225   4.519 -0.1977 -0.1626  0.3083
  229MOL0     C31477   5.899  11.132   4.630 -0.2089 -0.2086  1.0511
  229MOL0     C31478   5.747  11.091   4.606 -0.5553  1.0055  0.2617
  229MOL0     C31479   5.650  11.202   4.652  0.6587 -0.2703 -0.1772
  229MOL0     C31480   5.507  11.148   4.655  0.0058  0.3311 -0.0468
  229MOL0     N31481   5.473  11.089   4.529 -0.4580 -0.3698  0.7145
  229MOL0     C31482   5.473  10.955   4.501  0.0409  0.0604  0.2029
  229MOL0     C31483   5.435  10.939   4.373  0.4752  0.1176  0.5976
  229MOL0     C31484   5.410  10.813   4.295  0.0381  0.0114 -0.8184
  229MOL0     C31485   5.525  10.785   4.186  0.4032  0.0552  0.1981
  229MOL0     C31486   5.466  10.704   4.070  0.2856 -0.2242  0.5826
  229MOL0     C31487   5.584  10.619   3.992  0.2173 -0.5582 -0.8518
  229MOL0     O31488   5.620  10.515   4.090 -0.3519  0.0718 -0.5939
  229MOL0     C31489   5.741  10.449   4.070  1.3522 -0.4000  0.3717
  229MOL0     C31490   5.811  10.404   4.185 -0.0136  0.0238  0.5525
  229MOL0     C31491   5.947  10.366   4.171  0.0121 -0.1371 -1.1874
  229MOL0     C31492   6.013  10.327   4.307 -0.3306 -1.0183 -0.0276
  229MOL0     C31493   6.016  10.369   4.047  0.4717  0.1734  0.2268
  229MOL0     C31494   6.160  10.332   4.035  1.0394  0.5315 -0.6716
  229MOL0     O31495   6.200  10.293   3.913 -0.0931  0.1124 -0.0810
  229MOL0     C31496   6.323  10.233   3.913  0.2248  1.3043 -0.7299
  229MOL0     C31497   6.431  10.286   3.842  0.0301 -0.5402 -0.7399
  229MOL0     C31498   6.545  10.209   3.813  0.0680 -0.3027 -0.5607
  229MOL0     C31499   6.563  10.082   3.857 -0.6731  1.0238  0.3577
  229MOL0     O31500   6.677  10.016   3.817  0.3213  0.0472  0.6095
  229MOL0     C31501   6.774   9.982   3.928 -0.6330 -0.3965 -0.0566
  229MOL0     C31502   6.836   9.856   3.901 -0.3121 -0.2865  0.6712
  229MOL0     C31503   6.916   9.836   3.779  0.1090  0.2500  0.0960
  229MOL0     C31504   7.052   9.919   3.772  0.3388 -0.4255 -0.8298
  229MOL0     C31505   7.170   9.838   3.835 -0.1523  0.5488  1.1252
  229MOL0     C31506   7.284   9.930   3.860 -0.0405 -0.8612 -0.6145
  229MOL0     C31507   7.409   9.849   3.906 -0.2943  0.3796  0.1285
  229MOL0     C31508   7.535   9.939   3.919  0.1552  0.1820  0.4719
  229MOL0    Cl31509   7.515  10.031   4.070 -0.8721 -0.4277  0.2079
  229MOL0     C31510   6.455  10.023   3.931 -0.9096  0.9045  0.3772
  229MOL0     C31511   6.329  10.096   3.941 -0.0596  0.4987 -0.2951
  229MOL0     O31512   6.227  10.344   4.135  0.3590 -0.1050 -0.1766
  229MOL0     C31513   5.948  10.427   3.943 -0.6772  0.5989  0.2065
  229MOL0     C31514   5.812  10.458   3.953 -0.2770  0.7414 -0.5207
  229MOL0     N31515   5.417  11.073   4.326 -0.2266 -0.7017 -0.5785
  229MOL0     N31516   5.441  11.161   4.418  0.5826 -1.1119  0.2049
  229MOL0     C31517   6.499  11.033   4.181  0.3452  0.7643 -0.4568
  229MOL0     C31518   6.622  11.014   4.120 -0.4431 -0.2612  0.0206
  229MOL0     C31519   6.991  11.160   3.910  0.1691  0.6020 -1.0549
  229MOL0     C31520   7.042  11.066   3.817  0.0013  0.2629 -0.5941
  229MOL0     C31521   7.176  11.062   3.774  0.2061  0.1664 -0.3538
  229MOL0     C31522   7.270  11.162   3.809 -0.4302  0.1181 -1.3813
  229MOL0     O31523   7.397  11.184   3.758  0.4566 -0.8072 -0.5738
  229MOL0     C31524   7.448  11.074   3.682 -0.5405 -0.4211  0.3603
  229MOL0     C31525   7.588  11.108   3.626 -0.4849  0.1652 -0.5122
  229MOL0     C31526   7.600  11.190   3.501 -0.0343  0.0221  0.9863
  229MOL0     C31527   7.519  11.318   3.498  0.5913 -0.7325  1.7279
  229MOL0     C31528   7.529  11.377   3.364  0.8234 -0.8650  0.2557
  229MOL0     C31529   7.522  11.410   3.247 -0.7488  0.2855  0.8520
  229MOL0     C31530   7.210  11.260   3.893 -0.7332 -0.9310 -0.0211
  229MOL0     C31531   7.080  11.257   3.953 -0.2612 -0.0858  0.5924
  229MOL0     C31532   7.054  11.375   4.041 -0.6062  0.1617  0.3185
  229MOL0     H31533   6.727  11.339   4.173  0.3339 -0.7824  3.0349
  229MOL0     H31534   6.498  11.361   4.246  3.0692 -0.3697  1.7430
  229MOL0     H31535   6.292  11.368   4.295  0.0370 -0.3394 -0.2698
  229MOL0     H31536   6.342  11.286   4.457  3.1285 -2.3549 -0.9902
  229MOL0     H31537   6.116  11.394   4.443  2.5081 -0.6984  2.2325
  229MOL0     H31538   6.071  11.282   4.310 -2.0191 -1.0083  1.2047
  229MOL0     H31539   6.110  11.094   4.462 -1.1444 -1.3226  1.8285
  229MOL0     H31540   6.150  11.221   4.587 -1.4559 -2.7530  1.2237
  229MOL0     H31541   5.928  11.326   4.551  0.5962  0.4468 -0.9253
  229MOL0     H31542   5.903  11.202   4.425 -0.2602  1.5900 -0.1185
  229MOL0     H31543   5.906  11.191   4.722 -0.7472  3.0534 -0.8365
  229MOL0     H31544   5.955  11.038   4.628 -2.5939 -1.7949 -2.5223
  229MOL0     H31545   5.735  11.068   4.500  1.0975  0.5129  0.1492
  229MOL0     H31546   5.738  10.999   4.663  2.6086  0.8200  0.6795
  229MOL0     H31547   5.649  11.297   4.597  1.7199 -0.0115  0.2242
  229MOL0     H31548   5.683  11.223   4.754 -0.3001 -0.8264  0.2674
  229MOL0     H31549   5.493  11.080   4.739 -2.9667  2.0638  1.0075
  229MOL0     H31550   5.438  11.230   4.678 -0.4776  0.2854 -1.2470
  229MOL0     H31551   5.486  10.874   4.571  0.6688 -0.5445 -0.6002
  229MOL0     H31552   5.314  10.831   4.245 -0.2252  3.9921  0.7615
  229MOL0     H31553   5.415  10.734   4.370  1.2311  3.1853  2.7913
  229MOL0     H31554   5.573  10.877   4.153  1.1821  1.0888  3.7457
  229MOL0     H31555   5.603  10.726   4.236 -0.9416 -1.1134  1.0154
  229MOL0     H31556   5.390  10.633   4.105 -0.6634  0.5554  0.1520
  229MOL0     H31557   5.435  10.769   3.987 -2.6600  1.2608  2.6813
  229MOL0     H31558   5.534  10.580   3.903  0.6365 -1.4471 -0.7090
  229MOL0     H31559   5.663  10.687   3.959 -1.6654  1.9344 -0.5215
  229MOL0     H31560   5.771  10.388   4.285 -0.4075 -0.0949  0.3788
  229MOL0     H31561   5.944  10.341   4.391 -2.4139  1.7903 -2.0224
  229MOL0     H31562   6.092  10.402   4.313  0.1690 -1.4666 -0.8150
  229MOL0     H31563   6.049  10.224   4.311 -2.4814 -2.0046 -3.0256
  229MOL0     H31564   6.410  10.377   3.787  2.4420 -0.8809 -2.3678
  229MOL0     H31565   6.629  10.246   3.754  2.2617 -2.2436  1.1500
  229MOL0     H31566   6.844  10.065   3.943  0.4044 -1.6708  3.0494
  229MOL0     H31567   6.718   9.983   4.021  3.6621 -0.1618  2.7913
  229MOL0     H31568   6.891   9.842   3.994 -1.0076  0.5692  1.2307
  229MOL0     H31569   6.756   9.782   3.902 -2.3434  1.7911  1.8876
  229MOL0     H31570   6.863   9.853   3.685  1.5707 -0.4496 -0.9099
  229MOL0     H31571   6.949   9.732   3.782 -0.6468 -0.0366 -0.8896
  229MOL0     H31572   7.029  10.019   3.811 -2.8740 -2.4376  3.2280
  229MOL0     H31573   7.060   9.921   3.663  1.7320  4.5881 -0.8803
  229MOL0     H31574   7.131   9.799   3.929 -2.4822  0.9874  0.4138
  229MOL0     H31575   7.188   9.756   3.764  1.6001  0.0032  2.1522
  229MOL0     H31576   7.238  10.009   3.920 -1.3184 -0.1043 -2.5024
  229MOL0     H31577   7.298   9.982   3.764  2.3217 -0.8727 -0.3351
  229MOL0     H31578   7.427   9.771   3.831 -2.5806 -3.0484  2.8435
  229MOL0     H31579   7.397   9.810   4.007  0.7878  2.0381  0.9617
  229MOL0     H31580   7.541  10.002   3.829  1.2624 -5.6007 -4.1243
  229MOL0     H31581   7.621   9.874   3.902  0.6456  1.6843 -4.1738
  229MOL0     H31582   6.459   9.920   3.963  4.5401  1.0248  0.9171
  229MOL0     H31583   6.239  10.049   3.978 -1.3022  1.2571 -2.1939
  229MOL0     H31584   5.994  10.456   3.849 -2.2393  3.0449  0.0868
  229MOL0     H31585   5.761  10.499   3.866  0.3686  0.1935 -1.1797
  229MOL0     H31586   6.424  10.954   4.173  0.5374  0.5180  0.1320
  229MOL0     H31587   6.657  10.917   4.087  0.9780 -0.0092  0.7399
  229MOL0     H31588   6.971  10.996   3.772  1.3055 -1.3947 -0.1767
  229MOL0     H31589   7.204  10.973   3.719  0.8858  0.4241 -0.4432
  229MOL0     H31590   7.434  10.976   3.729 -0.6754  1.0936  3.7598
  229MOL0     H31591   7.376  11.066   3.600 -0.6571 -1.6075  0.5613
  229MOL0     H31592   7.651  11.019   3.614 -1.1577 -0.3512 -0.3462
  229MOL0     H31593   7.640  11.165   3.703  1.0747 -1.3571 -0.3763
  229MOL0     H31594   7.705  11.213   3.481 -0.0389 -0.0339  0.8940
  229MOL0     H31595   7.565  11.120   3.424 -1.0300 -1.7793  2.9623
  229MOL0     H31596   7.556  11.393   3.568  2.0360 -1.3471  1.6475
  229MOL0     H31597   7.417  11.297   3.531 -0.0188 -2.8822 -1.1349
  229MOL0     H31598   7.532  11.454   3.150  1.7373 -2.1315 -0.1367
  229MOL0     H31599   7.278  11.340   3.920 -0.7982 -1.5344  2.0291
  229MOL0     H31600   6.958  11.355   4.090  1.0237 -1.7129  3.0406
  229MOL0     H31601   7.135  11.390   4.113 -0.5837  0.0204  0.3213
  229MOL0     H31602   7.046  11.461   3.973 -3.8328 -1.4150 -1.5480
  230MOL0     O31603   0.362   6.330   9.468 -0.7574  0.1341  0.2336
  230MOL0     C31604   0.338   6.226   9.406  0.7071 -0.5930 -0.4630
  230MOL0     O31605   0.406   6.175   9.296 -0.7324  0.8365  0.0560
  230MOL0     C31606   0.500   6.244   9.218 -0.0424  0.2092 -0.0615
  230MOL0     C31607   0.594   6.170   9.147 -0.8802  0.3532  0.4072
  230MOL0     C31608   0.698   6.231   9.078  0.1372 -0.5850  0.2072
  230MOL0     C31609   0.717   6.371   9.059  0.1689 -0.8443  0.0600
  230MOL0     O31610   0.841   6.393   9.012  0.0023  0.8456 -0.6355
  230MOL0     C31611   0.900   6.514   9.043  0.0322 -0.0841 -1.1660
  230MOL0     C31612   1.035   6.517   8.978 -0.4176 -1.4899  0.8358
  230MOL0     C31613   1.124   6.408   9.040 -1.2260 -0.2406  0.2399
  230MOL0     C31614   1.267   6.425   8.991 -1.1723  0.7565  0.4344
  230MOL0     C31615   1.369   6.322   9.054  0.1828 -0.8777  0.3868
  230MOL0     C31616   1.512   6.344   8.996  0.4480 -0.5706 -0.0379
  230MOL0     C31617   1.599   6.242   9.061 -0.0526 -0.1326 -0.0081
  230MOL0     C31618   1.746   6.261   9.015  0.4795 -0.1898  0.4303
  230MOL0     N31619   1.832   6.179   9.098 -0.4903  0.3885  0.3354
  230MOL0     C31620   1.936   6.099   9.050 -0.0275 -0.0028 -0.4712
  230MOL0     C31621   1.977   6.016   9.149 -0.1161  0.5810  0.1299
  230MOL0     C31622   2.076   5.910   9.143 -1.3682  0.2349 -0.0521
  230MOL0     C31623   2.207   5.976   9.214  0.4002  0.1829  0.4606
  230MOL0     C31624   2.315   5.864   9.238  0.5377  0.0121  0.5670
  230MOL0     C31625   2.447   5.914   9.299  0.5351  0.3224 -1.0673
  230MOL0     O31626   2.422   5.966   9.425  0.1121  0.1547 -0.8978
  230MOL0     C31627   2.488   6.069   9.457  0.0732  0.8639 -0.4970
  230MOL0     C31628   2.630   6.066   9.456  0.1450  0.2224  0.2620
  230MOL0     C31629   2.703   6.185   9.473  0.1167 -0.4358 -0.0427
  230MOL0     C31630   2.852   6.182   9.440  0.0792 -0.0109  0.8570
  230MOL0     C31631   2.639   6.313   9.493  0.1739  0.9510 -0.2783
  230MOL0     C31632   2.707   6.450   9.492  0.5683  0.9740  0.4938
  230MOL0     O31633   2.624   6.544   9.523 -0.0758 -0.1262  0.2030
  230MOL0     C31634   2.653   6.676   9.497 -0.3767 -0.2660 -0.7175
  230MOL0     C31635   2.685   6.768   9.603  0.4543 -0.2135  0.5629
  230MOL0     C31636   2.708   6.902   9.574 -0.9490  0.0412 -0.4747
  230MOL0     C31637   2.689   6.953   9.447  0.6252  0.1432  1.3094
  230MOL0     O31638   2.701   7.088   9.406  0.6560  0.4069 -0.3995
  230MOL0     C31639   2.572   7.143   9.370  0.9732 -0.2895 -0.6052
  230MOL0     C31640   2.564   7.292   9.397  0.1067 -1.2446  0.4918
  230MOL0     C31641   2.595   7.324   9.543  0.4464  0.3580  0.0392
  230MOL0     C31642   2.608   7.476   9.573  1.4603  1.2588  0.3321
  230MOL0     C31643   2.663   7.507   9.709  0.0589 -0.0038 -0.0703
  230MOL0     C31644   2.816   7.500   9.710 -0.0111 -0.6452  0.1683
  230MOL0     C31645   2.871   7.515   9.845  0.9978 -0.5191 -0.3683
  230MOL0     C31646   2.850   7.661   9.906 -0.1523 -0.3048  0.7317
  230MOL0    Cl31647   2.939   7.673  10.053 -0.1672 -0.0946 -0.4926
  230MOL0     C31648   2.649   6.862   9.345  0.9287  0.2679 -0.0139
  230MOL0     C31649   2.642   6.722   9.371  0.6959 -0.2319 -0.5535
  230MOL0     O31650   2.818   6.469   9.438  0.1012  0.9030  0.5876
  230MOL0     C31651   2.499   6.305   9.515 -0.4113 -0.0897  0.0130
  230MOL0     C31652   2.429   6.188   9.497  0.3184  0.3251  2.1313
  230MOL0     N31653   1.891   6.042   9.261 -0.0675 -0.4553  0.2284
  230MOL0     N31654   1.805   6.128   9.227  0.3697  0.1450  0.9914
  230MOL0     C31655   0.622   6.444   9.131  0.3652 -0.2010  0.2895
  230MOL0     C31656   0.513   6.390   9.205 -0.7333  0.3499  0.3934
  230MOL0     C31657   0.229   6.131   9.461  0.6085 -0.5697  0.0588
  230MOL0     C31658   0.189   6.023   9.381 -0.5985  0.4008 -0.2718
  230MOL0     C31659   0.082   5.938   9.413 -0.8051 -0.1080  0.1694
  230MOL0     C31660   0.030   5.938   9.541  0.1326 -0.1356  0.2749
  230MOL0     O31661  -0.041   5.834   9.586  0.0919  0.7355 -0.2812
  230MOL0     C31662  -0.106   5.747   9.489  0.0794 -0.1840  0.7518
  230MOL0     C31663  -0.215   5.683   9.554 -0.4924 -0.8346 -0.5102
  230MOL0     C31664  -0.318   5.769   9.634  0.0503 -0.4635  0.2609
  230MOL0     C31665  -0.436   5.676   9.694  0.2308  0.1089  0.8923
  230MOL0     C31666  -0.517   5.602   9.597  0.2473 -0.6341 -1.0397
  230MOL0     C31667  -0.593   5.541   9.524  0.1763 -1.2067  0.0387
  230MOL0     C31668   0.070   6.043   9.622  0.2486 -0.7840  0.5851
  230MOL0     C31669   0.164   6.138   9.583 -0.3983  0.3124  0.0989
  230MOL0     C31670   0.192   6.248   9.682 -0.1098  0.3149  0.1788
  230MOL0     H31671   0.577   6.063   9.135  1.3602 -0.1430  1.1347
  230MOL0     H31672   0.773   6.167   9.031 -1.1705 -1.1020 -1.2720
  230MOL0     H31673   0.909   6.525   9.152 -2.3798 -0.1180 -0.9230
  230MOL0     H31674   0.846   6.601   9.005 -3.1047 -1.7402 -0.8103
  230MOL0     H31675   1.014   6.514   8.870 -3.0559  0.5575  1.1909
  230MOL0     H31676   1.081   6.616   8.981 -3.6775  0.2713 -1.3457
  230MOL0     H31677   1.123   6.425   9.148 -0.7574  3.1102 -0.1755
  230MOL0     H31678   1.090   6.306   9.021 -1.6180 -0.7314  3.0883
  230MOL0     H31679   1.261   6.398   8.885 -1.3004  0.6752  0.4623
  230MOL0     H31680   1.304   6.527   9.004 -0.6820  0.5257  0.8966
  230MOL0     H31681   1.311   6.230   9.040 -3.0103  0.5743  2.9625
  230MOL0     H31682   1.372   6.350   9.160  3.4225  0.6729  0.0221
  230MOL0     H31683   1.503   6.327   8.888 -1.6272  1.8448 -0.3475
  230MOL0     H31684   1.559   6.440   9.021 -1.0829  0.2377 -0.1553
  230MOL0     H31685   1.561   6.141   9.042 -2.4525 -0.1322  3.7426
  230MOL0     H31686   1.594   6.255   9.169 -1.4476 -1.5561  0.1291
  230MOL0     H31687   1.756   6.242   8.907  0.6365  1.3614  0.1353
  230MOL0     H31688   1.761   6.368   9.033 -3.4254  0.0606  3.4491
  230MOL0     H31689   1.968   6.103   8.946  0.6277 -0.7977 -0.3131
  230MOL0     H31690   2.092   5.886   9.038  1.2092  2.2523 -0.2366
  230MOL0     H31691   2.055   5.811   9.184  2.2145 -0.8995 -0.6581
  230MOL0     H31692   2.242   6.046   9.138 -0.3233  2.9236  2.5059
  230MOL0     H31693   2.168   6.021   9.305 -1.2308 -1.3214  0.5715
  230MOL0     H31694   2.257   5.799   9.304 -2.4721  2.0064  0.0777
  230MOL0     H31695   2.344   5.812   9.147  0.9651  2.7816 -0.9788
  230MOL0     H31696   2.518   5.831   9.315  1.5828  1.1643 -1.2446
  230MOL0     H31697   2.492   5.986   9.230  0.9993  1.0492 -0.0199
  230MOL0     H31698   2.686   5.976   9.436  0.9967  0.7704  0.1082
  230MOL0     H31699   2.889   6.081   9.461  3.6312  1.0448  0.3758
  230MOL0     H31700   2.910   6.255   9.497  1.4893 -1.8766  1.9478
  230MOL0     H31701   2.867   6.217   9.338  0.1906  1.4802  1.3690
  230MOL0     H31702   2.689   6.728   9.704  0.5422 -2.0525 -0.1246
  230MOL0     H31703   2.725   6.968   9.659 -1.8221 -1.0423  0.5768
  230MOL0     H31704   2.556   7.131   9.263 -2.5040 -0.7608 -0.1433
  230MOL0     H31705   2.486   7.107   9.428 -0.2232  3.1693 -0.0326
  230MOL0     H31706   2.619   7.349   9.321  2.4572 -3.8354  0.1024
  230MOL0     H31707   2.460   7.326   9.386 -0.0657 -1.2789  1.8424
  230MOL0     H31708   2.691   7.282   9.573 -0.2552 -3.4007 -2.2459
  230MOL0     H31709   2.520   7.285   9.613 -2.3146  1.7712 -1.9294
  230MOL0     H31710   2.509   7.523   9.572  0.7811 -0.0779 -1.4139
  230MOL0     H31711   2.667   7.521   9.492  0.5615  4.1511  1.1428
  230MOL0     H31712   2.630   7.606   9.740  1.5707  0.3177  0.6085
  230MOL0     H31713   2.609   7.436   9.773 -2.4071  0.4995 -1.4603
  230MOL0     H31714   2.854   7.572   9.636 -3.9555  1.3467 -0.2230
  230MOL0     H31715   2.846   7.403   9.670  0.5576 -0.7759  0.9000
  230MOL0     H31716   2.975   7.483   9.833  1.5893  1.6569 -1.3591
  230MOL0     H31717   2.827   7.444   9.916  2.7827  1.0032  2.4477
  230MOL0     H31718   2.743   7.673   9.925 -0.8423 -0.3533 -2.5104
  230MOL0     H31719   2.867   7.742   9.835  2.1360 -2.9363 -2.0083
  230MOL0     H31720   2.635   6.894   9.242  2.8518  2.5303  0.3356
  230MOL0     H31721   2.617   6.644   9.300  0.9597 -1.3834  0.5840
  230MOL0     H31722   2.443   6.394   9.542  2.2975  2.7399 -2.8098
  230MOL0     H31723   2.324   6.197   9.523 -1.6455 -1.0811 -3.9038
  230MOL0     H31724   0.631   6.552   9.143 -0.7518  0.0297 -0.7006
  230MOL0     H31725   0.445   6.455   9.259 -1.6003  0.1989 -0.4906
  230MOL0     H31726   0.236   5.998   9.286  0.1427  0.9998 -0.0667
  230MOL0     H31727   0.055   5.865   9.338  0.4242  0.6455 -1.0530
  230MOL0     H31728  -0.155   5.799   9.405  1.3355 -1.7865 -1.0636
  230MOL0     H31729  -0.042   5.671   9.443  2.5485  2.1906  0.0008
  230MOL0     H31730  -0.157   5.633   9.633 -0.2998  0.3661  0.1360
  230MOL0     H31731  -0.255   5.612   9.481 -2.2678  2.4060 -2.8891
  230MOL0     H31732  -0.283   5.841   9.709  0.5812 -0.0800 -0.3368
  230MOL0     H31733  -0.376   5.824   9.560  0.7811  3.1093  2.1276
  230MOL0     H31734  -0.513   5.742   9.736  0.1369  1.9386 -1.9430
  230MOL0     H31735  -0.402   5.600   9.766 -0.8585 -0.1343  1.1697
  230MOL0     H31736  -0.652   5.493   9.449 -3.2359  0.6546  1.3281
  230MOL0     H31737  -0.003   6.053   9.702 -1.1553  1.2951 -0.8675
  230MOL0     H31738   0.143   6.218   9.775 -0.3490 -2.9267 -0.8760
  230MOL0     H31739   0.300   6.255   9.700 -0.4986  2.8587  2.2420
  230MOL0     H31740   0.168   6.346   9.639 -1.6551 -0.3738 -0.5996
  231MOL0     O31741   4.272   4.360   1.308 -0.0251  0.5236 -0.3953
  231MOL0     C31742   4.225   4.284   1.390 -0.5170  0.1202 -0.1058
  231MOL0     O31743   4.296   4.187   1.460  0.7699 -0.2476  0.7872
  231MOL0     C31744   4.427   4.166   1.423 -0.4697 -0.0153 -0.3477
  231MOL0     C31745   4.525   4.268   1.417  0.2836  1.5260  0.5471
  231MOL0     C31746   4.655   4.243   1.399 -0.3261  0.0652 -0.5739
  231MOL0     C31747   4.703   4.111   1.405  1.1715  0.4232  0.6449
  231MOL0     O31748   4.830   4.066   1.401  0.9665  0.7327 -0.4842
  231MOL0     C31749   4.917   4.149   1.329 -0.0053 -0.6212  0.4591
  231MOL0     C31750   5.039   4.195   1.407 -1.2196 -0.5645  0.1925
  231MOL0     C31751   5.013   4.292   1.526  0.4501  0.9572  0.0168
  231MOL0     C31752   5.139   4.316   1.621  0.4732  0.0720  0.1090
  231MOL0     C31753   5.095   4.409   1.733  0.2649 -0.5853 -0.7369
  231MOL0     C31754   5.167   4.376   1.868  0.4551 -0.0275  0.3224
  231MOL0     C31755   5.313   4.448   1.890 -0.1241 -0.3127  0.8549
  231MOL0     C31756   5.406   4.377   1.801 -0.1362  0.7878  0.1933
  231MOL0     N31757   5.553   4.389   1.843  0.3955  0.9647 -0.9089
  231MOL0     C31758   5.604   4.512   1.871 -0.1015 -0.6353  0.7659
  231MOL0     C31759   5.742   4.495   1.858  0.2425  0.1058  0.3909
  231MOL0     C31760   5.852   4.583   1.906 -0.1806 -0.6551 -0.4976
  231MOL0     C31761   5.981   4.561   1.826 -0.5275  0.5769 -1.1737
  231MOL0     C31762   6.004   4.662   1.707 -0.5517  0.3063  0.1734
  231MOL0     C31763   5.878   4.661   1.610 -0.0367  0.1104 -0.6141
  231MOL0     O31764   5.782   4.761   1.646  0.1333  0.1417  0.1750
  231MOL0     C31765   5.645   4.761   1.633 -0.7193 -0.6907 -0.1350
  231MOL0     C31766   5.594   4.883   1.685  0.3691 -0.0495 -0.3256
  231MOL0     C31767   5.453   4.903   1.693  0.4177  0.2643 -0.4097
  231MOL0     C31768   5.406   5.029   1.762  0.4625  1.0726  0.5583
  231MOL0     C31769   5.372   4.798   1.650  0.2187  0.0089  0.2412
  231MOL0     C31770   5.231   4.796   1.661  0.6082  0.3250  0.6310
  231MOL0     O31771   5.177   4.835   1.779 -0.3284  0.0568  0.2901
  231MOL0     C31772   5.042   4.842   1.789 -0.6397 -1.4826 -0.5225
  231MOL0     C31773   4.973   4.943   1.737 -0.1598  0.2311  0.2749
  231MOL0     C31774   4.832   4.946   1.746  1.1547 -0.0715 -0.4143
  231MOL0     C31775   4.758   4.858   1.815  0.4194 -0.7895 -1.1537
  231MOL0     O31776   4.628   4.879   1.844  1.0094  0.1219 -0.1564
  231MOL0     C31777   4.539   4.778   1.892  0.0667  0.2207 -0.6475
  231MOL0     C31778   4.393   4.823   1.893 -0.9263 -0.1547  0.6085
  231MOL0     C31779   4.352   4.869   1.750  0.9798  1.7536  0.2921
  231MOL0     C31780   4.405   4.797   1.634  0.2524 -0.5168  0.7578
  231MOL0     C31781   4.348   4.850   1.496 -0.5323 -0.4429  0.3690
  231MOL0     C31782   4.368   4.742   1.389  0.1188  0.2437  0.2103
  231MOL0     C31783   4.520   4.713   1.359  0.6931  0.4660 -0.1407
  231MOL0     C31784   4.531   4.642   1.225  0.2845 -0.3092 -0.1519
  231MOL0    Cl31785   4.682   4.547   1.232  0.7592 -0.0395  0.2063
  231MOL0     C31786   4.831   4.761   1.884  0.3324  0.5454  0.2356
  231MOL0     C31787   4.969   4.746   1.863 -0.9055 -0.0366 -0.3904
  231MOL0     O31788   5.176   4.768   1.556  0.7666 -0.7777 -0.5229
  231MOL0     C31789   5.439   4.682   1.587  0.7106 -0.6300 -0.3628
  231MOL0     C31790   5.576   4.666   1.576 -0.1507  0.7198 -0.0304
  231MOL0     N31791   5.763   4.358   1.827 -0.0631 -0.2569  0.0984
  231MOL0     N31792   5.648   4.293   1.816 -0.2192  0.5891 -0.5522
  231MOL0     C31793   4.604   4.011   1.422  0.3750 -0.3627 -0.2643
  231MOL0     C31794   4.471   4.036   1.434  0.1406 -1.1726  0.8398
  231MOL0     C31795   4.081   4.288   1.408 -0.4318 -0.1437 -0.9598
  231MOL0     C31796   3.985   4.211   1.340 -0.8933 -0.2665 -0.3695
  231MOL0     C31797   3.848   4.220   1.354 -0.7823  0.2542  0.4000
  231MOL0     C31798   3.794   4.325   1.427 -0.5996  0.3115 -0.0440
  231MOL0     O31799   3.661   4.368   1.424  0.5870  0.3238  0.1889
  231MOL0     C31800   3.583   4.311   1.326 -0.8261 -0.7144  0.1345
  231MOL0     C31801   3.444   4.381   1.330 -0.0520  0.9760 -0.1056
  231MOL0     C31802   3.364   4.346   1.209  0.8017  0.2851 -0.2480
  231MOL0     C31803   3.222   4.403   1.223 -1.2740  0.7580  0.7156
  231MOL0     C31804   3.142   4.344   1.116 -0.1478  0.6393  0.0067
  231MOL0     C31805   3.065   4.291   1.038  0.7858 -0.6987 -0.0722
  231MOL0     C31806   3.884   4.410   1.497 -1.6400  0.8804  0.1609
  231MOL0     C31807   4.027   4.388   1.491  0.1364  0.1273  1.7874
  231MOL0     C31808   4.105   4.495   1.559 -0.2447  0.4879  0.9016
  231MOL0     H31809   4.498   4.372   1.403 -1.6983  0.6623 -3.4580
  231MOL0     H31810   4.728   4.324   1.399 -0.7353  0.4834  1.3195
  231MOL0     H31811   4.872   4.244   1.300  0.6734 -0.2667  0.5419
  231MOL0     H31812   4.948   4.100   1.236  0.7178  0.2774  0.2115
  231MOL0     H31813   5.096   4.108   1.443 -1.7252 -0.7658  0.5147
  231MOL0     H31814   5.105   4.248   1.338  0.9080 -2.5027  0.5986
  231MOL0     H31815   4.971   4.390   1.503  1.6018  0.9464 -2.4930
  231MOL0     H31816   4.929   4.250   1.581 -0.6642  1.0792 -1.5159
  231MOL0     H31817   5.177   4.222   1.663  0.5996  0.0171 -0.1276
  231MOL0     H31818   5.216   4.373   1.568 -0.6874  0.2173 -1.4808
  231MOL0     H31819   4.991   4.384   1.758  1.2083 -4.9790 -0.3501
  231MOL0     H31820   5.114   4.515   1.712 -2.8662 -0.0037 -1.0931
  231MOL0     H31821   5.102   4.409   1.949  0.6009  0.4484  0.2436
  231MOL0     H31822   5.171   4.267   1.882  0.3417 -0.4752 -2.5284
  231MOL0     H31823   5.356   4.440   1.991 -2.7046  2.3380  2.3066
  231MOL0     H31824   5.304   4.555   1.870  2.1746 -0.1842  0.2588
  231MOL0     H31825   5.391   4.269   1.804  1.5971  0.5406  1.3370
  231MOL0     H31826   5.390   4.421   1.702  1.1312  1.8135  0.4165
  231MOL0     H31827   5.549   4.605   1.884  0.1605 -0.1007 -1.4429
  231MOL0     H31828   5.863   4.559   2.012  1.1192  3.5779  0.5154
  231MOL0     H31829   5.824   4.686   1.882  1.0313 -0.2545 -0.2765
  231MOL0     H31830   6.064   4.571   1.896 -0.3261 -1.1547 -1.1146
  231MOL0     H31831   5.990   4.456   1.797  0.8944  0.5160 -0.6113
  231MOL0     H31832   6.007   4.764   1.746 -2.1392 -0.5114  2.6925
  231MOL0     H31833   6.094   4.637   1.651 -0.3956  0.7623  0.2229
  231MOL0     H31834   5.895   4.681   1.504  1.6025 -1.1006 -0.6337
  231MOL0     H31835   5.843   4.557   1.617  0.9831 -0.1369  1.5392
  231MOL0     H31836   5.672   4.942   1.734  1.4179  0.9344 -2.9857
  231MOL0     H31837   5.417   5.028   1.870  0.7016  0.5150  0.5332
  231MOL0     H31838   5.302   5.048   1.734  0.6827  0.2517 -0.9806
  231MOL0     H31839   5.465   5.115   1.729  2.4899  0.8570  3.2770
  231MOL0     H31840   5.030   5.019   1.683 -0.8870  0.2109 -0.5341
  231MOL0     H31841   4.779   5.024   1.692 -0.0990  0.2668  1.2310
  231MOL0     H31842   4.539   4.692   1.825 -0.0032  1.0275 -1.7049
  231MOL0     H31843   4.572   4.745   1.991 -0.7732  2.5598  0.4972
  231MOL0     H31844   4.324   4.745   1.927 -1.3853  1.0374  2.6027
  231MOL0     H31845   4.384   4.915   1.951 -1.3156  1.5028 -1.9161
  231MOL0     H31846   4.376   4.975   1.736  1.6439  1.5467 -0.2138
  231MOL0     H31847   4.244   4.862   1.738  1.0115  4.4021 -2.7725
  231MOL0     H31848   4.386   4.690   1.632  1.6633 -0.7832 -0.3241
  231MOL0     H31849   4.514   4.798   1.626  0.0905  0.1722 -3.4978
  231MOL0     H31850   4.240   4.863   1.495 -0.6587 -1.4175 -1.0966
  231MOL0     H31851   4.408   4.939   1.472  1.0941 -2.1179 -2.3213
  231MOL0     H31852   4.315   4.769   1.298 -0.9291 -0.8701  0.4650
  231MOL0     H31853   4.332   4.644   1.422  3.1503 -0.6189  1.3308
  231MOL0     H31854   4.552   4.647   1.440 -1.6690 -2.3301 -1.3050
  231MOL0     H31855   4.579   4.805   1.360  1.0498  0.2680 -1.1762
  231MOL0     H31856   4.546   4.720   1.149 -2.6156 -0.3337 -0.8578
  231MOL0     H31857   4.448   4.574   1.206 -1.1743  1.8648 -2.1589
  231MOL0     H31858   4.791   4.684   1.949 -0.4728 -2.6145 -3.5656
  231MOL0     H31859   5.029   4.665   1.903 -0.5355  0.3591 -0.1313
  231MOL0     H31860   5.369   4.613   1.541 -1.0111 -0.5988  2.0251
  231MOL0     H31861   5.636   4.581   1.546 -0.4811  1.1328 -1.9793
  231MOL0     H31862   4.634   3.907   1.430 -0.1654 -0.4043  1.9029
  231MOL0     H31863   4.396   3.961   1.454  1.6088 -2.1571  3.1290
  231MOL0     H31864   4.024   4.121   1.294  2.9720  0.6571  0.7492
  231MOL0     H31865   3.785   4.160   1.288  1.5989 -4.6643  2.0937
  231MOL0     H31866   3.631   4.341   1.232  0.7787  0.9442  1.4045
  231MOL0     H31867   3.583   4.203   1.342 -2.4686 -1.3298 -3.1241
  231MOL0     H31868   3.457   4.489   1.337 -0.7934  1.1879 -1.6764
  231MOL0     H31869   3.397   4.335   1.418 -0.7553 -0.4866 -1.2100
  231MOL0     H31870   3.413   4.376   1.116  2.6353 -0.1552  0.5205
  231MOL0     H31871   3.360   4.237   1.199 -2.7769  0.4344 -1.7478
  231MOL0     H31872   3.214   4.511   1.236 -1.0337  0.5217  3.2545
  231MOL0     H31873   3.178   4.366   1.315  0.7121 -0.2090  1.3332
  231MOL0     H31874   2.981   4.264   0.976  0.3387 -1.1707  0.7211
  231MOL0     H31875   3.856   4.492   1.561 -2.5182 -1.4094  2.8989
  231MOL0     H31876   4.052   4.558   1.632 -1.1430  1.7739 -0.7871
  231MOL0     H31877   4.194   4.453   1.606  0.0534  0.6751  0.5090
  231MOL0     H31878   4.147   4.562   1.484 -1.4858  1.2157  0.8203
  232MOL0     O31879   0.083   0.566   6.921 -0.5008  0.0539 -0.1315
  232MOL0     C31880   0.120   0.679   6.906  0.2497 -0.3510 -0.0587
  232MOL0     O31881   0.216   0.723   6.828  0.7482 -0.8910  1.2075
  232MOL0     C31882   0.245   0.645   6.714  0.7876 -0.3063 -0.4233
  232MOL0     C31883   0.335   0.539   6.722  0.5956  0.1806 -0.0516
  232MOL0     C31884   0.359   0.454   6.616 -0.2121  0.6790 -0.0519
  232MOL0     C31885   0.296   0.473   6.493 -0.2206 -0.0982 -0.4250
  232MOL0     O31886   0.309   0.379   6.386  0.4546  0.8062  0.2886
  232MOL0     C31887   0.358   0.433   6.266 -0.6887 -1.3613  0.0726
  232MOL0     C31888   0.318   0.343   6.145 -0.4126 -1.0243  0.3718
  232MOL0     C31889   0.419   0.234   6.116 -0.0563  0.4235 -1.1854
  232MOL0     C31890   0.398   0.116   6.201 -0.1671 -0.2859 -0.5781
  232MOL0     C31891   0.495  -0.002   6.175  0.3411 -0.6101 -0.1102
  232MOL0     C31892   0.471  -0.106   6.282 -0.1282  0.9226  0.4736
  232MOL0     C31893   0.587  -0.214   6.287  1.0012  0.9453 -0.5985
  232MOL0     C31894   0.580  -0.299   6.412  0.7051 -0.2751  1.0506
  232MOL0     N31895   0.587  -0.236   6.545  0.3283 -0.5948  0.1400
  232MOL0     C31896   0.706  -0.200   6.603 -0.1118 -0.1520 -1.0742
  232MOL0     C31897   0.672  -0.139   6.728  0.2374 -0.5426  0.0775
  232MOL0     C31898   0.764  -0.082   6.834  0.1563 -0.1333  0.3213
  232MOL0     C31899   0.847   0.037   6.785 -0.8008  0.9444 -0.6554
  232MOL0     C31900   0.756   0.140   6.736  0.2768  0.1306 -0.0710
  232MOL0     C31901   0.820   0.272   6.708 -0.0129  0.8937  0.8229
  232MOL0     O31902   0.724   0.370   6.691 -0.2850 -0.6104  0.6020
  232MOL0     C31903   0.756   0.505   6.683 -0.6008  1.4573  0.4869
  232MOL0     C31904   0.675   0.588   6.601  0.1287  0.4935  0.1777
  232MOL0     C31905   0.683   0.728   6.609 -0.8313 -0.0370 -0.3214
  232MOL0     C31906   0.587   0.801   6.513 -0.1137  0.5237  0.9075
  232MOL0     C31907   0.788   0.789   6.679 -0.2129  0.1805  0.2481
  232MOL0     C31908   0.821   0.931   6.654  0.4174 -0.1711  0.5269
  232MOL0     O31909   0.951   0.956   6.657  0.0387  0.1945 -0.2109
  232MOL0     C31910   1.007   1.077   6.640  0.0694  0.5246  0.5578
  232MOL0     C31911   1.104   1.098   6.542  0.1177 -0.5345  0.4479
  232MOL0     C31912   1.154   1.232   6.533 -0.3552 -0.4437 -0.0358
  232MOL0     C31913   1.133   1.326   6.625  0.1323 -0.3673  0.7209
  232MOL0     O31914   1.198   1.448   6.596 -0.1636 -0.6364 -0.9698
  232MOL0     C31915   1.243   1.515   6.725 -1.3707 -0.3797 -0.2736
  232MOL0     C31916   1.269   1.670   6.716 -0.9760 -0.8135 -1.0387
  232MOL0     C31917   1.139   1.738   6.663 -0.1825 -0.0235  0.0624
  232MOL0     C31918   1.159   1.871   6.592 -1.2741 -0.6614  0.5782
  232MOL0     C31919   1.233   1.982   6.677 -1.1034 -0.1537  0.0549
  232MOL0     C31920   1.253   2.106   6.594 -0.0194 -0.3821  0.0632
  232MOL0     C31921   1.314   2.222   6.680 -0.3070  0.6754 -0.3122
  232MOL0     C31922   1.213   2.265   6.806  0.2142 -0.4886  0.1640
  232MOL0    Cl31923   1.053   2.328   6.753  0.1330  0.0855 -0.1580
  232MOL0     C31924   1.042   1.301   6.716  0.4663 -0.8859  0.5122
  232MOL0     C31925   0.982   1.186   6.729 -0.5964  0.0446  0.0461
  232MOL0     O31926   0.724   1.010   6.632  0.1416 -0.3032 -0.1283
  232MOL0     C31927   0.880   0.703   6.749  0.3596  0.2801  0.6297
  232MOL0     C31928   0.864   0.569   6.750 -0.0206 -0.3619 -0.2897
  232MOL0     N31929   0.534  -0.159   6.726 -0.2865 -0.7062  0.1944
  232MOL0     N31930   0.486  -0.226   6.626  0.1630 -0.2267 -0.1377
  232MOL0     C31931   0.208   0.587   6.480 -0.6061 -0.3070 -0.7798
  232MOL0     C31932   0.186   0.669   6.591  0.3866  0.7246  0.1065
  232MOL0     C31933   0.083   0.785   7.002 -0.3099  0.5499  0.6056
  232MOL0     C31934   0.117   0.772   7.133 -0.9303  1.3416  1.4197
  232MOL0     C31935   0.084   0.866   7.228  1.2330 -0.8399  0.4142
  232MOL0     C31936   0.034   0.997   7.181 -0.3158 -0.2025 -0.5341
  232MOL0     O31937   0.030   1.092   7.272  0.4528  0.1044 -0.2013
  232MOL0     C31938  -0.054   1.212   7.248 -0.0415  0.0645 -0.5948
  232MOL0     C31939  -0.076   1.270   7.386 -0.1027 -0.7243 -0.1300
  232MOL0     C31940   0.053   1.321   7.463  0.1411 -1.0011 -0.5342
  232MOL0     C31941   0.021   1.375   7.612  0.1514 -0.8945  0.0665
  232MOL0     C31942  -0.045   1.508   7.602 -1.2667  0.1412  0.2053
  232MOL0     C31943  -0.093   1.617   7.588  0.6498 -0.3164 -0.5610
  232MOL0     C31944   0.003   1.011   7.045  0.4298 -0.0867 -0.4498
  232MOL0     C31945   0.009   0.900   6.960  0.3388  0.4852  0.7312
  232MOL0     C31946  -0.054   0.920   6.826  1.1243  0.0152  0.3068
  232MOL0     H31947   0.392   0.516   6.812  2.1649  1.7948 -0.5747
  232MOL0     H31948   0.430   0.374   6.635 -0.9431  0.4494  1.9968
  232MOL0     H31949   0.463   0.458   6.283 -1.2006 -0.0423  1.5969
  232MOL0     H31950   0.305   0.522   6.232 -1.4126 -1.7983  0.0314
  232MOL0     H31951   0.215   0.311   6.165 -0.5504  1.5407  5.3204
  232MOL0     H31952   0.314   0.411   6.060 -2.7666  0.9924  1.9406
  232MOL0     H31953   0.404   0.204   6.012  1.0291  0.0835 -1.2625
  232MOL0     H31954   0.515   0.276   6.149 -1.7931  2.0670  2.2034
  232MOL0     H31955   0.396   0.151   6.305 -1.2954 -1.1292 -0.2997
  232MOL0     H31956   0.291   0.094   6.191 -0.5541  1.3337 -0.2779
  232MOL0     H31957   0.598   0.034   6.174 -0.2067  1.1306 -2.6505
  232MOL0     H31958   0.473  -0.051   6.080 -1.1336 -1.1543  0.4837
  232MOL0     H31959   0.466  -0.059   6.381  0.8165  2.4383 -0.1579
  232MOL0     H31960   0.374  -0.148   6.256  1.1157 -0.5535 -2.2201
  232MOL0     H31961   0.676  -0.151   6.286 -1.9322  5.5748  0.0978
  232MOL0     H31962   0.570  -0.267   6.193 -0.0059 -0.2406  0.2308
  232MOL0     H31963   0.493  -0.366   6.407 -1.3137  2.2692 -2.6449
  232MOL0     H31964   0.662  -0.371   6.406 -0.4005 -1.5900  0.9489
  232MOL0     H31965   0.807  -0.214   6.568  1.0302  1.1029  1.4441
  232MOL0     H31966   0.828  -0.160   6.875 -1.4435 -0.6858  1.9155
  232MOL0     H31967   0.696  -0.054   6.915  0.0705 -2.0551  0.9527
  232MOL0     H31968   0.898   0.073   6.874  4.6360  2.9993 -4.1195
  232MOL0     H31969   0.923   0.007   6.713 -0.0980  2.0492 -0.3886
  232MOL0     H31970   0.729   0.107   6.635  0.0771 -0.3061  0.1251
  232MOL0     H31971   0.663   0.164   6.789  0.1026 -2.0309  0.6821
  232MOL0     H31972   0.883   0.302   6.792  1.2223 -0.3449  0.3733
  232MOL0     H31973   0.881   0.268   6.618 -0.4732  4.7386  0.1607
  232MOL0     H31974   0.608   0.549   6.525  2.2109  1.2984 -2.1942
  232MOL0     H31975   0.519   0.855   6.581  0.8027 -0.2963  2.5439
  232MOL0     H31976   0.544   0.731   6.441  0.4727 -1.6478  2.5539
  232MOL0     H31977   0.652   0.862   6.450  1.0460 -2.5169 -1.0086
  232MOL0     H31978   1.130   1.021   6.470  0.9550  2.0751 -2.2455
  232MOL0     H31979   1.221   1.249   6.448  2.1549  0.3372  1.9756
  232MOL0     H31980   1.177   1.509   6.812  2.7168 -2.6869  3.1114
  232MOL0     H31981   1.338   1.469   6.756  0.5581  3.4810  0.2621
  232MOL0     H31982   1.298   1.723   6.807  2.5541 -0.6693 -2.1180
  232MOL0     H31983   1.350   1.694   6.646 -0.2246  0.5991  0.2433
  232MOL0     H31984   1.071   1.756   6.747 -0.3987  2.6180 -0.5850
  232MOL0     H31985   1.105   1.668   6.587 -0.7408 -1.0458  1.2173
  232MOL0     H31986   1.065   1.918   6.560 -0.4087  2.6333  2.4339
  232MOL0     H31987   1.225   1.859   6.506 -3.3906 -0.0164 -1.2235
  232MOL0     H31988   1.189   2.001   6.775 -0.8537 -2.5151  0.6786
  232MOL0     H31989   1.335   1.948   6.699 -0.2919 -0.3911 -3.4369
  232MOL0     H31990   1.160   2.147   6.555  1.0526  3.5940  1.2546
  232MOL0     H31991   1.320   2.089   6.508  2.2621  1.5493  1.3440
  232MOL0     H31992   1.334   2.315   6.625 -1.2985  1.4249  0.5333
  232MOL0     H31993   1.403   2.176   6.722 -0.4399  1.6083  1.1057
  232MOL0     H31994   1.275   2.341   6.854  1.4054 -1.3723  0.0951
  232MOL0     H31995   1.196   2.183   6.877 -1.8427 -0.1302  0.1410
  232MOL0     H31996   1.007   1.369   6.794 -1.2485  0.7581 -1.5614
  232MOL0     H31997   0.920   1.158   6.813 -0.5479  0.5173  0.2459
  232MOL0     H31998   0.961   0.739   6.811 -1.5074  0.2576  3.2676
  232MOL0     H31999   0.934   0.504   6.801  1.1956  0.1420 -1.2661
  232MOL0     H32000   0.162   0.604   6.383 -0.1863 -1.8737 -1.2902
  232MOL0     H32001   0.128   0.757   6.563  0.0554 -0.0935 -1.9136
  232MOL0     H32002   0.162   0.675   7.154 -1.4664  0.3301 -1.5465
  232MOL0     H32003   0.103   0.846   7.333 -1.5018  0.2213  1.1925
  232MOL0     H32004   0.002   1.283   7.186  2.2821  0.3908  1.7454
  232MOL0     H32005  -0.144   1.175   7.199  0.8782 -3.9944  0.4466
  232MOL0     H32006  -0.127   1.201   7.454  0.4745  1.3033  2.5111
  232MOL0     H32007  -0.155   1.342   7.362  0.8690 -0.0929 -1.5471
  232MOL0     H32008   0.120   1.236   7.477  0.0330 -1.1660 -1.0158
  232MOL0     H32009   0.103   1.407   7.419  1.5965 -0.8985  1.2113
  232MOL0     H32010   0.105   1.387   7.680  0.9686  1.5223 -1.2176
  232MOL0     H32011  -0.050   1.307   7.659 -0.7619 -0.8434 -1.1572
  232MOL0     H32012  -0.146   1.708   7.567  2.4903  0.8231 -0.4115
  232MOL0     H32013  -0.028   1.107   7.003  1.2193  0.5211  0.3222
  232MOL0     H32014   0.012   0.961   6.749  0.6833 -1.7212 -1.0536
  232MOL0     H32015  -0.067   0.823   6.777  3.2030 -0.1310 -0.0196
  232MOL0     H32016  -0.158   0.952   6.841 -0.7920 -4.1686 -2.2296
  233MOL0     O32017   0.380  10.185   2.688  0.2437 -0.1925  0.0889
  233MOL0     C32018   0.483  10.234   2.642  0.0959  0.4310  0.2345
  233MOL0     O32019   0.609  10.235   2.703 -0.4053  0.0890 -0.5182
  233MOL0     C32020   0.636  10.158   2.821 -0.1490 -0.0970 -0.0808
  233MOL0     C32021   0.612  10.022   2.833 -0.1811  0.4523  0.5410
  233MOL0     C32022   0.604   9.964   2.956 -0.3743  0.6006 -0.2749
  233MOL0     C32023   0.658  10.034   3.076  0.1704  0.4364 -0.3632
  233MOL0     O32024   0.662   9.985   3.203  0.1987 -0.2990 -0.5020
  233MOL0     C32025   0.554   9.903   3.257 -0.7268  0.1934 -0.0963
  233MOL0     C32026   0.422   9.981   3.269 -0.1045  0.5694  0.0042
  233MOL0     C32027   0.317   9.911   3.358 -0.1179 -0.2504  0.1364
  233MOL0     C32028   0.275   9.767   3.292  0.7758  0.0758  0.5128
  233MOL0     C32029   0.151   9.713   3.367 -0.2316  0.6755 -1.0824
  233MOL0     C32030   0.108   9.565   3.357  0.3101 -0.1109  0.3443
  233MOL0     C32031   0.016   9.547   3.243  0.0670  0.4702  0.1748
  233MOL0     C32032  -0.010   9.398   3.201 -0.4506 -0.2259 -0.3153
  233MOL0     N32033   0.111   9.311   3.195  0.0425 -0.2263  0.6985
  233MOL0     C32034   0.196   9.321   3.085 -0.5606  0.0397 -0.2230
  233MOL0     C32035   0.297   9.234   3.116  0.9349  0.3934  0.3924
  233MOL0     C32036   0.397   9.199   3.017  0.0041 -0.2244 -0.2012
  233MOL0     C32037   0.522   9.294   3.022 -0.1650 -0.3894 -0.4029
  233MOL0     C32038   0.505   9.424   3.098  0.4567  0.1672 -0.9591
  233MOL0     C32039   0.632   9.513   3.079 -0.2085  0.3913 -0.0575
  233MOL0     O32040   0.639   9.574   2.948  0.7726 -0.4185 -0.1180
  233MOL0     C32041   0.770   9.591   2.896 -0.4563 -0.0370 -0.0773
  233MOL0     C32042   0.811   9.528   2.781  0.3288 -0.4890  0.2375
  233MOL0     C32043   0.949   9.537   2.734 -0.2509  0.3439  0.0086
  233MOL0     C32044   0.963   9.492   2.592  0.2566  0.1860 -0.3537
  233MOL0     C32045   1.046   9.614   2.795 -0.0438 -0.5331  0.1763
  233MOL0     C32046   1.190   9.623   2.764 -0.5429  0.0810  0.8644
  233MOL0     O32047   1.259   9.719   2.819 -0.3135 -0.0564 -0.8225
  233MOL0     C32048   1.390   9.743   2.798  0.8122 -0.6374 -1.1157
  233MOL0     C32049   1.435   9.849   2.874  0.0999 -0.1490  1.2329
  233MOL0     C32050   1.556   9.905   2.868  0.0612 -0.0165  1.0091
  233MOL0     C32051   1.647   9.865   2.770 -0.2159 -0.3438 -0.5082
  233MOL0     O32052   1.752   9.934   2.721 -0.1219 -0.3389 -0.2032
  233MOL0     C32053   1.817  10.035   2.802  0.1737 -0.4867  0.7575
  233MOL0     C32054   1.959  10.048   2.743 -1.3634  0.2551 -0.5640
  233MOL0     C32055   1.955  10.110   2.602  0.0295  0.9365 -0.1973
  233MOL0     C32056   2.093  10.140   2.555 -0.4170 -0.4834  1.1240
  233MOL0     C32057   2.099  10.210   2.416 -0.1895  0.1161 -0.4628
  233MOL0     C32058   2.248  10.232   2.373 -0.1600 -0.5044  0.0207
  233MOL0     C32059   2.271  10.331   2.264  0.7802  0.0735 -0.5512
  233MOL0     C32060   2.414  10.325   2.213  1.1476  0.9765  1.2118
  233MOL0    Cl32061   2.539  10.335   2.338  0.1241  0.1920 -0.0640
  233MOL0     C32062   1.601   9.769   2.684  0.8103 -0.4002 -0.2460
  233MOL0     C32063   1.471   9.704   2.699  0.1700 -0.3421 -0.0938
  233MOL0     O32064   1.245   9.520   2.719 -0.1368  0.5784 -0.6603
  233MOL0     C32065   1.000   9.670   2.914 -0.1180 -0.8942  0.0176
  233MOL0     C32066   0.862   9.674   2.948 -0.2426  0.4715 -0.7678
  233MOL0     N32067   0.280   9.193   3.243  1.1054  0.1094  0.7722
  233MOL0     N32068   0.166   9.234   3.290 -0.2430  0.5365  0.4623
  233MOL0     C32069   0.722  10.162   3.053  0.3507 -0.0483  0.4789
  233MOL0     C32070   0.705  10.228   2.924  0.5531 -0.2616 -0.0459
  233MOL0     C32071   0.465  10.307   2.515 -0.7118  0.3337 -0.6180
  233MOL0     C32072   0.583  10.361   2.471 -0.6376 -0.0337  0.8721
  233MOL0     C32073   0.583  10.465   2.380 -0.1717  0.1673 -0.3861
  233MOL0     C32074   0.468  10.503   2.308  0.8075  1.0655  0.0251
  233MOL0     O32075   0.483  10.606   2.214  0.1498 -1.2178 -1.0763
  233MOL0     C32076   0.515  10.558   2.081 -0.5032 -0.9467  0.1368
  233MOL0     C32077   0.583  10.674   2.008  0.7294 -0.2392  0.1381
  233MOL0     C32078   0.615  10.631   1.862  0.3723  0.3474  0.7666
  233MOL0     C32079   0.698  10.735   1.780 -0.3374  0.1024 -0.1623
  233MOL0     C32080   0.743  10.676   1.654  0.3296  0.5613 -0.5908
  233MOL0     C32081   0.778  10.610   1.562  0.1892 -0.6596 -0.4896
  233MOL0     C32082   0.350  10.434   2.340  0.3215 -0.2493 -1.2508
  233MOL0     C32083   0.343  10.347   2.451  0.1664 -1.4062 -1.1575
  233MOL0     C32084   0.205  10.314   2.513 -0.4106 -0.7778  0.5176
  233MOL0     H32085   0.575   9.968   2.746 -0.1585 -1.2115  1.5110
  233MOL0     H32086   0.551   9.871   2.967  3.0446 -1.3276  1.7482
  233MOL0     H32087   0.584   9.877   3.358 -0.3019  1.6287  0.1671
  233MOL0     H32088   0.544   9.808   3.204  4.5856 -1.2135  0.8147
  233MOL0     H32089   0.442  10.081   3.309  1.7638  0.5930 -0.8931
  233MOL0     H32090   0.374  10.004   3.173 -0.5087 -1.6852 -0.3906
  233MOL0     H32091   0.359   9.892   3.458 -3.1570  1.9212  1.9850
  233MOL0     H32092   0.227   9.972   3.367  0.2549 -0.0003  3.1175
  233MOL0     H32093   0.237   9.788   3.192  1.1001  1.3407  0.6388
  233MOL0     H32094   0.356   9.694   3.301  0.2445 -0.2982  2.8772
  233MOL0     H32095   0.070   9.776   3.331 -2.6749 -0.8324  1.3633
  233MOL0     H32096   0.170   9.733   3.473 -0.9698  2.3493 -1.2329
  233MOL0     H32097   0.195   9.499   3.363  0.6634  0.4502  2.9304
  233MOL0     H32098   0.052   9.537   3.446 -1.3597  0.1640 -0.5926
  233MOL0     H32099   0.051   9.602   3.156 -0.9030 -2.5123 -2.2982
  233MOL0     H32100  -0.080   9.587   3.278 -0.3894 -0.4626  0.0343
  233MOL0     H32101  -0.089   9.358   3.265 -1.0332  1.9072  0.3939
  233MOL0     H32102  -0.054   9.397   3.100  1.4542 -1.7923 -1.1813
  233MOL0     H32103   0.183   9.375   2.992  1.0960 -1.3373 -1.3122
  233MOL0     H32104   0.353   9.216   2.919  1.7157 -1.6693 -1.2804
  233MOL0     H32105   0.442   9.100   3.013  2.9177  1.0156 -0.6302
  233MOL0     H32106   0.601   9.246   3.081  0.1182  1.0414  0.4290
  233MOL0     H32107   0.561   9.316   2.922  0.7964  2.4952  0.5143
  233MOL0     H32108   0.420   9.481   3.058 -1.4676  0.6048  3.2736
  233MOL0     H32109   0.484   9.406   3.204 -0.3304  3.0222 -0.5475
  233MOL0     H32110   0.623   9.597   3.148  0.2205 -1.7156  2.7768
  233MOL0     H32111   0.720   9.455   3.106  1.9281  3.9138  1.1695
  233MOL0     H32112   0.743   9.460   2.730 -2.0892  1.4027  0.7530
  233MOL0     H32113   0.888   9.534   2.524  2.7768  1.8010 -2.3107
  233MOL0     H32114   0.938   9.386   2.594 -2.1531  0.6407  3.0359
  233MOL0     H32115   1.065   9.499   2.553  0.1213 -0.4781 -0.8367
  233MOL0     H32116   1.361   9.868   2.952 -1.5604  0.0671 -0.3277
  233MOL0     H32117   1.589   9.986   2.932  0.1835  1.2538 -0.5935
  233MOL0     H32118   1.758  10.126   2.785  0.9117 -0.2552 -0.6254
  233MOL0     H32119   1.816  10.007   2.908  0.4215 -0.1522  0.8488
  233MOL0     H32120   2.028  10.111   2.799 -0.8016 -1.9932  1.4545
  233MOL0     H32121   2.012   9.953   2.739  1.7562  1.7222  1.7874
  233MOL0     H32122   1.899  10.204   2.613 -1.9332  0.0627 -1.9922
  233MOL0     H32123   1.899  10.039   2.541  1.8593 -1.7651  1.0866
  233MOL0     H32124   2.163  10.056   2.563  0.6142  0.3424  1.0949
  233MOL0     H32125   2.137  10.205   2.631 -0.1962 -3.1645  3.4599
  233MOL0     H32126   2.051  10.154   2.335  2.0814 -1.3517 -0.8641
  233MOL0     H32127   2.060  10.310   2.435 -2.4725 -1.3157  3.5539
  233MOL0     H32128   2.295  10.135   2.351  0.7655  0.1672 -1.0918
  233MOL0     H32129   2.303  10.276   2.456 -3.1932 -0.6975  2.2997
  233MOL0     H32130   2.246  10.431   2.300  2.8133  0.4128  0.0399
  233MOL0     H32131   2.198  10.319   2.183  0.7082 -1.1659 -0.3139
  233MOL0     H32132   2.431  10.412   2.149  2.0177  1.1541  1.6757
  233MOL0     H32133   2.421  10.238   2.147 -3.2685  0.8173  0.6441
  233MOL0     H32134   1.666   9.746   2.601 -0.0929  3.4659 -2.2462
  233MOL0     H32135   1.451   9.633   2.619  0.5035  0.5473 -0.9711
  233MOL0     H32136   1.073   9.720   2.977  0.8525 -0.2710 -1.5392
  233MOL0     H32137   0.845   9.735   3.036  1.1999 -1.1078  0.6782
  233MOL0     H32138   0.773  10.211   3.136 -1.9567  0.3352  1.7530
  233MOL0     H32139   0.720  10.336   2.931 -0.8259 -0.0303 -0.3641
  233MOL0     H32140   0.680  10.321   2.499 -0.3954  0.3805  0.6364
  233MOL0     H32141   0.678  10.507   2.347 -0.6120  0.3439 -1.4516
  233MOL0     H32142   0.581  10.471   2.081  0.4307 -0.2717 -0.8271
  233MOL0     H32143   0.426  10.542   2.019 -0.7370  1.8601 -0.3940
  233MOL0     H32144   0.674  10.709   2.058  0.6964 -0.2854  0.2318
  233MOL0     H32145   0.524  10.766   2.003 -0.6219 -0.7136  3.6723
  233MOL0     H32146   0.681  10.544   1.868  0.2845 -0.0250 -2.1564
  233MOL0     H32147   0.525  10.611   1.804  1.0073  1.2323 -0.5977
  233MOL0     H32148   0.793  10.743   1.835 -1.6410 -2.9309  2.9092
  233MOL0     H32149   0.657  10.835   1.767 -2.3387 -0.6750 -0.0820
  233MOL0     H32150   0.791  10.542   1.480 -1.7832  0.4641 -1.8029
  233MOL0     H32151   0.264  10.462   2.280  0.5913 -1.0912 -2.0664
  233MOL0     H32152   0.123  10.329   2.442  1.5534 -0.0847 -1.7413
  233MOL0     H32153   0.185  10.215   2.555 -2.8001  1.0560  4.2919
  233MOL0     H32154   0.180  10.373   2.601  0.6568 -1.0654  1.0349
  234MOL0     O32155   0.391   8.771   9.113 -0.0195 -0.8040 -0.3674
  234MOL0     C32156   0.397   8.686   9.199  0.4012 -0.3924 -1.0834
  234MOL0     O32157   0.354   8.557   9.182  0.4503 -0.2107 -0.0553
  234MOL0     C32158   0.382   8.496   9.064  0.0424  0.9371 -0.4807
  234MOL0     C32159   0.334   8.371   9.053  0.9783  0.6306 -0.9147
  234MOL0     C32160   0.376   8.278   8.953  0.8439 -0.1033 -0.5723
  234MOL0     C32161   0.473   8.324   8.862 -0.4639  0.8713  0.0519
  234MOL0     O32162   0.517   8.229   8.766  0.2188 -0.6738  0.4089
  234MOL0     C32163   0.615   8.263   8.673  0.3753  0.2012  1.0957
  234MOL0     C32164   0.598   8.148   8.576 -0.6880  0.6284 -0.3490
  234MOL0     C32165   0.728   8.132   8.499 -0.2839 -0.1911 -0.5250
  234MOL0     C32166   0.769   7.982   8.478 -0.7103  0.4368 -0.0184
  234MOL0     C32167   0.915   7.953   8.449 -0.2970 -0.5694  0.6539
  234MOL0     C32168   0.953   7.800   8.472 -0.5295 -0.9344 -0.3493
  234MOL0     C32169   1.082   7.775   8.391  0.6675 -0.7826 -0.7139
  234MOL0     C32170   1.069   7.751   8.241 -0.0210 -0.0714  0.2417
  234MOL0     N32171   1.196   7.683   8.203  0.0431  0.0874 -0.6505
  234MOL0     C32172   1.224   7.545   8.228 -0.0317 -1.3697 -0.7596
  234MOL0     C32173   1.340   7.533   8.167 -0.8064  0.6271  1.0502
  234MOL0     C32174   1.402   7.392   8.167  0.0679 -0.4444  0.2644
  234MOL0     C32175   1.474   7.363   8.032 -0.2199  0.6277 -0.1102
  234MOL0     C32176   1.376   7.321   7.918  0.4229 -0.2104 -0.3560
  234MOL0     C32177   1.439   7.282   7.791  0.1633  0.5522 -0.0622
  234MOL0     O32178   1.503   7.151   7.795 -0.3429 -1.3795 -0.8091
  234MOL0     C32179   1.508   7.082   7.672  0.6517 -0.1325 -0.6833
  234MOL0     C32180   1.531   7.144   7.548 -1.0854  0.3517 -0.1836
  234MOL0     C32181   1.516   7.070   7.427  1.3976  0.0668 -0.3246
  234MOL0     C32182   1.525   7.142   7.295  0.5371  1.0577 -0.2986
  234MOL0     C32183   1.480   6.932   7.435 -0.5511 -0.1194  0.7153
  234MOL0     C32184   1.484   6.833   7.316 -0.0164 -0.4350  0.4862
  234MOL0     O32185   1.411   6.717   7.322  0.3774 -0.7797 -0.8752
  234MOL0     C32186   1.404   6.639   7.218  0.8996  1.0545  0.6415
  234MOL0     C32187   1.511   6.596   7.138  0.3337  0.1408  0.1128
  234MOL0     C32188   1.495   6.474   7.068  0.0679 -0.4499  0.4806
  234MOL0     C32189   1.374   6.423   7.034  0.8465 -0.2574 -0.0579
  234MOL0     O32190   1.353   6.317   6.950  0.0057 -0.7600 -1.0760
  234MOL0     C32191   1.431   6.203   6.962 -0.8334 -0.9421 -0.8652
  234MOL0     C32192   1.346   6.086   7.018 -0.0283  0.5165 -0.1761
  234MOL0     C32193   1.257   6.002   6.926 -0.5802  0.8088 -0.0411
  234MOL0     C32194   1.138   6.082   6.866 -0.3031  0.5383 -0.0237
  234MOL0     C32195   1.026   6.062   6.965 -0.3398 -0.1122  1.4519
  234MOL0     C32196   0.896   6.141   6.935 -1.2138  0.4057  0.7658
  234MOL0     C32197   0.890   6.276   7.001 -0.7030  0.1980  0.2486
  234MOL0     C32198   0.753   6.342   6.981 -0.0526  0.3022  0.0193
  234MOL0    Cl32199   0.627   6.230   7.050 -0.1789 -0.6565 -0.0339
  234MOL0     C32200   1.263   6.483   7.085  0.7588  0.2698 -0.2140
  234MOL0     C32201   1.271   6.584   7.185 -0.4559 -0.8762 -0.1547
  234MOL0     O32202   1.573   6.853   7.236 -0.1699 -0.7806 -0.6484
  234MOL0     C32203   1.477   6.881   7.568 -0.1981  0.6008  0.9743
  234MOL0     C32204   1.484   6.949   7.678 -0.0544  0.8864  0.3955
  234MOL0     N32205   1.394   7.653   8.110  1.0747 -0.3451 -1.2160
  234MOL0     N32206   1.296   7.737   8.123 -0.3771 -0.4763  0.0562
  234MOL0     C32207   0.519   8.458   8.869 -0.0988  0.2162  0.0455
  234MOL0     C32208   0.470   8.546   8.964 -0.6254 -0.5348  0.0929
  234MOL0     C32209   0.441   8.730   9.334 -0.1391  0.9883 -0.4428
  234MOL0     C32210   0.473   8.859   9.355 -0.7237 -0.1360 -0.5933
  234MOL0     C32211   0.521   8.911   9.470  0.3606 -0.0772 -0.0437
  234MOL0     C32212   0.540   8.823   9.570  0.0627  1.3094 -0.1091
  234MOL0     O32213   0.590   8.868   9.695 -0.7838 -1.0972 -0.3635
  234MOL0     C32214   0.497   8.926   9.788 -0.0659  0.5494 -0.5169
  234MOL0     C32215   0.475   8.815   9.896  0.3497 -0.0954 -0.1288
  234MOL0     C32216   0.368   8.873   9.997  0.8448 -0.3499  0.1733
  234MOL0     C32217   0.380   8.804  10.131  0.9731 -0.6947  0.1221
  234MOL0     C32218   0.366   8.659  10.137 -0.1803  0.3370 -0.4366
  234MOL0     C32219   0.328   8.546  10.163  0.8993  0.0115 -1.0535
  234MOL0     C32220   0.506   8.689   9.558 -0.2442 -0.3203  0.3362
  234MOL0     C32221   0.469   8.637   9.439 -1.1478 -1.3514 -0.2884
  234MOL0     C32222   0.473   8.492   9.425 -0.2294  1.0730 -0.7387
  234MOL0     H32223   0.265   8.331   9.127 -0.6369  0.0627 -2.6394
  234MOL0     H32224   0.339   8.176   8.950 -0.3132  0.2901 -0.0605
  234MOL0     H32225   0.710   8.269   8.727  1.2236  2.7803 -0.5442
  234MOL0     H32226   0.602   8.364   8.635  0.9618  0.1586  0.7864
  234MOL0     H32227   0.569   8.058   8.631  0.5439 -0.1102 -0.8836
  234MOL0     H32228   0.511   8.172   8.514 -1.4102 -1.7730 -0.3618
  234MOL0     H32229   0.737   8.179   8.401 -1.5163 -1.2414 -1.1663
  234MOL0     H32230   0.803   8.178   8.565 -2.2722 -0.0313  1.7494
  234MOL0     H32231   0.757   7.926   8.571  0.5445 -0.1321 -0.1792
  234MOL0     H32232   0.714   7.945   8.390  1.3368  1.6549 -1.9224
  234MOL0     H32233   0.979   8.023   8.503 -1.2528  1.1192 -0.2825
  234MOL0     H32234   0.942   7.977   8.346 -0.3635 -1.7514  0.3565
  234MOL0     H32235   0.961   7.791   8.581 -4.7055  2.0130  0.4592
  234MOL0     H32236   0.867   7.736   8.450 -1.2036 -0.3592  0.5491
  234MOL0     H32237   1.135   7.693   8.440 -0.0879  0.3974  2.3628
  234MOL0     H32238   1.149   7.859   8.414  2.2237 -2.7852  2.8632
  234MOL0     H32239   0.987   7.685   8.213 -1.0035  0.9125  0.7398
  234MOL0     H32240   1.058   7.847   8.191  0.0547  0.4912  1.2732
  234MOL0     H32241   1.168   7.469   8.281  0.0257 -0.7634  0.2029
  234MOL0     H32242   1.326   7.316   8.186  1.2637 -1.4194  1.2832
  234MOL0     H32243   1.471   7.376   8.250  0.8784  4.1168  0.7527
  234MOL0     H32244   1.531   7.452   8.004  1.7162 -0.6191 -0.4093
  234MOL0     H32245   1.544   7.279   8.040 -3.5333 -2.3013  0.4567
  234MOL0     H32246   1.325   7.229   7.947 -0.1144  0.3491  0.5559
  234MOL0     H32247   1.314   7.411   7.911  0.9226  0.1608 -0.1375
  234MOL0     H32248   1.361   7.282   7.714  1.5843 -0.3488 -1.5832
  234MOL0     H32249   1.510   7.359   7.758 -1.1558  1.4439 -0.9260
  234MOL0     H32250   1.542   7.252   7.544  1.8686  0.0961 -1.2012
  234MOL0     H32251   1.435   7.118   7.238  1.5460  2.4444 -2.5773
  234MOL0     H32252   1.607   7.099   7.237 -0.2147 -0.7433 -0.1030
  234MOL0     H32253   1.540   7.250   7.298  3.2263  0.7449  0.1958
  234MOL0     H32254   1.612   6.632   7.153  1.0333 -1.8967  0.5364
  234MOL0     H32255   1.577   6.438   7.006 -0.1284 -3.4858  1.8334
  234MOL0     H32256   1.468   6.162   6.867  2.0895  3.2566 -1.8284
  234MOL0     H32257   1.523   6.198   7.021  0.0717 -0.9995 -2.2255
  234MOL0     H32258   1.399   6.011   7.078  0.0674  1.6643  1.2204
  234MOL0     H32259   1.279   6.134   7.091 -0.1886  0.3350 -0.2024
  234MOL0     H32260   1.231   5.911   6.980  1.4060  0.0610 -0.2399
  234MOL0     H32261   1.324   5.974   6.844 -2.3617 -1.8185 -0.7154
  234MOL0     H32262   1.118   6.043   6.766  2.8274 -2.5388  0.3433
  234MOL0     H32263   1.176   6.184   6.854  1.4234 -0.2291 -1.6913
  234MOL0     H32264   0.986   5.960   6.962 -0.4907 -0.0502  1.3361
  234MOL0     H32265   1.066   6.096   7.061  1.3865 -2.5081  1.6673
  234MOL0     H32266   0.812   6.093   6.985 -2.6821  3.1558  1.1171
  234MOL0     H32267   0.878   6.153   6.828 -4.1417 -0.3866  1.0954
  234MOL0     H32268   0.966   6.342   6.958 -2.0089  1.6583  0.0948
  234MOL0     H32269   0.909   6.272   7.109  0.3116 -0.0215  0.0714
  234MOL0     H32270   0.725   6.374   6.880 -0.4040  1.0734  0.3524
  234MOL0     H32271   0.747   6.433   7.041 -1.6607  1.7199 -2.1300
  234MOL0     H32272   1.163   6.451   7.060  0.6911 -0.4659  0.9049
  234MOL0     H32273   1.186   6.627   7.236 -1.6351 -3.3300  0.1249
  234MOL0     H32274   1.471   6.773   7.572  5.7135 -0.0332  2.4283
  234MOL0     H32275   1.493   6.910   7.779 -0.9070  0.9667  0.5176
  234MOL0     H32276   0.580   8.509   8.795 -1.8806  3.1060  0.3875
  234MOL0     H32277   0.508   8.648   8.965  2.0950 -1.4718  0.5680
  234MOL0     H32278   0.469   8.932   9.275  0.7720  0.7233  0.0758
  234MOL0     H32279   0.547   9.017   9.479 -0.2593 -0.0004  1.0156
  234MOL0     H32280   0.524   9.026   9.822  0.3011  0.0720  0.6614
  234MOL0     H32281   0.400   8.934   9.739 -1.1291  3.2640  1.7677
  234MOL0     H32282   0.569   8.788   9.945  0.9251 -4.6728 -3.1573
  234MOL0     H32283   0.433   8.720   9.862  0.8484 -1.2791  2.3223
  234MOL0     H32284   0.380   8.981  10.008 -1.4377 -0.0590  0.3843
  234MOL0     H32285   0.267   8.857   9.959  1.0466 -1.0004 -0.1053
  234MOL0     H32286   0.298   8.846  10.190  1.8716 -1.8532  2.2988
  234MOL0     H32287   0.473   8.842  10.175  1.5934 -1.8964 -0.1330
  234MOL0     H32288   0.287   8.449  10.184  4.2452 -1.0086  1.5696
  234MOL0     H32289   0.519   8.625   9.645 -1.6760  1.1800  1.7252
  234MOL0     H32290   0.527   8.442   9.506  1.3955  3.2140 -0.4146
  234MOL0     H32291   0.375   8.448   9.443  1.4295 -3.7802 -1.7784
  234MOL0     H32292   0.504   8.456   9.326  1.3353 -0.1811  0.1496
  235MOL0     O32293   3.476  10.255  11.401 -0.3148 -0.0033  0.4930
  235MOL0     C32294   3.487  10.247  11.277  0.2229  1.0884 -0.1437
  235MOL0     O32295   3.393  10.283  11.195 -0.5609  0.3588  0.1745
  235MOL0     C32296   3.283  10.331  11.259  0.4159 -0.6146  0.4094
  235MOL0     C32297   3.256  10.467  11.265  0.0530 -0.3025  0.4034
  235MOL0     C32298   3.151  10.517  11.339 -0.0121 -0.2189 -0.4552
  235MOL0     C32299   3.058  10.430  11.405  0.6324 -0.9118  0.4087
  235MOL0     O32300   2.944  10.473  11.467  0.3262 -0.2338 -0.0875
  235MOL0     C32301   2.863  10.548  11.387  0.0699 -0.0477  0.2617
  235MOL0     C32302   2.778  10.472  11.275 -0.1608  0.2620  0.6348
  235MOL0     C32303   2.745  10.568  11.150 -0.0642 -0.4483 -0.8998
  235MOL0     C32304   2.661  10.690  11.199  0.5561  0.4084  0.0651
  235MOL0     C32305   2.525  10.652  11.271 -0.0841 -1.2568  0.3098
  235MOL0     C32306   2.435  10.775  11.292 -0.2815  0.3232  0.4363
  235MOL0     C32307   2.307  10.736  11.375 -0.6586 -0.1921 -0.3019
  235MOL0     C32308   2.214  10.854  11.367  0.3502 -0.5515  0.9044
  235MOL0     N32309   2.098  10.842  11.459 -1.6324  0.4810 -0.3119
  235MOL0     C32310   2.022  10.730  11.481 -0.0833 -0.4124 -0.4531
  235MOL0     C32311   1.925  10.769  11.569  0.3256 -0.1953  0.1389
  235MOL0     C32312   1.811  10.693  11.622 -0.9183 -0.5197 -0.2859
  235MOL0     C32313   1.697  10.685  11.527 -0.4418  0.0181  0.0981
  235MOL0     C32314   1.586  10.788  11.530  0.1058  0.5997  0.7758
  235MOL0     C32315   1.469  10.763  11.429 -0.3601  0.1662  0.0308
  235MOL0     O32316   1.390  10.657  11.486 -0.8582 -0.0319  0.4097
  235MOL0     C32317   1.407  10.522  11.456  0.9809 -0.1049  0.5930
  235MOL0     C32318   1.322  10.435  11.534 -1.1756  0.3046 -0.6760
  235MOL0     C32319   1.301  10.295  11.515  0.9412 -0.0837  0.2968
  235MOL0     C32320   1.195  10.221  11.598 -0.5170  0.1117  0.9310
  235MOL0     C32321   1.386  10.235  11.418 -0.1521 -0.9999  0.3011
  235MOL0     C32322   1.360  10.093  11.368 -0.7007 -0.7275  0.9199
  235MOL0     O32323   1.229  10.058  11.354  0.7622  0.0196  0.0890
  235MOL0     C32324   1.208   9.925  11.310  0.5653  0.8541 -0.3523
  235MOL0     C32325   1.216   9.880  11.181  0.1802  0.2298  0.5154
  235MOL0     C32326   1.168   9.759  11.140 -0.2462  0.1886 -1.0656
  235MOL0     C32327   1.116   9.674  11.247  0.0626 -0.1166 -0.1957
  235MOL0     O32328   1.055   9.559  11.213  0.2077 -0.0626  0.3227
  235MOL0     C32329   1.154   9.452  11.208  0.5013  0.7311 -0.1826
  235MOL0     C32330   1.092   9.333  11.133 -0.2386 -0.3051  0.5138
  235MOL0     C32331   1.220   9.248  11.082 -1.0817  0.2841  0.2636
  235MOL0     C32332   1.179   9.113  11.015 -1.3808 -0.9923 -0.1696
  235MOL0     C32333   1.290   9.034  10.959 -0.6453  0.4511  0.7129
  235MOL0     C32334   1.407   9.121  10.885 -0.2126  0.1050  0.3994
  235MOL0     C32335   1.343   9.183  10.758  0.5210  0.0594 -0.3872
  235MOL0     C32336   1.436   9.223  10.652 -0.3112  0.0158  0.6275
  235MOL0    Cl32337   1.572   9.321  10.710  0.2420  0.0640  0.5071
  235MOL0     C32338   1.110   9.709  11.381 -0.1869 -0.5037 -0.2734
  235MOL0     C32339   1.160   9.839  11.408  0.5927 -0.8744 -0.1104
  235MOL0     O32340   1.456  10.023  11.337  0.2211 -0.7560 -0.1362
  235MOL0     C32341   1.490  10.314  11.354  0.6286 -0.3393 -0.4745
  235MOL0     C32342   1.486  10.455  11.367 -0.1454 -0.1359  0.0123
  235MOL0     N32343   1.948  10.905  11.598  0.2352  0.6146 -0.1692
  235MOL0     N32344   2.048  10.946  11.531 -0.4239  0.7160 -0.1564
  235MOL0     C32345   3.073  10.301  11.379  0.5942  0.4387  0.1324
  235MOL0     C32346   3.182  10.248  11.302  0.2143 -1.2649 -0.9290
  235MOL0     C32347   3.606  10.201  11.215  0.3113 -1.0601  0.6554
  235MOL0     C32348   3.644  10.257  11.090  0.5748  0.6802 -0.2637
  235MOL0     C32349   3.765  10.216  11.032  0.0178  0.2829 -0.1582
  235MOL0     C32350   3.846  10.119  11.083 -0.7234  0.8084  0.1201
  235MOL0     O32351   3.952  10.066  11.014 -0.2830  0.1596 -0.0391
  235MOL0     C32352   4.078  10.122  11.065 -0.6639  0.5669  0.5238
  235MOL0     C32353   4.133  10.229  10.960  0.3076  0.1746 -0.8433
  235MOL0     C32354   4.179  10.174  10.825  0.0753 -0.5663 -0.6857
  235MOL0     C32355   4.272  10.053  10.830  0.4221  0.0780 -0.4329
  235MOL0     C32356   4.386  10.056  10.931 -0.2674 -0.7260  0.2990
  235MOL0     C32357   4.483  10.045  11.004 -0.6538 -0.5041 -0.5301
  235MOL0     C32358   3.812  10.068  11.210 -0.7102  0.2714  0.3320
  235MOL0     C32359   3.688  10.102  11.280 -0.2514  0.7171  0.6659
  235MOL0     C32360   3.669  10.031  11.411 -1.1183  0.1427  0.2066
  235MOL0     H32361   3.327  10.534  11.217 -0.0273  0.0366  0.7464
  235MOL0     H32362   3.145  10.625  11.346 -0.9306 -0.2334 -0.8378
  235MOL0     H32363   2.930  10.624  11.346  1.5706 -2.1734 -1.4309
  235MOL0     H32364   2.787  10.608  11.438 -1.5967 -0.2773 -1.8196
  235MOL0     H32365   2.850  10.406  11.227  0.5239  2.4497 -1.5392
  235MOL0     H32366   2.683  10.427  11.306  0.9323 -1.3160  1.8727
  235MOL0     H32367   2.844  10.606  11.126 -0.3081  1.0409  0.2630
  235MOL0     H32368   2.689  10.513  11.074 -2.0103 -1.0536  0.8715
  235MOL0     H32369   2.731  10.734  11.271  1.1808 -0.1686 -0.1860
  235MOL0     H32370   2.652  10.754  11.111 -0.3933 -0.2927 -0.3679
  235MOL0     H32371   2.547  10.603  11.367  1.2188 -0.2294  0.5665
  235MOL0     H32372   2.476  10.573  11.213 -0.7316 -0.2655 -0.5180
  235MOL0     H32373   2.490  10.856  11.342 -1.2495  1.3841 -0.1675
  235MOL0     H32374   2.409  10.816  11.195 -0.4794 -2.1923 -0.6465
  235MOL0     H32375   2.341  10.713  11.477 -1.1074 -4.3629 -0.9075
  235MOL0     H32376   2.256  10.650  11.330 -1.5319  2.4515 -5.0002
  235MOL0     H32377   2.264  10.951  11.360  0.1046 -0.1908  3.3093
  235MOL0     H32378   2.170  10.843  11.268  3.2557  1.3206 -0.7531
  235MOL0     H32379   2.034  10.629  11.443  1.3236  0.0391 -1.2782
  235MOL0     H32380   1.778  10.734  11.718 -1.4801  0.3346 -0.8302
  235MOL0     H32381   1.848  10.593  11.647 -1.1619 -0.3683  0.7038
  235MOL0     H32382   1.739  10.690  11.426 -0.3966 -2.7584 -0.0913
  235MOL0     H32383   1.659  10.584  11.542  1.2217 -0.8787 -1.4431
  235MOL0     H32384   1.541  10.786  11.630 -1.2871 -0.7997  0.1537
  235MOL0     H32385   1.626  10.886  11.502  0.0404 -0.0180 -1.6621
  235MOL0     H32386   1.402  10.848  11.413 -1.6161 -0.8310 -0.1303
  235MOL0     H32387   1.509  10.723  11.335 -2.3896 -1.9064 -0.0106
  235MOL0     H32388   1.266  10.482  11.614  0.3788  2.4836 -0.7884
  235MOL0     H32389   1.254  10.141  11.644  3.3494  1.6046 -1.0407
  235MOL0     H32390   1.110  10.187  11.538 -0.0911 -0.0192  0.3981
  235MOL0     H32391   1.155  10.290  11.674 -0.8487 -0.0413  0.8998
  235MOL0     H32392   1.252   9.960  11.117  1.0820  1.6244  2.6644
  235MOL0     H32393   1.166   9.734  11.034 -2.3191  1.5577 -1.4086
  235MOL0     H32394   1.253   9.486  11.177  1.1053 -0.4877  0.3681
  235MOL0     H32395   1.159   9.423  11.314 -3.9744  0.1931  0.0764
  235MOL0     H32396   1.025   9.291  11.207  0.0824  1.4933  1.8974
  235MOL0     H32397   1.037   9.369  11.045 -0.6494  0.5636  1.1085
  235MOL0     H32398   1.304   9.251  11.151  0.5326  0.7577 -1.6361
  235MOL0     H32399   1.248   9.320  11.005  3.1632 -2.4512 -1.1055
  235MOL0     H32400   1.107   9.139  10.937  0.7402 -2.8062 -2.9709
  235MOL0     H32401   1.131   9.055  11.094 -1.0828 -0.0522  0.7198
  235MOL0     H32402   1.342   8.996  11.048  0.2287  0.3901  0.1941
  235MOL0     H32403   1.245   8.953  10.902 -2.5678  3.0633 -1.7697
  235MOL0     H32404   1.484   9.049  10.858 -0.1009 -0.2275  1.5379
  235MOL0     H32405   1.457   9.198  10.944  2.2281  0.8154 -2.3686
  235MOL0     H32406   1.301   9.282  10.779  0.0848 -0.1739 -0.1569
  235MOL0     H32407   1.269   9.109  10.725  1.3173 -1.1941  0.5665
  235MOL0     H32408   1.382   9.274  10.571  1.1566 -2.2968 -2.0063
  235MOL0     H32409   1.478   9.130  10.613 -0.8365  0.5881 -1.4544
  235MOL0     H32410   1.065   9.651  11.461  2.7322 -0.5651  1.4579
  235MOL0     H32411   1.161   9.881  11.507  0.6534  1.3133 -0.9927
  235MOL0     H32412   1.569  10.274  11.291  1.9924  1.5538 -0.0738
  235MOL0     H32413   1.557  10.509  11.305 -0.8358  0.6111 -0.1498
  235MOL0     H32414   2.987  10.246  11.415 -0.5792  3.5910  2.5509
  235MOL0     H32415   3.204  10.143  11.282 -0.7255 -1.4093 -1.2746
  235MOL0     H32416   3.599  10.342  11.039  0.5391  1.6189  1.2600
  235MOL0     H32417   3.802  10.263  10.941 -0.2273  1.0700  0.1363
  235MOL0     H32418   4.073  10.170  11.163  1.6126  2.1928 -0.0704
  235MOL0     H32419   4.151  10.041  11.075 -1.2997  0.0181  0.7830
  235MOL0     H32420   4.213  10.282  11.012 -1.2621  1.2353  0.5885
  235MOL0     H32421   4.058  10.305  10.933 -1.0859 -1.4339 -1.6553
  235MOL0     H32422   4.092  10.138  10.769  0.7133  2.0578 -3.6363
  235MOL0     H32423   4.209  10.257  10.761 -2.4152 -0.6650 -2.0923
  235MOL0     H32424   4.290  10.033  10.724 -4.5020 -2.6418 -1.0546
  235MOL0     H32425   4.224   9.961  10.866  0.5502  0.4792  0.8278
  235MOL0     H32426   4.567  10.024  11.068  0.6406  0.9810 -1.6479
  235MOL0     H32427   3.882  10.002  11.260  1.2959  1.2491 -1.0259
  235MOL0     H32428   3.757  10.068  11.464  1.5337 -0.0933 -3.5945
  235MOL0     H32429   3.567  10.046  11.448 -1.3323 -0.3133 -0.1855
  235MOL0     H32430   3.677   9.926  11.382 -2.8879 -0.2196  0.9085
  236MOL0     O32431  10.460   3.952   1.918  0.0971  0.1219 -0.0390
  236MOL0     C32432  10.440   3.949   1.803 -0.1661 -0.1892  0.3772
  236MOL0     O32433  10.450   3.831   1.727  0.6894 -0.8242  1.3166
  236MOL0     C32434  10.490   3.719   1.787 -0.1261  0.1536  0.6550
  236MOL0     C32435  10.628   3.707   1.816 -1.5512  0.4444  0.7291
  236MOL0     C32436  10.674   3.584   1.870  0.0115  0.7265 -0.9711
  236MOL0     C32437  10.587   3.476   1.889 -0.7409  0.2333  1.1003
  236MOL0     O32438  10.633   3.357   1.933  0.0916 -0.1887  0.1428
  236MOL0     C32439  10.776   3.324   1.916  0.9161 -0.2033  0.2523
  236MOL0     C32440  10.798   3.167   1.931 -0.3087 -0.5243  0.0268
  236MOL0     C32441  10.750   3.102   2.059  1.0825 -0.3253 -0.1719
  236MOL0     C32442  10.837   3.146   2.184  0.9697  0.2855 -0.6014
  236MOL0     C32443  10.857   3.044   2.292 -0.4450  0.2673 -0.6539
  236MOL0     C32444  10.946   2.938   2.235 -1.1260  0.0303  0.2563
  236MOL0     C32445  10.979   2.826   2.323 -0.6669  0.7115  0.9044
  236MOL0     C32446  11.028   2.856   2.466  0.0701 -0.3750 -0.3417
  236MOL0     N32447  11.075   2.738   2.534 -0.9623  0.5977 -0.7949
  236MOL0     C32448  11.198   2.722   2.593 -0.2713 -0.3681  0.7489
  236MOL0     C32449  11.198   2.596   2.646 -1.3294 -0.3359 -0.5469
  236MOL0     C32450  11.328   2.550   2.703 -0.7955  0.2514  0.4473
  236MOL0     C32451  11.336   2.398   2.733  0.3978  0.4053  0.6754
  236MOL0     C32452  11.369   2.319   2.599  1.3086  0.1170  0.4556
  236MOL0     C32453  11.247   2.229   2.565  0.7153 -0.4238 -0.5232
  236MOL0     O32454  11.265   2.177   2.438  0.5096 -0.1208 -0.2905
  236MOL0     C32455  11.207   2.249   2.331 -0.8224  0.1083  0.2087
  236MOL0     C32456  11.219   2.207   2.194  0.0551 -0.1746 -0.4981
  236MOL0     C32457  11.155   2.268   2.087  0.5134  0.8904  0.4226
  236MOL0     C32458  11.210   2.222   1.947 -0.3869  0.1145  0.6662
  236MOL0     C32459  11.065   2.374   2.113  0.2435 -0.4092  0.3079
  236MOL0     C32460  10.981   2.434   2.012 -0.0493 -1.1358 -0.5057
  236MOL0     O32461  10.947   2.568   2.036 -0.5512 -0.0365  0.2987
  236MOL0     C32462  10.875   2.644   1.946  0.6569 -0.2294 -0.1951
  236MOL0     C32463  10.743   2.686   1.983 -0.5046  0.7184  0.0521
  236MOL0     C32464  10.664   2.754   1.892  0.9662  0.2103 -0.0652
  236MOL0     C32465  10.716   2.775   1.763  0.4987  0.5954 -0.0172
  236MOL0     O32466  10.618   2.835   1.677 -0.5076 -0.2030  0.1761
  236MOL0     C32467  10.613   2.778   1.543  0.1248  0.0630 -0.6130
  236MOL0     C32468  10.465   2.756   1.519  0.2575  0.0242 -0.6570
  236MOL0     C32469  10.393   2.625   1.570  0.4347 -0.3285  0.0425
  236MOL0     C32470  10.403   2.504   1.476 -0.5790  0.0697 -0.0371
  236MOL0     C32471  10.364   2.362   1.552  1.1503 -0.6868  0.8481
  236MOL0     C32472  10.470   2.333   1.662  0.3537 -0.7267 -0.2750
  236MOL0     C32473  10.394   2.294   1.792 -0.2083 -0.3807 -0.1846
  236MOL0     C32474  10.501   2.309   1.903 -0.4438  0.6218  0.1685
  236MOL0    Cl32475  10.451   2.271   2.082 -0.0177  0.3605  0.1174
  236MOL0     C32476  10.857   2.765   1.735  0.3581 -0.1190 -0.5519
  236MOL0     C32477  10.934   2.683   1.821 -0.4475 -1.7402  0.2007
  236MOL0     O32478  10.969   2.381   1.902 -0.5077  0.0921 -0.2225
  236MOL0     C32479  11.047   2.414   2.245  0.2139  0.0045 -0.4134
  236MOL0     C32480  11.112   2.347   2.350 -0.5641  0.4721 -0.1848
  236MOL0     N32481  11.076   2.540   2.633 -0.8075 -0.1709 -0.2128
  236MOL0     N32482  11.009   2.625   2.554 -0.1664 -0.8407  0.2130
  236MOL0     C32483  10.454   3.492   1.843 -0.1388  0.2817 -0.7152
  236MOL0     C32484  10.401   3.612   1.803  0.3195  0.4393 -0.0615
  236MOL0     C32485  10.405   4.074   1.728  0.6102  0.2746 -0.4378
  236MOL0     C32486  10.428   4.078   1.587 -0.3557  0.5384  0.3853
  236MOL0     C32487  10.414   4.196   1.521  0.4414 -0.7288  0.8074
  236MOL0     C32488  10.357   4.308   1.580  0.1774  1.4359  0.5694
  236MOL0     O32489  10.357   4.416   1.503 -0.5173  0.2797 -0.9286
  236MOL0     C32490  10.237   4.497   1.509 -0.0535 -0.7598  0.4121
  236MOL0     C32491  10.262   4.630   1.587 -0.8652  0.0493 -0.0072
  236MOL0     C32492  10.283   4.762   1.511 -0.6304  0.2340  0.1282
  236MOL0     C32493  10.306   4.886   1.596  0.2012  0.2172 -0.1710
  236MOL0     C32494  10.180   4.926   1.663  0.0749  0.0860 -0.2215
  236MOL0     C32495  10.078   4.965   1.711 -0.4496  0.8856  0.7445
  236MOL0     C32496  10.320   4.302   1.714 -0.0003  0.6956 -0.4936
  236MOL0     C32497  10.338   4.182   1.790  0.0493  0.0761  0.6505
  236MOL0     C32498  10.274   4.177   1.930 -0.6014  0.1253  0.0756
  236MOL0     H32499  10.688   3.797   1.812  1.1090 -1.2046  0.6618
  236MOL0     H32500  10.772   3.582   1.917 -0.6778 -0.9823  0.5078
  236MOL0     H32501  10.837   3.391   1.978  1.5784 -1.6283  1.1927
  236MOL0     H32502  10.794   3.352   1.812  0.1527  2.3196  0.7164
  236MOL0     H32503  10.758   3.112   1.846  0.2982  0.1231 -0.6922
  236MOL0     H32504  10.907   3.154   1.927 -0.4355 -2.8645  1.9866
  236MOL0     H32505  10.642   3.117   2.069  1.2918  1.6467 -0.5076
  236MOL0     H32506  10.754   2.994   2.042  1.5391  0.1207 -3.7200
  236MOL0     H32507  10.932   3.171   2.136  0.2146  0.9088 -1.7996
  236MOL0     H32508  10.804   3.245   2.219 -0.0973 -1.3942  3.9374
  236MOL0     H32509  10.762   2.998   2.322  0.0290 -0.6886 -0.5601
  236MOL0     H32510  10.908   3.097   2.373 -2.0323  1.5937 -0.4748
  236MOL0     H32511  10.916   2.883   2.145 -0.0127  1.1668 -0.8382
  236MOL0     H32512  11.034   2.993   2.202 -1.7113 -0.1699 -1.7871
  236MOL0     H32513  11.052   2.758   2.279  1.5355  1.0582  3.7074
  236MOL0     H32514  10.895   2.759   2.344  1.4144 -2.0060  1.1719
  236MOL0     H32515  11.110   2.928   2.466  1.5573 -1.9977 -1.0532
  236MOL0     H32516  10.942   2.899   2.519  0.1432  2.3331 -2.2041
  236MOL0     H32517  11.278   2.791   2.568  1.0055 -2.3752 -1.0197
  236MOL0     H32518  11.355   2.590   2.801  1.0966 -2.9706  1.4001
  236MOL0     H32519  11.407   2.589   2.638 -1.2939  2.1177  0.9203
  236MOL0     H32520  11.426   2.377   2.792  0.3817 -4.1305 -0.5466
  236MOL0     H32521  11.247   2.369   2.788 -0.3080 -0.4574 -0.8495
  236MOL0     H32522  11.402   2.380   2.513  3.1757 -0.6366  0.5799
  236MOL0     H32523  11.457   2.255   2.612  2.1460  1.6050  2.8336
  236MOL0     H32524  11.255   2.147   2.636  3.1874  0.3111  0.1276
  236MOL0     H32525  11.157   2.284   2.594 -0.6871 -1.3670 -2.7406
  236MOL0     H32526  11.278   2.118   2.173  0.9391 -0.5486  2.9868
  236MOL0     H32527  11.285   2.143   1.952  0.0688  0.4813 -0.2783
  236MOL0     H32528  11.238   2.304   1.880 -3.9304  1.6989  0.8571
  236MOL0     H32529  11.121   2.173   1.905 -0.0262  0.9230 -1.1378
  236MOL0     H32530  10.710   2.667   2.085  1.6423 -0.1001  0.6564
  236MOL0     H32531  10.559   2.779   1.907  1.1674  0.2684  1.3993
  236MOL0     H32532  10.673   2.829   1.468 -0.0568 -0.3487 -1.0420
  236MOL0     H32533  10.660   2.679   1.552 -0.8509 -0.4758 -1.2151
  236MOL0     H32534  10.427   2.841   1.576  1.2792 -0.6611  1.1082
  236MOL0     H32535  10.450   2.775   1.412  1.5221 -2.3043 -1.3060
  236MOL0     H32536  10.289   2.656   1.583  0.9386  1.4130  0.2228
  236MOL0     H32537  10.431   2.591   1.666  3.3229 -0.5427 -1.0649
  236MOL0     H32538  10.512   2.491   1.466 -0.3918 -1.6582  2.9133
  236MOL0     H32539  10.345   2.518   1.385 -0.2476  0.2702 -0.2207
  236MOL0     H32540  10.265   2.377   1.595  0.6323  0.3014 -0.6128
  236MOL0     H32541  10.359   2.278   1.481  2.5217 -1.4434  1.6091
  236MOL0     H32542  10.530   2.421   1.690 -0.7193 -0.4600  1.3016
  236MOL0     H32543  10.544   2.266   1.618  0.3885  0.0244 -1.3965
  236MOL0     H32544  10.359   2.191   1.797 -2.6020  0.4437  1.9683
  236MOL0     H32545  10.309   2.361   1.809  0.9394  0.5471  2.3495
  236MOL0     H32546  10.544   2.409   1.911  4.7002 -0.8833 -3.5930
  236MOL0     H32547  10.586   2.246   1.874 -0.5032 -0.4230  2.0406
  236MOL0     H32548  10.910   2.775   1.641  2.6520 -0.6898  0.6204
  236MOL0     H32549  11.028   2.654   1.775 -0.3440  1.6782 -2.1877
  236MOL0     H32550  10.983   2.496   2.275  0.1744  0.4637 -1.6946
  236MOL0     H32551  11.073   2.379   2.446 -2.9664 -1.0077 -0.5716
  236MOL0     H32552  10.379   3.415   1.858 -4.9506  4.8101  1.8328
  236MOL0     H32553  10.294   3.617   1.785  0.0160 -1.7449  0.8625
  236MOL0     H32554  10.469   4.003   1.521  0.7202  1.0539  0.4382
  236MOL0     H32555  10.452   4.192   1.419 -1.9013 -0.6829 -0.1243
  236MOL0     H32556  10.209   4.530   1.409  1.5416  1.1029  0.5204
  236MOL0     H32557  10.152   4.443   1.551 -1.8588 -0.1336 -2.1824
  236MOL0     H32558  10.350   4.617   1.650 -0.0132  2.6153 -0.5210
  236MOL0     H32559  10.175   4.648   1.651  0.6809  0.8746  1.9718
  236MOL0     H32560  10.374   4.759   1.450 -0.7384 -0.0184 -0.0203
  236MOL0     H32561  10.206   4.774   1.434  0.8277 -0.8742 -1.5636
  236MOL0     H32562  10.348   4.966   1.535  1.0322 -1.0759 -1.3446
  236MOL0     H32563  10.388   4.847   1.658  0.9923  0.4038 -1.0827
  236MOL0     H32564   9.987   4.997   1.757 -1.5618  0.4848 -1.0918
  236MOL0     H32565  10.271   4.388   1.758 -1.8550 -0.6250  0.1166
  236MOL0     H32566  10.354   4.209   1.997 -0.7226  0.6548 -0.0239
  236MOL0     H32567  10.188   4.245   1.924 -0.4718  0.6281  2.8363
  236MOL0     H32568  10.238   4.076   1.949 -2.1239 -0.3812 -4.2706
  237MOL0     O32569   4.509   6.023  10.277 -0.1397 -0.3056 -0.5267
  237MOL0     C32570   4.422   6.087  10.214  1.1567  0.3731 -0.2747
  237MOL0     O32571   4.287   6.048  10.205  0.4196  0.1182 -0.3205
  237MOL0     C32572   4.241   5.920  10.241  0.9962 -1.0285 -0.0364
  237MOL0     C32573   4.282   5.840  10.353 -0.3391 -0.2880  0.6013
  237MOL0     C32574   4.254   5.703  10.358 -1.1884 -0.3837 -0.5924
  237MOL0     C32575   4.168   5.645  10.264 -0.1291 -1.0637  0.7401
  237MOL0     O32576   4.122   5.516  10.292  0.5246 -0.2226 -0.9142
  237MOL0     C32577   4.106   5.429  10.185 -0.0474 -1.7575  0.8404
  237MOL0     C32578   4.231   5.417  10.108  0.0434 -0.6820 -1.4997
  237MOL0     C32579   4.233   5.286  10.038  0.3324 -0.3494 -0.5833
  237MOL0     C32580   4.126   5.281   9.924  0.6877 -1.2327  0.1787
  237MOL0     C32581   4.132   5.148   9.848  0.8017  0.2270  0.2486
  237MOL0     C32582   4.013   5.134   9.753  0.6105  0.5124  0.7680
  237MOL0     C32583   3.879   5.110   9.835  0.8994  0.3971 -0.0735
  237MOL0     C32584   3.764   5.125   9.738  0.6919 -0.4637  0.0984
  237MOL0     N32585   3.631   5.138   9.804  0.2204  0.8420  0.3661
  237MOL0     C32586   3.601   5.250   9.872 -0.5507 -0.9036 -0.5727
  237MOL0     C32587   3.497   5.205   9.948 -0.5529 -0.3624  0.5676
  237MOL0     C32588   3.422   5.289  10.049  0.4947  0.6079 -0.5126
  237MOL0     C32589   3.271   5.250  10.037 -0.7653 -0.7912  0.0904
  237MOL0     C32590   3.186   5.293   9.916 -1.1859 -0.0672 -0.1679
  237MOL0     C32591   3.192   5.202   9.800 -0.4249 -0.0978 -0.7544
  237MOL0     O32592   3.141   5.281   9.683 -0.3735  0.3659 -0.9421
  237MOL0     C32593   3.212   5.259   9.561 -0.7481  0.1439 -1.3918
  237MOL0     C32594   3.344   5.296   9.565  0.3358  0.0782  1.2526
  237MOL0     C32595   3.411   5.290   9.448  0.3691  0.2419  0.6748
  237MOL0     C32596   3.551   5.317   9.462 -0.6758 -0.2939 -0.9314
  237MOL0     C32597   3.341   5.231   9.327 -0.1274  0.4489  0.9389
  237MOL0     C32598   3.401   5.207   9.189  1.0767 -0.8892  0.6507
  237MOL0     O32599   3.319   5.191   9.080  0.0851  0.7084 -0.4008
  237MOL0     C32600   3.370   5.227   8.961  0.9071  0.2981  0.0124
  237MOL0     C32601   3.422   5.351   8.917  0.9921  0.5381 -0.2797
  237MOL0     C32602   3.487   5.347   8.792  0.7938  0.1501 -1.5233
  237MOL0     C32603   3.492   5.235   8.702  0.3273  0.6778  0.0543
  237MOL0     O32604   3.544   5.230   8.573  0.3227 -0.2932  0.1704
  237MOL0     C32605   3.502   5.335   8.479  0.2665 -0.3021  0.5099
  237MOL0     C32606   3.368   5.299   8.422 -0.6574  0.2337 -0.1236
  237MOL0     C32607   3.305   5.423   8.360  0.1957 -0.8579 -0.2207
  237MOL0     C32608   3.150   5.431   8.401 -0.2953  0.2532 -0.0676
  237MOL0     C32609   3.074   5.526   8.320 -0.7348 -0.2618 -0.5433
  237MOL0     C32610   3.018   5.466   8.188  1.1194 -0.3727  0.7414
  237MOL0     C32611   2.893   5.532   8.131  0.3118  0.5116  0.0451
  237MOL0     C32612   2.918   5.670   8.082  0.1673  0.8051 -0.0505
  237MOL0    Cl32613   2.759   5.760   8.064  0.4934 -0.0459  0.0670
  237MOL0     C32614   3.444   5.114   8.760  1.4434  0.1423  0.6705
  237MOL0     C32615   3.375   5.114   8.878 -0.2774 -0.3611 -0.9354
  237MOL0     O32616   3.522   5.206   9.186  0.4329  0.9736 -0.0767
  237MOL0     C32617   3.205   5.201   9.338  0.6344 -0.5423 -0.4348
  237MOL0     C32618   3.137   5.214   9.458 -1.4435  0.1667 -0.3469
  237MOL0     N32619   3.474   5.071   9.921 -0.7376  0.0003  0.3986
  237MOL0     N32620   3.557   5.037   9.826  0.1131  0.6195  0.7192
  237MOL0     C32621   4.120   5.725  10.160  0.7712 -0.0338  0.9189
  237MOL0     C32622   4.164   5.855  10.147 -0.2796 -0.6940  0.4109
  237MOL0     C32623   4.460   6.231  10.175  0.7860  0.6108 -1.3451
  237MOL0     C32624   4.604   6.257  10.177 -0.6435 -0.2778 -0.2494
  237MOL0     C32625   4.649   6.388  10.134  1.1327  1.3133 -0.3785
  237MOL0     C32626   4.556   6.487  10.085 -0.6875 -0.5865 -0.3106
  237MOL0     O32627   4.598   6.613  10.036 -0.2251  0.4647 -0.6606
  237MOL0     C32628   4.687   6.694  10.104  0.5238 -1.2750  0.8693
  237MOL0     C32629   4.684   6.675  10.259  0.0062  0.4665  0.6273
  237MOL0     C32630   4.769   6.774  10.340  0.7940  0.3072 -0.2699
  237MOL0     C32631   4.698   6.821  10.471 -0.2345 -0.0756  0.1233
  237MOL0     C32632   4.691   6.708  10.559  0.2050  0.6311  0.3545
  237MOL0     C32633   4.695   6.617  10.634  0.0409  0.1566 -1.1537
  237MOL0     C32634   4.413   6.468  10.096  0.1166 -0.0764  0.6857
  237MOL0     C32635   4.367   6.342  10.141  0.7188 -0.2000  1.0521
  237MOL0     C32636   4.223   6.319  10.131  0.7424 -1.4885  0.4965
  237MOL0     H32637   4.344   5.891  10.426  2.6348 -0.6757 -1.4863
  237MOL0     H32638   4.296   5.649  10.442  0.5399  4.4534  2.0325
  237MOL0     H32639   4.030   5.477  10.123  0.9483  0.2410  1.0652
  237MOL0     H32640   4.067   5.330  10.210 -0.4984 -1.1885  2.4705
  237MOL0     H32641   4.261   5.503  10.049  1.4944  0.4157  0.6779
  237MOL0     H32642   4.307   5.400  10.186 -2.4014 -2.0608  0.7728
  237MOL0     H32643   4.329   5.278   9.986  0.9219  0.3579  0.3656
  237MOL0     H32644   4.210   5.205  10.108 -1.2232  0.8799  0.3985
  237MOL0     H32645   4.025   5.298   9.962  1.3015  1.9643  0.6638
  237MOL0     H32646   4.146   5.364   9.855  0.8760 -2.9847 -1.9900
  237MOL0     H32647   4.131   5.065   9.919 -2.2786 -1.9657 -2.0879
  237MOL0     H32648   4.230   5.140   9.800  1.0791 -0.1924  0.8702
  237MOL0     H32649   3.995   5.219   9.687  2.5825 -2.0793 -3.6116
  237MOL0     H32650   4.029   5.054   9.680  0.8039  0.9387  0.3326
  237MOL0     H32651   3.876   5.183   9.917  1.7638  1.0761 -0.6147
  237MOL0     H32652   3.879   5.010   9.879 -2.7539 -0.7714 -2.2722
  237MOL0     H32653   3.771   5.221   9.686 -0.6062  2.2637  4.3488
  237MOL0     H32654   3.750   5.041   9.670 -5.2791 -0.1246  0.3804
  237MOL0     H32655   3.652   5.345   9.863  0.4216 -1.5031 -1.7510
  237MOL0     H32656   3.436   5.395  10.026 -1.4097  1.0177  0.0451
  237MOL0     H32657   3.462   5.270  10.149 -0.9387 -0.9910 -0.1792
  237MOL0     H32658   3.266   5.141  10.050  0.2294 -0.9578 -0.8010
  237MOL0     H32659   3.219   5.301  10.119 -1.8681 -3.0062  0.8763
  237MOL0     H32660   3.090   5.271   9.964  0.8750 -0.7995  4.0200
  237MOL0     H32661   3.187   5.399   9.887 -0.2986 -0.2731 -0.9422
  237MOL0     H32662   3.296   5.172   9.789 -0.0491  0.8636  0.0756
  237MOL0     H32663   3.128   5.115   9.819  2.7406 -2.2638  0.8053
  237MOL0     H32664   3.378   5.339   9.659 -2.9636  0.1381  2.5339
  237MOL0     H32665   3.540   5.416   9.506 -4.7846 -1.1577  0.4045
  237MOL0     H32666   3.606   5.330   9.369 -0.8062  0.5597 -0.8942
  237MOL0     H32667   3.603   5.243   9.523  0.2833 -0.7112 -2.2211
  237MOL0     H32668   3.412   5.441   8.977  1.9536  0.7701 -0.4512
  237MOL0     H32669   3.535   5.437   8.755  4.2721 -0.5889  0.7778
  237MOL0     H32670   3.498   5.436   8.520 -2.4836  0.0073 -0.3584
  237MOL0     H32671   3.570   5.338   8.394  1.3437  1.6381  1.3888
  237MOL0     H32672   3.382   5.223   8.343  0.2974  0.0223  0.2378
  237MOL0     H32673   3.300   5.273   8.503 -2.5655  1.4484 -1.2410
  237MOL0     H32674   3.306   5.431   8.251 -2.6338  1.3269 -0.2109
  237MOL0     H32675   3.352   5.511   8.406 -1.8754 -0.6633  1.7358
  237MOL0     H32676   3.153   5.459   8.507  3.7817 -4.8071  1.5240
  237MOL0     H32677   3.112   5.329   8.405 -0.2592  0.2285 -0.3409
  237MOL0     H32678   2.990   5.541   8.388  0.4641  0.2851  0.8697
  237MOL0     H32679   3.113   5.627   8.304 -3.7788  0.9192 -1.1432
  237MOL0     H32680   2.980   5.368   8.216 -1.2960  0.2491 -0.1202
  237MOL0     H32681   3.091   5.452   8.108 -1.8709 -0.3818 -2.1861
  237MOL0     H32682   2.831   5.539   8.221 -0.7278  2.3324 -0.7572
  237MOL0     H32683   2.855   5.457   8.061 -1.3548  1.1411  0.2278
  237MOL0     H32684   2.974   5.678   7.989  0.9458  3.5743  0.5581
  237MOL0     H32685   2.976   5.722   8.159  0.0214  0.2070  0.4679
  237MOL0     H32686   3.432   5.022   8.705 -1.5988  0.3751  0.7815
  237MOL0     H32687   3.320   5.026   8.913 -3.6961  0.3785 -3.7883
  237MOL0     H32688   3.147   5.186   9.248  0.9679 -0.1880 -0.7134
  237MOL0     H32689   3.030   5.193   9.462 -1.0369 -2.6526 -1.7421
  237MOL0     H32690   4.044   5.683  10.095  1.2925 -1.0647  0.9418
  237MOL0     H32691   4.151   5.903  10.051 -1.2685 -1.5069  0.1215
  237MOL0     H32692   4.677   6.182  10.205  2.4022  2.6684  0.4557
  237MOL0     H32693   4.756   6.407  10.136  0.7782  3.5789  0.4432
  237MOL0     H32694   4.790   6.667  10.078  0.6008 -1.0608  0.9519
  237MOL0     H32695   4.662   6.798  10.081 -0.1255 -1.5921  0.1278
  237MOL0     H32696   4.685   6.571  10.294 -2.3577  1.0218  2.5873
  237MOL0     H32697   4.581   6.702  10.282 -1.5432  0.1523 -4.6954
  237MOL0     H32698   4.862   6.721  10.360 -0.2629 -1.0907  1.1681
  237MOL0     H32699   4.801   6.859  10.278  2.8312  1.0149  1.6005
  237MOL0     H32700   4.599   6.864  10.455 -0.3967 -1.4246 -3.4182
  237MOL0     H32701   4.769   6.898  10.505  2.8895 -2.9970  0.8200
  237MOL0     H32702   4.681   6.531  10.696 -1.1215  1.0957 -0.0725
  237MOL0     H32703   4.337   6.540  10.067 -1.4906 -0.7413  2.9905
  237MOL0     H32704   4.162   6.410  10.126  2.4948 -0.1136  2.5117
  237MOL0     H32705   4.196   6.249  10.051  0.4731  0.9740 -1.7153
  237MOL0     H32706   4.192   6.292  10.233 -5.1153  0.6215 -0.2917
  238MOL0     O32707   3.697   0.863   4.015 -0.2276 -0.6470  0.6150
  238MOL0     C32708   3.757   0.815   4.106 -0.2982  0.1872 -0.1381
  238MOL0     O32709   3.786   0.871   4.222 -0.2791 -0.0629 -0.3888
  238MOL0     C32710   3.738   1.000   4.253 -0.3274 -0.2930 -0.1473
  238MOL0     C32711   3.734   1.105   4.158  0.4071  0.2521 -0.2716
  238MOL0     C32712   3.690   1.231   4.190  0.2254  0.2251  0.1087
  238MOL0     C32713   3.644   1.253   4.325 -0.0804  0.1632 -0.2653
  238MOL0     O32714   3.588   1.379   4.365  0.2285  0.0629 -0.0889
  238MOL0     C32715   3.649   1.493   4.302  0.2583 -0.8027 -0.1285
  238MOL0     C32716   3.556   1.606   4.345  0.2162  0.5379  0.5399
  238MOL0     C32717   3.565   1.628   4.492 -0.0536 -0.6063 -0.0035
  238MOL0     C32718   3.517   1.773   4.536 -0.0808 -0.4964 -0.4781
  238MOL0     C32719   3.588   1.826   4.662  0.3834 -0.5745  0.4721
  238MOL0     C32720   3.552   1.982   4.683 -1.0151  0.3086  0.0962
  238MOL0     C32721   3.406   2.014   4.717 -1.4092  0.2069 -0.2380
  238MOL0     C32722   3.409   2.101   4.852  0.6421  0.2000  0.3065
  238MOL0     N32723   3.409   2.018   4.972 -0.6544  0.3219  0.0294
  238MOL0     C32724   3.499   1.918   4.995  0.2359 -0.4932 -0.3715
  238MOL0     C32725   3.467   1.869   5.119 -0.4767  0.0665 -0.2119
  238MOL0     C32726   3.549   1.757   5.178  0.4286 -0.1770  0.7523
  238MOL0     C32727   3.452   1.680   5.276  0.5520 -0.3448 -0.7002
  238MOL0     C32728   3.523   1.590   5.367 -0.2511 -0.5477  0.4373
  238MOL0     C32729   3.438   1.485   5.437  0.3346  0.7117  0.2156
  238MOL0     O32730   3.531   1.393   5.484  0.0122 -0.0268 -0.3238
  238MOL0     C32731   3.486   1.285   5.551 -0.4724  1.0911  0.3145
  238MOL0     C32732   3.577   1.191   5.608  0.5536 -1.0426  0.8708
  238MOL0     C32733   3.541   1.073   5.666  0.3270 -0.2668 -0.6164
  238MOL0     C32734   3.645   0.980   5.720  0.4610 -0.1535  0.8686
  238MOL0     C32735   3.402   1.047   5.677  0.1161  0.3865 -0.4035
  238MOL0     C32736   3.343   0.923   5.718  0.0793  1.1198 -0.3604
  238MOL0     O32737   3.251   0.911   5.819 -0.2874 -0.2045 -0.6093
  238MOL0     C32738   3.207   0.792   5.882  1.3021  0.4593  0.8910
  238MOL0     C32739   3.106   0.809   5.974  0.3386 -0.2707 -0.1199
  238MOL0     C32740   3.050   0.693   6.037  0.8328 -1.3558  0.1990
  238MOL0     C32741   3.082   0.561   5.998  0.0227  0.4567  0.0745
  238MOL0     O32742   3.029   0.446   6.046 -0.5759  0.4463  0.5627
  238MOL0     C32743   2.885   0.456   6.068  0.6255  0.2982  0.0637
  238MOL0     C32744   2.832   0.323   6.128  0.0361  0.1339 -0.6439
  238MOL0     C32745   2.679   0.341   6.148 -0.2712  0.5054  0.4333
  238MOL0     C32746   2.601   0.345   6.013 -0.5046 -0.0906  0.3122
  238MOL0     C32747   2.615   0.218   5.928 -0.4485  0.4362 -0.4598
  238MOL0     C32748   2.515   0.239   5.804  0.1627  0.3940  1.4726
  238MOL0     C32749   2.527   0.126   5.708  0.3418 -0.3939 -0.0977
  238MOL0     C32750   2.406   0.107   5.627 -0.1600  0.3933 -0.0899
  238MOL0    Cl32751   2.377   0.223   5.494  0.0973 -0.2084  0.1145
  238MOL0     C32752   3.194   0.552   5.909  0.1768  0.1980 -0.5559
  238MOL0     C32753   3.258   0.664   5.857  0.2344  0.7562 -0.4580
  238MOL0     O32754   3.389   0.825   5.651 -0.8355  0.5211 -0.0794
  238MOL0     C32755   3.305   1.135   5.623 -0.7699  0.2991  0.3744
  238MOL0     C32756   3.345   1.258   5.560 -0.0020 -0.9885  0.5483
  238MOL0     N32757   3.356   1.934   5.168  0.1787  0.5560 -0.8297
  238MOL0     N32758   3.324   2.022   5.079  0.1013  0.6673 -0.4998
  238MOL0     C32759   3.658   1.154   4.424  0.6449  0.4083  0.5030
  238MOL0     C32760   3.699   1.027   4.381 -0.4665 -0.1442 -0.5959
  238MOL0     C32761   3.799   0.675   4.087 -1.0095  0.0226 -0.0189
  238MOL0     C32762   3.822   0.619   3.955  0.0164 -0.5441 -0.5724
  238MOL0     C32763   3.866   0.496   3.935  0.5751  0.6801 -0.6043
  238MOL0     C32764   3.906   0.412   4.040  0.2136  0.4940  0.3391
  238MOL0     O32765   3.935   0.279   4.026 -0.2479  0.0443  0.1182
  238MOL0     C32766   4.070   0.243   3.995 -0.4478  0.2925  0.7525
  238MOL0     C32767   4.079   0.114   3.901  0.1139 -0.7947  0.2376
  238MOL0     C32768   3.999  -0.003   3.963 -0.2217 -0.1689  0.0521
  238MOL0     C32769   4.069  -0.064   4.084 -0.2123  0.3368  0.3289
  238MOL0     C32770   3.975  -0.153   4.157  0.3379  0.2818  0.5225
  238MOL0     C32771   3.891  -0.225   4.210 -0.4933  0.0598 -0.4426
  238MOL0     C32772   3.901   0.462   4.173 -0.9777  0.2728  0.1360
  238MOL0     C32773   3.836   0.591   4.197  0.4565  0.8160  0.9263
  238MOL0     C32774   3.827   0.638   4.342  0.2428 -0.1204  1.1224
  238MOL0     H32775   3.766   1.096   4.055 -0.4221  1.1441 -0.6231
  238MOL0     H32776   3.681   1.306   4.113 -0.1934  3.0396  2.7188
  238MOL0     H32777   3.639   1.477   4.194  0.4969 -0.1803 -0.2428
  238MOL0     H32778   3.753   1.509   4.331 -0.3019  3.3715  0.1382
  238MOL0     H32779   3.584   1.700   4.296 -1.1498 -1.0617 -3.8200
  238MOL0     H32780   3.454   1.583   4.312  0.6425  1.0076 -1.2467
  238MOL0     H32781   3.484   1.564   4.528 -0.8806  0.5512  0.2361
  238MOL0     H32782   3.659   1.598   4.540 -0.1270 -2.2358 -0.8133
  238MOL0     H32783   3.542   1.842   4.455  1.4865 -0.5730 -0.0954
  238MOL0     H32784   3.408   1.783   4.540 -0.5948 -1.6098 -5.4157
  238MOL0     H32785   3.694   1.804   4.650  0.1726 -0.1877 -5.3947
  238MOL0     H32786   3.544   1.774   4.748  1.8260 -2.1031  0.3195
  238MOL0     H32787   3.613   2.014   4.769 -0.2570 -2.8351  0.8412
  238MOL0     H32788   3.585   2.048   4.603  1.3068 -0.0923  0.6465
  238MOL0     H32789   3.334   1.933   4.717 -3.1598  1.6954  0.8901
  238MOL0     H32790   3.377   2.074   4.630 -1.3244 -2.6466 -2.3827
  238MOL0     H32791   3.498   2.165   4.858  0.2252  0.6726  2.2785
  238MOL0     H32792   3.318   2.162   4.850  0.4797 -0.0501 -1.4463
  238MOL0     H32793   3.589   1.893   4.940  0.1295  0.9934 -1.2746
  238MOL0     H32794   3.637   1.802   5.226 -0.1241 -2.4427  4.2795
  238MOL0     H32795   3.586   1.690   5.100 -0.0997  0.1955  0.1703
  238MOL0     H32796   3.393   1.745   5.341  0.1576 -3.2169  2.0587
  238MOL0     H32797   3.385   1.621   5.213 -0.4448 -0.6612  0.6090
  238MOL0     H32798   3.609   1.545   5.317  0.8938  1.5158  0.4252
  238MOL0     H32799   3.561   1.641   5.457 -0.1886  2.1612 -1.0044
  238MOL0     H32800   3.375   1.524   5.517  1.1696 -1.0105  1.8033
  238MOL0     H32801   3.383   1.422   5.366  1.4053  1.2808 -1.1670
  238MOL0     H32802   3.682   1.210   5.584  0.3691  0.5072  1.1946
  238MOL0     H32803   3.745   1.007   5.685 -0.2656  0.7117 -0.6600
  238MOL0     H32804   3.626   0.879   5.684  4.8628 -1.2701  1.1565
  238MOL0     H32805   3.641   0.988   5.829 -2.1688  0.4205  0.7942
  238MOL0     H32806   3.068   0.907   5.997  0.6672 -0.0545 -0.4821
  238MOL0     H32807   2.972   0.703   6.112  0.4593 -0.4046 -0.3016
  238MOL0     H32808   2.859   0.538   6.135 -0.1903 -0.1356  0.2892
  238MOL0     H32809   2.834   0.475   5.974 -1.3095  1.9447  1.3756
  238MOL0     H32810   2.854   0.238   6.063  0.4784 -0.8215  0.7202
  238MOL0     H32811   2.883   0.299   6.222  0.3098 -1.8414 -1.2435
  238MOL0     H32812   2.676   0.440   6.197  2.0500 -0.1354  2.0551
  238MOL0     H32813   2.649   0.265   6.220  3.3112 -0.3899  1.2191
  238MOL0     H32814   2.629   0.434   5.955  0.8261 -0.2462  0.6812
  238MOL0     H32815   2.498   0.356   6.048 -0.5251  0.4945  0.0905
  238MOL0     H32816   2.719   0.216   5.896 -0.1697  2.1842  0.2130
  238MOL0     H32817   2.588   0.129   5.986 -0.1039  1.9035  2.1022
  238MOL0     H32818   2.532   0.332   5.748 -3.0362 -0.1873 -0.6788
  238MOL0     H32819   2.412   0.242   5.840 -1.5699  3.3781 -2.9022
  238MOL0     H32820   2.546   0.036   5.767  2.7267  0.1059 -0.0168
  238MOL0     H32821   2.613   0.138   5.641  0.5263  4.0112  0.6323
  238MOL0     H32822   2.312   0.115   5.684  0.0174 -0.8205  0.4084
  238MOL0     H32823   2.401   0.007   5.583 -1.1852  0.3076  0.1809
  238MOL0     H32824   3.235   0.456   5.877 -0.7299 -0.8230  1.2007
  238MOL0     H32825   3.338   0.647   5.785  0.7131 -1.2301  0.4689
  238MOL0     H32826   3.200   1.107   5.626 -0.3820 -1.2071  2.5584
  238MOL0     H32827   3.269   1.317   5.510  3.9663  3.2151 -1.2746
  238MOL0     H32828   3.620   1.163   4.525 -1.6633 -2.2303  0.0035
  238MOL0     H32829   3.711   0.952   4.459  1.5210  2.1782  1.4912
  238MOL0     H32830   3.799   0.676   3.866  0.5093 -0.5788 -0.7223
  238MOL0     H32831   3.863   0.461   3.832 -3.3133  1.2055 -0.8207
  238MOL0     H32832   4.108   0.328   3.937 -0.9478  0.6851  0.9863
  238MOL0     H32833   4.125   0.233   4.090  2.0439  3.4720 -0.1823
  238MOL0     H32834   4.185   0.090   3.885  0.3904  0.1425  0.5966
  238MOL0     H32835   4.041   0.127   3.799 -0.7403 -2.8954  0.2452
  238MOL0     H32836   3.901   0.030   3.998  0.5056  0.4908  1.5972
  238MOL0     H32837   3.985  -0.074   3.881 -1.8675  2.8396 -2.4949
  238MOL0     H32838   4.099   0.011   4.158 -1.0741  2.5073 -1.4040
  238MOL0     H32839   4.157  -0.117   4.047  0.1304  2.4038 -2.1008
  238MOL0     H32840   3.819  -0.288   4.259  1.8360 -0.5960  2.3753
  238MOL0     H32841   3.925   0.384   4.245  3.6410  2.1384  1.0245
  238MOL0     H32842   3.920   0.683   4.377  0.9574 -0.4913 -0.2655
  238MOL0     H32843   3.742   0.702   4.369 -0.8021 -1.9367  2.3146
  238MOL0     H32844   3.818   0.547   4.401  0.1649 -0.7285  0.1909
  239MOL0     O32845   5.410   7.356   2.760 -0.1645  0.0489  0.2036
  239MOL0     C32846   5.464   7.277   2.682  0.8606 -0.0590  0.2506
  239MOL0     O32847   5.409   7.151   2.649  0.4552 -0.7131 -0.0535
  239MOL0     C32848   5.277   7.133   2.682 -1.2367  0.8347  0.7197
  239MOL0     C32849   5.198   7.125   2.570 -0.2268  0.3113 -1.1215
  239MOL0     C32850   5.060   7.101   2.586  0.4926 -0.6044 -0.6800
  239MOL0     C32851   5.027   7.051   2.712  0.1939  0.2151  0.1255
  239MOL0     O32852   4.888   7.028   2.719 -0.4848 -0.2162  1.3124
  239MOL0     C32853   4.842   6.903   2.757  0.3243  0.5163  0.3339
  239MOL0     C32854   4.703   6.884   2.689 -1.1118  0.1562 -0.7300
  239MOL0     C32855   4.631   6.772   2.749  0.0466 -0.1155  0.1912
  239MOL0     C32856   4.495   6.746   2.683 -0.2254 -0.4031  0.5358
  239MOL0     C32857   4.456   6.602   2.737  0.1248 -0.7572 -0.4816
  239MOL0     C32858   4.510   6.492   2.654  0.6820 -0.0658  0.3192
  239MOL0     C32859   4.448   6.470   2.522 -0.4260  0.2385  0.1583
  239MOL0     C32860   4.295   6.422   2.537  0.2026  0.4201 -0.1699
  239MOL0     N32861   4.282   6.273   2.549 -0.2574  0.1035 -0.1407
  239MOL0     C32862   4.276   6.180   2.454  0.0489  1.4720 -0.4690
  239MOL0     C32863   4.261   6.059   2.513  0.0465 -0.6286 -1.1587
  239MOL0     C32864   4.260   5.929   2.442 -0.1460  0.2782 -0.0231
  239MOL0     C32865   4.409   5.865   2.440 -0.2783 -0.8249  0.0985
  239MOL0     C32866   4.395   5.722   2.389  0.7537  0.5876 -0.5390
  239MOL0     C32867   4.532   5.671   2.355 -0.7709  0.6119 -0.1489
  239MOL0     O32868   4.616   5.671   2.470  0.7641  0.6289  0.5082
  239MOL0     C32869   4.699   5.564   2.487  0.8085  0.3840  0.0696
  239MOL0     C32870   4.657   5.456   2.574 -0.9387  0.3300 -0.5944
  239MOL0     C32871   4.727   5.332   2.574  0.3040  1.1889  0.2849
  239MOL0     C32872   4.648   5.212   2.630 -0.6259 -0.2522 -0.2101
  239MOL0     C32873   4.857   5.321   2.502  0.3796 -0.2126  0.1745
  239MOL0     C32874   4.951   5.209   2.508  0.4112  0.1733 -0.4161
  239MOL0     O32875   5.068   5.218   2.433 -0.5051  0.7233 -0.1632
  239MOL0     C32876   5.158   5.112   2.439  0.8761  0.5145  0.3547
  239MOL0     C32877   5.127   4.971   2.435  0.5766 -0.1986  0.0009
  239MOL0     C32878   5.243   4.885   2.436 -0.0714 -0.7561 -0.2849
  239MOL0     C32879   5.377   4.926   2.437  0.2498 -0.8474  0.0346
  239MOL0     O32880   5.479   4.831   2.448 -0.1081 -0.3560 -0.5667
  239MOL0     C32881   5.484   4.721   2.368 -0.6479 -0.0882  0.5720
  239MOL0     C32882   5.584   4.765   2.256 -0.3325  0.7068 -0.2779
  239MOL0     C32883   5.538   4.864   2.154  0.0653 -0.5540  0.7375
  239MOL0     C32884   5.648   4.892   2.050  0.2888 -0.1849 -0.1861
  239MOL0     C32885   5.738   5.014   2.072  0.2192 -0.6416  0.3151
  239MOL0     C32886   5.673   5.147   2.044 -0.2419 -0.4081 -0.5661
  239MOL0     C32887   5.756   5.269   2.070 -0.3802 -0.2113  0.2122
  239MOL0     C32888   5.689   5.401   2.014  0.6720  0.9093  0.8115
  239MOL0    Cl32889   5.644   5.389   1.842 -0.0720 -0.2398 -0.0828
  239MOL0     C32890   5.400   5.067   2.435  0.9654  0.3124  0.0853
  239MOL0     C32891   5.293   5.151   2.433 -0.7625 -0.0405  0.4108
  239MOL0     O32892   4.917   5.115   2.579 -0.3387  0.0844  0.4478
  239MOL0     C32893   4.897   5.436   2.424 -0.9396  0.2814 -0.3133
  239MOL0     C32894   4.814   5.547   2.409 -0.0488 -0.3313  0.1208
  239MOL0     N32895   4.285   6.085   2.644 -0.2008 -0.0280  0.3836
  239MOL0     N32896   4.287   6.212   2.673 -0.2309  0.2475 -0.0911
  239MOL0     C32897   5.106   7.057   2.822  0.3204 -0.7172 -0.5748
  239MOL0     C32898   5.241   7.101   2.808  0.0452 -0.1039  0.8717
  239MOL0     C32899   5.591   7.300   2.606 -1.1327  0.6362  0.3402
  239MOL0     C32900   5.621   7.209   2.505  0.9681 -0.3825 -0.7287
  239MOL0     C32901   5.746   7.197   2.442 -0.7933  0.4670  0.5386
  239MOL0     C32902   5.844   7.283   2.480  0.1325 -0.8419 -0.0186
  239MOL0     O32903   5.957   7.259   2.410  0.2382  0.4720 -0.4152
  239MOL0     C32904   6.057   7.351   2.438 -0.8459 -0.4463  0.6192
  239MOL0     C32905   6.163   7.330   2.331  0.4513 -0.2012 -0.2014
  239MOL0     C32906   6.297   7.393   2.361  0.2284  0.8167  0.0310
  239MOL0     C32907   6.303   7.544   2.340  0.2463  0.2900  1.0462
  239MOL0     C32908   6.299   7.594   2.201  0.3692  1.1120 -0.1208
  239MOL0     C32909   6.293   7.615   2.083 -0.4631 -0.3964 -0.2934
  239MOL0     C32910   5.823   7.375   2.586  0.0580 -0.1071  0.2536
  239MOL0     C32911   5.698   7.383   2.654  0.4498 -0.7140 -0.2138
  239MOL0     C32912   5.684   7.488   2.757  0.1542 -0.1712 -0.8758
  239MOL0     H32913   5.251   7.138   2.476  1.7346 -1.9545 -0.4164
  239MOL0     H32914   4.992   7.115   2.503 -1.0462  0.3906  0.6906
  239MOL0     H32915   4.841   6.886   2.865  0.2544 -0.7342  0.1447
  239MOL0     H32916   4.902   6.815   2.732 -1.4918 -0.7070  0.0534
  239MOL0     H32917   4.650   6.979   2.701 -1.2876  1.3325 -7.2091
  239MOL0     H32918   4.714   6.868   2.582 -2.9114  0.3706 -0.9760
  239MOL0     H32919   4.685   6.676   2.752 -1.5271 -1.0772 -0.5491
  239MOL0     H32920   4.603   6.794   2.852 -2.2783  4.0086 -1.1158
  239MOL0     H32921   4.416   6.819   2.706 -2.4122 -1.9595 -1.6375
  239MOL0     H32922   4.512   6.728   2.577  4.1073 -1.7167  1.2318
  239MOL0     H32923   4.347   6.598   2.751  0.0745  2.6793  0.9061
  239MOL0     H32924   4.502   6.584   2.835 -1.6699 -5.7395 -0.2386
  239MOL0     H32925   4.618   6.504   2.637  1.0309  0.9531  2.8405
  239MOL0     H32926   4.514   6.399   2.711 -3.2563 -0.9513 -0.5518
  239MOL0     H32927   4.509   6.387   2.485 -0.1894 -0.6482  2.4396
  239MOL0     H32928   4.457   6.557   2.455  1.5079  0.0351  0.1107
  239MOL0     H32929   4.249   6.481   2.617  4.4020  0.2266  2.7363
  239MOL0     H32930   4.251   6.453   2.442  3.7502  1.5651 -1.5922
  239MOL0     H32931   4.282   6.197   2.347 -5.1311 -1.1847 -1.4813
  239MOL0     H32932   4.227   5.933   2.338 -0.0293 -0.3370 -0.0888
  239MOL0     H32933   4.190   5.858   2.488 -2.5614  0.7918 -2.6562
  239MOL0     H32934   4.474   5.929   2.379 -4.4709  2.3001 -1.5883
  239MOL0     H32935   4.455   5.860   2.539  2.0345 -0.9772 -0.9351
  239MOL0     H32936   4.356   5.652   2.464  2.5973 -0.4289 -0.4855
  239MOL0     H32937   4.336   5.714   2.297  1.3510  1.7995 -1.0474
  239MOL0     H32938   4.509   5.568   2.325  0.4247  0.5350 -0.8402
  239MOL0     H32939   4.570   5.735   2.276 -0.2156  0.9241  0.3600
  239MOL0     H32940   4.558   5.458   2.617 -1.9153 -2.0392 -2.5001
  239MOL0     H32941   4.672   5.205   2.736  2.0303 -0.7867 -0.7689
  239MOL0     H32942   4.681   5.117   2.588 -1.6774 -0.4928 -0.5191
  239MOL0     H32943   4.543   5.236   2.615  0.1692  2.5679 -2.2436
  239MOL0     H32944   5.024   4.938   2.443  1.3013 -3.0241 -1.2652
  239MOL0     H32945   5.214   4.780   2.439  3.0657 -1.7191 -0.5569
  239MOL0     H32946   5.521   4.637   2.427  0.5640 -1.5768 -2.1628
  239MOL0     H32947   5.386   4.698   2.325 -1.0026  2.1178  0.0677
  239MOL0     H32948   5.677   4.794   2.305 -0.5925 -0.1645  0.7810
  239MOL0     H32949   5.602   4.670   2.203 -2.2727  0.9271 -1.4316
  239MOL0     H32950   5.493   4.951   2.202 -0.4414 -0.1535 -0.4433
  239MOL0     H32951   5.454   4.815   2.104  1.2963 -1.0274 -0.9570
  239MOL0     H32952   5.595   4.896   1.954  2.7802 -0.6764 -1.6666
  239MOL0     H32953   5.724   4.815   2.041 -0.0606 -0.7104  1.1080
  239MOL0     H32954   5.779   5.006   2.173 -0.3557  0.2525  0.6237
  239MOL0     H32955   5.813   5.006   1.992  1.5051  1.0542  1.3006
  239MOL0     H32956   5.577   5.147   2.097 -0.2278 -2.6813 -0.4565
  239MOL0     H32957   5.644   5.146   1.939 -0.2639  0.6815 -0.5835
  239MOL0     H32958   5.849   5.263   2.012 -1.3442  1.9599 -1.7129
  239MOL0     H32959   5.783   5.277   2.176 -0.9513 -1.6077  0.4909
  239MOL0     H32960   5.765   5.479   2.026  2.0242 -0.3445  0.8067
  239MOL0     H32961   5.602   5.419   2.077  0.2677 -1.5470  1.0607
  239MOL0     H32962   5.502   5.097   2.412  3.4655 -3.5017  4.6070
  239MOL0     H32963   5.326   5.254   2.432 -1.7811  0.3014  0.5047
  239MOL0     H32964   4.996   5.428   2.378 -1.1575 -3.2355 -0.4835
  239MOL0     H32965   4.859   5.617   2.340  0.8535 -0.9375  0.0775
  239MOL0     H32966   5.062   7.027   2.917  0.5537 -0.1593 -0.2831
  239MOL0     H32967   5.315   7.094   2.887  0.8269  0.0314  0.1645
  239MOL0     H32968   5.546   7.141   2.464 -2.0375  1.2561  1.6025
  239MOL0     H32969   5.763   7.129   2.359  0.5934 -2.0010  2.6836
  239MOL0     H32970   6.014   7.451   2.429 -0.7938 -0.4861 -0.1139
  239MOL0     H32971   6.107   7.322   2.531 -0.1394  1.2492  0.8149
  239MOL0     H32972   6.122   7.370   2.238 -1.6491 -1.8724 -0.0622
  239MOL0     H32973   6.194   7.227   2.313  1.6720 -0.0337  0.7817
  239MOL0     H32974   6.320   7.371   2.466  0.2111 -2.6746 -0.5743
  239MOL0     H32975   6.379   7.337   2.315 -0.5872  0.6907 -1.3300
  239MOL0     H32976   6.398   7.579   2.381  1.4482 -1.5821  0.0356
  239MOL0     H32977   6.221   7.586   2.399 -1.2440 -0.0624 -0.6570
  239MOL0     H32978   6.275   7.650   1.983 -1.7336  4.2488  1.3152
  239MOL0     H32979   5.900   7.445   2.618 -1.8377  2.4159 -0.4022
  239MOL0     H32980   5.607   7.556   2.718  0.3854  0.6147  0.0156
  239MOL0     H32981   5.643   7.444   2.849 -0.0962  2.0745  0.1481
  239MOL0     H32982   5.774   7.545   2.780 -0.6138  1.1569 -1.0306
  240MOL0     O32983   0.840   9.851  10.668  0.2610 -0.0715 -1.2752
  240MOL0     C32984   0.856   9.862  10.791 -1.5884  0.5912 -0.9386
  240MOL0     O32985   0.986   9.862  10.855 -0.2143 -0.0147 -0.1759
  240MOL0     C32986   1.096   9.846  10.772 -0.0647  0.8379  0.0628
  240MOL0     C32987   1.164   9.724  10.781 -0.3106  0.4039 -0.0775
  240MOL0     C32988   1.277   9.701  10.687  0.1714  0.1263 -0.3589
  240MOL0     C32989   1.307   9.795  10.582 -0.1844  0.9790  0.1366
  240MOL0     O32990   1.423   9.757  10.511  0.2478  0.7500 -0.1246
  240MOL0     C32991   1.455   9.815  10.387 -0.7252 -0.3393  0.2068
  240MOL0     C32992   1.353   9.781  10.268  0.1062 -0.3859 -1.1975
  240MOL0     C32993   1.345   9.628  10.237 -0.0637  0.0144 -0.1960
  240MOL0     C32994   1.237   9.601  10.136  0.1989  0.6523 -0.1673
  240MOL0     C32995   1.091   9.610  10.183  0.1473  0.3975  0.0848
  240MOL0     C32996   0.999   9.577  10.069  0.2645 -0.1653 -0.4721
  240MOL0     C32997   0.858   9.537  10.116 -0.4890 -0.0223  0.5394
  240MOL0     C32998   0.796   9.637  10.214  0.1344 -1.1023  0.5288
  240MOL0     N32999   0.663   9.587  10.230 -0.4373  0.1380  0.3521
  240MOL0     C33000   0.626   9.486  10.320  0.6000 -0.6613  0.6006
  240MOL0     C33001   0.503   9.453  10.282 -0.6557 -0.7491  1.0316
  240MOL0     C33002   0.429   9.361  10.361 -0.6305  0.1949 -0.7152
  240MOL0     C33003   0.287   9.341  10.303 -0.5557 -0.3991  0.0383
  240MOL0     C33004   0.285   9.226  10.202 -0.6147  0.3274 -0.5177
  240MOL0     C33005   0.156   9.232  10.116  0.6824 -0.1168 -0.2786
  240MOL0     O33006   0.048   9.176  10.186 -0.4055  0.3275  0.0412
  240MOL0     C33007  -0.075   9.191  10.129 -1.1218  0.0290 -0.9415
  240MOL0     C33008  -0.174   9.220  10.222 -0.2439  0.2510  0.2622
  240MOL0     C33009  -0.315   9.213  10.190 -0.1403  0.2209  0.4446
  240MOL0     C33010  -0.405   9.242  10.311  0.1721 -0.1736 -0.1181
  240MOL0     C33011  -0.350   9.170  10.052 -0.8732 -0.6029 -1.0452
  240MOL0     C33012  -0.485   9.158  10.011  0.2898  0.1671  0.0466
  240MOL0     O33013  -0.518   9.161   9.884  0.2487 -0.5249  0.4842
  240MOL0     C33014  -0.644   9.147   9.836  0.1905  0.6850 -0.4820
  240MOL0     C33015  -0.732   9.044   9.874  0.9819  0.4949 -0.1805
  240MOL0     C33016  -0.861   9.032   9.827  0.2482 -1.8092  0.3535
  240MOL0     C33017  -0.901   9.105   9.713 -0.1339  0.1878  0.2594
  240MOL0     O33018  -1.024   9.083   9.657  0.5092  0.7156  0.2144
  240MOL0     C33019  -1.021   9.013   9.529  0.1430  0.5732 -0.1636
  240MOL0     C33020  -1.156   9.006   9.457 -0.9320  0.3556  0.4777
  240MOL0     C33021  -1.248   8.903   9.511  0.7567  0.2134 -0.0929
  240MOL0     C33022  -1.209   8.760   9.496  0.5555  0.6586  0.9037
  240MOL0     C33023  -1.337   8.673   9.498 -0.3605  0.0682  0.0003
  240MOL0     C33024  -1.293   8.523   9.506  0.0200  0.3254 -0.3687
  240MOL0     C33025  -1.243   8.464   9.643 -0.1330 -0.0522 -0.2384
  240MOL0     C33026  -1.338   8.460   9.761 -0.1330 -1.8159 -0.6876
  240MOL0    Cl33027  -1.353   8.622   9.824 -0.0289  0.1077 -0.2274
  240MOL0     C33028  -0.809   9.200   9.660 -0.3122 -0.2563  0.5464
  240MOL0     C33029  -0.685   9.223   9.723 -0.8941  0.1332  0.8163
  240MOL0     O33030  -0.565   9.141  10.101 -0.2131  0.4068  0.7082
  240MOL0     C33031  -0.245   9.155   9.955 -0.4061  0.5715  0.6574
  240MOL0     C33032  -0.110   9.161  10.000  0.0496 -0.5688  0.3566
  240MOL0     N33033   0.465   9.525  10.170 -0.0513 -0.3939  0.2780
  240MOL0     N33034   0.562   9.611  10.148 -1.3972 -0.8267 -0.1295
  240MOL0     C33035   1.227   9.900  10.569  0.2712 -0.4098 -0.1106
  240MOL0     C33036   1.126   9.928  10.667 -0.3132 -0.5017 -0.3112
  240MOL0     C33037   0.735   9.863  10.863  0.7905 -0.2210  0.9444
  240MOL0     C33038   0.625   9.947  10.817 -0.4478 -0.1722  1.1604
  240MOL0     C33039   0.499   9.946  10.868  0.3399  0.5258  0.9036
  240MOL0     C33040   0.472   9.873  10.990  1.0231 -0.4341 -1.0098
  240MOL0     O33041   0.344   9.886  11.045  0.1452  0.7782  0.4524
  240MOL0     C33042   0.329   9.828  11.177  0.5873 -0.4342  0.4410
  240MOL0     C33043   0.195   9.872  11.242 -0.6686  0.5478 -1.3278
  240MOL0     C33044   0.064   9.810  11.188  0.7480 -0.8028  0.3651
  240MOL0     C33045   0.040   9.682  11.256  0.9217  0.4167  0.4707
  240MOL0     C33046   0.000   9.690  11.396  0.5884 -0.2792 -0.1055
  240MOL0     C33047  -0.034   9.716  11.508  0.8763  0.0091  0.1573
  240MOL0     C33048   0.585   9.800  11.046  1.4771 -0.4012  0.2659
  240MOL0     C33049   0.710   9.797  10.985 -0.6271  0.9282  0.0898
  240MOL0     C33050   0.797   9.692  11.044  0.0828  0.1611 -0.8902
  240MOL0     H33051   1.134   9.661  10.865 -0.3436  3.4757  2.3646
  240MOL0     H33052   1.346   9.617  10.690 -0.2887 -0.3948 -2.5630
  240MOL0     H33053   1.559   9.789  10.364 -0.7160 -0.3023  0.2043
  240MOL0     H33054   1.458   9.924  10.398 -1.8367 -0.1338 -1.2213
  240MOL0     H33055   1.252   9.816  10.295  0.7500  0.4632  0.2164
  240MOL0     H33056   1.393   9.842  10.187 -1.1003  1.8510 -0.2046
  240MOL0     H33057   1.440   9.603  10.190  0.1824  0.3740  0.1101
  240MOL0     H33058   1.340   9.573  10.331  0.0040 -1.2296 -0.9066
  240MOL0     H33059   1.236   9.664  10.047  2.7298  1.1465  0.0650
  240MOL0     H33060   1.262   9.500  10.103 -0.6080 -0.5037  2.5285
  240MOL0     H33061   1.073   9.706  10.232  4.0303  0.6561  1.3453
  240MOL0     H33062   1.062   9.544  10.265 -2.0295 -0.0640 -0.9741
  240MOL0     H33063   0.994   9.669  10.010  3.3785  1.5435  1.6579
  240MOL0     H33064   1.047   9.493  10.017  1.3435  0.2059 -0.0991
  240MOL0     H33065   0.874   9.437  10.159  0.3274 -0.8048 -1.4439
  240MOL0     H33066   0.794   9.520  10.029  0.1335  2.2628 -0.4367
  240MOL0     H33067   0.855   9.644  10.306  1.5282 -0.4526 -0.3702
  240MOL0     H33068   0.788   9.733  10.162 -3.6860 -2.0153 -0.8658
  240MOL0     H33069   0.671   9.439  10.407  0.2171 -2.9476 -0.3540
  240MOL0     H33070   0.429   9.393  10.465 -2.1804 -2.1580  0.0857
  240MOL0     H33071   0.492   9.272  10.372 -2.3710 -0.8049  2.4741
  240MOL0     H33072   0.217   9.315  10.382 -2.2438  0.1263 -1.2140
  240MOL0     H33073   0.256   9.436  10.257  2.1554  1.1533  1.1414
  240MOL0     H33074   0.367   9.246  10.133 -0.3580 -0.9973 -0.6139
  240MOL0     H33075   0.295   9.126  10.244 -2.9140  0.1022 -0.3774
  240MOL0     H33076   0.131   9.337  10.096  3.9089  1.0832  1.2259
  240MOL0     H33077   0.171   9.184  10.019 -0.7222  2.0989 -1.6909
  240MOL0     H33078  -0.146   9.252  10.322 -1.5445 -1.7730  1.3365
  240MOL0     H33079  -0.468   9.330  10.294  1.1980  1.2799  2.9874
  240MOL0     H33080  -0.346   9.272  10.398  1.6320  1.5101 -1.5861
  240MOL0     H33081  -0.469   9.155  10.328 -0.9613  0.6899  0.1498
  240MOL0     H33082  -0.706   8.966   9.945 -1.0675  0.1411  0.2526
  240MOL0     H33083  -0.926   8.956   9.869  1.7906 -2.9938  0.6879
  240MOL0     H33084  -0.958   9.072   9.461  1.5542  1.2348  1.6274
  240MOL0     H33085  -0.977   8.913   9.524 -1.2308  0.0018 -3.9178
  240MOL0     H33086  -1.200   9.106   9.451 -1.0237  0.2442 -1.2981
  240MOL0     H33087  -1.128   8.984   9.354 -1.4847 -1.5633  0.6917
  240MOL0     H33088  -1.343   8.922   9.462  1.4453  0.0299 -1.5647
  240MOL0     H33089  -1.262   8.925   9.617  0.2685 -1.6539  0.2707
  240MOL0     H33090  -1.146   8.739   9.583 -0.7282  3.4362  2.6395
  240MOL0     H33091  -1.151   8.737   9.406  0.6870  0.0637  1.1359
  240MOL0     H33092  -1.393   8.693   9.590 -1.4500 -0.2146 -0.5908
  240MOL0     H33093  -1.403   8.681   9.411 -2.4418 -3.8017  0.9999
  240MOL0     H33094  -1.223   8.496   9.426 -0.1812  0.3409 -0.5502
  240MOL0     H33095  -1.384   8.468   9.477 -1.2687  2.7705 -1.2260
  240MOL0     H33096  -1.161   8.531   9.671 -1.4349  1.6036 -0.2265
  240MOL0     H33097  -1.213   8.362   9.619 -1.6623 -0.4223 -0.7184
  240MOL0     H33098  -1.302   8.408   9.850  0.7363  1.6211  1.1402
  240MOL0     H33099  -1.435   8.428   9.721 -1.0663  0.8463 -0.7585
  240MOL0     H33100  -0.811   9.235   9.557  1.8732  0.2927  0.6415
  240MOL0     H33101  -0.615   9.287   9.671 -1.6397  0.2463 -0.0585
  240MOL0     H33102  -0.263   9.134   9.850  2.7877 -0.2189  0.1512
  240MOL0     H33103  -0.024   9.140   9.937  0.9264  0.3894  1.2032
  240MOL0     H33104   1.228   9.965  10.481 -2.2915 -1.3375 -0.9336
  240MOL0     H33105   1.068  10.018  10.648  1.2544  0.1836 -2.1298
  240MOL0     H33106   0.635  10.010  10.729 -1.2676 -0.4015  0.8966
  240MOL0     H33107   0.417  10.001  10.824  0.3119  0.3189  0.6909
  240MOL0     H33108   0.336   9.723  11.148 -1.7153 -0.1843 -1.3968
  240MOL0     H33109   0.407   9.857  11.247 -0.0520  3.4875 -0.2035
  240MOL0     H33110   0.187   9.981  11.231  3.0855  0.7990 -2.8669
  240MOL0     H33111   0.196   9.856  11.351 -0.1958  1.3090 -1.2131
  240MOL0     H33112  -0.021   9.872  11.219 -0.3126 -1.0568 -1.8207
  240MOL0     H33113   0.071   9.790  11.081  3.0464 -1.7369  0.6389
  240MOL0     H33114   0.125   9.614  11.250  0.0287 -0.8014  1.0596
  240MOL0     H33115  -0.048   9.638  11.208  2.1542 -1.3606 -0.2700
  240MOL0     H33116  -0.069   9.745  11.605  0.5137 -0.3238  0.1289
  240MOL0     H33117   0.566   9.729  11.126 -0.9467  0.3231  0.4055
  240MOL0     H33118   0.834   9.717  11.144 -2.1866 -2.7103  0.8278
  240MOL0     H33119   0.740   9.600  11.054  4.1891 -2.5046  0.4582
  240MOL0     H33120   0.885   9.673  10.982  0.7005  1.8403 -0.5896
  241MOL0     O33121   3.598   5.916   0.296 -0.7591  0.3996  0.0152
  241MOL0     C33122   3.493   5.864   0.274  0.6287  0.9071 -0.7979
  241MOL0     O33123   3.382   5.913   0.218 -0.6692  0.6424 -0.2265
  241MOL0     C33124   3.388   6.041   0.165 -0.3280  0.0088  0.5460
  241MOL0     C33125   3.388   6.157   0.242 -0.3158  0.0240 -0.7846
  241MOL0     C33126   3.407   6.284   0.184  0.3079 -1.0846  1.0910
  241MOL0     C33127   3.403   6.303   0.041 -0.4171 -0.1383  0.4037
  241MOL0     O33128   3.394   6.429  -0.017  0.0800  0.4589 -0.4051
  241MOL0     C33129   3.463   6.473  -0.137 -0.5325  0.6741  0.1332
  241MOL0     C33130   3.373   6.456  -0.264  0.5689 -0.1616  0.6126
  241MOL0     C33131   3.409   6.558  -0.359  0.3830 -0.2980 -0.4090
  241MOL0     C33132   3.305   6.575  -0.473 -0.3734 -0.0220  0.6639
  241MOL0     C33133   3.376   6.624  -0.604 -0.1951 -0.0346  0.3917
  241MOL0     C33134   3.287   6.637  -0.732 -0.2093  0.8209 -0.5469
  241MOL0     C33135   3.239   6.504  -0.784 -0.1839  0.0248 -0.3813
  241MOL0     C33136   3.333   6.405  -0.851 -0.8514 -0.1396 -0.3840
  241MOL0     N33137   3.264   6.277  -0.881  0.0209 -0.7611 -0.1814
  241MOL0     C33138   3.187   6.256  -0.996  0.0296 -0.2625 -0.1241
  241MOL0     C33139   3.152   6.128  -0.985  0.3680  0.3714  0.5286
  241MOL0     C33140   3.057   6.058  -1.089  1.6353 -0.1081  0.2826
  241MOL0     C33141   3.109   6.037  -1.225 -0.4946  0.0152  0.5054
  241MOL0     C33142   3.001   6.031  -1.334  0.9993 -1.1095 -0.4198
  241MOL0     C33143   3.062   6.009  -1.476  0.2117  0.5893  0.5756
  241MOL0     O33144   3.113   5.879  -1.474  0.1029  0.6556 -0.3762
  241MOL0     C33145   3.211   5.849  -1.565  0.2405 -0.0588 -0.7077
  241MOL0     C33146   3.208   5.896  -1.695  0.0248  0.5966 -0.4842
  241MOL0     C33147   3.300   5.850  -1.787  0.2735 -0.2312  0.0818
  241MOL0     C33148   3.306   5.904  -1.930 -0.7940  0.5324  0.1655
  241MOL0     C33149   3.397   5.755  -1.744 -0.1813  0.0749  0.2726
  241MOL0     C33150   3.487   5.682  -1.845  0.9735  0.4763 -0.1856
  241MOL0     O33151   3.567   5.761  -1.920  0.3484 -0.3680  0.6462
  241MOL0     C33152   3.684   5.707  -1.963  0.1404  0.4047 -0.1964
  241MOL0     C33153   3.793   5.672  -1.880  0.5711 -0.2186  0.0275
  241MOL0     C33154   3.913   5.626  -1.933 -0.2671 -0.3830 -0.1893
  241MOL0     C33155   3.937   5.621  -2.068 -0.3063  0.5497 -0.3361
  241MOL0     O33156   4.057   5.575  -2.119 -0.6139  0.1653 -0.2742
  241MOL0     C33157   4.070   5.449  -2.193  0.3491  0.7130  0.2657
  241MOL0     C33158   4.053   5.448  -2.341 -0.6721  0.1076  0.9671
  241MOL0     C33159   4.132   5.574  -2.406 -0.5344 -0.5726  0.1348
  241MOL0     C33160   4.217   5.517  -2.515 -1.0817 -0.2133 -0.0607
  241MOL0     C33161   4.259   5.606  -2.624  0.5093  0.1414 -0.1165
  241MOL0     C33162   4.137   5.642  -2.722  0.1657 -0.4597  0.0077
  241MOL0     C33163   4.179   5.755  -2.818 -0.3262 -0.2632  0.7919
  241MOL0     C33164   4.067   5.782  -2.930 -1.1549 -0.3380  0.3938
  241MOL0    Cl33165   4.023   5.636  -3.026  0.2625  0.1807 -0.1446
  241MOL0     C33166   3.826   5.661  -2.154 -0.5770  0.0853 -0.6387
  241MOL0     C33167   3.700   5.688  -2.102  0.1824 -0.6854 -0.7072
  241MOL0     O33168   3.501   5.561  -1.840  0.8066 -0.2514  0.4314
  241MOL0     C33169   3.405   5.714  -1.612 -0.4528  0.1815 -0.5782
  241MOL0     C33170   3.309   5.755  -1.529  0.7235 -0.1502  0.4240
  241MOL0     N33171   3.197   6.077  -0.868  0.2848  0.1101 -0.2813
  241MOL0     N33172   3.279   6.158  -0.806  0.3425  0.1184 -0.2107
  241MOL0     C33173   3.405   6.186  -0.037  0.8142 -0.1900  0.8776
  241MOL0     C33174   3.393   6.059   0.017 -0.4319  0.2483 -0.4436
  241MOL0     C33175   3.501   5.712   0.305 -0.8465 -0.4025 -0.1046
  241MOL0     C33176   3.623   5.670   0.364 -0.4504 -0.5691  0.3734
  241MOL0     C33177   3.644   5.534   0.377  0.6906 -0.4951 -0.7222
  241MOL0     C33178   3.565   5.435   0.326  1.4984  0.7674 -0.7410
  241MOL0     O33179   3.590   5.293   0.337  0.4173  0.2730  0.1422
  241MOL0     C33180   3.726   5.255   0.356 -0.0409  1.4670 -0.7652
  241MOL0     C33181   3.726   5.101   0.362  0.6843 -0.3055 -0.4106
  241MOL0     C33182   3.717   5.035   0.229 -0.3144 -0.3187  0.4519
  241MOL0     C33183   3.720   4.880   0.234  0.2486 -0.0475  0.3994
  241MOL0     C33184   3.635   4.816   0.332 -0.6170 -0.4305  0.0569
  241MOL0     C33185   3.557   4.760   0.412 -0.5793 -0.9267  0.8623
  241MOL0     C33186   3.442   5.478   0.262 -0.1770  0.4936 -0.1270
  241MOL0     C33187   3.411   5.613   0.249 -0.2460 -0.3875 -0.1560
  241MOL0     C33188   3.278   5.651   0.201 -0.1202 -0.9422  1.0631
  241MOL0     H33189   3.395   6.160   0.350  5.0379  0.5209 -0.8902
  241MOL0     H33190   3.430   6.377   0.235 -1.3999  0.2130 -0.3681
  241MOL0     H33191   3.551   6.409  -0.149 -1.0521 -2.0317  6.5951
  241MOL0     H33192   3.491   6.578  -0.129 -0.3773  0.6889 -0.5095
  241MOL0     H33193   3.388   6.362  -0.316  0.4504  0.5675 -0.7853
  241MOL0     H33194   3.269   6.459  -0.229  0.2182  0.7936 -0.4476
  241MOL0     H33195   3.432   6.652  -0.307  1.3770 -1.2809  1.0164
  241MOL0     H33196   3.499   6.524  -0.409  0.8043  3.2067 -2.2890
  241MOL0     H33197   3.251   6.480  -0.485  0.7827 -0.5271 -1.0117
  241MOL0     H33198   3.234   6.653  -0.444  1.1492  1.2238  1.1608
  241MOL0     H33199   3.454   6.549  -0.622 -2.4632 -1.8326 -3.1127
  241MOL0     H33200   3.429   6.717  -0.582 -1.1911  0.7899 -0.5393
  241MOL0     H33201   3.202   6.698  -0.698  0.3068  1.7795 -0.9316
  241MOL0     H33202   3.345   6.699  -0.801 -3.5992  4.2739 -0.6576
  241MOL0     H33203   3.164   6.531  -0.859 -3.9132 -3.2915  1.8171
  241MOL0     H33204   3.176   6.455  -0.710  3.3244  0.6811  3.3840
  241MOL0     H33205   3.377   6.449  -0.941 -1.3635  0.7656 -0.2061
  241MOL0     H33206   3.421   6.390  -0.789 -0.9458 -1.6810 -0.5906
  241MOL0     H33207   3.164   6.321  -1.080 -0.2785 -2.4512 -1.8354
  241MOL0     H33208   2.978   6.133  -1.100 -0.0265 -1.3406  2.8042
  241MOL0     H33209   3.007   5.969  -1.049  0.1267 -0.4188 -2.0734
  241MOL0     H33210   3.173   6.120  -1.255  1.5354 -1.4413  0.5648
  241MOL0     H33211   3.164   5.943  -1.227 -0.2553  0.0347 -3.7199
  241MOL0     H33212   2.925   5.953  -1.335 -1.5868  1.1981  1.4032
  241MOL0     H33213   2.948   6.127  -1.327 -1.5023 -2.4773  0.4207
  241MOL0     H33214   2.993   6.028  -1.559  1.0339 -2.4041 -0.9139
  241MOL0     H33215   3.136   6.088  -1.491  1.5708 -0.7415  0.0204
  241MOL0     H33216   3.135   5.963  -1.739  0.7887  0.3889 -2.1200
  241MOL0     H33217   3.227   5.980  -1.930 -0.5264  0.8160  1.2190
  241MOL0     H33218   3.290   5.828  -2.007 -1.0050  0.5399  0.2020
  241MOL0     H33219   3.403   5.954  -1.931 -1.0103  1.0448  2.0143
  241MOL0     H33220   3.778   5.680  -1.772  1.8578 -0.5282  0.2485
  241MOL0     H33221   3.983   5.600  -1.855  1.5736  2.2726 -0.8215
  241MOL0     H33222   4.173   5.416  -2.182 -0.0675 -0.4809  0.7736
  241MOL0     H33223   4.001   5.374  -2.154 -0.6104 -0.5629 -3.4233
  241MOL0     H33224   4.077   5.349  -2.381 -0.7284  1.1555 -1.8817
  241MOL0     H33225   3.946   5.455  -2.362 -0.3400 -2.9212 -2.9294
  241MOL0     H33226   4.204   5.616  -2.335  0.7780  2.9909 -2.9708
  241MOL0     H33227   4.065   5.652  -2.444  0.4413 -0.7387 -2.1052
  241MOL0     H33228   4.173   5.429  -2.564  1.2254 -1.0888 -0.7205
  241MOL0     H33229   4.310   5.469  -2.483 -0.5265  0.8072 -0.1179
  241MOL0     H33230   4.293   5.703  -2.588 -1.1297  0.5246  0.5073
  241MOL0     H33231   4.334   5.567  -2.693  2.0691 -0.7772  2.0229
  241MOL0     H33232   4.045   5.680  -2.675  1.4289 -0.1461  2.3902
  241MOL0     H33233   4.109   5.552  -2.778  0.4327 -2.6384  3.1281
  241MOL0     H33234   4.280   5.745  -2.859 -0.3518 -0.1828  0.7113
  241MOL0     H33235   4.180   5.846  -2.758  0.3701 -0.1185  0.5690
  241MOL0     H33236   4.111   5.865  -2.986  1.4962 -1.5280  0.5473
  241MOL0     H33237   3.975   5.829  -2.893 -0.4375  0.5199  1.1766
  241MOL0     H33238   3.858   5.646  -2.257  0.0423  1.6281 -0.7003
  241MOL0     H33239   3.618   5.706  -2.170 -1.4072 -1.5395  0.9021
  241MOL0     H33240   3.474   5.632  -1.598  1.5272  1.8989  0.1963
  241MOL0     H33241   3.298   5.723  -1.426 -1.5691  3.5886  1.5306
  241MOL0     H33242   3.407   6.204  -0.144  1.8509  0.0618  0.9295
  241MOL0     H33243   3.400   5.967  -0.041 -1.3706 -1.0591  1.4028
  241MOL0     H33244   3.699   5.739   0.399 -2.4271  3.2535 -2.1928
  241MOL0     H33245   3.729   5.496   0.433  0.3303 -1.5718 -0.8951
  241MOL0     H33246   3.787   5.295   0.275 -1.8406 -1.7612 -4.0363
  241MOL0     H33247   3.754   5.288   0.457 -0.2679 -2.0780  0.5983
  241MOL0     H33248   3.634   5.072   0.412 -0.1741 -2.4542 -3.0029
  241MOL0     H33249   3.809   5.069   0.425 -0.2145  0.9514  1.5205
  241MOL0     H33250   3.642   5.079   0.163  2.8986  0.3255 -3.0795
  241MOL0     H33251   3.816   5.057   0.190 -0.1227  1.4716  1.8125
  241MOL0     H33252   3.823   4.847   0.250  0.6931  1.4035  0.6564
  241MOL0     H33253   3.690   4.831   0.142  1.8214 -2.6790  1.1674
  241MOL0     H33254   3.491   4.690   0.458 -0.0594 -2.5659 -0.7632
  241MOL0     H33255   3.386   5.400   0.211  0.4539  1.8203 -3.0850
  241MOL0     H33256   3.223   5.706   0.278 -3.7597 -1.5279 -0.9293
  241MOL0     H33257   3.284   5.711   0.110 -3.4402  1.0882  2.0293
  241MOL0     H33258   3.217   5.562   0.181 -1.2591  0.1820 -0.6447
  242MOL0     O33259   0.378  10.484   8.490 -0.8395 -0.8531  0.3576
  242MOL0     C33260   0.500  10.500   8.481 -0.6221  0.2475  0.3048
  242MOL0     O33261   0.568  10.564   8.377  0.0448 -0.2954 -1.2048
  242MOL0     C33262   0.499  10.554   8.263  0.7967 -0.5054  0.1192
  242MOL0     C33263   0.421  10.660   8.218  0.1054 -0.2338  0.2352
  242MOL0     C33264   0.344  10.643   8.099  0.4469  1.1009 -0.3382
  242MOL0     C33265   0.342  10.526   8.024 -0.1092 -0.6104  0.8480
  242MOL0     O33266   0.280  10.496   7.906  0.0200  0.2423  0.2498
  242MOL0     C33267   0.232  10.607   7.815 -0.1686 -0.4319 -0.1205
  242MOL0     C33268   0.215  10.555   7.672  0.4333 -0.8490  0.5429
  242MOL0     C33269   0.091  10.470   7.674  0.0447 -0.0799  0.7321
  242MOL0     C33270   0.057  10.423   7.539  0.1848 -0.0073 -0.2954
  242MOL0     C33271  -0.066  10.326   7.546  0.9331  0.0177  0.4634
  242MOL0     C33272  -0.170  10.326   7.431 -0.7041 -0.3114  0.0448
  242MOL0     C33273  -0.224  10.472   7.425 -0.1760 -0.0048 -0.6857
  242MOL0     C33274  -0.340  10.479   7.323 -0.4448 -0.8329 -0.2588
  242MOL0     N33275  -0.412  10.608   7.324 -0.4838 -0.7964  0.5304
  242MOL0     C33276  -0.548  10.619   7.364  0.5093 -0.1324 -0.2032
  242MOL0     C33277  -0.583  10.741   7.327 -0.2824  0.7077  0.9361
  242MOL0     C33278  -0.715  10.789   7.330  0.1617 -0.3860 -0.4601
  242MOL0     C33279  -0.727  10.874   7.457  0.8203 -0.8936 -0.3291
  242MOL0     C33280  -0.794  10.801   7.582  0.2221 -0.1800 -0.3827
  242MOL0     C33281  -0.768  10.896   7.703 -0.1286  0.1910  0.9822
  242MOL0     O33282  -0.843  10.873   7.819 -0.4207  0.0391 -0.4251
  242MOL0     C33283  -0.955  10.950   7.848 -0.1788  0.8601 -1.2178
  242MOL0     C33284  -0.998  10.923   7.978  0.0790  0.5822  0.1837
  242MOL0     C33285  -1.108  11.002   8.032  0.1637  0.5990  0.3741
  242MOL0     C33286  -1.142  10.970   8.171  0.1758  0.6134 -0.2901
  242MOL0     C33287  -1.184  11.086   7.950 -0.4720 -0.7380  0.4283
  242MOL0     C33288  -1.313  11.156   7.983  0.1285  0.0124  0.0780
  242MOL0     O33289  -1.339  11.266   7.908 -0.0389 -0.0463 -0.5406
  242MOL0     C33290  -1.461  11.331   7.916 -0.4110  0.3910 -0.3318
  242MOL0     C33291  -1.557  11.347   7.815  0.4827 -0.0571 -0.6671
  242MOL0     C33292  -1.674  11.416   7.835 -0.5163 -0.1330  0.3710
  242MOL0     C33293  -1.697  11.489   7.953 -0.4299 -0.2997  0.6162
  242MOL0     O33294  -1.817  11.566   7.962 -1.1496  0.7985 -0.1309
  242MOL0     C33295  -1.922  11.519   8.049 -0.5471  0.9186 -0.1022
  242MOL0     C33296  -2.059  11.566   7.997  0.2338  0.1068 -0.3824
  242MOL0     C33297  -2.173  11.527   8.091  0.7544  0.5600 -0.8743
  242MOL0     C33298  -2.153  11.565   8.238  0.2718 -0.1634  0.5895
  242MOL0     C33299  -2.278  11.568   8.327  0.1983  0.2543  0.2469
  242MOL0     C33300  -2.261  11.622   8.469 -1.5195  0.5336  0.8113
  242MOL0     C33301  -2.389  11.644   8.544 -0.9743 -0.4458  0.2847
  242MOL0     C33302  -2.398  11.593   8.680  0.3673  0.3037  0.3637
  242MOL0    Cl33303  -2.296  11.667   8.793  0.4222  0.2528  0.2923
  242MOL0     C33304  -1.592  11.490   8.047  0.6893 -0.0040 -0.5375
  242MOL0     C33305  -1.473  11.406   8.031 -1.0874 -0.3780  0.3995
  242MOL0     O33306  -1.382  11.120   8.077  0.1663 -0.4720 -1.3919
  242MOL0     C33307  -1.145  11.102   7.815  0.5978  0.4713  0.1305
  242MOL0     C33308  -1.033  11.027   7.762 -0.4139  0.0829  0.5431
  242MOL0     N33309  -0.479  10.803   7.259  0.2075  0.4799  0.2572
  242MOL0     N33310  -0.381  10.723   7.259 -0.0760  0.7399  0.1830
  242MOL0     C33311   0.422  10.423   8.079  1.3282  0.2277 -0.4282
  242MOL0     C33312   0.487  10.435   8.197 -0.5792 -0.1364 -1.0957
  242MOL0     C33313   0.595  10.470   8.589  0.2919  1.2982  0.9777
  242MOL0     C33314   0.691  10.377   8.562  0.8913 -0.0763 -0.1258
  242MOL0     C33315   0.786  10.341   8.654 -0.7266 -0.3010 -0.0069
  242MOL0     C33316   0.798  10.413   8.773  0.6225 -1.1070  0.9624
  242MOL0     O33317   0.885  10.377   8.868 -1.3031  0.0716  0.9382
  242MOL0     C33318   1.022  10.402   8.822 -0.4960  0.0279 -0.1453
  242MOL0     C33319   1.119  10.347   8.919  0.6338 -0.4297 -1.1760
  242MOL0     C33320   1.094  10.208   8.990 -1.2159  0.5883  0.2331
  242MOL0     C33321   1.196  10.166   9.088 -0.7902  0.3842  0.6172
  242MOL0     C33322   1.196  10.232   9.210  1.0102  0.2355  0.4482
  242MOL0     C33323   1.185  10.287   9.314  0.1428 -0.7378 -0.5636
  242MOL0     C33324   0.700  10.520   8.794  0.5193 -0.0510  0.1389
  242MOL0     C33325   0.594  10.537   8.709 -1.1656  0.3113  0.4948
  242MOL0     C33326   0.485  10.625   8.754 -0.0570  0.8034 -0.5405
  242MOL0     H33327   0.438  10.758   8.263 -0.9802  1.0311 -1.9220
  242MOL0     H33328   0.283  10.723   8.057 -1.8016 -0.2396  0.2429
  242MOL0     H33329   0.303  10.689   7.822  0.2681 -0.8731  0.9864
  242MOL0     H33330   0.143  10.650   7.862 -0.3855  0.9589 -1.7500
  242MOL0     H33331   0.217  10.627   7.590  1.7087 -1.8484 -0.3453
  242MOL0     H33332   0.299  10.488   7.651 -0.2979 -2.1552  1.6756
  242MOL0     H33333   0.109  10.387   7.742 -1.6919 -1.2533 -0.1723
  242MOL0     H33334   0.007  10.530   7.711  1.2332  2.1500  0.0119
  242MOL0     H33335   0.032  10.520   7.496 -2.9996 -0.9209 -0.8007
  242MOL0     H33336   0.139  10.372   7.487  0.4675 -0.6372  0.7216
  242MOL0     H33337  -0.131  10.344   7.632 -0.7179 -0.2863 -0.6872
  242MOL0     H33338  -0.036  10.222   7.561  0.9495 -0.0990 -0.3261
  242MOL0     H33339  -0.119  10.299   7.338  1.2927  0.1114  0.9714
  242MOL0     H33340  -0.247  10.251   7.452 -0.2077 -0.9745 -0.4507
  242MOL0     H33341  -0.148  10.539   7.384  0.2224  0.2771  0.4503
  242MOL0     H33342  -0.260  10.508   7.522 -0.8373  4.1990 -2.2677
  242MOL0     H33343  -0.319  10.461   7.217 -3.0996  3.0600 -1.6725
  242MOL0     H33344  -0.416  10.410   7.359 -2.4230  1.6913  0.6887
  242MOL0     H33345  -0.608  10.541   7.408  1.1971 -0.9780 -0.7234
  242MOL0     H33346  -0.788  10.707   7.328 -1.2701  0.6909  2.2409
  242MOL0     H33347  -0.739  10.847   7.240 -3.7032 -0.0904  0.5848
  242MOL0     H33348  -0.629  10.916   7.479  1.1194 -1.9959  0.5109
  242MOL0     H33349  -0.784  10.962   7.426  1.8203 -1.0556 -2.9266
  242MOL0     H33350  -0.902  10.787   7.590  0.1107  1.5368  3.0504
  242MOL0     H33351  -0.756  10.700   7.605 -2.5249 -0.8277  2.0029
  242MOL0     H33352  -0.663  10.886   7.731 -0.5835 -2.0311  2.0741
  242MOL0     H33353  -0.794  10.999   7.674 -2.6281 -0.9748 -1.3055
  242MOL0     H33354  -0.955  10.860   8.055 -3.1587 -1.7929  0.2954
  242MOL0     H33355  -1.078  11.028   8.238  0.8280 -0.1530 -0.2327
  242MOL0     H33356  -1.129  10.863   8.190 -2.1391  0.3803  0.2128
  242MOL0     H33357  -1.246  10.985   8.202 -0.1381 -0.9618 -0.4904
  242MOL0     H33358  -1.553  11.296   7.719 -1.0309  1.7738 -1.7664
  242MOL0     H33359  -1.741  11.422   7.750  0.3400 -0.2930 -0.3359
  242MOL0     H33360  -1.915  11.410   8.058 -1.8156  0.8653  0.3685
  242MOL0     H33361  -1.903  11.552   8.151 -1.3675 -2.9875  1.4731
  242MOL0     H33362  -2.058  11.675   7.986  2.3329 -0.0531 -2.5456
  242MOL0     H33363  -2.062  11.524   7.896  4.3230 -4.4457  1.0251
  242MOL0     H33364  -2.188  11.419   8.101  1.9579  0.4247 -0.2384
  242MOL0     H33365  -2.263  11.579   8.059  0.1736 -0.6908 -1.3568
  242MOL0     H33366  -2.104  11.663   8.244  1.3007 -0.5219 -1.2845
  242MOL0     H33367  -2.092  11.492   8.292 -0.4240 -0.4121  1.0502
  242MOL0     H33368  -2.346  11.633   8.273 -0.6680 -1.8735 -1.3630
  242MOL0     H33369  -2.317  11.466   8.334 -0.5238  0.4313 -1.0492
  242MOL0     H33370  -2.196  11.710   8.462  0.8223 -1.1418  0.2217
  242MOL0     H33371  -2.198  11.555   8.529 -0.1798  1.3624  0.3835
  242MOL0     H33372  -2.462  11.592   8.480 -0.6554  0.4484 -0.8310
  242MOL0     H33373  -2.397  11.753   8.550  0.0660 -0.3940  0.8504
  242MOL0     H33374  -2.364  11.489   8.676  0.5589  0.3154  1.4688
  242MOL0     H33375  -2.505  11.608   8.700  0.0052  1.3469 -2.0590
  242MOL0     H33376  -1.590  11.555   8.135 -3.9227  1.3708 -1.1530
  242MOL0     H33377  -1.401  11.419   8.112  0.2259  0.3824 -0.8376
  242MOL0     H33378  -1.191  11.171   7.745  1.6325 -3.3721 -4.9359
  242MOL0     H33379  -0.998  11.055   7.663  1.3040  3.1934  1.8627
  242MOL0     H33380   0.410  10.332   8.022 -1.1242 -0.2099  0.6718
  242MOL0     H33381   0.527  10.340   8.230 -2.9425 -1.3389 -1.4542
  242MOL0     H33382   0.682  10.313   8.475  2.6490 -0.7414  0.1482
  242MOL0     H33383   0.850  10.255   8.636  0.2779  0.6549 -1.1927
  242MOL0     H33384   1.031  10.358   8.722 -0.0709  1.4483 -0.7581
  242MOL0     H33385   1.043  10.509   8.810  0.5479  0.2142  2.5180
  242MOL0     H33386   1.116  10.420   9.000 -1.2947 -3.1905  1.4684
  242MOL0     H33387   1.219  10.332   8.877 -0.0893 -3.9879 -1.9881
  242MOL0     H33388   0.993  10.191   9.029  0.4319 -4.7451  3.2233
  242MOL0     H33389   1.106  10.146   8.901  1.6549 -0.1264  1.0148
  242MOL0     H33390   1.296  10.164   9.042  0.9822  1.5926  4.0325
  242MOL0     H33391   1.162  10.065   9.112 -1.1682 -0.2454 -2.2224
  242MOL0     H33392   1.178  10.331   9.412  3.7305 -3.6020  1.1886
  242MOL0     H33393   0.703  10.577   8.886 -2.7801 -0.9231  0.8863
  242MOL0     H33394   0.528  10.724   8.775  1.3541  0.6613 -2.5334
  242MOL0     H33395   0.406  10.646   8.681 -0.5974 -1.1390 -0.5646
  242MOL0     H33396   0.446  10.593   8.851  2.5616  1.7985  0.9422
  243MOL0     O33397   7.155   2.344   5.341  0.3217  0.3814  0.9464
  243MOL0     C33398   7.214   2.398   5.439 -0.3840 -0.5183 -0.3234
  243MOL0     O33399   7.162   2.417   5.561  0.4306  0.4514  0.3042
  243MOL0     C33400   7.023   2.396   5.583 -0.2387 -0.9710  0.5618
  243MOL0     C33401   6.933   2.457   5.494 -0.1127  0.0496  0.5742
  243MOL0     C33402   6.796   2.451   5.519  0.9963 -0.1835  0.2331
  243MOL0     C33403   6.745   2.372   5.620  0.0404 -0.9347  0.1040
  243MOL0     O33404   6.607   2.343   5.649  0.0245 -0.2084 -0.1408
  243MOL0     C33405   6.516   2.437   5.607  0.7529  0.0110 -0.5919
  243MOL0     C33406   6.381   2.413   5.675 -0.4166  0.4667 -0.2145
  243MOL0     C33407   6.321   2.539   5.748  0.6886 -0.1393  0.3061
  243MOL0     C33408   6.303   2.664   5.666 -0.1236  0.2101 -0.2096
  243MOL0     C33409   6.188   2.654   5.564  0.1878 -0.0888 -0.0824
  243MOL0     C33410   6.154   2.799   5.507  0.2261 -0.1631  0.3522
  243MOL0     C33411   6.231   2.864   5.392 -0.4868 -0.1451 -0.0144
  243MOL0     C33412   6.237   2.757   5.280  0.6412 -0.2356  0.2147
  243MOL0     N33413   6.106   2.727   5.226  0.6153  0.4743 -0.6279
  243MOL0     C33414   6.054   2.601   5.225  0.2599  0.8026  0.1764
  243MOL0     C33415   5.936   2.626   5.156  0.3640 -1.5551 -0.6191
  243MOL0     C33416   5.825   2.536   5.129 -0.1442 -0.9147  0.2496
  243MOL0     C33417   5.842   2.411   5.213 -0.3278 -0.9160  0.5664
  243MOL0     C33418   5.721   2.320   5.227  0.4863 -0.1278 -0.1669
  243MOL0     C33419   5.760   2.177   5.279 -0.1008  0.2264 -0.2998
  243MOL0     O33420   5.658   2.080   5.270  1.4083 -0.2648 -0.7537
  243MOL0     C33421   5.562   2.076   5.376 -0.3088  0.9625  0.4290
  243MOL0     C33422   5.558   2.153   5.493 -0.2880  0.3216  0.0930
  243MOL0     C33423   5.448   2.152   5.592  0.4757  0.0999 -0.4892
  243MOL0     C33424   5.436   2.269   5.695 -0.0634  0.2542  0.0845
  243MOL0     C33425   5.346   2.063   5.570 -0.0853 -1.3986 -0.6362
  243MOL0     C33426   5.240   2.041   5.661  0.3740  0.1694  0.1430
  243MOL0     O33427   5.110   2.014   5.616 -0.0602  0.2285  0.4934
  243MOL0     C33428   5.010   2.008   5.705  0.5411 -0.9616  0.5236
  243MOL0     C33429   4.968   2.119   5.770  0.0946 -0.2544  0.2502
  243MOL0     C33430   4.865   2.111   5.863  0.3058  1.0590  0.0532
  243MOL0     C33431   4.791   1.996   5.886 -1.2505  0.8514  0.2369
  243MOL0     O33432   4.678   2.008   5.954 -0.0990  0.1004 -0.4045
  243MOL0     C33433   4.614   1.914   6.034  0.9699  0.0407 -0.2160
  243MOL0     C33434   4.475   1.958   6.081 -0.7422  0.1759 -0.0823
  243MOL0     C33435   4.383   2.022   5.974 -0.0482  0.3625  0.2973
  243MOL0     C33436   4.354   1.921   5.856 -0.4529  0.1784 -0.8677
  243MOL0     C33437   4.298   1.783   5.895 -0.7517 -0.0012 -0.7083
  243MOL0     C33438   4.160   1.796   5.948 -1.3746  0.3634 -0.2407
  243MOL0     C33439   4.091   1.654   5.985  0.2001  0.0756 -0.9127
  243MOL0     C33440   3.960   1.675   6.047  1.2794 -0.1056 -0.0079
  243MOL0    Cl33441   3.973   1.794   6.177 -0.4491 -0.0986  0.0390
  243MOL0     C33442   4.826   1.880   5.810 -0.3991 -0.1757  0.0070
  243MOL0     C33443   4.940   1.885   5.724 -0.1027 -0.3747 -0.2618
  243MOL0     O33444   5.276   2.032   5.780  0.0876 -0.2072  0.2150
  243MOL0     C33445   5.361   1.967   5.462  0.5505 -0.8875 -0.4197
  243MOL0     C33446   5.462   1.979   5.361  0.8258  1.0663  0.6898
  243MOL0     N33447   5.924   2.762   5.120 -0.6537 -0.7169 -0.4795
  243MOL0     N33448   6.039   2.813   5.151  1.1955 -0.4721  0.5666
  243MOL0     C33449   6.835   2.317   5.710  0.8025  1.6064 -0.6706
  243MOL0     C33450   6.975   2.338   5.701  0.2971  0.0053  0.1397
  243MOL0     C33451   7.348   2.444   5.416 -1.0079 -0.2630  1.2147
  243MOL0     C33452   7.436   2.351   5.350  0.0495  0.1748 -0.2550
  243MOL0     C33453   7.568   2.384   5.324  0.9070 -0.3275  0.1867
  243MOL0     C33454   7.627   2.508   5.351  0.6861  0.6782  0.4736
  243MOL0     O33455   7.756   2.535   5.336 -0.3204  0.5046  0.3582
  243MOL0     C33456   7.843   2.443   5.260  0.2705 -0.4269  1.2854
  243MOL0     C33457   7.993   2.482   5.280 -0.4979  1.2332  1.0780
  243MOL0     C33458   8.031   2.606   5.188  0.8935  1.1335 -0.4178
  243MOL0     C33459   8.173   2.617   5.182 -0.5571 -0.6044 -0.1595
  243MOL0     C33460   8.203   2.755   5.139 -0.8099 -0.2860  0.2058
  243MOL0     C33461   8.249   2.868   5.093 -0.5642  0.9105  0.7138
  243MOL0     C33462   7.535   2.604   5.416 -0.1587 -0.5766 -0.0578
  243MOL0     C33463   7.402   2.572   5.449 -0.7762 -0.7963  0.0015
  243MOL0     C33464   7.315   2.695   5.478  0.3797 -0.2627  0.1844
  243MOL0     H33465   6.975   2.510   5.409 -3.5835  0.7297 -0.8668
  243MOL0     H33466   6.725   2.504   5.456  0.7229 -0.5779  0.2086
  243MOL0     H33467   6.511   2.417   5.500  1.1830 -3.0303 -0.1582
  243MOL0     H33468   6.552   2.539   5.624 -5.7663  2.4482  1.8044
  243MOL0     H33469   6.302   2.374   5.610 -1.2874  1.2940  0.3184
  243MOL0     H33470   6.399   2.337   5.751 -4.7468  1.1270  1.7834
  243MOL0     H33471   6.229   2.507   5.798 -0.0118  1.1923 -0.0903
  243MOL0     H33472   6.404   2.559   5.817 -0.3617 -1.0362  1.9043
  243MOL0     H33473   6.278   2.733   5.747 -0.6135 -0.0997 -0.0917
  243MOL0     H33474   6.395   2.697   5.616  0.0495  0.8646  0.5265
  243MOL0     H33475   6.108   2.595   5.609  1.4012 -0.3695  1.8039
  243MOL0     H33476   6.234   2.588   5.490  0.2526 -0.7135  0.5131
  243MOL0     H33477   6.051   2.798   5.471  0.8480  1.7847 -1.7384
  243MOL0     H33478   6.155   2.874   5.588  1.9192  0.5980 -0.3074
  243MOL0     H33479   6.329   2.903   5.421 -0.8495  1.1027 -0.4025
  243MOL0     H33480   6.187   2.958   5.356  3.9439  2.5660  0.9543
  243MOL0     H33481   6.299   2.780   5.193  0.7059 -0.4417  0.2049
  243MOL0     H33482   6.287   2.662   5.303 -0.3658 -0.9677 -0.5351
  243MOL0     H33483   6.080   2.516   5.288 -2.9556  0.3813  1.1124
  243MOL0     H33484   5.808   2.511   5.024 -4.0179  0.8151  0.3133
  243MOL0     H33485   5.730   2.582   5.158  0.0024 -1.4821  1.7452
  243MOL0     H33486   5.923   2.346   5.177 -0.1592 -1.0556  1.1901
  243MOL0     H33487   5.878   2.437   5.312  0.5365  0.4745 -0.0766
  243MOL0     H33488   5.651   2.370   5.295  0.1964  2.0761 -1.9906
  243MOL0     H33489   5.668   2.303   5.133  0.2273  2.7185 -0.6215
  243MOL0     H33490   5.837   2.128   5.218 -0.8512 -0.4456 -0.7215
  243MOL0     H33491   5.799   2.182   5.381 -1.5987 -0.8368  0.3641
  243MOL0     H33492   5.631   2.233   5.498 -2.7137  3.0556 -3.0717
  243MOL0     H33493   5.479   2.362   5.657  2.7806 -0.8115  0.4742
  243MOL0     H33494   5.496   2.246   5.784 -0.3499 -1.6897 -0.1879
  243MOL0     H33495   5.331   2.286   5.719 -0.1266 -0.2067  0.1391
  243MOL0     H33496   5.014   2.213   5.742 -1.3192  1.0122  1.9552
  243MOL0     H33497   4.832   2.202   5.911  1.2079  1.4521 -0.0534
  243MOL0     H33498   4.610   1.824   5.973  1.2917  0.2921 -0.6117
  243MOL0     H33499   4.670   1.888   6.125 -3.0734 -1.8763  1.9912
  243MOL0     H33500   4.425   1.865   6.110  0.3960 -0.4190  0.0135
  243MOL0     H33501   4.475   2.032   6.162  1.8036 -0.1579  0.2872
  243MOL0     H33502   4.435   2.109   5.932  0.5943 -0.0568  0.2040
  243MOL0     H33503   4.291   2.059   6.019  0.6499  2.1992  0.2982
  243MOL0     H33504   4.451   1.916   5.806  0.0439 -3.3741  0.1644
  243MOL0     H33505   4.285   1.962   5.783  0.8295  0.4741 -1.9559
  243MOL0     H33506   4.293   1.717   5.808 -0.2196 -2.3351  0.9518
  243MOL0     H33507   4.361   1.733   5.969  0.9035  0.8359 -1.4913
  243MOL0     H33508   4.092   1.858   5.888 -3.6136 -1.6350  0.0860
  243MOL0     H33509   4.168   1.847   6.045 -2.2832  1.7582 -0.8516
  243MOL0     H33510   4.154   1.593   6.050 -3.1265  0.2511  2.8576
  243MOL0     H33511   4.072   1.599   5.893 -2.5209  1.6343 -1.3815
  243MOL0     H33512   3.915   1.586   6.091  1.3829  0.2768  0.8922
  243MOL0     H33513   3.887   1.708   5.973  0.9473 -1.3054 -0.2405
  243MOL0     H33514   4.773   1.785   5.811  0.8422 -0.9437 -1.6212
  243MOL0     H33515   4.965   1.799   5.663 -1.0924 -0.7689 -0.1191
  243MOL0     H33516   5.281   1.895   5.448  0.4774 -1.0555  0.7510
  243MOL0     H33517   5.484   1.910   5.280 -0.6773 -0.4535  1.5339
  243MOL0     H33518   6.794   2.254   5.788  0.1445  1.3590 -1.2079
  243MOL0     H33519   7.049   2.307   5.775 -1.0324  2.8167  2.9055
  243MOL0     H33520   7.394   2.255   5.320  0.1674  1.1902 -4.2655
  243MOL0     H33521   7.619   2.304   5.272 -1.4702 -0.6994 -1.6919
  243MOL0     H33522   7.832   2.346   5.309 -0.7640 -2.9589 -3.3264
  243MOL0     H33523   7.796   2.426   5.163 -4.5749  5.1211  2.1157
  243MOL0     H33524   8.048   2.393   5.248 -3.5217  0.0403 -1.3392
  243MOL0     H33525   8.010   2.503   5.386 -2.0955  1.5184  1.2911
  243MOL0     H33526   7.998   2.597   5.084 -2.1361 -1.2755  0.6046
  243MOL0     H33527   7.992   2.694   5.240  1.1777  0.1861  1.5044
  243MOL0     H33528   8.220   2.549   5.111  2.3306  0.8313  0.2618
  243MOL0     H33529   8.217   2.601   5.280 -1.1194 -3.9458 -0.3114
  243MOL0     H33530   8.268   2.967   5.057 -0.2630  1.2930  1.8817
  243MOL0     H33531   7.562   2.705   5.446 -1.8308 -0.1463  0.1067
  243MOL0     H33532   7.263   2.736   5.392 -1.4988  0.6762  1.6867
  243MOL0     H33533   7.237   2.672   5.551 -0.8602  2.4100 -0.1816
  243MOL0     H33534   7.377   2.769   5.529 -2.2679  0.8287  2.0653
  244MOL0     O33535   9.313   5.369   9.529  0.2389  0.0842  0.1555
  244MOL0     C33536   9.384   5.402   9.434  0.6426 -0.9113 -0.1402
  244MOL0     O33537   9.513   5.433   9.441 -0.2106  0.0292 -0.3537
  244MOL0     C33538   9.573   5.401   9.559 -0.6666  0.8512 -0.3033
  244MOL0     C33539   9.675   5.479   9.612 -0.3717  0.1026  0.4546
  244MOL0     C33540   9.758   5.434   9.717 -0.2914 -0.4296  0.3685
  244MOL0     C33541   9.740   5.309   9.780  0.1066  0.1472 -0.1827
  244MOL0     O33542   9.837   5.257   9.867 -0.0580 -0.1941  0.4440
  244MOL0     C33543   9.812   5.259  10.008  0.1768 -0.8845 -0.7104
  244MOL0     C33544   9.801   5.409  10.057  0.8209 -0.2138  0.0438
  244MOL0     C33545   9.949   5.474  10.058 -0.0432  0.7838  0.4310
  244MOL0     C33546   9.933   5.620  10.106 -1.0123  0.7045  0.3345
  244MOL0     C33547  10.070   5.661  10.155  0.2538  0.4488 -0.0991
  244MOL0     C33548  10.114   5.803  10.107 -0.6624 -0.4512  0.3459
  244MOL0     C33549  10.241   5.842  10.181 -0.3369  1.3451  0.0007
  244MOL0     C33550  10.279   5.995  10.152  0.9716  0.1789  0.4475
  244MOL0     N33551  10.213   6.068  10.259 -0.2176 -0.2133  0.0894
  244MOL0     C33552  10.260   6.075  10.386 -0.1211 -0.4993 -0.8574
  244MOL0     C33553  10.164   6.130  10.452 -0.0879 -0.5284  0.2396
  244MOL0     C33554  10.166   6.158  10.600  0.0463  0.4459  0.2628
  244MOL0     C33555  10.046   6.110  10.689  0.1323  0.1901  0.3543
  244MOL0     C33556   9.936   6.031  10.623  1.0907 -0.6758 -0.5292
  244MOL0     C33557   9.977   5.897  10.562  0.5676 -0.4539 -0.8488
  244MOL0     O33558  10.052   5.817  10.653 -0.2400 -0.4602 -0.6606
  244MOL0     C33559   9.989   5.732  10.743 -0.2258  0.2292 -0.4515
  244MOL0     C33560  10.082   5.651  10.803 -0.0439  0.1429  0.3600
  244MOL0     C33561  10.050   5.545  10.880 -0.7066  1.2124 -0.3295
  244MOL0     C33562  10.162   5.447  10.937  0.0911 -0.0135 -0.6454
  244MOL0     C33563   9.911   5.514  10.898 -0.8415  0.0789 -0.4454
  244MOL0     C33564   9.858   5.392  10.982  0.1541 -0.1762  0.5071
  244MOL0     O33565   9.929   5.340  11.085 -0.4657  0.5595 -0.3120
  244MOL0     C33566   9.895   5.211  11.112  0.4517 -0.2556  0.8869
  244MOL0     C33567   9.776   5.167  11.165  0.5923 -0.4534  0.3015
  244MOL0     C33568   9.748   5.030  11.159 -0.4425  1.4004  0.2555
  244MOL0     C33569   9.848   4.935  11.127  0.7844  0.3810  0.0123
  244MOL0     O33570   9.836   4.803  11.147 -0.5378  0.4773  0.2617
  244MOL0     C33571   9.736   4.756  11.231  1.2525  0.3223 -1.3209
  244MOL0     C33572   9.765   4.616  11.265  0.1948  0.6554 -0.3332
  244MOL0     C33573   9.731   4.515  11.147  0.2052  0.3638 -0.1501
  244MOL0     C33574   9.760   4.359  11.164  0.4239  0.0155 -0.4205
  244MOL0     C33575   9.649   4.285  11.222  0.4584  0.5011 -0.4057
  244MOL0     C33576   9.593   4.339  11.355  0.3374 -0.5782  0.0955
  244MOL0     C33577   9.483   4.242  11.405  0.0642  0.2225 -0.2512
  244MOL0     C33578   9.477   4.211  11.555  0.3228  0.4921 -0.5326
  244MOL0    Cl33579   9.420   4.032  11.580 -0.4824 -0.2723  0.4796
  244MOL0     C33580   9.970   4.980  11.074  0.9315  1.4701 -0.6753
  244MOL0     C33581   9.998   5.123  11.076 -0.5443  1.6091 -0.1586
  244MOL0     O33582   9.749   5.348  10.951  0.1273 -0.3183  0.1092
  244MOL0     C33583   9.817   5.587  10.838  1.1104  0.8048  0.1770
  244MOL0     C33584   9.859   5.696  10.764  0.9476 -0.9432 -0.1370
  244MOL0     N33585  10.063   6.178  10.362 -0.4638  0.3327 -0.0955
  244MOL0     N33586  10.090   6.134  10.254 -0.6641 -0.6656 -0.3008
  244MOL0     C33587   9.633   5.233   9.740  0.5853 -1.0635  0.9660
  244MOL0     C33588   9.548   5.278   9.628  0.4247 -0.6273  0.2441
  244MOL0     C33589   9.333   5.405   9.293 -0.2086 -0.3648 -0.2506
  244MOL0     C33590   9.420   5.440   9.186 -0.1510 -0.8032  0.2808
  244MOL0     C33591   9.375   5.442   9.057  0.2421  0.6284 -0.4337
  244MOL0     C33592   9.240   5.414   9.023 -0.6336  0.8249  0.2914
  244MOL0     O33593   9.193   5.423   8.900  0.1009 -0.0346 -0.4120
  244MOL0     C33594   9.161   5.551   8.854  0.4084  0.3444 -0.6826
  244MOL0     C33595   9.085   5.543   8.729  0.0306  1.3324  0.0188
  244MOL0     C33596   8.967   5.441   8.726 -1.0251 -0.1973 -0.4730
  244MOL0     C33597   8.909   5.421   8.588 -0.0540 -0.1008 -0.2357
  244MOL0     C33598   8.775   5.362   8.596  0.1237 -0.3311 -0.5424
  244MOL0     C33599   8.667   5.306   8.585 -0.0062 -0.2975  0.1114
  244MOL0     C33600   9.148   5.391   9.124 -0.3014 -0.2322 -1.1067
  244MOL0     C33601   9.195   5.385   9.257  0.7938 -0.7925 -0.7324
  244MOL0     C33602   9.098   5.355   9.369 -0.0454  0.1005  1.2231
  244MOL0     H33603   9.695   5.576   9.567  1.9519 -1.4148 -2.0911
  244MOL0     H33604   9.839   5.502   9.741  1.3538 -1.6733 -1.3578
  244MOL0     H33605   9.893   5.201  10.054  1.8669  1.1862 -0.9122
  244MOL0     H33606   9.714   5.214  10.024  0.1364  0.0245  2.2521
  244MOL0     H33607   9.744   5.470   9.986  0.6883 -1.5666 -1.0596
  244MOL0     H33608   9.767   5.423  10.160 -0.6468  0.7993 -0.5313
  244MOL0     H33609  10.019   5.418  10.120  0.0365 -0.1220 -0.4716
  244MOL0     H33610   9.980   5.461   9.954 -0.6499 -0.6596  0.4176
  244MOL0     H33611   9.911   5.694  10.029 -1.7758  0.2684  0.1251
  244MOL0     H33612   9.852   5.629  10.179 -0.9040  0.4297  0.4910
  244MOL0     H33613  10.147   5.590  10.124 -0.8024 -0.9938  0.4898
  244MOL0     H33614  10.074   5.677  10.264  3.2071  2.3360 -0.3551
  244MOL0     H33615  10.142   5.788  10.003 -1.8047  1.6495 -0.3167
  244MOL0     H33616  10.037   5.877  10.132  0.2115  1.2688 -1.7888
  244MOL0     H33617  10.319   5.772  10.150 -2.2758 -1.0108  0.1821
  244MOL0     H33618  10.245   5.823  10.288 -0.2957  0.8824 -0.0819
  244MOL0     H33619  10.383   6.028  10.158  0.4436  1.7032  2.7246
  244MOL0     H33620  10.248   6.023  10.051 -2.0714  2.5433  1.8714
  244MOL0     H33621  10.346   6.028  10.431 -1.6335 -1.1710  1.5274
  244MOL0     H33622  10.183   6.266  10.603  1.1498  0.2842  0.0495
  244MOL0     H33623  10.251   6.112  10.652  0.0893  1.7015  1.3496
  244MOL0     H33624  10.084   6.057  10.776  1.5689 -0.9235 -0.9110
  244MOL0     H33625   9.995   6.201  10.724  0.3394 -0.8295  3.6219
  244MOL0     H33626   9.846   6.008  10.680  0.1273 -1.7207 -2.3752
  244MOL0     H33627   9.889   6.090  10.543 -2.1720 -1.4320  0.6545
  244MOL0     H33628   9.882   5.856  10.525 -1.5417  2.7837  0.4544
  244MOL0     H33629  10.040   5.920  10.476  0.7015 -0.7102 -0.8174
  244MOL0     H33630  10.189   5.668  10.802 -0.0485  0.6917  2.9240
  244MOL0     H33631  10.111   5.352  10.921 -2.3137  0.9406  0.7370
  244MOL0     H33632  10.186   5.473  11.041  0.3155 -0.6035 -0.5504
  244MOL0     H33633  10.249   5.443  10.871  0.9242  1.8807  0.2398
  244MOL0     H33634   9.710   5.249  11.192  1.0813  0.4179 -1.0356
  244MOL0     H33635   9.650   4.996  11.190  0.0305  0.3257  0.6157
  244MOL0     H33636   9.726   4.799  11.332  2.1870 -2.5524  0.0994
  244MOL0     H33637   9.642   4.764  11.176  1.7873 -3.5633 -3.1389
  244MOL0     H33638   9.864   4.606  11.310  0.2940  0.8241 -0.5126
  244MOL0     H33639   9.697   4.583  11.344  1.2938  0.5999  0.6104
  244MOL0     H33640   9.803   4.545  11.070  0.7089 -2.4057 -0.8491
  244MOL0     H33641   9.628   4.533  11.115  0.4463  0.6924 -0.7529
  244MOL0     H33642   9.847   4.331  11.224  1.3868 -0.6293 -2.0273
  244MOL0     H33643   9.779   4.311  11.068  1.8737 -2.1026  0.8435
  244MOL0     H33644   9.567   4.264  11.153 -1.0801 -1.0383  1.7346
  244MOL0     H33645   9.687   4.184  11.237 -1.8166 -0.7523 -2.4161
  244MOL0     H33646   9.565   4.444  11.342  3.3393  0.1100 -1.7005
  244MOL0     H33647   9.678   4.335  11.423  0.6769  1.9051 -0.0968
  244MOL0     H33648   9.510   4.142  11.371  0.1695 -0.3408  1.3902
  244MOL0     H33649   9.381   4.262  11.372 -0.2350 -2.6832 -1.3589
  244MOL0     H33650   9.412   4.279  11.612 -0.3395 -0.4842 -0.0844
  244MOL0     H33651   9.578   4.201  11.594  0.7716 -1.0777 -1.9871
  244MOL0     H33652  10.038   4.898  11.053 -1.2644 -1.5225  2.7850
  244MOL0     H33653  10.095   5.154  11.037 -0.2019  1.8425  0.8594
  244MOL0     H33654   9.711   5.567  10.854  1.6406 -0.3531  2.7044
  244MOL0     H33655   9.784   5.741  10.700  1.9986 -2.1343 -2.3006
  244MOL0     H33656   9.612   5.137   9.784 -1.7958 -0.5035  1.1753
  244MOL0     H33657   9.473   5.205   9.600 -0.0558 -0.9463  2.2652
  244MOL0     H33658   9.517   5.474   9.219 -1.0852  2.3461  0.1018
  244MOL0     H33659   9.438   5.471   8.973 -1.5442  0.0559 -2.0597
  244MOL0     H33660   9.111   5.610   8.931  3.0150  1.8048  0.0194
  244MOL0     H33661   9.255   5.604   8.841  0.7782 -0.3761 -1.0108
  244MOL0     H33662   9.154   5.524   8.645  0.7039  2.3333  0.3304
  244MOL0     H33663   9.029   5.636   8.718 -0.6076  1.0499  0.8515
  244MOL0     H33664   8.998   5.347   8.773  2.7738  1.0189 -0.2320
  244MOL0     H33665   8.890   5.488   8.788 -0.1348  0.1438  0.4078
  244MOL0     H33666   8.985   5.366   8.533  1.9387  1.7901  0.4993
  244MOL0     H33667   8.899   5.516   8.535 -0.2274 -0.5262 -0.9781
  244MOL0     H33668   8.569   5.268   8.567  0.8935 -1.9546 -1.6861
  244MOL0     H33669   9.043   5.393   9.098 -1.6167  0.2034  3.3932
  244MOL0     H33670   9.104   5.427   9.450  0.7574 -1.1475  2.3141
  244MOL0     H33671   9.003   5.363   9.316  0.5743 -1.6450 -0.2540
  244MOL0     H33672   9.109   5.258   9.419  0.2914 -0.2231  0.5396
  245MOL0     O33673   4.326   0.885   9.355 -0.2811  0.1036 -0.6275
  245MOL0     C33674   4.227   0.853   9.426  0.1324 -0.7453 -0.3324
  245MOL0     O33675   4.226   0.848   9.562  0.3446 -0.0111  1.1372
  245MOL0     C33676   4.333   0.895   9.624 -0.5927  0.1977 -0.3814
  245MOL0     C33677   4.329   0.991   9.724  0.2053  0.2857  0.2268
  245MOL0     C33678   4.441   1.055   9.784  0.2476 -0.2875 -0.6104
  245MOL0     C33679   4.568   1.008   9.753 -0.3405  0.0479  0.5439
  245MOL0     O33680   4.685   1.052   9.808 -0.4989  0.4864  0.1578
  245MOL0     C33681   4.724   1.187   9.794 -0.4149 -1.0478  0.3455
  245MOL0     C33682   4.866   1.204   9.852  0.2685  0.5571 -0.1450
  245MOL0     C33683   4.941   1.327   9.798 -0.3118  0.0312 -0.1990
  245MOL0     C33684   5.094   1.313   9.815 -0.3389 -0.6616  0.3004
  245MOL0     C33685   5.179   1.410   9.732  0.1474  0.1276  0.2242
  245MOL0     C33686   5.225   1.376   9.586 -1.2014  0.0678  0.1397
  245MOL0     C33687   5.321   1.485   9.518  0.8468  0.4183 -0.0259
  245MOL0     C33688   5.459   1.479   9.562 -0.2191 -0.5861 -0.7734
  245MOL0     N33689   5.526   1.610   9.545 -0.9121 -0.2586 -0.3692
  245MOL0     C33690   5.483   1.723   9.615  0.3998 -0.5869 -0.0028
  245MOL0     C33691   5.581   1.819   9.604 -0.2824 -0.9749 -0.4237
  245MOL0     C33692   5.573   1.959   9.644 -0.0699 -0.1500 -1.0216
  245MOL0     C33693   5.507   2.049   9.538 -1.0520  0.5377 -0.0273
  245MOL0     C33694   5.371   2.002   9.475 -1.1939 -0.0047 -1.0890
  245MOL0     C33695   5.249   1.988   9.565  0.4681  0.0516 -0.9550
  245MOL0     O33696   5.193   1.870   9.528 -0.2654  0.1253  0.4916
  245MOL0     C33697   5.076   1.819   9.582 -0.7539  0.4455 -0.4839
  245MOL0     C33698   5.034   1.860   9.706 -0.1992 -0.1742 -0.2887
  245MOL0     C33699   4.924   1.801   9.764  0.2979  0.0447 -0.6330
  245MOL0     C33700   4.881   1.851   9.907  0.8759  0.1446  0.6851
  245MOL0     C33701   4.856   1.695   9.697  0.8261  0.4810 -0.4096
  245MOL0     C33702   4.737   1.623   9.751 -0.1338  1.0832 -0.3800
  245MOL0     O33703   4.719   1.623   9.885  0.4869  0.1187  0.0595
  245MOL0     C33704   4.592   1.592   9.930 -0.1759 -0.6774 -1.2127
  245MOL0     C33705   4.481   1.677   9.906 -0.1152  0.6408  0.8003
  245MOL0     C33706   4.357   1.645   9.968  1.0965  0.0232  0.4238
  245MOL0     C33707   4.334   1.541  10.055 -0.6338  0.3899 -0.4234
  245MOL0     O33708   4.221   1.540  10.129  0.3899 -0.0372  0.4383
  245MOL0     C33709   4.124   1.444  10.082 -0.0707  0.5251  0.3689
  245MOL0     C33710   4.081   1.487   9.945 -0.8016 -0.2490  0.9781
  245MOL0     C33711   3.958   1.411   9.882 -0.1816 -0.6677 -0.6493
  245MOL0     C33712   3.936   1.463   9.741 -0.9592  0.0743 -0.5759
  245MOL0     C33713   3.822   1.403   9.658 -0.4774 -0.8867  0.4644
  245MOL0     C33714   3.834   1.464   9.507  0.1076  0.4949 -0.5093
  245MOL0     C33715   3.747   1.396   9.402  0.1388 -0.7231  0.1312
  245MOL0     C33716   3.773   1.436   9.246  0.4513  0.4981  0.1033
  245MOL0    Cl33717   3.773   1.613   9.216  0.2894  0.0514  0.1242
  245MOL0     C33718   4.449   1.458  10.077  0.6087 -0.5210 -0.1971
  245MOL0     C33719   4.574   1.490  10.024 -0.3199 -0.4316 -1.1122
  245MOL0     O33720   4.664   1.575   9.668  0.2816  1.1262 -0.1448
  245MOL0     C33721   4.901   1.653   9.577  1.1833  0.1320 -0.3031
  245MOL0     C33722   5.015   1.710   9.521  0.4557  2.0892  0.5918
  245MOL0     N33723   5.670   1.769   9.508  0.0331  0.2640 -0.1074
  245MOL0     N33724   5.627   1.649   9.466  0.2365 -0.3727 -0.1055
  245MOL0     C33725   4.579   0.897   9.662  0.4803  0.3624  0.3999
  245MOL0     C33726   4.468   0.843   9.602 -0.5382 -0.2742  0.5695
  245MOL0     C33727   4.094   0.811   9.368  0.2293 -0.2447 -0.1388
  245MOL0     C33728   4.022   0.700   9.420  0.4608 -0.9800  0.1368
  245MOL0     C33729   3.900   0.660   9.371 -0.0858  0.6947 -1.2342
  245MOL0     C33730   3.840   0.728   9.259 -0.1248  0.2885  0.4041
  245MOL0     O33731   3.709   0.689   9.214 -0.3215  0.0886 -0.0410
  245MOL0     C33732   3.653   0.748   9.091 -0.9787 -0.1002  0.0545
  245MOL0     C33733   3.501   0.750   9.083 -0.2921 -0.5932 -0.3554
  245MOL0     C33734   3.455   0.768   8.948 -0.2681 -0.3440 -0.2939
  245MOL0     C33735   3.302   0.756   8.945  0.8332 -0.6054 -0.4423
  245MOL0     C33736   3.258   0.725   8.814 -0.1270  0.0817  0.2296
  245MOL0     C33737   3.210   0.704   8.699 -0.3452  0.1621  0.2890
  245MOL0     C33738   3.910   0.836   9.209  0.6728 -0.7122  1.1242
  245MOL0     C33739   4.027   0.879   9.264  0.2932  0.6746 -0.7221
  245MOL0     C33740   4.084   1.005   9.207 -0.4351  0.5571 -0.8700
  245MOL0     H33741   4.235   1.038   9.750  1.2247  1.5220  1.8974
  245MOL0     H33742   4.429   1.142   9.848 -0.0734 -1.7076  1.3781
  245MOL0     H33743   4.659   1.261   9.841 -1.4517 -2.6442  1.5131
  245MOL0     H33744   4.737   1.205   9.687 -0.2228 -0.3230  0.4866
  245MOL0     H33745   4.863   1.197   9.961  1.8205  0.4178 -0.0838
  245MOL0     H33746   4.923   1.118   9.817  2.3714  1.3272  1.2128
  245MOL0     H33747   4.918   1.343   9.692 -2.0812  1.6161  0.3635
  245MOL0     H33748   4.893   1.407   9.856 -1.2200 -0.4678 -0.2490
  245MOL0     H33749   5.117   1.332   9.920 -0.0268 -0.4698  0.1971
  245MOL0     H33750   5.126   1.211   9.792  0.8949 -0.5047  1.2415
  245MOL0     H33751   5.277   1.416   9.781  0.3958 -1.1815 -0.0894
  245MOL0     H33752   5.132   1.509   9.735  1.4021  0.7416  0.3901
  245MOL0     H33753   5.273   1.278   9.581 -2.5068 -0.6613  1.1598
  245MOL0     H33754   5.131   1.368   9.531 -0.8288 -0.3767 -0.4411
  245MOL0     H33755   5.289   1.588   9.533  4.9052  1.9771 -0.7651
  245MOL0     H33756   5.332   1.472   9.410 -0.0080 -3.5219  0.1829
  245MOL0     H33757   5.464   1.436   9.662  2.1844 -1.5539 -1.2294
  245MOL0     H33758   5.509   1.404   9.500  1.4127 -3.0702  3.1625
  245MOL0     H33759   5.391   1.734   9.673 -0.2518  3.1684 -1.4736
  245MOL0     H33760   5.671   2.007   9.658  0.5144 -1.6678  0.3552
  245MOL0     H33761   5.509   1.956   9.732  0.8673 -2.6571 -0.3319
  245MOL0     H33762   5.489   2.145   9.587  2.4795  1.6101 -0.5322
  245MOL0     H33763   5.584   2.070   9.463 -0.3890 -0.1953  0.4419
  245MOL0     H33764   5.354   2.076   9.397  4.2830 -1.0965 -3.7751
  245MOL0     H33765   5.381   1.906   9.424 -2.1134 -2.9529  3.5618
  245MOL0     H33766   5.281   1.977   9.669  0.3680  2.5954 -0.5841
  245MOL0     H33767   5.181   2.073   9.555  2.0284  1.4016 -0.4492
  245MOL0     H33768   5.091   1.937   9.757  0.9449  0.9131 -3.0076
  245MOL0     H33769   4.773   1.861   9.924  0.1956 -1.9927 -1.8701
  245MOL0     H33770   4.922   1.953   9.909 -0.8068  0.9701 -1.6823
  245MOL0     H33771   4.920   1.788   9.987 -2.6323 -0.8058  1.8660
  245MOL0     H33772   4.490   1.773   9.855 -1.6728  2.2428  3.3082
  245MOL0     H33773   4.274   1.713   9.954  1.6222  0.4485 -0.7875
  245MOL0     H33774   4.167   1.343  10.075 -3.0118 -0.8171  0.0452
  245MOL0     H33775   4.039   1.436  10.150  1.6886  0.2507  2.6792
  245MOL0     H33776   4.059   1.594   9.956 -0.2075  0.3926 -2.6416
  245MOL0     H33777   4.162   1.476   9.871 -2.7566  0.5595 -1.4293
  245MOL0     H33778   3.874   1.424   9.952 -0.1030 -3.7910  0.1617
  245MOL0     H33779   3.985   1.306   9.891 -0.3413 -0.7082 -0.6408
  245MOL0     H33780   4.030   1.440   9.690  0.3124 -1.0212  2.0656
  245MOL0     H33781   3.925   1.571   9.750  3.3022  0.5585  1.4512
  245MOL0     H33782   3.816   1.294   9.645 -0.9063 -0.7686 -0.3940
  245MOL0     H33783   3.737   1.443   9.714 -0.9412 -3.9243  2.1986
  245MOL0     H33784   3.940   1.458   9.481  0.3757  3.1863 -0.2283
  245MOL0     H33785   3.809   1.570   9.516  0.7649  0.7065 -1.1362
  245MOL0     H33786   3.641   1.417   9.420 -0.0940  1.7948 -3.1989
  245MOL0     H33787   3.757   1.288   9.420 -0.9291 -0.3126  4.4313
  245MOL0     H33788   3.694   1.382   9.194  0.8199 -1.9196  1.8893
  245MOL0     H33789   3.873   1.393   9.236  1.3009  2.2311  0.7410
  245MOL0     H33790   4.438   1.394  10.164 -1.7174  3.7806  3.0889
  245MOL0     H33791   4.654   1.432  10.067 -1.4839 -2.1396 -1.1124
  245MOL0     H33792   4.851   1.570   9.529  3.0203 -0.4244 -1.3285
  245MOL0     H33793   5.055   1.669   9.428 -3.6779  1.7635 -1.2746
  245MOL0     H33794   4.677   0.852   9.651  0.9000  0.6705  2.3887
  245MOL0     H33795   4.484   0.768   9.525  0.9048  2.4874 -2.0159
  245MOL0     H33796   4.053   0.637   9.503  3.2898 -1.9078 -1.4827
  245MOL0     H33797   3.853   0.570   9.409 -1.4650  1.1275 -1.8551
  245MOL0     H33798   3.681   0.853   9.083 -3.2851  0.6578  1.1435
  245MOL0     H33799   3.676   0.682   9.007  0.0438  0.9960 -0.5445
  245MOL0     H33800   3.466   0.843   9.129  1.1732  1.1482 -2.5183
  245MOL0     H33801   3.454   0.662   9.129 -0.6740  0.5570  1.5677
  245MOL0     H33802   3.489   0.864   8.907  0.0822  0.0379  0.8566
  245MOL0     H33803   3.504   0.706   8.873  1.3937  0.8315 -0.2457
  245MOL0     H33804   3.267   0.854   8.978 -1.1151 -1.4053 -0.0338
  245MOL0     H33805   3.267   0.683   9.018  1.1425 -0.8655 -0.5506
  245MOL0     H33806   3.172   0.689   8.600 -3.0769 -0.1963  1.2973
  245MOL0     H33807   3.862   0.895   9.131 -1.3481 -1.6664  1.5752
  245MOL0     H33808   4.115   1.061   9.295  1.4314 -2.2227  0.3856
  245MOL0     H33809   4.170   0.970   9.150 -0.4793 -1.5986  0.2818
  245MOL0     H33810   4.016   1.053   9.136 -0.6367 -1.4192 -2.0749
  246MOL0     O33811   1.199   0.998   0.525  0.1549 -0.4953  0.0619
  246MOL0     C33812   1.239   0.881   0.511  0.7652 -0.0418 -0.5335
  246MOL0     O33813   1.364   0.850   0.470  0.0565 -0.4423  0.0271
  246MOL0     C33814   1.458   0.947   0.439 -1.0374 -0.3782  0.6366
  246MOL0     C33815   1.440   1.067   0.373 -0.3071  0.0541 -0.1799
  246MOL0     C33816   1.550   1.160   0.342  0.7499  0.5181 -0.4089
  246MOL0     C33817   1.679   1.116   0.363  0.1564  0.8910  0.9855
  246MOL0     O33818   1.803   1.179   0.327  0.1003  0.1539 -0.3468
  246MOL0     C33819   1.805   1.232   0.190 -0.9793 -0.0303 -0.8612
  246MOL0     C33820   1.923   1.173   0.117 -0.2761  0.1036  0.0285
  246MOL0     C33821   2.059   1.184   0.204  0.3501 -1.1319  0.1013
  246MOL0     C33822   2.176   1.153   0.110 -1.2872  0.1977  0.2403
  246MOL0     C33823   2.319   1.165   0.174  0.5264  0.4210  0.0917
  246MOL0     C33824   2.352   1.301   0.212 -0.2586 -0.2177 -0.2318
  246MOL0     C33825   2.488   1.307   0.294  0.6491 -0.7873 -0.2491
  246MOL0     C33826   2.515   1.455   0.324  0.0738  0.4909  0.5300
  246MOL0     N33827   2.644   1.505   0.359 -0.2135  0.5430 -0.1115
  246MOL0     C33828   2.755   1.496   0.276  0.1271  0.2285 -0.6473
  246MOL0     C33829   2.841   1.593   0.324  0.5739  0.1213 -0.8573
  246MOL0     C33830   2.969   1.647   0.278 -0.1292 -0.3461  0.3563
  246MOL0     C33831   2.984   1.655   0.130  1.0182 -0.4594 -0.2464
  246MOL0     C33832   3.127   1.700   0.090  0.0381 -0.2104  0.6323
  246MOL0     C33833   3.173   1.659  -0.046  0.0812 -0.4986  0.0834
  246MOL0     O33834   3.208   1.524  -0.050 -0.4681  0.2524 -0.6145
  246MOL0     C33835   3.289   1.474  -0.140  0.4250  0.2520  0.4943
  246MOL0     C33836   3.329   1.529  -0.259 -1.0324 -0.1219  0.2470
  246MOL0     C33837   3.400   1.456  -0.354 -0.0584  0.7518  0.6564
  246MOL0     C33838   3.418   1.523  -0.483 -0.0622  0.0245  0.5112
  246MOL0     C33839   3.450   1.322  -0.323  0.3441  0.1177  0.1880
  246MOL0     C33840   3.534   1.235  -0.414  0.2417 -0.5154  0.4819
  246MOL0     O33841   3.621   1.304  -0.505  0.1560 -1.0441 -0.0463
  246MOL0     C33842   3.683   1.226  -0.593 -0.2515 -0.5289 -0.0182
  246MOL0     C33843   3.634   1.239  -0.724 -0.3473  0.6176  1.2096
  246MOL0     C33844   3.690   1.162  -0.834  0.5270 -0.1773  1.2881
  246MOL0     C33845   3.792   1.071  -0.804 -0.3285 -0.8824 -0.3733
  246MOL0     O33846   3.870   0.996  -0.894 -0.3298  0.7733  0.3183
  246MOL0     C33847   3.780   0.918  -0.968 -0.8604  0.2442 -0.1860
  246MOL0     C33848   3.845   0.783  -0.993  0.9627 -0.6252 -0.3547
  246MOL0     C33849   3.789   0.694  -1.099  0.0891 -0.6402  0.5195
  246MOL0     C33850   3.735   0.772  -1.226  0.3644  0.8811  0.1529
  246MOL0     C33851   3.715   0.673  -1.350 -0.4424 -0.9703  0.0001
  246MOL0     C33852   3.608   0.575  -1.329  0.6482  0.6112 -0.3815
  246MOL0     C33853   3.467   0.632  -1.343 -0.5362 -0.3177  0.1055
  246MOL0     C33854   3.361   0.527  -1.322 -0.3054  0.3076  0.7128
  246MOL0    Cl33855   3.213   0.584  -1.408 -0.2521 -0.2220 -0.4416
  246MOL0     C33856   3.849   1.064  -0.671 -0.6552 -0.6552  0.6855
  246MOL0     C33857   3.788   1.138  -0.572 -0.4907 -0.5259 -0.6548
  246MOL0     O33858   3.554   1.118  -0.383  0.8842  0.5785  0.6879
  246MOL0     C33859   3.407   1.268  -0.201  0.0515 -0.0039 -0.0891
  246MOL0     C33860   3.326   1.345  -0.115 -0.6071  0.3538 -0.5732
  246MOL0     N33861   2.779   1.665   0.419  0.2733  0.2951 -0.2570
  246MOL0     N33862   2.667   1.608   0.444  0.3066 -0.5549  0.2279
  246MOL0     C33863   1.702   1.005   0.443  0.2836 -0.3810 -0.0003
  246MOL0     C33864   1.583   0.927   0.474 -1.3877 -0.5398 -0.8277
  246MOL0     C33865   1.147   0.770   0.532 -0.6345  0.3497  0.2687
  246MOL0     C33866   1.215   0.650   0.538 -0.7855  0.2050 -0.0953
  246MOL0     C33867   1.154   0.521   0.533 -0.6860 -1.2556 -0.4098
  246MOL0     C33868   1.018   0.512   0.539 -0.4136  0.8655  0.8485
  246MOL0     O33869   0.968   0.379   0.553 -0.2621  0.7158  0.1633
  246MOL0     C33870   0.834   0.376   0.590 -0.5509  0.3417  0.2031
  246MOL0     C33871   0.797   0.234   0.612  1.0743 -0.0201  0.6238
  246MOL0     C33872   0.669   0.229   0.696  0.9502  1.2445  0.5083
  246MOL0     C33873   0.601   0.090   0.700  0.0894  0.7847  1.0005
  246MOL0     C33874   0.545   0.055   0.565 -0.0879  0.3772 -0.6101
  246MOL0     C33875   0.504   0.033   0.444  0.1324 -0.6277 -0.3914
  246MOL0     C33876   0.941   0.632   0.526 -0.9204 -0.1784 -0.1991
  246MOL0     C33877   1.005   0.759   0.521 -0.4717  0.5758 -0.5040
  246MOL0     C33878   0.922   0.867   0.514  0.0045 -0.6355  1.1552
  246MOL0     H33879   1.340   1.086   0.336 -0.0259 -1.2728 -1.7954
  246MOL0     H33880   1.515   1.238   0.275 -1.0667  0.9107  0.9079
  246MOL0     H33881   1.804   1.341   0.190 -1.6814  0.0044  0.7838
  246MOL0     H33882   1.712   1.202   0.140 -1.0766 -1.9785  0.3728
  246MOL0     H33883   1.911   1.067   0.095  2.0681 -0.0284 -0.9004
  246MOL0     H33884   1.939   1.217   0.018  1.7888  0.6928  0.5709
  246MOL0     H33885   2.065   1.288   0.238 -1.7213 -1.2147  0.9295
  246MOL0     H33886   2.070   1.123   0.294  1.6600  0.0106  0.7469
  246MOL0     H33887   2.169   1.051   0.069  2.1366  0.4965 -1.4380
  246MOL0     H33888   2.183   1.226   0.029 -0.8867 -0.3265 -0.2134
  246MOL0     H33889   2.398   1.139   0.103  0.6000 -0.5599  0.5236
  246MOL0     H33890   2.336   1.100   0.260  2.5359  0.0850 -0.5161
  246MOL0     H33891   2.355   1.358   0.119  2.8639  0.7890  0.3575
  246MOL0     H33892   2.270   1.329   0.279 -0.8809  1.2676 -1.5530
  246MOL0     H33893   2.568   1.255   0.241 -0.4506 -4.0159  1.0229
  246MOL0     H33894   2.475   1.254   0.389 -0.0057  2.5326  1.7000
  246MOL0     H33895   2.487   1.496   0.227  1.6192 -1.5411 -0.8565
  246MOL0     H33896   2.441   1.481   0.400 -1.1608  1.1583 -0.8440
  246MOL0     H33897   2.757   1.431   0.189 -2.4533  1.6175 -1.8441
  246MOL0     H33898   3.052   1.592   0.324  1.7339  1.4103 -0.7006
  246MOL0     H33899   2.984   1.747   0.320 -0.9732 -0.1968  0.3050
  246MOL0     H33900   2.961   1.558   0.085 -2.3821  0.0252  0.1305
  246MOL0     H33901   2.915   1.726   0.082  0.7362 -0.8134 -0.3715
  246MOL0     H33902   3.120   1.809   0.084 -2.1317 -0.3858 -1.3402
  246MOL0     H33903   3.200   1.672   0.167 -0.5322 -0.5991  1.0453
  246MOL0     H33904   3.092   1.681  -0.117 -0.1187  5.1485  1.6124
  246MOL0     H33905   3.260   1.718  -0.074 -0.6108  1.1365  1.2348
  246MOL0     H33906   3.318   1.635  -0.277 -0.5815 -0.4036 -1.9799
  246MOL0     H33907   3.523   1.549  -0.502 -0.4413  1.2931  0.1068
  246MOL0     H33908   3.365   1.618  -0.482  2.0002  1.2450  0.8454
  246MOL0     H33909   3.388   1.453  -0.562  3.3088 -1.3189  0.2371
  246MOL0     H33910   3.549   1.304  -0.745 -2.6516 -2.8670 -1.4141
  246MOL0     H33911   3.656   1.168  -0.937  1.9435 -1.4462  0.7062
  246MOL0     H33912   3.691   0.889  -0.912 -0.2217  0.5204  1.0149
  246MOL0     H33913   3.760   0.981  -1.055  0.3864  0.8422 -0.0558
  246MOL0     H33914   3.945   0.810  -1.028  0.7165 -1.1233 -1.4620
  246MOL0     H33915   3.840   0.731  -0.896 -1.1864  2.0378  1.1051
  246MOL0     H33916   3.696   0.647  -1.065 -0.5681  0.8847  0.9505
  246MOL0     H33917   3.860   0.615  -1.122  3.1784  2.2575 -0.7936
  246MOL0     H33918   3.810   0.841  -1.265  2.6090 -0.9552  1.0089
  246MOL0     H33919   3.651   0.837  -1.201  0.0102  1.1639 -1.6431
  246MOL0     H33920   3.692   0.731  -1.440  1.7574 -0.2995 -0.1734
  246MOL0     H33921   3.810   0.628  -1.378  0.3427 -0.5260  1.7840
  246MOL0     H33922   3.622   0.522  -1.234 -0.0798 -1.1737 -1.2236
  246MOL0     H33923   3.610   0.496  -1.405  2.3424 -1.7343  1.9315
  246MOL0     H33924   3.462   0.670  -1.445  2.5060  2.7824  0.9316
  246MOL0     H33925   3.457   0.711  -1.268 -0.7461 -0.7427  0.5341
  246MOL0     H33926   3.338   0.512  -1.216 -0.7202  0.1698  0.6066
  246MOL0     H33927   3.392   0.436  -1.374 -1.0517  1.8027 -2.6449
  246MOL0     H33928   3.933   0.995  -0.671  0.7065  0.7519 -3.1350
  246MOL0     H33929   3.823   1.141  -0.469 -1.0986 -0.2419 -0.4517
  246MOL0     H33930   3.434   1.167  -0.172  2.0215 -0.2798 -2.5298
  246MOL0     H33931   3.293   1.303  -0.021 -0.6588 -0.7913 -1.0912
  246MOL0     H33932   1.800   0.987   0.486  0.2645 -0.5639 -0.0328
  246MOL0     H33933   1.605   0.841   0.537 -2.9728  1.2281  2.3506
  246MOL0     H33934   1.322   0.642   0.554 -0.8564  0.6301  0.6017
  246MOL0     H33935   1.210   0.429   0.536 -0.9426 -1.3900  1.7330
  246MOL0     H33936   0.821   0.440   0.678 -0.0068  1.4936 -0.5361
  246MOL0     H33937   0.772   0.409   0.506 -1.5762 -1.0040  0.3956
  246MOL0     H33938   0.885   0.186   0.658  1.0017 -2.1213 -1.2463
  246MOL0     H33939   0.782   0.185   0.516 -1.3454  0.9983  0.4311
  246MOL0     H33940   0.683   0.273   0.795 -1.4109  1.7182  0.7072
  246MOL0     H33941   0.593   0.295   0.654  0.6493  0.0800 -0.8605
  246MOL0     H33942   0.526   0.096   0.780  0.4054 -1.9926  1.5981
  246MOL0     H33943   0.668   0.013   0.738 -0.0302  0.7587  1.1599
  246MOL0     H33944   0.473   0.016   0.343  0.7082  2.9344 -1.2942
  246MOL0     H33945   0.833   0.626   0.518 -0.6923 -3.9131 -2.8809
  246MOL0     H33946   0.952   0.924   0.426  1.3590 -0.1873  1.8873
  246MOL0     H33947   0.816   0.840   0.503  0.2164 -0.7687 -0.8624
  246MOL0     H33948   0.938   0.945   0.589  1.1330  1.5488 -1.1906
  247MOL0     O33949   7.634   1.294   0.155  0.0477 -0.3805 -0.2176
  247MOL0     C33950   7.596   1.320   0.042  0.3432  0.4935  0.1647
  247MOL0     O33951   7.480   1.277  -0.010 -0.5239 -0.2329 -0.1992
  247MOL0     C33952   7.380   1.208   0.052 -0.0818 -0.0066 -0.2010
  247MOL0     C33953   7.261   1.193  -0.022  1.6997  0.1326 -0.7617
  247MOL0     C33954   7.142   1.137   0.034 -0.1575 -0.4126 -1.0532
  247MOL0     C33955   7.140   1.097   0.171  0.0255 -0.1368 -0.0889
  247MOL0     O33956   7.020   1.062   0.219  0.7874  0.8751 -0.0515
  247MOL0     C33957   7.006   1.076   0.356  0.6221 -0.1569  0.6170
  247MOL0     C33958   6.856   1.119   0.395  0.3687  0.2094  0.2345
  247MOL0     C33959   6.816   1.242   0.305  1.0107  0.5908  0.4489
  247MOL0     C33960   6.724   1.203   0.185  0.3346  0.0904 -0.0564
  247MOL0     C33961   6.656   1.332   0.130  0.3960  0.1286  0.5171
  247MOL0     C33962   6.526   1.366   0.217 -0.7132 -0.1303  0.0653
  247MOL0     C33963   6.432   1.441   0.136 -0.7565 -0.2460  0.8589
  247MOL0     C33964   6.298   1.456   0.211 -0.0901 -0.1040 -0.4365
  247MOL0     N33965   6.182   1.532   0.149 -0.1726 -1.1789 -0.7045
  247MOL0     C33966   6.203   1.614   0.037  0.1184 -0.4301 -0.0985
  247MOL0     C33967   6.072   1.640   0.000  0.2735  0.0824 -0.9154
  247MOL0     C33968   6.021   1.731  -0.103 -0.0429 -0.6106 -0.1462
  247MOL0     C33969   6.059   1.878  -0.052 -0.0318  0.2770 -0.6934
  247MOL0     C33970   5.995   1.918   0.079  0.0024  0.6340 -0.9949
  247MOL0     C33971   6.026   2.069   0.112 -0.0988  0.2912 -0.3474
  247MOL0     O33972   6.172   2.088   0.143 -0.1195  0.4066 -0.7331
  247MOL0     C33973   6.268   2.134   0.060  0.0634  0.3760  0.4079
  247MOL0     C33974   6.255   2.185  -0.068 -0.5870  1.0573  0.6027
  247MOL0     C33975   6.364   2.219  -0.151 -0.3701 -1.0130  0.1634
  247MOL0     C33976   6.338   2.252  -0.299 -0.4753  0.0318 -0.4807
  247MOL0     C33977   6.497   2.226  -0.094  1.1074  0.9284  0.2663
  247MOL0     C33978   6.610   2.259  -0.172  0.2741  0.5403  0.7847
  247MOL0     O33979   6.713   2.310  -0.096 -0.1185  0.4243  0.0534
  247MOL0     C33980   6.826   2.378  -0.155  0.0380 -0.3709 -0.6324
  247MOL0     C33981   6.964   2.340  -0.119  0.4696 -0.5174 -0.0717
  247MOL0     C33982   7.074   2.402  -0.185 -0.2667 -0.8963  0.3431
  247MOL0     C33983   7.053   2.493  -0.282 -0.7230 -0.3109  0.4286
  247MOL0     O33984   7.161   2.546  -0.342  0.8714 -0.9935 -0.5261
  247MOL0     C33985   7.304   2.506  -0.310  0.1014 -0.1181  1.2915
  247MOL0     C33986   7.402   2.593  -0.407  0.8287  0.1447 -0.3289
  247MOL0     C33987   7.545   2.537  -0.409 -0.5570  0.0571 -0.1944
  247MOL0     C33988   7.621   2.613  -0.517  0.5891  0.6528  0.0279
  247MOL0     C33989   7.599   2.549  -0.660  0.8455 -0.2459 -0.1299
  247MOL0     C33990   7.657   2.633  -0.765 -0.7526  0.0679  1.2540
  247MOL0     C33991   7.666   2.555  -0.900 -0.0115  0.1493 -0.0121
  247MOL0     C33992   7.762   2.618  -1.007  0.4229  0.8015 -0.1395
  247MOL0    Cl33993   7.915   2.696  -0.962 -0.8259 -0.0672 -0.6352
  247MOL0     C33994   6.917   2.530  -0.318 -0.5189 -0.6850  1.2343
  247MOL0     C33995   6.806   2.470  -0.257 -0.2741 -0.1244 -0.1172
  247MOL0     O33996   6.612   2.257  -0.294  0.1526 -0.3588 -0.6836
  247MOL0     C33997   6.511   2.177   0.044 -0.1773  0.0253  0.7351
  247MOL0     C33998   6.393   2.123   0.112 -0.0218  0.0562 -1.0938
  247MOL0     N33999   5.983   1.577   0.089  0.3135  0.0652  0.1798
  247MOL0     N34000   6.053   1.530   0.186 -0.5723  1.0746  0.7217
  247MOL0     C34001   7.264   1.101   0.244 -0.8301 -0.2546  0.0968
  247MOL0     C34002   7.372   1.163   0.188 -0.9925  0.1859  0.3306
  247MOL0     C34003   7.683   1.401  -0.047  0.5058  0.1459 -0.8975
  247MOL0     C34004   7.627   1.453  -0.163 -0.2654 -0.1993  0.2282
  247MOL0     C34005   7.696   1.529  -0.249 -0.0603 -0.8362  0.2810
  247MOL0     C34006   7.814   1.582  -0.214  0.3788  0.4520  1.4231
  247MOL0     O34007   7.866   1.670  -0.304 -0.1718 -0.3568  1.0837
  247MOL0     C34008   8.012   1.684  -0.317  0.3603 -0.1179 -0.7533
  247MOL0     C34009   8.053   1.797  -0.410  0.2363 -0.0207  0.1681
  247MOL0     C34010   8.091   1.931  -0.347 -0.6467  0.7128 -0.1210
  247MOL0     C34011   8.116   2.040  -0.453 -0.3174 -0.9533 -0.5262
  247MOL0     C34012   8.231   2.017  -0.526  0.1320  0.8076 -0.3444
  247MOL0     C34013   8.334   1.981  -0.575 -0.6557  0.7903  0.1582
  247MOL0     C34014   7.885   1.532  -0.100  0.2713  0.9771  0.6663
  247MOL0     C34015   7.818   1.439  -0.021  0.1789 -0.0472  1.0277
  247MOL0     C34016   7.906   1.382   0.088 -0.2175  0.4947  0.3963
  247MOL0     H34017   7.245   1.222  -0.125 -1.7482  1.0691 -0.0774
  247MOL0     H34018   7.049   1.120  -0.020 -1.5851  3.8178 -0.2658
  247MOL0     H34019   7.062   1.162   0.395  0.0084  1.1843 -1.3042
  247MOL0     H34020   7.042   0.988   0.409 -1.3424 -1.7061 -0.5154
  247MOL0     H34021   6.800   1.025   0.384  1.6002 -0.4902 -0.2747
  247MOL0     H34022   6.847   1.140   0.502  0.8066 -2.3609  0.8436
  247MOL0     H34023   6.763   1.317   0.363  1.3108  0.3437  1.0537
  247MOL0     H34024   6.900   1.296   0.261 -2.0809  2.6056 -3.6886
  247MOL0     H34025   6.784   1.152   0.109 -0.2937  0.7712 -1.0274
  247MOL0     H34026   6.648   1.133   0.221  0.8062  1.0653  3.2210
  247MOL0     H34027   6.625   1.310   0.028 -1.4982  1.7722  0.6767
  247MOL0     H34028   6.729   1.413   0.131 -0.7640  1.3177  4.0348
  247MOL0     H34029   6.475   1.275   0.249 -0.2562 -0.9040 -1.3355
  247MOL0     H34030   6.555   1.428   0.302  1.2593  2.2825 -2.1756
  247MOL0     H34031   6.422   1.393   0.038 -0.8754  2.5029 -0.5897
  247MOL0     H34032   6.473   1.540   0.114  1.4933 -1.5411 -1.3402
  247MOL0     H34033   6.261   1.354   0.224 -0.0701  0.1841  2.7117
  247MOL0     H34034   6.321   1.491   0.312  0.9421  0.9951 -1.0192
  247MOL0     H34035   6.294   1.639  -0.018 -1.1716  3.1832 -0.8709
  247MOL0     H34036   5.913   1.715  -0.107 -0.9071  3.4607  1.5856
  247MOL0     H34037   6.083   1.718  -0.192  0.0054  2.5372 -0.6982
  247MOL0     H34038   6.168   1.874  -0.043 -0.1719 -1.4596  0.6002
  247MOL0     H34039   6.034   1.946  -0.134 -0.1020  0.1798 -0.7515
  247MOL0     H34040   5.888   1.904   0.062  0.0164 -3.8112  0.9822
  247MOL0     H34041   6.017   1.869   0.175 -5.1442  3.1855  1.8695
  247MOL0     H34042   5.985   2.139   0.038 -3.0579  0.6612  1.4916
  247MOL0     H34043   5.959   2.088   0.196 -0.1060 -3.4905  0.6895
  247MOL0     H34044   6.160   2.160  -0.114 -0.8653 -0.2175  1.8099
  247MOL0     H34045   6.390   2.175  -0.355 -0.3997 -3.2972  3.6332
  247MOL0     H34046   6.374   2.354  -0.313  0.9422 -0.3107  0.4420
  247MOL0     H34047   6.234   2.241  -0.330 -0.3104  0.4723 -1.2092
  247MOL0     H34048   6.983   2.267  -0.041 -0.8025  0.5449  1.2935
  247MOL0     H34049   7.173   2.369  -0.156 -0.3401 -1.3357  0.1022
  247MOL0     H34050   7.324   2.536  -0.207  1.6791 -0.1837  1.0220
  247MOL0     H34051   7.327   2.400  -0.323  3.5046  0.4795  1.4911
  247MOL0     H34052   7.366   2.601  -0.510  1.5411  2.2771 -0.4693
  247MOL0     H34053   7.407   2.699  -0.379  0.4333  0.2314 -0.5711
  247MOL0     H34054   7.528   2.430  -0.426 -0.4265 -0.6323  3.3381
  247MOL0     H34055   7.594   2.564  -0.315 -2.7158  0.5262  0.8629
  247MOL0     H34056   7.728   2.620  -0.498  1.2120 -0.3662 -2.5727
  247MOL0     H34057   7.578   2.713  -0.524 -1.1309 -0.0408  0.1728
  247MOL0     H34058   7.654   2.454  -0.655  2.2427  0.5725  0.6974
  247MOL0     H34059   7.493   2.528  -0.680  0.9876 -1.1768  0.0366
  247MOL0     H34060   7.760   2.656  -0.738 -0.5865 -0.7558  1.3297
  247MOL0     H34061   7.610   2.731  -0.780  0.9062  0.6273 -0.6632
  247MOL0     H34062   7.565   2.562  -0.940 -0.7185 -2.7979  1.0678
  247MOL0     H34063   7.684   2.450  -0.877  0.3530 -0.3897 -2.4478
  247MOL0     H34064   7.702   2.698  -1.051  0.2295 -0.6931 -2.8079
  247MOL0     H34065   7.785   2.540  -1.081 -3.2204 -0.4658 -0.1453
  247MOL0     H34066   6.902   2.597  -0.402 -0.4991  0.2397  1.9523
  247MOL0     H34067   6.704   2.495  -0.285 -0.1467 -2.0367 -2.5508
  247MOL0     H34068   6.611   2.159   0.082  0.4665  3.5296  1.0125
  247MOL0     H34069   6.411   2.071   0.205  0.3154  1.9997 -0.0227
  247MOL0     H34070   7.270   1.059   0.344 -1.5210  1.0155  0.7059
  247MOL0     H34071   7.444   1.174   0.268 -0.9067 -1.0586  0.4373
  247MOL0     H34072   7.525   1.437  -0.196 -0.6553 -0.1487  1.3560
  247MOL0     H34073   7.644   1.556  -0.340 -1.2069 -1.9469  0.5741
  247MOL0     H34074   8.063   1.713  -0.224  1.4333  0.1806 -1.4119
  247MOL0     H34075   8.056   1.588  -0.346  3.0091  1.0055 -0.7759
  247MOL0     H34076   7.966   1.813  -0.474 -1.0325  0.0051  1.8362
  247MOL0     H34077   8.130   1.775  -0.485  1.1362  1.0565  0.7506
  247MOL0     H34078   8.010   1.949  -0.276  1.7868  2.6487  2.4074
  247MOL0     H34079   8.187   1.917  -0.296  1.0916 -1.1395 -3.5024
  247MOL0     H34080   8.131   2.137  -0.405 -1.5598 -0.0363 -1.9473
  247MOL0     H34081   8.030   2.044  -0.519  0.5019 -0.3942 -1.5846
  247MOL0     H34082   8.421   1.954  -0.632  1.6755 -1.1349  4.1391
  247MOL0     H34083   7.982   1.573  -0.078  0.7883  1.6833 -2.4332
  247MOL0     H34084   7.996   1.442   0.107  0.2246 -0.7006  2.3976
  247MOL0     H34085   7.860   1.369   0.187  0.3081 -3.2201  0.3286
  247MOL0     H34086   7.935   1.283   0.050  0.6551  0.0653  2.0246
  248MOL0     O34087   2.274   0.401   6.234 -0.1756 -0.0468  0.1266
  248MOL0     C34088   2.198   0.502   6.235 -0.7551  0.6421 -0.1120
  248MOL0     O34089   2.149   0.562   6.123 -1.2485  0.0184  0.3967
  248MOL0     C34090   2.203   0.523   6.001 -0.3925  0.1314  0.1227
  248MOL0     C34091   2.131   0.479   5.884  0.5461 -0.1069  0.9340
  248MOL0     C34092   2.194   0.475   5.756 -0.1249 -0.0751  0.1768
  248MOL0     C34093   2.318   0.531   5.730  0.0209  0.1734  0.5586
  248MOL0     O34094   2.358   0.515   5.602  0.4772  0.0442 -0.5242
  248MOL0     C34095   2.465   0.597   5.558 -0.6055 -0.3944 -0.2749
  248MOL0     C34096   2.415   0.704   5.460  0.8705 -0.0270  1.2399
  248MOL0     C34097   2.531   0.797   5.419 -0.0017  0.0134  0.3044
  248MOL0     C34098   2.503   0.877   5.283 -0.0844 -0.1752 -1.1230
  248MOL0     C34099   2.631   0.954   5.243  0.3301  0.7529 -0.3594
  248MOL0     C34100   2.670   0.919   5.097 -0.4680 -0.6989 -0.1448
  248MOL0     C34101   2.812   0.976   5.075 -0.8262 -0.9551  0.6177
  248MOL0     C34102   2.837   1.080   4.957 -0.1355  0.7159 -0.1534
  248MOL0     N34103   2.789   1.224   4.964 -0.0982  0.5147  0.3795
  248MOL0     C34104   2.856   1.320   5.034 -0.1847 -0.8471  0.2034
  248MOL0     C34105   2.778   1.428   5.028 -0.7456 -0.6944 -0.5828
  248MOL0     C34106   2.819   1.567   5.066 -1.0218  0.3745 -0.2750
  248MOL0     C34107   2.971   1.609   5.051  0.7980 -0.3958 -0.2130
  248MOL0     C34108   3.033   1.582   4.914  0.4733  0.2427 -0.2117
  248MOL0     C34109   3.155   1.669   4.899  0.5267  1.0293  0.0894
  248MOL0     O34110   3.256   1.605   4.979  0.3275  0.1780  0.1785
  248MOL0     C34111   3.290   1.472   4.965  0.3628  1.0904  0.8197
  248MOL0     C34112   3.291   1.386   5.067  0.1479  0.3203 -0.1040
  248MOL0     C34113   3.352   1.257   5.060  0.1891  0.4041  0.8505
  248MOL0     C34114   3.379   1.172   5.181  0.0982  1.0541 -0.1838
  248MOL0     C34115   3.404   1.212   4.935 -0.5364  0.5364 -0.4863
  248MOL0     C34116   3.469   1.085   4.906 -0.8801 -0.5242  1.0534
  248MOL0     O34117   3.566   1.092   4.816 -0.3605 -0.5368 -0.4523
  248MOL0     C34118   3.635   0.969   4.812 -0.5133 -0.8796  0.0246
  248MOL0     C34119   3.736   0.934   4.908 -0.2591  0.1020  0.3426
  248MOL0     C34120   3.814   0.814   4.879  0.3789 -0.1955 -0.4885
  248MOL0     C34121   3.786   0.735   4.760  0.6846 -0.1750 -0.1396
  248MOL0     O34122   3.860   0.623   4.724 -0.3558 -0.0515 -0.2597
  248MOL0     C34123   3.982   0.586   4.801  0.6526 -0.0226  0.4798
  248MOL0     C34124   4.074   0.487   4.721  0.1422  0.2896 -0.7343
  248MOL0     C34125   4.146   0.555   4.602  0.3601 -0.5335  1.3009
  248MOL0     C34126   4.268   0.478   4.552  0.5442  0.1963 -0.9197
  248MOL0     C34127   4.276   0.488   4.396  0.3399 -0.0073 -0.0895
  248MOL0     C34128   4.315   0.639   4.351 -0.4024  0.0361  0.1417
  248MOL0     C34129   4.363   0.642   4.215 -0.5393 -0.0839 -0.1371
  248MOL0     C34130   4.358   0.778   4.145 -0.0853  0.1598 -0.0720
  248MOL0    Cl34131   4.194   0.827   4.109  0.7011 -0.1001 -0.6250
  248MOL0     C34132   3.678   0.765   4.685  0.2800  1.3007  0.3520
  248MOL0     C34133   3.607   0.881   4.704  0.1917  0.5578  0.3854
  248MOL0     O34134   3.429   0.981   4.962 -0.1223 -0.4783 -0.1730
  248MOL0     C34135   3.394   1.295   4.831 -0.6953 -0.2540 -0.4172
  248MOL0     C34136   3.331   1.421   4.839  0.1919 -0.9596  0.1523
  248MOL0     N34137   2.662   1.392   4.951  0.0902 -0.4623  0.4309
  248MOL0     N34138   2.664   1.266   4.930 -0.8755  0.2152  0.6175
  248MOL0     C34139   2.396   0.578   5.845  0.9350 -0.3542 -0.4060
  248MOL0     C34140   2.341   0.560   5.974  0.2810 -1.0079 -0.6898
  248MOL0     C34141   2.143   0.556   6.363  1.2508 -0.2266  0.5661
  248MOL0     C34142   2.024   0.636   6.346  0.6493 -0.3516  0.1906
  248MOL0     C34143   1.953   0.682   6.457 -0.3135  0.2686 -0.2304
  248MOL0     C34144   2.002   0.659   6.585 -0.4103 -0.7306 -0.2610
  248MOL0     O34145   1.927   0.713   6.685  0.2288  0.1700 -0.1454
  248MOL0     C34146   1.989   0.769   6.792 -0.2288 -0.6592 -0.4971
  248MOL0     C34147   1.987   0.923   6.762 -0.0032  0.8130 -0.5063
  248MOL0     C34148   2.032   0.996   6.883 -0.4830  0.4696  0.7013
  248MOL0     C34149   2.181   0.989   6.912  0.1266 -1.4013 -0.4849
  248MOL0     C34150   2.265   1.066   6.820  0.2673 -1.1128 -0.3372
  248MOL0     C34151   2.331   1.117   6.727 -0.0435  0.1138 -0.0173
  248MOL0     C34152   2.120   0.580   6.609 -0.4757  0.6189  0.6215
  248MOL0     C34153   2.182   0.525   6.502 -0.3731 -0.4992 -0.1733
  248MOL0     C34154   2.325   0.465   6.532  0.0785 -0.2870 -1.0316
  248MOL0     H34155   2.036   0.428   5.897  1.2072 -1.6248  0.0236
  248MOL0     H34156   2.135   0.443   5.671  0.2605 -1.1634  0.3016
  248MOL0     H34157   2.544   0.538   5.510 -0.0334  0.4007 -0.3350
  248MOL0     H34158   2.516   0.651   5.639 -0.5404 -0.0554 -0.5408
  248MOL0     H34159   2.372   0.654   5.373 -0.8657  0.0754  1.9988
  248MOL0     H34160   2.335   0.765   5.504  0.9501  0.8886  0.1879
  248MOL0     H34161   2.547   0.871   5.498  1.2105  0.1505 -0.0596
  248MOL0     H34162   2.618   0.731   5.414  0.9124  1.0365  2.0567
  248MOL0     H34163   2.478   0.812   5.199 -1.6159 -1.4218  0.2292
  248MOL0     H34164   2.423   0.951   5.295  1.5410  1.1740  3.6691
  248MOL0     H34165   2.709   0.929   5.315 -0.0577  0.2972 -0.0897
  248MOL0     H34166   2.608   1.059   5.262  0.8291  0.2723  4.0023
  248MOL0     H34167   2.679   0.810   5.098  4.5667 -0.5385  1.7594
  248MOL0     H34168   2.604   0.949   5.015  1.0590 -0.7284 -1.4292
  248MOL0     H34169   2.874   0.896   5.034  1.0257  0.6896  0.0071
  248MOL0     H34170   2.863   1.023   5.160 -0.4540  1.1510 -0.6986
  248MOL0     H34171   2.946   1.087   4.953  0.0147 -1.4128 -1.5191
  248MOL0     H34172   2.818   1.049   4.854 -2.6401 -0.6290  0.6215
  248MOL0     H34173   2.960   1.309   5.060  0.5410 -4.0315 -3.1742
  248MOL0     H34174   2.793   1.573   5.172  0.3653  0.6567  0.0741
  248MOL0     H34175   2.768   1.642   5.006  0.8504  0.4896 -1.8230
  248MOL0     H34176   2.958   1.717   5.045 -0.4761 -0.5186  0.0604
  248MOL0     H34177   3.037   1.576   5.131  2.6953  3.6706  0.0950
  248MOL0     H34178   3.042   1.474   4.905 -0.2715  0.1055  0.5610
  248MOL0     H34179   2.956   1.619   4.846 -0.9407  1.3326  1.8604
  248MOL0     H34180   3.180   1.653   4.794 -0.6844 -2.7748  0.2304
  248MOL0     H34181   3.126   1.773   4.916 -0.7946  0.3565  2.4341
  248MOL0     H34182   3.243   1.420   5.158 -0.5375  0.9797 -0.7107
  248MOL0     H34183   3.324   1.217   5.265 -2.9035 -3.1126  0.4093
  248MOL0     H34184   3.485   1.171   5.206 -0.3758 -1.3840  2.3163
  248MOL0     H34185   3.330   1.075   5.164 -0.9230  1.8874 -2.3922
  248MOL0     H34186   3.762   1.000   4.990 -0.8852  3.7960 -2.1829
  248MOL0     H34187   3.884   0.783   4.956  0.8677  2.0085  0.0231
  248MOL0     H34188   4.038   0.673   4.836  0.9801 -0.6794  1.6600
  248MOL0     H34189   3.963   0.534   4.895  0.3056 -2.4485 -0.8454
  248MOL0     H34190   4.148   0.438   4.785 -0.8339 -2.3834 -1.5251
  248MOL0     H34191   4.011   0.401   4.697  0.7165 -0.4511  0.3016
  248MOL0     H34192   4.181   0.651   4.642 -0.9522  0.9675 -0.9604
  248MOL0     H34193   4.085   0.578   4.514  1.6366 -2.7598 -0.2831
  248MOL0     H34194   4.260   0.370   4.568  1.0557  0.4761  1.6757
  248MOL0     H34195   4.355   0.513   4.609 -0.4323 -1.9220  2.1405
  248MOL0     H34196   4.352   0.419   4.358 -1.7155 -3.2858  1.3528
  248MOL0     H34197   4.187   0.456   4.342  2.7400  0.1737 -4.6553
  248MOL0     H34198   4.405   0.674   4.401 -1.2090  0.9784  0.9628
  248MOL0     H34199   4.234   0.711   4.365  0.6821  1.1392  0.9117
  248MOL0     H34200   4.323   0.559   4.156 -0.1240  0.2484 -0.9045
  248MOL0     H34201   4.463   0.599   4.228 -1.1598 -1.0103  2.1873
  248MOL0     H34202   4.407   0.791   4.048  0.0688  3.3911  0.3101
  248MOL0     H34203   4.399   0.855   4.211  0.6114  1.1401 -1.5732
  248MOL0     H34204   3.648   0.708   4.598  4.3109  1.6862 -1.5117
  248MOL0     H34205   3.538   0.896   4.621  2.0766  1.0500 -1.1782
  248MOL0     H34206   3.427   1.272   4.730 -1.3007  2.8048 -1.4141
  248MOL0     H34207   3.329   1.496   4.761 -2.0331  1.1064  2.0142
  248MOL0     H34208   2.499   0.610   5.833 -0.0964  2.6116 -2.8976
  248MOL0     H34209   2.405   0.580   6.059 -0.5404 -0.1102 -0.2654
  248MOL0     H34210   1.983   0.654   6.247 -0.7238  0.1374  0.8197
  248MOL0     H34211   1.862   0.739   6.442 -0.2613  0.9090  1.7088
  248MOL0     H34212   1.931   0.750   6.883 -1.1739  0.0184 -0.9360
  248MOL0     H34213   2.092   0.737   6.807  1.2063  1.8592 -3.7420
  248MOL0     H34214   1.883   0.948   6.739 -0.5789 -1.7693 -1.0880
  248MOL0     H34215   2.048   0.949   6.675  0.4510 -1.9080 -1.1168
  248MOL0     H34216   1.998   1.097   6.861  0.6336  0.8989  0.8968
  248MOL0     H34217   1.976   0.962   6.971  0.1073 -2.9196 -0.0899
  248MOL0     H34218   2.202   0.881   6.917 -0.8277 -1.5965 -0.6406
  248MOL0     H34219   2.184   1.035   7.011  2.2693  2.6423 -2.1756
  248MOL0     H34220   2.391   1.152   6.646 -1.6779  2.1325 -0.4424
  248MOL0     H34221   2.161   0.569   6.709  3.1732  1.5185 -0.6264
  248MOL0     H34222   2.394   0.515   6.463 -1.1786  1.5959 -0.9988
  248MOL0     H34223   2.356   0.480   6.636 -1.5283  0.0247 -0.5686
  248MOL0     H34224   2.323   0.359   6.504 -1.1547 -0.0199 -2.0280
  249MOL0     O34225   8.813   3.042   0.944  0.4818  0.2957  0.3977
  249MOL0     C34226   8.887   3.091   1.024 -0.3455 -0.0692 -0.5846
  249MOL0     O34227   9.008   3.143   1.001  0.2515 -0.1891  0.8705
  249MOL0     C34228   9.067   3.137   0.879 -0.5043 -0.0420 -0.8384
  249MOL0     C34229   9.135   3.253   0.845  0.0987  0.7959 -0.2913
  249MOL0     C34230   9.205   3.256   0.716  0.3623  0.0465  0.0105
  249MOL0     C34231   9.213   3.143   0.641  0.5930  0.2779  0.0898
  249MOL0     O34232   9.290   3.158   0.534  0.1629 -0.2699 -0.8141
  249MOL0     C34233   9.328   3.039   0.460 -0.2941  0.2435 -0.3871
  249MOL0     C34234   9.404   3.106   0.335 -0.3294 -0.4075 -0.6265
  249MOL0     C34235   9.301   3.164   0.235 -0.3722 -0.1001  0.4237
  249MOL0     C34236   9.363   3.165   0.100  0.4247 -0.1509 -0.1507
  249MOL0     C34237   9.299   3.279   0.018 -0.2847  0.0279  0.2843
  249MOL0     C34238   9.353   3.273  -0.124 -0.5614 -0.2031  0.3369
  249MOL0     C34239   9.278   3.386  -0.195 -0.1581  0.3415 -0.1469
  249MOL0     C34240   9.309   3.399  -0.346  0.4315 -0.4725 -1.0067
  249MOL0     N34241   9.330   3.275  -0.422  0.0621 -0.4648  0.3942
  249MOL0     C34242   9.229   3.198  -0.469 -0.0991  0.5514  0.3554
  249MOL0     C34243   9.298   3.121  -0.556  0.2403 -0.3894 -0.5220
  249MOL0     C34244   9.246   3.012  -0.649  0.2032 -0.9220  0.0664
  249MOL0     C34245   9.198   3.059  -0.786  0.3720  0.5422  0.4927
  249MOL0     C34246   9.321   3.087  -0.878 -0.4404  0.1299 -0.5905
  249MOL0     C34247   9.282   3.125  -1.016  0.7892  1.2640  0.5100
  249MOL0     O34248   9.278   3.018  -1.117 -0.4076 -0.2740  0.0748
  249MOL0     C34249   9.288   3.063  -1.248 -0.0735 -0.4459 -0.4632
  249MOL0     C34250   9.237   3.185  -1.295  0.5546  0.3387  0.2098
  249MOL0     C34251   9.281   3.238  -1.416 -0.3725  0.3340 -0.7601
  249MOL0     C34252   9.215   3.374  -1.447  0.0886 -0.5753  0.5056
  249MOL0     C34253   9.376   3.164  -1.491  0.9220 -0.1728 -0.0666
  249MOL0     C34254   9.397   3.205  -1.632  0.3458 -0.8472  0.1338
  249MOL0     O34255   9.306   3.288  -1.698 -0.5873  0.6951 -0.1666
  249MOL0     C34256   9.326   3.334  -1.823  1.0049 -0.4806 -0.5980
  249MOL0     C34257   9.222   3.415  -1.855  0.1480  1.3898  0.8526
  249MOL0     C34258   9.201   3.460  -1.975 -0.1862  0.2933  1.0941
  249MOL0     C34259   9.284   3.427  -2.084  0.4481  0.1205  0.6435
  249MOL0     O34260   9.261   3.473  -2.212 -0.2110  0.0112 -0.1415
  249MOL0     C34261   9.194   3.385  -2.305 -0.1882 -0.4685 -0.0322
  249MOL0     C34262   9.055   3.436  -2.338  0.1596 -0.6410  0.1488
  249MOL0     C34263   9.003   3.319  -2.427  0.1012  0.8650  0.5845
  249MOL0     C34264   8.951   3.364  -2.567 -0.0296 -0.5222 -1.1195
  249MOL0     C34265   8.920   3.253  -2.665  0.4145  0.2138  0.1956
  249MOL0     C34266   8.809   3.162  -2.618 -0.2372 -0.5342 -0.3379
  249MOL0     C34267   8.673   3.235  -2.589  0.3722 -0.3161  0.8761
  249MOL0     C34268   8.559   3.142  -2.630  0.9897  0.3731 -0.1413
  249MOL0    Cl34269   8.440   3.229  -2.727 -0.2500  0.3244 -0.1358
  249MOL0     C34270   9.391   3.349  -2.056  0.0998  1.2250 -0.2182
  249MOL0     C34271   9.415   3.289  -1.932  0.5444 -0.1305 -0.3692
  249MOL0     O34272   9.489   3.150  -1.688 -0.4779 -0.9645 -0.3959
  249MOL0     C34273   9.431   3.049  -1.439 -1.0228  0.1441 -0.2331
  249MOL0     C34274   9.386   2.989  -1.327  0.7165  0.8378 -0.1907
  249MOL0     N34275   9.426   3.136  -0.540 -0.9823 -0.2928  0.3328
  249MOL0     N34276   9.451   3.235  -0.463 -0.2732  0.3919 -0.7046
  249MOL0     C34277   9.154   3.020   0.684  1.1671  0.0065 -0.6958
  249MOL0     C34278   9.076   3.023   0.799  0.8451  0.9364  0.3455
  249MOL0     C34279   8.846   3.089   1.170  0.6483  0.5636 -0.8445
  249MOL0     C34280   8.922   3.158   1.268  0.1308  0.0451 -0.3714
  249MOL0     C34281   8.872   3.170   1.403  0.4335 -0.2343  1.1060
  249MOL0     C34282   8.754   3.104   1.448 -0.7923 -0.5514  0.5299
  249MOL0     O34283   8.699   3.116   1.565  0.4445 -0.2262  0.3344
  249MOL0     C34284   8.738   3.200   1.669  1.3053 -0.3850 -1.2842
  249MOL0     C34285   8.780   3.124   1.797  0.8134 -0.2390  0.4553
  249MOL0     C34286   8.688   2.998   1.833 -0.7363  1.0742  0.0880
  249MOL0     C34287   8.544   3.014   1.884 -0.1604 -0.0710 -0.1058
  249MOL0     C34288   8.543   3.083   2.009 -0.3511 -0.0163 -0.0580
  249MOL0     C34289   8.523   3.130   2.122 -0.7539  0.0585 -0.7193
  249MOL0     C34290   8.684   3.046   1.344 -0.5901  0.4795 -0.1531
  249MOL0     C34291   8.718   3.036   1.213 -0.6418  0.1726 -0.6252
  249MOL0     C34292   8.613   2.967   1.126 -0.0181  0.0122 -0.1594
  249MOL0     H34293   9.121   3.341   0.906  0.1998  0.3988  0.3113
  249MOL0     H34294   9.254   3.348   0.683 -0.8116  0.0198 -1.9785
  249MOL0     H34295   9.245   2.976   0.428  0.2954 -1.3999  1.1760
  249MOL0     H34296   9.401   2.987   0.523 -2.0925 -2.3252 -0.3119
  249MOL0     H34297   9.469   3.183   0.376 -1.2092 -1.1047  2.3075
  249MOL0     H34298   9.477   3.038   0.290 -0.4564 -0.9712 -0.0025
  249MOL0     H34299   9.213   3.099   0.238 -1.4238  1.2205 -0.3243
  249MOL0     H34300   9.296   3.271   0.260  5.2292  1.1259 -1.9919
  249MOL0     H34301   9.469   3.192   0.103  0.1226  1.1072 -0.3342
  249MOL0     H34302   9.343   3.067   0.054  0.4934 -0.7220  1.0153
  249MOL0     H34303   9.342   3.367   0.067  1.0949 -2.4259  3.8730
  249MOL0     H34304   9.190   3.282   0.012 -0.1890  1.7402 -2.2661
  249MOL0     H34305   9.461   3.274  -0.139 -0.3279  0.5732  1.8507
  249MOL0     H34306   9.320   3.177  -0.165  1.3720 -0.6354 -0.3089
  249MOL0     H34307   9.283   3.484  -0.146  1.1435 -0.7907  2.1232
  249MOL0     H34308   9.171   3.363  -0.203  0.3420 -1.4484 -3.1920
  249MOL0     H34309   9.231   3.461  -0.392  1.4774  1.1187 -0.7108
  249MOL0     H34310   9.399   3.457  -0.369  1.1177 -1.3629 -0.6290
  249MOL0     H34311   9.122   3.198  -0.449  0.3486  0.7663  3.0113
  249MOL0     H34312   9.165   2.958  -0.600  0.8259 -0.5686  1.5427
  249MOL0     H34313   9.327   2.944  -0.676  1.0934 -0.2417  0.9618
  249MOL0     H34314   9.119   2.995  -0.824  1.1904 -0.1899 -0.0150
  249MOL0     H34315   9.146   3.154  -0.772  1.4405  1.4917 -1.5295
  249MOL0     H34316   9.382   3.167  -0.836 -2.9409  1.1737  1.3416
  249MOL0     H34317   9.378   2.994  -0.881  0.6770  0.7656  0.0288
  249MOL0     H34318   9.178   3.157  -1.011  0.3616  1.7235 -4.8515
  249MOL0     H34319   9.336   3.210  -1.059  0.7257  0.5761 -0.9948
  249MOL0     H34320   9.165   3.245  -1.241 -0.8516 -1.3510  0.2944
  249MOL0     H34321   9.290   3.450  -1.473  0.1172 -0.8208 -0.1380
  249MOL0     H34322   9.157   3.409  -1.361  0.2864 -0.8752  0.7615
  249MOL0     H34323   9.141   3.365  -1.527  0.7843  2.6225 -0.6554
  249MOL0     H34324   9.162   3.442  -1.769 -0.5870  0.2653  0.7085
  249MOL0     H34325   9.116   3.526  -1.989 -0.8483 -1.0276 -1.9118
  249MOL0     H34326   9.247   3.386  -2.401 -0.1358 -2.2860 -0.0563
  249MOL0     H34327   9.191   3.281  -2.271  0.0557 -0.1402  1.0347
  249MOL0     H34328   8.993   3.444  -2.248 -2.4671 -2.1803 -1.4135
  249MOL0     H34329   9.074   3.532  -2.388 -0.7826 -0.8708 -0.6780
  249MOL0     H34330   8.923   3.273  -2.368  0.6313  2.1455  2.4034
  249MOL0     H34331   9.084   3.248  -2.445  1.4567  2.8339 -1.6687
  249MOL0     H34332   9.023   3.432  -2.613  2.4935 -2.2161  0.1106
  249MOL0     H34333   8.856   3.414  -2.547 -0.5707 -1.5442 -1.0878
  249MOL0     H34334   8.897   3.299  -2.762  3.2282  1.9334  0.2362
  249MOL0     H34335   9.008   3.192  -2.687  0.4190  0.4217 -0.3655
  249MOL0     H34336   8.841   3.113  -2.525 -5.2210 -0.5915  1.6350
  249MOL0     H34337   8.796   3.088  -2.697 -3.5070 -1.2909  0.7567
  249MOL0     H34338   8.680   3.317  -2.661 -1.8121 -1.6772 -0.9930
  249MOL0     H34339   8.667   3.290  -2.494 -0.4484 -0.3115  0.8293
  249MOL0     H34340   8.506   3.103  -2.543 -0.3390 -0.3294 -1.2397
  249MOL0     H34341   8.601   3.058  -2.685  2.4330  1.4794 -0.7992
  249MOL0     H34342   9.463   3.328  -2.134 -1.7459 -1.2044 -1.4082
  249MOL0     H34343   9.493   3.213  -1.925 -1.6878 -2.3969  2.0160
  249MOL0     H34344   9.507   2.991  -1.492 -3.4005 -3.1457 -0.3171
  249MOL0     H34345   9.437   2.900  -1.291  1.3405  1.3615  0.2404
  249MOL0     H34346   9.163   2.924   0.633 -2.1745  0.0368 -1.5828
  249MOL0     H34347   9.033   2.925   0.817 -3.3644  1.9257 -2.5496
  249MOL0     H34348   9.017   3.203   1.239  0.0278 -0.6294 -1.8166
  249MOL0     H34349   8.943   3.215   1.472 -0.1083 -0.7569  2.0167
  249MOL0     H34350   8.818   3.270   1.643 -0.1909  1.8545 -0.2582
  249MOL0     H34351   8.651   3.257   1.705  1.8590 -0.8945  1.0010
  249MOL0     H34352   8.779   3.194   1.882  0.6917  3.2572 -2.1747
  249MOL0     H34353   8.881   3.087   1.777  0.4788 -0.0977 -1.8296
  249MOL0     H34354   8.684   2.935   1.744 -0.8756 -2.7991  2.6029
  249MOL0     H34355   8.738   2.931   1.902  0.1049 -1.0988 -2.4723
  249MOL0     H34356   8.497   2.916   1.895  2.9820 -1.9240 -1.7670
  249MOL0     H34357   8.486   3.074   1.813 -3.7987 -1.3237  1.5767
  249MOL0     H34358   8.525   3.176   2.219 -0.3961 -0.4385 -0.4869
  249MOL0     H34359   8.586   3.012   1.378 -0.4021 -0.0494 -0.1304
  249MOL0     H34360   8.537   2.926   1.193  0.4263  1.1632  1.1069
  249MOL0     H34361   8.557   3.037   1.064 -2.5242 -2.1039 -0.4674
  249MOL0     H34362   8.655   2.880   1.074  2.3034 -0.5276  2.3437
  250MOL0     O34363   3.419   6.046   2.939  0.0312  0.2158 -0.4395
  250MOL0     C34364   3.382   6.123   3.024 -0.8803 -0.3273  0.5556
  250MOL0     O34365   3.251   6.145   3.069  0.6800  0.3947 -0.0687
  250MOL0     C34366   3.162   6.074   2.996 -0.2418  1.7851 -0.6674
  250MOL0     C34367   3.086   5.977   3.071  0.1618 -0.2318  0.2276
  250MOL0     C34368   3.007   5.881   2.998  0.2462 -0.2685  0.2947
  250MOL0     C34369   2.991   5.885   2.862  0.3427 -1.2822  0.2771
  250MOL0     O34370   2.888   5.800   2.808  0.6900  0.8534  0.1430
  250MOL0     C34371   2.828   5.834   2.678 -0.3062  0.1827  0.2652
  250MOL0     C34372   2.712   5.741   2.629  0.6377  1.2457  0.3617
  250MOL0     C34373   2.753   5.587   2.644 -0.5196 -0.0469 -0.2816
  250MOL0     C34374   2.630   5.503   2.614  0.6392 -0.7407  0.5773
  250MOL0     C34375   2.665   5.354   2.604  0.3789 -0.6392  1.2530
  250MOL0     C34376   2.552   5.260   2.588 -0.1564  0.2355 -0.6954
  250MOL0     C34377   2.508   5.211   2.730  0.1296 -0.1494  0.8346
  250MOL0     C34378   2.423   5.082   2.719  1.6215 -0.0415 -0.0080
  250MOL0     N34379   2.313   5.072   2.616  0.2847  0.3393  0.1283
  250MOL0     C34380   2.313   5.025   2.489 -0.1020  0.2169 -0.1407
  250MOL0     C34381   2.189   5.052   2.433  0.1026  0.5287  0.2363
  250MOL0     C34382   2.146   4.998   2.302  0.2870 -0.1506  0.4080
  250MOL0     C34383   2.079   4.854   2.306  0.3201  0.6081  0.0326
  250MOL0     C34384   2.033   4.773   2.181 -0.2634 -0.3261  0.0813
  250MOL0     C34385   1.898   4.821   2.119 -0.7722  0.4716  0.2613
  250MOL0     O34386   1.926   4.952   2.051  0.4648 -0.1291 -0.7368
  250MOL0     C34387   1.831   5.050   2.058 -0.2214 -1.1415 -0.1612
  250MOL0     C34388   1.760   5.096   1.950  0.7156  0.9212  0.0321
  250MOL0     C34389   1.677   5.208   1.951  0.6189 -0.0736  0.1652
  250MOL0     C34390   1.641   5.264   1.816 -0.0290  0.7781 -0.2704
  250MOL0     C34391   1.628   5.253   2.076 -0.5568  0.2485  0.6905
  250MOL0     C34392   1.516   5.346   2.099 -0.3756  0.1586 -0.4791
  250MOL0     O34393   1.490   5.392   2.227 -0.5882 -0.6591  0.0617
  250MOL0     C34394   1.378   5.464   2.261  1.0486  0.8281 -0.3588
  250MOL0     C34395   1.325   5.428   2.387 -0.2345 -0.4027 -0.2183
  250MOL0     C34396   1.213   5.489   2.434 -0.0111  0.9303  0.4944
  250MOL0     C34397   1.150   5.592   2.362 -0.8848 -0.1002 -0.2396
  250MOL0     O34398   1.051   5.674   2.405  0.2653  0.3040  0.0000
  250MOL0     C34399   0.954   5.708   2.311 -0.5274  0.4741 -0.1307
  250MOL0     C34400   0.824   5.680   2.382  0.0610 -0.1001 -0.1455
  250MOL0     C34401   0.806   5.534   2.432  0.8676  0.1310 -1.3799
  250MOL0     C34402   0.682   5.522   2.524 -0.3734  0.2562 -0.0748
  250MOL0     C34403   0.715   5.429   2.643 -0.3233 -0.1871 -0.2577
  250MOL0     C34404   0.602   5.412   2.745  0.0456 -0.6320 -0.1065
  250MOL0     C34405   0.477   5.330   2.684  0.2078  0.1022  1.4984
  250MOL0     C34406   0.355   5.334   2.769 -0.6912 -0.2761  0.7505
  250MOL0    Cl34407   0.401   5.235   2.914  0.4053  0.5639 -0.2335
  250MOL0     C34408   1.224   5.644   2.248 -0.0336 -0.5482 -0.7222
  250MOL0     C34409   1.322   5.568   2.188  0.8530 -0.2389  1.0312
  250MOL0     O34410   1.449   5.373   2.008 -0.0114 -0.6818 -0.4219
  250MOL0     C34411   1.694   5.200   2.193 -0.2359 -0.2475  0.5193
  250MOL0     C34412   1.791   5.109   2.184  0.3865 -0.1170  0.5440
  250MOL0     N34413   2.118   5.122   2.519  0.1640 -0.1172  1.1889
  250MOL0     N34414   2.185   5.128   2.628  0.2912 -0.5079 -0.3617
  250MOL0     C34415   3.070   5.979   2.791 -0.2106 -0.2661 -0.0320
  250MOL0     C34416   3.148   6.068   2.856 -0.0296 -1.3157 -0.0209
  250MOL0     C34417   3.482   6.197   3.096  0.7369 -0.7920  0.3990
  250MOL0     C34418   3.451   6.335   3.132 -0.0095 -0.3337  0.6545
  250MOL0     C34419   3.554   6.420   3.172  0.2612  0.2522  0.0833
  250MOL0     C34420   3.676   6.372   3.209  0.0700  0.9494 -0.3462
  250MOL0     O34421   3.766   6.455   3.264 -0.1265 -0.1971  0.2183
  250MOL0     C34422   3.904   6.445   3.226  0.6226 -0.6428 -0.1024
  250MOL0     C34423   3.983   6.563   3.284  0.5722  0.3795 -0.0186
  250MOL0     C34424   4.138   6.548   3.254 -1.0473  0.2854  0.3112
  250MOL0     C34425   4.214   6.666   3.317 -0.2492  0.1667  0.5052
  250MOL0     C34426   4.201   6.794   3.254  0.3281  0.0980 -0.2130
  250MOL0     C34427   4.191   6.897   3.197  1.0589 -0.3975 -0.5497
  250MOL0     C34428   3.695   6.233   3.194  0.1020  0.4541 -0.0294
  250MOL0     C34429   3.600   6.147   3.139  0.5247  0.3645 -0.0480
  250MOL0     C34430   3.646   6.004   3.115 -0.5295 -0.2201  0.0304
  250MOL0     H34431   3.098   5.972   3.178  1.5620  0.8466  0.1520
  250MOL0     H34432   2.945   5.813   3.055 -2.1028  1.0848 -0.5203
  250MOL0     H34433   2.907   5.830   2.603  1.3255  1.3202  1.8549
  250MOL0     H34434   2.792   5.936   2.689 -0.6147  0.1050 -0.0143
  250MOL0     H34435   2.621   5.766   2.684 -2.4718 -0.0584 -3.6931
  250MOL0     H34436   2.681   5.768   2.528 -0.1778 -0.1459  0.2164
  250MOL0     H34437   2.834   5.556   2.578 -0.0251 -1.2910  0.8794
  250MOL0     H34438   2.778   5.553   2.745 -1.4593 -0.7011 -0.2534
  250MOL0     H34439   2.565   5.508   2.702  4.5966  1.7635  3.7166
  250MOL0     H34440   2.582   5.527   2.519 -1.1491 -2.2423  1.0266
  250MOL0     H34441   2.730   5.329   2.689  1.9061  2.0947  1.0181
  250MOL0     H34442   2.730   5.335   2.518 -3.0108 -1.7612 -1.2810
  250MOL0     H34443   2.467   5.311   2.540 -0.4734  2.8003  2.1960
  250MOL0     H34444   2.600   5.184   2.527 -0.8015  0.2411 -1.2227
  250MOL0     H34445   2.441   5.284   2.777 -1.9321  0.4283 -2.6732
  250MOL0     H34446   2.597   5.181   2.788  0.4548  0.1058  0.4685
  250MOL0     H34447   2.486   4.996   2.697 -0.7808 -1.7057 -0.7691
  250MOL0     H34448   2.365   5.065   2.811  0.4204  2.4767 -0.2047
  250MOL0     H34449   2.395   4.961   2.459  0.3807  0.0331  1.4548
  250MOL0     H34450   2.225   4.991   2.227 -1.2922 -3.3284 -1.1594
  250MOL0     H34451   2.071   5.070   2.266  0.9798  1.2223  1.6334
  250MOL0     H34452   2.150   4.779   2.342  1.6857  1.2447 -1.2011
  250MOL0     H34453   2.000   4.869   2.379  0.3084  0.6357  0.0137
  250MOL0     H34454   2.108   4.782   2.102 -1.0981  2.4982 -0.4920
  250MOL0     H34455   2.013   4.669   2.208  1.9655 -1.4514 -2.1694
  250MOL0     H34456   1.868   4.749   2.042  0.0141  1.0074 -0.5814
  250MOL0     H34457   1.819   4.827   2.194 -0.6797 -0.8448  0.4942
  250MOL0     H34458   1.791   5.044   1.860 -3.1746 -3.1407  0.7189
  250MOL0     H34459   1.699   5.234   1.728 -1.0103  0.0391 -0.6764
  250MOL0     H34460   1.652   5.373   1.817  2.5160  0.5910  0.5527
  250MOL0     H34461   1.535   5.248   1.797 -1.2779  5.6571  1.0743
  250MOL0     H34462   1.379   5.365   2.456  1.5737  2.0245  0.7398
  250MOL0     H34463   1.172   5.456   2.529 -1.1035  1.7322  0.3209
  250MOL0     H34464   0.951   5.811   2.276 -3.3637 -0.1160 -1.8634
  250MOL0     H34465   0.965   5.658   2.215  1.1204  0.9742 -0.2365
  250MOL0     H34466   0.815   5.751   2.464  0.2060 -0.4844  0.2052
  250MOL0     H34467   0.739   5.703   2.317 -1.6764 -0.4595  1.8926
  250MOL0     H34468   0.894   5.499   2.486  1.1806  3.0520  0.2562
  250MOL0     H34469   0.794   5.470   2.344 -3.7121 -1.8366  0.3893
  250MOL0     H34470   0.601   5.468   2.475  1.7085 -3.6383  0.3721
  250MOL0     H34471   0.649   5.619   2.560  1.9439  0.5438  1.4937
  250MOL0     H34472   0.744   5.333   2.600 -0.5027 -1.3006  1.9190
  250MOL0     H34473   0.801   5.466   2.701  1.0744  0.1187 -2.4231
  250MOL0     H34474   0.573   5.513   2.776 -0.1939 -0.8069  0.2580
  250MOL0     H34475   0.624   5.343   2.827  2.5647 -1.6683 -1.5548
  250MOL0     H34476   0.502   5.225   2.668  2.3369  0.4745  2.0227
  250MOL0     H34477   0.459   5.369   2.584 -2.2856 -0.8401  1.5041
  250MOL0     H34478   0.264   5.306   2.714 -1.2695 -0.6650  1.8718
  250MOL0     H34479   0.334   5.438   2.796 -2.1983  0.2672 -2.0786
  250MOL0     H34480   1.188   5.734   2.200 -1.0152 -1.0880 -1.0386
  250MOL0     H34481   1.362   5.598   2.092 -0.4573  2.1592  1.1816
  250MOL0     H34482   1.676   5.236   2.294  1.7002  1.9139  0.1745
  250MOL0     H34483   1.839   5.063   2.270  0.4205 -0.4365  0.3572
  250MOL0     H34484   3.072   5.982   2.683 -1.2125 -2.3765 -0.1508
  250MOL0     H34485   3.207   6.146   2.810 -0.3989 -0.3898  1.0631
  250MOL0     H34486   3.344   6.357   3.137  0.5194  2.9141 -0.2407
  250MOL0     H34487   3.528   6.523   3.196  1.4492  1.3297 -2.8335
  250MOL0     H34488   3.955   6.355   3.260  0.9564 -1.7690 -3.1877
  250MOL0     H34489   3.896   6.439   3.117  1.4516 -0.3272 -0.1817
  250MOL0     H34490   3.957   6.556   3.390  1.2821  1.8503  0.2680
  250MOL0     H34491   3.945   6.661   3.253  0.6642  0.2727 -0.4788
  250MOL0     H34492   4.182   6.452   3.281  0.7425  1.0982  0.4529
  250MOL0     H34493   4.159   6.546   3.147 -1.2602  2.1076  0.2043
  250MOL0     H34494   4.317   6.633   3.302 -0.2404  1.0032 -1.7287
  250MOL0     H34495   4.198   6.660   3.425 -0.5030  3.4568  0.7577
  250MOL0     H34496   4.189   7.002   3.176 -2.2254 -0.5067 -1.3934
  250MOL0     H34497   3.792   6.193   3.222  1.2196  1.7411 -1.8549
  250MOL0     H34498   3.714   6.004   3.030  0.1017  1.6508  0.4781
  250MOL0     H34499   3.703   5.955   3.194 -1.6331 -1.7447 -0.0696
  250MOL0     H34500   3.566   5.936   3.086  0.2553 -1.2221  0.1867
  251MOL0     O34501   3.501   1.347   3.337  0.1169  0.0666  0.3399
  251MOL0     C34502   3.443   1.432   3.264 -0.2844 -1.1510  1.2122
  251MOL0     O34503   3.521   1.523   3.197  0.2339  0.3174 -0.0607
  251MOL0     C34504   3.658   1.507   3.178 -0.3340 -0.1384  0.3686
  251MOL0     C34505   3.712   1.518   3.049  0.4636 -0.1552 -0.3900
  251MOL0     C34506   3.846   1.513   3.030 -0.3560 -0.1165  0.1895
  251MOL0     C34507   3.935   1.494   3.141  1.1673  0.3649 -0.1636
  251MOL0     O34508   4.067   1.474   3.123  0.6094 -0.9679 -0.2231
  251MOL0     C34509   4.110   1.435   2.996  0.7799  0.5885  0.7669
  251MOL0     C34510   4.246   1.360   3.011  0.4793 -0.5440  0.2134
  251MOL0     C34511   4.344   1.434   3.106 -0.7261 -0.4320 -0.6061
  251MOL0     C34512   4.495   1.387   3.112  0.7907  0.3399 -1.0317
  251MOL0     C34513   4.533   1.242   3.144  0.2820  0.4138 -0.2289
  251MOL0     C34514   4.466   1.195   3.277 -0.1818  0.4912 -0.6686
  251MOL0     C34515   4.537   1.070   3.324  0.5297 -0.9757 -0.0279
  251MOL0     C34516   4.496   1.039   3.467  0.7612 -0.7929  0.7968
  251MOL0     N34517   4.610   0.956   3.520 -0.1577 -0.0960  0.3471
  251MOL0     C34518   4.722   1.011   3.585  0.9136  0.5306  0.1674
  251MOL0     C34519   4.797   0.904   3.629  0.2578 -0.0513  0.6585
  251MOL0     C34520   4.932   0.907   3.710 -0.1073  0.0897  0.7810
  251MOL0     C34521   5.001   0.772   3.698 -0.4781 -0.9015 -0.7770
  251MOL0     C34522   5.148   0.789   3.765  0.9577 -0.4747 -0.1622
  251MOL0     C34523   5.212   0.646   3.766 -0.3717  0.1385 -0.6679
  251MOL0     O34524   5.343   0.676   3.820 -0.3067 -0.0854 -0.8548
  251MOL0     C34525   5.449   0.618   3.751  0.3463 -0.1758  0.1497
  251MOL0     C34526   5.494   0.651   3.621  0.3156 -0.5251  0.7127
  251MOL0     C34527   5.588   0.572   3.553 -0.2051 -0.9176 -0.7285
  251MOL0     C34528   5.607   0.617   3.403  0.0301  0.7483 -1.0397
  251MOL0     C34529   5.653   0.468   3.628 -0.1913  0.2539  0.5266
  251MOL0     C34530   5.743   0.376   3.554 -1.1629 -1.2588 -0.0128
  251MOL0     O34531   5.769   0.403   3.416  0.5246  0.5941 -0.6916
  251MOL0     C34532   5.820   0.302   3.336  1.2049 -0.8540 -0.3103
  251MOL0     C34533   5.925   0.339   3.245  0.0284  0.6074 -0.5750
  251MOL0     C34534   5.988   0.238   3.172 -0.1713 -0.1841  0.9624
  251MOL0     C34535   5.937   0.110   3.166  0.0552 -0.4038 -0.1375
  251MOL0     O34536   6.017   0.019   3.094 -0.2461 -0.0810  0.0977
  251MOL0     C34537   5.982  -0.112   3.120 -0.3329 -0.0869 -1.1985
  251MOL0     C34538   6.053  -0.204   3.029 -0.7529  0.0989  0.2950
  251MOL0     C34539   6.195  -0.233   3.073 -0.4936  0.8391 -0.3255
  251MOL0     C34540   6.292  -0.307   2.989  1.2285  0.1824 -0.3756
  251MOL0     C34541   6.328  -0.224   2.862 -0.0427 -0.3835  0.8721
  251MOL0     C34542   6.479  -0.210   2.831  0.1153  0.8579  0.3696
  251MOL0     C34543   6.513  -0.064   2.796  1.1582  1.2872  0.0585
  251MOL0     C34544   6.652  -0.050   2.754 -0.2739 -0.3869 -0.9429
  251MOL0    Cl34545   6.776  -0.087   2.895 -0.5403 -0.2158  0.1751
  251MOL0     C34546   5.816   0.087   3.238  0.7424 -0.4639 -0.5951
  251MOL0     C34547   5.759   0.183   3.318  0.7825  0.1033  0.7312
  251MOL0     O34548   5.790   0.282   3.619 -0.1216 -0.0962 -0.2622
  251MOL0     C34549   5.615   0.442   3.762  0.1337 -0.3301 -0.3411
  251MOL0     C34550   5.509   0.513   3.819 -1.2073  0.4706  0.8547
  251MOL0     N34551   4.727   0.791   3.592 -0.1127 -0.5436  0.9336
  251MOL0     N34552   4.615   0.823   3.534  0.1486  0.3238 -0.0162
  251MOL0     C34553   3.880   1.491   3.268  0.0224 -0.1379  0.4591
  251MOL0     C34554   3.744   1.511   3.290 -0.2540 -0.3222  1.0310
  251MOL0     C34555   3.295   1.460   3.271 -0.3654  0.3125  0.9387
  251MOL0     C34556   3.247   1.593   3.259  0.4257 -0.2936  0.1294
  251MOL0     C34557   3.113   1.615   3.256 -0.3003  0.5084  1.5296
  251MOL0     C34558   3.019   1.515   3.282 -0.1936  0.4335 -0.4708
  251MOL0     O34559   2.889   1.557   3.288 -0.2244  0.2238  0.7893
  251MOL0     C34560   2.780   1.468   3.349  0.5477  0.8706  0.5518
  251MOL0     C34561   2.682   1.427   3.233 -0.4128  1.1314 -0.2171
  251MOL0     C34562   2.580   1.313   3.272 -0.0580  0.1037  0.0303
  251MOL0     C34563   2.452   1.338   3.364 -0.2138  0.0192  0.3742
  251MOL0     C34564   2.359   1.425   3.298  0.4704 -0.2736 -0.1855
  251MOL0     C34565   2.269   1.491   3.256 -0.3569 -0.7136  0.3583
  251MOL0     C34566   3.072   1.380   3.284  0.5778  0.2953  0.9900
  251MOL0     C34567   3.206   1.355   3.282  0.2921 -0.1249 -0.0085
  251MOL0     C34568   3.237   1.213   3.264 -0.2443 -0.7563 -0.5558
  251MOL0     H34569   3.642   1.528   2.967  1.7196  1.9605 -1.2861
  251MOL0     H34570   3.872   1.536   2.927 -1.3945  1.2355  0.2035
  251MOL0     H34571   4.113   1.528   2.938 -1.1428 -1.2827 -2.6353
  251MOL0     H34572   4.033   1.373   2.950 -1.5301  2.0232  2.4643
  251MOL0     H34573   4.238   1.254   3.039  2.2656 -0.2025  2.2670
  251MOL0     H34574   4.295   1.355   2.913  2.8986 -2.2481  1.3928
  251MOL0     H34575   4.338   1.538   3.073  2.1099  0.3457  1.0240
  251MOL0     H34576   4.308   1.435   3.209  0.2583 -1.8055 -0.2166
  251MOL0     H34577   4.548   1.417   3.021  1.3032  0.9478 -0.5400
  251MOL0     H34578   4.543   1.453   3.185 -1.9018 -0.0271  1.2422
  251MOL0     H34579   4.641   1.238   3.156  0.4705  0.7684 -1.6771
  251MOL0     H34580   4.513   1.178   3.058 -0.4172  2.3006 -1.5404
  251MOL0     H34581   4.469   1.267   3.359  2.0591 -0.2661 -0.0121
  251MOL0     H34582   4.364   1.167   3.248  0.4479 -0.0514 -2.4932
  251MOL0     H34583   4.644   1.093   3.316  0.3728 -0.6961 -1.8150
  251MOL0     H34584   4.515   0.977   3.272 -2.3722  0.2938 -1.2612
  251MOL0     H34585   4.472   1.133   3.516 -0.8356 -1.1563  0.7712
  251MOL0     H34586   4.403   0.983   3.453  0.1720  0.9401 -3.5385
  251MOL0     H34587   4.747   1.115   3.603 -1.8879  1.5797 -1.4004
  251MOL0     H34588   4.911   0.934   3.814  0.2487  3.5910  0.0877
  251MOL0     H34589   4.987   0.985   3.655  0.2628 -0.5998  0.1570
  251MOL0     H34590   4.946   0.690   3.746  1.3659 -1.2390  0.8563
  251MOL0     H34591   5.009   0.743   3.593 -1.4255 -2.6479 -0.4114
  251MOL0     H34592   5.204   0.857   3.700  1.7770  1.0198  1.9964
  251MOL0     H34593   5.150   0.819   3.871  1.4940 -1.5615  0.1419
  251MOL0     H34594   5.173   0.565   3.829  3.0069 -1.9910 -1.0612
  251MOL0     H34595   5.214   0.601   3.666 -1.0028  0.1614 -0.6953
  251MOL0     H34596   5.435   0.730   3.576  0.1264  0.4400  2.5752
  251MOL0     H34597   5.534   0.694   3.376 -1.3505 -0.0708  0.1562
  251MOL0     H34598   5.583   0.528   3.344 -3.8530  0.3464  0.8176
  251MOL0     H34599   5.704   0.665   3.389 -0.1404  0.7117 -2.5140
  251MOL0     H34600   5.974   0.436   3.246 -0.0073  0.6953  2.2314
  251MOL0     H34601   6.082   0.264   3.124 -1.2282 -1.4237 -2.0301
  251MOL0     H34602   6.002  -0.136   3.225 -5.5469  1.0497  0.3253
  251MOL0     H34603   5.875  -0.132   3.111 -0.8655  1.2543  1.3949
  251MOL0     H34604   6.014  -0.306   3.032 -0.0267 -0.1651  1.1540
  251MOL0     H34605   6.051  -0.158   2.930  0.2519  0.9815  0.6562
  251MOL0     H34606   6.173  -0.295   3.161  1.4294 -2.2162 -1.7992
  251MOL0     H34607   6.248  -0.142   3.101  1.8592 -0.2081 -1.0893
  251MOL0     H34608   6.247  -0.395   2.941  0.7368 -0.8392  1.8086
  251MOL0     H34609   6.379  -0.339   3.047 -1.0483 -1.5342  2.3789
  251MOL0     H34610   6.277  -0.267   2.776  0.5582 -3.2335  1.8347
  251MOL0     H34611   6.301  -0.118   2.856  3.8228  0.7170 -4.4358
  251MOL0     H34612   6.510  -0.269   2.745  0.7437  1.1983  0.3499
  251MOL0     H34613   6.532  -0.263   2.911 -0.8202 -0.5401  0.0959
  251MOL0     H34614   6.503  -0.005   2.888 -0.0083 -0.0709  0.8488
  251MOL0     H34615   6.447  -0.037   2.713  1.1883  0.7048 -0.1559
  251MOL0     H34616   6.658   0.046   2.701 -2.8729  0.5823  0.3351
  251MOL0     H34617   6.671  -0.124   2.676  0.2813 -0.6002 -0.6051
  251MOL0     H34618   5.768  -0.011   3.236 -3.1347  1.2142  0.4635
  251MOL0     H34619   5.657   0.163   3.351  1.6397 -2.2189  2.2876
  251MOL0     H34620   5.655   0.354   3.811 -0.5115 -1.1954 -1.3311
  251MOL0     H34621   5.472   0.475   3.914  0.1487 -2.1351  0.4386
  251MOL0     H34622   3.949   1.463   3.347  0.5311  2.8911  1.2331
  251MOL0     H34623   3.698   1.544   3.383 -3.4472  1.5610 -1.0137
  251MOL0     H34624   3.310   1.681   3.252  0.3617 -0.2353  0.2651
  251MOL0     H34625   3.087   1.718   3.236 -0.0597  0.6017  1.6856
  251MOL0     H34626   2.825   1.373   3.379 -3.2658 -0.9626  1.0162
  251MOL0     H34627   2.726   1.506   3.437 -3.4449 -1.3018 -0.7063
  251MOL0     H34628   2.736   1.388   3.147  0.0289  1.4163 -0.0688
  251MOL0     H34629   2.620   1.513   3.203 -1.0895  0.5985 -0.3791
  251MOL0     H34630   2.536   1.282   3.177 -2.4871  0.6699  0.8958
  251MOL0     H34631   2.626   1.225   3.318  0.9622  0.8163  0.4161
  251MOL0     H34632   2.493   1.385   3.454  2.6046  1.1574 -1.3653
  251MOL0     H34633   2.408   1.239   3.376  0.5476 -0.7666 -2.5249
  251MOL0     H34634   2.182   1.553   3.243  0.9641  0.9994 -0.7006
  251MOL0     H34635   3.005   1.295   3.284  0.8412  0.0854  0.6328
  251MOL0     H34636   3.336   1.195   3.220 -0.6638  1.2205 -2.4867
  251MOL0     H34637   3.249   1.156   3.357 -3.9311  0.5940  0.9258
  251MOL0     H34638   3.161   1.170   3.199 -0.1698 -2.0581  0.1897
  252MOL0     O34639   0.166   0.602   2.583 -0.0993  0.0638  0.4686
  252MOL0     C34640   0.074   0.678   2.553  0.0723  0.9480 -0.1197
  252MOL0     O34641   0.006   0.748   2.643 -0.1312  0.1900  0.7126
  252MOL0     C34642   0.016   0.729   2.784 -0.0731 -0.5526  0.1685
  252MOL0     C34643   0.061   0.840   2.858 -0.0940 -0.0217 -0.1058
  252MOL0     C34644   0.070   0.828   3.002 -0.3030  0.0113 -0.1822
  252MOL0     C34645   0.017   0.710   3.066 -0.6636 -0.1069 -0.6818
  252MOL0     O34646   0.007   0.709   3.208  0.5014  0.3600  0.2940
  252MOL0     C34647  -0.113   0.645   3.272  0.0815  0.6217 -0.9215
  252MOL0     C34648  -0.249   0.680   3.211  0.5746 -0.2269 -0.5524
  252MOL0     C34649  -0.265   0.836   3.198  0.2521  0.3233  0.6532
  252MOL0     C34650  -0.290   0.920   3.326 -0.0356 -0.5530 -0.4539
  252MOL0     C34651  -0.323   1.064   3.287 -0.8205 -0.7681  0.0101
  252MOL0     C34652  -0.207   1.143   3.230  0.9262 -0.2076 -0.2631
  252MOL0     C34653  -0.258   1.291   3.235  0.4648 -0.1287  0.4618
  252MOL0     C34654  -0.192   1.362   3.124  0.3266 -0.9423  0.4842
  252MOL0     N34655  -0.072   1.427   3.178  0.5289 -0.1782 -0.1930
  252MOL0     C34656  -0.071   1.562   3.210  0.6459 -0.9803  0.2353
  252MOL0     C34657   0.054   1.580   3.253 -0.0660  0.3175 -0.9328
  252MOL0     C34658   0.114   1.709   3.315  0.2771 -0.7793  0.3928
  252MOL0     C34659   0.039   1.838   3.287 -1.1466 -0.3744  0.7542
  252MOL0     C34660   0.116   1.954   3.354  0.5180  0.1336  0.2013
  252MOL0     C34661   0.109   1.947   3.506 -0.1675  0.6501 -0.8818
  252MOL0     O34662  -0.028   1.935   3.543  0.2117  0.6324 -0.0499
  252MOL0     C34663  -0.060   1.907   3.673  0.1703 -0.1330 -0.3811
  252MOL0     C34664  -0.200   1.892   3.704 -0.6183  0.8240 -0.2077
  252MOL0     C34665  -0.241   1.850   3.827  0.5329 -1.9360  0.0942
  252MOL0     C34666  -0.387   1.834   3.832 -0.4355  0.1195  0.3431
  252MOL0     C34667  -0.149   1.849   3.937 -0.0076  0.8491  1.0272
  252MOL0     C34668  -0.192   1.832   4.083 -0.0521  0.3569  0.9409
  252MOL0     O34669  -0.322   1.786   4.097 -1.1355  0.0933  0.0827
  252MOL0     C34670  -0.377   1.752   4.220  0.2307  0.1026  0.2936
  252MOL0     C34671  -0.313   1.715   4.336 -1.2107 -0.6049  0.4928
  252MOL0     C34672  -0.369   1.695   4.467  0.4265 -0.6100 -0.0014
  252MOL0     C34673  -0.505   1.713   4.477  0.2781  0.0390 -0.0237
  252MOL0     O34674  -0.582   1.715   4.591 -0.0550  0.4799  0.1779
  252MOL0     C34675  -0.512   1.689   4.715 -0.3508  0.2970 -0.0833
  252MOL0     C34676  -0.604   1.676   4.842  0.4200  0.8323  0.1464
  252MOL0     C34677  -0.524   1.617   4.960  0.9366 -0.1076  0.7025
  252MOL0     C34678  -0.393   1.692   5.001  0.3131 -0.2742  0.7974
  252MOL0     C34679  -0.335   1.632   5.128  0.3580  0.7859  0.2950
  252MOL0     C34680  -0.212   1.708   5.181 -0.3246 -0.8757 -0.6866
  252MOL0     C34681  -0.173   1.675   5.330  0.4062 -0.7273  0.5270
  252MOL0     C34682  -0.268   1.726   5.427 -0.4756 -0.0165 -0.3793
  252MOL0    Cl34683  -0.205   1.691   5.584 -0.4592 -0.1973 -0.0173
  252MOL0     C34684  -0.571   1.740   4.366 -0.2135  0.2456  0.3324
  252MOL0     C34685  -0.514   1.763   4.241  0.5200  0.1105 -0.0841
  252MOL0     O34686  -0.122   1.862   4.172  0.0902  0.0802 -0.5146
  252MOL0     C34687  -0.015   1.883   3.908  0.3512  0.4461 -0.4274
  252MOL0     C34688   0.038   1.910   3.779 -0.4941  0.7840  0.1509
  252MOL0     N34689   0.124   1.462   3.235 -0.2698 -0.0143 -0.1050
  252MOL0     N34690   0.044   1.370   3.193  0.0339  0.0870 -0.2266
  252MOL0     C34691  -0.013   0.602   2.987 -0.7093 -0.4955  0.4717
  252MOL0     C34692  -0.020   0.611   2.846 -0.9596 -0.5434 -0.6553
  252MOL0     C34693   0.046   0.700   2.411  0.6246 -0.7214 -0.2170
  252MOL0     C34694  -0.065   0.775   2.375  0.6751  1.4924 -0.0838
  252MOL0     C34695  -0.099   0.816   2.243 -0.5256 -1.0273  0.5674
  252MOL0     C34696   0.000   0.780   2.141 -0.1315 -0.5044  0.2942
  252MOL0     O34697  -0.044   0.819   2.023 -0.1339  0.6139  0.3366
  252MOL0     C34698   0.048   0.819   1.914  0.6848 -0.4473 -0.0715
  252MOL0     C34699  -0.026   0.742   1.798 -0.1987  0.4032  0.0149
  252MOL0     C34700   0.038   0.619   1.726  0.1784  0.0980 -0.2190
  252MOL0     C34701   0.080   0.501   1.813  0.5766  0.0097 -0.0881
  252MOL0     C34702   0.096   0.368   1.743 -0.6085  0.1072 -0.2741
  252MOL0     C34703   0.139   0.267   1.692  0.2144  0.0469  0.3195
  252MOL0     C34704   0.107   0.701   2.171 -1.5281  0.0568  0.3098
  252MOL0     C34705   0.133   0.662   2.309 -0.0323  0.4846  0.4179
  252MOL0     C34706   0.271   0.583   2.313  0.2695  0.5326 -0.2923
  252MOL0     H34707   0.094   0.929   2.806  1.6243 -0.9493 -0.6812
  252MOL0     H34708   0.077   0.924   3.053 -1.6427  0.0363 -0.0197
  252MOL0     H34709  -0.095   0.656   3.380  1.2035 -0.5438 -0.9619
  252MOL0     H34710  -0.095   0.540   3.248  1.3710  0.9397 -1.4737
  252MOL0     H34711  -0.245   0.641   3.109  0.4981 -0.0210 -0.6338
  252MOL0     H34712  -0.334   0.637   3.266 -0.4484 -0.6436 -2.3628
  252MOL0     H34713  -0.179   0.875   3.143 -0.7989  0.5517 -0.8847
  252MOL0     H34714  -0.354   0.866   3.143 -0.2563 -2.4237 -0.1724
  252MOL0     H34715  -0.383   0.880   3.369 -0.4257  2.9661  2.4619
  252MOL0     H34716  -0.217   0.917   3.408  1.3413  0.1824 -1.6139
  252MOL0     H34717  -0.336   1.101   3.389 -0.7873 -0.1801 -0.1895
  252MOL0     H34718  -0.404   1.064   3.214 -0.6433  0.6793 -0.2314
  252MOL0     H34719  -0.123   1.118   3.296 -0.1434 -1.3529  0.7081
  252MOL0     H34720  -0.171   1.103   3.135  2.2036 -1.4264  0.6830
  252MOL0     H34721  -0.246   1.349   3.327  1.8258  0.5427 -0.1054
  252MOL0     H34722  -0.363   1.299   3.206  0.9065 -1.3767 -1.7012
  252MOL0     H34723  -0.153   1.305   3.040  0.4583 -2.1081  1.3226
  252MOL0     H34724  -0.254   1.438   3.075  4.1238  1.9573 -0.3190
  252MOL0     H34725  -0.144   1.642   3.223  1.7341  0.7593 -3.0225
  252MOL0     H34726   0.217   1.722   3.281  0.4167 -1.5563  0.5135
  252MOL0     H34727   0.125   1.696   3.423 -1.0641  3.1828  1.1715
  252MOL0     H34728   0.027   1.851   3.179 -1.7299  0.3621  0.8933
  252MOL0     H34729  -0.067   1.835   3.313 -1.6445  1.3190 -0.8269
  252MOL0     H34730   0.216   1.939   3.314  0.9269 -2.9056  2.0096
  252MOL0     H34731   0.071   2.049   3.326  0.4298  0.6422  1.9656
  252MOL0     H34732   0.163   1.864   3.551  0.1267  1.2537 -0.1044
  252MOL0     H34733   0.138   2.045   3.544 -2.4769  1.2344 -0.4402
  252MOL0     H34734  -0.271   1.914   3.625 -2.2966  0.1857  1.0515
  252MOL0     H34735  -0.443   1.871   3.745 -1.7123 -0.9284  0.6750
  252MOL0     H34736  -0.435   1.895   3.909 -1.6728 -0.1490 -0.1816
  252MOL0     H34737  -0.414   1.729   3.851 -0.8231 -0.1185 -1.2933
  252MOL0     H34738  -0.205   1.708   4.324 -1.1139  0.6336  0.5951
  252MOL0     H34739  -0.312   1.666   4.555 -1.2145 -0.1543  1.2697
  252MOL0     H34740  -0.462   1.593   4.702 -1.6382 -0.5388  0.8674
  252MOL0     H34741  -0.441   1.772   4.722 -0.5214  0.3850  0.6731
  252MOL0     H34742  -0.651   1.770   4.872  1.7192  1.6027 -0.1129
  252MOL0     H34743  -0.686   1.605   4.829 -0.5218  1.6413  1.3875
  252MOL0     H34744  -0.488   1.517   4.934 -0.9812 -0.6167 -0.1998
  252MOL0     H34745  -0.590   1.609   5.046 -0.7940  0.0139 -0.5618
  252MOL0     H34746  -0.420   1.795   5.026 -0.4266 -0.2407 -0.1051
  252MOL0     H34747  -0.331   1.694   4.911  0.2037  1.1739  0.7399
  252MOL0     H34748  -0.409   1.638   5.209  0.8415  1.2591  0.7076
  252MOL0     H34749  -0.312   1.526   5.118  0.5918  0.5998  2.3828
  252MOL0     H34750  -0.229   1.816   5.170 -0.6327 -0.8657 -0.1520
  252MOL0     H34751  -0.117   1.698   5.127  0.8467  5.9200 -0.7381
  252MOL0     H34752  -0.079   1.727   5.345  0.0161  0.6155 -1.2631
  252MOL0     H34753  -0.176   1.567   5.348 -0.0781 -0.6936  0.6682
  252MOL0     H34754  -0.369   1.686   5.412 -0.7550 -1.3766  3.8038
  252MOL0     H34755  -0.262   1.835   5.421  1.5291  0.0087  1.0431
  252MOL0     H34756  -0.679   1.735   4.375 -0.3599 -0.5224 -1.4409
  252MOL0     H34757  -0.577   1.775   4.154  0.9309  1.1178 -0.2581
  252MOL0     H34758   0.060   1.862   3.983  1.5178  0.0958 -1.6433
  252MOL0     H34759   0.141   1.940   3.768 -1.1006  4.2710  2.3997
  252MOL0     H34760  -0.046   0.506   3.026 -2.4231  0.2218  0.8335
  252MOL0     H34761  -0.056   0.524   2.792 -1.3662 -1.4011  0.9242
  252MOL0     H34762  -0.142   0.793   2.449 -0.6716 -3.5966  0.1329
  252MOL0     H34763  -0.195   0.861   2.219 -0.8840  0.7241  4.5335
  252MOL0     H34764   0.072   0.922   1.886  2.2347 -0.5147  0.8537
  252MOL0     H34765   0.141   0.765   1.935 -0.9400 -3.3859  0.1655
  252MOL0     H34766  -0.022   0.819   1.720 -1.2992  0.2266 -0.2219
  252MOL0     H34767  -0.128   0.719   1.830 -0.2538  0.8407  0.1467
  252MOL0     H34768  -0.031   0.578   1.652  3.0112 -1.7827 -2.0397
  252MOL0     H34769   0.123   0.650   1.665  1.9584  1.6334  2.7617
  252MOL0     H34770   0.006   0.493   1.894  0.4492  0.7453 -0.1263
  252MOL0     H34771   0.176   0.522   1.861  0.8346 -1.4532  0.1009
  252MOL0     H34772   0.167   0.180   1.635 -2.2121  0.3254 -1.4224
  252MOL0     H34773   0.172   0.651   2.100  1.4274 -0.7600  3.3482
  252MOL0     H34774   0.358   0.639   2.346  1.0301  1.0390 -2.9080
  252MOL0     H34775   0.259   0.486   2.363 -0.8122 -1.6870 -4.3534
  252MOL0     H34776   0.299   0.551   2.212  0.6070 -1.5071  0.3917
  253MOL0     O34777  10.837   2.738   5.846  0.1273 -0.2136 -0.1575
  253MOL0     C34778  10.920   2.822   5.815  0.0182  0.2286 -0.0367
  253MOL0     O34779  10.895   2.956   5.813  0.2576  0.8083  0.6321
  253MOL0     C34780  10.767   3.004   5.799 -0.0283 -0.4718 -1.5211
  253MOL0     C34781  10.661   2.951   5.716  0.0726 -0.5852  0.4067
  253MOL0     C34782  10.539   3.009   5.697 -0.0110 -0.3722  0.4397
  253MOL0     C34783  10.518   3.120   5.778 -0.1551 -1.1419  0.1598
  253MOL0     O34784  10.398   3.181   5.765 -0.1742  0.3052  0.3672
  253MOL0     C34785  10.386   3.323   5.781  0.5887 -0.0510 -0.6524
  253MOL0     C34786  10.245   3.365   5.727  0.1718  0.1591 -0.2831
  253MOL0     C34787  10.203   3.298   5.589  0.6525 -0.9873  1.1537
  253MOL0     C34788  10.131   3.166   5.603  0.5475  0.8246  0.1405
  253MOL0     C34789  10.084   3.104   5.469 -0.8393  0.8913  0.7112
  253MOL0     C34790  10.182   3.000   5.397  0.9442  0.5242  0.8836
  253MOL0     C34791  10.113   2.976   5.261  0.0410 -0.4553  0.0682
  253MOL0     C34792   9.995   2.882   5.280  0.1631  0.1118  0.2194
  253MOL0     N34793   9.939   2.860   5.144 -0.5773 -0.3147 -0.3624
  253MOL0     C34794   9.839   2.916   5.084 -0.3939  0.4908  1.0011
  253MOL0     C34795   9.842   2.866   4.954 -0.5025  0.1275 -0.4821
  253MOL0     C34796   9.761   2.916   4.831  0.2834 -0.5181 -0.7474
  253MOL0     C34797   9.647   2.820   4.779  0.8058  0.1935  0.0723
  253MOL0     C34798   9.691   2.691   4.706  0.2869  0.1451 -0.3870
  253MOL0     C34799   9.568   2.616   4.668 -0.9785  0.4474  0.0672
  253MOL0     O34800   9.618   2.486   4.624 -0.6012  0.0321 -0.6174
  253MOL0     C34801   9.540   2.379   4.612  0.2629 -0.1165  0.5643
  253MOL0     C34802   9.407   2.396   4.580 -0.3898  0.1188 -0.7622
  253MOL0     C34803   9.327   2.286   4.551 -0.7716 -0.4569  0.4791
  253MOL0     C34804   9.177   2.312   4.525 -0.5611  0.4520 -0.5600
  253MOL0     C34805   9.381   2.155   4.567  0.1044 -0.1852 -0.4133
  253MOL0     C34806   9.321   2.029   4.535  0.4842  0.3013  0.6979
  253MOL0     O34807   9.185   2.025   4.554  0.3754 -0.0559 -0.1368
  253MOL0     C34808   9.100   1.952   4.477  0.2987 -1.1145  1.0418
  253MOL0     C34809   8.960   1.944   4.508  0.0347  0.2654 -0.4533
  253MOL0     C34810   8.865   1.864   4.441 -0.1601 -0.4279  1.0901
  253MOL0     C34811   8.890   1.804   4.311 -0.1671 -0.3707 -0.4301
  253MOL0     O34812   8.800   1.735   4.237  0.2350 -0.4891  0.2556
  253MOL0     C34813   8.776   1.792   4.107  0.2499  0.7132  0.9721
  253MOL0     C34814   8.710   1.934   4.104 -0.8771 -0.5437  0.8528
  253MOL0     C34815   8.570   1.937   4.159 -0.1211  0.0914  0.4676
  253MOL0     C34816   8.545   2.061   4.245  0.6119  0.5138 -0.5025
  253MOL0     C34817   8.405   2.039   4.302  0.0537  0.0392 -0.1249
  253MOL0     C34818   8.346   2.159   4.364 -0.4344  0.6350 -0.0272
  253MOL0     C34819   8.219   2.127   4.450  0.6348 -0.2127  1.2068
  253MOL0     C34820   8.101   2.221   4.423 -0.2870 -0.2152 -0.1252
  253MOL0    Cl34821   8.123   2.385   4.496  0.2194 -0.1735 -0.1397
  253MOL0     C34822   9.031   1.799   4.277  1.0397  0.6044  0.3571
  253MOL0     C34823   9.131   1.869   4.364  0.7659  0.1535 -0.2462
  253MOL0     O34824   9.390   1.931   4.520 -0.1860 -0.1103 -0.3341
  253MOL0     C34825   9.514   2.141   4.615  0.3950 -0.9691  0.5234
  253MOL0     C34826   9.595   2.257   4.625  0.6058  0.1610 -0.3007
  253MOL0     N34827   9.957   2.784   4.940  0.4317 -0.4415  0.1014
  253MOL0     N34828  10.002   2.774   5.058 -1.1967  0.0539  1.4227
  253MOL0     C34829  10.611   3.171   5.866 -0.5270  0.6857  0.4930
  253MOL0     C34830  10.742   3.120   5.881  0.8671 -0.1388 -0.0121
  253MOL0     C34831  11.056   2.763   5.776  0.5310  0.2555 -0.7058
  253MOL0     C34832  11.171   2.827   5.812  0.8596 -0.3608  0.1638
  253MOL0     C34833  11.300   2.795   5.780  0.4905  0.1707  0.0275
  253MOL0     C34834  11.313   2.678   5.701 -0.2738  0.3926 -0.1340
  253MOL0     O34835  11.436   2.632   5.673 -0.3128  0.3261  0.6283
  253MOL0     C34836  11.447   2.492   5.628 -1.1641 -0.6920 -0.7694
  253MOL0     C34837  11.597   2.472   5.651 -0.4198  1.0182 -1.4021
  253MOL0     C34838  11.640   2.483   5.802  0.0445  0.0957 -0.1599
  253MOL0     C34839  11.635   2.343   5.876  0.0970 -1.0002 -0.0289
  253MOL0     C34840  11.497   2.320   5.912 -0.0708 -0.3783 -0.5121
  253MOL0     C34841  11.384   2.280   5.940  0.3663 -0.2741 -0.4989
  253MOL0     C34842  11.196   2.606   5.653 -0.6044  0.8012  1.7394
  253MOL0     C34843  11.069   2.646   5.694  0.4444  0.0580  0.1721
  253MOL0     C34844  10.957   2.590   5.607 -0.6353 -0.3939 -0.6539
  253MOL0     H34845  10.682   2.864   5.656  1.0559 -0.6114  0.7709
  253MOL0     H34846  10.477   2.974   5.616  0.9511  2.6548 -1.7915
  253MOL0     H34847  10.457   3.380   5.721 -2.3519  2.2837 -2.2022
  253MOL0     H34848  10.381   3.345   5.888  0.5800 -3.1016  0.0600
  253MOL0     H34849  10.173   3.326   5.799 -0.1978 -3.2509 -2.2909
  253MOL0     H34850  10.246   3.473   5.708 -1.9793  0.5484  1.4846
  253MOL0     H34851  10.141   3.377   5.546  2.3730 -0.7097 -1.0139
  253MOL0     H34852  10.294   3.280   5.530  0.0596  1.0294 -0.4880
  253MOL0     H34853  10.184   3.097   5.669 -1.5148  0.3035  1.3249
  253MOL0     H34854  10.035   3.198   5.644  1.3628 -0.1566  3.0832
  253MOL0     H34855  10.051   3.183   5.401  2.9707  1.4241 -0.7939
  253MOL0     H34856   9.991   3.051   5.492 -1.2054  1.0953 -0.2672
  253MOL0     H34857  10.278   3.049   5.377  2.0413 -2.5694 -2.8264
  253MOL0     H34858  10.203   2.916   5.464  0.9201  0.0371  0.2837
  253MOL0     H34859  10.179   2.928   5.187 -0.1787  0.5271 -0.7892
  253MOL0     H34860  10.100   3.075   5.216  1.6616 -0.5554 -0.7180
  253MOL0     H34861  10.036   2.788   5.319 -5.0956 -2.2105  0.9022
  253MOL0     H34862   9.915   2.920   5.345 -0.6224 -1.5432  0.2538
  253MOL0     H34863   9.765   2.979   5.133 -0.2011  2.4862 -1.0688
  253MOL0     H34864   9.836   2.924   4.752 -0.9434 -2.3320 -2.1775
  253MOL0     H34865   9.715   3.011   4.860  2.8821  1.7069 -3.3180
  253MOL0     H34866   9.583   2.800   4.865 -1.1545 -2.0152 -1.7717
  253MOL0     H34867   9.585   2.869   4.704 -1.5235 -0.6251  1.3630
  253MOL0     H34868   9.745   2.709   4.612  0.0871 -3.0741 -1.2244
  253MOL0     H34869   9.749   2.632   4.777  2.4242  3.1063  0.5257
  253MOL0     H34870   9.499   2.610   4.753 -0.3136 -2.0571  0.4939
  253MOL0     H34871   9.524   2.675   4.587 -3.5093 -3.2292 -1.4943
  253MOL0     H34872   9.375   2.499   4.591  0.5032  0.3324 -0.0651
  253MOL0     H34873   9.133   2.300   4.624  1.3125 -3.6039  0.0166
  253MOL0     H34874   9.140   2.239   4.452  0.5515  0.8226 -1.5161
  253MOL0     H34875   9.159   2.412   4.485  3.3899  1.1726 -0.9589
  253MOL0     H34876   8.929   1.983   4.604 -0.6176 -2.6805  0.6196
  253MOL0     H34877   8.763   1.844   4.471  0.3780 -7.5016 -0.1452
  253MOL0     H34878   8.865   1.778   4.045 -1.7109 -3.3991 -1.3375
  253MOL0     H34879   8.693   1.735   4.064 -0.5088  1.7308  1.0243
  253MOL0     H34880   8.770   2.002   4.165  0.9868 -0.9629 -0.4282
  253MOL0     H34881   8.712   1.973   4.001 -4.1162  1.9997  1.5890
  253MOL0     H34882   8.561   1.842   4.213  1.1890 -1.4878 -1.8853
  253MOL0     H34883   8.496   1.915   4.082  1.3859 -3.8887 -0.0854
  253MOL0     H34884   8.536   2.153   4.186 -0.9327  0.2585 -0.7029
  253MOL0     H34885   8.621   2.072   4.323 -0.6260  1.5503  0.6116
  253MOL0     H34886   8.341   1.997   4.224 -0.9223 -1.1637  1.2641
  253MOL0     H34887   8.414   1.962   4.378  0.4478 -1.0663 -1.2678
  253MOL0     H34888   8.328   2.238   4.290  1.1282 -0.3830 -1.5764
  253MOL0     H34889   8.418   2.202   4.434  2.6994 -2.5730 -0.9496
  253MOL0     H34890   8.250   2.127   4.555  1.6122  0.5612  0.9291
  253MOL0     H34891   8.186   2.025   4.429 -1.7088  0.1659  2.6877
  253MOL0     H34892   8.011   2.178   4.469 -0.9337  0.1437 -1.0422
  253MOL0     H34893   8.078   2.223   4.317  1.6078 -2.5648 -0.6632
  253MOL0     H34894   9.055   1.753   4.182  0.1632 -2.7632  1.6431
  253MOL0     H34895   9.233   1.865   4.328  0.4618 -1.5758 -1.0078
  253MOL0     H34896   9.565   2.048   4.641  1.6341 -0.0429  1.5370
  253MOL0     H34897   9.702   2.251   4.645  0.7682 -0.3259 -1.2526
  253MOL0     H34898  10.589   3.261   5.922 -0.6836 -0.2260  1.9462
  253MOL0     H34899  10.808   3.161   5.957  3.8555 -3.3589 -0.5841
  253MOL0     H34900  11.163   2.928   5.851 -2.8373  0.2172 -1.6654
  253MOL0     H34901  11.380   2.862   5.810 -1.0413  0.3872  4.2633
  253MOL0     H34902  11.402   2.418   5.695 -0.5306  0.8133  1.4159
  253MOL0     H34903  11.426   2.481   5.521  3.0157  0.5211 -1.8971
  253MOL0     H34904  11.648   2.544   5.587  1.9838  0.0739 -0.6437
  253MOL0     H34905  11.613   2.365   5.637  0.0948  1.0727 -1.2629
  253MOL0     H34906  11.741   2.521   5.814 -0.4186  0.5133  3.2383
  253MOL0     H34907  11.569   2.545   5.858 -0.9794 -1.6260  0.5116
  253MOL0     H34908  11.692   2.360   5.968  0.1354 -3.0321  0.3690
  253MOL0     H34909  11.682   2.263   5.817 -1.6930 -0.5030 -2.2961
  253MOL0     H34910  11.282   2.255   5.959 -0.2675  0.8505 -2.2186
  253MOL0     H34911  11.207   2.519   5.589  0.0205  2.5040 -0.6173
  253MOL0     H34912  10.977   2.484   5.591 -1.8271 -0.9726  1.4282
  253MOL0     H34913  10.862   2.602   5.659  1.0518  0.5498  2.4754
  253MOL0     H34914  10.951   2.639   5.509 -1.2044  3.5266  1.1382
  254MOL0     O34915  10.401   7.421   7.395  0.9281 -0.1146  0.6786
  254MOL0     C34916  10.412   7.321   7.322  0.0174 -0.0524 -0.2393
  254MOL0     O34917  10.508   7.227   7.329  0.7552  0.2096 -0.2705
  254MOL0     C34918  10.632   7.267   7.381 -0.8035 -1.3789 -1.1967
  254MOL0     C34919  10.666   7.232   7.513 -0.3422  1.1842  0.4260
  254MOL0     C34920  10.777   7.281   7.566 -0.1981 -0.4987  0.2304
  254MOL0     C34921  10.872   7.359   7.486  0.7255 -0.7898 -1.3999
  254MOL0     O34922  11.003   7.385   7.535  0.3820 -0.4988  0.9623
  254MOL0     C34923  11.017   7.433   7.661 -0.3308 -0.3545  0.2754
  254MOL0     C34924  11.168   7.435   7.692  0.7818 -0.4560  0.1227
  254MOL0     C34925  11.248   7.510   7.588  0.5723  0.3693  0.2390
  254MOL0     C34926  11.234   7.658   7.624  0.2728 -0.4484 -0.4444
  254MOL0     C34927  11.296   7.746   7.517  0.7934  0.1793  0.3488
  254MOL0     C34928  11.256   7.894   7.540  0.6708 -0.3299 -0.3433
  254MOL0     C34929  11.348   7.993   7.459 -0.0342  0.7628  0.0192
  254MOL0     C34930  11.307   8.132   7.496 -0.1295  0.3357  0.8341
  254MOL0     N34931  11.382   8.229   7.409  0.5290 -0.0290  0.6114
  254MOL0     C34932  11.350   8.354   7.381 -1.0009 -0.7048  0.0424
  254MOL0     C34933  11.458   8.397   7.306  0.1382 -0.3350  0.6441
  254MOL0     C34934  11.469   8.526   7.232 -0.3759  1.0699  0.3177
  254MOL0     C34935  11.503   8.642   7.326  0.7789 -0.5016 -0.1706
  254MOL0     C34936  11.543   8.761   7.239 -0.4787 -0.0032  0.5621
  254MOL0     C34937  11.449   8.810   7.140  0.2405 -0.1683  0.0435
  254MOL0     O34938  11.307   8.841   7.176 -0.1931  0.4995 -0.0041
  254MOL0     C34939  11.300   8.949   7.249 -0.8742 -0.9384 -0.1193
  254MOL0     C34940  11.371   9.068   7.221  0.9128  0.7943  0.2467
  254MOL0     C34941  11.369   9.178   7.314  1.0446  0.4661 -0.1469
  254MOL0     C34942  11.463   9.286   7.278 -0.2851 -0.5666 -0.8526
  254MOL0     C34943  11.284   9.181   7.436 -0.5390 -0.0465  0.8048
  254MOL0     C34944  11.254   9.297   7.514 -0.4079  0.2327 -0.4646
  254MOL0     O34945  11.151   9.283   7.605 -0.6226  0.8698 -0.4449
  254MOL0     C34946  11.091   9.392   7.644  0.4198  1.3169 -0.3364
  254MOL0     C34947  10.967   9.416   7.590  0.1901 -0.2737 -0.3411
  254MOL0     C34948  10.898   9.540   7.619 -0.3816  0.6719  0.3144
  254MOL0     C34949  10.951   9.626   7.720  0.0573 -1.8619  0.7554
  254MOL0     O34950  10.875   9.736   7.772  0.6196 -0.3191 -0.5013
  254MOL0     C34951  10.943   9.857   7.794 -0.1680  0.0317 -0.8230
  254MOL0     C34952  10.830   9.948   7.831 -0.3128  0.4848 -0.0656
  254MOL0     C34953  10.809   9.977   7.980  0.2657 -0.1180 -0.0134
  254MOL0     C34954  10.710  10.090   7.989 -0.8539 -0.1206 -0.2192
  254MOL0     C34955  10.657  10.074   8.138  0.5581 -0.1294 -0.8689
  254MOL0     C34956  10.557  10.193   8.159  0.5721 -0.6024  0.2040
  254MOL0     C34957  10.543  10.208   8.302  0.7808  0.3417 -1.1209
  254MOL0     C34958  10.451  10.320   8.363  0.0520  0.0967  0.0077
  254MOL0    Cl34959  10.558  10.472   8.386 -0.1170 -0.0992  0.0064
  254MOL0     C34960  11.077   9.595   7.782  0.8309  0.6944  0.5362
  254MOL0     C34961  11.147   9.478   7.732  0.1216 -0.4965  0.5148
  254MOL0     O34962  11.310   9.403   7.490  1.1684  0.6546  0.1549
  254MOL0     C34963  11.216   9.061   7.455  0.2085 -0.1968  0.3877
  254MOL0     C34964  11.230   8.942   7.369 -0.0087  0.7051 -0.3838
  254MOL0     N34965  11.555   8.300   7.293 -0.5243  0.1228 -0.1001
  254MOL0     N34966  11.514   8.203   7.365 -0.4557  0.1763 -0.5687
  254MOL0     C34967  10.847   7.374   7.347  0.2852  0.2628 -0.4885
  254MOL0     C34968  10.721   7.322   7.302 -0.3607  0.1046  0.2572
  254MOL0     C34969  10.312   7.289   7.216 -1.1056  0.6404 -0.4219
  254MOL0     C34970  10.378   7.267   7.090  0.0564  1.1421 -0.3118
  254MOL0     C34971  10.302   7.215   6.986  0.4829 -0.2670  1.0371
  254MOL0     C34972  10.163   7.188   6.993 -0.8128 -0.0801  0.0524
  254MOL0     O34973  10.097   7.149   6.878  0.9094 -0.2234  0.2553
  254MOL0     C34974   9.954   7.118   6.871  0.2794 -0.2025  0.5515
  254MOL0     C34975   9.911   7.069   6.726  0.1473 -0.3321 -0.0109
  254MOL0     C34976   9.795   6.970   6.723 -0.0851 -0.5823 -1.1557
  254MOL0     C34977   9.788   6.910   6.590  1.0196  0.2334 -0.3794
  254MOL0     C34978   9.681   6.812   6.585  0.0168 -0.2016 -0.3681
  254MOL0     C34979   9.588   6.736   6.580  0.4041  0.4289  0.9547
  254MOL0     C34980  10.098   7.224   7.119  0.3432 -0.4325 -0.0754
  254MOL0     C34981  10.179   7.274   7.230 -0.8383  0.0278  0.8667
  254MOL0     C34982  10.106   7.318   7.357  0.9116 -0.0550 -0.6809
  254MOL0     H34983  10.592   7.174   7.566 -1.0300  1.7478  0.0927
  254MOL0     H34984  10.786   7.251   7.670  0.6732  0.3512  0.4194
  254MOL0     H34985  10.959   7.370   7.728  0.4023 -2.5003 -0.9888
  254MOL0     H34986  10.983   7.537   7.661  2.0991  0.5528  1.8962
  254MOL0     H34987  11.187   7.470   7.794  0.5758 -3.1094  1.1548
  254MOL0     H34988  11.196   7.330   7.700 -0.1413 -0.8849 -1.6535
  254MOL0     H34989  11.350   7.478   7.613  0.3961  1.6779  3.0996
  254MOL0     H34990  11.238   7.490   7.481  2.9174 -0.9184  0.1787
  254MOL0     H34991  11.128   7.682   7.631  0.3913 -0.0776  0.2240
  254MOL0     H34992  11.277   7.680   7.723  1.0676  3.9942 -1.5726
  254MOL0     H34993  11.263   7.722   7.416 -0.2794 -0.1098  0.7476
  254MOL0     H34994  11.405   7.739   7.516  0.7069 -1.2606 -0.5296
  254MOL0     H34995  11.149   7.905   7.522  0.9248  0.0346 -1.7355
  254MOL0     H34996  11.264   7.920   7.646 -0.6278  0.7622 -0.4915
  254MOL0     H34997  11.332   7.999   7.351  0.3956 -0.9368 -0.1568
  254MOL0     H34998  11.452   7.966   7.479 -1.3364 -2.9205  2.6985
  254MOL0     H34999  11.204   8.144   7.462 -0.4080  3.1636  2.3787
  254MOL0     H35000  11.326   8.152   7.602  2.9038 -0.5041  0.5495
  254MOL0     H35001  11.263   8.408   7.418  1.2320  2.0331  1.7094
  254MOL0     H35002  11.371   8.535   7.184 -2.1803 -0.5275  3.4407
  254MOL0     H35003  11.542   8.521   7.150 -3.1192 -0.9791 -2.2015
  254MOL0     H35004  11.429   8.682   7.395  0.6826  0.0324 -0.5752
  254MOL0     H35005  11.580   8.606   7.395 -0.3517 -1.1186  0.7953
  254MOL0     H35006  11.583   8.837   7.307  0.8685  1.0482 -1.3218
  254MOL0     H35007  11.628   8.735   7.175 -0.2938  3.7896 -0.9914
  254MOL0     H35008  11.505   8.892   7.092  0.2356  1.9957  3.4396
  254MOL0     H35009  11.424   8.732   7.067 -1.3794  0.2857  0.0870
  254MOL0     H35010  11.435   9.076   7.134 -3.0660 -2.0065 -3.3947
  254MOL0     H35011  11.398   9.374   7.268 -1.7726 -1.7083 -1.5529
  254MOL0     H35012  11.508   9.268   7.180  0.0900  1.5226 -1.1185
  254MOL0     H35013  11.537   9.302   7.357  0.2344 -2.2505 -0.9713
  254MOL0     H35014  10.925   9.336   7.530 -2.2014 -0.5279  1.5167
  254MOL0     H35015  10.795   9.556   7.589 -0.8637 -0.6574  1.1890
  254MOL0     H35016  11.029   9.847   7.861  1.3327  0.0303 -2.6505
  254MOL0     H35017  11.001   9.885   7.706  2.0980  0.5512  0.7532
  254MOL0     H35018  10.873  10.041   7.794  2.3254  0.5332  2.7313
  254MOL0     H35019  10.735   9.929   7.780 -0.8849  3.8103 -0.4718
  254MOL0     H35020  10.898   9.985   8.042 -3.3638  1.8962  5.6797
  254MOL0     H35021  10.763   9.887   8.023 -1.3827  1.6040  2.0294
  254MOL0     H35022  10.622  10.079   7.925 -1.0483  0.9797 -0.1511
  254MOL0     H35023  10.748  10.192   7.984  3.2547 -1.4679 -0.5030
  254MOL0     H35024  10.617   9.975   8.164  2.7241 -0.4348  1.8878
  254MOL0     H35025  10.738  10.065   8.212  0.1391 -0.5028 -0.4515
  254MOL0     H35026  10.454  10.175   8.126  0.4811  1.0419 -0.5097
  254MOL0     H35027  10.597  10.287   8.120  1.0248 -0.9746 -0.2423
  254MOL0     H35028  10.642  10.228   8.344 -0.1495 -0.5615  1.7148
  254MOL0     H35029  10.503  10.115   8.343  0.2729  1.3143  0.7102
  254MOL0     H35030  10.415  10.287   8.461 -3.0601  0.5515 -0.8733
  254MOL0     H35031  10.361  10.334   8.301  0.0489  1.3134  0.2546
  254MOL0     H35032  11.121   9.646   7.868 -0.8870  1.6665  0.8732
  254MOL0     H35033  11.245   9.453   7.772  0.9318  1.6255 -0.0374
  254MOL0     H35034  11.139   9.064   7.532 -0.2280  0.5632 -0.0703
  254MOL0     H35035  11.155   8.864   7.375  0.9626 -0.1866  0.9647
  254MOL0     H35036  10.921   7.416   7.280  1.5180 -4.5928 -2.6229
  254MOL0     H35037  10.703   7.305   7.196 -6.5219  1.9700  0.6535
  254MOL0     H35038  10.485   7.267   7.070  0.2979  1.6212  0.9266
  254MOL0     H35039  10.347   7.193   6.890  0.3706  0.6594  0.7621
  254MOL0     H35040   9.933   7.037   6.941  0.5506  1.1814  2.2996
  254MOL0     H35041   9.892   7.206   6.890 -0.9036 -0.7306 -0.7004
  254MOL0     H35042  10.000   7.021   6.683 -0.9337 -1.4840 -1.0192
  254MOL0     H35043   9.873   7.150   6.663  2.6807 -0.9007 -2.4920
  254MOL0     H35044   9.793   6.893   6.801 -3.0367  3.9336  3.8860
  254MOL0     H35045   9.702   7.024   6.744 -0.7792 -2.4387  1.1260
  254MOL0     H35046   9.882   6.862   6.563 -0.0838 -2.6704  0.6200
  254MOL0     H35047   9.763   6.980   6.509  0.1925 -0.2348 -0.5424
  254MOL0     H35048   9.506   6.667   6.584 -1.3233  2.2602 -0.4861
  254MOL0     H35049   9.991   7.214   7.126  0.3287 -1.1425 -1.1407
  254MOL0     H35050  10.162   7.391   7.416  0.9115 -0.6365  0.0526
  254MOL0     H35051  10.022   7.375   7.316  0.6208 -0.6988 -1.0001
  254MOL0     H35052  10.073   7.234   7.419 -1.4834  1.0820 -0.2907
  255MOL0     O35053   8.027   9.360   8.131 -0.5562 -0.1311 -0.8586
  255MOL0     C35054   8.134   9.402   8.182 -0.3581  0.4670 -0.4253
  255MOL0     O35055   8.190   9.513   8.146 -0.0886 -0.5748  0.5385
  255MOL0     C35056   8.151   9.590   8.028  0.9074 -0.4417 -0.2853
  255MOL0     C35057   8.028   9.585   7.956  0.3132  0.9600 -0.0695
  255MOL0     C35058   8.020   9.668   7.840 -0.1089  0.2694 -0.2348
  255MOL0     C35059   8.126   9.746   7.793 -0.0949  0.3002 -0.8913
  255MOL0     O35060   8.097   9.812   7.676  0.0974  0.5681  0.0149
  255MOL0     C35061   8.209   9.878   7.616  1.2735  0.3082  0.1569
  255MOL0     C35062   8.152   9.896   7.470 -0.9215 -0.5442  0.0754
  255MOL0     C35063   8.251   9.956   7.381  0.2046 -0.6744  0.3670
  255MOL0     C35064   8.208  10.022   7.254  1.1625  0.7292 -0.0798
  255MOL0     C35065   8.323  10.063   7.156  0.3605  0.6577 -0.2796
  255MOL0     C35066   8.373  10.207   7.183  0.0782  0.6754  0.5327
  255MOL0     C35067   8.466  10.241   7.068  0.6816 -0.1550  0.4475
  255MOL0     C35068   8.601  10.165   7.046  0.2127  0.9442 -0.0760
  255MOL0     N35069   8.675  10.202   6.929  0.8020 -0.5334 -0.1479
  255MOL0     C35070   8.637  10.156   6.802 -0.2867 -0.5874  0.4766
  255MOL0     C35071   8.742  10.207   6.722  0.6670  0.4236 -1.1480
  255MOL0     C35072   8.785  10.187   6.582  0.2786  0.5912  0.6910
  255MOL0     C35073   8.765  10.046   6.523  0.3282 -0.4830 -0.4471
  255MOL0     C35074   8.828  10.054   6.383 -0.4324  0.4665 -0.1771
  255MOL0     C35075   8.718  10.083   6.286  1.5819  0.9898  1.5471
  255MOL0     O35076   8.754  10.141   6.173 -0.4958 -0.4962  0.5568
  255MOL0     C35077   8.824  10.082   6.072  2.0837  0.2483  0.2443
  255MOL0     C35078   8.877  10.151   5.963  0.0054  0.2584  0.6801
  255MOL0     C35079   8.943  10.097   5.855  0.2713  0.3765  0.2570
  255MOL0     C35080   8.972  10.185   5.739 -0.9454 -0.6745  0.8761
  255MOL0     C35081   8.975   9.951   5.859  0.1993 -0.8732 -0.7224
  255MOL0     C35082   9.048   9.871   5.762 -0.3569  0.8055  1.0296
  255MOL0     O35083   9.083   9.746   5.793  0.6720 -0.7282 -0.2455
  255MOL0     C35084   9.167   9.677   5.722 -0.6035 -0.1023  0.1621
  255MOL0     C35085   9.137   9.661   5.580  0.1780  0.0692  0.9585
  255MOL0     C35086   9.235   9.588   5.507 -0.0874 -1.3171  0.9331
  255MOL0     C35087   9.359   9.530   5.563  0.9238 -0.4349 -0.7712
  255MOL0     O35088   9.463   9.462   5.509  0.0946  0.2431 -0.5467
  255MOL0     C35089   9.528   9.506   5.384 -0.4095 -0.1738  0.0662
  255MOL0     C35090   9.682   9.515   5.398  1.8424  0.7258 -1.2465
  255MOL0     C35091   9.755   9.389   5.435 -0.0456 -0.1040  0.3768
  255MOL0     C35092   9.887   9.434   5.490 -0.2633  0.3175 -1.2035
  255MOL0     C35093   9.959   9.305   5.526  0.3115 -0.0518 -0.3922
  255MOL0     C35094  10.102   9.338   5.600  0.0666  0.2334  0.2897
  255MOL0     C35095  10.207   9.232   5.602 -0.6727  0.5099  0.8546
  255MOL0     C35096  10.164   9.091   5.674 -0.0909  0.2199  0.4357
  255MOL0    Cl35097  10.094   9.125   5.835  0.2042 -0.5680  0.4100
  255MOL0     C35098   9.383   9.568   5.693 -0.4115  0.9929  0.4663
  255MOL0     C35099   9.288   9.630   5.774  0.0180 -1.4155 -0.0208
  255MOL0     O35100   9.076   9.931   5.665 -0.8850 -0.8849  0.3308
  255MOL0     C35101   8.920   9.883   5.969 -0.9699 -0.1741 -0.6283
  255MOL0     C35102   8.854   9.949   6.073 -0.4573  0.2081 -0.3226
  255MOL0     N35103   8.821  10.289   6.811 -0.3977  0.2993  0.2000
  255MOL0     N35104   8.789  10.275   6.932  0.5662 -0.2522 -0.2615
  255MOL0     C35105   8.248   9.752   7.861  0.0488  0.0281  0.2317
  255MOL0     C35106   8.257   9.667   7.971 -0.4733 -0.1015 -0.2586
  255MOL0     C35107   8.192   9.320   8.295 -0.4509 -0.4990  1.6288
  255MOL0     C35108   8.131   9.200   8.337 -0.4561 -0.5908 -1.0562
  255MOL0     C35109   8.187   9.123   8.447 -0.5192  0.5075  0.3631
  255MOL0     C35110   8.307   9.171   8.513  0.6752 -0.1253  0.0892
  255MOL0     O35111   8.370   9.098   8.615  0.5744 -1.2980  0.4781
  255MOL0     C35112   8.333   8.962   8.640  1.0166 -0.3756  0.1292
  255MOL0     C35113   8.429   8.883   8.723  1.0407  0.2878  0.0666
  255MOL0     C35114   8.435   8.940   8.866 -0.4082 -0.7633  0.1602
  255MOL0     C35115   8.503   8.837   8.954 -1.4208 -0.3838  0.8696
  255MOL0     C35116   8.642   8.799   8.921 -0.3093 -0.2469 -0.1668
  255MOL0     C35117   8.756   8.780   8.878 -0.8797 -0.1779 -1.1356
  255MOL0     C35118   8.360   9.290   8.472 -0.9202  0.5310 -0.1205
  255MOL0     C35119   8.313   9.367   8.366 -0.4151 -0.1484  0.7054
  255MOL0     C35120   8.408   9.482   8.321 -0.9466  0.1681  0.1604
  255MOL0     H35121   7.948   9.532   8.007  2.9703 -1.5575  1.8164
  255MOL0     H35122   7.920   9.682   7.800 -0.1791 -0.9530 -0.5559
  255MOL0     H35123   8.296   9.812   7.618 -0.7368 -2.5034  0.2247
  255MOL0     H35124   8.232   9.977   7.657  0.6766 -0.2889  2.0560
  255MOL0     H35125   8.133   9.794   7.434  0.2681 -0.5206 -0.6887
  255MOL0     H35126   8.067   9.963   7.483 -0.2631 -0.1341  2.8473
  255MOL0     H35127   8.298  10.034   7.443 -2.5689  1.0139  0.5369
  255MOL0     H35128   8.324   9.880   7.351 -0.2587 -0.9990  0.0622
  255MOL0     H35129   8.141   9.949   7.208 -1.6591  1.5279  2.4158
  255MOL0     H35130   8.140  10.105   7.279  0.9364  0.5662 -0.1434
  255MOL0     H35131   8.279  10.068   7.056  1.2665 -1.1280 -0.8147
  255MOL0     H35132   8.398   9.982   7.156  0.3237  0.6228 -0.2594
  255MOL0     H35133   8.286  10.273   7.180 -2.4129 -2.3375  1.4666
  255MOL0     H35134   8.414  10.211   7.285 -2.4764 -1.5852  1.7869
  255MOL0     H35135   8.479  10.350   7.070 -0.5316  0.0588 -1.0198
  255MOL0     H35136   8.400  10.234   6.981  1.8021  0.3927 -0.4850
  255MOL0     H35137   8.655  10.184   7.139  1.1041 -1.0907 -0.1180
  255MOL0     H35138   8.574  10.059   7.055  0.9111  0.8610  1.3281
  255MOL0     H35139   8.566  10.077   6.781 -1.7116  0.6500  0.4672
  255MOL0     H35140   8.891  10.212   6.583  0.2255  0.8252  1.5510
  255MOL0     H35141   8.722  10.253   6.521 -1.0284 -1.1724  0.0280
  255MOL0     H35142   8.814   9.968   6.582  0.4893 -1.4210 -1.7806
  255MOL0     H35143   8.659  10.021   6.514 -0.6856  2.4438  1.8401
  255MOL0     H35144   8.898  10.137   6.369  1.8818 -1.5758 -1.5739
  255MOL0     H35145   8.875   9.960   6.351 -1.2890  0.2111 -0.7219
  255MOL0     H35146   8.658   9.992   6.277  1.2967  1.2754  0.3360
  255MOL0     H35147   8.642  10.148   6.332 -0.3784  1.2852 -1.8006
  255MOL0     H35148   8.867  10.258   5.947 -0.9492 -0.1468 -1.8456
  255MOL0     H35149   9.076  10.169   5.710  0.0749  3.6820  1.4118
  255MOL0     H35150   8.977  10.292   5.759 -0.4948 -0.3299 -0.9767
  255MOL0     H35151   8.912  10.164   5.650  0.0061 -2.3503  0.5874
  255MOL0     H35152   9.060   9.719   5.530  1.0439 -2.2631 -3.6226
  255MOL0     H35153   9.220   9.583   5.399 -0.2685 -1.2473  0.9558
  255MOL0     H35154   9.493   9.445   5.299 -2.0165  1.2439 -0.3407
  255MOL0     H35155   9.488   9.601   5.348 -0.9513 -0.5040 -0.2136
  255MOL0     H35156   9.724   9.549   5.302  1.3053 -1.0103 -2.1382
  255MOL0     H35157   9.691   9.575   5.489 -1.3668 -2.9573  1.8606
  255MOL0     H35158   9.766   9.337   5.339  1.5754 -0.7764  0.8936
  255MOL0     H35159   9.706   9.322   5.506 -0.3782  0.7515  0.9660
  255MOL0     H35160   9.871   9.500   5.576 -0.6248  0.7394 -1.5860
  255MOL0     H35161   9.944   9.489   5.415  2.3865 -1.1311 -0.3630
  255MOL0     H35162   9.909   9.227   5.584 -0.5758 -0.2536 -1.3862
  255MOL0     H35163   9.981   9.247   5.436  0.0211  0.5435 -0.8578
  255MOL0     H35164  10.086   9.360   5.706  0.0805  0.6878  0.2014
  255MOL0     H35165  10.141   9.428   5.551 -1.8425  1.6523  1.2140
  255MOL0     H35166  10.297   9.271   5.652  0.9681  0.4135 -1.8372
  255MOL0     H35167  10.239   9.195   5.504 -0.2202 -1.1821  1.6097
  255MOL0     H35168  10.247   9.020   5.677 -1.0863 -0.9638  2.1194
  255MOL0     H35169  10.086   9.049   5.611  1.6901 -0.6792 -1.2571
  255MOL0     H35170   9.474   9.530   5.739  1.8917  1.8472 -3.0000
  255MOL0     H35171   9.297   9.645   5.881  0.7774 -1.7912 -0.0310
  255MOL0     H35172   8.935   9.776   5.975 -3.9080 -0.5950  2.9482
  255MOL0     H35173   8.815   9.888   6.153  0.0056 -0.5973 -0.7031
  255MOL0     H35174   8.337   9.809   7.836  1.2980 -1.1972  1.6118
  255MOL0     H35175   8.351   9.675   8.025 -0.8233 -1.0493  0.5007
  255MOL0     H35176   8.038   9.179   8.285  1.0958 -0.2604 -4.2693
  255MOL0     H35177   8.138   9.032   8.481 -0.6210  1.2344  2.2708
  255MOL0     H35178   8.231   8.950   8.678  0.6684 -0.1372 -0.6914
  255MOL0     H35179   8.318   8.904   8.548 -3.0399 -1.3367  1.2107
  255MOL0     H35180   8.525   8.879   8.672  1.1391  1.5325  0.1246
  255MOL0     H35181   8.383   8.784   8.735 -0.8200  1.1221  0.1452
  255MOL0     H35182   8.484   9.037   8.856 -1.2240 -0.5182 -2.3130
  255MOL0     H35183   8.332   8.956   8.899 -0.0424 -2.8512  2.6517
  255MOL0     H35184   8.438   8.749   8.954 -2.0283 -0.0841 -2.8173
  255MOL0     H35185   8.510   8.890   9.049  1.0264 -0.9118  1.0589
  255MOL0     H35186   8.854   8.742   8.860  0.0624  0.3169  2.3147
  255MOL0     H35187   8.450   9.317   8.527 -0.9549 -0.5050  0.4571
  255MOL0     H35188   8.465   9.450   8.233  0.8436 -5.5313  2.8894
  255MOL0     H35189   8.348   9.574   8.315  0.9031  1.4868  1.0338
  255MOL0     H35190   8.488   9.512   8.389  0.3024 -2.5784  0.0304
  256MOL0     O35191   4.145   4.368   6.041 -0.3072  0.0961 -0.1850
  256MOL0     C35192   4.188   4.480   6.067  0.1008 -0.1916  0.1277
  256MOL0     O35193   4.119   4.579   6.125 -0.0014  1.0396 -0.2811
  256MOL0     C35194   3.987   4.563   6.141  0.1075 -0.0256 -0.2501
  256MOL0     C35195   3.895   4.507   6.047 -0.6581 -0.0836 -1.3298
  256MOL0     C35196   3.753   4.499   6.074  0.1292  0.3874  0.0080
  256MOL0     C35197   3.701   4.532   6.198  0.6613  0.3389 -0.2069
  256MOL0     O35198   3.563   4.517   6.235 -0.4327 -0.4603  0.8748
  256MOL0     C35199   3.512   4.585   6.345  0.7559 -0.2349  0.3941
  256MOL0     C35200   3.486   4.731   6.308  0.0443  0.5975 -0.3917
  256MOL0     C35201   3.378   4.750   6.209 -0.0024 -0.0068  0.8991
  256MOL0     C35202   3.230   4.744   6.251  0.2775  0.4686 -0.6298
  256MOL0     C35203   3.150   4.804   6.143  0.5989  1.2177  1.0925
  256MOL0     C35204   2.993   4.781   6.168  0.2769  0.1514  0.2615
  256MOL0     C35205   2.935   4.829   6.036  0.9538  0.1510  0.6377
  256MOL0     C35206   2.785   4.832   6.050 -0.3870  0.6088  0.1781
  256MOL0     N35207   2.755   4.957   6.113  0.4611 -0.8022  0.4492
  256MOL0     C35208   2.764   5.084   6.055  0.1947  1.1488 -0.5091
  256MOL0     C35209   2.698   5.164   6.147  0.1356 -0.2338  1.3228
  256MOL0     C35210   2.701   5.321   6.123 -0.3773 -0.2307 -0.1600
  256MOL0     C35211   2.568   5.392   6.124 -0.0767 -0.6664 -0.1345
  256MOL0     C35212   2.470   5.364   6.013 -0.4363 -0.0675  0.3594
  256MOL0     C35213   2.338   5.423   6.025  0.1067 -0.9841  0.0972
  256MOL0     O35214   2.252   5.363   5.921 -0.3478  0.6673  0.1672
  256MOL0     C35215   2.121   5.332   5.948  0.3512 -0.0094  1.0893
  256MOL0     C35216   2.075   5.209   5.939  0.5713  0.8481 -0.6171
  256MOL0     C35217   1.948   5.157   5.985 -0.1105  0.3991 -0.7529
  256MOL0     C35218   1.916   5.009   5.972 -0.1404 -0.3128  0.8942
  256MOL0     C35219   1.861   5.258   6.034  0.8760 -0.7942 -0.7491
  256MOL0     C35220   1.722   5.220   6.058  0.4103 -0.3019  1.0048
  256MOL0     O35221   1.674   5.260   6.173  0.7917 -0.4290 -0.5085
  256MOL0     C35222   1.554   5.203   6.218 -0.6345  0.5596 -0.6245
  256MOL0     C35223   1.461   5.286   6.286  0.6236 -0.6452 -0.0586
  256MOL0     C35224   1.335   5.241   6.312  0.2692 -0.8237  0.2976
  256MOL0     C35225   1.306   5.107   6.314  0.4882  0.2185  0.3052
  256MOL0     O35226   1.189   5.060   6.365 -1.2885  0.5087 -0.0457
  256MOL0     C35227   1.140   4.925   6.332 -0.0912  0.2104 -0.0556
  256MOL0     C35228   1.056   4.927   6.199 -0.2197 -0.3228 -0.5688
  256MOL0     C35229   0.949   5.043   6.236 -0.2186  1.9681 -0.3070
  256MOL0     C35230   0.830   5.031   6.137  0.6348 -0.3928  0.9778
  256MOL0     C35231   0.705   5.106   6.194  0.1767  0.6466  0.5479
  256MOL0     C35232   0.585   5.063   6.111 -1.5220  0.0885 -0.1828
  256MOL0     C35233   0.445   5.098   6.173  0.9489  0.0173  0.1635
  256MOL0     C35234   0.325   5.009   6.126 -0.0506 -0.4053  0.3232
  256MOL0    Cl35235   0.308   5.010   5.951 -0.4416  0.1171  0.1930
  256MOL0     C35236   1.403   5.025   6.258 -0.4201  0.6994 -0.2457
  256MOL0     C35237   1.522   5.068   6.210  0.4383  0.0767 -0.0253
  256MOL0     O35238   1.655   5.175   5.964 -0.5557  0.2166 -0.3297
  256MOL0     C35239   1.906   5.392   6.047 -0.0819  1.0391 -0.0715
  256MOL0     C35240   2.032   5.433   6.002  0.0483 -0.4331  0.0885
  256MOL0     N35241   2.659   5.091   6.256 -0.4119 -0.0144 -0.2509
  256MOL0     N35242   2.699   4.971   6.227  0.1615  0.6706  0.1478
  256MOL0     C35243   3.788   4.604   6.286 -0.2043 -1.2584 -0.6805
  256MOL0     C35244   3.927   4.624   6.255  0.0502 -0.7181 -0.3912
  256MOL0     C35245   4.324   4.517   6.039 -0.8905  0.0102 -0.8208
  256MOL0     C35246   4.388   4.449   5.936 -0.6026 -0.5550  0.0282
  256MOL0     C35247   4.503   4.510   5.889 -0.1300 -0.4029  0.3056
  256MOL0     C35248   4.581   4.607   5.947  0.2594  0.9692 -0.9470
  256MOL0     O35249   4.700   4.653   5.910 -0.0062  0.1218 -0.0474
  256MOL0     C35250   4.768   4.619   5.790  0.7364 -0.3402  0.9015
  256MOL0     C35251   4.909   4.662   5.801  0.0640  0.2184 -0.1496
  256MOL0     C35252   4.984   4.625   5.668  0.8582  0.1970  0.5974
  256MOL0     C35253   4.900   4.675   5.554  0.3807 -0.2350  1.0869
  256MOL0     C35254   4.983   4.665   5.431  0.0161 -0.1707 -0.9064
  256MOL0     C35255   5.043   4.681   5.324  0.0303  0.4345 -0.7069
  256MOL0     C35256   4.522   4.667   6.063 -0.4869 -0.0472  0.7244
  256MOL0     C35257   4.399   4.613   6.119  0.0514  0.5421 -0.6835
  256MOL0     C35258   4.343   4.667   6.251 -0.0846 -0.1457 -0.5979
  256MOL0     H35259   3.937   4.481   5.950  2.6377  1.4829 -0.4609
  256MOL0     H35260   3.684   4.449   6.007  0.3665 -1.4568  1.0603
  256MOL0     H35261   3.588   4.575   6.423  3.6064  2.2211 -1.8120
  256MOL0     H35262   3.421   4.537   6.382  0.3829  1.7996  2.3216
  256MOL0     H35263   3.451   4.782   6.398 -1.3521  0.1142 -0.6342
  256MOL0     H35264   3.577   4.783   6.277  0.8618 -0.4181  0.2008
  256MOL0     H35265   3.392   4.851   6.167  3.2888 -0.5576  0.3856
  256MOL0     H35266   3.394   4.694   6.116  0.3684  3.8631 -1.6155
  256MOL0     H35267   3.199   4.641   6.270  1.5410  0.0559 -0.7157
  256MOL0     H35268   3.224   4.805   6.342 -2.7094 -0.2298 -0.2576
  256MOL0     H35269   3.170   4.765   6.043 -1.6980  0.1070  0.9945
  256MOL0     H35270   3.160   4.913   6.143 -1.8145  1.5295 -0.7325
  256MOL0     H35271   2.964   4.675   6.163 -1.0383  0.5245 -0.1521
  256MOL0     H35272   2.952   4.843   6.248 -3.8024 -0.6446 -0.9866
  256MOL0     H35273   2.961   4.760   5.955 -1.6695 -1.5096  1.1098
  256MOL0     H35274   2.970   4.929   6.010 -1.6790  0.7460 -0.8886
  256MOL0     H35275   2.737   4.833   5.952 -0.6127 -1.3005  0.2284
  256MOL0     H35276   2.750   4.746   6.109  0.2895 -1.0623 -1.7497
  256MOL0     H35277   2.812   5.109   5.961  1.3947 -0.9192 -0.5110
  256MOL0     H35278   2.740   5.341   6.023  4.1105 -2.3926  0.8948
  256MOL0     H35279   2.780   5.357   6.189  0.1948  0.2097 -1.0686
  256MOL0     H35280   2.522   5.367   6.220  1.0289 -0.5682  0.4398
  256MOL0     H35281   2.565   5.501   6.119 -0.9787 -0.6546 -5.0117
  256MOL0     H35282   2.518   5.401   5.921  0.8647 -1.9374  0.2317
  256MOL0     H35283   2.473   5.255   6.009  0.4027 -0.0290 -0.8504
  256MOL0     H35284   2.292   5.410   6.123 -2.1587  2.6340 -0.2596
  256MOL0     H35285   2.350   5.532   6.015  1.4389 -1.1849 -0.7750
  256MOL0     H35286   2.136   5.145   5.876 -2.0199 -1.8423 -0.6732
  256MOL0     H35287   1.839   4.984   6.046 -1.1941  1.7941  0.5859
  256MOL0     H35288   2.006   4.947   5.981 -1.0596 -2.1158 -1.4180
  256MOL0     H35289   1.884   4.989   5.870  3.0388 -3.7485  0.3506
  256MOL0     H35290   1.502   5.386   6.303  5.3712 -2.1107 -1.2799
  256MOL0     H35291   1.264   5.320   6.334 -0.6317 -0.5805 -2.9030
  256MOL0     H35292   1.214   4.846   6.317 -0.9077 -0.4981 -0.4783
  256MOL0     H35293   1.071   4.908   6.415  2.5646  3.4632  3.1408
  256MOL0     H35294   1.131   4.935   6.120  2.1370 -1.0080  1.4773
  256MOL0     H35295   1.007   4.830   6.185 -2.5130  0.9076 -1.6197
  256MOL0     H35296   0.995   5.142   6.236  5.4825 -0.2470 -0.7281
  256MOL0     H35297   0.909   5.017   6.334  1.5553  0.7682  0.1517
  256MOL0     H35298   0.807   4.929   6.104  0.9769 -1.2526  3.2475
  256MOL0     H35299   0.841   5.091   6.046 -3.1475  3.8708  2.9134
  256MOL0     H35300   0.692   5.076   6.299 -0.4686 -2.0150 -0.2045
  256MOL0     H35301   0.722   5.214   6.192 -2.9282  1.3735  3.5173
  256MOL0     H35302   0.578   4.954   6.114  1.7724 -0.2152  2.3872
  256MOL0     H35303   0.601   5.087   6.005  2.4546  1.0604  0.4628
  256MOL0     H35304   0.419   5.204   6.161 -2.3023 -0.6690  0.3201
  256MOL0     H35305   0.459   5.075   6.279  3.6538 -1.4337 -0.4124
  256MOL0     H35306   0.231   5.040   6.172 -0.7918 -1.9102 -0.1327
  256MOL0     H35307   0.337   4.903   6.151 -2.1841 -0.6735  0.3626
  256MOL0     H35308   1.392   4.918   6.246 -2.0585  0.6356  1.3576
  256MOL0     H35309   1.596   5.001   6.168 -2.6302 -1.7965 -2.9513
  256MOL0     H35310   1.836   5.457   6.099 -3.6816 -0.6813 -2.3988
  256MOL0     H35311   2.063   5.535   6.022 -1.0922 -0.2100  0.7917
  256MOL0     H35312   3.751   4.660   6.371 -2.4779  0.6961 -2.7860
  256MOL0     H35313   3.987   4.678   6.327 -2.4274  0.4775  0.9421
  256MOL0     H35314   4.339   4.367   5.885  1.3193 -2.5955  1.2679
  256MOL0     H35315   4.528   4.487   5.786  1.4559  5.2638 -0.9372
  256MOL0     H35316   4.757   4.510   5.786  0.7819 -0.3242  0.0704
  256MOL0     H35317   4.709   4.653   5.705  0.4263 -2.6773  0.1039
  256MOL0     H35318   4.955   4.611   5.886  0.3915  2.4952  1.1447
  256MOL0     H35319   4.920   4.768   5.829  0.3038 -0.1575  1.2985
  256MOL0     H35320   5.083   4.671   5.659  0.6521  0.6412  0.5691
  256MOL0     H35321   5.001   4.519   5.648  2.2020  0.6079 -0.6728
  256MOL0     H35322   4.873   4.778   5.579 -0.5026  0.0950 -0.9911
  256MOL0     H35323   4.812   4.611   5.547  1.3231 -1.4997  0.2185
  256MOL0     H35324   5.107   4.701   5.240 -1.8740 -0.6253 -2.5005
  256MOL0     H35325   4.569   4.743   6.125 -2.1100  0.8209  0.9459
  256MOL0     H35326   4.409   4.741   6.297  0.7649  0.2004 -2.2923
  256MOL0     H35327   4.250   4.725   6.245 -0.5146 -0.2896  2.8908
  256MOL0     H35328   4.322   4.589   6.325  1.7193  2.3084  2.7634
  257MOL0     O35329   1.728   5.346   0.967 -0.1370  0.3715  0.8804
  257MOL0     C35330   1.777   5.434   1.043 -0.4351  0.2617 -0.5702
  257MOL0     O35331   1.912   5.425   1.093 -0.3261 -0.3651  0.1178
  257MOL0     C35332   2.003   5.331   1.046  0.4762 -0.2028 -0.0324
  257MOL0     C35333   1.964   5.191   1.040  0.4166  0.1124  0.7304
  257MOL0     C35334   2.066   5.097   1.019 -0.0537 -0.7518 -0.1388
  257MOL0     C35335   2.198   5.133   0.997 -0.3889  0.0503 -1.5068
  257MOL0     O35336   2.309   5.043   0.984 -0.5191 -0.3694 -0.8122
  257MOL0     C35337   2.278   4.908   0.960  0.0412  0.4506  1.0690
  257MOL0     C35338   2.394   4.821   0.953  0.6802  0.3264 -0.0887
  257MOL0     C35339   2.480   4.859   0.827  1.1908  0.5689 -0.1487
  257MOL0     C35340   2.559   4.739   0.797 -0.3173  0.1002  0.0887
  257MOL0     C35341   2.679   4.781   0.705  0.3454 -0.7259  0.6558
  257MOL0     C35342   2.745   4.655   0.654 -0.2928 -0.1288 -0.6116
  257MOL0     C35343   2.856   4.673   0.552 -0.2075  0.5870  0.7414
  257MOL0     C35344   2.982   4.741   0.610  0.4700  0.4025 -0.0113
  257MOL0     N35345   3.106   4.668   0.580  0.1103  0.0958 -1.0873
  257MOL0     C35346   3.190   4.606   0.670  0.1802  0.4161  0.4051
  257MOL0     C35347   3.285   4.561   0.579 -0.0548  0.5499  0.7194
  257MOL0     C35348   3.408   4.502   0.635  0.2920  0.0772 -0.3598
  257MOL0     C35349   3.491   4.411   0.533 -0.0061 -0.0994 -0.0461
  257MOL0     C35350   3.597   4.347   0.630 -0.0762  0.5848  0.3612
  257MOL0     C35351   3.662   4.243   0.558 -0.6182  0.4828  0.6131
  257MOL0     O35352   3.581   4.130   0.550  0.4136 -0.4542 -0.2581
  257MOL0     C35353   3.627   4.032   0.464 -0.2580 -0.2202  1.2479
  257MOL0     C35354   3.549   3.916   0.445  0.1068  0.9447 -0.5637
  257MOL0     C35355   3.595   3.816   0.357  0.0364 -0.1132  0.6127
  257MOL0     C35356   3.493   3.705   0.324 -0.0021  0.6547  0.4649
  257MOL0     C35357   3.724   3.817   0.301 -0.6400 -0.8089 -0.2885
  257MOL0     C35358   3.785   3.713   0.215 -0.6171 -0.2739 -0.1601
  257MOL0     O35359   3.707   3.652   0.120  0.2994  0.3875  0.7355
  257MOL0     C35360   3.761   3.553   0.036 -0.3974 -0.7809 -0.5118
  257MOL0     C35361   3.866   3.578  -0.055  0.3940  0.3050 -1.2383
  257MOL0     C35362   3.927   3.477  -0.124  1.2281  0.6911 -0.1616
  257MOL0     C35363   3.881   3.339  -0.104  0.2853 -1.1068 -0.0401
  257MOL0     O35364   3.950   3.230  -0.156 -0.4965 -0.0639  0.6016
  257MOL0     C35365   4.015   3.236  -0.288  0.0176 -0.5270  0.5204
  257MOL0     C35366   4.122   3.139  -0.290 -1.5892  0.3223  0.0662
  257MOL0     C35367   4.243   3.184  -0.195 -0.1963  0.2841  0.7232
  257MOL0     C35368   4.357   3.078  -0.196 -0.2497  0.6898  0.7080
  257MOL0     C35369   4.463   3.093  -0.086  0.3120 -0.4072  0.5097
  257MOL0     C35370   4.584   2.995  -0.102  0.1460 -0.1774  0.2208
  257MOL0     C35371   4.545   2.846  -0.092 -0.0916 -0.5535  0.2292
  257MOL0     C35372   4.643   2.765  -0.019  0.3589 -0.0514 -1.2459
  257MOL0    Cl35373   4.800   2.758  -0.104  0.2087 -0.0811  0.1072
  257MOL0     C35374   3.779   3.312  -0.009 -0.4409 -0.0684 -0.1154
  257MOL0     C35375   3.718   3.424   0.045 -0.1332  0.1366  0.5369
  257MOL0     O35376   3.910   3.693   0.226 -0.0445  0.2920 -0.2458
  257MOL0     C35377   3.793   3.934   0.318  0.1908  0.2324 -0.0494
  257MOL0     C35378   3.745   4.037   0.395 -0.2837 -0.6630 -0.2373
  257MOL0     N35379   3.256   4.602   0.449 -0.1739  0.2136 -0.7589
  257MOL0     N35380   3.162   4.686   0.458  0.4670  0.5693 -0.5135
  257MOL0     C35381   2.234   5.270   1.013 -0.5110  0.4949  0.5946
  257MOL0     C35382   2.135   5.364   1.033  0.6166 -0.7232 -0.1448
  257MOL0     C35383   1.711   5.558   1.070  0.1228  0.1526 -0.5810
  257MOL0     C35384   1.765   5.641   1.173  1.1163 -0.3439  0.2615
  257MOL0     C35385   1.696   5.751   1.230  0.1903  0.6744 -0.1662
  257MOL0     C35386   1.570   5.793   1.183 -0.2392  0.4795  0.1106
  257MOL0     O35387   1.513   5.890   1.256 -0.0197  0.7396 -0.2049
  257MOL0     C35388   1.403   5.960   1.195  0.6803  0.4404 -0.1453
  257MOL0     C35389   1.383   6.092   1.278 -0.2089  0.1375 -0.0555
  257MOL0     C35390   1.505   6.182   1.250 -0.0728  1.4043  0.4098
  257MOL0     C35391   1.552   6.273   1.369  0.5504  0.2892 -0.6771
  257MOL0     C35392   1.488   6.394   1.381 -0.0716 -0.6564 -0.5139
  257MOL0     C35393   1.417   6.488   1.396  0.0578 -0.6488 -0.5906
  257MOL0     C35394   1.514   5.712   1.081  0.2802  0.1470  1.2324
  257MOL0     C35395   1.587   5.597   1.024  1.1481 -0.9344 -0.0479
  257MOL0     C35396   1.502   5.506   0.931 -0.0792 -0.8821  0.3856
  257MOL0     H35397   1.866   5.146   1.048  0.6975 -0.5207  0.6830
  257MOL0     H35398   2.044   4.991   1.024 -2.4849 -0.2620  0.6390
  257MOL0     H35399   2.236   4.916   0.860 -2.4696  4.1481  2.2095
  257MOL0     H35400   2.205   4.869   1.031 -1.4862  2.4136  0.6705
  257MOL0     H35401   2.445   4.821   1.050  1.0270 -3.0328 -0.1314
  257MOL0     H35402   2.357   4.719   0.938 -0.1009  0.2629  1.9629
  257MOL0     H35403   2.418   4.891   0.743 -0.7494 -1.5378  0.3975
  257MOL0     H35404   2.546   4.942   0.856 -1.0661  2.1127  0.8350
  257MOL0     H35405   2.598   4.689   0.887  0.8783  0.9647  0.0734
  257MOL0     H35406   2.493   4.665   0.751 -1.7583  1.3835  0.0215
  257MOL0     H35407   2.737   4.851   0.765 -1.8923  2.8228 -0.9712
  257MOL0     H35408   2.641   4.832   0.616  0.5544  1.8990  1.9903
  257MOL0     H35409   2.786   4.617   0.749 -3.0873  0.8461  1.0959
  257MOL0     H35410   2.678   4.580   0.611  0.1148 -0.8921  0.0502
  257MOL0     H35411   2.816   4.744   0.480  0.7401  2.9814  2.4612
  257MOL0     H35412   2.883   4.578   0.503 -0.2572  1.1528 -0.4200
  257MOL0     H35413   2.976   4.843   0.570 -1.6985  1.0068  1.6463
  257MOL0     H35414   2.968   4.743   0.719 -2.4408 -2.7098 -0.2007
  257MOL0     H35415   3.178   4.613   0.778 -0.5447  0.7958  0.3053
  257MOL0     H35416   3.361   4.439   0.711 -0.4574 -1.2148 -1.8461
  257MOL0     H35417   3.470   4.578   0.685 -0.1930 -0.8023  1.6993
  257MOL0     H35418   3.434   4.325   0.495  2.2435 -1.2331 -1.0667
  257MOL0     H35419   3.535   4.467   0.449 -0.6692 -3.9488 -3.2703
  257MOL0     H35420   3.668   4.427   0.654 -1.0888  0.7663  3.0887
  257MOL0     H35421   3.557   4.305   0.723  0.8855 -0.4112  0.3527
  257MOL0     H35422   3.702   4.273   0.461  0.2815  0.6961  1.0415
  257MOL0     H35423   3.751   4.222   0.618 -0.3133  2.8748  1.1014
  257MOL0     H35424   3.450   3.917   0.488  0.6030  2.7471  0.6584
  257MOL0     H35425   3.458   3.726   0.222  1.8788  2.1263  0.0589
  257MOL0     H35426   3.403   3.696   0.385 -0.5324 -0.5177 -0.4444
  257MOL0     H35427   3.551   3.613   0.329 -3.3589 -1.7627 -0.9378
  257MOL0     H35428   3.908   3.678  -0.056  0.7629  0.1542 -1.1000
  257MOL0     H35429   4.015   3.508  -0.180  0.2311  0.1159 -2.1555
  257MOL0     H35430   3.943   3.211  -0.367 -1.8277  0.4929  1.8132
  257MOL0     H35431   4.057   3.336  -0.307 -2.2228  0.1457 -1.4481
  257MOL0     H35432   4.089   3.038  -0.263  0.4909 -1.2645 -2.7839
  257MOL0     H35433   4.152   3.135  -0.395 -0.5603  2.2784  0.2469
  257MOL0     H35434   4.201   3.210  -0.097 -1.6659  0.3790  0.0935
  257MOL0     H35435   4.291   3.277  -0.225  0.5324  0.0329  1.0881
  257MOL0     H35436   4.409   3.090  -0.292 -1.6832  1.6409  0.0119
  257MOL0     H35437   4.312   2.978  -0.196  0.6713  0.2671  0.6515
  257MOL0     H35438   4.509   3.192  -0.074  0.9074 -0.6258  0.1047
  257MOL0     H35439   4.413   3.061   0.006 -1.6147 -3.7533 -1.5143
  257MOL0     H35440   4.662   3.010  -0.028  1.2072  2.1682 -1.2603
  257MOL0     H35441   4.619   2.996  -0.206 -1.1955 -2.0285 -0.3173
  257MOL0     H35442   4.539   2.802  -0.192 -4.0060 -0.6223  0.3577
  257MOL0     H35443   4.443   2.834  -0.053 -0.8367  0.7786 -1.2126
  257MOL0     H35444   4.602   2.667   0.007 -1.4591  1.3193  1.5231
  257MOL0     H35445   4.667   2.812   0.077 -1.2299 -0.0075 -0.8382
  257MOL0     H35446   3.749   3.215   0.027 -0.4498 -0.5191 -1.3023
  257MOL0     H35447   3.645   3.398   0.122  0.0128  4.8197  2.5553
  257MOL0     H35448   3.886   3.939   0.263 -1.5820  0.3618 -3.3132
  257MOL0     H35449   3.816   4.119   0.396  0.4100 -1.2452 -0.3377
  257MOL0     H35450   2.335   5.311   1.010 -1.0901  2.0137 -2.5293
  257MOL0     H35451   2.166   5.466   1.051  2.8658 -1.9120  4.1767
  257MOL0     H35452   1.861   5.627   1.221 -0.4991  1.3579  4.4883
  257MOL0     H35453   1.724   5.810   1.316 -3.1510  1.0355  0.8401
  257MOL0     H35454   1.422   5.983   1.090 -1.1241  2.4370 -0.1103
  257MOL0     H35455   1.313   5.898   1.193  2.1031 -1.7605 -2.9077
  257MOL0     H35456   1.373   6.063   1.383 -1.8562 -0.8622 -0.4434
  257MOL0     H35457   1.286   6.134   1.249 -0.6920 -0.7993  0.1652
  257MOL0     H35458   1.595   6.131   1.217 -2.0429 -0.7326 -2.0859
  257MOL0     H35459   1.482   6.244   1.163 -2.7141  1.0478  0.7716
  257MOL0     H35460   1.661   6.287   1.371  1.0205 -1.6382  4.6309
  257MOL0     H35461   1.541   6.213   1.460  2.8354  0.4180 -0.2395
  257MOL0     H35462   1.345   6.567   1.397 -0.4535 -1.0936 -1.2975
  257MOL0     H35463   1.417   5.748   1.049  1.0236  2.0444  0.9806
  257MOL0     H35464   1.405   5.552   0.908  1.0541  1.3863 -0.1308
  257MOL0     H35465   1.551   5.505   0.833 -3.6110 -0.0801 -1.5789
  257MOL0     H35466   1.490   5.400   0.956  0.3094 -1.8143 -2.8351
  258MOL0     O35467   0.985   0.882   7.527 -0.0254 -0.1514  0.2712
  258MOL0     C35468   0.954   0.766   7.545  0.8145 -0.7191 -1.1526
  258MOL0     O35469   1.027   0.673   7.615 -0.7849 -1.0982 -0.8251
  258MOL0     C35470   1.119   0.714   7.707 -0.1894  0.0817 -0.0372
  258MOL0     C35471   1.142   0.842   7.752  0.6612 -0.1163  0.1799
  258MOL0     C35472   1.244   0.867   7.836  0.1462  0.2029  0.4954
  258MOL0     C35473   1.323   0.769   7.892 -0.5996  0.0049 -0.2953
  258MOL0     O35474   1.415   0.797   7.999 -0.0200 -0.5161  0.6511
  258MOL0     C35475   1.522   0.893   7.962 -0.3439 -0.2860 -1.3353
  258MOL0     C35476   1.579   0.938   8.098 -0.5434 -0.0744 -0.0513
  258MOL0     C35477   1.519   1.066   8.137  0.1540  0.9116 -0.4264
  258MOL0     C35478   1.590   1.134   8.259 -0.1805 -0.2385 -0.8627
  258MOL0     C35479   1.714   1.205   8.209 -0.0618  0.9913  0.3960
  258MOL0     C35480   1.840   1.204   8.306  0.6022  0.6793 -0.4673
  258MOL0     C35481   1.927   1.325   8.294 -0.8948  0.4889 -0.4209
  258MOL0     C35482   2.059   1.326   8.390  0.7738 -0.5419  1.1732
  258MOL0     N35483   2.025   1.337   8.532  0.4025 -1.5572 -0.0530
  258MOL0     C35484   1.921   1.425   8.584 -0.6233 -0.2676 -0.5133
  258MOL0     C35485   1.930   1.383   8.718  0.5734  0.8987 -0.1569
  258MOL0     C35486   1.828   1.446   8.814  0.5458  0.1071 -0.3559
  258MOL0     C35487   1.888   1.445   8.958 -0.2327 -0.4934 -0.1655
  258MOL0     C35488   1.839   1.555   9.047 -1.5153  0.5197 -0.3907
  258MOL0     C35489   1.919   1.556   9.177 -0.7817  0.4301  0.1728
  258MOL0     O35490   2.039   1.632   9.161  0.1378 -0.4455 -0.3950
  258MOL0     C35491   2.035   1.769   9.167  0.1482 -0.0239 -0.3422
  258MOL0     C35492   2.155   1.828   9.127 -0.5124  0.4387  0.0388
  258MOL0     C35493   2.179   1.970   9.133  0.2285  0.8251 -0.4725
  258MOL0     C35494   2.320   2.020   9.100  0.5299 -0.0806 -0.5306
  258MOL0     C35495   2.067   2.050   9.166 -1.7277 -0.6154 -0.3026
  258MOL0     C35496   2.074   2.200   9.163  0.4283  0.3431  0.3241
  258MOL0     O35497   1.959   2.270   9.179  0.4267  0.7098  0.0758
  258MOL0     C35498   1.947   2.379   9.102 -0.5903  0.9076  0.6049
  258MOL0     C35499   1.890   2.369   8.983 -0.3494 -0.4629 -0.4738
  258MOL0     C35500   1.890   2.474   8.889  0.7881  0.4509  0.6560
  258MOL0     C35501   1.918   2.604   8.921  0.3302  0.8238 -1.4865
  258MOL0     O35502   1.885   2.709   8.836 -0.0193  0.4981  0.4518
  258MOL0     C35503   1.900   2.838   8.881 -0.2297  0.6641 -0.6722
  258MOL0     C35504   1.876   2.937   8.767 -0.2640  0.2585  0.0756
  258MOL0     C35505   1.729   2.941   8.739  0.6270 -0.3181 -0.3206
  258MOL0     C35506   1.689   3.070   8.675  0.5293 -0.0274 -0.3123
  258MOL0     C35507   1.534   3.056   8.642 -0.3444  0.2179 -0.0528
  258MOL0     C35508   1.483   3.170   8.558 -0.9576 -0.2244  0.4618
  258MOL0     C35509   1.547   3.166   8.420 -0.1324 -0.3080  0.3245
  258MOL0     C35510   1.519   3.296   8.346  0.0665  1.1309 -0.3211
  258MOL0    Cl35511   1.627   3.312   8.205  0.9068 -0.1419  0.1047
  258MOL0     C35512   1.952   2.616   9.057  0.1381 -0.1522 -0.9363
  258MOL0     C35513   1.976   2.510   9.141  0.6196  0.4179 -0.7144
  258MOL0     O35514   2.181   2.254   9.155  0.0472  0.0839  0.1803
  258MOL0     C35515   1.953   1.998   9.218 -0.2794 -0.3249  0.5024
  258MOL0     C35516   1.937   1.849   9.213 -0.1449 -0.5659  1.5038
  258MOL0     N35517   2.033   1.304   8.748  0.4585  0.4752  0.3502
  258MOL0     N35518   2.079   1.274   8.634 -0.3665 -0.2352  0.7366
  258MOL0     C35519   1.314   0.641   7.845  0.6607  0.1514  0.8399
  258MOL0     C35520   1.214   0.614   7.746  0.2686 -0.8853 -1.0870
  258MOL0     C35521   0.813   0.726   7.493 -0.1865  0.0765 -1.2786
  258MOL0     C35522   0.760   0.607   7.546  0.1886 -0.2552 -0.1588
  258MOL0     C35523   0.631   0.566   7.494  0.3959  0.7673 -0.8478
  258MOL0     C35524   0.549   0.641   7.424 -0.1597  0.1204  0.4963
  258MOL0     O35525   0.428   0.595   7.385  0.6929 -0.5255 -0.5386
  258MOL0     C35526   0.380   0.466   7.400 -0.3512  0.1353  0.5802
  258MOL0     C35527   0.233   0.457   7.378 -0.1013 -0.4839  0.6369
  258MOL0     C35528   0.162   0.542   7.494  0.2382  1.0334 -0.0130
  258MOL0     C35529   0.007   0.505   7.499  0.9089  0.5460 -0.5575
  258MOL0     C35530  -0.077   0.599   7.408 -0.7124 -0.1701  0.6374
  258MOL0     C35531  -0.161   0.677   7.358  1.0926  0.3717 -0.5143
  258MOL0     C35532   0.598   0.770   7.383  0.2001 -0.7542  0.5001
  258MOL0     C35533   0.732   0.812   7.414  0.1930 -0.1177  0.2785
  258MOL0     C35534   0.772   0.939   7.350  0.4479 -0.6836  0.1037
  258MOL0     H35535   1.091   0.932   7.722 -0.9467 -1.1990 -0.4941
  258MOL0     H35536   1.264   0.966   7.877 -1.6610 -0.2385  2.6251
  258MOL0     H35537   1.487   0.970   7.893  1.3838  1.4655 -0.3634
  258MOL0     H35538   1.601   0.836   7.913  1.4130  1.2860 -0.4436
  258MOL0     H35539   1.571   0.860   8.175  2.1468  0.0506  0.4365
  258MOL0     H35540   1.684   0.961   8.078 -0.5774  1.1124  1.0553
  258MOL0     H35541   1.514   1.132   8.050 -1.3588  3.3465  1.3666
  258MOL0     H35542   1.416   1.052   8.172  0.8913  1.2638  2.1321
  258MOL0     H35543   1.509   1.196   8.298 -1.6835 -2.7380  0.1787
  258MOL0     H35544   1.608   1.070   8.346 -0.7890  0.1978 -0.4107
  258MOL0     H35545   1.676   1.308   8.211 -3.4210  0.0388 -2.9514
  258MOL0     H35546   1.752   1.186   8.108  0.4156  1.5688  0.4583
  258MOL0     H35547   1.783   1.216   8.398 -4.8676  1.8057 -3.5227
  258MOL0     H35548   1.891   1.108   8.303  1.1916  1.0063 -1.5456
  258MOL0     H35549   1.854   1.404   8.314  0.6023  1.7598  0.2650
  258MOL0     H35550   1.956   1.336   8.189 -0.0082 -0.9765 -0.3598
  258MOL0     H35551   2.125   1.244   8.360 -1.0118 -1.4036 -0.6612
  258MOL0     H35552   2.117   1.417   8.370  1.1545 -0.3397  3.0165
  258MOL0     H35553   1.854   1.484   8.523 -1.7309  0.7810  1.6220
  258MOL0     H35554   1.745   1.376   8.796  1.0906  0.3441 -5.3385
  258MOL0     H35555   1.799   1.546   8.780  0.5029 -0.0296 -0.7262
  258MOL0     H35556   1.872   1.355   9.018 -0.1565 -1.1038 -1.0247
  258MOL0     H35557   1.996   1.459   8.949 -0.1391  0.8492  2.2995
  258MOL0     H35558   1.871   1.649   9.002 -0.0255  1.3390  2.1359
  258MOL0     H35559   1.732   1.548   9.069 -1.2179  1.3661  1.5900
  258MOL0     H35560   1.848   1.587   9.254 -1.8942 -1.7601  0.0867
  258MOL0     H35561   1.946   1.453   9.201 -0.8297 -0.4429 -3.0621
  258MOL0     H35562   2.244   1.774   9.095  0.3625  0.8442  1.6853
  258MOL0     H35563   2.324   2.079   9.009 -1.7819  0.3998 -0.3788
  258MOL0     H35564   2.392   1.938   9.087 -1.0770 -1.6496  0.0336
  258MOL0     H35565   2.359   2.084   9.180 -0.1387  0.3565 -0.5412
  258MOL0     H35566   1.878   2.265   8.957  3.0605 -1.2832  0.7702
  258MOL0     H35567   1.866   2.456   8.785  1.9325  1.6629  0.1461
  258MOL0     H35568   1.826   2.848   8.961  1.0579 -1.7223  0.9103
  258MOL0     H35569   1.993   2.854   8.937 -1.9155 -0.9440  2.8739
  258MOL0     H35570   1.905   3.039   8.794  0.5087  0.1008 -0.1287
  258MOL0     H35571   1.932   2.910   8.677 -0.2773  0.2795  0.0608
  258MOL0     H35572   1.681   2.924   8.836  1.3050 -1.1602 -0.1128
  258MOL0     H35573   1.709   2.855   8.675 -0.3554  0.0054 -0.4678
  258MOL0     H35574   1.761   3.093   8.596  0.7194 -0.5451 -0.2976
  258MOL0     H35575   1.696   3.154   8.744 -1.3725  0.6314 -0.8630
  258MOL0     H35576   1.518   2.957   8.600  3.5392 -0.1516 -0.9726
  258MOL0     H35577   1.475   3.070   8.733  2.1964  1.3352  1.5243
  258MOL0     H35578   1.505   3.267   8.605 -1.7205  0.3957 -0.4340
  258MOL0     H35579   1.374   3.170   8.555 -1.0326  1.4912  1.7747
  258MOL0     H35580   1.497   3.096   8.353 -3.6459  2.4411 -0.2197
  258MOL0     H35581   1.655   3.153   8.423 -0.4091 -3.1263  0.5733
  258MOL0     H35582   1.544   3.378   8.414 -2.7209  1.0221  0.9989
  258MOL0     H35583   1.417   3.301   8.307  0.8002 -1.0261 -2.8712
  258MOL0     H35584   1.972   2.717   9.092 -1.5814 -0.1131  0.0234
  258MOL0     H35585   2.000   2.530   9.245  3.3129  0.0851 -1.1854
  258MOL0     H35586   1.862   2.056   9.235 -1.7587 -2.6139  0.7823
  258MOL0     H35587   1.835   1.812   9.216 -1.6930  3.1763  0.8587
  258MOL0     H35588   1.383   0.563   7.876  2.6437  0.4925 -2.2535
  258MOL0     H35589   1.195   0.512   7.715  3.0413 -2.1175  0.8026
  258MOL0     H35590   0.823   0.544   7.609 -1.5426 -1.4679  0.4304
  258MOL0     H35591   0.596   0.470   7.531 -0.2458  1.0470 -0.7096
  258MOL0     H35592   0.433   0.391   7.340 -1.2654 -2.7607  3.0899
  258MOL0     H35593   0.394   0.437   7.505 -0.9793 -1.5063  0.2541
  258MOL0     H35594   0.208   0.351   7.367 -0.2101 -0.2442 -1.9896
  258MOL0     H35595   0.210   0.514   7.287 -0.3388  0.5394  1.3195
  258MOL0     H35596   0.224   0.518   7.580  1.5876  2.0111 -0.6664
  258MOL0     H35597   0.174   0.650   7.484 -4.3888  1.8138  0.8238
  258MOL0     H35598  -0.027   0.534   7.599  4.1785  3.4048 -0.1168
  258MOL0     H35599  -0.014   0.402   7.470 -1.3512  1.3509 -2.0949
  258MOL0     H35600  -0.247   0.740   7.346  0.1048 -0.5723  1.1814
  258MOL0     H35601   0.523   0.828   7.331  1.0694  1.1819  1.2966
  258MOL0     H35602   0.692   0.991   7.296  3.1861  1.7970 -1.8278
  258MOL0     H35603   0.798   1.002   7.436 -0.7273 -2.1921  1.6522
  258MOL0     H35604   0.851   0.912   7.280 -0.1306 -2.7520  0.1853
  259MOL0     O35605   5.060   8.796   0.871  0.3756 -1.0722 -0.1363
  259MOL0     C35606   4.963   8.824   0.807  0.5676  0.6800  0.3858
  259MOL0     O35607   4.832   8.785   0.839  0.1243 -0.0725 -0.5074
  259MOL0     C35608   4.820   8.662   0.914  0.6716 -0.8338 -0.4802
  259MOL0     C35609   4.724   8.657   1.019 -0.1658  0.5750 -0.0800
  259MOL0     C35610   4.695   8.544   1.094 -0.5991 -0.3817  0.0676
  259MOL0     C35611   4.752   8.427   1.047  0.0994 -0.6083  0.6321
  259MOL0     O35612   4.713   8.304   1.092 -0.1736  0.4841 -0.2824
  259MOL0     C35613   4.671   8.278   1.221  0.8538  0.7499  1.0975
  259MOL0     C35614   4.635   8.128   1.206  0.2629  0.6268  1.2200
  259MOL0     C35615   4.544   8.071   1.309 -1.3514  0.7631  0.7791
  259MOL0     C35616   4.560   7.914   1.323  0.2896  0.8989  0.9091
  259MOL0     C35617   4.489   7.866   1.439  1.3814  0.4625 -1.0161
  259MOL0     C35618   4.511   7.718   1.436 -0.0789 -0.3052 -0.4943
  259MOL0     C35619   4.432   7.636   1.534  0.6628  0.1409 -0.9187
  259MOL0     C35620   4.495   7.619   1.678 -0.1922  0.3333  0.2113
  259MOL0     N35621   4.408   7.545   1.767  0.3155  0.4912 -0.3392
  259MOL0     C35622   4.430   7.414   1.824  0.0464 -0.5164 -1.1793
  259MOL0     C35623   4.315   7.398   1.895 -0.1999 -0.9983 -0.7767
  259MOL0     C35624   4.283   7.280   1.984 -0.8536  0.4377 -0.4848
  259MOL0     C35625   4.131   7.255   1.986 -0.1371 -0.4428  0.2499
  259MOL0     C35626   4.086   7.139   2.082  0.0596 -0.0580  0.3893
  259MOL0     C35627   3.927   7.124   2.085 -0.0363  0.4576 -0.1170
  259MOL0     O35628   3.907   6.988   2.125 -0.6813  0.2307  0.6199
  259MOL0     C35629   3.933   6.886   2.035 -0.4430 -0.1705  0.4117
  259MOL0     C35630   3.923   6.908   1.896 -0.0826  0.6894 -0.2751
  259MOL0     C35631   3.952   6.805   1.798  0.6008 -0.4253 -0.1042
  259MOL0     C35632   3.937   6.849   1.651 -0.1023  0.5690  0.1431
  259MOL0     C35633   3.971   6.669   1.851 -0.3109 -0.9844  0.6166
  259MOL0     C35634   3.992   6.547   1.754 -0.4572 -1.1570  0.3285
  259MOL0     O35635   3.926   6.535   1.631  0.4005 -0.6677 -0.0640
  259MOL0     C35636   3.924   6.411   1.559  0.6941  0.2385  0.0826
  259MOL0     C35637   3.956   6.403   1.420  0.2114 -0.6486 -0.9057
  259MOL0     C35638   3.950   6.277   1.355  0.3129  0.0377 -0.8058
  259MOL0     C35639   3.916   6.152   1.425  0.1230 -0.1981 -0.0953
  259MOL0     O35640   3.925   6.031   1.356 -0.8372 -0.6487 -0.1753
  259MOL0     C35641   3.968   5.916   1.443 -0.0254  0.1433  0.4752
  259MOL0     C35642   3.850   5.826   1.478  0.6877  1.2370  0.2007
  259MOL0     C35643   3.863   5.765   1.607 -0.6468 -0.4143  0.6730
  259MOL0     C35644   3.733   5.677   1.624  0.1521 -0.5688  0.6505
  259MOL0     C35645   3.761   5.579   1.739  0.1268  0.1449  1.3504
  259MOL0     C35646   3.637   5.493   1.781 -0.8113  0.3644 -0.5329
  259MOL0     C35647   3.557   5.425   1.670 -0.1129  0.0604  0.6470
  259MOL0     C35648   3.439   5.337   1.712 -0.4862 -0.1839  0.1237
  259MOL0    Cl35649   3.508   5.184   1.761  0.1469 -0.0109 -0.2273
  259MOL0     C35650   3.887   6.165   1.563 -0.5980 -0.0574 -0.1498
  259MOL0     C35651   3.890   6.290   1.628  0.3401 -0.3278  0.3302
  259MOL0     O35652   4.079   6.472   1.798 -0.2185  0.7058  0.4231
  259MOL0     C35653   3.976   6.655   1.988 -0.2409  0.2433 -0.8827
  259MOL0     C35654   3.960   6.758   2.082 -1.2144 -0.9145 -0.1809
  259MOL0     N35655   4.231   7.504   1.894  0.1226 -1.7932 -0.1672
  259MOL0     N35656   4.290   7.591   1.817 -0.3669 -0.1507 -1.0108
  259MOL0     C35657   4.836   8.426   0.938  0.0221  0.3120  0.3583
  259MOL0     C35658   4.874   8.537   0.865 -0.9449  0.1985  0.4458
  259MOL0     C35659   4.979   8.917   0.695  0.1766  0.4724 -0.1320
  259MOL0     C35660   4.877   8.924   0.601 -0.8811  0.6486  0.3689
  259MOL0     C35661   4.878   9.025   0.512  0.0621  0.7287  0.0159
  259MOL0     C35662   4.986   9.113   0.487  0.4577 -0.4464 -0.3717
  259MOL0     O35663   4.996   9.202   0.377 -0.7559  0.5415  0.2728
  259MOL0     C35664   4.934   9.167   0.253  0.1932  0.5466  0.4185
  259MOL0     C35665   5.016   9.216   0.135  0.5383  0.0602  0.2774
  259MOL0     C35666   5.137   9.114   0.120  0.5201 -0.1149  0.7801
  259MOL0     C35667   5.255   9.140   0.207  0.0943  0.0456  0.0144
  259MOL0     C35668   5.359   9.039   0.187  0.1967  0.8348  0.5888
  259MOL0     C35669   5.436   8.947   0.177 -0.2928 -0.1077  0.5054
  259MOL0     C35670   5.096   9.082   0.568  0.1447  0.2079  0.1043
  259MOL0     C35671   5.099   8.990   0.674  0.3430  0.5041 -0.1918
  259MOL0     C35672   5.221   8.985   0.765 -1.2985  0.2585 -0.6350
  259MOL0     H35673   4.673   8.751   1.033  3.8002  3.8704 -4.4196
  259MOL0     H35674   4.639   8.552   1.187  2.3523  1.2326  1.8846
  259MOL0     H35675   4.583   8.336   1.248 -1.5348 -0.9693 -2.3372
  259MOL0     H35676   4.748   8.285   1.299 -0.7026 -2.3566  3.1578
  259MOL0     H35677   4.579   8.116   1.112  0.8740  0.5851  0.8552
  259MOL0     H35678   4.722   8.064   1.194 -1.8687 -1.9986 -2.0107
  259MOL0     H35679   4.577   8.116   1.403  2.1842 -0.5592  0.3363
  259MOL0     H35680   4.439   8.094   1.289 -1.7346 -1.7966 -0.5535
  259MOL0     H35681   4.527   7.875   1.226 -0.3653  2.7176  0.3458
  259MOL0     H35682   4.668   7.904   1.333  0.3075  0.7830  0.6015
  259MOL0     H35683   4.381   7.880   1.450  0.8528 -2.3617 -1.6298
  259MOL0     H35684   4.547   7.910   1.519 -0.3119  1.4416 -0.2734
  259MOL0     H35685   4.489   7.678   1.336 -1.1807  0.2988 -0.5004
  259MOL0     H35686   4.616   7.694   1.455  0.0142  0.8628  0.5210
  259MOL0     H35687   4.423   7.535   1.492 -2.3277  0.6479 -1.7865
  259MOL0     H35688   4.328   7.670   1.527 -0.3312 -2.7161 -1.3943
  259MOL0     H35689   4.583   7.555   1.675 -0.4282  0.0128 -0.0144
  259MOL0     H35690   4.519   7.716   1.721  2.2018  0.8108 -1.9719
  259MOL0     H35691   4.504   7.336   1.805  0.4489 -1.5886  3.5891
  259MOL0     H35692   4.327   7.287   2.084 -2.4848 -1.3317  0.4160
  259MOL0     H35693   4.345   7.194   1.957 -0.5515  0.2174  0.8148
  259MOL0     H35694   4.093   7.349   2.027 -1.4282 -1.2239  0.9052
  259MOL0     H35695   4.090   7.237   1.887  3.9463 -2.1998 -1.3435
  259MOL0     H35696   4.140   7.052   2.043  1.5195  0.6547  0.7293
  259MOL0     H35697   4.120   7.155   2.185 -1.9037  2.4595  0.7526
  259MOL0     H35698   3.874   7.180   2.163  0.0485 -2.0755  1.9328
  259MOL0     H35699   3.893   7.145   1.984  1.7243  3.0437 -0.2605
  259MOL0     H35700   3.897   7.006   1.858  1.6577  2.4338  2.6384
  259MOL0     H35701   3.962   6.955   1.641 -0.0665  0.6450  0.9331
  259MOL0     H35702   3.836   6.828   1.615  0.6518 -3.8109  0.0982
  259MOL0     H35703   4.005   6.791   1.589  2.2746  0.9367  2.2652
  259MOL0     H35704   3.989   6.494   1.369  0.3488 -0.5870 -0.7089
  259MOL0     H35705   3.979   6.270   1.251  1.9642 -2.0578 -0.2794
  259MOL0     H35706   4.039   5.853   1.389 -0.6575 -1.2301  1.1979
  259MOL0     H35707   4.011   5.951   1.537  0.4250  0.4734  0.1502
  259MOL0     H35708   3.757   5.883   1.479 -0.5051 -0.5932 -1.1072
  259MOL0     H35709   3.841   5.744   1.406 -1.2307 -1.6811  3.4672
  259MOL0     H35710   3.857   5.840   1.687  0.5410 -0.9502  1.2851
  259MOL0     H35711   3.953   5.703   1.611 -2.2090 -2.7764  1.0952
  259MOL0     H35712   3.698   5.623   1.536 -1.2005  3.6404 -1.7123
  259MOL0     H35713   3.645   5.739   1.644  0.6044 -0.4499  2.5269
  259MOL0     H35714   3.834   5.515   1.687  0.6088  1.0608  0.8731
  259MOL0     H35715   3.805   5.625   1.828  3.7970 -2.1362  0.9481
  259MOL0     H35716   3.573   5.563   1.835  0.3106  2.0958 -1.3749
  259MOL0     H35717   3.673   5.419   1.853 -1.4055  1.6803  1.1748
  259MOL0     H35718   3.624   5.368   1.605 -2.6919  0.1040 -2.2517
  259MOL0     H35719   3.515   5.496   1.599 -1.1873 -2.4388 -1.3747
  259MOL0     H35720   3.362   5.319   1.635 -0.5476  2.1159 -0.4231
  259MOL0     H35721   3.384   5.380   1.797  3.0990 -0.0473  2.5614
  259MOL0     H35722   3.876   6.089   1.639  2.9844 -2.3178 -1.6846
  259MOL0     H35723   3.870   6.296   1.735 -1.9190 -0.0696 -0.0510
  259MOL0     H35724   4.004   6.555   2.018  0.8050 -0.1064 -2.8901
  259MOL0     H35725   3.953   6.741   2.189 -0.8045  4.1799  0.8702
  259MOL0     H35726   4.884   8.332   0.912  2.6133  1.5325  0.4554
  259MOL0     H35727   4.941   8.529   0.780  1.6864 -0.3020  2.4374
  259MOL0     H35728   4.807   8.841   0.608  2.0877 -2.1416 -0.6080
  259MOL0     H35729   4.791   9.041   0.449  0.7273  0.3679 -1.0038
  259MOL0     H35730   4.929   9.059   0.240  0.6531  0.7294 -1.6389
  259MOL0     H35731   4.833   9.204   0.233  0.2032  0.0397 -0.6519
  259MOL0     H35732   5.061   9.313   0.160  0.3701  0.0390  0.6756
  259MOL0     H35733   4.954   9.239   0.048 -1.9552  3.1576  2.6242
  259MOL0     H35734   5.102   9.012   0.135 -1.2158  0.3783  0.3844
  259MOL0     H35735   5.167   9.122   0.015  0.6580 -1.0049  0.7491
  259MOL0     H35736   5.232   9.146   0.314 -0.7752  3.5739 -0.2478
  259MOL0     H35737   5.290   9.241   0.182 -0.2234  0.4097  0.9873
  259MOL0     H35738   5.511   8.870   0.179 -0.1376 -0.2156 -2.9160
  259MOL0     H35739   5.188   9.133   0.540 -1.2294  2.8852  0.1187
  259MOL0     H35740   5.246   8.878   0.771  0.1385  0.6176  3.9860
  259MOL0     H35741   5.308   9.045   0.736 -0.4258  2.4848  5.2284
  259MOL0     H35742   5.192   9.020   0.864  0.9502  1.2737 -0.2854
  260MOL0     O35743   8.854  10.241  10.531 -0.5663 -0.1760  0.7370
  260MOL0     C35744   8.790  10.267  10.427  0.3276 -0.4430  0.3371
  260MOL0     O35745   8.806  10.205  10.308 -0.3431 -0.4250 -0.2656
  260MOL0     C35746   8.703  10.221  10.217 -0.0246 -0.3999  0.1480
  260MOL0     C35747   8.702  10.316  10.111  0.5253  0.4301 -0.0871
  260MOL0     C35748   8.609  10.312  10.011 -0.0959  0.3292  0.4061
  260MOL0     C35749   8.515  10.212   9.996 -0.3791  1.0040  0.8985
  260MOL0     O35750   8.426  10.189   9.895  0.4157 -0.5406  0.5345
  260MOL0     C35751   8.405  10.294   9.806 -0.1013  0.4811 -0.2679
  260MOL0     C35752   8.310  10.259   9.700  0.2336  0.3162 -0.0425
  260MOL0     C35753   8.322  10.117   9.642  0.0544 -0.0828 -0.5383
  260MOL0     C35754   8.448  10.077   9.570 -0.4288  0.3260 -0.0930
  260MOL0     C35755   8.503  10.150   9.447 -1.4227 -0.7107  0.5206
  260MOL0     C35756   8.658  10.126   9.437  0.1606  0.6920  0.0579
  260MOL0     C35757   8.721  10.176   9.306  0.2352 -0.5718 -0.6936
  260MOL0     C35758   8.738  10.324   9.306  0.5262  0.4132 -0.0111
  260MOL0     N35759   8.780  10.376   9.178 -0.5487  0.1303 -0.2587
  260MOL0     C35760   8.705  10.397   9.065 -0.4956 -1.1611  0.5818
  260MOL0     C35761   8.789  10.465   8.971 -0.2896 -0.5350  0.5443
  260MOL0     C35762   8.761  10.501   8.822 -0.3263 -0.1628  0.8873
  260MOL0     C35763   8.840  10.620   8.778 -0.5888 -0.9292  0.0608
  260MOL0     C35764   8.813  10.666   8.634 -0.4005 -0.0487  1.0966
  260MOL0     C35765   8.941  10.746   8.589  0.1472  0.5942  0.0847
  260MOL0     O35766   8.917  10.823   8.474 -0.0029  0.5067 -0.7237
  260MOL0     C35767   8.836  10.937   8.494  0.4975  0.1476 -0.0841
  260MOL0     C35768   8.783  10.984   8.617 -0.1736  0.2764  0.1302
  260MOL0     C35769   8.696  11.087   8.626 -0.6656 -0.2468  0.1927
  260MOL0     C35770   8.641  11.136   8.754 -0.0685  0.4135 -0.2597
  260MOL0     C35771   8.657  11.149   8.510  1.2264 -0.3735 -0.3110
  260MOL0     C35772   8.561  11.261   8.502 -0.5431  0.6714 -0.0506
  260MOL0     O35773   8.563  11.336   8.396 -0.2956  0.2523  1.2504
  260MOL0     C35774   8.457  11.413   8.354  0.5995  0.2386  0.3312
  260MOL0     C35775   8.411  11.522   8.417  1.4805  0.1823 -0.2522
  260MOL0     C35776   8.299  11.589   8.376  0.4243  1.1555 -0.0019
  260MOL0     C35777   8.229  11.546   8.264  0.4247  0.6684 -0.4693
  260MOL0     O35778   8.121  11.619   8.233  0.9983 -0.3412 -0.2879
  260MOL0     C35779   8.016  11.566   8.151 -0.5520  0.1342 -0.3418
  260MOL0     C35780   7.897  11.659   8.145  0.3822  0.6194 -0.1849
  260MOL0     C35781   7.913  11.765   8.055 -0.3338 -0.6092 -0.1066
  260MOL0     C35782   7.831  11.901   8.079  0.8301 -0.6404  0.2382
  260MOL0     C35783   7.701  11.914   8.001 -0.0516  0.8947  1.2676
  260MOL0     C35784   7.637  12.046   7.982  1.3013 -0.9818 -0.1596
  260MOL0     C35785   7.497  12.026   7.927  0.3626 -0.1801  0.2388
  260MOL0     C35786   7.459  11.991   7.778 -0.4610  0.4691  0.5103
  260MOL0    Cl35787   7.577  12.054   7.659  0.0511 -0.2835 -0.1318
  260MOL0     C35788   8.268  11.431   8.198 -0.9177  1.0760 -0.2246
  260MOL0     C35789   8.383  11.366   8.242 -0.1505  0.3890 -0.6515
  260MOL0     O35790   8.470  11.272   8.592  0.2612 -0.2573 -0.4881
  260MOL0     C35791   8.722  11.121   8.391 -0.6378 -0.0377  0.8546
  260MOL0     C35792   8.797  11.005   8.381 -0.3293 -0.2643  0.4404
  260MOL0     N35793   8.910  10.480   9.035 -0.4987 -0.7233 -0.5335
  260MOL0     N35794   8.897  10.446   9.158 -0.2191  0.0735  0.0564
  260MOL0     C35795   8.525  10.113  10.100 -0.2355  0.6323 -0.2108
  260MOL0     C35796   8.616  10.120  10.209  0.6036 -0.0339  0.9829
  260MOL0     C35797   8.696  10.367  10.458  0.4554  0.0924 -0.3308
  260MOL0     C35798   8.571  10.328  10.511 -1.1290 -1.1748 -0.6076
  260MOL0     C35799   8.483  10.429  10.538 -0.3468 -0.6722  0.8931
  260MOL0     C35800   8.508  10.567  10.508 -0.0455 -1.2797  0.2595
  260MOL0     O35801   8.415  10.664  10.541 -0.4848  0.8634 -0.1254
  260MOL0     C35802   8.439  10.707  10.678  0.2615 -1.6163  0.1709
  260MOL0     C35803   8.578  10.772  10.719 -0.1183 -0.4739 -0.0312
  260MOL0     C35804   8.582  10.821  10.865 -1.6145  0.3484  0.9279
  260MOL0     C35805   8.573  10.711  10.972  0.2490  0.6694 -0.4874
  260MOL0     C35806   8.460  10.727  11.075  0.6037  0.2729  0.9175
  260MOL0     C35807   8.376  10.742  11.165 -0.5472 -0.5418  0.1667
  260MOL0     C35808   8.621  10.597  10.443 -0.2042  0.1929 -0.0098
  260MOL0     C35809   8.723  10.500  10.426 -0.1305 -0.0153 -0.7429
  260MOL0     C35810   8.855  10.544  10.354 -0.2584 -0.8344  0.0169
  260MOL0     H35811   8.768  10.400  10.093  0.8103  1.0345  3.0886
  260MOL0     H35812   8.631  10.380   9.928  2.0647 -4.2626 -3.2662
  260MOL0     H35813   8.502  10.328   9.768 -1.2415  3.9251 -0.4649
  260MOL0     H35814   8.366  10.378   9.865 -3.1389 -1.3995  0.6699
  260MOL0     H35815   8.208  10.265   9.740  0.8200  0.9265  1.4639
  260MOL0     H35816   8.325  10.340   9.629  0.2519  0.4043  0.0613
  260MOL0     H35817   8.291  10.049   9.721 -0.2254  2.4026  1.6096
  260MOL0     H35818   8.236  10.110   9.575 -0.3155 -0.0680 -0.0664
  260MOL0     H35819   8.531  10.083   9.642  0.9316 -1.2077 -1.4643
  260MOL0     H35820   8.437   9.973   9.540 -2.1424  0.2622  0.6334
  260MOL0     H35821   8.480  10.255   9.468 -4.2036 -1.1016 -0.2127
  260MOL0     H35822   8.449  10.116   9.358 -1.6990  2.2463 -0.5545
  260MOL0     H35823   8.699  10.162   9.532 -1.0111 -2.8641  2.0992
  260MOL0     H35824   8.673  10.018   9.442 -2.5747  0.2883  0.7924
  260MOL0     H35825   8.661  10.148   9.219 -2.5454  0.0025  0.9341
  260MOL0     H35826   8.820  10.129   9.302  1.2856  1.2404  1.5921
  260MOL0     H35827   8.643  10.375   9.327 -0.3498 -1.4279  0.6549
  260MOL0     H35828   8.806  10.350   9.387 -0.5732  1.7608  0.5447
  260MOL0     H35829   8.599  10.378   9.048 -0.5268 -1.2269  0.8541
  260MOL0     H35830   8.653  10.518   8.827 -0.6431 -1.6774 -0.1213
  260MOL0     H35831   8.773  10.413   8.758 -1.0600 -0.5073  1.2163
  260MOL0     H35832   8.811  10.707   8.838  2.4701  0.1777  0.1122
  260MOL0     H35833   8.946  10.597   8.786  0.4633  2.6954 -1.4571
  260MOL0     H35834   8.801  10.576   8.573 -0.1267  2.4406 -2.9192
  260MOL0     H35835   8.721  10.724   8.620 -0.6310 -0.5588  0.3924
  260MOL0     H35836   8.997  10.791   8.672  1.6060  0.4173 -0.7668
  260MOL0     H35837   9.019  10.684   8.544  0.0191  1.2216 -1.0402
  260MOL0     H35838   8.799  10.925   8.707 -1.3844 -2.1644 -1.1460
  260MOL0     H35839   8.537  11.107   8.772  0.3183  0.4983  2.6979
  260MOL0     H35840   8.648  11.244   8.765 -1.1654  0.5981 -1.2177
  260MOL0     H35841   8.708  11.100   8.833  0.2757  3.1442  0.7990
  260MOL0     H35842   8.443  11.549   8.517 -0.5400 -0.2463  0.5567
  260MOL0     H35843   8.262  11.673   8.435 -0.0182  0.9326  0.0455
  260MOL0     H35844   8.058  11.533   8.056  0.7898 -0.2160  0.3363
  260MOL0     H35845   7.983  11.476   8.204 -1.3057  2.4382  3.5346
  260MOL0     H35846   7.811  11.597   8.117  1.6300 -0.9490 -0.6676
  260MOL0     H35847   7.887  11.691   8.249 -3.4425 -0.0741 -0.1786
  260MOL0     H35848   7.880  11.709   7.966 -2.2406 -1.1516  0.8873
  260MOL0     H35849   8.016  11.796   8.038 -0.1885 -0.0703  1.5950
  260MOL0     H35850   7.891  11.986   8.045 -0.6854 -0.9204 -3.6334
  260MOL0     H35851   7.804  11.919   8.183 -1.7896  1.2096 -0.6418
  260MOL0     H35852   7.722  11.879   7.899  0.0699 -0.9368  1.8838
  260MOL0     H35853   7.627  11.851   8.052  0.4771 -1.2131 -0.4020
  260MOL0     H35854   7.699  12.107   7.916  0.3534  1.2020  0.8639
  260MOL0     H35855   7.627  12.091   8.081 -1.1651  0.5511 -1.0223
  260MOL0     H35856   7.450  12.123   7.949  0.2046 -0.5614  1.6880
  260MOL0     H35857   7.435  11.965   7.994  1.9385 -0.1951  1.7432
  260MOL0     H35858   7.370  12.054   7.764  2.3371  4.7427 -0.0869
  260MOL0     H35859   7.435  11.884   7.771 -0.7858  0.5831 -0.4409
  260MOL0     H35860   8.223  11.384   8.112  0.1362 -0.3009 -0.0621
  260MOL0     H35861   8.410  11.273   8.192 -1.7513  0.6116 -1.9983
  260MOL0     H35862   8.693  11.181   8.305 -2.6926  0.9601  2.1593
  260MOL0     H35863   8.825  10.974   8.280  1.6667 -0.6264  1.0628
  260MOL0     H35864   8.456  10.029  10.098 -0.9191  1.1245  1.1700
  260MOL0     H35865   8.620  10.044  10.287 -0.5594  0.8502  1.9299
  260MOL0     H35866   8.543  10.225  10.531  0.6575 -1.3482  1.3787
  260MOL0     H35867   8.394  10.399  10.592 -2.0757  1.4859 -0.5572
  260MOL0     H35868   8.352  10.766  10.709 -0.4386 -2.8278  0.6072
  260MOL0     H35869   8.421  10.621  10.744  0.9954 -0.2873  2.2157
  260MOL0     H35870   8.594  10.869  10.672  0.3685  0.0320  1.1502
  260MOL0     H35871   8.658  10.698  10.707 -0.7648 -1.2957  0.6350
  260MOL0     H35872   8.666  10.890  10.875 -3.3293  2.5314  1.0695
  260MOL0     H35873   8.497  10.889  10.870 -2.3065 -0.5507  2.3783
  260MOL0     H35874   8.672  10.690  11.014 -0.4783 -0.7120  0.6143
  260MOL0     H35875   8.538  10.615  10.932  1.7410 -0.4861  0.8223
  260MOL0     H35876   8.295  10.740  11.236 -0.4841 -0.0498  0.2586
  260MOL0     H35877   8.640  10.697  10.407  3.2362 -0.4721 -0.3645
  260MOL0     H35878   8.845  10.529  10.246 -2.7141 -0.4786  0.1416
  260MOL0     H35879   8.878  10.650  10.372  0.2338 -0.9588  0.1510
  260MOL0     H35880   8.947  10.491  10.382  1.0913 -0.1166 -2.6875
  261MOL0     O35881  10.096   4.349   2.846  0.2298 -0.0463 -0.1912
  261MOL0     C35882  10.101   4.239   2.898  0.9091  0.4516 -0.1014
  261MOL0     O35883   9.990   4.165   2.930  0.1384  0.6305  0.2350
  261MOL0     C35884   9.869   4.212   2.888  0.3557 -0.6049  0.0188
  261MOL0     C35885   9.816   4.152   2.779 -0.3125 -0.3079  0.2777
  261MOL0     C35886   9.698   4.191   2.715  0.0855 -0.6512  0.4229
  261MOL0     C35887   9.608   4.277   2.774  0.3115 -0.0006 -1.1335
  261MOL0     O35888   9.490   4.289   2.716 -0.1858  0.2018 -0.5131
  261MOL0     C35889   9.387   4.364   2.784 -0.4584 -0.1702 -0.0212
  261MOL0     C35890   9.398   4.512   2.745 -0.0135 -0.2624 -0.0994
  261MOL0     C35891   9.297   4.605   2.808 -0.3418  0.0074  0.6896
  261MOL0     C35892   9.336   4.648   2.943  0.5817 -0.2560 -0.3092
  261MOL0     C35893   9.227   4.720   3.014  0.4320  0.0121  0.1313
  261MOL0     C35894   9.263   4.762   3.159 -0.6662 -0.7301 -0.8244
  261MOL0     C35895   9.158   4.856   3.206  0.7862  0.9742 -0.0020
  261MOL0     C35896   9.177   4.914   3.343  0.0019 -0.0052  0.6564
  261MOL0     N35897   9.282   5.020   3.340  0.9867 -0.1915 -0.0974
  261MOL0     C35898   9.270   5.146   3.287 -0.4632  0.1212  0.2065
  261MOL0     C35899   9.384   5.211   3.316  0.5781  0.3916  0.0122
  261MOL0     C35900   9.385   5.362   3.303 -0.0051 -0.4963 -0.2431
  261MOL0     C35901   9.492   5.410   3.200  0.4625 -1.0679  0.1911
  261MOL0     C35902   9.445   5.402   3.049  0.3761  0.2837 -0.2745
  261MOL0     C35903   9.530   5.469   2.951 -1.1772 -0.6464  0.2082
  261MOL0     O35904   9.529   5.612   2.974  0.1092 -0.1502  1.0536
  261MOL0     C35905   9.430   5.687   2.910 -0.7939  0.1910  0.0849
  261MOL0     C35906   9.453   5.828   2.911  0.1556 -0.0036 -0.0785
  261MOL0     C35907   9.373   5.921   2.849 -0.2381  0.1777  0.1093
  261MOL0     C35908   9.416   6.060   2.873 -0.3511 -0.3266 -0.1726
  261MOL0     C35909   9.266   5.881   2.765  0.2026 -0.5092  0.9209
  261MOL0     C35910   9.173   5.987   2.706 -0.2042 -0.4303  0.0261
  261MOL0     O35911   9.107   5.962   2.582  0.0665 -0.6670  0.3453
  261MOL0     C35912   9.048   6.074   2.522  0.0272 -0.0751  0.5922
  261MOL0     C35913   9.123   6.176   2.455  1.5695 -0.6993  0.1608
  261MOL0     C35914   9.066   6.294   2.401 -0.7110  0.0031  0.6331
  261MOL0     C35915   8.927   6.319   2.416 -0.5163 -0.0476  0.3258
  261MOL0     O35916   8.874   6.439   2.367 -0.2944  0.1446  0.5371
  261MOL0     C35917   8.946   6.542   2.293 -0.3327 -0.6166 -0.7457
  261MOL0     C35918   8.852   6.642   2.224  0.1218 -0.4398  0.1112
  261MOL0     C35919   8.771   6.738   2.316  0.1450 -0.3215 -0.7516
  261MOL0     C35920   8.689   6.664   2.433 -0.7638  0.5888 -0.2769
  261MOL0     C35921   8.632   6.782   2.511 -0.2483 -0.3927 -0.3857
  261MOL0     C35922   8.530   6.875   2.437 -0.8737 -0.6157  0.0732
  261MOL0     C35923   8.439   6.959   2.531 -0.3866  0.2635 -0.5198
  261MOL0     C35924   8.335   7.037   2.468  0.0178 -0.3395  0.1636
  261MOL0    Cl35925   8.250   6.921   2.366  0.3983 -0.2365  0.5446
  261MOL0     C35926   8.847   6.210   2.474 -0.6570 -0.6770  0.6130
  261MOL0     C35927   8.909   6.090   2.526  0.1582 -0.6466  0.4596
  261MOL0     O35928   9.160   6.083   2.771 -1.1474 -0.4470 -0.4172
  261MOL0     C35929   9.247   5.744   2.758 -0.8053 -0.1370  0.6596
  261MOL0     C35930   9.324   5.652   2.828  0.0393 -0.8006 -0.1041
  261MOL0     N35931   9.473   5.123   3.371  0.7127 -0.2159 -0.1046
  261MOL0     N35932   9.406   5.013   3.397 -0.8506 -0.3721  0.4152
  261MOL0     C35933   9.649   4.341   2.898 -0.2141 -0.0871  0.2820
  261MOL0     C35934   9.790   4.309   2.946  0.0608 -0.6943  0.2999
  261MOL0     C35935  10.234   4.174   2.917 -0.0480 -0.5896  0.1490
  261MOL0     C35936  10.249   4.052   2.852  0.5301 -0.1181  0.1030
  261MOL0     C35937  10.364   3.981   2.865 -0.5224 -0.3998 -0.0455
  261MOL0     C35938  10.475   4.054   2.908  0.4374  0.1392 -1.2273
  261MOL0     O35939  10.583   3.979   2.876 -0.9267 -0.1287  1.0141
  261MOL0     C35940  10.707   4.039   2.851 -0.2144 -0.2597  0.0333
  261MOL0     C35941  10.824   3.941   2.826 -0.1968 -0.4160  0.2481
  261MOL0     C35942  10.802   3.838   2.709 -0.3243 -0.9814  0.0227
  261MOL0     C35943  10.745   3.699   2.759 -0.1266 -0.7445  0.1785
  261MOL0     C35944  10.742   3.597   2.655 -1.0541 -0.1760 -0.2651
  261MOL0     C35945  10.737   3.529   2.554  0.5969  0.6422 -0.0670
  261MOL0     C35946  10.471   4.180   2.976  1.0055  1.2928 -0.7689
  261MOL0     C35947  10.348   4.240   2.976  0.9420  1.1508 -1.0890
  261MOL0     C35948  10.330   4.377   3.049 -0.2014  0.2732 -0.5255
  261MOL0     H35949   9.879   4.091   2.715 -0.7561 -2.3656  1.7102
  261MOL0     H35950   9.670   4.131   2.629  3.2321  1.7141 -2.5616
  261MOL0     H35951   9.397   4.357   2.892 -0.6935  1.0417  0.0950
  261MOL0     H35952   9.284   4.330   2.770 -0.4288 -0.9293  1.3942
  261MOL0     H35953   9.500   4.542   2.769  0.6366 -2.3497 -0.0411
  261MOL0     H35954   9.372   4.525   2.639  0.4162  0.4371 -0.1242
  261MOL0     H35955   9.287   4.692   2.742 -1.7320 -1.3051 -0.9212
  261MOL0     H35956   9.191   4.577   2.803 -0.4263  0.0702  1.8350
  261MOL0     H35957   9.361   4.557   2.999 -2.2444 -0.3034  1.0361
  261MOL0     H35958   9.429   4.705   2.939  1.4352 -1.3712  2.0402
  261MOL0     H35959   9.138   4.657   3.006  2.3761 -2.9118  0.1713
  261MOL0     H35960   9.212   4.804   2.946  1.3112 -1.0587 -1.4525
  261MOL0     H35961   9.263   4.680   3.232 -4.7899  2.8369  3.9287
  261MOL0     H35962   9.358   4.812   3.176 -0.1600 -2.3176  1.5516
  261MOL0     H35963   9.060   4.806   3.211  1.2944 -0.1147 -0.4629
  261MOL0     H35964   9.148   4.934   3.131 -0.9459  2.8180  2.0092
  261MOL0     H35965   9.082   4.945   3.387 -1.7696 -0.9061 -2.2318
  261MOL0     H35966   9.209   4.833   3.409  4.7265 -0.8299 -2.2010
  261MOL0     H35967   9.178   5.196   3.258  0.1969  1.5599  0.4750
  261MOL0     H35968   9.408   5.401   3.403 -0.9621 -1.6417  0.4576
  261MOL0     H35969   9.282   5.390   3.276 -0.1005 -3.2678 -3.4468
  261MOL0     H35970   9.518   5.511   3.231 -3.2775 -0.7498  2.9355
  261MOL0     H35971   9.584   5.354   3.218  0.2614 -0.6739  2.8963
  261MOL0     H35972   9.440   5.297   3.022  0.4505  0.5785 -1.5064
  261MOL0     H35973   9.343   5.444   3.056  0.7144  0.8694  1.8596
  261MOL0     H35974   9.633   5.440   2.972 -1.3151 -0.6346  0.9405
  261MOL0     H35975   9.501   5.450   2.848 -0.4137  2.9616 -0.8418
  261MOL0     H35976   9.543   5.851   2.967 -1.8272  0.3747  3.2455
  261MOL0     H35977   9.372   6.135   2.807  0.6810 -0.2987 -0.8578
  261MOL0     H35978   9.524   6.065   2.854 -0.5870 -1.7686 -2.3300
  261MOL0     H35979   9.397   6.080   2.979 -1.5646 -0.4399 -0.3536
  261MOL0     H35980   9.224   6.161   2.418  1.4336 -1.0498 -0.0771
  261MOL0     H35981   9.119   6.364   2.336 -0.0769 -1.6032 -0.6385
  261MOL0     H35982   9.017   6.579   2.367 -0.2408  0.5877 -1.4153
  261MOL0     H35983   9.008   6.489   2.220  0.5894 -3.2308  1.7419
  261MOL0     H35984   8.910   6.707   2.157  0.0103  0.3724  0.7832
  261MOL0     H35985   8.777   6.585   2.168 -3.1739  3.6979 -0.2199
  261MOL0     H35986   8.701   6.805   2.266 -1.0424  0.7932  2.2192
  261MOL0     H35987   8.851   6.794   2.365 -1.7796  1.7548  0.1502
  261MOL0     H35988   8.749   6.606   2.505 -0.0059  2.4284  0.6337
  261MOL0     H35989   8.631   6.580   2.393  1.2313 -0.5494 -0.9358
  261MOL0     H35990   8.600   6.757   2.613  0.8932  3.7415  1.2164
  261MOL0     H35991   8.719   6.844   2.537  0.9330 -1.4568 -1.6617
  261MOL0     H35992   8.478   6.798   2.378  2.1442 -1.6697 -1.4438
  261MOL0     H35993   8.583   6.947   2.374 -0.5420 -0.7806  0.1614
  261MOL0     H35994   8.509   7.022   2.587  0.5108 -1.1546  0.0026
  261MOL0     H35995   8.387   6.899   2.605  3.7169 -0.5946  1.9870
  261MOL0     H35996   8.370   7.121   2.407 -1.6538  0.5592  0.3693
  261MOL0     H35997   8.267   7.071   2.547 -1.7021  2.6232 -2.3436
  261MOL0     H35998   8.741   6.233   2.482  0.1573  3.5787  2.1886
  261MOL0     H35999   8.854   6.014   2.580  2.8249 -0.2234  4.1259
  261MOL0     H36000   9.165   5.708   2.698 -0.8425  2.2246 -0.8365
  261MOL0     H36001   9.314   5.544   2.822 -0.7673 -0.8536  1.5224
  261MOL0     H36002   9.582   4.418   2.934 -2.4347 -2.5967  1.8802
  261MOL0     H36003   9.828   4.369   3.029  3.2182 -1.1748 -0.6515
  261MOL0     H36004  10.174   4.003   2.791  4.2217 -1.4474 -3.8684
  261MOL0     H36005  10.379   3.883   2.820 -0.5079 -0.5943  0.3799
  261MOL0     H36006  10.702   4.113   2.770  0.5958 -1.8480 -1.5246
  261MOL0     H36007  10.740   4.106   2.932  0.1638  3.2174 -2.7177
  261MOL0     H36008  10.835   3.894   2.924  1.2416  1.7142  1.2049
  261MOL0     H36009  10.917   3.998   2.812  0.0005 -0.4012  1.5172
  261MOL0     H36010  10.736   3.877   2.631  1.8698 -0.5759 -1.7528
  261MOL0     H36011  10.899   3.825   2.661  0.1158 -0.4015  0.7271
  261MOL0     H36012  10.646   3.710   2.804  0.3082 -2.1521  1.5561
  261MOL0     H36013  10.806   3.667   2.843  0.9731  0.4025 -0.1516
  261MOL0     H36014  10.722   3.480   2.460  1.7056  2.1010 -1.0232
  261MOL0     H36015  10.562   4.226   3.012  2.9919 -3.9760  2.1173
  261MOL0     H36016  10.252   4.447   3.016 -0.8103  1.3139  2.7383
  261MOL0     H36017  10.289   4.359   3.149 -1.3833  0.4571 -0.9593
  261MOL0     H36018  10.420   4.440   3.052 -1.1089  1.7627  4.7478
  262MOL0     O36019   7.196   6.447   3.384  0.3063 -0.5516  0.2481
  262MOL0     C36020   7.178   6.396   3.275 -0.8640 -0.1615 -0.2202
  262MOL0     O36021   7.264   6.307   3.225 -0.2759 -0.5694  0.0968
  262MOL0     C36022   7.399   6.305   3.273 -0.0551 -0.1265  0.0623
  262MOL0     C36023   7.508   6.348   3.200  0.1323 -0.0083 -0.0241
  262MOL0     C36024   7.630   6.368   3.251 -0.9554  0.8537 -0.0520
  262MOL0     C36025   7.645   6.339   3.387 -0.3116 -0.6633  1.6267
  262MOL0     O36026   7.766   6.341   3.456 -0.2754 -0.1768 -0.0872
  262MOL0     C36027   7.882   6.393   3.397 -0.3203 -0.3039  0.9291
  262MOL0     C36028   7.880   6.539   3.381 -0.4802 -0.2802 -0.1964
  262MOL0     C36029   8.023   6.579   3.339  0.4115 -0.0811  0.0064
  262MOL0     C36030   8.005   6.687   3.228  0.6617  0.4452 -0.5269
  262MOL0     C36031   8.145   6.747   3.202  1.3916  0.8802  0.0913
  262MOL0     C36032   8.182   6.842   3.306 -0.5752 -0.5892 -0.7607
  262MOL0     C36033   8.316   6.903   3.289  0.1042 -0.7413  0.0233
  262MOL0     C36034   8.359   6.996   3.406  0.7908  0.3028 -0.0059
  262MOL0     N36035   8.508   7.025   3.415 -0.0193 -0.4178 -0.7819
  262MOL0     C36036   8.600   6.929   3.391 -0.6183 -0.3135 -0.3927
  262MOL0     C36037   8.718   6.989   3.416  1.1004  0.1898  0.0539
  262MOL0     C36038   8.861   6.941   3.410  0.3004  0.2669  0.0552
  262MOL0     C36039   8.881   6.791   3.408  0.3232  0.4612 -0.9666
  262MOL0     C36040   9.033   6.748   3.393 -0.1477  0.4196  0.4951
  262MOL0     C36041   9.132   6.791   3.505  0.1262 -0.1295  0.1642
  262MOL0     O36042   9.065   6.783   3.631  0.2711 -0.5429  0.2171
  262MOL0     C36043   9.132   6.828   3.747 -0.2569  0.6027  0.6144
  262MOL0     C36044   9.154   6.735   3.849  0.0896 -0.1307 -0.0266
  262MOL0     C36045   9.198   6.781   3.978 -0.5242 -0.7045  0.1491
  262MOL0     C36046   9.196   6.678   4.092 -0.3866 -1.0366 -0.2046
  262MOL0     C36047   9.248   6.922   3.985  0.0028  0.5265 -0.2153
  262MOL0     C36048   9.312   6.980   4.110  1.3343  0.1334  1.0704
  262MOL0     O36049   9.371   7.092   4.091 -0.7507  0.7153  0.1220
  262MOL0     C36050   9.477   7.119   4.177  0.1629  0.1252 -0.4972
  262MOL0     C36051   9.486   7.243   4.227  0.8569 -0.0976 -0.3113
  262MOL0     C36052   9.601   7.286   4.300  0.3759 -0.1229 -0.2523
  262MOL0     C36053   9.707   7.197   4.313  0.2775 -0.2127 -0.6275
  262MOL0     O36054   9.832   7.222   4.373  0.5756 -0.3693 -0.8781
  262MOL0     C36055   9.855   7.360   4.419 -0.6566 -0.2319  0.0460
  262MOL0     C36056   9.972   7.362   4.516  0.7944  0.1346 -0.4441
  262MOL0     C36057  10.099   7.305   4.454 -0.2123  0.1425 -1.0824
  262MOL0     C36058  10.203   7.320   4.562  0.3097  0.1311 -0.6909
  262MOL0     C36059  10.334   7.238   4.519 -0.0082  0.2898 -1.4088
  262MOL0     C36060  10.315   7.091   4.512  0.4989  0.4303 -0.1366
  262MOL0     C36061  10.426   7.003   4.527 -0.0089 -0.0420 -0.3321
  262MOL0     C36062  10.516   7.019   4.644 -0.1943 -0.5691  0.3878
  262MOL0    Cl36063  10.618   6.871   4.621  0.7169  0.0368  0.1972
  262MOL0     C36064   9.701   7.062   4.264 -0.1702 -0.4664 -0.5987
  262MOL0     C36065   9.585   7.028   4.192 -0.9320  0.0630  0.0569
  262MOL0     O36066   9.307   6.917   4.216  0.1373 -0.0567 -0.1340
  262MOL0     C36067   9.228   7.002   3.868 -0.8355  0.5658  0.3509
  262MOL0     C36068   9.165   6.962   3.761  0.2886  0.3619 -0.3632
  262MOL0     N36069   8.694   7.115   3.449 -1.2407 -0.0573  0.4168
  262MOL0     N36070   8.572   7.144   3.441  0.1826 -0.3304 -0.3071
  262MOL0     C36071   7.550   6.265   3.452  0.3104  0.6294  0.2239
  262MOL0     C36072   7.426   6.245   3.398 -0.7895  0.8983  0.8505
  262MOL0     C36073   7.043   6.422   3.199 -0.2897  0.1297  0.3369
  262MOL0     C36074   7.056   6.450   3.060 -1.2580  0.2824 -0.6136
  262MOL0     C36075   6.947   6.484   2.983 -0.1946  0.4243  0.1976
  262MOL0     C36076   6.819   6.479   3.039 -0.8983  0.2975 -0.6616
  262MOL0     O36077   6.710   6.499   2.965 -0.0433 -0.0427 -0.2417
  262MOL0     C36078   6.637   6.383   2.924  0.6249 -0.5233  0.4670
  262MOL0     C36079   6.563   6.405   2.798 -0.6644 -0.2496 -0.3511
  262MOL0     C36080   6.460   6.510   2.832  0.2060 -0.4531  0.8609
  262MOL0     C36081   6.378   6.569   2.713 -0.3652 -0.2432 -0.2298
  262MOL0     C36082   6.469   6.616   2.605  0.2441 -1.0080  0.3382
  262MOL0     C36083   6.536   6.665   2.515  0.0725 -1.0977 -0.8208
  262MOL0     C36084   6.811   6.450   3.176  1.1499  0.4260  0.4439
  262MOL0     C36085   6.918   6.426   3.266 -0.6449  0.2964 -0.1852
  262MOL0     C36086   6.884   6.390   3.408  1.5217  0.5174  0.3044
  262MOL0     H36087   7.505   6.365   3.093  2.3603 -0.5495 -0.2185
  262MOL0     H36088   7.712   6.395   3.185  0.4673 -2.0539  0.4124
  262MOL0     H36089   7.917   6.351   3.302  2.0082 -0.2610  1.6977
  262MOL0     H36090   7.961   6.366   3.468 -2.2173  0.7772  3.5992
  262MOL0     H36091   7.803   6.592   3.324 -2.4277  0.3667  2.7682
  262MOL0     H36092   7.854   6.583   3.478 -1.4429 -2.4812  0.6145
  262MOL0     H36093   8.072   6.612   3.431 -3.6774 -4.1544  4.1234
  262MOL0     H36094   8.073   6.493   3.294  0.9709  0.7797 -1.0980
  262MOL0     H36095   7.970   6.647   3.132  0.5613  1.0989 -0.7671
  262MOL0     H36096   7.933   6.764   3.256 -1.5871 -1.7432 -0.0046
  262MOL0     H36097   8.155   6.793   3.104 -0.0446 -0.4452 -0.7360
  262MOL0     H36098   8.212   6.661   3.190  0.5208  0.2145 -0.0946
  262MOL0     H36099   8.111   6.925   3.306  1.2151  1.0127 -1.1769
  262MOL0     H36100   8.187   6.795   3.405 -0.5694  0.9188 -0.0221
  262MOL0     H36101   8.315   6.955   3.193 -2.1895 -2.3685 -0.9287
  262MOL0     H36102   8.381   6.815   3.280  4.4547  2.2818 -1.3209
  262MOL0     H36103   8.291   7.081   3.397 -3.6990 -3.0695 -1.2754
  262MOL0     H36104   8.340   6.928   3.490  0.8616  1.0997  0.6711
  262MOL0     H36105   8.580   6.827   3.357 -0.3319 -1.0598  1.5637
  262MOL0     H36106   8.925   6.988   3.486  1.3526  1.3519 -1.4377
  262MOL0     H36107   8.897   6.976   3.313  0.8885  2.2211  0.9263
  262MOL0     H36108   8.849   6.756   3.506 -1.6482 -0.3469 -1.8576
  262MOL0     H36109   8.824   6.735   3.333  2.3271 -1.5181 -1.1151
  262MOL0     H36110   9.022   6.639   3.388  0.7219  0.3234  0.6523
  262MOL0     H36111   9.060   6.784   3.294 -1.7070 -1.7099 -0.8085
  262MOL0     H36112   9.220   6.727   3.515  0.5713  0.1230 -1.7797
  262MOL0     H36113   9.171   6.893   3.496  0.0002 -0.1729 -0.9659
  262MOL0     H36114   9.128   6.631   3.829 -1.2023  0.7452 -3.9406
  262MOL0     H36115   9.293   6.685   4.142 -1.9505  0.3394  2.8567
  262MOL0     H36116   9.196   6.577   4.051 -0.1897 -2.6026  3.2992
  262MOL0     H36117   9.121   6.691   4.170  1.4928 -0.0582  1.5413
  262MOL0     H36118   9.413   7.318   4.200  0.7223 -1.2278 -3.4423
  262MOL0     H36119   9.604   7.384   4.345 -0.6586 -0.3437  0.3328
  262MOL0     H36120   9.877   7.423   4.333  0.9287  2.7975  2.4465
  262MOL0     H36121   9.770   7.410   4.466 -1.3433  1.0199 -2.3829
  262MOL0     H36122   9.979   7.468   4.543  1.3873 -0.7978  3.8617
  262MOL0     H36123   9.944   7.302   4.603  1.5545  1.4665  0.7644
  262MOL0     H36124  10.118   7.371   4.369  0.7897  0.3400 -0.7170
  262MOL0     H36125  10.087   7.204   4.413 -0.1597 -1.8146  3.1839
  262MOL0     H36126  10.158   7.286   4.655 -0.2358  1.2677 -0.5173
  262MOL0     H36127  10.224   7.427   4.575 -1.3980  0.3436  0.6784
  262MOL0     H36128  10.374   7.275   4.424 -1.1997 -1.7414 -2.7888
  262MOL0     H36129  10.415   7.272   4.584 -0.9090  1.1177 -0.6777
  262MOL0     H36130  10.262   7.070   4.419 -0.8787  1.4961  0.3694
  262MOL0     H36131  10.245   7.064   4.592 -0.1783 -0.6303 -1.0611
  262MOL0     H36132  10.487   6.999   4.437  2.5383 -2.1477  1.3472
  262MOL0     H36133  10.389   6.901   4.513  0.6851 -0.5722  1.3705
  262MOL0     H36134  10.451   7.014   4.732 -2.6948 -1.7275 -1.4001
  262MOL0     H36135  10.583   7.105   4.646  3.5163 -3.1816 -0.4697
  262MOL0     H36136   9.786   6.996   4.268 -0.6204 -1.0742 -0.8339
  262MOL0     H36137   9.584   6.939   4.130  0.3271 -0.4110  0.6996
  262MOL0     H36138   9.268   7.103   3.875 -0.9362  0.6242  0.0857
  262MOL0     H36139   9.131   7.028   3.681 -4.4636 -1.3616 -0.1061
  262MOL0     H36140   7.571   6.221   3.549 -1.1713 -2.3568 -0.6940
  262MOL0     H36141   7.354   6.188   3.456 -2.8882  2.5966  0.0365
  262MOL0     H36142   7.154   6.454   3.014 -2.3776 -0.0285 -3.2077
  262MOL0     H36143   6.972   6.519   2.883  0.2797  1.7496  0.7494
  262MOL0     H36144   6.706   6.300   2.906 -2.0293 -2.1296 -3.6684
  262MOL0     H36145   6.565   6.343   2.996 -0.8822 -3.1499 -2.3029
  262MOL0     H36146   6.521   6.307   2.771  0.2763 -1.2697  1.6780
  262MOL0     H36147   6.642   6.441   2.731 -2.4701  0.8649 -1.9944
  262MOL0     H36148   6.388   6.468   2.902 -2.0073 -1.7575 -1.9814
  262MOL0     H36149   6.506   6.598   2.879  2.1640  1.7399 -4.4295
  262MOL0     H36150   6.308   6.649   2.741 -0.6450 -1.3105  2.4785
  262MOL0     H36151   6.318   6.492   2.664 -2.2778  1.0939 -0.1186
  262MOL0     H36152   6.588   6.731   2.449 -4.3966  0.7368 -2.9501
  262MOL0     H36153   6.709   6.442   3.213 -0.1674  2.7700 -2.2735
  262MOL0     H36154   6.964   6.355   3.474  1.8277  0.9741  0.1779
  262MOL0     H36155   6.832   6.476   3.450 -0.7750 -0.2708 -0.7217
  262MOL0     H36156   6.816   6.304   3.413  4.4545 -2.0168  0.1031
  263MOL0     O36157   6.596   3.630   2.056  0.9071  0.2418  0.7117
  263MOL0     C36158   6.632   3.695   1.961 -0.5409 -0.8967  0.6027
  263MOL0     O36159   6.571   3.809   1.923 -0.3659 -0.7077  0.3362
  263MOL0     C36160   6.441   3.841   1.942  0.4918 -0.0989  0.2023
  263MOL0     C36161   6.402   3.968   1.907  0.8725  0.2406  0.1078
  263MOL0     C36162   6.269   4.015   1.911 -0.6824 -0.3882  1.1195
  263MOL0     C36163   6.179   3.923   1.948  0.7324  0.5876  0.6654
  263MOL0     O36164   6.049   3.954   1.967  0.1062 -0.3649 -0.3403
  263MOL0     C36165   5.985   4.046   1.876  0.0170 -0.9729  0.2734
  263MOL0     C36166   5.833   4.024   1.840 -0.0512 -0.2084  0.2218
  263MOL0     C36167   5.807   3.872   1.796 -0.2684  0.3178  0.1292
  263MOL0     C36168   5.676   3.828   1.842  0.3197  0.3881  0.5503
  263MOL0     C36169   5.617   3.748   1.732 -0.2199  0.1735  0.1628
  263MOL0     C36170   5.700   3.630   1.674 -0.4035  0.0413  0.0371
  263MOL0     C36171   5.719   3.512   1.771 -0.9076  0.9572 -0.6947
  263MOL0     C36172   5.821   3.414   1.710 -0.1011  0.1387 -1.1178
  263MOL0     N36173   5.800   3.273   1.750  0.0913  0.2943  0.0822
  263MOL0     C36174   5.788   3.222   1.880 -0.1209 -0.6896  0.0306
  263MOL0     C36175   5.739   3.093   1.862 -0.8550  0.1900 -0.3534
  263MOL0     C36176   5.698   3.001   1.976 -0.8521 -0.1215  0.1540
  263MOL0     C36177   5.596   2.893   1.913  0.0620  0.5830  1.1586
  263MOL0     C36178   5.459   2.954   1.874  0.4842  0.5205  1.5827
  263MOL0     C36179   5.374   2.838   1.814 -0.6039 -0.3011 -0.0427
  263MOL0     O36180   5.274   2.894   1.731 -0.6798 -0.7862 -0.0885
  263MOL0     C36181   5.159   2.961   1.780  0.1923 -0.6317 -0.0503
  263MOL0     C36182   5.087   3.042   1.691  0.6423 -0.2369 -0.6000
  263MOL0     C36183   4.965   3.094   1.739  1.2157  0.6873 -0.0336
  263MOL0     C36184   4.878   3.161   1.647 -0.3491  0.0513  0.4502
  263MOL0     C36185   4.918   3.095   1.876 -0.6434 -0.4066  0.1198
  263MOL0     C36186   4.801   3.161   1.918  0.3455  0.4651 -0.1150
  263MOL0     O36187   4.683   3.131   1.860 -0.1252 -0.1557  0.1425
  263MOL0     C36188   4.578   3.206   1.882  0.4099  0.1232 -0.6822
  263MOL0     C36189   4.529   3.232   2.007  0.1012  0.1851 -0.0684
  263MOL0     C36190   4.415   3.312   2.024 -0.2943  0.2010  1.3486
  263MOL0     C36191   4.345   3.368   1.917 -0.2444 -0.1397  0.3784
  263MOL0     O36192   4.225   3.440   1.939  0.6241 -0.0577  0.2249
  263MOL0     C36193   4.164   3.499   1.820 -0.0670  0.0242 -0.4838
  263MOL0     C36194   4.077   3.405   1.731 -1.0314 -0.2935  0.0190
  263MOL0     C36195   3.929   3.373   1.766 -0.2553 -0.6397  0.2471
  263MOL0     C36196   3.839   3.484   1.721  0.0213 -0.8730 -0.2573
  263MOL0     C36197   3.693   3.449   1.766  0.6335  0.4985  0.4909
  263MOL0     C36198   3.603   3.549   1.699  0.0267  0.5373  0.1952
  263MOL0     C36199   3.453   3.527   1.720  0.2727 -0.4354 -0.4365
  263MOL0     C36200   3.371   3.656   1.704 -0.8965 -0.3256 -0.7679
  263MOL0    Cl36201   3.192   3.631   1.704  0.0711  0.0244  0.3836
  263MOL0     C36202   4.400   3.342   1.791 -0.4255  0.6640  0.4855
  263MOL0     C36203   4.505   3.254   1.772 -0.6777  0.3618 -0.6468
  263MOL0     O36204   4.820   3.249   1.993  0.0115  0.0352 -0.9811
  263MOL0     C36205   5.011   3.039   1.961  0.0894  0.4316  0.1718
  263MOL0     C36206   5.131   2.985   1.917  0.3146  0.1384 -1.0286
  263MOL0     N36207   5.727   3.067   1.724 -0.1634 -0.7991 -0.1779
  263MOL0     N36208   5.764   3.174   1.665 -0.3894 -0.3027  0.8884
  263MOL0     C36209   6.207   3.790   1.987  0.1297 -0.3091 -0.7129
  263MOL0     C36210   6.337   3.752   1.986  0.4694  0.1495  0.0175
  263MOL0     C36211   6.758   3.652   1.886  0.1405  0.2147 -0.1814
  263MOL0     C36212   6.797   3.728   1.774 -0.3645 -0.1959  0.5105
  263MOL0     C36213   6.906   3.704   1.703 -0.8237 -0.1553  0.4336
  263MOL0     C36214   6.992   3.593   1.731 -0.0393 -0.8228  0.0856
  263MOL0     O36215   7.111   3.587   1.662  0.5145 -0.2091 -0.1058
  263MOL0     C36216   7.189   3.474   1.661  0.1134 -0.0324 -0.1607
  263MOL0     C36217   7.306   3.488   1.556  1.0095 -0.1589  0.1547
  263MOL0     C36218   7.369   3.625   1.555  0.1255  0.2068 -0.8984
  263MOL0     C36219   7.430   3.657   1.420  0.5153 -0.1592 -0.8774
  263MOL0     C36220   7.524   3.772   1.437 -1.5214  1.6914 -0.3652
  263MOL0     C36221   7.611   3.864   1.432  0.7279 -0.5433 -0.1921
  263MOL0     C36222   6.955   3.517   1.833  0.4855 -0.8186 -0.6165
  263MOL0     C36223   6.836   3.540   1.919 -0.2998  0.1506  1.2461
  263MOL0     C36224   6.804   3.440   2.021 -0.3083 -0.7210  0.3012
  263MOL0     H36225   6.484   4.035   1.884  2.4037 -0.9124  1.9222
  263MOL0     H36226   6.240   4.117   1.886  1.3317  0.1964  0.9608
  263MOL0     H36227   6.031   4.047   1.777 -2.7621 -1.4061 -1.1358
  263MOL0     H36228   5.995   4.150   1.911 -2.6612 -0.1988 -0.9655
  263MOL0     H36229   5.770   4.026   1.929 -1.8126 -1.9260 -0.9016
  263MOL0     H36230   5.785   4.092   1.769 -2.1334  0.7423  2.4088
  263MOL0     H36231   5.824   3.873   1.688 -0.5331  0.1122  0.0857
  263MOL0     H36232   5.882   3.800   1.829 -1.2677 -1.3376 -1.0973
  263MOL0     H36233   5.689   3.774   1.936 -3.2839 -0.6942  0.5782
  263MOL0     H36234   5.610   3.912   1.864  0.2292  1.4634 -3.0881
  263MOL0     H36235   5.586   3.815   1.652  0.5119  0.5486  0.1945
  263MOL0     H36236   5.522   3.707   1.770  1.0492 -0.6340  2.7300
  263MOL0     H36237   5.637   3.592   1.593 -2.6343  0.8969  1.2729
  263MOL0     H36238   5.792   3.664   1.626 -0.5010  0.1472 -0.0797
  263MOL0     H36239   5.625   3.464   1.802 -0.0614 -0.4999 -0.3152
  263MOL0     H36240   5.751   3.553   1.867 -0.8723  3.7830 -1.8262
  263MOL0     H36241   5.821   3.433   1.602  2.5452  0.5795 -1.1214
  263MOL0     H36242   5.922   3.444   1.739  0.7705 -1.9754 -1.7572
  263MOL0     H36243   5.798   3.266   1.979 -1.2396 -1.3418  0.4542
  263MOL0     H36244   5.647   3.056   2.056 -0.9432 -1.5019  1.0869
  263MOL0     H36245   5.789   2.957   2.020 -0.5830  0.1797 -0.0946
  263MOL0     H36246   5.640   2.844   1.826  0.2790  0.2924  1.4308
  263MOL0     H36247   5.584   2.808   1.981  0.1698 -0.0872  0.3531
  263MOL0     H36248   5.422   2.997   1.967 -2.0522 -1.4508  1.6057
  263MOL0     H36249   5.485   3.033   1.803 -1.2054 -0.9657 -0.8498
  263MOL0     H36250   5.435   2.782   1.743 -1.9715  1.7505 -3.0289
  263MOL0     H36251   5.335   2.781   1.898  0.2131 -3.1185 -1.4683
  263MOL0     H36252   5.110   3.046   1.585  0.6041  0.1188 -0.5970
  263MOL0     H36253   4.798   3.089   1.627  0.9174 -1.7973  1.6332
  263MOL0     H36254   4.942   3.180   1.560  2.5065  0.5562  2.4929
  263MOL0     H36255   4.831   3.258   1.665 -1.4948 -0.7294  1.8778
  263MOL0     H36256   4.558   3.180   2.098 -4.3665 -0.8549  1.0193
  263MOL0     H36257   4.373   3.314   2.124 -1.4334  0.2743  0.8819
  263MOL0     H36258   4.091   3.574   1.851  0.4864 -0.4211  2.1098
  263MOL0     H36259   4.234   3.558   1.760  1.6864 -1.7246 -0.2750
  263MOL0     H36260   4.074   3.430   1.625 -3.2186 -1.0380 -0.1575
  263MOL0     H36261   4.127   3.309   1.744  1.6472  1.1000  0.7430
  263MOL0     H36262   3.920   3.369   1.875  1.1550  0.8239  0.4508
  263MOL0     H36263   3.909   3.275   1.722 -0.9273  0.4504 -2.0127
  263MOL0     H36264   3.839   3.493   1.612  0.2463 -0.3407 -0.2153
  263MOL0     H36265   3.868   3.578   1.769 -0.5620 -0.8368  0.0368
  263MOL0     H36266   3.661   3.350   1.735 -2.1634  0.3929  3.1986
  263MOL0     H36267   3.675   3.458   1.873  0.4660 -0.4672  0.5440
  263MOL0     H36268   3.628   3.539   1.593  0.9733  2.3350  0.2122
  263MOL0     H36269   3.640   3.646   1.733  0.1114 -0.6423  3.8413
  263MOL0     H36270   3.439   3.502   1.826  0.0732 -1.6640 -0.7362
  263MOL0     H36271   3.411   3.440   1.668 -2.9657 -1.6903  3.6855
  263MOL0     H36272   3.407   3.691   1.607  0.5136  0.1316 -0.1088
  263MOL0     H36273   3.404   3.731   1.777 -1.1094  0.6028 -1.6125
  263MOL0     H36274   4.356   3.383   1.701 -3.2646 -2.4731  0.2752
  263MOL0     H36275   4.561   3.249   1.679  0.3213 -4.3409 -0.0109
  263MOL0     H36276   4.998   3.014   2.066 -0.5716 -2.6913 -0.5511
  263MOL0     H36277   5.201   2.934   1.983  0.9574 -0.4342 -2.1365
  263MOL0     H36278   6.124   3.728   2.018  0.5286 -0.2981  0.4111
  263MOL0     H36279   6.364   3.652   2.022 -0.1102  0.1425  0.4456
  263MOL0     H36280   6.731   3.810   1.747  0.5565  0.8930  1.4443
  263MOL0     H36281   6.942   3.777   1.633  3.3869 -0.1905  2.2587
  263MOL0     H36282   7.241   3.454   1.755 -1.0265 -0.8057  0.3210
  263MOL0     H36283   7.129   3.386   1.634  0.6102  0.1480 -1.9479
  263MOL0     H36284   7.260   3.474   1.458 -0.2462  2.0076  0.3894
  263MOL0     H36285   7.387   3.414   1.561 -0.0393 -1.6044 -2.4353
  263MOL0     H36286   7.315   3.710   1.597 -1.7941 -0.7937 -1.2425
  263MOL0     H36287   7.453   3.622   1.625  0.8176  1.2231 -1.6466
  263MOL0     H36288   7.349   3.704   1.364 -0.5815  0.4945  1.1648
  263MOL0     H36289   7.478   3.572   1.369 -0.6077 -2.6494  1.9498
  263MOL0     H36290   7.688   3.939   1.429  1.4007 -1.2492 -1.1135
  263MOL0     H36291   7.007   3.426   1.862 -0.9615 -2.3100 -2.4591
  263MOL0     H36292   6.724   3.373   1.988 -0.8374 -0.6639  1.4176
  263MOL0     H36293   6.894   3.381   2.042 -0.4216 -1.1218 -0.3156
  263MOL0     H36294   6.781   3.484   2.118  0.5983 -2.2886  1.2755
  264MOL0     O36295   6.810   5.499   2.677  0.4422 -0.2862  0.4106
  264MOL0     C36296   6.879   5.410   2.727  0.8601 -0.7167 -1.1311
  264MOL0     O36297   7.019   5.408   2.733  0.5388 -0.6199 -0.3541
  264MOL0     C36298   7.083   5.484   2.648  0.3836 -0.6554  0.3466
  264MOL0     C36299   7.052   5.627   2.631  0.2954  0.4860  0.9539
  264MOL0     C36300   7.118   5.691   2.527  0.3408 -0.4414 -0.1261
  264MOL0     C36301   7.205   5.628   2.435 -0.5699 -0.2487  0.2000
  264MOL0     O36302   7.258   5.714   2.337  0.0965  0.0825 -1.1448
  264MOL0     C36303   7.306   5.655   2.221 -0.1988 -0.9503  0.6310
  264MOL0     C36304   7.459   5.620   2.224  0.2843 -0.3400 -0.3990
  264MOL0     C36305   7.497   5.491   2.161  0.1592  0.6084 -0.4673
  264MOL0     C36306   7.654   5.457   2.192  0.2431 -0.2341  0.1080
  264MOL0     C36307   7.700   5.350   2.099 -1.0724  0.4549 -0.1287
  264MOL0     C36308   7.835   5.285   2.134 -0.1378  0.4676  0.0109
  264MOL0     C36309   7.954   5.384   2.133  1.0720  0.1346 -0.7387
  264MOL0     C36310   8.090   5.316   2.170 -0.0735 -0.5978  0.3677
  264MOL0     N36311   8.178   5.266   2.053 -0.2516 -0.1853 -0.5764
  264MOL0     C36312   8.306   5.312   2.038  0.2380 -0.8094 -0.3622
  264MOL0     C36313   8.356   5.244   1.930  0.1746 -0.4912  1.1883
  264MOL0     C36314   8.503   5.249   1.888  0.1960  1.1959  0.0609
  264MOL0     C36315   8.567   5.115   1.924 -0.0023 -0.2762 -1.0045
  264MOL0     C36316   8.536   5.078   2.074  0.0273  0.6741  0.0472
  264MOL0     C36317   8.631   4.971   2.130 -0.5060  0.2492  1.3450
  264MOL0     O36318   8.760   5.030   2.152 -0.5686  0.2638 -0.2711
  264MOL0     C36319   8.783   5.093   2.274 -0.0608 -0.2776  0.8005
  264MOL0     C36320   8.693   5.110   2.383 -0.3606  0.0368  0.5244
  264MOL0     C36321   8.734   5.177   2.503  0.1473  0.0280 -0.3547
  264MOL0     C36322   8.640   5.190   2.620  0.4618  0.3916  0.6484
  264MOL0     C36323   8.864   5.238   2.510  0.3446 -0.2345  1.0248
  264MOL0     C36324   8.912   5.323   2.622 -0.0503 -0.1220 -0.9202
  264MOL0     O36325   8.833   5.379   2.713  1.0621 -0.1910  0.6955
  264MOL0     C36326   8.872   5.464   2.808 -0.0498  1.4210 -0.1754
  264MOL0     C36327   8.818   5.587   2.818  0.7121 -0.7296  0.1466
  264MOL0     C36328   8.881   5.684   2.904  0.6745 -0.5961 -0.0802
  264MOL0     C36329   8.993   5.657   2.976  0.0477  1.1604 -0.2978
  264MOL0     O36330   9.046   5.760   3.039 -0.4107 -0.0892 -0.1978
  264MOL0     C36331   9.139   5.739   3.146  0.6861  0.2341  0.3906
  264MOL0     C36332   9.202   5.876   3.179  0.2113  0.4516  0.8562
  264MOL0     C36333   9.251   5.870   3.331 -0.8613 -0.3714  0.1239
  264MOL0     C36334   9.372   5.774   3.347 -0.1117 -0.6488 -0.7514
  264MOL0     C36335   9.435   5.782   3.484 -0.9085 -0.0720  0.3909
  264MOL0     C36336   9.487   5.929   3.499  0.2445  1.1857 -0.7276
  264MOL0     C36337   9.603   5.905   3.600  0.5223 -0.2630  0.5257
  264MOL0     C36338   9.653   6.040   3.648  0.1138 -0.3653  0.2823
  264MOL0    Cl36339   9.825   6.044   3.702 -0.0893  0.2035  0.1231
  264MOL0     C36340   9.040   5.530   2.980 -0.6014  0.9057  0.9681
  264MOL0     C36341   8.977   5.432   2.895 -0.9618  0.5616 -0.2659
  264MOL0     O36342   9.038   5.335   2.622  0.1959 -1.4534 -0.6892
  264MOL0     C36343   8.952   5.221   2.392  0.2813  0.0714 -0.7724
  264MOL0     C36344   8.911   5.153   2.278  0.2628  0.5751  0.2753
  264MOL0     N36345   8.255   5.167   1.882  0.3743  0.2303 -0.4591
  264MOL0     N36346   8.150   5.187   1.955 -0.3222  0.0205 -0.7003
  264MOL0     C36347   7.240   5.491   2.454  0.4456  0.0016  0.2836
  264MOL0     C36348   7.186   5.425   2.566  0.3363  0.1374 -0.2394
  264MOL0     C36349   6.816   5.285   2.768  0.2181  0.1127 -0.5426
  264MOL0     C36350   6.863   5.222   2.879  0.6664 -0.2490  0.3157
  264MOL0     C36351   6.816   5.093   2.919 -0.4562  0.9088  1.2143
  264MOL0     C36352   6.719   5.026   2.844 -0.0243  0.7283 -1.2999
  264MOL0     O36353   6.653   4.911   2.871  0.2081  0.3321 -0.8792
  264MOL0     C36354   6.714   4.808   2.955 -0.2735  0.9209  0.1783
  264MOL0     C36355   6.853   4.763   2.919  0.4415 -1.4377  0.1530
  264MOL0     C36356   6.848   4.645   2.821  0.9318 -0.2036 -0.1067
  264MOL0     C36357   6.859   4.519   2.897  0.1065  0.7850 -0.0921
  264MOL0     C36358   6.739   4.479   2.967  0.4925  0.1022  0.6759
  264MOL0     C36359   6.636   4.462   3.040 -0.4362 -0.9355  0.8235
  264MOL0     C36360   6.662   5.093   2.738 -0.8906 -0.3553 -0.1391
  264MOL0     C36361   6.706   5.220   2.695  0.2511 -0.7027  0.1760
  264MOL0     C36362   6.665   5.269   2.565 -0.5504  0.2135  0.6202
  264MOL0     H36363   6.972   5.679   2.682 -0.3203 -1.1426  1.7350
  264MOL0     H36364   7.087   5.793   2.504 -1.1563 -1.0834 -1.1512
  264MOL0     H36365   7.293   5.742   2.155 -0.6106  3.2105  5.5136
  264MOL0     H36366   7.240   5.580   2.179  2.0805 -0.6887 -4.1441
  264MOL0     H36367   7.509   5.706   2.178  4.2002 -0.3134  3.3034
  264MOL0     H36368   7.499   5.620   2.326 -0.1995  1.2844 -0.1769
  264MOL0     H36369   7.428   5.411   2.188 -1.6465  1.7456 -1.4735
  264MOL0     H36370   7.491   5.497   2.052 -0.3529  1.1799 -0.4173
  264MOL0     H36371   7.715   5.547   2.178 -1.9396  1.3278 -0.0176
  264MOL0     H36372   7.668   5.407   2.288  0.9369 -1.7576 -0.7471
  264MOL0     H36373   7.711   5.383   1.995 -2.4539  1.5975  0.0572
  264MOL0     H36374   7.624   5.272   2.086  0.4154 -0.7968 -1.9460
  264MOL0     H36375   7.822   5.246   2.236  0.8891 -0.2776 -0.1255
  264MOL0     H36376   7.858   5.212   2.056  1.4029  2.9013 -1.9657
  264MOL0     H36377   7.922   5.461   2.204 -2.8460 -0.9170 -1.0933
  264MOL0     H36378   7.981   5.427   2.037 -0.1084 -1.0840 -1.6533
  264MOL0     H36379   8.144   5.401   2.212 -1.3242  0.1897  0.4101
  264MOL0     H36380   8.070   5.233   2.238 -0.5456 -0.8846 -0.1103
  264MOL0     H36381   8.346   5.380   2.112  2.2788  0.3743 -2.4144
  264MOL0     H36382   8.561   5.330   1.934  0.7499  0.6787  0.2914
  264MOL0     H36383   8.516   5.258   1.779  1.5134  0.5846  0.1421
  264MOL0     H36384   8.521   5.037   1.863  1.5352 -0.8618 -1.4861
  264MOL0     H36385   8.671   5.100   1.892 -0.7798 -0.2352 -3.7384
  264MOL0     H36386   8.544   5.161   2.145 -1.8914 -0.1998  1.3696
  264MOL0     H36387   8.434   5.038   2.076 -0.5207  1.9382 -1.1362
  264MOL0     H36388   8.589   4.916   2.214  0.2731 -2.6272 -0.0293
  264MOL0     H36389   8.646   4.906   2.044  0.4560  4.2511 -1.8417
  264MOL0     H36390   8.591   5.075   2.374  0.8211 -3.7651  0.2096
  264MOL0     H36391   8.554   5.122   2.618  0.6706  0.1268  0.7558
  264MOL0     H36392   8.600   5.292   2.620 -0.6816 -0.0313 -0.3455
  264MOL0     H36393   8.698   5.177   2.711 -1.2103  0.3514  1.7584
  264MOL0     H36394   8.744   5.623   2.747 -0.4891 -1.4115  1.0166
  264MOL0     H36395   8.848   5.787   2.904  0.6890 -0.5873  0.4978
  264MOL0     H36396   9.092   5.712   3.241  2.4668 -2.2296  0.6822
  264MOL0     H36397   9.217   5.664   3.127 -1.1972 -1.4284 -1.3246
  264MOL0     H36398   9.288   5.893   3.113 -2.8108 -2.7823 -4.5805
  264MOL0     H36399   9.136   5.959   3.152 -0.4836 -1.2760 -3.5879
  264MOL0     H36400   9.181   5.815   3.394 -0.2659  0.2558  1.3758
  264MOL0     H36401   9.271   5.973   3.364  1.1068 -0.1785 -1.4261
  264MOL0     H36402   9.453   5.807   3.280  0.5732 -0.1711  0.2819
  264MOL0     H36403   9.341   5.674   3.316 -3.4275 -0.2295  0.8635
  264MOL0     H36404   9.359   5.771   3.560  0.7140  1.0017  2.2726
  264MOL0     H36405   9.517   5.709   3.487 -0.2188  0.6433 -0.1974
  264MOL0     H36406   9.401   5.990   3.530 -3.9306 -3.7070 -1.2861
  264MOL0     H36407   9.532   5.968   3.408  0.4262  3.6450  0.3170
  264MOL0     H36408   9.682   5.844   3.555 -1.4244 -3.4847  1.1365
  264MOL0     H36409   9.554   5.856   3.685 -0.3264  0.3032  0.3754
  264MOL0     H36410   9.602   6.081   3.736  0.7299 -0.0414  0.4917
  264MOL0     H36411   9.646   6.116   3.570 -0.8264 -1.6284 -0.9051
  264MOL0     H36412   9.119   5.498   3.048  1.6616  1.2221 -1.3586
  264MOL0     H36413   9.019   5.332   2.887 -0.6474  0.5915  0.8921
  264MOL0     H36414   9.058   5.246   2.394  0.1547  0.5910  0.0290
  264MOL0     H36415   8.981   5.170   2.197 -1.5952  2.8328 -0.9816
  264MOL0     H36416   7.311   5.444   2.387 -0.7302  4.9050 -5.1141
  264MOL0     H36417   7.207   5.318   2.572 -2.3303 -0.7073 -3.0801
  264MOL0     H36418   6.942   5.269   2.937  0.7149  1.2169 -0.8686
  264MOL0     H36419   6.872   5.046   2.999 -1.1567 -1.4486  0.3939
  264MOL0     H36420   6.717   4.838   3.060 -2.9117  0.4697  0.4534
  264MOL0     H36421   6.652   4.719   2.946  3.4219 -1.6989 -2.4512
  264MOL0     H36422   6.890   4.733   3.017 -3.9513 -0.7555  2.2736
  264MOL0     H36423   6.906   4.844   2.868 -4.4210  1.1930 -1.2767
  264MOL0     H36424   6.756   4.641   2.762  0.9003 -2.3551 -0.0165
  264MOL0     H36425   6.930   4.659   2.751  0.0605 -2.9433 -1.8514
  264MOL0     H36426   6.936   4.530   2.975 -0.8216  1.0163  0.8154
  264MOL0     H36427   6.889   4.431   2.840 -0.2098  1.0892 -0.7423
  264MOL0     H36428   6.547   4.446   3.099 -0.5899 -1.1700  0.5306
  264MOL0     H36429   6.583   5.041   2.686 -1.2776  0.4303 -0.3633
  264MOL0     H36430   6.762   5.281   2.517  0.4869  0.0293  2.5809
  264MOL0     H36431   6.602   5.196   2.513  2.7031 -3.6628  1.6302
  264MOL0     H36432   6.610   5.363   2.578 -1.4158 -0.5752  3.5518
  265MOL0     O36433   8.975   5.892  10.182  0.1343  0.2494 -0.4949
  265MOL0     C36434   8.952   5.789  10.248  0.5398 -0.4400  1.2386
  265MOL0     O36435   8.874   5.679  10.195 -0.2716  0.0357 -0.1538
  265MOL0     C36436   8.841   5.679  10.066  0.6379 -0.0480  0.1079
  265MOL0     C36437   8.716   5.715  10.013 -0.0459  0.2334 -0.4750
  265MOL0     C36438   8.689   5.710   9.875  0.0339  0.8373 -0.3571
  265MOL0     C36439   8.778   5.644   9.791 -0.4886 -0.5336 -0.0789
  265MOL0     O36440   8.736   5.613   9.662 -0.5514 -0.4375 -0.9339
  265MOL0     C36441   8.831   5.622   9.551 -0.5694 -0.3012 -0.9389
  265MOL0     C36442   8.788   5.632   9.412 -0.7981 -0.2685  0.7033
  265MOL0     C36443   8.655   5.570   9.392  0.3734  0.0166  0.1346
  265MOL0     C36444   8.652   5.423   9.386  0.1155 -0.0622  0.4871
  265MOL0     C36445   8.517   5.340   9.380  0.6119 -1.0565  0.0610
  265MOL0     C36446   8.542   5.193   9.418 -0.4230  1.4641  0.0457
  265MOL0     C36447   8.407   5.139   9.448 -0.3801  0.4618  0.2768
  265MOL0     C36448   8.361   5.178   9.593  0.5123  0.6056 -0.2081
  265MOL0     N36449   8.225   5.132   9.616 -0.4466  0.0849  0.0471
  265MOL0     C36450   8.122   5.171   9.545  0.3098 -1.3535 -0.4465
  265MOL0     C36451   8.011   5.098   9.588 -0.2600  0.0141  0.2038
  265MOL0     C36452   7.873   5.109   9.537 -0.3403  0.4868 -0.2970
  265MOL0     C36453   7.795   5.217   9.625 -0.1569  0.3235  0.0041
  265MOL0     C36454   7.637   5.207   9.609  0.1900  0.6622 -0.4689
  265MOL0     C36455   7.577   5.067   9.657  1.0456 -0.4756 -0.4954
  265MOL0     O36456   7.610   5.039   9.787 -0.1156 -0.6364  0.2712
  265MOL0     C36457   7.609   4.905   9.811  0.2095 -0.1792  1.8681
  265MOL0     C36458   7.547   4.864   9.929 -0.0506 -0.7080 -0.4767
  265MOL0     C36459   7.540   4.733   9.963 -0.9355 -0.0646 -0.0493
  265MOL0     C36460   7.481   4.694  10.099 -0.1969 -0.0687  0.1442
  265MOL0     C36461   7.596   4.635   9.880  0.1489  0.3463  0.3560
  265MOL0     C36462   7.586   4.500   9.924  0.2352  0.5477 -0.4331
  265MOL0     O36463   7.464   4.440   9.944  0.7481  1.1164 -0.3428
  265MOL0     C36464   7.450   4.318  10.020 -0.1933 -0.3411 -0.1384
  265MOL0     C36465   7.477   4.324  10.152 -0.7484  0.1867  0.0295
  265MOL0     C36466   7.483   4.211  10.234  0.3940 -0.9239 -0.0307
  265MOL0     C36467   7.439   4.086  10.188 -0.2292  0.4268 -0.4575
  265MOL0     O36468   7.431   3.984  10.286 -0.2061 -0.4742 -0.4152
  265MOL0     C36469   7.338   3.880  10.260  0.4498  0.7566 -0.4562
  265MOL0     C36470   7.275   3.823  10.385 -0.4581 -0.4967  0.1109
  265MOL0     C36471   7.210   3.931  10.479 -0.9893 -0.3220  0.4476
  265MOL0     C36472   7.156   3.869  10.608 -0.0826  1.3440 -0.7695
  265MOL0     C36473   7.107   3.968  10.711  0.8084  0.0760  0.2420
  265MOL0     C36474   7.087   3.889  10.850 -0.1856 -0.1365 -0.2664
  265MOL0     C36475   6.946   3.812  10.844 -0.0392 -0.1531  0.6200
  265MOL0     C36476   6.936   3.674  10.935 -0.1959  0.3049  0.4281
  265MOL0    Cl36477   7.061   3.547  10.875  0.3780  0.2807 -0.1547
  265MOL0     C36478   7.410   4.089  10.045 -0.2752  0.1564  0.0093
  265MOL0     C36479   7.407   4.193   9.958  0.8589 -1.2291 -0.5514
  265MOL0     O36480   7.694   4.450   9.939 -0.2755 -0.5348  0.2767
  265MOL0     C36481   7.655   4.670   9.755  0.9067 -0.1735 -0.7607
  265MOL0     C36482   7.667   4.808   9.725 -0.2959 -0.4512 -0.1366
  265MOL0     N36483   8.063   5.012   9.682 -0.4968 -0.5210  1.0182
  265MOL0     N36484   8.194   5.034   9.695  0.2098 -0.2464 -0.4087
  265MOL0     C36485   8.900   5.605   9.841  0.6836 -0.0109  0.0611
  265MOL0     C36486   8.928   5.624   9.975 -0.2696 -0.8869  0.1311
  265MOL0     C36487   9.006   5.769  10.380  0.5042 -0.3497  0.6969
  265MOL0     C36488   9.122   5.846  10.411  0.0184 -0.5151 -0.4557
  265MOL0     C36489   9.188   5.834  10.531 -0.6888  0.6686  0.0901
  265MOL0     C36490   9.144   5.737  10.622  0.5928 -0.1330 -0.6657
  265MOL0     O36491   9.210   5.721  10.736  0.2211  1.1886  0.7863
  265MOL0     C36492   9.143   5.668  10.851  0.2462  0.0176  0.2125
  265MOL0     C36493   9.235   5.705  10.969 -0.3018  0.4585 -0.1966
  265MOL0     C36494   9.389   5.652  10.950  0.5299  0.2351  0.8876
  265MOL0     C36495   9.467   5.639  11.083  0.1210 -0.3062  0.1148
  265MOL0     C36496   9.458   5.502  11.121  0.4364  0.1132 -0.0105
  265MOL0     C36497   9.452   5.385  11.138  0.7195  0.4494 -0.2133
  265MOL0     C36498   9.034   5.657  10.589  1.3866  0.1147 -0.1319
  265MOL0     C36499   8.961   5.675  10.470 -0.5114  0.3313 -0.1311
  265MOL0     C36500   8.854   5.583  10.455  0.0697 -0.5904 -0.1036
  265MOL0     H36501   8.642   5.744  10.086 -2.1325  1.1197 -2.7912
  265MOL0     H36502   8.592   5.749   9.845  0.0928  1.4683  0.2535
  265MOL0     H36503   8.880   5.523   9.554 -4.6464 -2.5178  0.6994
  265MOL0     H36504   8.897   5.705   9.578  1.5427 -1.5356 -1.9915
  265MOL0     H36505   8.782   5.739   9.390 -0.1740 -0.0293  1.6264
  265MOL0     H36506   8.857   5.591   9.337 -0.1119  2.2186 -0.1515
  265MOL0     H36507   8.598   5.612   9.475  0.2286  1.1932 -0.5347
  265MOL0     H36508   8.603   5.612   9.305 -0.6328 -2.4034 -0.5181
  265MOL0     H36509   8.697   5.403   9.288 -1.3689 -0.3677 -0.1550
  265MOL0     H36510   8.717   5.379   9.462  2.3356 -0.4470 -1.4889
  265MOL0     H36511   8.451   5.350   9.293  0.8424 -0.8703 -0.0949
  265MOL0     H36512   8.458   5.404   9.446  1.2352  1.6417 -1.8023
  265MOL0     H36513   8.591   5.129   9.345 -1.0742 -1.6904  2.1799
  265MOL0     H36514   8.612   5.190   9.502  0.0911  2.2148 -0.3407
  265MOL0     H36515   8.404   5.030   9.440 -1.7978  0.4848  0.2319
  265MOL0     H36516   8.338   5.185   9.377 -3.3272 -2.0284  1.3333
  265MOL0     H36517   8.420   5.113   9.657 -0.0624  0.9968  0.7453
  265MOL0     H36518   8.365   5.282   9.628 -1.4614  0.8815 -0.6870
  265MOL0     H36519   8.135   5.266   9.492 -1.0137  0.2626  1.9632
  265MOL0     H36520   7.823   5.012   9.544  0.4288  0.0215 -0.9444
  265MOL0     H36521   7.877   5.144   9.433  0.6978  1.8618  0.1867
  265MOL0     H36522   7.822   5.195   9.729 -0.6593 -0.5571 -0.0513
  265MOL0     H36523   7.832   5.319   9.606 -0.7484  1.0563  2.3851
  265MOL0     H36524   7.599   5.275   9.686  0.7936 -0.4353  0.8437
  265MOL0     H36525   7.617   5.234   9.505 -1.7733 -3.3205 -1.3143
  265MOL0     H36526   7.469   5.052   9.661  0.9844  0.1984  2.1154
  265MOL0     H36527   7.600   4.990   9.582  3.1657 -0.2414 -0.1590
  265MOL0     H36528   7.496   4.929   9.999  1.1459 -3.2521  3.0453
  265MOL0     H36529   7.555   4.638  10.156 -0.6168 -0.7217  0.0581
  265MOL0     H36530   7.391   4.633  10.085  0.3320 -0.2646 -3.1893
  265MOL0     H36531   7.445   4.787  10.144  0.4434  0.8469 -1.1616
  265MOL0     H36532   7.491   4.424  10.193  1.2432 -0.0174 -0.0655
  265MOL0     H36533   7.517   4.223  10.337  0.7177  1.5883 -0.3693
  265MOL0     H36534   7.257   3.929  10.206  1.5291  1.6134 -1.3522
  265MOL0     H36535   7.383   3.801  10.198  1.8478  1.4587 -0.3724
  265MOL0     H36536   7.201   3.748  10.356  0.8371 -1.6669 -0.2288
  265MOL0     H36537   7.360   3.775  10.434  1.6647  0.6840 -2.2166
  265MOL0     H36538   7.128   3.978  10.424  0.9608 -0.2107 -2.5933
  265MOL0     H36539   7.291   4.002  10.497  0.5818 -2.2821  1.4781
  265MOL0     H36540   7.226   3.803  10.660  0.6234  1.5050 -1.4896
  265MOL0     H36541   7.084   3.792  10.580  0.9244 -0.7748  1.9943
  265MOL0     H36542   7.188   4.041  10.718 -1.1275  2.2271  1.7324
  265MOL0     H36543   7.018   4.020  10.675  0.4178 -0.6402  0.1383
  265MOL0     H36544   7.088   3.961  10.932  1.5406  0.1670 -0.4991
  265MOL0     H36545   7.172   3.823  10.868  1.8172  2.3330  0.0067
  265MOL0     H36546   6.930   3.777  10.741 -0.1186 -2.4884  1.3535
  265MOL0     H36547   6.858   3.872  10.865 -1.0354  0.1759 -3.5553
  265MOL0     H36548   6.837   3.629  10.928  0.8311 -2.0201 -0.7276
  265MOL0     H36549   6.960   3.702  11.038  4.2332  0.1006 -0.3123
  265MOL0     H36550   7.391   3.991  10.002 -1.0394  0.1516  0.3293
  265MOL0     H36551   7.369   4.202   9.857 -2.4605 -1.4813  0.5627
  265MOL0     H36552   7.691   4.585   9.697  0.5087 -2.5461  2.2431
  265MOL0     H36553   7.724   4.840   9.638  1.0413  0.2524  0.9600
  265MOL0     H36554   8.971   5.565   9.771 -0.1104  2.3334 -2.2627
  265MOL0     H36555   9.025   5.589  10.010  0.1399 -2.2356 -2.1373
  265MOL0     H36556   9.172   5.907  10.336  0.1802  1.9237  1.4862
  265MOL0     H36557   9.277   5.889  10.556 -0.4115 -0.0185  0.6392
  265MOL0     H36558   9.041   5.708  10.851 -1.2134 -3.4090  0.2825
  265MOL0     H36559   9.141   5.560  10.836  4.4151 -0.0149 -1.5701
  265MOL0     H36560   9.190   5.644  11.048  0.3845 -0.3969 -0.4521
  265MOL0     H36561   9.230   5.812  10.989  2.7107  0.4214  1.3669
  265MOL0     H36562   9.367   5.563  10.890 -2.2893  1.9558 -0.8431
  265MOL0     H36563   9.439   5.729  10.890 -0.5442  0.4037  0.1905
  265MOL0     H36564   9.428   5.705  11.161 -1.0396 -0.9957  0.1386
  265MOL0     H36565   9.573   5.663  11.073 -0.0560  0.5559  0.1650
  265MOL0     H36566   9.466   5.281  11.156  1.4999  0.6912  0.6522
  265MOL0     H36567   9.001   5.585  10.663 -0.1618 -0.5501 -1.4078
  265MOL0     H36568   8.759   5.622  10.418  0.8366  0.4315 -1.0663
  265MOL0     H36569   8.882   5.511  10.378  2.7760 -0.7515  0.9157
  265MOL0     H36570   8.835   5.526  10.547 -0.0754 -1.1250 -0.4589
  266MOL0     O36571   5.748   8.991   2.902 -0.1707  0.1803 -0.0803
  266MOL0     C36572   5.865   8.976   2.862 -0.3153 -0.2307 -0.7408
  266MOL0     O36573   5.980   8.921   2.939  0.5355  0.2182  0.3520
  266MOL0     C36574   5.955   8.875   3.063  0.0435 -0.1424 -0.0605
  266MOL0     C36575   5.884   8.760   3.082  0.1153  0.5583 -0.3040
  266MOL0     C36576   5.877   8.695   3.206 -0.4770 -0.0503 -0.4662
  266MOL0     C36577   5.944   8.753   3.317  1.1369  1.0674  0.5235
  266MOL0     O36578   5.942   8.682   3.431  1.3100  0.0607 -1.4772
  266MOL0     C36579   5.994   8.551   3.414 -0.2056  1.0773 -0.6432
  266MOL0     C36580   6.031   8.511   3.567 -0.3523  0.3533 -0.2871
  266MOL0     C36581   6.051   8.351   3.586  0.0492 -0.2943 -0.3247
  266MOL0     C36582   6.178   8.305   3.518 -0.1906 -0.7774 -0.2406
  266MOL0     C36583   6.197   8.152   3.545  0.1084  0.2550 -0.0576
  266MOL0     C36584   6.297   8.092   3.453 -0.1937  0.5450 -0.2308
  266MOL0     C36585   6.330   7.937   3.463  0.7743 -0.5852 -0.3523
  266MOL0     C36586   6.318   7.849   3.337  0.3716  0.3414 -0.7940
  266MOL0     N36587   6.424   7.878   3.240 -1.2611  1.2499  0.2033
  266MOL0     C36588   6.397   7.925   3.115  0.8660 -0.2822  0.3097
  266MOL0     C36589   6.518   7.956   3.063  0.6232  0.9213 -0.6202
  266MOL0     C36590   6.544   8.028   2.929 -0.1648  0.4874 -1.0999
  266MOL0     C36591   6.495   7.986   2.789  0.0486 -0.6163 -1.1230
  266MOL0     C36592   6.585   8.053   2.694 -1.4882 -0.6467 -1.6264
  266MOL0     C36593   6.551   8.021   2.546  0.7438  0.2167 -0.1619
  266MOL0     O36594   6.415   8.060   2.523 -0.2134  0.1129  0.1700
  266MOL0     C36595   6.364   8.058   2.398 -0.8942  0.0718  0.0379
  266MOL0     C36596   6.439   8.002   2.281 -0.6071  0.0619  0.9682
  266MOL0     C36597   6.388   7.999   2.150  0.5675 -0.1309 -0.5238
  266MOL0     C36598   6.474   7.949   2.039  0.3416  0.5783  0.5229
  266MOL0     C36599   6.256   8.032   2.127  0.1556 -0.2969  0.3944
  266MOL0     C36600   6.183   8.014   2.000 -0.6276 -0.4592  0.4139
  266MOL0     O36601   6.219   7.905   1.921  0.5991 -0.0034  0.5486
  266MOL0     C36602   6.146   7.863   1.807  0.6127  0.8238 -0.3067
  266MOL0     C36603   6.213   7.796   1.707 -0.4562 -0.4991 -0.5603
  266MOL0     C36604   6.152   7.741   1.594  0.0111 -0.6294  0.4227
  266MOL0     C36605   6.015   7.750   1.579 -0.6987 -0.9287 -0.2488
  266MOL0     O36606   5.957   7.694   1.470  0.0091 -0.5305 -0.1206
  266MOL0     C36607   5.860   7.588   1.510 -0.1390 -0.2209  0.5511
  266MOL0     C36608   5.808   7.523   1.386  0.2300 -0.7560  0.4130
  266MOL0     C36609   5.912   7.425   1.324 -0.0335 -0.0327  0.3735
  266MOL0     C36610   5.868   7.354   1.199  0.4915 -0.4692  0.5227
  266MOL0     C36611   5.860   7.441   1.072  0.6944  0.4996 -0.7978
  266MOL0     C36612   5.996   7.482   1.034  0.2423  0.5240  0.6118
  266MOL0     C36613   5.994   7.548   0.903  0.4933 -1.3348  0.2229
  266MOL0     C36614   6.137   7.592   0.870  0.8775  0.3579 -0.0382
  266MOL0    Cl36615   6.107   7.704   0.724 -0.1701  0.2302 -0.2757
  266MOL0     C36616   5.945   7.829   1.672 -0.1207  0.2295  1.3413
  266MOL0     C36617   6.012   7.891   1.784 -0.0526  0.4862 -0.9934
  266MOL0     O36618   6.106   8.102   1.969  0.4182  0.1633 -0.0901
  266MOL0     C36619   6.191   8.088   2.238  0.8825 -0.6473  0.5296
  266MOL0     C36620   6.237   8.102   2.364  1.5408  0.2697 -0.8030
  266MOL0     N36621   6.611   7.926   3.158  0.6304  1.6003 -1.6830
  266MOL0     N36622   6.564   7.873   3.266 -0.0469  0.1967  0.5166
  266MOL0     C36623   6.023   8.859   3.302 -0.4141 -1.5155  0.2490
  266MOL0     C36624   6.029   8.923   3.173  0.1388  0.5969  0.2402
  266MOL0     C36625   5.881   9.038   2.734  0.3071 -0.7463 -0.6874
  266MOL0     C36626   5.781   9.023   2.634 -0.2810  0.2046  0.1600
  266MOL0     C36627   5.785   9.100   2.519  0.1143  0.9191  0.0681
  266MOL0     C36628   5.892   9.183   2.494  0.1686 -0.9258 -0.0824
  266MOL0     O36629   5.891   9.253   2.373 -0.3093 -0.5843 -0.5154
  266MOL0     C36630   5.957   9.384   2.372 -0.6837  0.2793  0.4312
  266MOL0     C36631   5.931   9.446   2.226  0.2182  0.0340  0.1890
  266MOL0     C36632   6.018   9.370   2.128  0.8857  0.0961 -0.7894
  266MOL0     C36633   6.028   9.403   1.977  0.2966 -0.4173 -0.2635
  266MOL0     C36634   5.915   9.496   1.926 -0.3710  0.1017 -0.8646
  266MOL0     C36635   5.823   9.556   1.877  0.0700  0.6739 -0.0779
  266MOL0     C36636   5.995   9.203   2.592  0.4614  0.0393  0.2482
  266MOL0     C36637   5.991   9.126   2.703 -0.3537 -0.7102  0.2722
  266MOL0     C36638   6.102   9.154   2.798  0.4708  0.5093 -0.3648
  266MOL0     H36639   5.828   8.711   3.003  2.0652 -0.9115 -0.8465
  266MOL0     H36640   5.831   8.598   3.219 -1.2234  0.3842  0.2095
  266MOL0     H36641   6.078   8.548   3.344  1.4321 -3.0924  1.1387
  266MOL0     H36642   5.917   8.489   3.367  0.1284  1.9723 -2.4672
  266MOL0     H36643   6.114   8.572   3.604  0.4109 -0.2455 -0.9798
  266MOL0     H36644   5.953   8.522   3.643 -1.0750  2.1187 -1.2206
  266MOL0     H36645   6.054   8.336   3.694 -2.6870  0.2733 -0.0957
  266MOL0     H36646   5.962   8.293   3.558 -1.5509  0.2761  3.1037
  266MOL0     H36647   6.176   8.333   3.412 -1.7351 -4.5752 -1.3984
  266MOL0     H36648   6.264   8.344   3.572 -0.8559  0.7459 -0.2337
  266MOL0     H36649   6.100   8.101   3.539  0.1428  0.0731 -6.5387
  266MOL0     H36650   6.220   8.149   3.652 -2.5880  0.4787  0.5934
  266MOL0     H36651   6.272   8.119   3.350  0.9337  1.3187 -0.3162
  266MOL0     H36652   6.396   8.135   3.470  2.5696 -5.4663  1.2552
  266MOL0     H36653   6.267   7.897   3.543  1.2617 -0.6399  0.0107
  266MOL0     H36654   6.427   7.932   3.514  1.6070  0.4183 -1.7471
  266MOL0     H36655   6.328   7.747   3.375  0.5606  0.3721 -0.7600
  266MOL0     H36656   6.215   7.853   3.299  0.7228 -0.2494 -1.8219
  266MOL0     H36657   6.300   7.945   3.071  0.7870 -4.0972 -1.7008
  266MOL0     H36658   6.651   8.051   2.932 -0.6499  2.9480 -0.2255
  266MOL0     H36659   6.506   8.130   2.940  2.0778  1.3947 -1.0546
  266MOL0     H36660   6.510   7.878   2.776  1.2685 -0.9074  1.8455
  266MOL0     H36661   6.389   8.009   2.777  0.0017  0.3080  0.7333
  266MOL0     H36662   6.575   8.162   2.701 -0.5811 -0.6329 -0.3495
  266MOL0     H36663   6.684   8.019   2.726 -2.4652 -1.5380  0.6759
  266MOL0     H36664   6.614   8.086   2.484  1.6782  0.4239  0.9721
  266MOL0     H36665   6.577   7.917   2.526  0.1346  0.2998 -1.4886
  266MOL0     H36666   6.537   7.958   2.291  1.1269  2.9623 -1.3576
  266MOL0     H36667   6.439   7.967   1.938 -3.3460 -5.6514  0.1466
  266MOL0     H36668   6.473   7.840   2.023  0.0381  0.8411 -1.4042
  266MOL0     H36669   6.576   7.984   2.057  1.6286 -3.0772  1.3351
  266MOL0     H36670   6.320   7.778   1.719 -0.4827  0.8333  2.2626
  266MOL0     H36671   6.217   7.688   1.525 -0.8106 -1.1931  0.0698
  266MOL0     H36672   5.886   7.510   1.583 -0.4798 -0.4729  0.4061
  266MOL0     H36673   5.771   7.636   1.549  0.2032 -1.4684  3.0657
  266MOL0     H36674   5.713   7.473   1.405 -0.6744 -0.1780 -2.1152
  266MOL0     H36675   5.788   7.604   1.315  1.6408  1.1228  2.0689
  266MOL0     H36676   5.915   7.344   1.396  2.8781  1.0917  1.6686
  266MOL0     H36677   6.007   7.478   1.318 -0.1181  0.1556  0.6826
  266MOL0     H36678   5.769   7.308   1.210  1.0033 -1.2608  2.0031
  266MOL0     H36679   5.939   7.277   1.168  3.2300  1.3038  2.0523
  266MOL0     H36680   5.820   7.377   0.993 -0.3923  1.4099 -1.0002
  266MOL0     H36681   5.790   7.524   1.083 -1.1790 -1.3550  3.8763
  266MOL0     H36682   6.063   7.397   1.022  1.5974  1.9144 -3.0049
  266MOL0     H36683   6.049   7.547   1.105 -1.0996  0.0255  2.1335
  266MOL0     H36684   5.925   7.633   0.909 -0.7719 -2.3886  1.1824
  266MOL0     H36685   5.971   7.477   0.823  0.5540  1.4381 -2.4606
  266MOL0     H36686   6.194   7.508   0.830  1.3695  0.2310  0.9191
  266MOL0     H36687   6.182   7.639   0.958 -1.3944 -0.8734  1.8992
  266MOL0     H36688   5.840   7.851   1.653 -0.0260 -0.9751 -0.8696
  266MOL0     H36689   5.971   7.960   1.857  0.2675 -0.5874  0.2349
  266MOL0     H36690   6.087   8.112   2.223 -0.1401 -2.4130  3.7058
  266MOL0     H36691   6.178   8.152   2.441  0.0377  0.1415 -1.8257
  266MOL0     H36692   6.081   8.912   3.377 -1.5374  1.1607 -0.6132
  266MOL0     H36693   6.085   9.012   3.148 -2.8086  1.9933 -2.1070
  266MOL0     H36694   5.700   8.952   2.642  2.0063 -2.4173  2.1450
  266MOL0     H36695   5.696   9.075   2.462  0.3011 -2.7802  1.1233
  266MOL0     H36696   5.911   9.441   2.453 -4.4834 -2.2959  0.3759
  266MOL0     H36697   6.064   9.368   2.382 -0.5625  0.5167 -0.3915
  266MOL0     H36698   5.946   9.554   2.215 -3.5356  0.6833 -0.0985
  266MOL0     H36699   5.826   9.435   2.197  0.4899  0.9121 -1.2580
  266MOL0     H36700   6.120   9.361   2.165  0.9240 -0.3445 -0.9980
  266MOL0     H36701   5.977   9.269   2.139  2.1298 -0.1085  5.1986
  266MOL0     H36702   6.025   9.312   1.917  0.2888 -0.6376  0.0686
  266MOL0     H36703   6.133   9.431   1.961  1.1578 -3.5633 -0.7743
  266MOL0     H36704   5.746   9.615   1.830 -1.1641 -1.2861 -0.6374
  266MOL0     H36705   6.069   9.280   2.572 -1.8918  1.8410 -2.2275
  266MOL0     H36706   6.190   9.195   2.747  2.3154 -2.4864  0.1490
  266MOL0     H36707   6.065   9.224   2.873 -0.2282  0.2524 -0.4651
  266MOL0     H36708   6.145   9.062   2.839  4.5567  2.2359 -0.2119
  267MOL0     O36709   0.656   6.756   8.142 -0.6108  0.5464  0.5409
  267MOL0     C36710   0.532   6.731   8.138  0.3566 -0.5460  1.4388
  267MOL0     O36711   0.450   6.743   8.027 -0.1982  1.0072 -0.0206
  267MOL0     C36712   0.500   6.709   7.900 -0.1815  0.6009  0.1432
  267MOL0     C36713   0.622   6.764   7.845  0.1359  0.3142 -0.4426
  267MOL0     C36714   0.657   6.758   7.718 -0.5122 -0.6567 -0.2332
  267MOL0     C36715   0.588   6.682   7.621 -0.2868 -0.3847  0.0549
  267MOL0     O36716   0.630   6.680   7.488 -0.0065  0.6429  0.0895
  267MOL0     C36717   0.538   6.625   7.387 -0.0446 -0.3534 -0.7392
  267MOL0     C36718   0.548   6.710   7.250  0.4084  0.6103  0.1173
  267MOL0     C36719   0.421   6.685   7.144  0.0148 -0.0185 -0.1130
  267MOL0     C36720   0.457   6.587   7.032  0.1858 -0.2718 -0.0012
  267MOL0     C36721   0.356   6.586   6.921  0.7332  0.2716 -0.0270
  267MOL0     C36722   0.387   6.498   6.791  0.0515  0.6948 -0.8392
  267MOL0     C36723   0.307   6.365   6.809  0.5328  1.6413 -0.1603
  267MOL0     C36724   0.315   6.279   6.679  1.1041 -0.4167 -0.4103
  267MOL0     N36725   0.450   6.236   6.668  0.8682 -0.2643  0.0627
  267MOL0     C36726   0.521   6.234   6.551 -0.2889  0.2400 -0.4711
  267MOL0     C36727   0.615   6.140   6.564 -0.0966 -0.0205 -0.5864
  267MOL0     C36728   0.724   6.095   6.471 -0.4930 -0.1654 -0.5740
  267MOL0     C36729   0.680   6.058   6.324 -0.3750 -0.0314 -0.1602
  267MOL0     C36730   0.790   6.022   6.223 -0.4779  0.2344  0.1132
  267MOL0     C36731   0.898   5.924   6.259  0.6632  0.9160  0.5253
  267MOL0     O36732   0.980   5.907   6.141 -0.2891 -0.4460  0.0013
  267MOL0     C36733   0.948   5.842   6.030  0.4839  1.4221  0.1244
  267MOL0     C36734   0.819   5.794   5.981 -0.0114 -0.5262 -0.0464
  267MOL0     C36735   0.803   5.755   5.840  0.1189 -0.7392  0.2843
  267MOL0     C36736   0.664   5.715   5.798  0.1930 -0.0931  0.1900
  267MOL0     C36737   0.910   5.760   5.751 -0.2847  0.3829  0.1262
  267MOL0     C36738   0.906   5.691   5.614 -0.3236 -1.5197 -0.3641
  267MOL0     O36739   0.780   5.668   5.561 -0.1410  0.6261  0.0979
  267MOL0     C36740   0.766   5.581   5.459 -1.1218 -0.4669  0.1541
  267MOL0     C36741   0.721   5.456   5.482 -0.9958  0.4093 -0.0902
  267MOL0     C36742   0.681   5.367   5.380  0.1533  0.2507 -1.3409
  267MOL0     C36743   0.698   5.398   5.246  0.7244 -0.0080  0.7925
  267MOL0     O36744   0.694   5.309   5.140  1.6723 -0.2556  0.4543
  267MOL0     C36745   0.686   5.170   5.180 -1.7373  0.9571  0.0588
  267MOL0     C36746   0.728   5.085   5.064 -0.2001  0.2810 -0.0613
  267MOL0     C36747   0.880   5.073   5.047  0.8791 -0.2743  0.0559
  267MOL0     C36748   0.909   4.991   4.914  0.1572 -0.4026 -0.3945
  267MOL0     C36749   1.062   5.020   4.883  1.0788  0.1126  0.1809
  267MOL0     C36750   1.117   4.931   4.770  0.3768  0.6318 -0.1965
  267MOL0     C36751   1.070   4.969   4.624 -0.3708  0.7058 -0.6792
  267MOL0     C36752   1.155   4.895   4.521  0.5325 -0.9544 -0.6005
  267MOL0    Cl36753   1.157   4.709   4.543 -0.1441 -0.1207  0.0726
  267MOL0     C36754   0.754   5.527   5.220  0.9413  0.0309 -0.0456
  267MOL0     C36755   0.793   5.613   5.324  0.1520  0.5815  0.4336
  267MOL0     O36756   1.008   5.657   5.563 -0.5156 -0.0494  0.2496
  267MOL0     C36757   1.031   5.808   5.804  0.4180  0.3405 -0.0897
  267MOL0     C36758   1.047   5.842   5.935 -0.6137  0.9119 -0.3578
  267MOL0     N36759   0.608   6.099   6.693  0.3389 -0.6450 -0.0951
  267MOL0     N36760   0.511   6.159   6.756  0.1491 -0.0676 -0.3034
  267MOL0     C36761   0.471   6.615   7.676 -0.6660 -0.7436 -0.6126
  267MOL0     C36762   0.428   6.634   7.810 -0.2590  0.2865 -0.2602
  267MOL0     C36763   0.461   6.687   8.259  1.3869 -0.2406  0.1340
  267MOL0     C36764   0.319   6.682   8.251  0.1785  0.3491 -0.7594
  267MOL0     C36765   0.243   6.650   8.364  0.3975  0.1958 -0.5967
  267MOL0     C36766   0.304   6.601   8.479 -0.3904 -0.1991  1.4313
  267MOL0     O36767   0.227   6.574   8.591 -0.6098  0.0732  0.5165
  267MOL0     C36768   0.160   6.682   8.666  0.4480 -0.4311  0.8174
  267MOL0     C36769   0.120   6.641   8.816 -0.8391  0.5218  0.0050
  267MOL0     C36770   0.046   6.510   8.831 -0.5164 -0.4251  0.1739
  267MOL0     C36771   0.009   6.469   8.978  0.9772  0.3364  0.1310
  267MOL0     C36772   0.115   6.488   9.076 -0.1265  0.0104 -0.1126
  267MOL0     C36773   0.179   6.495   9.179 -0.1603 -0.7166 -0.0425
  267MOL0     C36774   0.438   6.594   8.483 -1.4168 -0.4040 -0.2431
  267MOL0     C36775   0.524   6.636   8.380 -0.0807  0.2955 -0.0976
  267MOL0     C36776   0.675   6.633   8.408  0.2502  0.0651  0.0744
  267MOL0     H36777   0.684   6.831   7.905 -0.2569 -0.3161  0.7067
  267MOL0     H36778   0.746   6.810   7.684 -1.1562  0.6739  0.0200
  267MOL0     H36779   0.434   6.638   7.418  0.3498 -0.6059  0.7773
  267MOL0     H36780   0.559   6.518   7.375 -2.1187 -0.7034 -1.8066
  267MOL0     H36781   0.541   6.815   7.281  0.3554  0.8942 -0.8304
  267MOL0     H36782   0.649   6.697   7.210  0.6291 -0.0585  0.8692
  267MOL0     H36783   0.331   6.653   7.197 -0.4883 -1.8379 -1.9507
  267MOL0     H36784   0.405   6.783   7.099  1.3636 -1.1318 -3.2375
  267MOL0     H36785   0.559   6.598   6.992  1.4442  1.9939  3.3782
  267MOL0     H36786   0.460   6.490   7.082  1.6422 -1.6931 -2.6019
  267MOL0     H36787   0.328   6.690   6.899 -1.6068  0.3571  2.7261
  267MOL0     H36788   0.261   6.543   6.956 -1.5251 -0.0817 -5.5092
  267MOL0     H36789   0.348   6.552   6.705  0.4445 -0.0663 -1.5040
  267MOL0     H36790   0.493   6.475   6.774 -0.2425 -4.8693  2.3933
  267MOL0     H36791   0.202   6.388   6.828  0.6555  0.3027  2.6817
  267MOL0     H36792   0.343   6.312   6.898 -2.7747  0.1489  0.4494
  267MOL0     H36793   0.249   6.193   6.694  0.2464  0.1330 -0.9825
  267MOL0     H36794   0.281   6.351   6.604 -1.1211 -1.0044 -0.0334
  267MOL0     H36795   0.482   6.283   6.462 -2.9507  0.7410  0.8764
  267MOL0     H36796   0.770   6.002   6.506  2.7929  1.0336 -1.3725
  267MOL0     H36797   0.809   6.163   6.474  0.8781 -1.8196  0.1060
  267MOL0     H36798   0.621   5.967   6.340  2.6955 -2.5457 -2.0124
  267MOL0     H36799   0.610   6.133   6.285  2.7750  2.7631 -0.8972
  267MOL0     H36800   0.755   5.995   6.123  0.5791  1.7052 -0.7007
  267MOL0     H36801   0.842   6.116   6.202 -2.5493  2.3834  3.6778
  267MOL0     H36802   0.950   5.953   6.351 -3.2848 -2.0392  4.1147
  267MOL0     H36803   0.852   5.828   6.282  1.4417  0.0393 -1.3576
  267MOL0     H36804   0.732   5.807   6.043  0.1072 -1.7805  0.4081
  267MOL0     H36805   0.606   5.718   5.892  2.9340 -2.6033  2.1539
  267MOL0     H36806   0.664   5.613   5.758  5.1987 -0.6900  1.0656
  267MOL0     H36807   0.619   5.783   5.726 -2.2093  0.9753  2.5176
  267MOL0     H36808   0.715   5.416   5.583  2.4534 -1.9952 -0.6497
  267MOL0     H36809   0.638   5.270   5.404  0.1661  0.6421  0.3935
  267MOL0     H36810   0.752   5.152   5.266  1.6758 -0.6029 -2.6392
  267MOL0     H36811   0.582   5.145   5.203 -1.2923 -0.0576  1.0417
  267MOL0     H36812   0.692   4.984   5.087 -0.4071  0.5057  0.6132
  267MOL0     H36813   0.665   5.110   4.979 -1.3989 -2.7651 -0.2040
  267MOL0     H36814   0.912   5.021   5.137  0.1128 -0.5957  0.1556
  267MOL0     H36815   0.931   5.169   5.046  1.6496 -0.6477  1.4579
  267MOL0     H36816   0.847   5.022   4.828  0.4548  2.5555  0.3442
  267MOL0     H36817   0.892   4.889   4.949 -1.9485 -0.2796 -0.9163
  267MOL0     H36818   1.070   5.128   4.872  2.3399  0.7990  5.2397
  267MOL0     H36819   1.114   5.009   4.978 -1.1146  0.2337  1.4813
  267MOL0     H36820   1.074   4.832   4.788 -1.9327  0.7221 -4.0652
  267MOL0     H36821   1.226   4.929   4.759  0.2100 -0.2760 -1.9719
  267MOL0     H36822   1.085   5.075   4.602 -0.5586  0.0326 -4.8198
  267MOL0     H36823   0.964   4.949   4.607 -0.5448 -0.2369  1.1997
  267MOL0     H36824   1.259   4.929   4.528  0.1289  0.1405  0.8240
  267MOL0     H36825   1.119   4.927   4.423 -0.1186 -0.0687 -0.0972
  267MOL0     H36826   0.776   5.568   5.122 -1.7018  2.5609  0.2917
  267MOL0     H36827   0.842   5.708   5.312 -1.5857  1.3975 -0.6912
  267MOL0     H36828   1.122   5.812   5.745  1.2623 -2.8925  0.8086
  267MOL0     H36829   1.147   5.871   5.965 -0.9781  0.6356  1.1800
  267MOL0     H36830   0.419   6.551   7.605 -1.3513  1.2171 -1.9700
  267MOL0     H36831   0.330   6.601   7.844 -0.8486  1.9337 -0.3002
  267MOL0     H36832   0.264   6.727   8.169 -3.3907 -0.3967  1.0170
  267MOL0     H36833   0.135   6.644   8.363  0.3561  0.4678  0.6182
  267MOL0     H36834   0.231   6.765   8.661  1.1090 -1.0472 -1.9493
  267MOL0     H36835   0.070   6.711   8.611  2.2007  0.6497 -1.7014
  267MOL0     H36836   0.056   6.722   8.853 -0.7549  0.4238  0.3668
  267MOL0     H36837   0.202   6.644   8.889  0.2493  0.7769 -1.2029
  267MOL0     H36838  -0.048   6.534   8.781  0.1944 -1.5170 -1.8438
  267MOL0     H36839   0.107   6.428   8.790 -1.4989 -0.2796 -1.6652
  267MOL0     H36840  -0.015   6.362   8.973  0.6689  0.4485 -1.0574
  267MOL0     H36841  -0.079   6.513   9.025  1.0680 -0.2875  0.9084
  267MOL0     H36842   0.241   6.510   9.266  1.5456  0.8141 -1.4323
  267MOL0     H36843   0.486   6.563   8.576 -2.9053  1.3081  1.1583
  267MOL0     H36844   0.705   6.606   8.510  2.1033 -2.7161 -1.1206
  267MOL0     H36845   0.722   6.552   8.352  0.6007 -0.6911  1.4044
  267MOL0     H36846   0.724   6.724   8.371 -2.3243 -0.0067 -4.1469
  268MOL0     O36847   8.205   9.134   0.076  0.0352  0.2404 -0.0885
  268MOL0     C36848   8.282   9.219   0.124  0.1212  0.3590  0.8736
  268MOL0     O36849   8.422   9.229   0.081  1.2046 -0.2409 -0.6149
  268MOL0     C36850   8.479   9.120   0.030 -0.8320 -0.2405  0.2998
  268MOL0     C36851   8.581   9.138  -0.071 -0.7536 -0.1169 -1.0653
  268MOL0     C36852   8.651   9.024  -0.120  0.1301 -0.0131 -0.0554
  268MOL0     C36853   8.606   8.893  -0.094 -0.0812 -0.4324  0.1500
  268MOL0     O36854   8.658   8.786  -0.161 -0.5102 -0.8293  0.3605
  268MOL0     C36855   8.614   8.651  -0.139 -0.3346 -0.8832 -0.1291
  268MOL0     C36856   8.685   8.547  -0.218 -0.4249  0.3518 -0.0975
  268MOL0     C36857   8.784   8.592  -0.328 -0.6003 -0.9015  0.0069
  268MOL0     C36858   8.739   8.708  -0.420  0.1337  1.0067 -0.2125
  268MOL0     C36859   8.807   8.709  -0.559 -0.0238 -0.8159 -0.2183
  268MOL0     C36860   8.953   8.739  -0.544  0.2953 -0.1587  0.1980
  268MOL0     C36861   9.031   8.762  -0.679 -0.1402  0.2881 -0.9769
  268MOL0     C36862   9.180   8.763  -0.645  0.0259 -0.4594 -0.0285
  268MOL0     N36863   9.275   8.767  -0.756  1.0699  0.9848  0.0907
  268MOL0     C36864   9.288   8.856  -0.856  0.6062  0.2998 -0.7130
  268MOL0     C36865   9.391   8.820  -0.928 -0.0384 -0.7354  0.0840
  268MOL0     C36866   9.424   8.901  -1.042  0.2439  0.0817 -0.6041
  268MOL0     C36867   9.560   8.886  -1.092 -0.7310  0.0645 -0.4853
  268MOL0     C36868   9.615   8.992  -1.195  0.0968 -0.7358 -0.1248
  268MOL0     C36869   9.659   9.120  -1.130  0.4757  0.8534  0.6279
  268MOL0     O36870   9.742   9.195  -1.220 -0.7991 -0.0540  0.0225
  268MOL0     C36871   9.869   9.227  -1.186  0.0387 -0.6236  0.6420
  268MOL0     C36872   9.884   9.336  -1.097 -0.2679 -0.3972 -0.4458
  268MOL0     C36873  10.009   9.395  -1.075 -1.2002  0.6896 -1.5008
  268MOL0     C36874  10.005   9.524  -0.996  0.6197  0.7792  0.9706
  268MOL0     C36875  10.126   9.353  -1.142 -0.2675  0.0380 -0.3589
  268MOL0     C36876  10.261   9.413  -1.128  0.5856  0.1637 -0.8737
  268MOL0     O36877  10.317   9.438  -1.005  0.0474 -0.2529  0.8503
  268MOL0     C36878  10.411   9.542  -1.000 -0.1615 -0.0223 -0.8920
  268MOL0     C36879  10.385   9.650  -0.912 -0.3835  0.2505 -0.6310
  268MOL0     C36880  10.489   9.737  -0.882 -0.3935 -0.4011 -0.0176
  268MOL0     C36881  10.620   9.727  -0.941 -0.3034 -0.3440 -0.2369
  268MOL0     O36882  10.712   9.827  -0.913  0.2927  0.2229 -0.7533
  268MOL0     C36883  10.858   9.794  -0.913  0.1571  0.6292 -1.0380
  268MOL0     C36884  10.917   9.892  -0.820  0.2960  0.7046 -0.2817
  268MOL0     C36885  10.900  10.039  -0.856 -0.0945  0.3940 -0.3604
  268MOL0     C36886  10.959  10.080  -1.003  0.4685  0.7455 -0.7857
  268MOL0     C36887  10.924  10.221  -1.051 -0.4138 -0.9258  0.0235
  268MOL0     C36888  10.975  10.322  -0.949  0.9757 -0.1093 -0.0593
  268MOL0     C36889  10.910  10.461  -0.985 -0.5496 -0.2581 -0.0481
  268MOL0     C36890  10.937  10.569  -0.885  0.0651  0.3334 -0.1033
  268MOL0    Cl36891  10.833  10.520  -0.729 -0.2918  0.3958  0.2702
  268MOL0     C36892  10.644   9.618  -1.021 -0.6346  0.6598 -0.1726
  268MOL0     C36893  10.550   9.517  -1.042  1.0775  0.0905 -1.2273
  268MOL0     O36894  10.305   9.444  -1.233 -0.6231 -0.3916 -0.1083
  268MOL0     C36895  10.114   9.235  -1.218 -0.0392  0.6400 -0.2949
  268MOL0     C36896   9.986   9.192  -1.258  0.3838  0.6973  0.0071
  268MOL0     N36897   9.455   8.715  -0.862 -0.5176 -0.6341 -0.2852
  268MOL0     N36898   9.377   8.678  -0.763  0.3471  0.0342  0.7949
  268MOL0     C36899   8.509   8.885   0.012 -0.5416  0.0920  1.7818
  268MOL0     C36900   8.455   8.994   0.076 -0.9942 -0.4625 -0.5933
  268MOL0     C36901   8.254   9.286   0.252 -0.7648  0.9720  0.0419
  268MOL0     C36902   8.291   9.418   0.261 -0.2234 -0.8982  0.2744
  268MOL0     C36903   8.254   9.495   0.374  0.0105  0.3259  0.3139
  268MOL0     C36904   8.185   9.437   0.484  0.6104 -0.3904 -0.0510
  268MOL0     O36905   8.145   9.522   0.583 -0.2361 -0.5127 -0.6187
  268MOL0     C36906   8.012   9.508   0.645 -0.2624  0.4458 -0.4581
  268MOL0     C36907   7.989   9.624   0.744  1.0003  0.9030  0.7514
  268MOL0     C36908   7.876   9.604   0.848 -0.3990  0.3591  0.0837
  268MOL0     C36909   7.886   9.709   0.967 -0.6859  0.0108  0.5398
  268MOL0     C36910   7.778   9.706   1.061  0.7513 -0.2572  0.8771
  268MOL0     C36911   7.675   9.725   1.122  0.6378 -0.1155 -0.3334
  268MOL0     C36912   8.143   9.303   0.471  0.1362 -0.5701 -0.4848
  268MOL0     C36913   8.181   9.231   0.361 -0.3793 -0.7504 -0.6767
  268MOL0     C36914   8.126   9.082   0.358  0.5774 -0.6542  0.6203
  268MOL0     H36915   8.607   9.237  -0.109  0.6112  1.2073  2.8969
  268MOL0     H36916   8.727   9.033  -0.198  0.1936 -0.4729 -0.0447
  268MOL0     H36917   8.507   8.643  -0.163 -1.1304 -0.0445  2.7312
  268MOL0     H36918   8.626   8.628  -0.033 -0.4637 -2.9951 -0.5380
  268MOL0     H36919   8.752   8.488  -0.154 -0.3179  0.1978 -0.3483
  268MOL0     H36920   8.619   8.470  -0.261  2.0706  0.0807 -3.9888
  268MOL0     H36921   8.871   8.632  -0.276 -2.9552  1.4426  2.5186
  268MOL0     H36922   8.801   8.507  -0.395  2.0883 -0.3667 -0.0923
  268MOL0     H36923   8.637   8.679  -0.447  0.4517 -0.7427  0.3675
  268MOL0     H36924   8.746   8.807  -0.374  2.0847  0.5490  0.5531
  268MOL0     H36925   8.760   8.791  -0.613  3.0346  2.1731  1.2854
  268MOL0     H36926   8.802   8.613  -0.611 -0.2977  0.5032 -2.7718
  268MOL0     H36927   8.979   8.834  -0.497  0.7848  0.2543 -0.8625
  268MOL0     H36928   8.993   8.662  -0.478  1.5027 -0.2952 -0.6400
  268MOL0     H36929   9.018   8.854  -0.737 -0.4955 -0.5728 -2.3038
  268MOL0     H36930   9.015   8.676  -0.745  0.8232 -0.8750  0.2422
  268MOL0     H36931   9.193   8.852  -0.583  1.5531 -1.8469  1.7898
  268MOL0     H36932   9.195   8.676  -0.580  2.4575  0.0324  0.1692
  268MOL0     H36933   9.221   8.936  -0.886  0.2161 -0.1540 -1.0899
  268MOL0     H36934   9.412   9.000  -0.998  4.0294 -0.0093  1.0121
  268MOL0     H36935   9.354   8.879  -1.122  0.5679 -1.1132 -0.5835
  268MOL0     H36936   9.638   8.887  -1.016  1.3388  4.3686 -2.3126
  268MOL0     H36937   9.576   8.785  -1.132  3.6731 -1.3027  3.7515
  268MOL0     H36938   9.697   8.947  -1.251 -0.9202 -1.2714 -1.2338
  268MOL0     H36939   9.534   9.001  -1.268  0.0832  1.0589  0.0737
  268MOL0     H36940   9.581   9.187  -1.092  1.9524  2.1551  1.5016
  268MOL0     H36941   9.714   9.094  -1.039 -3.7551 -0.6508  3.0665
  268MOL0     H36942   9.800   9.377  -1.043  2.3121  1.8033  2.2370
  268MOL0     H36943  10.101   9.555  -0.953  0.4284  3.9966 -0.6181
  268MOL0     H36944   9.946   9.525  -0.904  2.4916  0.2042  2.2417
  268MOL0     H36945   9.980   9.609  -1.061  1.5083 -0.4142 -1.0116
  268MOL0     H36946  10.291   9.658  -0.858 -0.0538 -1.8143  0.3625
  268MOL0     H36947  10.456   9.813  -0.812 -1.1612 -0.5251 -0.2369
  268MOL0     H36948  10.867   9.697  -0.863 -1.3986  0.8708 -0.1946
  268MOL0     H36949  10.902   9.810  -1.011 -0.1113  2.3031 -0.9193
  268MOL0     H36950  10.859   9.876  -0.728 -0.9038 -3.2007 -1.5042
  268MOL0     H36951  11.018   9.864  -0.788 -0.8393 -2.4875  0.9891
  268MOL0     H36952  10.955  10.094  -0.780  4.0738  0.0964 -2.8816
  268MOL0     H36953  10.796  10.075  -0.857 -1.1011 -2.2754 -0.1150
  268MOL0     H36954  10.919  10.011  -1.079  1.5260  1.4787 -2.0565
  268MOL0     H36955  11.066  10.060  -1.003  0.2776 -0.6549 -2.8975
  268MOL0     H36956  10.968  10.232  -1.150  2.2737 -2.0785  0.9883
  268MOL0     H36957  10.815  10.235  -1.057 -0.0859  1.5150 -2.2463
  268MOL0     H36958  11.083  10.311  -0.947  0.8260 -5.0022 -3.1026
  268MOL0     H36959  10.941  10.296  -0.848 -0.4200 -0.8097 -0.6847
  268MOL0     H36960  10.803  10.461  -1.006 -0.3212  0.3534 -1.3264
  268MOL0     H36961  10.955  10.489  -1.081  1.6924  1.0668  1.2883
  268MOL0     H36962  10.912  10.662  -0.938 -1.0977  2.6524  4.0421
  268MOL0     H36963  11.044  10.568  -0.860  0.1172 -0.6106 -0.3586
  268MOL0     H36964  10.747   9.609  -1.054 -0.6792 -0.3309 -0.0697
  268MOL0     H36965  10.563   9.422  -1.092  0.9891  1.4606 -4.0297
  268MOL0     H36966  10.204   9.209  -1.273  1.2676  0.1836  1.9620
  268MOL0     H36967   9.975   9.131  -1.347  0.0078  0.9374 -0.1107
  268MOL0     H36968   8.462   8.794   0.048 -1.4264 -0.2407 -0.0765
  268MOL0     H36969   8.392   8.998   0.164 -0.1013  1.9955  0.0013
  268MOL0     H36970   8.360   9.464   0.191 -0.7484  0.7410  0.7971
  268MOL0     H36971   8.280   9.599   0.391 -1.2200  0.2267  3.8447
  268MOL0     H36972   7.932   9.497   0.571 -3.4391 -2.7428  2.9952
  268MOL0     H36973   8.016   9.411   0.696  0.0745  1.6494  1.9619
  268MOL0     H36974   7.973   9.716   0.687  1.2792 -0.5285 -1.7685
  268MOL0     H36975   8.085   9.632   0.795  1.3674  0.6449  0.1053
  268MOL0     H36976   7.779   9.625   0.802 -1.6123 -1.8133  1.4570
  268MOL0     H36977   7.878   9.501   0.887  0.2981  0.1498 -0.4742
  268MOL0     H36978   7.895   9.811   0.929  1.0435 -0.0340  0.7710
  268MOL0     H36979   7.985   9.687   1.007 -0.1330 -0.7868 -1.1686
  268MOL0     H36980   7.606   9.729   1.204  1.4579  0.1879  0.3564
  268MOL0     H36981   8.087   9.268   0.557 -0.5332 -0.2164 -0.7649
  268MOL0     H36982   8.205   9.010   0.333 -0.6106 -2.0131  0.6353
  268MOL0     H36983   8.085   9.046   0.453 -2.0256  0.7020  0.1136
  268MOL0     H36984   8.046   9.064   0.285  2.8019 -1.9894 -1.6411
  269MOL0     O36985   1.465   1.916   3.655  0.3729  1.0448 -0.4178
  269MOL0     C36986   1.492   2.030   3.703 -0.2977 -0.6789 -0.6031
  269MOL0     O36987   1.613   2.073   3.747  0.2644 -0.8319  0.1191
  269MOL0     C36988   1.711   1.980   3.752 -0.2884 -0.0851 -0.4998
  269MOL0     C36989   1.830   2.022   3.708 -0.3103 -0.1632 -0.1842
  269MOL0     C36990   1.944   1.941   3.699  1.2326 -0.8497 -0.9688
  269MOL0     C36991   1.939   1.806   3.745 -0.1858  0.3612  0.1339
  269MOL0     O36992   2.048   1.722   3.745  0.6877 -0.2246  0.4964
  269MOL0     C36993   2.132   1.718   3.636  0.1696  0.3591  1.0372
  269MOL0     C36994   2.195   1.571   3.628 -0.0908 -0.5039 -0.2356
  269MOL0     C36995   2.101   1.470   3.564  0.0863  0.2032 -0.2882
  269MOL0     C36996   2.139   1.317   3.583 -0.3437  0.8297  0.5804
  269MOL0     C36997   2.024   1.224   3.526 -0.2094 -0.6063  0.0891
  269MOL0     C36998   1.926   1.164   3.637  0.3309 -0.2371  1.3410
  269MOL0     C36999   1.814   1.069   3.579  0.1192 -0.1325  0.3404
  269MOL0     C37000   1.712   1.130   3.488  1.3478  0.0017  0.5777
  269MOL0     N37001   1.616   1.234   3.545  0.3193 -1.4451 -0.5185
  269MOL0     C37002   1.603   1.364   3.499  0.4761 -0.3927 -0.5259
  269MOL0     C37003   1.514   1.418   3.586 -0.0285 -0.8336 -0.6324
  269MOL0     C37004   1.452   1.555   3.568 -0.5608  0.7412 -0.7566
  269MOL0     C37005   1.382   1.577   3.437 -0.8484 -0.6394  0.6708
  269MOL0     C37006   1.322   1.717   3.410  0.6166 -0.8546  0.1574
  269MOL0     C37007   1.244   1.732   3.275  0.0076  0.5682 -0.5935
  269MOL0     O37008   1.211   1.865   3.231  0.7252  0.2725  0.2856
  269MOL0     C37009   1.093   1.926   3.270  0.4838  0.6263  0.5987
  269MOL0     C37010   0.979   1.882   3.330  0.6870 -0.6805  0.7539
  269MOL0     C37011   0.862   1.966   3.350  0.0771 -0.4318  0.1230
  269MOL0     C37012   0.741   1.913   3.429 -0.9329  0.7653  0.5275
  269MOL0     C37013   0.874   2.103   3.306  0.0530 -0.2229  0.5128
  269MOL0     C37014   0.763   2.195   3.330 -0.2344 -0.6415  0.0092
  269MOL0     O37015   0.666   2.207   3.239  0.1317 -0.0282  0.2061
  269MOL0     C37016   0.576   2.308   3.248 -0.8870  0.2659  0.3899
  269MOL0     C37017   0.606   2.441   3.279  0.5614 -1.3302  0.2072
  269MOL0     C37018   0.498   2.522   3.297  0.1888 -0.3554  0.3372
  269MOL0     C37019   0.361   2.493   3.278 -0.7704  0.0222 -0.1552
  269MOL0     O37020   0.265   2.580   3.316 -0.3546 -0.1547  0.2686
  269MOL0     C37021   0.257   2.624   3.453  0.5391  0.4868  0.3883
  269MOL0     C37022   0.119   2.617   3.516  0.1050 -1.0563  1.0222
  269MOL0     C37023   0.062   2.481   3.512 -0.2269  0.1918  0.0815
  269MOL0     C37024  -0.082   2.480   3.548 -0.5854  0.1212 -0.2833
  269MOL0     C37025  -0.123   2.342   3.559 -1.7126  1.0083  0.5107
  269MOL0     C37026  -0.283   2.322   3.553 -0.1780  0.7448  0.9621
  269MOL0     C37027  -0.325   2.176   3.570 -0.3591 -0.2188 -0.0260
  269MOL0     C37028  -0.481   2.171   3.576 -0.3329 -0.7583 -0.1420
  269MOL0    Cl37029  -0.530   2.198   3.746  0.1163  0.4083  0.3593
  269MOL0     C37030   0.338   2.368   3.224  0.3382 -1.0229 -0.0159
  269MOL0     C37031   0.451   2.269   3.217  1.9398 -1.1030  0.2060
  269MOL0     O37032   0.773   2.258   3.435  0.1633  0.1268  0.0954
  269MOL0     C37033   0.991   2.144   3.238 -0.0504  0.6359  0.4934
  269MOL0     C37034   1.096   2.048   3.215 -0.5310 -0.2029 -0.5138
  269MOL0     N37035   1.477   1.323   3.682 -0.1189  0.3052 -0.5105
  269MOL0     N37036   1.529   1.215   3.651 -0.3261 -0.8848  1.5351
  269MOL0     C37037   1.819   1.763   3.802  1.1916  0.5390 -1.0336
  269MOL0     C37038   1.705   1.842   3.802  0.4958  0.2923 -0.2398
  269MOL0     C37039   1.364   2.102   3.737 -0.9095 -0.1136 -0.9719
  269MOL0     C37040   1.344   2.157   3.865  0.4373 -0.1677  0.2732
  269MOL0     C37041   1.222   2.225   3.886 -0.2736 -0.4191  0.5981
  269MOL0     C37042   1.119   2.241   3.797  0.5835 -0.1641  0.7636
  269MOL0     O37043   1.018   2.336   3.824  0.6273  0.4407 -0.4052
  269MOL0     C37044   0.906   2.379   3.748  0.5861  0.6281  0.7215
  269MOL0     C37045   0.815   2.448   3.850 -0.6827 -0.9855 -0.0155
  269MOL0     C37046   0.730   2.567   3.789  0.2715  0.2822  0.4059
  269MOL0     C37047   0.639   2.533   3.668 -0.2821 -0.8181  0.2961
  269MOL0     C37048   0.567   2.652   3.610  0.0475  0.4659 -0.6604
  269MOL0     C37049   0.523   2.759   3.579 -0.0365 -0.5976 -0.8506
  269MOL0     C37050   1.149   2.188   3.674  0.7915  0.4785 -0.1134
  269MOL0     C37051   1.267   2.129   3.639 -0.1905 -0.0583 -0.3692
  269MOL0     C37052   1.285   2.115   3.487  0.0346  0.0112  0.9117
  269MOL0     H37053   1.831   2.117   3.655 -1.9377 -1.3715 -2.5282
  269MOL0     H37054   2.037   1.987   3.668  3.3374 -2.9705  1.6974
  269MOL0     H37055   2.226   1.773   3.649  0.2583 -0.0503  2.1390
  269MOL0     H37056   2.078   1.723   3.541  1.3124 -3.3326  0.0123
  269MOL0     H37057   2.280   1.581   3.560  1.9723  2.8043  2.4475
  269MOL0     H37058   2.221   1.533   3.727 -4.3016  1.9870  2.1288
  269MOL0     H37059   2.005   1.479   3.616 -0.0290  0.9518 -0.6245
  269MOL0     H37060   2.092   1.491   3.457  2.1870  1.3205 -0.3040
  269MOL0     H37061   2.236   1.304   3.533 -1.8002  1.4309 -2.6137
  269MOL0     H37062   2.168   1.292   3.686  2.8994  0.4319 -0.3042
  269MOL0     H37063   2.079   1.135   3.493  1.8722  0.2099  1.1460
  269MOL0     H37064   1.967   1.268   3.444  0.7945 -1.9122 -1.3691
  269MOL0     H37065   1.996   1.107   3.699  2.4906  0.3152 -0.4773
  269MOL0     H37066   1.875   1.243   3.693 -0.1817  0.7427 -0.4457
  269MOL0     H37067   1.767   1.021   3.665 -1.4218  0.9784  0.1630
  269MOL0     H37068   1.869   0.989   3.529  2.5299  1.1082  0.8359
  269MOL0     H37069   1.752   1.173   3.396  0.6864 -1.1352 -0.2640
  269MOL0     H37070   1.647   1.047   3.460 -1.0385  1.8449  0.4144
  269MOL0     H37071   1.654   1.412   3.416  3.7114 -0.9382  1.0077
  269MOL0     H37072   1.526   1.634   3.581 -0.3390  0.1700  1.9431
  269MOL0     H37073   1.386   1.584   3.651 -1.2086 -0.7339 -0.7167
  269MOL0     H37074   1.466   1.562   3.368  0.1107 -1.2580  1.9322
  269MOL0     H37075   1.308   1.502   3.408 -3.2397  1.9828 -0.3906
  269MOL0     H37076   1.249   1.729   3.491 -1.9688 -0.5485 -2.0987
  269MOL0     H37077   1.398   1.795   3.417  0.1097 -0.4762  1.9016
  269MOL0     H37078   1.307   1.681   3.201 -2.0755 -0.7334 -1.5698
  269MOL0     H37079   1.158   1.668   3.299  1.4358 -0.8152  1.2011
  269MOL0     H37080   0.978   1.780   3.367  2.1723 -1.8955 -2.1758
  269MOL0     H37081   0.781   1.836   3.496 -0.9459 -2.6003 -2.9624
  269MOL0     H37082   0.672   1.868   3.356 -1.5748  0.9967  0.9819
  269MOL0     H37083   0.694   1.993   3.487  0.5637  1.5036  0.7664
  269MOL0     H37084   0.707   2.470   3.306 -1.0055  2.0876  3.2207
  269MOL0     H37085   0.508   2.627   3.324 -0.2805 -0.5974  1.5284
  269MOL0     H37086   0.316   2.562   3.521 -0.9705 -0.8203  0.5600
  269MOL0     H37087   0.289   2.728   3.448 -1.8546  1.2120 -1.4128
  269MOL0     H37088   0.141   2.634   3.622  7.5979 -4.1783  0.6175
  269MOL0     H37089   0.053   2.690   3.469  1.0600 -1.1590 -0.5480
  269MOL0     H37090   0.117   2.417   3.583 -2.0269  0.2299  1.6006
  269MOL0     H37091   0.087   2.438   3.415 -1.2568 -0.1285 -0.0460
  269MOL0     H37092  -0.150   2.530   3.477 -1.9020 -0.0854  0.7802
  269MOL0     H37093  -0.082   2.536   3.643  1.0826  2.2577 -1.4488
  269MOL0     H37094  -0.076   2.288   3.476  2.3734  2.0767  1.9032
  269MOL0     H37095  -0.073   2.294   3.643 -3.6290 -0.3295  0.9514
  269MOL0     H37096  -0.317   2.355   3.454 -1.8809  1.2383  1.6825
  269MOL0     H37097  -0.325   2.393   3.625  1.0074  1.9679  0.4975
  269MOL0     H37098  -0.278   2.147   3.664  0.5625  2.5291  0.4592
  269MOL0     H37099  -0.278   2.114   3.493  3.6044  0.4492  1.6247
  269MOL0     H37100  -0.517   2.069   3.557 -3.2374 -0.3455  2.3561
  269MOL0     H37101  -0.530   2.229   3.498  1.1522  2.5064  1.1493
  269MOL0     H37102   0.235   2.343   3.200 -0.3972  1.5038  0.2502
  269MOL0     H37103   0.424   2.168   3.189  0.8981 -0.9896  0.7339
  269MOL0     H37104   1.013   2.243   3.199 -0.3198  0.6629  0.4131
  269MOL0     H37105   1.185   2.079   3.161  0.4715 -1.8550  0.0968
  269MOL0     H37106   1.797   1.662   3.833 -0.0995  0.5670 -1.8216
  269MOL0     H37107   1.607   1.808   3.834 -0.2621  2.3581 -0.2393
  269MOL0     H37108   1.407   2.138   3.951  0.3835  1.5456  0.7252
  269MOL0     H37109   1.187   2.265   3.981 -5.4194 -2.2032 -0.2410
  269MOL0     H37110   0.937   2.445   3.667  2.6355  3.3581  3.5252
  269MOL0     H37111   0.851   2.295   3.705 -2.1145  3.0496 -0.9330
  269MOL0     H37112   0.878   2.488   3.930 -1.0200 -1.9767  0.7746
  269MOL0     H37113   0.746   2.373   3.892 -2.9447  0.0552 -1.6499
  269MOL0     H37114   0.663   2.606   3.865 -2.5479  0.6207 -2.0398
  269MOL0     H37115   0.795   2.654   3.774  2.1362 -1.3236 -1.6657
  269MOL0     H37116   0.564   2.456   3.685 -0.5085 -1.7342 -3.9133
  269MOL0     H37117   0.710   2.504   3.590 -0.7447  4.2346 -2.3917
  269MOL0     H37118   0.489   2.859   3.557  1.4857  0.7164  2.1956
  269MOL0     H37119   1.070   2.205   3.601 -0.7649  1.0558  1.6065
  269MOL0     H37120   1.374   2.057   3.459 -2.6314 -3.5141 -1.2342
  269MOL0     H37121   1.200   2.060   3.444  0.3169 -0.0472  0.4106
  269MOL0     H37122   1.278   2.212   3.436  2.7358 -1.2429 -2.2973
  270MOL0     O37123   3.550   8.492   4.006 -0.1544 -0.7958  0.4540
  270MOL0     C37124   3.540   8.534   3.893 -0.9525 -0.2514  0.9426
  270MOL0     O37125   3.587   8.474   3.778 -0.0932 -0.0368 -0.5564
  270MOL0     C37126   3.679   8.373   3.795 -0.0951  0.3906  0.7834
  270MOL0     C37127   3.658   8.242   3.804  1.2682  1.1398 -0.0009
  270MOL0     C37128   3.768   8.150   3.827  1.2458  0.5380  1.1204
  270MOL0     C37129   3.896   8.209   3.837 -0.1873  0.4899 -0.4512
  270MOL0     O37130   4.012   8.141   3.857  0.5541  0.6310  0.3068
  270MOL0     C37131   4.031   8.012   3.787  0.2009  0.3755  0.7083
  270MOL0     C37132   4.176   7.966   3.800  0.4757 -0.2171 -0.2834
  270MOL0     C37133   4.249   8.044   3.698  0.0428  0.1729 -0.4591
  270MOL0     C37134   4.398   8.000   3.710  0.0795 -0.1983 -0.3379
  270MOL0     C37135   4.505   8.087   3.635 -0.3083  0.1171  0.0326
  270MOL0     C37136   4.538   8.231   3.697  0.2219  0.1043  0.3519
  270MOL0     C37137   4.632   8.328   3.626  0.6710 -0.7324 -0.3750
  270MOL0     C37138   4.787   8.309   3.681 -0.3547  0.8393 -0.0239
  270MOL0     N37139   4.839   8.180   3.652 -0.6930 -0.5041 -0.8164
  270MOL0     C37140   4.881   8.137   3.526 -0.1571 -0.5476 -0.0247
  270MOL0     C37141   4.947   8.024   3.551  0.1744 -0.4109 -0.1104
  270MOL0     C37142   5.020   7.938   3.452  1.7485 -0.5135 -0.0270
  270MOL0     C37143   5.165   7.906   3.484 -0.0927 -0.6569 -0.3089
  270MOL0     C37144   5.247   8.033   3.519 -0.4528  1.1554 -0.1795
  270MOL0     C37145   5.239   8.133   3.405 -0.0131  0.0858 -0.1607
  270MOL0     O37146   5.142   8.238   3.431 -0.0157 -0.2358  0.6365
  270MOL0     C37147   5.126   8.333   3.328 -0.6613  0.6874 -0.8023
  270MOL0     C37148   5.024   8.422   3.337  0.0106 -0.5883 -0.6502
  270MOL0     C37149   5.003   8.530   3.240  0.3493  0.6611  0.3029
  270MOL0     C37150   4.887   8.626   3.273  0.7521 -0.1628 -0.0999
  270MOL0     C37151   5.103   8.539   3.136  0.3089 -0.2634 -0.0392
  270MOL0     C37152   5.105   8.644   3.032 -0.0055  0.7076  0.0152
  270MOL0     O37153   5.225   8.653   2.958 -0.3272 -0.5176  0.7250
  270MOL0     C37154   5.248   8.769   2.882  0.4966  0.0913  0.4117
  270MOL0     C37155   5.185   8.792   2.754 -0.8507  0.0396 -0.1776
  270MOL0     C37156   5.240   8.884   2.670 -0.5947 -0.3264 -0.4661
  270MOL0     C37157   5.345   8.963   2.708 -0.7465  0.6158  0.8150
  270MOL0     O37158   5.400   9.050   2.620 -0.5973 -0.0691 -1.1214
  270MOL0     C37159   5.386   9.040   2.479  0.6364  0.7391 -0.2123
  270MOL0     C37160   5.439   9.164   2.427  0.4192 -0.2125  0.6010
  270MOL0     C37161   5.440   9.149   2.272 -0.2213 -0.2176  0.0871
  270MOL0     C37162   5.510   9.272   2.208  0.1882  0.1178  0.2307
  270MOL0     C37163   5.569   9.237   2.066 -0.2514  0.0623  0.1262
  270MOL0     C37164   5.475   9.216   1.953  0.3166  0.2117  0.9802
  270MOL0     C37165   5.565   9.208   1.823 -0.9418  0.0501 -0.2453
  270MOL0     C37166   5.533   9.336   1.741 -0.3530 -0.3015  0.3876
  270MOL0    Cl37167   5.388   9.316   1.625  0.1376  0.1693 -0.5108
  270MOL0     C37168   5.392   8.956   2.835 -0.4283  0.4093  0.5314
  270MOL0     C37169   5.344   8.863   2.921 -0.2576 -0.3167 -0.7793
  270MOL0     O37170   5.008   8.723   3.015 -0.0833  0.3955  0.0861
  270MOL0     C37171   5.204   8.442   3.125 -0.1302  1.0604  0.7044
  270MOL0     C37172   5.211   8.341   3.215 -0.3078  0.7941  0.5887
  270MOL0     N37173   4.957   8.013   3.691 -0.6290  1.2960 -0.8936
  270MOL0     N37174   4.891   8.098   3.745  0.7934  1.3871  0.3098
  270MOL0     C37175   3.925   8.348   3.836  0.3561  0.2574  0.9883
  270MOL0     C37176   3.814   8.426   3.803 -0.0030 -0.2174  0.0929
  270MOL0     C37177   3.457   8.647   3.864 -0.6565  0.5574 -0.6047
  270MOL0     C37178   3.381   8.635   3.739 -0.0249 -0.0803  0.3724
  270MOL0     C37179   3.315   8.753   3.695  0.6044  0.0728 -0.1989
  270MOL0     C37180   3.318   8.875   3.766  0.3076  0.2117 -1.1685
  270MOL0     O37181   3.259   8.980   3.695  0.1139  0.2540 -0.2484
  270MOL0     C37182   3.293   9.112   3.732 -0.1855  0.2053 -0.2254
  270MOL0     C37183   3.393   9.162   3.633  0.2448 -0.5257  0.3014
  270MOL0     C37184   3.510   9.075   3.608  0.9495 -0.5491 -0.8155
  270MOL0     C37185   3.607   9.145   3.522  0.3955 -0.8327  1.2043
  270MOL0     C37186   3.552   9.219   3.403  0.7253 -0.3454  0.2047
  270MOL0     C37187   3.528   9.271   3.294  1.0143 -0.7627 -0.9932
  270MOL0     C37188   3.401   8.880   3.880 -0.4885  0.4578  0.2424
  270MOL0     C37189   3.456   8.770   3.941  0.2399  0.7707  0.1381
  270MOL0     C37190   3.513   8.784   4.075  0.6431  0.0443 -1.0343
  270MOL0     H37191   3.562   8.191   3.806  1.4828  0.7383  1.6071
  270MOL0     H37192   3.754   8.042   3.830 -1.5402  0.7680 -0.0097
  270MOL0     H37193   4.007   8.020   3.681  2.3196  4.0134  0.3193
  270MOL0     H37194   3.965   7.940   3.836  2.2776 -1.6361  0.7060
  270MOL0     H37195   4.204   7.986   3.904 -1.9697  0.6836  0.2640
  270MOL0     H37196   4.193   7.860   3.780 -2.1222 -0.7871  0.2316
  270MOL0     H37197   4.223   8.020   3.594 -1.2131 -1.0281  0.1067
  270MOL0     H37198   4.249   8.152   3.713  3.9766  0.0781  1.8606
  270MOL0     H37199   4.419   7.987   3.817 -1.0065 -2.9083 -0.3992
  270MOL0     H37200   4.406   7.899   3.671  3.2615 -0.1190 -0.1070
  270MOL0     H37201   4.483   8.102   3.529 -1.4294  0.5583  0.3101
  270MOL0     H37202   4.601   8.034   3.638 -1.1461 -1.6784 -2.0692
  270MOL0     H37203   4.443   8.282   3.716  1.6599  3.7811 -1.5763
  270MOL0     H37204   4.574   8.224   3.800  1.2886  0.4775  0.0139
  270MOL0     H37205   4.613   8.435   3.644 -2.2836 -1.2431 -0.0074
  270MOL0     H37206   4.644   8.312   3.518  0.4800  0.0883 -0.5310
  270MOL0     H37207   4.858   8.381   3.639  1.2646  0.3057  1.6543
  270MOL0     H37208   4.792   8.333   3.787 -0.7251  0.5325  0.0661
  270MOL0     H37209   4.880   8.179   3.426 -1.3098  2.8292  1.2355
  270MOL0     H37210   5.019   7.973   3.349  3.3229 -3.7367 -1.2954
  270MOL0     H37211   4.966   7.844   3.469  1.1600  0.0681  1.5500
  270MOL0     H37212   5.177   7.832   3.563  1.0084  0.3564  0.5091
  270MOL0     H37213   5.201   7.860   3.392 -2.5024 -2.2178 -0.5698
  270MOL0     H37214   5.211   8.074   3.614  1.7439 -1.8310  2.1550
  270MOL0     H37215   5.349   7.996   3.533 -0.1358  0.9872 -2.5456
  270MOL0     H37216   5.335   8.182   3.387 -0.2422  0.0621 -1.5546
  270MOL0     H37217   5.207   8.099   3.306 -0.6539  1.0741 -0.3132
  270MOL0     H37218   4.946   8.410   3.412 -1.1491  4.0945 -0.7869
  270MOL0     H37219   4.795   8.614   3.214  0.0137  2.0508  0.5240
  270MOL0     H37220   4.909   8.731   3.258 -1.1667  0.3669  0.4592
  270MOL0     H37221   4.862   8.635   3.379 -1.9080  2.7400 -0.8453
  270MOL0     H37222   5.122   8.717   2.706  2.6845 -1.7493 -2.3944
  270MOL0     H37223   5.207   8.880   2.567  4.7765 -0.7170 -2.5313
  270MOL0     H37224   5.438   8.962   2.422  0.2385  3.0443 -4.0932
  270MOL0     H37225   5.280   9.030   2.457  0.9418 -1.0580 -1.0990
  270MOL0     H37226   5.373   9.244   2.465  1.0134  0.4222  0.3166
  270MOL0     H37227   5.543   9.188   2.451  0.9200 -1.7911  0.1325
  270MOL0     H37228   5.341   9.128   2.230 -0.4538  0.8868  0.0536
  270MOL0     H37229   5.495   9.060   2.240  2.7724  1.9798 -1.3573
  270MOL0     H37230   5.591   9.312   2.269  0.6100  0.5439 -0.6057
  270MOL0     H37231   5.434   9.349   2.189  2.4786  2.6649  0.8091
  270MOL0     H37232   5.622   9.327   2.034 -0.6517 -1.1668 -4.8454
  270MOL0     H37233   5.639   9.153   2.070 -0.8807 -0.6840 -2.7030
  270MOL0     H37234   5.402   9.298   1.943 -0.2184 -0.1180  1.9607
  270MOL0     H37235   5.422   9.123   1.978  3.0524 -1.9199 -0.6364
  270MOL0     H37236   5.553   9.108   1.782 -0.4383 -0.3365  0.5293
  270MOL0     H37237   5.667   9.212   1.861 -1.0732 -2.0483  0.4498
  270MOL0     H37238   5.616   9.353   1.670 -0.4979 -1.2344 -0.0248
  270MOL0     H37239   5.514   9.424   1.803  1.8195  0.7387 -0.2989
  270MOL0     H37240   5.478   9.018   2.858  0.7054  0.3172 -2.9532
  270MOL0     H37241   5.379   8.860   3.023 -0.7636  7.0137  0.1319
  270MOL0     H37242   5.273   8.431   3.041 -0.4724  0.6765  0.4667
  270MOL0     H37243   5.288   8.266   3.195  0.8630  2.4781 -1.6453
  270MOL0     H37244   4.024   8.393   3.841  1.2024 -1.2289 -1.1032
  270MOL0     H37245   3.832   8.531   3.785 -0.1904 -0.0143  1.0440
  270MOL0     H37246   3.380   8.549   3.674 -1.8828 -1.7602  2.4429
  270MOL0     H37247   3.276   8.759   3.594  2.9838  0.9143 -1.1324
  270MOL0     H37248   3.210   9.177   3.702  0.2322  0.7179 -0.2869
  270MOL0     H37249   3.314   9.129   3.838  1.9506  0.1106 -0.5967
  270MOL0     H37250   3.427   9.259   3.671  1.3849 -0.5134 -0.6748
  270MOL0     H37251   3.344   9.170   3.535 -1.1587 -0.8805  0.9505
  270MOL0     H37252   3.560   9.034   3.697  1.8247  0.1476 -0.9655
  270MOL0     H37253   3.476   8.986   3.554 -6.4857  0.5416  1.0180
  270MOL0     H37254   3.682   9.076   3.481  1.6926 -0.2086  2.4420
  270MOL0     H37255   3.653   9.221   3.585 -0.1766  0.4041  0.1720
  270MOL0     H37256   3.512   9.323   3.202 -5.3254  4.5275  2.2321
  270MOL0     H37257   3.393   8.974   3.934 -0.1086  1.4719 -1.4121
  270MOL0     H37258   3.465   8.870   4.121  0.2278 -0.8559  0.2693
  270MOL0     H37259   3.480   8.703   4.141  3.2892 -0.7557 -0.5505
  270MOL0     H37260   3.622   8.776   4.068  0.9819  2.5047  0.4682
  271MOL0     O37261   5.470  10.927  11.049  0.1846 -0.4947  0.1537
  271MOL0     C37262   5.510  10.810  11.047 -1.2517 -0.5843  0.0912
  271MOL0     O37263   5.606  10.768  10.955 -0.0155 -1.0273 -0.5683
  271MOL0     C37264   5.691  10.861  10.885  0.3532 -0.1492 -0.8617
  271MOL0     C37265   5.720  10.997  10.922 -0.5850  0.1034  0.2739
  271MOL0     C37266   5.836  11.060  10.881 -0.5205 -0.2368  0.3827
  271MOL0     C37267   5.915  10.995  10.793 -0.0449  0.1094 -0.0634
  271MOL0     O37268   6.031  11.057  10.766  0.2380  0.5306 -0.0063
  271MOL0     C37269   6.039  11.086  10.628 -0.7234  0.4897  0.0434
  271MOL0     C37270   6.191  11.129  10.595 -0.6776 -0.0014 -1.2550
  271MOL0     C37271   6.261  11.229  10.685  0.7773  0.4089 -0.1533
  271MOL0     C37272   6.190  11.364  10.706 -0.2733  0.5579  0.5007
  271MOL0     C37273   6.274  11.488  10.760 -0.0456  0.4567 -0.3085
  271MOL0     C37274   6.324  11.443  10.902 -0.1506 -0.2250 -0.5565
  271MOL0     C37275   6.444  11.527  10.952  1.1618 -0.4395 -0.6199
  271MOL0     C37276   6.414  11.681  10.942 -0.4547 -0.4490 -0.1053
  271MOL0     N37277   6.527  11.767  10.947 -0.3287  0.3262  0.2459
  271MOL0     C37278   6.632  11.791  10.852 -0.3472  0.6138 -1.1569
  271MOL0     C37279   6.703  11.895  10.903 -1.2502 -0.4503  0.1861
  271MOL0     C37280   6.827  11.947  10.833 -0.2520  0.5445 -0.3137
  271MOL0     C37281   6.827  12.099  10.825 -0.5186  0.1542 -0.5172
  271MOL0     C37282   6.784  12.162  10.702 -0.4550  0.2250  1.0546
  271MOL0     C37283   6.840  12.309  10.697  0.1339  1.1024  0.3874
  271MOL0     O37284   6.991  12.325  10.698 -0.5384  0.0302 -1.1306
  271MOL0     C37285   7.040  12.455  10.717  0.1273 -0.1672  0.3206
  271MOL0     C37286   7.164  12.469  10.766  0.0717  0.5306 -1.2350
  271MOL0     C37287   7.222  12.587  10.801 -0.4303 -0.2685 -1.0355
  271MOL0     C37288   7.359  12.586  10.866  0.5787 -0.0716  0.6943
  271MOL0     C37289   7.160  12.715  10.776 -0.3578  0.1659  0.2851
  271MOL0     C37290   7.213  12.845  10.796 -0.8118 -0.6157 -0.1147
  271MOL0     O37291   7.125  12.938  10.769  0.2525  0.1475  0.2207
  271MOL0     C37292   7.144  13.073  10.773  0.0002  0.3144 -0.5358
  271MOL0     C37293   7.252  13.157  10.808 -0.0137  0.8213 -0.1488
  271MOL0     C37294   7.237  13.295  10.822  0.2138  0.3362  0.7089
  271MOL0     C37295   7.110  13.349  10.803  0.5001 -0.0442 -0.5879
  271MOL0     O37296   7.098  13.481  10.830  0.3087  0.4518 -0.0253
  271MOL0     C37297   6.995  13.566  10.763  0.0366 -0.3699 -0.0966
  271MOL0     C37298   7.018  13.564  10.611 -0.2482 -0.3116 -0.4161
  271MOL0     C37299   7.125  13.654  10.554 -0.4638  0.4366 -0.0261
  271MOL0     C37300   7.085  13.798  10.526  0.2787 -0.1715  1.1473
  271MOL0     C37301   7.202  13.890  10.476 -0.0763 -0.5289 -0.1377
  271MOL0     C37302   7.161  14.034  10.437  0.0661  0.4296  0.1958
  271MOL0     C37303   7.233  14.096  10.319 -0.1601 -0.6852  0.5702
  271MOL0     C37304   7.376  14.144  10.358  1.4117 -0.9885 -0.4194
  271MOL0    Cl37305   7.476  13.997  10.348 -0.5157  0.0318 -0.2973
  271MOL0     C37306   7.007  13.266  10.761 -0.2583 -0.1044 -0.1009
  271MOL0     C37307   7.023  13.131  10.745 -0.1803  0.4773  0.9078
  271MOL0     O37308   7.317  12.869  10.860  0.7089  0.4523 -0.3272
  271MOL0     C37309   7.040  12.693  10.705  0.0802 -0.7732  0.7116
  271MOL0     C37310   6.974  12.572  10.683 -0.7539 -0.7748  0.6210
  271MOL0     N37311   6.650  11.935  11.017 -0.2018  0.6646 -0.4718
  271MOL0     N37312   6.543  11.858  11.047 -0.3519 -0.3552 -0.1637
  271MOL0     C37313   5.882  10.866  10.743  0.3594  0.5490 -1.5775
  271MOL0     C37314   5.774  10.793  10.800 -0.2174  0.5647 -0.4921
  271MOL0     C37315   5.447  10.702  11.122 -0.0060  0.5962  0.6508
  271MOL0     C37316   5.516  10.578  11.140 -0.5965 -0.3849  0.5512
  271MOL0     C37317   5.472  10.468  11.202 -0.1252 -0.4101  0.3523
  271MOL0     C37318   5.355  10.470  11.274  0.0127 -0.7734 -0.1668
  271MOL0     O37319   5.308  10.361  11.339  0.5475 -0.0149 -0.2008
  271MOL0     C37320   5.374  10.232  11.338 -1.0529 -0.6707  0.2777
  271MOL0     C37321   5.296  10.123  11.416  0.9906  0.5135  0.1424
  271MOL0     C37322   5.346   9.983  11.395 -0.0590  0.5101  0.1795
  271MOL0     C37323   5.483   9.952  11.460  0.3775 -1.5424 -0.4771
  271MOL0     C37324   5.535   9.826  11.410  0.6099  0.4575 -0.3477
  271MOL0     C37325   5.576   9.718  11.372 -0.3090 -0.2042 -0.0714
  271MOL0     C37326   5.282  10.592  11.275 -0.3568 -0.5582  0.2252
  271MOL0     C37327   5.331  10.705  11.198 -0.6165  0.1913 -0.6353
  271MOL0     C37328   5.247  10.822  11.205  0.0993 -0.3975  0.5681
  271MOL0     H37329   5.656  11.042  10.997 -1.8560  0.2816 -0.8804
  271MOL0     H37330   5.886  11.150  10.915 -1.1195  1.1558 -2.1440
  271MOL0     H37331   5.964  11.161  10.603 -0.8934  1.5529  3.3258
  271MOL0     H37332   6.026  10.996  10.567 -0.3749 -0.0230  0.7062
  271MOL0     H37333   6.253  11.040  10.584  0.8270  0.7900  0.3843
  271MOL0     H37334   6.180  11.167  10.493 -1.5926  1.9130 -0.4982
  271MOL0     H37335   6.267  11.186  10.786 -0.6329 -0.7244 -0.5205
  271MOL0     H37336   6.362  11.235  10.642  0.8035 -2.0377 -0.5703
  271MOL0     H37337   6.148  11.394  10.610 -1.2484  0.1589  0.7878
  271MOL0     H37338   6.103  11.351  10.771 -0.0138  1.9353  1.1670
  271MOL0     H37339   6.208  11.574  10.769 -1.8882 -1.0192  1.1926
  271MOL0     H37340   6.371  11.505  10.712  0.0981  1.9371  0.4490
  271MOL0     H37341   6.235  11.445  10.965 -1.5567 -5.7503 -1.8276
  271MOL0     H37342   6.358  11.340  10.889 -3.1958 -0.9797 -5.0239
  271MOL0     H37343   6.536  11.498  10.900  0.8458 -3.2079  0.1736
  271MOL0     H37344   6.455  11.514  11.061  0.0148  1.3187 -0.2589
  271MOL0     H37345   6.371  11.699  10.843 -0.8916 -0.7287  0.0267
  271MOL0     H37346   6.344  11.703  11.023 -1.8421 -2.3502 -0.7172
  271MOL0     H37347   6.650  11.753  10.751 -1.2746 -1.5781 -0.5631
  271MOL0     H37348   6.831  11.889  10.740 -1.1277 -2.0478  1.1465
  271MOL0     H37349   6.904  11.898  10.894  0.5737  1.9106 -0.2217
  271MOL0     H37350   6.767  12.139  10.907 -1.3012 -0.4362 -0.7864
  271MOL0     H37351   6.930  12.128  10.845 -1.2331  2.4434  0.1350
  271MOL0     H37352   6.825  12.106  10.618 -0.3391 -0.7579  1.7471
  271MOL0     H37353   6.675  12.156  10.690 -0.6851  0.3914  2.7267
  271MOL0     H37354   6.802  12.342  10.600 -1.1968 -0.5108  0.3063
  271MOL0     H37355   6.789  12.373  10.769 -2.6076  0.1538 -0.5811
  271MOL0     H37356   7.214  12.380  10.804 -0.1506  0.2910 -1.4918
  271MOL0     H37357   7.350  12.489  10.917 -3.5052 -0.7413 -0.9208
  271MOL0     H37358   7.397  12.670  10.925  3.7276 -1.4791  0.9245
  271MOL0     H37359   7.436  12.580  10.788 -1.6349 -3.2586 -1.5147
  271MOL0     H37360   7.348  13.109  10.824  0.0826  0.2750 -2.1040
  271MOL0     H37361   7.323  13.361  10.818 -0.7463  1.6358 -3.6231
  271MOL0     H37362   6.893  13.538  10.790 -0.6942  1.9493 -0.3181
  271MOL0     H37363   7.010  13.667  10.801 -0.1815 -0.3298 -0.1179
  271MOL0     H37364   7.035  13.463  10.571 -1.8253 -0.3739 -0.9997
  271MOL0     H37365   6.926  13.603  10.567  0.0430  1.7075  0.6630
  271MOL0     H37366   7.155  13.612  10.457  2.8730  5.0933 -1.3875
  271MOL0     H37367   7.209  13.649  10.624 -1.1142 -0.2940  0.7208
  271MOL0     H37368   7.041  13.844  10.615 -2.5434 -2.9038  1.3676
  271MOL0     H37369   7.003  13.800  10.454  0.5432 -0.7625  0.8268
  271MOL0     H37370   7.290  13.890  10.542  0.4338  1.0521 -0.7776
  271MOL0     H37371   7.230  13.841  10.382 -0.7045  3.0062 -2.3371
  271MOL0     H37372   7.171  14.085  10.533 -2.4057  0.5762  0.4560
  271MOL0     H37373   7.054  14.032  10.414 -0.0778 -2.7847  0.6640
  271MOL0     H37374   7.179  14.180  10.275 -0.7318 -0.8725  0.9046
  271MOL0     H37375   7.231  14.015  10.245 -0.5599 -3.4251  3.3268
  271MOL0     H37376   7.371  14.178  10.462 -0.8551 -0.5005 -0.6334
  271MOL0     H37377   7.414  14.212  10.280  3.7613  1.0957  2.3392
  271MOL0     H37378   6.911  13.311  10.734 -0.6637 -1.0552 -0.2801
  271MOL0     H37379   6.932  13.074  10.728  0.3894 -0.1938  0.0722
  271MOL0     H37380   6.978  12.778  10.681  2.5921  0.8751 -0.3871
  271MOL0     H37381   6.877  12.573  10.634  0.8815  0.2061 -2.8609
  271MOL0     H37382   5.942  10.802  10.679  0.4730 -2.2524  1.0590
  271MOL0     H37383   5.768  10.685  10.796  4.8896 -0.0880  1.5262
  271MOL0     H37384   5.613  10.558  11.097 -0.8670 -0.8505  0.1424
  271MOL0     H37385   5.531  10.377  11.198  0.2158 -0.1750 -0.0016
  271MOL0     H37386   5.393  10.211  11.233  0.8565 -0.2956  0.5161
  271MOL0     H37387   5.472  10.244  11.385 -0.5476  0.2892 -0.9701
  271MOL0     H37388   5.193  10.114  11.380  0.8509  1.5883  0.2485
  271MOL0     H37389   5.297  10.139  11.524 -2.6396 -1.1041  0.5667
  271MOL0     H37390   5.283   9.911  11.448  1.7483  0.6113  2.6558
  271MOL0     H37391   5.350   9.960  11.288  3.2412  2.4001 -0.2473
  271MOL0     H37392   5.469   9.949  11.569 -0.6673  3.0840 -0.2738
  271MOL0     H37393   5.557  10.027  11.428 -0.7114 -1.7322 -3.8412
  271MOL0     H37394   5.617   9.624  11.341  0.4321  0.1054 -0.0383
  271MOL0     H37395   5.191  10.593  11.335 -1.0172  0.7452 -0.7610
  271MOL0     H37396   5.292  10.904  11.263 -2.3839  1.4043  0.0938
  271MOL0     H37397   5.240  10.856  11.101 -1.7398 -3.0262 -0.2720
  271MOL0     H37398   5.154  10.802  11.259 -0.1662  0.1618  0.3250
  272MOL0     O37399   5.679   0.712   9.234 -0.5155 -0.0140  0.4127
  272MOL0     C37400   5.808   0.724   9.249 -1.2400 -0.1566  0.9737
  272MOL0     O37401   5.876   0.687   9.366  0.4559  0.3529 -0.4107
  272MOL0     C37402   5.800   0.648   9.473 -0.0118  0.5950  0.5729
  272MOL0     C37403   5.812   0.518   9.530  0.8225 -0.1310  0.7780
  272MOL0     C37404   5.728   0.471   9.628 -0.2089  0.2634  0.1323
  272MOL0     C37405   5.615   0.555   9.670 -0.5458  0.7912 -0.7260
  272MOL0     O37406   5.525   0.502   9.759 -0.1310 -0.4542  0.6162
  272MOL0     C37407   5.477   0.378   9.722  0.1412 -1.2070 -0.9999
  272MOL0     C37408   5.330   0.381   9.759  0.0556  0.8668 -1.1486
  272MOL0     C37409   5.241   0.501   9.705  0.0507  0.7520 -0.0416
  272MOL0     C37410   5.186   0.503   9.563 -0.5230  0.2401  0.5629
  272MOL0     C37411   5.079   0.599   9.539 -0.0809 -0.1620 -0.9048
  272MOL0     C37412   5.118   0.748   9.552  0.0448 -0.2128 -0.0310
  272MOL0     C37413   5.250   0.790   9.483  0.5288  0.2268 -0.1252
  272MOL0     C37414   5.247   0.947   9.506 -1.2718 -0.2613  0.3268
  272MOL0     N37415   5.372   1.008   9.471 -0.1147  0.1311  0.1714
  272MOL0     C37416   5.396   1.054   9.340  0.2471 -0.7671 -0.7705
  272MOL0     C37417   5.528   1.089   9.343  0.1393  0.2155 -0.7269
  272MOL0     C37418   5.612   1.137   9.233  0.4182  0.2568  0.2761
  272MOL0     C37419   5.593   1.295   9.207 -0.1349 -0.0268  0.0105
  272MOL0     C37420   5.663   1.331   9.078  0.5620 -0.8612  0.3161
  272MOL0     C37421   5.657   1.479   9.053 -0.2014 -0.2900  0.6288
  272MOL0     O37422   5.529   1.504   9.008  0.8924 -0.0542  0.1039
  272MOL0     C37423   5.517   1.536   8.873  0.2284  1.8169  0.8866
  272MOL0     C37424   5.431   1.460   8.791 -0.2445 -0.1722  0.0467
  272MOL0     C37425   5.402   1.499   8.651 -0.0407 -0.4522 -0.5214
  272MOL0     C37426   5.286   1.430   8.583  1.0677  0.0357  0.0559
  272MOL0     C37427   5.480   1.608   8.604  0.7482  0.1210  0.4199
  272MOL0     C37428   5.470   1.646   8.458  0.3949 -0.1396 -0.1148
  272MOL0     O37429   5.451   1.779   8.450  0.3976 -0.7476  0.1623
  272MOL0     C37430   5.485   1.852   8.344  0.2800  0.1101  0.6376
  272MOL0     C37431   5.592   1.814   8.257  0.6832  0.2788  0.3145
  272MOL0     C37432   5.631   1.902   8.157  0.6047  0.5507  0.2577
  272MOL0     C37433   5.577   2.031   8.149 -0.5136 -0.3277 -0.5287
  272MOL0     O37434   5.626   2.139   8.084 -0.2950 -0.5163 -0.1479
  272MOL0     C37435   5.727   2.137   7.990 -0.0382  0.0806  0.6968
  272MOL0     C37436   5.779   2.276   7.965 -0.2816 -0.4786  0.1023
  272MOL0     C37437   5.681   2.353   7.885  0.3075 -0.1882 -0.6014
  272MOL0     C37438   5.682   2.309   7.732 -0.4523  0.4582 -0.0928
  272MOL0     C37439   5.568   2.387   7.672 -0.5750 -0.8767  0.6866
  272MOL0     C37440   5.564   2.380   7.518 -0.2303  0.0889 -0.9377
  272MOL0     C37441   5.664   2.461   7.448 -0.4938  0.5528  0.3310
  272MOL0     C37442   5.615   2.521   7.316  0.1394  0.1701 -0.1637
  272MOL0    Cl37443   5.748   2.613   7.256  0.1852  0.2115 -0.4049
  272MOL0     C37444   5.469   2.066   8.230  0.1356  0.3493 -0.2539
  272MOL0     C37445   5.427   1.978   8.336 -0.1058  0.4290  0.7345
  272MOL0     O37446   5.502   1.567   8.370  0.6147 -1.1925 -0.4664
  272MOL0     C37447   5.560   1.684   8.693  0.1816 -0.1183 -0.3699
  272MOL0     C37448   5.571   1.651   8.825 -1.0207  0.2906 -0.9320
  272MOL0     N37449   5.576   1.058   9.469 -0.1630 -0.2243 -0.7992
  272MOL0     N37450   5.486   1.015   9.547  0.0981 -0.2460  0.5538
  272MOL0     C37451   5.604   0.682   9.618 -0.1981  1.0185  0.0334
  272MOL0     C37452   5.689   0.721   9.524 -0.4100  0.2249  0.7514
  272MOL0     C37453   5.892   0.803   9.145  0.8202 -0.4108  0.9295
  272MOL0     C37454   6.014   0.845   9.183 -0.5392 -0.8210  0.8838
  272MOL0     C37455   6.094   0.931   9.100  0.4693 -0.4220  0.0910
  272MOL0     C37456   6.050   0.958   8.966 -0.6172 -0.5654  0.3533
  272MOL0     O37457   6.124   1.038   8.883  0.0318 -0.1188  0.1167
  272MOL0     C37458   6.140   1.005   8.740  0.9206 -0.5330  0.6365
  272MOL0     C37459   6.060   1.094   8.642  0.7123 -0.2239 -0.3068
  272MOL0     C37460   6.149   1.181   8.547 -0.2681  0.2751 -0.3581
  272MOL0     C37461   6.222   1.096   8.450 -0.3354 -0.0663 -0.1334
  272MOL0     C37462   6.355   1.145   8.445 -0.1756  0.0151 -0.6621
  272MOL0     C37463   6.470   1.170   8.456  0.0609  0.5918  0.6990
  272MOL0     C37464   5.928   0.900   8.931  0.2193  0.2288  0.8937
  272MOL0     C37465   5.847   0.834   9.019 -0.2867 -0.3652  0.9522
  272MOL0     C37466   5.697   0.828   8.969  0.1650  0.0409 -0.5350
  272MOL0     H37467   5.872   0.436   9.492  0.3988 -0.2407  0.3414
  272MOL0     H37468   5.731   0.370   9.668 -2.1178  0.3154  0.4807
  272MOL0     H37469   5.528   0.295   9.770  2.9282  0.2092 -1.3259
  272MOL0     H37470   5.486   0.369   9.613  0.5055 -1.0920 -0.9795
  272MOL0     H37471   5.289   0.282   9.737  1.2463  0.7810 -3.1387
  272MOL0     H37472   5.313   0.395   9.867  2.4790 -2.2987 -0.2141
  272MOL0     H37473   5.160   0.510   9.778  0.7006 -1.4902  1.0495
  272MOL0     H37474   5.300   0.592   9.719 -0.1647  1.2282 -1.9439
  272MOL0     H37475   5.267   0.522   9.492 -0.3531  1.1358  0.9848
  272MOL0     H37476   5.143   0.408   9.530 -2.1514  1.9096 -2.5595
  272MOL0     H37477   4.989   0.580   9.599  0.3500  0.6297  0.0194
  272MOL0     H37478   5.038   0.601   9.438 -1.5440 -0.1588 -0.3467
  272MOL0     H37479   5.033   0.811   9.524 -1.9878 -2.0721  1.5545
  272MOL0     H37480   5.130   0.760   9.660 -0.7629  3.6402 -0.2155
  272MOL0     H37481   5.254   0.779   9.374  3.1915  0.8423 -0.1742
  272MOL0     H37482   5.339   0.752   9.534  1.4406  1.7398 -0.5148
  272MOL0     H37483   5.168   1.005   9.457 -1.7583 -2.0856 -1.1738
  272MOL0     H37484   5.233   0.954   9.614  0.5454 -0.7894  0.6349
  272MOL0     H37485   5.324   1.063   9.260 -1.0179 -0.2015  0.4051
  272MOL0     H37486   5.588   1.084   9.140  1.2158  1.1636 -0.4641
  272MOL0     H37487   5.710   1.110   9.273 -0.1970 -2.8107 -0.0327
  272MOL0     H37488   5.486   1.315   9.207 -0.1643 -0.1476 -1.1354
  272MOL0     H37489   5.634   1.349   9.293 -1.4963  1.7742 -0.4334
  272MOL0     H37490   5.768   1.298   9.084 -0.2096 -3.3553  2.2518
  272MOL0     H37491   5.623   1.267   8.999  3.8367 -2.7825  0.0440
  272MOL0     H37492   5.666   1.536   9.146  2.2481 -1.4913  1.2009
  272MOL0     H37493   5.732   1.500   8.977  0.5492  0.1811  1.4791
  272MOL0     H37494   5.389   1.366   8.827 -0.6888 -0.3028 -0.7782
  272MOL0     H37495   5.246   1.346   8.639 -1.8294  2.0561  1.2546
  272MOL0     H37496   5.311   1.404   8.480 -1.1484  1.7059 -0.9834
  272MOL0     H37497   5.209   1.504   8.559  0.5987 -0.0802  1.1617
  272MOL0     H37498   5.649   1.722   8.273  2.7899  1.2317 -1.3080
  272MOL0     H37499   5.714   1.874   8.093  1.3783 -1.7963  2.1673
  272MOL0     H37500   5.809   2.076   8.030 -0.8727 -1.6095 -0.0481
  272MOL0     H37501   5.676   2.096   7.902  0.2408 -2.5039  1.6512
  272MOL0     H37502   5.813   2.330   8.053  3.4678  0.6816 -1.8473
  272MOL0     H37503   5.876   2.266   7.916 -0.8845 -1.4508 -0.9583
  272MOL0     H37504   5.698   2.460   7.898 -1.0086 -0.2443  2.1219
  272MOL0     H37505   5.584   2.315   7.918 -0.9265  2.6010 -0.7765
  272MOL0     H37506   5.666   2.202   7.716 -0.1098  0.6118 -1.5480
  272MOL0     H37507   5.777   2.341   7.688  1.2529 -0.5082  2.5948
  272MOL0     H37508   5.467   2.366   7.710 -1.6203  1.4062 -0.6255
  272MOL0     H37509   5.585   2.491   7.703  1.6492  0.0622 -3.0746
  272MOL0     H37510   5.466   2.411   7.481 -0.5049 -0.6257 -0.8196
  272MOL0     H37511   5.577   2.276   7.486  1.2949  0.2599 -0.9803
  272MOL0     H37512   5.755   2.401   7.438  0.7819  2.3705  0.4811
  272MOL0     H37513   5.694   2.545   7.512  1.1681  1.9777 -2.1767
  272MOL0     H37514   5.535   2.589   7.347 -0.4529 -1.3437  1.8798
  272MOL0     H37515   5.586   2.442   7.247  1.4313 -0.7283  0.2938
  272MOL0     H37516   5.431   2.167   8.214  1.4835  0.7266 -1.2592
  272MOL0     H37517   5.364   2.008   8.419  1.7035 -0.7733  2.6321
  272MOL0     H37518   5.596   1.778   8.652  2.9419 -1.3770 -1.0917
  272MOL0     H37519   5.625   1.714   8.895 -0.5552  1.2873 -2.1607
  272MOL0     H37520   5.530   0.740   9.671 -0.2039 -1.2331  2.7560
  272MOL0     H37521   5.659   0.813   9.473 -0.9347 -0.2776  0.1378
  272MOL0     H37522   6.051   0.823   9.283 -1.2247 -0.0828  1.3123
  272MOL0     H37523   6.194   0.962   9.132 -0.1761  1.8876  0.0719
  272MOL0     H37524   6.245   1.018   8.711  0.4056  0.0033 -1.0855
  272MOL0     H37525   6.120   0.900   8.718 -1.2523 -0.0805  0.2677
  272MOL0     H37526   5.998   1.162   8.701  1.9328  0.4248  0.2622
  272MOL0     H37527   5.990   1.033   8.585  1.3390  0.0064 -1.3522
  272MOL0     H37528   6.100   1.257   8.487  1.0238  1.2542 -0.2127
  272MOL0     H37529   6.217   1.237   8.612  0.8329 -0.0190 -1.2441
  272MOL0     H37530   6.162   1.106   8.359 -2.7432  1.5373  1.4786
  272MOL0     H37531   6.212   0.990   8.476  3.5186 -0.5859 -0.3041
  272MOL0     H37532   6.576   1.173   8.469  0.6231 -3.1381 -1.7013
  272MOL0     H37533   5.901   0.908   8.826 -0.7627 -0.3756  1.0868
  272MOL0     H37534   5.651   0.729   8.963 -1.0331  0.6590 -2.2795
  272MOL0     H37535   5.628   0.878   9.037 -3.0533 -2.7334 -1.4677
  272MOL0     H37536   5.690   0.880   8.873  0.1925 -0.3596 -0.7573
  273MOL0     O37537   7.000   8.247   4.550 -0.8451  0.5171 -0.8545
  273MOL0     C37538   7.002   8.350   4.483  0.8333 -0.6841 -0.6218
  273MOL0     O37539   6.973   8.478   4.529 -1.0367  0.3047  0.2129
  273MOL0     C37540   6.935   8.512   4.655  0.1206 -0.0626 -0.0557
  273MOL0     C37541   6.868   8.639   4.675 -0.6820  0.0760 -0.8430
  273MOL0     C37542   6.827   8.687   4.795 -0.1805 -0.1004 -0.6354
  273MOL0     C37543   6.856   8.613   4.907 -0.1558  0.3622  0.3383
  273MOL0     O37544   6.815   8.681   5.014 -0.2543 -0.1487  0.2216
  273MOL0     C37545   6.821   8.617   5.146 -1.9330  0.5284  0.2883
  273MOL0     C37546   6.865   8.724   5.242  0.2656  1.1460 -0.1999
  273MOL0     C37547   6.995   8.799   5.205 -0.2826 -0.4993 -0.0602
  273MOL0     C37548   7.017   8.921   5.299  0.6018 -0.7104  0.3254
  273MOL0     C37549   7.111   8.922   5.422 -0.2750 -0.3381  0.3413
  273MOL0     C37550   7.066   9.038   5.520 -0.8326  1.3087 -0.0743
  273MOL0     C37551   6.972   8.986   5.628 -0.4325  0.0363  0.0160
  273MOL0     C37552   7.047   8.914   5.734 -0.3408 -0.5269  0.2522
  273MOL0     N37553   6.945   8.856   5.833  0.6672 -0.3172 -0.5849
  273MOL0     C37554   6.892   8.739   5.817  0.4295  0.3427 -0.3577
  273MOL0     C37555   6.852   8.699   5.947  0.3504  0.0897  0.6159
  273MOL0     C37556   6.792   8.569   5.998 -0.1883 -0.2582  0.4430
  273MOL0     C37557   6.718   8.580   6.134  0.0528  0.4922  0.2159
  273MOL0     C37558   6.676   8.440   6.176 -0.3459  0.6474 -1.0454
  273MOL0     C37559   6.615   8.451   6.317 -0.1084  0.5033  0.8853
  273MOL0     O37560   6.735   8.445   6.400  0.1323  0.2369  0.1048
  273MOL0     C37561   6.713   8.457   6.538 -0.6135 -0.0692  0.9140
  273MOL0     C37562   6.815   8.523   6.613  0.4942 -0.4149 -0.0434
  273MOL0     C37563   6.819   8.526   6.747 -0.1665 -0.3081 -0.0564
  273MOL0     C37564   6.922   8.610   6.819 -0.5351  0.1785  0.3685
  273MOL0     C37565   6.712   8.450   6.818  0.3282 -0.1221 -0.3349
  273MOL0     C37566   6.716   8.428   6.962  0.0026  0.1519 -0.1916
  273MOL0     O37567   6.607   8.377   7.020 -0.6633  0.5437  0.4962
  273MOL0     C37568   6.625   8.315   7.145 -0.3343  0.3907 -0.2404
  273MOL0     C37569   6.698   8.193   7.153  0.1464 -0.4806  0.0977
  273MOL0     C37570   6.715   8.139   7.285 -0.3353  0.3701  0.1506
  273MOL0     C37571   6.652   8.189   7.405 -0.6065 -0.5197  0.6736
  273MOL0     O37572   6.656   8.123   7.522  0.7559 -0.5449  0.3439
  273MOL0     C37573   6.564   8.154   7.626  0.3598 -0.1412 -0.5852
  273MOL0     C37574   6.548   8.038   7.725  0.0054 -1.0524  0.0417
  273MOL0     C37575   6.479   7.921   7.662  0.1659  0.0428 -0.2853
  273MOL0     C37576   6.441   7.802   7.757  0.1540 -1.1307 -0.6102
  273MOL0     C37577   6.560   7.714   7.800 -1.9111 -0.3941 -0.6067
  273MOL0     C37578   6.545   7.599   7.887 -1.1098  0.3253  0.7905
  273MOL0     C37579   6.678   7.526   7.912 -0.0017 -0.9622 -0.0815
  273MOL0     C37580   6.647   7.403   8.001  0.6225 -0.2646 -0.6930
  273MOL0    Cl37581   6.795   7.337   8.059  0.3636 -0.1361 -0.2546
  273MOL0     C37582   6.578   8.302   7.388  0.1185 -0.0090  0.0274
  273MOL0     C37583   6.568   8.369   7.258  0.7881 -0.6603  0.0652
  273MOL0     O37584   6.821   8.435   7.023 -0.6284  0.5555  0.2497
  273MOL0     C37585   6.598   8.399   6.746 -0.0387  0.2215 -0.5504
  273MOL0     C37586   6.604   8.395   6.603  0.0854  0.3461 -0.3846
  273MOL0     N37587   6.869   8.807   6.032  0.1761 -1.0130  0.3752
  273MOL0     N37588   6.924   8.899   5.965 -0.3524 -0.3197  0.4951
  273MOL0     C37589   6.908   8.481   4.889  0.3757 -0.1047 -0.4575
  273MOL0     C37590   6.947   8.434   4.768  0.2005  0.4967 -0.2429
  273MOL0     C37591   7.051   8.350   4.345 -0.1150  0.2930  0.2151
  273MOL0     C37592   7.023   8.461   4.265 -0.2731 -0.7449 -0.8071
  273MOL0     C37593   7.094   8.488   4.152 -0.8457  0.0923  0.2579
  273MOL0     C37594   7.202   8.406   4.107  0.6453 -0.2890  0.3104
  273MOL0     O37595   7.252   8.429   3.981 -0.7642 -0.3327  0.0794
  273MOL0     C37596   7.329   8.321   3.914  0.7953 -0.3734  0.2593
  273MOL0     C37597   7.366   8.371   3.778  0.3269 -0.5707  0.0615
  273MOL0     C37598   7.452   8.501   3.776 -0.5343  0.1058 -0.7724
  273MOL0     C37599   7.501   8.547   3.641 -0.5740 -0.1447  0.4541
  273MOL0     C37600   7.581   8.669   3.648 -0.6229 -0.3402  0.3179
  273MOL0     C37601   7.640   8.782   3.645  0.0773  0.2996  0.6822
  273MOL0     C37602   7.228   8.292   4.183 -0.5109  0.6681 -0.3342
  273MOL0     C37603   7.162   8.265   4.306 -0.0900  0.2526 -0.1802
  273MOL0     C37604   7.219   8.150   4.388  0.4447  0.7397  0.0448
  273MOL0     H37605   6.850   8.703   4.589  2.7036  2.1571 -0.1740
  273MOL0     H37606   6.794   8.790   4.809  0.3600  0.0551 -0.4727
  273MOL0     H37607   6.902   8.544   5.152 -1.5123  0.9999  0.4189
  273MOL0     H37608   6.726   8.571   5.174 -1.6772  0.8029  1.7081
  273MOL0     H37609   6.788   8.802   5.246  1.6014  2.4568  1.4531
  273MOL0     H37610   6.878   8.674   5.338 -0.8985  2.1893  0.5320
  273MOL0     H37611   7.087   8.741   5.201  0.8208  1.1915  0.0259
  273MOL0     H37612   6.985   8.845   5.106  0.8775  0.1333  0.0974
  273MOL0     H37613   7.053   8.999   5.232 -0.0545  0.1268  0.9236
  273MOL0     H37614   6.920   8.949   5.341  0.8866 -2.2535  2.1731
  273MOL0     H37615   7.213   8.927   5.382 -0.4965  3.5056 -0.1010
  273MOL0     H37616   7.110   8.826   5.475  2.3414 -0.2534  0.7055
  273MOL0     H37617   7.155   9.072   5.574 -1.5841  0.2574  1.9408
  273MOL0     H37618   7.018   9.102   5.446  2.1779  2.1192 -1.4879
  273MOL0     H37619   6.895   8.919   5.589 -0.1450  0.5688 -1.5613
  273MOL0     H37620   6.921   9.072   5.671 -0.3955 -1.0038  2.3194
  273MOL0     H37621   7.110   8.837   5.691 -0.6748 -1.3083  1.1283
  273MOL0     H37622   7.111   8.972   5.801  0.2666  2.5992 -2.7430
  273MOL0     H37623   6.883   8.692   5.720 -0.9914 -0.4650  0.1438
  273MOL0     H37624   6.870   8.492   6.005 -2.2089 -2.4317  0.1748
  273MOL0     H37625   6.714   8.536   5.930 -3.3953  3.0810  2.1632
  273MOL0     H37626   6.784   8.627   6.208  2.2345  1.9269 -2.4405
  273MOL0     H37627   6.629   8.643   6.126 -1.5709 -1.6208  0.8512
  273MOL0     H37628   6.599   8.415   6.103 -0.3316 -2.2546 -0.1856
  273MOL0     H37629   6.757   8.367   6.167  0.9603  1.3637  2.9619
  273MOL0     H37630   6.555   8.542   6.315  0.0047  0.6174 -1.7990
  273MOL0     H37631   6.547   8.367   6.335  0.7220  0.4667  4.4816
  273MOL0     H37632   6.902   8.576   6.575  2.1803 -0.1173  3.8387
  273MOL0     H37633   6.883   8.697   6.873  1.1529  1.6362 -0.6364
  273MOL0     H37634   6.977   8.666   6.742  1.7016  2.3195  3.2595
  273MOL0     H37635   6.993   8.545   6.872 -1.4471 -1.4401 -0.3551
  273MOL0     H37636   6.750   8.140   7.074  1.7597 -1.5022  1.7426
  273MOL0     H37637   6.771   8.046   7.289  0.3317  0.7857  0.9352
  273MOL0     H37638   6.598   8.238   7.687  0.2158 -1.4512  1.3859
  273MOL0     H37639   6.464   8.177   7.586  1.1558 -0.6746 -3.1118
  273MOL0     H37640   6.646   8.003   7.759  0.7069 -0.9366 -1.7118
  273MOL0     H37641   6.497   8.085   7.809  2.4332 -0.3611  1.2278
  273MOL0     H37642   6.545   7.886   7.582  0.1011 -1.0023  0.1024
  273MOL0     H37643   6.386   7.956   7.618  1.3922  0.5082 -2.6419
  273MOL0     H37644   6.372   7.740   7.700 -0.3440 -0.0909 -1.1644
  273MOL0     H37645   6.385   7.852   7.836  1.1054  3.4865 -2.5175
  273MOL0     H37646   6.613   7.691   7.707 -2.7641  0.8560 -1.4197
  273MOL0     H37647   6.626   7.778   7.860 -0.9767 -4.2333  2.9417
  273MOL0     H37648   6.469   7.523   7.863  1.0693 -2.1934  1.3784
  273MOL0     H37649   6.523   7.636   7.987 -3.8636  0.6140  0.1522
  273MOL0     H37650   6.749   7.595   7.959 -1.6246  3.1058 -3.0423
  273MOL0     H37651   6.724   7.489   7.820  0.8170 -0.8388  0.2670
  273MOL0     H37652   6.600   7.323   7.944 -1.7125  0.2239  0.4295
  273MOL0     H37653   6.587   7.433   8.087  0.0900  2.8636 -2.0102
  273MOL0     H37654   6.510   8.355   7.453 -0.2399  0.2890 -0.5745
  273MOL0     H37655   6.506   8.456   7.240 -1.6880 -2.3397  0.0500
  273MOL0     H37656   6.507   8.356   6.786  1.4998 -0.8797  1.9847
  273MOL0     H37657   6.517   8.355   6.552 -1.6553  1.2668  1.6967
  273MOL0     H37658   6.938   8.412   4.967 -2.7157  0.5560  1.4936
  273MOL0     H37659   7.002   8.341   4.762 -1.1520 -0.4852  1.6990
  273MOL0     H37660   6.942   8.531   4.285  0.3406  0.9853 -3.8216
  273MOL0     H37661   7.073   8.579   4.095  0.0845  0.7655  0.9450
  273MOL0     H37662   7.423   8.303   3.967  0.5635 -2.7141 -0.0108
  273MOL0     H37663   7.265   8.232   3.909 -0.8156  0.6728  1.4027
  273MOL0     H37664   7.278   8.395   3.718  0.0911 -3.6281 -1.0326
  273MOL0     H37665   7.439   8.307   3.726  2.3021  2.9157 -1.8634
  273MOL0     H37666   7.408   8.589   3.823  4.3302  2.3886  0.2016
  273MOL0     H37667   7.540   8.479   3.837 -0.2349  1.7071 -0.5794
  273MOL0     H37668   7.412   8.557   3.578 -2.1084 -1.1053  2.3605
  273MOL0     H37669   7.577   8.480   3.602 -0.0780  0.8051 -0.2616
  273MOL0     H37670   7.672   8.884   3.645  1.3526 -0.0422 -1.0155
  273MOL0     H37671   7.310   8.227   4.156 -1.3797 -0.5658 -0.0708
  273MOL0     H37672   7.281   8.079   4.331 -2.8025 -0.5915 -2.1048
  273MOL0     H37673   7.265   8.187   4.480 -3.5450  0.4278  2.3829
  273MOL0     H37674   7.139   8.082   4.419  1.4043 -0.0282  0.9237
  274MOL0     O37675  10.466   2.961   2.371  0.0439  0.2778  0.2675
  274MOL0     C37676  10.547   2.902   2.437  0.3208 -0.9865  0.4414
  274MOL0     O37677  10.625   2.968   2.516  0.4524  0.2459 -0.7343
  274MOL0     C37678  10.579   3.055   2.608  1.4543 -1.4554 -0.0341
  274MOL0     C37679  10.433   3.082   2.626 -0.8004 -0.0284  0.3274
  274MOL0     C37680  10.393   3.175   2.711 -0.4648 -0.9229 -0.5743
  274MOL0     C37681  10.484   3.259   2.772 -0.5903 -0.0664  0.2741
  274MOL0     O37682  10.433   3.353   2.855 -0.0855 -0.0911  0.8398
  274MOL0     C37683  10.528   3.423   2.943  0.7630  0.4802 -0.0261
  274MOL0     C37684  10.445   3.535   3.008  0.1146 -0.4814 -1.2045
  274MOL0     C37685  10.523   3.605   3.129  0.2356 -0.7229  0.4313
  274MOL0     C37686  10.445   3.731   3.172  0.1382 -1.2600 -1.1397
  274MOL0     C37687  10.526   3.823   3.264 -0.2452 -0.5654 -0.1643
  274MOL0     C37688  10.458   3.957   3.287  0.3204  0.3090  0.8771
  274MOL0     C37689  10.301   3.960   3.282 -0.4460  0.1369 -0.4901
  274MOL0     C37690  10.241   4.092   3.326  0.0491 -0.4302  0.1757
  274MOL0     N37691  10.095   4.066   3.352  0.0385 -0.2401 -0.7104
  274MOL0     C37692   9.994   4.091   3.258 -0.2136  0.1374 -0.2148
  274MOL0     C37693   9.885   4.015   3.277  0.3655  0.3651  0.3812
  274MOL0     C37694   9.756   4.020   3.203  0.4849 -0.3199 -0.0979
  274MOL0     C37695   9.648   3.979   3.311 -0.3020  0.3920 -0.0184
  274MOL0     C37696   9.641   4.074   3.426 -0.7569 -0.7899  0.6247
  274MOL0     C37697   9.508   4.062   3.490  0.3894 -0.3625  0.0767
  274MOL0     O37698   9.498   4.145   3.608 -0.4886  0.6543 -0.5226
  274MOL0     C37699   9.535   4.095   3.732  0.5677  0.0950  0.0042
  274MOL0     C37700   9.577   3.956   3.755 -0.6378 -0.1343 -0.0948
  274MOL0     C37701   9.600   3.907   3.882  0.3202  0.2974  0.5752
  274MOL0     C37702   9.646   3.766   3.894 -0.6903  0.5282 -0.8325
  274MOL0     C37703   9.584   3.995   3.995 -0.2011 -0.3324  0.2912
  274MOL0     C37704   9.598   3.962   4.130 -0.6553  0.1866  0.3470
  274MOL0     O37705   9.678   4.037   4.210 -0.6094  0.2679  0.3885
  274MOL0     C37706   9.679   4.010   4.345  0.5261 -0.6648 -0.4593
  274MOL0     C37707   9.592   4.075   4.432 -0.6340  0.2012  0.2759
  274MOL0     C37708   9.605   4.066   4.571  0.7210  0.6807  0.1652
  274MOL0     C37709   9.685   3.968   4.629 -0.4088 -0.2042  0.2538
  274MOL0     O37710   9.676   3.949   4.765  0.4894 -0.8236  0.4770
  274MOL0     C37711   9.744   3.834   4.816 -0.9316 -0.3624 -0.4928
  274MOL0     C37712   9.735   3.843   4.966 -1.1846  0.8021 -0.1380
  274MOL0     C37713   9.762   3.697   5.013 -0.4571 -0.4500  0.0761
  274MOL0     C37714   9.871   3.689   5.133  0.6646 -0.7564  0.4071
  274MOL0     C37715   9.919   3.549   5.164  0.6567 -0.0728 -0.1015
  274MOL0     C37716   9.970   3.473   5.044  0.1168  1.0652  0.8860
  274MOL0     C37717  10.039   3.337   5.080 -0.4227  0.3102 -0.4497
  274MOL0     C37718  10.186   3.344   5.061 -0.0679 -0.1424  0.1096
  274MOL0    Cl37719  10.256   3.439   5.201  0.7923  0.0281  0.2279
  274MOL0     C37720   9.782   3.920   4.540 -0.6971  0.6397 -0.6522
  274MOL0     C37721   9.774   3.933   4.400 -0.4733  0.0730 -0.7987
  274MOL0     O37722   9.535   3.866   4.160  1.0059  0.4797 -0.3079
  274MOL0     C37723   9.550   4.135   3.966 -0.2723  1.0986  0.3685
  274MOL0     C37724   9.528   4.184   3.843 -0.0177  0.4566 -1.0019
  274MOL0     N37725   9.925   3.934   3.382 -0.0699  0.0144 -0.1882
  274MOL0     N37726  10.045   3.955   3.419 -0.0330  0.0726  0.3306
  274MOL0     C37727  10.627   3.230   2.766 -0.2996 -0.6191 -0.3528
  274MOL0     C37728  10.672   3.120   2.689 -0.9509 -0.5711 -0.0949
  274MOL0     C37729  10.574   2.752   2.419  0.0153  0.1119  0.0126
  274MOL0     C37730  10.644   2.684   2.522 -0.8381  0.5644 -0.4177
  274MOL0     C37731  10.656   2.544   2.534 -0.2536 -0.9876 -0.4032
  274MOL0     C37732  10.592   2.468   2.430 -0.0152 -0.4598 -0.0895
  274MOL0     O37733  10.593   2.334   2.417  0.1796 -1.1990  0.6145
  274MOL0     C37734  10.624   2.248   2.522  0.5534  0.3839 -0.3642
  274MOL0     C37735  10.760   2.183   2.484  0.3628  0.9582 -0.2358
  274MOL0     C37736  10.747   2.040   2.421  0.2281  0.4910 -0.8048
  274MOL0     C37737  10.683   2.028   2.279 -0.0642 -0.1831 -0.8598
  274MOL0     C37738  10.760   2.066   2.170 -0.0985  1.0479  0.1766
  274MOL0     C37739  10.825   2.112   2.079  0.4342 -0.6373  0.8196
  274MOL0     C37740  10.531   2.538   2.324  1.0622  0.1935  0.4347
  274MOL0     C37741  10.526   2.676   2.311 -0.1763  0.1119 -0.4312
  274MOL0     C37742  10.453   2.735   2.193 -0.1155  1.1278  0.7861
  274MOL0     H37743  10.355   3.018   2.587 -0.8022  0.2100 -0.0578
  274MOL0     H37744  10.291   3.208   2.725 -0.4080 -1.2945  0.9197
  274MOL0     H37745  10.620   3.457   2.894  1.2780  0.7239  1.0830
  274MOL0     H37746  10.562   3.347   3.014  1.0400 -1.0313 -1.7006
  274MOL0     H37747  10.423   3.616   2.939 -1.1466 -0.1858 -0.4862
  274MOL0     H37748  10.349   3.490   3.037 -0.8786  0.5106 -2.7831
  274MOL0     H37749  10.530   3.538   3.215  2.6809  0.3031  1.1207
  274MOL0     H37750  10.623   3.622   3.086  0.6614 -3.4830  0.1358
  274MOL0     H37751  10.430   3.803   3.091  0.6108  0.7521  0.4844
  274MOL0     H37752  10.351   3.706   3.222 -0.3265 -0.2238 -1.4661
  274MOL0     H37753  10.628   3.828   3.226 -2.0600  1.7894 -5.7867
  274MOL0     H37754  10.539   3.774   3.362  1.0364  0.2757  0.1041
  274MOL0     H37755  10.481   4.006   3.383  0.0678 -0.6442  1.4353
  274MOL0     H37756  10.501   4.010   3.201  2.6859 -2.2607  0.3436
  274MOL0     H37757  10.263   3.883   3.349  1.7423  1.2521  2.1717
  274MOL0     H37758  10.276   3.939   3.177  2.3872  0.0403 -1.2152
  274MOL0     H37759  10.294   4.130   3.414  2.4236  0.6944 -1.6068
  274MOL0     H37760  10.263   4.168   3.250 -4.0083 -0.1294 -0.9283
  274MOL0     H37761   9.999   4.175   3.190 -2.0110  0.0114 -0.5491
  274MOL0     H37762   9.753   3.946   3.122  0.0641  3.9150 -4.3790
  274MOL0     H37763   9.740   4.116   3.154 -0.3372 -0.5522 -0.3037
  274MOL0     H37764   9.558   3.963   3.250 -1.6156  1.9769  1.4243
  274MOL0     H37765   9.665   3.876   3.344 -2.3315 -0.0706 -0.2595
  274MOL0     H37766   9.723   4.057   3.497 -0.4690  1.8960  1.0455
  274MOL0     H37767   9.646   4.177   3.392 -0.1399 -0.7894  0.7039
  274MOL0     H37768   9.429   4.096   3.423 -3.3973 -1.1262  3.7611
  274MOL0     H37769   9.475   3.959   3.506 -2.1953  0.4583  0.4621
  274MOL0     H37770   9.593   3.887   3.673 -2.8485  1.2090 -1.7637
  274MOL0     H37771   9.615   3.698   3.815  1.1910  0.6190 -1.6989
  274MOL0     H37772   9.609   3.729   3.990 -3.0567  1.7411 -1.2016
  274MOL0     H37773   9.755   3.767   3.892 -0.6298 -1.8236 -2.6341
  274MOL0     H37774   9.530   4.154   4.390  1.3355  2.3348  1.1243
  274MOL0     H37775   9.538   4.128   4.630 -0.7527 -0.1118 -0.6289
  274MOL0     H37776   9.689   3.747   4.779 -0.3343 -1.1241  0.3429
  274MOL0     H37777   9.848   3.832   4.782 -0.4947 -3.3959  0.6699
  274MOL0     H37778   9.820   3.906   4.994 -0.3632 -0.5762  0.5825
  274MOL0     H37779   9.641   3.882   5.005 -0.4803  1.0904  1.3315
  274MOL0     H37780   9.790   3.633   4.929  3.6652  2.5865 -1.1677
  274MOL0     H37781   9.674   3.645   5.052  0.5644 -2.6584 -0.3706
  274MOL0     H37782   9.829   3.731   5.225  0.3883  0.1400 -0.1177
  274MOL0     H37783   9.959   3.751   5.114 -1.9339  3.1348  0.0269
  274MOL0     H37784   9.999   3.563   5.237  3.5674 -0.8009 -2.9450
  274MOL0     H37785   9.831   3.490   5.193  1.7091 -1.1832  0.9457
  274MOL0     H37786  10.040   3.542   4.998  3.7936 -0.7758  3.2213
  274MOL0     H37787   9.891   3.435   4.979  1.3719 -2.9613  1.4404
  274MOL0     H37788   9.999   3.250   5.027 -2.9686  0.6659  0.7199
  274MOL0     H37789  10.014   3.304   5.182  2.3734 -0.6799 -0.0114
  274MOL0     H37790  10.209   3.378   4.959 -2.4656 -2.0476 -1.1740
  274MOL0     H37791  10.223   3.243   5.078 -2.1803 -0.9846  0.0058
  274MOL0     H37792   9.864   3.856   4.573  1.8739  3.9965 -0.0033
  274MOL0     H37793   9.847   3.874   4.345 -2.6238 -4.0602  0.3849
  274MOL0     H37794   9.565   4.202   4.050  3.3603 -0.4809  1.1918
  274MOL0     H37795   9.497   4.288   3.837  0.2678  0.8287  2.4311
  274MOL0     H37796  10.701   3.288   2.819 -0.1804  1.7830 -2.8777
  274MOL0     H37797  10.777   3.092   2.679 -1.1571 -1.9726  1.1865
  274MOL0     H37798  10.677   2.739   2.610 -1.8798  2.1753 -0.9958
  274MOL0     H37799  10.721   2.507   2.613  1.7436  0.9350 -1.0498
  274MOL0     H37800  10.639   2.299   2.617  2.0727  1.3583 -1.0803
  274MOL0     H37801  10.531   2.194   2.541 -0.1382  1.4455 -0.6661
  274MOL0     H37802  10.813   2.177   2.579 -1.6572  1.5643  0.9865
  274MOL0     H37803  10.822   2.256   2.431 -1.7314  2.4598 -0.7620
  274MOL0     H37804  10.838   1.979   2.422  0.8174  1.2145 -3.0929
  274MOL0     H37805  10.675   1.986   2.483  2.3232 -3.3031 -1.3577
  274MOL0     H37806  10.589   2.084   2.282 -0.9126 -1.4416  3.5542
  274MOL0     H37807  10.656   1.923   2.262 -1.6279  0.0389  0.0592
  274MOL0     H37808  10.885   2.143   1.996 -0.9316 -1.8009 -0.6620
  274MOL0     H37809  10.495   2.476   2.243 -1.7684  1.6490  0.4539
  274MOL0     H37810  10.359   2.784   2.216 -2.9791 -4.0858  1.7555
  274MOL0     H37811  10.531   2.794   2.144 -0.1866 -0.5154 -1.4734
  274MOL0     H37812  10.421   2.649   2.133  2.8491 -3.1732  4.6328
  275MOL0     O37813   2.164   9.688   3.700 -0.9103  0.0942 -0.5097
  275MOL0     C37814   2.198   9.610   3.609 -0.5876  0.3558 -0.8670
  275MOL0     O37815   2.230   9.642   3.485 -0.8346 -0.0009  0.3609
  275MOL0     C37816   2.185   9.767   3.445  0.5384 -0.2632  0.0677
  275MOL0     C37817   2.053   9.815   3.450  0.1341 -0.1577  0.5242
  275MOL0     C37818   2.037   9.951   3.399 -0.0378  0.4659 -1.1722
  275MOL0     C37819   2.139  10.027   3.335  0.9298  0.9775 -0.3097
  275MOL0     O37820   2.116  10.146   3.276 -1.0358  0.4240 -0.3672
  275MOL0     C37821   1.994  10.160   3.211  0.2320  0.2965 -0.1152
  275MOL0     C37822   1.986  10.295   3.137 -0.1011 -0.5567  0.5973
  275MOL0     C37823   1.847  10.335   3.114  0.5254 -0.5247  0.4439
  275MOL0     C37824   1.838  10.435   2.988 -0.6351 -0.7757 -1.3765
  275MOL0     C37825   1.703  10.499   2.977 -0.2668  0.8720 -0.1271
  275MOL0     C37826   1.693  10.579   2.845  0.0696  0.5420 -0.3761
  275MOL0     C37827   1.674  10.481   2.726 -0.0632 -0.0901  0.9384
  275MOL0     C37828   1.521  10.460   2.699  0.3484  0.7812  0.5169
  275MOL0     N37829   1.500  10.373   2.579 -0.5860 -1.3311 -0.2008
  275MOL0     C37830   1.535  10.237   2.560 -0.2353 -0.9196 -0.9744
  275MOL0     C37831   1.510  10.219   2.429  0.2441 -0.6669 -0.2205
  275MOL0     C37832   1.499  10.075   2.372 -0.4413  0.0711  0.5106
  275MOL0     C37833   1.630   9.983   2.395  0.0574 -0.2331 -0.5777
  275MOL0     C37834   1.701   9.987   2.261 -0.2338 -0.3847  0.2986
  275MOL0     C37835   1.742  10.127   2.215 -0.1630  0.1239  0.4324
  275MOL0     O37836   1.829  10.121   2.098 -0.3388  0.2699 -0.3265
  275MOL0     C37837   1.893  10.235   2.052  0.9375  0.1687  0.4772
  275MOL0     C37838   2.015  10.217   2.003 -0.2639  0.1738  0.3646
  275MOL0     C37839   2.086  10.314   1.923 -0.0173 -0.1172  1.0841
  275MOL0     C37840   2.228  10.269   1.877 -0.4464  0.1195 -0.0932
  275MOL0     C37841   2.029  10.446   1.907  0.3986 -0.2373  0.2930
  275MOL0     C37842   2.087  10.567   1.825 -0.0317 -0.3530 -1.1537
  275MOL0     O37843   2.211  10.560   1.773 -0.2655  0.2219 -0.0767
  275MOL0     C37844   2.274  10.674   1.718  0.4229  0.2123  0.0060
  275MOL0     C37845   2.342  10.657   1.596  0.9100  0.1504  0.3544
  275MOL0     C37846   2.405  10.764   1.538  0.2786 -0.4431  0.2189
  275MOL0     C37847   2.408  10.894   1.582  0.4442 -0.2826 -0.7132
  275MOL0     O37848   2.459  10.989   1.505 -0.5452 -0.0450 -0.0760
  275MOL0     C37849   2.601  10.994   1.533 -0.1743  0.3657 -0.3810
  275MOL0     C37850   2.690  11.003   1.402  0.1498  0.3471  0.2089
  275MOL0     C37851   2.627  11.093   1.302 -0.5171 -0.1223 -0.8956
  275MOL0     C37852   2.701  11.102   1.160  0.2269  0.5394 -1.1734
  275MOL0     C37853   2.803  11.211   1.150 -0.1585 -0.0290 -0.0946
  275MOL0     C37854   2.907  11.174   1.034 -0.7377  0.8333  0.0818
  275MOL0     C37855   3.025  11.264   1.018  1.0994  0.1089  0.3682
  275MOL0     C37856   3.059  11.277   0.867 -0.9359  0.1469  0.5351
  275MOL0    Cl37857   3.103  11.119   0.803 -0.1968  0.0225  0.4852
  275MOL0     C37858   2.338  10.913   1.698 -0.2337  0.2434  0.3276
  275MOL0     C37859   2.274  10.805   1.766  0.5436 -0.2929 -0.3383
  275MOL0     O37860   2.016  10.668   1.814  1.1198  0.3404 -0.0950
  275MOL0     C37861   1.910  10.471   1.975 -0.5770  0.8127  0.1871
  275MOL0     C37862   1.838  10.366   2.041  0.3652  1.0489 -0.0126
  275MOL0     N37863   1.474  10.334   2.362 -0.5064 -0.3467 -0.5427
  275MOL0     N37864   1.482  10.426   2.458 -0.3165 -0.0016 -0.1220
  275MOL0     C37865   2.263   9.981   3.339 -0.6669  0.6670  0.1431
  275MOL0     C37866   2.284   9.848   3.384  0.8701 -0.0049 -0.1913
  275MOL0     C37867   2.195   9.459   3.646 -0.3824 -0.1393  0.5917
  275MOL0     C37868   2.265   9.378   3.561  0.1483  0.2512 -1.0534
  275MOL0     C37869   2.262   9.240   3.571 -0.3412 -0.3828  0.3867
  275MOL0     C37870   2.213   9.178   3.677 -0.1109 -0.4560 -1.0003
  275MOL0     O37871   2.251   9.053   3.684  0.2707 -0.1122 -0.2187
  275MOL0     C37872   2.233   8.984   3.812 -0.5590 -0.4723 -0.0643
  275MOL0     C37873   2.218   8.838   3.776  0.3212  0.0130 -0.1136
  275MOL0     C37874   2.230   8.745   3.896  0.7214 -0.2526 -0.2871
  275MOL0     C37875   2.199   8.599   3.848  0.5978 -0.8179  0.5228
  275MOL0     C37876   2.059   8.561   3.905  0.1620 -0.7953  0.2660
  275MOL0     C37877   1.956   8.515   3.951 -0.1921  0.3041  0.0424
  275MOL0     C37878   2.134   9.260   3.761  1.3878 -0.3440  0.0425
  275MOL0     C37879   2.113   9.399   3.744 -0.0571  1.5808  0.0310
  275MOL0     C37880   2.010   9.472   3.824 -0.3247 -0.0924  0.5757
  275MOL0     H37881   1.966   9.767   3.494 -1.8698  3.7955  1.3109
  275MOL0     H37882   1.939   9.996   3.406  0.7587  2.0210  0.7468
  275MOL0     H37883   1.913  10.163   3.284 -0.3196 -2.9105 -0.4484
  275MOL0     H37884   1.976  10.081   3.137 -0.0502  0.6905 -0.4737
  275MOL0     H37885   2.044  10.363   3.201 -1.3598 -0.2536  1.4547
  275MOL0     H37886   2.042  10.286   3.044 -2.9135 -2.9599 -1.0398
  275MOL0     H37887   1.777  10.256   3.082  2.6149 -2.2805 -0.0061
  275MOL0     H37888   1.797  10.378   3.202 -0.6012  1.7649 -1.2071
  275MOL0     H37889   1.916  10.511   2.998  0.8453 -2.1973 -1.7845
  275MOL0     H37890   1.862  10.385   2.894  3.7007 -0.5822 -0.5388
  275MOL0     H37891   1.689  10.553   3.071  2.1784  0.3261  0.6161
  275MOL0     H37892   1.622  10.425   2.979  0.0400  0.5514  1.9733
  275MOL0     H37893   1.601  10.636   2.865 -0.5220  0.5729 -2.9025
  275MOL0     H37894   1.779  10.646   2.834 -0.7949  1.5313 -1.3644
  275MOL0     H37895   1.722  10.383   2.727 -2.6841 -1.7065 -3.3810
  275MOL0     H37896   1.725  10.525   2.641 -0.4000  2.2292  1.8373
  275MOL0     H37897   1.473  10.404   2.780 -0.6928  1.2099  0.2087
  275MOL0     H37898   1.467  10.551   2.674 -0.6484  0.3289  0.9717
  275MOL0     H37899   1.567  10.160   2.630 -2.6742  0.0278  1.3621
  275MOL0     H37900   1.458  10.081   2.271 -4.0525 -1.3677  1.7236
  275MOL0     H37901   1.421  10.030   2.435 -1.1565 -1.4791 -1.3916
  275MOL0     H37902   1.690  10.010   2.482 -2.3717 -0.2141  1.1789
  275MOL0     H37903   1.605   9.880   2.422 -2.9477  0.8329  1.2619
  275MOL0     H37904   1.792   9.927   2.268  2.6637  3.8106  3.1418
  275MOL0     H37905   1.636   9.949   2.182  0.8577 -1.8482  0.0652
  275MOL0     H37906   1.658  10.195   2.198  0.6117  1.0692  0.2837
  275MOL0     H37907   1.802  10.175   2.293  0.6509  1.6683 -1.0677
  275MOL0     H37908   2.050  10.115   2.011  2.5376  1.0159 -0.1360
  275MOL0     H37909   2.292  10.312   1.954 -1.0910 -0.9814  1.1042
  275MOL0     H37910   2.253  10.305   1.777 -0.4528  0.3076 -0.0276
  275MOL0     H37911   2.238  10.161   1.863  0.8603  0.0015  1.5072
  275MOL0     H37912   2.332  10.559   1.553  0.1826  0.8717 -1.2075
  275MOL0     H37913   2.445  10.761   1.437 -0.7161  1.9696 -0.2952
  275MOL0     H37914   2.624  11.073   1.605  2.9725 -0.4828 -0.3015
  275MOL0     H37915   2.648  10.903   1.573  0.3792  0.6619 -0.3364
  275MOL0     H37916   2.791  11.032   1.432 -0.3601  5.0020 -1.7411
  275MOL0     H37917   2.707  10.901   1.364 -1.6697  1.1578 -3.2242
  275MOL0     H37918   2.600  11.188   1.347  0.6001  0.2686 -1.0161
  275MOL0     H37919   2.534  11.046   1.268 -0.3721  0.5866 -2.3443
  275MOL0     H37920   2.623  11.123   1.086 -0.0510 -1.2290 -1.4299
  275MOL0     H37921   2.747  11.006   1.137 -0.8253 -0.9127  2.1839
  275MOL0     H37922   2.751  11.305   1.130  0.5658  0.4338  0.1666
  275MOL0     H37923   2.858  11.226   1.243  0.9051 -0.5574 -0.6171
  275MOL0     H37924   2.849  11.183   0.941  1.9874  3.3747 -1.5532
  275MOL0     H37925   2.955  11.076   1.032 -0.2994  0.9874 -3.4888
  275MOL0     H37926   3.117  11.235   1.069 -0.0962 -5.1346  0.0942
  275MOL0     H37927   2.987  11.363   1.044 -0.7270 -0.4559  0.0469
  275MOL0     H37928   3.152  11.332   0.849  1.0114 -2.2859  2.3732
  275MOL0     H37929   2.975  11.325   0.815 -3.5494 -4.1838  0.2641
  275MOL0     H37930   2.328  11.010   1.744  2.2598  0.4552  0.5710
  275MOL0     H37931   2.240  10.828   1.867  2.5103  1.3000  0.0139
  275MOL0     H37932   1.857  10.566   1.975  1.4971  2.0388 -0.8528
  275MOL0     H37933   1.741  10.396   2.078  0.0331 -1.4454  1.3871
  275MOL0     H37934   2.348  10.036   3.301  0.4034 -1.0497 -0.0342
  275MOL0     H37935   2.388   9.817   3.385  1.0185  0.4847 -0.0446
  275MOL0     H37936   2.331   9.419   3.486  1.1705 -0.8493 -0.7806
  275MOL0     H37937   2.320   9.181   3.501 -0.4811 -0.2014  0.1133
  275MOL0     H37938   2.325   8.998   3.869 -0.1924  2.0695 -1.1539
  275MOL0     H37939   2.152   9.035   3.864  1.1637  1.5076  0.8194
  275MOL0     H37940   2.302   8.816   3.710  1.9344  2.0602  1.1365
  275MOL0     H37941   2.121   8.816   3.730  0.1376  0.8496 -0.1279
  275MOL0     H37942   2.329   8.754   3.941  1.3355  0.9916 -1.7899
  275MOL0     H37943   2.158   8.784   3.969  2.3365  1.8932  0.2947
  275MOL0     H37944   2.276   8.530   3.883 -0.1049 -1.6866  0.3935
  275MOL0     H37945   2.194   8.593   3.739 -0.0749  0.9158  0.4223
  275MOL0     H37946   1.875   8.471   4.005 -1.4184  3.2350  0.7892
  275MOL0     H37947   2.079   9.214   3.844 -4.0852  2.0353 -1.7722
  275MOL0     H37948   2.062   9.549   3.881  1.9289 -0.2007 -1.2038
  275MOL0     H37949   1.931   9.503   3.755 -1.8426 -0.9569  1.8332
  275MOL0     H37950   1.956   9.400   3.886 -0.4592  0.6395  1.3348
  276MOL0     O37951   2.355   3.608   4.253  0.4878 -0.4073 -0.3156
  276MOL0     C37952   2.321   3.713   4.316  0.0604 -0.3848  0.2076
  276MOL0     O37953   2.405   3.804   4.369 -0.0497  0.0148 -0.0031
  276MOL0     C37954   2.534   3.804   4.318  0.2408  0.0327  0.0047
  276MOL0     C37955   2.573   3.810   4.184 -0.2049 -0.5529 -0.7392
  276MOL0     C37956   2.706   3.810   4.155 -0.8288 -0.5334 -0.2517
  276MOL0     C37957   2.800   3.823   4.261 -0.5813 -0.6718  0.6125
  276MOL0     O37958   2.937   3.826   4.232  0.0582 -0.0866 -0.5928
  276MOL0     C37959   2.993   3.957   4.246 -0.2014 -0.1424 -0.6309
  276MOL0     C37960   3.111   3.961   4.152 -0.1725 -0.1522  0.0033
  276MOL0     C37961   3.231   3.880   4.208  0.2112 -0.2298 -0.8162
  276MOL0     C37962   3.373   3.915   4.136  1.4120 -0.0646 -0.0061
  276MOL0     C37963   3.491   3.857   4.212  0.0009  0.5191  0.6981
  276MOL0     C37964   3.618   3.883   4.135  0.4242 -0.2956  0.0247
  276MOL0     C37965   3.745   3.851   4.220  0.8873 -0.5571 -1.3104
  276MOL0     C37966   3.871   3.856   4.139 -0.9477 -0.2441 -0.2916
  276MOL0     N37967   3.954   3.985   4.159  0.5417  0.8030  0.1475
  276MOL0     C37968   4.004   4.020   4.282  0.4301  0.5286 -0.4956
  276MOL0     C37969   4.016   4.149   4.276  0.0447 -0.2071 -0.5200
  276MOL0     C37970   4.091   4.238   4.366  0.2787  0.1164  0.9708
  276MOL0     C37971   4.242   4.209   4.348 -0.1164 -0.0283 -1.0986
  276MOL0     C37972   4.289   4.208   4.205 -0.4372  0.2367  0.0927
  276MOL0     C37973   4.262   4.341   4.142  0.1594  0.0380  0.2400
  276MOL0     O37974   4.369   4.372   4.062 -0.3744 -0.3583  0.1326
  276MOL0     C37975   4.344   4.334   3.923 -0.5581 -0.2637  0.0473
  276MOL0     C37976   4.279   4.428   3.845  0.0304 -0.3493 -0.7314
  276MOL0     C37977   4.239   4.403   3.714  1.3443 -0.5768  0.3840
  276MOL0     C37978   4.154   4.507   3.655  0.6086 -0.7815  0.7043
  276MOL0     C37979   4.262   4.271   3.656 -0.5999  0.3408 -0.1125
  276MOL0     C37980   4.249   4.245   3.518 -0.9555  0.3428  0.6101
  276MOL0     O37981   4.221   4.345   3.429 -0.7036 -0.1669  0.1205
  276MOL0     C37982   4.183   4.314   3.303 -0.2404  1.0688  0.0341
  276MOL0     C37983   4.210   4.424   3.216  0.2986  0.1241 -0.6850
  276MOL0     C37984   4.157   4.431   3.088  0.2097  0.0373  0.8871
  276MOL0     C37985   4.072   4.325   3.042  0.1045  0.7744  0.4223
  276MOL0     O37986   4.011   4.323   2.916  0.9944  0.3038 -0.0910
  276MOL0     C37987   4.051   4.409   2.804 -0.0285 -0.3466  0.1272
  276MOL0     C37988   4.092   4.339   2.671 -0.3726  0.2750 -1.2015
  276MOL0     C37989   4.149   4.435   2.564  0.1621  0.4473  0.0390
  276MOL0     C37990   4.031   4.489   2.476 -0.4404 -0.6378 -0.8164
  276MOL0     C37991   4.088   4.628   2.428  0.5398 -0.5992  0.5458
  276MOL0     C37992   3.981   4.669   2.323  0.3399  0.0506 -0.0539
  276MOL0     C37993   3.998   4.812   2.284  0.0632  0.9627 -0.1588
  276MOL0     C37994   4.041   4.822   2.138 -0.2814  0.6093 -1.0636
  276MOL0    Cl37995   4.032   4.992   2.089  0.0697  0.7807  0.4843
  276MOL0     C37996   4.056   4.213   3.127 -0.0885 -0.1341 -0.1947
  276MOL0     C37997   4.111   4.207   3.258  0.1064  0.3196  0.0560
  276MOL0     O37998   4.271   4.127   3.483  0.2581  0.2429 -0.0698
  276MOL0     C37999   4.327   4.170   3.744  1.0268  1.0273  0.4812
  276MOL0     C38000   4.365   4.203   3.875  0.3182 -0.1720 -1.0915
  276MOL0     N38001   3.963   4.194   4.160  0.3276  0.4767  0.3154
  276MOL0     N38002   3.929   4.094   4.084  0.0310 -0.1281  0.1975
  276MOL0     C38003   2.770   3.834   4.392  0.4872 -0.2427  1.1488
  276MOL0     C38004   2.635   3.820   4.419 -1.3935 -0.9734 -0.6576
  276MOL0     C38005   2.177   3.739   4.336  0.4564 -0.7008 -0.4407
  276MOL0     C38006   2.137   3.873   4.368  0.7195 -0.3882  0.8186
  276MOL0     C38007   2.001   3.912   4.383 -0.2940  0.1157  0.1772
  276MOL0     C38008   1.906   3.818   4.367  0.6711 -0.8353  0.7190
  276MOL0     O38009   1.774   3.849   4.388 -0.3266 -0.5784 -0.0674
  276MOL0     C38010   1.713   3.967   4.329 -1.4236  0.1801 -0.2453
  276MOL0     C38011   1.674   3.945   4.189  0.4801  0.2234 -0.2052
  276MOL0     C38012   1.525   3.980   4.176 -0.1570 -0.3575  0.4744
  276MOL0     C38013   1.412   3.874   4.208 -1.1703  0.5597  0.2926
  276MOL0     C38014   1.287   3.946   4.180  0.0132 -0.5184  0.0234
  276MOL0     C38015   1.205   4.036   4.170 -0.3267  0.4990  1.2201
  276MOL0     C38016   1.939   3.689   4.312 -0.0328 -0.2465 -0.0843
  276MOL0     C38017   2.072   3.651   4.291 -0.3804 -0.3600 -0.1415
  276MOL0     C38018   2.084   3.511   4.218 -0.4221  1.2107  0.4581
  276MOL0     H38019   2.498   3.796   4.106 -1.1738  0.9865 -0.1257
  276MOL0     H38020   2.734   3.815   4.051  3.0616  5.4888  0.5876
  276MOL0     H38021   3.028   3.961   4.350 -2.0198 -3.1686  0.2190
  276MOL0     H38022   2.916   4.031   4.221 -0.1588 -0.0788 -0.5737
  276MOL0     H38023   3.059   3.939   4.058 -0.9660 -0.2810  0.4601
  276MOL0     H38024   3.138   4.066   4.140 -1.0383 -0.0066 -0.8822
  276MOL0     H38025   3.237   3.886   4.317 -1.1700 -1.5402 -0.6402
  276MOL0     H38026   3.218   3.773   4.188 -1.0538 -0.1954 -0.2539
  276MOL0     H38027   3.375   3.872   4.035  1.9876 -1.0555  0.4066
  276MOL0     H38028   3.387   4.023   4.134  0.9204  0.0580  1.6730
  276MOL0     H38029   3.474   3.749   4.223  0.5176  0.0299 -2.3698
  276MOL0     H38030   3.510   3.903   4.309  5.9418  0.8332 -0.1985
  276MOL0     H38031   3.609   3.821   4.045 -0.2608 -2.3204  1.4179
  276MOL0     H38032   3.628   3.988   4.107 -0.3293 -0.8671 -2.6885
  276MOL0     H38033   3.739   3.748   4.256 -0.6913  0.2229  0.8914
  276MOL0     H38034   3.746   3.921   4.305  1.2185  0.8481 -2.4263
  276MOL0     H38035   3.938   3.781   4.183  0.9289  1.3987 -0.1934
  276MOL0     H38036   3.867   3.835   4.032 -1.1999 -0.5523 -0.2231
  276MOL0     H38037   4.022   3.954   4.366 -3.2883  0.6683  0.5587
  276MOL0     H38038   4.068   4.224   4.472  0.9899 -5.4914  0.6882
  276MOL0     H38039   4.052   4.327   4.316 -3.1460 -2.6902 -1.9073
  276MOL0     H38040   4.299   4.281   4.407 -0.2361  1.1930 -2.4417
  276MOL0     H38041   4.256   4.109   4.391 -0.1013 -1.3444 -3.9719
  276MOL0     H38042   4.395   4.182   4.196 -0.3983  0.1816  0.6811
  276MOL0     H38043   4.244   4.126   4.148  4.8231 -2.7096 -0.4373
  276MOL0     H38044   4.178   4.324   4.074  0.5909  0.1224 -0.3257
  276MOL0     H38045   4.245   4.428   4.207  0.0557  0.4876 -0.3787
  276MOL0     H38046   4.260   4.517   3.905  2.5959 -1.9634  2.8618
  276MOL0     H38047   4.054   4.475   3.622  0.0895  1.7852 -0.5298
  276MOL0     H38048   4.199   4.560   3.571 -1.6718 -2.5594 -1.8232
  276MOL0     H38049   4.133   4.585   3.729  3.2679  1.9771 -1.1888
  276MOL0     H38050   4.257   4.514   3.253  0.5149  0.6070 -2.0484
  276MOL0     H38051   4.150   4.524   3.032 -2.7775  0.6415  2.0821
  276MOL0     H38052   3.962   4.469   2.782 -0.4339 -1.0536 -0.1985
  276MOL0     H38053   4.131   4.477   2.835 -2.0408  1.3376  1.9676
  276MOL0     H38054   4.162   4.257   2.691 -1.8892 -0.9724 -0.8082
  276MOL0     H38055   3.999   4.296   2.635 -1.2388 -0.8454  1.9985
  276MOL0     H38056   4.220   4.387   2.497  3.1314  2.6538  1.3671
  276MOL0     H38057   4.209   4.510   2.617  1.6693 -0.0505 -0.8995
  276MOL0     H38058   3.944   4.511   2.539  0.7491  1.1309  0.3061
  276MOL0     H38059   4.001   4.424   2.393 -1.8443  0.4542 -1.2064
  276MOL0     H38060   4.105   4.692   2.515  0.3390  2.0207 -1.2232
  276MOL0     H38061   4.187   4.624   2.382  0.5365 -0.7574  0.5525
  276MOL0     H38062   3.885   4.679   2.373 -0.9792 -0.0502 -2.4151
  276MOL0     H38063   3.986   4.612   2.229  0.0162  1.4460 -0.9499
  276MOL0     H38064   4.069   4.861   2.352  4.5654 -0.6009 -3.2397
  276MOL0     H38065   3.901   4.861   2.292  1.3233  3.2599  4.1520
  276MOL0     H38066   3.965   4.762   2.086 -1.2052  0.1712  0.7103
  276MOL0     H38067   4.146   4.789   2.132  2.1155  6.2472  1.9643
  276MOL0     H38068   3.994   4.131   3.093 -1.1037  0.2444  0.6806
  276MOL0     H38069   4.081   4.120   3.315 -2.9047  0.3002 -1.3752
  276MOL0     H38070   4.348   4.070   3.707  0.2512  0.8961  0.3736
  276MOL0     H38071   4.418   4.134   3.941  0.1994  3.3471  3.1354
  276MOL0     H38072   2.840   3.854   4.473  2.8586  0.7778 -1.0225
  276MOL0     H38073   2.618   3.822   4.526  0.6974  0.8542 -0.2796
  276MOL0     H38074   2.215   3.946   4.387  1.1658 -1.0359  1.5975
  276MOL0     H38075   1.977   4.015   4.409 -0.2862 -0.4647  2.8057
  276MOL0     H38076   1.626   4.004   4.384  0.5953  3.0718  1.2716
  276MOL0     H38077   1.782   4.052   4.331 -1.2533  0.0357  1.8215
  276MOL0     H38078   1.697   3.843   4.157 -1.0888 -2.1231  5.0114
  276MOL0     H38079   1.713   4.026   4.126  1.8761 -1.6557 -1.8679
  276MOL0     H38080   1.513   4.075   4.229 -1.2508 -0.2270  0.0404
  276MOL0     H38081   1.514   3.997   4.068  1.3517  0.7360  0.4655
  276MOL0     H38082   1.413   3.854   4.315  0.9961  3.0444  0.8452
  276MOL0     H38083   1.427   3.789   4.140 -0.8957  1.2079 -0.4729
  276MOL0     H38084   1.143   4.123   4.163  2.2384  2.5819  2.4053
  276MOL0     H38085   1.847   3.635   4.289 -0.8699  0.6331  1.0545
  276MOL0     H38086   1.999   3.463   4.169  0.9863 -1.0291  0.0634
  276MOL0     H38087   2.168   3.510   4.148  0.0160  0.5515  0.9871
  276MOL0     H38088   2.105   3.440   4.298 -0.8698  0.2051 -0.3000
  277MOL0     O38089   7.243   2.872   7.179  0.1782 -0.1558 -0.2737
  277MOL0     C38090   7.267   2.980   7.126 -0.8173  0.0287 -0.4014
  277MOL0     O38091   7.175   3.055   7.073  0.6532 -0.6938  0.1751
  277MOL0     C38092   7.043   3.021   7.086  1.0275 -0.6186  0.2160
  277MOL0     C38093   6.981   2.933   6.991  0.0076 -0.2111 -0.5715
  277MOL0     C38094   6.841   2.906   6.999 -0.0978 -0.3195  0.0469
  277MOL0     C38095   6.761   2.977   7.092 -0.0243 -1.4598 -0.5942
  277MOL0     O38096   6.626   2.962   7.090  0.0562 -0.4711  0.2847
  277MOL0     C38097   6.571   2.830   7.070 -0.5484 -0.4598 -0.6046
  277MOL0     C38098   6.421   2.841   7.065  1.3502  0.8077  1.2808
  277MOL0     C38099   6.356   2.711   7.017 -0.1252 -0.7983  0.5208
  277MOL0     C38100   6.200   2.714   7.042 -0.1793 -0.6998  0.3775
  277MOL0     C38101   6.147   2.591   7.119 -0.3547 -0.0172 -0.0911
  277MOL0     C38102   6.151   2.478   7.014  0.1609  0.4776 -0.2457
  277MOL0     C38103   6.094   2.344   7.092  0.7636 -0.1503 -1.1445
  277MOL0     C38104   6.028   2.249   6.990  0.3054  0.5162 -0.1228
  277MOL0     N38105   5.912   2.306   6.920  0.1677  0.7696 -0.7987
  277MOL0     C38106   5.829   2.412   6.951 -0.8389  0.6307 -0.0984
  277MOL0     C38107   5.733   2.416   6.857  0.4494 -0.5860  0.9659
  277MOL0     C38108   5.615   2.507   6.851 -0.4916  0.7176  0.8592
  277MOL0     C38109   5.649   2.651   6.866  0.1222 -0.5428  0.3328
  277MOL0     C38110   5.647   2.728   6.741  0.0806 -0.1611  0.4478
  277MOL0     C38111   5.737   2.663   6.627  1.8603 -0.2228  0.3331
  277MOL0     O38112   5.876   2.680   6.669  0.3211  0.4662  0.5026
  277MOL0     C38113   5.967   2.594   6.620 -1.1616 -0.1089 -0.8563
  277MOL0     C38114   5.957   2.491   6.526  0.2299  0.6880 -0.2641
  277MOL0     C38115   6.047   2.375   6.525  0.0110  0.6004  0.2312
  277MOL0     C38116   6.013   2.263   6.436 -0.2759 -0.0173 -0.1270
  277MOL0     C38117   6.168   2.380   6.604  1.9793  1.5669  0.7146
  277MOL0     C38118   6.259   2.270   6.597  1.0989  0.1514  0.0796
  277MOL0     O38119   6.226   2.139   6.617 -0.7866  0.6589  0.1993
  277MOL0     C38120   6.310   2.027   6.621 -0.0385  0.1943  0.8731
  277MOL0     C38121   6.260   1.916   6.682 -0.9313 -0.3838  0.5645
  277MOL0     C38122   6.332   1.799   6.673 -0.2956 -0.1710 -0.1249
  277MOL0     C38123   6.451   1.769   6.602  1.3946 -1.1463  0.4711
  277MOL0     O38124   6.524   1.652   6.611 -0.1499 -0.9431  0.2941
  277MOL0     C38125   6.474   1.530   6.636  0.2385  0.2035 -0.4718
  277MOL0     C38126   6.485   1.488   6.779  0.0102 -0.6275 -0.4367
  277MOL0     C38127   6.617   1.431   6.820 -0.0975 -0.6044  1.3898
  277MOL0     C38128   6.614   1.379   6.963  0.0041  0.7186  0.9236
  277MOL0     C38129   6.752   1.308   7.001  1.0842  0.4482 -0.0170
  277MOL0     C38130   6.801   1.352   7.135  1.2026  0.5825  0.2638
  277MOL0     C38131   6.924   1.272   7.198  0.0593  0.4191 -0.0260
  277MOL0     C38132   6.977   1.303   7.335 -0.0510 -0.0333 -0.3827
  277MOL0    Cl38133   7.124   1.206   7.335 -0.2454  0.4007 -0.1763
  277MOL0     C38134   6.505   1.884   6.535 -0.1071  0.0506 -0.0224
  277MOL0     C38135   6.433   2.010   6.549 -0.8051 -0.1766  0.1586
  277MOL0     O38136   6.379   2.308   6.587  0.0222 -0.0780 -0.5662
  277MOL0     C38137   6.186   2.496   6.679 -0.2181 -0.3788 -0.1386
  277MOL0     C38138   6.082   2.593   6.695 -0.3402 -0.4315 -0.6498
  277MOL0     N38139   5.770   2.320   6.762 -0.0341 -0.0711  0.1439
  277MOL0     N38140   5.871   2.253   6.809  0.3414  0.0171  0.8067
  277MOL0     C38141   6.823   3.061   7.184  1.4371 -0.1577  0.1041
  277MOL0     C38142   6.961   3.076   7.187  0.2208 -0.0298 -0.3990
  277MOL0     C38143   7.397   3.039   7.145 -0.0611  0.5810 -0.4102
  277MOL0     C38144   7.444   3.136   7.054  0.1140 -0.1390  0.1377
  277MOL0     C38145   7.557   3.220   7.087 -0.0451  0.4429 -0.0935
  277MOL0     C38146   7.622   3.199   7.210  0.2049 -1.1060  0.3823
  277MOL0     O38147   7.734   3.266   7.243  0.7243 -0.0457  0.9293
  277MOL0     C38148   7.776   3.394   7.176  0.0059 -0.0522 -0.6504
  277MOL0     C38149   7.885   3.454   7.270  0.7977  0.2305 -0.0153
  277MOL0     C38150   8.021   3.376   7.263  0.2881 -0.1163  1.1551
  277MOL0     C38151   8.107   3.399   7.137 -0.0602  0.3667 -1.5010
  277MOL0     C38152   8.229   3.324   7.144  0.0125  0.2799 -0.0198
  277MOL0     C38153   8.335   3.267   7.165 -0.7930 -0.2420 -0.6245
  277MOL0     C38154   7.579   3.106   7.295 -0.5089 -0.1688 -1.2771
  277MOL0     C38155   7.473   3.027   7.275  0.7618  0.0860  0.2573
  277MOL0     C38156   7.439   2.917   7.366  0.8598 -0.2697  0.1614
  277MOL0     H38157   7.052   2.890   6.921  3.4942  1.7548  1.4374
  277MOL0     H38158   6.809   2.821   6.939  1.0822 -1.4619  0.9808
  277MOL0     H38159   6.603   2.777   7.160 -3.3088  1.2692  1.5487
  277MOL0     H38160   6.605   2.781   6.978 -1.7708 -1.9641 -0.2852
  277MOL0     H38161   6.395   2.865   7.169  0.3648 -0.9435  1.4601
  277MOL0     H38162   6.394   2.924   6.999 -0.8407 -4.2093 -5.0298
  277MOL0     H38163   6.375   2.690   6.911 -1.0579 -0.4188  0.2617
  277MOL0     H38164   6.393   2.622   7.070 -0.1880 -0.0771  1.8118
  277MOL0     H38165   6.176   2.801   7.104  0.2534 -1.3172  1.4339
  277MOL0     H38166   6.141   2.744   6.955  2.0368 -0.9310 -1.2906
  277MOL0     H38167   6.044   2.613   7.147 -0.0474  0.3517  0.7557
  277MOL0     H38168   6.201   2.583   7.213  2.0897 -2.1452 -1.5353
  277MOL0     H38169   6.077   2.513   6.941 -0.8408 -0.0496  0.4956
  277MOL0     H38170   6.249   2.470   6.966  1.5640  0.9734  2.3764
  277MOL0     H38171   6.020   2.377   7.166  0.5581 -0.9255 -0.9976
  277MOL0     H38172   6.177   2.291   7.141 -0.5703 -1.6987 -0.4658
  277MOL0     H38173   6.102   2.214   6.918 -0.7916  0.2148 -1.1493
  277MOL0     H38174   5.983   2.162   7.038 -0.2383  0.0211 -1.4660
  277MOL0     H38175   5.841   2.483   7.033 -2.3898  0.2568  0.4808
  277MOL0     H38176   5.552   2.474   6.934 -1.4469  2.2691  0.8055
  277MOL0     H38177   5.563   2.483   6.758  0.2027 -3.2419  1.3319
  277MOL0     H38178   5.573   2.686   6.936 -0.6059 -0.8583 -0.2784
  277MOL0     H38179   5.746   2.667   6.914  1.9800 -3.4407 -2.0934
  277MOL0     H38180   5.548   2.754   6.702  0.8892 -0.0766 -1.6540
  277MOL0     H38181   5.702   2.821   6.760  1.7064 -1.1724  0.9019
  277MOL0     H38182   5.709   2.559   6.606  0.1924  0.0811  0.9489
  277MOL0     H38183   5.717   2.726   6.540  0.5469  2.1542  2.2371
  277MOL0     H38184   5.868   2.500   6.464  2.0750  1.0480 -3.0822
  277MOL0     H38185   5.923   2.285   6.378 -1.3680  0.4140  1.6810
  277MOL0     H38186   5.991   2.166   6.483 -2.1306  0.5092  0.1590
  277MOL0     H38187   6.104   2.247   6.377  0.9720  2.9426  0.8431
  277MOL0     H38188   6.176   1.929   6.749 -1.5457  1.8542 -0.5315
  277MOL0     H38189   6.295   1.709   6.722  2.4715 -1.2798  0.1543
  277MOL0     H38190   6.366   1.523   6.618 -0.3668 -0.7967  2.8091
  277MOL0     H38191   6.531   1.461   6.574  1.7094  0.4958  0.5028
  277MOL0     H38192   6.460   1.574   6.842 -2.6143 -0.6248 -1.3439
  277MOL0     H38193   6.402   1.423   6.810 -1.0342  0.9956  0.3014
  277MOL0     H38194   6.688   1.514   6.817 -0.0759 -0.6520 -0.5259
  277MOL0     H38195   6.639   1.351   6.748  2.0783 -1.1703  2.5897
  277MOL0     H38196   6.521   1.321   6.972 -1.4128  2.6852 -0.0535
  277MOL0     H38197   6.596   1.461   7.033 -1.2104 -0.3550  1.9202
  277MOL0     H38198   6.729   1.201   6.997 -1.6256  0.8840  1.5194
  277MOL0     H38199   6.840   1.340   6.944  1.7966 -0.0237  0.7902
  277MOL0     H38200   6.723   1.326   7.207  0.2005 -1.6003 -1.4703
  277MOL0     H38201   6.833   1.453   7.109 -0.0337  0.7331 -0.7447
  277MOL0     H38202   7.005   1.264   7.126 -1.3926 -1.3999 -1.5893
  277MOL0     H38203   6.878   1.172   7.199  0.6608  0.0924 -1.7267
  277MOL0     H38204   6.903   1.280   7.412 -0.5198  0.5123 -0.6626
  277MOL0     H38205   7.019   1.403   7.349 -2.2280  0.6493  2.1660
  277MOL0     H38206   6.597   1.877   6.479  0.5819 -3.0484  1.2799
  277MOL0     H38207   6.472   2.080   6.476  0.9589 -0.9014  0.3336
  277MOL0     H38208   6.276   2.516   6.736 -0.3819  1.5260 -0.4920
  277MOL0     H38209   6.081   2.676   6.764 -2.7185 -2.0106  1.3803
  277MOL0     H38210   6.755   3.096   7.262 -0.0093 -0.0160 -1.1854
  277MOL0     H38211   7.009   3.137   7.263 -2.6015 -0.7157  2.0849
  277MOL0     H38212   7.402   3.151   6.956  2.7770  1.6642 -0.8414
  277MOL0     H38213   7.592   3.282   7.005  0.7342 -1.8057 -1.5883
  277MOL0     H38214   7.823   3.387   7.078  1.9621  2.7114 -0.0171
  277MOL0     H38215   7.685   3.453   7.184  1.2490  2.3800 -2.9795
  277MOL0     H38216   7.858   3.465   7.376 -1.2992 -0.9052 -0.3882
  277MOL0     H38217   7.903   3.554   7.230  1.2016  1.3286  2.6536
  277MOL0     H38218   8.082   3.416   7.345  1.4101 -1.3562  0.9679
  277MOL0     H38219   8.021   3.267   7.270  4.4808 -0.4181 -0.5206
  277MOL0     H38220   8.136   3.504   7.122  3.7509 -0.3236 -0.0408
  277MOL0     H38221   8.050   3.366   7.049 -1.7161 -0.4650 -0.1746
  277MOL0     H38222   8.426   3.233   7.210  0.6858  1.6807 -1.9970
  277MOL0     H38223   7.626   3.083   7.390 -3.3130 -2.4556 -0.3120
  277MOL0     H38224   7.418   2.822   7.315 -2.7016  0.6177 -0.3357
  277MOL0     H38225   7.514   2.896   7.442  2.1323 -1.2467 -1.2997
  277MOL0     H38226   7.352   2.941   7.428  2.1656  0.0229  1.9585
  278MOL0     O38227   7.191   5.557   1.618 -0.2926 -0.7639 -0.2605
  278MOL0     C38228   7.256   5.550   1.716 -0.3903 -0.1838  0.6147
  278MOL0     O38229   7.384   5.593   1.731  0.4740 -0.0611 -0.2264
  278MOL0     C38230   7.433   5.698   1.657 -1.8615 -0.1263  0.1222
  278MOL0     C38231   7.550   5.669   1.578  0.5109  0.6475  0.4164
  278MOL0     C38232   7.606   5.763   1.497  0.6827 -0.4642  0.5275
  278MOL0     C38233   7.552   5.896   1.493 -0.2884  0.2004 -0.0229
  278MOL0     O38234   7.599   5.998   1.414  0.2732 -0.4126 -0.2864
  278MOL0     C38235   7.736   6.028   1.418 -0.4338 -0.0993  0.3802
  278MOL0     C38236   7.800   6.078   1.550 -0.0666  0.5106 -0.7651
  278MOL0     C38237   7.716   6.179   1.635  0.2044  0.3435  0.7270
  278MOL0     C38238   7.737   6.182   1.791 -0.8547 -0.1245  0.0901
  278MOL0     C38239   7.685   6.072   1.878 -0.2376  0.0318  0.3892
  278MOL0     C38240   7.744   6.083   2.021 -0.8552 -0.4351  0.9576
  278MOL0     C38241   7.673   6.179   2.126  0.3286 -0.4803  0.2856
  278MOL0     C38242   7.758   6.221   2.254  1.1200 -0.4524 -0.7834
  278MOL0     N38243   7.804   6.106   2.336  0.2996 -0.3504 -0.1365
  278MOL0     C38244   7.732   5.993   2.354 -0.1111 -0.8625  0.3146
  278MOL0     C38245   7.804   5.925   2.439 -0.2807 -0.6975 -0.2613
  278MOL0     C38246   7.779   5.785   2.481  0.1474  0.2264 -0.2808
  278MOL0     C38247   7.654   5.776   2.566  0.9292 -0.9755  0.2775
  278MOL0     C38248   7.645   5.638   2.616  0.6513 -0.9185 -0.1110
  278MOL0     C38249   7.535   5.623   2.723  0.6061  0.4035  0.7062
  278MOL0     O38250   7.552   5.496   2.794  0.4694 -1.3308  0.7505
  278MOL0     C38251   7.471   5.452   2.898 -0.4033 -0.0212  0.7653
  278MOL0     C38252   7.345   5.497   2.929 -0.1971 -0.3818  0.1289
  278MOL0     C38253   7.271   5.440   3.029 -0.0733  0.0138 -0.9157
  278MOL0     C38254   7.131   5.495   3.052 -0.3377  0.0209  0.1772
  278MOL0     C38255   7.322   5.334   3.104 -0.1778  0.3487 -0.2830
  278MOL0     C38256   7.246   5.259   3.215 -0.7471  0.6286  0.6895
  278MOL0     O38257   7.315   5.186   3.311  0.2194  0.0196  0.5542
  278MOL0     C38258   7.267   5.155   3.430 -0.0112  1.5191 -0.1224
  278MOL0     C38259   7.137   5.108   3.456  0.0017  0.5923 -0.1843
  278MOL0     C38260   7.100   5.080   3.579 -0.1934 -0.2822 -0.2332
  278MOL0     C38261   7.200   5.083   3.681 -0.0994 -0.7845  0.0491
  278MOL0     O38262   7.169   5.046   3.822  0.0107 -0.0289  0.6604
  278MOL0     C38263   7.256   5.060   3.930 -0.0908 -0.1688  0.1642
  278MOL0     C38264   7.301   5.201   3.971  0.0976  0.8584  0.5151
  278MOL0     C38265   7.193   5.282   4.037  0.2106 -1.6082 -0.3530
  278MOL0     C38266   7.107   5.361   3.933 -0.6424  0.3948  0.0041
  278MOL0     C38267   6.995   5.436   4.006 -0.1434  0.3534 -0.0380
  278MOL0     C38268   6.873   5.453   3.920  0.2620 -0.0488 -0.4472
  278MOL0     C38269   6.779   5.539   3.997  0.1620 -0.2038 -0.1981
  278MOL0     C38270   6.634   5.505   3.968  0.1708 -0.0990 -0.4793
  278MOL0    Cl38271   6.582   5.343   4.055 -0.6734  0.1508 -0.0362
  278MOL0     C38272   7.333   5.122   3.656  0.3258  0.8022  0.7266
  278MOL0     C38273   7.369   5.142   3.521 -0.2292  0.2199 -0.4005
  278MOL0     O38274   7.125   5.260   3.211  0.0292  0.1024  0.4163
  278MOL0     C38275   7.449   5.283   3.081  0.1363 -0.1450  0.5698
  278MOL0     C38276   7.525   5.340   2.969 -0.3318  0.3694 -1.0406
  278MOL0     N38277   7.917   5.994   2.481 -0.0149 -0.0065 -1.2210
  278MOL0     N38278   7.907   6.112   2.426 -0.1179  0.2345  0.9670
  278MOL0     C38279   7.446   5.926   1.585 -0.4485  0.0820  0.1684
  278MOL0     C38280   7.380   5.828   1.657  0.2944  0.4190 -0.1174
  278MOL0     C38281   7.222   5.452   1.815 -0.5953  0.1476 -0.2682
  278MOL0     C38282   7.315   5.351   1.859  0.7802  0.5826  0.2953
  278MOL0     C38283   7.295   5.293   1.989 -0.3007  0.4578  0.4544
  278MOL0     C38284   7.171   5.302   2.040 -1.0456  0.7792 -0.0474
  278MOL0     O38285   7.153   5.258   2.159 -0.2485 -1.3608 -0.0231
  278MOL0     C38286   7.146   5.120   2.172  0.0382 -0.5419  0.0477
  278MOL0     C38287   7.142   5.084   2.314  0.7630 -0.4981 -0.3664
  278MOL0     C38288   7.016   5.152   2.385 -0.7409  0.1335 -0.2205
  278MOL0     C38289   7.009   5.092   2.526  0.6091  0.3170 -0.4222
  278MOL0     C38290   6.942   4.963   2.513 -0.2649 -1.0503  0.1007
  278MOL0     C38291   6.893   4.859   2.485  0.8887  0.2334  0.3020
  278MOL0     C38292   7.070   5.358   1.969 -0.2747 -0.3764  0.6393
  278MOL0     C38293   7.088   5.435   1.853 -0.1369  0.2047 -0.6637
  278MOL0     C38294   6.974   5.488   1.768  1.1269  1.5025  0.3076
  278MOL0     H38295   7.598   5.573   1.596  0.0906 -0.2216 -2.5314
  278MOL0     H38296   7.697   5.743   1.441  0.9806 -0.6902  1.0836
  278MOL0     H38297   7.763   6.104   1.345  2.9873 -2.8608 -1.5286
  278MOL0     H38298   7.803   5.945   1.396  0.2744  0.3942  0.6422
  278MOL0     H38299   7.809   5.981   1.599 -1.1444 -0.7341 -2.8805
  278MOL0     H38300   7.894   6.127   1.523  0.8795 -1.7988 -1.8624
  278MOL0     H38301   7.721   6.283   1.600  3.3664 -0.3358 -1.1725
  278MOL0     H38302   7.611   6.153   1.618  0.1360  0.6493  0.6736
  278MOL0     H38303   7.844   6.182   1.812 -0.5767 -0.7833 -1.2212
  278MOL0     H38304   7.700   6.279   1.828 -1.8807  0.7651 -2.9566
  278MOL0     H38305   7.706   5.978   1.826 -0.1175  1.3835 -2.1272
  278MOL0     H38306   7.576   6.085   1.883  0.0600  3.7195 -0.3223
  278MOL0     H38307   7.753   5.981   2.059 -2.5583 -0.6675  0.8242
  278MOL0     H38308   7.843   6.130   2.017 -0.5429 -1.1378 -2.6963
  278MOL0     H38309   7.588   6.116   2.155  1.8584 -3.3534 -0.9518
  278MOL0     H38310   7.643   6.272   2.077  1.2962 -0.0886  0.4300
  278MOL0     H38311   7.848   6.279   2.230  1.5659 -1.2764 -1.1514
  278MOL0     H38312   7.693   6.267   2.329  0.3609 -1.9598 -0.4890
  278MOL0     H38313   7.648   5.948   2.302 -0.1132  0.4671 -0.8862
  278MOL0     H38314   7.864   5.774   2.549  1.2204  1.9686 -1.2571
  278MOL0     H38315   7.774   5.700   2.411  0.3293  0.0389 -0.0684
  278MOL0     H38316   7.660   5.846   2.649  1.1561 -0.9273  0.2217
  278MOL0     H38317   7.566   5.805   2.509  0.2253 -2.5711  0.5002
  278MOL0     H38318   7.636   5.569   2.531  3.8322 -2.0139  0.2898
  278MOL0     H38319   7.744   5.629   2.662  1.2353 -0.1481 -1.1797
  278MOL0     H38320   7.532   5.707   2.794  3.0494  1.2520 -0.0842
  278MOL0     H38321   7.435   5.613   2.680  0.9172 -1.2448  0.2949
  278MOL0     H38322   7.316   5.579   2.864  1.7494  0.8085  0.6886
  278MOL0     H38323   7.099   5.489   3.156 -1.7788 -2.4213 -0.3278
  278MOL0     H38324   7.065   5.423   3.003 -0.2386  0.3808 -0.5031
  278MOL0     H38325   7.116   5.599   3.020 -2.1900  2.2341  6.6309
  278MOL0     H38326   7.064   5.095   3.377 -0.1609 -0.6167  0.1538
  278MOL0     H38327   7.003   5.034   3.593  0.4847 -3.1579 -3.6309
  278MOL0     H38328   7.206   5.025   4.021  0.7392  0.2370  0.7923
  278MOL0     H38329   7.346   5.003   3.906 -0.0054  0.7446 -1.9465
  278MOL0     H38330   7.383   5.195   4.043  0.3648 -0.5950  0.1231
  278MOL0     H38331   7.338   5.247   3.879  2.0241 -1.1070  0.2267
  278MOL0     H38332   7.236   5.360   4.101  0.9576 -2.8597  0.7298
  278MOL0     H38333   7.132   5.222   4.105 -0.3365  0.4762  1.1138
  278MOL0     H38334   7.058   5.287   3.870  0.1828  0.4593 -0.7289
  278MOL0     H38335   7.164   5.430   3.870 -1.0894  1.2155  0.4801
  278MOL0     H38336   6.968   5.390   4.101 -2.6377  1.3508 -0.2014
  278MOL0     H38337   7.037   5.536   4.022 -2.3555  1.1475  1.2203
  278MOL0     H38338   6.839   5.351   3.902  2.2926 -1.3595  2.3311
  278MOL0     H38339   6.897   5.499   3.824 -0.0050 -1.7348 -1.3570
  278MOL0     H38340   6.810   5.638   3.963 -0.8806  0.6086  1.1614
  278MOL0     H38341   6.802   5.535   4.104 -2.2509  3.3675  0.5903
  278MOL0     H38342   6.617   5.487   3.862  3.3605 -3.8979 -0.5760
  278MOL0     H38343   6.569   5.586   4.003  1.4940  0.3523  1.0561
  278MOL0     H38344   7.410   5.106   3.732 -1.8578 -2.9804  2.4255
  278MOL0     H38345   7.471   5.163   3.491  0.3151 -0.5725  0.8019
  278MOL0     H38346   7.496   5.207   3.144 -4.1357 -0.4183  3.9164
  278MOL0     H38347   7.622   5.293   2.955 -1.6798 -2.8729 -0.4405
  278MOL0     H38348   7.409   6.029   1.580 -1.7560 -0.3505  0.4913
  278MOL0     H38349   7.299   5.837   1.729 -1.1616 -2.0849 -1.3019
  278MOL0     H38350   7.406   5.341   1.801 -1.9635  0.0051 -4.5495
  278MOL0     H38351   7.377   5.242   2.038  0.0962  1.3871  0.7768
  278MOL0     H38352   7.055   5.071   2.136  0.7016 -0.8642 -1.2653
  278MOL0     H38353   7.234   5.067   2.135 -0.8632 -2.8831  1.0285
  278MOL0     H38354   7.225   5.129   2.370 -0.8953 -1.6823  3.2967
  278MOL0     H38355   7.152   4.976   2.326 -1.5842 -0.5651  1.6987
  278MOL0     H38356   7.022   5.261   2.400 -2.2323  0.0193  1.6640
  278MOL0     H38357   6.927   5.122   2.330 -0.5142 -0.5040 -0.2482
  278MOL0     H38358   6.947   5.161   2.586 -1.0234 -1.1899 -0.2939
  278MOL0     H38359   7.108   5.083   2.570  1.5925 -2.9212 -2.9451
  278MOL0     H38360   6.830   4.773   2.474 -1.0933  1.4740  1.2106
  278MOL0     H38361   6.980   5.339   2.025  0.8114 -1.0341  2.2441
  278MOL0     H38362   6.872   5.465   1.800  0.3074 -1.6255 -3.7432
  278MOL0     H38363   6.987   5.597   1.768  0.2923  1.6157 -0.7167
  278MOL0     H38364   6.986   5.443   1.669 -0.0242 -0.6675  1.0968
  279MOL0     O38365   8.493   0.113   2.354 -0.6904 -0.4650 -0.1039
  279MOL0     C38366   8.602   0.139   2.302 -0.2031 -0.6131  0.9065
  279MOL0     O38367   8.688   0.049   2.247  0.4875  0.3736 -0.4019
  279MOL0     C38368   8.640  -0.072   2.226  1.4098  0.4514 -0.1175
  279MOL0     C38369   8.697  -0.175   2.298  0.9282 -1.3993  0.2079
  279MOL0     C38370   8.645  -0.305   2.288 -0.1108 -0.8177 -0.0025
  279MOL0     C38371   8.525  -0.331   2.208  0.5292  0.6311  0.8687
  279MOL0     O38372   8.466  -0.457   2.209  0.4603  0.7560 -1.2515
  279MOL0     C38373   8.341  -0.478   2.140 -0.2439 -0.4217 -0.7275
  279MOL0     C38374   8.274  -0.609   2.193 -0.3718 -0.2133 -0.0786
  279MOL0     C38375   8.330  -0.747   2.142  0.5496 -1.6693  0.5779
  279MOL0     C38376   8.301  -0.863   2.231  0.4472 -0.6975  1.1036
  279MOL0     C38377   8.330  -0.997   2.166 -0.6457 -0.5012  0.0855
  279MOL0     C38378   8.239  -1.105   2.223 -0.4621  0.2035  0.1342
  279MOL0     C38379   8.257  -1.240   2.171  0.4542  0.1492  0.1362
  279MOL0     C38380   8.360  -1.325   2.255  0.0560  0.1781 -0.6024
  279MOL0     N38381   8.306  -1.364   2.388 -0.5563 -0.5200 -0.0690
  279MOL0     C38382   8.205  -1.452   2.418  0.2180  0.6858 -0.5296
  279MOL0     C38383   8.208  -1.484   2.554 -0.4149 -0.6300  0.2339
  279MOL0     C38384   8.112  -1.576   2.636 -0.3408 -0.9421  0.4220
  279MOL0     C38385   8.122  -1.731   2.617 -0.7701 -0.9108  1.3004
  279MOL0     C38386   8.253  -1.793   2.659  0.5331  0.7136 -0.1513
  279MOL0     C38387   8.337  -1.823   2.534 -0.8247 -0.1646  0.2307
  279MOL0     O38388   8.447  -1.892   2.594 -0.2750 -0.4207 -0.5271
  279MOL0     C38389   8.573  -1.844   2.570  1.4369 -0.0073 -0.1894
  279MOL0     C38390   8.594  -1.706   2.585  0.7414 -0.0632 -0.1601
  279MOL0     C38391   8.714  -1.641   2.554  0.1885 -0.7785  0.3625
  279MOL0     C38392   8.720  -1.491   2.550 -0.3328  0.7405  0.7902
  279MOL0     C38393   8.825  -1.726   2.508 -0.5981  1.0712  0.1232
  279MOL0     C38394   8.957  -1.683   2.457  0.1822  0.7869 -0.6985
  279MOL0     O38395   9.019  -1.756   2.361  0.3106  0.3804  0.0283
  279MOL0     C38396   9.141  -1.726   2.322 -1.0138  0.0852  0.4165
  279MOL0     C38397   9.238  -1.828   2.328  0.2052  0.3701 -0.6284
  279MOL0     C38398   9.362  -1.815   2.268  0.4340  0.3102  0.5831
  279MOL0     C38399   9.407  -1.691   2.217  0.3216 -0.0952 -0.3103
  279MOL0     O38400   9.536  -1.673   2.186 -0.3874  0.0987 -0.8196
  279MOL0     C38401   9.563  -1.628   2.055 -0.4254 -0.6948 -0.6269
  279MOL0     C38402   9.598  -1.472   2.043 -0.5308  0.0898 -0.9063
  279MOL0     C38403   9.747  -1.425   2.064  0.1860 -0.1662  0.4983
  279MOL0     C38404   9.786  -1.274   2.026 -0.4473 -0.1680  0.2225
  279MOL0     C38405   9.937  -1.254   2.008 -0.6702 -0.5961  0.4611
  279MOL0     C38406   9.969  -1.123   1.930  0.1502  1.1492 -0.4110
  279MOL0     C38407  10.121  -1.096   1.912  0.0881 -0.5015 -0.8200
  279MOL0     C38408  10.145  -0.984   1.806  0.4002 -0.5890 -0.1236
  279MOL0    Cl38409  10.069  -0.998   1.655 -0.1123 -0.3020  0.8602
  279MOL0     C38410   9.307  -1.582   2.216  0.0135  1.0595  0.6227
  279MOL0     C38411   9.181  -1.603   2.272  0.5542 -0.7171 -0.5893
  279MOL0     O38412   9.004  -1.581   2.507  0.0596  0.0100 -1.3104
  279MOL0     C38413   8.802  -1.864   2.502  0.2274  0.2280  0.8963
  279MOL0     C38414   8.679  -1.926   2.545 -0.9010 -0.3632 -0.4034
  279MOL0     N38415   8.311  -1.408   2.604  0.3558 -0.5655 -0.4609
  279MOL0     N38416   8.374  -1.334   2.503 -0.0222  0.1541 -0.6420
  279MOL0     C38417   8.473  -0.225   2.134  0.7758 -0.2409 -0.0013
  279MOL0     C38418   8.525  -0.098   2.152  0.1685  0.7809  0.2207
  279MOL0     C38419   8.634   0.282   2.281 -0.3779 -0.3623  0.3332
  279MOL0     C38420   8.768   0.319   2.308 -0.6456  0.4032 -0.4855
  279MOL0     C38421   8.814   0.451   2.311 -0.2325 -0.2425  0.0621
  279MOL0     C38422   8.723   0.553   2.279 -0.1979 -0.2755 -0.2523
  279MOL0     O38423   8.772   0.680   2.283  0.6124 -0.8484  0.6782
  279MOL0     C38424   8.854   0.715   2.177 -0.7562  0.2833  0.7773
  279MOL0     C38425   8.778   0.760   2.048  0.3677 -0.2305  0.8592
  279MOL0     C38426   8.716   0.904   2.050 -0.2254 -0.2060 -0.0398
  279MOL0     C38427   8.576   0.918   2.114  0.0946  0.7702  0.5989
  279MOL0     C38428   8.484   0.866   2.013  1.2725 -0.4109 -0.4633
  279MOL0     C38429   8.384   0.826   1.943  1.4825 -0.9157 -0.5793
  279MOL0     C38430   8.593   0.520   2.225 -0.9198 -0.8493  0.2831
  279MOL0     C38431   8.542   0.385   2.240 -0.5984 -1.0876  0.4346
  279MOL0     C38432   8.410   0.364   2.196  0.9219 -0.1934  0.1062
  279MOL0     H38433   8.774  -0.150   2.370 -2.0088 -1.3178  3.5414
  279MOL0     H38434   8.691  -0.376   2.356 -0.9792 -0.7889  0.6366
  279MOL0     H38435   8.368  -0.491   2.035  2.4179 -1.7872  0.0312
  279MOL0     H38436   8.275  -0.393   2.156 -2.0604 -2.1586  1.9100
  279MOL0     H38437   8.294  -0.605   2.301  2.3418  1.6670 -0.5376
  279MOL0     H38438   8.168  -0.607   2.167  0.1914  2.9249 -2.8118
  279MOL0     H38439   8.290  -0.753   2.041  2.1584 -2.9284 -0.0252
  279MOL0     H38440   8.439  -0.741   2.136  0.5679  0.8617  1.9718
  279MOL0     H38441   8.352  -0.834   2.323 -1.0647  2.3289  1.1012
  279MOL0     H38442   8.193  -0.869   2.250 -0.3296  1.8546 -1.7241
  279MOL0     H38443   8.434  -1.016   2.195 -0.4875  0.6123  0.3120
  279MOL0     H38444   8.301  -0.996   2.061 -4.4231 -2.3998  0.9461
  279MOL0     H38445   8.245  -1.110   2.332  1.1177  1.2636  0.1248
  279MOL0     H38446   8.134  -1.083   2.202 -0.9920 -1.7826  0.4357
  279MOL0     H38447   8.286  -1.231   2.066  1.0876 -2.8737 -0.0320
  279MOL0     H38448   8.162  -1.293   2.168 -0.0448  0.8288  2.4670
  279MOL0     H38449   8.369  -1.426   2.213 -2.3141  1.1494 -3.8464
  279MOL0     H38450   8.460  -1.281   2.265 -0.6052  1.5316  0.3262
  279MOL0     H38451   8.140  -1.490   2.341  1.4493 -0.4056 -1.0722
  279MOL0     H38452   8.007  -1.544   2.628  0.5989  2.1534 -1.6828
  279MOL0     H38453   8.146  -1.560   2.738 -2.5422  3.6544  0.6896
  279MOL0     H38454   8.037  -1.773   2.671 -0.4287 -0.4743  2.2151
  279MOL0     H38455   8.105  -1.751   2.511 -2.2300 -0.0848  1.3607
  279MOL0     H38456   8.308  -1.738   2.736 -1.4909  5.0236 -1.4086
  279MOL0     H38457   8.225  -1.885   2.711  2.6294 -0.1553 -0.4851
  279MOL0     H38458   8.288  -1.886   2.460  2.0376 -0.0161 -1.9890
  279MOL0     H38459   8.374  -1.731   2.487 -2.9846  0.3710 -0.5258
  279MOL0     H38460   8.511  -1.647   2.622  1.8161  0.0733  2.2302
  279MOL0     H38461   8.734  -1.452   2.652 -0.8863  2.9714  0.0625
  279MOL0     H38462   8.623  -1.450   2.521  0.2054  0.6082 -1.3767
  279MOL0     H38463   8.797  -1.456   2.481  1.7182  2.1696  3.5939
  279MOL0     H38464   9.213  -1.921   2.377 -3.8888  1.8701  0.5639
  279MOL0     H38465   9.424  -1.904   2.268 -1.0845 -0.8232 -0.6080
  279MOL0     H38466   9.645  -1.678   2.004  1.0713  1.1340 -0.1580
  279MOL0     H38467   9.469  -1.639   2.000 -1.8617  1.4292  1.1876
  279MOL0     H38468   9.571  -1.450   1.939  1.4744  1.6303 -1.1757
  279MOL0     H38469   9.539  -1.416   2.116 -1.3513 -0.3792 -1.1931
  279MOL0     H38470   9.818  -1.490   2.011 -1.3255 -0.6171 -1.0570
  279MOL0     H38471   9.767  -1.432   2.171 -0.6690  0.3849  0.7032
  279MOL0     H38472   9.753  -1.208   2.107 -0.7800 -0.3580  0.2421
  279MOL0     H38473   9.742  -1.234   1.934 -1.7087  0.2180  0.9602
  279MOL0     H38474   9.977  -1.247   2.109 -1.1976 -3.0005  0.9061
  279MOL0     H38475   9.989  -1.336   1.958  2.8772  1.3844  0.5781
  279MOL0     H38476   9.937  -1.038   1.991  1.3478  1.2780  0.0642
  279MOL0     H38477   9.922  -1.137   1.832 -1.7626  1.8350  0.3810
  279MOL0     H38478  10.172  -1.185   1.873  2.0594 -0.7106  1.9436
  279MOL0     H38479  10.159  -1.079   2.013 -1.0254 -4.7395  0.5517
  279MOL0     H38480  10.251  -1.004   1.791  0.7522  0.4201  0.8933
  279MOL0     H38481  10.127  -0.885   1.850 -1.4565 -1.8136  2.1216
  279MOL0     H38482   9.335  -1.491   2.164  1.3143  0.8204  0.8647
  279MOL0     H38483   9.105  -1.526   2.267  1.1007  0.0386  1.6187
  279MOL0     H38484   8.890  -1.923   2.481  0.1773 -0.1640  1.7380
  279MOL0     H38485   8.660  -2.033   2.551 -0.9413 -0.6420 -3.6024
  279MOL0     H38486   8.389  -0.234   2.066  1.3651  2.1051 -1.1466
  279MOL0     H38487   8.474  -0.013   2.108 -0.4985 -0.9068 -2.4618
  279MOL0     H38488   8.838   0.243   2.340 -3.0179 -1.0474  1.6478
  279MOL0     H38489   8.919   0.455   2.335  0.3180  0.0877 -2.2368
  279MOL0     H38490   8.910   0.802   2.211  0.1862 -0.0538  0.1216
  279MOL0     H38491   8.925   0.635   2.153 -2.9011 -1.3801 -0.3616
  279MOL0     H38492   8.710   0.678   2.023 -0.3057 -0.3021  2.7468
  279MOL0     H38493   8.857   0.759   1.973  0.1572 -4.5086  0.4073
  279MOL0     H38494   8.781   0.965   2.114 -0.8103  0.0121  0.3561
  279MOL0     H38495   8.717   0.946   1.949  1.8875 -0.9394 -0.3617
  279MOL0     H38496   8.553   1.018   2.153  0.8096  1.0388  0.3472
  279MOL0     H38497   8.584   0.859   2.206 -1.5002  4.4255  3.3657
  279MOL0     H38498   8.303   0.781   1.890 -0.5379  2.7001 -0.8739
  279MOL0     H38499   8.544   0.603   2.175  1.2377  1.0756  1.1797
  279MOL0     H38500   8.405   0.308   2.102 -0.1600 -0.4802  0.3257
  279MOL0     H38501   8.352   0.313   2.274  2.0514 -3.2642 -0.9150
  279MOL0     H38502   8.379   0.466   2.170  3.3342  0.8026  0.8160
  280MOL0     O38503   0.695   3.579  10.480  0.0145  0.2440 -0.6089
  280MOL0     C38504   0.643   3.682  10.498  1.1802  0.4608  0.3354
  280MOL0     O38505   0.704   3.800  10.520 -0.4093  0.5205  0.5494
  280MOL0     C38506   0.835   3.799  10.491 -1.2532 -0.1355 -0.1134
  280MOL0     C38507   0.924   3.800  10.599 -0.3641  0.9259  0.0876
  280MOL0     C38508   1.061   3.763  10.594 -0.2963  0.3385  0.4615
  280MOL0     C38509   1.114   3.736  10.466  0.0362 -0.0173  0.3363
  280MOL0     O38510   1.248   3.724  10.431  0.3031 -1.1668 -0.6739
  280MOL0     C38511   1.344   3.742  10.536  0.1387  0.1154  0.1123
  280MOL0     C38512   1.477   3.711  10.465  0.1079 -0.9656  0.6144
  280MOL0     C38513   1.558   3.841  10.429 -0.4295  0.2253  0.4184
  280MOL0     C38514   1.494   3.891  10.309 -0.1442 -0.6812 -0.2452
  280MOL0     C38515   1.559   4.021  10.258  0.5439 -0.6433  0.3275
  280MOL0     C38516   1.553   4.134  10.358 -0.8476  0.8409  0.1212
  280MOL0     C38517   1.583   4.280  10.317 -0.3885 -0.7316  0.1275
  280MOL0     C38518   1.729   4.301  10.289 -0.0376 -0.4849 -1.0322
  280MOL0     N38519   1.748   4.438  10.232  0.5762  0.1705 -0.0438
  280MOL0     C38520   1.830   4.537  10.283 -0.7033  0.3312 -0.3935
  280MOL0     C38521   1.827   4.632  10.193 -0.3054  1.3646  0.2795
  280MOL0     C38522   1.909   4.753  10.180  0.4367 -0.0133 -0.1636
  280MOL0     C38523   2.055   4.722  10.153 -0.3386 -0.3791 -0.5139
  280MOL0     C38524   2.078   4.744  10.001 -0.3123  0.1732  0.3348
  280MOL0     C38525   2.228   4.741   9.952 -0.1929  0.5806 -0.4702
  280MOL0     O38526   2.293   4.862   9.971  0.1099 -0.0603 -0.8453
  280MOL0     C38527   2.265   4.966   9.888 -1.0029 -0.9731  1.1536
  280MOL0     C38528   2.176   4.971   9.774 -0.0247  0.0666 -0.7413
  280MOL0     C38529   2.128   5.094   9.728  0.5879  0.3508 -1.2154
  280MOL0     C38530   2.008   5.087   9.636 -0.1791 -1.2455 -0.5572
  280MOL0     C38531   2.195   5.213   9.763 -0.7718 -1.4882  0.3921
  280MOL0     C38532   2.165   5.347   9.714 -0.2744  0.2207  0.6142
  280MOL0     O38533   2.263   5.444   9.723 -0.3236 -0.8494  0.1145
  280MOL0     C38534   2.234   5.574   9.699 -0.1611 -0.0292 -0.2869
  280MOL0     C38535   2.149   5.633   9.606  0.6744  0.1840  1.0328
  280MOL0     C38536   2.136   5.774   9.590  0.0919 -0.7242  0.1375
  280MOL0     C38537   2.211   5.857   9.684  0.3799  0.4989  0.1894
  280MOL0     O38538   2.198   5.996   9.673  0.6663  0.6682 -0.3441
  280MOL0     C38539   2.210   6.086   9.781 -0.6438 -0.3549  0.7531
  280MOL0     C38540   2.087   6.146   9.832 -0.1839  0.7963  0.8117
  280MOL0     C38541   2.021   6.241   9.733 -0.6387  0.2292 -0.2059
  280MOL0     C38542   2.034   6.399   9.760  1.0314 -0.1168  0.7181
  280MOL0     C38543   2.171   6.470   9.760 -0.1982  0.5074  0.3218
  280MOL0     C38544   2.182   6.555   9.631 -0.4439 -1.0622 -0.3558
  280MOL0     C38545   2.298   6.659   9.638 -0.5722 -0.3018 -0.0149
  280MOL0     C38546   2.292   6.787   9.546  0.6812 -0.3123  0.9353
  280MOL0    Cl38547   2.292   6.745   9.373 -0.3223  0.0123  0.5155
  280MOL0     C38548   2.301   5.796   9.775 -0.4037  0.5820 -0.0246
  280MOL0     C38549   2.310   5.661   9.772 -0.3826  0.1313 -0.7289
  280MOL0     O38550   2.043   5.374   9.690 -0.2504 -0.2602  0.1787
  280MOL0     C38551   2.311   5.202   9.845 -0.4917  0.2505  0.6907
  280MOL0     C38552   2.338   5.087   9.923  0.3787 -0.1234 -0.1750
  280MOL0     N38553   1.750   4.587  10.083  0.1636 -0.3812 -0.4313
  280MOL0     N38554   1.702   4.474  10.109  0.4614  0.9157 -0.7680
  280MOL0     C38555   1.020   3.764  10.358 -0.3876 -0.5387 -0.1387
  280MOL0     C38556   0.893   3.785  10.370  1.3191 -0.3494  0.8120
  280MOL0     C38557   0.504   3.694  10.504  0.4535  0.8663  0.0714
  280MOL0     C38558   0.428   3.771  10.587 -0.4566 -0.4279  0.0068
  280MOL0     C38559   0.291   3.775  10.585 -0.1802  0.0490 -0.0360
  280MOL0     C38560   0.221   3.698  10.498  0.0574  0.0649 -0.2322
  280MOL0     O38561   0.090   3.732  10.478  0.2179  1.2573  0.6310
  280MOL0     C38562   0.058   3.738  10.343  0.0137 -0.2615 -1.0515
  280MOL0     C38563  -0.087   3.803  10.332  0.2131 -0.1521 -0.7013
  280MOL0     C38564  -0.194   3.686  10.301 -0.1859 -0.7407  0.0530
  280MOL0     C38565  -0.330   3.747  10.246  0.4865 -0.5660 -0.7124
  280MOL0     C38566  -0.447   3.675  10.302 -0.0447  0.0011  0.6750
  280MOL0     C38567  -0.539   3.618  10.356 -1.2231 -0.2273 -0.7985
  280MOL0     C38568   0.288   3.599  10.417  1.2451 -0.2495 -0.0396
  280MOL0     C38569   0.426   3.598  10.425 -0.3007  0.1809  0.7987
  280MOL0     C38570   0.478   3.508  10.316 -0.4205  0.5110  0.7487
  280MOL0     H38571   0.886   3.819  10.699  1.9778  1.4929  0.9381
  280MOL0     H38572   1.125   3.762  10.682  0.2873  2.2710  0.1060
  280MOL0     H38573   1.329   3.662  10.610 -1.5545 -0.6838 -1.0388
  280MOL0     H38574   1.348   3.840  10.586 -0.6753  0.3160 -0.2085
  280MOL0     H38575   1.543   3.649  10.526  0.1685 -1.4251  0.0879
  280MOL0     H38576   1.461   3.644  10.381  1.7801 -0.9494  0.2360
  280MOL0     H38577   1.568   3.914  10.511  3.6465  1.0340 -0.6211
  280MOL0     H38578   1.658   3.802  10.414 -0.5516 -0.4043  1.1809
  280MOL0     H38579   1.493   3.823  10.223 -0.6437 -0.5910 -0.3137
  280MOL0     H38580   1.395   3.926  10.341  0.6044 -1.4967  3.3801
  280MOL0     H38581   1.490   4.042  10.176 -1.2637  1.0059  2.1609
  280MOL0     H38582   1.659   4.012  10.214  0.7116  1.5191  0.1724
  280MOL0     H38583   1.446   4.137  10.383 -1.2769  0.1144 -1.4987
  280MOL0     H38584   1.615   4.118  10.447 -1.5567  1.1521  0.6804
  280MOL0     H38585   1.543   4.346  10.395 -1.6575  1.1986 -2.0505
  280MOL0     H38586   1.522   4.314  10.233  2.0960  3.0468 -0.3641
  280MOL0     H38587   1.779   4.305  10.387  2.7519 -0.7243 -2.3500
  280MOL0     H38588   1.767   4.217  10.230 -0.2758  0.4155 -2.5080
  280MOL0     H38589   1.888   4.537  10.375  0.1123 -2.7344 -0.7786
  280MOL0     H38590   1.897   4.808  10.273 -0.5117 -2.8735  1.5238
  280MOL0     H38591   1.869   4.816  10.100 -0.5323  0.4348  0.6647
  280MOL0     H38592   2.130   4.787  10.201  0.9674 -0.0523 -2.8468
  280MOL0     H38593   2.077   4.618  10.178 -0.5424 -0.4560 -0.6506
  280MOL0     H38594   2.021   4.667   9.949 -2.5069  0.1737  2.5495
  280MOL0     H38595   2.051   4.846   9.970  1.2990  0.5660  0.1380
  280MOL0     H38596   2.285   4.657   9.993 -0.7219  1.1336  1.4970
  280MOL0     H38597   2.227   4.731   9.843 -0.0147  1.8939 -0.6102
  280MOL0     H38598   2.128   4.877   9.746  1.1877 -1.1645  1.0750
  280MOL0     H38599   1.922   5.143   9.675  1.5715 -0.2048  2.0553
  280MOL0     H38600   1.975   4.988   9.605  2.4898 -1.9827 -1.2304
  280MOL0     H38601   2.045   5.147   9.553 -0.5774  2.0918  1.4500
  280MOL0     H38602   2.090   5.581   9.531 -1.2731  2.5904  0.7737
  280MOL0     H38603   2.080   5.808   9.504 -0.2518 -1.2707  0.1325
  280MOL0     H38604   2.276   6.051   9.861  0.0020  2.4980  1.5668
  280MOL0     H38605   2.266   6.173   9.745  0.5919 -0.0262  3.1862
  280MOL0     H38606   2.022   6.062   9.859 -0.3940  0.8796  0.5671
  280MOL0     H38607   2.115   6.189   9.929  1.3333  1.2549  0.2047
  280MOL0     H38608   1.914   6.219   9.721 -0.9330  1.0115  0.7826
  280MOL0     H38609   2.062   6.225   9.633  2.9866 -2.6899  1.5670
  280MOL0     H38610   1.998   6.437   9.856 -2.1471  1.8911 -1.1206
  280MOL0     H38611   1.971   6.451   9.687  0.5162  1.5159  2.2612
  280MOL0     H38612   2.169   6.529   9.852  0.6099 -0.6619  1.1182
  280MOL0     H38613   2.252   6.397   9.762 -0.8078 -0.2560 -1.0291
  280MOL0     H38614   2.083   6.596   9.605  0.2680  0.7808 -0.3412
  280MOL0     H38615   2.190   6.490   9.544 -1.6015 -1.2842 -0.3173
  280MOL0     H38616   2.395   6.610   9.649 -0.0772  0.6284 -0.1378
  280MOL0     H38617   2.295   6.699   9.740 -0.3161 -0.4578  0.0530
  280MOL0     H38618   2.394   6.826   9.557  0.9414 -1.3345  2.5298
  280MOL0     H38619   2.205   6.849   9.570 -1.2969 -1.6279 -2.2556
  280MOL0     H38620   2.360   5.863   9.837  0.6530 -0.7756  0.4941
  280MOL0     H38621   2.389   5.620   9.835  0.2084 -0.0624 -1.5606
  280MOL0     H38622   2.354   5.295   9.880 -1.2622  1.3702 -1.1633
  280MOL0     H38623   2.405   5.076  10.008  0.7615  3.3470  0.1132
  280MOL0     H38624   1.068   3.766  10.261 -1.4004  1.9069 -0.6727
  280MOL0     H38625   0.832   3.799  10.280  1.7846  1.0857  0.6941
  280MOL0     H38626   0.470   3.850  10.649 -0.4023 -1.0809  0.8196
  280MOL0     H38627   0.251   3.855  10.647  2.9103  2.9364 -1.4593
  280MOL0     H38628   0.133   3.800  10.293 -0.0800 -0.4050 -1.3752
  280MOL0     H38629   0.059   3.642  10.290  0.5489 -0.1585 -1.2376
  280MOL0     H38630  -0.082   3.877  10.252  1.3954  1.0242  0.4069
  280MOL0     H38631  -0.111   3.850  10.428 -1.4056  0.1369 -1.2216
  280MOL0     H38632  -0.161   3.619  10.220 -0.3192  2.1636 -2.5742
  280MOL0     H38633  -0.200   3.628  10.393  3.0679 -1.0273  0.2307
  280MOL0     H38634  -0.329   3.761  10.138 -2.5981  3.5705 -0.4302
  280MOL0     H38635  -0.350   3.842  10.297 -2.9614 -0.1178 -2.6419
  280MOL0     H38636  -0.607   3.562  10.417 -0.3630 -0.4111  0.0193
  280MOL0     H38637   0.239   3.543  10.339 -1.2239 -0.1168  1.3192
  280MOL0     H38638   0.526   3.418  10.358 -0.2169  0.8966  1.3548
  280MOL0     H38639   0.397   3.463  10.259 -0.5145  1.4897  0.1001
  280MOL0     H38640   0.545   3.560  10.247 -0.4318 -1.1521 -0.5896
  281MOL0     O38641   1.084   7.135   7.195  0.4673  0.6416 -0.0762
  281MOL0     C38642   1.076   7.067   7.296 -0.1707 -0.0766  0.7785
  281MOL0     O38643   1.057   6.928   7.307 -0.4108 -0.1451 -0.2570
  281MOL0     C38644   1.043   6.851   7.197 -0.0190  0.3578 -0.3609
  281MOL0     C38645   0.940   6.752   7.199 -1.1885 -0.4945 -0.2463
  281MOL0     C38646   0.916   6.680   7.085  0.6159  0.4071 -0.1693
  281MOL0     C38647   0.996   6.701   6.967  0.5429 -0.8648  0.2725
  281MOL0     O38648   0.967   6.619   6.858 -0.5363 -0.1064 -0.7230
  281MOL0     C38649   1.050   6.615   6.745 -0.4174 -1.1233  0.8706
  281MOL0     C38650   1.062   6.471   6.693  0.5138  0.3284  0.5339
  281MOL0     C38651   1.129   6.467   6.556 -0.3621  0.1422 -0.0368
  281MOL0     C38652   1.196   6.332   6.513  0.1234  0.3594 -0.4400
  281MOL0     C38653   1.253   6.338   6.379 -0.8316 -0.4110 -0.2501
  281MOL0     C38654   1.272   6.198   6.316  0.7912  0.5527  0.0519
  281MOL0     C38655   1.348   6.212   6.185 -0.3209  0.1960  0.5721
  281MOL0     C38656   1.346   6.094   6.089  0.7947  0.1049 -0.1197
  281MOL0     N38657   1.416   5.975   6.145 -0.9628 -0.1890 -0.7046
  281MOL0     C38658   1.528   5.928   6.077 -0.7256  0.9915  0.1557
  281MOL0     C38659   1.559   5.813   6.140 -0.3913  0.5928 -0.2816
  281MOL0     C38660   1.658   5.713   6.091  0.0522 -1.0196 -0.0897
  281MOL0     C38661   1.601   5.637   5.974 -0.2627  0.3179  0.2673
  281MOL0     C38662   1.509   5.521   6.013 -0.0690 -0.8638  0.3797
  281MOL0     C38663   1.493   5.429   5.900  0.4510 -0.3389 -0.1826
  281MOL0     O38664   1.414   5.477   5.796 -0.6212  0.1492 -0.2718
  281MOL0     C38665   1.360   5.380   5.710 -0.0857  0.4575  0.0213
  281MOL0     C38666   1.285   5.423   5.599 -0.2800 -0.6587  0.4084
  281MOL0     C38667   1.233   5.336   5.493 -0.5937  0.7366 -0.0997
  281MOL0     C38668   1.141   5.389   5.394 -0.6887 -0.5519  0.3728
  281MOL0     C38669   1.284   5.202   5.497  0.8110  1.1744 -0.4955
  281MOL0     C38670   1.265   5.104   5.392 -0.2098  0.0694 -0.8488
  281MOL0     O38671   1.312   4.977   5.414  0.7277 -0.0081  0.3925
  281MOL0     C38672   1.292   4.879   5.319  0.1154  0.2138 -0.0796
  281MOL0     C38673   1.279   4.743   5.354 -0.2681  0.2762  0.3390
  281MOL0     C38674   1.272   4.645   5.256  0.6100 -0.7139  0.3039
  281MOL0     C38675   1.281   4.668   5.119 -0.3903 -0.6845 -0.2554
  281MOL0     O38676   1.253   4.559   5.043 -0.4137 -0.1464 -0.0396
  281MOL0     C38677   1.186   4.566   4.917  0.4294  0.4562  0.2231
  281MOL0     C38678   1.077   4.462   4.907 -0.8558 -0.7357 -0.2280
  281MOL0     C38679   1.136   4.320   4.896  0.1760 -0.5182 -0.5333
  281MOL0     C38680   1.134   4.231   5.014  0.8905 -0.1666  0.3900
  281MOL0     C38681   1.198   4.090   4.983 -0.2817 -0.6078  0.3132
  281MOL0     C38682   1.214   4.006   5.105 -0.1799 -0.2690 -0.5685
  281MOL0     C38683   1.266   3.865   5.062 -0.3005 -0.3207  0.3077
  281MOL0     C38684   1.406   3.870   5.027  1.0820  1.0852  0.0982
  281MOL0    Cl38685   1.482   3.700   5.079  0.0430 -0.0232 -0.1400
  281MOL0     C38686   1.305   4.802   5.081  0.2583  0.4597 -0.2431
  281MOL0     C38687   1.309   4.906   5.178  0.8259  0.2512 -0.5471
  281MOL0     O38688   1.180   5.133   5.302 -0.7098 -0.3080  0.4095
  281MOL0     C38689   1.360   5.156   5.610 -1.0173 -1.6450  0.7517
  281MOL0     C38690   1.403   5.238   5.703 -0.1925  0.0381 -0.1465
  281MOL0     N38691   1.463   5.790   6.233 -0.0978 -0.0782 -0.2003
  281MOL0     N38692   1.383   5.894   6.243  0.2087 -0.3148 -0.2648
  281MOL0     C38693   1.102   6.792   6.972  0.1199  0.3563 -0.4125
  281MOL0     C38694   1.129   6.873   7.088 -0.2323  0.2640  0.0831
  281MOL0     C38695   1.056   7.146   7.424 -0.2132  0.5791  0.3661
  281MOL0     C38696   0.988   7.077   7.531 -0.9500  0.4132 -0.3059
  281MOL0     C38697   0.984   7.139   7.656  1.4405  0.3512  0.4112
  281MOL0     C38698   1.040   7.260   7.675 -1.0841  0.4026 -0.0133
  281MOL0     O38699   1.039   7.338   7.791 -0.5956 -0.0208  0.5161
  281MOL0     C38700   0.992   7.277   7.913  0.6785  0.5181 -0.0517
  281MOL0     C38701   0.920   7.369   8.008  0.5407  0.4241 -0.7535
  281MOL0     C38702   0.831   7.290   8.096  0.8255 -0.2329  0.5939
  281MOL0     C38703   0.764   7.387   8.196  0.2895  0.3331  0.8509
  281MOL0     C38704   0.870   7.418   8.288 -0.3966 -0.4603 -0.6890
  281MOL0     C38705   0.950   7.431   8.382 -0.0526 -0.0270  0.2163
  281MOL0     C38706   1.096   7.327   7.564  0.3874  0.1524  0.1331
  281MOL0     C38707   1.111   7.274   7.439  0.2810 -0.1469 -0.3249
  281MOL0     C38708   1.177   7.366   7.332 -0.5607 -0.3406 -0.8661
  281MOL0     H38709   0.886   6.741   7.292 -2.6787 -1.8314 -1.2028
  281MOL0     H38710   0.834   6.610   7.097 -0.6276  2.1258  2.0830
  281MOL0     H38711   1.153   6.645   6.769 -0.9536  2.1170 -0.3040
  281MOL0     H38712   1.008   6.674   6.663 -0.5697 -2.7723 -0.2915
  281MOL0     H38713   1.134   6.409   6.747 -0.6441 -1.4197  0.1391
  281MOL0     H38714   0.962   6.431   6.674  0.4630  0.6239  0.1693
  281MOL0     H38715   1.070   6.505   6.472 -0.9325 -2.4997 -0.9229
  281MOL0     H38716   1.207   6.544   6.561  0.0352 -0.3312  1.7337
  281MOL0     H38717   1.268   6.286   6.581  2.4134 -2.3462 -4.3249
  281MOL0     H38718   1.117   6.256   6.513  2.9643 -2.8537 -0.5960
  281MOL0     H38719   1.351   6.385   6.385 -1.0636 -0.0285  0.6531
  281MOL0     H38720   1.188   6.388   6.307  2.1509 -0.7862 -3.4246
  281MOL0     H38721   1.326   6.133   6.386  2.2213  3.0695  1.4343
  281MOL0     H38722   1.174   6.151   6.306  0.4853  1.2006 -0.0756
  281MOL0     H38723   1.448   6.245   6.216 -0.9331  3.6092 -0.6443
  281MOL0     H38724   1.295   6.296   6.140 -2.1118 -2.6271 -3.1671
  281MOL0     H38725   1.241   6.067   6.074 -0.1981 -0.2852  5.3057
  281MOL0     H38726   1.392   6.119   5.993  2.7240 -0.0212  0.7325
  281MOL0     H38727   1.593   5.955   5.995  0.3712  0.5293  0.8621
  281MOL0     H38728   1.692   5.641   6.166  0.4464 -4.0497 -2.9568
  281MOL0     H38729   1.740   5.779   6.061 -0.8925  0.8513  1.2455
  281MOL0     H38730   1.549   5.704   5.904  1.7135  2.8047  0.9964
  281MOL0     H38731   1.688   5.606   5.915  1.3167  0.0854  2.5675
  281MOL0     H38732   1.545   5.465   6.100  2.0509 -0.9467 -0.4943
  281MOL0     H38733   1.417   5.574   6.038  0.7557  0.5198  0.5760
  281MOL0     H38734   1.593   5.410   5.859 -0.5906 -2.8047 -1.8150
  281MOL0     H38735   1.452   5.336   5.941  0.1223 -0.0353  0.1822
  281MOL0     H38736   1.256   5.527   5.589 -0.7577 -0.7414  0.8997
  281MOL0     H38737   1.184   5.400   5.294  0.3363 -1.5546  0.6894
  281MOL0     H38738   1.119   5.491   5.429 -3.3349 -0.4074 -1.3979
  281MOL0     H38739   1.057   5.320   5.391 -1.3430  0.1672 -3.6740
  281MOL0     H38740   1.283   4.710   5.458  0.8144 -2.9589 -0.6127
  281MOL0     H38741   1.250   4.549   5.300  0.8512  0.6937  3.8454
  281MOL0     H38742   1.145   4.668   4.918  1.2308  0.7993 -0.2864
  281MOL0     H38743   1.251   4.563   4.828 -2.7845  3.7226 -2.5431
  281MOL0     H38744   1.015   4.470   4.997  1.0764 -2.9990  1.4076
  281MOL0     H38745   1.021   4.489   4.817  0.2554  0.9163 -0.4795
  281MOL0     H38746   1.235   4.312   4.849 -0.1390 -1.0247 -1.1310
  281MOL0     H38747   1.065   4.265   4.833  0.9497 -2.0784 -0.0982
  281MOL0     H38748   1.030   4.212   5.044  0.4987 -0.2725 -0.9933
  281MOL0     H38749   1.181   4.285   5.096  1.0785  0.7840 -0.3306
  281MOL0     H38750   1.131   4.051   4.907  2.2494 -0.6147 -2.0616
  281MOL0     H38751   1.294   4.114   4.936 -1.9738  4.0039 -1.3865
  281MOL0     H38752   1.118   4.000   5.159 -0.1467  0.0945 -0.4699
  281MOL0     H38753   1.277   4.052   5.182 -0.9261 -3.7801  2.4421
  281MOL0     H38754   1.214   3.821   4.976 -0.0669 -0.5331  0.2758
  281MOL0     H38755   1.248   3.792   5.142 -0.4307 -1.0994 -0.4228
  281MOL0     H38756   1.447   3.941   5.099  1.2975 -2.6872  4.1037
  281MOL0     H38757   1.432   3.886   4.922 -0.8787  1.6319 -0.3482
  281MOL0     H38758   1.314   4.826   4.975 -0.1459  2.9529  0.2207
  281MOL0     H38759   1.327   5.006   5.141 -0.4321  0.4757 -0.6018
  281MOL0     H38760   1.407   5.058   5.607  2.0983 -0.3029 -3.6533
  281MOL0     H38761   1.461   5.188   5.780 -2.2417 -1.6684  0.3973
  281MOL0     H38762   1.181   6.786   6.898  0.0132  1.3608 -0.6229
  281MOL0     H38763   1.213   6.942   7.095 -0.4646  0.4197  5.6031
  281MOL0     H38764   0.931   6.987   7.507 -0.7769  0.1529  0.2396
  281MOL0     H38765   0.927   7.082   7.730  3.1403 -1.7638  0.1802
  281MOL0     H38766   0.917   7.197   7.902 -0.6720  1.7225  0.0419
  281MOL0     H38767   1.080   7.240   7.967  0.7140 -0.1799 -0.5803
  281MOL0     H38768   0.854   7.438   7.954 -0.0737  1.2819  1.0049
  281MOL0     H38769   0.996   7.430   8.058  1.1045 -0.9297  0.1089
  281MOL0     H38770   0.757   7.223   8.051  1.8268  0.1765 -1.7828
  281MOL0     H38771   0.895   7.222   8.155  0.1224 -0.0841  1.5598
  281MOL0     H38772   0.687   7.346   8.262 -0.2632 -0.1338 -0.0555
  281MOL0     H38773   0.716   7.472   8.147 -1.9960 -0.9813  0.6636
  281MOL0     H38774   1.005   7.427   8.474 -2.4791  0.9461  1.8205
  281MOL0     H38775   1.132   7.429   7.574 -3.6580  1.9961 -1.7206
  281MOL0     H38776   1.285   7.347   7.323 -0.5268  0.1929 -1.7232
  281MOL0     H38777   1.127   7.356   7.236 -0.5124 -2.3443 -0.7102
  281MOL0     H38778   1.168   7.471   7.361 -0.1595 -0.6934  0.6580
  282MOL0     O38779   6.950   9.754   1.350 -0.6431  1.4486  0.4315
  282MOL0     C38780   6.911   9.639   1.365 -0.1713 -0.2962  0.2572
  282MOL0     O38781   6.978   9.531   1.314 -0.9109  0.5721  0.2577
  282MOL0     C38782   7.102   9.522   1.260 -1.1871 -0.3052  0.6640
  282MOL0     C38783   7.175   9.631   1.201 -0.4657  0.3370 -0.2706
  282MOL0     C38784   7.288   9.625   1.128  0.5787  0.3645  0.4724
  282MOL0     C38785   7.350   9.503   1.111  1.1149 -0.1567  0.6645
  282MOL0     O38786   7.450   9.493   1.021  0.8549  0.1559 -0.1063
  282MOL0     C38787   7.535   9.382   1.018  0.1908  0.7020  0.5910
  282MOL0     C38788   7.524   9.318   0.884 -0.2577 -0.2059  0.2573
  282MOL0     C38789   7.583   9.401   0.771 -0.0253 -0.1559  0.1044
  282MOL0     C38790   7.568   9.328   0.633 -0.3916 -1.2654 -0.2348
  282MOL0     C38791   7.658   9.393   0.529 -0.6207 -0.1243 -0.0658
  282MOL0     C38792   7.621   9.338   0.383 -0.2961  0.1729  0.1705
  282MOL0     C38793   7.723   9.390   0.271  0.1145 -0.8981  0.9179
  282MOL0     C38794   7.669   9.348   0.144 -0.4417  0.0959  0.8802
  282MOL0     N38795   7.713   9.216   0.113 -0.3363  0.0684 -0.2200
  282MOL0     C38796   7.836   9.178   0.081  0.0651 -1.1535  0.2212
  282MOL0     C38797   7.817   9.054   0.027  0.5436 -0.4450 -0.8397
  282MOL0     C38798   7.920   8.974  -0.038  0.9796  0.0775 -0.6665
  282MOL0     C38799   7.960   8.855   0.063 -0.2995 -0.6339 -0.1200
  282MOL0     C38800   8.065   8.764  -0.006  0.7654 -0.2242 -0.1856
  282MOL0     C38801   8.046   8.730  -0.154 -0.8255 -1.0353  0.1806
  282MOL0     O38802   8.147   8.635  -0.208  0.2607 -0.2399  0.2786
  282MOL0     C38803   8.158   8.505  -0.156 -1.4092 -0.9705  0.5586
  282MOL0     C38804   8.064   8.447  -0.071  0.2200 -0.7549 -0.1373
  282MOL0     C38805   8.078   8.304  -0.024  0.4398  0.4696 -0.3412
  282MOL0     C38806   7.969   8.238   0.055  0.0196 -0.3529 -0.0749
  282MOL0     C38807   8.194   8.236  -0.065 -0.2423 -0.1845  0.1784
  282MOL0     C38808   8.214   8.101  -0.005  0.1916  0.3198  0.1178
  282MOL0     O38809   8.172   7.995  -0.084 -0.2564  0.1953  0.6527
  282MOL0     C38810   8.203   7.859  -0.059 -0.5201 -0.4035 -0.0517
  282MOL0     C38811   8.131   7.783   0.037  1.3773  0.7024  0.5972
  282MOL0     C38812   8.151   7.636   0.034  0.6476 -0.1301 -0.0980
  282MOL0     C38813   8.245   7.580  -0.045 -0.3254  0.3099  0.2766
  282MOL0     O38814   8.274   7.445  -0.036  0.2587 -0.5322 -0.1188
  282MOL0     C38815   8.414   7.401  -0.068  0.3998  0.0603  0.2301
  282MOL0     C38816   8.502   7.432   0.056  0.0397  0.5232  0.6344
  282MOL0     C38817   8.446   7.346   0.174 -0.1552 -0.4396 -0.5468
  282MOL0     C38818   8.538   7.367   0.303 -0.1030  0.4515  0.4474
  282MOL0     C38819   8.480   7.324   0.440 -0.1898  1.4348 -0.0752
  282MOL0     C38820   8.480   7.171   0.436  0.6069  1.0092  0.1777
  282MOL0     C38821   8.389   7.123   0.541  1.3651  0.8240  0.5162
  282MOL0     C38822   8.379   6.975   0.519 -0.1102  0.2135 -0.7696
  282MOL0    Cl38823   8.324   6.909   0.678  0.5536  0.4655  0.0273
  282MOL0     C38824   8.309   7.662  -0.142 -0.3093  0.3510 -0.2679
  282MOL0     C38825   8.299   7.803  -0.144  0.8316  0.7873  0.1614
  282MOL0     O38826   8.252   8.098   0.110 -0.2163  0.7621 -0.2483
  282MOL0     C38827   8.287   8.297  -0.153  0.9111 -0.4054  0.2176
  282MOL0     C38828   8.262   8.426  -0.206  0.5316  1.4740 -1.3011
  282MOL0     N38829   7.683   9.017   0.025 -0.6051  0.0878 -0.0917
  282MOL0     N38830   7.619   9.117   0.076 -0.2334 -0.4366 -0.0708
  282MOL0     C38831   7.282   9.390   1.157 -0.6695 -0.1617  0.7508
  282MOL0     C38832   7.158   9.398   1.230 -0.0381 -0.2198 -0.4191
  282MOL0     C38833   6.762   9.628   1.399 -0.1306  0.4648 -0.1024
  282MOL0     C38834   6.679   9.745   1.419  0.0902 -0.2142 -0.9617
  282MOL0     C38835   6.549   9.736   1.446 -0.3117 -0.0307 -0.1038
  282MOL0     C38836   6.494   9.618   1.492 -0.0924 -0.3871 -0.2810
  282MOL0     O38837   6.359   9.627   1.503  0.1459  0.1823  0.2368
  282MOL0     C38838   6.282   9.511   1.554  0.4893  0.7973  0.1900
  282MOL0     C38839   6.146   9.525   1.492 -1.0370  0.6341 -1.1631
  282MOL0     C38840   6.083   9.380   1.498  0.3272  0.3400  0.1491
  282MOL0     C38841   5.940   9.398   1.458 -0.2743  0.4354  0.2187
  282MOL0     C38842   5.870   9.278   1.435 -0.2275  0.6167  0.0409
  282MOL0     C38843   5.803   9.176   1.431 -0.4020 -0.0190  1.1381
  282MOL0     C38844   6.569   9.503   1.494  0.2930 -0.4416 -0.1302
  282MOL0     C38845   6.697   9.500   1.433 -1.3614  0.1404 -0.6773
  282MOL0     C38846   6.773   9.367   1.461 -0.2329  0.2618  0.6783
  282MOL0     H38847   7.140   9.734   1.203 -3.9981 -0.6879 -1.4928
  282MOL0     H38848   7.325   9.717   1.084 -0.0402  0.7311  0.7016
  282MOL0     H38849   7.527   9.319   1.107 -1.9843  1.5037  1.0160
  282MOL0     H38850   7.638   9.415   1.040  0.4178  2.4048 -2.4814
  282MOL0     H38851   7.582   9.225   0.895  2.7189  1.6998  2.4667
  282MOL0     H38852   7.417   9.305   0.868  0.0409 -0.6690 -1.5441
  282MOL0     H38853   7.526   9.494   0.762 -1.0392 -0.8918 -1.9030
  282MOL0     H38854   7.686   9.422   0.799 -0.4380  0.4246  1.2438
  282MOL0     H38855   7.604   9.226   0.653 -0.2678 -0.6655  3.2501
  282MOL0     H38856   7.463   9.322   0.603 -1.0562 -2.3966  2.0203
  282MOL0     H38857   7.766   9.389   0.543 -0.6914 -0.6235  0.3387
  282MOL0     H38858   7.635   9.500   0.530  0.8311  0.2038  0.3070
  282MOL0     H38859   7.625   9.229   0.385  1.9463  0.1587 -1.2797
  282MOL0     H38860   7.514   9.355   0.366 -2.3764 -3.4529  6.2902
  282MOL0     H38861   7.820   9.344   0.292  1.0650  0.5365 -0.1533
  282MOL0     H38862   7.730   9.499   0.275 -0.2903 -0.8900  1.7026
  282MOL0     H38863   7.560   9.352   0.140 -0.4650 -0.7790  0.6047
  282MOL0     H38864   7.711   9.407   0.062 -0.4591  0.6146  1.2395
  282MOL0     H38865   7.922   9.239   0.106 -0.9109 -0.3897  1.8573
  282MOL0     H38866   8.008   9.036  -0.056  2.2579 -1.4950 -0.0862
  282MOL0     H38867   7.875   8.933  -0.129 -0.8718  0.3191  0.1042
  282MOL0     H38868   8.003   8.886   0.158 -2.6515  1.1771  0.4424
  282MOL0     H38869   7.866   8.803   0.080 -1.2629  1.0246 -0.0945
  282MOL0     H38870   8.161   8.813   0.014  1.3959 -0.7320 -1.8139
  282MOL0     H38871   8.075   8.675   0.058  0.4570 -0.8121 -0.9405
  282MOL0     H38872   7.944   8.707  -0.187 -0.5902  0.4308 -1.7816
  282MOL0     H38873   8.076   8.824  -0.202 -0.4008 -1.3754 -0.2359
  282MOL0     H38874   7.970   8.498  -0.050 -1.2321 -3.8671  1.6520
  282MOL0     H38875   8.008   8.167   0.129  2.1853  1.3864  0.5938
  282MOL0     H38876   7.895   8.187  -0.006  1.0137  0.6566 -2.2384
  282MOL0     H38877   7.911   8.323   0.093  0.9672  0.7860 -1.0710
  282MOL0     H38878   8.067   7.823   0.115 -0.2935 -1.0666  0.2224
  282MOL0     H38879   8.101   7.579   0.111  0.2764 -1.5456 -1.3485
  282MOL0     H38880   8.430   7.295  -0.090 -0.5126  0.2836 -1.8140
  282MOL0     H38881   8.439   7.450  -0.163  0.5260  0.9764  0.7216
  282MOL0     H38882   8.604   7.393   0.042 -0.7249 -1.1853 -0.6093
  282MOL0     H38883   8.500   7.537   0.085  0.2650  0.4816  0.8055
  282MOL0     H38884   8.451   7.239   0.152 -0.5899 -1.2989  2.9939
  282MOL0     H38885   8.342   7.367   0.198  0.3658 -1.0063  2.5547
  282MOL0     H38886   8.560   7.474   0.302 -0.5694  0.5669 -0.8916
  282MOL0     H38887   8.628   7.309   0.280 -0.2780  0.7886 -1.2678
  282MOL0     H38888   8.553   7.366   0.510  1.1255  0.4139 -0.7758
  282MOL0     H38889   8.377   7.360   0.441 -0.9836 -0.6667  0.8651
  282MOL0     H38890   8.578   7.127   0.453  0.1326  0.2248  0.9781
  282MOL0     H38891   8.445   7.138   0.338  0.2369  0.2862  0.5511
  282MOL0     H38892   8.284   7.153   0.538  0.7609 -1.1717 -0.5291
  282MOL0     H38893   8.426   7.150   0.641 -0.7934  0.2031  1.5516
  282MOL0     H38894   8.472   6.933   0.478 -0.5415 -2.2789  0.6587
  282MOL0     H38895   8.298   6.960   0.447 -0.4666  2.3444 -0.8736
  282MOL0     H38896   8.378   7.628  -0.219 -0.4320  0.2841 -0.3496
  282MOL0     H38897   8.353   7.865  -0.215 -2.2484  0.2386 -2.8978
  282MOL0     H38898   8.369   8.237  -0.191  3.9755  1.7864  2.7510
  282MOL0     H38899   8.317   8.463  -0.292 -0.9225 -0.2820 -3.0828
  282MOL0     H38900   7.298   9.292   1.113 -1.2294  1.2143 -2.8791
  282MOL0     H38901   7.114   9.304   1.261  1.3383 -0.1392  1.9607
  282MOL0     H38902   6.720   9.842   1.394 -2.7086  0.5215 -3.3180
  282MOL0     H38903   6.488   9.826   1.440  1.6459  1.5995  2.3349
  282MOL0     H38904   6.319   9.420   1.504 -0.9934  0.4169 -0.2543
  282MOL0     H38905   6.290   9.507   1.663 -0.2629  0.4135  0.2353
  282MOL0     H38906   6.157   9.567   1.391  0.3400  0.6799 -1.0200
  282MOL0     H38907   6.089   9.590   1.559 -0.1870  0.5003 -0.2950
  282MOL0     H38908   6.143   9.325   1.425 -0.7492 -1.9328  0.8843
  282MOL0     H38909   6.080   9.327   1.593 -4.0086 -0.7655 -0.4101
  282MOL0     H38910   5.939   9.449   1.361  0.5890  0.6126  0.2987
  282MOL0     H38911   5.893   9.461   1.534 -0.7724 -2.2181  2.2829
  282MOL0     H38912   5.742   9.088   1.420 -0.0728 -0.0204 -1.5908
  282MOL0     H38913   6.528   9.409   1.530  0.0322  0.2708  1.5456
  282MOL0     H38914   6.833   9.333   1.376 -1.5029  0.7769 -0.4695
  282MOL0     H38915   6.833   9.391   1.549  1.3198  1.7461 -0.7140
  282MOL0     H38916   6.706   9.282   1.480  0.3531 -0.4850 -0.4881
  283MOL0     O38917  10.347  10.650   4.684 -1.0005  0.0316  0.5343
  283MOL0     C38918  10.444  10.672   4.755 -1.1763  0.1446  0.4936
  283MOL0     O38919  10.582  10.678   4.716  0.7648  0.2912 -0.7041
  283MOL0     C38920  10.602  10.665   4.582  0.1619  0.0283  0.1646
  283MOL0     C38921  10.534  10.737   4.482 -0.0095  0.7037  0.5191
  283MOL0     C38922  10.552  10.710   4.343 -1.4719  0.4618  0.0932
  283MOL0     C38923  10.651  10.625   4.301 -0.7168  0.2881  0.2292
  283MOL0     O38924  10.669  10.582   4.172 -0.7053 -0.8083  0.3364
  283MOL0     C38925  10.655  10.676   4.058  0.1145 -0.4330  0.6552
  283MOL0     C38926  10.786  10.751   4.027 -0.3350  0.8731 -0.4405
  283MOL0     C38927  10.886  10.644   3.977 -1.1788  0.4690 -0.1973
  283MOL0     C38928  11.023  10.677   4.021  0.1655 -0.9197 -1.0477
  283MOL0     C38929  11.132  10.597   3.972 -0.6574  1.3416  0.4208
  283MOL0     C38930  11.265  10.635   4.041  0.8984 -0.5966  0.1293
  283MOL0     C38931  11.363  10.511   4.025 -0.4413  0.2334 -1.0381
  283MOL0     C38932  11.491  10.548   4.119 -0.6738  0.8717 -0.0139
  283MOL0     N38933  11.591  10.432   4.126 -0.3974 -0.0515  0.1892
  283MOL0     C38934  11.566  10.329   4.205  0.2756  0.4939 -0.9235
  283MOL0     C38935  11.653  10.234   4.144 -0.4109 -0.4094  0.3750
  283MOL0     C38936  11.664  10.094   4.189  0.1002  0.4090 -0.4300
  283MOL0     C38937  11.534  10.023   4.205  0.1137 -0.4336  0.9140
  283MOL0     C38938  11.460  10.019   4.067  0.4579  1.1982  0.9304
  283MOL0     C38939  11.400   9.880   4.032  0.1233 -0.7962 -0.3701
  283MOL0     O38940  11.309   9.838   4.136 -0.1238 -0.5637  0.1702
  283MOL0     C38941  11.350   9.750   4.237 -0.4728  0.5545  0.0764
  283MOL0     C38942  11.328   9.791   4.373  0.3893 -1.2410  0.3739
  283MOL0     C38943  11.365   9.712   4.488  0.2830 -0.4570 -0.0338
  283MOL0     C38944  11.325   9.766   4.631 -0.0013 -0.8584 -0.0766
  283MOL0     C38945  11.446   9.599   4.468 -0.6399 -0.0513  0.7276
  283MOL0     C38946  11.500   9.506   4.583  0.5202  0.4544  0.3838
  283MOL0     O38947  11.551   9.383   4.538 -0.2702  0.3661  0.3652
  283MOL0     C38948  11.617   9.299   4.630 -0.3845 -1.2570  0.1256
  283MOL0     C38949  11.556   9.228   4.729 -0.1939 -0.1245  0.4254
  283MOL0     C38950  11.625   9.139   4.815 -0.5904 -0.0814  0.3060
  283MOL0     C38951  11.767   9.116   4.796  0.8346 -0.4148 -0.1792
  283MOL0     O38952  11.824   9.034   4.885  0.1241  0.0001 -0.0737
  283MOL0     C38953  11.970   9.004   4.861  0.5660  0.0682  0.0703
  283MOL0     C38954  12.040   8.942   4.979  0.6950 -0.5548 -0.6649
  283MOL0     C38955  11.972   8.820   5.036 -0.0103 -0.2773 -0.2299
  283MOL0     C38956  11.982   8.705   4.946  1.6800 -0.5706  0.2535
  283MOL0     C38957  11.973   8.568   5.013  0.4306  0.3772 -0.2714
  283MOL0     C38958  11.820   8.538   5.047 -0.3631 -0.3879  0.0281
  283MOL0     C38959  11.804   8.418   5.143 -0.0733  0.5995 -0.2895
  283MOL0     C38960  11.662   8.350   5.138 -0.5854  0.0057  0.5466
  283MOL0    Cl38961  11.599   8.311   5.295  0.7275  0.1593  0.0850
  283MOL0     C38962  11.828   9.189   4.692  1.0214  0.2362  0.7467
  283MOL0     C38963  11.751   9.278   4.615  1.1747  0.4204  0.6601
  283MOL0     O38964  11.499   9.552   4.696  0.0196 -0.2154 -0.1269
  283MOL0     C38965  11.473   9.557   4.336  1.1349  0.1838 -0.0199
  283MOL0     C38966  11.417   9.624   4.221 -0.2919 -0.0254 -0.1891
  283MOL0     N38967  11.713  10.293   4.036  0.5975  0.4220  0.2687
  283MOL0     N38968  11.680  10.412   4.029  0.5989 -0.3333  0.2662
  283MOL0     C38969  10.730  10.554   4.399 -1.1795 -0.0574  0.3513
  283MOL0     C38970  10.705  10.583   4.537 -0.1291  0.0785  0.7007
  283MOL0     C38971  10.430  10.713   4.897  0.3848 -0.2062  0.3977
  283MOL0     C38972  10.499  10.832   4.932  0.2144 -0.7409  0.4949
  283MOL0     C38973  10.475  10.879   5.060 -0.3616 -0.1420  0.5178
  283MOL0     C38974  10.382  10.820   5.154  0.0030  0.0191  0.7179
  283MOL0     O38975  10.364  10.874   5.278 -0.5183  0.3819 -0.3371
  283MOL0     C38976  10.471  10.828   5.358  0.3086 -0.3379  0.7086
  283MOL0     C38977  10.415  10.817   5.499 -0.0383  0.4384 -0.2858
  283MOL0     C38978  10.332  10.690   5.502  1.4755 -0.4173  0.2200
  283MOL0     C38979  10.242  10.679   5.630  0.4485 -0.4325 -0.8903
  283MOL0     C38980  10.148  10.782   5.659 -0.8912 -0.6036  0.5244
  283MOL0     C38981  10.077  10.878   5.667 -0.5815  0.0414 -0.1553
  283MOL0     C38982  10.317  10.711   5.111  0.1873 -0.4496 -0.5729
  283MOL0     C38983  10.340  10.652   4.984  0.0018 -0.8151  0.4930
  283MOL0     C38984  10.260  10.532   4.958 -0.3744 -1.1717  0.7541
  283MOL0     H38985  10.462  10.810   4.516 -0.2866  0.0330  1.4308
  283MOL0     H38986  10.489  10.765   4.273 -0.4299  1.2007 -0.2865
  283MOL0     H38987  10.588  10.757   4.087  1.2700  0.1653  1.7678
  283MOL0     H38988  10.612  10.630   3.969  0.0372 -2.6194  1.7526
  283MOL0     H38989  10.775  10.823   3.946  0.0789  2.2292  0.6901
  283MOL0     H38990  10.816  10.814   4.111 -0.4291  1.3079 -0.7311
  283MOL0     H38991  10.865  10.542   4.010  2.5374 -0.2785  0.3715
  283MOL0     H38992  10.884  10.650   3.868  0.6920  0.8645 -0.2405
  283MOL0     H38993  11.053  10.777   3.990 -2.2047  0.8116  1.7338
  283MOL0     H38994  11.026  10.691   4.130  4.4363  2.1293 -1.3323
  283MOL0     H38995  11.145  10.607   3.864 -0.4076 -0.4896  0.2500
  283MOL0     H38996  11.110  10.495   4.005  0.8693  0.9969  0.4554
  283MOL0     H38997  11.314  10.722   3.996 -0.9853 -0.1932 -1.2666
  283MOL0     H38998  11.248  10.660   4.146 -3.2650 -1.6922 -0.0934
  283MOL0     H38999  11.402  10.501   3.923  3.1844 -1.1450  0.2859
  283MOL0     H39000  11.315  10.426   4.076 -1.5159  1.6762  0.4479
  283MOL0     H39001  11.540  10.635   4.075  1.0046 -0.7141 -1.4197
  283MOL0     H39002  11.459  10.571   4.221 -2.4511 -1.3849  0.0299
  283MOL0     H39003  11.509  10.319   4.297 -0.0392  0.4694 -1.1216
  283MOL0     H39004  11.717  10.103   4.284 -1.0536  3.6692  0.0412
  283MOL0     H39005  11.729  10.037   4.123  0.7431  3.0758 -2.2417
  283MOL0     H39006  11.553   9.918   4.229 -0.6519 -0.6693  0.5336
  283MOL0     H39007  11.463  10.065   4.276 -2.5471  0.0969 -1.8223
  283MOL0     H39008  11.386  10.094   4.096 -0.9063 -0.9060  3.3807
  283MOL0     H39009  11.527  10.043   3.984  2.0285  0.6604  1.9943
  283MOL0     H39010  11.343   9.892   3.939 -3.0115 -2.0385  1.2519
  283MOL0     H39011  11.487   9.815   4.020  1.5692  0.8850  0.6494
  283MOL0     H39012  11.283   9.890   4.375 -0.2752 -1.2894 -3.7763
  283MOL0     H39013  11.267   9.859   4.633  1.2826 -0.0443  0.8944
  283MOL0     H39014  11.403   9.788   4.704  2.9883 -0.4482 -3.1577
  283MOL0     H39015  11.258   9.693   4.678  0.4194 -0.3270  1.4177
  283MOL0     H39016  11.448   9.233   4.745  0.1541 -0.6575  3.6950
  283MOL0     H39017  11.576   9.083   4.895  0.2122 -2.0109 -0.4783
  283MOL0     H39018  11.977   8.937   4.775 -1.5553  0.5144 -0.4884
  283MOL0     H39019  12.021   9.099   4.845  0.8628  0.0679  0.9559
  283MOL0     H39020  12.148   8.926   4.966  1.2218 -0.5538  2.7525
  283MOL0     H39021  12.026   9.021   5.054  0.2978 -0.0949 -1.2148
  283MOL0     H39022  11.867   8.846   5.054  0.5370  2.0177 -0.0924
  283MOL0     H39023  12.029   8.800   5.127 -1.1974 -1.9774  0.2006
  283MOL0     H39024  12.079   8.704   4.894  2.2547 -1.9641  1.2822
  283MOL0     H39025  11.902   8.714   4.873 -1.1361 -1.8694  2.9587
  283MOL0     H39026  12.005   8.480   4.956 -0.2586  0.2645 -0.4900
  283MOL0     H39027  12.029   8.574   5.107 -0.1896  0.5604  0.0941
  283MOL0     H39028  11.767   8.524   4.952 -0.8193 -0.9366  0.3570
  283MOL0     H39029  11.778   8.619   5.107  4.0695  2.2236 -0.0039
  283MOL0     H39030  11.825   8.461   5.241  1.9457  1.1398 -0.9167
  283MOL0     H39031  11.886   8.347   5.132  0.9444  1.9769 -2.4166
  283MOL0     H39032  11.675   8.258   5.080 -1.5674  2.0178 -3.1680
  283MOL0     H39033  11.591   8.414   5.085 -1.9295 -0.3986  1.8140
  283MOL0     H39034  11.934   9.181   4.668  0.8991  0.5951  0.0574
  283MOL0     H39035  11.792   9.334   4.531 -2.1810 -1.8161 -2.8635
  283MOL0     H39036  11.535   9.471   4.313  2.1428  0.5773  1.0926
  283MOL0     H39037  11.451   9.594   4.122 -1.6055  0.1742 -0.7132
  283MOL0     H39038  10.820  10.498   4.376 -0.9758 -0.0696  1.1574
  283MOL0     H39039  10.766  10.532   4.611  1.6048  2.0297  0.7138
  283MOL0     H39040  10.573  10.868   4.862 -2.2242 -1.1899 -2.5444
  283MOL0     H39041  10.533  10.964   5.096 -0.8517 -0.3095  1.7264
  283MOL0     H39042  10.494  10.722   5.345 -1.3349 -0.6369 -0.0098
  283MOL0     H39043  10.561  10.888   5.346  0.5308 -0.9565 -1.0794
  283MOL0     H39044  10.364  10.911   5.524 -0.4000  1.0538 -3.0209
  283MOL0     H39045  10.490  10.806   5.577 -0.7313  1.5426  0.5690
  283MOL0     H39046  10.249  10.696   5.432 -0.4499 -1.8864  2.2430
  283MOL0     H39047  10.399  10.604   5.492  3.7144  1.4369 -2.2294
  283MOL0     H39048  10.310  10.654   5.712  1.6771  2.7924 -0.7952
  283MOL0     H39049  10.175  10.594   5.615 -0.8260  0.5468 -0.9614
  283MOL0     H39050  10.015  10.965   5.667 -1.2136 -0.3884 -1.2630
  283MOL0     H39051  10.247  10.678   5.186  0.3819  1.0923  0.3342
  283MOL0     H39052  10.286  10.483   4.864 -0.1437 -0.5214  0.4694
  283MOL0     H39053  10.251  10.457   5.037 -3.8756 -0.1151  1.5152
  283MOL0     H39054  10.155  10.562   4.957  0.0423  0.4362 -0.3921
  284MOL0     O39055   9.496   6.737   1.219  0.1032 -0.1989 -0.5714
  284MOL0     C39056   9.440   6.782   1.118 -1.4266  0.0996  0.6230
  284MOL0     O39057   9.451   6.730   0.993 -0.3989  0.0805 -0.0582
  284MOL0     C39058   9.527   6.619   0.983 -0.3078  1.0719 -0.2291
  284MOL0     C39059   9.668   6.627   0.961  0.0597 -0.3542 -0.4701
  284MOL0     C39060   9.737   6.508   0.945 -0.0376  0.6830  1.3909
  284MOL0     C39061   9.677   6.380   0.940 -0.6676 -0.7514 -0.2535
  284MOL0     O39062   9.763   6.273   0.936  0.1330 -0.7141 -0.7406
  284MOL0     C39063   9.704   6.168   0.877  0.1350  0.0960  1.0506
  284MOL0     C39064   9.791   6.041   0.856 -0.4176  0.2530  0.9351
  284MOL0     C39065   9.914   6.041   0.758 -0.2707  0.1505  0.7653
  284MOL0     C39066   9.986   5.896   0.764 -0.1726 -0.2344 -0.2804
  284MOL0     C39067  10.111   5.916   0.693 -0.7919 -0.0123  1.0078
  284MOL0     C39068  10.160   5.789   0.617 -0.3188 -0.0578 -0.2238
  284MOL0     C39069  10.291   5.803   0.531  0.3492 -0.5192 -0.2983
  284MOL0     C39070  10.310   5.691   0.437 -0.7135  0.6290 -0.0391
  284MOL0     N39071  10.384   5.586   0.495 -0.6158  0.5962 -0.0256
  284MOL0     C39072  10.518   5.575   0.470  0.9886 -0.3235 -0.0270
  284MOL0     C39073  10.544   5.459   0.539 -0.2615 -2.0307  0.5183
  284MOL0     C39074  10.680   5.411   0.564  1.1427  0.4382  0.5441
  284MOL0     C39075  10.775   5.413   0.446 -0.4186  0.2744 -0.5305
  284MOL0     C39076  10.927   5.424   0.503 -0.7443 -1.0257  0.2079
  284MOL0     C39077  10.952   5.299   0.590  0.1023 -0.3285 -0.5937
  284MOL0     O39078  11.090   5.297   0.634 -0.1898 -0.2085 -0.7912
  284MOL0     C39079  11.134   5.207   0.729 -0.2933  0.3979 -0.6067
  284MOL0     C39080  11.235   5.249   0.815  0.9001  0.2146 -0.0402
  284MOL0     C39081  11.283   5.176   0.916 -0.6397  0.5534 -0.1292
  284MOL0     C39082  11.404   5.237   0.992 -0.1443 -0.6657 -0.9142
  284MOL0     C39083  11.231   5.048   0.944 -0.4955  0.1049  0.7844
  284MOL0     C39084  11.261   4.982   1.071 -0.3964 -0.1557 -0.3192
  284MOL0     O39085  11.235   5.061   1.184  0.6619 -0.1641  0.5995
  284MOL0     C39086  11.259   5.001   1.306 -0.0015  0.6263  0.3792
  284MOL0     C39087  11.394   4.997   1.359  0.5395 -0.0407  0.0093
  284MOL0     C39088  11.412   4.949   1.491  0.7610  0.0693 -0.1473
  284MOL0     C39089  11.304   4.890   1.564  0.0940  0.2498 -0.6393
  284MOL0     O39090  11.326   4.849   1.699  0.0283  0.6685  0.1243
  284MOL0     C39091  11.223   4.778   1.767  0.6276  0.9965  0.3461
  284MOL0     C39092  11.222   4.816   1.919 -0.5754 -0.2117 -0.1274
  284MOL0     C39093  11.168   4.957   1.926 -0.0968  0.3007 -0.6488
  284MOL0     C39094  11.160   5.017   2.069  0.8398 -0.4383  0.7469
  284MOL0     C39095  11.033   5.100   2.077 -0.3912 -0.2336  1.6276
  284MOL0     C39096  11.028   5.177   2.213 -0.8471 -1.0002 -0.5724
  284MOL0     C39097  11.123   5.299   2.240  0.4334 -0.1699  0.2226
  284MOL0     C39098  11.116   5.401   2.126  0.8254 -0.5814 -0.1899
  284MOL0    Cl39099  10.952   5.468   2.120  0.0465 -0.4273 -0.3156
  284MOL0     C39100  11.180   4.887   1.497  0.0985 -0.9734 -0.3196
  284MOL0     C39101  11.161   4.947   1.371 -0.2507 -0.0727 -0.1930
  284MOL0     O39102  11.304   4.872   1.067  0.2248 -0.1534  0.1562
  284MOL0     C39103  11.128   4.996   0.868  0.1471  1.0332  0.3012
  284MOL0     C39104  11.080   5.078   0.755  0.4257  0.4352 -0.0390
  284MOL0     N39105  10.434   5.412   0.609 -0.3576 -0.1139  0.3020
  284MOL0     N39106  10.335   5.485   0.570 -0.7204  0.2557 -0.0457
  284MOL0     C39107   9.530   6.373   0.937 -0.5043  0.3838 -0.2429
  284MOL0     C39108   9.463   6.485   0.984  0.0407 -0.2836 -0.9773
  284MOL0     C39109   9.349   6.889   1.135  0.8191 -0.2083  0.1721
  284MOL0     C39110   9.221   6.871   1.087 -0.0505 -0.4926  0.6638
  284MOL0     C39111   9.127   6.983   1.080 -0.2389 -0.6974 -0.6979
  284MOL0     C39112   9.169   7.103   1.149  0.3199  0.2020  0.0964
  284MOL0     O39113   9.085   7.212   1.172  0.0940 -0.0214 -0.4461
  284MOL0     C39114   8.973   7.222   1.099 -0.3569  0.1299 -0.6049
  284MOL0     C39115   8.903   7.359   1.123 -1.1069  0.4431 -1.0170
  284MOL0     C39116   8.866   7.360   1.278 -1.1827  0.2148  0.1449
  284MOL0     C39117   8.740   7.439   1.308 -0.0030  0.2387  0.2654
  284MOL0     C39118   8.752   7.582   1.269 -0.2501 -0.6674  0.2091
  284MOL0     C39119   8.745   7.692   1.225  0.7450  0.3493 -0.3764
  284MOL0     C39120   9.297   7.123   1.189 -0.0336 -0.1371 -0.4018
  284MOL0     C39121   9.386   7.013   1.180 -0.2473 -0.4006  0.3551
  284MOL0     C39122   9.522   7.050   1.234  0.3642  0.4934 -0.9068
  284MOL0     H39123   9.727   6.718   0.960  2.8809 -2.0553  0.1573
  284MOL0     H39124   9.845   6.520   0.937 -0.1555  0.8303 -0.2199
  284MOL0     H39125   9.662   6.206   0.783  3.2182  0.4439 -0.3009
  284MOL0     H39126   9.625   6.137   0.946 -1.0881  2.7682  0.9872
  284MOL0     H39127   9.838   6.008   0.949  0.8113 -0.6335  0.0266
  284MOL0     H39128   9.719   5.966   0.822 -0.4844  0.5311  0.4666
  284MOL0     H39129   9.865   6.056   0.662 -0.2008 -2.1124  0.3211
  284MOL0     H39130   9.983   6.124   0.776  0.2472 -0.0772 -0.1264
  284MOL0     H39131  10.010   5.865   0.866  1.7380 -0.7946 -0.8527
  284MOL0     H39132   9.926   5.816   0.719 -0.1280 -1.4733  1.7374
  284MOL0     H39133  10.191   5.958   0.755 -0.4465  0.4264  0.2630
  284MOL0     H39134  10.102   5.995   0.618  1.2876  1.5323  2.2742
  284MOL0     H39135  10.185   5.721   0.699 -1.5572  1.2048  1.2451
  284MOL0     H39136  10.083   5.747   0.553  0.7301 -0.4409 -1.2786
  284MOL0     H39137  10.380   5.832   0.589 -1.5633 -0.2832  2.7427
  284MOL0     H39138  10.258   5.883   0.464 -1.4538  0.5087  1.7048
  284MOL0     H39139  10.215   5.644   0.410  0.3121 -1.1229 -0.7573
  284MOL0     H39140  10.367   5.722   0.350  1.2582 -1.5573  0.3754
  284MOL0     H39141  10.579   5.646   0.416 -0.8865  1.7984  0.4957
  284MOL0     H39142  10.677   5.303   0.580 -0.2440 -0.3341 -3.7751
  284MOL0     H39143  10.710   5.457   0.659 -0.1202 -2.0643  2.2498
  284MOL0     H39144  10.760   5.324   0.384  0.2349 -0.5332  0.4347
  284MOL0     H39145  10.762   5.492   0.371 -1.6465 -3.0101 -4.0895
  284MOL0     H39146  11.003   5.420   0.425 -0.7316 -2.9709  0.2683
  284MOL0     H39147  10.942   5.513   0.564 -0.8843  0.3246 -1.6558
  284MOL0     H39148  10.883   5.290   0.674  0.0900  1.2580 -0.4073
  284MOL0     H39149  10.935   5.207   0.534 -0.7909  0.1056 -1.0642
  284MOL0     H39150  11.274   5.349   0.796 -0.8866  1.2001  1.2035
  284MOL0     H39151  11.498   5.188   0.964  0.1218 -2.6599  2.8647
  284MOL0     H39152  11.399   5.231   1.101  2.1491 -0.4528 -0.7294
  284MOL0     H39153  11.412   5.344   0.971  0.2284 -0.8463 -1.7420
  284MOL0     H39154  11.477   5.025   1.296  0.5306 -2.0405 -0.9921
  284MOL0     H39155  11.507   4.939   1.543 -1.3248 -1.2611  3.7678
  284MOL0     H39156  11.117   4.788   1.744  0.6621  2.2714  0.6775
  284MOL0     H39157  11.255   4.675   1.749  2.3923  1.9854 -2.9756
  284MOL0     H39158  11.169   4.750   1.988  0.8198  0.1234  1.3301
  284MOL0     H39159  11.325   4.787   1.941  0.1455  1.2271 -1.3941
  284MOL0     H39160  11.066   4.960   1.887 -1.3292 -0.5545  2.2427
  284MOL0     H39161  11.239   5.018   1.870 -0.7291  0.8705 -0.8538
  284MOL0     H39162  11.241   5.089   2.086 -2.8334  3.6238  3.2135
  284MOL0     H39163  11.157   4.938   2.144 -0.8701 -2.6824 -1.5263
  284MOL0     H39164  11.031   5.164   1.988 -1.7631 -1.5521  0.6678
  284MOL0     H39165  10.940   5.043   2.068  0.0418 -0.5461 -2.4320
  284MOL0     H39166  11.040   5.098   2.288 -0.1720  0.4752  0.9371
  284MOL0     H39167  10.927   5.220   2.219 -0.4786 -0.2935  0.9665
  284MOL0     H39168  11.229   5.274   2.255  1.0308  1.0505 -1.6471
  284MOL0     H39169  11.095   5.359   2.328 -1.7544 -0.0328 -0.5189
  284MOL0     H39170  11.147   5.353   2.033  2.7824  0.0243  0.1206
  284MOL0     H39171  11.196   5.475   2.129 -0.1183  0.4424  0.2723
  284MOL0     H39172  11.083   4.867   1.543 -1.1800 -1.5255 -3.0078
  284MOL0     H39173  11.063   4.947   1.324  0.2242 -2.3969 -1.3679
  284MOL0     H39174  11.079   4.902   0.892 -0.3735  1.8490  2.7663
  284MOL0     H39175  10.994   5.028   0.712  0.0249 -0.1741  1.3958
  284MOL0     H39176   9.481   6.277   0.928  3.4521 -1.8297 -0.3174
  284MOL0     H39177   9.360   6.459   1.005  0.3501 -2.4738 -1.8528
  284MOL0     H39178   9.188   6.770   1.069  0.8093 -0.8681  1.1399
  284MOL0     H39179   9.028   6.957   1.045  0.4072  0.5799 -3.7995
  284MOL0     H39180   9.010   7.207   0.997  3.1216 -3.3144  0.9191
  284MOL0     H39181   8.899   7.146   1.126  0.0374  0.4473  1.5353
  284MOL0     H39182   8.805   7.364   1.074 -2.2126 -1.2670  0.9125
  284MOL0     H39183   8.959   7.444   1.082 -1.0863 -0.1108 -2.1757
  284MOL0     H39184   8.853   7.263   1.327 -1.4471  0.8096  1.2878
  284MOL0     H39185   8.946   7.416   1.327 -1.1413  0.6695 -0.4377
  284MOL0     H39186   8.719   7.421   1.414 -2.0031 -0.9611 -0.2859
  284MOL0     H39187   8.660   7.394   1.250  1.5814 -3.4704  0.6629
  284MOL0     H39188   8.728   7.794   1.198 -1.4347  0.2713  0.5164
  284MOL0     H39189   9.321   7.222   1.225 -0.5331  0.6772 -2.2205
  284MOL0     H39190   9.558   7.152   1.215  0.4895  0.9906  1.5854
  284MOL0     H39191   9.529   7.021   1.339  0.3627 -1.5738 -1.4267
  284MOL0     H39192   9.605   6.989   1.198 -0.7671 -2.5756  1.2676
  285MOL0     O39193   6.066   0.664   1.143 -0.2008 -0.2117  0.2465
  285MOL0     C39194   6.100   0.588   1.241  0.6951  0.4087  0.8526
  285MOL0     O39195   6.113   0.626   1.364 -0.2811  0.5584  0.2631
  285MOL0     C39196   6.069   0.744   1.421  0.5012 -0.0797  0.3112
  285MOL0     C39197   5.986   0.841   1.363 -0.8266 -0.8625 -0.1820
  285MOL0     C39198   5.955   0.951   1.441 -0.5147 -0.5085 -0.3053
  285MOL0     C39199   6.012   0.981   1.567 -0.5127  1.2066 -0.2652
  285MOL0     O39200   6.004   1.093   1.637 -0.4930 -0.1180 -0.5151
  285MOL0     C39201   5.962   1.212   1.563 -0.4079  0.0229  0.5166
  285MOL0     C39202   5.935   1.321   1.667 -0.9832 -0.2337  0.0174
  285MOL0     C39203   6.060   1.361   1.740 -0.1066  0.2802 -0.0678
  285MOL0     C39204   6.021   1.460   1.848 -0.5331 -0.3306  0.2028
  285MOL0     C39205   6.146   1.530   1.902 -0.0033 -0.5978  0.1133
  285MOL0     C39206   6.195   1.640   1.810  0.0604 -0.4796 -0.9348
  285MOL0     C39207   6.107   1.771   1.826  0.3496  0.5085 -0.2889
  285MOL0     C39208   6.124   1.868   1.701 -0.2069  0.4756  0.3490
  285MOL0     N39209   6.034   1.978   1.710  0.4406 -0.2935 -0.2071
  285MOL0     C39210   5.908   1.976   1.660  0.1267 -0.5150  0.9758
  285MOL0     C39211   5.839   2.069   1.735  1.2445  0.1230  0.0681
  285MOL0     C39212   5.692   2.107   1.723 -0.3903  0.0843 -0.6559
  285MOL0     C39213   5.586   1.994   1.738  0.4237  0.7271  0.0093
  285MOL0     C39214   5.449   2.059   1.756  0.7331 -0.4774  0.5242
  285MOL0     C39215   5.334   1.960   1.780  0.3169  0.0018 -0.3518
  285MOL0     O39216   5.353   1.893   1.905 -0.1614  0.6305  0.2318
  285MOL0     C39217   5.324   1.941   2.037 -0.4209  0.0987 -0.4626
  285MOL0     C39218   5.215   2.030   2.062 -0.3961  0.9651 -0.3561
  285MOL0     C39219   5.190   2.097   2.186  0.8222  0.2414  0.1544
  285MOL0     C39220   5.071   2.197   2.188  0.3520  0.3073  0.2645
  285MOL0     C39221   5.275   2.077   2.296  0.2473  0.0148  0.5708
  285MOL0     C39222   5.271   2.157   2.407 -0.1233 -0.7765 -0.3053
  285MOL0     O39223   5.324   2.280   2.385 -0.3465  0.6447  0.5394
  285MOL0     C39224   5.300   2.386   2.474 -0.2717 -0.2081 -0.4312
  285MOL0     C39225   5.179   2.463   2.467  0.8387  0.0974  0.1219
  285MOL0     C39226   5.167   2.587   2.529  0.1414 -0.0270  0.2256
  285MOL0     C39227   5.266   2.633   2.618  0.5906  0.8421  0.3847
  285MOL0     O39228   5.265   2.735   2.703  0.4337  0.9640  0.1897
  285MOL0     C39229   5.148   2.824   2.714 -0.5353 -0.5243  0.4566
  285MOL0     C39230   5.159   2.891   2.846  0.9627 -0.7855 -0.0730
  285MOL0     C39231   5.043   2.992   2.865 -0.4675  1.0242 -0.4160
  285MOL0     C39232   5.047   3.048   3.007  0.2595 -0.2229 -0.5395
  285MOL0     C39233   4.982   3.187   3.016  0.0252  0.2810  0.0414
  285MOL0     C39234   4.952   3.231   3.161  0.2239 -0.4114  0.5263
  285MOL0     C39235   4.856   3.352   3.176 -0.2786 -0.6416 -0.3935
  285MOL0     C39236   4.896   3.464   3.083 -0.0547  0.3086 -0.1915
  285MOL0    Cl39237   5.054   3.521   3.128  0.8267 -0.6030  0.3274
  285MOL0     C39238   5.376   2.545   2.635  0.1487 -0.9117 -0.6568
  285MOL0     C39239   5.396   2.431   2.563 -0.4180  0.2690 -0.2814
  285MOL0     O39240   5.240   2.114   2.521 -0.9383  0.3094  0.2854
  285MOL0     C39241   5.383   1.992   2.279 -0.8985  0.1338 -0.2671
  285MOL0     C39242   5.401   1.926   2.150 -0.1285  0.4744 -0.3527
  285MOL0     N39243   5.923   2.130   1.816  0.3189 -0.0578  0.5656
  285MOL0     N39244   6.043   2.074   1.805 -0.3418 -0.4049  0.6258
  285MOL0     C39245   6.083   0.873   1.626 -0.0923  0.1952 -0.8026
  285MOL0     C39246   6.105   0.761   1.555  0.7969 -0.6195  0.9348
  285MOL0     C39247   6.131   0.445   1.228  0.1215 -0.4703  0.8213
  285MOL0     C39248   6.088   0.349   1.316 -0.1947 -0.8799  0.3344
  285MOL0     C39249   6.109   0.214   1.317  0.0314 -0.2249 -0.1990
  285MOL0     C39250   6.193   0.167   1.214 -0.2241  0.9259 -0.8018
  285MOL0     O39251   6.251   0.044   1.211  0.4235  0.9362  0.2083
  285MOL0     C39252   6.219  -0.059   1.317 -0.3381 -1.1110 -0.3367
  285MOL0     C39253   6.309  -0.050   1.442  0.3908 -0.1674 -0.2456
  285MOL0     C39254   6.330  -0.187   1.508 -0.4388 -0.1414 -0.6267
  285MOL0     C39255   6.467  -0.183   1.570 -0.3181  0.3448 -0.3195
  285MOL0     C39256   6.479  -0.086   1.678  0.6689  0.0010 -0.1839
  285MOL0     C39257   6.490  -0.000   1.760  0.0083 -0.4674 -0.7392
  285MOL0     C39258   6.229   0.252   1.112 -0.1262  0.0131 -0.3088
  285MOL0     C39259   6.201   0.397   1.113 -0.1075 -0.1333  0.6888
  285MOL0     C39260   6.249   0.476   1.000  0.2324  0.6276  0.4627
  285MOL0     H39261   5.949   0.826   1.262  2.8184 -3.1773 -1.3997
  285MOL0     H39262   5.894   1.025   1.390 -0.3522  0.3453  0.7211
  285MOL0     H39263   5.871   1.202   1.503 -0.6480  2.3713  0.3935
  285MOL0     H39264   6.038   1.237   1.489  2.6213 -1.4915  2.9090
  285MOL0     H39265   5.919   1.412   1.609 -0.0706 -0.9086 -1.3401
  285MOL0     H39266   5.850   1.293   1.731  0.0202 -1.1822  0.9780
  285MOL0     H39267   6.113   1.271   1.770 -2.0833 -1.6543 -1.9745
  285MOL0     H39268   6.126   1.412   1.670 -0.6651 -0.6781 -1.3389
  285MOL0     H39269   5.953   1.534   1.805 -2.7738 -2.9231 -1.0108
  285MOL0     H39270   5.975   1.398   1.925  1.1622 -1.0421  0.7021
  285MOL0     H39271   6.221   1.451   1.920  0.2010 -0.5960 -0.6751
  285MOL0     H39272   6.119   1.570   2.000 -2.5095 -0.2038 -0.6817
  285MOL0     H39273   6.299   1.668   1.832 -0.5315  0.4069  0.9785
  285MOL0     H39274   6.201   1.604   1.707  2.1775 -4.1473  0.2651
  285MOL0     H39275   6.135   1.827   1.916 -4.6760  0.1473  1.8549
  285MOL0     H39276   6.006   1.746   1.862  0.5388  1.6274  1.1230
  285MOL0     H39277   6.227   1.899   1.683 -0.5754  0.7448 -1.4828
  285MOL0     H39278   6.086   1.812   1.615 -1.8536  1.4823  0.3698
  285MOL0     H39279   5.865   1.925   1.575  1.2077 -1.1200  0.7800
  285MOL0     H39280   5.667   2.160   1.631 -0.2267  1.7523  0.2132
  285MOL0     H39281   5.672   2.182   1.800 -0.5845 -0.0614 -0.5642
  285MOL0     H39282   5.581   1.944   1.642 -0.0027  2.8096 -1.1181
  285MOL0     H39283   5.609   1.931   1.825 -0.4938  1.6637  0.9736
  285MOL0     H39284   5.460   2.129   1.839  2.7951 -1.9110  1.5489
  285MOL0     H39285   5.424   2.119   1.667  2.5479  0.6365  0.7177
  285MOL0     H39286   5.236   2.004   1.800 -1.4986 -3.0295 -1.8951
  285MOL0     H39287   5.321   1.892   1.695 -2.1273 -1.6515  1.2416
  285MOL0     H39288   5.147   2.050   1.979 -0.1287  2.0267 -0.3385
  285MOL0     H39289   5.099   2.284   2.128  2.9835  2.2172  3.8529
  285MOL0     H39290   5.040   2.230   2.288  1.0696 -1.8983  1.2794
  285MOL0     H39291   4.984   2.156   2.135  1.2796 -0.8693 -0.3856
  285MOL0     H39292   5.096   2.432   2.404  0.4653  0.5259  0.4025
  285MOL0     H39293   5.083   2.656   2.518  1.2315  1.3928  0.4893
  285MOL0     H39294   5.159   2.904   2.640 -0.0735 -2.9255 -2.2482
  285MOL0     H39295   5.050   2.774   2.712  0.5613 -2.7696 -0.7878
  285MOL0     H39296   5.163   2.823   2.932  0.6450  0.4384  0.9582
  285MOL0     H39297   5.245   2.958   2.851 -0.0785  0.6520 -0.6271
  285MOL0     H39298   4.946   2.942   2.860 -1.0180  1.5329  2.9440
  285MOL0     H39299   5.050   3.073   2.791  1.3536  2.0323  0.7818
  285MOL0     H39300   5.150   3.072   3.038 -0.6007 -1.1719  3.6077
  285MOL0     H39301   5.005   2.974   3.076  0.3995  0.4518  0.2842
  285MOL0     H39302   5.059   3.256   2.979  1.8430 -2.1312 -0.9191
  285MOL0     H39303   4.888   3.198   2.961  0.3956  3.9063 -0.1610
  285MOL0     H39304   5.047   3.249   3.212  2.4496 -1.2612 -2.9775
  285MOL0     H39305   4.905   3.142   3.205  0.1113 -0.7504 -0.2560
  285MOL0     H39306   4.860   3.385   3.280  0.7423 -1.1821 -0.2451
  285MOL0     H39307   4.753   3.326   3.153 -1.1438  1.1009  1.2709
  285MOL0     H39308   4.828   3.549   3.090 -3.5292 -1.9163 -3.4190
  285MOL0     H39309   4.894   3.436   2.977  1.7371  0.0975 -0.2071
  285MOL0     H39310   5.452   2.580   2.704 -1.6373  1.1640  0.3678
  285MOL0     H39311   5.483   2.367   2.573 -1.6773 -1.2167  2.0611
  285MOL0     H39312   5.461   1.966   2.350  0.5022  2.7990 -0.7146
  285MOL0     H39313   5.484   1.860   2.132 -0.1134  0.2540  0.4942
  285MOL0     H39314   6.129   0.885   1.724 -0.8194  3.6830 -0.7804
  285MOL0     H39315   6.163   0.684   1.606 -0.6797 -0.5944  2.7308
  285MOL0     H39316   6.039   0.379   1.408 -2.2900 -0.2328 -0.9419
  285MOL0     H39317   6.075   0.154   1.400  2.2387  1.5982  2.2198
  285MOL0     H39318   6.116  -0.061   1.356 -1.4604 -5.3200 -2.9436
  285MOL0     H39319   6.221  -0.153   1.262 -1.8505 -0.4674 -1.5952
  285MOL0     H39320   6.275   0.023   1.515  1.0688  0.5364 -0.6123
  285MOL0     H39321   6.404  -0.007   1.406  1.0875 -0.4688  1.1663
  285MOL0     H39322   6.252  -0.200   1.584  0.7506  0.6337  0.7879
  285MOL0     H39323   6.332  -0.271   1.439  1.0652  0.0365 -0.8350
  285MOL0     H39324   6.539  -0.165   1.489 -0.6419  3.2329 -0.0626
  285MOL0     H39325   6.482  -0.284   1.610  0.5771  0.3205 -0.6944
  285MOL0     H39326   6.488   0.070   1.841 -1.6032  0.1459 -1.2678
  285MOL0     H39327   6.286   0.195   1.039  0.2530 -0.0859  0.0654
  285MOL0     H39328   6.302   0.569   1.024  2.4354  0.1764 -2.1430
  285MOL0     H39329   6.317   0.420   0.935  0.2994  1.8879 -0.5927
  285MOL0     H39330   6.159   0.507   0.947 -0.7749  0.1801  1.8630
  286MOL0     O39331   6.844   4.506   5.353 -0.1233 -0.1687  0.7766
  286MOL0     C39332   6.733   4.563   5.340  0.2066 -0.2071 -0.0998
  286MOL0     O39333   6.695   4.624   5.229 -0.0329 -0.7832 -0.2484
  286MOL0     C39334   6.779   4.663   5.131 -0.1247 -0.3394 -0.2324
  286MOL0     C39335   6.734   4.784   5.071 -0.0281 -0.1011 -0.4922
  286MOL0     C39336   6.824   4.849   4.988 -1.2349  0.2522 -0.1503
  286MOL0     C39337   6.954   4.798   4.965  0.5909  0.2574 -0.2327
  286MOL0     O39338   7.028   4.885   4.889  0.7742  0.1987 -0.1786
  286MOL0     C39339   7.073   4.833   4.762  0.0308  0.0993 -0.6029
  286MOL0     C39340   7.093   4.947   4.655  0.8757  0.0584 -0.3142
  286MOL0     C39341   7.001   4.935   4.527 -0.6980 -0.4830  0.5362
  286MOL0     C39342   6.857   4.978   4.548 -0.1941 -0.5159 -0.5634
  286MOL0     C39343   6.827   5.137   4.568  0.0020 -0.5047 -1.0554
  286MOL0     C39344   6.685   5.190   4.519 -0.2831 -0.3639 -0.3782
  286MOL0     C39345   6.654   5.331   4.574  0.1857  0.7860  0.5782
  286MOL0     C39346   6.549   5.406   4.500  0.6364 -0.9166 -0.4649
  286MOL0     N39347   6.486   5.525   4.560 -0.6643  0.3250 -0.0156
  286MOL0     C39348   6.430   5.633   4.491  0.3565  0.4628  0.2391
  286MOL0     C39349   6.429   5.732   4.574 -0.2258  0.0648 -0.8306
  286MOL0     C39350   6.414   5.881   4.549 -0.1502  0.1903  0.0386
  286MOL0     C39351   6.341   5.963   4.653  0.5278 -0.8698 -0.5951
  286MOL0     C39352   6.318   6.115   4.607 -0.3556 -0.0197 -0.5817
  286MOL0     C39353   6.220   6.123   4.498  0.0769 -0.0829  0.6474
  286MOL0     O39354   6.094   6.058   4.522 -0.2754  0.2899  0.6236
  286MOL0     C39355   5.992   6.114   4.459  0.3045 -1.0778  0.4712
  286MOL0     C39356   5.973   6.114   4.321 -0.2127 -0.6216  0.1441
  286MOL0     C39357   5.861   6.173   4.261 -0.1924 -0.4086  1.1073
  286MOL0     C39358   5.849   6.181   4.109 -0.2140 -0.0631  0.1020
  286MOL0     C39359   5.763   6.230   4.345  0.3246 -0.3706 -0.8121
  286MOL0     C39360   5.648   6.307   4.301  0.5909 -0.5011 -0.2684
  286MOL0     O39361   5.605   6.406   4.386 -0.0667  0.2137  0.3149
  286MOL0     C39362   5.478   6.443   4.391  0.2448 -0.4280 -0.3363
  286MOL0     C39363   5.365   6.365   4.357  0.1550 -0.1233  0.6251
  286MOL0     C39364   5.243   6.398   4.389  0.1095 -0.4970 -0.4943
  286MOL0     C39365   5.222   6.518   4.468  0.2514 -0.4691  0.3680
  286MOL0     O39366   5.105   6.568   4.506  0.5552  0.1569  0.2179
  286MOL0     C39367   4.998   6.544   4.414  1.1321 -0.4301 -0.0434
  286MOL0     C39368   4.868   6.613   4.458  0.5895 -0.5755  0.7148
  286MOL0     C39369   4.772   6.654   4.349 -0.1189  0.0324  0.1672
  286MOL0     C39370   4.822   6.771   4.265 -0.6971  0.2459  0.2775
  286MOL0     C39371   4.700   6.853   4.209  0.4052  0.7367 -0.0874
  286MOL0     C39372   4.752   6.986   4.146  0.2005  0.6960 -0.1958
  286MOL0     C39373   4.643   7.065   4.066 -0.0090  0.8095  0.5932
  286MOL0     C39374   4.697   7.197   4.014  0.3722 -0.0279 -0.1892
  286MOL0    Cl39375   4.605   7.254   3.879 -0.6812 -0.1534 -0.1891
  286MOL0     C39376   5.327   6.590   4.512 -0.6184 -0.4712 -0.2297
  286MOL0     C39377   5.451   6.556   4.468  0.0286  0.2362  0.1836
  286MOL0     O39378   5.600   6.279   4.190  0.4449 -0.0698 -0.3652
  286MOL0     C39379   5.775   6.222   4.485 -0.6992  0.6746  0.7763
  286MOL0     C39380   5.889   6.160   4.541  0.5337  0.4655  0.2385
  286MOL0     N39381   6.470   5.686   4.694 -0.0979 -0.2676  0.0463
  286MOL0     N39382   6.481   5.558   4.691  0.4705  0.1965 -0.2498
  286MOL0     C39383   6.987   4.671   5.008 -0.5666 -0.6674  0.7494
  286MOL0     C39384   6.902   4.606   5.096 -0.3358  0.5617 -0.0807
  286MOL0     C39385   6.651   4.559   5.471 -0.5073  0.4310  0.7422
  286MOL0     C39386   6.640   4.434   5.532 -1.0410 -0.0392 -0.4398
  286MOL0     C39387   6.576   4.428   5.655  0.0394  0.5828 -0.3093
  286MOL0     C39388   6.511   4.540   5.715  0.1792 -0.3016  0.8809
  286MOL0     O39389   6.438   4.517   5.834  1.1981 -0.1157 -0.3842
  286MOL0     C39390   6.352   4.622   5.877  0.3671 -0.0604  0.6186
  286MOL0     C39391   6.288   4.581   6.011  0.1388 -0.3838 -0.2879
  286MOL0     C39392   6.397   4.571   6.126 -0.1329 -0.7355  0.2141
  286MOL0     C39393   6.340   4.513   6.255 -0.1291  0.5787 -0.2182
  286MOL0     C39394   6.291   4.376   6.238  0.4352 -0.0337  0.1937
  286MOL0     C39395   6.269   4.260   6.214  0.6205 -0.6570 -0.2581
  286MOL0     C39396   6.521   4.661   5.651  0.3756 -0.3206 -0.2165
  286MOL0     C39397   6.589   4.669   5.531 -0.5513  0.4871  0.2744
  286MOL0     C39398   6.599   4.802   5.471 -0.1552  0.3184  0.4592
  286MOL0     H39399   6.635   4.818   5.101  0.1857 -1.1974  1.6372
  286MOL0     H39400   6.790   4.937   4.935  0.5486  0.5963 -0.7889
  286MOL0     H39401   6.993   4.771   4.721 -1.8173  3.4367 -2.4817
  286MOL0     H39402   7.164   4.779   4.787 -0.4138 -0.3302  0.1263
  286MOL0     H39403   7.066   5.041   4.703  1.4830 -0.6683  1.5206
  286MOL0     H39404   7.199   4.956   4.627  0.3704  3.2894 -1.7087
  286MOL0     H39405   7.039   4.999   4.446  1.7814  0.2901  2.1885
  286MOL0     H39406   7.001   4.830   4.498  0.4196 -0.0877 -1.0834
  286MOL0     H39407   6.813   4.945   4.453  2.3877 -2.1814 -1.2957
  286MOL0     H39408   6.820   4.924   4.635  0.0629  2.2832  1.4083
  286MOL0     H39409   6.903   5.192   4.512  2.3313 -3.6772 -1.2786
  286MOL0     H39410   6.839   5.171   4.672 -1.6989  0.3297 -1.1137
  286MOL0     H39411   6.689   5.195   4.410 -0.6765  1.2628 -0.3317
  286MOL0     H39412   6.620   5.107   4.551  2.6668 -1.6611  2.9254
  286MOL0     H39413   6.743   5.394   4.582  1.0004 -0.1368 -0.7108
  286MOL0     H39414   6.608   5.296   4.667  0.7290 -1.3876  0.0947
  286MOL0     H39415   6.585   5.434   4.400 -0.7591 -2.5791 -1.4992
  286MOL0     H39416   6.468   5.334   4.484  2.7103 -3.1833 -1.5111
  286MOL0     H39417   6.412   5.630   4.384 -3.9534 -0.9541  0.8135
  286MOL0     H39418   6.370   5.894   4.450  1.1611  0.7271 -0.4956
  286MOL0     H39419   6.510   5.930   4.527  0.4249 -2.1123 -3.4101
  286MOL0     H39420   6.247   5.913   4.679  1.7667 -3.5920 -0.9617
  286MOL0     H39421   6.408   5.973   4.739  0.2678 -1.9315 -0.2513
  286MOL0     H39422   6.284   6.169   4.695  0.2564  2.0340 -1.5498
  286MOL0     H39423   6.410   6.148   4.557 -1.3972  2.1131 -1.2118
  286MOL0     H39424   6.193   6.226   4.473  2.2902 -0.1596 -2.7366
  286MOL0     H39425   6.261   6.097   4.399  0.4784  0.8620  0.5581
  286MOL0     H39426   6.057   6.080   4.261 -0.3968 -0.3726 -0.2625
  286MOL0     H39427   5.832   6.285   4.079  2.7276  1.0535  1.8949
  286MOL0     H39428   5.769   6.112   4.083 -1.2388 -0.0477  2.8936
  286MOL0     H39429   5.940   6.149   4.057 -1.5972 -4.6630  0.1025
  286MOL0     H39430   5.386   6.274   4.303  0.8512  0.0497  0.5896
  286MOL0     H39431   5.159   6.330   4.380  0.7474 -1.6303  1.5458
  286MOL0     H39432   5.028   6.583   4.316 -0.1104 -0.7469 -0.5707
  286MOL0     H39433   4.984   6.436   4.405 -1.9751 -0.2741  1.6456
  286MOL0     H39434   4.811   6.540   4.516  0.1149 -1.5362 -0.8887
  286MOL0     H39435   4.891   6.700   4.520  1.9007 -0.7595  0.5184
  286MOL0     H39436   4.679   6.683   4.397 -2.1943 -1.6542 -2.5664
  286MOL0     H39437   4.748   6.584   4.268  3.7730 -0.4131 -0.8417
  286MOL0     H39438   4.887   6.736   4.184 -1.7215 -0.6590 -0.1821
  286MOL0     H39439   4.873   6.841   4.332 -1.8616 -0.5106  2.0348
  286MOL0     H39440   4.657   6.787   4.133  3.0105 -2.5065  1.0259
  286MOL0     H39441   4.626   6.888   4.281  1.0757  2.6215 -0.2330
  286MOL0     H39442   4.826   6.954   4.073  3.0089 -4.1651  4.1198
  286MOL0     H39443   4.783   7.039   4.237 -2.4468 -0.9702  1.8636
  286MOL0     H39444   4.552   7.077   4.125 -0.1858  1.8045  0.1375
  286MOL0     H39445   4.621   7.011   3.973 -0.3722  0.6682  0.7586
  286MOL0     H39446   4.796   7.171   3.976  1.5603 -1.4466  3.3938
  286MOL0     H39447   4.702   7.275   4.091  2.6891 -1.6628  1.4450
  286MOL0     H39448   5.323   6.672   4.583 -2.9134 -1.2837  0.6928
  286MOL0     H39449   5.535   6.613   4.506 -0.6606  0.2685  1.7041
  286MOL0     H39450   5.693   6.261   4.545 -0.5155 -0.9945  2.1928
  286MOL0     H39451   5.899   6.163   4.649  0.6414  2.2655  0.2194
  286MOL0     H39452   7.080   4.619   4.987 -0.6066 -0.0820 -1.0011
  286MOL0     H39453   6.923   4.503   5.123 -1.1144  0.5236  0.4127
  286MOL0     H39454   6.696   4.356   5.482  2.4770  1.3659  0.9940
  286MOL0     H39455   6.565   4.332   5.705 -0.0852 -0.5348 -2.3717
  286MOL0     H39456   6.403   4.717   5.893  0.3953 -0.1277  0.9266
  286MOL0     H39457   6.276   4.631   5.799 -0.6206  1.7105  1.7160
  286MOL0     H39458   6.230   4.489   6.001  1.4863 -1.2184 -0.6540
  286MOL0     H39459   6.215   4.660   6.032 -1.2681 -1.4642 -1.0333
  286MOL0     H39460   6.487   4.520   6.090  0.5582  1.0104 -0.6376
  286MOL0     H39461   6.426   4.673   6.154  0.8616 -0.0336 -3.0063
  286MOL0     H39462   6.260   4.576   6.296  0.4379  0.2048  1.5852
  286MOL0     H39463   6.415   4.505   6.334 -0.4618  0.4402  0.0882
  286MOL0     H39464   6.260   4.159   6.180  2.6741 -0.6626 -0.9292
  286MOL0     H39465   6.467   4.747   5.690  0.8153  0.8869 -2.1706
  286MOL0     H39466   6.537   4.805   5.381  0.3231 -1.3821  0.0369
  286MOL0     H39467   6.565   4.874   5.547  0.2486  0.0037  0.9435
  286MOL0     H39468   6.703   4.819   5.440  0.0782  0.0980  1.1060
  287MOL0     O39469   1.092   6.488   3.926  0.4029  0.2628  0.1270
  287MOL0     C39470   0.981   6.532   3.947 -0.2870 -0.5053  0.1513
  287MOL0     O39471   0.870   6.471   3.907 -0.5409  0.4697  0.5982
  287MOL0     C39472   0.866   6.334   3.879  0.4365 -0.0372  0.1351
  287MOL0     C39473   0.942   6.283   3.772  0.9295  0.0441 -0.1237
  287MOL0     C39474   0.936   6.142   3.755 -0.3255 -0.4988  0.0407
  287MOL0     C39475   0.844   6.057   3.819 -0.3410 -0.8187  0.4185
  287MOL0     O39476   0.860   5.924   3.786  0.3218  0.3596  0.1719
  287MOL0     C39477   0.749   5.833   3.802  1.3463 -0.3349 -0.5949
  287MOL0     C39478   0.785   5.699   3.739  0.2124  0.4170  0.5203
  287MOL0     C39479   0.679   5.591   3.777 -0.6172  0.5154 -0.5513
  287MOL0     C39480   0.737   5.500   3.880 -1.1663 -0.5746  1.4858
  287MOL0     C39481   0.634   5.408   3.939  0.1047 -1.1888 -0.5086
  287MOL0     C39482   0.714   5.298   4.015  0.9132  0.3112 -0.3540
  287MOL0     C39483   0.621   5.192   4.070 -0.3501 -0.0993 -0.0562
  287MOL0     C39484   0.542   5.121   3.961  0.9607  0.2598  0.4637
  287MOL0     N39485   0.493   4.987   4.013  0.5845  0.0244 -0.5824
  287MOL0     C39486   0.531   4.854   3.988 -1.0488  0.2018 -0.6181
  287MOL0     C39487   0.456   4.779   4.081  0.4285  0.1346 -0.2958
  287MOL0     C39488   0.450   4.634   4.097  0.6983  0.6132 -0.6301
  287MOL0     C39489   0.382   4.563   3.980 -0.7103  0.5783  0.2801
  287MOL0     C39490   0.401   4.411   3.994 -0.4512  0.2451  0.4712
  287MOL0     C39491   0.284   4.319   3.965  0.5584 -0.5230 -0.3352
  287MOL0     O39492   0.197   4.356   3.855 -0.2574 -0.6339 -0.7603
  287MOL0     C39493   0.168   4.264   3.761 -0.0797  0.5454  0.6178
  287MOL0     C39494   0.041   4.270   3.699  0.7778  0.5476  0.1485
  287MOL0     C39495   0.000   4.186   3.602  0.2039 -0.0974  0.6973
  287MOL0     C39496  -0.141   4.213   3.552  0.5868 -0.3397  0.6506
  287MOL0     C39497   0.081   4.078   3.555 -0.7690 -0.2447  0.0437
  287MOL0     C39498   0.038   3.982   3.467  0.4682  0.1920  0.5973
  287MOL0     O39499  -0.001   4.022   3.338  0.6280  0.3745  0.2221
  287MOL0     C39500  -0.006   3.914   3.247 -0.7224  0.8362 -0.7801
  287MOL0     C39501   0.117   3.863   3.196  0.4312  0.9069 -0.3124
  287MOL0     C39502   0.111   3.743   3.117 -0.5430 -0.3026  0.9551
  287MOL0     C39503  -0.013   3.682   3.088 -0.5172  0.4908 -1.1682
  287MOL0     O39504  -0.016   3.564   3.010  1.0616 -0.5678  0.3056
  287MOL0     C39505  -0.112   3.462   3.045 -0.4581  0.4435  0.5314
  287MOL0     C39506  -0.077   3.355   2.946  0.4581 -0.0785 -0.7135
  287MOL0     C39507   0.055   3.283   2.968 -0.1950  0.3130 -0.8439
  287MOL0     C39508   0.066   3.164   2.875  0.5166 -0.4377  0.4614
  287MOL0     C39509  -0.020   3.041   2.903  0.6757  0.3061  0.2073
  287MOL0     C39510   0.024   2.963   3.026 -0.4628 -0.0603 -0.6439
  287MOL0     C39511  -0.041   2.822   3.036 -1.2716 -1.4876 -0.8385
  287MOL0     C39512   0.055   2.723   3.114  0.4911 -0.3571 -0.6019
  287MOL0    Cl39513  -0.026   2.569   3.109  0.4641 -0.5566  0.4335
  287MOL0     C39514  -0.128   3.742   3.150 -0.8542 -0.9835  0.3578
  287MOL0     C39515  -0.130   3.854   3.224 -0.3280 -0.2663 -0.7894
  287MOL0     O39516   0.035   3.868   3.514 -0.2203 -0.0012  0.0867
  287MOL0     C39517   0.213   4.067   3.617  0.6820  0.2348  0.2188
  287MOL0     C39518   0.261   4.162   3.711  0.2161  0.4248  0.3524
  287MOL0     N39519   0.393   4.868   4.159  0.5178  0.3028  0.3289
  287MOL0     N39520   0.402   4.986   4.114 -0.1751 -0.1935 -0.0150
  287MOL0     C39521   0.756   6.118   3.908 -0.2876 -0.2353  1.1161
  287MOL0     C39522   0.762   6.255   3.940 -0.6321  0.0501  0.0752
  287MOL0     C39523   0.960   6.670   3.999 -0.9000  0.5638 -0.0415
  287MOL0     C39524   0.832   6.721   3.973  0.1862  0.2213 -0.0337
  287MOL0     C39525   0.803   6.846   4.019  0.5656 -0.2097  0.1784
  287MOL0     C39526   0.883   6.914   4.113 -0.0248 -0.4277  0.8678
  287MOL0     O39527   0.829   7.029   4.160 -0.3477  0.3009 -0.3242
  287MOL0     C39528   0.876   7.086   4.280 -1.3547 -0.3772  0.7954
  287MOL0     C39529   0.801   7.213   4.301 -0.4028 -0.0023  0.3698
  287MOL0     C39530   0.846   7.303   4.426  0.5738  0.7899  0.2316
  287MOL0     C39531   0.995   7.313   4.456 -0.3940  0.2921 -0.5067
  287MOL0     C39532   1.071   7.372   4.351  0.6772  0.2580  0.8110
  287MOL0     C39533   1.134   7.402   4.247 -1.0650 -0.3659 -0.7371
  287MOL0     C39534   1.013   6.866   4.134  0.0718  0.2475  0.1827
  287MOL0     C39535   1.057   6.736   4.082 -0.2862  0.2431  0.4110
  287MOL0     C39536   1.185   6.667   4.130 -0.0802  0.0262  0.1704
  287MOL0     H39537   1.020   6.345   3.729  2.0660 -1.7981 -0.8773
  287MOL0     H39538   1.006   6.094   3.687  1.0928 -2.1303  2.5163
  287MOL0     H39539   0.652   5.858   3.757 -0.4271 -2.6295  1.6375
  287MOL0     H39540   0.743   5.823   3.910  1.9455 -0.2022 -0.5446
  287MOL0     H39541   0.787   5.715   3.631  1.9843  0.9056  0.5990
  287MOL0     H39542   0.885   5.664   3.764  1.3937  4.0382  1.3785
  287MOL0     H39543   0.595   5.648   3.817 -1.0007  0.5103 -1.3224
  287MOL0     H39544   0.654   5.531   3.689  4.4076 -0.0182 -1.9405
  287MOL0     H39545   0.824   5.442   3.847 -1.5257  1.4009 -4.0770
  287MOL0     H39546   0.782   5.559   3.960 -2.1186  1.2261  0.7353
  287MOL0     H39547   0.573   5.355   3.865 -0.0391 -1.8833  0.0944
  287MOL0     H39548   0.564   5.466   3.999  0.6689 -0.7403 -0.2677
  287MOL0     H39549   0.779   5.244   3.946 -0.1335 -0.0931 -1.0450
  287MOL0     H39550   0.778   5.349   4.087 -1.4114  2.8402  0.1205
  287MOL0     H39551   0.551   5.245   4.135 -1.8457 -1.8216 -0.1935
  287MOL0     H39552   0.678   5.129   4.139  1.4684  1.4075 -0.1031
  287MOL0     H39553   0.459   5.187   3.933  0.8129  0.1941  0.7451
  287MOL0     H39554   0.600   5.098   3.871  0.3949 -1.4549  0.5120
  287MOL0     H39555   0.602   4.821   3.913 -0.4635  1.0491 -0.4439
  287MOL0     H39556   0.397   4.609   4.189  1.9297  4.2265  1.2797
  287MOL0     H39557   0.553   4.601   4.111  0.4766  0.5589  1.1360
  287MOL0     H39558   0.276   4.588   3.975 -1.3735 -1.8871  0.4563
  287MOL0     H39559   0.425   4.584   3.882 -1.7058 -4.1286 -1.4068
  287MOL0     H39560   0.488   4.378   3.935 -1.8223 -0.7392 -1.0669
  287MOL0     H39561   0.426   4.380   4.096 -0.8757 -2.8243 -0.2450
  287MOL0     H39562   0.311   4.213   3.964 -1.1669 -1.0014 -0.0897
  287MOL0     H39563   0.223   4.333   4.054 -0.5892  0.7728 -1.2793
  287MOL0     H39564  -0.024   4.350   3.733  0.3054  0.0268  0.4857
  287MOL0     H39565  -0.192   4.117   3.561 -0.9603  0.1789 -1.6943
  287MOL0     H39566  -0.145   4.233   3.444  2.2114 -1.9450  0.2213
  287MOL0     H39567  -0.194   4.284   3.616  0.1865 -0.0729  0.0281
  287MOL0     H39568   0.216   3.907   3.203  2.0453 -2.1812 -1.7185
  287MOL0     H39569   0.205   3.707   3.077 -0.3175 -0.2795  1.4550
  287MOL0     H39570  -0.096   3.436   3.150  1.9335 -0.9327 -0.0852
  287MOL0     H39571  -0.217   3.479   3.020 -0.0171  0.9095 -1.1162
  287MOL0     H39572  -0.160   3.285   2.957 -0.2443  0.9123  0.6413
  287MOL0     H39573  -0.070   3.404   2.849  2.4871  1.7761  0.2641
  287MOL0     H39574   0.066   3.258   3.073 -0.9432  0.5145 -0.7162
  287MOL0     H39575   0.131   3.357   2.938 -2.0235  2.0841 -1.3731
  287MOL0     H39576   0.173   3.139   2.877  0.9264  1.2144  2.2521
  287MOL0     H39577   0.059   3.205   2.774  3.1292 -0.8836  0.0051
  287MOL0     H39578  -0.126   3.067   2.907  0.2728 -1.2482  0.0325
  287MOL0     H39579  -0.009   2.970   2.821 -0.8208 -0.5270  0.6936
  287MOL0     H39580   0.004   3.018   3.118 -2.0220 -0.9148 -0.4223
  287MOL0     H39581   0.133   2.955   3.027 -0.5080 -0.8001 -0.9083
  287MOL0     H39582  -0.074   2.786   2.938 -2.3803 -0.8141 -0.7226
  287MOL0     H39583  -0.133   2.831   3.093 -0.1576  3.4584  0.6192
  287MOL0     H39584   0.065   2.753   3.218 -0.4415 -4.5409  0.9114
  287MOL0     H39585   0.157   2.707   3.078  0.6483 -3.7994  0.9161
  287MOL0     H39586  -0.219   3.685   3.131 -0.7080 -0.8078 -0.9788
  287MOL0     H39587  -0.222   3.875   3.277 -1.0259 -2.5046 -1.0056
  287MOL0     H39588   0.273   3.980   3.594 -0.5542 -1.1385  1.8607
  287MOL0     H39589   0.362   4.143   3.745  0.1377 -1.5509 -0.3417
  287MOL0     H39590   0.692   6.055   3.969  2.5594 -0.5014  4.0901
  287MOL0     H39591   0.689   6.298   4.007  0.7627  3.1107 -0.1972
  287MOL0     H39592   0.756   6.666   3.919 -2.6137  1.6247  2.1992
  287MOL0     H39593   0.705   6.888   4.000  1.0114  2.0127  2.3382
  287MOL0     H39594   0.845   7.021   4.363  0.4191 -1.2114  0.8474
  287MOL0     H39595   0.984   7.100   4.292 -1.2492 -1.0772  0.7397
  287MOL0     H39596   0.693   7.193   4.307 -0.3711 -1.4222 -2.3989
  287MOL0     H39597   0.813   7.276   4.212 -1.7394 -0.3915 -0.1053
  287MOL0     H39598   0.811   7.405   4.413 -1.3020  0.8740  4.5126
  287MOL0     H39599   0.799   7.263   4.516 -0.1473  0.4022 -0.3014
  287MOL0     H39600   1.034   7.214   4.482 -2.1288 -0.0094  1.1293
  287MOL0     H39601   1.002   7.375   4.546 -2.1199  0.5974 -0.5501
  287MOL0     H39602   1.192   7.426   4.160 -0.3597 -1.3122 -0.5477
  287MOL0     H39603   1.070   6.921   4.209  0.6779 -0.6723  0.4092
  287MOL0     H39604   1.160   6.569   4.171  1.9851 -0.6850 -0.1585
  287MOL0     H39605   1.243   6.647   4.039  0.5700  0.7415  0.4274
  287MOL0     H39606   1.245   6.734   4.192  0.5049  2.8991 -3.2019
  288MOL0     O39607   9.528   9.952  11.373  0.6499  0.2194  0.4789
  288MOL0     C39608   9.470  10.055  11.335 -0.3771 -0.7840 -0.4304
  288MOL0     O39609   9.346  10.079  11.356  0.2217  0.1034 -0.2072
  288MOL0     C39610   9.258   9.999  11.430  0.1830 -0.5812 -0.1768
  288MOL0     C39611   9.129  10.005  11.391 -0.2628  0.0904  1.1298
  288MOL0     C39612   9.030   9.942  11.453 -0.3640 -0.3096 -0.3496
  288MOL0     C39613   9.046   9.848  11.550 -0.3282 -0.7503  0.9045
  288MOL0     O39614   8.938   9.788  11.602 -0.4326 -0.1999  0.8461
  288MOL0     C39615   8.951   9.707  11.721  0.9259  0.0624 -0.2067
  288MOL0     C39616   8.975   9.563  11.653 -1.0511 -0.6112  0.5504
  288MOL0     C39617   8.986   9.462  11.769 -0.5416  0.4846  0.1101
  288MOL0     C39618   8.944   9.316  11.735  0.1544  0.8475  0.1160
  288MOL0     C39619   9.012   9.221  11.830  1.2093 -0.4456 -0.2543
  288MOL0     C39620   8.948   9.084  11.815  0.8302  0.1300 -0.1552
  288MOL0     C39621   8.805   9.082  11.881 -0.8224 -0.2839  0.1442
  288MOL0     C39622   8.734   8.946  11.867  0.0439  0.5350  0.2988
  288MOL0     N39623   8.805   8.846  11.947  0.9817  0.3392  0.9053
  288MOL0     C39624   8.779   8.815  12.073 -0.0439  0.2427 -1.1906
  288MOL0     C39625   8.879   8.735  12.114  0.5923 -0.0641  0.1214
  288MOL0     C39626   8.909   8.683  12.256  0.6769 -0.1933 -0.9744
  288MOL0     C39627   8.845   8.545  12.290  0.3670  0.5253 -0.1624
  288MOL0     C39628   8.882   8.516  12.437  0.0925 -1.0722 -0.4507
  288MOL0     C39629   8.820   8.378  12.476  0.1502 -0.4474 -0.7631
  288MOL0     O39630   8.883   8.266  12.412  0.4062 -0.7820  0.4377
  288MOL0     C39631   8.960   8.174  12.491  0.0309  0.1417 -0.2078
  288MOL0     C39632   8.955   8.032  12.470  0.1920 -0.2269 -0.3010
  288MOL0     C39633   9.020   7.939  12.555 -0.2648 -0.2675 -0.0375
  288MOL0     C39634   8.974   7.802  12.546  0.4945 -0.6974 -0.0704
  288MOL0     C39635   9.113   7.981  12.649 -0.1796  0.8527 -0.7989
  288MOL0     C39636   9.179   7.893  12.751  0.2928  0.3865  0.1115
  288MOL0     O39637   9.166   7.755  12.746 -0.9724 -0.2705 -0.0287
  288MOL0     C39638   9.181   7.687  12.863 -1.1285 -0.0647  0.7024
  288MOL0     C39639   9.120   7.724  12.984 -0.5701  0.1051  0.1802
  288MOL0     C39640   9.134   7.643  13.098  0.0145  0.7745  0.3225
  288MOL0     C39641   9.204   7.528  13.093  0.4548 -0.3814  0.3527
  288MOL0     O39642   9.208   7.453  13.214 -0.1165  0.1577 -0.0007
  288MOL0     C39643   9.238   7.317  13.197  0.9018  0.2910 -0.1663
  288MOL0     C39644   9.254   7.259  13.342 -0.8426  0.3108  0.1206
  288MOL0     C39645   9.253   7.100  13.339  0.6815  0.4779  0.2789
  288MOL0     C39646   9.388   7.047  13.284 -0.8030 -0.5567  0.4303
  288MOL0     C39647   9.371   6.894  13.259 -0.6875  0.0770 -0.2894
  288MOL0     C39648   9.489   6.801  13.298  0.5544 -0.7650  0.1762
  288MOL0     C39649   9.438   6.650  13.280 -0.6938 -0.2295 -1.1300
  288MOL0     C39650   9.549   6.568  13.350 -0.0700 -0.9111  0.0772
  288MOL0    Cl39651   9.487   6.414  13.370 -0.4790 -0.0024  0.2306
  288MOL0     C39652   9.266   7.490  12.974 -0.0467  0.8577  0.6125
  288MOL0     C39653   9.255   7.570  12.862 -0.7304 -0.4077 -0.2030
  288MOL0     O39654   9.240   7.958  12.834 -0.4752  0.7902  0.2434
  288MOL0     C39655   9.137   8.123  12.655  0.2105  0.0266  0.1781
  288MOL0     C39656   9.050   8.214  12.581 -0.2465  0.9478 -0.7191
  288MOL0     N39657   8.969   8.735  12.004 -0.1511 -0.6781 -0.1144
  288MOL0     N39658   8.910   8.771  11.898  0.8037  0.2285 -0.2471
  288MOL0     C39659   9.183   9.825  11.587 -0.4114  0.1911 -0.2927
  288MOL0     C39660   9.291   9.902  11.531 -0.6041 -0.1918 -0.0660
  288MOL0     C39661   9.547  10.175  11.283 -0.9890 -0.2200 -0.2045
  288MOL0     C39662   9.477  10.293  11.259  0.2688  0.0879  0.8073
  288MOL0     C39663   9.537  10.390  11.178 -0.5677 -0.2995  0.2192
  288MOL0     C39664   9.671  10.385  11.140  0.0213 -0.1631  0.9857
  288MOL0     O39665   9.738  10.476  11.064  0.0116 -0.5054 -0.2275
  288MOL0     C39666   9.680  10.604  11.048  0.4877 -0.2112  0.4886
  288MOL0     C39667   9.756  10.714  10.974  0.4879 -0.4279 -0.2297
  288MOL0     C39668   9.796  10.683  10.826  0.5501 -0.4264 -1.2334
  288MOL0     C39669   9.750  10.555  10.770 -0.2910 -0.2551  1.0624
  288MOL0     C39670   9.754  10.558  10.616  1.1412  0.3853  0.2547
  288MOL0     C39671   9.761  10.540  10.497 -0.6863  1.1394  0.1829
  288MOL0     C39672   9.743  10.271  11.167  0.2740  0.1986  0.1998
  288MOL0     C39673   9.688  10.169  11.253  0.2066  0.4572 -0.1190
  288MOL0     C39674   9.778  10.066  11.296 -1.4028  0.1100 -0.3964
  288MOL0     H39675   9.109  10.078  11.313  2.9710  2.1803  2.0571
  288MOL0     H39676   8.932   9.963  11.412 -0.4051 -0.0643 -0.1237
  288MOL0     H39677   8.861   9.722  11.781 -0.5364 -3.1481 -1.3299
  288MOL0     H39678   9.039   9.731  11.781  2.8678 -0.5921 -2.6292
  288MOL0     H39679   8.894   9.530  11.587 -2.5751 -3.2360  3.4568
  288MOL0     H39680   9.068   9.566  11.595 -0.2633 -0.2774  1.8105
  288MOL0     H39681   9.089   9.452  11.805 -0.7771  0.0649  0.6737
  288MOL0     H39682   8.927   9.494  11.855 -0.2486  0.8954  0.1611
  288MOL0     H39683   8.834   9.322  11.737  0.1542  2.2630 -1.4586
  288MOL0     H39684   8.964   9.296  11.629 -1.2163 -1.3303  0.2069
  288MOL0     H39685   9.012   9.253  11.934  0.1939 -0.9067 -0.0968
  288MOL0     H39686   9.118   9.211  11.803  0.7121  0.0167 -2.5986
  288MOL0     H39687   8.955   9.069  11.707 -2.8463  1.0645 -0.6472
  288MOL0     H39688   9.016   9.008  11.855 -1.0389 -1.7123 -0.2973
  288MOL0     H39689   8.743   9.157  11.831  0.2864  0.4461 -0.1723
  288MOL0     H39690   8.810   9.114  11.986  1.8546 -0.4385  0.1308
  288MOL0     H39691   8.627   8.951  11.885  0.0827  1.2131  0.3668
  288MOL0     H39692   8.750   8.930  11.759  1.4582 -4.3513  1.0003
  288MOL0     H39693   8.695   8.854  12.129 -1.3547 -0.8142 -2.3498
  288MOL0     H39694   8.873   8.758  12.326 -0.8853 -0.4052 -1.5140
  288MOL0     H39695   9.017   8.682  12.274  0.3660  1.8205  1.5132
  288MOL0     H39696   8.738   8.543  12.267  0.6161  1.5688 -1.5864
  288MOL0     H39697   8.880   8.465  12.224  1.9652 -0.5828  1.9003
  288MOL0     H39698   8.992   8.512  12.440  0.2102  1.3980  0.0939
  288MOL0     H39699   8.854   8.591  12.511 -0.5757 -0.1768 -1.5760
  288MOL0     H39700   8.808   8.374  12.585 -0.9914 -1.9250 -0.9157
  288MOL0     H39701   8.719   8.380  12.433  0.2356  0.5819 -0.9317
  288MOL0     H39702   8.878   8.002  12.400 -1.0820 -0.7942  1.2756
  288MOL0     H39703   8.885   7.795  12.482  0.4747 -2.1242  0.0805
  288MOL0     H39704   8.955   7.753  12.642 -1.0892  0.4385  0.2539
  288MOL0     H39705   9.047   7.747  12.487  2.3516  2.5891 -1.1178
  288MOL0     H39706   9.060   7.813  12.999 -1.3070 -0.7930  3.2982
  288MOL0     H39707   9.091   7.675  13.192 -0.5871  0.5901  0.1127
  288MOL0     H39708   9.161   7.264  13.140  2.9419  0.2192 -3.0471
  288MOL0     H39709   9.330   7.294  13.144  0.4009 -4.1806  0.5826
  288MOL0     H39710   9.349   7.291  13.384 -0.7439 -2.6149  2.4746
  288MOL0     H39711   9.175   7.303  13.403 -1.3756  0.4293 -0.6365
  288MOL0     H39712   9.169   7.064  13.278  2.3072 -1.8957 -0.6931
  288MOL0     H39713   9.243   7.058  13.440  0.4651 -1.4808 -0.5064
  288MOL0     H39714   9.467   7.081  13.351  1.6100  3.3066 -3.8040
  288MOL0     H39715   9.415   7.094  13.189  2.3447  1.7836  2.2603
  288MOL0     H39716   9.301   6.852  13.331  0.1808 -0.6702  0.1477
  288MOL0     H39717   9.344   6.874  13.154 -0.2663 -1.6240 -0.0979
  288MOL0     H39718   9.505   6.817  13.405 -2.3112  0.2531  0.5563
  288MOL0     H39719   9.583   6.823  13.248 -0.1562 -0.4348 -1.0759
  288MOL0     H39720   9.452   6.631  13.173  1.5267  0.7817 -1.0717
  288MOL0     H39721   9.336   6.633  13.317 -0.9314  1.2210 -1.0301
  288MOL0     H39722   9.569   6.612  13.448 -2.2961 -2.1470  1.1363
  288MOL0     H39723   9.643   6.570  13.292  0.1947 -0.4950  0.5123
  288MOL0     H39724   9.324   7.399  12.964 -1.3585  0.1398 -0.8972
  288MOL0     H39725   9.299   7.541  12.767  2.2219  1.0240  0.6092
  288MOL0     H39726   9.187   8.178  12.734  0.0933 -1.3438  1.2513
  288MOL0     H39727   9.054   8.315  12.619  0.8975 -0.2833  2.9494
  288MOL0     H39728   9.209   9.745  11.656  0.7494  1.7676  1.1843
  288MOL0     H39729   9.394   9.872  11.542 -1.2919 -2.7192 -0.0043
  288MOL0     H39730   9.370  10.308  11.272  0.2226  2.0430 -1.1841
  288MOL0     H39731   9.464  10.467  11.151 -1.3236  0.0327  2.8618
  288MOL0     H39732   9.588  10.593  10.990  0.4440  1.6938  0.1284
  288MOL0     H39733   9.662  10.648  11.146  1.0299  2.3600 -0.4728
  288MOL0     H39734   9.841  10.759  11.027 -0.9975  1.1866  0.8908
  288MOL0     H39735   9.698  10.803  10.950  0.6561  0.0042  0.9106
  288MOL0     H39736   9.765  10.766  10.762  2.2113 -1.1215 -3.0666
  288MOL0     H39737   9.905  10.682  10.818  0.6722  2.2868 -0.6106
  288MOL0     H39738   9.652  10.513  10.793 -0.8034 -1.3570 -2.5287
  288MOL0     H39739   9.815  10.476  10.808  0.9066 -0.2535 -0.8352
  288MOL0     H39740   9.769  10.510  10.394  0.7656 -1.1019  0.8639
  288MOL0     H39741   9.841  10.257  11.122 -0.2739 -2.0376 -0.4313
  288MOL0     H39742   9.770  10.035  11.400 -2.4822  0.2815 -0.4160
  288MOL0     H39743   9.756   9.970  11.247 -0.0496 -0.5165  0.1903
  288MOL0     H39744   9.879  10.071  11.255 -1.8673 -0.3272 -1.6599
  289MOL0     O39745   8.155   7.516   4.076  0.6292 -0.2290  0.2568
  289MOL0     C39746   8.264   7.566   4.055  0.6271  0.2033 -0.6124
  289MOL0     O39747   8.372   7.508   3.984  0.1108 -0.9826  0.5914
  289MOL0     C39748   8.382   7.377   3.970 -0.4396 -0.1498  0.0716
  289MOL0     C39749   8.475   7.342   3.867 -0.2517  0.4188  0.1505
  289MOL0     C39750   8.511   7.208   3.837  1.0287 -0.5321 -0.5684
  289MOL0     C39751   8.461   7.102   3.924 -0.3342 -0.0005  0.1786
  289MOL0     O39752   8.503   6.974   3.911  0.5822  0.8265  0.1643
  289MOL0     C39753   8.497   6.921   3.776  0.0050  0.1276  0.3047
  289MOL0     C39754   8.489   6.765   3.757 -0.2859 -0.5047 -0.0332
  289MOL0     C39755   8.352   6.721   3.762  0.3685 -0.8840 -0.0659
  289MOL0     C39756   8.328   6.566   3.747 -0.5969 -0.8140  0.5812
  289MOL0     C39757   8.176   6.534   3.756  0.2087 -0.2461 -0.9609
  289MOL0     C39758   8.153   6.380   3.753  0.1882  0.3663  0.4586
  289MOL0     C39759   8.001   6.351   3.772 -0.5697  0.2826 -0.3668
  289MOL0     C39760   7.970   6.203   3.760 -0.2062 -0.2165  0.2194
  289MOL0     N39761   7.836   6.161   3.796 -0.1152 -0.0670 -0.0746
  289MOL0     C39762   7.718   6.226   3.770  0.5001 -0.5802 -0.6027
  289MOL0     C39763   7.621   6.154   3.825 -1.1363 -0.1538 -0.2641
  289MOL0     C39764   7.481   6.179   3.853 -0.2095 -0.4525 -1.0678
  289MOL0     C39765   7.388   6.095   3.753  0.1658  1.1586 -0.6230
  289MOL0     C39766   7.243   6.151   3.728 -0.5780 -0.0585 -0.3644
  289MOL0     C39767   7.168   6.176   3.861  0.5545  0.9381  0.2102
  289MOL0     O39768   7.047   6.230   3.832  0.3274 -0.1983 -0.3593
  289MOL0     C39769   6.941   6.152   3.802  0.4049  0.4741  0.4613
  289MOL0     C39770   6.834   6.228   3.756 -0.2236  1.2548  0.3511
  289MOL0     C39771   6.709   6.171   3.725 -0.4567  0.0141  1.1682
  289MOL0     C39772   6.603   6.271   3.686 -0.0827 -0.9522  0.2695
  289MOL0     C39773   6.701   6.028   3.715 -0.2571 -0.3650  0.8470
  289MOL0     C39774   6.584   5.947   3.663 -0.6007 -0.0594 -0.8726
  289MOL0     O39775   6.596   5.808   3.658 -0.3652  0.3648 -0.2170
  289MOL0     C39776   6.495   5.741   3.607  0.5184  0.0218  0.4817
  289MOL0     C39777   6.374   5.696   3.680 -0.3579 -0.0764  0.1867
  289MOL0     C39778   6.287   5.606   3.629 -0.3651 -0.1554  0.2168
  289MOL0     C39779   6.297   5.562   3.499 -0.5122 -0.3108  0.0964
  289MOL0     O39780   6.224   5.461   3.450 -0.0689  0.4040  0.6683
  289MOL0     C39781   6.097   5.514   3.399  0.6905 -0.5281 -0.0607
  289MOL0     C39782   6.027   5.433   3.294  0.2157  0.2097 -0.3179
  289MOL0     C39783   6.103   5.414   3.158  0.5985  0.1451  0.0016
  289MOL0     C39784   6.039   5.482   3.042  0.1690  0.4114  0.0034
  289MOL0     C39785   6.108   5.476   2.903  0.7970  0.3644  0.1703
  289MOL0     C39786   6.144   5.326   2.856 -0.9778 -0.3465  0.1038
  289MOL0     C39787   6.213   5.329   2.721  0.0480  0.1754  0.8437
  289MOL0     C39788   6.323   5.223   2.718  0.3429 -0.5871  0.5606
  289MOL0    Cl39789   6.244   5.080   2.749 -0.1298  0.1758  0.1838
  289MOL0     C39790   6.391   5.620   3.416  0.4210 -0.5734 -0.2288
  289MOL0     C39791   6.490   5.708   3.462 -0.5766  0.0223 -0.5427
  289MOL0     O39792   6.482   6.012   3.624  0.3350  0.0178 -0.3715
  289MOL0     C39793   6.815   5.956   3.756  0.7058  0.0003  0.5593
  289MOL0     C39794   6.931   6.016   3.801 -0.5275 -0.2424  0.6032
  289MOL0     N39795   7.681   6.052   3.892 -0.0299  0.5587 -0.7351
  289MOL0     N39796   7.805   6.042   3.856  0.2951  0.2419 -1.4752
  289MOL0     C39797   8.361   7.139   4.017  1.1006  0.8302 -0.6267
  289MOL0     C39798   8.328   7.272   4.046 -0.6986  0.6831 -0.0775
  289MOL0     C39799   8.301   7.698   4.128  0.5209  0.1882 -0.6975
  289MOL0     C39800   8.434   7.734   4.121 -0.9088 -0.6514  0.5886
  289MOL0     C39801   8.488   7.851   4.167  0.4851  0.1341  0.1677
  289MOL0     C39802   8.401   7.934   4.236 -0.3425  0.0589 -0.9609
  289MOL0     O39803   8.440   8.052   4.288 -0.2295  0.0672 -0.1840
  289MOL0     C39804   8.425   8.162   4.194  0.2839  0.1833 -0.8587
  289MOL0     C39805   8.435   8.295   4.267  0.1531 -0.5505  0.1117
  289MOL0     C39806   8.425   8.408   4.151  0.5067 -0.5258  0.0003
  289MOL0     C39807   8.462   8.535   4.236  0.1454  0.3165 -0.3566
  289MOL0     C39808   8.599   8.545   4.290  0.2532 -0.1030  0.1436
  289MOL0     C39809   8.711   8.565   4.338 -0.0732  1.4935 -0.3437
  289MOL0     C39810   8.267   7.898   4.259  0.3422  0.0187 -0.3920
  289MOL0     C39811   8.214   7.779   4.205 -0.2153 -0.4057  0.5062
  289MOL0     C39812   8.077   7.749   4.252  0.6567  0.4758 -0.4329
  289MOL0     H39813   8.534   7.418   3.815  3.8103  1.1231  4.9888
  289MOL0     H39814   8.590   7.192   3.764  1.3649 -0.1749 -0.2890
  289MOL0     H39815   8.586   6.954   3.723  2.2423 -2.8426  1.9090
  289MOL0     H39816   8.404   6.958   3.730  0.6836 -0.3913 -1.5830
  289MOL0     H39817   8.541   6.741   3.664 -0.8626 -4.6865  0.5282
  289MOL0     H39818   8.550   6.719   3.835  1.4945 -1.3277 -1.8169
  289MOL0     H39819   8.318   6.743   3.863 -0.0815 -0.5497 -0.2844
  289MOL0     H39820   8.292   6.789   3.700  3.6282  2.0178 -0.3474
  289MOL0     H39821   8.369   6.545   3.648 -1.0838  1.0943 -0.0710
  289MOL0     H39822   8.385   6.517   3.826 -0.5421  1.0173  1.7616
  289MOL0     H39823   8.119   6.580   3.674 -1.4247 -2.1543 -0.9849
  289MOL0     H39824   8.135   6.572   3.849  1.1679 -0.9067 -0.2504
  289MOL0     H39825   8.190   6.344   3.656  1.0339  0.5454  0.7035
  289MOL0     H39826   8.212   6.327   3.829 -2.9545 -2.0746  1.4416
  289MOL0     H39827   7.945   6.415   3.703  1.0512  0.3817 -1.6689
  289MOL0     H39828   7.981   6.385   3.874  2.1078 -1.4651  0.8453
  289MOL0     H39829   7.980   6.175   3.654  1.0318  0.1631  0.2166
  289MOL0     H39830   8.047   6.153   3.820 -0.8961  0.2365  1.5014
  289MOL0     H39831   7.701   6.325   3.730 -0.1380 -1.4436 -2.5987
  289MOL0     H39832   7.456   6.285   3.853  0.3012 -0.1856  2.8452
  289MOL0     H39833   7.449   6.146   3.953 -0.7321  2.6477 -0.1149
  289MOL0     H39834   7.441   6.069   3.661 -0.9208  0.2227 -1.0090
  289MOL0     H39835   7.368   6.001   3.804 -0.2183  2.3847  1.6392
  289MOL0     H39836   7.254   6.251   3.686 -1.9712  0.5959  0.7410
  289MOL0     H39837   7.191   6.079   3.665 -0.6502 -1.0022  0.7517
  289MOL0     H39838   7.147   6.092   3.928  1.9671 -1.9651 -2.7134
  289MOL0     H39839   7.221   6.256   3.912  0.7978  1.0189 -0.1681
  289MOL0     H39840   6.844   6.336   3.764 -1.3402  1.3024  1.4103
  289MOL0     H39841   6.505   6.243   3.727 -2.1289 -1.0242 -4.0709
  289MOL0     H39842   6.602   6.277   3.576 -2.4854 -4.0813 -0.0426
  289MOL0     H39843   6.621   6.374   3.716 -4.3190  0.4556 -1.1805
  289MOL0     H39844   6.368   5.727   3.784  0.9763 -1.3615  0.6800
  289MOL0     H39845   6.213   5.548   3.683  0.1657 -2.1359 -1.0907
  289MOL0     H39846   6.027   5.500   3.482 -1.5753 -1.7947 -2.0503
  289MOL0     H39847   6.105   5.619   3.372 -0.2830  0.1205  1.9265
  289MOL0     H39848   6.008   5.333   3.334  3.2728  0.2332  1.5305
  289MOL0     H39849   5.928   5.478   3.284 -0.1971  0.1135  2.5335
  289MOL0     H39850   6.111   5.308   3.132  3.7027  1.0400 -3.5287
  289MOL0     H39851   6.208   5.444   3.158  0.4239  0.8801  2.0755
  289MOL0     H39852   6.019   5.586   3.071  4.2498  2.1715 -2.6132
  289MOL0     H39853   5.934   5.449   3.042  0.5162 -0.7395 -0.2186
  289MOL0     H39854   6.037   5.512   2.827 -0.5333 -0.8570  0.7705
  289MOL0     H39855   6.196   5.540   2.914  0.2201  1.6453 -1.9771
  289MOL0     H39856   6.061   5.255   2.861 -3.1095  2.0980  1.8052
  289MOL0     H39857   6.211   5.289   2.934 -3.9609  2.6168  4.4955
  289MOL0     H39858   6.269   5.419   2.692  2.8266 -1.5292  0.4946
  289MOL0     H39859   6.142   5.313   2.639  2.1696  0.6736 -1.2167
  289MOL0     H39860   6.397   5.236   2.797 -0.5840  0.9016  1.2319
  289MOL0     H39861   6.380   5.198   2.628  0.7739 -2.1677  1.2264
  289MOL0     H39862   6.388   5.577   3.316  2.1968 -1.0289 -0.1167
  289MOL0     H39863   6.557   5.758   3.394  0.0361 -1.1634 -0.8318
  289MOL0     H39864   6.816   5.848   3.763  1.7368  0.0604  1.6202
  289MOL0     H39865   7.011   5.951   3.838  0.9384  2.2681  2.1302
  289MOL0     H39866   8.330   7.053   4.076 -0.4287  1.4215 -0.5170
  289MOL0     H39867   8.261   7.293   4.128  0.5538  0.8989  0.9128
  289MOL0     H39868   8.505   7.679   4.060 -3.3068  0.1093 -3.1843
  289MOL0     H39869   8.595   7.859   4.151  0.0690  4.4369 -1.7943
  289MOL0     H39870   8.498   8.146   4.115 -1.9567 -4.5234 -2.3647
  289MOL0     H39871   8.328   8.139   4.150 -0.4079 -0.8657  1.0500
  289MOL0     H39872   8.530   8.305   4.321 -1.0427  3.1979  1.8920
  289MOL0     H39873   8.355   8.318   4.338 -1.4299 -2.5162 -0.9562
  289MOL0     H39874   8.490   8.394   4.064 -2.7005 -2.5735 -2.3398
  289MOL0     H39875   8.323   8.425   4.115  0.7949  1.2881 -0.0222
  289MOL0     H39876   8.402   8.547   4.328  3.5148  0.1794  2.0309
  289MOL0     H39877   8.449   8.616   4.163  0.6630  0.2672 -0.5000
  289MOL0     H39878   8.804   8.571   4.391 -0.5571 -0.6476  0.8374
  289MOL0     H39879   8.206   7.963   4.321 -0.7465 -0.4795 -0.9192
  289MOL0     H39880   8.059   7.643   4.271  2.1565  0.3877  0.6278
  289MOL0     H39881   8.052   7.799   4.346 -2.1732 -0.0651 -0.7968
  289MOL0     H39882   8.007   7.781   4.174  1.2964 -0.1890 -1.3091
  290MOL0     O39883  10.145   1.706   5.049 -0.2303 -0.6129 -0.0749
  290MOL0     C39884  10.163   1.747   4.931  0.7421 -1.0380 -0.4073
  290MOL0     O39885  10.067   1.769   4.840 -0.2680 -0.0347 -1.5170
  290MOL0     C39886   9.938   1.770   4.882 -0.4401  0.3924  0.5417
  290MOL0     C39887   9.847   1.728   4.777  0.1746 -0.4442  0.4751
  290MOL0     C39888   9.709   1.716   4.794 -0.3899 -0.3401 -1.0033
  290MOL0     C39889   9.657   1.752   4.917 -0.3463  0.7088  0.6811
  290MOL0     O39890   9.527   1.742   4.940  0.1996 -0.2867 -0.3781
  290MOL0     C39891   9.441   1.846   4.886 -0.9164  0.2666 -0.7567
  290MOL0     C39892   9.437   1.967   4.974 -0.3259 -0.2302  0.4268
  290MOL0     C39893   9.415   1.927   5.122  0.6265 -0.7787  0.9687
  290MOL0     C39894   9.403   2.044   5.223  0.2019  0.0484  0.7607
  290MOL0     C39895   9.392   2.005   5.372  0.4063 -0.1273  0.0198
  290MOL0     C39896   9.483   1.900   5.425  0.0743  0.0187  0.2174
  290MOL0     C39897   9.630   1.945   5.437  0.0840  0.0751 -0.6655
  290MOL0     C39898   9.706   1.844   5.532 -0.8738 -0.3536  0.9672
  290MOL0     N39899   9.678   1.698   5.511  0.3504 -0.1235  0.5798
  290MOL0     C39900   9.744   1.624   5.417  0.1776 -0.0828  1.2191
  290MOL0     C39901   9.663   1.516   5.408  0.4860 -0.7074 -0.2445
  290MOL0     C39902   9.672   1.384   5.337 -0.1257  0.1786  0.1255
  290MOL0     C39903   9.553   1.344   5.244 -0.3271 -0.6975 -1.2071
  290MOL0     C39904   9.534   1.430   5.120  0.2726  0.6399 -0.2240
  290MOL0     C39905   9.620   1.392   4.998 -1.0713  0.2187  0.1993
  290MOL0     O39906   9.757   1.395   5.033 -0.2581  0.1156  0.0606
  290MOL0     C39907   9.853   1.394   4.932 -1.0662 -0.4250 -1.1221
  290MOL0     C39908   9.835   1.391   4.797  0.3798 -1.4226  0.2529
  290MOL0     C39909   9.937   1.395   4.705  0.4791  0.2813  0.7217
  290MOL0     C39910   9.916   1.393   4.561 -0.3925  0.9315 -0.2910
  290MOL0     C39911  10.066   1.435   4.748 -0.4958  0.5924 -0.2322
  290MOL0     C39912  10.183   1.441   4.651  0.4165  0.0073 -0.3184
  290MOL0     O39913  10.187   1.547   4.567 -0.1200  0.1790  0.1802
  290MOL0     C39914  10.307   1.574   4.515  0.1204 -0.3728 -0.9562
  290MOL0     C39915  10.424   1.607   4.591 -0.0076  0.6822  0.2394
  290MOL0     C39916  10.538   1.664   4.533  0.4809 -0.5892  0.2070
  290MOL0     C39917  10.532   1.674   4.395  0.2177  0.2513  0.3912
  290MOL0     O39918  10.634   1.741   4.331  0.3633 -0.5996 -0.6419
  290MOL0     C39919  10.673   1.868   4.378  0.2143  0.4621  0.4469
  290MOL0     C39920  10.774   1.937   4.293 -0.2005 -0.0639  0.4008
  290MOL0     C39921  10.690   1.969   4.161  0.0670 -0.2147  0.5777
  290MOL0     C39922  10.772   2.045   4.051  0.4738 -0.3127 -0.3781
  290MOL0     C39923  10.667   2.096   3.945  0.0070  1.2973 -0.1991
  290MOL0     C39924  10.728   2.142   3.817  0.4147 -0.5061 -0.0315
  290MOL0     C39925  10.771   2.030   3.718 -0.4244  0.5813  1.1178
  290MOL0     C39926  10.776   2.083   3.573  1.1737  0.8807  0.2771
  290MOL0    Cl39927  10.831   1.959   3.454  0.0125 -0.7269 -0.0190
  290MOL0     C39928  10.436   1.612   4.321 -0.2230 -1.2723  0.4716
  290MOL0     C39929  10.319   1.566   4.373 -1.0279  0.8474  0.1143
  290MOL0     O39930  10.269   1.357   4.662  0.5689 -0.1474  0.1910
  290MOL0     C39931  10.087   1.448   4.891  1.0670  0.9552 -0.0953
  290MOL0     C39932   9.978   1.419   4.985  0.6782 -0.0183  0.6405
  290MOL0     N39933   9.568   1.516   5.507 -0.4487  0.3197  0.4067
  290MOL0     N39934   9.575   1.630   5.569 -1.0460 -0.6094  0.6364
  290MOL0     C39935   9.744   1.789   5.018 -0.2869 -0.3007  1.0151
  290MOL0     C39936   9.882   1.799   5.004  1.0695  0.2934  1.2659
  290MOL0     C39937  10.292   1.824   4.908  0.0482 -0.6074  0.8303
  290MOL0     C39938  10.294   1.911   4.799 -0.0407  0.7054  0.8456
  290MOL0     C39939  10.400   1.976   4.753  0.5486 -0.1175  0.9915
  290MOL0     C39940  10.524   1.957   4.809  0.1717  0.4580 -0.6322
  290MOL0     O39941  10.632   2.008   4.751  0.1914 -0.1898  0.8143
  290MOL0     C39942  10.735   2.072   4.826  0.2445  0.1256  0.2550
  290MOL0     C39943  10.751   2.203   4.764  0.4763 -0.3259 -0.7535
  290MOL0     C39944  10.772   2.195   4.611 -1.0350 -0.6493  1.2956
  290MOL0     C39945  10.811   2.336   4.547  0.3169  0.1419  0.4579
  290MOL0     C39946  10.717   2.440   4.588  0.1938  0.0193  0.0892
  290MOL0     C39947  10.654   2.517   4.658  0.3108  0.2523  0.0162
  290MOL0     C39948  10.522   1.874   4.926 -0.3869 -0.6223 -0.4095
  290MOL0     C39949  10.414   1.806   4.970  0.9571  0.1893 -0.1885
  290MOL0     C39950  10.447   1.698   5.079  0.4215  0.5744 -0.5130
  290MOL0     H39951   9.889   1.703   4.680  0.8837  0.7874  0.4414
  290MOL0     H39952   9.655   1.704   4.700 -1.8111  1.3562 -0.4702
  290MOL0     H39953   9.338   1.809   4.885 -0.4412 -1.1471  0.3307
  290MOL0     H39954   9.465   1.874   4.783  0.3054 -2.2753 -1.2459
  290MOL0     H39955   9.534   2.018   4.969 -2.4424  4.0826 -1.2111
  290MOL0     H39956   9.370   2.050   4.951  1.6100  1.4016  0.4260
  290MOL0     H39957   9.326   1.865   5.129  1.0133 -1.3002  1.3555
  290MOL0     H39958   9.508   1.878   5.152  1.5119  0.7080  0.8003
  290MOL0     H39959   9.504   2.087   5.222  2.1446 -3.8853  1.9790
  290MOL0     H39960   9.323   2.109   5.189  0.6318  0.3344  0.2943
  290MOL0     H39961   9.286   1.983   5.381  0.2051 -0.0640 -1.7512
  290MOL0     H39962   9.399   2.098   5.430 -0.4461  0.0335 -0.1237
  290MOL0     H39963   9.450   1.870   5.525  0.1060 -0.4586  0.0856
  290MOL0     H39964   9.479   1.806   5.370 -1.2685 -0.5238  1.1703
  290MOL0     H39965   9.643   2.044   5.483  1.4864 -0.3124 -0.1531
  290MOL0     H39966   9.678   1.940   5.339  0.6692 -2.0194 -0.3394
  290MOL0     H39967   9.814   1.861   5.537 -0.9975  0.5178  0.9585
  290MOL0     H39968   9.675   1.861   5.636  0.8073  2.2254  1.1675
  290MOL0     H39969   9.818   1.666   5.349  0.4677  0.8045  2.0532
  290MOL0     H39970   9.684   1.295   5.400  1.6321 -0.8442 -1.5196
  290MOL0     H39971   9.759   1.388   5.270 -0.0467  2.0046  0.2995
  290MOL0     H39972   9.560   1.238   5.219  0.7381 -0.6582 -1.1448
  290MOL0     H39973   9.457   1.357   5.295 -0.9011 -0.5577 -2.3098
  290MOL0     H39974   9.430   1.439   5.089 -0.0451 -0.2292  0.5578
  290MOL0     H39975   9.562   1.535   5.135  2.2057  0.0550  0.6372
  290MOL0     H39976   9.595   1.288   4.976 -1.8949  0.5300 -0.3764
  290MOL0     H39977   9.597   1.468   4.922  0.6440  1.1053  0.4984
  290MOL0     H39978   9.732   1.389   4.763 -0.3738  0.3641  2.2214
  290MOL0     H39979  10.004   1.422   4.502  0.3280  2.0734  1.2721
  290MOL0     H39980   9.834   1.465   4.550 -2.9717 -1.7404  0.2240
  290MOL0     H39981   9.878   1.299   4.522  0.1963  2.0739 -4.0095
  290MOL0     H39982  10.424   1.601   4.700  2.9645  3.2365  0.5377
  290MOL0     H39983  10.625   1.697   4.589 -0.3933 -0.1780  1.3888
  290MOL0     H39984  10.588   1.936   4.391 -0.7059 -0.8736  1.6463
  290MOL0     H39985  10.714   1.857   4.479  2.4485 -0.4442 -0.4945
  290MOL0     H39986  10.805   2.038   4.321 -1.6015  1.1830 -2.1516
  290MOL0     H39987  10.862   1.876   4.271  0.6011  1.1657  0.1315
  290MOL0     H39988  10.602   2.027   4.188 -0.8786 -1.5471  0.4283
  290MOL0     H39989  10.647   1.876   4.123  1.5000 -0.7623  0.2089
  290MOL0     H39990  10.837   1.966   4.011  2.5484  0.5857  1.0371
  290MOL0     H39991  10.830   2.127   4.094  3.8683 -1.2172 -2.8165
  290MOL0     H39992  10.594   2.019   3.918 -0.9000  3.1799 -3.8171
  290MOL0     H39993  10.614   2.178   3.994 -1.1044  1.1071 -1.0381
  290MOL0     H39994  10.811   2.207   3.846  0.5237 -0.3813 -0.6082
  290MOL0     H39995  10.648   2.204   3.775  0.4880  1.5394  2.5463
  290MOL0     H39996  10.687   1.960   3.714  0.5724 -0.6616  1.3112
  290MOL0     H39997  10.859   1.973   3.749 -0.4841  1.4632  3.0378
  290MOL0     H39998  10.846   2.167   3.568  0.1840  1.7632  1.0061
  290MOL0     H39999  10.673   2.119   3.569 -0.3537 -3.0170 -0.2466
  290MOL0     H40000  10.431   1.623   4.213 -2.7207  0.7520  0.6906
  290MOL0     H40001  10.230   1.532   4.321  0.0044 -2.2565  0.1934
  290MOL0     H40002  10.187   1.474   4.926  1.1861  0.4948 -0.0920
  290MOL0     H40003   9.992   1.438   5.091 -0.0423  2.3988  0.3612
  290MOL0     H40004   9.719   1.816   5.120  2.7727 -0.1014  1.7928
  290MOL0     H40005   9.928   1.837   5.095 -0.8102  3.4945  1.0331
  290MOL0     H40006  10.203   1.930   4.744  0.7156 -0.8228 -1.0364
  290MOL0     H40007  10.397   2.039   4.665  3.3841 -1.5376 -0.2421
  290MOL0     H40008  10.725   2.094   4.933  0.6780 -0.1528  0.3519
  290MOL0     H40009  10.828   2.020   4.802 -0.6036 -1.0399 -0.6189
  290MOL0     H40010  10.839   2.241   4.817  1.3980 -3.4765  0.2075
  290MOL0     H40011  10.662   2.265   4.778  1.2970  0.8073 -0.3973
  290MOL0     H40012  10.835   2.115   4.573 -1.3011  0.0878 -0.8032
  290MOL0     H40013  10.669   2.183   4.576 -2.4078 -1.1189  4.9883
  290MOL0     H40014  10.808   2.322   4.439 -0.2306 -0.5520  0.5460
  290MOL0     H40015  10.905   2.371   4.589 -1.0215  4.9729 -0.0002
  290MOL0     H40016  10.624   2.591   4.729  1.5131  0.4478  0.3423
  290MOL0     H40017  10.619   1.856   4.972 -0.0566  3.2447  0.7348
  290MOL0     H40018  10.414   1.747   5.172  1.0875  0.0616  0.0074
  290MOL0     H40019  10.409   1.599   5.055 -2.0512  2.3688 -5.2782
  290MOL0     H40020  10.554   1.703   5.102  0.4420  3.6408 -0.8725
  291MOL0     O40021   9.507   5.147   0.801  0.4587  0.1312  1.0935
  291MOL0     C40022   9.557   5.233   0.872 -0.1595 -0.5872 -0.6689
  291MOL0     O40023   9.629   5.206   0.983  0.1638 -0.3772  0.2586
  291MOL0     C40024   9.693   5.084   0.978  0.9698  0.9351  0.1678
  291MOL0     C40025   9.804   5.064   0.903 -0.2212  0.1093  0.6792
  291MOL0     C40026   9.885   4.944   0.928 -0.0494 -0.2237  0.9951
  291MOL0     C40027   9.831   4.836   1.005 -0.1517  0.5685  0.4861
  291MOL0     O40028   9.888   4.707   1.024 -0.1929 -0.3833 -0.1263
  291MOL0     C40029  10.027   4.685   0.978  0.5553  0.9500  0.1729
  291MOL0     C40030  10.062   4.547   1.014 -0.2533 -0.4258  0.4515
  291MOL0     C40031  10.211   4.525   1.001  0.1817 -0.1791  0.4485
  291MOL0     C40032  10.265   4.380   1.001 -0.0330 -0.2023  0.2148
  291MOL0     C40033  10.424   4.379   1.015 -0.4596 -0.8346 -0.5919
  291MOL0     C40034  10.483   4.247   1.011 -0.1267  0.2329 -0.0168
  291MOL0     C40035  10.627   4.266   0.985 -0.4532  0.2233  0.3379
  291MOL0     C40036  10.717   4.138   0.980  0.9227 -0.6543  0.2427
  291MOL0     N40037  10.722   4.083   1.113  0.1223  0.2056  0.0318
  291MOL0     C40038  10.804   4.132   1.215 -0.3817  0.5763  1.0995
  291MOL0     C40039  10.753   4.098   1.335  0.2857  0.3664 -0.6273
  291MOL0     C40040  10.798   4.140   1.476 -0.8540 -0.1380 -0.1934
  291MOL0     C40041  10.889   4.021   1.520 -0.3257 -0.7935  0.6294
  291MOL0     C40042  10.803   3.904   1.578  0.0774  0.3326 -0.6638
  291MOL0     C40043  10.893   3.788   1.618 -0.6480  0.5313  0.1739
  291MOL0     O40044  10.973   3.825   1.727  0.0341 -0.3114 -0.8727
  291MOL0     C40045  11.012   3.737   1.824 -0.2671  0.3079  0.2642
  291MOL0     C40046  11.047   3.784   1.941  0.1275 -0.8624 -0.3072
  291MOL0     C40047  11.085   3.711   2.055 -0.5659 -0.2667 -0.3322
  291MOL0     C40048  11.114   3.779   2.180  0.8274  0.0026 -1.4664
  291MOL0     C40049  11.106   3.569   2.044  0.0413 -1.0343  0.5636
  291MOL0     C40050  11.179   3.489   2.139  0.0945 -0.0933 -0.3107
  291MOL0     O40051  11.113   3.396   2.198  0.5050  0.7298  0.0605
  291MOL0     C40052  11.180   3.293   2.269 -0.5646  0.5762  0.8915
  291MOL0     C40053  11.218   3.174   2.206  0.2808  0.0407  0.2478
  291MOL0     C40054  11.300   3.077   2.269  1.4558 -0.8182  0.0682
  291MOL0     C40055  11.342   3.095   2.401 -0.1904  0.4200  0.4945
  291MOL0     O40056  11.408   2.987   2.454  0.0224  0.0074  0.5330
  291MOL0     C40057  11.510   3.012   2.555  0.9086  0.7516 -0.8420
  291MOL0     C40058  11.652   3.011   2.508  0.6547  0.3204 -0.0039
  291MOL0     C40059  11.680   2.907   2.405  0.1328  0.6656 -0.3407
  291MOL0     C40060  11.656   2.758   2.469 -0.2043  0.1245 -0.7692
  291MOL0     C40061  11.744   2.726   2.585  0.0315  0.0755 -0.0064
  291MOL0     C40062  11.712   2.590   2.655 -0.5314  0.0195 -0.0605
  291MOL0     C40063  11.846   2.539   2.723 -1.0629 -0.6978  0.2469
  291MOL0     C40064  11.821   2.401   2.786 -0.2372 -0.2815 -0.3773
  291MOL0    Cl40065  11.753   2.278   2.664 -0.6693 -0.5304  0.4669
  291MOL0     C40066  11.299   3.214   2.467 -0.6115  0.5310 -0.7134
  291MOL0     C40067  11.227   3.319   2.401 -0.2173  0.4945 -0.6846
  291MOL0     O40068  11.303   3.501   2.142 -0.0306 -0.0986  0.0187
  291MOL0     C40069  11.087   3.521   1.915  0.3723  0.5978 -0.0560
  291MOL0     C40070  11.044   3.604   1.804 -0.1003  0.7679  0.6069
  291MOL0     N40071  10.646   4.023   1.306  0.8349 -0.2228 -0.9952
  291MOL0     N40072  10.627   4.017   1.172  0.5842  0.0221 -0.5364
  291MOL0     C40073   9.725   4.867   1.078  0.9028  0.4027 -0.0955
  291MOL0     C40074   9.657   4.986   1.070 -0.3120  0.7201 -0.1240
  291MOL0     C40075   9.549   5.368   0.822 -0.7344 -0.7576 -0.3022
  291MOL0     C40076   9.670   5.446   0.849 -0.2177 -0.1565 -0.5934
  291MOL0     C40077   9.685   5.576   0.801 -0.7738  0.9017 -0.0861
  291MOL0     C40078   9.579   5.628   0.729 -0.1158  0.4103 -0.9237
  291MOL0     O40079   9.606   5.758   0.678 -0.2858  0.4400 -0.1209
  291MOL0     C40080   9.529   5.804   0.566  1.1180 -0.1706  0.7839
  291MOL0     C40081   9.580   5.943   0.521  0.2258  0.4060 -0.0525
  291MOL0     C40082   9.678   5.939   0.407 -0.3149  0.1786 -0.2956
  291MOL0     C40083   9.710   6.076   0.350  0.5987 -0.7738 -0.2046
  291MOL0     C40084   9.611   6.111   0.238  0.5585  1.4370 -0.1845
  291MOL0     C40085   9.544   6.162   0.147  0.6711  0.3082 -0.3161
  291MOL0     C40086   9.461   5.561   0.716 -0.3938  0.9539 -0.8285
  291MOL0     C40087   9.439   5.429   0.763 -1.1700 -0.7137  0.2170
  291MOL0     C40088   9.312   5.363   0.708 -0.5522 -0.5446  0.1826
  291MOL0     H40089   9.849   5.140   0.839  0.7115 -0.8401  0.1632
  291MOL0     H40090   9.975   4.935   0.869 -0.5745  0.4810  0.0562
  291MOL0     H40091  10.095   4.755   1.028  0.3739  1.3838 -0.1729
  291MOL0     H40092  10.026   4.691   0.868  0.5606 -1.6546 -0.0222
  291MOL0     H40093  10.030   4.515   1.113 -2.0390 -0.8486 -0.2151
  291MOL0     H40094  10.011   4.491   0.935 -0.9971  2.5066 -1.3089
  291MOL0     H40095  10.249   4.574   0.911 -0.7281 -3.5352 -1.9712
  291MOL0     H40096  10.267   4.585   1.074 -2.8707  2.6252  0.7095
  291MOL0     H40097  10.226   4.333   1.091  0.2988  0.8536  0.9315
  291MOL0     H40098  10.234   4.343   0.903 -0.8859  0.8119  0.0761
  291MOL0     H40099  10.447   4.438   1.104 -0.3158 -2.2537  0.3485
  291MOL0     H40100  10.473   4.444   0.942  2.9787  1.2952  3.1691
  291MOL0     H40101  10.468   4.193   1.105  0.1984 -0.5075 -0.3913
  291MOL0     H40102  10.434   4.182   0.938 -0.0832 -0.9563  0.9714
  291MOL0     H40103  10.685   4.345   1.035 -0.1709  1.5087 -1.8601
  291MOL0     H40104  10.628   4.299   0.880 -0.7840  0.8942  0.5362
  291MOL0     H40105  10.673   4.066   0.910 -1.3606  0.0420  0.8791
  291MOL0     H40106  10.815   4.178   0.951  0.1201  2.2835  1.1761
  291MOL0     H40107  10.905   4.170   1.204 -0.9981  3.2546  3.4928
  291MOL0     H40108  10.728   4.144   1.560  1.6261  0.2757  1.9932
  291MOL0     H40109  10.855   4.233   1.478 -0.1861 -0.4676 -1.9061
  291MOL0     H40110  10.961   3.987   1.446 -1.2600 -0.8141 -0.2948
  291MOL0     H40111  10.945   4.056   1.607  1.0499 -0.5636 -0.3187
  291MOL0     H40112  10.746   3.928   1.669 -1.2587 -0.9187 -1.1347
  291MOL0     H40113  10.748   3.851   1.500  2.1174 -2.1694 -0.5244
  291MOL0     H40114  10.833   3.698   1.631 -1.9241  1.7195  3.4923
  291MOL0     H40115  10.958   3.769   1.531  2.8450  4.3525  1.5923
  291MOL0     H40116  11.026   3.889   1.962  0.8919 -0.6130 -0.7583
  291MOL0     H40117  11.098   3.888   2.187  2.1968  0.3369 -2.9736
  291MOL0     H40118  11.221   3.770   2.201  0.4581 -0.8226  0.2075
  291MOL0     H40119  11.062   3.728   2.261 -3.1523  1.9711 -2.4714
  291MOL0     H40120  11.183   3.160   2.104  4.9266 -0.5274 -1.5711
  291MOL0     H40121  11.316   2.983   2.216  0.8590 -1.2655  0.6738
  291MOL0     H40122  11.476   3.105   2.601 -3.5648  0.0496 -2.2510
  291MOL0     H40123  11.494   2.935   2.632 -4.4333  0.5504 -1.7868
  291MOL0     H40124  11.664   3.111   2.464 -0.7182  0.1538 -0.8281
  291MOL0     H40125  11.713   2.990   2.596  1.4451 -0.8893 -0.8170
  291MOL0     H40126  11.780   2.915   2.362 -0.3720  0.7271 -1.5448
  291MOL0     H40127  11.613   2.918   2.319 -1.3436 -1.1699  0.4789
  291MOL0     H40128  11.672   2.676   2.399 -1.2367 -0.2046 -0.6387
  291MOL0     H40129  11.549   2.749   2.489 -0.2999  0.0277 -1.3245
  291MOL0     H40130  11.847   2.724   2.550  1.5203 -1.1808  3.9374
  291MOL0     H40131  11.734   2.793   2.671  0.9234 -2.2313  2.0048
  291MOL0     H40132  11.666   2.509   2.597  0.6256 -1.5445  1.1201
  291MOL0     H40133  11.640   2.606   2.735 -1.4295 -1.6651 -0.4859
  291MOL0     H40134  11.879   2.609   2.800 -1.4735  0.7398 -0.8410
  291MOL0     H40135  11.924   2.532   2.646 -0.4347  1.2319  0.6544
  291MOL0     H40136  11.759   2.428   2.872  2.8123  0.7406  1.6864
  291MOL0     H40137  11.911   2.364   2.837 -2.1957  2.2505  5.8842
  291MOL0     H40138  11.312   3.216   2.575  2.4806 -1.9936 -0.8960
  291MOL0     H40139  11.193   3.407   2.455 -2.8403  0.5557 -2.2481
  291MOL0     H40140  11.103   3.421   1.877  0.5719  0.9883 -1.0279
  291MOL0     H40141  11.026   3.564   1.705  2.3437  1.1070 -0.0279
  291MOL0     H40142   9.683   4.783   1.133  0.0001  0.4748 -0.6571
  291MOL0     H40143   9.566   4.997   1.128 -0.2820 -1.5483  0.4632
  291MOL0     H40144   9.746   5.404   0.915 -0.8856 -0.3941  0.0298
  291MOL0     H40145   9.774   5.635   0.820  0.0604  0.8877 -3.2906
  291MOL0     H40146   9.531   5.728   0.488  5.1041  0.4625  0.0636
  291MOL0     H40147   9.430   5.810   0.612  1.4434  1.2725  1.3524
  291MOL0     H40148   9.615   5.993   0.612 -3.7387  0.7579  1.4913
  291MOL0     H40149   9.492   5.999   0.487  0.1057 -0.7094 -1.7042
  291MOL0     H40150   9.770   5.910   0.459 -1.4675 -1.6826  0.8208
  291MOL0     H40151   9.662   5.869   0.325  3.5412 -0.8067 -0.4447
  291MOL0     H40152   9.811   6.078   0.309  0.4135  1.1549 -0.6859
  291MOL0     H40153   9.714   6.154   0.426 -1.5884 -1.6662  0.9050
  291MOL0     H40154   9.488   6.217   0.074 -1.1987  1.0476  1.5912
  291MOL0     H40155   9.382   5.612   0.662 -2.2024 -1.9018 -1.0628
  291MOL0     H40156   9.257   5.301   0.779 -0.4424 -1.3522 -0.4229
  291MOL0     H40157   9.232   5.433   0.682 -2.3901 -2.4390  0.4962
  291MOL0     H40158   9.343   5.304   0.621 -2.2487 -2.4791  0.8026
  292MOL0     O40159   2.037   5.529  11.145 -0.4283  0.1540  0.3362
  292MOL0     C40160   1.933   5.596  11.168  0.7409 -0.5472 -0.1117
  292MOL0     O40161   1.833   5.580  11.261  0.1259  0.2471 -0.4519
  292MOL0     C40162   1.811   5.467  11.333  0.4472  0.7808  0.0466
  292MOL0     C40163   1.702   5.474  11.425  0.2975  0.3821  0.6830
  292MOL0     C40164   1.667   5.373  11.508 -0.2554 -0.6155  0.3296
  292MOL0     C40165   1.730   5.249  11.496 -1.0674  0.4258  0.1569
  292MOL0     O40166   1.704   5.149  11.587 -0.2312 -0.5462 -0.0260
  292MOL0     C40167   1.803   5.049  11.608  0.5415  0.2737 -0.3373
  292MOL0     C40168   1.748   4.967  11.726  0.4056  0.1681  1.0461
  292MOL0     C40169   1.839   4.840  11.747 -0.6769 -1.0880  0.7676
  292MOL0     C40170   1.972   4.861  11.822 -0.1782  0.9086  0.0100
  292MOL0     C40171   2.003   4.729  11.901  1.0487  0.0615  0.7969
  292MOL0     C40172   2.151   4.699  11.932 -0.9052  0.5437 -0.1919
  292MOL0     C40173   2.211   4.810  12.016 -0.0799 -1.5499 -0.2176
  292MOL0     C40174   2.373   4.805  12.029  0.3365 -0.0585  0.2790
  292MOL0     N40175   2.438   4.792  11.898  0.0535 -0.1197  0.7835
  292MOL0     C40176   2.403   4.870  11.790  0.2619  0.7153 -0.4845
  292MOL0     C40177   2.489   4.828  11.688  0.1753  0.6544  0.5977
  292MOL0     C40178   2.509   4.894  11.552  1.2669  0.3081 -0.3830
  292MOL0     C40179   2.411   5.007  11.532  0.3814 -0.1463  0.1040
  292MOL0     C40180   2.420   5.046  11.386 -0.9308  0.1779 -0.7852
  292MOL0     C40181   2.363   5.192  11.349  0.7024  0.1878  0.1975
  292MOL0     O40182   2.464   5.291  11.387  0.0952  0.3597  0.8119
  292MOL0     C40183   2.443   5.418  11.350  0.1531 -1.1527 -0.1808
  292MOL0     C40184   2.540   5.505  11.384 -0.6979  0.1309 -1.1908
  292MOL0     C40185   2.539   5.650  11.365 -0.3384  0.2316 -0.2359
  292MOL0     C40186   2.657   5.729  11.423 -0.5990 -0.4969 -1.1849
  292MOL0     C40187   2.413   5.694  11.310 -0.0793 -0.6193 -0.0402
  292MOL0     C40188   2.379   5.838  11.300 -0.6100  0.6369  0.4064
  292MOL0     O40189   2.250   5.874  11.271  0.6573 -0.3075 -0.2121
  292MOL0     C40190   2.215   6.009  11.233 -0.0847  0.9436  0.0091
  292MOL0     C40191   2.163   6.055  11.112  0.3548 -0.4728 -0.3114
  292MOL0     C40192   2.105   6.187  11.110  0.6715 -0.2631  1.2614
  292MOL0     C40193   2.114   6.273  11.219 -0.0352 -0.9495 -0.4913
  292MOL0     O40194   2.071   6.403  11.223 -0.8937 -0.2438  0.4917
  292MOL0     C40195   2.020   6.458  11.102  0.0889 -0.4139 -0.5881
  292MOL0     C40196   1.964   6.588  11.130  0.0884  0.3980  0.9201
  292MOL0     C40197   1.869   6.585  11.252  0.7905  0.1532  0.5687
  292MOL0     C40198   1.776   6.711  11.256 -1.0416 -0.7679 -0.0083
  292MOL0     C40199   1.684   6.698  11.388 -0.8810  0.0724 -0.0693
  292MOL0     C40200   1.566   6.798  11.387 -0.2934  0.7013  0.4719
  292MOL0     C40201   1.475   6.772  11.254 -0.5757 -0.4481 -0.2113
  292MOL0     C40202   1.409   6.636  11.249 -0.6303  0.2759 -0.0792
  292MOL0    Cl40203   1.358   6.586  11.086 -0.0331 -0.6206  0.2175
  292MOL0     C40204   2.185   6.238  11.330 -0.6167  0.1542  0.4454
  292MOL0     C40205   2.229   6.102  11.335  0.1880  0.0027  0.3296
  292MOL0     O40206   2.462   5.924  11.323  0.2488  0.3946  0.2657
  292MOL0     C40207   2.302   5.596  11.268  0.0419  0.0548 -0.1198
  292MOL0     C40208   2.322   5.464  11.297 -0.5211  0.0928  0.0088
  292MOL0     N40209   2.577   4.735  11.734 -0.5149  0.1397 -0.2248
  292MOL0     N40210   2.538   4.703  11.856 -1.1270  0.6300 -0.5117
  292MOL0     C40211   1.849   5.235  11.411 -0.2386 -0.1834 -1.2973
  292MOL0     C40212   1.880   5.344  11.336  0.0017  0.0630  0.2146
  292MOL0     C40213   1.905   5.711  11.074 -0.2758  0.8721  0.6744
  292MOL0     C40214   1.796   5.790  11.100  0.0584 -0.1890 -0.1260
  292MOL0     C40215   1.750   5.891  11.015 -0.4209 -0.2584 -0.0445
  292MOL0     C40216   1.812   5.905  10.893 -0.1132  0.5725  0.6629
  292MOL0     O40217   1.763   5.985  10.800  0.3747  0.9395  0.4663
  292MOL0     C40218   1.658   6.080  10.831 -0.3995  0.5235  0.2364
  292MOL0     C40219   1.695   6.211  10.906 -0.2419  0.0078  0.1603
  292MOL0     C40220   1.635   6.329  10.839 -1.1935  0.2859  0.8738
  292MOL0     C40221   1.704   6.346  10.694 -0.6548 -0.4692  0.2684
  292MOL0     C40222   1.820   6.427  10.710  0.1607  1.0885  0.1571
  292MOL0     C40223   1.907   6.517  10.712  0.3867  0.1992 -0.1193
  292MOL0     C40224   1.931   5.836  10.869 -0.1285  0.1283  0.6094
  292MOL0     C40225   1.967   5.725  10.948 -0.1237  0.0531 -0.1625
  292MOL0     C40226   2.093   5.656  10.900  0.0610  0.4357 -0.0845
  292MOL0     H40227   1.648   5.568  11.429  0.0541  0.3026 -0.3980
  292MOL0     H40228   1.582   5.386  11.574 -0.9957  0.9370 -0.8768
  292MOL0     H40229   1.900   5.083  11.644  0.8297 -1.8430  1.0183
  292MOL0     H40230   1.821   4.989  11.518  2.2044 -1.9715  1.3732
  292MOL0     H40231   1.757   5.031  11.814  2.4840  2.3800 -0.6325
  292MOL0     H40232   1.647   4.926  11.717  0.0486  0.1826  4.0767
  292MOL0     H40233   1.767   4.773  11.794 -1.5281 -0.3664  0.5145
  292MOL0     H40234   1.859   4.793  11.650 -4.1415 -0.5265 -0.3767
  292MOL0     H40235   2.047   4.890  11.748 -0.1688  0.1770 -0.2763
  292MOL0     H40236   1.967   4.938  11.900 -2.0299 -0.3554  1.2445
  292MOL0     H40237   1.959   4.649  11.841 -1.0300  0.4659  1.6778
  292MOL0     H40238   1.943   4.731  11.992 -1.4873 -4.5494 -0.4223
  292MOL0     H40239   2.163   4.607  11.991 -1.6743 -0.2080 -1.1802
  292MOL0     H40240   2.199   4.684  11.835 -0.1349 -1.1160  0.4060
  292MOL0     H40241   2.162   4.827  12.112 -1.4740  1.7642 -1.3888
  292MOL0     H40242   2.193   4.904  11.964  1.1849 -1.5694 -0.7380
  292MOL0     H40243   2.406   4.897  12.078  1.2963 -0.5304  0.5317
  292MOL0     H40244   2.415   4.728  12.095 -1.7007 -0.0405  1.7175
  292MOL0     H40245   2.320   4.938  11.779  1.5950  2.7124  1.0059
  292MOL0     H40246   2.498   4.817  11.475  3.1296 -0.0994 -0.2764
  292MOL0     H40247   2.611   4.932  11.553  1.7450 -0.9454 -0.0106
  292MOL0     H40248   2.307   4.992  11.563 -0.7605  2.7180 -1.9079
  292MOL0     H40249   2.444   5.087  11.599  2.6910 -1.6133  0.8323
  292MOL0     H40250   2.514   5.022  11.335  0.5890 -1.6115  2.5579
  292MOL0     H40251   2.353   4.973  11.339  1.7096 -0.5586 -3.7342
  292MOL0     H40252   2.333   5.190  11.243 -1.1385 -3.5231  0.6402
  292MOL0     H40253   2.270   5.206  11.405  0.1263  0.2273 -0.7435
  292MOL0     H40254   2.635   5.472  11.424 -0.9270  1.2389  0.3830
  292MOL0     H40255   2.745   5.666  11.440 -0.2977  0.7678  3.1107
  292MOL0     H40256   2.649   5.767  11.526  4.2331 -0.3650 -0.5840
  292MOL0     H40257   2.678   5.815  11.358  0.4866 -0.0261 -0.2494
  292MOL0     H40258   2.149   5.994  11.024  1.6532 -2.2661  0.6543
  292MOL0     H40259   2.064   6.211  11.012 -0.1978  0.6457  1.8318
  292MOL0     H40260   2.092   6.464  11.020 -0.4048 -0.8217 -1.0550
  292MOL0     H40261   1.941   6.391  11.066  0.9849 -1.9228  0.1138
  292MOL0     H40262   2.044   6.662  11.143 -1.3494  2.0798  0.7213
  292MOL0     H40263   1.903   6.608  11.041  0.5988  0.1722  0.5157
  292MOL0     H40264   1.926   6.594  11.345 -0.6699  4.0438  1.2636
  292MOL0     H40265   1.816   6.489  11.251  1.2262 -0.1730  2.8366
  292MOL0     H40266   1.719   6.712  11.163 -2.4154  0.2672  0.8065
  292MOL0     H40267   1.833   6.803  11.272 -0.5734 -1.2461  1.2519
  292MOL0     H40268   1.665   6.590  11.384  1.2931 -0.4645  1.8829
  292MOL0     H40269   1.726   6.722  11.487 -0.3324 -0.2423 -0.2162
  292MOL0     H40270   1.602   6.901  11.394  2.2601 -0.2008  1.7549
  292MOL0     H40271   1.504   6.786  11.476 -3.0852  1.1849 -1.2836
  292MOL0     H40272   1.538   6.773  11.165  2.7792  0.9143  1.9723
  292MOL0     H40273   1.395   6.846  11.247 -0.3811 -0.2287 -0.1124
  292MOL0     H40274   1.325   6.642  11.319 -1.3082  1.4006 -0.9356
  292MOL0     H40275   1.480   6.566  11.293  0.7432  1.4507 -0.3268
  292MOL0     H40276   2.209   6.315  11.402 -1.1785  2.5255 -1.7701
  292MOL0     H40277   2.292   6.080  11.420 -0.2371 -0.7836  0.4429
  292MOL0     H40278   2.218   5.650  11.227  3.1191  2.6330 -3.6453
  292MOL0     H40279   2.241   5.392  11.287  1.6882 -2.4066 -0.9826
  292MOL0     H40280   1.915   5.149  11.407 -0.7868 -0.6067 -1.3371
  292MOL0     H40281   1.958   5.335  11.260 -1.6454 -2.1411 -1.3556
  292MOL0     H40282   1.743   5.788  11.195  1.1465 -0.4206  0.4884
  292MOL0     H40283   1.664   5.949  11.047  0.3879  1.1433 -0.3351
  292MOL0     H40284   1.608   6.087  10.734 -1.8875 -2.5654  0.6366
  292MOL0     H40285   1.570   6.037  10.879 -1.6235  1.0664 -1.4154
  292MOL0     H40286   1.801   6.234  10.897 -0.0337 -0.4814  1.2094
  292MOL0     H40287   1.667   6.195  11.011  2.6433 -0.0434  1.0173
  292MOL0     H40288   1.533   6.305  10.805 -1.8475  0.2100  2.7636
  292MOL0     H40289   1.637   6.424  10.894 -0.3820  0.4657  0.5356
  292MOL0     H40290   1.634   6.400  10.630 -0.9026 -0.5231  0.4937
  292MOL0     H40291   1.730   6.248  10.651 -2.3903 -0.6558 -0.4369
  292MOL0     H40292   1.988   6.586  10.703 -0.1476  0.7488 -0.7431
  292MOL0     H40293   1.982   5.863  10.777 -1.7763  0.2221 -0.3234
  292MOL0     H40294   2.077   5.548  10.894 -1.0111  0.5693  0.1270
  292MOL0     H40295   2.126   5.685  10.800  0.3400 -0.4628 -0.2604
  292MOL0     H40296   2.167   5.679  10.977 -2.3489  3.0362  1.6725
  293MOL0     O40297   0.506   2.325   8.390 -0.9212 -0.2401  0.1267
  293MOL0     C40298   0.626   2.270   8.392  1.1891 -0.2030 -0.1557
  293MOL0     O40299   0.669   2.191   8.496  0.6628 -0.4935  0.6091
  293MOL0     C40300   0.598   2.192   8.609  0.0401 -0.7979  0.4903
  293MOL0     C40301   0.658   2.259   8.722  0.0909 -0.6712  0.1718
  293MOL0     C40302   0.582   2.280   8.841 -0.6645  0.1973 -0.5070
  293MOL0     C40303   0.457   2.219   8.858  0.2750 -0.2328 -0.2955
  293MOL0     O40304   0.397   2.245   8.976  0.0393  0.5136 -0.6341
  293MOL0     C40305   0.291   2.335   8.959 -0.7014  0.9302  0.6771
  293MOL0     C40306   0.243   2.400   9.090  1.0108 -0.5548  0.1374
  293MOL0     C40307   0.092   2.435   9.080 -0.4982 -0.1726 -0.2001
  293MOL0     C40308   0.041   2.492   9.211 -0.2643 -0.4427  0.0569
  293MOL0     C40309  -0.111   2.530   9.194  0.4021 -0.0082 -0.0142
  293MOL0     C40310  -0.125   2.676   9.239 -0.4315  0.8547 -0.3801
  293MOL0     C40311  -0.060   2.780   9.144 -0.4829  0.9224 -0.8643
  293MOL0     C40312  -0.103   2.913   9.200 -0.8749 -0.0879  1.4107
  293MOL0     N40313  -0.009   2.978   9.286 -0.2196 -0.0540 -0.1045
  293MOL0     C40314   0.083   2.903   9.366  0.6445 -0.5513 -0.1140
  293MOL0     C40315   0.097   2.980   9.478 -0.1498 -0.6397 -0.2929
  293MOL0     C40316   0.168   2.927   9.595 -0.4082  0.2005 -0.3105
  293MOL0     C40317   0.318   2.977   9.608 -0.1440 -0.1306 -0.0526
  293MOL0     C40318   0.402   2.883   9.514 -1.1896  0.2442 -0.8868
  293MOL0     C40319   0.535   2.937   9.482  0.7196 -0.2270  1.2521
  293MOL0     O40320   0.603   2.951   9.606  0.0517 -0.2198 -0.8454
  293MOL0     C40321   0.685   3.062   9.608  0.3765 -0.3578 -0.8586
  293MOL0     C40322   0.791   3.079   9.523  0.7272  0.3480  0.5694
  293MOL0     C40323   0.877   3.190   9.535  0.0707 -0.1762 -0.5728
  293MOL0     C40324   0.980   3.201   9.436 -1.3268 -0.3095  0.7629
  293MOL0     C40325   0.842   3.291   9.631  0.6439 -0.4779  0.8757
  293MOL0     C40326   0.919   3.427   9.642  0.2753 -0.6401 -0.8364
  293MOL0     O40327   0.907   3.512   9.756 -0.7350 -0.3283 -0.4853
  293MOL0     C40328   0.910   3.454   9.878  1.2521  0.5272  0.3986
  293MOL0     C40329   0.832   3.510   9.987 -0.3610 -0.0754  0.5502
  293MOL0     C40330   0.840   3.457  10.115  0.9646  0.3793  0.0723
  293MOL0     C40331   0.907   3.336  10.143  0.8664 -0.2895  0.6326
  293MOL0     O40332   0.899   3.282  10.269 -0.4435 -0.0301 -0.3091
  293MOL0     C40333   0.963   3.357  10.367 -0.6270  0.8763 -1.9297
  293MOL0     C40334   0.971   3.273  10.506  0.2830  0.4370 -0.2126
  293MOL0     C40335   0.851   3.289  10.605  0.2359 -1.2535 -0.2704
  293MOL0     C40336   0.877   3.222  10.740  0.5783 -0.7144  0.4354
  293MOL0     C40337   0.849   3.063  10.725 -0.2472 -0.1040 -0.2049
  293MOL0     C40338   0.879   3.007  10.854 -0.5497  0.3633  0.3409
  293MOL0     C40339   0.892   2.856  10.863  0.0608  0.3957  0.5282
  293MOL0     C40340   1.016   2.823  10.947 -0.0099 -0.1461  0.1925
  293MOL0    Cl40341   1.149   2.832  10.831 -0.2910  0.3373  0.6374
  293MOL0     C40342   0.964   3.267  10.038 -0.3251 -0.7614  0.5477
  293MOL0     C40343   0.971   3.327   9.906  0.0065  1.3673 -0.2626
  293MOL0     O40344   0.986   3.459   9.556  0.7335 -0.4644  0.7449
  293MOL0     C40345   0.733   3.267   9.709  0.1555  0.0842  0.2704
  293MOL0     C40346   0.658   3.153   9.703 -0.3050 -0.3584  0.7548
  293MOL0     N40347   0.034   3.100   9.452  0.0799 -0.6462  0.4673
  293MOL0     N40348  -0.029   3.097   9.339  0.3996 -0.2425  0.7976
  293MOL0     C40349   0.402   2.145   8.759  0.9042  0.1758 -0.2417
  293MOL0     C40350   0.478   2.122   8.635 -0.2966  0.9298  0.0619
  293MOL0     C40351   0.717   2.293   8.274  0.5407  0.1897 -0.1036
  293MOL0     C40352   0.655   2.335   8.160  0.2530  0.1381  0.2140
  293MOL0     C40353   0.724   2.368   8.049  0.4735 -0.5462 -0.4690
  293MOL0     C40354   0.860   2.343   8.047  0.3306  0.2284  0.5639
  293MOL0     O40355   0.915   2.377   7.927 -0.4475  0.8779 -0.7215
  293MOL0     C40356   1.060   2.372   7.914  1.3395  0.6583 -1.0836
  293MOL0     C40357   1.102   2.228   7.926 -0.2081  0.6086  1.1727
  293MOL0     C40358   1.234   2.207   8.010  0.3321 -0.3179 -0.0594
  293MOL0     C40359   1.294   2.067   8.002 -0.4158 -0.4847 -0.3433
  293MOL0     C40360   1.202   1.948   7.981  0.9118 -0.4391 -0.3374
  293MOL0     C40361   1.129   1.857   7.966 -0.5578  0.8442  1.2624
  293MOL0     C40362   0.928   2.305   8.165 -0.1550 -1.7033 -0.2160
  293MOL0     C40363   0.860   2.283   8.281  0.4793 -0.2887  0.0937
  293MOL0     C40364   0.938   2.269   8.411  0.8072 -0.7389  0.5755
  293MOL0     H40365   0.759   2.293   8.701 -1.0552  0.8949 -3.7340
  293MOL0     H40366   0.626   2.326   8.928  1.6166 -2.4666 -0.1290
  293MOL0     H40367   0.206   2.292   8.906 -0.4185  2.5385 -1.2050
  293MOL0     H40368   0.313   2.423   8.898  0.0776  1.9734  2.3746
  293MOL0     H40369   0.249   2.346   9.185 -2.3132  0.3486  1.0023
  293MOL0     H40370   0.310   2.486   9.106  2.8998 -1.8020 -0.7213
  293MOL0     H40371   0.089   2.512   9.002 -1.0991  1.6771  1.5759
  293MOL0     H40372   0.034   2.347   9.050  1.5956 -0.7937 -2.9205
  293MOL0     H40373   0.055   2.402   9.272 -0.6670  0.0636  0.9200
  293MOL0     H40374   0.098   2.578   9.248 -0.2121 -1.1485  1.6959
  293MOL0     H40375  -0.162   2.465   9.265  0.0437  1.2238  0.8815
  293MOL0     H40376  -0.142   2.510   9.091 -1.1404  0.9956  0.2238
  293MOL0     H40377  -0.231   2.703   9.241 -0.5687  0.6797 -2.7910
  293MOL0     H40378  -0.067   2.686   9.331  3.6430 -0.8787 -2.5239
  293MOL0     H40379  -0.101   2.764   9.044 -3.2646 -3.2937  0.7241
  293MOL0     H40380   0.049   2.768   9.137 -0.6454  0.3967 -3.5265
  293MOL0     H40381  -0.103   2.977   9.111  2.2567 -0.8959  0.7048
  293MOL0     H40382  -0.204   2.904   9.240 -1.3653 -2.3156 -0.2058
  293MOL0     H40383   0.115   2.800   9.354  3.4755  0.0954  1.2387
  293MOL0     H40384   0.157   2.819   9.600  2.7570 -0.1993 -0.3239
  293MOL0     H40385   0.107   2.964   9.677  0.3565 -2.1194  1.3908
  293MOL0     H40386   0.333   3.084   9.586  0.6921 -0.7516 -3.0371
  293MOL0     H40387   0.346   2.964   9.713 -2.9415  1.0299  0.9321
  293MOL0     H40388   0.429   2.786   9.557  1.3652  1.4361  0.4070
  293MOL0     H40389   0.350   2.866   9.420  1.4485 -2.1586 -2.0478
  293MOL0     H40390   0.595   2.862   9.429  0.6992 -1.2424  2.6317
  293MOL0     H40391   0.530   3.038   9.439 -3.2983  0.4809  2.9156
  293MOL0     H40392   0.808   3.007   9.443  2.2024  0.8058  0.4455
  293MOL0     H40393   0.962   3.288   9.371 -3.9433 -2.7027 -2.0089
  293MOL0     H40394   0.979   3.122   9.360 -2.6112  0.2584  0.1573
  293MOL0     H40395   1.083   3.207   9.472  0.5875  0.6692 -4.1124
  293MOL0     H40396   0.768   3.597   9.973 -2.9952 -1.9104  0.4126
  293MOL0     H40397   0.774   3.498  10.191 -1.3742 -2.3746 -0.3223
  293MOL0     H40398   1.069   3.376  10.348  0.0668  0.0856  0.6633
  293MOL0     H40399   0.923   3.456  10.395  0.6754  0.6267  1.2437
  293MOL0     H40400   0.982   3.166  10.489 -3.1511 -0.1453  0.3987
  293MOL0     H40401   1.060   3.303  10.563 -1.3736  0.2128  2.6990
  293MOL0     H40402   0.758   3.253  10.562 -0.9324 -0.3355  1.3870
  293MOL0     H40403   0.834   3.396  10.617 -1.2407 -1.3689 -1.1933
  293MOL0     H40404   0.809   3.259  10.817  0.0613  1.8094 -1.0880
  293MOL0     H40405   0.979   3.243  10.774  0.2638  2.0818 -0.0780
  293MOL0     H40406   0.750   3.041  10.684  0.0015 -1.5325 -0.1034
  293MOL0     H40407   0.922   3.025  10.652 -0.3136 -0.3031 -0.1675
  293MOL0     H40408   0.794   3.029  10.920 -1.1345 -1.5956  0.3077
  293MOL0     H40409   0.968   3.057  10.893 -2.5936  1.2506  4.4421
  293MOL0     H40410   0.920   2.806  10.770  2.1239 -0.8524  1.7547
  293MOL0     H40411   0.797   2.814  10.898 -0.9398  2.0917  0.0100
  293MOL0     H40412   0.999   2.722  10.985 -3.7451 -0.0144 -0.6651
  293MOL0     H40413   1.027   2.885  11.037 -0.5699 -2.3358  1.8457
  293MOL0     H40414   0.998   3.166  10.062  0.8621 -1.0772 -2.1183
  293MOL0     H40415   0.996   3.268   9.818  2.9067  2.9306 -0.6121
  293MOL0     H40416   0.698   3.350   9.770 -0.5411 -1.3414  1.8690
  293MOL0     H40417   0.562   3.158   9.753 -1.0187  1.2097 -0.6725
  293MOL0     H40418   0.317   2.078   8.770  1.2817 -0.6486 -1.9153
  293MOL0     H40419   0.444   2.052   8.560 -1.3735 -0.2376  1.5773
  293MOL0     H40420   0.547   2.344   8.162  0.1282 -1.1568  0.6027
  293MOL0     H40421   0.673   2.397   7.958 -0.2790 -0.6995 -0.1039
  293MOL0     H40422   1.100   2.413   7.821 -1.4699  0.4087 -2.5093
  293MOL0     H40423   1.097   2.425   8.002  2.3328 -3.6410  1.4067
  293MOL0     H40424   1.126   2.184   7.829 -1.8342 -1.0741  1.4845
  293MOL0     H40425   1.025   2.159   7.963 -0.2989 -0.0275 -0.1359
  293MOL0     H40426   1.304   2.287   7.983 -0.8460  0.5365 -0.6514
  293MOL0     H40427   1.217   2.229   8.116 -2.1213  1.5473 -0.7484
  293MOL0     H40428   1.348   2.053   8.097 -1.2595  3.2884  0.9042
  293MOL0     H40429   1.366   2.072   7.919 -0.3351  0.8074 -0.2268
  293MOL0     H40430   1.075   1.766   7.948  3.1089 -0.9375 -2.4113
  293MOL0     H40431   1.036   2.311   8.173 -0.2149  0.1974 -0.2655
  293MOL0     H40432   1.046   2.262   8.391  1.1247 -0.0452  1.9369
  293MOL0     H40433   0.917   2.353   8.477 -1.3917 -1.1601  0.4754
  293MOL0     H40434   0.909   2.171   8.450  0.2391 -1.6690 -2.0152
  294MOL0     O40435  10.813   0.609  11.198 -0.0979  0.5951  0.2003
  294MOL0     C40436  10.854   0.626  11.315  0.1728 -0.5663  0.0797
  294MOL0     O40437  10.863   0.523  11.416  0.2130 -0.6923  0.8548
  294MOL0     C40438  10.797   0.409  11.378  0.4124  0.5267  0.4121
  294MOL0     C40439  10.661   0.396  11.353 -0.5718  0.0819 -0.3271
  294MOL0     C40440  10.598   0.270  11.336 -1.2493 -0.0332 -0.2158
  294MOL0     C40441  10.668   0.155  11.337 -0.1636  0.7175 -0.6092
  294MOL0     O40442  10.599   0.037  11.331  0.0410 -0.1110  0.2016
  294MOL0     C40443  10.663  -0.072  11.263 -0.0415 -0.0938 -0.1424
  294MOL0     C40444  10.592  -0.204  11.303 -0.5331 -0.1884 -1.1004
  294MOL0     C40445  10.620  -0.322  11.214  0.4837  0.5799  0.7132
  294MOL0     C40446  10.599  -0.443  11.297 -0.2558 -0.3209 -0.5827
  294MOL0     C40447  10.606  -0.568  11.194  0.2516  0.3283 -1.1017
  294MOL0     C40448  10.591  -0.719  11.246  0.1307  0.5347 -0.5920
  294MOL0     C40449  10.638  -0.828  11.138  0.5165 -0.4498 -0.1592
  294MOL0     C40450  10.616  -0.980  11.184 -1.1066  0.3368 -0.1097
  294MOL0     N40451  10.718  -1.000  11.297  0.4116 -0.6480 -0.3641
  294MOL0     C40452  10.717  -1.121  11.362  0.6683  0.1014  0.0655
  294MOL0     C40453  10.811  -1.098  11.455 -0.4200 -0.1085 -0.3915
  294MOL0     C40454  10.853  -1.179  11.577  0.1691 -0.1511  1.3843
  294MOL0     C40455  10.966  -1.270  11.509 -0.0459  0.3892 -0.0264
  294MOL0     C40456  11.063  -1.339  11.601 -0.2565  0.0452  0.9224
  294MOL0     C40457  11.147  -1.450  11.532 -0.0720  0.1241  0.0181
  294MOL0     O40458  11.273  -1.457  11.593 -0.5942 -1.4709  0.2275
  294MOL0     C40459  11.374  -1.417  11.514  0.6370  0.4583  0.6375
  294MOL0     C40460  11.377  -1.297  11.450  0.0594 -1.2586  0.6116
  294MOL0     C40461  11.494  -1.253  11.391  1.1531 -0.0745 -0.1729
  294MOL0     C40462  11.505  -1.109  11.356  0.7715 -1.1613  0.4239
  294MOL0     C40463  11.601  -1.348  11.373  0.9804 -0.2328  0.0397
  294MOL0     C40464  11.726  -1.321  11.302  0.6017 -0.1963  0.3256
  294MOL0     O40465  11.848  -1.378  11.357  0.0520 -0.4418  0.4838
  294MOL0     C40466  11.972  -1.385  11.306 -0.8746  0.2333  0.0657
  294MOL0     C40467  12.016  -1.386  11.172 -0.3796  0.2580 -0.2205
  294MOL0     C40468  12.159  -1.376  11.153 -0.5587 -0.1782 -0.1478
  294MOL0     C40469  12.253  -1.365  11.260 -0.0015 -0.2434 -0.5421
  294MOL0     O40470  12.384  -1.341  11.229 -0.4061  0.1378 -0.2063
  294MOL0     C40471  12.476  -1.441  11.264 -0.5669  0.0275  0.6805
  294MOL0     C40472  12.550  -1.486  11.142  0.9233  0.3291  0.3454
  294MOL0     C40473  12.647  -1.382  11.091  0.8050 -0.1983 -0.9515
  294MOL0     C40474  12.682  -1.394  10.942 -0.0551 -0.8060 -0.4658
  294MOL0     C40475  12.679  -1.257  10.867 -0.4613  1.1413 -0.8987
  294MOL0     C40476  12.732  -1.275  10.724  0.2712 -1.0456  0.1787
  294MOL0     C40477  12.737  -1.141  10.657  0.0125 -0.8400  0.1780
  294MOL0     C40478  12.822  -1.145  10.527 -0.4390  0.1938  0.0577
  294MOL0    Cl40479  12.716  -1.157  10.387  0.5028  0.4093  0.2773
  294MOL0     C40480  12.211  -1.391  11.396  0.2075  0.1030  0.3795
  294MOL0     C40481  12.072  -1.397  11.412 -0.2040 -0.3571  0.3008
  294MOL0     O40482  11.728  -1.237  11.214 -0.2769 -0.0251 -0.2726
  294MOL0     C40483  11.589  -1.471  11.433 -0.1843  0.9763  0.1877
  294MOL0     C40484  11.475  -1.508  11.499 -0.1281  0.5326  1.0223
  294MOL0     N40485  10.869  -0.973  11.431 -0.0418  0.0014 -0.4394
  294MOL0     N40486  10.811  -0.913  11.333  0.3812 -1.0058  0.0145
  294MOL0     C40487  10.810   0.166  11.341 -0.4565 -0.8182  0.6105
  294MOL0     C40488  10.874   0.293  11.359 -0.6074 -0.1518  0.0754
  294MOL0     C40489  10.910   0.762  11.355  0.1998  0.0714  0.0270
  294MOL0     C40490  11.051   0.779  11.363  0.4857 -0.0042 -0.2207
  294MOL0     C40491  11.089   0.901  11.396 -0.4759  0.4076  0.3141
  294MOL0     C40492  11.010   1.014  11.431 -0.3103 -0.1080  0.0965
  294MOL0     O40493  11.069   1.132  11.473  0.4512 -0.4631 -0.6270
  294MOL0     C40494  10.987   1.234  11.534  0.3282  0.6569  0.0504
  294MOL0     C40495  11.074   1.320  11.618 -0.0687  0.2042 -0.3623
  294MOL0     C40496  11.137   1.247  11.747  0.5445  0.6745 -0.0574
  294MOL0     C40497  11.178   1.336  11.860 -0.2406 -0.8742  0.2676
  294MOL0     C40498  11.285   1.424  11.805 -0.6519  0.1409 -0.0141
  294MOL0     C40499  11.377   1.487  11.749 -0.3111 -0.3907 -0.2691
  294MOL0     C40500  10.875   0.984  11.435  0.2410 -0.3402 -0.4336
  294MOL0     C40501  10.818   0.866  11.387 -0.7827  0.6377  0.2427
  294MOL0     C40502  10.667   0.845  11.405  0.3340 -0.0733 -1.1062
  294MOL0     H40503  10.609   0.491  11.350 -1.0683 -0.1002  1.2954
  294MOL0     H40504  10.494   0.275  11.307 -0.9521 -2.6122 -2.0512
  294MOL0     H40505  10.764  -0.073  11.305 -0.1049 -0.5220  0.0040
  294MOL0     H40506  10.671  -0.054  11.156 -0.1473  3.0812  0.2778
  294MOL0     H40507  10.608  -0.225  11.409  3.1358 -4.7143 -2.1997
  294MOL0     H40508  10.489  -0.169  11.296  0.3898  4.0102  2.0128
  294MOL0     H40509  10.553  -0.328  11.128 -0.0757  1.4053  1.0804
  294MOL0     H40510  10.724  -0.326  11.181  0.4336 -0.9953  0.6544
  294MOL0     H40511  10.684  -0.447  11.366 -0.2620 -0.5105 -0.5827
  294MOL0     H40512  10.508  -0.444  11.358  0.9115  0.6133  1.2579
  294MOL0     H40513  10.706  -0.561  11.149  0.2977 -0.0938 -1.0678
  294MOL0     H40514  10.525  -0.555  11.122  0.6633  0.1302 -1.6052
  294MOL0     H40515  10.649  -0.722  11.339  2.3024  1.0776 -1.8461
  294MOL0     H40516  10.488  -0.741  11.276  0.7446 -1.8963 -0.0604
  294MOL0     H40517  10.744  -0.813  11.118  0.7045 -2.1957 -0.6057
  294MOL0     H40518  10.578  -0.816  11.047 -0.5754 -4.3870 -0.1369
  294MOL0     H40519  10.522  -1.003  11.235 -1.5952 -0.4320 -1.3277
  294MOL0     H40520  10.626  -1.050  11.100 -3.5190 -2.7582  1.9479
  294MOL0     H40521  10.645  -1.202  11.359  1.2618 -0.5511  2.1798
  294MOL0     H40522  10.765  -1.226  11.624  0.8654 -2.2773  0.6632
  294MOL0     H40523  10.888  -1.121  11.664 -1.1862 -1.0563  2.5837
  294MOL0     H40524  10.908  -1.350  11.462  0.6953  1.1828 -2.4080
  294MOL0     H40525  11.013  -1.221  11.423  1.3084 -0.2326  0.3148
  294MOL0     H40526  11.130  -1.259  11.636 -1.2940  2.3508 -1.9249
  294MOL0     H40527  11.014  -1.373  11.692  3.0176  1.1808  3.3112
  294MOL0     H40528  11.096  -1.544  11.555  2.2226 -0.8467  1.5271
  294MOL0     H40529  11.156  -1.430  11.425  1.4921  2.4911  0.5251
  294MOL0     H40530  11.299  -1.222  11.456 -0.0277 -1.0458 -2.1649
  294MOL0     H40531  11.509  -1.092  11.248 -1.0463  0.2848  0.5351
  294MOL0     H40532  11.588  -1.055  11.404 -1.1271  2.9171 -0.4874
  294MOL0     H40533  11.413  -1.065  11.396  1.1221  2.3580 -2.1853
  294MOL0     H40534  11.945  -1.406  11.092  2.1415 -0.0780 -2.5368
  294MOL0     H40535  12.210  -1.384  11.057 -3.2494  2.7612 -2.0044
  294MOL0     H40536  12.553  -1.392  11.324  0.4557 -1.5334  0.6936
  294MOL0     H40537  12.432  -1.534  11.300 -1.9167 -0.2436 -1.4822
  294MOL0     H40538  12.606  -1.579  11.147  2.2521  1.1077  0.4811
  294MOL0     H40539  12.476  -1.492  11.061  0.8972  0.1724  0.3815
  294MOL0     H40540  12.741  -1.397  11.145  0.4102 -0.0219 -0.2110
  294MOL0     H40541  12.605  -1.286  11.120  0.5673 -0.8303  0.9299
  294MOL0     H40542  12.621  -1.469  10.892  2.6671 -2.2974 -1.8088
  294MOL0     H40543  12.783  -1.437  10.945 -0.1131 -0.8987  0.9047
  294MOL0     H40544  12.572  -1.235  10.861 -1.1537 -1.2159  1.0259
  294MOL0     H40545  12.728  -1.180  10.927 -1.5705 -0.9123  3.0458
  294MOL0     H40546  12.668  -1.345  10.670  1.3425 -2.6863  0.9403
  294MOL0     H40547  12.830  -1.324  10.725  1.3398  0.9487 -0.9712
  294MOL0     H40548  12.776  -1.060  10.719 -1.0590  0.7808 -1.1742
  294MOL0     H40549  12.638  -1.100  10.637  0.4629 -0.1229 -0.6342
  294MOL0     H40550  12.893  -1.227  10.528  1.5297  1.3088 -5.9243
  294MOL0     H40551  12.874  -1.048  10.528 -0.6321  0.3617  3.0780
  294MOL0     H40552  12.284  -1.406  11.475  2.1841 -0.5368 -1.4770
  294MOL0     H40553  12.038  -1.412  11.514  2.9224 -0.1812  1.4672
  294MOL0     H40554  11.671  -1.542  11.428  2.1320  3.5016 -4.1264
  294MOL0     H40555  11.482  -1.606  11.545 -0.3047  0.2107  0.3812
  294MOL0     H40556  10.880   0.083  11.336  2.4497  1.4771  0.4083
  294MOL0     H40557  10.982   0.302  11.365 -0.5285 -1.2870  0.5646
  294MOL0     H40558  11.105   0.693  11.326  0.6743  0.2909 -0.6408
  294MOL0     H40559  11.195   0.918  11.410 -0.7658  0.8615  2.2370
  294MOL0     H40560  10.949   1.291  11.448  0.4911  1.0365  0.2261
  294MOL0     H40561  10.902   1.200  11.594  1.0144 -1.1218  0.0713
  294MOL0     H40562  11.024   1.414  11.644 -0.8727 -0.0534 -0.9402
  294MOL0     H40563  11.154   1.351  11.549  0.4433 -1.4883 -0.5692
  294MOL0     H40564  11.054   1.189  11.790  2.0583 -1.1722  0.5021
  294MOL0     H40565  11.218   1.192  11.699  1.9816  1.1697  1.6938
  294MOL0     H40566  11.225   1.273  11.935  2.3879  0.4834 -0.1047
  294MOL0     H40567  11.099   1.397  11.904 -0.1395 -0.5538  0.0145
  294MOL0     H40568  11.452   1.541  11.694 -0.0283 -1.1445 -0.6422
  294MOL0     H40569  10.811   1.064  11.472  3.8143  3.0459 -0.8923
  294MOL0     H40570  10.617   0.876  11.313 -0.4746  4.1188  0.5066
  294MOL0     H40571  10.641   0.744  11.439 -4.2501  1.5131  0.8463
  294MOL0     H40572  10.618   0.902  11.484 -1.1388 -1.2342 -1.1551
  295MOL0     O40573   3.986   4.592   8.916  0.7619  0.2957  0.9397
  295MOL0     C40574   3.902   4.583   8.822  0.9538 -0.8167 -1.6288
  295MOL0     O40575   3.924   4.602   8.687 -0.0053  0.1468 -0.2258
  295MOL0     C40576   4.055   4.629   8.649 -1.3140  0.3112 -0.2775
  295MOL0     C40577   4.167   4.552   8.695  0.0855 -0.1503  0.6481
  295MOL0     C40578   4.293   4.561   8.647  0.3315 -0.7401  0.5517
  295MOL0     C40579   4.320   4.665   8.551 -0.3054  0.3637  0.8607
  295MOL0     O40580   4.444   4.711   8.516  0.4913 -0.3816 -0.4597
  295MOL0     C40581   4.461   4.852   8.506  0.1350 -0.3183  0.3783
  295MOL0     C40582   4.610   4.870   8.541 -0.2507 -0.0502 -0.5394
  295MOL0     C40583   4.638   5.024   8.568  0.0778 -0.9556 -0.7440
  295MOL0     C40584   4.773   5.077   8.525  0.5696  0.4313 -0.1716
  295MOL0     C40585   4.762   5.235   8.516 -0.0404  0.2526 -0.6107
  295MOL0     C40586   4.894   5.305   8.489 -0.4601  1.5025  0.0923
  295MOL0     C40587   4.877   5.455   8.494 -0.7536 -0.3771 -0.6659
  295MOL0     C40588   4.849   5.507   8.636 -0.1727  0.3406  0.2428
  295MOL0     N40589   4.844   5.648   8.657  0.2070  0.6215 -0.0839
  295MOL0     C40590   4.799   5.711   8.764 -0.5029 -0.3591  0.4145
  295MOL0     C40591   4.789   5.846   8.730 -0.5876 -0.0011  0.4738
  295MOL0     C40592   4.748   5.946   8.827 -0.6149  0.6553  0.5993
  295MOL0     C40593   4.605   5.992   8.797  0.1559  0.4647 -0.5480
  295MOL0     C40594   4.573   6.117   8.878  0.3412 -0.2928  0.7367
  295MOL0     C40595   4.427   6.170   8.846 -1.1193  0.3710  0.2976
  295MOL0     O40596   4.331   6.099   8.927 -0.2403 -0.1260 -0.8625
  295MOL0     C40597   4.202   6.128   8.917 -0.2861 -0.9535  0.1590
  295MOL0     C40598   4.135   6.204   8.813 -0.4042  0.3938  0.3531
  295MOL0     C40599   3.998   6.233   8.819 -0.2868  0.1184 -0.4484
  295MOL0     C40600   3.946   6.312   8.704  0.0267 -0.0482  0.6969
  295MOL0     C40601   3.911   6.189   8.929 -1.4026 -0.0842  0.3974
  295MOL0     C40602   3.771   6.223   8.961 -0.1909 -0.1380 -0.7897
  295MOL0     O40603   3.743   6.347   8.926 -0.2364  0.8770  0.4508
  295MOL0     C40604   3.622   6.397   8.937 -0.4446  0.9048  0.2179
  295MOL0     C40605   3.588   6.486   9.034  0.6229  0.7132  0.4053
  295MOL0     C40606   3.460   6.549   9.047  0.8726  0.1324 -0.3856
  295MOL0     C40607   3.368   6.526   8.942  0.1163  0.5057  0.1159
  295MOL0     O40608   3.259   6.602   8.939 -0.0748  0.1246 -0.5099
  295MOL0     C40609   3.188   6.620   8.827  0.5765 -0.1510  0.8892
  295MOL0     C40610   3.110   6.760   8.845  0.0039  0.0794 -0.1422
  295MOL0     C40611   3.079   6.817   8.704 -0.4936 -0.3633 -0.0336
  295MOL0     C40612   3.006   6.949   8.700  0.4964  0.2714 -0.9556
  295MOL0     C40613   2.971   6.986   8.567  0.1155 -0.3630 -0.0651
  295MOL0     C40614   2.883   7.101   8.542  0.1531 -0.2513 -0.5910
  295MOL0     C40615   2.736   7.085   8.606 -0.1940  0.3646  0.4144
  295MOL0     C40616   2.674   7.208   8.625 -0.2768  0.1159 -0.2463
  295MOL0    Cl40617   2.517   7.161   8.685 -0.2555 -0.7959 -0.2311
  295MOL0     C40618   3.406   6.438   8.838  0.7299  0.1344  0.9856
  295MOL0     C40619   3.527   6.369   8.837  0.1528 -0.0472 -1.0550
  295MOL0     O40620   3.697   6.146   9.022 -0.6032  0.3888 -0.1242
  295MOL0     C40621   3.978   6.105   9.024 -0.4523  0.0074  0.2202
  295MOL0     C40622   4.113   6.071   9.009  0.2376  0.1849 -0.1923
  295MOL0     N40623   4.816   5.856   8.597 -0.0785 -0.2183 -0.6196
  295MOL0     N40624   4.857   5.743   8.557 -0.0084  0.4784  0.6422
  295MOL0     C40625   4.204   4.729   8.496 -1.0194 -0.2924 -0.3812
  295MOL0     C40626   4.080   4.721   8.554  0.3311 -0.8196 -0.3054
  295MOL0     C40627   3.757   4.586   8.849 -0.2298 -0.1852 -0.5410
  295MOL0     C40628   3.684   4.462   8.845  0.0483 -0.3330  0.0970
  295MOL0     C40629   3.548   4.471   8.867 -0.1816 -0.1423  1.1034
  295MOL0     C40630   3.477   4.590   8.876 -0.9260  0.1968 -0.6829
  295MOL0     O40631   3.343   4.584   8.899 -0.8699  0.4445 -0.9770
  295MOL0     C40632   3.299   4.633   9.030  0.0061  0.5114  0.2351
  295MOL0     C40633   3.243   4.509   9.115  0.4152  0.1257 -0.0901
  295MOL0     C40634   3.201   4.569   9.250 -0.3930  0.5256 -0.7205
  295MOL0     C40635   3.230   4.470   9.356 -0.2545 -0.5997 -0.7781
  295MOL0     C40636   3.192   4.524   9.493  1.2854  0.6677  0.0184
  295MOL0     C40637   3.149   4.545   9.610  0.1816  0.2868  1.4410
  295MOL0     C40638   3.545   4.706   8.880 -0.9132 -0.4194 -0.0297
  295MOL0     C40639   3.683   4.716   8.862  0.1816  0.6781  1.0179
  295MOL0     C40640   3.753   4.843   8.865  0.1601  0.4155 -0.2918
  295MOL0     H40641   4.148   4.479   8.773  0.2067  1.7267  2.5200
  295MOL0     H40642   4.368   4.501   8.697 -1.9178 -1.4618  3.3398
  295MOL0     H40643   4.395   4.893   8.582 -1.1689 -0.5159 -0.6203
  295MOL0     H40644   4.434   4.896   8.410  3.4299 -2.2348 -1.6328
  295MOL0     H40645   4.649   4.791   8.606 -1.1686 -0.9963 -1.1219
  295MOL0     H40646   4.668   4.833   8.457  1.6831  1.6779 -0.0613
  295MOL0     H40647   4.554   5.066   8.511 -1.7532 -1.9005  1.1580
  295MOL0     H40648   4.630   5.044   8.675  2.9941 -0.7843 -0.4714
  295MOL0     H40649   4.864   5.043   8.577  1.0457  2.1776  0.2038
  295MOL0     H40650   4.774   5.050   8.419  0.7501  4.0493 -1.2369
  295MOL0     H40651   4.724   5.261   8.616  0.0706  2.9490 -1.1820
  295MOL0     H40652   4.678   5.256   8.449  1.3572  2.2812 -1.8088
  295MOL0     H40653   4.959   5.280   8.573  0.0545  1.5003 -0.3014
  295MOL0     H40654   4.939   5.267   8.397  2.5072  1.6626  1.3943
  295MOL0     H40655   4.805   5.480   8.415  1.1009  0.0512 -2.2919
  295MOL0     H40656   4.976   5.490   8.465 -1.5029  0.9087 -1.8262
  295MOL0     H40657   4.755   5.459   8.667  1.3356 -2.0633  1.3767
  295MOL0     H40658   4.927   5.465   8.700  2.9436  3.8276 -0.9069
  295MOL0     H40659   4.785   5.672   8.864 -0.0405  3.1365  1.9770
  295MOL0     H40660   4.819   6.028   8.808  0.9452 -0.9278 -0.8126
  295MOL0     H40661   4.756   5.911   8.930 -1.2889 -0.4680  0.2844
  295MOL0     H40662   4.601   6.022   8.692 -0.4836  3.9176  0.3364
  295MOL0     H40663   4.536   5.909   8.812 -0.2211  1.1369  1.8731
  295MOL0     H40664   4.579   6.100   8.986  2.3163 -3.8214  0.2575
  295MOL0     H40665   4.642   6.195   8.845  3.1832 -3.0874 -0.5058
  295MOL0     H40666   4.426   6.278   8.864  2.1670  0.3784  1.1567
  295MOL0     H40667   4.399   6.167   8.740  1.0346  2.9038 -0.4679
  295MOL0     H40668   4.185   6.239   8.723 -1.0471 -4.5501 -2.2664
  295MOL0     H40669   3.843   6.287   8.674 -0.6115  3.0448 -0.0275
  295MOL0     H40670   4.012   6.284   8.621 -0.5683 -3.5198  1.2485
  295MOL0     H40671   3.943   6.421   8.715  1.6193  0.0283  0.5833
  295MOL0     H40672   3.661   6.487   9.115  1.0091  3.8274  0.1467
  295MOL0     H40673   3.434   6.612   9.131 -1.4048 -1.8050  0.4615
  295MOL0     H40674   3.263   6.638   8.750 -0.7572  0.3439 -0.3539
  295MOL0     H40675   3.127   6.533   8.802 -1.5374  1.0250  1.6810
  295MOL0     H40676   3.021   6.740   8.906 -1.1262  2.6784 -0.7944
  295MOL0     H40677   3.169   6.835   8.899 -1.3703  1.3205 -0.2960
  295MOL0     H40678   3.024   6.750   8.636 -1.1207 -0.4714  0.5737
  295MOL0     H40679   3.179   6.832   8.663  0.2486  0.6240  2.0531
  295MOL0     H40680   3.069   7.023   8.749 -2.7872  0.2599  4.1354
  295MOL0     H40681   2.929   6.947   8.778  1.3529  3.3625  0.1198
  295MOL0     H40682   3.066   6.992   8.514 -0.5100  1.9833 -1.0728
  295MOL0     H40683   2.919   6.898   8.528 -2.2552 -1.3288  4.5740
  295MOL0     H40684   2.862   7.106   8.435 -0.5812 -4.7104 -0.8535
  295MOL0     H40685   2.928   7.191   8.586  2.7634 -1.4319 -0.6695
  295MOL0     H40686   2.738   7.032   8.702 -1.2690  0.4988  0.5276
  295MOL0     H40687   2.686   7.026   8.529  0.7104  0.3607 -0.1779
  295MOL0     H40688   2.672   7.282   8.545  2.6620  2.3432  1.5501
  295MOL0     H40689   2.719   7.269   8.703 -1.6183  1.7608 -0.6859
  295MOL0     H40690   3.333   6.404   8.765  2.0053  2.9384 -1.8423
  295MOL0     H40691   3.519   6.290   8.763 -3.4208  0.7989 -1.7377
  295MOL0     H40692   3.925   6.051   9.102  2.3744 -2.9522  0.2884
  295MOL0     H40693   4.144   5.992   9.077  0.9360 -0.3293 -1.0862
  295MOL0     H40694   4.221   4.800   8.415 -1.8989  0.5558  0.1551
  295MOL0     H40695   3.994   4.776   8.517  2.2007  3.4117  1.0897
  295MOL0     H40696   3.725   4.362   8.829  1.1013 -0.0271  0.7585
  295MOL0     H40697   3.486   4.383   8.855 -0.9986  0.5348  0.1821
  295MOL0     H40698   3.382   4.681   9.084 -0.4451  0.0910  1.3250
  295MOL0     H40699   3.216   4.699   9.005  0.4668  0.4127 -1.7350
  295MOL0     H40700   3.327   4.439   9.120  1.3855  1.2475 -0.1513
  295MOL0     H40701   3.163   4.469   9.053 -2.3204  0.6476  2.8713
  295MOL0     H40702   3.261   4.659   9.267  0.7847 -0.8931  4.2155
  295MOL0     H40703   3.095   4.592   9.259 -0.3395  1.3406 -1.8541
  295MOL0     H40704   3.333   4.435   9.366  0.6487  2.1982  0.6174
  295MOL0     H40705   3.172   4.382   9.324 -2.1433  1.3786 -3.2748
  295MOL0     H40706   3.152   4.547   9.717  2.6243 -0.0916  1.4354
  295MOL0     H40707   3.489   4.796   8.905 -1.7007 -1.0812  0.6136
  295MOL0     H40708   3.847   4.843   8.921 -1.0269  0.2890  1.8346
  295MOL0     H40709   3.783   4.862   8.762  0.9422  0.6056 -0.0325
  295MOL0     H40710   3.701   4.934   8.898 -0.7978 -0.7919  1.7510
  296MOL0     O40711   8.310   2.472  10.816 -0.1446 -0.2965  0.4225
  296MOL0     C40712   8.273   2.586  10.780  0.0162 -0.9252 -0.2026
  296MOL0     O40713   8.283   2.639  10.660  0.3974  0.2485 -0.0498
  296MOL0     C40714   8.373   2.568  10.584 -0.8558  0.4663  1.2522
  296MOL0     C40715   8.508   2.587  10.600 -0.1077  0.7572 -0.7376
  296MOL0     C40716   8.608   2.513  10.533  1.1650  0.1391  1.2421
  296MOL0     C40717   8.576   2.430  10.421  0.0160 -1.0375 -0.4659
  296MOL0     O40718   8.659   2.379  10.333  0.0550 -0.1092  0.4153
  296MOL0     C40719   8.791   2.354  10.379  0.6322 -0.0409  1.6595
  296MOL0     C40720   8.849   2.273  10.268  0.5165 -0.6699  0.4814
  296MOL0     C40721   8.863   2.365  10.141  0.2671 -0.8022  0.9075
  296MOL0     C40722   8.920   2.283  10.024  0.3511 -0.2451  0.7334
  296MOL0     C40723   8.897   2.355   9.893 -0.1520 -0.1679  0.3913
  296MOL0     C40724   8.742   2.371   9.843  0.0813  0.8033  0.9742
  296MOL0     C40725   8.651   2.255   9.870 -0.3589 -0.8761  0.5087
  296MOL0     C40726   8.675   2.138   9.774 -0.9747  0.4780 -0.9366
  296MOL0     N40727   8.591   2.019   9.798 -0.1304 -0.1186 -0.1316
  296MOL0     C40728   8.464   2.010   9.837  0.1895  0.1670 -0.3437
  296MOL0     C40729   8.437   1.870   9.831 -0.4047  0.4280  0.0476
  296MOL0     C40730   8.300   1.804   9.844  0.3293  0.3729 -0.0065
  296MOL0     C40731   8.277   1.695   9.952 -0.5810  0.3167  0.7676
  296MOL0     C40732   8.239   1.739  10.102 -0.0377 -0.5273 -0.5232
  296MOL0     C40733   8.087   1.776  10.113  0.1821  0.3998 -1.4313
  296MOL0     O40734   8.064   1.826  10.251  0.6056  0.4090 -0.4256
  296MOL0     C40735   8.036   1.742  10.355  0.5337 -0.7840 -1.2463
  296MOL0     C40736   8.058   1.600  10.367  1.4344 -0.1635  0.1769
  296MOL0     C40737   8.004   1.525  10.470 -0.3693 -0.6228 -0.7720
  296MOL0     C40738   8.047   1.382  10.488  0.7544 -0.5269  0.0459
  296MOL0     C40739   7.927   1.595  10.572 -0.1289  0.0095 -0.8405
  296MOL0     C40740   7.870   1.527  10.687  1.3002  0.6543 -0.2980
  296MOL0     O40741   7.797   1.613  10.767 -0.5972 -0.9223 -0.3543
  296MOL0     C40742   7.711   1.587  10.877  0.7135  1.2192 -0.1084
  296MOL0     C40743   7.660   1.693  10.957 -1.0364  0.5753  0.0721
  296MOL0     C40744   7.562   1.676  11.054 -0.8527 -0.3059 -0.1757
  296MOL0     C40745   7.507   1.556  11.064  0.2449 -0.5117  0.1618
  296MOL0     O40746   7.403   1.566  11.155  0.2065  0.6563  0.0418
  296MOL0     C40747   7.322   1.445  11.164 -0.2781 -0.2150 -0.6328
  296MOL0     C40748   7.213   1.505  11.253 -0.5438 -0.3274  0.7796
  296MOL0     C40749   7.098   1.411  11.282  0.1887 -0.0749  0.2059
  296MOL0     C40750   7.008   1.484  11.388 -0.3470  0.0949 -0.5664
  296MOL0     C40751   6.896   1.383  11.446 -0.4836  0.8173  0.9727
  296MOL0     C40752   6.780   1.350  11.353 -0.0019  0.2043  0.2920
  296MOL0     C40753   6.703   1.476  11.304 -0.5266 -0.2891  0.2125
  296MOL0     C40754   6.568   1.459  11.240  1.4338  0.5852  0.0250
  296MOL0    Cl40755   6.463   1.400  11.382  0.3044  0.1924  0.3105
  296MOL0     C40756   7.553   1.442  10.990  0.3963  0.2512 -0.8896
  296MOL0     C40757   7.655   1.459  10.897  0.2801 -0.1580 -0.0995
  296MOL0     O40758   7.904   1.414  10.720  0.0150 -0.4682  0.8963
  296MOL0     C40759   7.924   1.740  10.565  0.7054  1.1691  0.1920
  296MOL0     C40760   7.974   1.807  10.459  0.2928 -0.5148  0.0562
  296MOL0     N40761   8.554   1.810   9.781 -0.3132  0.5705  0.1370
  296MOL0     N40762   8.638   1.904   9.751 -0.4169  0.2092 -0.5906
  296MOL0     C40763   8.434   2.419  10.393  0.0320  0.1392 -0.0718
  296MOL0     C40764   8.336   2.484  10.478 -0.2008  0.1432  0.2605
  296MOL0     C40765   8.198   2.665  10.877 -1.3008  0.4005 -0.3224
  296MOL0     C40766   8.245   2.793  10.906 -0.8496 -0.7681  0.2328
  296MOL0     C40767   8.188   2.870  11.009 -0.9202  0.4040  0.5340
  296MOL0     C40768   8.077   2.815  11.078  0.2636  0.6044 -0.6545
  296MOL0     O40769   8.037   2.884  11.190 -0.2195 -0.6654  0.0467
  296MOL0     C40770   7.898   2.878  11.223  0.0239 -0.9360  0.6662
  296MOL0     C40771   7.880   2.789  11.351 -0.0480  0.7378 -0.4106
  296MOL0     C40772   7.966   2.833  11.466  0.1055  0.1433 -0.0979
  296MOL0     C40773   7.941   2.785  11.609  0.4664  0.7149  0.6572
  296MOL0     C40774   8.028   2.838  11.710 -0.0417 -0.1812 -0.2145
  296MOL0     C40775   8.091   2.896  11.801  0.1362 -0.4564  0.3264
  296MOL0     C40776   8.023   2.689  11.043 -0.5552 -0.7951  0.2168
  296MOL0     C40777   8.078   2.613  10.934  0.2421  0.1298 -0.4881
  296MOL0     C40778   8.026   2.471  10.897 -0.0964 -0.1444  0.2095
  296MOL0     H40779   8.543   2.633  10.692 -1.1104  0.7254 -0.3318
  296MOL0     H40780   8.707   2.536  10.571  1.3390 -0.9776  1.5102
  296MOL0     H40781   8.790   2.297  10.472 -2.5857  0.4136  2.0313
  296MOL0     H40782   8.837   2.453  10.390  1.6116 -0.4166  1.0316
  296MOL0     H40783   8.947   2.238  10.300  0.0180 -1.1638  1.5237
  296MOL0     H40784   8.785   2.190  10.238  1.8066 -0.2394 -4.3065
  296MOL0     H40785   8.761   2.401  10.123  0.6779 -0.2209 -0.4240
  296MOL0     H40786   8.924   2.454  10.158  0.8450 -0.2086 -3.2321
  296MOL0     H40787   9.028   2.276  10.041  0.5992  0.9733 -0.1881
  296MOL0     H40788   8.893   2.179  10.010  1.5239 -0.4925  0.1621
  296MOL0     H40789   8.952   2.297   9.818  1.1367 -1.5766  2.3103
  296MOL0     H40790   8.927   2.460   9.896 -1.5635  0.4238 -2.5102
  296MOL0     H40791   8.692   2.459   9.884 -2.0314  0.6020 -0.9867
  296MOL0     H40792   8.746   2.375   9.734  0.8415  0.8085  0.9933
  296MOL0     H40793   8.551   2.297   9.853  0.7699  2.3608  1.1211
  296MOL0     H40794   8.665   2.224   9.974 -1.2775  1.0808  1.2632
  296MOL0     H40795   8.666   2.171   9.670 -1.3603  2.4190 -0.3168
  296MOL0     H40796   8.781   2.116   9.792 -0.9522  0.5668 -0.9650
  296MOL0     H40797   8.398   2.094   9.855 -0.0999 -0.5687  2.4199
  296MOL0     H40798   8.261   1.779   9.745  1.0887  0.6905 -0.4012
  296MOL0     H40799   8.248   1.886   9.895  1.3654 -0.3935  2.4174
  296MOL0     H40800   8.212   1.615   9.915  3.2700 -3.5330  1.5624
  296MOL0     H40801   8.367   1.635   9.964 -0.0090  1.1270  0.5763
  296MOL0     H40802   8.268   1.666  10.179 -0.9699 -1.2792 -0.8613
  296MOL0     H40803   8.291   1.834  10.116  0.6312 -0.5881 -2.3336
  296MOL0     H40804   8.076   1.855  10.039 -0.8383  0.5825 -1.1040
  296MOL0     H40805   8.019   1.693  10.094  1.3962 -0.3935 -2.3657
  296MOL0     H40806   8.113   1.547  10.290  2.5417 -0.3218  1.0531
  296MOL0     H40807   8.108   1.354  10.402 -1.2483 -1.4174 -1.1504
  296MOL0     H40808   7.960   1.315  10.479  2.0102 -2.0307 -1.4957
  296MOL0     H40809   8.099   1.364  10.583  1.9772 -2.4173 -0.9274
  296MOL0     H40810   7.706   1.789  10.938  0.7113  0.5032  3.3326
  296MOL0     H40811   7.537   1.766  11.109  1.2764  0.4486 -0.3177
  296MOL0     H40812   7.271   1.402  11.077 -0.6475  0.7804 -0.9252
  296MOL0     H40813   7.378   1.362  11.209 -5.3383 -3.0178  1.2725
  296MOL0     H40814   7.269   1.549  11.337  3.2688  2.6870 -2.9173
  296MOL0     H40815   7.163   1.589  11.205 -0.8942 -0.6928  0.5050
  296MOL0     H40816   7.128   1.307  11.303 -3.5312 -1.9876 -2.7538
  296MOL0     H40817   7.044   1.403  11.188  0.4239 -0.7444  0.1182
  296MOL0     H40818   6.959   1.574  11.350 -1.3385 -0.9043 -1.7235
  296MOL0     H40819   7.068   1.497  11.479 -0.5446 -2.6952  0.0512
  296MOL0     H40820   6.947   1.297  11.488 -0.3319  1.0698  1.3017
  296MOL0     H40821   6.851   1.432  11.533 -3.4466 -1.1329  0.6777
  296MOL0     H40822   6.700   1.302  11.409 -2.7232  2.5136 -1.3752
  296MOL0     H40823   6.808   1.292  11.265 -0.0754  1.3161 -0.4923
  296MOL0     H40824   6.770   1.526  11.232  3.6685  0.3921  4.1281
  296MOL0     H40825   6.695   1.546  11.387  4.0161  2.0166 -0.9455
  296MOL0     H40826   6.572   1.379  11.166  0.4427  2.1548 -1.8000
  296MOL0     H40827   6.526   1.542  11.184 -3.1641 -1.8233 -0.5711
  296MOL0     H40828   7.496   1.350  11.001  1.8130 -0.3571  2.6685
  296MOL0     H40829   7.696   1.378  10.838  1.0376  0.3232 -0.2368
  296MOL0     H40830   7.897   1.800  10.651  1.7978  2.3334 -0.2447
  296MOL0     H40831   7.955   1.914  10.455 -1.5746 -0.8533 -1.4754
  296MOL0     H40832   8.414   2.350  10.311 -1.3813  0.1460  0.2464
  296MOL0     H40833   8.231   2.458  10.467 -0.8416  0.3820  4.3915
  296MOL0     H40834   8.320   2.847  10.849 -1.0381 -0.2782  0.4483
  296MOL0     H40835   8.243   2.960  11.035  0.1489  0.0943 -0.5902
  296MOL0     H40836   7.870   2.981  11.250  2.0769 -0.7030  2.1929
  296MOL0     H40837   7.826   2.853  11.145  0.1541 -2.7515  1.0906
  296MOL0     H40838   7.904   2.686  11.325 -0.7909 -0.2951  2.5282
  296MOL0     H40839   7.774   2.795  11.379  0.1591 -0.0626  0.5967
  296MOL0     H40840   8.071   2.830  11.438 -0.3066  1.4058 -1.9574
  296MOL0     H40841   7.949   2.941  11.470  0.4672  0.1826  0.5750
  296MOL0     H40842   7.958   2.677  11.601  0.7377  0.8612 -1.2872
  296MOL0     H40843   7.837   2.808  11.633 -0.5828 -2.3974 -0.3191
  296MOL0     H40844   8.152   2.944  11.874  3.1665 -2.9618 -0.3275
  296MOL0     H40845   7.946   2.648  11.108 -1.2044  0.8090  0.5002
  296MOL0     H40846   8.043   2.439  10.794 -1.0774  0.6120 -0.1996
  296MOL0     H40847   8.074   2.395  10.960  0.5568  0.5982  0.6173
  296MOL0     H40848   7.917   2.462  10.902 -0.0745  0.2817  1.9390
  297MOL0     O40849   0.093   1.570   1.161  0.3027  0.2621 -0.3147
  297MOL0     C40850  -0.020   1.607   1.162 -0.8817 -0.6298 -0.6250
  297MOL0     O40851  -0.056   1.735   1.180 -0.1342  0.0258  0.2374
  297MOL0     C40852   0.021   1.835   1.133 -0.3277 -0.4258  0.1195
  297MOL0     C40853  -0.007   1.972   1.166 -0.6092 -0.6281  0.0233
  297MOL0     C40854   0.072   2.076   1.115  0.2867 -0.2587  0.3221
  297MOL0     C40855   0.169   2.052   1.019 -0.5253  0.8989  0.1074
  297MOL0     O40856   0.245   2.150   0.965 -0.0151  0.4725  0.2082
  297MOL0     C40857   0.314   2.139   0.840 -0.3860 -0.4688 -0.4513
  297MOL0     C40858   0.342   2.286   0.801 -0.4069 -0.8689 -0.1740
  297MOL0     C40859   0.398   2.376   0.905 -1.1119  0.4402 -0.3757
  297MOL0     C40860   0.458   2.506   0.848  0.6792  1.4860 -0.7572
  297MOL0     C40861   0.602   2.484   0.792  0.5998  0.0548  0.8859
  297MOL0     C40862   0.659   2.608   0.732 -0.5650 -0.4479 -0.5153
  297MOL0     C40863   0.706   2.698   0.851  0.3671  0.5950 -0.5258
  297MOL0     C40864   0.812   2.643   0.956 -0.5370 -0.5089  0.9535
  297MOL0     N40865   0.837   2.733   1.078 -0.6500 -0.0100  0.9003
  297MOL0     C40866   0.775   2.755   1.189  0.2987 -0.0731 -0.2425
  297MOL0     C40867   0.841   2.823   1.273 -1.4466  1.1983  0.4644
  297MOL0     C40868   0.804   2.862   1.413 -0.6508  0.4015 -1.0536
  297MOL0     C40869   0.904   2.798   1.512 -0.1921  0.5417 -0.0907
  297MOL0     C40870   0.894   2.634   1.504  1.0464  0.5672  0.3746
  297MOL0     C40871   0.952   2.566   1.630 -0.9920  0.4412  0.2359
  297MOL0     O40872   0.949   2.428   1.611  0.4066 -0.0487  0.1350
  297MOL0     C40873   1.065   2.362   1.643 -0.0474 -0.1441 -0.1056
  297MOL0     C40874   1.127   2.377   1.770 -0.0938  0.3339 -1.0809
  297MOL0     C40875   1.248   2.298   1.803  0.7247 -0.8280  0.8861
  297MOL0     C40876   1.312   2.326   1.943  0.8875  0.1567 -0.0453
  297MOL0     C40877   1.301   2.201   1.706  0.1119  0.2927  0.3315
  297MOL0     C40878   1.433   2.130   1.726 -0.0618  0.4015  0.0808
  297MOL0     O40879   1.489   2.076   1.619  0.0191 -0.6558  0.4552
  297MOL0     C40880   1.585   1.971   1.619 -1.1150  0.7068 -0.6194
  297MOL0     C40881   1.617   1.877   1.722  0.6899  0.3372 -0.8159
  297MOL0     C40882   1.711   1.773   1.712 -1.0841  0.1022  0.2477
  297MOL0     C40883   1.772   1.754   1.589  0.4563  0.0146 -0.3170
  297MOL0     O40884   1.861   1.647   1.581  1.0753 -0.8693  0.1851
  297MOL0     C40885   1.933   1.616   1.707 -0.2589 -0.7873 -0.2808
  297MOL0     C40886   2.011   1.724   1.773  0.4671  0.6049 -0.4159
  297MOL0     C40887   2.112   1.802   1.686  0.2815 -1.3189 -1.0167
  297MOL0     C40888   2.193   1.710   1.593 -0.1236 -0.9843 -0.9993
  297MOL0     C40889   2.292   1.809   1.522  0.2992  0.9289 -0.6772
  297MOL0     C40890   2.394   1.738   1.427 -0.6681  0.4828 -1.5777
  297MOL0     C40891   2.335   1.723   1.280 -0.9294  0.0916 -0.8034
  297MOL0     C40892   2.443   1.662   1.190 -0.5353 -0.1055 -0.9244
  297MOL0    Cl40893   2.574   1.773   1.157  0.2098 -0.0646 -0.2299
  297MOL0     C40894   1.744   1.847   1.484 -0.2199 -0.7029 -0.2069
  297MOL0     C40895   1.651   1.953   1.502  0.3422 -0.2896  0.5911
  297MOL0     O40896   1.487   2.123   1.837  0.4307 -0.1441 -0.4067
  297MOL0     C40897   1.229   2.179   1.585 -0.3111 -0.3701 -0.4405
  297MOL0     C40898   1.125   2.265   1.556  0.3300  0.4754  0.2806
  297MOL0     N40899   0.959   2.856   1.203 -0.0365 -1.5785 -0.5938
  297MOL0     N40900   0.948   2.807   1.089  1.0703 -0.1988 -0.4981
  297MOL0     C40901   0.178   1.924   0.962 -0.3181  0.2648  0.3805
  297MOL0     C40902   0.105   1.814   1.013 -0.1316 -0.3388  0.4024
  297MOL0     C40903  -0.134   1.518   1.130  0.2350  0.9922  0.4419
  297MOL0     C40904  -0.249   1.576   1.086  0.3522 -0.4388 -0.2239
  297MOL0     C40905  -0.367   1.496   1.047 -0.8660 -0.0625 -0.8949
  297MOL0     C40906  -0.372   1.366   1.055 -0.5658  0.4218  0.1802
  297MOL0     O40907  -0.489   1.298   1.036  0.6722 -0.4531 -0.2787
  297MOL0     C40908  -0.505   1.157   1.069 -0.6711  0.5149  0.1455
  297MOL0     C40909  -0.455   1.063   0.963  0.2464  0.0400 -0.0341
  297MOL0     C40910  -0.544   0.949   0.927  0.0742 -0.0752 -0.3833
  297MOL0     C40911  -0.500   0.873   0.795  0.3948 -0.3723  0.7878
  297MOL0     C40912  -0.579   0.754   0.772 -0.4185 -0.5779 -0.5385
  297MOL0     C40913  -0.642   0.649   0.766 -0.5770  0.3045 -0.6442
  297MOL0     C40914  -0.256   1.297   1.100  0.1689  0.1159 -1.1531
  297MOL0     C40915  -0.142   1.369   1.139 -0.7793  0.1288  0.0322
  297MOL0     C40916  -0.039   1.289   1.212 -0.5058 -0.8684  0.0375
  297MOL0     H40917  -0.093   2.000   1.226  0.1697  1.3164  0.3040
  297MOL0     H40918   0.063   2.182   1.136 -0.4373 -0.0254 -1.0359
  297MOL0     H40919   0.254   2.092   0.762  2.1088  1.4826 -3.8287
  297MOL0     H40920   0.411   2.093   0.858 -1.6394 -2.2664  2.5915
  297MOL0     H40921   0.417   2.291   0.721  4.7600  1.3051  4.1863
  297MOL0     H40922   0.250   2.332   0.764 -0.1367 -1.0563 -1.1036
  297MOL0     H40923   0.321   2.403   0.978 -1.7113  0.2197 -0.9157
  297MOL0     H40924   0.485   2.326   0.949 -0.5810  2.2139  0.6730
  297MOL0     H40925   0.389   2.550   0.776  0.2246 -0.0073 -1.2761
  297MOL0     H40926   0.462   2.576   0.931  0.0195  0.0625  0.5346
  297MOL0     H40927   0.586   2.418   0.706 -2.8769 -0.2522  1.6104
  297MOL0     H40928   0.670   2.443   0.866  4.3261  2.2407 -1.0101
  297MOL0     H40929   0.753   2.580   0.682 -1.2123  0.4636 -2.3434
  297MOL0     H40930   0.594   2.660   0.661 -0.9199 -1.3076 -0.8309
  297MOL0     H40931   0.624   2.718   0.921  0.3914 -3.3498  0.8301
  297MOL0     H40932   0.744   2.796   0.821 -1.8003  1.6842  0.0384
  297MOL0     H40933   0.780   2.546   0.995 -3.4123  1.0912  2.9611
  297MOL0     H40934   0.909   2.625   0.908 -0.9913 -0.8756  0.1499
  297MOL0     H40935   0.674   2.717   1.205 -0.3988  2.0475  0.7516
  297MOL0     H40936   0.699   2.840   1.434 -0.2381  0.4103  1.2461
  297MOL0     H40937   0.810   2.971   1.412 -0.6660  0.4769 -4.1969
  297MOL0     H40938   1.008   2.828   1.492 -1.2553  5.6203  0.5145
  297MOL0     H40939   0.885   2.835   1.614 -1.1531 -0.9805  0.3021
  297MOL0     H40940   0.787   2.609   1.499  1.0885  0.4885 -0.1949
  297MOL0     H40941   0.951   2.603   1.416 -0.2349  1.6865 -0.9011
  297MOL0     H40942   1.053   2.605   1.612  0.6126 -2.1651  2.8130
  297MOL0     H40943   0.907   2.597   1.725 -1.5841 -2.9933  1.1939
  297MOL0     H40944   1.084   2.442   1.846  0.8464 -0.6405  0.3293
  297MOL0     H40945   1.254   2.396   2.003 -0.7236 -1.8827  0.8832
  297MOL0     H40946   1.408   2.374   1.920  1.0192 -0.6957 -1.4094
  297MOL0     H40947   1.304   2.235   2.002 -1.4544  0.8310  0.7782
  297MOL0     H40948   1.567   1.893   1.817 -2.1693  0.6675 -2.2783
  297MOL0     H40949   1.717   1.722   1.807  2.1716 -0.8834 -0.3661
  297MOL0     H40950   1.861   1.577   1.780 -1.3564  0.5060 -0.6454
  297MOL0     H40951   2.000   1.531   1.690 -2.2547 -2.7517  1.1732
  297MOL0     H40952   1.941   1.799   1.811 -1.6399 -0.9511 -1.0320
  297MOL0     H40953   2.070   1.686   1.857 -1.5721  0.4787  1.0205
  297MOL0     H40954   2.177   1.862   1.749 -1.4472 -1.0623  0.6227
  297MOL0     H40955   2.045   1.867   1.628  0.0368  0.7578  1.4273
  297MOL0     H40956   2.139   1.670   1.507 -1.2624  0.3555 -0.9606
  297MOL0     H40957   2.240   1.634   1.656 -2.3816 -3.6332 -2.2782
  297MOL0     H40958   2.241   1.894   1.477 -0.4100  0.3744 -0.9289
  297MOL0     H40959   2.339   1.855   1.610 -2.9181  0.9530  1.1748
  297MOL0     H40960   2.420   1.645   1.478  1.8289  1.1965 -1.4021
  297MOL0     H40961   2.487   1.796   1.429 -0.1912 -0.2645 -1.8183
  297MOL0     H40962   2.310   1.821   1.237  1.6648  0.7196 -1.0695
  297MOL0     H40963   2.247   1.659   1.289  1.5490 -3.4066  0.4797
  297MOL0     H40964   2.405   1.644   1.090  0.1777  2.0790 -1.6513
  297MOL0     H40965   2.483   1.563   1.217 -1.8820 -0.7109 -1.0701
  297MOL0     H40966   1.795   1.829   1.391  1.5411  1.9507  0.1388
  297MOL0     H40967   1.646   2.030   1.426  1.9104 -0.6647  0.0698
  297MOL0     H40968   1.266   2.104   1.516  0.3638 -2.6688  2.2127
  297MOL0     H40969   1.090   2.261   1.453  1.2826 -2.3525 -0.0325
  297MOL0     H40970   0.224   1.905   0.865  0.5623  1.3759  0.5619
  297MOL0     H40971   0.115   1.713   0.973  0.3545  0.3161 -1.1949
  297MOL0     H40972  -0.251   1.683   1.067 -2.4635 -0.2130  0.7977
  297MOL0     H40973  -0.452   1.561   1.025  0.5759  2.0837 -0.4740
  297MOL0     H40974  -0.449   1.127   1.158  0.7578  0.0640 -0.8566
  297MOL0     H40975  -0.611   1.132   1.076 -0.4813 -0.8460 -1.2891
  297MOL0     H40976  -0.357   1.027   0.996 -0.7540 -2.3298  0.6007
  297MOL0     H40977  -0.449   1.124   0.873 -0.6000  0.1910  0.0034
  297MOL0     H40978  -0.532   0.885   1.015  0.0277 -0.6558 -0.7951
  297MOL0     H40979  -0.651   0.967   0.919 -0.0775 -1.1362 -0.7441
  297MOL0     H40980  -0.395   0.844   0.802  1.8895  3.9091 -0.6563
  297MOL0     H40981  -0.517   0.937   0.708 -3.2744 -1.5251  0.4842
  297MOL0     H40982  -0.689   0.553   0.772 -0.5209  0.1034 -2.5756
  297MOL0     H40983  -0.243   1.189   1.103  2.8828  0.3426 -1.7467
  297MOL0     H40984   0.018   1.351   1.282  0.1882  0.9834 -2.0408
  297MOL0     H40985  -0.078   1.198   1.260 -2.8982 -0.2011 -0.4955
  297MOL0     H40986   0.039   1.254   1.144 -1.1402 -0.5258 -0.8767
  298MOL0     O40987   3.674   2.022  10.709 -0.3584 -0.2195  0.2469
  298MOL0     C40988   3.726   2.133  10.722 -0.1845  0.0165  0.7723
  298MOL0     O40989   3.839   2.167  10.655  1.0850  0.4745 -0.3655
  298MOL0     C40990   3.908   2.070  10.589 -0.2743 -0.5753 -0.3056
  298MOL0     C40991   3.914   2.081  10.447 -0.3576  0.0954  0.1125
  298MOL0     C40992   3.982   1.992  10.372 -0.3701  0.7980  0.1726
  298MOL0     C40993   4.036   1.877  10.431 -0.2222  0.7963  0.8386
  298MOL0     O40994   4.100   1.778  10.354 -0.4282  0.4215  0.1802
  298MOL0     C40995   4.243   1.791  10.339 -0.8100  1.3670 -1.0853
  298MOL0     C40996   4.316   1.704  10.447  0.5247 -0.4269  0.3524
  298MOL0     C40997   4.466   1.710  10.424 -0.7974 -0.2635  0.1745
  298MOL0     C40998   4.528   1.830  10.497 -0.1547 -0.5792  0.9479
  298MOL0     C40999   4.677   1.842  10.457 -0.2781  0.6265  1.2080
  298MOL0     C41000   4.780   1.736  10.457  0.6061 -0.7623  0.2208
  298MOL0     C41001   4.898   1.787  10.383 -0.2912 -0.9562 -0.2964
  298MOL0     C41002   5.018   1.799  10.466 -0.0680 -0.6028 -0.7634
  298MOL0     N41003   5.022   1.895  10.574  0.0318  0.5719 -0.1669
  298MOL0     C41004   4.955   2.007  10.617  0.0116  0.0111 -0.7359
  298MOL0     C41005   4.990   2.029  10.745 -0.3550 -0.0311  0.0318
  298MOL0     C41006   4.948   2.140  10.839  0.0594  0.7739 -0.6016
  298MOL0     C41007   5.067   2.240  10.853  0.5001  0.4999  0.0793
  298MOL0     C41008   5.086   2.325  10.733  0.8235 -0.3195 -0.5418
  298MOL0     C41009   5.215   2.402  10.745 -1.6785 -0.4408 -0.3804
  298MOL0     O41010   5.208   2.504  10.848 -0.8453  0.2055  0.5318
  298MOL0     C41011   5.309   2.588  10.872 -0.7859  0.1732 -0.7607
  298MOL0     C41012   5.320   2.656  10.997  0.3588  0.5002 -0.1197
  298MOL0     C41013   5.413   2.747  11.030 -0.3073 -0.7349  0.2278
  298MOL0     C41014   5.395   2.817  11.156 -0.2685  0.1060 -0.4777
  298MOL0     C41015   5.522   2.775  10.947 -0.3920  0.2357  0.8645
  298MOL0     C41016   5.616   2.877  10.959 -0.3317  0.2311 -0.3347
  298MOL0     O41017   5.747   2.844  10.943  0.6756  0.3889  0.2475
  298MOL0     C41018   5.833   2.926  11.004 -0.2508 -1.1086 -0.1655
  298MOL0     C41019   5.859   3.069  10.983 -0.2790  0.6606 -0.8557
  298MOL0     C41020   5.991   3.114  11.017 -0.0989  0.1829 -0.2062
  298MOL0     C41021   6.087   3.034  11.087  1.5180 -1.1126 -0.1170
  298MOL0     O41022   6.214   3.081  11.111 -0.0138  0.3094 -0.5700
  298MOL0     C41023   6.241   3.223  11.107  0.0434 -0.4249  0.0188
  298MOL0     C41024   6.387   3.259  11.156 -0.3616  0.4471 -0.2442
  298MOL0     C41025   6.505   3.190  11.066  0.1012 -0.4829 -0.1193
  298MOL0     C41026   6.517   3.294  10.947 -1.0112  0.1324 -0.4512
  298MOL0     C41027   6.666   3.274  10.891  0.4612 -1.4198  0.0850
  298MOL0     C41028   6.663   3.335  10.750  0.1912  0.2761  0.0841
  298MOL0     C41029   6.809   3.365  10.717 -0.0153 -0.0419 -0.2438
  298MOL0     C41030   6.826   3.433  10.580 -0.3205  0.6642 -0.0020
  298MOL0    Cl41031   6.749   3.366  10.433 -0.1167  0.1605  0.0033
  298MOL0     C41032   6.050   2.896  11.106  0.4666  0.4136  1.0069
  298MOL0     C41033   5.932   2.846  11.054 -0.5223 -0.5288 -0.4856
  298MOL0     O41034   5.572   2.990  10.960  0.8681 -0.3282  0.2284
  298MOL0     C41035   5.528   2.693  10.825  0.3814  0.2568  1.0465
  298MOL0     C41036   5.424   2.602  10.788 -0.7857  0.9683 -0.0680
  298MOL0     N41037   5.083   1.935  10.781  0.0673 -0.6351 -0.2577
  298MOL0     N41038   5.108   1.869  10.674  0.3217 -0.8524 -0.1201
  298MOL0     C41039   4.014   1.858  10.574 -0.3054 -0.9181 -0.1496
  298MOL0     C41040   3.960   1.959  10.650  0.6809  0.8618 -0.5169
  298MOL0     C41041   3.674   2.228  10.821 -0.8312 -0.8460 -0.7504
  298MOL0     C41042   3.739   2.354  10.833 -0.3738  0.5075  0.7365
  298MOL0     C41043   3.701   2.449  10.927  0.3383 -0.2268 -0.2696
  298MOL0     C41044   3.582   2.432  10.996  0.0034  0.6472 -1.0643
  298MOL0     O41045   3.516   2.523  11.065 -0.0700  0.2372 -0.4719
  298MOL0     C41046   3.548   2.664  11.046  0.6179  0.3473 -0.3726
  298MOL0     C41047   3.421   2.750  11.053 -0.5035  0.1637  0.3329
  298MOL0     C41048   3.367   2.784  10.912 -0.0074  0.0680 -0.8130
  298MOL0     C41049   3.349   2.658  10.832 -0.3892  0.5118 -0.6909
  298MOL0     C41050   3.287   2.684  10.698 -0.2359  0.0569 -0.2649
  298MOL0     C41051   3.235   2.697  10.587 -0.7610  0.0096  0.5678
  298MOL0     C41052   3.515   2.305  10.983  0.2491  0.8085  0.6593
  298MOL0     C41053   3.562   2.206  10.896  0.9639  0.9433 -0.5990
  298MOL0     C41054   3.468   2.085  10.889  0.3581  0.2193 -0.4789
  298MOL0     H41055   3.868   2.174  10.417 -2.1942  0.0025  2.3933
  298MOL0     H41056   3.985   1.994  10.263 -0.1474 -1.3169  0.1147
  298MOL0     H41057   4.283   1.889  10.362  1.5939 -0.1202  1.6921
  298MOL0     H41058   4.282   1.761  10.241  0.1522 -3.3630  0.4863
  298MOL0     H41059   4.298   1.730  10.552  2.4423 -1.8064  1.0779
  298MOL0     H41060   4.290   1.599  10.432  1.3540 -0.6461  0.4022
  298MOL0     H41061   4.509   1.618  10.466 -2.3338 -0.2891  1.7956
  298MOL0     H41062   4.495   1.704  10.319  0.2188  0.1848  0.4145
  298MOL0     H41063   4.475   1.924  10.477 -1.8270 -1.6263  0.2178
  298MOL0     H41064   4.521   1.819  10.605 -0.9909 -0.1541  0.9405
  298MOL0     H41065   4.713   1.930  10.511 -0.4239  1.7833 -0.4954
  298MOL0     H41066   4.664   1.863  10.350  1.3018  2.4495  1.3118
  298MOL0     H41067   4.797   1.711  10.562  2.5547  1.5824  0.5482
  298MOL0     H41068   4.735   1.650  10.405  0.9074 -1.3026  0.8461
  298MOL0     H41069   4.868   1.886  10.348 -2.3141  0.0213  3.5917
  298MOL0     H41070   4.930   1.728  10.297  1.0233  2.8035 -2.6203
  298MOL0     H41071   5.057   1.704  10.503  1.0759  1.3016  3.5216
  298MOL0     H41072   5.092   1.844  10.399 -2.1290  1.9554 -1.4659
  298MOL0     H41073   4.895   2.067  10.550  0.2346 -0.2354 -1.1604
  298MOL0     H41074   4.917   2.093  10.933 -3.4397  1.3793 -1.3162
  298MOL0     H41075   4.871   2.207  10.801  0.4593  2.0996  0.8478
  298MOL0     H41076   5.049   2.295  10.945 -0.4085  0.2677  0.0509
  298MOL0     H41077   5.155   2.175  10.862  0.3361 -0.0227 -1.7350
  298MOL0     H41078   5.089   2.282  10.632 -1.1783 -1.0580 -0.3137
  298MOL0     H41079   4.999   2.391  10.726 -0.6609 -2.3077 -2.0864
  298MOL0     H41080   5.302   2.341  10.769  2.8265  4.0408 -3.2271
  298MOL0     H41081   5.239   2.455  10.652  4.3095  1.1759  1.6039
  298MOL0     H41082   5.250   2.631  11.076 -2.5385 -0.1598 -2.6785
  298MOL0     H41083   5.481   2.820  11.223 -0.3743  1.8749 -0.3764
  298MOL0     H41084   5.315   2.767  11.211  0.9779 -3.0630 -1.3436
  298MOL0     H41085   5.364   2.921  11.137  0.6476  0.1676 -1.8407
  298MOL0     H41086   5.792   3.134  10.929 -1.9245 -2.0001 -2.2396
  298MOL0     H41087   6.020   3.217  10.997  3.3521 -0.7602 -0.7181
  298MOL0     H41088   6.231   3.271  11.009 -0.4336  0.9363  0.7059
  298MOL0     H41089   6.169   3.268  11.176 -2.0111 -1.7065 -1.1931
  298MOL0     H41090   6.402   3.366  11.169  2.8890 -0.0565  1.1023
  298MOL0     H41091   6.400   3.222  11.258  0.2474  1.2472 -0.0252
  298MOL0     H41092   6.464   3.096  11.030 -0.2937  1.1611 -4.6373
  298MOL0     H41093   6.592   3.178  11.131  0.1233 -3.0603 -0.5393
  298MOL0     H41094   6.511   3.397  10.982  1.9275 -0.7324  3.1335
  298MOL0     H41095   6.452   3.266  10.863 -0.7364 -2.4327  0.1126
  298MOL0     H41096   6.730   3.336  10.955  0.2958 -1.5846  0.4138
  298MOL0     H41097   6.708   3.173  10.893  2.5146 -0.6634 -1.3839
  298MOL0     H41098   6.600   3.424  10.743 -0.3033 -0.1838 -1.7013
  298MOL0     H41099   6.630   3.260  10.678 -0.3010 -0.9942  1.5911
  298MOL0     H41100   6.854   3.265  10.714 -0.9593 -0.5967  2.0159
  298MOL0     H41101   6.865   3.410  10.799  0.8654 -4.2156  1.7351
  298MOL0     H41102   6.932   3.448  10.558 -0.3912 -0.9566 -1.6880
  298MOL0     H41103   6.783   3.533  10.590 -1.7339  0.4498 -2.8563
  298MOL0     H41104   6.122   2.822  11.139  0.2511 -0.1668  0.2086
  298MOL0     H41105   5.920   2.738  11.047  1.4100 -1.0176  2.0608
  298MOL0     H41106   5.605   2.709  10.750 -2.0776  1.5007 -1.3514
  298MOL0     H41107   5.432   2.549  10.694 -0.7139  0.5894  0.1486
  298MOL0     H41108   4.064   1.784  10.635 -2.1392  0.8518  3.8820
  298MOL0     H41109   3.950   1.944  10.758  0.2401  2.1031 -0.3769
  298MOL0     H41110   3.828   2.389  10.781  1.1165 -1.9692  1.4701
  298MOL0     H41111   3.753   2.544  10.930  1.9453 -1.0720 -0.3982
  298MOL0     H41112   3.611   2.698  11.129 -1.3192 -1.0747  1.8401
  298MOL0     H41113   3.599   2.679  10.951  3.4385 -1.7332  0.6585
  298MOL0     H41114   3.456   2.843  11.099  0.2634  1.3163 -2.3729
  298MOL0     H41115   3.340   2.713  11.116 -1.6643 -2.1136 -2.2552
  298MOL0     H41116   3.265   2.823  10.913 -0.8591 -1.9827  0.2601
  298MOL0     H41117   3.433   2.855  10.863  0.6712  0.7860  1.0704
  298MOL0     H41118   3.286   2.590  10.891 -1.2043  3.2467  1.8594
  298MOL0     H41119   3.440   2.602  10.809  1.1004  2.1475  0.9102
  298MOL0     H41120   3.177   2.690  10.497  1.7209  0.2316 -1.1492
  298MOL0     H41121   3.415   2.303  11.024 -0.6954 -0.8103 -1.5333
  298MOL0     H41122   3.522   1.992  10.908  0.8678  0.6875  0.4612
  298MOL0     H41123   3.402   2.095  10.976  0.7346  0.5085 -0.2234
  298MOL0     H41124   3.420   2.070  10.792 -0.7159  1.6223 -0.1855
  299MOL0     O41125   3.313   3.258   3.754  0.6672  0.2665 -0.9586
  299MOL0     C41126   3.349   3.275   3.638  0.2253 -1.1430  0.4383
  299MOL0     O41127   3.472   3.265   3.588 -0.0213  0.5078  0.4241
  299MOL0     C41128   3.574   3.208   3.660 -0.7813 -0.1754  0.0303
  299MOL0     C41129   3.685   3.177   3.589 -0.2955 -0.2910  1.0103
  299MOL0     C41130   3.809   3.137   3.644 -0.1156  0.4154 -0.4075
  299MOL0     C41131   3.835   3.145   3.780 -0.0934  0.6552  0.9157
  299MOL0     O41132   3.951   3.109   3.843  0.1425 -0.7435  0.2410
  299MOL0     C41133   4.078   3.129   3.780 -0.4731  0.7556  0.5702
  299MOL0     C41134   4.148   2.993   3.755  0.6559  0.1104 -0.9980
  299MOL0     C41135   4.280   3.021   3.664 -0.5726 -0.3786 -0.2035
  299MOL0     C41136   4.333   2.889   3.615 -0.7674 -0.4042  0.4548
  299MOL0     C41137   4.483   2.894   3.569 -0.1519  0.9864  0.7269
  299MOL0     C41138   4.492   2.782   3.458  0.2230 -0.5740 -1.6338
  299MOL0     C41139   4.633   2.754   3.416 -0.5323 -0.5036  0.7242
  299MOL0     C41140   4.658   2.610   3.450  0.1414  0.4480 -0.1098
  299MOL0     N41141   4.603   2.511   3.361  0.8787  0.5755  0.8224
  299MOL0     C41142   4.468   2.453   3.356  0.0914  0.8921  0.5579
  299MOL0     C41143   4.461   2.366   3.252  0.1134  0.2120 -0.6632
  299MOL0     C41144   4.340   2.282   3.215  1.0770 -0.3354  0.5092
  299MOL0     C41145   4.254   2.356   3.102 -0.1426 -0.3787  0.5683
  299MOL0     C41146   4.134   2.441   3.163  0.1143 -0.0378  0.6237
  299MOL0     C41147   4.157   2.593   3.189 -0.4909  0.8949  0.6338
  299MOL0     O41148   4.027   2.649   3.200 -0.6125  1.1253 -0.0192
  299MOL0     C41149   4.006   2.785   3.225  0.5644  0.1416  0.0133
  299MOL0     C41150   3.872   2.832   3.189 -1.3388  0.4576 -1.0490
  299MOL0     C41151   3.841   2.965   3.212  0.9927  0.1999 -0.1581
  299MOL0     C41152   3.692   2.997   3.169  0.4258  0.0920 -0.5916
  299MOL0     C41153   3.939   3.064   3.247  0.0361  0.8981  0.2435
  299MOL0     C41154   3.908   3.209   3.267  0.0154  0.5793  0.0190
  299MOL0     O41155   4.026   3.284   3.292  0.8033 -0.2276  0.6326
  299MOL0     C41156   3.999   3.404   3.344 -0.4447  0.2102 -0.0511
  299MOL0     C41157   3.934   3.423   3.465  0.7885 -1.4310 -0.0336
  299MOL0     C41158   3.935   3.549   3.519 -0.8183 -0.7371 -0.7098
  299MOL0     C41159   4.003   3.664   3.464 -0.6122 -0.3507 -0.2167
  299MOL0     O41160   4.017   3.793   3.503  0.2509  0.3124 -1.1613
  299MOL0     C41161   3.905   3.880   3.497 -0.1963  0.8722 -0.2645
  299MOL0     C41162   3.919   4.005   3.588 -0.2363  0.1735 -0.2175
  299MOL0     C41163   3.788   4.089   3.573 -0.3229 -0.1543  0.1086
  299MOL0     C41164   3.803   4.219   3.658  0.5777 -0.5060 -1.3272
  299MOL0     C41165   3.784   4.216   3.810  0.7439 -0.3166  0.2466
  299MOL0     C41166   3.659   4.126   3.851 -0.7753 -0.0007  0.1029
  299MOL0     C41167   3.523   4.162   3.782 -0.0261  0.0150 -0.6150
  299MOL0     C41168   3.413   4.057   3.775 -0.1077  0.4745 -0.5207
  299MOL0    Cl41169   3.255   4.125   3.802  0.4437 -0.2356 -0.1564
  299MOL0     C41170   4.064   3.641   3.341 -0.1618 -1.2082  0.3171
  299MOL0     C41171   4.072   3.516   3.293  0.6262  0.1259  0.7582
  299MOL0     O41172   3.792   3.249   3.266  0.7642  0.3262 -0.3789
  299MOL0     C41173   4.073   3.015   3.263 -0.6928 -0.9704 -0.0508
  299MOL0     C41174   4.102   2.880   3.272 -1.0102 -0.3511 -0.5561
  299MOL0     N41175   4.577   2.381   3.172 -0.1338  0.2195  0.0984
  299MOL0     N41176   4.650   2.468   3.232  0.0233 -1.0467  0.0140
  299MOL0     C41177   3.727   3.174   3.858  0.3694  0.0166  0.0676
  299MOL0     C41178   3.601   3.201   3.796  0.4258  0.2955  0.0032
  299MOL0     C41179   3.266   3.343   3.534 -0.3429  0.3980  0.4533
  299MOL0     C41180   3.321   3.442   3.446  0.2174  0.4914  0.6693
  299MOL0     C41181   3.240   3.509   3.352  0.7798 -0.5535  0.0609
  299MOL0     C41182   3.104   3.485   3.349  0.2780 -0.1410  0.4919
  299MOL0     O41183   3.041   3.564   3.246  0.1581 -0.3212  0.1688
  299MOL0     C41184   2.917   3.622   3.287  0.5885  0.2114 -0.1095
  299MOL0     C41185   2.905   3.758   3.234 -0.9436  0.2478 -0.9402
  299MOL0     C41186   2.972   3.866   3.322  0.1515  0.6135  1.1244
  299MOL0     C41187   2.992   3.991   3.237  0.7034  0.0462 -0.4298
  299MOL0     C41188   2.855   4.043   3.207 -0.6043 -0.8206  0.5081
  299MOL0     C41189   2.742   4.073   3.181  0.5015 -0.2577 -0.3490
  299MOL0     C41190   3.047   3.393   3.444  1.1483  0.3963  1.0084
  299MOL0     C41191   3.126   3.322   3.531 -0.2448  0.4772  0.1146
  299MOL0     C41192   3.054   3.231   3.629 -0.2901  0.1765 -0.1382
  299MOL0     H41193   3.675   3.168   3.482  0.7343  1.4325  0.7246
  299MOL0     H41194   3.891   3.117   3.575  2.9141  0.5440  2.8639
  299MOL0     H41195   4.140   3.193   3.843 -0.3850  2.4276 -1.1233
  299MOL0     H41196   4.071   3.177   3.682  0.1994 -1.5297 -0.6820
  299MOL0     H41197   4.177   2.951   3.852 -2.1395  0.1843 -0.0485
  299MOL0     H41198   4.078   2.921   3.713  0.0823 -1.2124  2.0049
  299MOL0     H41199   4.255   3.083   3.577  1.1194  1.9975  0.8963
  299MOL0     H41200   4.352   3.077   3.724 -0.0563 -2.6770  1.4788
  299MOL0     H41201   4.319   2.806   3.685  1.4204 -1.0807  0.1563
  299MOL0     H41202   4.277   2.877   3.522  0.2559 -0.0126 -0.2302
  299MOL0     H41203   4.550   2.881   3.654 -1.0927 -1.7003  1.1425
  299MOL0     H41204   4.510   2.988   3.520  1.8644 -0.3831 -0.9588
  299MOL0     H41205   4.432   2.700   3.498 -0.9126  2.3311  3.4486
  299MOL0     H41206   4.442   2.823   3.370 -1.0954  0.9954 -0.2376
  299MOL0     H41207   4.705   2.827   3.452 -1.8833  2.5471 -2.2072
  299MOL0     H41208   4.632   2.771   3.308 -1.4232  2.4894  1.1084
  299MOL0     H41209   4.766   2.598   3.441  0.1916 -2.1815  2.4136
  299MOL0     H41210   4.642   2.592   3.556  2.9879 -0.5120  0.2349
  299MOL0     H41211   4.389   2.457   3.431  1.3820 -0.8721  2.1190
  299MOL0     H41212   4.270   2.245   3.291 -2.8795  1.2925 -2.0369
  299MOL0     H41213   4.395   2.197   3.173 -0.2180 -0.3282 -1.2887
  299MOL0     H41214   4.326   2.409   3.039 -0.8060  0.1740  0.2611
  299MOL0     H41215   4.213   2.279   3.037 -0.3840  0.4958 -0.3529
  299MOL0     H41216   4.061   2.453   3.081 -0.0217  0.5582  0.8250
  299MOL0     H41217   4.094   2.400   3.256 -0.0955  0.4402  0.7471
  299MOL0     H41218   4.221   2.608   3.277  0.2510  0.1839  0.2335
  299MOL0     H41219   4.214   2.631   3.104 -1.4608  1.0406  0.0421
  299MOL0     H41220   3.797   2.761   3.156  0.1558 -0.6045 -2.3255
  299MOL0     H41221   3.654   3.095   3.201  0.6711 -0.3539  1.1363
  299MOL0     H41222   3.639   2.926   3.233  0.4293  0.4926 -0.1381
  299MOL0     H41223   3.673   2.965   3.066  1.3503 -1.4863 -0.2960
  299MOL0     H41224   3.876   3.338   3.501  0.0313  0.1937  2.8648
  299MOL0     H41225   3.890   3.566   3.617  0.2388  0.1073 -0.3562
  299MOL0     H41226   3.897   3.920   3.395  1.8887  2.2098  0.0524
  299MOL0     H41227   3.811   3.831   3.523 -0.2716  0.3527 -1.4523
  299MOL0     H41228   3.918   3.968   3.690 -1.5609  1.3847  0.2527
  299MOL0     H41229   3.999   4.074   3.557  0.5081  0.6798  2.5674
  299MOL0     H41230   3.703   4.028   3.606 -0.6604 -0.1441 -0.7263
  299MOL0     H41231   3.759   4.107   3.469 -3.8482  1.0957  1.1460
  299MOL0     H41232   3.746   4.303   3.616 -0.1424 -0.7699 -0.8838
  299MOL0     H41233   3.903   4.262   3.646  1.2816 -2.2393 -1.9246
  299MOL0     H41234   3.877   4.200   3.865  1.7723  2.0914 -0.7019
  299MOL0     H41235   3.750   4.315   3.842 -0.3253 -2.1767  6.1037
  299MOL0     H41236   3.641   4.139   3.958 -1.8228 -0.5460  0.0077
  299MOL0     H41237   3.682   4.019   3.843  0.3976  0.1799  0.8343
  299MOL0     H41238   3.548   4.207   3.685  0.9545 -0.6640 -0.6951
  299MOL0     H41239   3.486   4.238   3.850 -1.6707 -0.0160 -1.4095
  299MOL0     H41240   3.439   3.969   3.835 -0.1191 -1.4468 -3.1535
  299MOL0     H41241   3.412   4.023   3.671 -1.8173 -0.6250 -0.1894
  299MOL0     H41242   4.102   3.734   3.298  0.2538  1.0249  4.8557
  299MOL0     H41243   4.125   3.487   3.203  1.9870  2.4610  0.7263
  299MOL0     H41244   4.137   3.093   3.304  2.3145 -1.8238 -2.6915
  299MOL0     H41245   4.199   2.854   3.313 -0.9474  1.5613  0.5914
  299MOL0     H41246   3.731   3.188   3.965  0.2461  1.6481 -0.1075
  299MOL0     H41247   3.524   3.234   3.865 -0.0243  1.4541 -1.0054
  299MOL0     H41248   3.428   3.458   3.460  0.8874 -1.3633 -1.5593
  299MOL0     H41249   3.270   3.583   3.279 -1.8040  0.9380  0.3920
  299MOL0     H41250   2.840   3.567   3.233 -0.2757  0.8542  0.4385
  299MOL0     H41251   2.904   3.621   3.396 -0.1981  2.9200 -0.1141
  299MOL0     H41252   2.799   3.771   3.211 -0.5574  2.6757 -1.5805
  299MOL0     H41253   2.957   3.763   3.138  0.8423  3.4811  0.0672
  299MOL0     H41254   2.886   3.891   3.385 -2.2952  1.2891 -2.1761
  299MOL0     H41255   3.069   3.826   3.352  0.1375 -0.9132 -0.6692
  299MOL0     H41256   3.049   3.971   3.146 -1.5030  0.0341 -1.8901
  299MOL0     H41257   3.036   4.069   3.300 -0.1222 -2.3075  3.3736
  299MOL0     H41258   2.643   4.101   3.150  0.2860 -0.5466  0.0736
  299MOL0     H41259   2.939   3.386   3.453  0.7476  5.0391  2.2602
  299MOL0     H41260   3.047   3.287   3.723  3.5493 -0.5781  0.7795
  299MOL0     H41261   2.955   3.200   3.593  1.1275 -2.0919 -2.4093
  299MOL0     H41262   3.103   3.138   3.658 -1.4665  0.3128  2.4992
  300MOL0     O41263   1.075  11.510   7.054 -1.1904 -0.2802 -0.2224
  300MOL0     C41264   1.158  11.421   7.050 -0.4691 -0.1368  0.3661
  300MOL0     O41265   1.133  11.280   7.029  0.3482 -0.8980 -0.7903
  300MOL0     C41266   0.999  11.241   7.018 -0.4308 -0.0127 -0.9136
  300MOL0     C41267   0.935  11.183   7.125 -0.2152  0.2104  0.0993
  300MOL0     C41268   0.799  11.142   7.112  0.6303 -0.0993 -0.6379
  300MOL0     C41269   0.741  11.160   6.984  0.2416  0.0242  0.0697
  300MOL0     O41270   0.606  11.149   6.976  0.5714 -0.0067 -0.3378
  300MOL0     C41271   0.556  11.105   6.848  0.2267 -0.3858 -0.5044
  300MOL0     C41272   0.406  11.080   6.865  0.8966  0.6679  1.2192
  300MOL0     C41273   0.346  11.011   6.739 -0.6318 -0.4064  0.3578
  300MOL0     C41274   0.192  11.014   6.718 -0.2865 -1.1045  0.2014
  300MOL0     C41275   0.160  10.886   6.626  0.0650 -0.3232 -1.0302
  300MOL0     C41276   0.009  10.855   6.600 -0.2759  0.8608 -0.8225
  300MOL0     C41277  -0.027  10.786   6.472 -0.6862  0.5721  0.4536
  300MOL0     C41278   0.038  10.646   6.456  0.2293  0.5655 -0.1785
  300MOL0     N41279   0.017  10.572   6.333  0.0150 -0.0802 -0.0580
  300MOL0     C41280   0.070  10.451   6.287 -0.7290  1.0811  0.1957
  300MOL0     C41281   0.003  10.421   6.172 -0.1285 -0.2731 -0.6540
  300MOL0     C41282   0.029  10.302   6.078  0.6375 -0.8271  0.3274
  300MOL0     C41283   0.173  10.256   6.039  0.4995 -0.8451  1.0170
  300MOL0     C41284   0.172  10.189   5.899 -0.4708  0.7550 -1.1930
  300MOL0     C41285   0.312  10.123   5.876  0.4778  0.2945 -0.9282
  300MOL0     O41286   0.334  10.093   5.739 -0.2285  0.2121  0.6423
  300MOL0     C41287   0.406  10.176   5.660 -0.6208 -0.4429 -0.5741
  300MOL0     C41288   0.450  10.302   5.709  0.1540  0.3274  0.2882
  300MOL0     C41289   0.511  10.392   5.621  0.4220 -0.6361  0.0691
  300MOL0     C41290   0.554  10.518   5.699  0.5227  0.0272  0.9658
  300MOL0     C41291   0.527  10.352   5.482  0.5938 -0.5005 -0.0391
  300MOL0     C41292   0.604  10.441   5.396 -0.4531  0.1669  0.2159
  300MOL0     O41293   0.583  10.576   5.384 -0.7160 -0.2945 -0.2783
  300MOL0     C41294   0.644  10.653   5.287 -1.0190  0.4823 -0.2861
  300MOL0     C41295   0.782  10.638   5.262 -0.2613 -0.8899  0.3217
  300MOL0     C41296   0.847  10.725   5.181  0.0487  0.4804  0.2735
  300MOL0     C41297   0.779  10.824   5.109 -0.0757 -0.9723  0.0583
  300MOL0     O41298   0.843  10.901   5.014  0.5351  0.2578 -0.4162
  300MOL0     C41299   0.990  10.933   5.025 -0.4944  0.2697  0.4843
  300MOL0     C41300   1.077  10.838   4.944 -0.0817  0.3159  0.1623
  300MOL0     C41301   1.044  10.838   4.798  0.4234  0.1275 -0.3533
  300MOL0     C41302   1.158  10.769   4.715  0.1800 -1.0827  0.0066
  300MOL0     C41303   1.119  10.782   4.564 -0.0335 -0.5857 -0.1873
  300MOL0     C41304   1.240  10.749   4.477  1.0479  1.0238 -0.0892
  300MOL0     C41305   1.276  10.594   4.481  0.8303  0.7879  1.0251
  300MOL0     C41306   1.354  10.555   4.357 -0.7693  0.0702 -0.1859
  300MOL0    Cl41307   1.525  10.524   4.390 -0.3556  0.3479  0.0758
  300MOL0     C41308   0.640  10.825   5.121 -0.4121 -0.1944  1.1115
  300MOL0     C41309   0.572  10.743   5.205  0.0001 -0.3132 -0.1873
  300MOL0     O41310   0.682  10.375   5.323 -0.2309 -0.7745 -0.3432
  300MOL0     C41311   0.487  10.225   5.450  0.7264 -0.3335  0.5818
  300MOL0     C41312   0.428  10.135   5.534  0.5408 -0.3069  0.4645
  300MOL0     N41313  -0.079  10.537   6.150  0.4437 -0.1463  0.3193
  300MOL0     N41314  -0.070  10.617   6.249 -0.2134 -0.7156  0.0479
  300MOL0     C41315   0.826  11.193   6.874  0.5653  0.4040  0.8366
  300MOL0     C41316   0.949  11.250   6.896 -0.3846 -0.0182  0.5434
  300MOL0     C41317   1.308  11.448   7.037  0.5882 -0.0167 -0.1812
  300MOL0     C41318   1.387  11.366   6.952 -0.1450 -0.1031 -0.5287
  300MOL0     C41319   1.524  11.381   6.942  0.6425  0.1523  0.2824
  300MOL0     C41320   1.582  11.499   6.996 -0.6001  0.4068 -0.7511
  300MOL0     O41321   1.715  11.531   6.968  0.6778  0.0132  0.1862
  300MOL0     C41322   1.805  11.496   7.081 -0.5778  0.1047 -0.0442
  300MOL0     C41323   1.931  11.419   7.036 -0.1001 -0.9409  0.1854
  300MOL0     C41324   2.043  11.525   7.013  0.3014 -0.3810 -0.4443
  300MOL0     C41325   2.007  11.620   6.897 -0.3313 -0.0701  0.6590
  300MOL0     C41326   2.110  11.718   6.867  0.0393 -0.5136  0.7964
  300MOL0     C41327   2.195  11.798   6.835 -0.3897  0.2097 -0.1255
  300MOL0     C41328   1.503  11.574   7.085 -0.5082 -0.2368 -0.2071
  300MOL0     C41329   1.366  11.564   7.093  0.4815  0.5358 -0.1482
  300MOL0     C41330   1.298  11.681   7.168  0.6493 -0.3054 -0.1151
  300MOL0     H41331   0.980  11.185   7.224  1.6910 -0.6976 -0.6888
  300MOL0     H41332   0.720  11.130   7.185 -1.1597  0.8620 -2.3289
  300MOL0     H41333   0.601  11.009   6.824 -0.5402 -1.8913  3.3006
  300MOL0     H41334   0.573  11.181   6.772 -1.2466 -0.1436 -0.6303
  300MOL0     H41335   0.394  11.007   6.946  0.0420 -0.9427 -0.2814
  300MOL0     H41336   0.364  11.180   6.880  1.0266  1.0083 -0.5131
  300MOL0     H41337   0.397  11.044   6.648 -1.6600 -0.2923 -0.1926
  300MOL0     H41338   0.375  10.906   6.749  0.0626 -0.1515  1.1073
  300MOL0     H41339   0.130  10.990   6.805  0.2932 -2.0593  0.3691
  300MOL0     H41340   0.166  11.105   6.663  2.2808 -2.8789 -4.5254
  300MOL0     H41341   0.205  10.802   6.682 -0.9492 -2.0573 -2.6929
  300MOL0     H41342   0.209  10.908   6.531 -0.5005  2.5158 -0.7334
  300MOL0     H41343  -0.031  10.784   6.672  0.8549  3.5964  2.7835
  300MOL0     H41344  -0.047  10.948   6.611  0.0454  0.7921  2.1518
  300MOL0     H41345   0.009  10.846   6.388 -3.6449  0.5404 -0.9402
  300MOL0     H41346  -0.136  10.776   6.468 -0.6559  0.0510  0.7451
  300MOL0     H41347   0.147  10.658   6.455  0.0773  2.1642 -0.8752
  300MOL0     H41348   0.009  10.588   6.545  2.1454  0.6322  0.5423
  300MOL0     H41349   0.138  10.384   6.338 -0.4729  0.8986 -0.3727
  300MOL0     H41350  -0.021  10.329   5.984 -0.3211  0.7026  1.2343
  300MOL0     H41351  -0.028  10.216   6.114 -1.6823  0.6590  0.4148
  300MOL0     H41352   0.237  10.344   6.031  2.2895 -2.2679 -4.7186
  300MOL0     H41353   0.203  10.189   6.121 -0.9133 -1.0501  1.3833
  300MOL0     H41354   0.104  10.103   5.892  0.4918 -0.4216  2.1563
  300MOL0     H41355   0.151  10.258   5.817  1.0134  0.5524 -1.7792
  300MOL0     H41356   0.393  10.182   5.919  0.7786  1.7127 -3.2623
  300MOL0     H41357   0.319  10.031   5.934  0.2471  0.5983 -0.4091
  300MOL0     H41358   0.439  10.337   5.811 -2.6188  0.1022  0.1455
  300MOL0     H41359   0.656  10.495   5.732  0.7687 -1.3898 -0.7062
  300MOL0     H41360   0.495  10.536   5.790 -1.3053 -1.5168  0.1553
  300MOL0     H41361   0.560  10.606   5.635 -1.1734 -0.2591  0.3672
  300MOL0     H41362   0.843  10.566   5.316  0.7727 -0.0602  0.2971
  300MOL0     H41363   0.954  10.717   5.164 -0.0680 -0.3109 -0.1067
  300MOL0     H41364   1.002  11.038   4.998  0.4941 -0.3864 -1.8432
  300MOL0     H41365   1.032  10.937   5.126 -2.1598 -1.6270  1.3247
  300MOL0     H41366   1.179  10.874   4.958  2.0064 -4.1753 -1.4792
  300MOL0     H41367   1.079  10.737   4.987 -3.0912  0.5504  1.0784
  300MOL0     H41368   1.043  10.942   4.762  0.2493 -1.3106 -5.0705
  300MOL0     H41369   0.955  10.782   4.772  2.1678 -3.3291  0.5781
  300MOL0     H41370   1.156  10.665   4.748  3.2064 -1.8144 -1.7506
  300MOL0     H41371   1.253  10.805   4.755  0.7292 -1.4316 -0.9575
  300MOL0     H41372   1.033  10.718   4.542  1.5654 -2.8272 -0.3591
  300MOL0     H41373   1.098  10.889   4.560  3.0068  0.1072 -0.1731
  300MOL0     H41374   1.329  10.808   4.499  1.3590  0.2238  0.8859
  300MOL0     H41375   1.210  10.766   4.373 -0.2135  0.0682  0.0825
  300MOL0     H41376   1.188  10.532   4.500 -0.1188  0.4103 -3.4578
  300MOL0     H41377   1.337  10.585   4.571  0.9553 -0.7721  0.8027
  300MOL0     H41378   1.338  10.615   4.267  0.7685 -2.1448 -2.0331
  300MOL0     H41379   1.316  10.467   4.305  1.2327  0.3551 -2.2342
  300MOL0     H41380   0.580  10.898   5.068  1.9371 -1.0055 -3.1362
  300MOL0     H41381   0.466  10.757   5.228 -0.3816 -0.5587 -1.6912
  300MOL0     H41382   0.499  10.196   5.346 -2.7449  1.9108 -0.6347
  300MOL0     H41383   0.407  10.034   5.501 -0.8302  0.5589 -1.4314
  300MOL0     H41384   0.773  11.203   6.779  1.7391 -0.6414  0.0379
  300MOL0     H41385   1.017  11.279   6.816 -2.9585  2.1015 -1.0420
  300MOL0     H41386   1.349  11.301   6.874  1.1270 -0.2116 -1.0897
  300MOL0     H41387   1.581  11.304   6.892 -1.7922 -2.9005  1.7914
  300MOL0     H41388   1.826  11.587   7.137 -2.2975  1.7917 -1.9402
  300MOL0     H41389   1.754  11.432   7.153 -2.4603  0.9207 -0.5684
  300MOL0     H41390   1.924  11.370   6.938  4.6315 -0.0465 -0.8499
  300MOL0     H41391   1.965  11.352   7.116 -1.7790 -0.2635  1.5210
  300MOL0     H41392   2.062  11.584   7.103 -0.1006 -1.8564  0.6526
  300MOL0     H41393   2.133  11.469   6.988  0.5105  0.7137 -2.3012
  300MOL0     H41394   1.931  11.686   6.941 -1.8897 -1.5500  0.3205
  300MOL0     H41395   1.976  11.555   6.815 -0.2495  0.0004  0.5727
  300MOL0     H41396   2.280  11.853   6.801 -0.8339 -0.2022 -2.0678
  300MOL0     H41397   1.549  11.654   7.141 -0.0255 -1.2050  0.8318
  300MOL0     H41398   1.358  11.772   7.169  2.7599 -1.6214  1.8182
  300MOL0     H41399   1.206  11.719   7.124  0.2589 -0.0953  0.8654
  300MOL0     H41400   1.277  11.644   7.269  1.5090 -2.8675 -0.7985
  301MOL0     O41401   6.688  10.722  11.516  0.1536  0.8260  0.5305
  301MOL0     C41402   6.700  10.599  11.496  0.3559  0.2598  0.4128
  301MOL0     O41403   6.618  10.498  11.542  0.1023 -0.4648 -0.3744
  301MOL0     C41404   6.490  10.518  11.581  1.6527  0.2429 -0.5114
  301MOL0     C41405   6.405  10.637  11.592  0.3913 -0.0595  0.5245
  301MOL0     C41406   6.282  10.631  11.655 -0.2265  0.7063  0.0604
  301MOL0     C41407   6.225  10.514  11.696  0.6146 -0.1469 -0.1400
  301MOL0     O41408   6.095  10.521  11.747 -0.0119 -1.0309 -0.5006
  301MOL0     C41409   5.995  10.422  11.729  0.0251  1.1134 -0.5078
  301MOL0     C41410   5.961  10.384  11.585  0.6747 -0.5301  0.2153
  301MOL0     C41411   5.907  10.500  11.502 -0.9631 -0.2630 -0.8197
  301MOL0     C41412   5.773  10.551  11.549  0.7423 -0.4902  0.9709
  301MOL0     C41413   5.678  10.443  11.576  0.8779  0.2748 -0.1258
  301MOL0     C41414   5.527  10.474  11.584 -0.0821  0.1349  0.5009
  301MOL0     C41415   5.492  10.575  11.692  0.0576  0.5411  0.5669
  301MOL0     C41416   5.546  10.554  11.830 -0.8204 -0.2033 -0.6459
  301MOL0     N41417   5.515  10.669  11.916  0.0709  0.2947  0.6166
  301MOL0     C41418   5.569  10.798  11.907 -0.3306 -0.1848  0.5188
  301MOL0     C41419   5.489  10.867  11.997  0.1742  0.2784 -0.8628
  301MOL0     C41420   5.521  11.007  12.044 -0.0226  0.1923  0.3656
  301MOL0     C41421   5.497  11.111  11.936 -0.6420 -0.3312  0.3168
  301MOL0     C41422   5.348  11.126  11.920  0.3056  0.8441 -0.0982
  301MOL0     C41423   5.310  11.243  11.830  0.2167 -0.2095  0.3815
  301MOL0     O41424   5.177  11.295  11.850  0.6079  0.3489 -0.7868
  301MOL0     C41425   5.116  11.375  11.749  0.4290  0.3670  0.2277
  301MOL0     C41426   5.198  11.444  11.654 -0.1686  0.1045  0.5039
  301MOL0     C41427   5.144  11.527  11.567  0.7267 -0.6802  0.2629
  301MOL0     C41428   5.229  11.615  11.482 -0.7825  0.2018  0.1529
  301MOL0     C41429   5.000  11.551  11.567 -0.4780  0.2883 -0.6253
  301MOL0     C41430   4.923  11.646  11.483  0.3423 -0.7125  0.7554
  301MOL0     O41431   4.991  11.701  11.373  0.1596  0.3131 -0.1573
  301MOL0     C41432   4.907  11.750  11.278 -0.8409  0.4472 -0.1017
  301MOL0     C41433   4.835  11.870  11.305 -0.7810  0.3702  0.2519
  301MOL0     C41434   4.770  11.934  11.204  0.0052 -0.2534  0.4574
  301MOL0     C41435   4.766  11.886  11.068 -0.7964 -0.2653 -0.2939
  301MOL0     O41436   4.709  11.934  10.949 -0.1533 -0.3117 -0.2924
  301MOL0     C41437   4.590  12.019  10.958  0.1161  0.8074  0.3710
  301MOL0     C41438   4.484  11.943  11.044  0.8838  0.8119  0.3296
  301MOL0     C41439   4.348  12.004  11.036  1.0333  0.2223 -0.2268
  301MOL0     C41440   4.254  11.932  11.142 -0.4675 -1.0791 -0.1766
  301MOL0     C41441   4.117  12.001  11.152  0.7485 -1.2511  0.2792
  301MOL0     C41442   4.011  11.932  11.228 -0.1751 -0.3149  0.3624
  301MOL0     C41443   3.897  12.034  11.257  0.8116  0.2699  0.2460
  301MOL0     C41444   3.783  11.960  11.321 -0.0954  0.3264  0.2119
  301MOL0    Cl41445   3.629  12.053  11.305 -0.4995 -0.4825 -0.3971
  301MOL0     C41446   4.837  11.772  11.042  0.3052 -0.5484 -0.3086
  301MOL0     C41447   4.906  11.695  11.146  0.9135  0.3102  1.2574
  301MOL0     O41448   4.803  11.632  11.500  0.6322 -0.8513  0.1193
  301MOL0     C41449   4.925  11.461  11.660  0.6683 -0.9331 -0.0804
  301MOL0     C41450   4.975  11.379  11.755 -0.4996  0.6859 -0.2300
  301MOL0     N41451   5.393  10.785  12.047 -0.3621 -0.2275  0.4857
  301MOL0     N41452   5.388  10.685  11.962 -0.5206  0.0074  0.1236
  301MOL0     C41453   6.301  10.401  11.692 -0.3479  0.0802 -0.5016
  301MOL0     C41454   6.433  10.405  11.636 -0.5283 -0.2388  0.0598
  301MOL0     C41455   6.817  10.548  11.408  0.5962  0.5090  0.2484
  301MOL0     C41456   6.799  10.421  11.348 -0.4388  0.4233 -0.8413
  301MOL0     C41457   6.885  10.371  11.257  0.7863 -0.0567 -1.1208
  301MOL0     C41458   7.006  10.444  11.230 -0.6433 -0.8115 -0.5998
  301MOL0     O41459   7.085  10.395  11.127 -0.1394  0.6502  0.2886
  301MOL0     C41460   7.212  10.448  11.086 -0.6669  0.3986  0.7633
  301MOL0     C41461   7.332  10.386  11.165  0.2141  0.1104 -0.2451
  301MOL0     C41462   7.355  10.237  11.117  0.8047  0.1658  1.8352
  301MOL0     C41463   7.444  10.150  11.211  0.3196  0.0368  0.9080
  301MOL0     C41464   7.555  10.226  11.263  0.7583  0.2243 -0.7224
  301MOL0     C41465   7.640  10.305  11.303 -0.2008  0.1924  0.0182
  301MOL0     C41466   7.027  10.566  11.291  0.0475  0.4145 -0.3904
  301MOL0     C41467   6.931  10.622  11.379 -0.9008  0.2456 -0.3342
  301MOL0     C41468   6.971  10.745  11.451 -0.0726  0.2477 -0.1679
  301MOL0     H41469   6.452  10.730  11.561  0.6652 -0.6723 -0.9780
  301MOL0     H41470   6.229  10.724  11.674 -1.7103 -0.0237 -0.3281
  301MOL0     H41471   5.903  10.450  11.781 -0.4148 -0.3411 -0.4425
  301MOL0     H41472   6.036  10.331  11.774  1.5506  1.7218 -0.6200
  301MOL0     H41473   6.058  10.364  11.539  1.3050  2.7708 -0.1344
  301MOL0     H41474   5.895  10.296  11.582  0.6374 -0.4977 -2.6824
  301MOL0     H41475   5.989  10.573  11.502  0.5761 -1.9216 -0.5186
  301MOL0     H41476   5.894  10.485  11.395 -0.2022  0.1835 -0.9801
  301MOL0     H41477   5.797  10.613  11.636  1.7801  3.4410 -1.7955
  301MOL0     H41478   5.740  10.610  11.463 -0.8716 -0.1371  1.7990
  301MOL0     H41479   5.703  10.389  11.668 -0.1339  1.6012  0.9723
  301MOL0     H41480   5.685  10.376  11.490  1.8048  0.2826 -0.0664
  301MOL0     H41481   5.493  10.508  11.485 -0.7108 -3.0812 -0.5380
  301MOL0     H41482   5.455  10.393  11.603 -2.1455  0.7176 -3.5119
  301MOL0     H41483   5.384  10.594  11.693 -0.1559  0.0413  4.6625
  301MOL0     H41484   5.531  10.672  11.661  2.6670 -1.1036 -1.7903
  301MOL0     H41485   5.497  10.466  11.873 -0.4633 -1.1848 -2.1629
  301MOL0     H41486   5.655  10.551  11.826 -0.8274  0.8264 -2.8594
  301MOL0     H41487   5.662  10.821  11.856 -1.0102  0.5587 -0.4261
  301MOL0     H41488   5.628  11.009  12.068 -0.7340  0.7002  4.1053
  301MOL0     H41489   5.467  11.035  12.135 -1.2314  0.9880 -0.5533
  301MOL0     H41490   5.527  11.212  11.964 -0.9707  1.1990 -4.0351
  301MOL0     H41491   5.552  11.086  11.844  0.1686 -0.5472  0.8492
  301MOL0     H41492   5.294  11.039  11.883 -3.9666  2.8994  0.7127
  301MOL0     H41493   5.304  11.152  12.016  1.3400  0.4273  0.5080
  301MOL0     H41494   5.378  11.325  11.853  3.4094 -1.5595 -3.2466
  301MOL0     H41495   5.335  11.230  11.724 -0.0908 -0.4416  0.3357
  301MOL0     H41496   5.305  11.435  11.666 -0.1106  0.3331  0.1922
  301MOL0     H41497   5.215  11.720  11.510  1.7070  0.8462 -0.7203
  301MOL0     H41498   5.211  11.600  11.375 -0.4982  1.8175 -0.1480
  301MOL0     H41499   5.336  11.594  11.493 -0.2863  2.7078  0.9343
  301MOL0     H41500   4.818  11.913  11.403  1.6055 -1.9332  1.7987
  301MOL0     H41501   4.723  12.031  11.217 -0.5227 -0.0269 -2.4714
  301MOL0     H41502   4.609  12.121  10.992  3.2168 -0.1106  1.7548
  301MOL0     H41503   4.552  12.026  10.855 -1.9784 -4.6634  0.4472
  301MOL0     H41504   4.474  11.842  11.003 -0.0729 -1.3508  5.1564
  301MOL0     H41505   4.512  11.935  11.150  1.0018  1.1134  0.3226
  301MOL0     H41506   4.312  11.992  10.934  2.2450  3.7513 -1.2269
  301MOL0     H41507   4.359  12.112  11.050  1.0451 -0.0266  2.0132
  301MOL0     H41508   4.298  11.923  11.241 -1.9285 -3.0069  0.3601
  301MOL0     H41509   4.243  11.831  11.102 -0.7712 -0.0483 -2.9189
  301MOL0     H41510   4.131  12.105  11.185 -2.0364 -0.5918 -0.2865
  301MOL0     H41511   4.070  12.015  11.054 -1.4773  0.0582  1.4453
  301MOL0     H41512   4.050  11.887  11.320  0.7795 -0.6507 -0.1906
  301MOL0     H41513   3.963  11.855  11.168 -2.3330  1.6385 -0.5784
  301MOL0     H41514   3.863  12.085  11.167 -1.4827  0.6771  1.2843
  301MOL0     H41515   3.927  12.114  11.326 -0.7992  1.8754 -0.8381
  301MOL0     H41516   3.796  11.946  11.429 -0.4420  0.0119  0.2121
  301MOL0     H41517   3.769  11.866  11.267 -0.0256  0.0080  0.7378
  301MOL0     H41518   4.837  11.728  10.943  2.2468 -2.9637  0.6234
  301MOL0     H41519   4.943  11.593  11.143 -1.1318 -0.4532  0.2620
  301MOL0     H41520   4.818  11.475  11.650  0.6527 -0.6747  0.4272
  301MOL0     H41521   4.917  11.324  11.829 -0.0136 -0.3328 -0.5823
  301MOL0     H41522   6.243  10.309  11.699 -1.2839  0.7745  1.5835
  301MOL0     H41523   6.499  10.320  11.621 -1.0272 -0.8054  1.0394
  301MOL0     H41524   6.711  10.362  11.373 -0.0534  0.8026  1.7171
  301MOL0     H41525   6.859  10.276  11.211  1.7261 -0.1439 -1.4856
  301MOL0     H41526   7.229  10.440  10.978 -0.3409 -4.5353  0.9411
  301MOL0     H41527   7.202  10.555  11.108 -5.1084 -0.3955  3.9648
  301MOL0     H41528   7.298  10.387  11.269 -1.9027 -3.1192 -0.7513
  301MOL0     H41529   7.419  10.450  11.150 -2.4450  4.0427 -0.5641
  301MOL0     H41530   7.255  10.194  11.118 -0.3288  2.5616  4.3203
  301MOL0     H41531   7.398  10.231  11.016 -0.3161 -0.2825  1.3692
  301MOL0     H41532   7.485  10.067  11.153  0.4588 -1.5482  3.1586
  301MOL0     H41533   7.388  10.107  11.295 -3.1980  1.9482 -0.2678
  301MOL0     H41534   7.705  10.381  11.340 -1.3479  0.8987  0.5933
  301MOL0     H41535   7.124  10.613  11.278 -0.7484  2.0820 -0.7119
  301MOL0     H41536   7.071  10.727  11.494 -0.1297  0.8011  0.2074
  301MOL0     H41537   6.976  10.835  11.389 -3.4137  2.0455  1.8499
  301MOL0     H41538   6.916  10.774  11.541  2.6160 -1.3766  2.1800
  302MOL0     O41539   3.696  10.608   2.602 -0.5258  0.7268  0.2356
  302MOL0     C41540   3.690  10.720   2.563 -1.1903 -1.0443 -0.6487
  302MOL0     O41541   3.782  10.811   2.583  0.5544  0.0131 -0.1979
  302MOL0     C41542   3.896  10.779   2.636 -0.6484  0.5656 -1.3101
  302MOL0     C41543   3.901  10.756   2.772 -0.0216 -0.0051  0.0163
  302MOL0     C41544   4.029  10.716   2.818  0.2111 -0.0978 -0.6573
  302MOL0     C41545   4.137  10.692   2.729  0.1591 -0.3400 -0.2185
  302MOL0     O41546   4.240  10.623   2.769 -0.6818  0.3191 -0.2350
  302MOL0     C41547   4.339  10.702   2.836 -0.6770 -0.9299 -0.5229
  302MOL0     C41548   4.469  10.624   2.867 -0.8442 -0.7462  0.3027
  302MOL0     C41549   4.422  10.518   2.969 -0.3436  0.5753  0.2726
  302MOL0     C41550   4.544  10.442   3.007  0.5927  0.0696 -0.4800
  302MOL0     C41551   4.516  10.336   3.121 -0.1284 -0.0055 -0.2778
  302MOL0     C41552   4.651  10.290   3.180  0.3513  0.0125  0.3540
  302MOL0     C41553   4.646  10.232   3.323  0.0892 -0.2240  0.9455
  302MOL0     C41554   4.781  10.263   3.385  1.0197  1.7198  0.5815
  302MOL0     N41555   4.757  10.254   3.533 -1.2872 -0.9848  0.7531
  302MOL0     C41556   4.738  10.139   3.602  0.3957  0.0213 -0.5537
  302MOL0     C41557   4.702  10.186   3.734 -0.0776 -0.0484 -0.8290
  302MOL0     C41558   4.656  10.111   3.857  0.2997 -0.0545 -0.4300
  302MOL0     C41559   4.529  10.027   3.823 -0.4364 -0.3953 -0.0525
  302MOL0     C41560   4.570   9.881   3.768  0.4551 -0.4766  0.2404
  302MOL0     C41561   4.459   9.769   3.778 -0.6417  0.7925  0.9195
  302MOL0     O41562   4.402   9.754   3.912  0.2876 -1.1770 -1.1995
  302MOL0     C41563   4.456   9.695   4.030 -0.5517 -0.4486 -0.3497
  302MOL0     C41564   4.431   9.740   4.164 -0.0449 -0.9398 -0.0219
  302MOL0     C41565   4.473   9.666   4.275  0.3561  0.0390 -0.3492
  302MOL0     C41566   4.416   9.696   4.410  0.2580 -0.0387  0.2665
  302MOL0     C41567   4.563   9.556   4.249  0.3195 -0.3542 -0.3974
  302MOL0     C41568   4.609   9.474   4.362  0.7007 -0.5509 -0.2231
  302MOL0     O41569   4.600   9.334   4.349  0.1108 -0.5928 -0.8086
  302MOL0     C41570   4.619   9.257   4.455 -0.7312 -0.8288  0.6091
  302MOL0     C41571   4.564   9.280   4.582 -0.0529 -0.1032 -1.0456
  302MOL0     C41572   4.581   9.173   4.674  0.4527 -0.8288  0.0108
  302MOL0     C41573   4.632   9.054   4.636  0.1060  0.8416 -0.0448
  302MOL0     O41574   4.657   8.947   4.727  0.1896  0.8746 -0.6750
  302MOL0     C41575   4.740   8.831   4.700  0.4365 -0.2414  0.0157
  302MOL0     C41576   4.729   8.735   4.822  0.0471  0.8142  0.6473
  302MOL0     C41577   4.589   8.675   4.833  0.0807 -0.4822 -0.3151
  302MOL0     C41578   4.592   8.569   4.936  0.2635  0.1117  0.6105
  302MOL0     C41579   4.454   8.549   4.989 -0.8963  0.8069  0.7564
  302MOL0     C41580   4.453   8.491   5.125 -0.6363  0.9266  1.3191
  302MOL0     C41581   4.456   8.333   5.121 -0.3114  0.6826  0.9033
  302MOL0     C41582   4.414   8.277   5.255 -0.4381  0.4535 -0.4667
  302MOL0    Cl41583   4.402   8.101   5.228  0.1784 -0.3025  0.1907
  302MOL0     C41584   4.681   9.032   4.506 -0.8035 -0.8424  0.2718
  302MOL0     C41585   4.674   9.139   4.420  0.3518  0.0759  0.3851
  302MOL0     O41586   4.674   9.533   4.442  0.9106 -0.5379 -0.5280
  302MOL0     C41587   4.601   9.516   4.124 -0.7324 -0.0228  0.4827
  302MOL0     C41588   4.555   9.587   4.014  0.6556 -0.1007 -0.7034
  302MOL0     N41589   4.710  10.322   3.736  0.9446  0.2496  0.8697
  302MOL0     N41590   4.744  10.362   3.619  0.2828 -0.8410 -0.0387
  302MOL0     C41591   4.130  10.739   2.603  1.0276  0.9440 -0.1344
  302MOL0     C41592   4.013  10.784   2.559  0.7092 -0.4438 -0.4544
  302MOL0     C41593   3.576  10.771   2.488 -0.6540  0.2095  0.2286
  302MOL0     C41594   3.600  10.857   2.378  0.0643  0.3540  0.7744
  302MOL0     C41595   3.501  10.906   2.300  0.5981 -0.7102 -0.0897
  302MOL0     C41596   3.367  10.861   2.326  0.1687 -0.3999  0.3104
  302MOL0     O41597   3.262  10.891   2.242  0.2503  1.2077  0.0912
  302MOL0     C41598   3.259  11.008   2.163  0.5387 -0.0549  0.1698
  302MOL0     C41599   3.280  11.138   2.234 -0.0895 -0.1172 -0.5971
  302MOL0     C41600   3.252  11.251   2.141 -0.2653  0.0771 -0.2988
  302MOL0     C41601   3.114  11.254   2.077  0.5410 -0.9006  0.2761
  302MOL0     C41602   3.006  11.248   2.178 -0.1007 -0.0161  0.2725
  302MOL0     C41603   2.930  11.246   2.268 -0.5399  0.4992 -1.1002
  302MOL0     C41604   3.343  10.767   2.426  0.1720  0.1134  0.0234
  302MOL0     C41605   3.445  10.731   2.510  0.7990 -0.8669  0.0831
  302MOL0     C41606   3.405  10.636   2.613 -0.6404 -0.1081 -0.5044
  302MOL0     H41607   3.807  10.767   2.824 -0.1238 -0.4948 -0.0620
  302MOL0     H41608   4.036  10.697   2.924  0.7501  0.1678 -0.6422
  302MOL0     H41609   4.293  10.750   2.922  1.3637  3.7253 -1.6967
  302MOL0     H41610   4.366  10.777   2.761 -1.2342  1.4233  1.5088
  302MOL0     H41611   4.510  10.591   2.771 -0.1915  1.5217 -0.2575
  302MOL0     H41612   4.550  10.680   2.914 -1.1810 -0.3586  0.4280
  302MOL0     H41613   4.388  10.561   3.063  0.8351 -0.0689  1.0185
  302MOL0     H41614   4.356  10.441   2.929 -0.8763  0.6820  0.9364
  302MOL0     H41615   4.590  10.405   2.915 -1.2313 -1.0051 -1.0107
  302MOL0     H41616   4.610  10.512   3.059  1.1834 -0.3723 -0.6272
  302MOL0     H41617   4.456  10.254   3.082  0.4688 -0.3269 -0.5368
  302MOL0     H41618   4.459  10.396   3.192  0.7500  2.6930 -1.6757
  302MOL0     H41619   4.708  10.217   3.123 -2.2796 -2.3832  0.5678
  302MOL0     H41620   4.714  10.379   3.172 -1.0729  1.0492  0.1286
  302MOL0     H41621   4.628  10.125   3.312 -1.3333  0.0372  0.4811
  302MOL0     H41622   4.572  10.286   3.384  0.9493  3.7623 -1.1671
  302MOL0     H41623   4.852  10.188   3.351  1.7282  2.1337  1.1364
  302MOL0     H41624   4.818  10.365   3.369  4.1785  0.5578 -0.1246
  302MOL0     H41625   4.746  10.038   3.564 -1.3482 -0.1144 -0.6418
  302MOL0     H41626   4.626  10.191   3.925  1.2688  0.5351 -0.6685
  302MOL0     H41627   4.745  10.059   3.896  1.7244  2.0273 -0.7362
  302MOL0     H41628   4.477  10.014   3.918  2.4326  2.4858  2.1246
  302MOL0     H41629   4.455  10.077   3.759 -2.0937  1.1403  2.8405
  302MOL0     H41630   4.594   9.897   3.663 -0.4933 -3.2304 -0.4815
  302MOL0     H41631   4.661   9.851   3.821  1.9224 -0.5075 -2.1409
  302MOL0     H41632   4.380   9.796   3.708  0.3136 -2.0007 -1.4361
  302MOL0     H41633   4.506   9.674   3.751 -4.7607 -1.6065  1.3122
  302MOL0     H41634   4.367   9.823   4.193  0.0760 -1.1124  0.7497
  302MOL0     H41635   4.365   9.606   4.445  1.0024 -0.1764  1.0160
  302MOL0     H41636   4.352   9.784   4.419 -1.0454 -1.0679  1.6456
  302MOL0     H41637   4.496   9.701   4.485 -0.4926 -3.1395  1.4264
  302MOL0     H41638   4.514   9.370   4.617 -0.4225 -0.6734 -0.0488
  302MOL0     H41639   4.537   9.191   4.772  1.3279 -1.8029  0.6150
  302MOL0     H41640   4.699   8.786   4.609  1.1633  3.2061 -2.2086
  302MOL0     H41641   4.842   8.870   4.689 -1.0838  3.7420 -1.7699
  302MOL0     H41642   4.797   8.651   4.806  0.1742  0.8239  1.1097
  302MOL0     H41643   4.761   8.780   4.917  1.0203 -2.3231  1.9313
  302MOL0     H41644   4.524   8.646   4.750  0.9956  3.1223 -2.4788
  302MOL0     H41645   4.533   8.759   4.876  0.0573 -1.1747  1.0889
  302MOL0     H41646   4.665   8.584   5.015 -1.2799 -3.7700  3.0751
  302MOL0     H41647   4.627   8.472   4.899 -1.5038 -1.6664  3.2642
  302MOL0     H41648   4.404   8.646   4.997 -3.4136 -0.1788 -1.4490
  302MOL0     H41649   4.392   8.491   4.920 -0.2727  2.7409 -1.5718
  302MOL0     H41650   4.361   8.535   5.166 -0.8008  2.6706 -0.7576
  302MOL0     H41651   4.540   8.530   5.178 -0.9366  0.5445  2.1107
  302MOL0     H41652   4.556   8.295   5.098 -0.4550  1.0740 -0.4337
  302MOL0     H41653   4.389   8.309   5.039  1.2475 -1.2726  0.1294
  302MOL0     H41654   4.321   8.313   5.301 -0.6777  0.4208 -0.9262
  302MOL0     H41655   4.490   8.291   5.333 -2.8692  0.2278  2.0924
  302MOL0     H41656   4.733   8.940   4.478 -1.9412 -1.4397  0.0524
  302MOL0     H41657   4.712   9.128   4.319 -0.8755  1.8434 -0.3268
  302MOL0     H41658   4.654   9.422   4.116 -1.1648 -0.2175 -0.1583
  302MOL0     H41659   4.589   9.560   3.914 -0.8181  2.6681 -2.0702
  302MOL0     H41660   4.215  10.726   2.537 -0.3990 -0.0208 -1.8614
  302MOL0     H41661   4.015  10.810   2.453 -0.5572  1.0102 -0.1671
  302MOL0     H41662   3.702  10.884   2.352  1.0361 -3.0030  0.5857
  302MOL0     H41663   3.519  10.971   2.215 -2.0491 -0.4610 -0.5454
  302MOL0     H41664   3.316  10.998   2.070 -1.4295  2.3371 -1.4300
  302MOL0     H41665   3.156  11.014   2.125 -0.3733  0.2106  2.5353
  302MOL0     H41666   3.376  11.129   2.285 -2.3427 -3.1882  3.7319
  302MOL0     H41667   3.214  11.144   2.321  1.7513 -1.5829  0.9907
  302MOL0     H41668   3.269  11.342   2.199  2.5572 -1.6063  1.8416
  302MOL0     H41669   3.330  11.242   2.065  2.0074 -2.6969  2.0812
  302MOL0     H41670   3.097  11.170   2.009  2.5167 -1.0808 -0.0710
  302MOL0     H41671   3.106  11.345   2.018  1.2834 -1.3597 -0.5589
  302MOL0     H41672   2.853  11.258   2.342 -0.0948 -0.3281 -0.4836
  302MOL0     H41673   3.247  10.717   2.421 -0.2090  0.8852 -4.1345
  302MOL0     H41674   3.453  10.539   2.599 -1.0867 -0.3862 -0.1468
  302MOL0     H41675   3.438  10.675   2.710  1.0846 -2.1234 -0.1979
  302MOL0     H41676   3.301  10.603   2.614 -0.1890 -1.7506 -2.1698
  303MOL0     O41677   1.954   3.867   6.146 -0.0535 -0.9640  0.8627
  303MOL0     C41678   1.852   3.805   6.172 -0.1069 -0.8945 -1.5602
  303MOL0     O41679   1.822   3.783   6.300 -0.3441 -1.0263 -0.8250
  303MOL0     C41680   1.909   3.812   6.401  0.0249  0.7893 -0.3653
  303MOL0     C41681   1.926   3.936   6.452  1.0101  0.0965 -0.6299
  303MOL0     C41682   1.996   3.962   6.572 -0.2310 -0.8915  0.4976
  303MOL0     C41683   2.067   3.862   6.634 -0.6857 -0.5878  0.6531
  303MOL0     O41684   2.143   3.879   6.744 -0.8467  0.1349 -0.5048
  303MOL0     C41685   2.148   4.001   6.816  0.5019  0.2231  0.2690
  303MOL0     C41686   2.164   3.974   6.970 -0.6520 -0.1251 -0.0589
  303MOL0     C41687   2.184   4.119   7.028 -0.4296 -0.0998 -0.5880
  303MOL0     C41688   2.166   4.124   7.181 -0.0823  0.5859 -0.1842
  303MOL0     C41689   2.171   4.265   7.244 -1.3437  1.8854 -0.1224
  303MOL0     C41690   2.143   4.253   7.395 -0.7983 -0.5064  0.0983
  303MOL0     C41691   2.171   4.386   7.469 -0.2332 -1.0883 -0.0882
  303MOL0     C41692   2.321   4.388   7.517 -0.7233  0.6376 -0.1395
  303MOL0     N41693   2.314   4.308   7.644 -0.7133 -1.6047 -0.1990
  303MOL0     C41694   2.271   4.362   7.767  0.2022 -0.4477 -0.1617
  303MOL0     C41695   2.296   4.270   7.861 -0.0038 -0.7669 -0.0448
  303MOL0     C41696   2.292   4.278   8.016 -0.7529  0.1540 -0.3570
  303MOL0     C41697   2.182   4.182   8.068  0.0413 -0.2387 -0.2510
  303MOL0     C41698   2.181   4.194   8.226 -0.2543 -0.8576  1.1703
  303MOL0     C41699   2.068   4.279   8.280  0.1263  0.4218 -0.7736
  303MOL0     O41700   1.934   4.245   8.218 -0.1996 -0.6831 -0.3871
  303MOL0     C41701   1.867   4.133   8.262 -0.3223 -0.1497 -0.0840
  303MOL0     C41702   1.916   4.054   8.367 -0.4783  0.6335  0.9255
  303MOL0     C41703   1.840   3.952   8.424  1.3162  0.3888  0.0545
  303MOL0     C41704   1.909   3.886   8.544 -0.0503  0.2085 -0.3910
  303MOL0     C41705   1.707   3.924   8.376 -0.6910  1.3833 -0.6472
  303MOL0     C41706   1.614   3.828   8.445  0.2352  0.0242 -0.1340
  303MOL0     O41707   1.494   3.818   8.377  0.4918 -0.2021 -0.2039
  303MOL0     C41708   1.371   3.786   8.441  0.2408  0.2288  0.4897
  303MOL0     C41709   1.291   3.696   8.376 -0.4839  0.3419 -0.3267
  303MOL0     C41710   1.180   3.645   8.450  0.9581  0.2958  0.0829
  303MOL0     C41711   1.130   3.704   8.566 -0.2384  0.6757  0.9645
  303MOL0     O41712   1.004   3.659   8.600  0.8151  0.1242  0.3956
  303MOL0     C41713   0.953   3.700   8.735  1.2087  0.0156  0.4534
  303MOL0     C41714   0.815   3.640   8.748 -0.0441 -0.5697 -0.6973
  303MOL0     C41715   0.732   3.699   8.856  0.5889  0.0545  0.0145
  303MOL0     C41716   0.585   3.679   8.821 -0.3033  0.0100  0.8625
  303MOL0     C41717   0.494   3.732   8.934  0.0390  0.0299  1.2391
  303MOL0     C41718   0.454   3.875   8.922  0.9222 -0.5513  1.1600
  303MOL0     C41719   0.315   3.900   8.974 -0.7028 -0.8532  0.9084
  303MOL0     C41720   0.290   4.036   9.023 -1.0229 -0.2313  0.2405
  303MOL0    Cl41721   0.309   4.161   8.898  0.1471 -0.1089 -0.2070
  303MOL0     C41722   1.204   3.808   8.631 -0.1208 -0.2209  0.1229
  303MOL0     C41723   1.331   3.847   8.567  0.4621  0.4884  0.8405
  303MOL0     O41724   1.634   3.795   8.563  0.3611 -0.3436 -0.2895
  303MOL0     C41725   1.663   3.999   8.262 -0.2641 -0.3406 -0.8355
  303MOL0     C41726   1.745   4.092   8.205 -0.1726  0.5664 -0.4489
  303MOL0     N41727   2.358   4.165   7.796  0.1878 -0.3560  0.6923
  303MOL0     N41728   2.381   4.193   7.677  0.2919  0.0061  0.7307
  303MOL0     C41729   2.066   3.734   6.583 -0.5588 -0.8417  0.2533
  303MOL0     C41730   1.982   3.712   6.467  0.0688  0.2478 -0.4442
  303MOL0     C41731   1.757   3.773   6.063 -0.5722 -0.3732 -0.1587
  303MOL0     C41732   1.796   3.798   5.926 -0.0539 -0.1219 -0.5461
  303MOL0     C41733   1.716   3.752   5.821  0.1529 -0.3046 -0.2780
  303MOL0     C41734   1.591   3.700   5.844  0.9976  0.6816 -0.9078
  303MOL0     O41735   1.501   3.695   5.739 -0.5012 -0.2913 -0.4382
  303MOL0     C41736   1.437   3.820   5.725  0.1562 -0.6792  0.7371
  303MOL0     C41737   1.354   3.812   5.592  0.2461 -0.9374  0.9665
  303MOL0     C41738   1.275   3.948   5.575 -0.6512  0.0022  0.3488
  303MOL0     C41739   1.165   3.921   5.472 -0.4225  0.3967 -0.0725
  303MOL0     C41740   1.071   4.026   5.448 -0.2496 -1.3444  0.0376
  303MOL0     C41741   0.994   4.124   5.440  0.2531  0.0151 -0.0573
  303MOL0     C41742   1.548   3.677   5.974 -0.6364  0.7688 -1.0104
  303MOL0     C41743   1.632   3.709   6.082  0.9695 -0.7508  0.2433
  303MOL0     C41744   1.581   3.685   6.218  0.3061 -0.3843 -0.1332
  303MOL0     H41745   1.876   4.026   6.416  1.8671  1.1701  0.7202
  303MOL0     H41746   2.002   4.064   6.607 -1.1451 -0.6160 -0.1054
  303MOL0     H41747   2.067   4.073   6.804  0.3903  0.5630  2.5276
  303MOL0     H41748   2.235   4.051   6.772 -0.1451 -0.9155 -2.5377
  303MOL0     H41749   2.069   3.936   7.009  0.4480 -1.1474  1.7182
  303MOL0     H41750   2.247   3.910   7.001 -0.6549  0.3444  0.9774
  303MOL0     H41751   2.282   4.157   6.999 -1.7253  3.2764 -0.9509
  303MOL0     H41752   2.116   4.194   6.988  2.0784  0.7040 -3.8044
  303MOL0     H41753   2.062   4.094   7.196  0.6800 -1.5540  1.3354
  303MOL0     H41754   2.234   4.050   7.225 -2.4988 -2.0938 -0.6144
  303MOL0     H41755   2.099   4.327   7.191  0.2257  1.1379 -3.3352
  303MOL0     H41756   2.275   4.296   7.229 -1.1827  1.8634  0.8498
  303MOL0     H41757   2.034   4.240   7.405 -1.3048  2.1657 -1.0630
  303MOL0     H41758   2.188   4.163   7.438 -1.6602 -0.3778  1.3149
  303MOL0     H41759   2.092   4.402   7.542  1.0161 -0.9081  1.2758
  303MOL0     H41760   2.160   4.460   7.389  0.7245  1.0110  1.6249
  303MOL0     H41761   2.396   4.351   7.446 -0.0634  0.4690  0.6432
  303MOL0     H41762   2.340   4.493   7.542 -4.7230  2.4652 -3.4025
  303MOL0     H41763   2.231   4.462   7.781 -2.3416 -1.6481  2.0516
  303MOL0     H41764   2.289   4.379   8.058  0.3874  0.4613 -0.9587
  303MOL0     H41765   2.381   4.241   8.068  1.3819  1.4499 -2.8471
  303MOL0     H41766   2.085   4.216   8.030  0.4128 -0.6494 -1.6136
  303MOL0     H41767   2.196   4.077   8.041 -0.1213  0.2035 -2.1504
  303MOL0     H41768   2.173   4.092   8.264 -2.0794 -2.5474 -3.0917
  303MOL0     H41769   2.267   4.240   8.276 -2.9447  2.6178  3.1111
  303MOL0     H41770   2.072   4.272   8.389  0.0591  1.8533 -0.6576
  303MOL0     H41771   2.098   4.381   8.254  1.7003  0.5421  1.2558
  303MOL0     H41772   2.011   4.084   8.411 -0.5423  1.3533  0.5763
  303MOL0     H41773   1.877   3.784   8.566 -0.8531  0.9933  2.4934
  303MOL0     H41774   1.880   3.947   8.630  2.6643  0.3809  0.4890
  303MOL0     H41775   2.018   3.901   8.543 -0.0667  0.9207  2.0912
  303MOL0     H41776   1.329   3.665   8.279  0.1914  1.1640 -0.3356
  303MOL0     H41777   1.127   3.569   8.393  2.1276  0.1333 -0.8289
  303MOL0     H41778   1.016   3.665   8.817  0.2750 -0.3466  1.0196
  303MOL0     H41779   0.938   3.808   8.721  0.2345 -0.4514 -2.9992
  303MOL0     H41780   0.762   3.660   8.655 -0.2241 -0.4481 -0.5698
  303MOL0     H41781   0.829   3.538   8.784  0.4975  1.1483  4.9639
  303MOL0     H41782   0.760   3.803   8.841  0.1685 -0.0696 -1.9282
  303MOL0     H41783   0.756   3.662   8.956  4.0044 -2.6145 -1.5328
  303MOL0     H41784   0.581   3.570   8.820 -1.8429  0.0085  2.6459
  303MOL0     H41785   0.553   3.715   8.723  1.4091  3.1199  1.2994
  303MOL0     H41786   0.401   3.675   8.928 -1.8942  3.0888 -1.8502
  303MOL0     H41787   0.536   3.714   9.033  0.7040 -0.5294  0.8581
  303MOL0     H41788   0.456   3.895   8.814  1.8332  0.0129  1.2788
  303MOL0     H41789   0.538   3.937   8.953  1.9898  1.7033 -4.8918
  303MOL0     H41790   0.287   3.832   9.055 -3.1529 -1.1931 -0.1503
  303MOL0     H41791   0.240   3.881   8.897  0.8709  0.6150 -1.0963
  303MOL0     H41792   0.366   4.064   9.096 -1.2544 -0.5897  0.6232
  303MOL0     H41793   0.191   4.036   9.071  0.1177 -4.1418  3.0115
  303MOL0     H41794   1.167   3.860   8.718  0.1267  0.8845 -0.4176
  303MOL0     H41795   1.396   3.919   8.617 -1.3598  1.9766  1.1948
  303MOL0     H41796   1.567   3.977   8.218 -0.8536 -0.9495  0.6657
  303MOL0     H41797   1.700   4.137   8.118 -0.7876  1.0455  0.1128
  303MOL0     H41798   2.117   3.648   6.625  0.9999  0.2807  0.7554
  303MOL0     H41799   1.967   3.607   6.444  1.4065 -0.5464  1.8968
  303MOL0     H41800   1.888   3.855   5.912 -0.8882  1.2530 -0.6668
  303MOL0     H41801   1.734   3.784   5.719 -0.6979  3.2264  0.5604
  303MOL0     H41802   1.363   3.846   5.801  0.9394  1.4069  0.8301
  303MOL0     H41803   1.499   3.909   5.713 -2.3630  1.0461 -0.4410
  303MOL0     H41804   1.287   3.726   5.601  0.2643 -0.7326  3.9990
  303MOL0     H41805   1.434   3.786   5.522  1.2383 -0.4639  1.9006
  303MOL0     H41806   1.236   3.983   5.671 -1.6991  1.1957 -0.4858
  303MOL0     H41807   1.342   4.028   5.541 -1.4216  1.8728  2.8994
  303MOL0     H41808   1.111   3.828   5.491 -0.2501  0.3702  0.2922
  303MOL0     H41809   1.208   3.892   5.376 -1.8122 -1.9604 -0.0590
  303MOL0     H41810   0.922   4.203   5.440 -0.0818 -0.2623  1.0486
  303MOL0     H41811   1.448   3.640   5.993  0.0853 -0.7397  0.0811
  303MOL0     H41812   1.578   3.776   6.278 -1.0865  1.5401 -2.9016
  303MOL0     H41813   1.474   3.663   6.217 -0.0920  1.3969  0.2596
  303MOL0     H41814   1.625   3.598   6.267 -1.4025 -0.7661  0.7837
  304MOL0     O41815   2.504   9.989   0.082 -0.2991 -0.3014 -0.7380
  304MOL0     C41816   2.495  10.045   0.193  0.5305 -0.5437  0.3635
  304MOL0     O41817   2.450   9.986   0.308  0.0594  0.3068  0.3860
  304MOL0     C41818   2.395   9.865   0.317 -0.2145 -0.3686  0.5549
  304MOL0     C41819   2.266   9.858   0.359 -1.1105  0.3958  0.1948
  304MOL0     C41820   2.180   9.745   0.376 -0.0109 -1.0602 -0.2345
  304MOL0     C41821   2.230   9.624   0.338 -0.2488 -0.5434  0.7941
  304MOL0     O41822   2.167   9.498   0.343  0.3853 -0.0641  0.6731
  304MOL0     C41823   2.041   9.492   0.421 -0.8693 -0.3368 -0.6165
  304MOL0     C41824   2.010   9.340   0.441 -0.9004 -0.8593 -0.4085
  304MOL0     C41825   1.984   9.286   0.306  0.3388  0.2753 -0.4994
  304MOL0     C41826   1.989   9.135   0.275 -1.1367 -0.0926  0.5754
  304MOL0     C41827   1.922   9.054   0.387 -0.2087  0.1327  0.2700
  304MOL0     C41828   1.926   8.904   0.343 -0.2255 -0.7467  0.3673
  304MOL0     C41829   1.880   8.809   0.453 -1.0946  0.8637  0.0301
  304MOL0     C41830   1.734   8.795   0.463 -0.5991 -0.3961  0.0276
  304MOL0     N41831   1.669   8.716   0.356 -0.5541 -0.3103 -0.0977
  304MOL0     C41832   1.676   8.584   0.338  1.1416  0.8211 -0.2138
  304MOL0     C41833   1.602   8.565   0.222  0.0643  1.1145 -0.8194
  304MOL0     C41834   1.579   8.430   0.163  0.1981  0.0276  0.4123
  304MOL0     C41835   1.439   8.408   0.104 -0.7107  0.3209  0.1028
  304MOL0     C41836   1.395   8.267   0.100  0.1009  0.1336 -1.0178
  304MOL0     C41837   1.410   8.197  -0.038 -0.0791  0.1047  0.2507
  304MOL0     O41838   1.448   8.064  -0.022 -0.5044 -0.1720 -0.0230
  304MOL0     C41839   1.579   8.030  -0.004  0.4577 -0.0189 -0.1264
  304MOL0     C41840   1.608   7.894   0.032 -1.1088  0.4997  1.0213
  304MOL0     C41841   1.732   7.846   0.049 -0.8463  0.5988 -0.6873
  304MOL0     C41842   1.735   7.699   0.070  0.1738  0.7429  0.5323
  304MOL0     C41843   1.847   7.931   0.029  0.1648  0.2367  0.9375
  304MOL0     C41844   1.982   7.890   0.052 -0.7606 -0.1394 -0.1772
  304MOL0     O41845   2.082   7.934  -0.042  0.8459  0.0403  0.0997
  304MOL0     C41846   2.054   7.981  -0.168  0.0696 -0.5449  0.4962
  304MOL0     C41847   1.948   7.949  -0.256  1.0585  1.2072 -0.2493
  304MOL0     C41848   1.928   8.026  -0.374 -0.4946 -0.6034  0.2784
  304MOL0     C41849   1.998   8.147  -0.402  0.7133 -0.2226  0.6497
  304MOL0     O41850   1.985   8.208  -0.523 -0.0632 -0.0692 -0.3924
  304MOL0     C41851   1.969   8.351  -0.514 -0.0494  0.4548 -0.4292
  304MOL0     C41852   1.988   8.409  -0.656 -0.1706 -0.5280  0.0272
  304MOL0     C41853   1.901   8.533  -0.682 -0.3317  0.4795 -0.0174
  304MOL0     C41854   1.932   8.659  -0.605 -0.5382  0.1421 -0.4372
  304MOL0     C41855   1.862   8.783  -0.671 -0.2859  0.1092 -0.2053
  304MOL0     C41856   1.865   8.912  -0.581 -0.0305  0.3099 -0.3647
  304MOL0     C41857   1.726   8.931  -0.512  0.2554 -0.2364 -0.4199
  304MOL0     C41858   1.725   9.048  -0.429  0.6398 -0.1407 -0.7186
  304MOL0    Cl41859   1.686   9.191  -0.532 -0.2242 -0.1397  0.1744
  304MOL0     C41860   2.091   8.180  -0.310  0.8155  0.2034  0.6753
  304MOL0     C41861   2.126   8.098  -0.198  0.5548 -0.2270 -0.0709
  304MOL0     O41862   2.009   7.813   0.146  0.5586  0.0154 -0.3270
  304MOL0     C41863   1.816   8.068  -0.001 -0.2453 -0.4950 -0.4910
  304MOL0     C41864   1.686   8.116  -0.026  0.1166 -0.0032 -0.3545
  304MOL0     N41865   1.579   8.689   0.162 -0.0776  1.2361 -0.2203
  304MOL0     N41866   1.601   8.773   0.254  0.2662  0.2420  0.1019
  304MOL0     C41867   2.363   9.617   0.297  0.0618  0.6364  0.4427
  304MOL0     C41868   2.441   9.740   0.280 -0.5856 -0.0858  0.7089
  304MOL0     C41869   2.519  10.190   0.199 -0.3327  1.0726 -0.2183
  304MOL0     C41870   2.430  10.264   0.283 -0.1397 -0.5791 -0.5886
  304MOL0     C41871   2.438  10.404   0.292  0.2222 -0.0459 -0.5978
  304MOL0     C41872   2.526  10.474   0.216 -0.7852  0.8763 -0.2647
  304MOL0     O41873   2.527  10.616   0.208  0.2617 -0.3065  0.5645
  304MOL0     C41874   2.619  10.672   0.297  0.0248  0.9650  0.5714
  304MOL0     C41875   2.640  10.821   0.253 -0.8529  0.3585  0.6030
  304MOL0     C41876   2.703  10.815   0.106  0.5128  0.3609  0.2160
  304MOL0     C41877   2.695  10.952   0.030  0.7353 -0.5857 -0.6193
  304MOL0     C41878   2.752  10.954  -0.106  0.4429  0.3330 -0.0116
  304MOL0     C41879   2.805  10.961  -0.211  0.4246 -0.3860 -0.3419
  304MOL0     C41880   2.610  10.409   0.130 -0.1341 -0.0795 -0.1340
  304MOL0     C41881   2.616  10.266   0.122  0.1230 -0.7350 -0.4582
  304MOL0     C41882   2.719  10.197   0.027 -0.3888 -0.1395  0.1277
  304MOL0     H41883   2.235   9.955   0.397 -0.9859  1.1168 -1.4814
  304MOL0     H41884   2.078   9.748   0.412  0.7731 -0.0197  2.1313
  304MOL0     H41885   1.961   9.540   0.365 -1.9607  0.6031  1.6225
  304MOL0     H41886   2.051   9.531   0.523 -0.1806  2.1433 -1.5709
  304MOL0     H41887   2.090   9.290   0.497  0.5663 -3.4019 -4.3552
  304MOL0     H41888   1.916   9.319   0.493  0.1835 -1.6568  1.3277
  304MOL0     H41889   1.881   9.317   0.288  0.7165  0.4621 -2.5626
  304MOL0     H41890   2.043   9.340   0.232 -1.3166  3.1301  0.1208
  304MOL0     H41891   1.954   9.116   0.173 -2.7615  2.9588  0.4483
  304MOL0     H41892   2.093   9.101   0.277  0.2586  3.7236  0.2310
  304MOL0     H41893   1.823   9.095   0.408 -1.4821 -2.3583 -0.4542
  304MOL0     H41894   1.971   9.057   0.485 -2.6194  1.4024  1.5297
  304MOL0     H41895   1.868   8.879   0.253  2.7787 -1.8950 -1.4161
  304MOL0     H41896   2.033   8.881   0.332  0.1867 -1.0407  3.9560
  304MOL0     H41897   1.918   8.840   0.551 -0.8156 -2.4010  1.0714
  304MOL0     H41898   1.928   8.712   0.438 -0.6412  1.1020 -0.0910
  304MOL0     H41899   1.714   8.742   0.556 -0.8844 -1.5519 -0.6728
  304MOL0     H41900   1.676   8.886   0.479 -2.6054 -1.5120 -0.5763
  304MOL0     H41901   1.734   8.507   0.388 -0.1537  0.1032  0.2240
  304MOL0     H41902   1.609   8.352   0.234 -0.7087  0.2624  1.0660
  304MOL0     H41903   1.651   8.422   0.081  0.4341 -0.4255  0.6547
  304MOL0     H41904   1.372   8.468   0.166 -3.2666 -0.5801 -1.6236
  304MOL0     H41905   1.421   8.458   0.009 -0.5425 -1.8257 -1.1253
  304MOL0     H41906   1.450   8.209   0.175  0.4519  3.6718  1.7145
  304MOL0     H41907   1.289   8.272   0.129  0.2444 -0.7115 -0.2761
  304MOL0     H41908   1.319   8.205  -0.098 -1.1327 -0.1333  1.7671
  304MOL0     H41909   1.481   8.250  -0.102  2.4632 -1.4226  1.6510
  304MOL0     H41910   1.524   7.830   0.056 -0.3335 -1.0755 -0.2786
  304MOL0     H41911   1.686   7.677   0.165 -1.5800 -0.5938 -0.6306
  304MOL0     H41912   1.838   7.661   0.071  0.1766  0.4088 -2.8854
  304MOL0     H41913   1.688   7.643  -0.010  0.5270  0.2786  0.6434
  304MOL0     H41914   1.902   7.854  -0.233  0.7202  0.6727 -2.8460
  304MOL0     H41915   1.855   8.000  -0.451 -4.0858  1.0730  2.8227
  304MOL0     H41916   1.871   8.378  -0.473 -1.5699  0.5668 -3.7735
  304MOL0     H41917   2.052   8.391  -0.457  0.8781 -1.5829 -0.2490
  304MOL0     H41918   2.093   8.431  -0.676  0.0111 -3.3933 -3.1133
  304MOL0     H41919   1.958   8.330  -0.725 -1.8287 -1.4307  1.6812
  304MOL0     H41920   1.798   8.499  -0.668 -1.3416  2.6745 -1.5430
  304MOL0     H41921   1.910   8.558  -0.788 -0.0851 -3.2301 -1.0218
  304MOL0     H41922   2.039   8.676  -0.617 -0.0404 -3.1881 -1.9228
  304MOL0     H41923   1.893   8.642  -0.504 -1.5082  0.2165 -0.7814
  304MOL0     H41924   1.916   8.798  -0.765  1.4418  0.9724  0.8658
  304MOL0     H41925   1.757   8.757  -0.684  0.0348 -1.7921  0.5202
  304MOL0     H41926   1.874   9.002  -0.643  0.6004 -0.4084 -1.3606
  304MOL0     H41927   1.935   8.904  -0.498  0.2662  0.4776 -0.5976
  304MOL0     H41928   1.720   8.846  -0.443  0.1755 -1.3461 -1.7389
  304MOL0     H41929   1.646   8.918  -0.586 -1.6762 -0.0333  1.5079
  304MOL0     H41930   1.816   9.063  -0.370 -1.7280  0.3121  3.1469
  304MOL0     H41931   1.654   9.037  -0.346  2.1307 -0.7053  0.5161
  304MOL0     H41932   2.149   8.268  -0.334 -0.5578  0.8896 -0.2600
  304MOL0     H41933   2.192   8.121  -0.115 -1.8339 -2.4887  2.7099
  304MOL0     H41934   1.900   8.136   0.007 -0.6101  0.2816 -2.5657
  304MOL0     H41935   1.670   8.215  -0.067 -2.8579  0.0961  0.8416
  304MOL0     H41936   2.391   9.517   0.264 -2.1740  0.8422 -2.5717
  304MOL0     H41937   2.531   9.733   0.219 -0.8549 -2.2982  0.4749
  304MOL0     H41938   2.344  10.218   0.331 -1.4112  1.1300 -1.0840
  304MOL0     H41939   2.380  10.459   0.365 -0.2378 -1.6486  0.2951
  304MOL0     H41940   2.577  10.663   0.397 -4.2596 -2.3917 -1.2323
  304MOL0     H41941   2.717  10.625   0.283  1.0949  3.7405 -2.7171
  304MOL0     H41942   2.709  10.872   0.321  2.2339 -0.3759 -1.7357
  304MOL0     H41943   2.543  10.870   0.239 -1.7223 -1.8131 -1.9643
  304MOL0     H41944   2.804  10.775   0.119  0.2112 -2.7183 -4.5689
  304MOL0     H41945   2.664  10.737   0.039 -0.3190  1.9740 -1.2659
  304MOL0     H41946   2.750  11.025   0.090  2.1020 -1.5320 -0.6571
  304MOL0     H41947   2.594  10.993   0.026  0.5754 -0.8676  0.3534
  304MOL0     H41948   2.853  10.963  -0.306 -0.3750 -1.2875 -0.7828
  304MOL0     H41949   2.670  10.479   0.074 -1.8051  0.6193 -1.1036
  304MOL0     H41950   2.675  10.176  -0.071  2.1187 -0.7179 -0.9424
  304MOL0     H41951   2.799  10.269   0.011  0.1171 -0.3475  1.6268
  304MOL0     H41952   2.760  10.104   0.067  1.5418  0.0030 -1.3656
  305MOL0     O41953   7.512   0.946   1.464 -0.3022 -0.1572 -0.2406
  305MOL0     C41954   7.412   0.870   1.481 -0.1318  0.7055  0.1255
  305MOL0     O41955   7.290   0.863   1.418  0.0526 -1.1400  0.0265
  305MOL0     C41956   7.252   0.966   1.327  0.3972  0.0777  0.2715
  305MOL0     C41957   7.296   0.973   1.196 -1.3818 -0.4482  0.0890
  305MOL0     C41958   7.270   1.081   1.113  0.7337  0.1482  1.3501
  305MOL0     C41959   7.196   1.193   1.162  0.4539  1.2759  0.4110
  305MOL0     O41960   7.174   1.308   1.085  0.4533 -0.2707 -0.0083
  305MOL0     C41961   7.154   1.278   0.946  1.5592 -0.0860  0.0541
  305MOL0     C41962   7.073   1.389   0.888 -0.0285 -0.7558  0.4387
  305MOL0     C41963   7.123   1.535   0.912 -0.3982  0.1227  1.0772
  305MOL0     C41964   7.060   1.633   0.815 -0.1840 -0.5028 -0.6763
  305MOL0     C41965   7.086   1.787   0.837  0.1789  0.4770  0.2189
  305MOL0     C41966   7.232   1.822   0.829  0.6887  1.8027 -0.5181
  305MOL0     C41967   7.283   1.943   0.894  0.6266 -0.2025 -0.7341
  305MOL0     C41968   7.247   2.070   0.806 -0.2062 -0.4721 -0.5224
  305MOL0     N41969   7.325   2.086   0.674 -0.2097 -0.1211 -0.2881
  305MOL0     C41970   7.294   2.031   0.553  0.6506 -0.8182  0.5414
  305MOL0     C41971   7.393   2.086   0.470  0.6202 -0.8272  0.4675
  305MOL0     C41972   7.406   2.065   0.327  0.3090  0.0649  1.5370
  305MOL0     C41973   7.337   2.182   0.260 -0.6929  0.7761  0.2829
  305MOL0     C41974   7.301   2.160   0.105 -1.3473 -0.6212 -0.1570
  305MOL0     C41975   7.174   2.070   0.086  0.5161 -0.5262  0.1738
  305MOL0     O41976   7.062   2.136   0.146 -0.3959 -0.4875  0.3027
  305MOL0     C41977   6.945   2.065   0.178  0.1228 -0.2638 -0.0950
  305MOL0     C41978   6.910   1.952   0.103  0.3418 -0.2276  0.2388
  305MOL0     C41979   6.800   1.872   0.122 -0.3595 -0.2875  0.2323
  305MOL0     C41980   6.759   1.748   0.038 -0.1706  0.1444  0.5040
  305MOL0     C41981   6.714   1.911   0.231  0.3446  0.2373 -0.6363
  305MOL0     C41982   6.596   1.835   0.282  0.3432  0.0168  0.1657
  305MOL0     O41983   6.507   1.895   0.373 -0.8592 -0.5836  0.0837
  305MOL0     C41984   6.423   1.809   0.437 -0.3268 -0.9148 -0.5051
  305MOL0     C41985   6.479   1.736   0.537  0.6172 -0.1339 -0.4315
  305MOL0     C41986   6.390   1.635   0.597  0.2160 -0.0599  0.1050
  305MOL0     C41987   6.251   1.626   0.552  1.1304 -0.7568 -0.4223
  305MOL0     O41988   6.169   1.531   0.607  0.3498  0.6386 -0.5149
  305MOL0     C41989   6.045   1.491   0.563 -0.6051 -0.6186  0.0902
  305MOL0     C41990   5.989   1.385   0.655  0.2892 -0.2021 -0.5571
  305MOL0     C41991   5.892   1.297   0.581  0.9925 -0.9218 -1.4479
  305MOL0     C41992   5.779   1.386   0.543 -0.2171  1.4004  1.8044
  305MOL0     C41993   5.659   1.320   0.484  0.0357  1.0240 -0.0150
  305MOL0     C41994   5.693   1.278   0.341 -0.1825  0.5847 -0.0593
  305MOL0     C41995   5.553   1.248   0.272  0.0145 -0.5104 -0.0529
  305MOL0     C41996   5.578   1.266   0.120 -0.1448 -1.5618 -0.0533
  305MOL0    Cl41997   5.671   1.122   0.056  0.2450  0.2630 -0.1993
  305MOL0     C41998   6.201   1.713   0.454 -0.5792 -0.6897  0.5071
  305MOL0     C41999   6.293   1.807   0.404 -0.4963 -0.0004  0.1786
  305MOL0     O42000   6.599   1.719   0.254 -0.6003 -0.0599  0.6910
  305MOL0     C42001   6.745   2.033   0.302 -1.1870 -0.3344  0.3434
  305MOL0     C42002   6.857   2.109   0.277 -0.4073  0.9069  0.1381
  305MOL0     N42003   7.468   2.175   0.544 -0.5483 -0.2155  0.7645
  305MOL0     N42004   7.437   2.164   0.661  0.5757  0.4212  0.1085
  305MOL0     C42005   7.170   1.197   1.300 -0.8924  0.3938  0.0967
  305MOL0     C42006   7.194   1.084   1.377  0.0654  0.8696 -0.2364
  305MOL0     C42007   7.439   0.775   1.604 -0.2509 -0.3446  0.4913
  305MOL0     C42008   7.538   0.678   1.593 -0.9024 -0.1633  0.1548
  305MOL0     C42009   7.567   0.602   1.698  1.2590 -0.4541  0.2669
  305MOL0     C42010   7.510   0.626   1.819  0.3928  0.3068 -0.2657
  305MOL0     O42011   7.559   0.546   1.919 -0.4645 -0.1821  0.4359
  305MOL0     C42012   7.562   0.595   2.055  0.5358  0.6595  0.0190
  305MOL0     C42013   7.440   0.537   2.122 -0.3582  0.2769  0.3272
  305MOL0     C42014   7.426   0.384   2.105  1.2063 -0.2162  0.0369
  305MOL0     C42015   7.305   0.323   2.169  0.5714 -0.2039 -0.1462
  305MOL0     C42016   7.278   0.183   2.150 -0.5194 -0.5018  0.0158
  305MOL0     C42017   7.247   0.073   2.127  0.4939  0.6170  0.4162
  305MOL0     C42018   7.418   0.730   1.835  0.0992  0.8641  0.1955
  305MOL0     C42019   7.376   0.799   1.723 -0.5849 -1.4245 -0.3179
  305MOL0     C42020   7.292   0.917   1.743 -0.1914  0.2924 -0.4365
  305MOL0     H42021   7.342   0.881   1.160  2.1846  2.0555 -2.4400
  305MOL0     H42022   7.323   1.062   1.020 -0.7704  1.0104  0.2783
  305MOL0     H42023   7.087   1.193   0.934  1.2049  0.3766 -1.3856
  305MOL0     H42024   7.250   1.262   0.897  0.7711 -2.9061 -0.7351
  305MOL0     H42025   7.087   1.381   0.780  1.0449  3.9365  0.0438
  305MOL0     H42026   6.971   1.371   0.924  0.1915  0.2753  1.6157
  305MOL0     H42027   7.087   1.552   1.014 -0.3923  1.8440  0.8288
  305MOL0     H42028   7.232   1.543   0.916 -0.5048  1.5327  3.1449
  305MOL0     H42029   7.071   1.611   0.709 -2.0129  0.6048 -1.1496
  305MOL0     H42030   6.956   1.617   0.844  0.8402 -0.6670  3.6189
  305MOL0     H42031   7.055   1.822   0.936  1.1779  0.6543  0.4899
  305MOL0     H42032   7.024   1.841   0.765  2.1143  2.8731  0.1859
  305MOL0     H42033   7.294   1.747   0.877  1.1427  1.3213 -1.8000
  305MOL0     H42034   7.267   1.808   0.726  2.6808 -0.4487  0.3924
  305MOL0     H42035   7.390   1.939   0.914  0.2922 -0.0037  1.4540
  305MOL0     H42036   7.241   1.946   0.996  3.8740 -1.5407  0.7814
  305MOL0     H42037   7.140   2.073   0.782  0.1831  0.4897 -2.3022
  305MOL0     H42038   7.279   2.152   0.870  0.0154 -2.1616  1.6730
  305MOL0     H42039   7.220   1.961   0.515 -2.0976  3.3015 -2.6686
  305MOL0     H42040   7.347   1.978   0.295 -0.0586  1.0269 -0.6010
  305MOL0     H42041   7.498   2.064   0.267 -1.1853  0.9976 -0.9470
  305MOL0     H42042   7.251   2.205   0.324  1.8190  2.4197  3.3576
  305MOL0     H42043   7.394   2.275   0.267  1.2855 -0.5387  2.7212
  305MOL0     H42044   7.281   2.260   0.064  2.1369  0.4608  0.4573
  305MOL0     H42045   7.392   2.127   0.055 -1.4417  0.7607 -1.2996
  305MOL0     H42046   7.159   2.057  -0.022  1.9374  0.6479 -0.2082
  305MOL0     H42047   7.194   1.974   0.133  3.0322 -0.2732 -0.1833
  305MOL0     H42048   6.967   1.939   0.011  2.0069  1.5405  0.9551
  305MOL0     H42049   6.651   1.752   0.024 -0.1342  0.1882  0.2294
  305MOL0     H42050   6.786   1.655   0.089 -1.4322 -1.3508 -1.4382
  305MOL0     H42051   6.824   1.757  -0.050  0.6034  0.7720  1.1184
  305MOL0     H42052   6.583   1.739   0.567  0.2546  1.7916  0.8352
  305MOL0     H42053   6.440   1.565   0.663  0.6730 -1.2513 -1.4329
  305MOL0     H42054   5.974   1.574   0.560 -0.9367 -0.7516  2.2825
  305MOL0     H42055   6.071   1.447   0.467  3.3966  0.3163  0.5821
  305MOL0     H42056   6.057   1.305   0.688  2.3765  0.9324 -1.9074
  305MOL0     H42057   5.953   1.430   0.748 -1.1764  1.3460 -1.8116
  305MOL0     H42058   5.852   1.229   0.657  0.4700 -0.6215 -1.4468
  305MOL0     H42059   5.927   1.248   0.490  0.6435 -0.3519 -1.8900
  305MOL0     H42060   5.815   1.454   0.465 -2.6203 -1.5410 -2.2387
  305MOL0     H42061   5.752   1.451   0.627  2.2913  5.0755  0.0602
  305MOL0     H42062   5.621   1.240   0.547  0.2668 -0.0996 -1.2493
  305MOL0     H42063   5.573   1.387   0.474 -1.1734 -0.5672 -0.8179
  305MOL0     H42064   5.747   1.183   0.331  0.4167  1.0209 -1.1590
  305MOL0     H42065   5.746   1.361   0.294  3.1862 -1.4753 -0.1715
  305MOL0     H42066   5.478   1.318   0.311  3.0870  1.1939  3.3277
  305MOL0     H42067   5.517   1.145   0.288  1.9046 -1.2747 -0.5115
  305MOL0     H42068   5.636   1.357   0.109 -0.5625 -0.9204  2.4475
  305MOL0     H42069   5.480   1.282   0.074 -0.5291 -0.6774  1.0197
  305MOL0     H42070   6.101   1.705   0.412  1.0188 -1.0044 -3.7997
  305MOL0     H42071   6.258   1.864   0.319  1.5639 -1.6958 -1.9395
  305MOL0     H42072   6.689   2.060   0.391  1.4449 -0.5778  2.1962
  305MOL0     H42073   6.900   2.190   0.335  1.9630 -0.2420  0.1171
  305MOL0     H42074   7.122   1.281   1.346 -1.8196 -1.0472  1.8728
  305MOL0     H42075   7.168   1.085   1.483  2.1818 -1.5006  0.3823
  305MOL0     H42076   7.581   0.665   1.494 -2.4047 -0.9846 -0.4147
  305MOL0     H42077   7.642   0.524   1.685 -0.5485 -2.3257  0.6620
  305MOL0     H42078   7.651   0.550   2.102  1.4545  0.0530 -2.1818
  305MOL0     H42079   7.572   0.704   2.062 -2.8403  1.0984 -0.5605
  305MOL0     H42080   7.351   0.582   2.077  0.1986  0.6687 -0.3882
  305MOL0     H42081   7.443   0.567   2.228 -1.4600 -0.7915  0.6962
  305MOL0     H42082   7.417   0.361   1.999  0.4402 -0.3250  0.1157
  305MOL0     H42083   7.514   0.335   2.147  2.0548  1.2902  0.0963
  305MOL0     H42084   7.212   0.379   2.154 -1.5762 -4.1275 -4.0177
  305MOL0     H42085   7.321   0.336   2.276 -2.5929 -1.3608  0.5606
  305MOL0     H42086   7.239  -0.032   2.106  0.9723  0.7100 -0.2735
  305MOL0     H42087   7.379   0.733   1.936  0.5346  0.8091  0.3641
  305MOL0     H42088   7.347   0.987   1.806  2.0169 -0.8723 -0.9653
  305MOL0     H42089   7.247   0.961   1.654 -1.3397 -0.6065 -0.3253
  305MOL0     H42090   7.202   0.892   1.801  1.7176 -1.9790  1.7645
  306MOL0     O42091   4.605  11.485   6.902 -0.2576  0.2466  0.3152
  306MOL0     C42092   4.605  11.592   6.963 -0.1860 -0.6160  0.5597
  306MOL0     O42093   4.642  11.708   6.911  0.5529  0.3113  0.1898
  306MOL0     C42094   4.670  11.729   6.775  0.7488  0.6396  0.6342
  306MOL0     C42095   4.797  11.695   6.719 -0.5825 -0.1960 -0.0304
  306MOL0     C42096   4.820  11.711   6.584 -0.1491 -0.2672 -0.6777
  306MOL0     C42097   4.728  11.756   6.502 -0.0781 -0.2392 -0.9710
  306MOL0     O42098   4.760  11.793   6.372  0.1983  0.0992  0.3266
  306MOL0     C42099   4.802  11.672   6.296 -0.6792 -0.8658  0.2373
  306MOL0     C42100   4.678  11.596   6.249  1.1339  0.3931  1.2055
  306MOL0     C42101   4.734  11.472   6.182 -0.3135 -0.2643  0.9577
  306MOL0     C42102   4.627  11.375   6.151 -0.8567 -0.1286 -0.2542
  306MOL0     C42103   4.677  11.256   6.067  0.5604 -0.1496 -0.2922
  306MOL0     C42104   4.585  11.139   6.089  0.5884  0.6324 -0.0019
  306MOL0     C42105   4.633  11.012   6.018  0.3793 -0.4231  0.1010
  306MOL0     C42106   4.784  10.993   6.043 -1.1137  0.4225  0.3499
  306MOL0     N42107   4.832  10.861   5.992 -0.1628 -0.3916 -0.1733
  306MOL0     C42108   4.795  10.797   5.889  0.6852 -0.4598  0.2735
  306MOL0     C42109   4.852  10.673   5.896  0.5344 -0.2761 -0.6062
  306MOL0     C42110   4.829  10.562   5.794 -0.8898 -0.0775 -0.3253
  306MOL0     C42111   4.959  10.493   5.767  0.0357  0.4093  0.7613
  306MOL0     C42112   4.921  10.359   5.699 -0.8342 -0.8492 -1.0578
  306MOL0     C42113   5.031  10.283   5.622  0.6536  0.3834 -1.1186
  306MOL0     O42114   5.107  10.381   5.540 -0.4758  0.2207  0.1891
  306MOL0     C42115   5.249  10.378   5.554  0.6277  0.4517 -0.5545
  306MOL0     C42116   5.322  10.368   5.668 -0.3048  0.6063  0.6780
  306MOL0     C42117   5.459  10.360   5.675 -0.1326 -0.5733  0.1093
  306MOL0     C42118   5.523  10.353   5.814 -0.4264  1.0248  0.8938
  306MOL0     C42119   5.532  10.370   5.553 -0.5119  0.4368  0.1421
  306MOL0     C42120   5.680  10.368   5.540 -0.5045  0.5508 -0.3584
  306MOL0     O42121   5.739  10.301   5.432 -0.5957 -1.5222  0.5926
  306MOL0     C42122   5.872  10.341   5.407  0.1086  0.3393 -0.9490
  306MOL0     C42123   5.968  10.247   5.382 -0.2218 -0.1397 -1.1604
  306MOL0     C42124   6.103  10.281   5.358 -0.1408 -0.2088  0.7061
  306MOL0     C42125   6.127  10.419   5.341 -0.6156  0.3390  0.5589
  306MOL0     O42126   6.251  10.474   5.300 -0.3110 -0.2678  0.5931
  306MOL0     C42127   6.354  10.390   5.253 -0.5316 -0.4375  0.2368
  306MOL0     C42128   6.465  10.482   5.197  0.8395 -0.1048 -1.2672
  306MOL0     C42129   6.415  10.592   5.105 -0.1974 -0.1242  0.3449
  306MOL0     C42130   6.518  10.661   5.014  0.3441 -0.0484 -0.1057
  306MOL0     C42131   6.468  10.806   4.978  0.0802  0.8021 -0.8725
  306MOL0     C42132   6.575  10.912   4.969 -0.4672 -0.3044  1.0381
  306MOL0     C42133   6.539  11.056   4.914  0.1752  0.6614 -0.3070
  306MOL0     C42134   6.466  11.133   5.023 -0.1194  0.4195  0.6894
  306MOL0    Cl42135   6.421  11.292   4.979  0.0855 -0.8364  0.1236
  306MOL0     C42136   6.032  10.520   5.372 -0.0795  0.7631 -0.2485
  306MOL0     C42137   5.904  10.479   5.392 -0.1549  1.1372 -0.2943
  306MOL0     O42138   5.740  10.424   5.629 -0.6015 -0.4323 -0.0309
  306MOL0     C42139   5.460  10.367   5.435  0.0910  0.7985  0.3305
  306MOL0     C42140   5.321  10.371   5.434  0.5502 -0.8873  0.0801
  306MOL0     N42141   4.915  10.664   6.018 -0.8276  0.6813  0.2985
  306MOL0     N42142   4.913  10.777   6.077  0.6803 -0.1155 -1.0111
  306MOL0     C42143   4.608  11.788   6.560 -0.4951 -0.4336  0.6990
  306MOL0     C42144   4.564  11.784   6.693 -0.3381  0.2166 -0.6289
  306MOL0     C42145   4.581  11.596   7.113  0.0574 -0.2850  0.1308
  306MOL0     C42146   4.669  11.683   7.183 -0.0523  0.2980 -0.6199
  306MOL0     C42147   4.648  11.697   7.318  0.0882 -0.2210  0.4596
  306MOL0     C42148   4.561  11.625   7.394 -0.1844  0.5548 -0.9564
  306MOL0     O42149   4.548  11.637   7.537 -0.8791 -0.7739  0.4524
  306MOL0     C42150   4.665  11.672   7.611 -0.1543  0.4109 -0.3413
  306MOL0     C42151   4.671  11.812   7.672 -0.5009  0.4785  0.3589
  306MOL0     C42152   4.573  11.846   7.794 -1.1054  0.2323  1.0067
  306MOL0     C42153   4.587  11.759   7.918 -0.0944 -0.2543  0.3567
  306MOL0     C42154   4.721  11.746   7.964 -0.8488  0.4670  0.4560
  306MOL0     C42155   4.831  11.752   8.015  0.9275 -0.2534  0.1228
  306MOL0     C42156   4.491  11.524   7.325  0.4765 -1.6181 -0.2448
  306MOL0     C42157   4.498  11.514   7.183  0.2670 -0.6448  0.7126
  306MOL0     C42158   4.412  11.411   7.119 -0.0576  0.7537  0.8774
  306MOL0     H42159   4.886  11.665   6.773  0.4949 -0.5899 -1.9158
  306MOL0     H42160   4.923  11.703   6.550  0.7056  3.1631  0.7147
  306MOL0     H42161   4.870  11.602   6.346  1.7094  0.9469 -0.2610
  306MOL0     H42162   4.858  11.716   6.213 -2.4143 -0.6289 -0.8509
  306MOL0     H42163   4.610  11.564   6.329  2.5317 -0.2972  2.1608
  306MOL0     H42164   4.632  11.643   6.162 -0.5830 -3.7573 -0.3491
  306MOL0     H42165   4.789  11.486   6.088  0.2918 -0.4504  1.2773
  306MOL0     H42166   4.801  11.413   6.245  4.5823  2.2270 -1.3149
  306MOL0     H42167   4.578  11.325   6.235 -0.3276  0.4192  0.3917
  306MOL0     H42168   4.538  11.416   6.103 -4.1725 -1.3764  4.1146
  306MOL0     H42169   4.780  11.237   6.100  1.1494 -1.9745 -2.8812
  306MOL0     H42170   4.681  11.297   5.966 -3.0484  1.9187  0.2540
  306MOL0     H42171   4.566  11.101   6.189 -1.3487 -1.6351 -1.1433
  306MOL0     H42172   4.482  11.169   6.068  0.0408 -0.7696  0.6084
  306MOL0     H42173   4.609  11.010   5.911 -0.0653 -0.1792  0.1956
  306MOL0     H42174   4.578  10.932   6.070  0.3242 -0.0365  0.6418
  306MOL0     H42175   4.844  11.067   5.990  0.9620 -1.0089  0.5950
  306MOL0     H42176   4.816  11.010   6.146  2.8538 -0.8619 -0.5184
  306MOL0     H42177   4.719  10.818   5.814  1.2035  3.0288  0.5614
  306MOL0     H42178   4.785  10.606   5.703 -2.8914  0.5899  0.9094
  306MOL0     H42179   4.766  10.483   5.834  0.8369 -1.7180 -0.7211
  306MOL0     H42180   5.028  10.552   5.706  3.1080 -1.5734  2.0643
  306MOL0     H42181   5.028  10.472   5.848  3.5134  1.2403 -1.7548
  306MOL0     H42182   4.894  10.300   5.787  1.9499 -0.5315  0.1441
  306MOL0     H42183   4.840  10.381   5.629  0.6903  1.0704 -2.3286
  306MOL0     H42184   5.097  10.233   5.694  0.3509  0.5831 -0.6976
  306MOL0     H42185   4.999  10.195   5.567  2.2848 -2.0160  1.4719
  306MOL0     H42186   5.266  10.367   5.761  2.1735  0.8308  2.2532
  306MOL0     H42187   5.624  10.311   5.815 -1.9839 -3.2975 -0.4507
  306MOL0     H42188   5.459  10.283   5.868 -1.9234  0.8720 -0.9458
  306MOL0     H42189   5.531  10.454   5.855 -0.7843  1.7894 -0.8183
  306MOL0     H42190   5.938  10.142   5.385 -0.5914 -0.0387  1.7236
  306MOL0     H42191   6.185  10.211   5.343  0.0500  0.5144 -2.2503
  306MOL0     H42192   6.403  10.328   5.329 -1.3179 -0.3658  0.8215
  306MOL0     H42193   6.323  10.326   5.170  3.5363  0.6241 -2.3473
  306MOL0     H42194   6.527  10.531   5.273  0.2313 -0.4965 -0.5122
  306MOL0     H42195   6.534  10.408   5.156 -1.2275 -1.6313 -2.1882
  306MOL0     H42196   6.368  10.667   5.169 -0.9034  0.5148 -0.8882
  306MOL0     H42197   6.331  10.546   5.053 -1.4518 -3.7543  4.8213
  306MOL0     H42198   6.538  10.611   4.920 -0.1059 -0.9511  0.2677
  306MOL0     H42199   6.610  10.687   5.068 -1.0899  0.8172  2.0918
  306MOL0     H42200   6.411  10.790   4.886 -1.2216  0.8564 -0.1012
  306MOL0     H42201   6.398  10.845   5.053  0.5755  3.3129 -1.6270
  306MOL0     H42202   6.650  10.874   4.899 -1.2318 -0.2177  0.1505
  306MOL0     H42203   6.630  10.910   5.063 -2.9361 -0.0542  2.5747
  306MOL0     H42204   6.479  11.058   4.823  0.0758  2.8278 -0.2279
  306MOL0     H42205   6.629  11.107   4.880  0.9004 -1.2603 -1.4447
  306MOL0     H42206   6.534  11.143   5.107  1.8496  0.5433 -0.8436
  306MOL0     H42207   6.371  11.084   5.046 -1.1210  2.4292  1.0247
  306MOL0     H42208   6.068  10.620   5.351  0.2804  0.7806  0.4228
  306MOL0     H42209   5.823  10.551   5.395 -0.5196  0.7982 -1.5382
  306MOL0     H42210   5.509  10.345   5.341 -0.5941  1.2022 -0.1317
  306MOL0     H42211   5.256  10.377   5.348 -1.4434 -0.1169  1.5792
  306MOL0     H42212   4.541  11.845   6.496 -0.8123 -1.0345  0.4896
  306MOL0     H42213   4.469  11.828   6.723  0.2677  3.4695 -2.9695
  306MOL0     H42214   4.754  11.737   7.143  2.6046 -0.6655  3.1526
  306MOL0     H42215   4.715  11.775   7.350  1.5473 -1.5691  0.8048
  306MOL0     H42216   4.684  11.609   7.699  3.0982  0.5400 -0.8524
  306MOL0     H42217   4.756  11.664   7.551 -0.1477 -0.5691 -0.2206
  306MOL0     H42218   4.649  11.884   7.593  1.1816  1.8025  1.0416
  306MOL0     H42219   4.776  11.837   7.688 -0.3083  1.1878 -1.8163
  306MOL0     H42220   4.589  11.952   7.814  3.8538 -0.2561  0.8886
  306MOL0     H42221   4.468  11.837   7.767 -1.2842  0.7040  1.5259
  306MOL0     H42222   4.555  11.658   7.892  2.2834 -0.7798 -0.8490
  306MOL0     H42223   4.532  11.811   7.998 -2.3177 -2.3639  0.3153
  306MOL0     H42224   4.933  11.770   8.041  0.5872  2.6983 -0.2067
  306MOL0     H42225   4.423  11.457   7.377  0.8191 -1.4830  0.3902
  306MOL0     H42226   4.333  11.376   7.186  2.0286 -0.9455  2.6474
  306MOL0     H42227   4.359  11.442   7.030  2.6643 -1.7952 -1.8897
  306MOL0     H42228   4.469  11.325   7.082 -2.0882 -0.4059  0.2865
  307MOL0     O42229   2.536   2.280   4.692 -0.7221  0.9189 -0.0091
  307MOL0     C42230   2.517   2.399   4.686 -0.2885  0.5769  0.4349
  307MOL0     O42231   2.578   2.484   4.589  1.0365  0.6387  0.0489
  307MOL0     C42232   2.646   2.432   4.488  0.0272 -0.2964  0.7384
  307MOL0     C42233   2.631   2.495   4.365 -0.6894  0.0036 -0.0976
  307MOL0     C42234   2.693   2.457   4.240 -0.1186 -0.6497 -0.0640
  307MOL0     C42235   2.769   2.342   4.232 -0.1785  0.1988  0.7090
  307MOL0     O42236   2.862   2.330   4.129  0.4212  0.5703  0.3571
  307MOL0     C42237   2.919   2.197   4.113 -0.8647  0.6053  0.8247
  307MOL0     C42238   3.024   2.202   4.006  0.6847 -0.3684 -1.2854
  307MOL0     C42239   2.968   2.269   3.880  0.4046  0.1066  0.7795
  307MOL0     C42240   3.053   2.244   3.748  0.1239 -0.1608 -0.4107
  307MOL0     C42241   3.030   2.326   3.619 -0.2670 -0.2404  0.0943
  307MOL0     C42242   2.883   2.358   3.592 -0.3741 -0.1772  0.3539
  307MOL0     C42243   2.810   2.220   3.568 -0.4682 -0.6024  0.3065
  307MOL0     C42244   2.668   2.244   3.524  0.1746  0.1872  0.0405
  307MOL0     N42245   2.594   2.345   3.606  0.1280 -0.0109 -0.5496
  307MOL0     C42246   2.582   2.355   3.737  0.3110  0.6633 -0.1142
  307MOL0     C42247   2.542   2.479   3.759 -0.2472  0.2696  0.7630
  307MOL0     C42248   2.542   2.540   3.899  0.1565 -0.3625  0.4499
  307MOL0     C42249   2.673   2.621   3.908  0.1755 -0.2779  0.3955
  307MOL0     C42250   2.651   2.759   3.967  0.5164  0.4198  0.9394
  307MOL0     C42251   2.780   2.846   3.982 -1.1827 -0.3085  0.7186
  307MOL0     O42252   2.860   2.861   3.859 -0.3246  0.6994 -0.2363
  307MOL0     C42253   2.811   2.930   3.758 -0.7016 -0.0136 -1.3600
  307MOL0     C42254   2.869   2.916   3.634 -0.4181 -1.2782 -0.5233
  307MOL0     C42255   2.823   2.981   3.523  0.2211  0.4818  0.5254
  307MOL0     C42256   2.889   2.938   3.394 -0.5169  0.4159 -0.2123
  307MOL0     C42257   2.719   3.071   3.539  0.9206 -0.8605  0.1127
  307MOL0     C42258   2.670   3.159   3.429  1.4235 -1.2152  1.0557
  307MOL0     O42259   2.553   3.232   3.455 -0.6262  0.2586 -0.4370
  307MOL0     C42260   2.515   3.326   3.369 -0.5068 -0.0929 -0.1012
  307MOL0     C42261   2.423   3.299   3.272  0.2335  0.4785  1.2620
  307MOL0     C42262   2.375   3.401   3.186  0.0472  0.2392  1.1710
  307MOL0     C42263   2.440   3.526   3.189 -0.0709 -0.3043  0.9629
  307MOL0     O42264   2.408   3.628   3.101  0.1726  0.2341 -0.6132
  307MOL0     C42265   2.395   3.594   2.960 -0.0041 -0.6117 -0.8931
  307MOL0     C42266   2.384   3.726   2.876  0.9049  0.0300  0.7068
  307MOL0     C42267   2.360   3.684   2.722  0.3082  0.1630  0.0559
  307MOL0     C42268   2.334   3.806   2.638  0.1021 -0.0875 -0.3356
  307MOL0     C42269   2.347   3.756   2.497  0.1429 -0.7607  0.2061
  307MOL0     C42270   2.490   3.737   2.449  0.2097 -0.7828 -0.4024
  307MOL0     C42271   2.481   3.712   2.291  0.1428  0.7810 -0.3599
  307MOL0     C42272   2.607   3.752   2.221  0.2834  0.0166  0.0566
  307MOL0    Cl42273   2.732   3.631   2.265  0.3552  0.2252 -0.3561
  307MOL0     C42274   2.534   3.549   3.290  0.1353 -0.4384  0.5179
  307MOL0     C42275   2.569   3.454   3.389  0.2447  0.5694  0.1195
  307MOL0     O42276   2.753   3.192   3.345  0.5689 -0.0653 -0.3031
  307MOL0     C42277   2.674   3.098   3.664 -0.0490 -0.3254 -1.1484
  307MOL0     C42278   2.711   3.022   3.775 -0.0056  0.3235 -0.7867
  307MOL0     N42279   2.529   2.546   3.635 -0.5294 -0.0334 -1.0642
  307MOL0     N42280   2.555   2.459   3.550 -0.7817 -0.8790 -0.5423
  307MOL0     C42281   2.762   2.262   4.349  0.3659 -0.6929 -0.8768
  307MOL0     C42282   2.707   2.307   4.473  0.6443  0.6688 -0.2987
  307MOL0     C42283   2.454   2.468   4.800  0.6211  0.4709 -0.1285
  307MOL0     C42284   2.518   2.580   4.856 -0.1154 -0.3746  0.5454
  307MOL0     C42285   2.460   2.649   4.963  1.0634 -0.6319  0.3233
  307MOL0     C42286   2.346   2.591   5.028  0.3990  0.0977 -0.4411
  307MOL0     O42287   2.306   2.665   5.138  0.8234  0.9390 -0.4827
  307MOL0     C42288   2.171   2.658   5.186 -0.0008  0.6777 -0.3499
  307MOL0     C42289   2.146   2.799   5.236  0.5771 -0.2860 -0.2316
  307MOL0     C42290   2.203   2.831   5.371 -0.1005 -0.3258 -0.1201
  307MOL0     C42291   2.158   2.973   5.422  1.0420  0.7721  0.4188
  307MOL0     C42292   2.221   3.018   5.542  0.0673 -0.2123  0.2459
  307MOL0     C42293   2.268   3.068   5.639  0.3400  0.3857 -0.9639
  307MOL0     C42294   2.289   2.474   4.982  0.2430 -0.1562  0.2406
  307MOL0     C42295   2.334   2.413   4.861 -0.1528 -0.6208  0.5752
  307MOL0     C42296   2.253   2.293   4.799  0.0198 -0.4701  0.4789
  307MOL0     H42297   2.571   2.585   4.375 -0.9199 -0.0741 -0.7244
  307MOL0     H42298   2.690   2.529   4.158 -0.1271 -0.8574 -0.2462
  307MOL0     H42299   2.843   2.121   4.094 -3.0637  2.8236  0.2615
  307MOL0     H42300   2.969   2.167   4.205 -0.1168 -1.8922 -0.3187
  307MOL0     H42301   3.102   2.271   4.038  0.2367 -0.8179  0.9578
  307MOL0     H42302   3.069   2.103   3.993  0.8616 -0.7815  1.7173
  307MOL0     H42303   2.868   2.228   3.860  0.8238 -1.2965  1.4641
  307MOL0     H42304   2.959   2.378   3.889 -1.2224  0.0560  0.1427
  307MOL0     H42305   3.158   2.255   3.773 -0.3615  3.2603  0.5397
  307MOL0     H42306   3.032   2.139   3.725 -0.2529 -0.0334 -0.6702
  307MOL0     H42307   3.078   2.278   3.534  1.5830  0.6372  0.6088
  307MOL0     H42308   3.089   2.411   3.656  1.1015 -0.9646 -0.3714
  307MOL0     H42309   2.849   2.418   3.676  1.0087 -2.3074  2.5519
  307MOL0     H42310   2.872   2.420   3.502 -0.3673  0.3217  0.6967
  307MOL0     H42311   2.806   2.166   3.663 -0.1265  0.3391  0.8709
  307MOL0     H42312   2.876   2.164   3.501  1.2585  0.3065  1.1695
  307MOL0     H42313   2.674   2.280   3.421 -2.6026 -3.3184 -1.5602
  307MOL0     H42314   2.613   2.150   3.517  1.5893 -0.8348  1.7324
  307MOL0     H42315   2.617   2.291   3.817 -2.4089  0.3903  0.9782
  307MOL0     H42316   2.532   2.458   3.969  2.9916  0.1839  1.6397
  307MOL0     H42317   2.451   2.601   3.901 -0.8140 -1.7402 -0.1067
  307MOL0     H42318   2.756   2.567   3.955  0.0373 -1.4182 -0.6288
  307MOL0     H42319   2.703   2.656   3.809 -0.8244  2.6735  1.0356
  307MOL0     H42320   2.582   2.810   3.899  1.7425 -1.6788 -2.1201
  307MOL0     H42321   2.603   2.764   4.065 -1.1179  1.6698  0.1199
  307MOL0     H42322   2.752   2.941   4.027  1.9978  0.5104  1.2217
  307MOL0     H42323   2.850   2.793   4.049 -2.1196 -1.8288  0.5442
  307MOL0     H42324   2.956   2.852   3.632  0.7056 -0.1780  3.3864
  307MOL0     H42325   2.990   2.978   3.382  0.1592 -0.8158  1.0238
  307MOL0     H42326   2.819   2.966   3.315  0.1673  2.7737 -0.0460
  307MOL0     H42327   2.903   2.830   3.398 -0.2044  0.4050 -1.2765
  307MOL0     H42328   2.386   3.197   3.276  2.4654 -0.3709  4.2721
  307MOL0     H42329   2.303   3.375   3.108  2.7179 -0.6144 -1.1674
  307MOL0     H42330   2.485   3.542   2.928  2.5493  2.3198  0.8837
  307MOL0     H42331   2.315   3.526   2.929 -2.9010  1.6003  1.1066
  307MOL0     H42332   2.304   3.788   2.916 -0.2721  0.4038 -2.0589
  307MOL0     H42333   2.468   3.795   2.876  1.9519 -1.2034  0.8484
  307MOL0     H42334   2.270   3.623   2.706  1.4868 -0.8158 -4.4112
  307MOL0     H42335   2.442   3.615   2.698  0.4290 -0.4105  1.9448
  307MOL0     H42336   2.411   3.883   2.645 -0.1101  0.0987 -0.0224
  307MOL0     H42337   2.244   3.864   2.658 -0.9162 -2.0352  1.1151
  307MOL0     H42338   2.284   3.667   2.486 -1.7702  0.5272  0.2404
  307MOL0     H42339   2.301   3.827   2.429  2.4920 -1.9450 -2.8409
  307MOL0     H42340   2.534   3.647   2.493  2.2754 -0.4796 -1.7114
  307MOL0     H42341   2.553   3.821   2.481 -1.1388  0.7649 -1.6661
  307MOL0     H42342   2.402   3.773   2.246  0.2644  0.7953 -0.5560
  307MOL0     H42343   2.456   3.607   2.271 -1.7730  1.1524 -0.1283
  307MOL0     H42344   2.648   3.847   2.256  0.9216 -0.4893  0.7264
  307MOL0     H42345   2.591   3.760   2.113 -3.6715  3.5753  0.6755
  307MOL0     H42346   2.592   3.640   3.282  1.2000 -1.0244  1.3812
  307MOL0     H42347   2.637   3.481   3.470  1.2931 -0.5333 -0.3579
  307MOL0     H42348   2.586   3.157   3.686  0.6488  1.6295 -3.2172
  307MOL0     H42349   2.669   3.048   3.872  1.8722  2.7048 -0.5213
  307MOL0     H42350   2.817   2.169   4.348  0.6216 -0.7357  2.6467
  307MOL0     H42351   2.710   2.235   4.555 -0.9614  2.3267  1.3165
  307MOL0     H42352   2.607   2.609   4.801 -0.9057  3.4523  0.9973
  307MOL0     H42353   2.499   2.744   5.000 -0.9173  0.2007  0.3641
  307MOL0     H42354   2.113   2.641   5.095  3.5849 -3.1642 -2.2787
  307MOL0     H42355   2.156   2.579   5.260 -4.4825  1.9025  0.2988
  307MOL0     H42356   2.038   2.814   5.234  1.0710  5.2462 -1.2713
  307MOL0     H42357   2.187   2.869   5.163  1.5304 -0.0411  0.5121
  307MOL0     H42358   2.176   2.759   5.448  3.7965 -0.6972  1.1055
  307MOL0     H42359   2.311   2.835   5.360  0.3472 -3.0447  2.2403
  307MOL0     H42360   2.049   2.961   5.431  1.1445 -1.4007 -0.6174
  307MOL0     H42361   2.179   3.051   5.348  4.6487 -2.8451 -2.8419
  307MOL0     H42362   2.295   3.105   5.736  0.3780 -0.1225 -0.7762
  307MOL0     H42363   2.194   2.442   5.024  0.9795  0.6015  2.6063
  307MOL0     H42364   2.234   2.292   4.691  1.0852 -1.2298  0.2704
  307MOL0     H42365   2.304   2.202   4.833  1.1580  0.5201  1.5162
  307MOL0     H42366   2.153   2.283   4.841 -0.8706  1.6119 -0.9974
  308MOL0     O42367   9.651   3.996   5.500  0.3791 -0.4870  0.0281
  308MOL0     C42368   9.608   3.965   5.389 -0.9672  0.1109  0.1919
  308MOL0     O42369   9.675   3.993   5.274 -0.0704 -0.3667 -0.7003
  308MOL0     C42370   9.755   4.102   5.280  0.0243  0.0811 -0.0465
  308MOL0     C42371   9.706   4.229   5.295  0.4830  0.0190  0.3692
  308MOL0     C42372   9.794   4.330   5.318 -0.9219 -0.8056 -0.6952
  308MOL0     C42373   9.930   4.321   5.306  0.6910 -0.2563  0.9877
  308MOL0     O42374  10.026   4.415   5.328  0.2204 -0.9845 -0.3398
  308MOL0     C42375   9.988   4.560   5.294 -0.4855 -0.2788  0.6503
  308MOL0     C42376  10.025   4.603   5.149  0.1857 -0.4525 -0.2762
  308MOL0     C42377   9.951   4.506   5.057 -0.6049  0.2107  0.1885
  308MOL0     C42378   9.957   4.558   4.912  0.5731  0.7326 -0.8038
  308MOL0     C42379  10.093   4.541   4.846  1.1438 -0.5308 -0.1761
  308MOL0     C42380  10.135   4.398   4.815 -1.0130 -0.4545  0.0204
  308MOL0     C42381  10.019   4.326   4.736  0.0901 -1.0263  0.5562
  308MOL0     C42382  10.067   4.180   4.690 -0.6904 -0.3655  0.0360
  308MOL0     N42383  10.117   4.171   4.545 -0.1881  0.6649  0.2712
  308MOL0     C42384  10.036   4.189   4.432  0.2283 -0.3297  0.1207
  308MOL0     C42385  10.104   4.141   4.332 -1.4932  0.0586 -1.2193
  308MOL0     C42386  10.060   4.146   4.187 -0.0869  0.4913 -0.6757
  308MOL0     C42387  10.007   4.015   4.134 -0.7850  0.6032 -0.0570
  308MOL0     C42388   9.954   4.039   3.990  0.5178 -0.6704  0.0210
  308MOL0     C42389  10.052   4.097   3.890 -1.4310 -0.4810 -0.5493
  308MOL0     O42390  10.171   4.028   3.894 -0.0895 -0.1216  0.3638
  308MOL0     C42391  10.273   4.063   3.805 -0.7654 -0.4809 -0.5974
  308MOL0     C42392  10.302   4.191   3.762 -0.5012  0.3074  0.5180
  308MOL0     C42393  10.420   4.219   3.685  0.1417 -0.6631 -0.1515
  308MOL0     C42394  10.444   4.368   3.659  0.6008 -0.6960  0.4964
  308MOL0     C42395  10.518   4.119   3.656  0.7728 -0.9587  0.2208
  308MOL0     C42396  10.651   4.143   3.585  0.5533  0.2134  0.8400
  308MOL0     O42397  10.749   4.052   3.589  0.0481 -0.8272  0.4791
  308MOL0     C42398  10.874   4.085   3.524  0.2925 -0.3744 -0.5446
  308MOL0     C42399  10.896   4.090   3.388 -0.3232 -0.0890  0.2364
  308MOL0     C42400  11.014   4.133   3.335  0.0762  0.2706 -0.3143
  308MOL0     C42401  11.113   4.184   3.421  0.3294  0.4576  0.9727
  308MOL0     O42402  11.229   4.227   3.363 -0.7006 -0.1767  1.0562
  308MOL0     C42403  11.191   4.339   3.267 -0.6251  1.0263 -0.3704
  308MOL0     C42404  11.331   4.384   3.203  0.3861 -0.1507  0.9398
  308MOL0     C42405  11.426   4.280   3.140  0.6390 -0.2689  0.1051
  308MOL0     C42406  11.572   4.344   3.132 -0.1971 -1.1603  0.8552
  308MOL0     C42407  11.656   4.255   3.033 -0.4025  0.3983  0.2453
  308MOL0     C42408  11.794   4.292   3.002  0.1725 -0.0041  0.8267
  308MOL0     C42409  11.900   4.217   3.069 -0.5703  1.4122 -1.0900
  308MOL0     C42410  11.888   4.227   3.219 -0.3659 -0.0499  0.3888
  308MOL0    Cl42411  12.008   4.155   3.309 -0.0287  0.1385  0.2745
  308MOL0     C42412  11.099   4.178   3.556 -0.2650 -0.1481  0.0425
  308MOL0     C42413  10.976   4.131   3.610 -0.0032 -0.2863  0.3398
  308MOL0     O42414  10.657   4.252   3.522  0.1916 -1.1120 -0.1530
  308MOL0     C42415  10.479   3.984   3.695  0.0626 -0.3860  0.4079
  308MOL0     C42416  10.358   3.959   3.763  0.4023 -0.2659  0.0164
  308MOL0     N42417  10.221   4.092   4.385 -0.0863  0.7007  0.8977
  308MOL0     N42418  10.227   4.089   4.514  0.7608 -0.1032 -0.6495
  308MOL0     C42419   9.977   4.194   5.270  0.7138 -0.0833 -0.9702
  308MOL0     C42420   9.894   4.089   5.272 -0.6752 -0.9534  0.2210
  308MOL0     C42421   9.487   3.873   5.387  0.1093 -0.4975  0.4330
  308MOL0     C42422   9.438   3.838   5.261  0.3291  0.1280 -0.0843
  308MOL0     C42423   9.314   3.766   5.259 -1.2524  0.1445 -0.9976
  308MOL0     C42424   9.253   3.725   5.373 -0.4894 -0.1172 -0.4291
  308MOL0     O42425   9.143   3.645   5.349  0.7537  0.4851  0.0822
  308MOL0     C42426   9.079   3.568   5.458  0.2826 -0.3542 -0.5127
  308MOL0     C42427   8.965   3.649   5.519 -0.3171  0.0058 -0.2209
  308MOL0     C42428   8.840   3.633   5.428 -0.2308 -0.1398  0.0234
  308MOL0     C42429   8.708   3.647   5.510 -0.3710 -0.5558  0.4991
  308MOL0     C42430   8.698   3.773   5.588 -1.3912  0.3864  0.1915
  308MOL0     C42431   8.687   3.871   5.657 -0.2487  0.7233  0.7473
  308MOL0     C42432   9.295   3.756   5.501  1.1629  1.2575 -0.5767
  308MOL0     C42433   9.413   3.831   5.515 -0.5521 -0.6271  0.2819
  308MOL0     C42434   9.440   3.881   5.647 -0.2359  0.4233 -0.5899
  308MOL0     H42435   9.599   4.238   5.313  0.3167 -0.7996 -0.1426
  308MOL0     H42436   9.748   4.424   5.345  1.4190  1.2750 -3.3414
  308MOL0     H42437  10.057   4.623   5.351  2.2898 -1.0018 -1.7036
  308MOL0     H42438   9.887   4.590   5.326 -0.6932  0.1920 -0.4034
  308MOL0     H42439   9.979   4.701   5.133 -1.5319 -1.7153 -4.4604
  308MOL0     H42440  10.131   4.619   5.127 -0.4399  1.6185 -2.2118
  308MOL0     H42441   9.992   4.404   5.062  2.5964  1.4562  2.4032
  308MOL0     H42442   9.846   4.511   5.086 -0.2386  0.5342  1.5191
  308MOL0     H42443   9.871   4.518   4.857 -2.5204  0.7661  3.4983
  308MOL0     H42444   9.920   4.661   4.912 -1.1572  0.1519 -1.8469
  308MOL0     H42445  10.173   4.584   4.907  2.0875 -3.5831  0.9436
  308MOL0     H42446  10.079   4.584   4.747 -0.5312  0.7163  0.5592
  308MOL0     H42447  10.227   4.388   4.757 -2.5124  2.0537 -3.1447
  308MOL0     H42448  10.150   4.352   4.913  2.4182  2.8016  1.2393
  308MOL0     H42449   9.982   4.385   4.651 -0.0713 -1.1056  0.5726
  308MOL0     H42450   9.936   4.307   4.805 -0.6785 -1.3913 -0.4367
  308MOL0     H42451  10.136   4.140   4.766 -2.1291  0.2627  1.7535
  308MOL0     H42452   9.981   4.114   4.703 -1.4713  0.7744  0.9091
  308MOL0     H42453   9.944   4.247   4.426  0.1220 -0.4081  0.8766
  308MOL0     H42454  10.143   4.174   4.123 -0.7054 -0.1769 -1.7985
  308MOL0     H42455   9.980   4.220   4.174 -2.7615 -2.3114 -1.4786
  308MOL0     H42456  10.081   3.935   4.125  0.1348  1.5302 -1.1590
  308MOL0     H42457   9.926   3.982   4.200 -0.5405  1.6546  0.8065
  308MOL0     H42458   9.913   3.949   3.943 -1.0732  1.1851 -2.3781
  308MOL0     H42459   9.877   4.117   3.991  1.0677 -0.1074  1.3401
  308MOL0     H42460   9.999   4.077   3.796  0.1397  1.2540 -1.8553
  308MOL0     H42461  10.063   4.203   3.910 -3.6716 -0.5213  1.3415
  308MOL0     H42462  10.243   4.273   3.803 -1.1003 -0.4963  1.2969
  308MOL0     H42463  10.545   4.398   3.687  1.5950 -0.8258 -2.5576
  308MOL0     H42464  10.373   4.424   3.721 -1.7321 -4.5902  1.6538
  308MOL0     H42465  10.431   4.396   3.554  0.9311  1.6586  1.0316
  308MOL0     H42466  10.823   4.049   3.319 -0.1385 -0.8059  0.4613
  308MOL0     H42467  11.028   4.124   3.228 -2.7297 -3.7780 -0.5683
  308MOL0     H42468  11.135   4.302   3.181 -0.5983 -1.7422  0.7031
  308MOL0     H42469  11.137   4.417   3.321  0.3244  2.4219 -1.3650
  308MOL0     H42470  11.312   4.460   3.127  0.5004 -0.3590  0.7001
  308MOL0     H42471  11.379   4.430   3.289 -0.1269 -0.7950  1.5911
  308MOL0     H42472  11.387   4.245   3.043  1.3113  0.7348 -0.5477
  308MOL0     H42473  11.441   4.191   3.202  3.6982  0.5807  0.7385
  308MOL0     H42474  11.601   4.348   3.237  0.3382 -0.2855  0.6864
  308MOL0     H42475  11.568   4.441   3.082 -2.1766 -1.7061 -0.1354
  308MOL0     H42476  11.662   4.152   3.069  1.1015  0.6347  0.7251
  308MOL0     H42477  11.614   4.265   2.933  1.0611  0.3826 -0.3877
  308MOL0     H42478  11.814   4.395   3.030 -1.1228  0.1556  1.2288
  308MOL0     H42479  11.821   4.269   2.898 -2.1384 -1.4121  0.4557
  308MOL0     H42480  11.985   4.278   3.037 -1.0737  3.1085  0.5956
  308MOL0     H42481  11.897   4.117   3.025 -0.8920  0.7487  0.3634
  308MOL0     H42482  11.793   4.185   3.254 -0.6965 -1.2178 -1.7177
  308MOL0     H42483  11.882   4.332   3.249  1.2262 -0.0401  0.7557
  308MOL0     H42484  11.187   4.205   3.613  0.3700 -0.5248 -0.7432
  308MOL0     H42485  10.961   4.134   3.717 -0.8823  0.2551  0.2104
  308MOL0     H42486  10.548   3.902   3.677 -0.6528 -1.1761  1.1269
  308MOL0     H42487  10.332   3.856   3.787  0.4634 -0.2983 -0.0587
  308MOL0     H42488  10.084   4.182   5.284  0.4885 -1.3564 -0.1775
  308MOL0     H42489   9.938   3.989   5.266  2.3762  0.3691 -2.1857
  308MOL0     H42490   9.487   3.885   5.177  2.0259 -2.7517 -0.8328
  308MOL0     H42491   9.273   3.742   5.161 -0.4489 -3.0290 -0.6498
  308MOL0     H42492   9.036   3.480   5.409  0.4407 -1.6161  1.4935
  308MOL0     H42493   9.153   3.532   5.530  1.8776  2.0257 -0.8125
  308MOL0     H42494   8.993   3.754   5.516 -0.8368  0.1333 -1.0253
  308MOL0     H42495   8.945   3.620   5.622 -2.1062  0.7959 -0.3078
  308MOL0     H42496   8.833   3.725   5.369 -0.0151  0.6011  1.1075
  308MOL0     H42497   8.836   3.537   5.375 -0.7415  1.2240 -2.5659
  308MOL0     H42498   8.691   3.567   5.583  0.9738  0.2617  1.7494
  308MOL0     H42499   8.619   3.650   5.446  1.0317 -1.1550 -1.5685
  308MOL0     H42500   8.654   3.954   5.717  1.8148  0.5252  2.2670
  308MOL0     H42501   9.237   3.730   5.589  2.7140 -1.4272 -0.2292
  308MOL0     H42502   9.390   3.978   5.658 -2.6923 -0.8602  0.2881
  308MOL0     H42503   9.383   3.826   5.723 -0.0416 -1.1456 -1.5446
  308MOL0     H42504   9.547   3.871   5.670 -0.4124 -2.8954 -0.7476
  309MOL0     O42505   1.660   2.620   1.478  0.1096  0.5518  0.6179
  309MOL0     C42506   1.662   2.538   1.574  0.8930  0.6969 -0.8034
  309MOL0     O42507   1.567   2.440   1.600 -0.0760 -0.2649 -0.8559
  309MOL0     C42508   1.474   2.427   1.506  0.4905 -0.9208  0.2945
  309MOL0     C42509   1.371   2.524   1.492 -0.2752  0.5925 -0.2370
  309MOL0     C42510   1.267   2.500   1.407  0.7460 -1.0327  0.2847
  309MOL0     C42511   1.269   2.396   1.316 -0.3232 -0.6227  0.7343
  309MOL0     O42512   1.166   2.394   1.221 -0.6041 -0.4238  0.5591
  309MOL0     C42513   1.160   2.276   1.142 -0.0779 -1.6291  0.0559
  309MOL0     C42514   1.024   2.251   1.084  0.3431 -0.1182  0.2365
  309MOL0     C42515   0.911   2.289   1.184 -0.2040  0.1059  1.6588
  309MOL0     C42516   0.774   2.265   1.121  0.8472  0.0436 -0.8010
  309MOL0     C42517   0.656   2.293   1.222  0.0279 -0.1088  0.7757
  309MOL0     C42518   0.620   2.444   1.228  0.1824 -0.2175  0.4358
  309MOL0     C42519   0.521   2.461   1.337  0.8295 -0.4964 -1.1415
  309MOL0     C42520   0.380   2.501   1.295 -0.1668  0.7019 -0.7342
  309MOL0     N42521   0.368   2.642   1.264 -0.0990  0.0629  0.7964
  309MOL0     C42522   0.399   2.750   1.353  1.0314  0.0984  0.0036
  309MOL0     C42523   0.355   2.868   1.282  0.0238  0.8167  0.6295
  309MOL0     C42524   0.375   3.015   1.319  0.0319 -0.3202 -0.1153
  309MOL0     C42525   0.518   3.084   1.294 -0.0141  0.7093  0.6904
  309MOL0     C42526   0.551   3.064   1.143 -0.1816 -0.5420  0.2948
  309MOL0     C42527   0.673   3.151   1.096 -0.1568  0.6408  0.9546
  309MOL0     O42528   0.670   3.274   1.159  0.1060 -0.1545 -0.0433
  309MOL0     C42529   0.755   3.372   1.115  0.1604 -0.5849 -1.6408
  309MOL0     C42530   0.748   3.411   0.987 -0.3443  0.2798  0.6090
  309MOL0     C42531   0.823   3.525   0.953 -0.2400 -0.9007 -0.0753
  309MOL0     C42532   0.819   3.554   0.805 -0.1652 -0.0230 -0.2853
  309MOL0     C42533   0.910   3.585   1.050 -0.1974 -0.5819  0.9668
  309MOL0     C42534   0.995   3.707   1.026 -0.2111 -0.2662  0.1779
  309MOL0     O42535   1.054   3.733   0.906 -0.4329 -0.4623 -0.8265
  309MOL0     C42536   1.155   3.829   0.907 -0.3098  0.0901 -0.6641
  309MOL0     C42537   1.125   3.958   0.874 -0.3975 -0.4451  1.0284
  309MOL0     C42538   1.226   4.059   0.860 -0.9574 -0.1488  0.1818
  309MOL0     C42539   1.362   4.033   0.872  0.9424 -0.3323  0.0386
  309MOL0     O42540   1.458   4.128   0.845 -0.1193  0.2834 -0.2617
  309MOL0     C42541   1.604   4.103   0.841  0.5894 -0.3134 -0.4429
  309MOL0     C42542   1.667   4.135   0.976  0.6636 -0.1377 -0.5762
  309MOL0     C42543   1.825   4.130   0.969  0.6266  0.3486  0.8925
  309MOL0     C42544   1.872   4.125   1.106  0.7883 -0.0631 -0.4093
  309MOL0     C42545   2.022   4.127   1.100  0.0963  0.6029 -0.5257
  309MOL0     C42546   2.089   4.150   1.235 -0.1654  0.0763  0.4610
  309MOL0     C42547   2.245   4.177   1.238  1.1598  0.5638 -0.1506
  309MOL0     C42548   2.290   4.194   1.379 -0.1105 -0.2982 -0.0535
  309MOL0    Cl42549   2.473   4.193   1.365  0.4020 -0.0761 -0.2650
  309MOL0     C42550   1.393   3.899   0.914 -0.2482  0.1640  0.0890
  309MOL0     C42551   1.288   3.806   0.931  0.5709  0.6422  0.6145
  309MOL0     O42552   0.998   3.782   1.124 -0.0500 -0.4230  0.1498
  309MOL0     C42553   0.904   3.536   1.185 -0.7363 -0.5980  0.8224
  309MOL0     C42554   0.840   3.424   1.214  0.6435  1.1102 -0.3551
  309MOL0     N42555   0.325   2.822   1.153 -0.5155 -0.1556  0.5593
  309MOL0     N42556   0.329   2.693   1.142 -0.3514 -1.0029  0.3877
  309MOL0     C42557   1.381   2.305   1.321  0.6275 -1.0866 -0.0724
  309MOL0     C42558   1.486   2.325   1.412  0.2376  0.1444 -0.1518
  309MOL0     C42559   1.769   2.554   1.678  0.8024  1.0521  0.6727
  309MOL0     C42560   1.749   2.502   1.806  0.0988  0.3566  0.9379
  309MOL0     C42561   1.856   2.486   1.891  0.9953  0.5031 -0.1484
  309MOL0     C42562   1.965   2.562   1.873 -1.3361  0.6030 -0.1718
  309MOL0     O42563   2.061   2.567   1.971  0.0107 -0.0051  0.4834
  309MOL0     C42564   2.053   2.499   2.094  0.5881 -0.2379  0.4917
  309MOL0     C42565   2.176   2.521   2.185  0.0035  0.2682  0.0608
  309MOL0     C42566   2.156   2.659   2.257  0.2078  0.5182  0.1358
  309MOL0     C42567   2.259   2.688   2.357 -0.6595  0.7745  0.1591
  309MOL0     C42568   2.236   2.809   2.433  0.2342  0.2056 -0.7254
  309MOL0     C42569   2.195   2.920   2.474  0.3782  0.0190 -0.3888
  309MOL0     C42570   1.982   2.640   1.762 -0.8207  0.5936  0.1239
  309MOL0     C42571   1.890   2.623   1.657 -0.0098 -0.1598 -0.2759
  309MOL0     C42572   1.914   2.704   1.539 -0.0295  0.4659 -0.0318
  309MOL0     H42573   1.374   2.608   1.560  0.0065  0.7882 -0.4851
  309MOL0     H42574   1.186   2.571   1.395  1.4561 -0.3886 -0.8754
  309MOL0     H42575   1.186   2.184   1.195  1.2976 -0.2938  1.8198
  309MOL0     H42576   1.228   2.271   1.056 -0.3065  0.1609 -0.2830
  309MOL0     H42577   1.010   2.302   0.989 -1.8284 -2.0986 -0.6014
  309MOL0     H42578   1.016   2.146   1.054  1.9894  0.6968 -3.6811
  309MOL0     H42579   0.925   2.232   1.277  2.2399  1.8735  2.4967
  309MOL0     H42580   0.926   2.394   1.212  2.1505  0.9614 -2.1277
  309MOL0     H42581   0.757   2.318   1.027 -1.1195  1.3166  0.1942
  309MOL0     H42582   0.770   2.156   1.113 -1.6048 -0.2406  2.4444
  309MOL0     H42583   0.691   2.255   1.318  3.5367 -0.4846 -0.5228
  309MOL0     H42584   0.575   2.234   1.179 -0.1802 -0.0373  1.0667
  309MOL0     H42585   0.712   2.498   1.253  1.2908 -0.8934 -1.9043
  309MOL0     H42586   0.588   2.474   1.128  1.5408 -0.5904 -0.1301
  309MOL0     H42587   0.550   2.554   1.388  0.4951  0.2467 -2.2865
  309MOL0     H42588   0.521   2.376   1.407  1.8903  1.1629  1.0205
  309MOL0     H42589   0.348   2.436   1.213 -0.8796 -0.7859  0.6895
  309MOL0     H42590   0.301   2.494   1.370 -0.1106  0.0240 -0.7371
  309MOL0     H42591   0.440   2.740   1.453  0.3764  3.4135  0.7020
  309MOL0     H42592   0.341   3.028   1.422 -0.4035 -2.0432 -0.0235
  309MOL0     H42593   0.311   3.079   1.257 -1.3419  1.2545  2.7282
  309MOL0     H42594   0.507   3.191   1.315 -2.8689  0.0732  3.1950
  309MOL0     H42595   0.600   3.039   1.351  0.5118 -2.4130 -2.2048
  309MOL0     H42596   0.546   2.966   1.095 -1.5334  0.6258 -2.1849
  309MOL0     H42597   0.471   3.116   1.089  2.2310  1.2294 -1.7946
  309MOL0     H42598   0.749   3.087   1.142 -2.3698 -3.6397 -0.7289
  309MOL0     H42599   0.684   3.154   0.987  0.8445  2.0139  1.0695
  309MOL0     H42600   0.686   3.356   0.916 -2.1870  2.1984  0.6378
  309MOL0     H42601   0.732   3.618   0.787 -0.1386  0.7972  2.1618
  309MOL0     H42602   0.817   3.457   0.753 -0.9372 -0.4070  0.4342
  309MOL0     H42603   0.915   3.599   0.780 -0.2193 -0.9651 -2.4490
  309MOL0     H42604   1.018   3.973   0.859 -0.3186 -2.4775 -2.8290
  309MOL0     H42605   1.191   4.157   0.830 -1.7533 -0.1439  1.0592
  309MOL0     H42606   1.624   4.004   0.801 -0.0719 -0.1131 -1.3123
  309MOL0     H42607   1.643   4.184   0.778 -0.7207  0.0465 -0.8379
  309MOL0     H42608   1.632   4.235   1.003  0.8269 -0.6745  1.8399
  309MOL0     H42609   1.630   4.071   1.056 -0.0158  2.9041  1.7178
  309MOL0     H42610   1.869   4.213   0.913  0.9523 -0.1319  0.4212
  309MOL0     H42611   1.873   4.045   0.919 -0.9391 -2.8023  4.2163
  309MOL0     H42612   1.847   4.036   1.165 -0.3662  0.5913  0.1245
  309MOL0     H42613   1.848   4.217   1.161  0.8058  1.2015 -2.4303
  309MOL0     H42614   2.063   4.029   1.074  0.7268 -0.2778  3.2021
  309MOL0     H42615   2.053   4.200   1.024  1.7177  0.3550 -0.1432
  309MOL0     H42616   2.074   4.065   1.302  1.0519  0.1638  0.8598
  309MOL0     H42617   2.041   4.237   1.280 -1.0275 -1.0676  1.8504
  309MOL0     H42618   2.257   4.264   1.172 -0.6106 -0.0484 -1.3742
  309MOL0     H42619   2.299   4.093   1.193  2.7708  1.5074 -0.0678
  309MOL0     H42620   2.243   4.113   1.436 -4.6515  0.3410 -2.4195
  309MOL0     H42621   2.261   4.293   1.415  0.1970  1.4214 -4.0836
  309MOL0     H42622   1.493   3.866   0.941 -0.8996 -1.4608  0.6695
  309MOL0     H42623   1.308   3.702   0.952 -0.7643  0.0605 -0.8083
  309MOL0     H42624   0.961   3.574   1.269 -0.1044 -2.4054  1.2571
  309MOL0     H42625   0.844   3.375   1.311  1.7830 -0.3486 -1.0934
  309MOL0     H42626   1.387   2.210   1.270  0.3267 -1.5728  0.7820
  309MOL0     H42627   1.571   2.257   1.413 -0.5110 -0.8642  2.0697
  309MOL0     H42628   1.651   2.475   1.844 -0.7104 -0.2763 -1.4424
  309MOL0     H42629   1.836   2.414   1.970 -0.7456  0.5260 -0.5294
  309MOL0     H42630   1.961   2.528   2.145  1.4370  5.0786 -0.3880
  309MOL0     H42631   2.053   2.396   2.058 -1.6198  0.0072 -0.3709
  309MOL0     H42632   2.268   2.531   2.127 -0.9553  2.1966 -1.2361
  309MOL0     H42633   2.194   2.438   2.254 -0.4528  1.6341  1.9322
  309MOL0     H42634   2.141   2.731   2.176 -3.4613 -2.0671 -1.7740
  309MOL0     H42635   2.067   2.659   2.319 -1.6814  0.9952 -2.4251
  309MOL0     H42636   2.357   2.689   2.308 -1.6281 -1.8389 -2.1095
  309MOL0     H42637   2.255   2.603   2.426 -1.6227 -0.5090 -1.4176
  309MOL0     H42638   2.144   3.004   2.517 -0.3141 -1.7916  2.6568
  309MOL0     H42639   2.067   2.706   1.752 -0.8171  0.4428 -0.9925
  309MOL0     H42640   1.849   2.792   1.528  1.7054  2.0623  1.6901
  309MOL0     H42641   2.014   2.747   1.543 -0.8721  2.5859  4.1475
  309MOL0     H42642   1.904   2.655   1.441  4.7616 -1.0271 -0.0315
  310MOL0     O42643  11.182   0.283   9.465  0.2046 -0.0931  0.5162
  310MOL0     C42644  11.252   0.374   9.418  0.8891 -0.0263  0.0005
  310MOL0     O42645  11.254   0.500   9.481 -1.1739  0.8846 -0.7408
  310MOL0     C42646  11.211   0.504   9.610 -0.8509 -0.4063  0.6468
  310MOL0     C42647  11.091   0.478   9.665 -0.3011 -0.4817 -0.6312
  310MOL0     C42648  11.072   0.490   9.796 -0.0961  1.1543  0.7126
  310MOL0     C42649  11.178   0.518   9.888  0.6501  0.7134 -0.1815
  310MOL0     O42650  11.141   0.522  10.021 -0.2518 -0.3808 -0.3575
  310MOL0     C42651  11.220   0.613  10.095 -0.2679  0.0167 -0.2191
  310MOL0     C42652  11.158   0.620  10.238  0.2486 -0.0018 -0.8988
  310MOL0     C42653  11.229   0.717  10.338 -0.0522  0.2314  0.1340
  310MOL0     C42654  11.363   0.670  10.403  0.0958 -0.3227 -0.7469
  310MOL0     C42655  11.483   0.745  10.359 -1.1313  0.2039 -0.3775
  310MOL0     C42656  11.608   0.659  10.358  0.9072 -0.1064 -0.9383
  310MOL0     C42657  11.741   0.734  10.341 -0.5927 -0.0626  0.1995
  310MOL0     C42658  11.781   0.829  10.447 -0.1023 -0.4263 -0.4819
  310MOL0     N42659  11.839   0.791  10.576  0.9511  0.5112  0.3210
  310MOL0     C42660  11.928   0.694  10.593  0.1556  1.3147  0.3259
  310MOL0     C42661  11.921   0.650  10.719 -0.7133  0.9455 -0.2712
  310MOL0     C42662  12.032   0.566  10.779  0.4647  1.0107 -0.3982
  310MOL0     C42663  12.125   0.655  10.865 -0.0908  0.0589  0.0201
  310MOL0     C42664  12.226   0.587  10.953 -1.2903 -0.7997  0.0804
  310MOL0     C42665  12.323   0.686  11.014 -0.4446 -0.5065  0.7859
  310MOL0     O42666  12.419   0.730  10.915 -0.4372  0.7582 -0.0600
  310MOL0     C42667  12.519   0.819  10.945  0.2972  0.0459 -0.0410
  310MOL0     C42668  12.548   0.861  11.074 -0.4624 -0.3815 -1.0740
  310MOL0     C42669  12.654   0.952  11.101  1.1284  0.2119 -0.0445
  310MOL0     C42670  12.686   0.972  11.247 -0.1853 -0.6688 -0.8126
  310MOL0     C42671  12.718   1.013  10.996 -0.9300 -0.3468 -0.5813
  310MOL0     C42672  12.826   1.116  11.013  0.1207  0.8259 -0.7678
  310MOL0     O42673  12.876   1.164  10.900 -0.0959  0.1952  0.8669
  310MOL0     C42674  13.005   1.225  10.897 -0.6548 -0.2047  0.4416
  310MOL0     C42675  13.112   1.163  10.972 -0.7919 -0.1597  0.3872
  310MOL0     C42676  13.252   1.201  10.962  0.3542 -0.2861  0.7094
  310MOL0     C42677  13.278   1.310  10.885 -0.4746  1.0958  0.7937
  310MOL0     O42678  13.400   1.361  10.895  0.2703  0.1092 -0.2311
  310MOL0     C42679  13.469   1.390  10.774 -0.5891  0.7672 -0.2232
  310MOL0     C42680  13.606   1.324  10.740  0.0865 -0.0155 -0.3610
  310MOL0     C42681  13.681   1.414  10.637  0.7503  0.0391 -0.1002
  310MOL0     C42682  13.796   1.358  10.562  1.0392 -0.2558  0.8646
  310MOL0     C42683  13.900   1.301  10.653  0.9970  0.0295  0.7155
  310MOL0     C42684  14.002   1.215  10.573  0.4075  0.6598 -0.0489
  310MOL0     C42685  14.082   1.298  10.469  0.4247  1.0587  0.1643
  310MOL0     C42686  14.187   1.222  10.395 -0.5465 -0.1292 -0.3070
  310MOL0    Cl42687  14.261   1.337  10.299 -0.1480  0.0325  0.2843
  310MOL0     C42688  13.176   1.371  10.807  0.2034 -0.1308  0.9271
  310MOL0     C42689  13.041   1.329  10.814 -1.0429 -1.3078 -1.0417
  310MOL0     O42690  12.865   1.157  11.122  1.6721  0.2049 -0.0896
  310MOL0     C42691  12.677   0.981  10.866  0.4935  0.2702  0.7817
  310MOL0     C42692  12.582   0.873  10.838 -1.1047 -0.3645 -0.4878
  310MOL0     N42693  11.823   0.719  10.785  0.3147  0.0576  0.1009
  310MOL0     N42694  11.765   0.796  10.696  0.0623 -0.4000 -0.1170
  310MOL0     C42695  11.304   0.542   9.831  0.0144  0.3563 -0.1626
  310MOL0     C42696  11.317   0.543   9.691 -0.1463 -0.1711  0.7018
  310MOL0     C42697  11.332   0.343   9.298  0.0275  0.4460  1.5004
  310MOL0     C42698  11.408   0.443   9.239 -0.6199 -0.1239 -1.0625
  310MOL0     C42699  11.507   0.419   9.137 -0.1283 -0.5389  0.4077
  310MOL0     C42700  11.506   0.300   9.066 -0.1316  0.8615  0.0111
  310MOL0     O42701  11.579   0.289   8.954 -0.4011 -0.4445  0.6481
  310MOL0     C42702  11.574   0.181   8.870 -0.1833  0.0211 -0.1577
  310MOL0     C42703  11.655   0.055   8.910 -0.3692 -0.2892 -0.2471
  310MOL0     C42704  11.803   0.075   8.935  0.0133 -0.1772 -0.5234
  310MOL0     C42705  11.859  -0.052   9.008 -1.1503  0.7269  0.4116
  310MOL0     C42706  11.840  -0.157   8.909 -0.3095  0.1406 -0.7281
  310MOL0     C42707  11.812  -0.244   8.830  0.0853  0.0747  0.0910
  310MOL0     C42708  11.430   0.192   9.115 -0.0448 -1.7984 -0.5234
  310MOL0     C42709  11.356   0.210   9.235  0.5240  0.8281 -0.4832
  310MOL0     C42710  11.286   0.084   9.284  0.2579 -0.3378 -0.1846
  310MOL0     H42711  11.009   0.460   9.596  0.5999 -1.3963 -1.5014
  310MOL0     H42712  10.968   0.489   9.829  0.3763  0.1742  2.2781
  310MOL0     H42713  11.231   0.711  10.049 -2.9344 -0.0986 -1.2610
  310MOL0     H42714  11.323   0.576  10.091 -0.8025 -1.4156 -1.7063
  310MOL0     H42715  11.052   0.646  10.230  0.4849  2.5650  2.3079
  310MOL0     H42716  11.153   0.518  10.278  0.6875  0.7178  1.1270
  310MOL0     H42717  11.244   0.812  10.286  0.6155 -0.2553 -0.5689
  310MOL0     H42718  11.148   0.727  10.411 -0.7141  1.1881 -0.6953
  310MOL0     H42719  11.356   0.693  10.510  3.5058  0.6380 -0.6049
  310MOL0     H42720  11.380   0.562  10.395 -0.8553 -0.3472 -3.4689
  310MOL0     H42721  11.491   0.834  10.422  0.4311  0.5828 -1.0581
  310MOL0     H42722  11.459   0.767  10.254 -1.8146 -1.6367 -0.6441
  310MOL0     H42723  11.610   0.609  10.455 -0.7959 -0.0765 -0.8644
  310MOL0     H42724  11.596   0.591  10.273 -0.7181 -1.3853  0.2402
  310MOL0     H42725  11.732   0.783  10.243  0.7824 -0.6657 -0.2540
  310MOL0     H42726  11.824   0.663  10.339  1.6035  2.3187 -2.3361
  310MOL0     H42727  11.870   0.878  10.407  0.1153  3.3461  3.8564
  310MOL0     H42728  11.706   0.908  10.457 -0.3335 -0.0010 -4.1552
  310MOL0     H42729  12.000   0.657  10.520  0.1631 -1.5497  1.6331
  310MOL0     H42730  12.091   0.513  10.703 -2.4789  0.2198 -2.2948
  310MOL0     H42731  11.983   0.498  10.848 -0.3916  0.0786 -1.8818
  310MOL0     H42732  12.171   0.729  10.799 -0.0381 -1.1150 -1.2910
  310MOL0     H42733  12.064   0.711  10.936  1.8520  1.9351  0.3085
  310MOL0     H42734  12.188   0.526  11.036 -0.0235 -1.5319  0.1532
  310MOL0     H42735  12.284   0.528  10.881  0.3431  0.9634 -0.1426
  310MOL0     H42736  12.265   0.776  11.037 -0.1062 -0.2489  0.6567
  310MOL0     H42737  12.374   0.638  11.098 -0.8070 -0.2843  1.1375
  310MOL0     H42738  12.499   0.820  11.162 -0.4715  1.2340 -0.2966
  310MOL0     H42739  12.637   0.907  11.319 -1.8062  1.3444  0.0125
  310MOL0     H42740  12.675   1.076  11.279  2.8387 -1.4454  3.5172
  310MOL0     H42741  12.794   0.958  11.252  0.0862  1.5060  0.6087
  310MOL0     H42742  13.094   1.078  11.038 -0.1837 -0.8807 -0.3564
  310MOL0     H42743  13.335   1.151  11.010 -1.3544 -1.6654  2.3801
  310MOL0     H42744  13.396   1.374  10.694  1.2724 -0.6168 -1.7249
  310MOL0     H42745  13.498   1.495  10.786 -0.7461  0.5548  2.7037
  310MOL0     H42746  13.665   1.318  10.831 -1.8786 -0.9915  0.9197
  310MOL0     H42747  13.603   1.220  10.707 -4.5328 -0.2704  0.1084
  310MOL0     H42748  13.713   1.504  10.690  1.1297  0.4112 -0.9551
  310MOL0     H42749  13.609   1.424  10.556 -0.2771 -0.7449  0.6892
  310MOL0     H42750  13.831   1.431  10.489 -0.0537 -1.4788 -0.9549
  310MOL0     H42751  13.756   1.284  10.492 -1.2064  0.9824  0.7292
  310MOL0     H42752  13.945   1.393  10.691 -0.5491  1.6045 -1.0836
  310MOL0     H42753  13.848   1.250  10.735 -0.8564  0.7182  0.0059
  310MOL0     H42754  13.937   1.136  10.535 -1.6231  1.4063  1.6295
  310MOL0     H42755  14.077   1.173  10.641 -0.7595  3.7210  3.4894
  310MOL0     H42756  14.126   1.388  10.513  1.8473  1.6481 -2.2476
  310MOL0     H42757  14.017   1.344  10.394  0.1919 -3.3950 -2.7288
  310MOL0     H42758  14.141   1.137  10.343 -1.8572  0.4338 -0.0841
  310MOL0     H42759  14.256   1.185  10.472 -0.1800 -1.2140 -1.1175
  310MOL0     H42760  13.207   1.468  10.770 -1.3058  1.1372  2.7911
  310MOL0     H42761  12.953   1.369  10.765 -1.8667  0.4071  1.6050
  310MOL0     H42762  12.702   1.032  10.773 -0.4292  0.0636  0.4090
  310MOL0     H42763  12.551   0.836  10.742 -1.4863 -0.2366 -0.4163
  310MOL0     H42764  11.385   0.564   9.901 -1.1541  1.5510  0.8695
  310MOL0     H42765  11.413   0.559   9.644 -0.4626 -1.0714 -0.3080
  310MOL0     H42766  11.405   0.549   9.264  2.0577  0.7027 -3.5451
  310MOL0     H42767  11.572   0.499   9.102 -3.3473  2.8388  1.5665
  310MOL0     H42768  11.471   0.147   8.854  0.0010 -2.5077  2.8476
  310MOL0     H42769  11.607   0.206   8.769 -0.4444 -1.2748 -0.5886
  310MOL0     H42770  11.645  -0.032   8.844  0.3690 -0.8730  0.3782
  310MOL0     H42771  11.589   0.019   8.989 -1.3134 -0.8452 -1.2677
  310MOL0     H42772  11.865   0.098   8.849  3.5577 -3.7566  0.7827
  310MOL0     H42773  11.823   0.157   9.004  2.3448 -1.0056 -0.1164
  310MOL0     H42774  11.794  -0.071   9.094 -0.3012 -1.6571  0.6037
  310MOL0     H42775  11.965  -0.055   9.035 -1.3191 -0.8538  1.0327
  310MOL0     H42776  11.787  -0.324   8.764 -0.6092  1.9772 -2.0710
  310MOL0     H42777  11.418   0.092   9.076 -0.6259 -1.8079 -0.3294
  310MOL0     H42778  11.177   0.083   9.296  0.3924 -1.0359  1.1663
  310MOL0     H42779  11.299   0.004   9.211  0.4231  0.0694 -0.6037
  310MOL0     H42780  11.325   0.052   9.381 -0.7123  0.4045  0.4744
  311MOL0     O42781  10.485   2.276   6.076 -0.1300 -0.4561 -0.6258
  311MOL0     C42782  10.494   2.311   5.960 -0.7259 -0.1403  0.3026
  311MOL0     O42783  10.448   2.429   5.905 -0.3971  0.2013 -0.3691
  311MOL0     C42784  10.355   2.506   5.978  0.1694  0.0584 -0.0971
  311MOL0     C42785  10.352   2.644   5.944 -0.4400  0.2922  0.2394
  311MOL0     C42786  10.247   2.727   5.989 -1.0378  0.3463  0.0570
  311MOL0     C42787  10.148   2.686   6.078  0.3616 -0.4334 -0.2069
  311MOL0     O42788  10.046   2.774   6.111  0.0094  0.3895 -0.6986
  311MOL0     C42789   9.932   2.716   6.173 -0.1035 -0.0304 -0.3848
  311MOL0     C42790   9.805   2.790   6.140 -0.6387 -0.3350 -0.1973
  311MOL0     C42791   9.680   2.722   6.192 -0.4750  0.8247 -0.3440
  311MOL0     C42792   9.554   2.795   6.167  0.0486  0.5119  0.0535
  311MOL0     C42793   9.545   2.922   6.245  1.7029  0.3805 -0.3400
  311MOL0     C42794   9.411   2.986   6.212 -0.3440  0.6196  0.3145
  311MOL0     C42795   9.427   3.073   6.082  0.1471  0.7319  0.5755
  311MOL0     C42796   9.291   3.086   6.000  0.5022  0.7462  0.0941
  311MOL0     N42797   9.229   2.955   5.964  0.3769 -0.6956 -0.0812
  311MOL0     C42798   9.116   2.896   6.022  0.2887 -0.1946 -0.1871
  311MOL0     C42799   9.121   2.773   5.976 -0.3233 -0.8123  0.3622
  311MOL0     C42800   9.009   2.682   6.011  1.0509 -0.3352  0.5437
  311MOL0     C42801   9.043   2.593   6.129 -0.8829 -0.9288  0.2011
  311MOL0     C42802   9.164   2.493   6.113 -0.0267  0.2347  0.0990
  311MOL0     C42803   9.207   2.429   6.247 -0.3387 -0.8996 -0.1287
  311MOL0     O42804   9.132   2.304   6.255  0.3197  0.3812 -0.0607
  311MOL0     C42805   9.146   2.223   6.361 -0.2250  0.5407  0.1503
  311MOL0     C42806   9.246   2.240   6.450 -1.3262  0.2613 -0.3908
  311MOL0     C42807   9.265   2.156   6.567 -0.3240  0.1720 -0.4196
  311MOL0     C42808   9.383   2.186   6.658 -0.9648 -0.2178 -0.0226
  311MOL0     C42809   9.179   2.048   6.581  0.5785 -0.0480  0.0013
  311MOL0     C42810   9.192   1.956   6.690  0.1079 -0.1806 -0.8829
  311MOL0     O42811   9.298   1.875   6.685 -0.5633  0.4054 -0.7971
  311MOL0     C42812   9.346   1.814   6.804 -0.2275 -1.4191 -0.1123
  311MOL0     C42813   9.305   1.845   6.942 -0.3550  1.0149 -0.3232
  311MOL0     C42814   9.361   1.753   7.041 -0.1035 -0.5144 -0.2204
  311MOL0     C42815   9.464   1.664   7.012 -0.5183  0.4145 -0.2678
  311MOL0     O42816   9.531   1.569   7.090 -0.3242 -0.8054 -0.4132
  311MOL0     C42817   9.475   1.534   7.210  0.6529  0.2897  0.0184
  311MOL0     C42818   9.543   1.421   7.276 -0.1616  0.8990  0.7166
  311MOL0     C42819   9.675   1.475   7.333  0.5993 -0.7549  0.0296
  311MOL0     C42820   9.750   1.379   7.430  0.7358 -0.8539  0.7089
  311MOL0     C42821   9.675   1.354   7.558 -0.9950 -0.0219  0.2998
  311MOL0     C42822   9.753   1.271   7.665  0.0849  0.0001 -0.2738
  311MOL0     C42823   9.764   1.128   7.620 -0.7469  0.8585 -0.4713
  311MOL0     C42824   9.835   1.041   7.728  0.5101  0.6507 -0.3712
  311MOL0    Cl42825   9.769   1.026   7.895  0.2354 -0.3867  0.2740
  311MOL0     C42826   9.511   1.652   6.880  0.2107 -0.2715 -0.8867
  311MOL0     C42827   9.442   1.724   6.780 -1.0374  0.1955 -0.4612
  311MOL0     O42828   9.093   1.946   6.769 -1.0037  0.1686 -0.3055
  311MOL0     C42829   9.073   2.022   6.487  0.2341 -0.0366  0.3380
  311MOL0     C42830   9.054   2.117   6.380  0.5247  0.1080 -0.2790
  311MOL0     N42831   9.223   2.753   5.891 -0.0614 -0.2392 -0.4577
  311MOL0     N42832   9.281   2.868   5.867 -0.0386 -0.1393 -0.2738
  311MOL0     C42833  10.159   2.549   6.106 -0.9210 -0.4176  0.7101
  311MOL0     C42834  10.256   2.462   6.060  0.5804  1.1487  1.6093
  311MOL0     C42835  10.574   2.223   5.858  0.9038  0.0098 -0.3876
  311MOL0     C42836  10.509   2.107   5.802  0.3014 -0.4926  0.4321
  311MOL0     C42837  10.572   2.025   5.709  0.3908 -0.3731 -0.9434
  311MOL0     C42838  10.710   2.057   5.681  0.2003  0.2022  0.3959
  311MOL0     O42839  10.782   1.976   5.598 -0.1492 -0.6615  0.6860
  311MOL0     C42840  10.788   1.844   5.649 -0.0547  0.4511 -0.4287
  311MOL0     C42841  10.891   1.763   5.552  0.8254  1.0241 -0.6063
  311MOL0     C42842  10.821   1.736   5.415 -0.7445 -0.1375 -0.5293
  311MOL0     C42843  10.739   1.607   5.415 -0.2185 -0.2384  0.4935
  311MOL0     C42844  10.601   1.632   5.467  0.1522 -0.3025 -0.4544
  311MOL0     C42845  10.490   1.665   5.520  0.2621  0.3157  0.2608
  311MOL0     C42846  10.771   2.167   5.725  0.3555 -1.3167  0.4575
  311MOL0     C42847  10.704   2.256   5.814  0.4605  0.2150  0.6065
  311MOL0     C42848  10.784   2.373   5.866 -0.1032  0.2749  0.3048
  311MOL0     H42849  10.439   2.677   5.888 -2.6793  2.4923 -2.2975
  311MOL0     H42850  10.252   2.826   5.944  0.6575 -0.7208 -2.3035
  311MOL0     H42851   9.955   2.714   6.280  0.6036  2.0440 -0.4542
  311MOL0     H42852   9.917   2.612   6.142 -1.2944  0.2892 -0.9389
  311MOL0     H42853   9.808   2.893   6.175 -0.6303  0.5774 -2.7018
  311MOL0     H42854   9.806   2.789   6.031 -1.3612  3.0975 -0.3475
  311MOL0     H42855   9.670   2.627   6.139 -0.1481  2.1449 -2.8989
  311MOL0     H42856   9.683   2.700   6.299 -0.7975  2.2886 -0.0059
  311MOL0     H42857   9.549   2.799   6.058  0.7631 -2.4832 -0.1928
  311MOL0     H42858   9.472   2.732   6.202  0.4236  0.7126  1.3474
  311MOL0     H42859   9.618   3.002   6.226 -0.1039  2.4394  0.9773
  311MOL0     H42860   9.549   2.903   6.352 -0.0364  3.0945  0.2995
  311MOL0     H42861   9.332   2.913   6.193  2.0855 -2.1756  0.1601
  311MOL0     H42862   9.391   3.049   6.299 -0.2492  2.4958 -0.9705
  311MOL0     H42863   9.507   3.026   6.024 -1.2645 -4.5809  2.3493
  311MOL0     H42864   9.462   3.174   6.105 -1.6709  1.6651 -0.5369
  311MOL0     H42865   9.231   3.151   6.064 -0.5989  0.7587 -0.9025
  311MOL0     H42866   9.309   3.142   5.908 -0.2401  1.7150  0.5170
  311MOL0     H42867   9.030   2.928   6.079 -1.3471 -3.4739 -0.6059
  311MOL0     H42868   8.983   2.618   5.926  1.2434 -1.6856  1.4715
  311MOL0     H42869   8.915   2.738   6.019  1.6895  1.0827 -1.2840
  311MOL0     H42870   9.052   2.656   6.218 -2.1665 -0.5720  0.1082
  311MOL0     H42871   8.954   2.537   6.162 -0.4434 -2.2299 -0.7495
  311MOL0     H42872   9.138   2.420   6.036 -0.7887  1.5472 -0.9351
  311MOL0     H42873   9.252   2.542   6.069  0.6283 -4.1696 -4.3881
  311MOL0     H42874   9.314   2.428   6.267 -0.3495 -1.4884 -0.0613
  311MOL0     H42875   9.164   2.488   6.328 -3.2178 -0.1080 -2.0603
  311MOL0     H42876   9.322   2.315   6.431 -2.4993  1.9198  1.1533
  311MOL0     H42877   9.369   2.287   6.696 -0.6957 -0.9193  2.0903
  311MOL0     H42878   9.474   2.166   6.602 -0.7165  0.1162  0.2577
  311MOL0     H42879   9.396   2.137   6.755  2.3462  0.6631  0.0880
  311MOL0     H42880   9.234   1.923   6.966 -1.6840 -0.1580 -0.3727
  311MOL0     H42881   9.318   1.773   7.139 -4.8824 -1.5633 -1.8541
  311MOL0     H42882   9.472   1.621   7.277  1.8376  0.1955  0.2187
  311MOL0     H42883   9.368   1.514   7.198  0.5008  1.5876 -0.9395
  311MOL0     H42884   9.483   1.381   7.358  2.1098  0.7318  2.3971
  311MOL0     H42885   9.579   1.354   7.196  3.4059  0.8401  2.1661
  311MOL0     H42886   9.651   1.561   7.397  1.2062  0.3157 -1.1257
  311MOL0     H42887   9.760   1.498   7.268  1.9214  0.3818  2.0363
  311MOL0     H42888   9.850   1.414   7.457  1.0033 -1.2815  0.2941
  311MOL0     H42889   9.767   1.279   7.389 -0.2490 -0.8467  0.2498
  311MOL0     H42890   9.662   1.443   7.621 -0.3414  0.2455  0.0679
  311MOL0     H42891   9.571   1.328   7.539 -1.1822  0.0631  1.1825
  311MOL0     H42892   9.697   1.283   7.758 -0.6191  0.3061 -0.7257
  311MOL0     H42893   9.856   1.305   7.683 -0.9417  2.4439  1.5886
  311MOL0     H42894   9.810   1.113   7.522 -0.3081 -2.1087  0.0748
  311MOL0     H42895   9.666   1.082   7.605  0.0651 -1.6163  1.1850
  311MOL0     H42896   9.935   1.074   7.753 -0.6776  3.9868  0.4242
  311MOL0     H42897   9.838   0.941   7.682 -1.6660  1.1002 -1.6769
  311MOL0     H42898   9.598   1.588   6.868 -1.3438 -2.4878 -1.0334
  311MOL0     H42899   9.459   1.709   6.674  0.1497  0.2063 -0.2794
  311MOL0     H42900   9.005   1.942   6.512  2.2059 -1.3213  1.8834
  311MOL0     H42901   8.964   2.112   6.319  0.5262 -0.4264 -0.2404
  311MOL0     H42902  10.092   2.512   6.182 -4.2274 -0.7304 -2.1261
  311MOL0     H42903  10.259   2.359   6.094 -0.1533  1.8004  3.8678
  311MOL0     H42904  10.408   2.093   5.840  1.1439 -3.1295  1.9718
  311MOL0     H42905  10.518   1.940   5.669 -0.4955 -1.4083  2.1943
  311MOL0     H42906  10.826   1.845   5.751  0.2304 -0.6550 -0.5084
  311MOL0     H42907  10.686   1.807   5.635 -0.3292  0.9825  0.1496
  311MOL0     H42908  10.893   1.668   5.607 -1.7063  0.2617 -1.6459
  311MOL0     H42909  10.989   1.806   5.529  0.8980 -0.6302 -4.0551
  311MOL0     H42910  10.765   1.824   5.384  1.2337  1.3413 -0.0748
  311MOL0     H42911  10.905   1.733   5.345  2.0085  0.1129  2.5516
  311MOL0     H42912  10.791   1.524   5.462  0.8499  0.2646  0.2283
  311MOL0     H42913  10.716   1.564   5.317 -0.0371 -1.2149  0.8712
  311MOL0     H42914  10.396   1.705   5.551  0.1582  0.8214 -0.6742
  311MOL0     H42915  10.872   2.199   5.703 -0.9243  0.2348 -4.3002
  311MOL0     H42916  10.855   2.417   5.795 -0.0293  0.3612  0.4318
  311MOL0     H42917  10.721   2.458   5.895  0.8499  1.0873  0.0604
  311MOL0     H42918  10.837   2.339   5.956  1.3616  1.7087  0.0486
  312MOL0     O42919   7.136   7.242   7.731 -0.2838 -0.4604  0.5443
  312MOL0     C42920   7.120   7.185   7.843 -0.2271  0.1162 -0.0745
  312MOL0     O42921   7.008   7.105   7.869  0.2279 -1.1070  0.1433
  312MOL0     C42922   6.946   7.047   7.766  0.1520 -0.1766 -0.4870
  312MOL0     C42923   7.003   6.940   7.687  0.1456 -0.5273 -0.1280
  312MOL0     C42924   6.937   6.874   7.586  0.4509  0.9728 -0.8687
  312MOL0     C42925   6.805   6.915   7.556 -0.9131 -0.1154  0.4120
  312MOL0     O42926   6.752   6.845   7.445  0.2680  0.3179 -0.2460
  312MOL0     C42927   6.619   6.897   7.398 -0.9126 -0.0273  0.2277
  312MOL0     C42928   6.607   6.834   7.255 -0.6432  0.5114 -1.1079
  312MOL0     C42929   6.478   6.868   7.178  0.1634 -0.1976 -0.3173
  312MOL0     C42930   6.487   6.821   7.033  0.1448 -0.8044  0.0308
  312MOL0     C42931   6.359   6.840   6.952 -0.3312 -0.0272 -0.1734
  312MOL0     C42932   6.373   6.774   6.820  0.5341 -1.4705  0.4853
  312MOL0     C42933   6.272   6.833   6.717  0.2306  0.3109  0.0657
  312MOL0     C42934   6.136   6.790   6.744 -0.0984 -0.0526 -1.3994
  312MOL0     N42935   6.045   6.828   6.643  0.0809  0.7804  0.0483
  312MOL0     C42936   6.008   6.747   6.533 -0.4821 -0.5657 -0.2207
  312MOL0     C42937   5.900   6.806   6.474 -0.4941 -0.4301  0.0358
  312MOL0     C42938   5.827   6.765   6.349 -1.4093 -0.0016 -0.4187
  312MOL0     C42939   5.709   6.850   6.311  0.0028  0.4731 -0.1174
  312MOL0     C42940   5.630   6.786   6.189 -0.4514 -1.0076 -0.1031
  312MOL0     C42941   5.480   6.794   6.210  0.3182  0.2840 -0.8964
  312MOL0     O42942   5.433   6.921   6.172  0.3656 -0.5721  1.1237
  312MOL0     C42943   5.410   6.928   6.036 -0.0142  0.7975  0.1597
  312MOL0     C42944   5.461   6.850   5.930 -0.7205  0.9055 -0.8424
  312MOL0     C42945   5.443   6.864   5.796 -0.4959  0.3194  0.4081
  312MOL0     C42946   5.520   6.771   5.703  0.3860 -0.6376  0.6320
  312MOL0     C42947   5.361   6.979   5.755 -0.0833 -0.0984 -0.5610
  312MOL0     C42948   5.305   7.002   5.621  0.1678  0.1551 -0.2925
  312MOL0     O42949   5.313   6.905   5.526 -0.2125  0.7841  0.3856
  312MOL0     C42950   5.249   6.917   5.407  0.3095  0.1491  0.5357
  312MOL0     C42951   5.134   6.841   5.385  0.0913  0.9904 -1.1414
  312MOL0     C42952   5.050   6.862   5.276  0.3160 -0.0236 -0.8165
  312MOL0     C42953   5.088   6.956   5.184  0.7642 -0.1132  0.2008
  312MOL0     O42954   5.012   6.980   5.069 -0.4660  0.2688 -0.3362
  312MOL0     C42955   4.975   6.868   4.997  0.0343  0.2721  0.3188
  312MOL0     C42956   4.908   6.926   4.869  0.9267  0.4242 -0.1845
  312MOL0     C42957   4.821   7.051   4.887  0.1352 -0.3007  0.2525
  312MOL0     C42958   4.712   7.018   4.985 -0.2218  0.6023  0.2615
  312MOL0     C42959   4.629   7.141   5.004  0.3435  0.3088 -1.0096
  312MOL0     C42960   4.492   7.115   5.065  0.2207 -0.5556 -0.0001
  312MOL0     C42961   4.507   7.090   5.206  0.9610 -0.2133 -0.1282
  312MOL0     C42962   4.372   7.108   5.289 -0.5560  0.8594 -0.1692
  312MOL0    Cl42963   4.400   7.057   5.455 -0.2095  0.0184  0.2474
  312MOL0     C42964   5.201   7.026   5.210  0.7963  0.3605 -0.9977
  312MOL0     C42965   5.289   7.004   5.311  0.0062  0.1585 -0.2793
  312MOL0     O42966   5.240   7.105   5.611  0.4119  0.4566  0.6317
  312MOL0     C42967   5.313   7.066   5.861 -0.4656 -0.1198 -0.5468
  312MOL0     C42968   5.337   7.039   5.986 -0.1927  0.6885 -0.4371
  312MOL0     N42969   5.881   6.931   6.537 -0.7760  1.0784  0.2443
  312MOL0     N42970   5.973   6.943   6.629 -0.6419  0.3586 -0.0484
  312MOL0     C42971   6.745   7.015   7.633 -0.5587 -0.4463 -0.0749
  312MOL0     C42972   6.817   7.087   7.734  0.0405  0.6539 -0.5063
  312MOL0     C42973   7.210   7.207   7.957 -0.0107  0.3992 -0.2466
  312MOL0     C42974   7.191   7.138   8.078  0.8169 -0.0597  1.0041
  312MOL0     C42975   7.280   7.135   8.190  0.2276 -0.7607  1.1322
  312MOL0     C42976   7.397   7.204   8.177  1.3035 -0.2147  0.3572
  312MOL0     O42977   7.488   7.207   8.280  0.3610 -0.8093  0.6212
  312MOL0     C42978   7.470   7.278   8.399 -0.5610  0.0415 -0.2989
  312MOL0     C42979   7.554   7.216   8.516 -0.5189 -0.0582 -0.8902
  312MOL0     C42980   7.496   7.273   8.645  0.3571  0.1560 -0.3257
  312MOL0     C42981   7.438   7.173   8.739  0.0026  0.8337  0.3159
  312MOL0     C42982   7.309   7.112   8.700 -0.4805  0.7328  0.6130
  312MOL0     C42983   7.193   7.086   8.665 -0.0807  0.5173  0.4841
  312MOL0     C42984   7.414   7.274   8.057  0.1802  0.5073  0.9617
  312MOL0     C42985   7.321   7.287   7.955 -0.1980 -1.1289 -0.4176
  312MOL0     C42986   7.344   7.393   7.849 -0.3081 -0.5451 -0.0246
  312MOL0     H42987   7.107   6.911   7.695  0.3881 -0.8919 -3.4368
  312MOL0     H42988   6.983   6.797   7.525 -1.2860  1.0833 -2.4060
  312MOL0     H42989   6.625   7.006   7.392  2.2938 -0.0962  0.3966
  312MOL0     H42990   6.532   6.872   7.459 -1.6768 -2.8554 -1.8490
  312MOL0     H42991   6.704   6.849   7.208 -0.8064  2.1745 -0.9635
  312MOL0     H42992   6.598   6.727   7.276  1.3611  0.2956 -1.1537
  312MOL0     H42993   6.395   6.820   7.231 -0.6400 -2.2131 -3.1701
  312MOL0     H42994   6.474   6.977   7.182 -0.6697 -0.2709  1.6569
  312MOL0     H42995   6.567   6.874   6.981 -1.0880  1.7151  0.5771
  312MOL0     H42996   6.502   6.712   7.038 -1.9872 -1.2362 -1.3569
  312MOL0     H42997   6.342   6.948   6.939 -2.1132 -0.1082  1.1364
  312MOL0     H42998   6.274   6.802   7.008 -1.2886  0.4983 -1.2139
  312MOL0     H42999   6.474   6.786   6.780  0.0874  0.5972 -0.1269
  312MOL0     H43000   6.351   6.666   6.821  3.8816 -2.2681  1.8051
  312MOL0     H43001   6.294   6.818   6.611 -2.9127  0.8788 -0.7439
  312MOL0     H43002   6.282   6.942   6.717  2.7919  0.2382 -3.3115
  312MOL0     H43003   6.125   6.686   6.777 -0.5218  0.8589  1.6052
  312MOL0     H43004   6.106   6.841   6.836  1.0615 -2.1236  0.2180
  312MOL0     H43005   6.063   6.656   6.512  2.0554  0.2668  2.1185
  312MOL0     H43006   5.802   6.659   6.355  1.8899 -0.9105 -0.5591
  312MOL0     H43007   5.896   6.781   6.265 -0.1849  3.0587  1.0167
  312MOL0     H43008   5.648   6.862   6.401  0.1526  0.9366 -0.0725
  312MOL0     H43009   5.738   6.954   6.294 -1.7203  1.0769  0.3774
  312MOL0     H43010   5.656   6.848   6.103  0.4568 -0.4818  0.5217
  312MOL0     H43011   5.655   6.680   6.192 -1.0852 -1.1665  3.1936
  312MOL0     H43012   5.436   6.715   6.149  0.5746 -1.0295  0.5619
  312MOL0     H43013   5.448   6.784   6.314 -0.5252 -1.5642 -1.2827
  312MOL0     H43014   5.525   6.769   5.965 -0.2113  1.4693 -0.4557
  312MOL0     H43015   5.535   6.671   5.745  1.8641 -1.6672 -2.0995
  312MOL0     H43016   5.618   6.818   5.697 -0.9090  3.0016  3.6942
  312MOL0     H43017   5.477   6.765   5.602  0.0477  0.9198  0.6678
  312MOL0     H43018   5.126   6.756   5.453  0.8706 -0.0472 -2.2901
  312MOL0     H43019   4.956   6.809   5.267 -1.6429  3.0799 -0.1556
  312MOL0     H43020   5.063   6.810   4.967 -1.2911 -0.3228 -2.8433
  312MOL0     H43021   4.902   6.804   5.047  0.0129 -1.0686 -1.3251
  312MOL0     H43022   4.982   6.945   4.790  0.4715  2.5204 -0.1772
  312MOL0     H43023   4.839   6.855   4.823 -2.5954  3.5805 -0.3157
  312MOL0     H43024   4.775   7.077   4.791  0.5126 -1.7731 -0.3485
  312MOL0     H43025   4.880   7.134   4.928 -2.4662  1.5963  0.4275
  312MOL0     H43026   4.754   6.984   5.080 -2.9780 -0.0829  1.3027
  312MOL0     H43027   4.654   6.936   4.943  1.2762  1.2153 -3.3442
  312MOL0     H43028   4.687   7.204   5.072 -2.5780  1.0018  1.0133
  312MOL0     H43029   4.609   7.201   4.915 -1.3457  0.5286 -0.5078
  312MOL0     H43030   4.441   7.032   5.015 -0.0821 -0.6053  0.3866
  312MOL0     H43031   4.425   7.199   5.045  0.2482  0.1996  2.7306
  312MOL0     H43032   4.581   7.158   5.248 -0.0438  0.2207  1.0045
  312MOL0     H43033   4.542   6.987   5.221 -0.3245 -0.9381 -1.7354
  312MOL0     H43034   4.303   7.036   5.243  2.5475 -1.5844 -1.3176
  312MOL0     H43035   4.337   7.211   5.278  3.2104  2.1774 -1.1639
  312MOL0     H43036   5.229   7.093   5.129 -3.8617  2.6161 -1.0953
  312MOL0     H43037   5.382   7.060   5.316  0.0563  0.1767 -1.1870
  312MOL0     H43038   5.249   7.151   5.842 -1.6191 -0.2850  2.0641
  312MOL0     H43039   5.292   7.110   6.054  1.5329  1.0004  0.4163
  312MOL0     H43040   6.643   7.045   7.612 -0.4093 -1.2931 -2.2785
  312MOL0     H43041   6.766   7.167   7.787  0.1711 -1.7004  3.5969
  312MOL0     H43042   7.098   7.085   8.097 -0.7365  1.7816 -0.9403
  312MOL0     H43043   7.275   7.081   8.284  0.9124  1.9412  2.8145
  312MOL0     H43044   7.495   7.384   8.386  0.2302 -0.2737 -1.5316
  312MOL0     H43045   7.364   7.285   8.425 -0.5832 -0.3354 -0.2875
  312MOL0     H43046   7.662   7.235   8.518 -0.7931  1.6339 -0.3086
  312MOL0     H43047   7.544   7.107   8.518 -0.0211 -0.0933  0.3816
  312MOL0     H43048   7.581   7.308   8.704 -0.2605  0.0070  0.6891
  312MOL0     H43049   7.414   7.345   8.634 -1.8875 -1.7331  2.5045
  312MOL0     H43050   7.416   7.224   8.834 -0.7393  2.5039 -0.7044
  312MOL0     H43051   7.515   7.099   8.759  0.1478  0.4903 -1.3663
  312MOL0     H43052   7.090   7.066   8.640  0.1479 -0.8981  0.5844
  312MOL0     H43053   7.508   7.328   8.053 -1.4052  3.4273 -0.0845
  312MOL0     H43054   7.390   7.354   7.757  3.2886  0.3798  1.2181
  312MOL0     H43055   7.253   7.440   7.810  0.0929  1.3172  1.1380
  312MOL0     H43056   7.395   7.483   7.885 -1.5550  3.3337 -6.2766
  313MOL0     O43057   8.594   6.376  10.646 -0.1951 -0.7689  0.2593
  313MOL0     C43058   8.650   6.480  10.648  0.6652 -0.1875 -1.1983
  313MOL0     O43059   8.721   6.535  10.543 -0.3748 -0.3308 -0.3866
  313MOL0     C43060   8.742   6.462  10.427  0.3681 -0.4812 -0.1134
  313MOL0     C43061   8.807   6.339  10.418  0.2804 -0.6590 -0.3273
  313MOL0     C43062   8.839   6.282  10.293  0.1535  0.0586  0.1519
  313MOL0     C43063   8.807   6.347  10.174 -0.6849  0.5476  0.1913
  313MOL0     O43064   8.828   6.296  10.051 -0.5221 -0.1521 -0.0680
  313MOL0     C43065   8.844   6.155  10.033 -0.2998  0.3115  0.5642
  313MOL0     C43066   8.785   6.115   9.894  0.1531 -0.0504 -0.2819
  313MOL0     C43067   8.863   6.195   9.782  0.5106 -0.3789  0.6250
  313MOL0     C43068   8.785   6.137   9.661  0.1763  0.2755  0.1622
  313MOL0     C43069   8.822   6.215   9.530 -0.2641 -0.0483  0.1761
  313MOL0     C43070   8.737   6.167   9.412  0.4713 -0.3614 -0.3584
  313MOL0     C43071   8.723   6.273   9.304 -0.4877 -0.7428 -0.2005
  313MOL0     C43072   8.850   6.319   9.245 -0.6984 -0.7589  0.2970
  313MOL0     N43073   8.809   6.408   9.136 -0.5941 -0.4006  0.3916
  313MOL0     C43074   8.752   6.365   9.018 -0.6032 -0.2658  0.3145
  313MOL0     C43075   8.723   6.474   8.950  0.1575  0.7678  0.0091
  313MOL0     C43076   8.642   6.494   8.829  0.0966  0.2367  0.2416
  313MOL0     C43077   8.531   6.596   8.865  0.3498  0.1707  0.1104
  313MOL0     C43078   8.456   6.667   8.753 -0.7143 -0.3220  0.4341
  313MOL0     C43079   8.424   6.584   8.630 -0.1589 -0.3099 -0.8969
  313MOL0     O43080   8.398   6.443   8.634 -0.0948  0.2995  0.4778
  313MOL0     C43081   8.294   6.401   8.704 -0.3895  0.0008  0.1823
  313MOL0     C43082   8.175   6.471   8.714  0.1399 -0.2423 -0.0742
  313MOL0     C43083   8.073   6.438   8.808  0.0203 -0.3999 -0.0611
  313MOL0     C43084   7.955   6.540   8.811  1.4612  0.6392 -0.3026
  313MOL0     C43085   8.092   6.320   8.890  0.1790 -0.8846 -0.0289
  313MOL0     C43086   7.998   6.292   9.003  0.4171  0.0120 -0.1086
  313MOL0     O43087   7.920   6.390   9.054  0.4120  0.9633 -0.4469
  313MOL0     C43088   7.820   6.337   9.135 -0.2086  0.2270 -1.1211
  313MOL0     C43089   7.718   6.265   9.072  0.8895 -0.5017 -0.8684
  313MOL0     C43090   7.611   6.235   9.152  0.4836  0.6659 -0.3537
  313MOL0     C43091   7.603   6.254   9.293 -0.5653  1.2010  0.1255
  313MOL0     O43092   7.505   6.218   9.378  0.1815  0.2929  0.7173
  313MOL0     C43093   7.385   6.153   9.331  0.4123 -0.1867 -0.3762
  313MOL0     C43094   7.401   5.996   9.306 -0.8550  0.6109 -1.2271
  313MOL0     C43095   7.410   5.911   9.446  0.4795 -0.3544 -0.0337
  313MOL0     C43096   7.352   5.766   9.429 -1.5141  0.3387 -0.1287
  313MOL0     C43097   7.400   5.670   9.531 -0.1124 -0.3770 -0.1346
  313MOL0     C43098   7.401   5.716   9.669 -0.6043 -0.7614  0.9168
  313MOL0     C43099   7.266   5.759   9.721  0.6657 -0.5459 -0.9061
  313MOL0     C43100   7.255   5.775   9.872 -1.3685 -0.6039 -0.0654
  313MOL0    Cl43101   7.273   5.940   9.923  0.1527 -0.5313  0.0767
  313MOL0     C43102   7.711   6.322   9.348  0.8797 -0.5647 -0.1814
  313MOL0     C43103   7.814   6.373   9.270 -0.7522  0.6732 -0.3794
  313MOL0     O43104   8.015   6.183   9.057 -0.4512  0.1227 -0.7460
  313MOL0     C43105   8.201   6.243   8.854 -0.2156  0.3161  0.0814
  313MOL0     C43106   8.301   6.270   8.762 -0.2867  0.3812 -0.2252
  313MOL0     N43107   8.775   6.586   9.023 -0.3639 -0.3524 -0.5912
  313MOL0     N43108   8.803   6.548   9.143  0.3349  0.2326 -0.2520
  313MOL0     C43109   8.732   6.464  10.182  0.6532  0.2537 -0.4577
  313MOL0     C43110   8.712   6.527  10.305  0.3915  1.0093 -1.0052
  313MOL0     C43111   8.633   6.576  10.770  0.4495  0.5484 -0.3956
  313MOL0     C43112   8.584   6.515  10.888  0.6745 -0.1001  0.4303
  313MOL0     C43113   8.567   6.584  11.006 -0.4434 -0.3052  0.0726
  313MOL0     C43114   8.589   6.722  11.011 -0.0029  0.5127 -0.0138
  313MOL0     O43115   8.583   6.794  11.132 -0.5590  0.4981  0.5692
  313MOL0     C43116   8.612   6.938  11.142  0.0511  0.1265 -0.9794
  313MOL0     C43117   8.763   6.961  11.148  0.6355 -0.4035  0.0209
  313MOL0     C43118   8.809   6.929  11.295 -0.3807  0.1957  0.2437
  313MOL0     C43119   8.959   6.914  11.303  0.4450  0.3443 -0.3007
  313MOL0     C43120   9.028   7.035  11.303 -0.2730 -0.6623  0.2886
  313MOL0     C43121   9.097   7.139  11.289 -0.2256  0.0948 -0.0445
  313MOL0     C43122   8.630   6.782  10.894 -0.8266 -0.0146  0.4376
  313MOL0     C43123   8.649   6.713  10.768 -0.2146 -0.4507 -0.6607
  313MOL0     C43124   8.708   6.798  10.657 -0.1779  0.9236 -0.0878
  313MOL0     H43125   8.844   6.280  10.501  0.7404  0.0638 -0.0140
  313MOL0     H43126   8.905   6.196  10.293  0.9048  0.6238  0.1900
  313MOL0     H43127   8.796   6.094  10.111  2.0259 -1.0529  1.0129
  313MOL0     H43128   8.948   6.122  10.030 -0.7667 -1.1841 -0.1159
  313MOL0     H43129   8.797   6.006   9.891  1.1670  0.0375  0.2962
  313MOL0     H43130   8.678   6.138   9.886  0.4912  1.0005 -3.2976
  313MOL0     H43131   8.852   6.304   9.780  2.4093 -0.1422  1.1884
  313MOL0     H43132   8.964   6.154   9.774 -0.4341 -2.8196  0.2863
  313MOL0     H43133   8.807   6.030   9.657  0.1967  0.1629  2.1472
  313MOL0     H43134   8.679   6.150   9.687  0.9478  0.3250  3.7346
  313MOL0     H43135   8.926   6.188   9.510 -0.5926 -2.1429  0.9970
  313MOL0     H43136   8.817   6.323   9.547  2.2556  0.4707 -1.8172
  313MOL0     H43137   8.781   6.073   9.377  3.4741  0.6167  0.5176
  313MOL0     H43138   8.634   6.145   9.442  1.1875 -0.7351  2.0361
  313MOL0     H43139   8.671   6.358   9.350 -0.6402  0.5814 -2.6437
  313MOL0     H43140   8.653   6.253   9.222 -0.3723  2.2156 -1.1446
  313MOL0     H43141   8.913   6.378   9.311 -0.7523 -2.1786  1.6620
  313MOL0     H43142   8.903   6.236   9.198  0.4606 -0.3032  0.7817
  313MOL0     H43143   8.724   6.263   8.992 -4.0110  0.0428  2.0823
  313MOL0     H43144   8.594   6.401   8.799 -0.5627  1.2574 -2.1387
  313MOL0     H43145   8.721   6.527   8.760  3.3768 -2.8822  2.1607
  313MOL0     H43146   8.461   6.543   8.931  0.8079  0.7614  1.1019
  313MOL0     H43147   8.573   6.678   8.924  1.0126  0.2667 -0.4908
  313MOL0     H43148   8.364   6.696   8.804 -0.5716 -1.0081  1.0982
  313MOL0     H43149   8.520   6.743   8.709 -4.3401  1.1153 -2.9802
  313MOL0     H43150   8.342   6.632   8.576  1.4351 -1.6042 -4.7930
  313MOL0     H43151   8.508   6.594   8.560  0.0446 -0.3405 -0.6622
  313MOL0     H43152   8.148   6.545   8.639 -0.1056  0.4196  0.6626
  313MOL0     H43153   7.959   6.596   8.905  0.7483  0.2430 -0.0279
  313MOL0     H43154   7.855   6.497   8.801  0.8210  1.3868  2.2574
  313MOL0     H43155   7.955   6.607   8.724 -0.3367  1.8517  0.5598
  313MOL0     H43156   7.722   6.246   8.966  1.4673  1.3555 -1.2241
  313MOL0     H43157   7.524   6.186   9.107 -2.3372  3.9279  1.0812
  313MOL0     H43158   7.317   6.156   9.417  0.5332  1.4744 -0.3139
  313MOL0     H43159   7.326   6.199   9.251 -1.0780  0.3844  0.9871
  313MOL0     H43160   7.313   5.953   9.258 -1.4854  0.2263  0.2056
  313MOL0     H43161   7.493   5.966   9.255 -1.7959 -1.3846 -1.8176
  313MOL0     H43162   7.349   5.960   9.523 -2.0565 -0.6103 -1.7431
  313MOL0     H43163   7.508   5.889   9.489 -0.4743 -4.1782  0.5907
  313MOL0     H43164   7.387   5.720   9.337 -1.1717 -1.8841  1.0508
  313MOL0     H43165   7.243   5.780   9.427 -1.8651 -2.1496 -0.7133
  313MOL0     H43166   7.343   5.578   9.519 -1.2946  0.3756 -0.4692
  313MOL0     H43167   7.505   5.650   9.508  0.7391  3.5484 -0.4374
  313MOL0     H43168   7.473   5.795   9.689 -1.7925 -0.2989  3.9369
  313MOL0     H43169   7.441   5.631   9.727 -3.0804 -2.5611  0.1729
  313MOL0     H43170   7.181   5.698   9.688  0.2590 -0.9993  0.8764
  313MOL0     H43171   7.254   5.861   9.683 -3.0554 -0.4717  0.0841
  313MOL0     H43172   7.330   5.712   9.922  0.6004  1.4349 -0.2749
  313MOL0     H43173   7.158   5.738   9.906 -1.2606 -1.3485 -0.5364
  313MOL0     H43174   7.716   6.332   9.456 -2.3299 -2.0179  0.2402
  313MOL0     H43175   7.903   6.423   9.307 -2.0257  2.8987 -0.1160
  313MOL0     H43176   8.218   6.152   8.911  5.5780  0.2453 -1.1492
  313MOL0     H43177   8.386   6.204   8.749 -1.6741 -1.8360  1.1795
  313MOL0     H43178   8.706   6.512  10.088  3.1814  0.1211 -1.2790
  313MOL0     H43179   8.673   6.626  10.327  1.0562  1.6470 -2.5746
  313MOL0     H43180   8.585   6.407  10.893 -0.5257 -0.1801 -0.7695
  313MOL0     H43181   8.548   6.526  11.097 -4.3241 -1.8163 -1.4598
  313MOL0     H43182   8.567   6.996  11.061 -2.3096  1.2557  1.0247
  313MOL0     H43183   8.579   6.979  11.238 -0.7911 -0.5804 -0.9523
  313MOL0     H43184   8.785   7.062  11.114 -0.1788  0.1713  1.1395
  313MOL0     H43185   8.809   6.890  11.078  0.8675 -1.7212  1.4469
  313MOL0     H43186   8.765   6.998  11.368  1.3366  0.3660  1.1681
  313MOL0     H43187   8.779   6.834  11.339  3.4949  1.1915  6.1099
  313MOL0     H43188   8.991   6.847  11.223 -1.2000  0.3349 -0.9973
  313MOL0     H43189   8.965   6.868  11.402  0.6268 -1.4624 -1.1201
  313MOL0     H43190   9.162   7.223  11.284  0.6099 -0.4394  1.3250
  313MOL0     H43191   8.669   6.883  10.901  1.4532 -0.7825 -0.4491
  313MOL0     H43192   8.798   6.747  10.622 -0.3873  0.6703 -0.2554
  313MOL0     H43193   8.648   6.798  10.565 -1.0568 -0.0246  0.4666
  313MOL0     H43194   8.740   6.897  10.693  3.5250  0.7076 -2.2463
  314MOL0     O43195   4.590  11.210   5.610  0.4129  0.3470 -0.1331
  314MOL0     C43196   4.705  11.234   5.627 -0.3885 -0.6302  0.1093
  314MOL0     O43197   4.756  11.362   5.623 -0.0708 -0.0693  0.2639
  314MOL0     C43198   4.669  11.471   5.642  0.1442 -0.6664 -0.5610
  314MOL0     C43199   4.550  11.498   5.568 -0.0116  0.6147  0.0165
  314MOL0     C43200   4.473  11.618   5.583 -0.6638 -0.5509  0.9667
  314MOL0     C43201   4.508  11.700   5.683  1.1441 -1.6641  0.1764
  314MOL0     O43202   4.452  11.829   5.715 -0.1192  0.6820 -0.4209
  314MOL0     C43203   4.382  11.899   5.611 -0.5005 -0.7961  0.2601
  314MOL0     C43204   4.330  12.028   5.651  0.1349  0.3908 -0.3349
  314MOL0     C43205   4.425  12.120   5.735 -0.0424 -0.2972 -0.5114
  314MOL0     C43206   4.369  12.266   5.729  0.6952 -0.7158  0.0549
  314MOL0     C43207   4.463  12.368   5.781  1.0893 -0.3280 -0.3422
  314MOL0     C43208   4.579  12.414   5.688  1.3799  0.7229 -0.6397
  314MOL0     C43209   4.687  12.486   5.764 -1.4383  0.0448 -0.1243
  314MOL0     C43210   4.827  12.412   5.750  0.6937 -0.7725  0.4465
  314MOL0     N43211   4.857  12.316   5.859 -0.1645  0.5574  0.1896
  314MOL0     C43212   4.824  12.181   5.861 -0.9680 -0.4926  0.1508
  314MOL0     C43213   4.798  12.150   5.995 -1.1690  0.2938 -0.0459
  314MOL0     C43214   4.718  12.025   6.029 -0.8443  0.7190  0.1294
  314MOL0     C43215   4.585  12.061   6.089  0.4914  0.1350 -0.1194
  314MOL0     C43216   4.506  11.940   6.120  0.5742  0.1683  0.1906
  314MOL0     C43217   4.354  11.977   6.168 -0.8224 -0.2175  0.1519
  314MOL0     O43218   4.294  11.887   6.262  0.1984 -0.1745  0.8073
  314MOL0     C43219   4.268  11.754   6.226 -0.0377  0.7823  0.7376
  314MOL0     C43220   4.251  11.649   6.318 -0.1600  0.1590 -0.5599
  314MOL0     C43221   4.230  11.516   6.276  0.4728 -0.2458 -1.2619
  314MOL0     C43222   4.192  11.427   6.396  0.9622 -0.5616 -0.6132
  314MOL0     C43223   4.234  11.470   6.143 -1.2496  0.7689  0.4365
  314MOL0     C43224   4.209  11.328   6.096  0.0967  0.1345 -0.4812
  314MOL0     O43225   4.233  11.314   5.962  0.0239  1.0175 -0.4161
  314MOL0     C43226   4.240  11.192   5.897  0.0970 -0.4463 -0.1324
  314MOL0     C43227   4.202  11.073   5.945 -0.1976  0.2267 -0.6216
  314MOL0     C43228   4.221  10.951   5.879  0.2932 -0.6045  0.7831
  314MOL0     C43229   4.276  10.951   5.748 -0.1063 -0.1299 -0.1312
  314MOL0     O43230   4.305  10.841   5.670  0.0879 -0.4020 -1.1181
  314MOL0     C43231   4.287  10.711   5.731 -0.1302 -0.8255 -0.6906
  314MOL0     C43232   4.342  10.616   5.625 -0.0636  0.0159  0.1316
  314MOL0     C43233   4.358  10.474   5.670  0.0180 -0.5145 -1.9887
  314MOL0     C43234   4.495  10.427   5.701 -0.7103  0.1911 -0.7212
  314MOL0     C43235   4.481  10.287   5.765 -0.6123 -0.4416 -0.2964
  314MOL0     C43236   4.589  10.194   5.713  0.1754 -0.1086 -1.0592
  314MOL0     C43237   4.605  10.054   5.783 -1.1368  0.5351 -0.4460
  314MOL0     C43238   4.751   9.996   5.763 -0.6902  0.0794  0.0344
  314MOL0    Cl43239   4.798  10.004   5.596  0.1397  0.1254  0.4278
  314MOL0     C43240   4.301  11.078   5.690 -0.6929 -0.3873 -0.7159
  314MOL0     C43241   4.295  11.201   5.764 -0.0863  0.3023 -0.5930
  314MOL0     O43242   4.165  11.245   6.171 -0.3767 -1.0586  0.1380
  314MOL0     C43243   4.259  11.570   6.053 -0.1503 -1.2090  0.8503
  314MOL0     C43244   4.277  11.711   6.091  0.1828  0.0163  0.5735
  314MOL0     N43245   4.829  12.259   6.070  0.3215  0.4415  0.2038
  314MOL0     N43246   4.856  12.359   5.988 -0.1576 -0.8539 -0.3496
  314MOL0     C43247   4.617  11.668   5.766 -0.4418  0.0164  0.0334
  314MOL0     C43248   4.704  11.555   5.745  0.1212 -0.3196 -0.3472
  314MOL0     C43249   4.806  11.127   5.640  0.6713  0.8609 -0.9469
  314MOL0     C43250   4.910  11.167   5.719 -0.3358  0.3760  0.7681
  314MOL0     C43251   5.024  11.083   5.738 -0.3076 -0.4138  0.3756
  314MOL0     C43252   5.016  10.956   5.691  0.1631 -0.7332 -0.4468
  314MOL0     O43253   5.117  10.867   5.689  0.3734  0.4169 -0.0753
  314MOL0     C43254   5.206  10.880   5.807 -0.8125  0.3785  0.2585
  314MOL0     C43255   5.294  10.752   5.809  0.8188  0.1890  0.5810
  314MOL0     C43256   5.350  10.723   5.940 -0.9495 -0.0505  0.0503
  314MOL0     C43257   5.256  10.656   6.046  0.7154 -0.4125  0.6968
  314MOL0     C43258   5.330  10.653   6.167 -0.9131 -0.0882 -0.8877
  314MOL0     C43259   5.393  10.636   6.267 -1.2050  0.3481  0.1711
  314MOL0     C43260   4.897  10.907   5.618  0.1178 -0.3769 -0.2184
  314MOL0     C43261   4.790  10.991   5.595  1.1614  0.4447 -0.3458
  314MOL0     C43262   4.663  10.925   5.533 -0.1531  0.3881 -0.5125
  314MOL0     H43263   4.518  11.435   5.485 -0.5782  1.6884 -0.5955
  314MOL0     H43264   4.393  11.647   5.517  1.1476  2.1322 -0.2231
  314MOL0     H43265   4.299  11.830   5.593 -0.1594 -1.3907  0.9129
  314MOL0     H43266   4.451  11.902   5.527 -1.4846 -2.0827 -0.6404
  314MOL0     H43267   4.313  12.080   5.556 -2.4573  0.4464  0.1045
  314MOL0     H43268   4.230  12.018   5.692  0.0673  0.9144 -0.3598
  314MOL0     H43269   4.432  12.086   5.839  2.4714  1.0384 -0.1770
  314MOL0     H43270   4.527  12.117   5.696 -0.0465 -1.8525 -0.4857
  314MOL0     H43271   4.340  12.299   5.629 -0.8478 -1.2646  0.3041
  314MOL0     H43272   4.273  12.272   5.781 -0.0662 -1.9581 -1.1454
  314MOL0     H43273   4.519  12.330   5.867 -1.1585  0.4675  1.5892
  314MOL0     H43274   4.408  12.460   5.801  0.5823 -0.5899 -0.5059
  314MOL0     H43275   4.612  12.315   5.656 -0.8905  0.0587 -1.1595
  314MOL0     H43276   4.544  12.471   5.601 -1.2423  0.8353  0.4089
  314MOL0     H43277   4.652  12.503   5.866  2.9042  3.1553  1.1628
  314MOL0     H43278   4.695  12.584   5.715 -2.8371  0.4526  0.4030
  314MOL0     H43279   4.831  12.369   5.650 -2.4643  1.7603 -0.9729
  314MOL0     H43280   4.902  12.492   5.751 -0.7119  0.6414 -1.1165
  314MOL0     H43281   4.793  12.124   5.775 -1.2792  0.0888 -0.1314
  314MOL0     H43282   4.767  11.962   6.105 -2.4016  1.1029  1.5095
  314MOL0     H43283   4.699  11.959   5.944  2.5786 -1.8588  1.1250
  314MOL0     H43284   4.602  12.114   6.184  0.8631  1.9947 -1.1774
  314MOL0     H43285   4.541  12.123   6.010  0.1089  1.1986  0.8806
  314MOL0     H43286   4.491  11.869   6.038 -2.0941 -1.2384  1.7553
  314MOL0     H43287   4.564  11.892   6.199  0.1115  2.4896  2.0560
  314MOL0     H43288   4.358  12.066   6.233  1.6022  0.0893 -0.3479
  314MOL0     H43289   4.279  11.993   6.090 -1.0903  0.6692  0.5755
  314MOL0     H43290   4.247  11.677   6.423  3.6093  3.6108 -1.1018
  314MOL0     H43291   4.222  11.470   6.492 -1.2570 -0.8721  0.2877
  314MOL0     H43292   4.253  11.337   6.406 -1.3757 -2.0821  1.1451
  314MOL0     H43293   4.085  11.406   6.391  0.9492 -0.6026 -0.1883
  314MOL0     H43294   4.143  11.075   6.036 -2.0990 -0.2024 -1.7992
  314MOL0     H43295   4.184  10.857   5.920 -2.9199 -0.0337 -0.5315
  314MOL0     H43296   4.349  10.702   5.821 -1.2135  0.7386  0.2505
  314MOL0     H43297   4.186  10.689   5.766 -0.2987  1.2268  0.1938
  314MOL0     H43298   4.270  10.606   5.544  1.2369  1.1471 -1.2428
  314MOL0     H43299   4.428  10.649   5.565 -0.4054 -0.0753 -0.4190
  314MOL0     H43300   4.324  10.422   5.580 -1.9340  1.0258 -2.2019
  314MOL0     H43301   4.281  10.452   5.744 -0.6382 -1.6568 -2.9832
  314MOL0     H43302   4.545  10.488   5.777 -2.1853  2.6152 -1.5938
  314MOL0     H43303   4.572  10.420   5.623 -0.9251 -0.0980 -0.9066
  314MOL0     H43304   4.499  10.288   5.873 -0.6984  1.4482 -0.2621
  314MOL0     H43305   4.384  10.245   5.736  0.2171 -1.3644 -1.8498
  314MOL0     H43306   4.688  10.241   5.717 -0.4122  1.6685 -4.1151
  314MOL0     H43307   4.569  10.175   5.607 -2.1111 -0.8533 -0.5443
  314MOL0     H43308   4.528   9.992   5.737 -3.8361  2.8934  0.5883
  314MOL0     H43309   4.591  10.055   5.892 -1.2103 -1.0050 -0.4206
  314MOL0     H43310   4.750   9.895   5.806 -2.1387 -0.2320 -0.6858
  314MOL0     H43311   4.819  10.060   5.820 -1.1542  0.4015  0.2254
  314MOL0     H43312   4.350  11.095   5.595 -3.5520  2.1969 -1.8999
  314MOL0     H43313   4.338  11.297   5.737  1.3227 -0.2678 -0.4720
  314MOL0     H43314   4.268  11.555   5.946  1.1257  0.3140  0.7113
  314MOL0     H43315   4.296  11.783   6.012 -1.7810 -1.4635 -1.3763
  314MOL0     H43316   4.661  11.750   5.823 -1.5351  0.9064 -0.3662
  314MOL0     H43317   4.788  11.547   5.813 -1.1833 -2.1758  1.1674
  314MOL0     H43318   4.929  11.270   5.750  1.0068  0.1809  0.6642
  314MOL0     H43319   5.104  11.124   5.798 -1.2420  0.2534  1.2020
  314MOL0     H43320   5.271  10.965   5.786 -0.0240 -0.3344 -0.2214
  314MOL0     H43321   5.146  10.892   5.898  1.0657 -1.6324  1.8460
  314MOL0     H43322   5.372  10.740   5.734 -1.4037 -0.6392 -1.7439
  314MOL0     H43323   5.230  10.670   5.775  1.9338 -0.8369  0.8624
  314MOL0     H43324   5.441  10.665   5.919 -1.1114  0.3006 -1.7338
  314MOL0     H43325   5.397  10.814   5.978  0.5718 -0.0954 -1.6332
  314MOL0     H43326   5.227  10.555   6.017 -0.5116 -0.5160  2.1812
  314MOL0     H43327   5.163  10.710   6.067 -0.8458 -2.2436 -1.1586
  314MOL0     H43328   5.444  10.614   6.359  0.0790 -0.1892 -0.6306
  314MOL0     H43329   4.909  10.803   5.590  0.0360 -0.8277  1.3096
  314MOL0     H43330   4.565  10.958   5.567 -0.0323  0.9126 -0.6649
  314MOL0     H43331   4.672  10.953   5.428 -1.5040 -1.5223 -1.1983
  314MOL0     H43332   4.655  10.816   5.531 -1.1664  0.4362  0.2445
  315MOL0     O43333   7.721   3.313   5.829  0.1798  0.0068 -1.0002
  315MOL0     C43334   7.770   3.419   5.851  0.3129  0.2684  0.3570
  315MOL0     O43335   7.703   3.534   5.859  0.1392  0.5382 -0.1538
  315MOL0     C43336   7.587   3.549   5.782 -0.1153 -0.4784 -0.6226
  315MOL0     C43337   7.454   3.556   5.821 -0.3842 -0.5517  0.1708
  315MOL0     C43338   7.363   3.582   5.718  0.6889 -0.4069  0.6458
  315MOL0     C43339   7.392   3.615   5.579 -0.0674 -0.2705  0.3839
  315MOL0     O43340   7.289   3.621   5.492  0.4875  0.3858  0.0944
  315MOL0     C43341   7.323   3.604   5.356  0.3578  0.4120  0.4729
  315MOL0     C43342   7.195   3.597   5.266  0.2322  0.6825 -0.3378
  315MOL0     C43343   7.131   3.461   5.248 -0.6529  0.7787  0.2367
  315MOL0     C43344   7.032   3.459   5.133  1.2059  0.3585 -0.1772
  315MOL0     C43345   6.959   3.325   5.131  0.5267  0.1073 -0.1633
  315MOL0     C43346   6.864   3.291   5.252  1.3319  0.0472 -0.7989
  315MOL0     C43347   6.775   3.399   5.280  0.3212 -0.7813 -0.4489
  315MOL0     C43348   6.671   3.338   5.388  0.0283  0.7607  0.4938
  315MOL0     N43349   6.718   3.330   5.532  0.7883 -0.2120  0.4705
  315MOL0     C43350   6.754   3.442   5.603  0.2626 -0.9819 -0.7219
  315MOL0     C43351   6.793   3.392   5.719  0.4771 -0.2457  0.3883
  315MOL0     C43352   6.845   3.483   5.828 -0.0395 -0.1889 -0.3710
  315MOL0     C43353   6.719   3.518   5.908 -1.1685 -0.0538 -0.6939
  315MOL0     C43354   6.738   3.482   6.064 -1.1233  0.6946  1.1565
  315MOL0     C43355   6.801   3.600   6.133  0.7011 -0.8070 -0.2644
  315MOL0     O43356   6.836   3.569   6.272 -0.4866  0.0692  1.3580
  315MOL0     C43357   6.904   3.665   6.347 -0.2279  0.0539  0.2405
  315MOL0     C43358   6.941   3.624   6.474 -0.0829  0.7788  0.2025
  315MOL0     C43359   7.014   3.704   6.556  0.4399  0.0096  0.3371
  315MOL0     C43360   7.067   3.641   6.676 -0.1418  0.8618  0.1161
  315MOL0     C43361   7.061   3.839   6.519 -0.2586 -0.1781  1.0819
  315MOL0     C43362   7.152   3.934   6.591  0.9241 -1.3404 -0.3547
  315MOL0     O43363   7.197   4.038   6.518 -0.6038 -0.1969 -0.1950
  315MOL0     C43364   7.322   4.087   6.539 -0.4530  0.2928  0.1189
  315MOL0     C43365   7.357   4.167   6.650  0.4614  0.2224 -0.7460
  315MOL0     C43366   7.499   4.201   6.675  0.0443  0.1786  0.0214
  315MOL0     C43367   7.592   4.167   6.581  0.7304 -0.5788  0.2727
  315MOL0     O43368   7.719   4.215   6.582  0.1909  1.0828 -0.1297
  315MOL0     C43369   7.728   4.364   6.567  0.0710  0.3155 -0.2393
  315MOL0     C43370   7.875   4.405   6.571  0.3164  0.2549  0.5821
  315MOL0     C43371   7.915   4.500   6.463  0.3617 -0.9012  0.2900
  315MOL0     C43372   7.954   4.446   6.330  0.3207  1.5317  0.1976
  315MOL0     C43373   8.094   4.372   6.321 -0.0645  0.6581 -0.4299
  315MOL0     C43374   8.101   4.317   6.169 -0.3567 -0.4850 -0.7084
  315MOL0     C43375   8.228   4.241   6.143  0.9370  0.5671  0.4050
  315MOL0     C43376   8.247   4.176   6.005 -1.0246 -0.4677 -0.2219
  315MOL0    Cl43377   8.381   4.061   5.998  0.4125  0.2661 -0.6615
  315MOL0     C43378   7.550   4.112   6.464 -0.6673 -0.1567  0.1592
  315MOL0     C43379   7.422   4.073   6.447 -0.3593  0.5313  0.4546
  315MOL0     O43380   7.168   3.929   6.714  0.1717  0.7690  0.1509
  315MOL0     C43381   7.017   3.881   6.387 -0.1732 -0.2006 -0.4066
  315MOL0     C43382   6.935   3.797   6.308  0.1658 -0.4307 -0.0533
  315MOL0     N43383   6.795   3.246   5.714 -0.2775 -0.6593  0.4005
  315MOL0     N43384   6.746   3.217   5.595 -0.7184  0.0637 -0.5612
  315MOL0     C43385   7.529   3.610   5.548 -0.5411  0.6016 -0.0214
  315MOL0     C43386   7.620   3.583   5.646  0.1653  0.2140 -0.4180
  315MOL0     C43387   7.910   3.434   5.870 -0.6230 -0.1862  0.4712
  315MOL0     C43388   7.965   3.561   5.886  0.1501  0.2912 -0.4881
  315MOL0     C43389   8.089   3.589   5.932 -0.1796  0.2235 -0.2981
  315MOL0     C43390   8.175   3.476   5.961  0.5785 -0.0761 -0.3428
  315MOL0     O43391   8.306   3.483   6.013  0.3206 -0.1729 -0.1950
  315MOL0     C43392   8.369   3.615   6.019 -0.8488  1.4251 -0.2194
  315MOL0     C43393   8.524   3.607   6.031  0.2589  0.0898  0.6256
  315MOL0     C43394   8.568   3.606   6.178  0.5029 -0.5086  0.2431
  315MOL0     C43395   8.726   3.598   6.201  0.3414  1.4244 -0.0867
  315MOL0     C43396   8.798   3.721   6.160  0.0057  0.1370 -1.0256
  315MOL0     C43397   8.840   3.834   6.117 -1.0602 -0.2351 -0.0313
  315MOL0     C43398   8.130   3.344   5.940 -0.0299 -0.4087 -0.2427
  315MOL0     C43399   7.993   3.320   5.900  0.4071  0.4217 -0.2425
  315MOL0     C43400   7.963   3.170   5.896  1.1919  0.0998 -0.1626
  315MOL0     H43401   7.424   3.541   5.924  2.6247 -4.0540  0.7294
  315MOL0     H43402   7.258   3.573   5.744  1.1152  1.7888  3.7106
  315MOL0     H43403   7.383   3.516   5.333  1.1703  1.3530 -1.2152
  315MOL0     H43404   7.389   3.690   5.338  1.3682 -0.1811  1.2142
  315MOL0     H43405   7.123   3.671   5.301  0.6189  2.0085 -2.1863
  315MOL0     H43406   7.215   3.611   5.159  1.8239 -0.7289 -0.2780
  315MOL0     H43407   7.206   3.388   5.219  1.6584  3.3097 -0.5960
  315MOL0     H43408   7.080   3.437   5.342 -1.4998  2.2905  0.2001
  315MOL0     H43409   6.966   3.546   5.126  1.5638  0.5608 -1.1943
  315MOL0     H43410   7.094   3.453   5.043  1.9134 -1.3824  0.3733
  315MOL0     H43411   7.031   3.243   5.123  1.9615  1.1465  1.3805
  315MOL0     H43412   6.897   3.313   5.041  0.8281 -0.5244 -0.2910
  315MOL0     H43413   6.798   3.209   5.224 -0.6084  1.6617 -1.2138
  315MOL0     H43414   6.923   3.272   5.342 -0.5187 -2.1849  0.0447
  315MOL0     H43415   6.723   3.433   5.190 -0.4698 -0.7428  0.0054
  315MOL0     H43416   6.823   3.480   5.335 -0.2979 -1.0060  0.4444
  315MOL0     H43417   6.582   3.401   5.389 -0.5102  0.2138 -2.6379
  315MOL0     H43418   6.644   3.236   5.361  1.6139  1.2697 -3.7517
  315MOL0     H43419   6.738   3.541   5.562 -2.7637 -0.8161  0.6098
  315MOL0     H43420   6.897   3.577   5.806 -1.7726  0.3783 -2.3114
  315MOL0     H43421   6.914   3.423   5.888 -0.6993 -0.5956 -0.0084
  315MOL0     H43422   6.709   3.627   5.907  2.2084  0.5976  3.4805
  315MOL0     H43423   6.632   3.462   5.873 -0.4508 -1.2006 -0.6915
  315MOL0     H43424   6.639   3.460   6.107 -2.2409  0.3243 -1.4059
  315MOL0     H43425   6.803   3.401   6.097 -0.9421  0.9390  1.4008
  315MOL0     H43426   6.887   3.636   6.075  0.0544 -0.0392 -0.7757
  315MOL0     H43427   6.717   3.669   6.130 -0.9008 -2.6306  0.7566
  315MOL0     H43428   6.910   3.527   6.511  1.0095 -1.5186 -4.2495
  315MOL0     H43429   7.177   3.643   6.673 -0.1477  2.6435 -0.5644
  315MOL0     H43430   7.029   3.539   6.680  0.8674  0.3906 -1.3939
  315MOL0     H43431   7.025   3.686   6.766  0.8109  1.7431  0.1434
  315MOL0     H43432   7.280   4.206   6.716  0.8776  2.9157 -1.7191
  315MOL0     H43433   7.521   4.267   6.758  1.6586  2.1417 -1.8673
  315MOL0     H43434   7.673   4.405   6.481 -0.6960  0.9733  0.5522
  315MOL0     H43435   7.662   4.398   6.647 -0.9647  0.4059 -1.1065
  315MOL0     H43436   7.885   4.443   6.673 -1.0542 -3.1839  2.1586
  315MOL0     H43437   7.948   4.325   6.554  1.0273  1.4396 -2.6262
  315MOL0     H43438   7.997   4.568   6.488  0.9434 -0.4867 -2.4808
  315MOL0     H43439   7.837   4.575   6.445  3.6744  2.2902 -2.2930
  315MOL0     H43440   7.962   4.531   6.262 -0.6114 -1.2175 -3.6909
  315MOL0     H43441   7.873   4.383   6.292  1.2941  1.2665 -1.5613
  315MOL0     H43442   8.184   4.420   6.359  2.5265 -3.3626 -0.9310
  315MOL0     H43443   8.087   4.282   6.383 -4.5307  1.1452  0.1206
  315MOL0     H43444   8.101   4.408   6.109 -2.1824 -0.4559 -0.7067
  315MOL0     H43445   8.015   4.256   6.140 -1.1653  0.6255 -0.6916
  315MOL0     H43446   8.240   4.165   6.221  1.0754  1.8253  1.6434
  315MOL0     H43447   8.301   4.316   6.174 -2.5524  4.7002 -0.4449
  315MOL0     H43448   8.257   4.252   5.926  0.0590 -0.1285  0.2221
  315MOL0     H43449   8.156   4.120   5.985  0.3327 -2.1524 -2.0786
  315MOL0     H43450   7.621   4.113   6.382  1.6713  2.8610  2.0382
  315MOL0     H43451   7.407   4.010   6.360 -1.2340 -2.2741  2.4965
  315MOL0     H43452   7.032   3.978   6.340  2.4088 -1.3893 -2.1836
  315MOL0     H43453   6.909   3.826   6.207 -3.3821 -1.6617  0.3564
  315MOL0     H43454   7.570   3.635   5.451 -0.3210  0.6639  0.0882
  315MOL0     H43455   7.724   3.600   5.620 -0.5625  1.3948 -2.8656
  315MOL0     H43456   7.910   3.652   5.863  2.2105  0.6773 -4.7991
  315MOL0     H43457   8.117   3.694   5.933  1.8575 -0.1329 -3.7461
  315MOL0     H43458   8.329   3.672   5.935  0.0214  1.8706 -0.3442
  315MOL0     H43459   8.330   3.665   6.108 -0.8517 -1.3723  1.4920
  315MOL0     H43460   8.565   3.696   5.981  2.3660 -1.1185  0.0838
  315MOL0     H43461   8.570   3.522   5.979  0.9932  0.8349  0.0314
  315MOL0     H43462   8.534   3.700   6.221  1.5805 -1.1814  2.7569
  315MOL0     H43463   8.513   3.530   6.234 -0.8223  0.5066  0.3617
  315MOL0     H43464   8.770   3.509   6.154  0.3163  0.5478  1.4606
  315MOL0     H43465   8.736   3.571   6.306 -1.1620  2.7746  0.4420
  315MOL0     H43466   8.885   3.920   6.070  0.6044  0.1722  2.1280
  315MOL0     H43467   8.195   3.259   5.954  1.6225  0.8141 -0.3017
  315MOL0     H43468   8.053   3.112   5.875  1.1954  0.1886 -0.4006
  315MOL0     H43469   7.913   3.130   5.985 -4.7174  0.2878 -2.8968
  315MOL0     H43470   7.892   3.149   5.815  2.6467  0.9758 -1.7440
  316MOL0     O43471   3.323   6.653   7.946 -1.3336  0.0381 -0.1113
  316MOL0     C43472   3.376   6.650   7.832  0.9825  1.0019  0.5505
  316MOL0     O43473   3.316   6.586   7.720  0.0749 -0.5076  0.1935
  316MOL0     C43474   3.179   6.549   7.727 -0.5643 -0.1946  0.0954
  316MOL0     C43475   3.138   6.416   7.721  0.2540  0.1247 -0.1196
  316MOL0     C43476   3.002   6.378   7.723  0.1949  1.3213  0.1627
  316MOL0     C43477   2.904   6.479   7.743 -0.3377  0.1197  0.5444
  316MOL0     O43478   2.772   6.461   7.743 -0.0586  0.3389 -0.4805
  316MOL0     C43479   2.706   6.338   7.764  0.3305 -0.6933 -0.7266
  316MOL0     C43480   2.549   6.354   7.744 -0.0102  0.0033  0.1504
  316MOL0     C43481   2.498   6.460   7.833  0.1973 -0.3570  0.1837
  316MOL0     C43482   2.354   6.490   7.801  0.1566 -0.1898 -0.0305
  316MOL0     C43483   2.318   6.603   7.901  0.2256 -0.2924  0.7609
  316MOL0     C43484   2.266   6.537   8.029 -0.5205  0.2987  0.4936
  316MOL0     C43485   2.230   6.640   8.132  0.2678  0.3793 -0.7297
  316MOL0     C43486   2.123   6.599   8.231 -0.2450 -0.7680 -0.1578
  316MOL0     N43487   2.136   6.678   8.358 -0.5377 -0.3241  0.1459
  316MOL0     C43488   2.072   6.795   8.383  0.1369  0.7865  0.0731
  316MOL0     C43489   2.117   6.836   8.507 -0.7978  0.6627  1.1498
  316MOL0     C43490   2.061   6.946   8.593  0.5576  0.0047 -0.0781
  316MOL0     C43491   2.145   7.077   8.581 -0.7503 -0.3590  0.7483
  316MOL0     C43492   2.163   7.138   8.441 -0.2685 -0.1994  0.6022
  316MOL0     C43493   2.200   7.282   8.431  0.7189  0.0123 -0.1633
  316MOL0     O43494   2.313   7.319   8.503 -0.3408 -0.4097 -0.7201
  316MOL0     C43495   2.334   7.459   8.516  0.8506 -0.6282  0.1132
  316MOL0     C43496   2.239   7.561   8.468  0.4187  0.0027 -0.8706
  316MOL0     C43497   2.264   7.697   8.470  0.3868  0.2931 -0.1808
  316MOL0     C43498   2.171   7.798   8.424  0.0804 -0.0897 -0.3126
  316MOL0     C43499   2.393   7.740   8.530 -0.1506  0.1190 -0.0586
  316MOL0     C43500   2.419   7.885   8.529 -0.3647 -0.3603 -0.4553
  316MOL0     O43501   2.441   7.945   8.402  0.4249  0.1395  0.4617
  316MOL0     C43502   2.433   8.081   8.390 -0.3142 -1.3267 -0.3618
  316MOL0     C43503   2.320   8.154   8.437 -0.1078 -0.0786  0.7228
  316MOL0     C43504   2.326   8.298   8.430  0.2855  0.1588 -0.0483
  316MOL0     C43505   2.445   8.360   8.378  0.5988 -0.9488 -0.0393
  316MOL0     O43506   2.457   8.502   8.387 -0.1079 -0.7730  0.2213
  316MOL0     C43507   2.488   8.548   8.514 -0.2045  0.1221 -1.2537
  316MOL0     C43508   2.532   8.698   8.523  0.1139 -0.0708  0.0078
  316MOL0     C43509   2.666   8.711   8.448 -0.2877  0.0417 -0.3061
  316MOL0     C43510   2.705   8.862   8.428  0.8451  0.8165 -0.5267
  316MOL0     C43511   2.814   8.871   8.317 -0.1526  0.5579 -0.4900
  316MOL0     C43512   2.860   9.014   8.289 -0.1409  0.2228  1.0030
  316MOL0     C43513   2.969   9.020   8.175 -0.9674  0.0001  0.6927
  316MOL0     C43514   3.099   8.944   8.225 -0.5535  0.0244  0.6319
  316MOL0    Cl43515   3.178   9.030   8.369  0.0869 -0.4248  0.1871
  316MOL0     C43516   2.549   8.278   8.327 -0.0871  0.7007  1.0209
  316MOL0     C43517   2.540   8.146   8.336 -0.9184 -0.0240 -0.8134
  316MOL0     O43518   2.425   7.942   8.638 -1.4097 -0.5588  0.6251
  316MOL0     C43519   2.482   7.645   8.584 -0.1894  0.6565  0.3481
  316MOL0     C43520   2.447   7.508   8.566 -0.1195  0.5325 -0.9525
  316MOL0     N43521   2.218   6.750   8.546 -0.6112  0.1527  0.0881
  316MOL0     N43522   2.227   6.654   8.449 -0.9047  0.9457 -0.1699
  316MOL0     C43523   2.954   6.609   7.740 -0.2789  0.4347  0.0482
  316MOL0     C43524   3.079   6.656   7.739 -0.6117  0.1349  0.2560
  316MOL0     C43525   3.524   6.694   7.824  0.5809  0.7017  0.2151
  316MOL0     C43526   3.583   6.654   7.705  0.3815  0.1778  0.3888
  316MOL0     C43527   3.725   6.675   7.684  0.0283  0.4491 -0.0367
  316MOL0     C43528   3.805   6.733   7.784 -0.1821  0.6014  0.0839
  316MOL0     O43529   3.935   6.762   7.779 -0.8702 -0.5521  0.3774
  316MOL0     C43530   4.005   6.739   7.655 -0.2731 -0.4404  0.2137
  316MOL0     C43531   3.974   6.853   7.552  0.1709  0.7979  0.6868
  316MOL0     C43532   4.058   6.836   7.425 -0.4618  0.1583  1.1631
  316MOL0     C43533   3.983   6.762   7.310 -0.4067 -0.3708 -0.4568
  316MOL0     C43534   4.055   6.761   7.182 -0.5556 -0.4777 -0.1631
  316MOL0     C43535   4.109   6.742   7.071 -0.5312 -0.0321  0.1093
  316MOL0     C43536   3.742   6.783   7.891  0.4636  0.2248 -0.1720
  316MOL0     C43537   3.605   6.764   7.917 -0.5399  0.5741  0.6296
  316MOL0     C43538   3.557   6.821   8.043 -0.1828  0.0388  0.5731
  316MOL0     H43539   3.223   6.349   7.709 -0.2173 -0.8215  1.5044
  316MOL0     H43540   2.971   6.276   7.702 -1.4284  1.9610 -0.7322
  316MOL0     H43541   2.710   6.309   7.869 -2.1650  1.2145 -0.0085
  316MOL0     H43542   2.758   6.257   7.713  1.6750 -0.3581  0.0625
  316MOL0     H43543   2.520   6.379   7.641 -1.7385  1.7251  0.9866
  316MOL0     H43544   2.506   6.255   7.761  0.0449 -0.4616 -2.1478
  316MOL0     H43545   2.498   6.429   7.938 -0.7057 -0.6126  0.1158
  316MOL0     H43546   2.551   6.554   7.814  0.6174 -0.7767 -0.7742
  316MOL0     H43547   2.344   6.526   7.698 -2.8904 -0.0086  0.2494
  316MOL0     H43548   2.283   6.409   7.814 -1.2224  0.9811  0.0047
  316MOL0     H43549   2.244   6.671   7.858  0.7795  0.9366  1.6904
  316MOL0     H43550   2.404   6.666   7.925 -1.3938  2.9612 -1.2152
  316MOL0     H43551   2.177   6.481   7.999 -0.5189  0.1312  0.7961
  316MOL0     H43552   2.334   6.460   8.065 -1.0772 -1.3633 -1.7560
  316MOL0     H43553   2.189   6.735   8.098  3.2449  2.7119  1.5976
  316MOL0     H43554   2.329   6.662   8.173  1.4962 -1.2624 -2.6192
  316MOL0     H43555   2.021   6.620   8.198  0.2867  0.7791 -0.9488
  316MOL0     H43556   2.139   6.494   8.258  1.9106 -0.0218  1.7781
  316MOL0     H43557   1.993   6.834   8.321  0.8665 -0.7389 -1.9254
  316MOL0     H43558   2.072   6.932   8.701 -0.1692 -0.9703 -0.1257
  316MOL0     H43559   1.952   6.953   8.586  0.3995  1.7805  2.7413
  316MOL0     H43560   2.103   7.151   8.650  1.7373  1.7216  0.1617
  316MOL0     H43561   2.245   7.059   8.622  0.4542 -1.3854 -2.3770
  316MOL0     H43562   2.247   7.086   8.395 -0.0479  1.4238 -0.9341
  316MOL0     H43563   2.072   7.110   8.387 -0.3514 -2.4092  1.7964
  316MOL0     H43564   2.215   7.299   8.324  0.2553  0.9627 -0.0885
  316MOL0     H43565   2.104   7.322   8.467  0.8821 -2.0331  2.9042
  316MOL0     H43566   2.138   7.533   8.441 -0.4035  0.0085  1.8830
  316MOL0     H43567   2.073   7.765   8.389 -0.5905  1.6164 -0.1557
  316MOL0     H43568   2.199   7.853   8.334 -0.3077  0.8885  0.1410
  316MOL0     H43569   2.145   7.874   8.499 -1.6729  0.1972 -1.1640
  316MOL0     H43570   2.233   8.105   8.480 -3.0177  3.5420 -0.5314
  316MOL0     H43571   2.251   8.365   8.470 -1.0824 -1.6577  0.5691
  316MOL0     H43572   2.406   8.528   8.584 -1.2006  1.6228 -1.9304
  316MOL0     H43573   2.577   8.502   8.558  0.0844  3.2238  1.8035
  316MOL0     H43574   2.452   8.753   8.473  0.8951  1.0560 -0.0327
  316MOL0     H43575   2.532   8.741   8.624 -0.7047 -0.8083  0.3455
  316MOL0     H43576   2.636   8.679   8.348  2.4595  0.7730 -1.4372
  316MOL0     H43577   2.745   8.643   8.482 -0.3679  0.3206  0.4555
  316MOL0     H43578   2.737   8.899   8.526  0.1599 -1.5369  0.6572
  316MOL0     H43579   2.614   8.914   8.397  1.8166  1.4336 -2.5692
  316MOL0     H43580   2.905   8.818   8.348 -0.1598  1.5477  1.3435
  316MOL0     H43581   2.759   8.832   8.231 -4.7030  0.0444  2.3404
  316MOL0     H43582   2.889   9.070   8.379 -0.6563  0.0605  1.2736
  316MOL0     H43583   2.773   9.062   8.244 -0.2170 -3.0586 -2.8984
  316MOL0     H43584   2.999   9.115   8.130 -0.7318 -1.1242 -1.6575
  316MOL0     H43585   2.935   8.958   8.092  0.2170  1.2122 -0.7403
  316MOL0     H43586   3.176   8.949   8.148  0.4613  2.7402  1.6870
  316MOL0     H43587   3.080   8.838   8.239  2.7612 -0.6345  1.1207
  316MOL0     H43588   2.642   8.322   8.294  1.1822 -0.9452  2.2294
  316MOL0     H43589   2.637   8.099   8.327 -1.3418 -1.6248  1.8310
  316MOL0     H43590   2.570   7.654   8.647 -1.2135 -1.8613  2.3025
  316MOL0     H43591   2.496   7.428   8.618 -3.5378 -0.8121  0.5152
  316MOL0     H43592   2.882   6.689   7.752  0.2535  0.9448 -0.1714
  316MOL0     H43593   3.104   6.762   7.745  1.7273 -0.3977  0.9444
  316MOL0     H43594   3.531   6.596   7.628  4.8170 -1.6068 -1.5883
  316MOL0     H43595   3.778   6.635   7.598 -1.2732 -2.2024  0.2924
  316MOL0     H43596   4.110   6.735   7.684 -0.5860 -2.5987  1.2539
  316MOL0     H43597   3.975   6.649   7.601 -1.2603 -1.6733  2.6912
  316MOL0     H43598   3.998   6.949   7.597 -0.0328 -0.1721  3.0186
  316MOL0     H43599   3.869   6.846   7.523 -0.0707 -0.3947  1.7615
  316MOL0     H43600   4.106   6.932   7.401  0.0624  0.4646  3.1841
  316MOL0     H43601   4.143   6.769   7.443 -2.4871 -2.8032  0.2456
  316MOL0     H43602   3.894   6.816   7.274 -1.0304  1.7094  3.6321
  316MOL0     H43603   3.959   6.659   7.337  0.1994 -0.5059 -0.4243
  316MOL0     H43604   4.145   6.727   6.971 -5.7846 -1.5165 -1.9176
  316MOL0     H43605   3.812   6.827   7.961  0.7942 -1.5315  0.6394
  316MOL0     H43606   3.527   6.926   8.037 -0.3753  0.1325  2.5571
  316MOL0     H43607   3.483   6.754   8.087  0.5961 -1.5563 -0.4805
  316MOL0     H43608   3.645   6.815   8.107  1.4713 -3.9042 -1.6874
  317MOL0     O43609   1.539   2.362   4.093  0.5137  0.1316  0.9000
  317MOL0     C43610   1.540   2.363   4.212  0.5261  1.0555 -0.3106
  317MOL0     O43611   1.620   2.294   4.300  0.3771  0.6228  0.0771
  317MOL0     C43612   1.704   2.182   4.274 -0.0130  0.2831 -0.1584
  317MOL0     C43613   1.740   2.100   4.383 -0.3318  0.3919 -0.6283
  317MOL0     C43614   1.828   1.996   4.359 -1.1664 -0.3780 -0.1901
  317MOL0     C43615   1.869   1.960   4.231 -0.0631 -0.7481 -0.3570
  317MOL0     O43616   1.955   1.858   4.210 -0.3519 -0.3655 -0.4712
  317MOL0     C43617   2.055   1.826   4.315 -0.0606 -0.1701  0.3584
  317MOL0     C43618   2.175   1.749   4.256  0.6405 -0.7424 -0.0407
  317MOL0     C43619   2.256   1.661   4.351 -0.2463 -0.3962 -1.3307
  317MOL0     C43620   2.376   1.609   4.276 -0.8975  0.1338 -0.2974
  317MOL0     C43621   2.348   1.504   4.161 -0.3689 -0.8168 -0.4523
  317MOL0     C43622   2.451   1.490   4.049 -1.0554  0.7598 -0.2211
  317MOL0     C43623   2.597   1.469   4.085  0.1989 -0.1333 -0.0513
  317MOL0     C43624   2.687   1.453   3.966  0.5716  0.3297  0.3240
  317MOL0     N43625   2.646   1.333   3.883  0.2600  0.6785 -0.7432
  317MOL0     C43626   2.642   1.191   3.920 -0.1524 -0.0029  0.9690
  317MOL0     C43627   2.624   1.124   3.809  0.3063  0.1751 -0.3784
  317MOL0     C43628   2.614   0.975   3.798 -0.1020  0.3848 -0.0614
  317MOL0     C43629   2.502   0.921   3.882 -0.4826 -0.1642  0.1889
  317MOL0     C43630   2.481   0.775   3.871 -0.2071 -1.2243 -0.1020
  317MOL0     C43631   2.465   0.725   3.730  0.4108  0.0421 -0.8766
  317MOL0     O43632   2.405   0.595   3.759  0.3128 -0.0736  0.1734
  317MOL0     C43633   2.466   0.470   3.743  0.3529  0.6283  1.2691
  317MOL0     C43634   2.391   0.354   3.768 -0.2920 -0.6925  0.0866
  317MOL0     C43635   2.433   0.228   3.742  0.6529 -0.2105 -0.5053
  317MOL0     C43636   2.342   0.114   3.796  0.2181  0.0796  0.9939
  317MOL0     C43637   2.566   0.208   3.680 -0.0712  1.3537  0.5395
  317MOL0     C43638   2.620   0.076   3.637 -0.2449 -0.5089 -0.9717
  317MOL0     O43639   2.547  -0.034   3.642 -0.1019 -1.0667 -0.1102
  317MOL0     C43640   2.615  -0.149   3.647 -0.6965 -0.3393 -0.0137
  317MOL0     C43641   2.552  -0.247   3.575 -0.1815  0.0970 -0.3696
  317MOL0     C43642   2.608  -0.370   3.571  0.6287  1.1024 -0.0631
  317MOL0     C43643   2.719  -0.405   3.649  0.4112 -0.3740  0.4420
  317MOL0     O43644   2.752  -0.536   3.635 -0.3280  0.4586  0.5459
  317MOL0     C43645   2.882  -0.577   3.685  0.3490 -0.1583 -0.9468
  317MOL0     C43646   2.922  -0.709   3.631 -0.0027 -0.3036 -0.4110
  317MOL0     C43647   2.847  -0.813   3.696  0.7581 -0.1709 -1.2531
  317MOL0     C43648   2.873  -0.953   3.628  0.1674  0.3301  0.5265
  317MOL0     C43649   2.825  -0.957   3.486  0.1983  0.3044 -0.3770
  317MOL0     C43650   2.827  -1.100   3.441 -0.7531 -0.0598  0.7107
  317MOL0     C43651   2.758  -1.114   3.304  0.0815 -0.4500 -0.5490
  317MOL0     C43652   2.688  -1.246   3.272 -1.2306  0.1610  0.3083
  317MOL0    Cl43653   2.568  -1.287   3.406  0.6949 -0.0835 -1.2233
  317MOL0     C43654   2.777  -0.309   3.735 -0.6256 -0.0878  1.0812
  317MOL0     C43655   2.732  -0.178   3.732 -0.0368 -0.0801  0.2583
  317MOL0     O43656   2.736   0.079   3.602  0.2416  0.3918 -0.7187
  317MOL0     C43657   2.644   0.317   3.658 -0.3916 -0.2552  0.2428
  317MOL0     C43658   2.594   0.449   3.679 -0.0296  0.5006 -0.1220
  317MOL0     N43659   2.600   1.223   3.707 -0.0092 -0.7262 -0.0929
  317MOL0     N43660   2.613   1.350   3.754 -0.5852  0.3201  0.4707
  317MOL0     C43661   1.834   2.036   4.125  0.3726 -0.6865  0.6480
  317MOL0     C43662   1.760   2.157   4.137  0.3005 -0.6670 -1.3985
  317MOL0     C43663   1.440   2.453   4.282 -0.3071  0.4144  0.3518
  317MOL0     C43664   1.455   2.467   4.417  0.9956 -0.7549  0.0198
  317MOL0     C43665   1.378   2.559   4.494  0.5149 -0.3272 -0.2010
  317MOL0     C43666   1.285   2.645   4.440  1.0061  0.3584  1.0390
  317MOL0     O43667   1.218   2.739   4.509 -1.3016 -0.1826 -0.4056
  317MOL0     C43668   1.083   2.709   4.558 -1.0393 -0.3954 -0.0530
  317MOL0     C43669   1.046   2.798   4.676 -0.1446 -0.2210  0.5179
  317MOL0     C43670   0.907   2.786   4.726  0.4569  0.0657  0.3384
  317MOL0     C43671   0.794   2.850   4.640 -0.6988 -0.3708 -0.1435
  317MOL0     C43672   0.787   2.998   4.676 -0.2239 -0.2011  0.2765
  317MOL0     C43673   0.776   3.115   4.707 -0.9442 -0.0490 -0.3984
  317MOL0     C43674   1.263   2.616   4.304 -0.2960  0.2262 -0.2535
  317MOL0     C43675   1.340   2.529   4.228 -0.1253 -0.3428 -1.1058
  317MOL0     C43676   1.316   2.533   4.084 -0.0475  0.4159  0.4820
  317MOL0     H43677   1.708   2.099   4.487 -0.6672 -1.6670 -0.7049
  317MOL0     H43678   1.865   1.940   4.444  2.7950  0.4197 -1.1811
  317MOL0     H43679   1.998   1.766   4.387 -1.0263 -0.3711 -0.5552
  317MOL0     H43680   2.090   1.913   4.371  0.8974  0.8279 -1.7122
  317MOL0     H43681   2.129   1.686   4.179  1.2698 -2.2981  0.7972
  317MOL0     H43682   2.247   1.818   4.212  1.5944 -1.3680  0.5032
  317MOL0     H43683   2.304   1.714   4.434 -0.3233 -0.3556 -1.3109
  317MOL0     H43684   2.195   1.590   4.409 -0.2461  0.4185 -0.3054
  317MOL0     H43685   2.431   1.695   4.235  0.0743 -0.2481  0.1961
  317MOL0     H43686   2.435   1.565   4.357  4.0265  1.5747 -2.7278
  317MOL0     H43687   2.256   1.532   4.109 -1.3447 -2.9794  0.0102
  317MOL0     H43688   2.328   1.409   4.211 -3.2368 -0.2790 -0.4227
  317MOL0     H43689   2.401   1.422   3.979 -3.3777  2.6636 -0.5427
  317MOL0     H43690   2.465   1.582   3.992  0.5977  2.1171  2.2124
  317MOL0     H43691   2.607   1.381   4.150  0.4771  0.7216  1.1039
  317MOL0     H43692   2.639   1.553   4.141  1.8370  0.9801 -2.7370
  317MOL0     H43693   2.675   1.537   3.898  0.6225  0.9456  1.0633
  317MOL0     H43694   2.790   1.454   4.004 -0.8187  2.3016  4.6310
  317MOL0     H43695   2.651   1.145   4.017  1.8430 -0.9116  0.4043
  317MOL0     H43696   2.709   0.929   3.825  0.1145  1.5356  1.2642
  317MOL0     H43697   2.612   0.936   3.696 -3.5115 -0.1167  0.1021
  317MOL0     H43698   2.523   0.942   3.987  1.4364 -1.6510  0.1359
  317MOL0     H43699   2.415   0.974   3.840  1.3301  2.1349 -0.9033
  317MOL0     H43700   2.565   0.721   3.916  2.0511  2.7304  0.9066
  317MOL0     H43701   2.394   0.764   3.937 -1.7326 -1.4930 -2.0598
  317MOL0     H43702   2.399   0.782   3.664  0.2568  1.7471  0.6625
  317MOL0     H43703   2.558   0.710   3.676  1.9953  0.0777  1.7016
  317MOL0     H43704   2.294   0.362   3.816 -1.0172 -1.1531 -1.2785
  317MOL0     H43705   2.271   0.072   3.724  0.8302  2.1949 -0.9774
  317MOL0     H43706   2.277   0.137   3.881 -0.9763 -0.8537  0.3606
  317MOL0     H43707   2.406   0.030   3.822  0.5586  0.8699  2.8961
  317MOL0     H43708   2.459  -0.215   3.528 -2.1684 -1.6013  2.0860
  317MOL0     H43709   2.560  -0.455   3.526 -1.6825  1.4164  1.6233
  317MOL0     H43710   2.951  -0.496   3.658  1.2035 -0.4013  0.3884
  317MOL0     H43711   2.880  -0.586   3.794  2.4266 -0.8188 -0.9108
  317MOL0     H43712   2.906  -0.707   3.523  0.3101  1.0411 -0.4513
  317MOL0     H43713   3.026  -0.734   3.655 -0.4710 -2.0125 -0.0219
  317MOL0     H43714   2.741  -0.794   3.680  0.5707 -0.8955 -0.9404
  317MOL0     H43715   2.876  -0.810   3.802  0.5383 -2.9965 -1.0284
  317MOL0     H43716   2.821  -1.025   3.692  2.6308  0.1387  2.4939
  317MOL0     H43717   2.979  -0.980   3.631 -0.1417 -1.9803 -3.1115
  317MOL0     H43718   2.730  -0.912   3.459 -0.6782 -1.9586 -1.2873
  317MOL0     H43719   2.902  -0.915   3.421  0.8386 -1.3197 -0.7372
  317MOL0     H43720   2.778  -1.163   3.516  2.7840 -2.0253  1.6112
  317MOL0     H43721   2.933  -1.125   3.424 -1.1844  0.1119 -2.9957
  317MOL0     H43722   2.839  -1.094   3.233  1.1709 -1.3973  0.3839
  317MOL0     H43723   2.683  -1.035   3.292  0.6424 -0.1288 -2.2242
  317MOL0     H43724   2.769  -1.318   3.260  0.0764  1.8678 -1.9857
  317MOL0     H43725   2.633  -1.240   3.178 -1.6481 -1.1599  0.4461
  317MOL0     H43726   2.871  -0.322   3.787 -0.3702  1.8457  1.1605
  317MOL0     H43727   2.779  -0.109   3.800  1.4147  1.0078 -1.7478
  317MOL0     H43728   2.748   0.303   3.630  0.2242 -0.2197  2.4028
  317MOL0     H43729   2.676   0.515   3.652  1.0417 -0.8947 -0.4070
  317MOL0     H43730   1.871   2.017   4.025 -0.8611 -1.0246  0.2399
  317MOL0     H43731   1.733   2.217   4.051 -3.4640  0.4537  0.3256
  317MOL0     H43732   1.534   2.431   4.482  0.9270  2.0645  1.8200
  317MOL0     H43733   1.408   2.566   4.598 -0.0627 -0.2151 -0.0387
  317MOL0     H43734   1.004   2.717   4.482 -0.2958 -0.5696 -0.8632
  317MOL0     H43735   1.073   2.601   4.577 -3.3054 -0.3860 -0.8093
  317MOL0     H43736   1.058   2.905   4.654 -2.1994  0.5723  2.7951
  317MOL0     H43737   1.113   2.768   4.758 -0.6922 -1.3667  0.5606
  317MOL0     H43738   0.873   2.683   4.737  0.4542  0.1488  1.1332
  317MOL0     H43739   0.906   2.821   4.830 -1.1367 -1.2373  0.7979
  317MOL0     H43740   0.701   2.809   4.680 -0.6276  1.2958  1.9013
  317MOL0     H43741   0.806   2.834   4.532 -1.4645  0.2402 -0.3254
  317MOL0     H43742   0.780   3.219   4.732  3.2116 -0.5809  2.1385
  317MOL0     H43743   1.191   2.672   4.245 -1.5430 -0.2120  0.8011
  317MOL0     H43744   1.217   2.570   4.057 -0.9562 -2.9513 -1.4381
  317MOL0     H43745   1.391   2.592   4.031  0.6500  0.9121  1.9769
  317MOL0     H43746   1.308   2.437   4.031 -0.1971  0.1134  1.0464
  318MOL0     O43747   0.115   7.753   2.908 -0.9896 -0.0220  0.0185
  318MOL0     C43748   0.080   7.830   2.822 -0.0010 -0.0620  0.0082
  318MOL0     O43749   0.079   7.959   2.825 -0.7973  0.1830 -0.5664
  318MOL0     C43750   0.167   8.022   2.913  0.0961  0.2361  0.6034
  318MOL0     C43751   0.275   8.105   2.870 -0.8811  0.4820  0.7115
  318MOL0     C43752   0.341   8.176   2.966 -0.3422  0.5158 -0.5052
  318MOL0     C43753   0.316   8.165   3.110  0.6020 -1.0269  0.6956
  318MOL0     O43754   0.380   8.247   3.201 -0.1092  0.9780 -0.1484
  318MOL0     C43755   0.331   8.377   3.234  0.3224 -0.9309 -0.8220
  318MOL0     C43756   0.329   8.471   3.111  0.4345 -0.4111 -0.8739
  318MOL0     C43757   0.272   8.610   3.166 -0.2683 -0.2753  0.7505
  318MOL0     C43758   0.300   8.712   3.058  0.2211  1.8916 -0.5287
  318MOL0     C43759   0.226   8.843   3.066 -0.0907 -0.9434 -0.2879
  318MOL0     C43760   0.074   8.830   3.047  0.6368  0.0821 -0.5468
  318MOL0     C43761  -0.007   8.962   3.056 -0.8266  0.3629  0.3805
  318MOL0     C43762  -0.154   8.937   3.025 -0.8063 -0.1108  0.4124
  318MOL0     N43763  -0.225   8.852   3.119 -0.0809 -0.0732 -1.1583
  318MOL0     C43764  -0.216   8.722   3.167 -0.6821 -0.5979  0.5311
  318MOL0     C43765  -0.299   8.710   3.272 -0.6438  0.8915 -0.4881
  318MOL0     C43766  -0.321   8.576   3.349  0.8857  0.9051  0.3729
  318MOL0     C43767  -0.278   8.571   3.504  0.6171  1.3451  0.2904
  318MOL0     C43768  -0.383   8.612   3.605 -0.1003 -0.1627 -0.1231
  318MOL0     C43769  -0.338   8.610   3.744  0.0084  0.3166 -0.1020
  318MOL0     O43770  -0.272   8.487   3.772  0.1003  0.3005 -0.9939
  318MOL0     C43771  -0.237   8.465   3.902  2.0100  0.7565  0.0999
  318MOL0     C43772  -0.200   8.338   3.946 -0.8757 -0.5263 -0.1334
  318MOL0     C43773  -0.164   8.314   4.083  0.5552  0.9295  0.5928
  318MOL0     C43774  -0.100   8.177   4.107  1.0098  0.0923  0.3120
  318MOL0     C43775  -0.166   8.417   4.180  0.1663 -0.0581 -0.0350
  318MOL0     C43776  -0.137   8.396   4.320 -0.3560 -0.2074  0.2562
  318MOL0     O43777  -0.005   8.357   4.358  0.8163  0.9891 -0.0486
  318MOL0     C43778   0.030   8.341   4.493 -0.8131 -0.3607  0.2877
  318MOL0     C43779  -0.018   8.238   4.567  0.3143  0.5447 -1.1766
  318MOL0     C43780   0.044   8.207   4.690  0.4735  0.9789 -0.1691
  318MOL0     C43781   0.152   8.274   4.738 -0.1993 -0.0382 -1.2462
  318MOL0     O43782   0.202   8.242   4.862  0.3848  0.3380  0.3322
  318MOL0     C43783   0.333   8.198   4.847 -0.1772  0.2234 -0.0504
  318MOL0     C43784   0.364   8.102   4.964 -0.4775  1.1452 -0.7046
  318MOL0     C43785   0.502   8.062   4.952 -0.2351 -0.7373 -0.2464
  318MOL0     C43786   0.551   8.022   5.096  0.9678 -0.1294  0.3446
  318MOL0     C43787   0.687   7.962   5.096 -0.3240  0.2811  1.2541
  318MOL0     C43788   0.686   7.817   5.034 -0.9098 -0.2127 -0.4783
  318MOL0     C43789   0.671   7.709   5.143  0.4227  0.0873 -0.7332
  318MOL0     C43790   0.679   7.559   5.095  0.3492 -0.4968  0.3419
  318MOL0    Cl43791   0.623   7.465   5.240 -0.5931 -0.0915  0.2446
  318MOL0     C43792   0.194   8.394   4.674 -0.2043  0.3424  0.8191
  318MOL0     C43793   0.131   8.420   4.549 -0.3371 -1.2621 -0.6788
  318MOL0     O43794  -0.235   8.408   4.400  0.1537 -0.3198  0.1393
  318MOL0     C43795  -0.213   8.544   4.136 -0.3575  0.4991 -0.7543
  318MOL0     C43796  -0.249   8.563   3.998 -0.8188  0.1254 -0.9803
  318MOL0     N43797  -0.361   8.833   3.294 -0.1727  0.4449 -0.5103
  318MOL0     N43798  -0.306   8.918   3.212  0.4641 -0.3422 -0.2400
  318MOL0     C43799   0.222   8.075   3.153 -0.4059  0.2515  0.4653
  318MOL0     C43800   0.140   8.008   3.057 -0.4199  0.2399 -0.1546
  318MOL0     C43801   0.032   7.766   2.704  0.3796  0.8344 -0.6581
  318MOL0     C43802   0.117   7.764   2.587 -0.2881 -0.2168  0.0330
  318MOL0     C43803   0.084   7.705   2.467 -0.5822  0.2321 -0.3922
  318MOL0     C43804  -0.036   7.632   2.464 -0.4223  0.2798  0.8687
  318MOL0     O43805  -0.067   7.558   2.355 -0.1521 -0.3071 -0.2937
  318MOL0     C43806  -0.043   7.618   2.226  0.2835  0.2267  0.2361
  318MOL0     C43807  -0.124   7.543   2.121 -0.1408  0.3131 -0.1908
  318MOL0     C43808  -0.131   7.390   2.135  0.1301 -0.1474 -0.8368
  318MOL0     C43809  -0.278   7.346   2.177 -0.1482 -0.1614 -0.6030
  318MOL0     C43810  -0.294   7.199   2.168  0.3110 -0.7534 -0.7260
  318MOL0     C43811  -0.302   7.087   2.133 -1.0897 -0.0479  0.2319
  318MOL0     C43812  -0.120   7.625   2.575  0.6113 -0.9860 -0.1455
  318MOL0     C43813  -0.095   7.701   2.694 -0.1397  0.4848 -0.3467
  318MOL0     C43814  -0.204   7.721   2.801  0.2176 -0.0327  0.6688
  318MOL0     H43815   0.312   8.119   2.769 -1.3781  0.7556  0.5648
  318MOL0     H43816   0.409   8.251   2.925  1.2896 -0.0545  1.0297
  318MOL0     H43817   0.405   8.421   3.300  0.0083 -0.7675 -0.5737
  318MOL0     H43818   0.232   8.363   3.279  0.2482 -1.1661 -1.0499
  318MOL0     H43819   0.430   8.484   3.071  0.3312  1.1198 -0.6927
  318MOL0     H43820   0.269   8.434   3.028 -2.0225 -2.4875  1.6395
  318MOL0     H43821   0.163   8.606   3.169 -0.3063 -1.0192 -0.8338
  318MOL0     H43822   0.322   8.626   3.263  1.6503  1.4036 -0.4335
  318MOL0     H43823   0.408   8.730   3.060  0.1486  2.8014 -2.5908
  318MOL0     H43824   0.284   8.666   2.961 -0.2794 -0.1716  0.4760
  318MOL0     H43825   0.265   8.905   2.985 -0.2115 -1.5321 -0.8026
  318MOL0     H43826   0.249   8.892   3.161 -2.1871  0.3386 -0.3693
  318MOL0     H43827   0.058   8.775   2.954  0.1854 -1.7625  0.5740
  318MOL0     H43828   0.048   8.768   3.133 -1.0251  0.6603 -0.6012
  318MOL0     H43829   0.041   9.034   2.990  3.5299  1.2728  4.0353
  318MOL0     H43830  -0.005   9.008   3.156  3.0372 -1.8074  1.4985
  318MOL0     H43831  -0.202   9.035   3.029  0.1061  0.3022  2.0105
  318MOL0     H43832  -0.165   8.901   2.922  1.7254  0.7985 -0.2643
  318MOL0     H43833  -0.145   8.645   3.140 -0.4301 -0.5855  1.1346
  318MOL0     H43834  -0.271   8.498   3.291 -4.7861 -0.9738 -2.6999
  318MOL0     H43835  -0.425   8.546   3.340  1.2955  0.0007 -2.1030
  318MOL0     H43836  -0.247   8.469   3.530  1.6944  1.9246  1.3556
  318MOL0     H43837  -0.178   8.613   3.491  1.9501 -2.1900 -2.9718
  318MOL0     H43838  -0.422   8.708   3.570  0.1544  0.5965  1.5528
  318MOL0     H43839  -0.470   8.548   3.595 -0.2423  0.3784 -3.3268
  318MOL0     H43840  -0.273   8.697   3.754  2.3368 -0.8422 -3.4666
  318MOL0     H43841  -0.429   8.626   3.802  0.3007  0.8990  0.1993
  318MOL0     H43842  -0.212   8.264   3.868 -0.5123  1.4528 -2.1665
  318MOL0     H43843  -0.163   8.125   4.180  0.4065  0.5102  0.1063
  318MOL0     H43844   0.002   8.195   4.140  0.4941 -1.2886  2.8487
  318MOL0     H43845  -0.105   8.125   4.011 -3.0992 -0.8675  0.8682
  318MOL0     H43846  -0.094   8.177   4.518  1.6777  1.1441 -4.2628
  318MOL0     H43847   0.002   8.110   4.714 -1.0749  1.2001 -1.7586
  318MOL0     H43848   0.343   8.139   4.755  1.6475  1.9428 -1.0317
  318MOL0     H43849   0.403   8.281   4.846 -1.2856  1.1795  0.1769
  318MOL0     H43850   0.346   8.162   5.054  0.2555  1.9523 -1.0877
  318MOL0     H43851   0.301   8.013   4.978  0.9343  0.3350  1.0067
  318MOL0     H43852   0.572   8.142   4.922 -0.0982 -0.1362  1.5352
  318MOL0     H43853   0.500   7.991   4.869 -0.4967 -0.9742 -0.0346
  318MOL0     H43854   0.483   7.946   5.136  1.6412 -1.9223 -1.6925
  318MOL0     H43855   0.559   8.109   5.161  0.1152 -0.3508  0.7654
  318MOL0     H43856   0.749   8.029   5.035 -3.7641  2.8822  0.2192
  318MOL0     H43857   0.726   7.958   5.198 -0.5817  1.5445  1.4277
  318MOL0     H43858   0.786   7.804   4.993 -0.6025 -0.5869  0.3537
  318MOL0     H43859   0.606   7.795   4.962 -1.4993 -3.7946  1.0416
  318MOL0     H43860   0.567   7.717   5.177 -0.1852 -2.2391 -1.8097
  318MOL0     H43861   0.754   7.721   5.213 -1.8332  0.5092  2.0414
  318MOL0     H43862   0.785   7.536   5.078  0.3876 -0.9117  1.1027
  318MOL0     H43863   0.620   7.543   5.004 -0.8386 -0.6419  1.1294
  318MOL0     H43864   0.280   8.450   4.710  0.9390 -1.0523  0.3378
  318MOL0     H43865   0.174   8.506   4.498  3.5052 -3.3916 -1.4386
  318MOL0     H43866  -0.223   8.619   4.214 -1.3210  1.5591 -1.8504
  318MOL0     H43867  -0.277   8.667   3.979 -0.2613  0.5669  0.4289
  318MOL0     H43868   0.208   8.062   3.259 -1.5252 -0.4662  0.2535
  318MOL0     H43869   0.053   7.954   3.091 -0.5015 -0.6239 -1.6229
  318MOL0     H43870   0.221   7.789   2.607  0.3618 -2.3096 -0.4773
  318MOL0     H43871   0.161   7.693   2.391 -0.8707  1.3141 -0.8800
  318MOL0     H43872  -0.070   7.724   2.227 -2.5225 -0.3621  3.1655
  318MOL0     H43873   0.064   7.606   2.205  1.0174  3.1535  1.8519
  318MOL0     H43874  -0.083   7.562   2.022  1.8737 -1.7727  0.1697
  318MOL0     H43875  -0.229   7.576   2.122 -0.6641 -1.2656 -0.0188
  318MOL0     H43876  -0.097   7.339   2.045  3.0204 -4.2612  2.1641
  318MOL0     H43877  -0.048   7.348   2.193 -2.3979 -1.2940  2.2947
  318MOL0     H43878  -0.350   7.400   2.114  1.1973  1.3477 -0.8910
  318MOL0     H43879  -0.299   7.384   2.277  2.7765 -0.4156  0.1797
  318MOL0     H43880  -0.301   6.985   2.101 -2.0442  0.9624 -3.5322
  318MOL0     H43881  -0.213   7.571   2.563 -1.3473  1.7539  1.6187
  318MOL0     H43882  -0.174   7.687   2.901 -4.0307 -0.4313  2.0058
  318MOL0     H43883  -0.236   7.826   2.795 -1.7292 -0.6415 -0.2881
  318MOL0     H43884  -0.293   7.664   2.777 -0.5126  0.7817  1.3782
  319MOL0     O43885   7.572  11.285   6.795  0.0216 -0.3804 -1.0976
  319MOL0     C43886   7.619  11.394   6.842 -0.2302  0.8785  0.7545
  319MOL0     O43887   7.605  11.513   6.783 -0.3499 -0.3331  0.1081
  319MOL0     C43888   7.501  11.522   6.691  0.4683  0.1736  0.2576
  319MOL0     C43889   7.369  11.479   6.724 -0.6778  0.0495 -0.0174
  319MOL0     C43890   7.255  11.502   6.636  0.0545  0.0958  0.2904
  319MOL0     C43891   7.271  11.567   6.511  1.1803 -0.9726  0.1359
  319MOL0     O43892   7.161  11.594   6.429 -0.2795  1.3021  0.8153
  319MOL0     C43893   7.141  11.733   6.388  0.0537  0.6518 -0.4929
  319MOL0     C43894   7.103  11.818   6.511  0.8354 -0.2683  0.0413
  319MOL0     C43895   7.097  11.969   6.486  0.4446 -0.7234  0.4272
  319MOL0     C43896   7.033  11.998   6.354  0.3808 -0.5561  0.5858
  319MOL0     C43897   6.988  12.140   6.361  0.7440 -0.4573 -0.2507
  319MOL0     C43898   6.943  12.202   6.220  0.3942  0.2364 -1.1320
  319MOL0     C43899   6.884  12.339   6.233 -0.1642  0.7927  0.4959
  319MOL0     C43900   6.833  12.391   6.096  0.4018  0.7452 -0.2739
  319MOL0     N43901   6.797  12.530   6.118  0.0467  0.6255  0.3668
  319MOL0     C43902   6.714  12.580   6.223  0.0654 -0.2233 -0.2869
  319MOL0     C43903   6.705  12.710   6.194 -0.2012  0.7297  0.3572
  319MOL0     C43904   6.617  12.801   6.267 -0.0770 -1.1232  0.5424
  319MOL0     C43905   6.614  12.794   6.424 -0.2878  0.8304  0.0267
  319MOL0     C43906   6.752  12.816   6.492 -0.4902  0.8930 -0.6020
  319MOL0     C43907   6.761  12.739   6.619 -0.0227  0.4902 -0.7806
  319MOL0     O43908   6.768  12.604   6.586  0.2643 -0.1195 -0.0823
  319MOL0     C43909   6.798  12.520   6.689 -0.7728 -0.9757 -0.0384
  319MOL0     C43910   6.851  12.563   6.821  1.0370  0.7777  0.6539
  319MOL0     C43911   6.885  12.466   6.915  0.3928 -0.2157  1.1796
  319MOL0     C43912   6.949  12.517   7.048  0.1330  0.6134  0.9028
  319MOL0     C43913   6.870  12.331   6.889 -0.3589  0.6890  0.1242
  319MOL0     C43914   6.903  12.225   6.990  0.3992 -0.5674  0.1465
  319MOL0     O43915   6.941  12.101   6.939  0.3622 -0.1017  0.1299
  319MOL0     C43916   6.892  12.003   7.016  0.8311 -0.1788  0.7798
  319MOL0     C43917   6.976  11.930   7.102 -0.6471 -0.1248  0.2983
  319MOL0     C43918   6.931  11.815   7.173  0.2408 -1.1089  0.2051
  319MOL0     C43919   6.793  11.782   7.172  0.1037  0.0570 -0.9848
  319MOL0     O43920   6.740  11.680   7.244  0.2586  0.1972 -0.6019
  319MOL0     C43921   6.788  11.655   7.384 -1.3110 -0.8551  0.5412
  319MOL0     C43922   6.695  11.569   7.477 -0.1619  0.2368  0.4161
  319MOL0     C43923   6.656  11.441   7.397  0.2740 -0.0153  0.5048
  319MOL0     C43924   6.612  11.324   7.485  0.7586  0.9623  0.8447
  319MOL0     C43925   6.607  11.191   7.410 -0.4500  0.4012 -0.2169
  319MOL0     C43926   6.541  11.077   7.481  0.2693  0.4366 -0.3209
  319MOL0     C43927   6.598  11.035   7.612 -0.2310  0.1645  0.5555
  319MOL0     C43928   6.510  10.928   7.673 -0.3895  1.0584 -0.4764
  319MOL0    Cl43929   6.515  10.777   7.571 -0.1681 -0.1890 -0.1564
  319MOL0     C43930   6.711  11.850   7.087  0.7398  0.3845 -0.2197
  319MOL0     C43931   6.759  11.953   7.012 -0.6946  0.4234  0.3616
  319MOL0     O43932   6.890  12.257   7.111  0.4846 -0.5785  0.3525
  319MOL0     C43933   6.826  12.290   6.761 -1.0123 -0.5272  1.2228
  319MOL0     C43934   6.790  12.381   6.659  0.8245  0.4779 -0.6012
  319MOL0     N43935   6.790  12.745   6.087  0.4516  0.3106  1.2855
  319MOL0     N43936   6.836  12.629   6.040  0.6333  0.4492 -0.7215
  319MOL0     C43937   7.403  11.615   6.474  0.1508  0.4766  0.8163
  319MOL0     C43938   7.511  11.593   6.568  0.2899  0.5723 -0.3350
  319MOL0     C43939   7.719  11.378   6.957 -1.6231 -0.4647 -0.5531
  319MOL0     C43940   7.768  11.499   7.018  0.0781  0.2491  0.2784
  319MOL0     C43941   7.852  11.504   7.126 -0.9053 -0.4444  0.2184
  319MOL0     C43942   7.916  11.395   7.183  0.3333  0.0941  0.2555
  319MOL0     O43943   8.008  11.417   7.290  0.0435  0.1033  0.5385
  319MOL0     C43944   8.091  11.301   7.321  0.7241 -0.1229 -0.3594
  319MOL0     C43945   8.175  11.325   7.454 -0.6058 -0.3729 -0.5867
  319MOL0     C43946   8.256  11.462   7.460  0.1497  0.2941  0.9360
  319MOL0     C43947   8.250  11.529   7.598  0.1704 -0.0688 -0.1335
  319MOL0     C43948   8.249  11.429   7.709  0.0013 -0.2395 -0.1338
  319MOL0     C43949   8.234  11.361   7.809  0.6250  0.7172 -0.3319
  319MOL0     C43950   7.893  11.273   7.104  0.7549 -0.0282 -0.6127
  319MOL0     C43951   7.780  11.269   7.022  0.1798 -0.2140  0.4539
  319MOL0     C43952   7.733  11.126   6.993 -0.1000  0.4577  0.1449
  319MOL0     H43953   7.351  11.425   6.817  2.5140 -0.6237  0.3257
  319MOL0     H43954   7.154  11.468   6.657 -0.6334  2.8899  2.1563
  319MOL0     H43955   7.055  11.741   6.320 -1.0704  1.9419  0.9948
  319MOL0     H43956   7.232  11.779   6.350  0.1507 -0.7836 -2.1292
  319MOL0     H43957   7.006  11.793   6.555  0.7625  3.2946  2.3104
  319MOL0     H43958   7.174  11.809   6.594  0.0215 -1.5341  0.6351
  319MOL0     H43959   7.040  12.018   6.565  1.1661 -1.3231  1.3455
  319MOL0     H43960   7.202  11.998   6.492 -0.0674  1.0929  1.0106
  319MOL0     H43961   7.102  11.982   6.271  0.2563  2.8517 -0.3395
  319MOL0     H43962   6.942  11.939   6.337  0.3673 -0.1083 -1.1201
  319MOL0     H43963   7.073  12.190   6.407 -0.8996  0.9518  1.4267
  319MOL0     H43964   6.897  12.142   6.422  1.3839  0.8396  0.6888
  319MOL0     H43965   7.032  12.222   6.159 -0.4143  0.8218 -2.1626
  319MOL0     H43966   6.874  12.138   6.164 -2.0721  0.4609  1.4652
  319MOL0     H43967   6.961  12.405   6.274 -0.5153  1.1365  0.6101
  319MOL0     H43968   6.789  12.335   6.287 -0.1777  3.4472  0.8345
  319MOL0     H43969   6.913  12.376   6.024 -0.0216  2.6754 -1.1967
  319MOL0     H43970   6.747  12.326   6.077 -0.4209  1.1837  1.6931
  319MOL0     H43971   6.667  12.536   6.310 -1.4868  3.0822  0.7119
  319MOL0     H43972   6.513  12.803   6.236 -0.7528 -1.7360  2.6082
  319MOL0     H43973   6.645  12.902   6.234  0.3610 -1.8361 -1.4006
  319MOL0     H43974   6.540  12.867   6.459 -0.0786  0.3805  1.4761
  319MOL0     H43975   6.583  12.691   6.445  1.7236  0.0915 -0.3932
  319MOL0     H43976   6.835  12.780   6.430  1.7021 -2.0584  3.5541
  319MOL0     H43977   6.760  12.922   6.517 -1.5576  1.2564 -1.6747
  319MOL0     H43978   6.856  12.774   6.662  0.5885 -0.7194 -1.1005
  319MOL0     H43979   6.678  12.755   6.688  0.2367 -1.0010 -0.0812
  319MOL0     H43980   6.869  12.670   6.827  0.7524  0.8284  0.5925
  319MOL0     H43981   6.867  12.518   7.121 -1.7067 -3.8061 -0.7464
  319MOL0     H43982   6.993  12.617   7.037  1.7744 -0.3860 -2.7003
  319MOL0     H43983   7.029  12.445   7.068 -1.3627 -0.4102  3.7591
  319MOL0     H43984   7.070  11.971   7.137 -0.9959  0.7141  0.2703
  319MOL0     H43985   6.999  11.764   7.241  0.1893 -1.6737 -0.1588
  319MOL0     H43986   6.882  11.599   7.375 -1.2829 -0.5710 -1.3459
  319MOL0     H43987   6.819  11.746   7.436  1.9796 -0.7304 -1.3246
  319MOL0     H43988   6.745  11.549   7.573 -1.0722 -1.1436  0.6378
  319MOL0     H43989   6.601  11.620   7.502 -0.8185 -0.3993 -0.6996
  319MOL0     H43990   6.741  11.409   7.337 -0.6654 -1.9489  0.1178
  319MOL0     H43991   6.581  11.462   7.320 -0.8132  2.5013  2.0985
  319MOL0     H43992   6.511  11.362   7.501  0.0254  2.2735 -4.8395
  319MOL0     H43993   6.669  11.319   7.578  2.0941 -0.3467  0.0001
  319MOL0     H43994   6.557  11.188   7.313  1.9470  1.2297 -1.5812
  319MOL0     H43995   6.714  11.168   7.404 -0.2205  0.9286  1.4260
  319MOL0     H43996   6.533  10.990   7.416  0.8824 -1.8617  2.4899
  319MOL0     H43997   6.440  11.118   7.494  0.4088  0.0688  2.4819
  319MOL0     H43998   6.606  11.118   7.682 -0.1830 -0.4023  1.2371
  319MOL0     H43999   6.699  10.995   7.619 -0.3128  0.2124  2.5290
  319MOL0     H44000   6.406  10.949   7.699 -1.0281  0.1947 -2.1802
  319MOL0     H44001   6.551  10.901   7.771 -1.8019  0.0273 -0.1471
  319MOL0     H44002   6.606  11.823   7.085  1.0110 -0.7085 -1.7631
  319MOL0     H44003   6.692  11.987   6.933 -0.1763 -0.6710 -0.5878
  319MOL0     H44004   6.813  12.183   6.745 -0.5427 -0.2000 -1.8016
  319MOL0     H44005   6.759  12.349   6.561  3.2763 -0.4949 -1.1355
  319MOL0     H44006   7.423  11.673   6.384 -1.9770 -0.4879 -0.3399
  319MOL0     H44007   7.610  11.628   6.539  2.5112 -4.2128  0.5342
  319MOL0     H44008   7.713  11.586   6.983 -2.1521 -1.1956  0.0421
  319MOL0     H44009   7.871  11.599   7.174 -4.2193  0.1833  0.5205
  319MOL0     H44010   8.041  11.205   7.334  0.3340  0.1684  0.3347
  319MOL0     H44011   8.164  11.290   7.240  0.9751 -0.0811 -0.1375
  319MOL0     H44012   8.244  11.243   7.472 -2.3473 -1.3215  2.7101
  319MOL0     H44013   8.098  11.323   7.532  1.6250  1.6809  1.8576
  319MOL0     H44014   8.356  11.423   7.441 -0.6402  0.0573 -4.0778
  319MOL0     H44015   8.228  11.533   7.383  0.1553  1.2052  1.7580
  319MOL0     H44016   8.162  11.593   7.610 -1.4205 -2.0676 -0.5217
  319MOL0     H44017   8.342  11.586   7.607  0.5918 -0.6797 -0.5128
  319MOL0     H44018   8.218  11.305   7.899  4.7861 -1.5364 -0.7478
  319MOL0     H44019   7.955  11.188   7.131  0.6443 -0.4434 -1.6169
  319MOL0     H44020   7.806  11.074   6.929  0.7235  1.7289  0.0069
  319MOL0     H44021   7.721  11.073   7.088 -0.2111  1.6211  0.7900
  319MOL0     H44022   7.632  11.121   6.951 -0.1219 -0.8788  0.2997
  320MOL0     O44023   5.825   1.175   2.033  0.6071  0.3434 -0.2024
  320MOL0     C44024   5.777   1.079   2.094  0.0996  0.3831 -0.0972
  320MOL0     O44025   5.650   1.020   2.073  0.0455 -0.1403  0.1487
  320MOL0     C44026   5.599   1.029   1.951  0.4956 -0.1819 -0.2611
  320MOL0     C44027   5.471   1.079   1.950  0.4646 -1.1061 -0.0818
  320MOL0     C44028   5.404   1.089   1.836 -0.1678 -0.7329  0.1816
  320MOL0     C44029   5.462   1.046   1.721  0.0762  0.2453 -0.0826
  320MOL0     O44030   5.386   1.063   1.602 -0.0635  0.3248  0.3801
  320MOL0     C44031   5.306   0.963   1.560  0.0591  0.4293  0.2866
  320MOL0     C44032   5.162   0.985   1.602  0.0628 -0.3572  0.5653
  320MOL0     C44033   5.104   1.119   1.541 -0.0888  0.1362 -0.0928
  320MOL0     C44034   4.980   1.146   1.617  0.4915  0.7335 -0.0424
  320MOL0     C44035   4.905   1.273   1.601 -0.0832 -0.3201 -0.3662
  320MOL0     C44036   4.918   1.328   1.465  0.8867 -0.4593  0.1724
  320MOL0     C44037   4.882   1.485   1.457  0.3255 -0.0938 -0.0117
  320MOL0     C44038   4.872   1.533   1.315 -0.1564  0.9502 -0.2658
  320MOL0     N44039   4.835   1.672   1.309  0.7593  0.2778  0.0202
  320MOL0     C44040   4.716   1.717   1.275  1.7630 -0.4245  0.3775
  320MOL0     C44041   4.726   1.852   1.286  0.5322 -0.3768  0.9885
  320MOL0     C44042   4.605   1.941   1.276  0.0447  1.0954  0.4890
  320MOL0     C44043   4.627   2.075   1.336  0.1079  0.8668  0.6701
  320MOL0     C44044   4.499   2.153   1.328  1.0453 -0.6458 -0.1394
  320MOL0     C44045   4.492   2.265   1.424 -0.8920 -0.1649  0.1960
  320MOL0     O44046   4.498   2.223   1.562  0.9357 -0.2307  0.4132
  320MOL0     C44047   4.545   2.306   1.659  0.4466  0.0475  0.6992
  320MOL0     C44048   4.534   2.249   1.787  0.3170 -1.0475  0.7455
  320MOL0     C44049   4.589   2.313   1.903 -0.3726 -0.8328  0.4694
  320MOL0     C44050   4.581   2.240   2.033 -0.5836 -0.1829 -0.6918
  320MOL0     C44051   4.646   2.440   1.889  1.1356  0.2268 -0.2118
  320MOL0     C44052   4.701   2.527   2.002 -0.1432  0.4723  0.2359
  320MOL0     O44053   4.772   2.641   1.961 -1.0567  0.5698 -0.3183
  320MOL0     C44054   4.792   2.734   2.053 -0.8890  0.2853  0.5847
  320MOL0     C44055   4.687   2.821   2.085  0.3474 -0.0422 -0.0399
  320MOL0     C44056   4.683   2.893   2.205  0.5764  0.1707 -0.0231
  320MOL0     C44057   4.799   2.900   2.285 -0.2264 -0.1725  0.3404
  320MOL0     O44058   4.797   2.973   2.400  0.2592 -0.4716  0.5842
  320MOL0     C44059   4.853   2.915   2.521 -0.5057  0.1647 -0.5381
  320MOL0     C44060   4.748   2.910   2.638 -0.1789  0.1549 -0.1780
  320MOL0     C44061   4.692   3.056   2.663  0.0281  0.8379  0.1073
  320MOL0     C44062   4.610   3.065   2.789  0.6365 -0.4052  0.0210
  320MOL0     C44063   4.534   3.208   2.787  0.0516  0.5360 -0.3989
  320MOL0     C44064   4.488   3.260   2.925 -0.2120  0.6196  0.3373
  320MOL0     C44065   4.376   3.163   2.977  0.1939  0.0090 -1.5213
  320MOL0     C44066   4.418   3.054   3.083 -0.4186  0.1438 -0.9619
  320MOL0    Cl44067   4.509   3.145   3.217 -0.7004 -0.1159  0.1893
  320MOL0     C44068   4.915   2.831   2.239  0.1855 -0.1192 -0.9170
  320MOL0     C44069   4.904   2.734   2.137  0.7449 -0.8452  0.9255
  320MOL0     O44070   4.672   2.493   2.121  0.0748 -0.0668 -0.6603
  320MOL0     C44071   4.643   2.493   1.763  0.0349 -0.0998 -1.1338
  320MOL0     C44072   4.604   2.432   1.646 -0.8824  0.2120 -0.4517
  320MOL0     N44073   4.848   1.884   1.314 -1.1668  0.1566 -0.3218
  320MOL0     N44074   4.916   1.774   1.312 -0.2138  0.2824  0.6729
  320MOL0     C44075   5.584   0.991   1.723 -0.1360  1.4413  0.2574
  320MOL0     C44076   5.657   0.985   1.837 -0.4432  0.4625 -0.1342
  320MOL0     C44077   5.838   1.035   2.228  0.3077  0.1701  0.1717
  320MOL0     C44078   5.789   0.933   2.303  0.0363 -0.3613  0.6681
  320MOL0     C44079   5.847   0.899   2.425 -0.7129  0.8429 -0.3417
  320MOL0     C44080   5.960   0.967   2.474 -0.4651  0.0515  1.8485
  320MOL0     O44081   6.028   0.923   2.585  0.1176 -0.5309  0.3445
  320MOL0     C44082   6.153   0.863   2.550  0.1695 -0.2115 -0.0187
  320MOL0     C44083   6.212   0.794   2.667  0.3671 -0.9221  0.8578
  320MOL0     C44084   6.237   0.887   2.785 -0.1914 -0.7783  1.0896
  320MOL0     C44085   6.317   0.830   2.892 -0.3375  0.0902  0.2695
  320MOL0     C44086   6.254   0.858   3.019 -0.1984 -0.1698 -0.1452
  320MOL0     C44087   6.227   0.862   3.140  0.6512 -0.1437  0.2287
  320MOL0     C44088   6.009   1.078   2.396  0.0120  0.0803 -0.7730
  320MOL0     C44089   5.956   1.111   2.270  0.6015  0.6919 -0.1465
  320MOL0     C44090   6.028   1.232   2.216  0.9605 -0.8172 -0.2424
  320MOL0     H44091   5.426   1.112   2.043  1.5427  1.3448 -0.3575
  320MOL0     H44092   5.315   1.152   1.836  0.0123 -0.4528 -0.7891
  320MOL0     H44093   5.344   0.865   1.590  2.1836  0.7672 -1.0806
  320MOL0     H44094   5.301   0.958   1.451 -0.3317  0.7935  0.2839
  320MOL0     H44095   5.102   0.902   1.562  0.1814 -0.2578  0.1699
  320MOL0     H44096   5.156   0.989   1.711  0.4930  1.5085  0.5455
  320MOL0     H44097   5.163   1.209   1.561 -3.7824  3.2554 -1.8112
  320MOL0     H44098   5.087   1.104   1.434 -1.2438 -0.9640  0.2304
  320MOL0     H44099   4.914   1.068   1.580 -0.6605  1.5774  0.1596
  320MOL0     H44100   4.993   1.135   1.725 -0.2641  0.8375  0.0679
  320MOL0     H44101   4.958   1.339   1.670  0.9596  0.4890 -1.8807
  320MOL0     H44102   4.799   1.252   1.619  0.1279 -2.3084 -1.1643
  320MOL0     H44103   5.024   1.315   1.441  1.2870 -2.2524  2.5249
  320MOL0     H44104   4.856   1.268   1.398 -2.0690  2.0986  0.3365
  320MOL0     H44105   4.955   1.543   1.513 -1.2848  1.1801  0.8647
  320MOL0     H44106   4.788   1.508   1.508 -0.1354 -1.1944 -0.3330
  320MOL0     H44107   4.974   1.526   1.276  0.1573  0.4830  0.6066
  320MOL0     H44108   4.805   1.475   1.251  1.0901 -2.0839  0.9840
  320MOL0     H44109   4.628   1.654   1.269  0.1477  1.6171  1.1966
  320MOL0     H44110   4.518   1.896   1.325 -0.8616  0.5648 -1.5268
  320MOL0     H44111   4.576   1.946   1.171 -0.6218 -3.4260  0.2689
  320MOL0     H44112   4.640   2.065   1.444  0.6837  0.0420  0.5343
  320MOL0     H44113   4.722   2.107   1.293  0.0368  1.3023  0.8401
  320MOL0     H44114   4.486   2.195   1.227  0.7660 -1.0649 -0.2830
  320MOL0     H44115   4.413   2.088   1.349  0.7718  0.0623  0.9561
  320MOL0     H44116   4.583   2.321   1.401 -0.4092 -1.2053 -0.5027
  320MOL0     H44117   4.401   2.323   1.402  1.1401  3.1560 -0.1692
  320MOL0     H44118   4.497   2.149   1.806 -0.5744 -0.2724  3.6985
  320MOL0     H44119   4.673   2.230   2.091  0.1184 -1.3844 -1.9359
  320MOL0     H44120   4.562   2.133   2.016 -0.9217 -0.1694 -0.4053
  320MOL0     H44121   4.493   2.276   2.087 -1.0437  0.1988 -1.6701
  320MOL0     H44122   4.603   2.828   2.016  0.0528  0.1538  0.3328
  320MOL0     H44123   4.600   2.955   2.235 -1.2763  0.6463 -5.0652
  320MOL0     H44124   4.901   2.817   2.512 -2.5241 -1.3735  3.2643
  320MOL0     H44125   4.941   2.973   2.551  0.4874  0.6390 -3.9197
  320MOL0     H44126   4.667   2.845   2.603  1.5440 -0.9241 -2.4429
  320MOL0     H44127   4.802   2.869   2.724  2.4686  0.5412 -1.5674
  320MOL0     H44128   4.645   3.078   2.566  1.3771 -1.1777 -1.0762
  320MOL0     H44129   4.774   3.128   2.670  2.1869 -1.0366 -3.1541
  320MOL0     H44130   4.692   3.063   2.862 -0.2827 -0.7957  1.0776
  320MOL0     H44131   4.542   2.980   2.787  0.7207 -0.4779  0.1704
  320MOL0     H44132   4.608   3.283   2.760  1.4189 -0.6369 -0.0512
  320MOL0     H44133   4.453   3.201   2.714  0.4017  1.5884 -0.8896
  320MOL0     H44134   4.440   3.357   2.909 -1.3690  0.8797  4.4093
  320MOL0     H44135   4.580   3.273   2.982  0.7659 -1.1805 -0.7302
  320MOL0     H44136   4.325   3.115   2.892 -1.4279 -1.0099 -0.0279
  320MOL0     H44137   4.292   3.215   3.023  0.4638  0.0169 -1.0424
  320MOL0     H44138   4.479   2.977   3.035 -0.1927 -1.3693  1.5347
  320MOL0     H44139   4.330   2.996   3.113  2.2466 -4.5676 -1.2021
  320MOL0     H44140   5.007   2.842   2.295  0.8207 -4.3031 -0.8012
  320MOL0     H44141   4.983   2.662   2.119  0.5403 -0.9614  0.4818
  320MOL0     H44142   4.686   2.593   1.754 -1.8722  0.9376  0.3908
  320MOL0     H44143   4.614   2.485   1.552 -1.4717  3.9048  1.3840
  320MOL0     H44144   5.626   0.955   1.629 -0.9444 -1.8450  1.0246
  320MOL0     H44145   5.761   0.952   1.835 -1.1540 -2.0653  1.4946
  320MOL0     H44146   5.697   0.883   2.274  0.2018 -0.1647 -0.2124
  320MOL0     H44147   5.803   0.813   2.474  0.0525  0.2646 -0.6431
  320MOL0     H44148   6.145   0.793   2.466 -0.9893  0.0994 -0.1754
  320MOL0     H44149   6.226   0.938   2.520  0.7532 -1.3702 -1.6312
  320MOL0     H44150   6.302   0.744   2.631 -0.1198 -2.1841  1.3228
  320MOL0     H44151   6.136   0.722   2.701 -1.2969  0.8377  1.0150
  320MOL0     H44152   6.287   0.975   2.743 -6.0532  1.7930 -1.4812
  320MOL0     H44153   6.140   0.926   2.817 -0.1770  0.7653 -0.6001
  320MOL0     H44154   6.415   0.879   2.896  1.2511 -2.8599  1.7978
  320MOL0     H44155   6.336   0.722   2.888 -2.2507 -0.3606  1.9370
  320MOL0     H44156   6.192   0.863   3.242 -0.3680 -2.5165 -0.0349
  320MOL0     H44157   6.084   1.137   2.447 -0.2821  0.1202 -0.3860
  320MOL0     H44158   6.107   1.265   2.284 -0.1600  2.3482 -0.3187
  320MOL0     H44159   6.074   1.217   2.117 -0.0626  2.7947 -1.4050
  320MOL0     H44160   5.948   1.305   2.209  0.3692 -1.5236 -1.2333
  321MOL0     O44161   6.959   7.734   2.783  0.7381 -0.1730  0.7981
  321MOL0     C44162   7.075   7.732   2.828 -0.9877 -1.3104  1.0919
  321MOL0     O44163   7.196   7.741   2.774 -0.3401  0.0867  0.2751
  321MOL0     C44164   7.222   7.795   2.653 -0.2297 -0.0562 -0.0989
  321MOL0     C44165   7.343   7.763   2.599  0.0418 -0.0102 -0.4129
  321MOL0     C44166   7.373   7.790   2.471  0.1509 -0.9515  0.3850
  321MOL0     C44167   7.292   7.866   2.389  0.6698  0.7702 -0.2601
  321MOL0     O44168   7.319   7.890   2.256  0.0198  0.3933  0.0007
  321MOL0     C44169   7.448   7.861   2.193  0.2654 -0.1520  0.1162
  321MOL0     C44170   7.460   7.717   2.151 -0.0366  0.1314  0.4638
  321MOL0     C44171   7.601   7.688   2.108  0.5215 -0.2106 -0.1156
  321MOL0     C44172   7.670   7.561   2.168 -0.6443 -0.1330  0.0778
  321MOL0     C44173   7.729   7.585   2.304 -0.3345  0.1715  0.1436
  321MOL0     C44174   7.859   7.672   2.294 -0.3399 -0.1642  0.2794
  321MOL0     C44175   7.961   7.666   2.407 -0.9123 -0.3824  0.1875
  321MOL0     C44176   7.925   7.706   2.547 -0.1156  0.2162  0.4014
  321MOL0     N44177   7.863   7.844   2.563  0.1415  0.6451 -0.5423
  321MOL0     C44178   7.736   7.879   2.545 -0.4299  0.6050 -0.4962
  321MOL0     C44179   7.734   8.022   2.539 -0.4406  0.5771 -0.8414
  321MOL0     C44180   7.618   8.122   2.505 -0.0321  0.6920  0.1957
  321MOL0     C44181   7.493   8.107   2.603 -0.3238  0.4151  0.8023
  321MOL0     C44182   7.532   8.148   2.748 -0.0428  0.4021  1.1355
  321MOL0     C44183   7.399   8.125   2.819 -0.9010  0.7211  0.1821
  321MOL0     O44184   7.426   8.141   2.959 -0.6940 -0.5884 -0.0294
  321MOL0     C44185   7.328   8.124   3.049 -0.2505 -0.2483 -0.4091
  321MOL0     C44186   7.359   8.199   3.169 -0.2386 -0.2040  0.6689
  321MOL0     C44187   7.268   8.213   3.274 -0.4184 -0.5135  0.5523
  321MOL0     C44188   7.315   8.290   3.392 -0.0182 -1.1672  0.4245
  321MOL0     C44189   7.138   8.142   3.266  0.4895 -0.0517  0.2439
  321MOL0     C44190   7.052   8.102   3.388 -0.2065 -0.2777  0.5552
  321MOL0     O44191   6.941   8.031   3.373 -0.1682  0.2127 -0.1291
  321MOL0     C44192   6.855   8.015   3.482 -0.7802 -0.3666  0.8150
  321MOL0     C44193   6.786   7.892   3.489  0.2863  0.6935 -0.0058
  321MOL0     C44194   6.676   7.885   3.578 -0.7809  0.4270 -0.8085
  321MOL0     C44195   6.653   7.983   3.675 -0.0788 -0.3093  0.4436
  321MOL0     O44196   6.541   7.970   3.754  0.3105 -0.6419 -0.2422
  321MOL0     C44197   6.549   7.964   3.896 -0.1504 -0.1643  0.0604
  321MOL0     C44198   6.421   7.888   3.941 -0.1841 -0.0776 -0.3761
  321MOL0     C44199   6.420   7.738   3.894 -1.4643  0.0766 -0.9400
  321MOL0     C44200   6.324   7.651   3.984 -0.8385  0.8869 -0.2616
  321MOL0     C44201   6.173   7.658   3.928 -0.5488 -0.2542 -0.7596
  321MOL0     C44202   6.151   7.565   3.811 -0.1814  0.4543 -0.4621
  321MOL0     C44203   6.010   7.602   3.762  0.1288  0.1051 -0.1242
  321MOL0     C44204   5.976   7.537   3.622  1.0752 -0.1425 -0.8335
  321MOL0    Cl44205   6.087   7.609   3.495  0.4203  0.2782 -0.4931
  321MOL0     C44206   6.728   8.094   3.671  0.1417 -0.4071 -0.5147
  321MOL0     C44207   6.821   8.123   3.569 -0.0031 -0.4340  0.0474
  321MOL0     O44208   7.105   8.123   3.498  0.1264  0.2417 -0.2462
  321MOL0     C44209   7.104   8.077   3.151 -0.5476  0.4229 -0.5177
  321MOL0     C44210   7.199   8.069   3.040 -1.0014 -0.1486 -0.0039
  321MOL0     N44211   7.862   8.060   2.560 -0.6418 -0.4157 -0.6733
  321MOL0     N44212   7.938   7.959   2.575 -0.5771 -0.6009 -0.0867
  321MOL0     C44213   7.168   7.915   2.445  0.0372  0.1847  0.2904
  321MOL0     C44214   7.133   7.868   2.575 -1.1086 -0.2395  0.0510
  321MOL0     C44215   7.074   7.728   2.981  1.2131  0.9045  1.0757
  321MOL0     C44216   6.949   7.741   3.044 -0.0350 -0.3721  0.9192
  321MOL0     C44217   6.939   7.738   3.179 -0.4927 -0.0201 -0.8337
  321MOL0     C44218   7.044   7.729   3.264 -0.5777 -0.1587 -1.0574
  321MOL0     O44219   7.023   7.719   3.402  0.3757 -0.2078 -0.4867
  321MOL0     C44220   7.061   7.585   3.451 -0.2735  0.9005 -0.3218
  321MOL0     C44221   6.957   7.472   3.417 -0.1414 -0.0565 -0.0740
  321MOL0     C44222   6.835   7.483   3.501 -0.0719 -0.2877  0.6447
  321MOL0     C44223   6.854   7.489   3.658  0.0233 -0.1513 -0.1051
  321MOL0     C44224   6.728   7.485   3.726  0.0451 -0.7206  0.2378
  321MOL0     C44225   6.623   7.486   3.778 -0.4460 -0.1400  0.1705
  321MOL0     C44226   7.172   7.727   3.213  0.3069 -0.5977 -0.4927
  321MOL0     C44227   7.190   7.730   3.070 -0.4999  0.0763 -0.1225
  321MOL0     C44228   7.329   7.730   3.026 -0.5374 -1.3448 -0.5772
  321MOL0     H44229   7.416   7.695   2.642 -0.8893  0.2559  1.7331
  321MOL0     H44230   7.449   7.730   2.422  0.4955  0.6754 -1.1671
  321MOL0     H44231   7.527   7.889   2.263 -0.0982  0.2027  0.3921
  321MOL0     H44232   7.472   7.930   2.111 -1.9951  0.2019 -0.3072
  321MOL0     H44233   7.451   7.650   2.237 -0.5601 -0.8346 -0.3261
  321MOL0     H44234   7.385   7.687   2.078  0.4380 -2.1454  0.8531
  321MOL0     H44235   7.596   7.678   1.999 -2.0149 -1.6043  0.0441
  321MOL0     H44236   7.668   7.773   2.123  0.4985 -0.3885  1.0967
  321MOL0     H44237   7.605   7.474   2.174  1.6448 -2.0217 -0.8635
  321MOL0     H44238   7.750   7.528   2.101 -2.1555  0.3191 -2.0442
  321MOL0     H44239   7.757   7.486   2.343 -3.6956 -1.3731 -0.9552
  321MOL0     H44240   7.655   7.629   2.371 -0.1550 -0.8785  1.0623
  321MOL0     H44241   7.910   7.657   2.199 -0.6753 -0.5379  0.1557
  321MOL0     H44242   7.821   7.774   2.287 -0.9587 -0.4686 -1.1273
  321MOL0     H44243   8.050   7.717   2.370 -0.4115 -0.5015  1.2160
  321MOL0     H44244   7.986   7.560   2.411 -1.7401 -0.8333 -3.3321
  321MOL0     H44245   7.841   7.639   2.566 -0.8135 -0.0363 -2.9281
  321MOL0     H44246   8.008   7.700   2.618  0.0915 -1.8996  0.0538
  321MOL0     H44247   7.665   7.797   2.546 -0.2350  0.4276  1.1450
  321MOL0     H44248   7.589   8.091   2.404  1.2730  0.5974 -0.1704
  321MOL0     H44249   7.649   8.225   2.484 -0.0204  0.7928  0.6922
  321MOL0     H44250   7.404   8.159   2.567 -0.2534 -0.1814 -0.2802
  321MOL0     H44251   7.460   8.004   2.617 -1.1547  0.0598 -2.8363
  321MOL0     H44252   7.611   8.076   2.770  0.2382  0.3474  0.0479
  321MOL0     H44253   7.564   8.252   2.757  0.8185  0.3072 -0.3509
  321MOL0     H44254   7.323   8.199   2.792 -2.7575 -0.5945  1.5223
  321MOL0     H44255   7.350   8.029   2.798 -0.1160 -0.1077  1.9495
  321MOL0     H44256   7.454   8.251   3.164 -1.4007  1.9463 -0.3887
  321MOL0     H44257   7.351   8.227   3.474  0.4551 -4.9688 -2.4581
  321MOL0     H44258   7.233   8.344   3.441  0.5296 -1.3501  1.5954
  321MOL0     H44259   7.380   8.372   3.360 -0.6998 -0.3425  1.1043
  321MOL0     H44260   6.800   7.804   3.428 -1.1866  1.3869 -1.4051
  321MOL0     H44261   6.621   7.792   3.571 -2.7504  1.6511 -3.3602
  321MOL0     H44262   6.634   7.905   3.932 -1.2932 -0.0699  3.2834
  321MOL0     H44263   6.547   8.066   3.935 -0.6313 -0.1621  0.0286
  321MOL0     H44264   6.428   7.885   4.050 -0.0678  0.1355 -0.3771
  321MOL0     H44265   6.328   7.939   3.918 -0.6204 -0.0360  1.3497
  321MOL0     H44266   6.517   7.688   3.896 -0.0052  2.7259  1.2159
  321MOL0     H44267   6.384   7.727   3.792 -4.4608 -0.4086  0.0767
  321MOL0     H44268   6.336   7.692   4.085 -0.4989  0.3579 -0.0828
  321MOL0     H44269   6.354   7.546   3.991 -4.1898 -0.1421  1.0549
  321MOL0     H44270   6.095   7.630   3.999  2.5501 -2.0514  2.2077
  321MOL0     H44271   6.153   7.760   3.894 -1.3899  0.2222  1.0433
  321MOL0     H44272   6.159   7.458   3.832  1.5059  0.7641  0.6081
  321MOL0     H44273   6.218   7.595   3.730 -1.6969  1.7735 -1.3037
  321MOL0     H44274   6.000   7.710   3.750 -2.6506  0.0217  0.8149
  321MOL0     H44275   5.937   7.564   3.834  0.2200  0.2063  0.0218
  321MOL0     H44276   5.873   7.560   3.593  1.6429  1.8923 -1.3519
  321MOL0     H44277   5.983   7.428   3.635 -1.8855 -0.2136  1.1261
  321MOL0     H44278   6.704   8.164   3.750  2.0444  1.2434 -1.3142
  321MOL0     H44279   6.867   8.220   3.582 -0.2358 -0.4398  1.0084
  321MOL0     H44280   7.016   8.017   3.132  0.4678 -1.3287  0.0366
  321MOL0     H44281   7.174   8.030   2.942  0.6599  2.9126 -1.7838
  321MOL0     H44282   7.101   7.974   2.384 -1.5071  0.8295  2.4851
  321MOL0     H44283   7.032   7.898   2.602 -0.9401  1.5588 -1.1410
  321MOL0     H44284   6.850   7.737   2.999  0.9620  2.9710 -1.9708
  321MOL0     H44285   6.841   7.749   3.225 -0.8819 -2.5861 -0.8959
  321MOL0     H44286   7.145   7.554   3.389 -3.4161 -3.1942 -3.0537
  321MOL0     H44287   7.085   7.587   3.558  0.0958 -2.0088 -0.2919
  321MOL0     H44288   7.008   7.378   3.439 -0.1640 -0.7746 -2.7007
  321MOL0     H44289   6.943   7.467   3.309  2.5019 -1.9440 -0.4400
  321MOL0     H44290   6.784   7.570   3.458  0.9534 -1.0992 -2.4059
  321MOL0     H44291   6.766   7.403   3.476  0.4223 -0.2883 -0.8266
  321MOL0     H44292   6.904   7.582   3.684  0.3549 -0.1960 -0.5613
  321MOL0     H44293   6.926   7.418   3.699  2.2802  1.2725 -1.3905
  321MOL0     H44294   6.529   7.482   3.830  0.1587  0.8383  1.3889
  321MOL0     H44295   7.258   7.726   3.278  0.4670 -0.6416 -0.7030
  321MOL0     H44296   7.399   7.733   3.110 -0.0300 -0.0586 -1.0154
  321MOL0     H44297   7.345   7.641   2.964  0.1692 -1.6374  0.0070
  321MOL0     H44298   7.351   7.814   2.960  1.1611 -0.5381  0.9121
  322MOL0     O44299   0.149  10.804   9.104  0.6198  0.3325  0.2910
  322MOL0     C44300   0.096  10.693   9.119  0.5598  0.7040 -0.1595
  322MOL0     O44301   0.004  10.654   9.230  0.7226  0.2127  0.1429
  322MOL0     C44302  -0.044  10.754   9.303  0.1064 -1.5350  0.0292
  322MOL0     C44303  -0.121  10.849   9.247  0.3709  0.4246  1.1334
  322MOL0     C44304  -0.184  10.952   9.315 -0.4571 -0.1472 -0.7233
  322MOL0     C44305  -0.153  10.968   9.455 -0.6519  0.1879  0.4783
  322MOL0     O44306  -0.199  11.063   9.536  1.1612  0.0991  0.0143
  322MOL0     C44307  -0.256  11.184   9.475  0.3194  0.0456 -1.2776
  322MOL0     C44308  -0.325  11.265   9.593  0.6668  1.0528 -0.3292
  322MOL0     C44309  -0.371  11.407   9.568 -1.0353  0.5452 -0.1038
  322MOL0     C44310  -0.446  11.467   9.682  0.2259  1.2155  0.3605
  322MOL0     C44311  -0.353  11.494   9.802  0.0191  0.0069 -0.6902
  322MOL0     C44312  -0.403  11.618   9.876 -0.5370 -0.1826  0.4398
  322MOL0     C44313  -0.410  11.747   9.785  1.1765  0.6469 -0.2577
  322MOL0     C44314  -0.273  11.798   9.717  0.1267  0.2633 -0.8830
  322MOL0     N44315  -0.166  11.815   9.818  0.1692 -0.3937 -0.1416
  322MOL0     C44316  -0.030  11.839   9.792  0.1841  0.8248  0.0032
  322MOL0     C44317   0.021  11.879   9.912 -0.5698 -0.9426 -0.0445
  322MOL0     C44318   0.160  11.932   9.949  0.0619  0.2123  0.2845
  322MOL0     C44319   0.147  12.070  10.005  0.4157 -0.9353  0.0412
  322MOL0     C44320   0.095  12.162   9.896 -0.2585  0.3772 -0.0709
  322MOL0     C44321   0.179  12.283   9.863  0.1054  0.0653  0.6081
  322MOL0     O44322   0.311  12.226   9.817 -0.0896 -0.6454  0.8879
  322MOL0     C44323   0.431  12.285   9.848  0.0184  0.2244  0.1423
  322MOL0     C44324   0.439  12.420   9.895  0.3504  0.1007  0.0668
  322MOL0     C44325   0.562  12.489   9.920  0.4123 -0.1883  0.6233
  322MOL0     C44326   0.555  12.632   9.964 -1.0377 -0.8494 -0.8357
  322MOL0     C44327   0.685  12.427   9.885  0.5341  0.9527 -0.7317
  322MOL0     C44328   0.820  12.487   9.885  0.5982  0.1726 -1.1415
  322MOL0     O44329   0.849  12.603   9.954 -0.4942 -0.8142 -0.0487
  322MOL0     C44330   0.958  12.675   9.919 -0.9012 -0.4802 -0.7763
  322MOL0     C44331   1.025  12.730  10.040 -0.7582  0.0460  0.9803
  322MOL0     C44332   1.131  12.820  10.023  0.6454  0.1027  0.3663
  322MOL0     C44333   1.164  12.854   9.888 -0.0390 -0.0530  0.5238
  322MOL0     O44334   1.262  12.955   9.876 -0.0887  0.2040 -0.1239
  322MOL0     C44335   1.383  12.904   9.808 -0.2223  0.1255  0.1125
  322MOL0     C44336   1.473  12.806   9.901  0.3204  0.2567  0.9931
  322MOL0     C44337   1.510  12.884  10.017 -0.7147 -0.1981  0.1626
  322MOL0     C44338   1.625  12.818  10.090 -0.4829 -0.0430  0.5284
  322MOL0     C44339   1.580  12.695  10.157 -1.3028 -0.2410 -1.0893
  322MOL0     C44340   1.698  12.620  10.228  0.4349 -0.4739  0.3619
  322MOL0     C44341   1.676  12.464  10.253  0.0116 -0.0394 -0.2273
  322MOL0     C44342   1.798  12.414  10.320 -0.0314 -0.0964 -0.4337
  322MOL0    Cl44343   1.949  12.435  10.219 -0.1523  0.2000 -0.0322
  322MOL0     C44344   1.093  12.803   9.774 -0.6952 -0.2947  0.0210
  322MOL0     C44345   0.989  12.719   9.794 -0.1456  0.3187  0.2430
  322MOL0     O44346   0.899  12.423   9.822 -1.0330 -0.5752  0.2768
  322MOL0     C44347   0.669  12.289   9.842 -0.6436 -0.3287  0.2552
  322MOL0     C44348   0.549  12.228   9.816  0.7866  0.2512 -0.2967
  322MOL0     N44349  -0.081  11.904  10.001  0.5770 -0.8544  0.6770
  322MOL0     N44350  -0.193  11.857   9.949 -0.3630  0.0622 -0.2986
  322MOL0     C44351  -0.086  10.865   9.517  0.3487  0.1214 -1.1633
  322MOL0     C44352  -0.028  10.760   9.438  0.5429  0.4932  0.5098
  322MOL0     C44353   0.120  10.578   9.015 -0.2406  0.5174  0.4508
  322MOL0     C44354   0.109  10.445   9.055 -0.7805 -0.5096 -0.1703
  322MOL0     C44355   0.146  10.342   8.965  0.0316  0.3486 -0.4046
  322MOL0     C44356   0.190  10.370   8.834  1.0858 -0.6196  1.3421
  322MOL0     O44357   0.211  10.265   8.748 -0.7494  0.1760 -0.4707
  322MOL0     C44358   0.350  10.220   8.754 -0.5447  0.4342 -0.0797
  322MOL0     C44359   0.338  10.065   8.741 -1.1014  0.2960  0.4415
  322MOL0     C44360   0.344  10.001   8.884  0.5750 -0.0846 -0.0931
  322MOL0     C44361   0.378   9.847   8.872 -0.6790 -0.0576 -0.1927
  322MOL0     C44362   0.342   9.771   8.994 -0.3246 -0.2848 -0.8044
  322MOL0     C44363   0.320   9.700   9.089 -0.8105  0.3573  0.4249
  322MOL0     C44364   0.189  10.497   8.793 -0.2357  0.1409 -0.4875
  322MOL0     C44365   0.169  10.606   8.881  0.4575  0.4660  0.1001
  322MOL0     C44366   0.187  10.745   8.832  0.5333  0.0893  0.5780
  322MOL0     H44367  -0.133  10.842   9.140 -1.4069 -2.7843  1.4394
  322MOL0     H44368  -0.236  11.036   9.271  2.9097  2.7043  0.2862
  322MOL0     H44369  -0.322  11.158   9.392 -0.6327  2.7212 -1.4379
  322MOL0     H44370  -0.175  11.249   9.441  0.1686  1.7812  1.3938
  322MOL0     H44371  -0.407  11.199   9.625  1.7996 -1.2606 -1.9318
  322MOL0     H44372  -0.261  11.257   9.681 -1.8629 -0.3241  1.5214
  322MOL0     H44373  -0.293  11.478   9.535 -0.3427 -0.7062 -1.2764
  322MOL0     H44374  -0.441  11.412   9.484 -0.6638  1.0263 -0.4006
  322MOL0     H44375  -0.499  11.557   9.650  2.7050  2.4390 -0.5936
  322MOL0     H44376  -0.510  11.389   9.724  0.4287  1.2187  0.6776
  322MOL0     H44377  -0.251  11.519   9.773  0.9358 -0.4255  1.9023
  322MOL0     H44378  -0.349  11.405   9.865  1.7938  0.1765 -0.5335
  322MOL0     H44379  -0.506  11.594   9.905 -1.6953  1.9659 -1.5156
  322MOL0     H44380  -0.345  11.626   9.968  0.1344 -0.4272  0.0422
  322MOL0     H44381  -0.451  11.820   9.855  2.0615  0.2813  0.6754
  322MOL0     H44382  -0.497  11.730   9.722  1.3886 -2.8084  0.1494
  322MOL0     H44383  -0.232  11.722   9.651 -1.7486  0.7801 -2.7247
  322MOL0     H44384  -0.284  11.896   9.670  1.7150  2.7634  3.3791
  322MOL0     H44385   0.019  11.819   9.697 -0.8878 -2.4301 -0.0167
  322MOL0     H44386   0.230  11.926   9.865  1.0418 -0.1856  1.1059
  322MOL0     H44387   0.196  11.870  10.032 -0.3376  0.6950  0.8355
  322MOL0     H44388   0.090  12.086  10.097 -0.2140 -2.9884  0.0572
  322MOL0     H44389   0.247  12.101  10.037  0.1119  0.3915 -0.2152
  322MOL0     H44390   0.089  12.100   9.806  0.8765 -1.6635  1.1893
  322MOL0     H44391  -0.008  12.191   9.919 -0.5662 -0.9595  0.2949
  322MOL0     H44392   0.142  12.346   9.781  0.6332 -0.9612 -0.4461
  322MOL0     H44393   0.185  12.348   9.951 -0.2592  1.6461 -0.4979
  322MOL0     H44394   0.345  12.463   9.928  0.5069  0.0236  0.6303
  322MOL0     H44395   0.452  12.665   9.976 -1.0548 -1.9622  4.5655
  322MOL0     H44396   0.620  12.702   9.910 -0.2179 -0.5223  0.5352
  322MOL0     H44397   0.592  12.626  10.066 -1.8320  0.8157 -0.4170
  322MOL0     H44398   0.981  12.699  10.135 -0.1586  0.6712  1.4692
  322MOL0     H44399   1.194  12.856  10.104  1.5818 -0.8828  0.0976
  322MOL0     H44400   1.339  12.848   9.725 -4.5299  1.7595  1.0621
  322MOL0     H44401   1.448  12.979   9.762  0.5251 -0.8332 -0.4564
  322MOL0     H44402   1.405  12.724   9.927  1.2009 -2.3750 -3.7687
  322MOL0     H44403   1.556  12.762   9.846  0.2754  1.3433 -0.0037
  322MOL0     H44404   1.419  12.901  10.074 -1.5759  2.2602 -1.7367
  322MOL0     H44405   1.553  12.981   9.987  2.3989 -1.7950 -1.0184
  322MOL0     H44406   1.663  12.894  10.158 -1.0488  1.4499 -0.7692
  322MOL0     H44407   1.694  12.784  10.013 -0.6638  1.0525 -0.1410
  322MOL0     H44408   1.509  12.702  10.240  1.4606 -4.0030  1.9953
  322MOL0     H44409   1.533  12.625  10.087 -2.5481 -2.3032  1.6395
  322MOL0     H44410   1.730  12.671  10.319 -1.1722 -1.8521  1.7607
  322MOL0     H44411   1.772  12.628  10.148 -1.7988  2.1909 -1.6569
  322MOL0     H44412   1.683  12.411  10.158  1.1861  1.6063 -1.1175
  322MOL0     H44413   1.582  12.451  10.308  0.7041  1.7520  1.5239
  322MOL0     H44414   1.786  12.306  10.332  0.8904 -0.0373  1.2695
  322MOL0     H44415   1.823  12.463  10.414  2.1584 -0.0842 -0.9646
  322MOL0     H44416   1.125  12.843   9.678 -0.0009  1.6195  0.9873
  322MOL0     H44417   0.941  12.675   9.707  1.2878  0.9899 -0.9270
  322MOL0     H44418   0.761  12.241   9.809 -0.7502 -1.9760  2.1485
  322MOL0     H44419   0.543  12.124   9.786 -4.2429 -0.3665  1.7818
  322MOL0     H44420  -0.061  10.870   9.623  1.9742 -1.4096 -1.4244
  322MOL0     H44421   0.023  10.671   9.473  1.4934 -0.2555 -2.4944
  322MOL0     H44422   0.081  10.423   9.158 -0.4631  1.0935  0.2949
  322MOL0     H44423   0.156  10.248   9.020  0.5128  2.7927  4.2087
  322MOL0     H44424   0.407  10.257   8.668  2.7672 -0.6794  1.4500
  322MOL0     H44425   0.413  10.237   8.841  2.0342 -1.8655 -1.3375
  322MOL0     H44426   0.415  10.025   8.675 -2.8563 -1.1589 -0.8313
  322MOL0     H44427   0.240  10.039   8.699 -1.2036 -1.7800  1.7590
  322MOL0     H44428   0.436  10.036   8.932  2.4958 -2.6520 -1.6103
  322MOL0     H44429   0.251  10.022   8.938  0.8699 -1.1858  0.8840
  322MOL0     H44430   0.485   9.837   8.854 -0.7090  0.7430 -0.8622
  322MOL0     H44431   0.327   9.799   8.788  0.2439 -0.4774 -0.5227
  322MOL0     H44432   0.306   9.621   9.160 -0.5116 -2.5405 -2.5098
  322MOL0     H44433   0.218  10.511   8.689 -3.1030 -4.8583 -2.3571
  322MOL0     H44434   0.273  10.796   8.876  1.2317  1.0961 -1.7879
  322MOL0     H44435   0.197  10.757   8.723 -2.4430 -0.8526  0.0943
  322MOL0     H44436   0.102  10.811   8.853  1.6535  2.1408 -0.9174
  323MOL0     O44437   5.135  10.366   7.079 -0.5288  0.1562 -0.3059
  323MOL0     C44438   5.070  10.343   6.982 -0.0581 -0.0121  0.4618
  323MOL0     O44439   5.128  10.344   6.854 -0.0647  0.0839 -0.4323
  323MOL0     C44440   5.250  10.409   6.835 -0.9111 -0.2485  0.0417
  323MOL0     C44441   5.328  10.347   6.741  0.0509 -1.1397 -0.2691
  323MOL0     C44442   5.455  10.399   6.694 -0.3493 -0.2019  0.1356
  323MOL0     C44443   5.497  10.526   6.738  0.4436  0.1335  0.7837
  323MOL0     O44444   5.609  10.577   6.685 -0.3188  0.6564  0.3885
  323MOL0     C44445   5.707  10.622   6.786 -0.0583 -0.0562 -0.6806
  323MOL0     C44446   5.770  10.513   6.865  0.3522 -0.6834 -0.2614
  323MOL0     C44447   5.887  10.453   6.792 -0.4911 -0.7488 -0.8974
  323MOL0     C44448   5.959  10.348   6.875 -0.0998  0.8326 -0.1156
  323MOL0     C44449   6.006  10.227   6.794 -0.3354 -0.0110  0.5715
  323MOL0     C44450   6.102  10.141   6.877 -0.5578  0.3431  0.8088
  323MOL0     C44451   6.026  10.078   7.001 -0.5286  0.6777  0.2397
  323MOL0     C44452   6.089  10.144   7.126  0.4941  0.2188 -1.1529
  323MOL0     N44453   5.997  10.122   7.243 -0.2836 -0.8526 -0.4878
  323MOL0     C44454   5.964  10.004   7.311 -0.6022 -0.6850  0.1191
  323MOL0     C44455   5.879  10.042   7.402  0.3250 -0.9334  0.2759
  323MOL0     C44456   5.796   9.961   7.490  0.6709 -0.6017 -0.1781
  323MOL0     C44457   5.752   9.827   7.429 -0.6335  0.5423  0.1458
  323MOL0     C44458   5.611   9.773   7.484  0.2836 -0.5222 -0.3065
  323MOL0     C44459   5.586   9.783   7.635  0.3068  0.2833 -0.3599
  323MOL0     O44460   5.460   9.731   7.686 -0.3264 -0.1561 -0.3863
  323MOL0     C44461   5.444   9.740   7.829 -0.1586 -1.3382  0.5541
  323MOL0     C44462   5.325   9.781   7.872  0.4888 -0.4365  0.8272
  323MOL0     C44463   5.291   9.793   8.001  1.2008  0.4800 -0.4705
  323MOL0     C44464   5.146   9.837   8.023 -1.2027  0.0924  0.0275
  323MOL0     C44465   5.390   9.790   8.100  0.4666  0.0641  1.1197
  323MOL0     C44466   5.368   9.821   8.246  0.1340  0.8353  0.2848
  323MOL0     O44467   5.241   9.823   8.299  0.0492  0.6893 -0.5610
  323MOL0     C44468   5.222   9.877   8.421  0.2824  0.1737  0.6231
  323MOL0     C44469   5.292   9.851   8.540  0.4437 -0.5016 -0.3866
  323MOL0     C44470   5.267   9.919   8.661  0.1621  0.5613  0.0283
  323MOL0     C44471   5.162  10.007   8.673  0.6745 -0.1423 -0.2483
  323MOL0     O44472   5.152  10.073   8.801  0.3947  0.3204  0.1702
  323MOL0     C44473   5.026  10.137   8.839 -0.3918  0.3972  0.7507
  323MOL0     C44474   5.009  10.107   8.985  0.8516 -0.7078  0.2814
  323MOL0     C44475   5.117  10.176   9.066 -0.1208 -0.2142  0.5011
  323MOL0     C44476   5.094  10.330   9.070 -0.6647  0.0088 -0.6345
  323MOL0     C44477   5.193  10.410   9.166 -1.4324 -0.0730  0.2506
  323MOL0     C44478   5.141  10.554   9.211  0.6319  0.1991  0.4028
  323MOL0     C44479   5.189  10.604   9.339 -0.3784  0.1060 -0.3328
  323MOL0     C44480   5.166  10.513   9.457  0.2501 -0.0707 -0.1785
  323MOL0    Cl44481   5.148  10.614   9.600  0.2801 -0.0614 -0.2688
  323MOL0     C44482   5.072  10.020   8.563  0.3672 -0.5318 -0.2374
  323MOL0     C44483   5.102   9.956   8.436  0.5444 -0.1310 -0.6051
  323MOL0     O44484   5.465   9.840   8.308 -0.2492 -0.4849 -0.0210
  323MOL0     C44485   5.520   9.755   8.052 -0.4634  0.2826  0.4624
  323MOL0     C44486   5.550   9.729   7.919 -0.0722  0.2167 -1.1715
  323MOL0     N44487   5.851  10.180   7.404  0.2550 -0.1568  0.6151
  323MOL0     N44488   5.918  10.224   7.298 -0.2808 -0.4025  0.9338
  323MOL0     C44489   5.428  10.576   6.856  0.0426  0.2906  1.1837
  323MOL0     C44490   5.300  10.525   6.896 -0.3078  0.3809  0.2057
  323MOL0     C44491   4.931  10.281   7.008  0.7615  0.3041  0.9412
  323MOL0     C44492   4.910  10.225   7.132 -0.6901  0.7854 -0.0729
  323MOL0     C44493   4.787  10.159   7.163 -0.3067  0.2009  0.0640
  323MOL0     C44494   4.688  10.143   7.062 -0.2599  0.1199 -0.2523
  323MOL0     O44495   4.571  10.063   7.075  0.2000 -0.9023 -0.8358
  323MOL0     C44496   4.560   9.972   7.185 -0.0816 -0.0321 -0.5236
  323MOL0     C44497   4.469   9.850   7.175  0.3435 -0.0316 -0.0808
  323MOL0     C44498   4.351   9.865   7.080 -0.6998 -0.2958 -0.4289
  323MOL0     C44499   4.294   9.722   7.054  0.5603  0.4666 -0.2024
  323MOL0     C44500   4.169   9.741   6.982  0.0832 -0.1066  0.0565
  323MOL0     C44501   4.060   9.731   6.924 -0.1742 -0.0033 -0.2450
  323MOL0     C44502   4.713  10.197   6.943  0.0492 -0.5997  0.0876
  323MOL0     C44503   4.827  10.271   6.912 -1.1173  0.6113  0.6143
  323MOL0     C44504   4.834  10.342   6.780 -0.3014 -0.0503  0.9316
  323MOL0     H44505   5.286  10.257   6.697 -3.3398  0.0430  0.3055
  323MOL0     H44506   5.499  10.352   6.607 -1.1845 -1.5993  0.4404
  323MOL0     H44507   5.662  10.697   6.852  0.2009 -0.0909 -0.4630
  323MOL0     H44508   5.785  10.671   6.729  1.6800 -1.0837  0.7005
  323MOL0     H44509   5.807  10.548   6.961 -0.4709 -2.6161  0.8188
  323MOL0     H44510   5.695  10.435   6.883  0.3188 -1.2209 -2.4320
  323MOL0     H44511   5.848  10.410   6.698  2.0673  0.3900 -2.5897
  323MOL0     H44512   5.956  10.537   6.779  2.2474 -2.6219  0.6668
  323MOL0     H44513   6.040  10.397   6.930  1.1375  1.0877 -2.0491
  323MOL0     H44514   5.899  10.296   6.950  0.3558 -2.3556 -1.7810
  323MOL0     H44515   6.066  10.260   6.709  2.8211 -0.0838  2.6099
  323MOL0     H44516   5.925  10.162   6.761  2.5639 -2.9857 -1.2394
  323MOL0     H44517   6.128  10.055   6.815  1.0782 -0.9083  3.0927
  323MOL0     H44518   6.202  10.179   6.901 -0.0433 -0.4410 -0.0123
  323MOL0     H44519   6.040   9.969   7.006  1.2599  0.8514 -0.0711
  323MOL0     H44520   5.917  10.079   6.995 -0.4457  0.3562 -1.7770
  323MOL0     H44521   6.184  10.091   7.134  0.3140 -0.1543 -1.4697
  323MOL0     H44522   6.090  10.253   7.111 -1.6484  0.6101  0.8487
  323MOL0     H44523   6.002   9.904   7.291  3.8360  0.8359 -0.2202
  323MOL0     H44524   5.707  10.023   7.502  0.8916 -0.0438 -1.3137
  323MOL0     H44525   5.854   9.960   7.583  0.2770  3.9150  0.3141
  323MOL0     H44526   5.736   9.840   7.321  1.0842 -1.7355 -0.4671
  323MOL0     H44527   5.837   9.759   7.442 -0.6259 -0.1154 -2.5737
  323MOL0     H44528   5.530   9.833   7.441 -0.3541 -0.0090  1.5357
  323MOL0     H44529   5.593   9.668   7.459 -1.1816 -0.1484 -0.9319
  323MOL0     H44530   5.674   9.742   7.685  0.5982  1.0453 -0.2357
  323MOL0     H44531   5.582   9.883   7.679 -2.3424 -1.3986  3.7523
  323MOL0     H44532   5.255   9.793   7.790  3.8026 -0.9592 -2.3719
  323MOL0     H44533   5.110   9.897   7.939  1.6724  2.1275  0.0818
  323MOL0     H44534   5.140   9.913   8.102 -1.9187  1.2214 -1.0935
  323MOL0     H44535   5.086   9.750   8.049 -0.7082  0.2057  1.7088
  323MOL0     H44536   5.382   9.796   8.517  1.9423  2.2589 -1.6329
  323MOL0     H44537   5.328   9.905   8.749  2.9075  3.1169 -1.2710
  323MOL0     H44538   5.034  10.244   8.819 -1.2781  0.1586 -1.0978
  323MOL0     H44539   4.939  10.103   8.781  0.8978  1.0763 -1.6729
  323MOL0     H44540   4.906  10.139   9.000  0.5692 -0.7506 -1.3876
  323MOL0     H44541   5.012   9.998   8.997 -1.4965 -1.2191 -2.7197
  323MOL0     H44542   5.218  10.146   9.037 -0.0767 -0.5130  0.9548
  323MOL0     H44543   5.105  10.142   9.169 -0.9799  2.1931  1.2690
  323MOL0     H44544   4.998  10.357   9.114 -1.5770 -0.1042 -2.4650
  323MOL0     H44545   5.102  10.373   8.970  3.2212 -3.0729 -1.9013
  323MOL0     H44546   5.205  10.349   9.256 -0.1037  1.4248  1.1461
  323MOL0     H44547   5.291  10.433   9.123 -0.9502  1.4459  2.0338
  323MOL0     H44548   5.034  10.543   9.229  0.8076 -0.5762  1.0445
  323MOL0     H44549   5.161  10.623   9.129 -0.3381  1.0548  0.8785
  323MOL0     H44550   5.164  10.709   9.357  2.1974  0.8233 -0.5686
  323MOL0     H44551   5.297  10.617   9.329 -0.5786  1.2630 -1.2713
  323MOL0     H44552   5.238  10.430   9.461  0.6059  0.1106 -1.9238
  323MOL0     H44553   5.075  10.454   9.442 -1.1349  1.6454  1.0979
  323MOL0     H44554   4.991  10.091   8.577 -0.3013 -1.4101  0.4078
  323MOL0     H44555   5.036   9.987   8.356  0.3528 -1.5708 -1.0372
  323MOL0     H44556   5.609   9.736   8.112 -0.6897 -1.6314  0.2462
  323MOL0     H44557   5.652   9.700   7.895  1.0482  2.7242  0.2219
  323MOL0     H44558   5.472  10.664   6.902 -0.2533  1.9746 -1.4897
  323MOL0     H44559   5.235  10.571   6.969  0.2600 -1.3941  1.9249
  323MOL0     H44560   4.977  10.242   7.216  3.1083  4.2234 -3.4277
  323MOL0     H44561   4.771  10.123   7.265 -1.0751  0.5495  0.0755
  323MOL0     H44562   4.654   9.927   7.217 -0.5622  0.8948  2.5521
  323MOL0     H44563   4.521  10.034   7.266  2.5007 -0.5467  1.2332
  323MOL0     H44564   4.427   9.830   7.273 -1.4771 -0.3614 -0.8840
  323MOL0     H44565   4.537   9.766   7.160  1.4798  0.4760  1.9104
  323MOL0     H44566   4.288   9.947   7.116  3.3284  3.5166 -1.1100
  323MOL0     H44567   4.391   9.895   6.982 -0.1442 -3.3708 -1.2361
  323MOL0     H44568   4.277   9.673   7.151 -0.9738  0.0816 -0.6311
  323MOL0     H44569   4.365   9.666   6.992 -0.8919  0.7004 -2.1377
  323MOL0     H44570   3.956   9.731   6.900 -0.5625 -2.4687  1.0913
  323MOL0     H44571   4.638  10.189   6.865  0.2156 -0.8263 -0.0516
  323MOL0     H44572   4.910  10.299   6.715  1.1270  0.1758  2.3935
  323MOL0     H44573   4.738  10.360   6.730  1.0790  3.6786 -0.7333
  323MOL0     H44574   4.864  10.446   6.797  0.9963  0.4892 -3.3169
  324MOL0     O44575   0.684   8.684   7.488  0.7078 -0.3837  0.2058
  324MOL0     C44576   0.726   8.796   7.465  0.0613  0.8642  0.2171
  324MOL0     O44577   0.850   8.838   7.478  0.0849 -0.6479 -0.2331
  324MOL0     C44578   0.921   8.762   7.569 -0.8195  0.4839  0.4941
  324MOL0     C44579   0.905   8.780   7.705  0.3268  0.5791 -0.6041
  324MOL0     C44580   0.986   8.720   7.802 -0.1045 -0.1734 -0.1073
  324MOL0     C44581   1.097   8.646   7.758  0.2442 -0.8656 -0.4387
  324MOL0     O44582   1.190   8.589   7.840 -0.1457 -0.6315  0.3237
  324MOL0     C44583   1.152   8.518   7.957  1.2117  0.0172 -0.7363
  324MOL0     C44584   1.137   8.373   7.914 -0.6450  0.4240  0.1169
  324MOL0     C44585   1.260   8.306   7.857 -0.0366  0.2852  1.6569
  324MOL0     C44586   1.205   8.200   7.748 -1.3962  0.9668 -1.1084
  324MOL0     C44587   1.142   8.078   7.823  0.5240  0.6630  0.0300
  324MOL0     C44588   1.146   7.950   7.734  0.3046 -0.0233  0.8641
  324MOL0     C44589   1.158   7.816   7.813 -0.7548 -0.5976  0.6526
  324MOL0     C44590   1.118   7.694   7.720 -0.1215  0.4477 -0.8352
  324MOL0     N44591   1.233   7.648   7.643  0.0283 -0.4976 -0.0085
  324MOL0     C44592   1.280   7.695   7.521  0.0476 -0.2094 -0.5127
  324MOL0     C44593   1.393   7.623   7.494  0.6340 -0.3468 -0.0892
  324MOL0     C44594   1.486   7.643   7.374  0.1840  1.1196 -0.4657
  324MOL0     C44595   1.631   7.639   7.419  0.7272 -0.1186  0.6981
  324MOL0     C44596   1.723   7.632   7.292 -0.5064  0.7053 -0.3514
  324MOL0     C44597   1.864   7.583   7.318 -0.6189  0.3572  0.3973
  324MOL0     O44598   1.940   7.565   7.197  0.1855 -0.5464  0.1581
  324MOL0     C44599   1.958   7.452   7.129  0.9250  0.2741  0.5554
  324MOL0     C44600   2.059   7.429   7.041 -1.4100 -0.2556 -0.5931
  324MOL0     C44601   2.073   7.310   6.960 -0.1086 -1.1075  0.3660
  324MOL0     C44602   2.194   7.305   6.853  0.4605  0.1899 -0.0079
  324MOL0     C44603   1.992   7.201   6.990 -0.3290  0.4175 -0.1893
  324MOL0     C44604   2.008   7.064   6.930  0.1713  0.0935 -0.0301
  324MOL0     O44605   1.976   6.965   7.015 -0.1124 -0.8695  0.6317
  324MOL0     C44606   2.016   6.833   6.983 -0.3006  0.1575 -0.2479
  324MOL0     C44607   2.135   6.805   6.917 -0.4658  0.3794  0.5395
  324MOL0     C44608   2.163   6.669   6.906 -1.2866  0.8463  0.3245
  324MOL0     C44609   2.093   6.564   6.955  0.7679  1.0211 -0.1846
  324MOL0     O44610   2.149   6.432   6.945  0.6399 -0.3294  0.0168
  324MOL0     C44611   2.120   6.340   7.046  0.1016  0.4037 -1.4229
  324MOL0     C44612   2.195   6.351   7.181 -0.7189  0.0432  0.2225
  324MOL0     C44613   2.345   6.377   7.163  0.8219 -0.1775  0.3979
  324MOL0     C44614   2.414   6.256   7.092  0.0488 -0.0476 -0.1887
  324MOL0     C44615   2.560   6.311   7.047 -0.1740  0.9892  0.5115
  324MOL0     C44616   2.645   6.338   7.176  0.9230 -0.4584  0.5438
  324MOL0     C44617   2.796   6.363   7.150  0.4761  0.1972  0.6250
  324MOL0     C44618   2.885   6.390   7.280  0.1039  0.1531 -0.0978
  324MOL0    Cl44619   2.878   6.256   7.397 -0.1850  0.6190 -0.2297
  324MOL0     C44620   1.968   6.596   7.009  0.4603  0.7746  0.9193
  324MOL0     C44621   1.937   6.726   7.029  0.0359 -0.3179 -0.3082
  324MOL0     O44622   2.036   7.056   6.814 -1.1369 -0.0136  0.4239
  324MOL0     C44623   1.883   7.223   7.081 -0.8075 -0.6853  0.6616
  324MOL0     C44624   1.866   7.346   7.138  0.1564 -0.3937 -0.0688
  324MOL0     N44625   1.420   7.556   7.611  0.4828  0.7632 -0.3329
  324MOL0     N44626   1.320   7.569   7.697  0.1338  0.2395 -0.2375
  324MOL0     C44627   1.112   8.625   7.622  0.6471  0.3601 -0.3713
  324MOL0     C44628   1.023   8.675   7.528 -0.1322 -0.2801  0.4700
  324MOL0     C44629   0.641   8.882   7.384 -0.5862  0.1967 -0.7008
  324MOL0     C44630   0.688   8.959   7.281 -0.6100 -1.2489 -0.3098
  324MOL0     C44631   0.606   9.029   7.183 -0.4996  0.4484 -0.6122
  324MOL0     C44632   0.471   9.026   7.196 -0.1721  0.3299 -0.5197
  324MOL0     O44633   0.394   9.088   7.100  0.7108  0.5648  0.1913
  324MOL0     C44634   0.277   9.016   7.048 -0.7451 -0.6927 -0.1908
  324MOL0     C44635   0.203   9.113   6.950 -0.7754 -0.2694 -0.3110
  324MOL0     C44636   0.170   9.247   7.011  0.5272 -0.4018  0.5449
  324MOL0     C44637   0.062   9.323   6.935 -0.0011 -0.7309  0.3403
  324MOL0     C44638   0.062   9.466   6.982 -0.6907  0.1240  0.0268
  324MOL0     C44639   0.032   9.572   7.039  0.4130  0.5121  0.6090
  324MOL0     C44640   0.417   8.962   7.312 -0.2548  0.3516 -0.6140
  324MOL0     C44641   0.495   8.887   7.402 -1.3479  1.0843 -0.2490
  324MOL0     C44642   0.420   8.807   7.504 -0.1592  0.3807 -0.0999
  324MOL0     H44643   0.836   8.859   7.734  1.3759  1.3951 -0.2411
  324MOL0     H44644   0.984   8.738   7.909 -3.4122  1.4766 -0.3340
  324MOL0     H44645   1.048   8.548   7.977 -0.0622 -2.4127 -3.0673
  324MOL0     H44646   1.211   8.515   8.049 -0.6701 -2.4338  0.5212
  324MOL0     H44647   1.107   8.314   8.001  1.3594  1.6167  1.7131
  324MOL0     H44648   1.053   8.370   7.843  0.0113  0.8937 -0.7004
  324MOL0     H44649   1.331   8.376   7.810 -0.8197  0.6659  1.0123
  324MOL0     H44650   1.307   8.256   7.942 -1.4494  0.1937  2.3949
  324MOL0     H44651   1.129   8.233   7.676 -1.3661 -1.1757 -2.2039
  324MOL0     H44652   1.288   8.165   7.686  0.1029  1.6139  0.4553
  324MOL0     H44653   1.040   8.104   7.850  0.7547  1.1048  0.4891
  324MOL0     H44654   1.201   8.045   7.910 -2.7648 -3.4554  1.0329
  324MOL0     H44655   1.056   7.942   7.672  1.0116 -1.0834 -0.0749
  324MOL0     H44656   1.237   7.941   7.673 -1.7761  1.5257 -2.8350
  324MOL0     H44657   1.096   7.819   7.903 -1.2968  0.2645  0.2646
  324MOL0     H44658   1.260   7.791   7.844 -0.3552  0.5398  0.3315
  324MOL0     H44659   1.085   7.609   7.780 -2.6051  0.1590 -2.4964
  324MOL0     H44660   1.033   7.722   7.657 -0.1464 -1.5477 -1.7609
  324MOL0     H44661   1.240   7.764   7.446 -5.9681 -1.8305  0.6915
  324MOL0     H44662   1.473   7.730   7.309  2.1647  0.1889 -2.2617
  324MOL0     H44663   1.461   7.558   7.310  2.8866  0.2990 -0.5970
  324MOL0     H44664   1.661   7.724   7.481 -0.7120  1.6622 -0.9478
  324MOL0     H44665   1.643   7.543   7.470 -2.3417 -1.0802 -0.2267
  324MOL0     H44666   1.687   7.549   7.231 -0.7562  0.4443  0.1489
  324MOL0     H44667   1.723   7.723   7.231 -1.2394  0.1865 -1.1462
  324MOL0     H44668   1.912   7.645   7.394 -3.2676  0.0948  2.4059
  324MOL0     H44669   1.856   7.480   7.352 -1.5140 -0.6294 -2.4673
  324MOL0     H44670   2.121   7.517   7.024 -0.9488 -0.2646  0.9386
  324MOL0     H44671   2.276   7.367   6.891 -1.8766  1.9715  2.5319
  324MOL0     H44672   2.164   7.343   6.755 -0.0487  1.6295  0.6822
  324MOL0     H44673   2.235   7.203   6.847 -0.6812 -0.2143 -1.9119
  324MOL0     H44674   2.197   6.887   6.882 -0.7802  1.2088  1.8494
  324MOL0     H44675   2.255   6.638   6.857  0.0478  1.0912  2.5623
  324MOL0     H44676   2.011   6.334   7.052  0.1643 -1.5810 -1.5777
  324MOL0     H44677   2.140   6.244   6.997 -0.8481  1.1110 -3.2843
  324MOL0     H44678   2.140   6.427   7.237  1.7770  1.7059  0.5640
  324MOL0     H44679   2.186   6.252   7.229 -1.4422 -1.3147 -2.5449
  324MOL0     H44680   2.394   6.388   7.260  0.5188  0.1156  0.5215
  324MOL0     H44681   2.357   6.461   7.094 -0.7690 -0.1755  0.0810
  324MOL0     H44682   2.366   6.217   7.002  0.4567 -0.5535 -0.1950
  324MOL0     H44683   2.428   6.169   7.158 -0.2620  0.2103  0.2251
  324MOL0     H44684   2.610   6.224   7.003 -0.1752  0.5848  1.2734
  324MOL0     H44685   2.563   6.390   6.972  0.8353  1.4264  0.9875
  324MOL0     H44686   2.638   6.244   7.230 -4.5516 -1.0182 -0.6178
  324MOL0     H44687   2.611   6.426   7.232  3.3501  1.3057 -0.5186
  324MOL0     H44688   2.818   6.451   7.090  2.1425 -0.8472 -0.3865
  324MOL0     H44689   2.817   6.268   7.100  1.7933  0.4661  0.6479
  324MOL0     H44690   2.851   6.488   7.315 -2.8158 -1.5442  2.2796
  324MOL0     H44691   2.990   6.407   7.254 -0.2248  2.6945 -0.0216
  324MOL0     H44692   1.898   6.523   7.046 -2.8781  1.0815 -3.8785
  324MOL0     H44693   1.854   6.752   7.093  1.2158 -1.7308  1.9374
  324MOL0     H44694   1.804   7.149   7.095 -1.6877  0.3632  1.4493
  324MOL0     H44695   1.765   7.348   7.177 -0.8766  1.7733 -2.5307
  324MOL0     H44696   1.186   8.557   7.580 -1.0364 -0.8884 -1.4561
  324MOL0     H44697   1.056   8.653   7.428  1.1038  0.9410  0.5842
  324MOL0     H44698   0.796   8.954   7.266  0.0009  1.0099  2.4990
  324MOL0     H44699   0.639   9.084   7.096  0.2531  1.6164  0.3814
  324MOL0     H44700   0.321   8.939   6.985 -0.0921 -0.1284 -0.4435
  324MOL0     H44701   0.207   8.972   7.120 -0.1453 -0.1891  0.7204
  324MOL0     H44702   0.106   9.068   6.926  0.0156 -1.3414 -1.6811
  324MOL0     H44703   0.274   9.122   6.867  3.0397 -0.7203  2.6194
  324MOL0     H44704   0.150   9.236   7.118 -1.3403 -3.2377  0.0089
  324MOL0     H44705   0.261   9.308   7.006  2.0543 -2.6667 -1.3944
  324MOL0     H44706  -0.041   9.289   6.948 -1.2957  3.4669  3.0218
  324MOL0     H44707   0.074   9.325   6.827  0.4496  2.5270  0.3650
  324MOL0     H44708  -0.013   9.662   7.076 -0.5802  1.1581 -1.9754
  324MOL0     H44709   0.309   8.959   7.321 -0.2304  1.8515  0.6162
  324MOL0     H44710   0.464   8.834   7.601 -2.6132  1.2317  0.8475
  324MOL0     H44711   0.312   8.814   7.518 -0.0378  0.0861  1.0577
  324MOL0     H44712   0.444   8.701   7.493 -0.5043  0.3594 -0.7309
  325MOL0     O44713   8.795   6.246   1.198 -0.2498  0.3883 -0.4437
  325MOL0     C44714   8.802   6.119   1.217 -0.4200 -0.5787 -0.8040
  325MOL0     O44715   8.784   6.028   1.111 -0.7043  0.1441  0.2583
  325MOL0     C44716   8.792   6.058   0.976  0.3557  0.1079  0.5848
  325MOL0     C44717   8.780   6.184   0.915  0.7598  0.5395 -0.1123
  325MOL0     C44718   8.801   6.194   0.772 -0.1827  0.1696 -0.3530
  325MOL0     C44719   8.814   6.077   0.691  0.7187 -0.0153  0.1351
  325MOL0     O44720   8.817   6.085   0.553  0.5048 -0.4296 -0.5085
  325MOL0     C44721   8.885   6.204   0.504 -0.1103  0.9433  0.0149
  325MOL0     C44722   8.954   6.151   0.380  0.1499  1.0765 -0.3535
  325MOL0     C44723   8.858   6.137   0.263  0.0431 -0.2132 -1.2335
  325MOL0     C44724   8.940   6.141   0.137 -0.6606 -0.5515 -0.0175
  325MOL0     C44725   8.861   6.099   0.013 -0.6997 -0.1343  0.9641
  325MOL0     C44726   8.940   6.057  -0.122 -0.9799 -0.9569  0.4081
  325MOL0     C44727   9.027   5.936  -0.113 -0.0255  0.4209  0.5731
  325MOL0     C44728   9.128   5.914  -0.228  0.2116  0.9368  0.6607
  325MOL0     N44729   9.061   5.910  -0.351 -0.3300 -0.3709 -0.6545
  325MOL0     C44730   9.080   5.997  -0.453 -0.7358 -0.1595 -0.1000
  325MOL0     C44731   9.006   5.950  -0.556 -0.4556  0.0397  1.0977
  325MOL0     C44732   8.990   6.011  -0.692  0.2064 -0.4419 -0.0902
  325MOL0     C44733   8.845   6.021  -0.721 -0.2401  0.2262 -0.3304
  325MOL0     C44734   8.767   6.141  -0.644 -0.8737  0.4318 -0.0167
  325MOL0     C44735   8.616   6.112  -0.651  0.5078 -0.0780 -0.1679
  325MOL0     O44736   8.528   6.199  -0.570 -0.0005 -0.4264 -0.0171
  325MOL0     C44737   8.524   6.186  -0.432  0.0840  0.5867 -0.2103
  325MOL0     C44738   8.476   6.292  -0.364 -0.5514  0.0461 -0.0431
  325MOL0     C44739   8.468   6.295  -0.226 -0.3044  0.7127 -0.4784
  325MOL0     C44740   8.412   6.435  -0.178 -0.7051 -0.1053  0.1135
  325MOL0     C44741   8.518   6.180  -0.152  0.7340 -0.3363 -0.8027
  325MOL0     C44742   8.487   6.172  -0.004 -0.0743 -0.2625 -0.3181
  325MOL0     O44743   8.466   6.292   0.058 -0.3032  0.2428  0.2836
  325MOL0     C44744   8.446   6.297   0.192  0.3716 -0.1645 -0.2735
  325MOL0     C44745   8.489   6.225   0.306  0.0555  1.0923  0.4005
  325MOL0     C44746   8.477   6.278   0.433  0.1347  1.3033  0.2614
  325MOL0     C44747   8.412   6.403   0.461 -0.0320  0.7572 -0.7679
  325MOL0     O44748   8.403   6.463   0.584  0.3902  0.4121 -0.1906
  325MOL0     C44749   8.438   6.384   0.694 -0.6830 -0.0534 -0.6543
  325MOL0     C44750   8.387   6.441   0.831 -0.4903  0.8750  0.8221
  325MOL0     C44751   8.494   6.433   0.928  0.7832 -0.0462  0.0059
  325MOL0     C44752   8.449   6.505   1.053 -0.6925 -0.1295 -0.6661
  325MOL0     C44753   8.530   6.473   1.176 -0.2940  0.6850 -0.6497
  325MOL0     C44754   8.517   6.566   1.307  0.1496 -0.4583  1.0201
  325MOL0     C44755   8.523   6.482   1.432 -0.3290 -0.0787 -0.3601
  325MOL0     C44756   8.456   6.534   1.556 -0.1875  0.6183 -1.0466
  325MOL0    Cl44757   8.512   6.456   1.713 -0.5354 -0.2946  0.3371
  325MOL0     C44758   8.358   6.469   0.355 -0.1772 -0.4380  0.1454
  325MOL0     C44759   8.375   6.414   0.229 -0.2297 -0.4434 -0.1751
  325MOL0     O44760   8.469   6.059   0.045  0.7233  0.0472  0.1501
  325MOL0     C44761   8.573   6.072  -0.217 -0.0446 -0.1165 -0.0168
  325MOL0     C44762   8.581   6.074  -0.356 -0.3505  0.0135  0.4003
  325MOL0     N44763   8.946   5.831  -0.515 -0.0492  0.1338 -0.3270
  325MOL0     N44764   8.969   5.810  -0.385  0.4212  0.3533  0.3805
  325MOL0     C44765   8.817   5.952   0.753 -0.0791 -0.2333  0.5594
  325MOL0     C44766   8.811   5.942   0.896 -0.1953 -0.0836 -0.3457
  325MOL0     C44767   8.820   6.093   1.354  0.1064 -0.0877 -0.4729
  325MOL0     C44768   8.839   6.190   1.447 -0.6816  0.4405  0.4432
  325MOL0     C44769   8.834   6.154   1.583  0.6641  1.2447 -0.8506
  325MOL0     C44770   8.802   6.027   1.626  0.4680 -0.1594  0.2914
  325MOL0     O44771   8.803   5.993   1.757  0.3368  0.0075  0.5002
  325MOL0     C44772   8.717   6.057   1.849  0.7023  0.0846  0.8071
  325MOL0     C44773   8.786   6.141   1.961  0.3139 -0.0889  0.6415
  325MOL0     C44774   8.803   6.061   2.094 -0.6725  0.7434  0.7565
  325MOL0     C44775   8.897   5.949   2.077  0.9253  0.5981 -0.5060
  325MOL0     C44776   8.886   5.861   2.199  0.2068  0.5141  0.1661
  325MOL0     C44777   8.882   5.800   2.302 -0.8365 -0.3325 -0.4491
  325MOL0     C44778   8.784   5.921   1.535 -0.0726 -0.8744 -0.1196
  325MOL0     C44779   8.784   5.961   1.401  0.2926  0.0565 -0.1108
  325MOL0     C44780   8.739   5.848   1.310  0.1020  0.9547  0.5947
  325MOL0     H44781   8.751   6.279   0.959  1.1281  1.3349 -1.5284
  325MOL0     H44782   8.807   6.295   0.732  2.2431  0.2120 -0.0708
  325MOL0     H44783   8.951   6.244   0.582 -0.5857 -0.8743  1.4325
  325MOL0     H44784   8.803   6.271   0.474 -1.3087 -0.7106 -0.5472
  325MOL0     H44785   9.039   6.215   0.356 -0.1639  1.1614 -1.2595
  325MOL0     H44786   8.993   6.053   0.408 -0.1699  0.4230 -2.0579
  325MOL0     H44787   8.805   6.041   0.257 -0.3441  0.0108 -1.3555
  325MOL0     H44788   8.785   6.217   0.262 -3.1262 -2.8837 -0.5202
  325MOL0     H44789   8.980   6.242   0.126  0.5161 -1.0286 -0.2457
  325MOL0     H44790   9.026   6.075   0.154  1.0211  1.1586 -1.4639
  325MOL0     H44791   8.793   6.183  -0.003  2.4513  2.3896 -0.1156
  325MOL0     H44792   8.803   6.008   0.032 -2.1043  0.3035 -0.8835
  325MOL0     H44793   8.867   6.026  -0.197  0.5803 -2.3962 -0.5996
  325MOL0     H44794   9.010   6.134  -0.156 -1.3141  0.2632  2.3106
  325MOL0     H44795   8.968   5.846  -0.098  3.4336 -2.0758  0.3942
  325MOL0     H44796   9.086   5.944  -0.022 -0.3353 -0.1635  0.8312
  325MOL0     H44797   9.215   5.979  -0.220  0.2697  1.2676 -1.9335
  325MOL0     H44798   9.176   5.815  -0.223  0.1846  0.9831  2.1752
  325MOL0     H44799   9.144   6.084  -0.451 -1.2001  0.1907 -0.2550
  325MOL0     H44800   9.053   5.952  -0.759  0.3668 -0.4609  0.0753
  325MOL0     H44801   9.033   6.111  -0.695 -2.0645  0.5554 -1.3689
  325MOL0     H44802   8.827   6.052  -0.824 -3.9474 -2.3428 -0.6820
  325MOL0     H44803   8.794   5.926  -0.700 -1.0174  0.8551  0.7052
  325MOL0     H44804   8.805   6.132  -0.542  0.0316 -3.5766 -0.5529
  325MOL0     H44805   8.784   6.240  -0.688 -1.7466 -0.3078 -2.1802
  325MOL0     H44806   8.582   6.120  -0.754  1.2302 -5.0076 -1.0168
  325MOL0     H44807   8.599   6.010  -0.615 -0.8817  0.1010 -0.2818
  325MOL0     H44808   8.417   6.363  -0.420 -0.9058  0.6838  1.1004
  325MOL0     H44809   8.474   6.487  -0.105  0.3258  0.9484 -1.4612
  325MOL0     H44810   8.309   6.427  -0.142 -1.7392  0.7316 -2.4211
  325MOL0     H44811   8.401   6.500  -0.266 -1.2982 -1.6776 -1.0358
  325MOL0     H44812   8.545   6.133   0.292  0.6442  1.6405 -1.0629
  325MOL0     H44813   8.532   6.225   0.510 -1.8604 -1.2896  0.0213
  325MOL0     H44814   8.388   6.289   0.670 -0.7664 -0.2602  0.2864
  325MOL0     H44815   8.547   6.379   0.702 -0.6206 -0.0543 -1.4294
  325MOL0     H44816   8.353   6.545   0.820  1.2213  1.3432 -0.3747
  325MOL0     H44817   8.291   6.393   0.854  0.5099 -0.6873  1.9298
  325MOL0     H44818   8.587   6.463   0.879  2.1338 -1.2441  1.7175
  325MOL0     H44819   8.512   6.331   0.962 -0.1592 -1.4574 -3.3696
  325MOL0     H44820   8.341   6.503   1.072 -0.3931  2.6273  2.0998
  325MOL0     H44821   8.471   6.612   1.042  3.2817 -0.9035 -1.7487
  325MOL0     H44822   8.490   6.374   1.199  1.3611 -0.8862 -3.7449
  325MOL0     H44823   8.637   6.474   1.153  0.0825 -0.6951  0.8665
  325MOL0     H44824   8.422   6.619   1.312 -0.0678 -0.5166 -1.5585
  325MOL0     H44825   8.597   6.640   1.294 -0.7511  0.0144 -3.2188
  325MOL0     H44826   8.632   6.477   1.447 -0.4042 -1.8465 -0.2656
  325MOL0     H44827   8.489   6.380   1.418  4.0227 -2.1437  2.1104
  325MOL0     H44828   8.347   6.521   1.560  0.0882 -2.3508  2.5431
  325MOL0     H44829   8.483   6.639   1.559  0.9321  0.3308 -0.6287
  325MOL0     H44830   8.324   6.570   0.372 -2.5223 -1.5952  3.1221
  325MOL0     H44831   8.338   6.486   0.156 -3.2208 -0.8816  0.7505
  325MOL0     H44832   8.620   5.987  -0.168  1.6075  1.5527  1.4619
  325MOL0     H44833   8.620   5.982  -0.397  0.4157 -0.6102  2.3932
  325MOL0     H44834   8.821   5.861   0.694  0.3902 -0.5800  1.1065
  325MOL0     H44835   8.831   5.843   0.935  0.4755  0.3169  0.3364
  325MOL0     H44836   8.854   6.296   1.428  0.7179  0.2862  0.6026
  325MOL0     H44837   8.858   6.235   1.651 -2.6515  2.9878 -1.5508
  325MOL0     H44838   8.647   6.112   1.786 -3.4779 -5.3253 -0.0534
  325MOL0     H44839   8.654   5.983   1.899  2.3954  0.2654  3.3834
  325MOL0     H44840   8.726   6.232   1.971 -0.5839  0.1920 -4.5387
  325MOL0     H44841   8.878   6.189   1.924  0.4889 -0.2763  0.8274
  325MOL0     H44842   8.857   6.137   2.151  2.6321  0.3992 -1.6217
  325MOL0     H44843   8.708   6.032   2.139  1.6805 -2.3298  4.3627
  325MOL0     H44844   9.000   5.984   2.072  1.1699 -0.0945 -0.3783
  325MOL0     H44845   8.881   5.886   1.989 -1.6468 -2.6471  1.9675
  325MOL0     H44846   8.859   5.738   2.387 -1.3970 -0.6083 -0.7994
  325MOL0     H44847   8.772   5.822   1.577 -0.7627 -0.0771  1.7210
  325MOL0     H44848   8.822   5.814   1.248 -0.9129 -1.4833  0.4647
  325MOL0     H44849   8.716   5.762   1.373 -3.1405  0.9461 -0.4250
  325MOL0     H44850   8.656   5.875   1.244  1.8688  4.1130 -0.5822
  326MOL0     O44851   9.366   3.448   7.324 -0.0840 -0.4111  0.1642
  326MOL0     C44852   9.355   3.497   7.206  0.4949  0.5183  0.2892
  326MOL0     O44853   9.266   3.605   7.178 -0.9968  0.0538  0.0827
  326MOL0     C44854   9.226   3.699   7.270 -0.6606  0.0483  0.0100
  326MOL0     C44855   9.199   3.827   7.222  0.5912  0.0922  0.3206
  326MOL0     C44856   9.152   3.930   7.307 -1.3588 -0.0307  0.8120
  326MOL0     C44857   9.118   3.900   7.439 -0.1430  0.9351 -0.4160
  326MOL0     O44858   9.087   3.992   7.531  0.3874 -0.4259 -0.0247
  326MOL0     C44859   9.011   4.103   7.489  0.0833 -0.4460  0.7417
  326MOL0     C44860   8.996   4.206   7.597 -0.9812  0.6356  0.1735
  326MOL0     C44861   8.930   4.333   7.541 -0.1878  0.1484  0.3169
  326MOL0     C44862   8.856   4.414   7.649  0.0192 -1.3199 -0.2524
  326MOL0     C44863   8.818   4.557   7.592 -0.0144  1.2398  0.1693
  326MOL0     C44864   8.800   4.654   7.709 -0.9227 -0.6102  0.6772
  326MOL0     C44865   8.786   4.795   7.677 -0.0141 -0.0058  0.5011
  326MOL0     C44866   8.770   4.886   7.799 -0.5002 -0.3298 -0.1325
  326MOL0     N44867   8.640   4.901   7.854 -0.0791 -0.5827  0.8250
  326MOL0     C44868   8.528   4.926   7.786  0.2319 -0.1885 -0.3888
  326MOL0     C44869   8.420   4.915   7.871  0.8028  0.2383 -0.0365
  326MOL0     C44870   8.273   4.936   7.846 -0.1079  0.2426  0.1349
  326MOL0     C44871   8.191   4.844   7.941 -0.9206  0.1322  0.2055
  326MOL0     C44872   8.039   4.842   7.916 -0.8442 -0.2958 -0.7726
  326MOL0     C44873   7.971   4.979   7.958  0.2031 -0.3046  0.1551
  326MOL0     O44874   7.851   5.009   7.884 -0.6311  0.3643 -0.3839
  326MOL0     C44875   7.839   5.094   7.777 -1.5269  0.1259  0.4700
  326MOL0     C44876   7.958   5.116   7.695  0.9057 -0.3044  0.0372
  326MOL0     C44877   7.950   5.192   7.583  0.2642 -0.0927  0.3906
  326MOL0     C44878   8.075   5.214   7.498  0.0194  0.0230  0.5467
  326MOL0     C44879   7.828   5.269   7.557 -0.4790  0.0940  0.3906
  326MOL0     C44880   7.806   5.348   7.430  0.8169 -0.2814  0.1046
  326MOL0     O44881   7.681   5.403   7.420  0.5126 -0.0373  0.5816
  326MOL0     C44882   7.634   5.481   7.325 -0.2226 -0.4831  0.0670
  326MOL0     C44883   7.699   5.516   7.210  0.4430 -0.2724 -1.1798
  326MOL0     C44884   7.630   5.580   7.105 -0.9285  0.0491  0.2611
  326MOL0     C44885   7.499   5.616   7.118 -0.1139 -0.7862  0.4141
  326MOL0     O44886   7.417   5.676   7.026  0.0389  0.0025 -0.6652
  326MOL0     C44887   7.463   5.681   6.888  0.0388  1.0325 -0.5056
  326MOL0     C44888   7.343   5.714   6.804  0.6565 -0.2289 -0.2589
  326MOL0     C44889   7.365   5.740   6.653 -1.2043 -0.3526  0.0600
  326MOL0     C44890   7.244   5.775   6.574  0.3648  0.0992  0.9439
  326MOL0     C44891   7.262   5.822   6.430 -0.0781  0.2667  0.2129
  326MOL0     C44892   7.311   5.967   6.419 -0.5251 -0.5282  0.5482
  326MOL0     C44893   7.378   5.992   6.277 -0.8866  0.0490  0.0834
  326MOL0     C44894   7.417   6.135   6.247 -1.2108 -0.0703 -0.1372
  326MOL0    Cl44895   7.288   6.245   6.302 -0.0770 -0.0372 -0.2971
  326MOL0     C44896   7.435   5.597   7.238  0.4696 -0.3029  0.5245
  326MOL0     C44897   7.496   5.518   7.341  0.0519 -0.2882 -0.6645
  326MOL0     O44898   7.890   5.362   7.347 -0.0582 -0.3165 -0.0620
  326MOL0     C44899   7.716   5.241   7.637 -0.0442 -0.1015 -0.5433
  326MOL0     C44900   7.717   5.147   7.742 -0.3545 -0.7386  0.2407
  326MOL0     N44901   8.486   4.897   7.988 -0.2555  0.3828  0.1634
  326MOL0     N44902   8.617   4.875   7.983 -1.0557 -0.2985 -0.5570
  326MOL0     C44903   9.146   3.771   7.488  0.4982  0.7277 -0.0012
  326MOL0     C44904   9.196   3.672   7.406 -0.3889 -0.6388  0.4984
  326MOL0     C44905   9.415   3.411   7.094 -0.2820 -0.2542 -0.1926
  326MOL0     C44906   9.398   3.478   6.963  0.3931  0.1012  0.1946
  326MOL0     C44907   9.458   3.423   6.851 -0.2617 -0.2499 -0.5653
  326MOL0     C44908   9.519   3.297   6.865 -0.1577 -1.6389  0.2229
  326MOL0     O44909   9.582   3.251   6.753 -0.2799 -0.3893  0.1721
  326MOL0     C44910   9.708   3.177   6.771  0.5176  0.9121 -0.0772
  326MOL0     C44911   9.811   3.278   6.807 -0.2556 -0.2870  0.3343
  326MOL0     C44912   9.829   3.385   6.691  0.1680 -0.4691 -0.3350
  326MOL0     C44913   9.970   3.436   6.695 -0.3926 -0.0751 -0.7609
  326MOL0     C44914  10.068   3.336   6.667  0.2665  0.2140 -0.2411
  326MOL0     C44915  10.129   3.234   6.639 -0.0251 -0.8977  1.3179
  326MOL0     C44916   9.519   3.226   6.988  0.5824  0.3191 -0.1087
  326MOL0     C44917   9.485   3.290   7.110  0.0468 -0.2695  0.1599
  326MOL0     C44918   9.510   3.222   7.238 -0.4899  0.4936  0.8219
  326MOL0     H44919   9.222   3.835   7.116 -0.4849 -0.6798  0.0180
  326MOL0     H44920   9.142   4.027   7.258  1.4726  0.4920  1.0766
  326MOL0     H44921   8.917   4.065   7.447  0.2841  0.5578 -0.6769
  326MOL0     H44922   9.066   4.155   7.411 -1.9462 -0.4833 -0.8148
  326MOL0     H44923   8.926   4.163   7.670 -4.1757  1.6798 -2.0676
  326MOL0     H44924   9.093   4.223   7.644  0.8855 -4.9074 -0.9536
  326MOL0     H44925   9.011   4.390   7.494 -0.3473  0.7046  0.7032
  326MOL0     H44926   8.860   4.302   7.464  1.4812 -0.7369 -0.9227
  326MOL0     H44927   8.763   4.377   7.692 -1.8126  4.5804  1.8879
  326MOL0     H44928   8.897   4.416   7.751 -1.1099 -0.8893  0.2105
  326MOL0     H44929   8.726   4.537   7.538  0.4915  3.1583 -1.5300
  326MOL0     H44930   8.899   4.600   7.531  2.4566  1.2828  3.2107
  326MOL0     H44931   8.715   4.623   7.771 -0.7280 -0.9117  0.7973
  326MOL0     H44932   8.886   4.645   7.776 -2.3031  0.2968  2.6659
  326MOL0     H44933   8.703   4.815   7.608 -0.9155 -0.9118  1.3015
  326MOL0     H44934   8.878   4.831   7.629 -1.6534  2.9638 -0.7318
  326MOL0     H44935   8.830   4.848   7.882  0.4802  1.6116  0.1287
  326MOL0     H44936   8.812   4.984   7.774  1.0618 -0.8129  0.4837
  326MOL0     H44937   8.518   4.959   7.683 -0.2642  1.3103  0.1110
  326MOL0     H44938   8.253   4.917   7.740 -0.9166  0.3885  0.2577
  326MOL0     H44939   8.253   5.041   7.868  1.8193  0.5537  0.6148
  326MOL0     H44940   8.224   4.741   7.926 -0.2759  0.4028 -0.3039
  326MOL0     H44941   8.213   4.872   8.044 -1.6551  0.2269  0.3408
  326MOL0     H44942   8.027   4.828   7.808 -0.0339 -0.4147 -0.8584
  326MOL0     H44943   7.994   4.757   7.969 -2.5298 -1.5975 -4.0182
  326MOL0     H44944   7.943   4.973   8.063 -0.3011  0.3210  0.0660
  326MOL0     H44945   8.041   5.060   7.937 -0.5597  0.6247  1.0769
  326MOL0     H44946   8.049   5.067   7.729  0.2490  0.1185  2.6448
  326MOL0     H44947   8.086   5.316   7.462  0.7269  0.0005  0.6961
  326MOL0     H44948   8.077   5.150   7.410 -4.1937  1.1301 -0.5798
  326MOL0     H44949   8.158   5.204   7.568  0.0108  1.0648  0.7224
  326MOL0     H44950   7.804   5.496   7.187  0.2660 -0.2210 -2.0838
  326MOL0     H44951   7.679   5.610   7.013 -3.0948 -1.4322 -1.4772
  326MOL0     H44952   7.545   5.752   6.872  2.2716 -0.9675  1.2639
  326MOL0     H44953   7.487   5.577   6.864 -0.7439  1.2424 -2.3451
  326MOL0     H44954   7.277   5.627   6.817 -0.0501  0.4112  0.6096
  326MOL0     H44955   7.297   5.804   6.846  0.9314 -0.7369  1.2032
  326MOL0     H44956   7.420   5.654   6.613  0.7340  1.7817 -2.2160
  326MOL0     H44957   7.437   5.819   6.629 -0.7984 -0.7808 -0.1425
  326MOL0     H44958   7.174   5.841   6.626 -1.6049 -0.1398 -1.2875
  326MOL0     H44959   7.193   5.679   6.588  1.2578 -0.2438  2.1406
  326MOL0     H44960   7.333   5.753   6.384 -1.8357 -0.1082 -2.1255
  326MOL0     H44961   7.162   5.811   6.387 -0.4286  3.6680 -0.1901
  326MOL0     H44962   7.379   6.012   6.493 -1.5749  5.1937 -1.4167
  326MOL0     H44963   7.222   6.031   6.426 -0.2176 -0.1888  1.7020
  326MOL0     H44964   7.311   5.943   6.205 -2.6169 -0.4751  1.9638
  326MOL0     H44965   7.472   5.936   6.275  1.8332  4.0020  3.0893
  326MOL0     H44966   7.427   6.146   6.139 -1.0523 -1.2112 -0.2523
  326MOL0     H44967   7.508   6.163   6.300 -1.0836  0.3392 -0.5628
  326MOL0     H44968   7.333   5.635   7.238  0.2126 -0.9317 -0.7642
  326MOL0     H44969   7.444   5.504   7.435  0.7661 -2.3512 -0.5228
  326MOL0     H44970   7.619   5.279   7.607 -0.0055 -1.7035 -2.8728
  326MOL0     H44971   7.629   5.124   7.801  0.5371 -4.7623  0.2739
  326MOL0     H44972   9.151   3.751   7.595  2.4944 -0.5353 -0.2555
  326MOL0     H44973   9.218   3.582   7.462 -4.9278 -3.2892 -1.4086
  326MOL0     H44974   9.339   3.569   6.949  0.7653  0.0571 -1.8717
  326MOL0     H44975   9.465   3.481   6.760  1.8716  0.8705  0.2464
  326MOL0     H44976   9.717   3.093   6.840  3.7809 -0.9576 -2.4951
  326MOL0     H44977   9.735   3.124   6.679  0.8037 -1.1614  1.1333
  326MOL0     H44978   9.904   3.223   6.821  0.6849 -0.2132 -4.1237
  326MOL0     H44979   9.789   3.326   6.902 -0.2917  0.2635  0.0527
  326MOL0     H44980   9.803   3.343   6.594  0.5736  1.1628 -1.1750
  326MOL0     H44981   9.760   3.469   6.706  2.6418  1.8755 -1.2976
  326MOL0     H44982   9.993   3.469   6.797 -1.7054 -1.1410 -0.0908
  326MOL0     H44983   9.980   3.523   6.630 -1.6121  1.5417  1.1036
  326MOL0     H44984  10.202   3.160   6.615  0.6919 -0.8015  3.0523
  326MOL0     H44985   9.543   3.120   6.985 -4.5278 -1.0985 -0.0372
  326MOL0     H44986   9.411   3.202   7.279 -1.8695 -0.8678 -2.7499
  326MOL0     H44987   9.563   3.129   7.216 -0.8172  0.2260  1.1557
  326MOL0     H44988   9.579   3.277   7.302 -1.0560  1.9989  0.1784
  327MOL0     O44989   8.377   3.435   9.666  0.3812 -0.2521  0.1556
  327MOL0     C44990   8.339   3.325   9.696  0.2959  0.2311 -0.5307
  327MOL0     O44991   8.267   3.242   9.625 -0.0988 -0.0491  0.1893
  327MOL0     C44992   8.222   3.293   9.511 -0.3493 -0.3815  1.0121
  327MOL0     C44993   8.312   3.305   9.402 -0.4774  0.5219  0.0633
  327MOL0     C44994   8.263   3.346   9.279  0.1854  0.5113  0.1001
  327MOL0     C44995   8.123   3.363   9.265 -0.0078  1.2501  0.2826
  327MOL0     O44996   8.051   3.377   9.147 -0.4925 -0.2368  0.6851
  327MOL0     C44997   8.119   3.437   9.043 -0.0459  0.1874 -0.8804
  327MOL0     C44998   8.029   3.463   8.920 -0.0814 -0.8902  0.1283
  327MOL0     C44999   8.112   3.534   8.812  0.4473 -0.0436  0.5735
  327MOL0     C45000   8.093   3.458   8.678 -0.2791 -0.6033 -0.2428
  327MOL0     C45001   8.186   3.330   8.675  0.9294  0.6439  1.3769
  327MOL0     C45002   8.147   3.209   8.751 -0.6839  0.2065  1.0043
  327MOL0     C45003   8.224   3.086   8.693 -0.9552 -0.7840 -0.3265
  327MOL0     C45004   8.146   2.996   8.614 -1.5792 -0.4494 -0.1895
  327MOL0     N45005   8.230   2.886   8.576 -0.1887  0.7086 -0.5264
  327MOL0     C45006   8.321   2.810   8.651  1.2733 -0.4637 -0.0582
  327MOL0     C45007   8.368   2.710   8.571 -0.4618 -0.3781  0.6105
  327MOL0     C45008   8.491   2.619   8.599  0.1783 -0.1893 -0.4802
  327MOL0     C45009   8.449   2.538   8.721  0.2062  0.2948  0.2838
  327MOL0     C45010   8.577   2.470   8.782  0.5023 -0.4050  0.6880
  327MOL0     C45011   8.654   2.572   8.875 -0.0068  0.4880  0.3152
  327MOL0     O45012   8.559   2.603   8.976 -0.3928  0.1919 -0.2920
  327MOL0     C45013   8.603   2.691   9.073  0.1303 -0.7536 -0.0181
  327MOL0     C45014   8.505   2.768   9.151 -1.3747 -0.6769 -1.0056
  327MOL0     C45015   8.547   2.864   9.247 -0.1948  0.2725 -0.1950
  327MOL0     C45016   8.436   2.924   9.325 -0.2937 -0.6939 -0.2211
  327MOL0     C45017   8.684   2.895   9.261 -0.6120  0.6588  0.4932
  327MOL0     C45018   8.739   2.995   9.367  0.6617  0.9772  0.9669
  327MOL0     O45019   8.653   3.076   9.418  0.0410 -0.0829  0.4232
  327MOL0     C45020   8.701   3.157   9.521  0.0192 -0.4671  0.5318
  327MOL0     C45021   8.749   3.281   9.474  0.2733 -0.0414  0.4801
  327MOL0     C45022   8.785   3.379   9.563 -0.1716  0.5232 -0.1853
  327MOL0     C45023   8.793   3.346   9.697  0.5348  0.0920 -0.4252
  327MOL0     O45024   8.839   3.442   9.779 -0.3090 -0.6313 -0.3152
  327MOL0     C45025   8.730   3.506   9.850  1.1211  0.3543 -0.0264
  327MOL0     C45026   8.782   3.618   9.941  0.1256 -0.3154 -0.7492
  327MOL0     C45027   8.684   3.687  10.039  0.6483  0.1631  0.8210
  327MOL0     C45028   8.726   3.827  10.095 -0.3059  0.5360  1.0838
  327MOL0     C45029   8.598   3.895  10.144  0.8005  0.1322  0.7612
  327MOL0     C45030   8.635   4.041  10.185 -0.3046  0.5854 -0.1579
  327MOL0     C45031   8.498   4.097  10.222 -0.8958  0.1871  0.6812
  327MOL0     C45032   8.498   4.230  10.287 -0.8567 -0.0396  0.0990
  327MOL0    Cl45033   8.338   4.295  10.255 -0.4303 -0.0668  0.1976
  327MOL0     C45034   8.749   3.223   9.748  0.2381  0.4467  0.1966
  327MOL0     C45035   8.710   3.128   9.656  0.0283 -0.4583  0.3649
  327MOL0     O45036   8.850   2.980   9.408 -0.2767  0.1933 -0.4766
  327MOL0     C45037   8.767   2.810   9.189 -0.8162  0.1873  0.6500
  327MOL0     C45038   8.735   2.716   9.092 -0.5475 -0.5297 -0.7376
  327MOL0     N45039   8.287   2.713   8.458 -0.2884  0.5435  0.2718
  327MOL0     N45040   8.213   2.817   8.459 -0.3767 -0.1687 -0.0005
  327MOL0     C45041   8.031   3.330   9.365  0.7729 -0.4923 -0.1736
  327MOL0     C45042   8.081   3.310   9.495 -0.3659  0.1728 -0.3934
  327MOL0     C45043   8.383   3.270   9.829 -0.5966 -0.4906  0.8788
  327MOL0     C45044   8.416   3.136   9.822 -0.0664 -0.6310 -0.1807
  327MOL0     C45045   8.453   3.070   9.941  0.2402 -0.5961 -0.3057
  327MOL0     C45046   8.452   3.136  10.066 -0.3844 -0.0360 -0.2563
  327MOL0     O45047   8.495   3.060  10.175 -0.6949 -0.1196 -0.4569
  327MOL0     C45048   8.454   3.098  10.309 -0.6833  0.4690 -0.6746
  327MOL0     C45049   8.443   2.971  10.393  0.0431 -0.3819 -0.5497
  327MOL0     C45050   8.394   2.998  10.537 -0.4111 -0.6630  0.6170
  327MOL0     C45051   8.250   3.046  10.537  0.6159 -0.2497  0.3675
  327MOL0     C45052   8.216   3.132  10.655 -1.0295  0.7717 -0.0068
  327MOL0     C45053   8.208   3.187  10.764 -0.4774  0.5528 -0.7489
  327MOL0     C45054   8.411   3.272  10.069 -0.9757  0.5594  0.6207
  327MOL0     C45055   8.391   3.343   9.953  0.5502 -0.3649 -0.2746
  327MOL0     C45056   8.344   3.485   9.955 -0.0191  0.1374 -0.5391
  327MOL0     H45057   8.419   3.289   9.413 -0.6932  0.4125  2.5582
  327MOL0     H45058   8.333   3.372   9.200 -0.7629  1.6578 -0.3797
  327MOL0     H45059   8.198   3.371   9.006  1.6858  0.1572  2.4611
  327MOL0     H45060   8.157   3.533   9.078  2.1560 -0.9282  0.0034
  327MOL0     H45061   7.994   3.367   8.883 -3.7542  0.6807 -0.8572
  327MOL0     H45062   7.942   3.520   8.954  2.7436  3.7845  0.4123
  327MOL0     H45063   8.066   3.630   8.788 -1.4061 -0.9263  0.4291
  327MOL0     H45064   8.215   3.543   8.849  1.5015 -6.3862  0.4075
  327MOL0     H45065   7.997   3.409   8.663 -1.1235  0.1138  2.4159
  327MOL0     H45066   8.115   3.533   8.602 -0.4515 -1.0561 -0.7461
  327MOL0     H45067   8.291   3.354   8.697  1.5764 -0.4352 -0.3136
  327MOL0     H45068   8.189   3.305   8.568  0.1101  0.4918  1.3852
  327MOL0     H45069   8.153   3.223   8.859 -2.5408 -3.4271  1.7357
  327MOL0     H45070   8.041   3.195   8.728 -0.2724  1.6759 -2.3697
  327MOL0     H45071   8.275   3.033   8.774 -2.4289 -1.0417  0.4814
  327MOL0     H45072   8.298   3.121   8.621  0.9216 -0.4166  1.6621
  327MOL0     H45073   8.061   2.965   8.675 -1.8360  0.4219 -0.0995
  327MOL0     H45074   8.104   3.051   8.529 -0.6598  0.5038 -0.0519
  327MOL0     H45075   8.361   2.840   8.748  2.1881  0.2256 -0.6286
  327MOL0     H45076   8.576   2.683   8.623 -1.6231  1.4555  2.0608
  327MOL0     H45077   8.514   2.567   8.506 -1.0062 -0.3581 -0.6964
  327MOL0     H45078   8.401   2.598   8.799 -2.3508  2.1432 -2.4524
  327MOL0     H45079   8.380   2.459   8.689  1.7070  0.4521 -4.0158
  327MOL0     H45080   8.549   2.372   8.823  2.1237 -0.5365  1.5421
  327MOL0     H45081   8.641   2.442   8.698 -0.6084 -0.4564 -0.1612
  327MOL0     H45082   8.737   2.512   8.914  0.2594  0.6150 -0.0538
  327MOL0     H45083   8.682   2.654   8.808  0.2151 -1.8778 -2.6937
  327MOL0     H45084   8.401   2.738   9.146 -1.2816 -1.0173 -0.9452
  327MOL0     H45085   8.342   2.881   9.289  1.3323 -1.9186 -3.3537
  327MOL0     H45086   8.431   3.033   9.316 -0.8411 -0.6911  0.0243
  327MOL0     H45087   8.447   2.893   9.429 -1.0631 -6.8163 -1.5645
  327MOL0     H45088   8.746   3.313   9.370  1.0215 -0.9887  0.1417
  327MOL0     H45089   8.807   3.481   9.533 -1.5713  1.0975  0.6745
  327MOL0     H45090   8.653   3.550   9.786  0.7509 -0.5238 -0.1837
  327MOL0     H45091   8.677   3.423   9.897 -0.6919  1.4089 -0.1081
  327MOL0     H45092   8.870   3.588   9.998 -0.4578 -1.1998 -0.2926
  327MOL0     H45093   8.830   3.699   9.886  0.3016  0.0871 -0.0084
  327MOL0     H45094   8.667   3.607  10.112 -1.5479  1.4899  1.8656
  327MOL0     H45095   8.586   3.696   9.990  0.7837  2.0572  0.8361
  327MOL0     H45096   8.776   3.890  10.021  1.2895  0.8000  2.3337
  327MOL0     H45097   8.793   3.816  10.180 -0.2074 -1.0145  0.8278
  327MOL0     H45098   8.521   3.909  10.068 -1.3951 -1.9949  2.4304
  327MOL0     H45099   8.558   3.839  10.229  0.2189  2.1636  1.8995
  327MOL0     H45100   8.675   4.107  10.108 -3.6518  0.7952 -1.8815
  327MOL0     H45101   8.684   4.045  10.283 -0.1964 -1.7334 -0.0510
  327MOL0     H45102   8.451   4.035  10.299  0.2414  1.3904  2.3968
  327MOL0     H45103   8.453   4.108  10.123  1.9239  0.7524 -0.6333
  327MOL0     H45104   8.579   4.288  10.242 -0.5320  0.3549  1.1520
  327MOL0     H45105   8.526   4.225  10.393 -0.2873 -1.8433 -0.0928
  327MOL0     H45106   8.745   3.209   9.855 -2.3512  0.6454  0.1842
  327MOL0     H45107   8.669   3.029   9.678  0.3570 -1.2349 -2.1826
  327MOL0     H45108   8.872   2.831   9.206 -0.3553 -1.2901 -0.1565
  327MOL0     H45109   8.816   2.654   9.055 -0.3988  0.4123 -2.0431
  327MOL0     H45110   7.923   3.343   9.359  0.7368  0.7049  1.9337
  327MOL0     H45111   8.013   3.286   9.575  2.5159  3.7996  3.6263
  327MOL0     H45112   8.415   3.073   9.733  1.1590 -1.4273  0.3403
  327MOL0     H45113   8.471   2.964   9.924  1.8080 -0.0516 -2.5475
  327MOL0     H45114   8.529   3.166  10.349 -0.7460 -0.1720  0.5906
  327MOL0     H45115   8.359   3.153  10.310 -1.7443 -1.2682 -0.9052
  327MOL0     H45116   8.537   2.915  10.389  0.3098  0.0295 -0.0850
  327MOL0     H45117   8.376   2.899  10.344  1.8292 -1.2648 -1.7808
  327MOL0     H45118   8.401   2.907  10.597  1.3369 -0.8862  0.1297
  327MOL0     H45119   8.462   3.068  10.587  2.3095 -0.6701 -2.6826
  327MOL0     H45120   8.182   2.961  10.530  3.2254 -2.4057 -0.8164
  327MOL0     H45121   8.236   3.103  10.444 -0.4672 -1.5819 -0.3159
  327MOL0     H45122   8.186   3.219  10.863  3.4024 -1.9362  1.1719
  327MOL0     H45123   8.425   3.337  10.155 -2.0636  0.1183  1.1486
  327MOL0     H45124   8.347   3.518  10.059  0.6133 -3.0963  0.5935
  327MOL0     H45125   8.406   3.548   9.891 -2.8575  2.9811 -0.7511
  327MOL0     H45126   8.245   3.488   9.907 -1.0024 -2.6612  1.0923
  328MOL0     O45127   8.784   4.154   8.283 -0.0363 -0.2212  0.3698
  328MOL0     C45128   8.793   4.270   8.241  0.0516 -0.2546  0.8881
  328MOL0     O45129   8.884   4.318   8.141  0.7177  0.3942  0.2332
  328MOL0     C45130   8.964   4.223   8.098 -0.1765 -1.1962  0.5728
  328MOL0     C45131   9.084   4.208   8.167  0.3721 -0.2694  0.5360
  328MOL0     C45132   9.174   4.116   8.125 -0.0729 -0.0946 -0.3112
  328MOL0     C45133   9.146   4.040   8.003 -0.0041 -0.8118 -1.2451
  328MOL0     O45134   9.249   3.957   7.960  0.6701  0.9127  0.1890
  328MOL0     C45135   9.253   3.939   7.815  0.2151 -0.8620 -0.1520
  328MOL0     C45136   9.379   3.886   7.747 -0.5362 -0.4171 -1.1073
  328MOL0     C45137   9.504   3.955   7.799 -1.0524  0.5448 -0.7137
  328MOL0     C45138   9.631   3.859   7.786 -0.1978 -0.3972 -0.2386
  328MOL0     C45139   9.762   3.931   7.830  0.8534  0.1336 -0.2007
  328MOL0     C45140   9.809   4.064   7.750 -0.5207  0.2073  1.2519
  328MOL0     C45141   9.786   4.192   7.844 -0.4614 -0.5914  0.1162
  328MOL0     C45142   9.868   4.320   7.790 -0.8082 -0.1150 -0.0072
  328MOL0     N45143   9.832   4.381   7.660  0.0519  0.5035 -0.2304
  328MOL0     C45144   9.772   4.498   7.629 -0.8983 -1.1214 -0.7203
  328MOL0     C45145   9.756   4.495   7.498  0.8167 -0.3924 -0.5875
  328MOL0     C45146   9.713   4.609   7.416 -0.5564 -0.4171 -0.2413
  328MOL0     C45147   9.719   4.584   7.263  1.0279  0.3092 -0.3130
  328MOL0     C45148   9.661   4.699   7.187  0.4007  0.7724  0.0570
  328MOL0     C45149   9.517   4.740   7.211  0.4110  0.3577  0.6681
  328MOL0     O45150   9.437   4.619   7.192 -0.0090  0.0232 -0.3564
  328MOL0     C45151   9.302   4.621   7.214 -0.0732 -0.8105  0.8464
  328MOL0     C45152   9.237   4.736   7.256 -0.0901 -0.6693 -0.1436
  328MOL0     C45153   9.090   4.747   7.281 -0.2136  1.3592  0.4798
  328MOL0     C45154   9.027   4.882   7.313  0.4048  0.9062 -0.1296
  328MOL0     C45155   9.008   4.645   7.235  0.3122  0.4650 -0.5332
  328MOL0     C45156   8.857   4.643   7.222  0.3006  0.4201 -0.7715
  328MOL0     O45157   8.802   4.513   7.206  0.0930 -0.1792  0.3399
  328MOL0     C45158   8.681   4.522   7.142  0.8841 -1.2867 -0.3547
  328MOL0     C45159   8.566   4.534   7.219  0.6324  0.1108  0.5234
  328MOL0     C45160   8.445   4.545   7.150  0.0695 -0.5963  0.2938
  328MOL0     C45161   8.439   4.554   7.009 -0.3067  0.5522  0.0779
  328MOL0     O45162   8.322   4.572   6.935  0.5673  0.0731 -0.3314
  328MOL0     C45163   8.197   4.550   7.016 -0.4877  0.0085 -0.2110
  328MOL0     C45164   8.082   4.534   6.920 -0.4741 -0.5770  0.1124
  328MOL0     C45165   8.014   4.672   6.894 -0.2465  0.5054 -0.4982
  328MOL0     C45166   7.885   4.683   6.827  0.2505  0.3889  0.2164
  328MOL0     C45167   7.852   4.822   6.789 -0.6220 -0.1154 -0.6853
  328MOL0     C45168   7.892   4.874   6.643  0.6167 -0.3948  0.5072
  328MOL0     C45169   8.032   4.853   6.614  0.1752  0.2573 -0.4868
  328MOL0     C45170   8.057   4.917   6.473 -0.3468 -0.0624  0.5611
  328MOL0    Cl45171   8.070   5.102   6.489  0.8707 -0.0160 -0.1775
  328MOL0     C45172   8.553   4.541   6.937 -0.0487  0.8280 -0.4816
  328MOL0     C45173   8.680   4.527   7.006  0.2723 -0.0524 -0.0372
  328MOL0     O45174   8.796   4.746   7.228  0.3226 -0.1561  0.3278
  328MOL0     C45175   9.080   4.527   7.187  0.9687 -0.2280 -0.2156
  328MOL0     C45176   9.217   4.518   7.170 -0.1145 -0.8309  0.0518
  328MOL0     N45177   9.791   4.374   7.439 -0.1688 -0.1443 -0.7186
  328MOL0     N45178   9.835   4.306   7.546 -0.9199 -0.6545  0.4452
  328MOL0     C45179   9.025   4.051   7.933  0.1959 -0.1132  0.0786
  328MOL0     C45180   8.935   4.146   7.980  0.3038 -0.3246  0.5763
  328MOL0     C45181   8.720   4.370   8.317  0.1644  0.5976  0.0094
  328MOL0     C45182   8.678   4.340   8.449 -1.1827 -0.3968  0.4276
  328MOL0     C45183   8.619   4.431   8.531 -0.2567 -0.5239 -0.9060
  328MOL0     C45184   8.602   4.561   8.493 -0.3470 -0.0725  0.0901
  328MOL0     O45185   8.567   4.660   8.580 -0.6397 -0.0041 -0.9873
  328MOL0     C45186   8.487   4.616   8.693 -0.2123  0.5752  0.0393
  328MOL0     C45187   8.402   4.734   8.724  1.4503  0.7945 -0.3635
  328MOL0     C45188   8.281   4.751   8.618 -0.5476  0.3375 -0.7555
  328MOL0     C45189   8.315   4.823   8.487  0.3448  0.4203 -0.0428
  328MOL0     C45190   8.198   4.800   8.397  0.7064  2.0115  0.0778
  328MOL0     C45191   8.107   4.777   8.317 -0.6969 -0.1940 -0.5695
  328MOL0     C45192   8.651   4.596   8.362  0.5729 -0.5777 -0.3144
  328MOL0     C45193   8.704   4.510   8.268 -0.2661  0.0431  0.3759
  328MOL0     C45194   8.735   4.572   8.125 -0.4986 -0.9583  0.2983
  328MOL0     H45195   9.107   4.258   8.260 -1.4542 -0.6776  1.2570
  328MOL0     H45196   9.272   4.116   8.170  0.6251  1.2307 -1.7493
  328MOL0     H45197   9.237   4.037   7.769  0.1280 -1.0000 -0.4126
  328MOL0     H45198   9.175   3.870   7.781 -1.9015  1.8406 -1.2146
  328MOL0     H45199   9.385   3.782   7.780  2.0535 -1.1613 -3.4940
  328MOL0     H45200   9.362   3.892   7.639  3.7878 -0.4109 -1.9761
  328MOL0     H45201   9.520   4.047   7.742  1.2780  1.2309  0.8792
  328MOL0     H45202   9.487   3.976   7.905  0.6786 -0.1133 -0.2846
  328MOL0     H45203   9.620   3.777   7.857 -0.9018 -0.3281 -0.2624
  328MOL0     H45204   9.651   3.819   7.686 -0.8898  2.0247 -1.4211
  328MOL0     H45205   9.846   3.861   7.835  1.7661  1.2917  1.6210
  328MOL0     H45206   9.737   3.959   7.932 -3.9134 -0.9124 -0.8163
  328MOL0     H45207   9.916   4.062   7.730 -0.7246 -2.9825 -0.2202
  328MOL0     H45208   9.748   4.061   7.659 -1.2729 -5.3305  1.6080
  328MOL0     H45209   9.812   4.178   7.949  1.9068  0.7114 -0.2381
  328MOL0     H45210   9.677   4.203   7.850 -0.5848 -2.5646  3.3951
  328MOL0     H45211   9.840   4.394   7.866 -3.1419 -0.9904  0.0711
  328MOL0     H45212   9.977   4.313   7.794 -0.7075  1.2086  0.2994
  328MOL0     H45213   9.756   4.578   7.701 -1.2713 -3.4038  1.9490
  328MOL0     H45214   9.773   4.700   7.424 -1.7962  0.8075 -3.3215
  328MOL0     H45215   9.610   4.625   7.447  0.0427 -0.9130  2.1575
  328MOL0     H45216   9.824   4.568   7.238  1.3331  2.0370 -0.2554
  328MOL0     H45217   9.667   4.493   7.232  2.3313 -0.3792 -0.5483
  328MOL0     H45218   9.729   4.784   7.197 -0.4245  1.5126 -0.5106
  328MOL0     H45219   9.679   4.681   7.081  3.0039 -1.1459  0.7080
  328MOL0     H45220   9.500   4.763   7.316  0.2395  1.7045  0.3603
  328MOL0     H45221   9.495   4.829   7.152 -0.6502 -1.0973 -1.2789
  328MOL0     H45222   9.288   4.831   7.270  0.5635 -0.9488 -0.5767
  328MOL0     H45223   9.106   4.936   7.365 -0.3633  1.0148  0.9681
  328MOL0     H45224   8.933   4.887   7.369  1.3884 -0.2569  1.7280
  328MOL0     H45225   8.998   4.937   7.223 -1.8969 -0.8106 -0.5180
  328MOL0     H45226   8.555   4.544   7.326  0.1448  1.8962  0.3367
  328MOL0     H45227   8.360   4.554   7.217  0.3208 -1.1793  0.7038
  328MOL0     H45228   8.197   4.451   7.062 -0.3715 -1.1397 -2.4971
  328MOL0     H45229   8.178   4.631   7.087  3.6636  1.6032 -0.6241
  328MOL0     H45230   8.114   4.501   6.820 -2.7070 -1.5007 -0.3565
  328MOL0     H45231   8.008   4.457   6.942 -0.4232 -1.4188 -2.2959
  328MOL0     H45232   8.082   4.737   6.838 -2.8939  1.2792 -3.1394
  328MOL0     H45233   8.002   4.721   6.991 -2.4146 -1.7175  0.4724
  328MOL0     H45234   7.811   4.649   6.900  0.0860  1.6286  0.6480
  328MOL0     H45235   7.879   4.627   6.733 -1.9518 -0.1306  0.5968
  328MOL0     H45236   7.743   4.824   6.784 -0.5549  0.7790 -3.0121
  328MOL0     H45237   7.894   4.889   6.865  1.1708  1.3424 -2.8435
  328MOL0     H45238   7.864   4.980   6.639  1.2194 -0.2427 -3.0622
  328MOL0     H45239   7.829   4.825   6.568  0.7034 -0.2415  0.3330
  328MOL0     H45240   8.054   4.747   6.596  0.7918  0.4624 -0.9616
  328MOL0     H45241   8.097   4.892   6.693 -2.7174  1.3529  1.5273
  328MOL0     H45242   7.982   4.883   6.401 -0.1217 -0.1612  0.3723
  328MOL0     H45243   8.155   4.886   6.436 -0.4571 -0.6020  0.7161
  328MOL0     H45244   8.539   4.548   6.830  0.2655 -1.4797 -0.7446
  328MOL0     H45245   8.780   4.507   6.968  1.7204  1.5311  2.6423
  328MOL0     H45246   9.012   4.447   7.159 -2.6373  2.9141 -1.4328
  328MOL0     H45247   9.242   4.429   7.114 -4.6872 -1.7779 -0.9121
  328MOL0     H45248   9.007   4.002   7.838 -0.8597  0.9716 -0.3164
  328MOL0     H45249   8.842   4.142   7.924  0.8755 -2.1398 -0.3048
  328MOL0     H45250   8.685   4.235   8.473 -1.3880  0.0375  2.5963
  328MOL0     H45251   8.586   4.388   8.625  1.0905 -1.7829 -0.9745
  328MOL0     H45252   8.432   4.525   8.668  0.9990 -0.6698  1.6211
  328MOL0     H45253   8.552   4.578   8.773  0.7384  0.1939 -0.8936
  328MOL0     H45254   8.456   4.829   8.719  1.8225  0.7008  1.3390
  328MOL0     H45255   8.363   4.727   8.826  2.3143 -1.8374 -0.1462
  328MOL0     H45256   8.237   4.653   8.599  1.5329 -0.9040  0.4490
  328MOL0     H45257   8.204   4.813   8.665  0.4308  3.6912 -3.1923
  328MOL0     H45258   8.403   4.776   8.441  1.0817  2.2646 -0.5730
  328MOL0     H45259   8.329   4.931   8.494  0.3015  0.2915  3.3330
  328MOL0     H45260   8.029   4.760   8.245  0.3606  3.0585 -2.6911
  328MOL0     H45261   8.628   4.696   8.328  0.0475 -0.0486  1.5106
  328MOL0     H45262   8.760   4.488   8.059  0.7728 -2.1031  2.1383
  328MOL0     H45263   8.648   4.620   8.079 -1.2431 -0.3344  2.2916
  328MOL0     H45264   8.813   4.649   8.127 -0.4927 -0.9352 -0.3515
  329MOL0     O45265  10.261   4.788   6.646 -0.1144  0.0032 -0.9874
  329MOL0     C45266  10.329   4.735   6.557  0.8636 -0.4577 -0.4357
  329MOL0     O45267  10.417   4.637   6.587  0.3720  0.4067 -0.1680
  329MOL0     C45268  10.445   4.608   6.713  0.5658  0.7319 -0.7796
  329MOL0     C45269  10.371   4.505   6.774  0.3954 -0.1681  0.4471
  329MOL0     C45270  10.389   4.482   6.914 -0.5333  0.1849  0.0893
  329MOL0     C45271  10.478   4.563   7.002 -0.7086 -0.1315 -0.3315
  329MOL0     O45272  10.473   4.541   7.137  0.0178 -0.1039 -0.0839
  329MOL0     C45273  10.582   4.583   7.222  0.6005 -1.2117 -1.4508
  329MOL0     C45274  10.539   4.562   7.372  0.2387 -0.0555 -1.0454
  329MOL0     C45275  10.632   4.623   7.474 -0.2334 -0.6914  0.1082
  329MOL0     C45276  10.577   4.763   7.514 -0.7084  0.2754  0.1290
  329MOL0     C45277  10.653   4.815   7.636  0.5951 -0.4176 -0.1199
  329MOL0     C45278  10.629   4.964   7.673 -0.0452  0.3448  1.6254
  329MOL0     C45279  10.686   4.974   7.810 -0.1920 -0.5891 -0.9010
  329MOL0     C45280  10.676   5.121   7.846 -0.3910 -0.0594 -0.4536
  329MOL0     N45281  10.540   5.161   7.906 -0.4104 -0.1107 -1.4363
  329MOL0     C45282  10.515   5.130   8.036  0.5750 -0.8133 -0.7612
  329MOL0     C45283  10.395   5.182   8.056  0.3427 -0.2436  0.7772
  329MOL0     C45284  10.303   5.186   8.173 -1.2336  0.3885 -0.0476
  329MOL0     C45285  10.330   5.312   8.258 -0.3673 -0.5671  0.9130
  329MOL0     C45286  10.267   5.452   8.225 -0.1600 -1.0287  0.1962
  329MOL0     C45287  10.225   5.481   8.081  0.2251  0.0841  0.8297
  329MOL0     O45288  10.144   5.594   8.073 -0.1587  0.2306 -0.0103
  329MOL0     C45289  10.203   5.715   8.094 -0.1831 -0.4360  0.0327
  329MOL0     C45290  10.313   5.769   8.026 -0.3872 -1.1054  0.1325
  329MOL0     C45291  10.378   5.883   8.065  0.1343  0.5623  0.6005
  329MOL0     C45292  10.512   5.925   7.988 -0.2450  0.2227 -0.4620
  329MOL0     C45293  10.328   5.961   8.174 -0.7129 -0.4101  0.0693
  329MOL0     C45294  10.390   6.093   8.214 -0.4747  0.0431 -0.0956
  329MOL0     O45295  10.479   6.092   8.312 -0.0596  0.0472 -0.4611
  329MOL0     C45296  10.549   6.205   8.341 -0.6532  0.7203  1.0565
  329MOL0     C45297  10.579   6.318   8.260  0.1427  0.1987  0.0151
  329MOL0     C45298  10.664   6.413   8.310 -0.7644  0.6630  0.9355
  329MOL0     C45299  10.733   6.401   8.426 -0.8420 -0.1715 -0.3687
  329MOL0     O45300  10.800   6.494   8.498  0.4399 -0.0643 -0.0129
  329MOL0     C45301  10.897   6.571   8.422 -0.5711  0.1470  0.0683
  329MOL0     C45302  11.018   6.627   8.502  0.4483  0.4511  0.1696
  329MOL0     C45303  11.070   6.747   8.416 -0.0393 -0.8986  0.5440
  329MOL0     C45304  11.128   6.859   8.500 -0.0151  1.1291 -0.4699
  329MOL0     C45305  11.256   6.806   8.586  0.2507  0.4654  0.2661
  329MOL0     C45306  11.319   6.917   8.667  0.3474 -0.2300  1.0582
  329MOL0     C45307  11.224   6.964   8.779 -0.6364 -0.5923 -0.0911
  329MOL0     C45308  11.302   7.044   8.896  0.4643  0.4943  0.0985
  329MOL0    Cl45309  11.422   6.933   8.991  0.5981 -0.5013 -0.5671
  329MOL0     C45310  10.719   6.278   8.491  0.5521 -0.0235  0.0116
  329MOL0     C45311  10.635   6.182   8.445 -0.6778  0.5161  0.0965
  329MOL0     O45312  10.353   6.183   8.140 -0.1955 -0.0566 -0.2294
  329MOL0     C45313  10.208   5.914   8.237 -0.3605  0.5089  0.2148
  329MOL0     C45314  10.152   5.795   8.190 -0.9924 -0.8040  0.0736
  329MOL0     N45315  10.355   5.240   7.927 -0.6762  0.4342 -0.3318
  329MOL0     N45316  10.446   5.227   7.839 -0.4873  0.0546 -0.6421
  329MOL0     C45317  10.553   4.664   6.930  0.5634 -0.1448 -0.2613
  329MOL0     C45318  10.536   4.678   6.793 -0.8003  0.3896  1.4069
  329MOL0     C45319  10.297   4.758   6.419  0.1999 -0.0151  0.5742
  329MOL0     C45320  10.172   4.790   6.378 -0.4249  0.2996  0.2470
  329MOL0     C45321  10.134   4.803   6.242 -0.3084  0.3883 -0.2047
  329MOL0     C45322  10.225   4.813   6.145 -0.1144 -0.9460  0.1319
  329MOL0     O45323  10.173   4.845   6.020  0.5291  0.2023 -0.7708
  329MOL0     C45324  10.279   4.887   5.929  0.0881  0.2264 -0.4672
  329MOL0     C45325  10.228   4.997   5.839 -0.5918 -0.4191  0.1108
  329MOL0     C45326  10.345   5.042   5.754  0.1640  0.0611 -0.4131
  329MOL0     C45327  10.298   5.099   5.628 -0.1255 -0.1303 -1.1902
  329MOL0     C45328  10.251   5.011   5.525 -0.5295  0.4889  0.4691
  329MOL0     C45329  10.195   4.925   5.453  0.5266 -0.7821  0.0230
  329MOL0     C45330  10.361   4.787   6.182  0.3142  0.0240  0.2154
  329MOL0     C45331  10.398   4.769   6.323 -0.7928  0.6958  1.1358
  329MOL0     C45332  10.536   4.745   6.351  0.0146 -0.1206  0.4635
  329MOL0     H45333  10.300   4.455   6.709  0.1800 -1.3108  1.5234
  329MOL0     H45334  10.320   4.414   6.964 -0.6443  1.4400  1.7224
  329MOL0     H45335  10.596   4.690   7.207 -1.0995 -0.6623  0.5390
  329MOL0     H45336  10.679   4.537   7.197  1.8012  1.5255 -2.2107
  329MOL0     H45337  10.441   4.605   7.392  2.3513  3.8829  2.5332
  329MOL0     H45338  10.531   4.462   7.414  2.9071  1.4047  3.7686
  329MOL0     H45339  10.636   4.565   7.567 -2.8501  3.9601  3.5918
  329MOL0     H45340  10.733   4.637   7.435 -0.9478 -1.0139 -2.0074
  329MOL0     H45341  10.579   4.833   7.430  0.6454  1.0300  0.7505
  329MOL0     H45342  10.473   4.754   7.547 -0.5763 -1.4152  0.1653
  329MOL0     H45343  10.761   4.805   7.621  0.9892  2.8526 -0.2444
  329MOL0     H45344  10.625   4.746   7.716  1.8182 -0.8426 -0.0371
  329MOL0     H45345  10.681   5.026   7.599 -1.5422  1.7378  1.6771
  329MOL0     H45346  10.521   4.982   7.666  0.0820  0.5876 -0.0811
  329MOL0     H45347  10.790   4.942   7.822 -0.0141  0.3056  0.1365
  329MOL0     H45348  10.636   4.910   7.882  0.7336  1.5372  1.8109
  329MOL0     H45349  10.755   5.133   7.921 -1.3452  0.8764  0.4326
  329MOL0     H45350  10.714   5.184   7.765  3.3625 -0.1683  1.0074
  329MOL0     H45351  10.568   5.061   8.102 -0.8660 -3.6973 -2.4401
  329MOL0     H45352  10.331   5.103   8.239 -0.7962 -0.7263 -1.5830
  329MOL0     H45353  10.197   5.175   8.149 -1.3930 -1.0829  1.1477
  329MOL0     H45354  10.293   5.285   8.357 -0.2096 -0.8890  0.8855
  329MOL0     H45355  10.439   5.328   8.258 -0.3004 -0.8531 -0.9094
  329MOL0     H45356  10.182   5.458   8.295  0.3959  0.5237  0.7715
  329MOL0     H45357  10.331   5.536   8.253 -1.0776  1.4357 -4.1727
  329MOL0     H45358  10.309   5.498   8.013 -2.4336  2.7382 -2.1621
  329MOL0     H45359  10.168   5.391   8.057  3.6713 -1.7490 -1.0965
  329MOL0     H45360  10.356   5.712   7.944 -1.8300 -1.2818 -0.5327
  329MOL0     H45361  10.507   5.908   7.880 -2.0329  0.7058 -0.4793
  329MOL0     H45362  10.591   5.856   8.020 -0.4911  0.6370  1.1627
  329MOL0     H45363  10.538   6.030   8.007 -4.6685  1.4676 -0.1600
  329MOL0     H45364  10.533   6.316   8.162 -1.1395 -1.3777  0.6118
  329MOL0     H45365  10.678   6.503   8.250  0.0916  0.8879  1.4510
  329MOL0     H45366  10.941   6.498   8.354  0.1308  1.4726 -0.9385
  329MOL0     H45367  10.835   6.645   8.372 -1.3022  0.5967  1.5674
  329MOL0     H45368  10.981   6.652   8.602  0.9640  1.0058  0.2323
  329MOL0     H45369  11.096   6.552   8.516  0.2812  0.3286  0.4472
  329MOL0     H45370  10.987   6.799   8.368 -0.0621 -0.5706  0.9291
  329MOL0     H45371  11.144   6.720   8.341 -0.7982  0.8587 -0.9115
  329MOL0     H45372  11.050   6.907   8.560 -1.4870 -0.8177 -0.7470
  329MOL0     H45373  11.161   6.936   8.430  1.6747  0.0375 -0.9158
  329MOL0     H45374  11.240   6.717   8.649  0.0583  0.6172  0.4361
  329MOL0     H45375  11.316   6.762   8.506 -3.5194  2.7828 -4.3324
  329MOL0     H45376  11.325   7.005   8.602 -0.6014 -2.3788 -2.1995
  329MOL0     H45377  11.417   6.882   8.700  1.4929  1.2362 -0.5634
  329MOL0     H45378  11.183   6.874   8.826  2.0354 -1.7657  0.1372
  329MOL0     H45379  11.139   7.024   8.745 -0.3407 -0.3136 -0.3388
  329MOL0     H45380  11.229   7.085   8.967  0.8564  0.2285  0.6545
  329MOL0     H45381  11.354   7.130   8.851 -2.2808  1.8717 -0.7121
  329MOL0     H45382  10.766   6.263   8.587 -0.5306  1.7421  0.8663
  329MOL0     H45383  10.632   6.086   8.495  1.7242 -1.1579 -2.6603
  329MOL0     H45384  10.162   5.966   8.321  1.1620 -1.2289  2.2349
  329MOL0     H45385  10.066   5.753   8.241 -0.5815  0.1509  1.6226
  329MOL0     H45386  10.610   4.740   6.983  1.4339 -0.7114 -0.3655
  329MOL0     H45387  10.578   4.770   6.752  1.0339  0.0699  2.4511
  329MOL0     H45388  10.091   4.788   6.451 -2.5209  0.7991 -1.9462
  329MOL0     H45389  10.031   4.784   6.217 -0.9881  0.8581  2.0115
  329MOL0     H45390  10.375   4.921   5.970  1.5658 -0.7835 -2.8644
  329MOL0     H45391  10.314   4.803   5.868  2.0087 -0.2477  1.1758
  329MOL0     H45392  10.185   5.083   5.891  1.8277  0.8555  0.1315
  329MOL0     H45393  10.154   4.950   5.773 -0.1996 -0.5301 -0.2512
  329MOL0     H45394  10.393   5.121   5.812  0.6946 -0.0361 -0.7112
  329MOL0     H45395  10.416   4.960   5.736  2.3842  1.2556  2.1710
  329MOL0     H45396  10.382   5.159   5.591 -0.0542 -1.5722 -3.6578
  329MOL0     H45397  10.214   5.165   5.649 -1.8633 -2.4376 -0.4503
  329MOL0     H45398  10.131   4.857   5.399 -3.5527  3.0578 -0.5373
  329MOL0     H45399  10.437   4.775   6.105  2.1830  1.6496  1.7075
  329MOL0     H45400  10.596   4.778   6.265  0.5261 -0.0347  0.8447
  329MOL0     H45401  10.559   4.806   6.439 -2.5500  1.6683  0.0020
  329MOL0     H45402  10.563   4.640   6.363 -3.1785 -1.0843  0.0422
  330MOL0     O45403   1.375   1.708   1.770  0.0768 -0.1306  0.9362
  330MOL0     C45404   1.314   1.605   1.751  0.7271 -0.1764  0.6102
  330MOL0     O45405   1.222   1.588   1.647  0.9809 -0.1887 -0.2797
  330MOL0     C45406   1.206   1.464   1.612 -0.7349 -0.5387  1.0667
  330MOL0     C45407   1.307   1.398   1.548  0.0282 -0.3293 -0.5338
  330MOL0     C45408   1.302   1.260   1.522 -0.3301 -0.1798  0.3123
  330MOL0     C45409   1.173   1.194   1.527  0.6307 -0.1259 -0.1105
  330MOL0     O45410   1.144   1.065   1.495 -0.3821  0.0837 -0.6766
  330MOL0     C45411   1.245   0.983   1.432  0.4842 -0.0177  0.5794
  330MOL0     C45412   1.197   0.840   1.426 -0.3287 -0.2449  0.0755
  330MOL0     C45413   1.127   0.785   1.550 -0.0426  0.6830 -0.3340
  330MOL0     C45414   1.096   0.633   1.547 -0.3382  0.7624  0.4214
  330MOL0     C45415   0.958   0.614   1.607  0.0037  0.6599  0.3375
  330MOL0     C45416   0.919   0.466   1.562 -0.5393 -0.4422 -0.4664
  330MOL0     C45417   1.013   0.369   1.617 -0.2369 -0.0493  0.3541
  330MOL0     C45418   0.951   0.226   1.626 -0.6148 -0.3849  0.3394
  330MOL0     N45419   1.039   0.148   1.709  0.4951 -1.1066 -0.1226
  330MOL0     C45420   1.167   0.101   1.683  0.2737 -0.3174 -0.2837
  330MOL0     C45421   1.184  -0.012   1.761  0.0292 -0.5105  0.8608
  330MOL0     C45422   1.285  -0.119   1.764 -0.6337 -1.2578 -0.4320
  330MOL0     C45423   1.392  -0.109   1.875 -0.6739 -0.3043 -0.3114
  330MOL0     C45424   1.469  -0.247   1.881 -0.2559  0.2806  0.2030
  330MOL0     C45425   1.591  -0.235   1.968 -0.6671  0.6929  0.0171
  330MOL0     O45426   1.701  -0.161   1.909  0.8394 -0.5406 -0.0364
  330MOL0     C45427   1.827  -0.193   1.951  0.2350 -0.4489  0.1089
  330MOL0     C45428   1.916  -0.242   1.857 -0.4290 -0.1442  0.2053
  330MOL0     C45429   2.048  -0.285   1.890 -0.0774 -1.3634  0.4145
  330MOL0     C45430   2.139  -0.324   1.781  0.2084  0.5062  0.2971
  330MOL0     C45431   2.083  -0.267   2.029  0.1483  0.4686  0.0620
  330MOL0     C45432   2.201  -0.319   2.097 -0.1261  0.2660  0.4168
  330MOL0     O45433   2.272  -0.250   2.188  0.0122 -0.0444 -0.4427
  330MOL0     C45434   2.329  -0.320   2.284 -1.1672  0.1361 -0.4129
  330MOL0     C45435   2.471  -0.304   2.282 -1.7732 -0.7356 -1.0727
  330MOL0     C45436   2.538  -0.397   2.362 -0.0314 -0.8772 -0.6257
  330MOL0     C45437   2.476  -0.483   2.451  0.6788  0.3861  0.8200
  330MOL0     O45438   2.538  -0.557   2.544  0.7450 -0.4027  0.4164
  330MOL0     C45439   2.649  -0.488   2.607  0.6533 -0.8709 -0.5058
  330MOL0     C45440   2.626  -0.504   2.763 -0.0465 -0.3879 -0.0391
  330MOL0     C45441   2.495  -0.448   2.813 -0.2288  0.9597  0.0459
  330MOL0     C45442   2.510  -0.297   2.811 -0.0254  0.8088  0.2035
  330MOL0     C45443   2.380  -0.227   2.853 -0.1465  0.1564 -0.0542
  330MOL0     C45444   2.267  -0.290   2.942 -0.5682  0.3327 -0.2024
  330MOL0     C45445   2.317  -0.314   3.090 -0.0072 -0.2762 -0.2999
  330MOL0     C45446   2.207  -0.295   3.192 -0.8371  0.9210  0.4008
  330MOL0    Cl45447   2.280  -0.319   3.358  0.7393 -0.3515  0.4161
  330MOL0     C45448   2.336  -0.483   2.454 -0.2761  0.5840  0.0268
  330MOL0     C45449   2.261  -0.408   2.364 -0.5081  0.0024  0.6157
  330MOL0     O45450   2.219  -0.434   2.067 -0.3813 -0.3054  0.1755
  330MOL0     C45451   1.984  -0.233   2.123 -0.0831 -0.3508 -0.0744
  330MOL0     C45452   1.860  -0.198   2.086 -0.5046 -0.9225  0.3031
  330MOL0     N45453   1.065  -0.024   1.834  0.3428  0.3557 -0.1771
  330MOL0     N45454   0.989   0.071   1.809 -0.1103  0.4340  0.3429
  330MOL0     C45455   1.073   1.270   1.583 -0.1039 -0.6081  1.6116
  330MOL0     C45456   1.090   1.403   1.632  0.4603  0.2756 -0.9029
  330MOL0     C45457   1.350   1.509   1.851  0.1358 -0.1033  1.0227
  330MOL0     C45458   1.486   1.465   1.852 -0.9141  0.4769 -0.6325
  330MOL0     C45459   1.530   1.392   1.963  0.1569  1.2862  0.0833
  330MOL0     C45460   1.450   1.332   2.064  0.1108 -0.4214  0.5068
  330MOL0     O45461   1.492   1.268   2.178  0.3050 -0.4914 -0.1978
  330MOL0     C45462   1.632   1.265   2.207 -0.4448 -0.6132  0.0225
  330MOL0     C45463   1.699   1.140   2.150  0.5306  0.8404 -0.0835
  330MOL0     C45464   1.852   1.159   2.137 -0.5137  0.1449  1.3283
  330MOL0     C45465   1.917   1.072   2.034 -0.1686 -0.3118  0.0603
  330MOL0     C45466   1.885   1.127   1.907  0.3485  0.5442 -0.2144
  330MOL0     C45467   1.861   1.193   1.801 -1.1187 -0.5251  0.6252
  330MOL0     C45468   1.316   1.373   2.057  0.0356 -0.5611 -0.4718
  330MOL0     C45469   1.266   1.461   1.962  0.6574 -0.7678 -0.2047
  330MOL0     C45470   1.123   1.503   1.961  0.2249  0.5986  0.3290
  330MOL0     H45471   1.399   1.437   1.505 -0.3075 -0.2385 -1.1884
  330MOL0     H45472   1.380   1.212   1.464  0.4389  3.2079 -1.7449
  330MOL0     H45473   1.325   0.988   1.506 -0.4941  1.1971  1.6174
  330MOL0     H45474   1.268   1.019   1.331 -4.2015 -0.1940 -0.8208
  330MOL0     H45475   1.120   0.825   1.351  1.2309 -1.3962 -1.3728
  330MOL0     H45476   1.283   0.777   1.401 -0.5274 -0.8041  0.7866
  330MOL0     H45477   1.181   0.796   1.644 -1.6592  0.5700  0.6358
  330MOL0     H45478   1.036   0.844   1.551  1.2576  2.8041  1.3510
  330MOL0     H45479   1.103   0.609   1.440 -2.3969  1.1101  0.1653
  330MOL0     H45480   1.175   0.570   1.589 -1.6346 -0.8925  0.4952
  330MOL0     H45481   0.875   0.679   1.578 -1.4151 -0.2310  2.1732
  330MOL0     H45482   0.959   0.603   1.716 -2.7861 -4.1566  0.1758
  330MOL0     H45483   0.819   0.434   1.595 -1.1918  1.0050 -0.9523
  330MOL0     H45484   0.930   0.465   1.453 -0.5324  0.3273 -0.4803
  330MOL0     H45485   1.043   0.400   1.718 -2.1508 -0.3827  1.0654
  330MOL0     H45486   1.106   0.361   1.560 -0.6574 -0.4759 -0.2885
  330MOL0     H45487   0.847   0.234   1.658 -0.7218  0.8692 -0.2537
  330MOL0     H45488   0.947   0.189   1.524 -0.3180 -0.3919  0.3270
  330MOL0     H45489   1.234   0.151   1.614 -0.4383  2.5589  0.9709
  330MOL0     H45490   1.328  -0.123   1.663  2.4843  1.9726  0.5604
  330MOL0     H45491   1.232  -0.212   1.787  2.5498 -2.7754  1.4659
  330MOL0     H45492   1.461  -0.027   1.852  0.7117 -1.9758 -2.4713
  330MOL0     H45493   1.339  -0.094   1.970  1.8441 -0.7571  1.2690
  330MOL0     H45494   1.409  -0.330   1.919  1.1164 -0.3890  0.9840
  330MOL0     H45495   1.510  -0.283   1.785  0.8149  0.6915  0.4965
  330MOL0     H45496   1.577  -0.182   2.062  0.7293 -0.0506  0.6751
  330MOL0     H45497   1.621  -0.332   2.009  1.2874  1.3565  0.2606
  330MOL0     H45498   1.875  -0.265   1.759 -0.4806 -0.6000  0.3312
  330MOL0     H45499   2.212  -0.395   1.821 -0.2976  1.3415  2.8864
  330MOL0     H45500   2.196  -0.238   1.743 -1.4346  1.1977 -0.6958
  330MOL0     H45501   2.084  -0.357   1.693  2.8380 -0.2283 -1.1753
  330MOL0     H45502   2.511  -0.228   2.216 -1.9987  2.3140  2.0334
  330MOL0     H45503   2.646  -0.390   2.364 -0.0127  1.9532  4.3804
  330MOL0     H45504   2.743  -0.538   2.578 -0.1952 -3.1065  0.3243
  330MOL0     H45505   2.651  -0.382   2.582  3.2352 -0.2053  1.9568
  330MOL0     H45506   2.642  -0.610   2.788 -2.4948 -0.3945  1.9666
  330MOL0     H45507   2.708  -0.457   2.818  0.3979 -1.2091  0.0214
  330MOL0     H45508   2.477  -0.488   2.914 -0.0563 -0.4647 -0.4576
  330MOL0     H45509   2.409  -0.489   2.759  1.0273 -2.7451  0.5339
  330MOL0     H45510   2.535  -0.271   2.708 -2.0051 -0.3312 -0.6240
  330MOL0     H45511   2.599  -0.268   2.868  1.8989 -1.2069 -1.6160
  330MOL0     H45512   2.406  -0.130   2.895 -2.7326  0.8645  0.0938
  330MOL0     H45513   2.331  -0.203   2.758  1.0908  1.2583 -0.4344
  330MOL0     H45514   2.230  -0.384   2.901  0.0350 -0.0601  0.1388
  330MOL0     H45515   2.195  -0.209   2.957 -1.6123 -0.0731 -2.6400
  330MOL0     H45516   2.411  -0.261   3.106 -0.4041  0.9207 -1.7920
  330MOL0     H45517   2.336  -0.417   3.122 -0.1528 -0.1417  0.2280
  330MOL0     H45518   2.131  -0.373   3.179 -0.6508  0.1723  3.2908
  330MOL0     H45519   2.165  -0.195   3.178  0.9507  1.8071  1.0326
  330MOL0     H45520   2.292  -0.555   2.524  3.3226 -1.7431  0.1621
  330MOL0     H45521   2.154  -0.422   2.351 -0.3307 -0.8235 -0.1150
  330MOL0     H45522   2.007  -0.238   2.229  1.3869 -0.0188 -0.3567
  330MOL0     H45523   1.788  -0.156   2.156  1.8231  2.1522  1.0821
  330MOL0     H45524   0.971   1.232   1.587 -0.7052  0.8988  1.2226
  330MOL0     H45525   1.016   1.470   1.676  0.4743  0.1952 -0.7540
  330MOL0     H45526   1.562   1.485   1.777 -1.9389  0.8321 -1.5818
  330MOL0     H45527   1.637   1.381   1.964  0.5999  4.3451 -1.4360
  330MOL0     H45528   1.676   1.358   2.170 -1.9728  1.6891  3.3998
  330MOL0     H45529   1.639   1.269   2.316  1.8836  3.5980 -0.0903
  330MOL0     H45530   1.652   1.129   2.052 -0.7269  2.5955  0.2604
  330MOL0     H45531   1.669   1.054   2.211 -0.0021  2.3026  1.8311
  330MOL0     H45532   1.877   1.262   2.110  1.1120  0.2860  3.1307
  330MOL0     H45533   1.903   1.133   2.230  0.5827 -0.5248  0.5682
  330MOL0     H45534   1.877   0.970   2.047  1.9410 -1.3199 -0.9718
  330MOL0     H45535   2.023   1.074   2.061 -0.7007  0.5154  2.3282
  330MOL0     H45536   1.846   1.244   1.708  0.0215  0.8891  1.1723
  330MOL0     H45537   1.260   1.326   2.136  0.6258 -2.1087 -0.9229
  330MOL0     H45538   1.099   1.598   1.912 -0.4989  0.8472  1.1420
  330MOL0     H45539   1.054   1.429   1.918 -0.6702  1.7029 -0.2055
  330MOL0     H45540   1.096   1.513   2.066 -0.2421 -2.5493  0.6198
  331MOL0     O45541   9.439   4.841  11.360 -0.3868  0.1167 -0.7155
  331MOL0     C45542   9.470   4.820  11.478  0.0010 -0.7761  0.5080
  331MOL0     O45543   9.557   4.901  11.536 -0.0400  0.6539 -0.2150
  331MOL0     C45544   9.550   5.037  11.523 -0.1124  0.0775 -0.2693
  331MOL0     C45545   9.672   5.099  11.557 -0.9014  0.5716 -0.5796
  331MOL0     C45546   9.686   5.240  11.545  1.1376  0.1494  0.3360
  331MOL0     C45547   9.580   5.313  11.482  0.8094 -0.0605 -0.1557
  331MOL0     O45548   9.568   5.450  11.474 -1.0963 -0.3880  0.5877
  331MOL0     C45549   9.654   5.508  11.576  0.0178  0.3981 -0.5694
  331MOL0     C45550   9.614   5.648  11.597 -0.0734  0.0492  0.1375
  331MOL0     C45551   9.462   5.675  11.643 -0.7795  1.3201 -0.0679
  331MOL0     C45552   9.427   5.827  11.668  0.7070  0.9236  0.3512
  331MOL0     C45553   9.300   5.837  11.747 -0.1539  0.8247 -0.2150
  331MOL0     C45554   9.336   5.808  11.893  0.3867  1.1321 -0.3305
  331MOL0     C45555   9.208   5.785  11.981 -0.5332  0.0724  0.4665
  331MOL0     C45556   9.157   5.646  11.962 -0.0591  0.7837  0.1430
  331MOL0     N45557   9.018   5.626  11.995  0.1824 -0.0826  0.4229
  331MOL0     C45558   8.919   5.720  11.955 -0.3639 -0.6641  0.2932
  331MOL0     C45559   8.815   5.682  12.034  0.5885  0.4326 -0.2565
  331MOL0     C45560   8.681   5.749  12.020  0.3626 -0.2031  0.7369
  331MOL0     C45561   8.621   5.799  12.146  0.4932 -0.3494 -0.8124
  331MOL0     C45562   8.485   5.857  12.119 -0.1044  0.1865 -0.2122
  331MOL0     C45563   8.435   5.944  12.234 -0.7965 -0.7609 -0.4889
  331MOL0     O45564   8.294   5.961  12.214 -0.9713  0.4385 -0.3480
  331MOL0     C45565   8.209   5.856  12.231 -0.5727  1.2436  0.5452
  331MOL0     C45566   8.226   5.743  12.309  0.0047 -0.2314 -0.6723
  331MOL0     C45567   8.124   5.648  12.339 -0.4151  0.4873  0.0916
  331MOL0     C45568   8.174   5.532  12.422  0.8388  0.4872 -0.0788
  331MOL0     C45569   8.002   5.673  12.283  0.5611  0.3660  0.1611
  331MOL0     C45570   7.878   5.585  12.312 -0.4578 -0.8343  0.2338
  331MOL0     O45571   7.756   5.643  12.286 -0.0449 -0.0767 -0.2837
  331MOL0     C45572   7.633   5.594  12.343 -0.6440 -0.5888  0.6940
  331MOL0     C45573   7.526   5.601  12.262  0.0846  0.4847  0.3917
  331MOL0     C45574   7.396   5.551  12.300  0.0270  0.0900 -0.2938
  331MOL0     C45575   7.388   5.492  12.423  0.6420 -0.0238 -0.2302
  331MOL0     O45576   7.260   5.437  12.443  0.0916 -0.5362  0.0319
  331MOL0     C45577   7.252   5.300  12.472  0.0660 -1.2485  0.1852
  331MOL0     C45578   7.099   5.253  12.456 -1.4857 -0.5034 -0.4008
  331MOL0     C45579   7.079   5.223  12.308 -0.2578 -0.7078 -1.0442
  331MOL0     C45580   6.931   5.191  12.298  0.1608  1.4856 -0.2258
  331MOL0     C45581   6.895   5.128  12.162  0.2196 -0.0689 -0.5932
  331MOL0     C45582   6.759   5.045  12.161 -0.8070 -0.3799  0.0028
  331MOL0     C45583   6.734   4.989  12.019  0.9147 -1.2729  0.5947
  331MOL0     C45584   6.588   4.951  11.974 -0.1540 -0.3641  0.4421
  331MOL0    Cl45585   6.568   4.883  11.807  0.3002  0.1064  0.4689
  331MOL0     C45586   7.498   5.487  12.510  0.5709  0.5817 -1.3060
  331MOL0     C45587   7.618   5.543  12.468  0.3227  0.9690  0.2736
  331MOL0     O45588   7.895   5.476  12.356  0.1835  0.6615 -0.8374
  331MOL0     C45589   7.981   5.787  12.202  1.4253  0.4174 -0.4929
  331MOL0     C45590   8.085   5.869  12.177 -0.3124  0.4764 -0.0992
  331MOL0     N45591   8.855   5.565  12.102 -0.9977 -0.5665  0.1825
  331MOL0     N45592   8.978   5.535  12.090  0.1205 -0.9424 -0.6876
  331MOL0     C45593   9.468   5.248  11.431 -0.9323 -0.3734  0.3211
  331MOL0     C45594   9.456   5.111  11.452 -0.1625  0.6420  0.5531
  331MOL0     C45595   9.396   4.718  11.552 -0.6530 -0.1954 -0.1132
  331MOL0     C45596   9.410   4.717  11.690  0.6662  0.4004 -0.3946
  331MOL0     C45597   9.370   4.625  11.774 -1.0322 -0.1176  0.2551
  331MOL0     C45598   9.297   4.516  11.724  0.3094  0.2125  0.6977
  331MOL0     O45599   9.254   4.409  11.797 -0.5745  0.3498 -0.4728
  331MOL0     C45600   9.345   4.345  11.887 -0.2427  1.0298  0.0492
  331MOL0     C45601   9.328   4.191  11.897  0.7976  0.0840 -0.5550
  331MOL0     C45602   9.176   4.153  11.934  0.5868  0.1709  0.0303
  331MOL0     C45603   9.108   4.082  11.819  0.4606  0.1069  0.0619
  331MOL0     C45604   8.965   4.038  11.847  0.3645 -0.9036  1.3367
  331MOL0     C45605   8.842   4.007  11.857  0.2798 -1.3772 -0.3853
  331MOL0     C45606   9.270   4.511  11.590 -0.2312 -0.0569 -1.2218
  331MOL0     C45607   9.313   4.614  11.501  0.3696  0.3499 -0.1192
  331MOL0     C45608   9.299   4.582  11.357  1.3512 -0.8169 -0.3716
  331MOL0     H45609   9.762   5.043  11.582 -1.2538  0.4137  0.3824
  331MOL0     H45610   9.770   5.289  11.593 -1.1092  4.0182  0.7186
  331MOL0     H45611   9.761   5.491  11.556 -0.4357 -3.6614 -0.4423
  331MOL0     H45612   9.637   5.453  11.669  1.3982 -2.8172 -2.0234
  331MOL0     H45613   9.681   5.691  11.672  0.7790 -0.2478 -0.4397
  331MOL0     H45614   9.630   5.700  11.503  1.7001 -1.0395 -0.2038
  331MOL0     H45615   9.399   5.645  11.558  0.7762  0.7356 -1.0757
  331MOL0     H45616   9.456   5.614  11.733  1.2925  1.8064  0.4550
  331MOL0     H45617   9.509   5.879  11.719  0.9835 -0.1336  1.0271
  331MOL0     H45618   9.411   5.867  11.567 -0.1677 -0.2609  0.0026
  331MOL0     H45619   9.219   5.775  11.707 -0.5624 -0.0679  1.8741
  331MOL0     H45620   9.266   5.941  11.739 -2.2811  0.3426  1.6310
  331MOL0     H45621   9.403   5.722  11.891  2.0355  2.3703 -0.7250
  331MOL0     H45622   9.400   5.885  11.938 -1.7525  1.5705  2.2116
  331MOL0     H45623   9.136   5.863  11.953  2.0300  2.5317  0.2643
  331MOL0     H45624   9.255   5.795  12.079 -0.2925 -2.2069  0.6409
  331MOL0     H45625   9.174   5.629  11.856  0.9150  0.2856  0.3646
  331MOL0     H45626   9.225   5.575  12.011  2.6733  2.3936 -1.1059
  331MOL0     H45627   8.914   5.797  11.878 -2.2665 -2.1113 -1.1249
  331MOL0     H45628   8.623   5.669  11.974  1.1625  0.5442 -1.7367
  331MOL0     H45629   8.703   5.826  11.944  1.9106 -1.3453 -0.0351
  331MOL0     H45630   8.612   5.720  12.221  1.6498  0.5734  0.3555
  331MOL0     H45631   8.692   5.879  12.170  0.9746 -1.4081  1.5713
  331MOL0     H45632   8.496   5.894  12.016  1.0841 -2.5477 -1.1695
  331MOL0     H45633   8.407   5.780  12.116 -1.0449  1.0434  1.2776
  331MOL0     H45634   8.451   5.898  12.332  0.0087  0.0374 -0.2212
  331MOL0     H45635   8.487   6.041  12.243 -3.4801  0.6530  0.8662
  331MOL0     H45636   8.323   5.725  12.355 -1.3445 -0.7792  2.1135
  331MOL0     H45637   8.095   5.485  12.481 -0.0205  0.5456 -1.1509
  331MOL0     H45638   8.250   5.561  12.495  0.5749  0.2606  0.2880
  331MOL0     H45639   8.211   5.449  12.361  0.7204  1.2718 -1.2455
  331MOL0     H45640   7.536   5.632  12.159 -0.7136 -0.2243  0.0852
  331MOL0     H45641   7.313   5.548  12.230 -0.9272  1.4010  0.7292
  331MOL0     H45642   7.319   5.255  12.398 -0.2645 -0.2173 -0.7789
  331MOL0     H45643   7.287   5.285  12.574 -1.8250  0.9090  1.2474
  331MOL0     H45644   7.084   5.158  12.507  1.6447  0.4038  2.5974
  331MOL0     H45645   7.047   5.338  12.500  1.4778  0.0445  2.4496
  331MOL0     H45646   7.152   5.147  12.279  1.6930 -0.6017  2.9403
  331MOL0     H45647   7.096   5.314  12.251  2.2740 -0.1381  0.4736
  331MOL0     H45648   6.856   5.265  12.326  1.1978  2.3797  0.2570
  331MOL0     H45649   6.912   5.113  12.372 -0.4102 -0.2593 -2.1113
  331MOL0     H45650   6.891   5.214  12.094  1.8888  0.1969 -0.3988
  331MOL0     H45651   6.979   5.064  12.132  1.7837  1.0981  1.0421
  331MOL0     H45652   6.676   5.104  12.200 -1.9786  0.2694 -3.1521
  331MOL0     H45653   6.772   4.963  12.232 -0.1450 -0.5083 -0.2629
  331MOL0     H45654   6.802   4.904  12.021  1.5975 -0.7751  3.8144
  331MOL0     H45655   6.779   5.062  11.951  0.4966 -0.3173  1.3139
  331MOL0     H45656   6.524   5.038  11.989 -1.7091 -0.9057 -2.2958
  331MOL0     H45657   6.557   4.879  12.050  0.0031 -1.6533 -0.6742
  331MOL0     H45658   7.497   5.440  12.607 -0.0860  0.3367 -1.4266
  331MOL0     H45659   7.698   5.551  12.540 -1.6176 -2.2029  3.0508
  331MOL0     H45660   7.887   5.819  12.158  1.6218 -0.1746 -1.3513
  331MOL0     H45661   8.079   5.964  12.125 -0.3360  0.5135 -0.0283
  331MOL0     H45662   9.391   5.280  11.362 -1.8935 -2.8483  0.1607
  331MOL0     H45663   9.365   5.068  11.409  2.2313 -2.1047 -2.2673
  331MOL0     H45664   9.474   4.795  11.733 -0.5554  1.7239 -0.8916
  331MOL0     H45665   9.388   4.651  11.878  0.4526 -0.6485  0.1563
  331MOL0     H45666   9.450   4.356  11.858 -0.0097 -3.4399 -1.5825
  331MOL0     H45667   9.326   4.386  11.987  1.3897  1.3995  0.2322
  331MOL0     H45668   9.384   4.149  11.982 -1.7941 -3.6277 -0.4526
  331MOL0     H45669   9.363   4.147  11.803  1.2719  0.4037 -0.5329
  331MOL0     H45670   9.160   4.105  12.031  1.0412 -4.4794 -1.9389
  331MOL0     H45671   9.126   4.251  11.934 -0.1502 -0.2014  0.1351
  331MOL0     H45672   9.162   3.988  11.800  1.0809 -0.1184  2.5107
  331MOL0     H45673   9.109   4.157  11.739 -0.8922  5.7326  4.6709
  331MOL0     H45674   8.736   4.002  11.868 -0.1468  2.8955 -0.9296
  331MOL0     H45675   9.226   4.420  11.550 -0.3054 -0.8221  0.5082
  331MOL0     H45676   9.276   4.479  11.331  0.0280 -0.4160 -0.8528
  331MOL0     H45677   9.230   4.647  11.304  1.0457  0.7048  1.7489
  331MOL0     H45678   9.393   4.599  11.303  4.0565 -1.4540  3.6373
  332MOL0     O45679   9.376   7.980   2.904  0.1402 -0.0248  0.0546
  332MOL0     C45680   9.259   7.938   2.930 -0.4209 -0.4219 -0.0750
  332MOL0     O45681   9.183   7.975   3.032  0.7668 -0.2918 -0.0392
  332MOL0     C45682   9.222   8.098   3.084  0.1886 -0.0889 -0.2295
  332MOL0     C45683   9.273   8.105   3.211 -0.2700 -0.9285  0.0544
  332MOL0     C45684   9.325   8.227   3.258  0.2107  0.7900 -0.7075
  332MOL0     C45685   9.308   8.342   3.185  0.1215  0.7822  0.0047
  332MOL0     O45686   9.351   8.465   3.227  0.1037  0.1198 -0.1698
  332MOL0     C45687   9.478   8.449   3.293 -0.5137  0.2330 -0.1955
  332MOL0     C45688   9.548   8.580   3.262 -0.1973  0.7853  0.4670
  332MOL0     C45689   9.666   8.598   3.353 -0.9217  0.7872 -0.3048
  332MOL0     C45690   9.813   8.545   3.316  0.1974 -0.0879 -0.1745
  332MOL0     C45691   9.908   8.513   3.430 -0.8758  0.8691  0.4630
  332MOL0     C45692   9.868   8.393   3.521 -0.1332  0.8668  0.5568
  332MOL0     C45693   9.800   8.270   3.449 -0.5932  0.0492 -0.5558
  332MOL0     C45694   9.734   8.161   3.535  0.8533  0.1056 -0.4929
  332MOL0     N45695   9.717   8.030   3.467  0.2430 -0.7784 -0.5009
  332MOL0     C45696   9.682   8.009   3.332  0.4851  1.1970 -0.3242
  332MOL0     C45697   9.702   7.873   3.306  0.6115  0.1114 -1.0246
  332MOL0     C45698   9.676   7.797   3.171 -0.3273 -0.1181 -1.1262
  332MOL0     C45699   9.799   7.779   3.080  0.4182  0.6923  0.4951
  332MOL0     C45700   9.934   7.719   3.143  0.7896 -1.2685  0.2208
  332MOL0     C45701  10.009   7.823   3.226 -0.7307 -0.6553 -1.1458
  332MOL0     O45702  10.154   7.782   3.212 -1.0561  0.6436  0.0971
  332MOL0     C45703  10.203   7.686   3.302 -0.9817  0.3737  0.5938
  332MOL0     C45704  10.137   7.622   3.415  0.0905 -0.7490 -0.9483
  332MOL0     C45705  10.204   7.535   3.504 -0.3998 -1.1961 -0.0037
  332MOL0     C45706  10.126   7.510   3.621  0.9877 -0.7771 -0.7234
  332MOL0     C45707  10.334   7.487   3.474 -0.5222  0.5045  0.3966
  332MOL0     C45708  10.394   7.369   3.539  0.3763  0.2548  0.3591
  332MOL0     O45709  10.519   7.333   3.501  0.2563  0.0102  0.9193
  332MOL0     C45710  10.591   7.240   3.568  0.1500 -0.0853  0.0187
  332MOL0     C45711  10.555   7.169   3.686  0.0409 -0.3013  0.5054
  332MOL0     C45712  10.634   7.070   3.742 -0.0622  0.1284 -0.4136
  332MOL0     C45713  10.745   7.019   3.674  0.2734 -0.2358  0.7300
  332MOL0     O45714  10.801   6.899   3.709  0.3498 -0.2838 -0.3538
  332MOL0     C45715  10.813   6.888   3.854  0.1583 -0.3992 -0.2416
  332MOL0     C45716  10.911   6.772   3.883  0.1870 -0.7522  0.6409
  332MOL0     C45717  10.909   6.752   4.033  0.4246 -0.1451 -0.5478
  332MOL0     C45718  11.028   6.662   4.081  0.5722  0.1339  0.5180
  332MOL0     C45719  11.086   6.712   4.209  0.1724  0.0151 -0.0542
  332MOL0     C45720  11.202   6.623   4.254  1.0232  0.8713 -0.7963
  332MOL0     C45721  11.271   6.689   4.377 -1.0314  0.1000 -0.2045
  332MOL0     C45722  11.206   6.655   4.508 -0.8647 -1.3562  0.2741
  332MOL0    Cl45723  11.229   6.481   4.537  0.1443 -0.5372  0.1160
  332MOL0     C45724  10.780   7.083   3.558 -0.5315  0.1252  0.0266
  332MOL0     C45725  10.712   7.198   3.513  0.8488 -0.6081  0.9766
  332MOL0     O45726  10.325   7.304   3.617  0.8983 -0.7693  0.5570
  332MOL0     C45727  10.393   7.530   3.349  0.0361 -0.4881 -0.4067
  332MOL0     C45728  10.326   7.623   3.264  0.1287 -0.6686  0.1866
  332MOL0     N45729   9.739   7.817   3.426 -0.1225  0.2587  0.3107
  332MOL0     N45730   9.750   7.909   3.513 -0.0865 -0.0455 -0.3088
  332MOL0     C45731   9.231   8.342   3.067  0.1360 -0.3138  0.0526
  332MOL0     C45732   9.203   8.215   3.006 -0.0421  0.4443  0.3186
  332MOL0     C45733   9.213   7.815   2.862  1.6990  0.0160 -0.5350
  332MOL0     C45734   9.076   7.764   2.878 -0.1151 -0.2214  0.7722
  332MOL0     C45735   9.037   7.639   2.827 -0.3922  0.3693  0.1583
  332MOL0     C45736   9.130   7.549   2.781  0.4772  0.1808  0.7288
  332MOL0     O45737   9.089   7.423   2.734 -0.0798 -0.7479  0.1875
  332MOL0     C45738   9.070   7.413   2.589 -0.1344 -0.5717  0.3834
  332MOL0     C45739   8.941   7.474   2.549 -0.4244  0.1684  1.1701
  332MOL0     C45740   8.810   7.411   2.607 -0.6761  0.4120 -0.1399
  332MOL0     C45741   8.810   7.256   2.598 -0.7161 -0.1590  0.9113
  332MOL0     C45742   8.803   7.230   2.455 -0.2808  0.6261  1.0950
  332MOL0     C45743   8.796   7.213   2.338  0.6752 -1.3588  0.4138
  332MOL0     C45744   9.253   7.603   2.747  0.6345 -0.2086  0.0584
  332MOL0     C45745   9.296   7.728   2.780 -0.1417  0.6820  0.0312
  332MOL0     C45746   9.446   7.746   2.753 -0.2585  0.7246 -0.2442
  332MOL0     H45747   9.291   8.013   3.265  2.2456  0.6491  2.1622
  332MOL0     H45748   9.373   8.226   3.356  1.5832  2.7478 -1.3021
  332MOL0     H45749   9.544   8.374   3.249 -0.1319  1.2539 -1.4050
  332MOL0     H45750   9.469   8.432   3.401  2.0446 -1.0909 -0.1096
  332MOL0     H45751   9.583   8.567   3.159 -1.3212  0.0955  0.1579
  332MOL0     H45752   9.487   8.670   3.259 -0.3116  0.7365 -2.8754
  332MOL0     H45753   9.682   8.702   3.383  1.5273  0.5214 -0.4332
  332MOL0     H45754   9.642   8.556   3.451 -1.1068  3.7724  1.0261
  332MOL0     H45755   9.799   8.461   3.247 -2.2903 -0.0673  0.2257
  332MOL0     H45756   9.856   8.627   3.257  0.3190  2.1336  2.7651
  332MOL0     H45757   9.937   8.598   3.493 -0.7248  0.4571  0.9586
  332MOL0     H45758  10.002   8.498   3.376 -0.3429 -0.9714  1.7989
  332MOL0     H45759   9.951   8.365   3.586 -0.0525 -0.2997 -0.0163
  332MOL0     H45760   9.794   8.431   3.592  1.6550  2.8174  1.4924
  332MOL0     H45761   9.875   8.224   3.383 -0.8608 -0.1891 -0.6959
  332MOL0     H45762   9.717   8.309   3.390 -0.6455 -0.3538 -0.7489
  332MOL0     H45763   9.793   8.145   3.625  0.3655 -1.4957 -0.4261
  332MOL0     H45764   9.634   8.198   3.559  2.2168  1.8858  3.1730
  332MOL0     H45765   9.660   8.089   3.261  1.6570  1.5312 -0.3243
  332MOL0     H45766   9.603   7.865   3.125  0.4222  2.4719  1.2491
  332MOL0     H45767   9.639   7.695   3.186 -0.8701  0.4684  2.3087
  332MOL0     H45768   9.755   7.710   3.007 -1.6712 -0.3327  2.5839
  332MOL0     H45769   9.814   7.878   3.037 -2.4414  0.4862 -1.2161
  332MOL0     H45770   9.907   7.636   3.209  1.2336 -4.8713 -3.6382
  332MOL0     H45771   9.999   7.679   3.064  1.8514  1.2165 -0.2387
  332MOL0     H45772  10.011   7.919   3.172 -0.7922  0.9073  1.4707
  332MOL0     H45773   9.985   7.821   3.333  2.8070 -1.8731 -0.2503
  332MOL0     H45774  10.049   7.669   3.458  3.2613  1.5003  4.1032
  332MOL0     H45775  10.196   7.508   3.705  1.2968 -0.0106 -0.9518
  332MOL0     H45776  10.057   7.425   3.616 -1.2214  0.8725 -0.1586
  332MOL0     H45777  10.064   7.597   3.647 -1.4298 -2.1239 -1.5947
  332MOL0     H45778  10.465   7.180   3.746 -0.2057  1.2686 -0.1239
  332MOL0     H45779  10.599   7.022   3.833 -1.1743 -1.6935 -1.7303
  332MOL0     H45780  10.862   6.977   3.897  0.1053 -0.8963  0.8804
  332MOL0     H45781  10.719   6.876   3.908  1.8692  2.5665  4.0228
  332MOL0     H45782  10.878   6.680   3.833 -1.6206  0.9049 -1.4587
  332MOL0     H45783  11.008   6.800   3.841 -0.4326 -0.2066 -0.4595
  332MOL0     H45784  10.813   6.707   4.060  0.3810 -0.3462 -1.0408
  332MOL0     H45785  10.917   6.846   4.088 -2.7195  0.2249 -0.5311
  332MOL0     H45786  11.102   6.667   4.002  0.0096 -0.8525 -0.0900
  332MOL0     H45787  11.001   6.556   4.089 -0.2859  0.4099  1.4777
  332MOL0     H45788  11.120   6.814   4.187 -3.2116  1.0973 -0.7632
  332MOL0     H45789  11.002   6.729   4.276  1.1923  1.9156  0.8141
  332MOL0     H45790  11.273   6.608   4.172 -3.1143 -2.5206 -4.2500
  332MOL0     H45791  11.167   6.523   4.279  0.2886  1.2181 -0.3946
  332MOL0     H45792  11.287   6.796   4.363 -2.9260  0.4254 -0.1477
  332MOL0     H45793  11.374   6.652   4.378 -0.2299  1.8103 -4.0434
  332MOL0     H45794  11.101   6.682   4.496 -0.3429 -0.1830 -2.0601
  332MOL0     H45795  11.266   6.716   4.577  0.4808 -2.9941  0.6247
  332MOL0     H45796  10.865   7.054   3.497 -0.5638 -2.5066  1.1255
  332MOL0     H45797  10.723   7.245   3.416  1.8612  1.9590  2.2574
  332MOL0     H45798  10.476   7.479   3.303  3.1007  2.0590  1.8747
  332MOL0     H45799  10.368   7.644   3.167  1.0218  1.0114  0.8901
  332MOL0     H45800   9.204   8.439   3.026 -1.3458 -1.0008 -0.7049
  332MOL0     H45801   9.164   8.218   2.905 -3.5604 -0.7996  1.4908
  332MOL0     H45802   8.990   7.807   2.928 -0.8110 -1.5164  0.7122
  332MOL0     H45803   8.937   7.605   2.852  0.2311 -0.0922  2.2846
  332MOL0     H45804   9.155   7.466   2.545 -0.9838 -0.2936 -0.9917
  332MOL0     H45805   9.071   7.311   2.552 -2.0601 -0.4480 -0.0943
  332MOL0     H45806   8.914   7.486   2.444 -4.8100  3.1594  2.3602
  332MOL0     H45807   8.944   7.577   2.587 -3.7639  0.6380  0.4138
  332MOL0     H45808   8.801   7.443   2.712 -2.6361 -1.0096  0.1824
  332MOL0     H45809   8.719   7.448   2.559 -0.5195  2.3083  0.9064
  332MOL0     H45810   8.722   7.212   2.645 -0.3779 -1.4342  0.3857
  332MOL0     H45811   8.896   7.205   2.642 -1.3705 -1.9202  0.2338
  332MOL0     H45812   8.799   7.202   2.232  0.3918  2.7679 -0.1938
  332MOL0     H45813   9.326   7.536   2.702  0.1399 -1.7813  1.5084
  332MOL0     H45814   9.477   7.680   2.671 -0.9256 -0.4718  0.4395
  332MOL0     H45815   9.476   7.843   2.711  1.5410 -0.1761 -1.1817
  332MOL0     H45816   9.500   7.728   2.847 -3.5788 -1.8267  1.3820
  333MOL0     O45817   5.082  10.716   8.878  0.1389  0.6537  0.4813
  333MOL0     C45818   4.964  10.681   8.854 -0.1686 -0.0484  0.1933
  333MOL0     O45819   4.858  10.749   8.907  0.1604  0.2625 -0.2964
  333MOL0     C45820   4.897  10.845   8.992  0.4187 -0.2361 -0.6401
  333MOL0     C45821   4.917  10.975   8.942  0.1840  0.2693  1.2549
  333MOL0     C45822   4.901  11.084   9.032 -0.1176 -0.0376  0.9029
  333MOL0     C45823   4.890  11.066   9.172 -0.4660  0.3943  0.0707
  333MOL0     O45824   4.875  11.180   9.250 -0.2859 -0.5150  0.8062
  333MOL0     C45825   4.999  11.238   9.289  0.1873 -0.6197 -0.4760
  333MOL0     C45826   4.971  11.383   9.325 -0.0465  0.1697  0.4305
  333MOL0     C45827   5.101  11.435   9.399 -0.6578  0.0672  0.1750
  333MOL0     C45828   5.074  11.575   9.455  1.1760  0.4713  0.1079
  333MOL0     C45829   4.993  11.554   9.582  0.0306  0.1419 -0.6989
  333MOL0     C45830   4.916  11.681   9.628 -0.0356  0.3844  0.1097
  333MOL0     C45831   4.854  11.662   9.769 -0.3259  0.6078 -0.5104
  333MOL0     C45832   4.765  11.782   9.814 -0.5588 -0.7713 -0.1003
  333MOL0     N45833   4.661  11.806   9.713 -0.8315  0.4500 -0.0346
  333MOL0     C45834   4.562  11.721   9.670 -0.7490 -0.1300 -0.0769
  333MOL0     C45835   4.499  11.778   9.566 -0.7364 -0.8688  0.5348
  333MOL0     C45836   4.391  11.705   9.499  0.1532 -0.0583 -0.7625
  333MOL0     C45837   4.416  11.696   9.351  0.0984  0.4535 -0.0957
  333MOL0     C45838   4.284  11.654   9.276  0.5767 -0.1521 -0.8137
  333MOL0     C45839   4.242  11.508   9.295  0.1546  0.2394 -0.7777
  333MOL0     O45840   4.108  11.479   9.261 -0.1232  0.4962 -0.4583
  333MOL0     C45841   4.076  11.359   9.190  0.3839 -0.3165 -0.6416
  333MOL0     C45842   3.998  11.352   9.074  0.4069 -0.5379 -0.6720
  333MOL0     C45843   3.963  11.234   9.009 -0.3668  0.0114 -0.1438
  333MOL0     C45844   3.865  11.252   8.896  0.0805 -0.3253  0.1280
  333MOL0     C45845   4.008  11.110   9.064  0.0224 -0.0862  0.1118
  333MOL0     C45846   3.968  10.975   9.016  0.2085 -1.0001  0.6787
  333MOL0     O45847   3.959  10.872   9.114  0.4562 -0.0967 -0.8053
  333MOL0     C45848   3.942  10.742   9.050 -0.5993  0.2133  0.0059
  333MOL0     C45849   3.829  10.659   9.077  0.4495  0.7812  0.0295
  333MOL0     C45850   3.819  10.543   8.999  1.5824  0.5479  0.4886
  333MOL0     C45851   3.911  10.503   8.903  0.9818  0.1270 -0.1252
  333MOL0     O45852   3.870  10.395   8.829 -0.5673 -0.2098  0.2031
  333MOL0     C45853   3.963  10.325   8.744  0.8499 -0.1015  0.2621
  333MOL0     C45854   3.884  10.187   8.722 -0.1058 -0.5522 -0.4281
  333MOL0     C45855   3.765  10.193   8.634  0.5165  1.1065 -0.0296
  333MOL0     C45856   3.641  10.247   8.710  0.5738  0.0596  1.0043
  333MOL0     C45857   3.526  10.306   8.642  1.5301 -0.8241  0.0959
  333MOL0     C45858   3.487  10.241   8.512 -0.5081  0.9540 -0.3159
  333MOL0     C45859   3.350  10.283   8.466  0.1800  0.0816 -0.6125
  333MOL0     C45860   3.245  10.201   8.523  0.6231  0.2804 -0.5591
  333MOL0    Cl45861   3.075  10.261   8.478  0.5387 -0.4525 -0.1054
  333MOL0     C45862   4.012  10.584   8.869  0.2248  0.1918 -0.6579
  333MOL0     C45863   4.030  10.704   8.946 -0.0886  0.0434 -0.7869
  333MOL0     O45864   3.933  10.962   8.897 -0.5876 -0.9545 -0.3063
  333MOL0     C45865   4.081  11.111   9.181 -0.4349  0.0004 -0.3499
  333MOL0     C45866   4.127  11.233   9.241  0.1680 -0.5452  0.2836
  333MOL0     N45867   4.557  11.902   9.540 -0.2658  0.0442 -0.8251
  333MOL0     N45868   4.661  11.906   9.621  0.0524 -0.1092  0.5425
  333MOL0     C45869   4.887  10.932   9.217  0.0055 -0.4804  0.2178
  333MOL0     C45870   4.885  10.828   9.128 -0.1716 -0.9672 -0.1414
  333MOL0     C45871   4.932  10.571   8.766  0.0393 -0.3247  0.2931
  333MOL0     C45872   4.797  10.531   8.777  0.1362  0.6048 -0.0204
  333MOL0     C45873   4.742  10.446   8.686  0.6409  0.3681 -0.0105
  333MOL0     C45874   4.813  10.382   8.581 -0.8055  0.7296  0.4785
  333MOL0     O45875   4.757  10.307   8.480  0.2197  0.8271  0.8438
  333MOL0     C45876   4.646  10.217   8.520  0.6068  0.6364  1.2385
  333MOL0     C45877   4.677  10.110   8.633  0.2872 -0.6892 -0.1023
  333MOL0     C45878   4.552  10.024   8.655 -0.6555 -0.0620 -0.6044
  333MOL0     C45879   4.426  10.115   8.685  0.0580  0.0126 -0.2336
  333MOL0     C45880   4.441  10.185   8.816  0.1249 -0.9214 -0.3306
  333MOL0     C45881   4.441  10.242   8.929  0.9163  0.5094 -0.0396
  333MOL0     C45882   4.951  10.408   8.586  0.8255 -0.3947  0.0408
  333MOL0     C45883   5.010  10.495   8.676  0.3201 -1.2286 -0.7170
  333MOL0     C45884   5.160  10.501   8.678 -0.2805  0.4486  0.2393
  333MOL0     H45885   4.917  10.986   8.833  1.0414 -0.4073  1.1796
  333MOL0     H45886   4.886  11.188   9.005 -0.8368  0.1275  1.8672
  333MOL0     H45887   5.072  11.234   9.208 -0.0272  2.9304 -1.0120
  333MOL0     H45888   5.030  11.189   9.382 -0.2545  4.5352  2.8157
  333MOL0     H45889   4.959  11.437   9.230  0.4164  1.0181  0.8405
  333MOL0     H45890   4.878  11.386   9.383 -0.9935 -0.8572 -0.9615
  333MOL0     H45891   5.131  11.372   9.483  0.9733 -0.3121 -0.6522
  333MOL0     H45892   5.191  11.439   9.338 -1.0617  1.1546 -0.3741
  333MOL0     H45893   5.168  11.618   9.489 -1.9776  4.8085  4.8740
  333MOL0     H45894   5.017  11.639   9.388  0.9908 -1.4523 -1.6847
  333MOL0     H45895   5.062  11.510   9.655 -1.2485 -1.3272 -0.3197
  333MOL0     H45896   4.910  11.483   9.574 -0.6257  0.8182 -0.1506
  333MOL0     H45897   4.993  11.758   9.632  1.6924 -1.3181  1.6263
  333MOL0     H45898   4.833  11.707   9.562  2.3896  0.9823 -2.9218
  333MOL0     H45899   4.933  11.663   9.845 -1.8453 -0.2284  1.1754
  333MOL0     H45900   4.783  11.579   9.777 -1.9930  2.0976  0.9915
  333MOL0     H45901   4.721  11.769   9.913  2.2246 -2.5249  1.0216
  333MOL0     H45902   4.822  11.874   9.804 -0.5043 -0.7376  0.5157
  333MOL0     H45903   4.541  11.619   9.702 -3.9716 -0.2060 -2.0710
  333MOL0     H45904   4.299  11.759   9.523  0.5144  0.9165 -1.5300
  333MOL0     H45905   4.380  11.602   9.533  1.8699 -0.8204 -2.3680
  333MOL0     H45906   4.457  11.791   9.316 -0.3899  0.8259  0.3412
  333MOL0     H45907   4.489  11.617   9.331 -1.8612 -1.0329 -1.9032
  333MOL0     H45908   4.206  11.716   9.322  0.2537 -2.4847  2.1096
  333MOL0     H45909   4.287  11.671   9.168  3.2562 -0.1333 -0.7999
  333MOL0     H45910   4.306  11.446   9.232  0.1929 -2.6681  1.9007
  333MOL0     H45911   4.247  11.482   9.402 -3.3226 -1.5110 -0.9232
  333MOL0     H45912   3.955  11.444   9.035 -1.6231 -0.4788  1.4937
  333MOL0     H45913   3.762  11.232   8.929 -0.0034  1.9125  1.4457
  333MOL0     H45914   3.896  11.206   8.802  3.1531  1.2399  0.2618
  333MOL0     H45915   3.871  11.358   8.871  4.5413 -0.4064  0.1688
  333MOL0     H45916   3.752  10.686   9.148 -0.4331 -1.0625 -0.1692
  333MOL0     H45917   3.727  10.486   9.002  2.9908 -2.2101 -2.3508
  333MOL0     H45918   3.966  10.389   8.656 -2.1475  0.1747  0.2476
  333MOL0     H45919   4.063  10.301   8.782  0.6605  0.4591  1.1304
  333MOL0     H45920   3.950  10.115   8.673 -0.6690 -0.6158 -1.0944
  333MOL0     H45921   3.846  10.156   8.820  1.7209 -0.5767  0.3167
  333MOL0     H45922   3.739  10.095   8.593  1.2740  0.9009 -0.0214
  333MOL0     H45923   3.792  10.257   8.550  0.4159  1.2406  0.0395
  333MOL0     H45924   3.658  10.328   8.781 -0.3216  2.1611 -1.0378
  333MOL0     H45925   3.598  10.162   8.763 -0.1649  0.6444  1.3596
  333MOL0     H45926   3.436  10.319   8.703 -0.1552  1.2790 -2.6275
  333MOL0     H45927   3.563  10.408   8.631  2.6167 -1.0472  1.4739
  333MOL0     H45928   3.493  10.132   8.517 -5.0276  0.5341  0.0424
  333MOL0     H45929   3.553  10.282   8.436 -0.3479 -1.6181 -1.6696
  333MOL0     H45930   3.330  10.277   8.358 -3.6883 -1.2972  0.0297
  333MOL0     H45931   3.343  10.387   8.499 -0.2262 -0.8348  2.5108
  333MOL0     H45932   3.268  10.195   8.630  0.7504 -3.0856 -0.6734
  333MOL0     H45933   3.245  10.102   8.477 -0.2927 -0.3512  0.7225
  333MOL0     H45934   4.069  10.539   8.789 -3.0159 -5.6913 -0.2198
  333MOL0     H45935   4.110  10.776   8.929 -0.5419  0.5162 -0.9380
  333MOL0     H45936   4.105  11.024   9.241  1.6728  0.4529 -0.4596
  333MOL0     H45937   4.197  11.235   9.323 -0.7506  1.6509  1.0905
  333MOL0     H45938   4.894  10.921   9.324  0.7459 -1.2002  0.1029
  333MOL0     H45939   4.885  10.731   9.177  4.1777 -0.0536  2.1434
  333MOL0     H45940   4.725  10.585   8.839 -1.8422 -0.8536 -0.9363
  333MOL0     H45941   4.634  10.441   8.690  0.6336 -0.5642 -0.8915
  333MOL0     H45942   4.563  10.280   8.554  0.3082 -0.3900  2.4818
  333MOL0     H45943   4.618  10.158   8.433 -3.1586  3.0617  0.5677
  333MOL0     H45944   4.699  10.159   8.729  1.0603  0.3901 -0.8160
  333MOL0     H45945   4.756  10.048   8.591 -2.7166 -4.4289 -0.7701
  333MOL0     H45946   4.540   9.957   8.569  1.1937  0.6952 -1.5198
  333MOL0     H45947   4.565   9.966   8.747 -2.4365 -0.8439 -0.7991
  333MOL0     H45948   4.345  10.045   8.706 -1.0218  1.2731 -0.0856
  333MOL0     H45949   4.377  10.173   8.606 -2.7013 -0.4421  1.0297
  333MOL0     H45950   4.431  10.289   9.024  0.5543 -0.5981  0.4940
  333MOL0     H45951   5.016  10.344   8.526  0.1578 -1.0696  0.0103
  333MOL0     H45952   5.205  10.411   8.636  0.0030  1.0458 -0.7692
  333MOL0     H45953   5.207  10.589   8.634  2.4793 -1.7650 -1.6654
  333MOL0     H45954   5.185  10.482   8.783 -0.6885 -1.7752 -0.0123
  334MOL0     O45955   3.732   5.966  11.538 -0.9287 -0.0797  0.0873
  334MOL0     C45956   3.828   5.943  11.608 -0.6951  0.8798  0.3004
  334MOL0     O45957   3.920   6.035  11.646 -0.3012 -0.2709 -0.8769
  334MOL0     C45958   3.896   6.176  11.663 -0.4338 -0.0816  0.9247
  334MOL0     C45959   4.001   6.266  11.660  0.2449 -0.5400  0.5063
  334MOL0     C45960   3.985   6.406  11.677  0.7070  0.4755  1.0650
  334MOL0     C45961   3.859   6.463  11.691  0.0962  0.9539  0.5269
  334MOL0     O45962   3.826   6.585  11.740  0.5641  0.7118 -0.0521
  334MOL0     C45963   3.910   6.693  11.679 -0.1685 -0.1401 -0.2202
  334MOL0     C45964   3.824   6.819  11.722  0.9330 -0.2708 -0.1565
  334MOL0     C45965   3.694   6.827  11.645 -0.2924  0.0262  1.0095
  334MOL0     C45966   3.605   6.942  11.690 -0.6725 -0.3909  0.0320
  334MOL0     C45967   3.465   6.932  11.627 -0.8499  0.6207 -0.3514
  334MOL0     C45968   3.374   6.819  11.690 -0.3077 -0.3893 -0.2657
  334MOL0     C45969   3.262   6.780  11.589 -0.6829  0.3673 -1.3226
  334MOL0     C45970   3.169   6.673  11.653  0.9316  0.6095 -0.2443
  334MOL0     N45971   3.041   6.734  11.700  0.0423 -0.1897  0.0315
  334MOL0     C45972   2.919   6.723  11.639  0.2185  0.1935 -0.1197
  334MOL0     C45973   2.841   6.806  11.703 -0.0986 -0.8900 -0.4212
  334MOL0     C45974   2.686   6.812  11.672 -0.2109 -0.2096  0.4123
  334MOL0     C45975   2.631   6.944  11.715  0.8147 -1.1866 -0.8993
  334MOL0     C45976   2.480   6.976  11.679 -0.0103  0.2065  0.6049
  334MOL0     C45977   2.451   7.103  11.602  0.3864 -0.3726  0.6432
  334MOL0     O45978   2.496   7.119  11.467  0.8643 -0.0155  0.3062
  334MOL0     C45979   2.435   7.223  11.402  0.1391 -0.0345  0.2206
  334MOL0     C45980   2.373   7.340  11.457 -0.4378 -0.1625 -0.7407
  334MOL0     C45981   2.295   7.431  11.382  0.0954 -0.2247 -0.6071
  334MOL0     C45982   2.222   7.543  11.451  0.0474 -0.1307 -0.1957
  334MOL0     C45983   2.289   7.404  11.247 -0.3416 -0.6024 -0.6535
  334MOL0     C45984   2.221   7.495  11.155  0.3347 -0.4748 -0.0221
  334MOL0     O45985   2.098   7.556  11.189 -0.1283 -0.1935 -0.7399
  334MOL0     C45986   2.021   7.627  11.101  0.4464 -0.7532  0.8940
  334MOL0     C45987   2.071   7.720  11.007 -0.5666  0.0466  0.4025
  334MOL0     C45988   1.991   7.813  10.938  0.2932 -0.1392  0.8031
  334MOL0     C45989   1.851   7.809  10.961 -0.6388 -1.3613  0.4538
  334MOL0     O45990   1.776   7.884  10.884  0.6093 -0.6726  0.4171
  334MOL0     C45991   1.828   7.912  10.746  0.6159 -0.6922  0.3995
  334MOL0     C45992   1.717   7.941  10.650  0.5150 -0.3629 -0.3356
  334MOL0     C45993   1.651   8.082  10.691 -0.4045  0.4077  0.1821
  334MOL0     C45994   1.734   8.207  10.654 -0.5038 -0.7731  0.4902
  334MOL0     C45995   1.649   8.325  10.607 -0.2164 -1.3340 -1.3657
  334MOL0     C45996   1.738   8.441  10.561  0.2615 -0.1360  0.5666
  334MOL0     C45997   1.652   8.566  10.540  0.4951  0.6243 -0.7428
  334MOL0     C45998   1.641   8.648  10.667  0.0349 -0.8211  0.7348
  334MOL0    Cl45999   1.556   8.804  10.631 -0.0116 -0.1193  0.5196
  334MOL0     C46000   1.803   7.723  11.060  0.8742  1.0619 -0.7267
  334MOL0     C46001   1.885   7.638  11.136 -1.0082  0.6283  1.0486
  334MOL0     O46002   2.259   7.491  11.038 -0.0358  0.4264  0.5619
  334MOL0     C46003   2.351   7.296  11.190 -0.6080 -0.4400  0.7046
  334MOL0     C46004   2.416   7.203  11.266 -0.2348  0.1046  0.6233
  334MOL0     N46005   2.909   6.847  11.819  0.4113 -1.0356 -0.9701
  334MOL0     N46006   3.033   6.806  11.815 -0.9738 -0.5201 -0.9420
  334MOL0     C46007   3.754   6.369  11.699 -1.2255 -0.2887  0.1056
  334MOL0     C46008   3.768   6.226  11.684 -0.2595 -0.5179  0.4229
  334MOL0     C46009   3.868   5.805  11.645 -0.2502  0.4381 -0.2184
  334MOL0     C46010   3.982   5.792  11.723 -0.2914  0.1846 -0.3544
  334MOL0     C46011   4.019   5.671  11.785  0.4112  0.4020  0.0434
  334MOL0     C46012   3.941   5.552  11.770  0.3199 -0.0465 -0.6809
  334MOL0     O46013   3.969   5.428  11.821  0.2901 -0.3888  0.4102
  334MOL0     C46014   4.030   5.421  11.947 -0.0352  0.1032 -0.5195
  334MOL0     C46015   4.171   5.365  11.945 -0.1120  0.0286 -0.2655
  334MOL0     C46016   4.186   5.247  11.851  0.8054  0.2969  0.8763
  334MOL0     C46017   4.325   5.233  11.794  0.4569  0.1079  1.0256
  334MOL0     C46018   4.351   5.345  11.710  0.9298 -0.0113  0.0410
  334MOL0     C46019   4.399   5.434  11.637  0.0329  0.3197 -0.8087
  334MOL0     C46020   3.828   5.566  11.686 -0.4036  0.1920 -0.7181
  334MOL0     C46021   3.789   5.690  11.633  0.2249  0.5271 -1.1284
  334MOL0     C46022   3.662   5.677  11.546  0.7404  0.3873  0.9971
  334MOL0     H46023   4.101   6.225  11.666  1.3597  2.1396  4.3956
  334MOL0     H46024   4.068   6.476  11.675 -0.1952  1.5687  0.1785
  334MOL0     H46025   3.921   6.671  11.573  1.9369 -0.2356 -0.0088
  334MOL0     H46026   4.006   6.691  11.732  0.4360 -1.4377 -1.3125
  334MOL0     H46027   3.804   6.805  11.829  1.0385  3.1682  0.4389
  334MOL0     H46028   3.869   6.918  11.712 -2.8174  1.6808  0.5176
  334MOL0     H46029   3.703   6.826  11.536  0.7692 -0.7799  1.0882
  334MOL0     H46030   3.643   6.733  11.670 -0.1516  0.3552  2.6670
  334MOL0     H46031   3.579   6.941  11.796 -1.6708 -0.1951 -0.1985
  334MOL0     H46032   3.660   7.034  11.669 -1.0502 -0.7120 -2.6625
  334MOL0     H46033   3.499   6.917  11.524  2.0052 -0.9371  0.7102
  334MOL0     H46034   3.425   7.031  11.652  1.0206  1.2706  0.2691
  334MOL0     H46035   3.433   6.731  11.716 -1.0707 -1.4891 -2.0599
  334MOL0     H46036   3.331   6.851  11.785  1.4001  1.8290 -0.1564
  334MOL0     H46037   3.301   6.717  11.508 -0.9487 -2.1238  0.3989
  334MOL0     H46038   3.210   6.865  11.544 -0.2211 -0.9865 -4.7206
  334MOL0     H46039   3.156   6.596  11.576 -1.9709  1.8143 -1.1276
  334MOL0     H46040   3.223   6.621  11.732  3.0169  0.6602 -1.5581
  334MOL0     H46041   2.886   6.657  11.560 -0.7938 -0.4815  0.8447
  334MOL0     H46042   2.631   6.728  11.715 -1.7571  0.3944 -0.3096
  334MOL0     H46043   2.684   6.797  11.564 -1.4549  1.1870  0.2097
  334MOL0     H46044   2.637   6.966  11.822 -2.5869  2.2700 -1.2202
  334MOL0     H46045   2.694   7.026  11.680 -1.3993  1.7710  1.5598
  334MOL0     H46046   2.456   6.897  11.608  2.3933  0.1976 -0.2909
  334MOL0     H46047   2.409   6.964  11.762 -2.0443 -0.5861 -1.1655
  334MOL0     H46048   2.343   7.120  11.612 -0.0595 -3.1223  1.3141
  334MOL0     H46049   2.511   7.177  11.656  3.7392 -1.4327 -1.3484
  334MOL0     H46050   2.389   7.361  11.562  1.1817 -2.0343 -0.5635
  334MOL0     H46051   2.115   7.526  11.468  0.7178 -1.6569  3.5990
  334MOL0     H46052   2.216   7.633  11.389 -0.1320  2.7203  3.6281
  334MOL0     H46053   2.265   7.569  11.548  0.0375 -1.1210  0.0831
  334MOL0     H46054   2.177   7.715  10.984 -0.3098  1.1290  1.2763
  334MOL0     H46055   2.047   7.879  10.873  1.6222 -1.2584  0.7496
  334MOL0     H46056   1.898   7.996  10.747  1.8494 -1.6247  3.4897
  334MOL0     H46057   1.871   7.825  10.696 -0.9963 -0.4517 -1.5853
  334MOL0     H46058   1.744   7.942  10.544  0.9516 -0.6816 -0.2267
  334MOL0     H46059   1.643   7.863  10.670 -0.3870  0.8222  1.1365
  334MOL0     H46060   1.643   8.083  10.800  0.4346  2.0621  0.2680
  334MOL0     H46061   1.553   8.087  10.643 -0.2980  1.2409  0.0394
  334MOL0     H46062   1.792   8.176  10.567 -0.2825  2.2978 -0.5929
  334MOL0     H46063   1.806   8.241  10.730  2.8335 -1.8707 -1.9375
  334MOL0     H46064   1.571   8.307  10.532 -0.6312  2.5212 -2.0803
  334MOL0     H46065   1.582   8.359  10.686  1.0902  2.1491 -1.5706
  334MOL0     H46066   1.762   8.408  10.460 -0.3960 -1.5585  0.8434
  334MOL0     H46067   1.832   8.445  10.617  3.0101 -2.2535 -3.3696
  334MOL0     H46068   1.549   8.539  10.516  0.7718  1.6310 -3.3284
  334MOL0     H46069   1.688   8.635  10.464 -2.5172  1.5629 -1.4498
  334MOL0     H46070   1.738   8.661  10.715  0.5290  1.8038 -0.8243
  334MOL0     H46071   1.583   8.598  10.747 -2.1140  0.2111 -0.0888
  334MOL0     H46072   1.694   7.718  11.057  0.7980  2.2490 -0.3057
  334MOL0     H46073   1.844   7.572  11.212 -0.3801  0.2257  1.0479
  334MOL0     H46074   2.360   7.293  11.082  0.2087 -0.5876  0.7674
  334MOL0     H46075   2.467   7.124  11.211 -2.2952  0.2829 -1.6637
  334MOL0     H46076   3.658   6.413  11.723 -0.3830  1.0577  1.1662
  334MOL0     H46077   3.677   6.170  11.702 -0.5013 -0.4255 -0.4548
  334MOL0     H46078   4.043   5.878  11.749  0.0264  1.1727 -3.8433
  334MOL0     H46079   4.112   5.659  11.840 -0.4674 -0.5875  1.3717
  334MOL0     H46080   4.029   5.518  11.997  0.5912  0.9774 -2.1427
  334MOL0     H46081   3.970   5.346  11.999  2.2559  0.8625  3.6998
  334MOL0     H46082   4.188   5.319  12.043 -2.7075  0.8763  0.6695
  334MOL0     H46083   4.241   5.448  11.931 -0.4151  0.2285 -0.6305
  334MOL0     H46084   4.163   5.161  11.915  1.4412  1.7664  3.2080
  334MOL0     H46085   4.117   5.247  11.767  0.1946  0.4105  1.3690
  334MOL0     H46086   4.313   5.145  11.730 -0.7817  1.0626 -0.1013
  334MOL0     H46087   4.399   5.220  11.873  2.9147  1.2909 -0.9578
  334MOL0     H46088   4.448   5.502  11.570  0.0389  0.4100 -0.7129
  334MOL0     H46089   3.777   5.472  11.665  1.8105 -0.5522 -3.4083
  334MOL0     H46090   3.595   5.763  11.545  0.1057 -0.0280 -1.8349
  334MOL0     H46091   3.697   5.648  11.446  0.4587 -0.6021  1.1734
  334MOL0     H46092   3.596   5.594  11.572  0.5009 -0.0558 -0.8822
  335MOL0     O46093   9.418   4.852   3.909 -0.0053  0.2278  0.2982
  335MOL0     C46094   9.374   4.789   3.815  0.0953 -1.3524  1.0242
  335MOL0     O46095   9.252   4.734   3.805  0.1848 -0.0233 -0.0104
  335MOL0     C46096   9.140   4.815   3.848 -0.2280 -0.1564 -0.1732
  335MOL0     C46097   9.079   4.772   3.964  1.3366  0.0148 -0.0592
  335MOL0     C46098   8.957   4.826   4.007 -0.3776 -0.1231  0.5025
  335MOL0     C46099   8.911   4.936   3.926  0.1984 -0.3203 -1.0628
  335MOL0     O46100   8.790   4.990   3.953  0.1068  0.5379 -0.0148
  335MOL0     C46101   8.685   4.898   3.900  0.4570  0.6016  1.2318
  335MOL0     C46102   8.552   4.962   3.909 -0.7306  1.1235 -0.1041
  335MOL0     C46103   8.449   4.862   3.858 -0.6750 -0.2140  0.0559
  335MOL0     C46104   8.313   4.863   3.947 -0.6211 -0.0677 -0.0609
  335MOL0     C46105   8.322   4.795   4.080  0.2437  0.0930 -0.4641
  335MOL0     C46106   8.192   4.736   4.128 -0.7513  0.2214 -0.2022
  335MOL0     C46107   8.206   4.676   4.271 -0.7806  0.1236 -0.4093
  335MOL0     C46108   8.072   4.630   4.322  0.0859  0.2256  0.7486
  335MOL0     N46109   7.997   4.738   4.380 -0.1372  0.1216 -0.4889
  335MOL0     C46110   8.044   4.828   4.478 -0.4534  0.4198 -0.8371
  335MOL0     C46111   7.967   4.940   4.455 -1.7191  0.4321 -0.3542
  335MOL0     C46112   7.998   5.064   4.521 -0.2532 -0.2417 -0.4652
  335MOL0     C46113   7.960   5.190   4.452  0.1813 -0.3697  0.7194
  335MOL0     C46114   7.806   5.212   4.464  0.3722 -0.5692  0.6463
  335MOL0     C46115   7.760   5.326   4.372 -0.3781 -0.7226  0.2048
  335MOL0     O46116   7.770   5.272   4.245  0.1443  0.1232  0.2844
  335MOL0     C46117   7.723   5.349   4.128 -0.1115 -1.0321 -0.7653
  335MOL0     C46118   7.742   5.491   4.121 -0.0005 -0.8928 -0.1461
  335MOL0     C46119   7.701   5.564   4.006 -0.9409  0.1839 -1.0612
  335MOL0     C46120   7.732   5.709   3.991 -0.0117 -0.6806 -0.2162
  335MOL0     C46121   7.640   5.496   3.896  0.2125  1.2444 -1.2410
  335MOL0     C46122   7.576   5.551   3.777 -0.1245  0.4209  0.2524
  335MOL0     O46123   7.476   5.482   3.721  0.7330  0.0789 -0.4998
  335MOL0     C46124   7.379   5.556   3.662 -0.3002 -0.6984  0.3902
  335MOL0     C46125   7.322   5.509   3.542 -0.7315  0.2470 -0.1004
  335MOL0     C46126   7.241   5.585   3.464  0.3010  0.0076 -0.6559
  335MOL0     C46127   7.195   5.707   3.517  1.0703  0.7546  0.4955
  335MOL0     O46128   7.107   5.793   3.443 -0.0261  0.2880  0.0808
  335MOL0     C46129   7.115   5.788   3.301  0.7901  0.1718 -0.5047
  335MOL0     C46130   7.026   5.882   3.229  0.4031 -1.0605  0.0029
  335MOL0     C46131   6.892   5.907   3.305 -0.5438 -1.0819  0.2294
  335MOL0     C46132   6.800   5.997   3.222  0.0438  0.2715  0.0112
  335MOL0     C46133   6.668   6.045   3.289  0.9098 -0.2870  0.1487
  335MOL0     C46134   6.602   6.155   3.206 -0.3320  0.1803  1.1554
  335MOL0     C46135   6.491   6.232   3.287 -0.1182 -0.1433 -0.2395
  335MOL0     C46136   6.350   6.195   3.250  0.1291  0.5198  0.5899
  335MOL0    Cl46137   6.295   6.271   3.103  0.1921 -0.3002  0.0302
  335MOL0     C46138   7.244   5.756   3.640  0.0829  0.6132  0.3136
  335MOL0     C46139   7.328   5.681   3.716 -1.2606  0.1490  0.0738
  335MOL0     O46140   7.644   5.637   3.717 -0.5140 -0.2716  0.4468
  335MOL0     C46141   7.628   5.354   3.909  0.1504 -0.5809 -0.9467
  335MOL0     C46142   7.673   5.283   4.019  0.5853 -0.0250 -0.0910
  335MOL0     N46143   7.874   4.913   4.362 -0.7799  0.5685  0.0293
  335MOL0     N46144   7.889   4.792   4.311 -1.1497  0.4678 -0.3267
  335MOL0     C46145   8.987   4.997   3.834  0.1469 -1.0213 -0.5983
  335MOL0     C46146   9.102   4.938   3.796 -0.2534  0.1595 -0.4998
  335MOL0     C46147   9.460   4.784   3.697 -0.0244  0.2631  0.5388
  335MOL0     C46148   9.529   4.897   3.655 -0.0691 -0.1361 -0.2910
  335MOL0     C46149   9.645   4.893   3.583 -0.0748 -0.0020  0.5844
  335MOL0     C46150   9.679   4.774   3.515  0.1517 -0.1042 -0.0930
  335MOL0     O46151   9.769   4.759   3.409  1.1276 -0.3867 -0.1872
  335MOL0     C46152   9.794   4.877   3.330  0.4167 -0.0729  0.2183
  335MOL0     C46153   9.718   4.876   3.197  0.2478  0.1738  0.4342
  335MOL0     C46154   9.757   4.989   3.095 -0.5570 -1.3383  0.1598
  335MOL0     C46155   9.715   5.135   3.134  1.4286 -0.4708  0.5257
  335MOL0     C46156   9.797   5.243   3.067 -0.0447  0.8611 -0.3366
  335MOL0     C46157   9.877   5.327   3.029  0.3631  1.1804  0.0541
  335MOL0     C46158   9.613   4.658   3.555 -0.1013  0.4432  0.2107
  335MOL0     C46159   9.512   4.658   3.648  1.3216 -0.0173  0.7079
  335MOL0     C46160   9.437   4.528   3.674 -0.3143 -0.2113 -0.2158
  335MOL0     H46161   9.126   4.681   4.001 -1.4469 -3.9947 -5.1244
  335MOL0     H46162   8.897   4.798   4.093  2.2897  0.9477  2.8737
  335MOL0     H46163   8.688   4.822   3.979  4.0671  0.8112  1.4785
  335MOL0     H46164   8.711   4.848   3.806 -1.5167 -0.1398  1.0285
  335MOL0     H46165   8.527   4.987   4.012  0.4746 -1.1048  0.7835
  335MOL0     H46166   8.546   5.055   3.851 -1.0091  0.8611 -0.5044
  335MOL0     H46167   8.410   4.898   3.763 -0.8524  0.9875  0.5706
  335MOL0     H46168   8.477   4.756   3.855 -1.2878 -0.3639 -0.9398
  335MOL0     H46169   8.294   4.968   3.969 -1.5248 -0.2665  0.1557
  335MOL0     H46170   8.242   4.817   3.877  3.1087 -2.2238 -2.7618
  335MOL0     H46171   8.375   4.849   4.160  1.0459 -1.0572 -0.2003
  335MOL0     H46172   8.386   4.709   4.063 -0.2611 -0.8585  2.0330
  335MOL0     H46173   8.110   4.808   4.115  1.2182  2.8199  0.9098
  335MOL0     H46174   8.167   4.648   4.068  0.8202 -1.2544  1.1926
  335MOL0     H46175   8.252   4.750   4.336  1.3504 -2.8009  1.6661
  335MOL0     H46176   8.277   4.593   4.264 -1.2583 -0.4509  1.3009
  335MOL0     H46177   8.010   4.595   4.240  2.6267 -0.2221 -1.1179
  335MOL0     H46178   8.073   4.551   4.398 -2.9855 -0.8835 -0.2428
  335MOL0     H46179   8.135   4.827   4.536 -1.7526  0.9193  1.3408
  335MOL0     H46180   8.107   5.061   4.524 -0.2895 -1.3555  0.7611
  335MOL0     H46181   7.960   5.053   4.623 -0.8423  1.3267 -0.4977
  335MOL0     H46182   8.008   5.264   4.516 -0.8243  1.1170 -0.1773
  335MOL0     H46183   7.997   5.194   4.349 -4.6376  1.7523 -1.2317
  335MOL0     H46184   7.743   5.124   4.448  0.9553 -0.8935  0.1041
  335MOL0     H46185   7.774   5.250   4.562 -2.1866  1.1884 -0.7715
  335MOL0     H46186   7.654   5.342   4.393 -0.4611 -0.9391 -0.0313
  335MOL0     H46187   7.822   5.414   4.388 -0.5887 -0.5230 -0.0570
  335MOL0     H46188   7.807   5.527   4.200 -0.8033 -1.1010  0.6278
  335MOL0     H46189   7.636   5.759   3.971 -0.7092 -2.6789 -2.2446
  335MOL0     H46190   7.789   5.721   3.899 -1.4566  1.8288 -0.9107
  335MOL0     H46191   7.790   5.753   4.073  3.4098 -5.0727  0.0986
  335MOL0     H46192   7.364   5.416   3.504  1.6069  1.2262 -0.0379
  335MOL0     H46193   7.211   5.557   3.363 -0.9604  0.2277 -0.3598
  335MOL0     H46194   7.212   5.833   3.279 -1.5914  5.2404 -2.0623
  335MOL0     H46195   7.105   5.691   3.252  0.8334  0.3766 -0.9240
  335MOL0     H46196   7.086   5.973   3.229 -1.2830  0.1679  2.6683
  335MOL0     H46197   7.000   5.839   3.132  1.1701 -1.1567 -0.1665
  335MOL0     H46198   6.898   5.971   3.394 -2.3492  2.4329 -1.9489
  335MOL0     H46199   6.843   5.813   3.330  1.1490 -2.0673 -0.0274
  335MOL0     H46200   6.781   5.946   3.126  0.0206  1.5829 -0.6998
  335MOL0     H46201   6.862   6.084   3.202  2.2923 -1.1054  0.6404
  335MOL0     H46202   6.604   5.957   3.298  3.9547 -2.7876 -0.7438
  335MOL0     H46203   6.697   6.100   3.379  0.4303  1.5716 -0.7822
  335MOL0     H46204   6.560   6.104   3.119 -0.7393  2.2744  0.0483
  335MOL0     H46205   6.676   6.224   3.165 -0.7445 -1.2226 -2.2943
  335MOL0     H46206   6.512   6.338   3.268 -1.5688  0.0772 -0.7147
  335MOL0     H46207   6.513   6.209   3.392  0.5206  3.2864  0.4854
  335MOL0     H46208   6.273   6.216   3.324 -0.8476  2.5252 -0.8982
  335MOL0     H46209   6.337   6.087   3.242 -1.2219  0.7568 -0.9467
  335MOL0     H46210   7.201   5.847   3.680 -1.3747  0.2556 -0.3707
  335MOL0     H46211   7.359   5.706   3.817  0.8795  1.3296 -0.7929
  335MOL0     H46212   7.582   5.296   3.830 -0.4954  1.1650 -1.9004
  335MOL0     H46213   7.640   5.180   4.032 -1.0150  0.3540 -0.9706
  335MOL0     H46214   8.961   5.097   3.802  0.9692 -0.8665 -0.7922
  335MOL0     H46215   9.157   4.976   3.710  1.3421  2.3889  1.3556
  335MOL0     H46216   9.510   4.998   3.691  2.0217 -0.3328  1.6305
  335MOL0     H46217   9.705   4.982   3.571  1.7022 -1.1094  0.8233
  335MOL0     H46218   9.775   4.972   3.381 -0.7336 -0.9612  1.5095
  335MOL0     H46219   9.902   4.873   3.314  0.7053 -0.9551  2.1701
  335MOL0     H46220   9.611   4.853   3.202 -0.1056  1.8316  1.4244
  335MOL0     H46221   9.749   4.778   3.161 -0.4314 -0.1145  0.6208
  335MOL0     H46222   9.864   4.988   3.077 -0.8983  0.2836 -2.4703
  335MOL0     H46223   9.704   4.977   3.000  0.1258 -1.0021 -0.2701
  335MOL0     H46224   9.720   5.152   3.242  1.1206 -0.9803  0.6199
  335MOL0     H46225   9.615   5.143   3.090  1.9898  0.5547 -0.6507
  335MOL0     H46226   9.957   5.390   2.996  0.6551  0.1020 -1.3702
  335MOL0     H46227   9.630   4.568   3.498 -1.7838 -0.9896  1.8432
  335MOL0     H46228   9.504   4.450   3.635 -0.0817  0.0648 -0.3733
  335MOL0     H46229   9.410   4.501   3.776 -1.2954  0.8690 -0.1611
  335MOL0     H46230   9.351   4.526   3.606  2.5172  1.6137 -4.2775
  336MOL0     O46231   5.619   1.477   2.734 -0.2349  0.6423  0.7745
  336MOL0     C46232   5.687   1.472   2.839 -0.9335  1.2971  0.2954
  336MOL0     O46233   5.724   1.580   2.912  0.2274  0.0219 -0.2505
  336MOL0     C46234   5.706   1.708   2.857 -0.3295  0.0424  0.3459
  336MOL0     C46235   5.807   1.805   2.845 -0.6426  0.0047 -1.1839
  336MOL0     C46236   5.761   1.946   2.829 -0.3048 -0.1639 -1.1119
  336MOL0     C46237   5.632   1.988   2.795 -0.8253  0.0245 -0.8008
  336MOL0     O46238   5.603   2.119   2.795 -0.2440 -0.8022  0.3115
  336MOL0     C46239   5.466   2.151   2.842  0.0202 -0.4464  0.5863
  336MOL0     C46240   5.445   2.301   2.888  1.2077 -0.4121 -0.0610
  336MOL0     C46241   5.495   2.338   3.035 -0.2042 -0.4516  0.7701
  336MOL0     C46242   5.487   2.486   3.051 -0.2743  0.2880  0.6150
  336MOL0     C46243   5.538   2.550   3.181 -0.3101  0.2832 -0.3863
  336MOL0     C46244   5.443   2.532   3.293 -0.1082 -0.0016 -0.2931
  336MOL0     C46245   5.452   2.628   3.416 -0.0886  0.1297 -0.3230
  336MOL0     C46246   5.593   2.648   3.470 -0.5683 -0.1103  0.0340
  336MOL0     N46247   5.593   2.721   3.593  0.6638  0.4467 -0.0331
  336MOL0     C46248   5.686   2.727   3.698  0.2773 -0.4484  0.7878
  336MOL0     C46249   5.647   2.822   3.781  0.3980 -1.0906 -0.0662
  336MOL0     C46250   5.721   2.868   3.903  0.5726  0.2774 -0.5224
  336MOL0     C46251   5.637   2.980   3.974  0.0389 -0.1275  0.0846
  336MOL0     C46252   5.689   3.115   3.920  0.4538 -0.3727 -0.3666
  336MOL0     C46253   5.671   3.143   3.768 -0.7096 -0.4323 -0.0573
  336MOL0     O46254   5.694   3.283   3.728  0.4573  0.4384 -0.5340
  336MOL0     C46255   5.825   3.329   3.758  0.6135 -0.6317  0.3859
  336MOL0     C46256   5.832   3.452   3.831 -0.9185  0.1259  0.0285
  336MOL0     C46257   5.961   3.509   3.868 -0.8976 -0.2851  0.2044
  336MOL0     C46258   5.952   3.637   3.955  0.5415  0.6747 -0.1386
  336MOL0     C46259   6.088   3.431   3.848  1.0159 -0.2161  0.6927
  336MOL0     C46260   6.220   3.488   3.886  0.2905  0.2729  0.5994
  336MOL0     O46261   6.322   3.458   3.804  0.4403 -0.3771  0.0131
  336MOL0     C46262   6.441   3.467   3.854  1.1258  0.2796 -1.0048
  336MOL0     C46263   6.480   3.392   3.965  0.1130 -0.2525 -0.5577
  336MOL0     C46264   6.606   3.383   3.999 -1.1072  0.0848  0.9317
  336MOL0     C46265   6.700   3.463   3.929 -0.3718 -0.3875  0.9261
  336MOL0     O46266   6.838   3.469   3.962  0.3746 -0.7016  0.1601
  336MOL0     C46267   6.866   3.423   4.094 -0.2756 -1.0083  0.1978
  336MOL0     C46268   7.007   3.436   4.117  0.3535  0.8372 -1.0063
  336MOL0     C46269   7.070   3.574   4.085  0.3410 -1.1099 -0.0143
  336MOL0     C46270   7.059   3.670   4.196  0.6666 -0.2992  0.3893
  336MOL0     C46271   7.125   3.811   4.141 -0.3453 -0.6456 -0.5247
  336MOL0     C46272   7.132   3.913   4.251 -0.1916  0.8771 -0.4470
  336MOL0     C46273   7.250   4.007   4.238 -0.0642  0.1278 -0.3755
  336MOL0     C46274   7.257   4.087   4.113  0.6488 -0.0397 -0.4280
  336MOL0    Cl46275   7.380   4.041   4.013  0.5067  0.0758  0.3914
  336MOL0     C46276   6.656   3.545   3.830  0.0510 -0.5113  0.2332
  336MOL0     C46277   6.531   3.549   3.789 -0.7570 -0.4525 -1.0149
  336MOL0     O46278   6.224   3.540   3.993  0.5574  0.3693  0.4749
  336MOL0     C46279   6.071   3.307   3.779 -0.2432  0.0524 -0.0998
  336MOL0     C46280   5.945   3.252   3.739 -0.1106  0.0512 -0.2786
  336MOL0     N46281   5.525   2.869   3.736 -0.5430  0.6255 -0.0334
  336MOL0     N46282   5.495   2.817   3.621 -0.0880  0.5143 -0.5878
  336MOL0     C46283   5.540   1.884   2.795  1.1998  0.0932  0.3587
  336MOL0     C46284   5.575   1.754   2.835  1.1340  0.3645 -0.4864
  336MOL0     C46285   5.701   1.345   2.908 -0.6363  0.6240 -0.1522
  336MOL0     C46286   5.734   1.344   3.050 -0.5954 -0.1829  0.1694
  336MOL0     C46287   5.755   1.218   3.116  0.6566  0.9192 -0.0490
  336MOL0     C46288   5.747   1.102   3.041  0.8607 -0.7175  0.0105
  336MOL0     O46289   5.757   0.977   3.097  0.3340 -0.9348 -0.4956
  336MOL0     C46290   5.869   0.890   3.077 -0.5505  0.3802  0.6641
  336MOL0     C46291   5.879   0.800   2.956  0.1858 -0.1712 -0.5094
  336MOL0     C46292   5.751   0.726   2.921 -0.2066 -0.3368  0.4712
  336MOL0     C46293   5.694   0.627   3.025 -1.3429 -0.1351 -0.5905
  336MOL0     C46294   5.601   0.525   2.969  0.1883  0.2641  0.0500
  336MOL0     C46295   5.532   0.434   2.924  0.1396 -1.0853  0.0011
  336MOL0     C46296   5.717   1.100   2.906  0.3341 -0.6111  0.9857
  336MOL0     C46297   5.696   1.220   2.837 -0.4770 -1.0017  0.2167
  336MOL0     C46298   5.702   1.206   2.689  0.5222  0.0328  0.6909
  336MOL0     H46299   5.909   1.776   2.866  0.0182  1.9067 -1.5458
  336MOL0     H46300   5.836   2.022   2.852 -0.3330 -0.3128 -0.5023
  336MOL0     H46301   5.436   2.075   2.915  0.2822 -1.5182 -0.3837
  336MOL0     H46302   5.412   2.146   2.747 -0.0161  0.5347  0.5531
  336MOL0     H46303   5.519   2.355   2.829  2.3471 -0.2405  1.4661
  336MOL0     H46304   5.343   2.336   2.869  0.3079 -2.0855  1.3274
  336MOL0     H46305   5.429   2.299   3.113 -1.5846  0.2260 -0.0246
  336MOL0     H46306   5.596   2.300   3.052  0.3480  0.5917 -0.0657
  336MOL0     H46307   5.542   2.535   2.970  2.8137  1.3417  3.1634
  336MOL0     H46308   5.383   2.518   3.038 -1.0460 -1.2247  2.5476
  336MOL0     H46309   5.560   2.655   3.162  1.5275 -0.1542 -0.8284
  336MOL0     H46310   5.634   2.510   3.215 -0.1412  1.4436  0.5496
  336MOL0     H46311   5.342   2.536   3.249  0.7019  1.2514 -2.1810
  336MOL0     H46312   5.468   2.431   3.327  2.9711  0.7459 -0.0376
  336MOL0     H46313   5.382   2.593   3.493  1.0696 -0.9026  0.3109
  336MOL0     H46314   5.415   2.726   3.386  0.0818 -0.0926 -1.2780
  336MOL0     H46315   5.640   2.555   3.505 -0.3434 -0.4650 -1.1890
  336MOL0     H46316   5.659   2.694   3.396  1.1498  0.2248  1.6967
  336MOL0     H46317   5.772   2.661   3.707  2.1977  1.5136 -1.6525
  336MOL0     H46318   5.817   2.905   3.867 -0.2597 -0.6073 -4.0336
  336MOL0     H46319   5.723   2.787   3.977  0.6969  0.6358 -0.1346
  336MOL0     H46320   5.529   2.978   3.957  0.0268 -2.9255  0.1244
  336MOL0     H46321   5.650   2.975   4.083  4.4064  1.3960 -0.1669
  336MOL0     H46322   5.625   3.194   3.960  1.7527 -0.6417  2.4602
  336MOL0     H46323   5.788   3.133   3.962 -0.8387 -0.0231  2.7995
  336MOL0     H46324   5.728   3.076   3.703 -1.0211  1.2517 -2.1439
  336MOL0     H46325   5.567   3.124   3.741 -0.3375 -0.3817 -1.5777
  336MOL0     H46326   5.736   3.500   3.848  0.3897  2.5111  1.1298
  336MOL0     H46327   6.037   3.705   3.942  0.4177  0.3963 -2.8675
  336MOL0     H46328   5.951   3.607   4.061 -1.4170  0.0727 -0.2968
  336MOL0     H46329   5.856   3.687   3.939 -1.6470 -3.1363  0.0707
  336MOL0     H46330   6.409   3.322   4.009  0.2937 -0.0832  0.0146
  336MOL0     H46331   6.633   3.297   4.059  0.1035 -0.5744 -0.5201
  336MOL0     H46332   6.810   3.473   4.173 -1.0632  3.9899 -3.0954
  336MOL0     H46333   6.847   3.315   4.093 -1.2440 -0.8556 -1.6354
  336MOL0     H46334   7.023   3.401   4.220  0.9016  1.4460 -0.8778
  336MOL0     H46335   7.057   3.371   4.045  1.2436  0.7838 -0.3501
  336MOL0     H46336   7.022   3.623   4.000 -1.6817  0.4333  1.8939
  336MOL0     H46337   7.175   3.559   4.061  0.8750  4.1154 -2.1607
  336MOL0     H46338   7.096   3.631   4.292 -0.5966  0.3387  1.1668
  336MOL0     H46339   6.953   3.689   4.210  0.3600 -0.6149 -1.3366
  336MOL0     H46340   7.227   3.781   4.116 -0.9667 -1.1944 -2.6885
  336MOL0     H46341   7.069   3.850   4.055 -0.1038  0.8068 -0.0338
  336MOL0     H46342   7.138   3.861   4.347 -1.3939  0.7724 -0.4176
  336MOL0     H46343   7.032   3.957   4.252 -0.2881  0.9017 -3.3462
  336MOL0     H46344   7.343   3.950   4.249  0.0682  0.0523 -1.7105
  336MOL0     H46345   7.229   4.085   4.312 -2.2727 -0.6926 -0.0485
  336MOL0     H46346   7.273   4.190   4.146 -2.4625  0.7710 -1.1009
  336MOL0     H46347   7.168   4.079   4.050 -0.6274  1.2553  1.1012
  336MOL0     H46348   6.727   3.602   3.771 -0.8002 -1.2816 -1.6358
  336MOL0     H46349   6.503   3.615   3.707 -0.1115  1.6872  0.3969
  336MOL0     H46350   6.156   3.241   3.764 -1.2284 -1.3705  0.3580
  336MOL0     H46351   5.938   3.159   3.684  0.1816 -0.6031  0.7456
  336MOL0     H46352   5.434   1.902   2.780  0.9922 -1.7879 -0.7989
  336MOL0     H46353   5.490   1.691   2.859  2.4453 -2.9888 -3.6253
  336MOL0     H46354   5.744   1.437   3.105  2.0633 -1.8995  2.9041
  336MOL0     H46355   5.766   1.205   3.223 -0.8621  0.2951  0.0577
  336MOL0     H46356   5.947   0.965   3.070 -2.3337  2.3057  0.4766
  336MOL0     H46357   5.881   0.823   3.162 -0.9217 -0.9372 -0.2811
  336MOL0     H46358   5.970   0.741   2.971  1.9127  1.4547 -3.4044
  336MOL0     H46359   5.909   0.859   2.868  2.1319 -1.1492 -0.5482
  336MOL0     H46360   5.673   0.797   2.894 -0.2970 -0.0863  1.3489
  336MOL0     H46361   5.776   0.667   2.832  2.1477  0.4256  0.5456
  336MOL0     H46362   5.641   0.685   3.100 -1.3143  1.3934 -1.7011
  336MOL0     H46363   5.779   0.568   3.061  1.2280  2.8786 -1.2318
  336MOL0     H46364   5.464   0.369   2.873 -0.1561  1.2053 -2.7176
  336MOL0     H46365   5.708   1.002   2.860 -4.7360  0.0647 -0.0027
  336MOL0     H46366   5.745   1.113   2.648 -2.6765 -0.3667 -2.1992
  336MOL0     H46367   5.598   1.202   2.655  0.4899 -0.8755  0.8749
  336MOL0     H46368   5.761   1.282   2.638 -1.5553 -0.9788 -3.7789
  337MOL0     O46369   5.529   4.279   7.636 -0.8957 -0.4753 -0.2082
  337MOL0     C46370   5.412   4.244   7.621  0.5957 -0.5181 -0.0729
  337MOL0     O46371   5.350   4.250   7.493  0.3048 -0.5143 -0.4887
  337MOL0     C46372   5.408   4.309   7.387 -0.8997  1.8676  0.7081
  337MOL0     C46373   5.469   4.230   7.287  0.6493 -0.7572 -0.2726
  337MOL0     C46374   5.556   4.290   7.194 -0.0935 -0.2040  0.4012
  337MOL0     C46375   5.579   4.427   7.186  1.1014 -0.1447  0.4554
  337MOL0     O46376   5.663   4.482   7.104 -0.1348  0.1399  0.1708
  337MOL0     C46377   5.801   4.448   7.104 -0.6413 -0.0515 -0.2263
  337MOL0     C46378   5.891   4.569   7.139 -0.1986 -0.4568 -0.0292
  337MOL0     C46379   6.035   4.522   7.173  0.2390  0.1412  0.4084
  337MOL0     C46380   6.126   4.638   7.185 -1.1833  0.7678 -0.0995
  337MOL0     C46381   6.259   4.619   7.260 -0.5740 -0.7163 -0.1877
  337MOL0     C46382   6.339   4.492   7.231 -0.1782  1.1757 -0.1868
  337MOL0     C46383   6.465   4.484   7.320  1.0882 -1.5999 -0.0569
  337MOL0     C46384   6.539   4.350   7.298 -0.5148 -0.9008 -0.9021
  337MOL0     N46385   6.657   4.342   7.402 -0.4386 -0.9062  1.0149
  337MOL0     C46386   6.786   4.381   7.380  0.1816  0.1599 -0.3911
  337MOL0     C46387   6.845   4.336   7.494  0.0795 -0.2172  0.2661
  337MOL0     C46388   6.997   4.348   7.534  0.9676  0.9038  0.4407
  337MOL0     C46389   7.049   4.204   7.524  0.0044 -0.1704  0.0979
  337MOL0     C46390   7.182   4.191   7.592 -0.1402  0.7673 -0.0728
  337MOL0     C46391   7.255   4.054   7.566 -0.8716  0.5973 -0.3517
  337MOL0     O46392   7.378   4.072   7.641 -0.1189  0.5844 -0.2770
  337MOL0     C46393   7.477   3.981   7.616 -0.1942 -1.0242 -0.9259
  337MOL0     C46394   7.468   3.868   7.545  0.6242  0.4893 -0.2256
  337MOL0     C46395   7.581   3.793   7.511 -0.4486 -0.8553 -0.5392
  337MOL0     C46396   7.558   3.674   7.424 -0.7568  0.3665  0.4267
  337MOL0     C46397   7.710   3.845   7.539  0.5422  0.0748 -0.4208
  337MOL0     C46398   7.841   3.800   7.485  0.6232 -0.1710  0.1960
  337MOL0     O46399   7.964   3.791   7.563  0.8445  0.1242 -0.2192
  337MOL0     C46400   8.080   3.758   7.500 -0.3853  0.4867  0.1275
  337MOL0     C46401   8.115   3.815   7.369 -0.1386 -1.0137 -0.5984
  337MOL0     C46402   8.248   3.786   7.323  0.4702 -1.2452  0.3993
  337MOL0     C46403   8.335   3.699   7.385  0.2815  0.8113 -0.5846
  337MOL0     O46404   8.460   3.658   7.341 -0.4825 -0.7661  0.5179
  337MOL0     C46405   8.532   3.743   7.249  0.0884  0.3987 -0.5466
  337MOL0     C46406   8.676   3.695   7.235 -1.0062 -0.1677  0.1078
  337MOL0     C46407   8.770   3.818   7.223 -0.3799  0.9046 -0.7662
  337MOL0     C46408   8.729   3.915   7.110  0.9551  0.8086 -0.5800
  337MOL0     C46409   8.849   4.001   7.069 -0.3074 -0.6324  0.9311
  337MOL0     C46410   8.784   4.093   6.955  0.3740  0.1057 -0.2527
  337MOL0     C46411   8.866   4.178   6.864  0.5039 -0.5555  0.3204
  337MOL0     C46412   9.013   4.153   6.848  0.1419  0.5854  0.3726
  337MOL0    Cl46413   9.099   4.180   7.000  0.5689 -0.2951 -0.1852
  337MOL0     C46414   8.298   3.643   7.496  0.0922  0.5665  0.1724
  337MOL0     C46415   8.167   3.667   7.558 -0.2936  0.1284 -0.2302
  337MOL0     O46416   7.835   3.777   7.364  0.5578 -0.3615 -0.3634
  337MOL0     C46417   7.712   3.948   7.633 -0.0865  0.6787  0.0062
  337MOL0     C46418   7.600   4.009   7.670  0.2640  0.0055 -0.6165
  337MOL0     N46419   6.748   4.271   7.574  0.1250  0.7506  0.6700
  337MOL0     N46420   6.636   4.274   7.516 -0.2527 -1.2405  0.3129
  337MOL0     C46421   5.509   4.503   7.287  0.9040 -0.0839  0.3131
  337MOL0     C46422   5.429   4.436   7.385 -0.1408 -0.1802 -0.1345
  337MOL0     C46423   5.324   4.203   7.737 -0.1468  0.3363 -0.2477
  337MOL0     C46424   5.239   4.090   7.715 -0.4884  0.3887  0.3765
  337MOL0     C46425   5.162   4.042   7.820  0.3307  0.4358  0.3073
  337MOL0     C46426   5.157   4.107   7.946  0.6203 -0.0237  0.9493
  337MOL0     O46427   5.071   4.076   8.042 -0.2802  0.0556 -0.3548
  337MOL0     C46428   4.977   3.966   8.035  0.1211 -0.0670 -0.5345
  337MOL0     C46429   5.028   3.821   8.035  0.4107 -0.1849 -0.6417
  337MOL0     C46430   4.916   3.721   8.054  0.6370 -0.1639  0.8435
  337MOL0     C46431   4.854   3.675   7.923 -0.6137  0.0365 -0.7481
  337MOL0     C46432   4.946   3.614   7.825  1.0875 -0.5435  0.7169
  337MOL0     C46433   5.002   3.553   7.738  0.3657  0.1567 -0.2467
  337MOL0     C46434   5.232   4.226   7.958 -0.3770  0.1491  0.1742
  337MOL0     C46435   5.325   4.265   7.863  1.3066 -0.4161 -0.2358
  337MOL0     C46436   5.402   4.392   7.903  0.4160 -0.9647 -0.0087
  337MOL0     H46437   5.448   4.124   7.285  1.6382 -1.0965  2.4550
  337MOL0     H46438   5.598   4.228   7.114  0.2925  0.3022  0.2092
  337MOL0     H46439   5.828   4.399   7.010 -0.9523 -0.9326  0.1337
  337MOL0     H46440   5.820   4.378   7.186  3.2357  1.6238  0.5572
  337MOL0     H46441   5.899   4.646   7.062  1.9060  0.5629  1.1188
  337MOL0     H46442   5.853   4.620   7.228  0.3828  0.5814 -0.3591
  337MOL0     H46443   6.032   4.462   7.264 -0.5112  1.0258  0.9847
  337MOL0     H46444   6.074   4.467   7.087  0.0335  1.6274 -0.6695
  337MOL0     H46445   6.143   4.673   7.083  0.7346 -1.7648 -0.7588
  337MOL0     H46446   6.070   4.715   7.238 -0.8964 -1.0844  3.1342
  337MOL0     H46447   6.234   4.618   7.367  0.5525 -2.1153  0.0854
  337MOL0     H46448   6.304   4.717   7.243 -2.7287  0.7908  2.0699
  337MOL0     H46449   6.278   4.402   7.234  1.1243  0.1522 -2.0195
  337MOL0     H46450   6.369   4.502   7.126 -2.4086  0.3485 -0.9571
  337MOL0     H46451   6.434   4.486   7.425 -0.7552  2.6454 -0.4545
  337MOL0     H46452   6.545   4.559   7.316 -0.4024  0.5542  4.2101
  337MOL0     H46453   6.464   4.273   7.314  1.1697 -3.1550 -3.1157
  337MOL0     H46454   6.582   4.354   7.197 -4.0063  2.3768 -2.4925
  337MOL0     H46455   6.834   4.420   7.290  4.9058 -2.2406  0.7710
  337MOL0     H46456   6.986   4.368   7.641 -0.1504 -0.2585  0.5661
  337MOL0     H46457   7.057   4.423   7.481 -0.1606  0.0289 -2.2506
  337MOL0     H46458   6.973   4.137   7.564 -2.1636  2.0319 -0.1168
  337MOL0     H46459   7.057   4.198   7.415 -2.5358  1.2993 -0.2460
  337MOL0     H46460   7.245   4.275   7.561  1.6407 -0.8095 -0.9067
  337MOL0     H46461   7.157   4.210   7.697  0.6690 -1.1115  0.5003
  337MOL0     H46462   7.208   3.974   7.624  1.0989 -0.8155 -0.5867
  337MOL0     H46463   7.270   4.025   7.462  2.2650  0.5682  0.0069
  337MOL0     H46464   7.374   3.839   7.500 -0.8679  1.0293  2.2964
  337MOL0     H46465   7.594   3.704   7.325  1.2499 -1.0649  0.6525
  337MOL0     H46466   7.452   3.654   7.407 -1.2518  3.0674 -0.0074
  337MOL0     H46467   7.604   3.583   7.466  0.4998  0.6854 -0.2135
  337MOL0     H46468   8.048   3.891   7.329  0.2273  2.6068  4.6786
  337MOL0     H46469   8.283   3.830   7.230  1.7900 -1.0955  0.9529
  337MOL0     H46470   8.480   3.747   7.153 -0.4641 -2.8568 -0.4741
  337MOL0     H46471   8.542   3.837   7.305  2.2173 -0.6694  1.0150
  337MOL0     H46472   8.713   3.637   7.321  1.6314 -0.5042 -1.1733
  337MOL0     H46473   8.677   3.635   7.144  0.2865 -1.1954  0.7643
  337MOL0     H46474   8.872   3.785   7.199 -0.3373  1.0514 -0.7865
  337MOL0     H46475   8.775   3.880   7.313 -0.9496  1.6214 -1.2226
  337MOL0     H46476   8.653   3.981   7.152 -0.2700 -1.2817  0.6407
  337MOL0     H46477   8.692   3.863   7.021  3.5571  2.5123 -2.8254
  337MOL0     H46478   8.870   4.063   7.156 -2.8438  0.7441  0.6399
  337MOL0     H46479   8.926   3.940   7.019 -1.3226 -0.9183 -0.3395
  337MOL0     H46480   8.722   4.173   6.998 -0.4615  0.7723 -2.5369
  337MOL0     H46481   8.732   4.021   6.891  2.0249 -2.1588  0.8440
  337MOL0     H46482   8.862   4.276   6.912  1.1855  0.0265 -0.7634
  337MOL0     H46483   8.824   4.199   6.765 -0.3710  1.4835  1.0688
  337MOL0     H46484   9.060   4.216   6.772 -1.9390  0.1223 -1.4037
  337MOL0     H46485   9.034   4.054   6.806 -1.9399 -0.8575  2.4242
  337MOL0     H46486   8.362   3.569   7.543  1.5255  0.9069 -1.1790
  337MOL0     H46487   8.133   3.634   7.656  0.8507 -1.5501 -0.3403
  337MOL0     H46488   7.809   3.977   7.671 -0.2521 -0.0503  1.0528
  337MOL0     H46489   7.610   4.106   7.719  1.3653 -1.2570  1.8734
  337MOL0     H46490   5.526   4.610   7.287 -0.5613  0.2095  2.3257
  337MOL0     H46491   5.382   4.497   7.462  0.3676 -1.2996  1.1074
  337MOL0     H46492   5.246   4.037   7.621 -0.8367 -1.3868  1.3129
  337MOL0     H46493   5.109   3.951   7.795 -1.1844  1.1398  0.8257
  337MOL0     H46494   4.912   3.987   8.120 -0.8499  0.6314 -1.4417
  337MOL0     H46495   4.917   3.982   7.946  0.4779  3.9356 -0.2261
  337MOL0     H46496   5.089   3.801   8.124 -1.8598 -4.5770  0.2074
  337MOL0     H46497   5.104   3.796   7.961  3.5954  0.8344  2.0175
  337MOL0     H46498   4.956   3.642   8.117  0.4222  1.0689  2.5977
  337MOL0     H46499   4.835   3.769   8.109 -0.5753 -0.5822 -0.5141
  337MOL0     H46500   4.773   3.742   7.892 -1.4591  0.5284  2.1630
  337MOL0     H46501   4.785   3.596   7.954 -3.2054  2.5214  0.2898
  337MOL0     H46502   5.041   3.496   7.656  0.0785  2.3636 -2.0023
  337MOL0     H46503   5.243   4.285   8.048  0.9197  1.8374 -1.0040
  337MOL0     H46504   5.344   4.463   7.962  1.3267  1.5139 -1.9041
  337MOL0     H46505   5.490   4.362   7.961 -1.3402  0.5674  3.7656
  337MOL0     H46506   5.431   4.459   7.821  1.2847  0.2267  1.2380
  338MOL0     O46507   5.923   8.518   0.165 -0.6368  0.0196  0.2494
  338MOL0     C46508   5.945   8.518   0.284 -0.1050  0.3956 -0.2802
  338MOL0     O46509   5.848   8.509   0.381 -0.0709 -0.5706  0.1579
  338MOL0     C46510   5.722   8.461   0.337 -0.6295 -0.2179 -0.2456
  338MOL0     C46511   5.631   8.523   0.258 -0.2175  0.3013 -0.1054
  338MOL0     C46512   5.509   8.466   0.228  0.2115 -0.9579  0.2644
  338MOL0     C46513   5.476   8.342   0.289 -0.4269  0.1332 -1.6904
  338MOL0     O46514   5.359   8.286   0.293  0.2301  0.2310 -0.0084
  338MOL0     C46515   5.275   8.298   0.177 -0.4589  0.1719  0.2146
  338MOL0     C46516   5.333   8.243   0.043 -0.1844 -0.6948  0.2068
  338MOL0     C46517   5.253   8.286  -0.084 -0.3532  0.4180  0.1392
  338MOL0     C46518   5.302   8.418  -0.144 -0.1206  0.0282  0.6292
  338MOL0     C46519   5.193   8.479  -0.237 -0.3041  0.2005  0.7671
  338MOL0     C46520   5.240   8.615  -0.286  0.4557 -0.5060 -0.4690
  338MOL0     C46521   5.127   8.709  -0.293  0.5181 -0.1042 -0.4053
  338MOL0     C46522   5.072   8.755  -0.153  0.6159 -0.5926  0.6598
  338MOL0     N46523   4.960   8.847  -0.180 -0.4682 -0.2845 -0.8766
  338MOL0     C46524   4.850   8.807  -0.236 -0.3561 -0.3805  0.9056
  338MOL0     C46525   4.801   8.916  -0.308 -0.0324 -0.3172 -0.0104
  338MOL0     C46526   4.663   8.928  -0.378  0.2951 -0.1164 -0.5259
  338MOL0     C46527   4.658   9.049  -0.482  0.2615 -0.0243 -0.8120
  338MOL0     C46528   4.607   9.176  -0.406 -1.1643 -0.5052 -0.1120
  338MOL0     C46529   4.459   9.213  -0.444 -0.2101 -1.2701  0.0945
  338MOL0     O46530   4.435   9.333  -0.369 -0.4857  0.2806  0.4385
  338MOL0     C46531   4.316   9.397  -0.366 -0.3019 -0.5395 -0.3494
  338MOL0     C46532   4.296   9.508  -0.285  0.2420  0.7935 -0.8637
  338MOL0     C46533   4.185   9.591  -0.298  0.2542 -0.4880  0.0262
  338MOL0     C46534   4.185   9.720  -0.216 -0.0876  0.7639 -0.2314
  338MOL0     C46535   4.076   9.545  -0.379  0.4904 -0.3540 -0.4062
  338MOL0     C46536   3.945   9.624  -0.392 -0.3054  0.1383 -0.5796
  338MOL0     O46537   3.844   9.559  -0.456  0.3628  0.5460  0.3926
  338MOL0     C46538   3.739   9.630  -0.506 -0.9613 -1.0974  0.1832
  338MOL0     C46539   3.612   9.570  -0.504  0.4177 -0.2193 -0.3625
  338MOL0     C46540   3.498   9.643  -0.544 -0.1495  1.0921  1.1918
  338MOL0     C46541   3.501   9.769  -0.606  0.9392 -0.9733  0.7133
  338MOL0     O46542   3.385   9.830  -0.645  0.3509 -0.4450 -0.4330
  338MOL0     C46543   3.383   9.969  -0.688  0.8824 -0.3009  0.0606
  338MOL0     C46544   3.251   9.975  -0.769 -0.9666  0.3127  0.1888
  338MOL0     C46545   3.240  10.106  -0.840 -0.3731  0.6816 -0.5824
  338MOL0     C46546   3.108  10.143  -0.893 -0.5722 -0.0928  0.7365
  338MOL0     C46547   3.126  10.283  -0.971  0.8598  0.4648 -0.1146
  338MOL0     C46548   2.997  10.348  -1.014  0.2378 -0.3316  1.0780
  338MOL0     C46549   3.004  10.470  -1.104 -0.8875  0.2211  0.3656
  338MOL0     C46550   2.868  10.526  -1.147  0.1131 -0.1991  0.3949
  338MOL0    Cl46551   2.883  10.599  -1.316  0.1276 -0.1217 -0.6774
  338MOL0     C46552   3.628   9.828  -0.615  0.3244 -0.2374  0.8089
  338MOL0     C46553   3.742   9.761  -0.568 -0.1511  0.1016 -0.4818
  338MOL0     O46554   3.950   9.747  -0.364  0.3268  0.5887  0.2449
  338MOL0     C46555   4.089   9.420  -0.450  0.3044 -0.9765  0.6279
  338MOL0     C46556   4.206   9.351  -0.449 -1.0745  0.3528 -0.3099
  338MOL0     N46557   4.879   9.027  -0.272 -0.3893 -0.4327 -0.3934
  338MOL0     N46558   4.976   8.980  -0.201  0.2233  0.0020  0.0209
  338MOL0     C46559   5.568   8.280   0.383 -0.2334 -0.6992 -0.5332
  338MOL0     C46560   5.685   8.340   0.405 -0.3112  0.6563 -0.4409
  338MOL0     C46561   6.064   8.572   0.348  0.2056 -0.0515  0.0057
  338MOL0     C46562   6.059   8.648   0.466 -0.1232 -1.3485  1.3364
  338MOL0     C46563   6.178   8.686   0.529  0.7938 -0.2237  0.6432
  338MOL0     C46564   6.299   8.657   0.474  0.7326  0.3253 -0.5793
  338MOL0     O46565   6.401   8.709   0.540  0.8307  0.6292 -0.5632
  338MOL0     C46566   6.537   8.677   0.502  0.3405  0.0402 -0.3934
  338MOL0     C46567   6.569   8.527   0.548 -0.1966 -1.1153 -0.4328
  338MOL0     C46568   6.702   8.477   0.489 -0.0754  0.4041  0.1133
  338MOL0     C46569   6.759   8.368   0.572 -0.1170  0.3161  0.8708
  338MOL0     C46570   6.690   8.235   0.580 -0.5657  0.0892  0.3657
  338MOL0     C46571   6.637   8.133   0.582 -0.8475  0.6168  0.5763
  338MOL0     C46572   6.301   8.578   0.355  0.6508 -0.6237  0.0953
  338MOL0     C46573   6.188   8.539   0.290  0.6532  0.3763 -0.8054
  338MOL0     C46574   6.200   8.466   0.159 -1.0271  0.9830  0.1595
  338MOL0     H46575   5.661   8.605   0.194  0.5997  1.5290  1.7691
  338MOL0     H46576   5.429   8.511   0.171  0.0666 -0.6250  0.7256
  338MOL0     H46577   5.238   8.398   0.156  3.0073  1.3986 -0.7525
  338MOL0     H46578   5.179   8.246   0.183 -1.0428  0.9302 -1.7727
  338MOL0     H46579   5.440   8.265   0.036  0.0462 -0.7153  2.7389
  338MOL0     H46580   5.327   8.134   0.043 -0.5197 -0.6972  1.8711
  338MOL0     H46581   5.264   8.207  -0.160  3.8903  0.2198  0.7380
  338MOL0     H46582   5.146   8.303  -0.068 -0.5965 -0.6729 -0.2523
  338MOL0     H46583   5.334   8.493  -0.071 -2.2720  0.9120  0.7089
  338MOL0     H46584   5.392   8.385  -0.199  0.3723 -1.1725  2.0786
  338MOL0     H46585   5.094   8.484  -0.190 -1.2188  2.1936 -1.1559
  338MOL0     H46586   5.178   8.417  -0.326  3.0997  0.9639 -0.4565
  338MOL0     H46587   5.310   8.667  -0.220 -0.1290 -1.6398  1.1203
  338MOL0     H46588   5.288   8.604  -0.384 -0.0433  1.6446 -0.9896
  338MOL0     H46589   5.048   8.659  -0.351 -0.9232  1.3552  0.2153
  338MOL0     H46590   5.144   8.795  -0.358 -0.9259 -1.0795 -2.1783
  338MOL0     H46591   5.035   8.662  -0.109 -0.3458 -1.1615 -1.2102
  338MOL0     H46592   5.151   8.798  -0.092  1.4692  1.2964 -1.6247
  338MOL0     H46593   4.796   8.713  -0.231 -0.5252 -0.4753 -1.4844
  338MOL0     H46594   4.593   8.941  -0.296  1.9937  0.9792  0.7948
  338MOL0     H46595   4.647   8.835  -0.434  1.8795  0.1860 -1.5376
  338MOL0     H46596   4.758   9.079  -0.515 -0.7182 -0.2332 -4.3228
  338MOL0     H46597   4.593   9.025  -0.567 -2.6181  1.2081  0.9025
  338MOL0     H46598   4.610   9.174  -0.297 -1.2043 -1.2312 -0.1197
  338MOL0     H46599   4.679   9.245  -0.451  1.4345 -4.7050 -3.1630
  338MOL0     H46600   4.448   9.233  -0.551  0.0735  0.0143  0.2871
  338MOL0     H46601   4.386   9.139  -0.409  1.4834 -2.5324  1.1137
  338MOL0     H46602   4.378   9.520  -0.214  1.5291 -4.2959 -1.0706
  338MOL0     H46603   4.124   9.701  -0.127 -0.3325 -2.2324 -0.9246
  338MOL0     H46604   4.161   9.804  -0.283  0.4017  0.3181 -0.9786
  338MOL0     H46605   4.285   9.749  -0.182 -0.5891  2.4925 -0.1325
  338MOL0     H46606   3.601   9.475  -0.452 -1.5593  0.8933  1.4132
  338MOL0     H46607   3.403   9.593  -0.528 -0.5961  1.0986 -1.1593
  338MOL0     H46608   3.397  10.046  -0.611 -0.9676  2.3773 -2.0624
  338MOL0     H46609   3.465   9.988  -0.758  1.0781  1.5223  0.7402
  338MOL0     H46610   3.261   9.893  -0.841 -0.9272  2.9944 -3.0888
  338MOL0     H46611   3.175   9.970  -0.689  1.2656  1.3805  2.5353
  338MOL0     H46612   3.316  10.101  -0.918  1.0733  0.5490  0.7721
  338MOL0     H46613   3.288  10.174  -0.768 -0.2180 -1.7663  1.8081
  338MOL0     H46614   3.043  10.163  -0.807  0.1571  2.8114  0.7167
  338MOL0     H46615   3.073  10.075  -0.971 -0.0229  3.6748 -3.0965
  338MOL0     H46616   3.187  10.347  -0.907 -0.0787  2.5622 -1.2137
  338MOL0     H46617   3.177  10.274  -1.068  0.1929  2.0676 -0.6426
  338MOL0     H46618   2.947  10.382  -0.923 -1.1717  0.3531  0.1048
  338MOL0     H46619   2.933  10.272  -1.059  0.8550 -1.1490  1.5704
  338MOL0     H46620   3.075  10.444  -1.183  0.3577 -0.4309  1.6660
  338MOL0     H46621   3.053  10.547  -1.044 -0.8072 -0.5938  1.3873
  338MOL0     H46622   2.851  10.604  -1.072  1.1835 -0.8832  1.3801
  338MOL0     H46623   2.794  10.445  -1.143 -0.5258  0.4090  1.2510
  338MOL0     H46624   3.640   9.924  -0.663  0.0893 -0.4614  0.2921
  338MOL0     H46625   3.837   9.814  -0.576 -0.4847  0.5761 -1.3731
  338MOL0     H46626   4.009   9.385  -0.515  0.3740  0.7254 -0.4552
  338MOL0     H46627   4.232   9.268  -0.514 -1.8494  0.2853 -0.5431
  338MOL0     H46628   5.541   8.193   0.443 -1.5113  0.3431  0.4577
  338MOL0     H46629   5.757   8.296   0.473 -2.0519 -1.1229  0.3521
  338MOL0     H46630   5.971   8.700   0.503  0.7400  1.4168 -0.2062
  338MOL0     H46631   6.183   8.739   0.624 -0.7167 -2.1886  1.9048
  338MOL0     H46632   6.566   8.695   0.398  3.9549 -0.6454  0.3655
  338MOL0     H46633   6.601   8.736   0.569  0.7217 -0.0125 -0.7073
  338MOL0     H46634   6.490   8.453   0.536  0.6754 -1.7713 -2.4138
  338MOL0     H46635   6.575   8.537   0.657 -0.2189  2.7374 -0.6453
  338MOL0     H46636   6.679   8.435   0.391 -1.2705  0.0569  0.5232
  338MOL0     H46637   6.764   8.567   0.479 -3.3044  3.0680  2.0487
  338MOL0     H46638   6.749   8.415   0.670 -0.7761  0.6136  0.6643
  338MOL0     H46639   6.864   8.344   0.550 -0.7642 -0.2890 -1.9345
  338MOL0     H46640   6.581   8.043   0.597 -2.9840  2.1371  2.4634
  338MOL0     H46641   6.400   8.565   0.312 -0.0053 -3.5150 -0.7867
  338MOL0     H46642   6.188   8.538   0.077 -0.0491 -0.0808 -0.9614
  338MOL0     H46643   6.300   8.425   0.144 -0.8856  1.7475 -1.1447
  338MOL0     H46644   6.131   8.385   0.138  2.1153 -1.2848 -2.5010
  339MOL0     O46645   8.840   3.158   6.448  0.3564  0.5685  0.8408
  339MOL0     C46646   8.892   3.197   6.345 -0.4492  0.0679  1.3161
  339MOL0     O46647   8.834   3.183   6.217 -0.2702 -0.0712 -0.6375
  339MOL0     C46648   8.729   3.097   6.211  0.7889 -0.1069  0.5855
  339MOL0     C46649   8.601   3.148   6.186  0.5003 -0.6697 -0.1424
  339MOL0     C46650   8.491   3.071   6.161 -0.2970 -0.9864 -0.1430
  339MOL0     C46651   8.495   2.937   6.174 -0.5324 -0.2694 -0.5514
  339MOL0     O46652   8.391   2.852   6.137  0.6118  0.2119 -0.1970
  339MOL0     C46653   8.305   2.811   6.238  0.3956 -0.2164  0.6758
  339MOL0     C46654   8.247   2.668   6.223  1.2541  0.2585  0.3615
  339MOL0     C46655   8.158   2.669   6.099 -0.2016  0.0565 -0.5059
  339MOL0     C46656   8.033   2.763   6.126 -0.3101 -0.5924  0.1358
  339MOL0     C46657   7.911   2.736   6.037 -0.2328 -0.1276 -0.3530
  339MOL0     C46658   7.960   2.745   5.886  0.3207  0.8628 -0.0478
  339MOL0     C46659   7.828   2.740   5.799 -1.0536 -0.5376  0.4847
  339MOL0     C46660   7.860   2.686   5.657 -0.0675  0.6060  0.1561
  339MOL0     N46661   7.974   2.738   5.571  0.0106  0.6389 -0.1834
  339MOL0     C46662   8.115   2.704   5.586  0.8933  1.3109  0.2523
  339MOL0     C46663   8.179   2.799   5.516  0.3870  0.4474 -0.4563
  339MOL0     C46664   8.330   2.797   5.481  0.5956  0.9563  0.7220
  339MOL0     C46665   8.425   2.841   5.594 -0.6566  0.8398  0.2931
  339MOL0     C46666   8.453   2.736   5.694  0.4706  0.4360 -0.6265
  339MOL0     C46667   8.549   2.802   5.800 -0.3482  0.5147  1.0438
  339MOL0     O46668   8.667   2.852   5.727 -0.0607 -0.4379 -0.4465
  339MOL0     C46669   8.730   2.976   5.752 -0.1733 -0.1642 -0.0650
  339MOL0     C46670   8.852   2.999   5.679 -0.7286 -1.2036  0.5251
  339MOL0     C46671   8.928   3.122   5.703  0.2574 -0.5501  0.1738
  339MOL0     C46672   9.053   3.130   5.617 -0.2773 -0.2822  0.1632
  339MOL0     C46673   8.872   3.222   5.793 -0.1113  1.3085 -0.8905
  339MOL0     C46674   8.934   3.360   5.821  0.4731 -0.9153 -0.1734
  339MOL0     O46675   9.051   3.400   5.757  0.2339 -0.5973 -0.0735
  339MOL0     C46676   9.119   3.498   5.821 -0.3426 -0.5935 -0.3787
  339MOL0     C46677   9.252   3.462   5.853  0.3660 -0.4836 -0.0521
  339MOL0     C46678   9.336   3.557   5.902  0.1946 -0.1418  0.0102
  339MOL0     C46679   9.290   3.684   5.936  1.3448  0.4653  0.1881
  339MOL0     O46680   9.392   3.773   5.971  0.5004  0.1590 -0.3225
  339MOL0     C46681   9.357   3.878   6.067 -0.2127 -0.1100 -0.0593
  339MOL0     C46682   9.312   3.825   6.204  0.2440 -0.5835 -0.5432
  339MOL0     C46683   9.318   3.938   6.315 -0.2543  0.1271 -0.8595
  339MOL0     C46684   9.220   3.927   6.429  0.7322 -0.0238  0.1249
  339MOL0     C46685   9.229   4.056   6.521  0.0773  0.4311 -0.2861
  339MOL0     C46686   9.359   4.096   6.590 -1.1508 -0.2132 -0.3802
  339MOL0     C46687   9.354   4.235   6.659  0.3041 -0.5094  0.2767
  339MOL0     C46688   9.489   4.265   6.721 -0.4906  1.1302  0.4063
  339MOL0    Cl46689   9.522   4.146   6.847 -0.1495 -0.1739 -0.2144
  339MOL0     C46690   9.163   3.733   5.896 -0.0459  0.7308  0.2636
  339MOL0     C46691   9.069   3.634   5.855 -0.4138 -0.8716 -0.5197
  339MOL0     O46692   8.864   3.435   5.890  0.3135  0.0547 -0.9087
  339MOL0     C46693   8.756   3.186   5.873 -0.0300  0.5678  0.7674
  339MOL0     C46694   8.692   3.071   5.850 -0.5112  0.6293 -0.5276
  339MOL0     N46695   8.090   2.892   5.479  0.6446 -0.1475 -0.4374
  339MOL0     N46696   7.967   2.850   5.498  0.4168  0.6850 -0.3397
  339MOL0     C46697   8.615   2.880   6.202 -1.3702 -0.8672  0.8266
  339MOL0     C46698   8.733   2.959   6.221  0.5202 -0.0898 -0.5567
  339MOL0     C46699   9.028   3.262   6.354  1.1387 -0.4025  0.5739
  339MOL0     C46700   9.060   3.355   6.250 -0.0703  0.2520  1.2236
  339MOL0     C46701   9.192   3.411   6.243 -0.8621 -0.5700  0.0757
  339MOL0     C46702   9.287   3.391   6.347  0.5026 -0.3060 -0.4950
  339MOL0     O46703   9.414   3.448   6.326  0.4596 -0.1404  0.5059
  339MOL0     C46704   9.537   3.393   6.393  0.8430 -0.6065  0.4907
  339MOL0     C46705   9.665   3.435   6.316  0.6147 -0.6234 -0.3354
  339MOL0     C46706   9.657   3.389   6.168 -0.4569 -0.4826  0.6434
  339MOL0     C46707   9.798   3.428   6.108  0.0276 -0.0456 -0.1323
  339MOL0     C46708   9.801   3.572   6.077 -1.4422 -0.0796  0.1254
  339MOL0     C46709   9.802   3.695   6.069 -0.3599  1.1286 -0.1502
  339MOL0     C46710   9.250   3.312   6.459  0.4159 -0.5696  0.1541
  339MOL0     C46711   9.122   3.251   6.465 -0.0792  0.3068  0.0667
  339MOL0     C46712   9.082   3.173   6.589  0.4061 -0.6062  0.2369
  339MOL0     H46713   8.589   3.256   6.188  2.1577 -0.4588  2.3401
  339MOL0     H46714   8.393   3.106   6.131 -1.4802 -1.5928  2.7220
  339MOL0     H46715   8.226   2.885   6.249 -0.9651 -1.2144 -1.6213
  339MOL0     H46716   8.366   2.793   6.327  1.1511  1.2685  0.4862
  339MOL0     H46717   8.321   2.590   6.208  3.1230  2.6267 -6.0767
  339MOL0     H46718   8.190   2.648   6.314  0.9235 -1.2860 -0.1585
  339MOL0     H46719   8.210   2.713   6.013  5.1346  0.6044  2.6167
  339MOL0     H46720   8.134   2.565   6.074  0.6464 -1.2232  3.3345
  339MOL0     H46721   8.005   2.732   6.227  2.9914 -5.2079 -0.0111
  339MOL0     H46722   8.053   2.870   6.126 -0.6420 -0.5272  0.7495
  339MOL0     H46723   7.835   2.807   6.069  0.5805 -0.4647  2.5837
  339MOL0     H46724   7.870   2.636   6.051  1.6292 -0.8631  0.2534
  339MOL0     H46725   8.026   2.829   5.862  4.3962 -1.4789  1.7428
  339MOL0     H46726   8.016   2.653   5.863 -1.0096 -0.2501  0.9608
  339MOL0     H46727   7.801   2.845   5.793 -0.9795 -0.3693  2.4614
  339MOL0     H46728   7.742   2.693   5.848  0.6431 -3.0446  1.2648
  339MOL0     H46729   7.876   2.580   5.678  0.3383  0.1943 -1.9369
  339MOL0     H46730   7.773   2.695   5.591  0.6407  0.5894 -0.7969
  339MOL0     H46731   8.166   2.621   5.635  0.8072  1.5839  0.8118
  339MOL0     H46732   8.350   2.872   5.404  0.5106  1.8486  1.5511
  339MOL0     H46733   8.352   2.697   5.442  1.5510  1.7666 -0.9015
  339MOL0     H46734   8.520   2.869   5.548 -0.3682 -4.2867 -3.0791
  339MOL0     H46735   8.384   2.929   5.644 -2.2168  0.8145 -0.8724
  339MOL0     H46736   8.362   2.708   5.747  1.7435  0.8803  1.9605
  339MOL0     H46737   8.499   2.652   5.640 -3.9438 -1.9704 -1.1190
  339MOL0     H46738   8.491   2.880   5.850 -5.0618 -0.5614 -2.1397
  339MOL0     H46739   8.592   2.721   5.860  2.5812  1.1494 -0.0033
  339MOL0     H46740   8.875   2.936   5.594  0.0316 -2.6056  1.7187
  339MOL0     H46741   9.093   3.036   5.576 -0.3443 -0.0111 -0.5447
  339MOL0     H46742   9.136   3.166   5.678  1.3988  4.1736 -4.0494
  339MOL0     H46743   9.040   3.198   5.532 -1.3048 -1.3424 -0.5701
  339MOL0     H46744   9.293   3.368   5.818  0.5275  0.6721 -3.2630
  339MOL0     H46745   9.439   3.537   5.932  0.1885  0.9618  0.8349
  339MOL0     H46746   9.446   3.939   6.086 -1.0514  0.4567  2.3867
  339MOL0     H46747   9.274   3.938   6.028 -0.1883  0.7922  1.2058
  339MOL0     H46748   9.206   3.799   6.195 -0.1307  1.3103 -2.4908
  339MOL0     H46749   9.374   3.743   6.240 -2.1557 -1.8848  0.9247
  339MOL0     H46750   9.285   4.027   6.260 -1.7397 -0.5352 -1.0921
  339MOL0     H46751   9.414   3.947   6.367 -1.6993  2.8034  1.7241
  339MOL0     H46752   9.255   3.844   6.491  1.9471 -0.4801 -1.1111
  339MOL0     H46753   9.121   3.925   6.384  0.3447  3.3035  0.5533
  339MOL0     H46754   9.198   4.137   6.453 -1.2233 -0.7333 -1.1275
  339MOL0     H46755   9.159   4.052   6.604 -0.5976 -2.7529 -0.8822
  339MOL0     H46756   9.425   4.109   6.503 -0.0860  0.2930  0.4835
  339MOL0     H46757   9.390   4.007   6.645 -1.5489 -0.6621 -0.8681
  339MOL0     H46758   9.275   4.252   6.733  0.7922  0.9818  0.4777
  339MOL0     H46759   9.337   4.312   6.584  0.4505  1.3885  2.1145
  339MOL0     H46760   9.489   4.368   6.760 -0.9777  2.8569 -3.6870
  339MOL0     H46761   9.570   4.265   6.648  1.7602 -1.2887  2.6814
  339MOL0     H46762   9.127   3.834   5.912 -0.2980  0.2397  3.4392
  339MOL0     H46763   8.965   3.658   5.832 -0.6322  0.6214  1.7552
  339MOL0     H46764   8.718   3.260   5.944  1.1022  2.4995 -0.5570
  339MOL0     H46765   8.605   3.061   5.914 -0.7366 -1.8632 -1.1089
  339MOL0     H46766   8.619   2.772   6.214 -0.4057 -0.9286  0.1100
  339MOL0     H46767   8.827   2.911   6.247  1.4225  2.8692  2.3146
  339MOL0     H46768   8.983   3.371   6.176 -0.4622  0.3673  1.6484
  339MOL0     H46769   9.209   3.481   6.162 -7.4083  2.7340  0.8372
  339MOL0     H46770   9.551   3.437   6.492  0.4322 -2.5825  1.4776
  339MOL0     H46771   9.535   3.284   6.402  3.9482 -0.8548 -0.8287
  339MOL0     H46772   9.754   3.395   6.366 -0.9753 -1.4594  2.0075
  339MOL0     H46773   9.678   3.543   6.320  2.1258 -0.8161  0.8175
  339MOL0     H46774   9.634   3.282   6.159  4.1456 -1.6479  0.3153
  339MOL0     H46775   9.580   3.456   6.129  1.3048  1.4821  0.3785
  339MOL0     H46776   9.811   3.370   6.017  3.1527 -1.6201  1.1679
  339MOL0     H46777   9.887   3.411   6.171 -0.3755  1.5710  0.9336
  339MOL0     H46778   9.802   3.802   6.075 -0.0882  1.1124  0.2146
  339MOL0     H46779   9.318   3.297   6.542 -1.7778 -0.6645  2.0250
  339MOL0     H46780   9.072   3.068   6.561 -1.2475 -1.0008  2.1072
  339MOL0     H46781   9.147   3.178   6.677 -0.1663 -0.3272  0.6434
  339MOL0     H46782   8.987   3.221   6.612  0.3233 -0.0800 -1.0902
  340MOL0     O46783   5.703   7.143   2.000  0.7930 -0.2998 -0.1414
  340MOL0     C46784   5.651   7.186   2.100  0.0500  0.4566 -0.3001
  340MOL0     O46785   5.561   7.125   2.187  0.5361 -0.0230 -0.5268
  340MOL0     C46786   5.505   6.998   2.166 -0.1113  1.1877  0.8681
  340MOL0     C46787   5.506   6.918   2.046  0.3450  0.8358  0.0781
  340MOL0     C46788   5.487   6.782   2.046 -0.0623  1.1011  0.2231
  340MOL0     C46789   5.457   6.711   2.165 -0.1544 -0.7078 -0.4947
  340MOL0     O46790   5.455   6.578   2.165 -0.3050  0.8658  0.0124
  340MOL0     C46791   5.403   6.490   2.273  0.0973 -0.3970  0.1690
  340MOL0     C46792   5.508   6.478   2.383  0.4923 -0.5810 -0.3948
  340MOL0     C46793   5.447   6.402   2.497 -0.3600  0.8927 -0.8131
  340MOL0     C46794   5.564   6.337   2.580 -0.0041 -0.8059  0.2717
  340MOL0     C46795   5.530   6.293   2.714  0.6687  0.6132  0.1241
  340MOL0     C46796   5.397   6.235   2.722  0.3151  0.0075 -0.9961
  340MOL0     C46797   5.398   6.176   2.869  1.1261 -0.1187  0.3646
  340MOL0     C46798   5.252   6.120   2.883  0.0517 -0.7004  0.5526
  340MOL0     N46799   5.231   6.051   3.011 -0.4555 -1.9347 -0.1375
  340MOL0     C46800   5.251   6.101   3.142 -0.1484 -0.4537  0.6914
  340MOL0     C46801   5.227   5.990   3.212 -0.1691  0.3040  0.8445
  340MOL0     C46802   5.233   5.983   3.365 -0.0820  1.0900 -0.3727
  340MOL0     C46803   5.384   5.945   3.411  0.4227 -0.0008 -0.4250
  340MOL0     C46804   5.376   5.947   3.568 -1.1305 -0.1098 -1.0934
  340MOL0     C46805   5.463   6.065   3.632  0.9020  0.5449  0.5612
  340MOL0     O46806   5.608   6.044   3.615 -0.0555  0.2534 -0.5611
  340MOL0     C46807   5.697   6.142   3.651 -0.2964  0.3309  0.1494
  340MOL0     C46808   5.647   6.262   3.720  0.2718  0.1059 -0.0977
  340MOL0     C46809   5.738   6.359   3.751  0.9539 -0.9372 -0.1866
  340MOL0     C46810   5.673   6.466   3.842  0.3281  0.2361  0.1107
  340MOL0     C46811   5.873   6.351   3.718 -0.5815 -0.4669  0.1601
  340MOL0     C46812   5.980   6.452   3.749  0.0967  0.3270 -0.7116
  340MOL0     O46813   6.095   6.400   3.809 -0.0802 -0.1599  0.0917
  340MOL0     C46814   6.202   6.489   3.801 -0.6242  0.2030  0.6239
  340MOL0     C46815   6.268   6.555   3.694  0.3890 -0.3327 -0.2303
  340MOL0     C46816   6.361   6.655   3.705  0.5422  0.5303  0.8365
  340MOL0     C46817   6.401   6.690   3.835 -0.8757 -0.5076  0.4446
  340MOL0     O46818   6.509   6.777   3.843 -0.0707 -0.5486  0.3274
  340MOL0     C46819   6.636   6.730   3.807 -0.5377  0.3023  0.2791
  340MOL0     C46820   6.683   6.820   3.688  0.3191 -0.0088 -0.5372
  340MOL0     C46821   6.805   6.759   3.620  0.2455  1.1844 -0.3110
  340MOL0     C46822   6.932   6.769   3.707  0.4619  0.3374  0.4719
  340MOL0     C46823   7.059   6.721   3.625  1.2625 -0.2136 -0.3858
  340MOL0     C46824   7.187   6.751   3.701 -0.0927  0.2515  0.7431
  340MOL0     C46825   7.291   6.647   3.652  0.7623  0.4588  0.1120
  340MOL0     C46826   7.397   6.631   3.754  0.0034 -0.8459  0.2853
  340MOL0    Cl46827   7.330   6.551   3.894  0.2968  0.1815  0.3448
  340MOL0     C46828   6.346   6.630   3.942  0.2036 -0.0471  1.1340
  340MOL0     C46829   6.241   6.540   3.927  0.1661  0.2410  0.8901
  340MOL0     O46830   5.966   6.573   3.707 -0.3184  0.5170  0.6045
  340MOL0     C46831   5.916   6.236   3.655  0.2359 -0.0766 -0.6749
  340MOL0     C46832   5.832   6.130   3.624 -0.0496 -0.5439 -0.7377
  340MOL0     N46833   5.203   5.877   3.126 -0.0107 -0.2465 -0.1313
  340MOL0     N46834   5.194   5.925   3.011  0.7565 -0.4547 -0.4097
  340MOL0     C46835   5.438   6.790   2.279  0.3231 -0.4930 -0.9790
  340MOL0     C46836   5.453   6.928   2.279 -0.2251  0.2193 -0.5838
  340MOL0     C46837   5.690   7.318   2.142  0.3681 -0.2638  0.3839
  340MOL0     C46838   5.823   7.348   2.126  0.1415 -0.2424 -0.6253
  340MOL0     C46839   5.868   7.467   2.164  0.3803 -0.3612  0.1802
  340MOL0     C46840   5.794   7.551   2.242 -0.5241 -0.0489  0.4581
  340MOL0     O46841   5.839   7.677   2.265  0.2374  1.1422 -0.5143
  340MOL0     C46842   5.779   7.779   2.185  0.4577 -0.5178  0.1029
  340MOL0     C46843   5.738   7.899   2.270  0.1079  0.5883 -0.7055
  340MOL0     C46844   5.811   8.020   2.213 -0.1092  0.5077  0.2452
  340MOL0     C46845   5.805   8.151   2.291  0.8143  0.0746  0.0957
  340MOL0     C46846   5.864   8.141   2.423 -0.2979 -0.8538  0.1912
  340MOL0     C46847   5.915   8.135   2.531  0.3605 -0.5475  1.1197
  340MOL0     C46848   5.657   7.523   2.269 -0.6837  0.2793  0.5377
  340MOL0     C46849   5.602   7.409   2.214 -0.1428 -0.2627 -1.0242
  340MOL0     C46850   5.456   7.386   2.257  0.7896  0.0712 -0.0997
  340MOL0     H46851   5.530   6.963   1.950 -2.2847  1.6458 -0.2722
  340MOL0     H46852   5.500   6.722   1.957 -0.1974  1.7100 -0.2097
  340MOL0     H46853   5.373   6.389   2.242  4.0287 -1.7858  0.3800
  340MOL0     H46854   5.317   6.531   2.327  0.1285 -0.3245  0.1641
  340MOL0     H46855   5.596   6.442   2.328  1.1526  4.7232 -3.4989
  340MOL0     H46856   5.543   6.573   2.422  0.3616 -0.7165  0.0627
  340MOL0     H46857   5.402   6.473   2.567  4.1108  2.1574  1.1990
  340MOL0     H46858   5.374   6.329   2.461  0.2867 -0.8611  1.1617
  340MOL0     H46859   5.590   6.253   2.516 -2.0216 -0.2610 -1.3708
  340MOL0     H46860   5.650   6.402   2.597 -1.7944  1.9053 -0.2744
  340MOL0     H46861   5.544   6.378   2.781  2.8508  0.6773 -0.3343
  340MOL0     H46862   5.615   6.231   2.745 -0.9534 -1.7705  0.0744
  340MOL0     H46863   5.306   6.288   2.693 -0.6958 -0.6435  0.8501
  340MOL0     H46864   5.411   6.153   2.651  1.5223  1.4347 -2.4822
  340MOL0     H46865   5.422   6.251   2.944 -0.3469  2.4029 -1.5264
  340MOL0     H46866   5.464   6.092   2.893  1.0418 -0.0108  0.9969
  340MOL0     H46867   5.188   6.209   2.879 -1.5804 -1.8363 -3.1534
  340MOL0     H46868   5.219   6.067   2.793 -1.6310  1.7546 -0.3703
  340MOL0     H46869   5.296   6.193   3.178  0.6380 -1.7119  3.2174
  340MOL0     H46870   5.172   5.896   3.390  0.1502  1.1281  0.3516
  340MOL0     H46871   5.202   6.075   3.416  0.4063  0.0698  1.9063
  340MOL0     H46872   5.408   5.843   3.378  3.0954 -0.1653  1.6805
  340MOL0     H46873   5.457   6.015   3.370 -0.9251  1.1148 -1.0137
  340MOL0     H46874   5.275   5.972   3.602  0.2328  5.5026 -0.1262
  340MOL0     H46875   5.418   5.852   3.604  4.8983  2.3206 -0.4527
  340MOL0     H46876   5.431   6.162   3.595  0.1180 -0.5523 -1.8310
  340MOL0     H46877   5.443   6.070   3.739 -1.3934 -1.4047  0.3009
  340MOL0     H46878   5.548   6.278   3.763  0.3067  3.2271 -0.8915
  340MOL0     H46879   5.602   6.418   3.909  0.9783 -1.4397 -0.3405
  340MOL0     H46880   5.621   6.530   3.770  0.0747 -0.8277 -0.6846
  340MOL0     H46881   5.741   6.533   3.896  0.8084  0.6755 -1.0002
  340MOL0     H46882   6.241   6.527   3.593 -0.4552 -0.7143  0.0935
  340MOL0     H46883   6.402   6.706   3.618  1.7465 -0.1540  0.9885
  340MOL0     H46884   6.717   6.727   3.880  0.7210 -2.6673 -1.0403
  340MOL0     H46885   6.641   6.623   3.786  4.0394  0.6562 -1.5039
  340MOL0     H46886   6.598   6.850   3.626 -0.7521  0.8912  1.2858
  340MOL0     H46887   6.728   6.908   3.735  1.9718 -0.7130 -0.7274
  340MOL0     H46888   6.811   6.816   3.526 -2.0300  0.4249 -0.9786
  340MOL0     H46889   6.780   6.655   3.596  1.4071  0.9703 -0.6789
  340MOL0     H46890   6.922   6.712   3.800 -1.0725  0.0609  0.1775
  340MOL0     H46891   6.949   6.876   3.714 -2.0030  1.0540 -2.3602
  340MOL0     H46892   7.042   6.615   3.605 -1.0586 -0.1566  0.9642
  340MOL0     H46893   7.061   6.775   3.529 -3.1494 -1.0994 -1.1859
  340MOL0     H46894   7.174   6.734   3.808  1.4927  0.1160  0.9303
  340MOL0     H46895   7.228   6.851   3.688  3.5178 -1.1770 -0.1574
  340MOL0     H46896   7.324   6.683   3.554  0.5961 -2.7525 -1.2701
  340MOL0     H46897   7.239   6.552   3.632  2.0195  0.0518 -1.4142
  340MOL0     H46898   7.430   6.728   3.793 -1.5820  0.1379 -0.7611
  340MOL0     H46899   7.478   6.565   3.720  0.3817 -0.2457  0.0154
  340MOL0     H46900   6.365   6.647   4.048 -0.1957 -0.5262  1.2878
  340MOL0     H46901   6.193   6.510   4.019 -1.7612  2.7673  0.8155
  340MOL0     H46902   6.019   6.232   3.620 -0.3491  0.0478 -2.5607
  340MOL0     H46903   5.856   6.034   3.579 -5.5828 -3.1541  0.9462
  340MOL0     H46904   5.407   6.754   2.377 -0.3704 -1.1329 -1.4278
  340MOL0     H46905   5.430   6.979   2.372 -2.1827 -3.5731  1.2179
  340MOL0     H46906   5.891   7.272   2.087 -1.4552 -2.5245  0.7961
  340MOL0     H46907   5.969   7.499   2.142  1.6821 -1.6306  3.6645
  340MOL0     H46908   5.847   7.807   2.104  1.0331  1.7931  1.2935
  340MOL0     H46909   5.681   7.757   2.141  0.9064  1.0172 -1.8197
  340MOL0     H46910   5.770   7.877   2.372  0.7482 -0.5303 -1.1342
  340MOL0     H46911   5.629   7.909   2.265 -0.0150 -0.8304 -1.5454
  340MOL0     H46912   5.916   7.997   2.194 -0.1428  0.5041  0.0647
  340MOL0     H46913   5.765   8.037   2.115 -3.8568 -0.5161  1.6378
  340MOL0     H46914   5.699   8.177   2.298  0.3529 -0.8983 -2.3209
  340MOL0     H46915   5.855   8.232   2.239 -2.2284  2.6739  0.9017
  340MOL0     H46916   5.948   8.157   2.630 -1.0021  1.2831  1.2202
  340MOL0     H46917   5.612   7.593   2.339 -1.4663 -1.3569  1.7224
  340MOL0     H46918   5.403   7.482   2.261 -0.9890 -0.8617  0.0654
  340MOL0     H46919   5.395   7.331   2.185  0.1043  1.6748 -0.7852
  340MOL0     H46920   5.444   7.331   2.351 -0.3021  0.8311  0.2418
  341MOL0     O46921   4.253   3.576  11.058 -0.0473 -0.6814  0.6965
  341MOL0     C46922   4.303   3.591  11.168  0.8227  1.0737  1.0270
  341MOL0     O46923   4.401   3.508  11.224 -0.2019  0.6647 -0.9293
  341MOL0     C46924   4.476   3.407  11.155  0.7666  0.1223  0.3522
  341MOL0     C46925   4.549   3.315  11.231  0.7153 -0.2089  0.2164
  341MOL0     C46926   4.625   3.213  11.174 -0.3772 -0.3011  0.1490
  341MOL0     C46927   4.622   3.188  11.036  0.1895  0.9438  0.4424
  341MOL0     O46928   4.664   3.072  10.976 -0.9405  0.9117 -0.7722
  341MOL0     C46929   4.635   2.948  11.052 -0.4193  0.7765 -0.4430
  341MOL0     C46930   4.485   2.923  11.061 -0.6510 -0.3526  0.3538
  341MOL0     C46931   4.394   2.923  10.932 -0.4723 -0.2610  1.1272
  341MOL0     C46932   4.425   2.792  10.865 -0.2224  0.0912  0.0265
  341MOL0     C46933   4.321   2.759  10.755 -0.3134  0.4623 -0.2685
  341MOL0     C46934   4.342   2.640  10.665  0.3264 -0.2816 -0.0873
  341MOL0     C46935   4.347   2.502  10.742 -0.4229 -0.0672  0.1639
  341MOL0     C46936   4.204   2.457  10.792 -0.1501 -0.9625 -0.3094
  341MOL0     N46937   4.223   2.334  10.882 -0.0162  0.5245  0.2718
  341MOL0     C46938   4.165   2.212  10.856 -0.5074  1.1457 -0.0416
  341MOL0     C46939   4.227   2.134  10.954  0.7468  0.5952  0.6491
  341MOL0     C46940   4.202   1.980  10.968 -1.1102 -0.5818 -0.2497
  341MOL0     C46941   4.150   1.932  11.098 -0.8498  0.3310 -0.4385
  341MOL0     C46942   4.020   1.986  11.160 -0.3745  0.8151 -0.4926
  341MOL0     C46943   4.022   1.950  11.308  0.9042  0.3329  0.0044
  341MOL0     O46944   4.031   1.804  11.334 -0.0631 -0.7966  0.4107
  341MOL0     C46945   4.096   1.778  11.448  0.3644  0.4433  0.7770
  341MOL0     C46946   4.229   1.723  11.430 -0.1752 -0.4248 -0.5052
  341MOL0     C46947   4.306   1.677  11.537 -0.5254  0.0886  0.3028
  341MOL0     C46948   4.454   1.645  11.527 -0.7139 -0.2044 -0.0566
  341MOL0     C46949   4.247   1.696  11.665 -0.6410  0.4220 -0.8193
  341MOL0     C46950   4.324   1.668  11.785 -0.0522  0.0531 -1.3918
  341MOL0     O46951   4.297   1.756  11.888  0.0873 -0.0226  0.7090
  341MOL0     C46952   4.370   1.746  12.002  0.7790 -0.4806  0.3078
  341MOL0     C46953   4.440   1.859  12.040  0.8033 -0.4925 -0.2068
  341MOL0     C46954   4.519   1.849  12.155  0.5277 -0.0607 -0.3477
  341MOL0     C46955   4.519   1.738  12.235  0.4129 -0.9161  0.3855
  341MOL0     O46956   4.585   1.747  12.353 -0.3419 -0.1486 -0.1465
  341MOL0     C46957   4.727   1.735  12.336 -0.1539  0.4903 -0.5230
  341MOL0     C46958   4.794   1.802  12.461 -0.4785  1.1377 -0.0580
  341MOL0     C46959   4.949   1.762  12.447  0.6987 -0.3258  0.1560
  341MOL0     C46960   5.015   1.800  12.585  0.4377 -0.0667  0.0832
  341MOL0     C46961   5.171   1.801  12.592 -0.9731  0.2974  0.5015
  341MOL0     C46962   5.228   1.885  12.707  1.0325 -0.3540 -0.5495
  341MOL0     C46963   5.373   1.846  12.762 -1.0863 -0.8498 -0.0342
  341MOL0     C46964   5.393   1.701  12.812 -0.1257  0.4438 -0.0005
  341MOL0    Cl46965   5.298   1.644  12.954 -0.3190 -0.1516 -0.1975
  341MOL0     C46966   4.442   1.637  12.203 -0.3183 -0.9206  0.1138
  341MOL0     C46967   4.365   1.637  12.086  0.5990 -0.2355 -1.0124
  341MOL0     O46968   4.399   1.575  11.791  0.0064  0.5775  0.2421
  341MOL0     C46969   4.117   1.741  11.679  0.2843 -0.4194 -0.3684
  341MOL0     C46970   4.049   1.789  11.571  0.8598 -0.6708  0.6461
  341MOL0     N46971   4.321   2.209  11.021 -0.7353 -0.8491  0.6146
  341MOL0     N46972   4.308   2.331  10.982 -0.2677 -0.0232 -0.1489
  341MOL0     C46973   4.547   3.280  10.956 -0.6993 -0.9225 -0.6795
  341MOL0     C46974   4.485   3.393  11.020 -1.3303  0.6539 -0.1733
  341MOL0     C46975   4.262   3.704  11.255 -0.9737 -0.0425 -0.1108
  341MOL0     C46976   4.359   3.752  11.345  0.2642 -0.6166  0.1322
  341MOL0     C46977   4.326   3.860  11.434 -0.5436  0.3722  0.2145
  341MOL0     C46978   4.203   3.910  11.439 -0.8133  0.5441 -1.2875
  341MOL0     O46979   4.189   4.008  11.540 -0.1770 -0.2332  0.9506
  341MOL0     C46980   4.094   4.109  11.515 -0.3125 -1.0536 -0.3954
  341MOL0     C46981   4.139   4.215  11.625  0.8587  0.9139 -0.2312
  341MOL0     C46982   4.040   4.323  11.667  0.3714  0.9257 -0.5586
  341MOL0     C46983   3.930   4.246  11.749 -0.5946  0.8124 -1.0101
  341MOL0     C46984   3.837   4.340  11.804 -0.4923 -0.3152 -0.4925
  341MOL0     C46985   3.753   4.431  11.832 -1.0623  0.7270 -0.0443
  341MOL0     C46986   4.111   3.868  11.347  0.0721 -0.1150  0.1341
  341MOL0     C46987   4.139   3.761  11.256 -0.3100 -0.5826  0.1145
  341MOL0     C46988   4.012   3.710  11.190  0.8295 -0.1166 -0.5010
  341MOL0     H46989   4.543   3.328  11.339  1.8084  1.6440  0.0897
  341MOL0     H46990   4.690   3.143  11.226  2.0438  0.4932 -1.6591
  341MOL0     H46991   4.691   2.947  11.147  2.8211  2.5788 -2.1566
  341MOL0     H46992   4.684   2.865  11.000 -0.7222 -1.6445  2.7730
  341MOL0     H46993   4.466   2.835  11.123 -2.8410  1.2577  2.1166
  341MOL0     H46994   4.440   3.007  11.116 -0.0919  0.1199  0.1071
  341MOL0     H46995   4.287   2.915  10.952 -0.6491 -0.9569 -0.0214
  341MOL0     H46996   4.417   3.006  10.864  1.9240 -1.2012  0.6702
  341MOL0     H46997   4.523   2.789  10.817 -0.9531  1.7311 -1.7017
  341MOL0     H46998   4.415   2.703  10.928 -0.6129  0.8819  1.1068
  341MOL0     H46999   4.308   2.844  10.687 -2.0089  0.6751  0.2860
  341MOL0     H47000   4.223   2.753  10.802 -0.0222  6.4199  1.9648
  341MOL0     H47001   4.257   2.634  10.597  1.0136 -4.0926 -0.8261
  341MOL0     H47002   4.435   2.653  10.608  1.3093  0.9489  1.6627
  341MOL0     H47003   4.411   2.503  10.832 -3.2412 -4.1025  2.5237
  341MOL0     H47004   4.398   2.438  10.670 -1.1064  0.5551 -0.9036
  341MOL0     H47005   4.167   2.543  10.848  0.0914 -1.4818  0.6862
  341MOL0     H47006   4.130   2.437  10.715  0.9123  1.3411 -2.0537
  341MOL0     H47007   4.085   2.189  10.786 -0.5993  3.2485 -0.6842
  341MOL0     H47008   4.290   1.923  10.938 -0.0948  0.6971  0.1989
  341MOL0     H47009   4.129   1.957  10.890  0.3316  3.2518 -3.0677
  341MOL0     H47010   4.148   1.824  11.080  2.4788 -0.3303  2.1098
  341MOL0     H47011   4.233   1.947  11.168  0.5558  0.5564 -2.0881
  341MOL0     H47012   3.994   2.089  11.136  2.3732  1.2317 -2.1036
  341MOL0     H47013   3.942   1.924  11.115  1.3858 -1.1478 -0.9857
  341MOL0     H47014   4.100   2.011  11.354 -1.3317  1.6130  2.3728
  341MOL0     H47015   3.930   1.993  11.350  2.8806  3.4129  1.5198
  341MOL0     H47016   4.270   1.750  11.333  1.0892  2.4039  0.7058
  341MOL0     H47017   4.512   1.720  11.583  0.0534 -0.0418 -1.0386
  341MOL0     H47018   4.493   1.659  11.425  0.8953  3.8510  0.8953
  341MOL0     H47019   4.468   1.542  11.559 -1.1418 -0.7727 -1.6193
  341MOL0     H47020   4.452   1.948  11.978  1.2872 -2.1247 -2.5795
  341MOL0     H47021   4.587   1.932  12.172 -0.0720  1.5511 -4.5193
  341MOL0     H47022   4.754   1.630  12.330  1.3993  0.8730 -0.4421
  341MOL0     H47023   4.767   1.782  12.246  1.1145  0.8644  0.2216
  341MOL0     H47024   4.786   1.911  12.470 -2.4276  0.8837  1.9206
  341MOL0     H47025   4.750   1.749  12.546  0.0621 -3.3314 -2.2886
  341MOL0     H47026   4.990   1.828  12.370  0.6378  3.2140  2.9135
  341MOL0     H47027   4.967   1.657  12.422  2.0449  0.1796 -1.1154
  341MOL0     H47028   4.974   1.737  12.664  0.0728  1.1161  0.8631
  341MOL0     H47029   4.987   1.904  12.607 -0.8070 -0.1099 -1.1407
  341MOL0     H47030   5.200   1.696  12.600 -1.4858 -0.2235 -2.8723
  341MOL0     H47031   5.214   1.839  12.499  1.2817  0.4118  1.5392
  341MOL0     H47032   5.164   1.894  12.795  0.6610  3.5796 -1.0510
  341MOL0     H47033   5.221   1.991  12.681  0.3016 -0.1240  0.5248
  341MOL0     H47034   5.403   1.911  12.844 -0.8549  0.6671 -1.2771
  341MOL0     H47035   5.446   1.855  12.681 -1.2500 -0.0451 -0.0987
  341MOL0     H47036   5.499   1.683  12.832  0.3714  0.4953 -2.2859
  341MOL0     H47037   5.384   1.626  12.732  1.4359 -1.3790  1.4467
  341MOL0     H47038   4.438   1.552  12.270  0.9605 -2.0577 -1.1897
  341MOL0     H47039   4.318   1.546  12.051  1.3470 -0.8984 -0.3296
  341MOL0     H47040   4.071   1.750  11.777 -0.7268 -0.0575 -0.8618
  341MOL0     H47041   3.946   1.823  11.576  1.2651  0.7109  0.0779
  341MOL0     H47042   4.552   3.259  10.850  2.3053 -3.8492 -0.1331
  341MOL0     H47043   4.441   3.449  10.938 -3.6347 -2.8083 -1.5522
  341MOL0     H47044   4.463   3.723  11.344  2.0162  4.6403 -0.0022
  341MOL0     H47045   4.413   3.887  11.493  0.4441 -1.9247 -0.0641
  341MOL0     H47046   4.111   4.150  11.415  0.0279  0.2220  0.1600
  341MOL0     H47047   3.996   4.066  11.536 -0.0643 -1.2826  0.3300
  341MOL0     H47048   4.226   4.270  11.588  0.9171  1.8214  1.1995
  341MOL0     H47049   4.179   4.164  11.713 -1.9341 -1.3692 -0.1499
  341MOL0     H47050   4.102   4.396  11.720 -2.2490 -1.2096  6.7075
  341MOL0     H47051   3.986   4.363  11.582 -1.4915  1.3836  0.7688
  341MOL0     H47052   3.974   4.209  11.842  1.1261 -1.7609 -2.7158
  341MOL0     H47053   3.875   4.166  11.698 -0.7412  0.1353  0.1555
  341MOL0     H47054   3.696   4.511  11.873 -0.1351  1.0435  0.6682
  341MOL0     H47055   4.015   3.917  11.337  0.2247  0.2195  0.2917
  341MOL0     H47056   4.029   3.611  11.146  1.0853  0.4185 -1.6443
  341MOL0     H47057   3.941   3.710  11.273  2.0348  1.4287  0.5884
  341MOL0     H47058   3.973   3.778  11.114 -3.2412 -2.9901 -1.3334
  342MOL0     O47059   8.356   4.892   2.306  0.2626 -0.6366 -0.0126
  342MOL0     C47060   8.303   4.778   2.307 -0.6595 -0.3703 -0.5251
  342MOL0     O47061   8.325   4.680   2.214 -0.3079 -0.0247 -0.3019
  342MOL0     C47062   8.418   4.589   2.234 -0.1105  0.2759  0.3781
  342MOL0     C47063   8.463   4.516   2.125  0.2853 -0.8020 -0.4465
  342MOL0     C47064   8.579   4.445   2.128  0.2522 -0.6304 -0.5158
  342MOL0     C47065   8.635   4.413   2.251  0.2788  0.0569 -0.5798
  342MOL0     O47066   8.742   4.321   2.250 -0.4412  0.4165  0.2454
  342MOL0     C47067   8.831   4.333   2.142 -0.6683  0.1523 -0.0004
  342MOL0     C47068   8.946   4.235   2.162  0.2505  0.2914  0.1418
  342MOL0     C47069   9.036   4.251   2.277  0.7472  0.0230  0.1778
  342MOL0     C47070   9.149   4.153   2.264  0.2600  0.0282 -0.4357
  342MOL0     C47071   9.238   4.160   2.385 -0.2835 -0.3828  0.1185
  342MOL0     C47072   9.384   4.107   2.342 -0.0459  0.6566 -0.3214
  342MOL0     C47073   9.383   3.961   2.330  0.4554 -0.6853  0.6557
  342MOL0     C47074   9.524   3.899   2.323  0.5227  0.0169 -0.4913
  342MOL0     N47075   9.502   3.758   2.335  0.1755 -0.1061  0.9356
  342MOL0     C47076   9.501   3.664   2.237  0.4521  0.3221 -0.4054
  342MOL0     C47077   9.483   3.550   2.294  0.2071  0.6213 -0.5794
  342MOL0     C47078   9.464   3.409   2.218 -0.2538 -0.3277  0.6137
  342MOL0     C47079   9.332   3.367   2.177  0.3188 -0.0005  0.1669
  342MOL0     C47080   9.257   3.334   2.299 -0.3362 -0.4960 -0.2199
  342MOL0     C47081   9.111   3.324   2.286 -0.1365 -0.2598  0.6022
  342MOL0     O47082   9.065   3.232   2.186 -0.5299 -0.3306  0.0398
  342MOL0     C47083   8.964   3.146   2.222 -1.4463  0.4855 -1.0776
  342MOL0     C47084   8.867   3.175   2.309 -1.4841 -0.5168  0.5186
  342MOL0     C47085   8.778   3.072   2.361 -0.2774 -0.5102  0.4526
  342MOL0     C47086   8.674   3.106   2.468 -0.6137 -0.5601 -0.2001
  342MOL0     C47087   8.795   2.938   2.306 -0.4164 -0.8661 -0.0880
  342MOL0     C47088   8.727   2.824   2.353 -0.0492  0.0365  0.0456
  342MOL0     O47089   8.597   2.825   2.342 -0.5515  0.4717 -0.1106
  342MOL0     C47090   8.534   2.737   2.423  0.3780 -0.3282 -0.0582
  342MOL0     C47091   8.445   2.649   2.373  0.3714  0.0894 -0.1667
  342MOL0     C47092   8.390   2.551   2.449  0.0466  0.2888 -0.4518
  342MOL0     C47093   8.420   2.538   2.586  0.1486  1.0795 -0.1146
  342MOL0     O47094   8.333   2.444   2.654  0.3701 -0.5492 -0.3798
  342MOL0     C47095   8.330   2.422   2.798  0.6895  0.4381  1.3562
  342MOL0     C47096   8.284   2.275   2.814  0.2992  0.9922  0.3539
  342MOL0     C47097   8.387   2.162   2.768 -0.1244 -0.1783 -0.1712
  342MOL0     C47098   8.535   2.204   2.794 -0.2918 -0.2018  0.7398
  342MOL0     C47099   8.620   2.081   2.753 -0.2707  0.2165  0.2730
  342MOL0     C47100   8.767   2.107   2.788 -0.0982 -0.2745 -0.3614
  342MOL0     C47101   8.845   1.980   2.737 -0.0396 -0.8244 -0.5270
  342MOL0     C47102   8.998   2.000   2.721 -0.3983  0.5776  0.0341
  342MOL0    Cl47103   9.048   2.039   2.889 -0.5714  0.0796  0.1806
  342MOL0     C47104   8.493   2.638   2.645 -0.2667  0.2569  0.5722
  342MOL0     C47105   8.560   2.728   2.563  0.2970  1.2233 -0.1513
  342MOL0     O47106   8.796   2.727   2.391  0.3761 -0.1550  0.1088
  342MOL0     C47107   8.888   2.911   2.210 -0.6008 -0.0823 -0.3668
  342MOL0     C47108   8.973   3.020   2.170 -0.2044  0.7752 -1.3199
  342MOL0     N47109   9.468   3.573   2.435  0.3152  0.4821  0.3429
  342MOL0     N47110   9.484   3.697   2.454 -0.6424  0.2782 -0.4546
  342MOL0     C47111   8.576   4.463   2.363  0.0241 -0.0787  0.3177
  342MOL0     C47112   8.476   4.557   2.351  0.4980  0.4774  0.2978
  342MOL0     C47113   8.221   4.759   2.435  0.7307  0.2909  0.2534
  342MOL0     C47114   8.241   4.839   2.544  0.3381 -0.5736 -0.0050
  342MOL0     C47115   8.170   4.835   2.664  0.2758  0.0946  0.0751
  342MOL0     C47116   8.055   4.758   2.672 -1.0123  0.4220  0.5512
  342MOL0     O47117   7.966   4.764   2.776  0.1186  0.0038 -0.5621
  342MOL0     C47118   8.020   4.781   2.908  1.0698  0.4829 -0.2754
  342MOL0     C47119   7.918   4.723   2.993 -0.1278 -0.7626 -0.8283
  342MOL0     C47120   7.962   4.675   3.133 -0.3520 -0.0502 -0.1596
  342MOL0     C47121   7.872   4.679   3.246  0.5546 -1.1923  0.1624
  342MOL0     C47122   7.753   4.602   3.216  0.9223  0.3850 -0.4597
  342MOL0     C47123   7.654   4.536   3.189  0.4676  0.4573 -0.2692
  342MOL0     C47124   8.033   4.676   2.566 -0.9319  1.0694  0.2583
  342MOL0     C47125   8.109   4.673   2.446 -0.8390 -0.0781  0.3512
  342MOL0     C47126   8.053   4.575   2.341  0.4681 -0.4857  0.2278
  342MOL0     H47127   8.419   4.535   2.028 -1.8002  0.2993  0.6351
  342MOL0     H47128   8.610   4.419   2.027 -1.4669 -1.6447 -0.8237
  342MOL0     H47129   8.864   4.436   2.125 -0.2282  0.6389  3.1301
  342MOL0     H47130   8.786   4.288   2.053  2.2159 -0.9691 -1.0020
  342MOL0     H47131   8.913   4.131   2.161  2.1389 -0.3229 -0.4874
  342MOL0     H47132   8.998   4.254   2.068 -3.1848 -0.3044 -2.0464
  342MOL0     H47133   9.077   4.352   2.272 -0.0327  0.3019 -1.5334
  342MOL0     H47134   8.968   4.246   2.362 -0.7757  2.0384 -0.8396
  342MOL0     H47135   9.113   4.051   2.249  0.0637  0.3682 -2.5772
  342MOL0     H47136   9.205   4.185   2.175 -2.8524 -0.3305 -2.6984
  342MOL0     H47137   9.195   4.095   2.462 -2.1249 -1.6179 -1.8618
  342MOL0     H47138   9.248   4.257   2.433  2.9032  0.0347 -1.1292
  342MOL0     H47139   9.437   4.151   2.258  0.7658  0.0526 -0.1398
  342MOL0     H47140   9.453   4.133   2.423  1.0040  1.5049 -1.4520
  342MOL0     H47141   9.330   3.943   2.235 -0.2671  0.1575  0.8772
  342MOL0     H47142   9.326   3.917   2.412  0.0477 -0.0846  0.7002
  342MOL0     H47143   9.577   3.926   2.231 -0.4731 -0.3542 -1.1965
  342MOL0     H47144   9.589   3.921   2.408 -1.2901 -1.0546  1.2646
  342MOL0     H47145   9.486   3.691   2.133 -2.4849  1.4203  0.2045
  342MOL0     H47146   9.499   3.328   2.284  2.4528  1.1462  1.1454
  342MOL0     H47147   9.535   3.407   2.135 -1.1596  1.9085 -0.2717
  342MOL0     H47148   9.281   3.438   2.113  0.1519  0.2502  0.5770
  342MOL0     H47149   9.350   3.271   2.126 -3.2170 -2.5779  3.1959
  342MOL0     H47150   9.295   3.241   2.343 -0.7458  0.8457  3.1909
  342MOL0     H47151   9.274   3.416   2.369  3.6739  0.3472 -1.9005
  342MOL0     H47152   9.071   3.301   2.385  1.0939 -5.0697  0.2471
  342MOL0     H47153   9.071   3.418   2.247 -0.2475 -1.7430 -3.3702
  342MOL0     H47154   8.875   3.271   2.359  2.2117 -0.9770  1.0589
  342MOL0     H47155   8.570   3.086   2.442 -0.8577  1.0853 -0.6023
  342MOL0     H47156   8.675   3.214   2.489  1.3569 -1.0779  3.1724
  342MOL0     H47157   8.699   3.072   2.569 -2.8137 -0.5105  0.3997
  342MOL0     H47158   8.430   2.650   2.266 -0.3627 -3.7730 -0.2401
  342MOL0     H47159   8.319   2.488   2.396  1.1791 -0.9959 -0.4881
  342MOL0     H47160   8.428   2.440   2.844  2.5055 -1.1268 -1.5570
  342MOL0     H47161   8.246   2.465   2.852 -3.6690 -2.0635 -2.6636
  342MOL0     H47162   8.255   2.259   2.918 -0.2998 -3.3354 -0.3164
  342MOL0     H47163   8.192   2.259   2.757 -1.2286  4.0201  1.7102
  342MOL0     H47164   8.378   2.133   2.663  0.6669 -0.2712 -0.2194
  342MOL0     H47165   8.356   2.071   2.820 -3.4514 -0.1135 -1.7509
  342MOL0     H47166   8.544   2.220   2.902 -4.0717  1.5910  0.9871
  342MOL0     H47167   8.572   2.294   2.744 -1.5136 -0.5039 -0.7941
  342MOL0     H47168   8.588   1.991   2.806 -0.6770 -0.7058 -1.4806
  342MOL0     H47169   8.614   2.062   2.646 -3.9247 -1.2681  0.6098
  342MOL0     H47170   8.789   2.125   2.894 -2.6083 -0.5242  0.2576
  342MOL0     H47171   8.809   2.199   2.747 -1.0806  0.8781  1.1102
  342MOL0     H47172   8.818   1.946   2.637 -0.0991 -1.2819 -0.3586
  342MOL0     H47173   8.821   1.903   2.811 -0.9434  0.8057  0.9447
  342MOL0     H47174   9.032   2.074   2.648  2.5840 -1.7649 -1.1571
  342MOL0     H47175   9.047   1.904   2.702 -0.6849  0.4074  0.1571
  342MOL0     H47176   8.495   2.637   2.754  1.3228 -2.3919  0.6151
  342MOL0     H47177   8.611   2.812   2.608 -1.8594  2.9576 -0.7808
  342MOL0     H47178   8.886   2.809   2.173 -4.0169  0.0837 -0.9505
  342MOL0     H47179   9.051   2.993   2.100 -0.1810 -3.6961  0.0743
  342MOL0     H47180   8.630   4.439   2.454  0.0731  0.5755  0.4638
  342MOL0     H47181   8.435   4.591   2.446 -1.9497 -0.2008 -0.4441
  342MOL0     H47182   8.324   4.909   2.551  1.3792 -1.7583 -0.0400
  342MOL0     H47183   8.191   4.909   2.741 -0.6447  1.8504 -1.2683
  342MOL0     H47184   8.113   4.725   2.926 -0.3987 -1.3521  2.2678
  342MOL0     H47185   8.046   4.884   2.932 -0.4262  0.4599  1.6067
  342MOL0     H47186   7.883   4.627   2.953  1.2141 -1.3808 -0.5696
  342MOL0     H47187   7.847   4.806   2.989  1.5514  0.6787 -2.6958
  342MOL0     H47188   7.982   4.570   3.110  0.4656  0.4387 -1.8932
  342MOL0     H47189   8.054   4.729   3.156 -1.9836  2.5196  0.7638
  342MOL0     H47190   7.837   4.781   3.264 -0.5393 -1.8920  2.2372
  342MOL0     H47191   7.912   4.650   3.343  2.0518 -1.4893 -0.5275
  342MOL0     H47192   7.571   4.480   3.151  1.5787 -2.1245  0.8659
  342MOL0     H47193   7.953   4.603   2.565  0.6386 -0.7591 -1.3209
  342MOL0     H47194   7.998   4.489   2.382 -1.3413  0.7167  0.4352
  342MOL0     H47195   7.968   4.638   2.313 -0.1486 -1.2784  0.2548
  342MOL0     H47196   8.121   4.543   2.263  0.0758 -0.6305 -0.0594
  343MOL0     O47197  10.363   5.411   3.132 -0.0588 -0.4003 -0.3597
  343MOL0     C47198  10.393   5.411   3.012  0.1244 -1.6823  0.0669
  343MOL0     O47199  10.494   5.483   2.958 -0.2485  0.1787 -0.0141
  343MOL0     C47200  10.582   5.551   3.029 -0.8821  0.4562 -0.5517
  343MOL0     C47201  10.600   5.576   3.166 -0.1518  0.7578 -0.2796
  343MOL0     C47202  10.715   5.634   3.216 -0.3847 -0.1117 -1.2778
  343MOL0     C47203  10.817   5.657   3.132  0.1222 -0.5507 -0.5100
  343MOL0     O47204  10.933   5.711   3.177  0.4163  0.0639 -0.6596
  343MOL0     C47205  10.995   5.650   3.297  0.7929  0.2034  0.3634
  343MOL0     C47206  11.122   5.733   3.345  0.5236 -0.2260  0.0946
  343MOL0     C47207  11.126   5.729   3.493 -0.0997  0.8521 -0.5175
  343MOL0     C47208  11.259   5.791   3.561  0.1870  0.6006  0.0020
  343MOL0     C47209  11.292   5.939   3.542 -0.1972  0.2643  0.4609
  343MOL0     C47210  11.190   6.026   3.632  0.1329 -0.4124  0.5347
  343MOL0     C47211  11.224   6.174   3.628 -0.5315  0.5076  0.2534
  343MOL0     C47212  11.087   6.255   3.613 -0.0794  0.7100 -0.1446
  343MOL0     N47213  11.120   6.395   3.615 -0.6063  0.3233 -0.5690
  343MOL0     C47214  11.133   6.482   3.506 -0.0486 -0.0269  0.1212
  343MOL0     C47215  11.170   6.600   3.567 -0.3544 -0.0800 -0.0846
  343MOL0     C47216  11.176   6.737   3.493 -0.0706 -0.2856  0.0798
  343MOL0     C47217  11.190   6.859   3.578 -0.5496 -0.0594  0.5859
  343MOL0     C47218  11.252   6.964   3.480  0.5880  0.2588  0.4664
  343MOL0     C47219  11.265   7.091   3.567  0.5159 -0.5160 -0.0789
  343MOL0     O47220  11.379   7.076   3.657  0.1128 -0.1484  1.3838
  343MOL0     C47221  11.414   7.185   3.731 -0.6546  0.3294  0.2902
  343MOL0     C47222  11.360   7.317   3.738  1.1209  0.3478 -0.1045
  343MOL0     C47223  11.416   7.425   3.811 -0.2017 -0.0757  0.1777
  343MOL0     C47224  11.341   7.552   3.821  0.1028  0.3116  0.1203
  343MOL0     C47225  11.547   7.401   3.869 -0.9111 -0.1464 -0.0665
  343MOL0     C47226  11.633   7.517   3.929  0.0033 -0.0968 -0.3158
  343MOL0     O47227  11.585   7.641   3.914  0.2258 -0.3314 -0.1008
  343MOL0     C47228  11.640   7.748   3.983  0.4817 -0.1877  0.3853
  343MOL0     C47229  11.747   7.817   3.935 -0.2561 -0.3399 -0.8325
  343MOL0     C47230  11.821   7.910   4.014  0.1988 -0.8150 -0.1540
  343MOL0     C47231  11.780   7.931   4.146  0.5579 -0.0163 -0.0129
  343MOL0     O47232  11.848   8.025   4.223 -0.3173  0.3129  0.2161
  343MOL0     C47233  11.813   8.027   4.363  0.4467  0.9289  0.1772
  343MOL0     C47234  11.938   8.078   4.436 -0.4340 -0.6531  0.6329
  343MOL0     C47235  11.996   8.222   4.385  1.3585 -0.2128 -0.2075
  343MOL0     C47236  12.124   8.229   4.464 -0.3739 -0.4776 -0.5954
  343MOL0     C47237  12.163   8.376   4.509  1.0400  0.6858  0.6957
  343MOL0     C47238  12.298   8.378   4.577 -0.2709 -0.2635 -0.4740
  343MOL0     C47239  12.329   8.505   4.653  0.9287 -0.9667 -0.3433
  343MOL0     C47240  12.343   8.483   4.805 -0.4340 -0.9037 -0.3265
  343MOL0    Cl47241  12.427   8.627   4.867  0.0777  0.1939  0.0591
  343MOL0     C47242  11.662   7.864   4.194 -0.1072 -0.2988 -0.3986
  343MOL0     C47243  11.587   7.774   4.112 -0.2033  0.3165  0.7198
  343MOL0     O47244  11.726   7.490   4.004  0.5917 -0.0625 -0.3800
  343MOL0     C47245  11.592   7.269   3.874  0.0639  0.1834 -0.0764
  343MOL0     C47246  11.526   7.164   3.806 -0.7575 -0.8777 -0.0149
  343MOL0     N47247  11.179   6.581   3.706  0.1263  0.0668 -0.9017
  343MOL0     N47248  11.145   6.459   3.737  0.3926 -1.1363 -0.0971
  343MOL0     C47249  10.803   5.644   2.997  0.1311 -0.8448 -0.7016
  343MOL0     C47250  10.687   5.596   2.945 -0.2878 -1.3111 -0.4122
  343MOL0     C47251  10.328   5.301   2.935 -0.6390 -0.0116  0.7096
  343MOL0     C47252  10.363   5.291   2.803 -0.5268 -0.1040 -0.5274
  343MOL0     C47253  10.285   5.217   2.716 -0.6180 -0.9672  0.3106
  343MOL0     C47254  10.189   5.135   2.754 -0.5784 -0.0591 -0.0074
  343MOL0     O47255  10.111   5.060   2.670  0.0649  0.1082 -0.3335
  343MOL0     C47256  10.083   5.123   2.540  0.2965  0.5373 -0.2838
  343MOL0     C47257  10.002   5.027   2.459 -0.6502 -0.7500 -0.5379
  343MOL0     C47258   9.976   5.101   2.324 -0.1151  0.0773  0.8473
  343MOL0     C47259   9.918   5.007   2.222  0.0891  0.0344  0.3631
  343MOL0     C47260   9.872   5.083   2.109 -0.2413  1.1364 -0.0901
  343MOL0     C47261   9.818   5.156   2.028 -0.5623 -1.1267  0.0812
  343MOL0     C47262  10.154   5.129   2.888 -0.1938 -0.2467 -0.1815
  343MOL0     C47263  10.229   5.211   2.979  0.7642  0.1266  0.4999
  343MOL0     C47264  10.205   5.191   3.130  0.3453  0.7652  0.0311
  343MOL0     H47265  10.531   5.542   3.243  1.0580 -1.5178 -0.1109
  343MOL0     H47266  10.730   5.646   3.323  1.6979  1.3200 -1.6703
  343MOL0     H47267  11.024   5.547   3.276 -0.2435  0.2297 -1.3567
  343MOL0     H47268  10.926   5.643   3.382  1.3056  0.5158  0.8117
  343MOL0     H47269  11.209   5.681   3.306  1.3033  2.2213 -1.7005
  343MOL0     H47270  11.127   5.836   3.308  3.8103  0.3937  1.8590
  343MOL0     H47271  11.037   5.762   3.549  0.4348  1.2372  0.1233
  343MOL0     H47272  11.138   5.626   3.527  0.6937  1.6250  1.7145
  343MOL0     H47273  11.260   5.767   3.668 -0.0075  0.3007 -0.0603
  343MOL0     H47274  11.344   5.742   3.511 -0.2392  0.8471 -0.9838
  343MOL0     H47275  11.293   5.971   3.437  0.9147  1.0937  0.6924
  343MOL0     H47276  11.392   5.956   3.583 -0.3233 -0.0520  0.9010
  343MOL0     H47277  11.084   6.000   3.624 -0.3088  1.7239 -2.1046
  343MOL0     H47278  11.202   6.003   3.738  1.4142  1.6623  0.8957
  343MOL0     H47279  11.296   6.200   3.550  2.3190 -3.8623  1.1112
  343MOL0     H47280  11.267   6.207   3.724  1.1528 -1.0267  0.0865
  343MOL0     H47281  11.025   6.226   3.529 -1.4995 -2.8163  1.9114
  343MOL0     H47282  11.031   6.246   3.707  3.9630 -0.3347  2.4558
  343MOL0     H47283  11.103   6.454   3.405 -3.9754 -0.6729  1.3095
  343MOL0     H47284  11.078   6.745   3.446 -0.8219 -1.5334  1.3314
  343MOL0     H47285  11.261   6.727   3.425 -0.1661  1.4854 -0.3288
  343MOL0     H47286  11.092   6.886   3.619 -0.3054  2.4380 -0.3040
  343MOL0     H47287  11.255   6.837   3.663 -1.8654 -0.5840  1.4829
  343MOL0     H47288  11.356   6.937   3.458  0.3442  1.5174 -2.7755
  343MOL0     H47289  11.199   6.966   3.385  1.7151 -1.7231 -0.2688
  343MOL0     H47290  11.272   7.176   3.499 -1.6103  0.5798  0.9749
  343MOL0     H47291  11.177   7.104   3.631 -0.5824 -0.2121 -1.6054
  343MOL0     H47292  11.267   7.320   3.683 -0.5665 -1.6302  2.4614
  343MOL0     H47293  11.382   7.630   3.755 -2.2662 -0.0352 -1.8966
  343MOL0     H47294  11.344   7.596   3.922 -0.9411  0.4866  0.0811
  343MOL0     H47295  11.241   7.545   3.778 -0.2373  0.7688  0.8109
  343MOL0     H47296  11.787   7.808   3.834  3.2929  4.0575 -0.1605
  343MOL0     H47297  11.899   7.971   3.969 -0.3204 -1.0085 -1.3638
  343MOL0     H47298  11.735   8.104   4.374 -1.1436 -0.8435  2.2144
  343MOL0     H47299  11.783   7.933   4.409  0.5429  0.9500  0.2835
  343MOL0     H47300  11.914   8.082   4.543 -3.9755  0.7467 -0.1085
  343MOL0     H47301  12.021   8.010   4.412 -0.9915 -0.8806 -0.7408
  343MOL0     H47302  11.917   8.290   4.418  2.8137  0.5491  1.9312
  343MOL0     H47303  12.006   8.221   4.277 -1.4377 -0.9836 -0.5480
  343MOL0     H47304  12.213   8.195   4.410  2.5758  3.3399  1.3706
  343MOL0     H47305  12.121   8.172   4.556  1.5544 -1.2563 -0.9719
  343MOL0     H47306  12.156   8.441   4.421  2.0152 -1.4371 -1.0487
  343MOL0     H47307  12.093   8.409   4.586  0.2809 -1.4973  1.0182
  343MOL0     H47308  12.381   8.363   4.507  1.6373 -0.6869  1.7542
  343MOL0     H47309  12.310   8.299   4.652 -3.0068  1.5597  2.1409
  343MOL0     H47310  12.255   8.583   4.636  1.9431  0.7400  2.3449
  343MOL0     H47311  12.420   8.551   4.612 -0.5397  0.8720 -1.7324
  343MOL0     H47312  12.397   8.393   4.836 -1.0892 -1.7088 -1.4705
  343MOL0     H47313  12.246   8.476   4.856  0.8261  0.1893  2.4242
  343MOL0     H47314  11.622   7.875   4.294 -0.5513 -1.6020 -0.4225
  343MOL0     H47315  11.498   7.730   4.156 -0.9823 -0.6947 -1.6948
  343MOL0     H47316  11.683   7.249   3.930  0.9026 -0.6717 -1.6960
  343MOL0     H47317  11.577   7.069   3.797 -1.5865 -1.3156 -0.1667
  343MOL0     H47318  10.879   5.693   2.937 -1.3947  1.1756 -1.1160
  343MOL0     H47319  10.673   5.573   2.840 -2.3310  0.8317 -0.7231
  343MOL0     H47320  10.439   5.359   2.765  1.1546 -1.4925  0.2365
  343MOL0     H47321  10.311   5.230   2.611 -1.0984  0.7983  0.3888
  343MOL0     H47322  10.030   5.218   2.555  0.4473  0.7012 -0.7722
  343MOL0     H47323  10.173   5.125   2.479  1.0964  1.5146  0.8698
  343MOL0     H47324   9.908   5.002   2.509 -1.7895  0.2975 -2.0408
  343MOL0     H47325  10.055   4.936   2.429  0.9622 -0.0722  0.1593
  343MOL0     H47326   9.912   5.185   2.353  0.9695  0.1869  3.1639
  343MOL0     H47327  10.066   5.148   2.282  0.3006 -2.4408 -1.3552
  343MOL0     H47328   9.832   4.950   2.258 -1.0211 -0.4910 -2.8052
  343MOL0     H47329   9.999   4.937   2.200  2.4722  2.6705  0.2462
  343MOL0     H47330   9.776   5.230   1.963  0.5383  1.2295  1.8626
  343MOL0     H47331  10.072   5.064   2.918 -2.2715  1.4505 -1.8323
  343MOL0     H47332  10.279   5.123   3.175 -0.2154 -0.2601 -0.5494
  343MOL0     H47333  10.203   5.274   3.201  0.8268  3.3566 -2.8145
  343MOL0     H47334  10.106   5.146   3.142 -0.1698  2.3104  2.3317
  344MOL0     O47335   6.519   0.784   6.507  0.4129 -0.6260 -0.9047
  344MOL0     C47336   6.471   0.671   6.529  0.8135  0.5071 -0.9557
  344MOL0     O47337   6.419   0.586   6.445 -0.0538  0.2769 -0.1338
  344MOL0     C47338   6.407   0.631   6.312 -0.3668  0.8643  0.2176
  344MOL0     C47339   6.479   0.568   6.211  0.2400 -0.2909 -0.8777
  344MOL0     C47340   6.487   0.613   6.082 -0.1789  0.0929  0.3393
  344MOL0     C47341   6.410   0.721   6.048  0.3206  0.0338 -0.0547
  344MOL0     O47342   6.415   0.781   5.926 -0.4378 -0.4832  0.4924
  344MOL0     C47343   6.397   0.923   5.929 -0.5373  0.1816  0.0586
  344MOL0     C47344   6.449   0.988   5.806  0.3744  0.8480  0.1245
  344MOL0     C47345   6.499   1.138   5.828  0.3203 -0.2552 -0.7253
  344MOL0     C47346   6.472   1.236   5.716  1.3782 -0.5069  0.5219
  344MOL0     C47347   6.513   1.377   5.759 -1.0207 -0.3712  0.3724
  344MOL0     C47348   6.663   1.412   5.794  0.3681  0.6971  1.0670
  344MOL0     C47349   6.764   1.369   5.690 -0.9218  0.6354 -0.0218
  344MOL0     C47350   6.734   1.438   5.558  0.4018  0.3797 -0.6523
  344MOL0     N47351   6.852   1.437   5.467  0.5145  0.2033  0.3556
  344MOL0     C47352   6.976   1.485   5.497 -0.8486  0.4460 -0.9680
  344MOL0     C47353   7.055   1.432   5.405 -0.4123  0.0655 -0.3244
  344MOL0     C47354   7.202   1.468   5.389  0.0310 -0.0421  0.1992
  344MOL0     C47355   7.246   1.571   5.285  0.0387 -0.4393 -0.3489
  344MOL0     C47356   7.403   1.599   5.284 -0.0778  0.0914  0.0202
  344MOL0     C47357   7.473   1.694   5.391  0.2762  0.9735 -0.6648
  344MOL0     O47358   7.473   1.618   5.523  0.4680  0.2318  0.6689
  344MOL0     C47359   7.503   1.679   5.639 -0.1858 -0.4376 -0.0770
  344MOL0     C47360   7.574   1.801   5.638  0.1050  0.0796 -1.0248
  344MOL0     C47361   7.641   1.848   5.755  0.1141 -0.2134 -0.5652
  344MOL0     C47362   7.739   1.966   5.737  0.1384 -0.3173  0.0099
  344MOL0     C47363   7.633   1.774   5.874 -0.3157  0.0018  0.4273
  344MOL0     C47364   7.702   1.814   5.997  1.0813  0.2908  0.1240
  344MOL0     O47365   7.674   1.940   6.045 -1.0921 -0.4401 -0.9841
  344MOL0     C47366   7.708   1.978   6.173 -0.0941  0.2317  0.5482
  344MOL0     C47367   7.622   1.942   6.273 -0.2882 -0.5627 -0.2656
  344MOL0     C47368   7.635   2.003   6.402  0.7785  0.1101 -0.0608
  344MOL0     C47369   7.735   2.096   6.422 -0.0261 -1.0273 -0.1507
  344MOL0     O47370   7.741   2.157   6.542 -0.1345 -1.0209 -0.1633
  344MOL0     C47371   7.645   2.128   6.637  0.3040 -0.0252 -0.5107
  344MOL0     C47372   7.672   2.220   6.750  0.3067 -0.8051  1.2592
  344MOL0     C47373   7.670   2.375   6.707  1.1953 -0.1125  0.6718
  344MOL0     C47374   7.533   2.424   6.658 -0.2086 -0.0025  0.2197
  344MOL0     C47375   7.547   2.527   6.540  0.1941  0.2508 -0.7693
  344MOL0     C47376   7.601   2.466   6.415  1.0614  0.4470  0.7069
  344MOL0     C47377   7.681   2.567   6.326 -0.8057  0.6296 -0.0982
  344MOL0     C47378   7.601   2.674   6.261 -0.8270  0.4327  0.4430
  344MOL0    Cl47379   7.533   2.784   6.371  0.2169 -0.0461 -0.0566
  344MOL0     C47380   7.823   2.133   6.320 -0.2383 -0.1767 -0.1973
  344MOL0     C47381   7.809   2.071   6.196 -0.4747  1.9587 -0.6875
  344MOL0     O47382   7.763   1.731   6.061  0.8425 -0.1729  0.8235
  344MOL0     C47383   7.573   1.646   5.872 -0.1539 -0.0344 -0.4774
  344MOL0     C47384   7.505   1.609   5.759  0.7182  0.4783  0.4498
  344MOL0     N47385   6.979   1.365   5.306 -0.7785 -1.2471  0.0795
  344MOL0     N47386   6.858   1.373   5.348 -0.2841 -0.3548  0.1383
  344MOL0     C47387   6.334   0.779   6.155  0.6897  0.9333  0.3154
  344MOL0     C47388   6.329   0.733   6.292 -0.3803  0.0426  0.5903
  344MOL0     C47389   6.460   0.632   6.670  0.1892 -0.8418 -0.0258
  344MOL0     C47390   6.462   0.502   6.704  1.0322 -0.3623 -0.7501
  344MOL0     C47391   6.439   0.461   6.835 -0.2394 -0.6947 -0.9543
  344MOL0     C47392   6.424   0.549   6.941  0.3326  0.2339 -0.3939
  344MOL0     O47393   6.415   0.501   7.071  0.5147  0.0623  0.2363
  344MOL0     C47394   6.424   0.588   7.185 -0.9923 -0.5619 -0.7439
  344MOL0     C47395   6.442   0.501   7.315  0.5791  0.5403 -0.2650
  344MOL0     C47396   6.553   0.391   7.320  0.7666  0.7195  0.1776
  344MOL0     C47397   6.696   0.452   7.343  0.3098  0.2949 -0.1901
  344MOL0     C47398   6.707   0.511   7.481 -0.7119  0.5276 -1.0991
  344MOL0     C47399   6.725   0.545   7.603 -0.0356 -0.2265 -0.1381
  344MOL0     C47400   6.412   0.679   6.902  0.8933 -0.5831 -0.1652
  344MOL0     C47401   6.441   0.729   6.773 -1.1794  0.1329  1.5659
  344MOL0     C47402   6.425   0.879   6.753  0.6521  0.3714  0.9808
  344MOL0     H47403   6.542   0.486   6.245 -0.0547  0.5055  1.8756
  344MOL0     H47404   6.558   0.565   6.016 -1.2982 -0.4317 -0.5247
  344MOL0     H47405   6.451   0.952   6.020 -1.2250 -1.0371  0.8784
  344MOL0     H47406   6.293   0.955   5.934 -0.2679  1.1247 -0.1706
  344MOL0     H47407   6.538   0.934   5.774 -0.9927 -1.7739  0.4767
  344MOL0     H47408   6.385   0.966   5.720  1.4226  0.8530 -0.6665
  344MOL0     H47409   6.448   1.175   5.918  5.0248  0.9582  1.7686
  344MOL0     H47410   6.606   1.139   5.849  0.0031  3.4331  1.5906
  344MOL0     H47411   6.521   1.212   5.621  0.4809 -1.5542  0.2909
  344MOL0     H47412   6.365   1.238   5.692  1.5206  4.0216 -0.4576
  344MOL0     H47413   6.467   1.400   5.855  0.6840 -0.6101  1.2811
  344MOL0     H47414   6.476   1.451   5.687  1.4838 -0.1404 -0.8161
  344MOL0     H47415   6.665   1.520   5.812 -0.2172  0.6795  1.2501
  344MOL0     H47416   6.691   1.364   5.888 -1.6597 -1.5578  0.6041
  344MOL0     H47417   6.760   1.260   5.681 -1.9022  0.5614  1.0932
  344MOL0     H47418   6.860   1.406   5.728  0.3699  0.4377 -2.8355
  344MOL0     H47419   6.649   1.386   5.513  2.1669 -1.3849 -2.1310
  344MOL0     H47420   6.709   1.544   5.561  1.0354  0.7343 -3.9027
  344MOL0     H47421   7.004   1.551   5.579  0.2333 -0.2178 -0.7837
  344MOL0     H47422   7.254   1.373   5.373  0.9696  0.0318  2.4757
  344MOL0     H47423   7.234   1.502   5.488  1.6575  1.3303 -0.7456
  344MOL0     H47424   7.226   1.524   5.189 -1.7421  1.5603 -1.0203
  344MOL0     H47425   7.197   1.668   5.294  4.3571  1.9584  0.0659
  344MOL0     H47426   7.455   1.505   5.303  1.2226  1.2255  2.4865
  344MOL0     H47427   7.421   1.643   5.186 -2.1792  3.3789  0.9366
  344MOL0     H47428   7.578   1.703   5.362 -0.0950 -0.7663 -2.8263
  344MOL0     H47429   7.430   1.794   5.385  0.3751  1.1251  0.7140
  344MOL0     H47430   7.575   1.861   5.548  0.2530  1.5747 -0.0747
  344MOL0     H47431   7.731   2.038   5.819  1.4054 -1.6625  1.3537
  344MOL0     H47432   7.713   2.023   5.647  4.8228  0.4537 -1.0753
  344MOL0     H47433   7.840   1.927   5.725  0.0587  0.2048 -3.2950
  344MOL0     H47434   7.534   1.881   6.253 -1.9493  1.1545  1.3903
  344MOL0     H47435   7.561   1.976   6.477 -0.0857 -1.9111 -1.5463
  344MOL0     H47436   7.539   2.142   6.614  0.1140 -0.6495 -0.0440
  344MOL0     H47437   7.669   2.030   6.678  0.3322  0.4353  0.6090
  344MOL0     H47438   7.600   2.203   6.831 -0.9397 -0.6570  0.2133
  344MOL0     H47439   7.770   2.210   6.796  0.6052  2.1655  1.4798
  344MOL0     H47440   7.747   2.383   6.630 -0.7079 -2.4113 -1.6384
  344MOL0     H47441   7.702   2.439   6.790  2.1541  1.8877 -1.1437
  344MOL0     H47442   7.487   2.474   6.744 -1.3254 -2.9944  1.4727
  344MOL0     H47443   7.473   2.343   6.616  0.6908  1.0020 -3.4128
  344MOL0     H47444   7.446   2.569   6.527 -0.4626 -1.9106 -3.8673
  344MOL0     H47445   7.610   2.605   6.583  0.1832  0.4389 -1.0910
  344MOL0     H47446   7.516   2.421   6.363  0.9926  0.8387  0.4725
  344MOL0     H47447   7.665   2.383   6.446  1.0587 -0.4873 -1.5771
  344MOL0     H47448   7.714   2.511   6.238 -2.8073  1.9281 -1.7668
  344MOL0     H47449   7.761   2.600   6.393 -2.0740 -0.0792  1.8104
  344MOL0     H47450   7.514   2.623   6.218 -1.2082  1.8127 -0.5035
  344MOL0     H47451   7.655   2.731   6.185  4.3146 -0.5977  2.9019
  344MOL0     H47452   7.912   2.194   6.331 -0.6491  0.2430  1.0074
  344MOL0     H47453   7.878   2.089   6.114 -1.2625 -0.6850 -2.0561
  344MOL0     H47454   7.591   1.566   5.943  1.2444 -0.3361 -1.1424
  344MOL0     H47455   7.466   1.508   5.754 -1.3795  1.2885 -2.0401
  344MOL0     H47456   6.283   0.873   6.135 -1.8494 -0.8931 -2.7385
  344MOL0     H47457   6.285   0.797   6.368 -3.1766  2.5324 -2.7828
  344MOL0     H47458   6.451   0.419   6.634 -1.8893 -0.2479 -0.5759
  344MOL0     H47459   6.428   0.355   6.856 -0.2190 -0.4300  0.4839
  344MOL0     H47460   6.527   0.625   7.188 -0.0317 -2.9333 -1.9329
  344MOL0     H47461   6.336   0.651   7.199  0.1370  0.7312  1.0031
  344MOL0     H47462   6.348   0.446   7.312  0.2682  0.7110 -6.2732
  344MOL0     H47463   6.437   0.550   7.413 -2.7107 -1.6087  0.8189
  344MOL0     H47464   6.535   0.316   7.397  1.5755  1.0174  0.6589
  344MOL0     H47465   6.530   0.339   7.226 -3.4076 -2.1078  2.4247
  344MOL0     H47466   6.731   0.528   7.272  3.9825  0.0364  1.1318
  344MOL0     H47467   6.764   0.366   7.337  2.6708  2.0702 -0.3245
  344MOL0     H47468   6.738   0.569   7.706 -0.8382 -0.1329 -0.0508
  344MOL0     H47469   6.389   0.750   6.981 -0.7679 -1.4881  0.1929
  344MOL0     H47470   6.386   0.923   6.846  3.0413  1.1437  1.6863
  344MOL0     H47471   6.525   0.920   6.734  0.8161  0.3096  1.6906
  344MOL0     H47472   6.362   0.904   6.667  2.8286  0.2490 -0.7185
  345MOL0     O47473   7.830   7.865   7.740  0.0127 -0.0975 -0.1370
  345MOL0     C47474   7.778   7.959   7.677  0.4747 -0.1274  0.0604
  345MOL0     O47475   7.658   7.947   7.608 -0.0615 -0.1615  0.6386
  345MOL0     C47476   7.616   7.823   7.591  0.6227  0.4027  0.1045
  345MOL0     C47477   7.485   7.786   7.640 -0.1154  0.1314  0.2237
  345MOL0     C47478   7.431   7.655   7.611 -0.0929 -0.0958 -0.5010
  345MOL0     C47479   7.509   7.575   7.526 -0.1700  0.5586 -0.4324
  345MOL0     O47480   7.473   7.449   7.482 -0.4593  0.0973 -0.3084
  345MOL0     C47481   7.334   7.439   7.456  0.4354 -1.4030 -1.0500
  345MOL0     C47482   7.298   7.327   7.352  0.2252 -0.3717 -0.0686
  345MOL0     C47483   7.145   7.318   7.368 -0.3390  0.9212  0.7683
  345MOL0     C47484   7.069   7.259   7.255 -0.3839 -0.0646  0.4070
  345MOL0     C47485   7.003   7.126   7.291 -0.4035  0.9786  0.2283
  345MOL0     C47486   6.906   7.085   7.180  0.7181 -0.5365  0.6274
  345MOL0     C47487   6.936   7.099   7.030 -0.0804  0.8224  0.3650
  345MOL0     C47488   6.838   7.014   6.934 -0.0041 -0.1504  0.1099
  345MOL0     N47489   6.880   6.893   6.865  0.2376  0.4178  0.4685
  345MOL0     C47490   6.990   6.887   6.776  0.6051  0.0480  0.4499
  345MOL0     C47491   6.984   6.761   6.728  0.3593  0.8175 -1.1963
  345MOL0     C47492   7.093   6.689   6.649  0.0445 -0.8381  0.0983
  345MOL0     C47493   7.079   6.674   6.501 -0.2992  0.8350  0.4305
  345MOL0     C47494   7.176   6.565   6.439 -0.1530 -0.4840 -0.3982
  345MOL0     C47495   7.132   6.531   6.302 -0.5891 -0.5568  0.2851
  345MOL0     O47496   7.123   6.650   6.225 -0.1886 -0.1698 -0.1143
  345MOL0     C47497   7.228   6.730   6.181  0.9425  0.5400  0.5701
  345MOL0     C47498   7.196   6.848   6.104  0.6581 -0.2890  0.5634
  345MOL0     C47499   7.293   6.936   6.059  0.5627 -0.4260 -0.8218
  345MOL0     C47500   7.249   7.065   5.988 -0.3397  0.1983  0.5857
  345MOL0     C47501   7.425   6.895   6.054 -0.0961 -0.0364 -1.0940
  345MOL0     C47502   7.538   6.985   5.998  0.4456 -0.1112  0.7022
  345MOL0     O47503   7.518   7.117   5.994 -0.1546  0.7607 -0.0743
  345MOL0     C47504   7.588   7.196   5.904  0.3087  1.2044  0.2550
  345MOL0     C47505   7.703   7.266   5.930 -0.2791  0.3511 -0.1135
  345MOL0     C47506   7.781   7.336   5.832 -0.0208 -0.8273  0.0786
  345MOL0     C47507   7.741   7.338   5.709  0.9749  0.0329  1.2296
  345MOL0     O47508   7.815   7.393   5.613 -0.3163 -0.2355 -0.0308
  345MOL0     C47509   7.778   7.383   5.475  0.0646 -0.9304  0.3293
  345MOL0     C47510   7.891   7.421   5.379  0.1640 -0.6014  0.1801
  345MOL0     C47511   7.929   7.560   5.395 -0.3154  0.1502 -0.3957
  345MOL0     C47512   8.077   7.584   5.352 -1.1998  0.6319  0.1783
  345MOL0     C47513   8.122   7.546   5.209  0.5467  0.5795 -0.0099
  345MOL0     C47514   8.079   7.649   5.105  0.6220  0.4101 -1.2987
  345MOL0     C47515   8.089   7.583   4.967 -0.3657 -0.4792  0.0861
  345MOL0     C47516   8.091   7.693   4.858 -0.4375 -0.1541 -0.0148
  345MOL0    Cl47517   8.074   7.602   4.713 -0.2928  0.1852 -0.0036
  345MOL0     C47518   7.620   7.270   5.668 -0.1773 -1.6569  0.1624
  345MOL0     C47519   7.550   7.197   5.766 -0.6934 -1.0327 -0.2193
  345MOL0     O47520   7.643   6.932   5.979 -0.7157  0.5631 -0.0870
  345MOL0     C47521   7.464   6.775   6.112  0.0908 -0.2880 -0.0230
  345MOL0     C47522   7.364   6.689   6.170 -0.1825 -0.2667 -0.4334
  345MOL0     N47523   6.874   6.699   6.783  0.4565 -0.5708 -0.3400
  345MOL0     N47524   6.810   6.781   6.861  0.3793 -0.7906 -1.3424
  345MOL0     C47525   7.639   7.618   7.480  0.0465 -0.3485  0.1757
  345MOL0     C47526   7.686   7.737   7.520  0.1429 -0.7371  0.9408
  345MOL0     C47527   7.852   8.099   7.684 -0.2661 -0.1178 -0.7036
  345MOL0     C47528   7.782   8.196   7.613  0.1386 -0.4466  0.1364
  345MOL0     C47529   7.839   8.330   7.600  1.0928 -0.7607  0.0091
  345MOL0     C47530   7.952   8.365   7.663  0.7694  0.1885  0.6867
  345MOL0     O47531   8.003   8.492   7.642  0.9466 -0.3996 -0.7281
  345MOL0     C47532   8.142   8.491   7.618 -0.9550  0.1420  0.7949
  345MOL0     C47533   8.174   8.586   7.498  0.4608 -0.1891 -0.4390
  345MOL0     C47534   8.077   8.564   7.382  0.5550 -0.2867 -0.3682
  345MOL0     C47535   8.125   8.622   7.246 -0.1186 -0.0185 -0.0968
  345MOL0     C47536   8.131   8.772   7.229  0.0950 -0.6341  0.2079
  345MOL0     C47537   8.161   8.890   7.211 -0.0520  0.9007 -1.0727
  345MOL0     C47538   8.024   8.262   7.735  0.5843  0.1066  0.5529
  345MOL0     C47539   7.970   8.132   7.749 -0.7344  0.3279 -0.4724
  345MOL0     C47540   8.041   8.028   7.826 -0.7196  0.1363 -0.4505
  345MOL0     H47541   7.431   7.865   7.691  0.7701  1.6957 -1.1537
  345MOL0     H47542   7.332   7.626   7.645 -0.4780 -0.7301 -2.0859
  345MOL0     H47543   7.286   7.532   7.423  1.0472 -1.5234 -2.3271
  345MOL0     H47544   7.290   7.413   7.552  1.9769 -0.7145 -0.1284
  345MOL0     H47545   7.332   7.369   7.256  0.6216  1.8715  0.9770
  345MOL0     H47546   7.339   7.228   7.376  1.6267 -0.3557 -2.0941
  345MOL0     H47547   7.127   7.265   7.462 -1.0731  0.6575  0.4824
  345MOL0     H47548   7.105   7.420   7.368  0.6232  1.5294 -3.8901
  345MOL0     H47549   6.991   7.329   7.225  0.9338  0.5213 -1.8456
  345MOL0     H47550   7.142   7.245   7.175  1.4595  1.4996  1.7150
  345MOL0     H47551   6.936   7.137   7.377  1.3388 -0.5877  1.8937
  345MOL0     H47552   7.073   7.043   7.309  0.1577  0.4557 -3.6609
  345MOL0     H47553   6.890   6.979   7.203  0.7294 -1.2599 -2.2785
  345MOL0     H47554   6.813   7.136   7.207 -1.2346 -1.7019 -3.1215
  345MOL0     H47555   7.037   7.072   6.998 -0.7448  0.1972 -1.2723
  345MOL0     H47556   6.919   7.204   7.006 -2.0201  0.7840  1.3221
  345MOL0     H47557   6.742   6.995   6.982  1.2022 -3.8697  1.4072
  345MOL0     H47558   6.820   7.086   6.855  0.5715 -0.6640 -0.5002
  345MOL0     H47559   7.070   6.956   6.751  0.7710  1.6547  4.6132
  345MOL0     H47560   7.105   6.590   6.695 -2.5512 -0.4575  1.8229
  345MOL0     H47561   7.185   6.748   6.659 -0.7671  0.6834 -1.0313
  345MOL0     H47562   6.979   6.632   6.481  0.6821 -1.6613  0.3461
  345MOL0     H47563   7.084   6.773   6.455  0.1642  0.0577 -1.2615
  345MOL0     H47564   7.282   6.592   6.434  0.0832 -1.3366 -0.1661
  345MOL0     H47565   7.160   6.478   6.503 -2.7877 -1.9726 -2.8322
  345MOL0     H47566   7.200   6.467   6.246  1.1667 -0.0716  1.7560
  345MOL0     H47567   7.038   6.481   6.328  0.8897 -1.6386  4.3758
  345MOL0     H47568   7.095   6.885   6.098  0.6875 -0.0325  1.5234
  345MOL0     H47569   7.145   7.089   5.964  0.0931  0.3620 -1.2878
  345MOL0     H47570   7.296   7.060   5.890 -0.2397 -2.6334  0.6962
  345MOL0     H47571   7.279   7.153   6.046  0.0262  1.5101 -1.4996
  345MOL0     H47572   7.743   7.268   6.031  0.4447  0.5182 -0.3960
  345MOL0     H47573   7.872   7.389   5.860  0.2162  0.0187 -2.1192
  345MOL0     H47574   7.750   7.283   5.442  1.1102 -0.5800 -1.8268
  345MOL0     H47575   7.704   7.460   5.449  3.5194  2.1813 -1.2513
  345MOL0     H47576   7.976   7.356   5.400 -1.2588 -2.2712  1.0373
  345MOL0     H47577   7.860   7.394   5.277 -0.7702  2.5590 -0.4883
  345MOL0     H47578   7.929   7.587   5.501 -0.5384 -1.5089  0.0631
  345MOL0     H47579   7.870   7.625   5.330 -2.4983 -2.8767 -1.6979
  345MOL0     H47580   8.149   7.528   5.412  0.0519  0.8233 -1.1076
  345MOL0     H47581   8.114   7.686   5.362 -1.2389  0.7390 -0.6551
  345MOL0     H47582   8.231   7.548   5.210  0.5898 -0.8294 -0.1065
  345MOL0     H47583   8.072   7.452   5.181 -2.8443  2.5248 -1.1229
  345MOL0     H47584   8.137   7.741   5.120  0.2795  0.4293  0.0520
  345MOL0     H47585   7.971   7.658   5.121  0.5243 -0.2700 -1.5308
  345MOL0     H47586   8.001   7.518   4.961 -0.4413 -0.4651  0.9270
  345MOL0     H47587   8.171   7.511   4.956  2.4038  2.7971 -3.6579
  345MOL0     H47588   8.184   7.750   4.851  1.0882 -2.5115 -0.0558
  345MOL0     H47589   8.005   7.757   4.879  0.1053  0.2270  1.1610
  345MOL0     H47590   7.567   7.270   5.573 -1.0472 -3.3777  0.6061
  345MOL0     H47591   7.468   7.133   5.735 -1.7881  0.6570 -0.9456
  345MOL0     H47592   7.569   6.758   6.132  0.4238  4.1693  3.7311
  345MOL0     H47593   7.391   6.591   6.209 -1.0121  0.2677  1.6225
  345MOL0     H47594   7.700   7.555   7.417 -0.8268 -1.7659  0.7085
  345MOL0     H47595   7.785   7.764   7.484 -1.2642  1.7877 -1.4156
  345MOL0     H47596   7.685   8.175   7.569 -0.1300  1.1587 -0.0950
  345MOL0     H47597   7.788   8.401   7.536  1.4204 -1.9382 -1.6001
  345MOL0     H47598   8.196   8.543   7.698 -0.1751  3.6173 -1.7454
  345MOL0     H47599   8.172   8.398   7.569 -3.3389 -0.4194  0.2873
  345MOL0     H47600   8.277   8.568   7.465  1.2604  2.7463  0.1568
  345MOL0     H47601   8.172   8.691   7.527 -0.4365  0.3880 -2.4242
  345MOL0     H47602   8.057   8.457   7.368 -1.5641 -0.2772  1.8244
  345MOL0     H47603   7.976   8.600   7.407  0.4692 -0.9948  0.3465
  345MOL0     H47604   8.067   8.560   7.177 -2.9499  1.1946  1.0567
  345MOL0     H47605   8.230   8.594   7.235  0.1383  1.5578 -2.2867
  345MOL0     H47606   8.193   8.989   7.188  3.7903  0.6190  1.9647
  345MOL0     H47607   8.121   8.291   7.773 -0.2754  1.6919  1.6340
  345MOL0     H47608   8.109   8.085   7.891  0.9423  0.3471 -2.3006
  345MOL0     H47609   7.969   7.981   7.894 -3.8054  1.9798 -2.2118
  345MOL0     H47610   8.098   7.964   7.758 -0.2380 -0.4340  0.4629
  346MOL0     O47611   1.062   0.779   0.923 -0.2830 -0.3616 -0.0257
  346MOL0     C47612   1.160   0.784   0.995 -0.2838 -0.3370 -0.0651
  346MOL0     O47613   1.229   0.680   1.058 -0.0656 -0.0660  0.5696
  346MOL0     C47614   1.182   0.552   1.049 -0.4835  0.8137 -0.2430
  346MOL0     C47615   1.122   0.491   0.932  0.7768 -0.2345  0.6444
  346MOL0     C47616   1.080   0.356   0.935  0.3052 -0.5691 -0.0275
  346MOL0     C47617   1.096   0.282   1.051 -0.2467  1.2221 -0.0143
  346MOL0     O47618   1.052   0.150   1.054 -0.0755 -0.2749  0.8718
  346MOL0     C47619   0.910   0.140   1.062 -0.1325  0.5077  0.6095
  346MOL0     C47620   0.867  -0.006   1.083  0.2616 -0.0978 -0.1312
  346MOL0     C47621   0.903  -0.101   0.964 -0.2772 -1.2120  0.0664
  346MOL0     C47622   0.793  -0.210   0.964 -0.0322  0.7604  1.2399
  346MOL0     C47623   0.816  -0.313   0.857 -0.5152 -0.0696 -0.2849
  346MOL0     C47624   0.685  -0.379   0.807  0.0829 -0.0449 -0.4755
  346MOL0     C47625   0.699  -0.516   0.739  0.2805 -0.6823 -0.4481
  346MOL0     C47626   0.638  -0.619   0.830 -0.4647 -0.2070 -0.2755
  346MOL0     N47627   0.661  -0.758   0.780 -0.2798  0.3576  0.4192
  346MOL0     C47628   0.556  -0.836   0.740  0.0568 -0.3613 -0.0928
  346MOL0     C47629   0.597  -0.908   0.633  0.6006  0.2802 -0.0684
  346MOL0     C47630   0.510  -0.989   0.544  0.4031  0.4953  0.3782
  346MOL0     C47631   0.561  -1.135   0.506 -0.0327 -0.9802  0.2825
  346MOL0     C47632   0.467  -1.190   0.395  0.0881 -0.2257  0.2005
  346MOL0     C47633   0.543  -1.304   0.340 -0.9416  1.5859 -0.0815
  346MOL0     O47634   0.455  -1.378   0.249  0.5945  0.3791  0.2139
  346MOL0     C47635   0.509  -1.480   0.181 -0.0547  0.7377  0.4459
  346MOL0     C47636   0.639  -1.509   0.158  0.1211 -0.0586  0.3308
  346MOL0     C47637   0.678  -1.610   0.064 -0.1058  0.8024  1.1485
  346MOL0     C47638   0.823  -1.641   0.040 -0.2383  0.2319  0.5426
  346MOL0     C47639   0.576  -1.696   0.009  0.2881  0.2066 -0.0603
  346MOL0     C47640   0.599  -1.816  -0.073 -0.9817  0.3849  0.0373
  346MOL0     O47641   0.703  -1.900  -0.025  0.6818 -0.4285  0.4085
  346MOL0     C47642   0.735  -2.019  -0.077  0.5580 -0.4756 -0.4610
  346MOL0     C47643   0.753  -2.037  -0.212 -0.2258 -0.0137  0.2120
  346MOL0     C47644   0.795  -2.151  -0.262  1.3834  0.5373 -0.2639
  346MOL0     C47645   0.827  -2.268  -0.178  0.0688 -0.3951  0.3679
  346MOL0     O47646   0.856  -2.397  -0.225  0.4974  0.1391  0.3557
  346MOL0     C47647   0.947  -2.482  -0.155  0.1495 -0.2951  0.2789
  346MOL0     C47648   1.037  -2.572  -0.238 -0.0896 -0.1579 -0.5627
  346MOL0     C47649   1.119  -2.682  -0.172  0.1100  0.2806 -0.5778
  346MOL0     C47650   1.199  -2.634  -0.058 -0.4046  0.6931 -1.2029
  346MOL0     C47651   1.261  -2.758   0.015  0.5448 -0.3012 -0.3102
  346MOL0     C47652   1.171  -2.790   0.132  0.1434  1.1438  0.0958
  346MOL0     C47653   1.213  -2.896   0.236 -1.0951  0.5256  1.0067
  346MOL0     C47654   1.203  -2.846   0.374  0.7435  1.0254 -0.9364
  346MOL0    Cl47655   1.253  -2.975   0.493 -0.3704  0.3384 -0.0800
  346MOL0     C47656   0.828  -2.243  -0.034  0.2377 -0.2015  0.5399
  346MOL0     C47657   0.777  -2.121   0.010  0.4165 -0.3508  0.4850
  346MOL0     O47658   0.526  -1.831  -0.166  0.0387 -0.4179 -0.0901
  346MOL0     C47659   0.443  -1.656   0.031  0.0917 -0.5462 -0.1407
  346MOL0     C47660   0.409  -1.551   0.113  0.2360 -0.5077 -0.0347
  346MOL0     N47661   0.728  -0.883   0.619  0.7030  0.5248 -0.1106
  346MOL0     N47662   0.764  -0.790   0.691 -0.3979 -0.7492 -1.3484
  346MOL0     C47663   1.163   0.337   1.161 -0.0095  0.8255 -0.2957
  346MOL0     C47664   1.210   0.466   1.159  0.5841 -0.7789 -0.0612
  346MOL0     C47665   1.197   0.923   1.024  0.0072  0.0792  0.5635
  346MOL0     C47666   1.102   1.022   1.025  0.3054  0.3061  0.3376
  346MOL0     C47667   1.132   1.155   1.057 -0.1364  0.2527  0.4169
  346MOL0     C47668   1.266   1.187   1.067 -0.3949  0.2923 -0.7486
  346MOL0     O47669   1.311   1.314   1.081 -0.0294  0.0966 -0.1000
  346MOL0     C47670   1.233   1.427   1.059  0.4522 -0.4305  0.1365
  346MOL0     C47671   1.187   1.489   1.201  0.0135  0.1539  0.2339
  346MOL0     C47672   1.126   1.637   1.189 -0.7091  0.5445 -0.8116
  346MOL0     C47673   1.066   1.680   1.324  0.3975  0.4980  0.6182
  346MOL0     C47674   0.939   1.608   1.350 -0.1634  0.0922  0.2164
  346MOL0     C47675   0.849   1.543   1.398  0.0007 -0.7034  0.3574
  346MOL0     C47676   1.365   1.089   1.049 -0.0316 -0.0408  0.2707
  346MOL0     C47677   1.332   0.957   1.027  0.5958  0.1789 -0.1410
  346MOL0     C47678   1.448   0.858   1.010  0.3244  1.2132 -0.1132
  346MOL0     H47679   1.095   0.554   0.848 -0.9579 -0.5919  0.8890
  346MOL0     H47680   1.051   0.309   0.842 -0.7459  0.9816 -0.5240
  346MOL0     H47681   0.853   0.160   0.971 -0.0697 -5.1465 -1.0788
  346MOL0     H47682   0.878   0.186   1.156 -3.0585  1.9829 -0.9657
  346MOL0     H47683   0.918  -0.043   1.172  1.7882 -1.2008 -1.4189
  346MOL0     H47684   0.760  -0.011   1.107  0.9345 -0.3351  3.3696
  346MOL0     H47685   0.902  -0.045   0.869 -0.0418 -1.8081 -0.2951
  346MOL0     H47686   1.003  -0.144   0.971 -0.2080 -0.7741  2.1960
  346MOL0     H47687   0.793  -0.262   1.060  0.0103 -0.9398  0.3549
  346MOL0     H47688   0.689  -0.175   0.957 -1.3998 -2.9504  0.5537
  346MOL0     H47689   0.885  -0.386   0.900  2.8281  2.8586 -0.2525
  346MOL0     H47690   0.870  -0.283   0.767  0.4070  1.2193  0.6587
  346MOL0     H47691   0.611  -0.365   0.886 -0.1197 -0.2606 -0.6268
  346MOL0     H47692   0.635  -0.308   0.740 -2.1756 -0.6401  0.4987
  346MOL0     H47693   0.804  -0.536   0.720  0.5885 -0.6954  1.0953
  346MOL0     H47694   0.644  -0.517   0.645 -1.1211 -1.5178  0.3356
  346MOL0     H47695   0.687  -0.611   0.927 -0.8101 -1.2741  0.0092
  346MOL0     H47696   0.531  -0.599   0.834 -0.5974 -0.7411 -1.0713
  346MOL0     H47697   0.459  -0.833   0.789 -0.9177  0.4456 -1.9592
  346MOL0     H47698   0.513  -0.937   0.447  0.3265 -1.7024 -0.8554
  346MOL0     H47699   0.409  -0.981   0.585 -0.8807  0.3160 -2.5141
  346MOL0     H47700   0.665  -1.118   0.474  0.2694 -0.0043  1.6726
  346MOL0     H47701   0.559  -1.203   0.590  1.1966 -1.4744 -0.0600
  346MOL0     H47702   0.367  -1.212   0.434 -1.1898 -0.9363 -3.1484
  346MOL0     H47703   0.454  -1.113   0.319  2.5547  0.2462  0.1640
  346MOL0     H47704   0.618  -1.254   0.277 -0.0172 -1.7426 -1.8895
  346MOL0     H47705   0.586  -1.369   0.417  0.4828  0.8445 -1.4279
  346MOL0     H47706   0.723  -1.455   0.200  0.6533  0.4308 -1.2763
  346MOL0     H47707   0.850  -1.676  -0.061  0.5027 -1.3286  1.2500
  346MOL0     H47708   0.858  -1.706   0.120  1.9557  2.5408  1.5875
  346MOL0     H47709   0.885  -1.552   0.051 -0.0296  0.1900 -0.2183
  346MOL0     H47710   0.736  -1.945  -0.266 -0.3450  2.1152  3.5899
  346MOL0     H47711   0.799  -2.166  -0.370  1.6728  2.6333 -0.5795
  346MOL0     H47712   1.012  -2.412  -0.100  1.6525 -1.5332  0.1365
  346MOL0     H47713   0.881  -2.539  -0.090 -1.4371  2.2167  1.0253
  346MOL0     H47714   0.971  -2.628  -0.306 -2.0626  0.8579  0.4222
  346MOL0     H47715   1.101  -2.508  -0.300 -1.9596  0.4991 -1.9290
  346MOL0     H47716   1.192  -2.731  -0.237  1.3277  0.5974  0.5126
  346MOL0     H47717   1.046  -2.751  -0.130 -2.3247  0.7042 -3.6653
  346MOL0     H47718   1.129  -2.582   0.008 -0.6917 -1.0348 -0.0582
  346MOL0     H47719   1.279  -2.571  -0.097 -0.3709 -0.3234 -2.8907
  346MOL0     H47720   1.283  -2.845  -0.047  1.7514 -0.7438  0.6957
  346MOL0     H47721   1.349  -2.723   0.070 -0.0836  2.0754 -0.7164
  346MOL0     H47722   1.077  -2.824   0.089 -0.3947 -0.0280  2.0788
  346MOL0     H47723   1.140  -2.700   0.185  0.9607  0.1438  2.3953
  346MOL0     H47724   1.319  -2.917   0.217 -1.4988 -2.1180  1.3390
  346MOL0     H47725   1.150  -2.984   0.222 -0.6435 -0.1950  3.1017
  346MOL0     H47726   1.100  -2.821   0.399  0.4972 -1.0500  0.4614
  346MOL0     H47727   1.262  -2.757   0.397 -0.8337  1.3875  2.4241
  346MOL0     H47728   0.858  -2.315   0.041  2.5735 -1.9016 -1.8468
  346MOL0     H47729   0.784  -2.093   0.115  2.1317 -2.2151  0.9298
  346MOL0     H47730   0.355  -1.711  -0.001 -0.9827  0.7185  0.5021
  346MOL0     H47731   0.306  -1.519   0.122  0.1175 -0.9029  0.0675
  346MOL0     H47732   1.171   0.265   1.242  3.6179  1.7064  0.3118
  346MOL0     H47733   1.246   0.507   1.252 -1.2466 -1.9931  1.2609
  346MOL0     H47734   0.998   1.003   1.003  0.0495  0.0054  1.7219
  346MOL0     H47735   1.049   1.222   1.078 -2.8625 -2.3874 -1.0494
  346MOL0     H47736   1.304   1.495   1.011  1.5677 -0.4703  1.6298
  346MOL0     H47737   1.152   1.410   0.988 -1.1718  1.5933  1.3829
  346MOL0     H47738   1.270   1.486   1.272  0.6747 -1.5414 -0.5783
  346MOL0     H47739   1.108   1.419   1.230  0.6997 -0.7960 -0.1642
  346MOL0     H47740   1.206   1.712   1.178  0.1440  0.4682  3.1114
  346MOL0     H47741   1.066   1.643   1.098 -0.8401  0.2630 -0.7429
  346MOL0     H47742   1.048   1.788   1.320  1.2110  0.6096 -0.5951
  346MOL0     H47743   1.134   1.656   1.406 -0.7613 -0.7697  1.2487
  346MOL0     H47744   0.766   1.497   1.447 -1.8668 -2.3395 -3.7927
  346MOL0     H47745   1.467   1.125   1.038  0.1504 -0.1429  1.5147
  346MOL0     H47746   1.537   0.920   1.008  0.8705  0.4424 -1.4927
  346MOL0     H47747   1.444   0.786   1.093 -0.1422 -0.1120 -1.2293
  346MOL0     H47748   1.441   0.799   0.917  2.7335 -1.6606  1.3774
  347MOL0     O47749  10.709   1.101   5.574  0.2505  0.1550  0.1879
  347MOL0     C47750  10.610   1.028   5.540 -0.1473  0.0110 -0.6337
  347MOL0     O47751  10.621   0.905   5.470  0.0582  0.6652  0.7009
  347MOL0     C47752  10.742   0.883   5.432  0.3330 -0.2478 -0.1203
  347MOL0     C47753  10.771   0.914   5.302 -0.3176 -1.7806  0.1613
  347MOL0     C47754  10.894   0.894   5.246  0.0390  0.0561 -0.3632
  347MOL0     C47755  10.996   0.837   5.331  0.0179 -0.1899 -0.2294
  347MOL0     O47756  11.116   0.835   5.268  0.0399  0.8393 -0.2139
  347MOL0     C47757  11.240   0.838   5.336  0.3470  0.0019 -0.2586
  347MOL0     C47758  11.345   0.817   5.223 -0.4903  1.6554 -0.5420
  347MOL0     C47759  11.475   0.858   5.280  0.7283 -0.0878  0.1465
  347MOL0     C47760  11.488   1.014   5.239  0.0830 -0.5083  1.2942
  347MOL0     C47761  11.603   1.081   5.311  0.5070 -0.5695  0.3162
  347MOL0     C47762  11.627   1.235   5.274  0.6226 -0.3335 -0.4823
  347MOL0     C47763  11.680   1.245   5.133 -1.0301  0.1937  0.3318
  347MOL0     C47764  11.756   1.372   5.099  0.1578  0.3091  0.5033
  347MOL0     N47765  11.790   1.364   4.957  0.1258  1.1869  0.0402
  347MOL0     C47766  11.717   1.359   4.843 -0.5264 -0.5146  0.2274
  347MOL0     C47767  11.798   1.331   4.740 -0.1341  0.6224 -0.4579
  347MOL0     C47768  11.775   1.324   4.590 -0.6726  0.2457 -0.3877
  347MOL0     C47769  11.756   1.177   4.544  0.7691 -0.1584  0.2279
  347MOL0     C47770  11.772   1.172   4.397  0.2007  0.6947  0.0543
  347MOL0     C47771  11.665   1.257   4.321  0.8048  0.1766  0.5953
  347MOL0     O47772  11.531   1.215   4.358  0.0996  0.0491  0.0485
  347MOL0     C47773  11.423   1.279   4.310  0.1123 -0.5845 -0.8873
  347MOL0     C47774  11.311   1.254   4.389  0.1876  0.1998  0.1308
  347MOL0     C47775  11.178   1.279   4.343  0.3119  0.5461  0.1837
  347MOL0     C47776  11.070   1.248   4.448 -0.6209  0.0087  0.5384
  347MOL0     C47777  11.158   1.353   4.223 -0.1513  0.4889 -0.2309
  347MOL0     C47778  11.033   1.394   4.161  0.7783 -0.5975  0.1457
  347MOL0     O47779  11.041   1.513   4.086  0.9187  0.1836  0.1359
  347MOL0     C47780  10.930   1.565   4.026  0.5418 -0.2373  0.1584
  347MOL0     C47781  10.942   1.607   3.892  0.7232  0.1742  0.0384
  347MOL0     C47782  10.829   1.660   3.831 -0.0244 -0.7955 -0.6337
  347MOL0     C47783  10.702   1.674   3.897 -0.4993  1.0026 -0.4201
  347MOL0     O47784  10.602   1.719   3.816  0.2183 -0.6618  0.1418
  347MOL0     C47785  10.472   1.729   3.864 -0.0624  0.8723 -0.4683
  347MOL0     C47786  10.380   1.806   3.763 -0.3263 -1.0723  0.4230
  347MOL0     C47787  10.350   1.717   3.632  0.4137  0.6151 -1.2375
  347MOL0     C47788  10.207   1.753   3.579 -0.6058  0.9440  0.3883
  347MOL0     C47789  10.149   1.648   3.484  0.4981 -0.2394  0.7206
  347MOL0     C47790  10.111   1.708   3.357 -0.2026  1.1737  0.1954
  347MOL0     C47791  10.039   1.609   3.259  1.1988 -0.1433 -0.5048
  347MOL0     C47792   9.919   1.539   3.312  0.4006 -0.1217 -0.7318
  347MOL0    Cl47793   9.814   1.647   3.395  0.0114  0.7094  0.0092
  347MOL0     C47794  10.699   1.634   4.034  0.3374 -0.4772 -0.1924
  347MOL0     C47795  10.808   1.587   4.097  0.0769  0.3146  0.0965
  347MOL0     O47796  10.930   1.330   4.192 -0.1946  0.0796 -0.2720
  347MOL0     C47797  11.268   1.370   4.141  0.0828 -0.7136  0.1284
  347MOL0     C47798  11.400   1.339   4.184  0.6973  0.5358 -0.4097
  347MOL0     N47799  11.918   1.313   4.803  0.2223  1.3176  0.2813
  347MOL0     N47800  11.915   1.318   4.928  0.2068 -0.2778 -0.5640
  347MOL0     C47801  10.971   0.799   5.464  0.8253 -0.7032  0.5208
  347MOL0     C47802  10.841   0.817   5.513 -0.1173 -0.7507 -0.3425
  347MOL0     C47803  10.473   1.065   5.596  0.2117  0.7825 -0.6038
  347MOL0     C47804  10.367   0.984   5.571  0.2953 -0.1398  0.8867
  347MOL0     C47805  10.238   1.010   5.613 -0.7645  0.1647  0.7436
  347MOL0     C47806  10.207   1.124   5.685 -1.4089 -0.4783  0.3916
  347MOL0     O47807  10.083   1.169   5.722  0.4110  0.4027 -0.0813
  347MOL0     C47808   9.967   1.094   5.703  0.5023  0.4715  0.2650
  347MOL0     C47809   9.854   1.183   5.711 -0.5155 -0.7224 -0.4051
  347MOL0     C47810   9.733   1.129   5.791 -0.1178  0.4397  0.0836
  347MOL0     C47811   9.676   0.999   5.717 -0.0123  0.0185 -0.4069
  347MOL0     C47812   9.540   0.976   5.762  0.4694  0.1635 -0.4026
  347MOL0     C47813   9.425   0.964   5.793  0.8148 -0.1808 -0.0283
  347MOL0     C47814  10.317   1.213   5.703 -0.3620  0.8399 -0.9483
  347MOL0     C47815  10.450   1.185   5.660  0.5094  0.2651 -0.0487
  347MOL0     C47816  10.550   1.296   5.665  0.1579  0.0317 -0.7048
  347MOL0     H47817  10.697   0.958   5.236  2.4360 -2.0285 -3.4503
  347MOL0     H47818  10.921   0.923   5.145 -0.0170 -2.0329 -1.0442
  347MOL0     H47819  11.238   0.754   5.407 -2.5380 -0.3526 -0.6190
  347MOL0     H47820  11.247   0.935   5.385  2.1460 -0.3485  0.2300
  347MOL0     H47821  11.352   0.709   5.208 -4.3952  1.2214 -0.3599
  347MOL0     H47822  11.336   0.852   5.119 -0.5535 -0.8277 -1.4419
  347MOL0     H47823  11.474   0.842   5.389 -0.3859 -1.2451 -0.0056
  347MOL0     H47824  11.556   0.793   5.245 -0.2095 -1.4287  0.3895
  347MOL0     H47825  11.502   1.022   5.131 -0.3433  0.3930  1.2919
  347MOL0     H47826  11.397   1.068   5.268  2.6692  2.9037  3.9425
  347MOL0     H47827  11.682   1.010   5.283 -0.0963 -0.2847 -2.4729
  347MOL0     H47828  11.580   1.066   5.416 -1.1232 -1.1383 -0.0906
  347MOL0     H47829  11.545   1.305   5.292  0.0225 -1.2053  0.2392
  347MOL0     H47830  11.702   1.277   5.340 -0.2598  2.0233 -0.8669
  347MOL0     H47831  11.605   1.228   5.055  0.2372 -0.8601 -0.7064
  347MOL0     H47832  11.756   1.168   5.114 -1.5417  0.2167 -2.2413
  347MOL0     H47833  11.692   1.458   5.124 -0.1279  0.3870 -0.4461
  347MOL0     H47834  11.849   1.390   5.154  0.2747  1.2960  0.0181
  347MOL0     H47835  11.612   1.368   4.820  0.0600 -0.3705 -2.8530
  347MOL0     H47836  11.859   1.378   4.547  1.4009 -3.4419 -1.3597
  347MOL0     H47837  11.679   1.373   4.568 -0.0825  0.6611 -2.1452
  347MOL0     H47838  11.833   1.111   4.585  0.5181 -1.2254 -0.9622
  347MOL0     H47839  11.656   1.144   4.574  1.6418 -0.7084  2.7679
  347MOL0     H47840  11.871   1.206   4.365  1.1274 -0.9821  1.0162
  347MOL0     H47841  11.757   1.066   4.374  1.8362 -0.1972  2.6065
  347MOL0     H47842  11.669   1.364   4.342 -0.3853  0.7408 -1.7191
  347MOL0     H47843  11.678   1.243   4.213  0.9837  1.7813  0.3908
  347MOL0     H47844  11.330   1.210   4.487  1.0052  0.6343  0.1739
  347MOL0     H47845  10.971   1.246   4.402 -1.2770  1.8151  1.7302
  347MOL0     H47846  11.082   1.331   4.519  0.8629  1.7928 -1.6482
  347MOL0     H47847  11.099   1.159   4.504 -0.9825 -1.1511 -1.0337
  347MOL0     H47848  11.033   1.599   3.832  0.2704  3.7839 -1.3676
  347MOL0     H47849  10.849   1.708   3.736  1.7686  2.7251  1.2998
  347MOL0     H47850  10.434   1.630   3.890  1.3274  0.3628 -0.2629
  347MOL0     H47851  10.460   1.794   3.951  0.0109  0.6770 -0.3092
  347MOL0     H47852  10.292   1.823   3.825  0.9619 -2.6210  2.8244
  347MOL0     H47853  10.426   1.899   3.729  1.3863 -2.1192 -0.2294
  347MOL0     H47854  10.346   1.611   3.657 -2.2785  0.6013 -1.4350
  347MOL0     H47855  10.426   1.739   3.557  0.7932 -1.0406 -1.3644
  347MOL0     H47856  10.223   1.846   3.523  1.4384 -0.7169 -2.0434
  347MOL0     H47857  10.128   1.762   3.654  1.0688 -1.0759  2.5442
  347MOL0     H47858  10.227   1.573   3.466  2.3982  1.5844  0.8648
  347MOL0     H47859  10.066   1.590   3.525  0.1882 -0.1861  0.1733
  347MOL0     H47860  10.207   1.736   3.312  0.5671  0.9202  1.6169
  347MOL0     H47861  10.049   1.798   3.369 -0.2737  1.0202  1.0077
  347MOL0     H47862  10.107   1.528   3.229  0.2117 -3.1411  4.2351
  347MOL0     H47863  10.028   1.657   3.161 -1.0667  1.5404  0.4954
  347MOL0     H47864   9.938   1.456   3.381 -1.8836 -1.0822 -1.1321
  347MOL0     H47865   9.869   1.484   3.231 -0.8653 -2.5642  1.5366
  347MOL0     H47866  10.602   1.656   4.078 -0.7891  1.3201 -3.3042
  347MOL0     H47867  10.800   1.553   4.199 -0.8132 -4.9046 -1.4000
  347MOL0     H47868  11.260   1.416   4.043 -0.3541  1.0664  0.9480
  347MOL0     H47869  11.479   1.361   4.112  1.0773  1.7930  0.3519
  347MOL0     H47870  11.042   0.742   5.522 -0.4715 -3.1937 -0.2117
  347MOL0     H47871  10.810   0.791   5.615 -1.2098 -0.1238 -0.5010
  347MOL0     H47872  10.385   0.888   5.525  0.2486  0.4003 -0.2813
  347MOL0     H47873  10.161   0.940   5.584  0.6031 -0.5054 -1.4979
  347MOL0     H47874   9.965   1.044   5.606  0.7370  0.0359  0.4778
  347MOL0     H47875   9.957   1.019   5.783 -1.8539  0.8859  0.4507
  347MOL0     H47876   9.822   1.200   5.608 -1.2182  0.7350  0.0245
  347MOL0     H47877   9.889   1.275   5.758 -3.3539 -0.0088  0.5449
  347MOL0     H47878   9.772   1.115   5.892  2.0095 -0.3619 -0.7917
  347MOL0     H47879   9.656   1.206   5.798  1.0982  2.1163 -2.9334
  347MOL0     H47880   9.736   0.913   5.748  2.8463  2.3621  1.1556
  347MOL0     H47881   9.680   1.014   5.609 -2.9160 -0.7897 -0.7150
  347MOL0     H47882   9.326   0.930   5.814  1.4197 -3.6464 -2.0910
  347MOL0     H47883  10.286   1.307   5.748 -1.3350 -0.1452  0.5119
  347MOL0     H47884  10.608   1.314   5.573  0.5338  1.3487 -0.2412
  347MOL0     H47885  10.496   1.390   5.679 -1.5346 -0.6234 -2.4549
  347MOL0     H47886  10.613   1.289   5.754 -1.8425  2.1728  1.0037
  348MOL0     O47887   3.305   7.886   9.687 -0.0520 -0.0666 -0.0558
  348MOL0     C47888   3.404   7.955   9.711 -0.1214  1.0606  0.5264
  348MOL0     O47889   3.459   8.053   9.631 -0.1501 -0.7067 -0.3273
  348MOL0     C47890   3.401   8.066   9.513  0.3004  0.8429 -0.2446
  348MOL0     C47891   3.436   7.977   9.406 -0.5235 -0.1564  0.6372
  348MOL0     C47892   3.384   8.002   9.284  0.2782  0.3658 -0.8049
  348MOL0     C47893   3.296   8.110   9.267 -0.5747 -1.3533  0.8401
  348MOL0     O47894   3.237   8.140   9.145  0.5975 -0.9217  0.7779
  348MOL0     C47895   3.335   8.156   9.036  0.7171 -0.5598  0.3449
  348MOL0     C47896   3.271   8.174   8.890 -0.1187  0.1399  0.2637
  348MOL0     C47897   3.227   8.038   8.849  0.3925 -0.0336  0.3706
  348MOL0     C47898   3.330   7.975   8.746  0.5025  0.3561  0.7429
  348MOL0     C47899   3.282   7.833   8.699 -0.0968 -0.3489 -0.4102
  348MOL0     C47900   3.260   7.726   8.809 -0.0739 -0.0282  0.4822
  348MOL0     C47901   3.373   7.716   8.905  0.2004  0.6034 -0.3483
  348MOL0     C47902   3.351   7.604   9.014  0.0722 -0.5349 -1.1372
  348MOL0     N47903   3.461   7.612   9.111  0.1869  0.5112 -0.8519
  348MOL0     C47904   3.427   7.581   9.238  0.1838 -0.1225 -0.3982
  348MOL0     C47905   3.541   7.609   9.316  0.1527  0.2877 -0.5138
  348MOL0     C47906   3.565   7.596   9.464 -0.6501 -0.0045  0.0469
  348MOL0     C47907   3.711   7.620   9.505  0.7446  0.0140 -0.4842
  348MOL0     C47908   3.746   7.634   9.657 -0.0166  0.4878 -0.0124
  348MOL0     C47909   3.712   7.504   9.734  0.4334 -0.2906  0.0177
  348MOL0     O47910   3.746   7.387   9.665 -0.4727 -0.3701  0.2215
  348MOL0     C47911   3.827   7.295   9.716  0.3818  0.3242 -0.0986
  348MOL0     C47912   3.876   7.280   9.844  0.7562  0.2230 -0.3088
  348MOL0     C47913   3.946   7.165   9.886  0.3804 -0.6264  0.7578
  348MOL0     C47914   3.999   7.162  10.028 -0.1316  0.5987  0.1276
  348MOL0     C47915   3.980   7.065   9.790  0.9449  0.9494  0.6249
  348MOL0     C47916   4.062   6.943   9.819 -0.1178  0.0029 -0.4592
  348MOL0     O47917   4.126   6.885   9.709 -0.2355  0.2487 -0.0932
  348MOL0     C47918   4.185   6.755   9.720  0.5118  0.2405 -0.0609
  348MOL0     C47919   4.136   6.644   9.788 -0.4455  0.5966  0.4898
  348MOL0     C47920   4.185   6.516   9.776  1.1227 -0.7678  0.0253
  348MOL0     C47921   4.287   6.491   9.693 -0.3670 -0.0142  0.8239
  348MOL0     O47922   4.345   6.371   9.662 -0.5346 -0.7310  0.1322
  348MOL0     C47923   4.306   6.253   9.727 -0.2865 -0.5451 -0.6369
  348MOL0     C47924   4.434   6.183   9.762  0.0617 -0.2600  0.2178
  348MOL0     C47925   4.421   6.047   9.826  0.0692  0.2948  0.5653
  348MOL0     C47926   4.550   5.967   9.836 -0.1465  1.3930 -0.2105
  348MOL0     C47927   4.527   5.848   9.922 -0.5183  1.6688 -0.1676
  348MOL0     C47928   4.406   5.758   9.881  0.0994 -0.4252  1.0818
  348MOL0     C47929   4.400   5.719   9.733  1.0900 -0.3070 -0.1649
  348MOL0     C47930   4.482   5.589   9.712 -0.1166  0.1335  0.6259
  348MOL0    Cl47931   4.501   5.564   9.547 -0.1606  0.1957  0.0102
  348MOL0     C47932   4.342   6.603   9.613  0.7771  0.6930 -0.8147
  348MOL0     C47933   4.290   6.732   9.631  0.2173 -0.1504 -0.2335
  348MOL0     O47934   4.068   6.908   9.939 -0.2757 -0.2675 -0.3796
  348MOL0     C47935   3.947   7.091   9.659  0.6575  0.6787 -0.1469
  348MOL0     C47936   3.857   7.194   9.624 -0.1052  0.2728  0.1634
  348MOL0     N47937   3.629   7.668   9.230 -0.5458  0.3019  0.0500
  348MOL0     N47938   3.585   7.671   9.108 -0.4671  0.0197  0.3155
  348MOL0     C47939   3.254   8.189   9.377 -0.9370 -0.3731  0.2966
  348MOL0     C47940   3.316   8.169   9.500  0.1027 -0.5360  0.5987
  348MOL0     C47941   3.484   7.926   9.832 -0.4959 -0.0635 -0.2860
  348MOL0     C47942   3.564   8.035   9.882  0.0450 -0.0019  0.0361
  348MOL0     C47943   3.648   8.024   9.980 -0.1825 -0.3252 -0.3470
  348MOL0     C47944   3.657   7.902  10.055  0.5416 -0.0591  0.5366
  348MOL0     O47945   3.739   7.879  10.158  0.8287  0.2288  0.2202
  348MOL0     C47946   3.835   7.990  10.196 -0.2267 -1.5181  0.1496
  348MOL0     C47947   3.761   8.068  10.305 -1.0345  0.7826 -0.7757
  348MOL0     C47948   3.808   8.204  10.313  0.5799 -0.7137 -0.5272
  348MOL0     C47949   3.945   8.218  10.385  0.5266 -0.1796  0.4098
  348MOL0     C47950   3.927   8.205  10.528 -0.8927  0.0707 -0.0584
  348MOL0     C47951   3.919   8.201  10.650 -0.2220  0.0397  0.3106
  348MOL0     C47952   3.574   7.802  10.018  0.3895 -0.2583 -0.5671
  348MOL0     C47953   3.483   7.806   9.912 -0.0078 -0.5533  0.4311
  348MOL0     C47954   3.375   7.705   9.896  0.4511  0.9486 -0.6246
  348MOL0     H47955   3.504   7.894   9.418 -1.7697 -1.6147 -1.7148
  348MOL0     H47956   3.394   7.923   9.210  1.0696 -2.1570  1.8084
  348MOL0     H47957   3.407   8.075   9.023 -0.8956 -1.7285 -2.0684
  348MOL0     H47958   3.386   8.249   9.062  0.0072  0.6628 -2.2958
  348MOL0     H47959   3.185   8.241   8.889 -0.5493 -0.3279 -2.4991
  348MOL0     H47960   3.334   8.214   8.810  1.0160 -1.0995  0.4959
  348MOL0     H47961   3.209   7.973   8.935  0.9370 -0.3342  0.2613
  348MOL0     H47962   3.127   8.043   8.804 -0.6525 -1.2653  2.3748
  348MOL0     H47963   3.351   8.037   8.659  0.2060  1.1252  1.2099
  348MOL0     H47964   3.427   7.961   8.795  1.7973 -0.1131 -1.7592
  348MOL0     H47965   3.363   7.794   8.637  0.0970 -1.5712  0.5556
  348MOL0     H47966   3.184   7.838   8.650 -1.9298  1.5687  3.0811
  348MOL0     H47967   3.168   7.745   8.866 -0.6767 -0.7018 -0.2430
  348MOL0     H47968   3.232   7.628   8.770 -0.6130  0.3178 -0.0183
  348MOL0     H47969   3.382   7.817   8.946 -1.0124  0.8745 -0.7275
  348MOL0     H47970   3.468   7.699   8.854 -0.0737  2.7267 -1.7266
  348MOL0     H47971   3.256   7.624   9.064  0.9061  0.4664  0.0909
  348MOL0     H47972   3.352   7.501   8.975  0.1323 -0.4976 -1.2332
  348MOL0     H47973   3.335   7.536   9.273 -0.9817  1.5959 -1.1402
  348MOL0     H47974   3.526   7.500   9.497  0.5509 -0.0337  1.5069
  348MOL0     H47975   3.504   7.675   9.509  2.9746  2.3819  1.2732
  348MOL0     H47976   3.779   7.542   9.470  1.1215 -0.2465  0.7826
  348MOL0     H47977   3.753   7.713   9.465 -1.8436  3.0067  3.0837
  348MOL0     H47978   3.851   7.659   9.673 -0.0557  0.1540  0.8267
  348MOL0     H47979   3.686   7.721   9.686  0.9838  1.0111  0.5368
  348MOL0     H47980   3.769   7.515   9.827 -2.3344  0.6040  1.7439
  348MOL0     H47981   3.608   7.501   9.768 -0.7607  1.9623 -2.9880
  348MOL0     H47982   3.869   7.359   9.918  0.0183  0.0911 -0.2345
  348MOL0     H47983   3.962   7.066  10.065 -1.7758 -0.6194 -4.1287
  348MOL0     H47984   3.958   7.242  10.090  2.5099  0.6398  2.0085
  348MOL0     H47985   4.108   7.167  10.025 -0.0262 -0.9173  0.7010
  348MOL0     H47986   4.048   6.675   9.843 -0.8137 -2.6796  2.0084
  348MOL0     H47987   4.137   6.432   9.827 -1.9783 -0.3273 -1.8934
  348MOL0     H47988   4.252   6.256   9.822 -0.2583  0.5709 -0.6462
  348MOL0     H47989   4.241   6.183   9.673 -1.2375 -2.4664  2.7235
  348MOL0     H47990   4.484   6.177   9.665  1.7980  1.2589  0.9482
  348MOL0     H47991   4.493   6.252   9.823  1.8486  0.7028 -2.3836
  348MOL0     H47992   4.356   5.987   9.762 -0.2511 -1.4553  2.4171
  348MOL0     H47993   4.379   6.053   9.927 -3.3795  0.2386 -0.7148
  348MOL0     H47994   4.629   6.023   9.886 -0.4843  2.1278 -0.4805
  348MOL0     H47995   4.587   5.951   9.734 -2.4202  2.2822 -1.2549
  348MOL0     H47996   4.613   5.782   9.914 -3.7301 -2.7535 -2.7794
  348MOL0     H47997   4.505   5.873  10.026 -1.0754  1.4873 -0.2377
  348MOL0     H47998   4.317   5.815   9.911 -0.4376 -0.6346 -0.0767
  348MOL0     H47999   4.395   5.671   9.946 -0.1326 -1.3896 -0.2199
  348MOL0     H48000   4.435   5.799   9.667 -0.3493 -0.5930 -1.3372
  348MOL0     H48001   4.297   5.694   9.703  1.4707 -3.6017  0.9677
  348MOL0     H48002   4.430   5.501   9.751 -0.3966  0.2573  0.5398
  348MOL0     H48003   4.583   5.595   9.754 -0.0595 -0.1869  0.5307
  348MOL0     H48004   4.427   6.578   9.549  1.4441  0.0747  0.2926
  348MOL0     H48005   4.332   6.817   9.578  0.8128  0.7108  1.5317
  348MOL0     H48006   3.983   7.021   9.584  0.5367 -0.3484  0.7315
  348MOL0     H48007   3.837   7.211   9.519 -0.6702  0.8741  0.3702
  348MOL0     H48008   3.182   8.267   9.351 -1.0224  0.1252  1.9352
  348MOL0     H48009   3.285   8.232   9.583  2.1889  0.1424  0.9030
  348MOL0     H48010   3.547   8.133   9.839 -1.3639 -0.0357  0.4602
  348MOL0     H48011   3.685   8.117  10.022 -0.1791 -0.0107 -1.0325
  348MOL0     H48012   3.923   7.940  10.235  0.2576 -1.6379 -1.0459
  348MOL0     H48013   3.864   8.056  10.114 -1.0753 -0.3659  0.7393
  348MOL0     H48014   3.753   8.008  10.396 -0.9560 -0.7545 -1.7445
  348MOL0     H48015   3.660   8.078  10.264 -1.3969  0.4385  0.0141
  348MOL0     H48016   3.806   8.242  10.210  2.1624 -2.4941 -1.2640
  348MOL0     H48017   3.739   8.260  10.377 -2.9558 -0.7602 -3.8630
  348MOL0     H48018   3.998   8.309  10.356 -0.2182  1.1578  2.9514
  348MOL0     H48019   4.011   8.140  10.346  0.3170 -0.1219 -0.0731
  348MOL0     H48020   3.917   8.213  10.756 -2.9120 -0.2873  0.3603
  348MOL0     H48021   3.557   7.712  10.076 -1.4848 -0.9831 -2.1609
  348MOL0     H48022   3.385   7.653   9.800  1.7953  2.4326 -1.3183
  348MOL0     H48023   3.383   7.634   9.978 -2.8774 -0.0683 -1.0016
  348MOL0     H48024   3.276   7.750   9.911  0.4532  1.0936 -1.0413
  349MOL0     O48025   6.565   3.506   7.587  0.0973 -0.3558 -0.1777
  349MOL0     C48026   6.539   3.622   7.552  0.5337 -0.6988  0.2570
  349MOL0     O48027   6.433   3.688   7.610  0.1201 -0.8113  0.5827
  349MOL0     C48028   6.366   3.633   7.707  0.0816 -0.1442  0.4401
  349MOL0     C48029   6.238   3.576   7.674 -0.1041 -0.2289  0.6578
  349MOL0     C48030   6.151   3.545   7.775 -0.6712  0.1903  0.1542
  349MOL0     C48031   6.181   3.558   7.908  0.1408 -0.7482  0.2649
  349MOL0     O48032   6.084   3.514   7.995 -0.0488  0.1793  0.2448
  349MOL0     C48033   6.100   3.524   8.141 -0.3692  0.0875  0.8099
  349MOL0     C48034   5.998   3.445   8.203 -0.4968  0.1903 -0.0741
  349MOL0     C48035   5.858   3.504   8.207 -0.8194 -0.5368  0.1269
  349MOL0     C48036   5.757   3.414   8.252  0.3215 -0.1877 -0.2136
  349MOL0     C48037   5.621   3.474   8.215  1.1186 -0.2166  0.0029
  349MOL0     C48038   5.506   3.410   8.302  0.1339  0.6200 -0.8232
  349MOL0     C48039   5.363   3.457   8.257 -0.3228  0.6003  0.5451
  349MOL0     C48040   5.245   3.369   8.313  0.1255 -0.0281 -0.0764
  349MOL0     N48041   5.244   3.241   8.234 -0.6132  0.6607 -0.4120
  349MOL0     C48042   5.188   3.218   8.110  0.4702 -0.6646 -0.8341
  349MOL0     C48043   5.205   3.084   8.100  0.2245 -0.2102  0.2573
  349MOL0     C48044   5.145   3.023   7.977  0.2011 -0.6481 -1.0334
  349MOL0     C48045   5.241   3.055   7.857  0.2177  0.7396  0.0604
  349MOL0     C48046   5.234   2.961   7.740  0.3355 -0.8735 -0.1568
  349MOL0     C48047   5.120   3.013   7.643 -0.3422 -0.0809  0.7048
  349MOL0     O48048   4.993   3.034   7.711 -0.0679  0.4537  1.0591
  349MOL0     C48049   4.924   3.145   7.678  0.0895  0.2304 -0.3136
  349MOL0     C48050   4.912   3.195   7.547  0.4009 -0.0408 -0.5505
  349MOL0     C48051   4.838   3.311   7.513  0.3711  0.7895 -0.5599
  349MOL0     C48052   4.875   3.378   7.386 -0.3653  0.3059  0.1006
  349MOL0     C48053   4.752   3.373   7.607  0.2365 -0.4979  0.0161
  349MOL0     C48054   4.667   3.493   7.589  0.4135  0.9785 -0.1895
  349MOL0     O48055   4.667   3.543   7.459  0.6916 -0.0924 -0.0515
  349MOL0     C48056   4.560   3.627   7.420 -0.1889  0.0002  1.3658
  349MOL0     C48057   4.549   3.768   7.443  0.5146 -0.5962 -0.3046
  349MOL0     C48058   4.448   3.838   7.382  0.5252  0.1654  0.0416
  349MOL0     C48059   4.353   3.780   7.297 -0.7437 -0.3281  0.3434
  349MOL0     O48060   4.262   3.850   7.231 -0.1948  0.1179  0.2163
  349MOL0     C48061   4.303   3.867   7.094 -0.0363  0.0447 -1.0172
  349MOL0     C48062   4.220   3.976   7.029  0.3354  0.2702 -0.1074
  349MOL0     C48063   4.214   4.107   7.105 -0.2177  0.0930 -0.5147
  349MOL0     C48064   4.137   4.202   7.013 -0.7268 -0.1799 -0.6243
  349MOL0     C48065   4.133   4.345   7.074 -0.0305  0.5437 -0.1383
  349MOL0     C48066   4.034   4.436   6.983 -0.5109 -0.3941 -0.5570
  349MOL0     C48067   4.082   4.580   7.004  0.5851  0.3746 -0.8943
  349MOL0     C48068   3.966   4.673   6.957  0.0389  0.1480  0.2434
  349MOL0    Cl48069   3.918   4.659   6.786  0.3977 -0.2322 -0.4266
  349MOL0     C48070   4.359   3.643   7.281 -0.9992 -0.1093  0.2557
  349MOL0     C48071   4.456   3.573   7.349  0.4962  0.6799  0.0108
  349MOL0     O48072   4.629   3.545   7.691  0.3305 -0.7756  0.1565
  349MOL0     C48073   4.763   3.315   7.736 -0.0858  0.2618 -0.3195
  349MOL0     C48074   4.842   3.205   7.771 -0.0002 -0.4462 -0.0641
  349MOL0     N48075   5.269   3.026   8.204 -0.0584  0.3577 -0.8642
  349MOL0     N48076   5.290   3.119   8.279 -0.6900 -0.8983  0.9230
  349MOL0     C48077   6.308   3.614   7.939 -0.2618  1.1336 -0.8545
  349MOL0     C48078   6.403   3.633   7.843 -1.0591 -0.8632 -0.1028
  349MOL0     C48079   6.614   3.690   7.442 -0.9383 -0.5924 -0.0040
  349MOL0     C48080   6.621   3.831   7.447 -0.3608  0.5925 -0.0138
  349MOL0     C48081   6.695   3.908   7.358  0.7924  0.8934 -1.2345
  349MOL0     C48082   6.768   3.842   7.255 -0.2337  0.2897 -0.5428
  349MOL0     O48083   6.855   3.916   7.174  0.2707 -0.7398  0.0901
  349MOL0     C48084   6.849   3.887   7.034 -0.7123  0.1439 -0.1047
  349MOL0     C48085   6.909   4.008   6.964  0.4647 -0.0687  0.2539
  349MOL0     C48086   6.798   4.112   6.947  1.0789 -0.6954  0.6422
  349MOL0     C48087   6.751   4.127   6.797 -0.0701 -0.9149 -0.5947
  349MOL0     C48088   6.667   4.247   6.787 -0.0903  0.2511  0.0312
  349MOL0     C48089   6.624   4.360   6.795  0.6094  0.1104  0.6065
  349MOL0     C48090   6.759   3.700   7.245  0.7077 -0.0482 -0.3136
  349MOL0     C48091   6.690   3.623   7.343 -0.1633  0.1619 -0.1972
  349MOL0     C48092   6.713   3.475   7.350  0.0058  0.5919  0.7585
  349MOL0     H48093   6.215   3.556   7.569  0.1390  3.0695 -0.1294
  349MOL0     H48094   6.057   3.495   7.754  0.6831 -1.8086 -1.5762
  349MOL0     H48095   6.106   3.632   8.159  2.1236  0.8326 -3.2805
  349MOL0     H48096   6.195   3.482   8.173 -0.5650 -0.4877  0.6541
  349MOL0     H48097   6.005   3.342   8.169  2.5286  1.0494 -2.5265
  349MOL0     H48098   6.026   3.446   8.309 -1.0549  0.5115  0.0736
  349MOL0     H48099   5.853   3.589   8.275 -0.2218 -1.0729  0.8541
  349MOL0     H48100   5.840   3.548   8.108 -0.4420 -2.9721 -1.0939
  349MOL0     H48101   5.784   3.319   8.206  1.4364 -0.6780  1.3602
  349MOL0     H48102   5.773   3.391   8.358 -1.3739 -2.6696 -0.4135
  349MOL0     H48103   5.593   3.461   8.110 -4.1930  2.2196  0.7876
  349MOL0     H48104   5.621   3.582   8.229  3.1752 -0.0669 -0.8412
  349MOL0     H48105   5.509   3.302   8.285 -2.3201  0.6489 -1.8390
  349MOL0     H48106   5.512   3.439   8.407 -0.4027 -1.8410 -0.0560
  349MOL0     H48107   5.366   3.450   8.148 -4.5328  1.4245  0.2214
  349MOL0     H48108   5.360   3.560   8.294 -0.8023  1.1418 -0.9523
  349MOL0     H48109   5.265   3.350   8.419  1.0264 -3.7655 -0.7557
  349MOL0     H48110   5.157   3.429   8.291  2.5867  3.8599 -0.2408
  349MOL0     H48111   5.147   3.293   8.043 -1.5840  0.8402  1.8870
  349MOL0     H48112   5.047   3.066   7.956  0.5039  0.0517 -1.0388
  349MOL0     H48113   5.141   2.915   7.996 -1.5108 -0.5233 -0.4770
  349MOL0     H48114   5.213   3.155   7.823 -0.0635  1.1501  1.4145
  349MOL0     H48115   5.344   3.061   7.894 -0.3712 -0.3170  2.0168
  349MOL0     H48116   5.325   2.969   7.679  0.4807 -0.9610  0.0468
  349MOL0     H48117   5.227   2.856   7.772 -0.9502 -1.4575 -2.1526
  349MOL0     H48118   5.151   3.109   7.600 -0.3787  0.3725  1.6697
  349MOL0     H48119   5.102   2.940   7.563 -0.3675 -1.3801  1.8621
  349MOL0     H48120   4.980   3.150   7.475 -1.2617 -3.5468 -0.1726
  349MOL0     H48121   4.789   3.385   7.319 -0.6362  1.4382  0.5415
  349MOL0     H48122   4.952   3.321   7.333  0.9993  2.6971 -0.6089
  349MOL0     H48123   4.909   3.480   7.407  1.8434  0.0328 -1.7145
  349MOL0     H48124   4.623   3.817   7.506 -2.1865 -3.0756  5.5713
  349MOL0     H48125   4.431   3.943   7.404 -1.3672  0.0236 -0.5881
  349MOL0     H48126   4.411   3.887   7.096  0.2957 -1.3581  2.4011
  349MOL0     H48127   4.290   3.772   7.041 -1.6138 -0.4235  0.1100
  349MOL0     H48128   4.267   4.004   6.935 -1.4831 -2.0319 -1.8165
  349MOL0     H48129   4.121   3.929   7.025  1.5236 -2.3798 -1.1999
  349MOL0     H48130   4.307   4.148   7.144 -0.5785 -0.4018  0.9177
  349MOL0     H48131   4.142   4.090   7.185 -0.1413  2.6917  0.1845
  349MOL0     H48132   4.034   4.165   7.010 -0.7208 -0.5476  1.8552
  349MOL0     H48133   4.192   4.201   6.919  0.0138  0.2067 -0.2003
  349MOL0     H48134   4.103   4.347   7.179  1.8685  2.1571  0.4249
  349MOL0     H48135   4.239   4.373   7.074  0.2325 -0.0090 -3.7114
  349MOL0     H48136   3.934   4.424   7.025 -1.3490  1.0018 -2.0409
  349MOL0     H48137   4.036   4.409   6.877  0.1577  3.3591 -1.6432
  349MOL0     H48138   4.168   4.606   6.942  1.6390 -1.3446 -0.2073
  349MOL0     H48139   4.112   4.594   7.108 -1.7772  1.0123 -0.2270
  349MOL0     H48140   3.988   4.773   6.997 -1.0605  0.0927  1.0391
  349MOL0     H48141   3.872   4.646   7.007 -0.1103 -0.4190 -0.3337
  349MOL0     H48142   4.281   3.588   7.230 -0.0989 -1.2752  0.0924
  349MOL0     H48143   4.460   3.464   7.343 -0.7508  0.4853  1.7620
  349MOL0     H48144   4.693   3.357   7.808  0.0725 -0.1115  0.0627
  349MOL0     H48145   4.849   3.159   7.869  0.1095 -1.1426 -0.3888
  349MOL0     H48146   6.345   3.621   8.041 -1.0883  2.1602 -0.6060
  349MOL0     H48147   6.507   3.660   7.856 -1.3865  0.5780 -0.3188
  349MOL0     H48148   6.577   3.878   7.534  1.2765  0.0400  1.1536
  349MOL0     H48149   6.697   4.016   7.369 -2.8306  0.9754 -0.2408
  349MOL0     H48150   6.911   3.803   7.001 -1.0654 -1.2530  2.5101
  349MOL0     H48151   6.744   3.875   7.005 -0.3005  1.8468 -2.6451
  349MOL0     H48152   6.951   3.977   6.867 -1.5588  0.0880 -0.7345
  349MOL0     H48153   6.991   4.056   7.018  0.1054 -1.1611  1.8369
  349MOL0     H48154   6.703   4.085   6.996  0.2311  1.3266  0.2289
  349MOL0     H48155   6.821   4.211   6.988  0.5906 -1.0145  1.7346
  349MOL0     H48156   6.695   4.043   6.755 -0.1687  0.4301 -3.3740
  349MOL0     H48157   6.842   4.136   6.736  0.1769  0.6893 -0.0418
  349MOL0     H48158   6.585   4.460   6.805 -3.5316 -0.9593 -2.0290
  349MOL0     H48159   6.810   3.634   7.175  0.9612 -2.4402  2.0018
  349MOL0     H48160   6.763   3.441   7.259 -1.0243  0.3621  0.2643
  349MOL0     H48161   6.766   3.426   7.432  0.9065  0.9234  0.3866
  349MOL0     H48162   6.620   3.418   7.342 -0.2381  0.5731  3.0232
  350MOL0     O48163   8.258  10.248  10.509 -0.5693  0.3271  1.1640
  350MOL0     C48164   8.149  10.237  10.458 -0.1156 -0.2785  0.4522
  350MOL0     O48165   8.087  10.330  10.371 -0.1016  0.3671 -0.0859
  350MOL0     C48166   8.171  10.420  10.309  1.0072  0.4126 -0.4062
  350MOL0     C48167   8.304  10.404  10.256  0.6168 -0.3771 -0.0233
  350MOL0     C48168   8.373  10.522  10.190  0.3667  0.8740 -0.5675
  350MOL0     C48169   8.314  10.642  10.193  0.6333 -1.6975  0.4429
  350MOL0     O48170   8.382  10.751  10.139  0.5168 -0.3657  0.2050
  350MOL0     C48171   8.357  10.888  10.176  0.7243 -0.4841  0.2092
  350MOL0     C48172   8.486  10.967  10.159 -0.5446  0.1835 -0.0165
  350MOL0     C48173   8.594  10.921  10.251 -0.8099  0.2423  0.8107
  350MOL0     C48174   8.686  11.044  10.291  0.1952 -1.1177  0.3506
  350MOL0     C48175   8.814  11.006  10.381  0.5420 -0.6435 -0.4789
  350MOL0     C48176   8.890  11.134  10.405  0.3027  0.9978 -0.0398
  350MOL0     C48177   8.824  11.235  10.497 -0.8269 -0.0373  0.2599
  350MOL0     C48178   8.765  11.171  10.632  0.0350  0.1073  0.5000
  350MOL0     N48179   8.719  11.265  10.731  0.2732  0.2626  0.2589
  350MOL0     C48180   8.791  11.362  10.805 -0.2433  0.0418 -0.1185
  350MOL0     C48181   8.707  11.435  10.880  0.3309  0.4377 -0.4601
  350MOL0     C48182   8.736  11.565  10.952 -1.3055  0.8212  0.2152
  350MOL0     C48183   8.756  11.552  11.110  0.3004  0.3985 -0.5104
  350MOL0     C48184   8.636  11.484  11.181  0.3747 -0.5957  0.4131
  350MOL0     C48185   8.647  11.496  11.339  0.5057 -0.4304 -0.3339
  350MOL0     O48186   8.671  11.630  11.378  0.0639  0.1102  0.4176
  350MOL0     C48187   8.696  11.660  11.513  1.3400 -0.4230 -0.4743
  350MOL0     C48188   8.709  11.573  11.622 -0.4621  0.3957 -0.7004
  350MOL0     C48189   8.714  11.611  11.754  0.0539 -0.3490  0.5758
  350MOL0     C48190   8.715  11.493  11.853 -0.7763  0.2201  0.3975
  350MOL0     C48191   8.733  11.742  11.788  0.1090 -0.3648 -0.0940
  350MOL0     C48192   8.758  11.781  11.932  0.3158  0.5752  0.4669
  350MOL0     O48193   8.717  11.698  12.037  0.2326  0.6176 -0.8174
  350MOL0     C48194   8.720  11.739  12.161  0.4085  0.0156  0.1470
  350MOL0     C48195   8.847  11.736  12.225 -1.7047 -0.5790 -0.3061
  350MOL0     C48196   8.852  11.781  12.357  0.9568  1.1975 -0.4360
  350MOL0     C48197   8.740  11.825  12.427  0.1485 -0.0145  0.8657
  350MOL0     O48198   8.757  11.882  12.551  0.9649 -0.0093  1.0107
  350MOL0     C48199   8.891  11.915  12.588  0.6547 -0.2946  0.0214
  350MOL0     C48200   8.900  12.002  12.710  0.3344 -0.4477  0.3877
  350MOL0     C48201   9.049  12.030  12.752  0.4167  0.8216  0.3318
  350MOL0     C48202   9.062  12.092  12.882  0.3829  0.6997 -0.5398
  350MOL0     C48203   9.190  12.173  12.891 -0.0653  0.7019 -0.4350
  350MOL0     C48204   9.312  12.100  12.961 -0.0711  0.0515 -0.3530
  350MOL0     C48205   9.460  12.138  12.925 -0.3305 -0.2235  0.7175
  350MOL0     C48206   9.576  12.120  13.029  0.2007  0.1142  0.1468
  350MOL0    Cl48207   9.719  12.197  12.949  0.6774 -0.5988  0.0777
  350MOL0     C48208   8.616  11.821  12.363  0.0606  0.2665 -0.3950
  350MOL0     C48209   8.604  11.771  12.232 -0.4062  0.6209 -0.0951
  350MOL0     O48210   8.801  11.896  11.952  0.0633 -0.0461  0.3105
  350MOL0     C48211   8.723  11.838  11.686  0.2295 -0.1031  0.2816
  350MOL0     C48212   8.698  11.797  11.549 -0.1186 -0.3022  0.1002
  350MOL0     N48213   8.579  11.390  10.847  0.3461 -0.3497  0.2592
  350MOL0     N48214   8.587  11.282  10.769  0.6652  0.0387  0.2662
  350MOL0     C48215   8.189  10.655  10.235  0.0995  0.0938 -0.3233
  350MOL0     C48216   8.115  10.545  10.297 -0.5597 -0.1678 -0.0039
  350MOL0     C48217   8.063  10.116  10.480 -0.1091 -0.3098  0.4917
  350MOL0     C48218   7.925  10.109  10.446 -0.1847 -0.9063 -0.7994
  350MOL0     C48219   7.839  10.005  10.461 -0.1734  0.4072 -0.5955
  350MOL0     C48220   7.893   9.881  10.505  0.8772  0.3985  0.5370
  350MOL0     O48221   7.807   9.776  10.501 -0.2513 -0.2185 -0.3529
  350MOL0     C48222   7.851   9.658  10.552 -0.4782  0.6312  0.0439
  350MOL0     C48223   7.726   9.577  10.539  0.2390 -0.5747 -0.2128
  350MOL0     C48224   7.592   9.642  10.597 -0.2604 -0.9177  0.2672
  350MOL0     C48225   7.494   9.529  10.635 -0.5663  0.6170 -0.3181
  350MOL0     C48226   7.545   9.432  10.738  1.0842  0.1491  0.4316
  350MOL0     C48227   7.584   9.353  10.828 -0.0280 -0.4200  0.0910
  350MOL0     C48228   8.026   9.886  10.540  0.5943  0.9217  0.4392
  350MOL0     C48229   8.112   9.997  10.536  0.6888  0.6945  0.5272
  350MOL0     C48230   8.249   9.978  10.575 -0.7249 -0.2289  0.1563
  350MOL0     H48231   8.359  10.312  10.240 -2.6318 -2.4056 -0.2817
  350MOL0     H48232   8.465  10.513  10.134  1.2185  0.2951  0.8874
  350MOL0     H48233   8.322  10.890  10.280 -0.6215 -3.5799 -0.0666
  350MOL0     H48234   8.283  10.939  10.115 -1.0345 -0.1936  2.4459
  350MOL0     H48235   8.527  10.959  10.058  0.0138  1.9858  0.0157
  350MOL0     H48236   8.450  11.067  10.186 -2.9470 -1.1930  2.3160
  350MOL0     H48237   8.546  10.887  10.344 -0.4135 -1.5563  0.4063
  350MOL0     H48238   8.660  10.843  10.213  0.1949  0.5616  1.8377
  350MOL0     H48239   8.725  11.087  10.199 -1.1464 -0.1105  0.2131
  350MOL0     H48240   8.627  11.116  10.348  1.3503 -2.3901  3.3398
  350MOL0     H48241   8.887  10.941  10.333  1.2964 -1.0207  1.0951
  350MOL0     H48242   8.794  10.957  10.477  0.0542 -0.7578 -0.6355
  350MOL0     H48243   8.983  11.094  10.444 -0.0399 -1.8954 -1.9036
  350MOL0     H48244   8.907  11.187  10.310 -0.8567 -1.0101 -1.4555
  350MOL0     H48245   8.735  11.272  10.445 -0.4189 -0.5110 -0.8102
  350MOL0     H48246   8.904  11.308  10.512  1.3744 -2.3238  0.2798
  350MOL0     H48247   8.691  11.096  10.603 -0.4694  1.2331 -1.2835
  350MOL0     H48248   8.843  11.107  10.674 -0.7752 -0.3191  1.4035
  350MOL0     H48249   8.897  11.379  10.786  0.0414 -2.0098 -0.5679
  350MOL0     H48250   8.654  11.635  10.933 -1.4491  0.2694 -1.3596
  350MOL0     H48251   8.831  11.607  10.918 -0.3122  0.0988  1.9724
  350MOL0     H48252   8.841  11.490  11.137 -0.0562  0.7034  1.4495
  350MOL0     H48253   8.784  11.646  11.158  1.3387 -0.6927  1.0898
  350MOL0     H48254   8.548  11.543  11.154  1.0613  1.2241  1.8852
  350MOL0     H48255   8.643  11.378  11.157  1.1968 -0.2323 -1.0588
  350MOL0     H48256   8.558  11.456  11.388 -0.3351 -0.2921 -1.7001
  350MOL0     H48257   8.725  11.432  11.382 -3.7898 -4.4269  2.3891
  350MOL0     H48258   8.709  11.468  11.595  2.3134  0.5962 -1.8224
  350MOL0     H48259   8.736  11.411  11.784 -1.7193  1.7400 -1.8101
  350MOL0     H48260   8.611  11.479  11.886 -2.5851 -2.2294 -5.2338
  350MOL0     H48261   8.794  11.493  11.929  1.1373  1.6531 -1.4804
  350MOL0     H48262   8.932  11.710  12.164 -1.8031 -1.1778 -0.1926
  350MOL0     H48263   8.948  11.769  12.406  0.1355 -2.1411  0.5812
  350MOL0     H48264   8.938  11.819  12.609 -3.0291 -3.4540 -4.1254
  350MOL0     H48265   8.945  11.967  12.508 -0.6581  0.3891 -0.4645
  350MOL0     H48266   8.848  12.097  12.692  1.7980 -0.2361 -3.9864
  350MOL0     H48267   8.841  11.958  12.791  0.4646 -1.4429 -0.0473
  350MOL0     H48268   9.097  12.086  12.671  1.4740 -1.0019 -0.3629
  350MOL0     H48269   9.094  11.930  12.752 -0.8657  0.2178 -0.4087
  350MOL0     H48270   9.067  12.013  12.958  0.9464 -1.2954 -2.5524
  350MOL0     H48271   8.982  12.163  12.906  1.1373  1.2833  0.2929
  350MOL0     H48272   9.215  12.208  12.790  0.1848  3.0107  0.3653
  350MOL0     H48273   9.170  12.264  12.949 -2.3354  1.3203 -2.0157
  350MOL0     H48274   9.304  11.991  12.957  1.5244 -0.5296  4.7938
  350MOL0     H48275   9.306  12.121  13.068  0.0106 -0.9431 -0.1386
  350MOL0     H48276   9.455  12.243  12.894 -1.6457 -0.6476 -0.6533
  350MOL0     H48277   9.488  12.080  12.837  1.1753  2.3382 -0.5871
  350MOL0     H48278   9.577  12.014  13.056 -0.7488  0.2868  0.9471
  350MOL0     H48279   9.551  12.177  13.119  2.8635  0.4463  0.7419
  350MOL0     H48280   8.518  11.854  12.397 -0.3151  0.1969 -1.3962
  350MOL0     H48281   8.508  11.758  12.182 -0.1784 -0.8939 -0.1820
  350MOL0     H48282   8.727  11.945  11.704 -0.3376 -0.0766  0.2705
  350MOL0     H48283   8.674  11.879  11.482 -0.4232 -0.3356  0.1663
  350MOL0     H48284   8.141  10.752  10.224 -0.1004  0.0028 -0.2613
  350MOL0     H48285   8.020  10.557  10.348 -0.7388 -2.5913  0.3687
  350MOL0     H48286   7.880  10.197  10.401 -1.1293 -0.1484  1.4319
  350MOL0     H48287   7.736  10.025  10.432  0.1959 -0.3461 -2.5984
  350MOL0     H48288   7.921   9.602  10.489 -3.4834  0.3541 -3.3232
  350MOL0     H48289   7.883   9.661  10.657 -1.3703 -3.0094  0.5444
  350MOL0     H48290   7.747   9.480  10.585  2.4684  0.4921  1.1616
  350MOL0     H48291   7.707   9.545  10.436  1.6765 -2.8991  0.1653
  350MOL0     H48292   7.609   9.693  10.692  2.1332 -0.7721 -0.1845
  350MOL0     H48293   7.549   9.713  10.525  3.4373 -0.3470 -1.6385
  350MOL0     H48294   7.465   9.480  10.542  0.0201  0.6378 -0.5167
  350MOL0     H48295   7.408   9.580  10.680  0.0702 -1.5412  3.7072
  350MOL0     H48296   7.608   9.281  10.903  1.1437 -0.8921 -0.7131
  350MOL0     H48297   8.081   9.799  10.575  1.8071  0.8265 -1.5466
  350MOL0     H48298   8.310  10.004  10.488 -0.8880 -0.3793 -0.0048
  350MOL0     H48299   8.272  10.046  10.657 -1.3587 -0.3921  0.4748
  350MOL0     H48300   8.281   9.878  10.603  2.8634  0.6659 -0.2696
  351MOL0     O48301  10.846   9.069   0.572 -0.9199 -0.6280 -0.2499
  351MOL0     C48302  10.744   9.119   0.627  0.4992  0.5676 -0.5651
  351MOL0     O48303  10.753   9.188   0.734  0.3471 -0.1928 -0.2556
  351MOL0     C48304  10.834   9.297   0.738  0.4039 -0.3307  0.6749
  351MOL0     C48305  10.792   9.382   0.840 -0.5980  0.5722 -1.1136
  351MOL0     C48306  10.843   9.507   0.853 -1.0837 -0.3488  0.4745
  351MOL0     C48307  10.939   9.550   0.760 -0.0757  0.0696 -0.3562
  351MOL0     O48308  10.994   9.673   0.779 -0.3362 -0.3816 -0.3937
  351MOL0     C48309  11.121   9.656   0.844  0.3227  0.1918 -0.3473
  351MOL0     C48310  11.175   9.773   0.916  0.7067 -0.3331  0.5725
  351MOL0     C48311  11.111   9.796   1.051 -1.0730  0.5252 -0.0992
  351MOL0     C48312  11.190   9.887   1.149 -0.2543  0.1261 -0.2224
  351MOL0     C48313  11.216  10.030   1.094  0.1356  0.9111 -0.0835
  351MOL0     C48314  11.304  10.110   1.197  0.1425  0.0667 -0.3580
  351MOL0     C48315  11.377  10.224   1.119  0.6081  0.6646  0.0410
  351MOL0     C48316  11.289  10.341   1.067 -0.2527  0.7075 -0.2337
  351MOL0     N48317  11.225  10.300   0.945 -0.5503 -0.3169 -0.1704
  351MOL0     C48318  11.282  10.266   0.824  0.7956 -0.3780 -0.2186
  351MOL0     C48319  11.174  10.258   0.740  0.2530  0.0319 -0.2992
  351MOL0     C48320  11.177  10.213   0.601  1.0946 -1.0987 -0.4493
  351MOL0     C48321  11.295  10.116   0.578 -0.4966  0.0443 -0.4841
  351MOL0     C48322  11.264   9.987   0.518  0.0117  0.3542  0.0507
  351MOL0     C48323  11.201   9.996   0.377  0.4990  0.7145  0.0185
  351MOL0     O48324  11.082   9.915   0.365  0.3392  0.2729  0.1843
  351MOL0     C48325  11.076   9.820   0.264 -0.7625  0.0958  0.4092
  351MOL0     C48326  11.140   9.840   0.134  0.3573  0.1576  0.2711
  351MOL0     C48327  11.134   9.737   0.037 -1.7568  0.1005  0.6018
  351MOL0     C48328  11.221   9.754  -0.085 -0.3187  0.4990 -0.9190
  351MOL0     C48329  11.066   9.627   0.067  0.1858  0.7892  0.0270
  351MOL0     C48330  11.054   9.521  -0.034 -0.4613  0.1030  0.3840
  351MOL0     O48331  11.069   9.391   0.014 -0.1742  0.2118  0.8176
  351MOL0     C48332  11.029   9.291  -0.073  0.2654  0.6667  0.8558
  351MOL0     C48333  10.908   9.227  -0.068 -1.1260 -0.3513 -0.8331
  351MOL0     C48334  10.880   9.123  -0.157 -0.3069 -0.1909 -0.9710
  351MOL0     C48335  10.980   9.072  -0.237 -0.3225  0.5953 -1.1007
  351MOL0     O48336  10.964   8.958  -0.317  0.1610 -0.9307  0.2661
  351MOL0     C48337  10.836   8.953  -0.377 -0.1176 -0.0546  0.6214
  351MOL0     C48338  10.840   8.882  -0.513 -0.2206 -0.7866 -0.2662
  351MOL0     C48339  10.963   8.922  -0.602 -0.0602 -0.1490  0.4983
  351MOL0     C48340  10.971   8.825  -0.727 -0.0428 -0.3659  0.6392
  351MOL0     C48341  11.083   8.836  -0.828 -0.5214  0.1970  0.7695
  351MOL0     C48342  11.034   8.772  -0.959 -0.2515  0.0533  0.1974
  351MOL0     C48343  11.006   8.617  -0.950  0.0326  0.4146  0.8939
  351MOL0     C48344  11.148   8.549  -0.952 -0.1250  1.3233  0.1536
  351MOL0    Cl48345  11.112   8.381  -0.992  0.1266  0.4902  0.0306
  351MOL0     C48346  11.099   9.147  -0.248  0.3269 -1.0694  0.5641
  351MOL0     C48347  11.126   9.251  -0.169 -0.8726  0.3209  0.4969
  351MOL0     O48348  11.017   9.547  -0.147 -0.0880 -0.1186  0.0836
  351MOL0     C48349  10.992   9.605   0.185 -0.8146 -0.1758  0.4661
  351MOL0     C48350  11.004   9.702   0.288  0.2796  0.0832  0.0571
  351MOL0     N48351  11.059  10.274   0.812 -0.5980 -1.3814  0.0696
  351MOL0     N48352  11.093  10.305   0.928 -0.1915  0.1587 -1.1825
  351MOL0     C48353  10.980   9.467   0.655 -0.0980  0.1103 -0.9509
  351MOL0     C48354  10.925   9.334   0.643 -0.6552 -0.2040  0.1360
  351MOL0     C48355  10.610   9.064   0.584 -0.4183 -0.4187  0.0567
  351MOL0     C48356  10.593   8.941   0.514  0.0647 -0.5625 -0.0118
  351MOL0     C48357  10.479   8.895   0.459  0.5659 -0.2596  0.0029
  351MOL0     C48358  10.365   8.980   0.470 -0.1620 -0.9630  0.3027
  351MOL0     O48359  10.240   8.955   0.416  0.5096  0.0362 -0.0824
  351MOL0     C48360  10.174   8.834   0.441  0.5459  0.0096 -1.0652
  351MOL0     C48361  10.105   8.813   0.578 -0.5075 -0.4197  0.3335
  351MOL0     C48362   9.981   8.903   0.599  0.3542  0.9024 -0.1543
  351MOL0     C48363  10.015   9.041   0.650 -0.0612 -0.3054  0.8321
  351MOL0     C48364   9.890   9.116   0.658  0.6516  0.3234  0.5257
  351MOL0     C48365   9.798   9.190   0.651 -0.1078 -0.0038 -1.1351
  351MOL0     C48366  10.373   9.097   0.541 -0.6007 -0.2725  0.9893
  351MOL0     C48367  10.491   9.135   0.598 -1.2334  0.3974  0.5255
  351MOL0     C48368  10.467   9.275   0.662 -0.1496  0.5570  0.7552
  351MOL0     H48369  10.708   9.348   0.900 -1.4960  1.4271 -1.8542
  351MOL0     H48370  10.835   9.573   0.938  3.9310  0.6647  0.4491
  351MOL0     H48371  11.201   9.625   0.775  2.9485  2.2087  1.5725
  351MOL0     H48372  11.103   9.570   0.909 -2.3836 -0.1033 -1.3703
  351MOL0     H48373  11.284   9.774   0.921  0.7833  1.6760 -0.3906
  351MOL0     H48374  11.154   9.859   0.852 -1.5498 -1.4024 -0.2343
  351MOL0     H48375  11.019   9.849   1.025 -3.0907 -2.0652  1.3255
  351MOL0     H48376  11.088   9.698   1.095 -0.3115 -0.1743 -1.1928
  351MOL0     H48377  11.134   9.893   1.243  0.5707  1.7553  0.1976
  351MOL0     H48378  11.286   9.846   1.180  0.2998  2.4211  1.3837
  351MOL0     H48379  11.127  10.085   1.061 -0.7299 -1.4747 -2.0719
  351MOL0     H48380  11.279  10.023   1.005 -1.0337  0.2779 -0.8990
  351MOL0     H48381  11.247  10.164   1.273  3.1387  0.9994  1.4189
  351MOL0     H48382  11.383  10.050   1.245 -3.0719 -2.2880  2.5072
  351MOL0     H48383  11.445  10.182   1.043  0.8338  0.2913  0.4478
  351MOL0     H48384  11.439  10.264   1.199  0.3249  0.7832  0.1995
  351MOL0     H48385  11.215  10.344   1.147 -0.6949  1.3610 -0.6535
  351MOL0     H48386  11.338  10.438   1.053  2.8403 -0.9262 -1.9135
  351MOL0     H48387  11.385  10.264   0.792  0.2068 -0.9008 -2.1981
  351MOL0     H48388  11.182  10.298   0.531 -1.4333 -0.5563 -0.0637
  351MOL0     H48389  11.085  10.157   0.582  1.7567 -1.7936 -1.7751
  351MOL0     H48390  11.380  10.160   0.526  0.2880 -1.4119 -0.4895
  351MOL0     H48391  11.323  10.078   0.676  0.6416  1.9657 -0.0208
  351MOL0     H48392  11.356   9.929   0.510 -1.1589 -1.3841 -1.7953
  351MOL0     H48393  11.190   9.938   0.582 -0.5437  1.0793 -0.0245
  351MOL0     H48394  11.176  10.099   0.349 -4.0665 -0.0155  0.5702
  351MOL0     H48395  11.271   9.956   0.303  0.8249 -1.7757  1.5448
  351MOL0     H48396  11.183   9.939   0.120 -0.1768  0.5556  1.3229
  351MOL0     H48397  11.323   9.742  -0.047 -0.9917 -1.6272  0.3079
  351MOL0     H48398  11.216   9.856  -0.126  0.6061  0.7882 -0.3428
  351MOL0     H48399  11.210   9.683  -0.167  0.3953  1.4778 -1.9082
  351MOL0     H48400  10.824   9.255  -0.005  0.7240 -0.0363  1.6285
  351MOL0     H48401  10.776   9.092  -0.152 -0.2341 -0.2905  0.0177
  351MOL0     H48402  10.766   8.900  -0.311 -1.8839 -0.5384 -1.5297
  351MOL0     H48403  10.796   9.055  -0.382 -0.3038 -0.0136  2.3899
  351MOL0     H48404  10.843   8.775  -0.491  2.8891 -0.3844  2.0338
  351MOL0     H48405  10.745   8.915  -0.556 -0.0061  0.0102 -0.1385
  351MOL0     H48406  11.058   8.911  -0.549  0.0192 -0.2094  0.3436
  351MOL0     H48407  10.956   9.025  -0.639 -0.5343  0.2380  1.6487
  351MOL0     H48408  10.872   8.833  -0.772 -0.4373  3.8227  1.8547
  351MOL0     H48409  10.980   8.721  -0.694 -1.4921 -0.8089 -0.2576
  351MOL0     H48410  11.108   8.942  -0.839 -2.3785  0.3897 -4.2391
  351MOL0     H48411  11.172   8.783  -0.794 -0.6292 -0.6655 -0.2550
  351MOL0     H48412  11.111   8.793  -1.034 -0.2139  1.2453  0.5395
  351MOL0     H48413  10.938   8.816  -0.989 -1.2537 -1.4207  1.1323
  351MOL0     H48414  10.966   8.577  -1.044  2.5898 -0.7193  0.1927
  351MOL0     H48415  10.951   8.588  -0.861  1.0729 -0.8037  1.1758
  351MOL0     H48416  11.198   8.558  -0.855 -1.6767 -0.6299  1.2157
  351MOL0     H48417  11.228   8.579  -1.019  3.4588 -3.6183  1.6178
  351MOL0     H48418  11.176   9.107  -0.313  0.0121 -1.0839  0.1916
  351MOL0     H48419  11.221   9.303  -0.177  1.0344 -2.3661  3.1338
  351MOL0     H48420  10.925   9.522   0.202  1.4542 -2.4263 -0.8201
  351MOL0     H48421  10.945   9.682   0.377  0.4351  0.6017  0.2817
  351MOL0     H48422  11.064   9.496   0.594  1.1069  3.7575  2.0548
  351MOL0     H48423  10.968   9.272   0.565 -1.8830 -0.0181 -0.7249
  351MOL0     H48424  10.679   8.874   0.523  0.8779  0.7105  3.0252
  351MOL0     H48425  10.475   8.800   0.406 -1.9218  0.4758 -1.2869
  351MOL0     H48426  10.103   8.808   0.362  1.3230 -2.2156 -1.0993
  351MOL0     H48427  10.240   8.747   0.434 -1.4344 -1.6433 -0.2062
  351MOL0     H48428  10.181   8.816   0.656  0.2197  2.2237 -0.3679
  351MOL0     H48429  10.070   8.709   0.574 -1.9489  0.0069  1.1658
  351MOL0     H48430   9.925   8.895   0.506  2.7189 -2.0113 -1.5167
  351MOL0     H48431   9.923   8.855   0.678  0.7825 -2.3538 -1.6475
  351MOL0     H48432  10.075   9.084   0.569 -0.8160 -2.4560 -0.9504
  351MOL0     H48433  10.077   9.053   0.739  2.6734  2.6473 -1.2023
  351MOL0     H48434   9.703   9.238   0.639 -1.0361 -1.7503 -1.0952
  351MOL0     H48435  10.288   9.165   0.545  0.2154  0.8093  0.5012
  351MOL0     H48436  10.478   9.361   0.596  1.4213 -0.6366 -0.6521
  351MOL0     H48437  10.374   9.287   0.718  0.1689  0.4879  1.3080
  351MOL0     H48438  10.549   9.295   0.731 -0.8870  1.7104  1.3343
  352MOL0     O48439   3.895   6.848   8.980 -0.5722  0.0704  0.0563
  352MOL0     C48440   3.976   6.813   8.893 -0.2948  0.3386 -0.5623
  352MOL0     O48441   3.947   6.777   8.766 -0.4014  0.6693  0.2961
  352MOL0     C48442   3.821   6.752   8.708  0.0954 -0.0086 -0.1412
  352MOL0     C48443   3.813   6.737   8.571 -0.3247 -1.0875  0.7349
  352MOL0     C48444   3.691   6.710   8.509 -0.3860 -0.3806  0.5983
  352MOL0     C48445   3.568   6.701   8.587  1.0004 -0.1123  0.2446
  352MOL0     O48446   3.440   6.703   8.535  0.4107  0.3762  0.1792
  352MOL0     C48447   3.427   6.644   8.404 -0.5556  0.9753 -0.1852
  352MOL0     C48448   3.292   6.630   8.355  0.7245  1.1316  0.6250
  352MOL0     C48449   3.229   6.765   8.321  0.2938  0.9900  0.0866
  352MOL0     C48450   3.076   6.758   8.285 -0.3302  0.7970 -0.2360
  352MOL0     C48451   3.050   6.662   8.161  0.1048  0.3656 -0.6589
  352MOL0     C48452   2.910   6.700   8.102 -0.5370 -0.0748 -0.3131
  352MOL0     C48453   2.802   6.661   8.197  0.6277  0.6815 -0.1269
  352MOL0     C48454   2.722   6.546   8.128  0.1518  0.6645  0.3953
  352MOL0     N48455   2.783   6.421   8.125  0.1779  0.7171  0.6098
  352MOL0     C48456   2.903   6.387   8.066 -0.3155  1.1193  0.3271
  352MOL0     C48457   2.941   6.272   8.120  0.9648  0.2667  0.3121
  352MOL0     C48458   3.065   6.185   8.095 -0.1896  0.5546  0.3981
  352MOL0     C48459   3.049   6.036   8.128  0.8849  0.4450  0.0947
  352MOL0     C48460   3.165   5.942   8.093  0.6811  0.4001  0.2495
  352MOL0     C48461   3.298   6.008   8.118 -0.5564  0.0669 -0.8686
  352MOL0     O48462   3.336   6.123   8.033  0.2378 -0.0310 -0.5318
  352MOL0     C48463   3.446   6.193   8.054  0.5663  0.1133  0.1378
  352MOL0     C48464   3.564   6.137   8.113  0.6004  0.7158  0.2293
  352MOL0     C48465   3.669   6.221   8.144  0.8946  0.9398  0.0887
  352MOL0     C48466   3.794   6.141   8.202  0.7725 -1.5330 -0.3737
  352MOL0     C48467   3.652   6.359   8.129  0.1510 -0.5095  0.8866
  352MOL0     C48468   3.750   6.458   8.167 -0.2210 -0.0499  0.7335
  352MOL0     O48469   3.880   6.426   8.153 -0.0854 -0.0707 -0.2858
  352MOL0     C48470   3.970   6.509   8.222 -0.0150 -0.5665 -0.6670
  352MOL0     C48471   4.047   6.599   8.142 -0.0677 -0.1717 -1.2382
  352MOL0     C48472   4.153   6.670   8.204 -0.0705  0.1560  1.3026
  352MOL0     C48473   4.166   6.660   8.343 -0.2382  0.8554 -0.3591
  352MOL0     O48474   4.267   6.733   8.396  0.0063  0.7275  0.7022
  352MOL0     C48475   4.266   6.771   8.534  0.0574  0.0711 -0.5199
  352MOL0     C48476   4.406   6.793   8.583  0.7173  0.3547 -0.3383
  352MOL0     C48477   4.497   6.675   8.577 -0.2179  0.1787 -0.7694
  352MOL0     C48478   4.614   6.678   8.673  0.2323 -0.9322 -0.6923
  352MOL0     C48479   4.668   6.536   8.681 -1.0453  0.3384 -0.0400
  352MOL0     C48480   4.795   6.544   8.769  0.2021  0.3223  0.5702
  352MOL0     C48481   4.873   6.421   8.764 -0.6045  0.7625  0.6040
  352MOL0     C48482   4.987   6.415   8.665  0.1261 -0.9493 -0.9808
  352MOL0    Cl48483   5.089   6.265   8.669  0.5988  0.1557 -0.2433
  352MOL0     C48484   4.085   6.571   8.422  0.3796 -0.0483 -0.7267
  352MOL0     C48485   3.988   6.491   8.358  1.0919 -0.5285  0.4749
  352MOL0     O48486   3.710   6.566   8.212 -0.0424  0.7622 -0.0505
  352MOL0     C48487   3.539   6.410   8.065  0.5169  0.2220  0.2386
  352MOL0     C48488   3.435   6.327   8.022  0.7975  0.7148  0.0577
  352MOL0     N48489   2.848   6.224   8.203  0.1327 -0.9550  0.3074
  352MOL0     N48490   2.751   6.313   8.199 -0.4943  0.6660 -0.6310
  352MOL0     C48491   3.574   6.728   8.724 -0.4895  0.7571  0.7457
  352MOL0     C48492   3.703   6.738   8.781  0.0017 -0.1399  0.3607
  352MOL0     C48493   4.121   6.821   8.931 -0.1199 -0.3246 -1.1604
  352MOL0     C48494   4.166   6.941   8.983 -0.4471  0.4399 -0.5648
  352MOL0     C48495   4.294   6.953   9.023 -0.4131 -0.5444 -0.0518
  352MOL0     C48496   4.388   6.847   9.024  0.2898 -0.1487 -0.8798
  352MOL0     O48497   4.517   6.872   9.069 -0.3370  0.6013 -0.2428
  352MOL0     C48498   4.539   6.826   9.211  0.4979 -0.2645 -0.2023
  352MOL0     C48499   4.659   6.901   9.270  0.5615  0.7748  0.0052
  352MOL0     C48500   4.797   6.845   9.219  0.0824 -0.0937  0.2254
  352MOL0     C48501   4.824   6.697   9.231 -0.3051 -0.4127 -0.2421
  352MOL0     C48502   4.957   6.665   9.285 -0.1436 -0.9004 -0.3537
  352MOL0     C48503   5.072   6.637   9.317  0.7737  0.1543  0.4298
  352MOL0     C48504   4.345   6.720   8.964  0.2448 -0.8265  0.4416
  352MOL0     C48505   4.214   6.713   8.908 -1.3193 -0.1234 -0.5644
  352MOL0     C48506   4.178   6.581   8.848  0.1799  0.2164  0.3544
  352MOL0     H48507   3.901   6.758   8.511 -1.4090 -0.0382 -0.5674
  352MOL0     H48508   3.684   6.713   8.401  2.3756  0.2655  0.3627
  352MOL0     H48509   3.472   6.544   8.405 -0.3532  1.0285  2.0202
  352MOL0     H48510   3.489   6.713   8.347 -0.4170  0.8285 -0.2131
  352MOL0     H48511   3.270   6.564   8.271 -1.0173  1.2182  0.9706
  352MOL0     H48512   3.234   6.574   8.430  4.0214 -2.6700  0.6484
  352MOL0     H48513   3.246   6.846   8.393 -0.5942 -0.1079  1.6037
  352MOL0     H48514   3.278   6.790   8.227 -0.0891 -0.2891 -0.4823
  352MOL0     H48515   3.021   6.721   8.372  1.4955 -2.3796 -0.2786
  352MOL0     H48516   3.042   6.859   8.261  0.3878  1.2001  0.3813
  352MOL0     H48517   3.040   6.560   8.198  0.3713  1.0682  1.4619
  352MOL0     H48518   3.133   6.676   8.091  0.9891  1.6379  0.5933
  352MOL0     H48519   2.885   6.804   8.076 -5.3902 -1.1302 -0.8133
  352MOL0     H48520   2.898   6.655   8.003 -1.3584 -0.4180 -0.0603
  352MOL0     H48521   2.740   6.750   8.212  0.7588  0.5290  1.4550
  352MOL0     H48522   2.832   6.616   8.292 -1.3162  1.1721  0.7696
  352MOL0     H48523   2.625   6.543   8.178  1.0479  1.8963  2.3427
  352MOL0     H48524   2.687   6.561   8.025  0.2864 -0.0539  0.2415
  352MOL0     H48525   2.975   6.446   8.010 -1.4930  0.2485 -2.2229
  352MOL0     H48526   3.148   6.226   8.154 -0.9408 -0.5605  2.3433
  352MOL0     H48527   3.080   6.199   7.988 -1.9263 -0.2481  0.0145
  352MOL0     H48528   3.025   6.048   8.234  0.5576  0.4713  0.0184
  352MOL0     H48529   2.964   5.996   8.072 -1.1312  0.2651  3.0352
  352MOL0     H48530   3.158   5.850   8.153 -0.9043  0.8381  0.7669
  352MOL0     H48531   3.140   5.910   7.991 -1.1990  1.6971  0.2672
  352MOL0     H48532   3.300   6.040   8.223 -4.4285 -0.3092 -0.5555
  352MOL0     H48533   3.377   5.933   8.105  2.9924  2.8031  2.4524
  352MOL0     H48534   3.575   6.030   8.128  4.0981  0.5575 -2.3841
  352MOL0     H48535   3.778   6.034   8.182 -2.1878 -0.8535 -2.2815
  352MOL0     H48536   3.802   6.150   8.311 -2.8510  0.0261 -0.1175
  352MOL0     H48537   3.893   6.172   8.167  3.5424 -1.1708  6.2868
  352MOL0     H48538   4.050   6.589   8.033  8.0423 -0.2015 -1.6710
  352MOL0     H48539   4.225   6.738   8.159  0.1937  1.5383  3.6506
  352MOL0     H48540   4.227   6.873   8.541  0.6211  0.2342  0.4099
  352MOL0     H48541   4.197   6.709   8.590  0.0260  0.3045 -0.2989
  352MOL0     H48542   4.439   6.887   8.539 -2.5176  3.0914  2.5399
  352MOL0     H48543   4.397   6.831   8.685 -0.7433 -0.5498 -0.0979
  352MOL0     H48544   4.546   6.670   8.479  0.9763 -0.5680 -0.1568
  352MOL0     H48545   4.444   6.583   8.601 -0.8472  0.8525  0.6040
  352MOL0     H48546   4.586   6.708   8.774 -2.0978 -1.0580 -1.2537
  352MOL0     H48547   4.681   6.760   8.644 -1.8436  0.8426 -0.7075
  352MOL0     H48548   4.595   6.471   8.730 -2.4158  0.9704 -1.1648
  352MOL0     H48549   4.688   6.496   8.581 -0.2863 -1.0426  0.6350
  352MOL0     H48550   4.768   6.551   8.875 -0.2613 -1.2026  0.5832
  352MOL0     H48551   4.864   6.626   8.748 -0.5139  0.3649 -1.8729
  352MOL0     H48552   4.805   6.339   8.739 -0.1135  0.8929 -1.3257
  352MOL0     H48553   4.905   6.408   8.868  2.7004  3.3783  0.0963
  352MOL0     H48554   5.055   6.495   8.697  0.6323 -1.6952 -0.1595
  352MOL0     H48555   4.955   6.432   8.561 -1.1322  1.2721 -0.3132
  352MOL0     H48556   4.125   6.531   8.514  0.0489 -1.7049 -1.2702
  352MOL0     H48557   3.934   6.410   8.405 -0.2127  0.6932  1.1760
  352MOL0     H48558   3.526   6.516   8.043  0.7614 -0.5606 -4.8163
  352MOL0     H48559   3.342   6.348   7.970  0.6890 -4.3556 -2.3791
  352MOL0     H48560   3.488   6.700   8.783  0.2138 -3.3120  0.1113
  352MOL0     H48561   3.709   6.730   8.889  2.1602 -0.3853  0.2575
  352MOL0     H48562   4.093   7.020   8.994 -0.2023  0.7049 -0.8296
  352MOL0     H48563   4.334   7.044   9.067  0.9283 -0.6325 -1.0369
  352MOL0     H48564   4.445   6.846   9.263 -1.1597  0.7666 -3.3412
  352MOL0     H48565   4.565   6.720   9.217  1.5474 -0.1634 -2.1688
  352MOL0     H48566   4.651   6.890   9.379  1.0822 -2.2856 -0.1698
  352MOL0     H48567   4.647   7.007   9.244 -1.8256  0.4122 -0.6287
  352MOL0     H48568   4.794   6.869   9.112  1.5962  0.5876  0.3057
  352MOL0     H48569   4.878   6.908   9.256  1.6921 -2.6213  1.3472
  352MOL0     H48570   4.814   6.638   9.140 -1.7962  0.7274 -0.8632
  352MOL0     H48571   4.748   6.659   9.299 -1.3693  2.5592  0.3770
  352MOL0     H48572   5.174   6.610   9.337  0.4924 -0.9134  0.5336
  352MOL0     H48573   4.415   6.639   8.947 -0.3459 -1.5399  1.3114
  352MOL0     H48574   4.070   6.581   8.831  0.2551  0.8187 -0.1654
  352MOL0     H48575   4.230   6.579   8.752  3.4631 -0.2319  2.0067
  352MOL0     H48576   4.213   6.493   8.903  0.3257  0.3467  0.4712
  353MOL0     O48577   9.710   7.560   8.280  0.3931  0.0132  0.2126
  353MOL0     C48578   9.799   7.510   8.347 -0.1386 -0.6325 -0.6771
  353MOL0     O48579   9.868   7.567   8.447  0.5072  0.0811  0.2775
  353MOL0     C48580   9.817   7.688   8.490  0.1354  0.0714  0.2160
  353MOL0     C48581   9.692   7.718   8.547  0.8826  0.0792 -0.3758
  353MOL0     C48582   9.644   7.858   8.565  0.4072  0.3723 -0.2171
  353MOL0     C48583   9.720   7.969   8.535  0.0594  1.2958  0.1525
  353MOL0     O48584   9.677   8.092   8.557 -0.5155  0.1999 -0.7330
  353MOL0     C48585   9.534   8.125   8.549 -0.1884 -0.5752 -0.3328
  353MOL0     C48586   9.533   8.273   8.572  0.0941 -0.1807 -1.3946
  353MOL0     C48587   9.398   8.342   8.544 -0.6766  0.3827  0.0910
  353MOL0     C48588   9.403   8.495   8.498 -0.0682 -0.5473  0.3683
  353MOL0     C48589   9.268   8.540   8.439 -0.4465 -0.1804 -0.5006
  353MOL0     C48590   9.204   8.661   8.515  0.6374  0.1629  0.1825
  353MOL0     C48591   9.044   8.651   8.501  0.3292  0.1420  0.0953
  353MOL0     C48592   9.003   8.678   8.351  0.6564  0.3365  0.2740
  353MOL0     N48593   8.854   8.715   8.353  0.1225  0.0722 -0.9270
  353MOL0     C48594   8.794   8.839   8.317 -0.6918 -0.0286  0.0328
  353MOL0     C48595   8.664   8.822   8.334  0.4454 -0.5914 -0.2013
  353MOL0     C48596   8.552   8.928   8.321  0.4693  0.8478  0.0724
  353MOL0     C48597   8.572   9.002   8.190 -0.4156 -0.8972  0.1953
  353MOL0     C48598   8.461   9.100   8.156 -0.0005  0.0490 -1.1268
  353MOL0     C48599   8.465   9.171   8.020 -0.6485  0.0207 -0.2747
  353MOL0     O48600   8.572   9.262   8.031 -0.2069  0.2921 -0.0832
  353MOL0     C48601   8.585   9.368   7.947  0.2505  0.4935 -0.5416
  353MOL0     C48602   8.505   9.390   7.834  0.5598 -0.7077 -0.4663
  353MOL0     C48603   8.524   9.490   7.746  0.1211  0.6850 -0.0451
  353MOL0     C48604   8.422   9.500   7.637  0.5719 -0.9542  0.4498
  353MOL0     C48605   8.616   9.578   7.766 -0.5345  0.1806  0.2943
  353MOL0     C48606   8.635   9.709   7.700 -0.3516 -0.8857  0.4525
  353MOL0     O48607   8.531   9.786   7.701  0.1810 -0.2276  0.4062
  353MOL0     C48608   8.539   9.908   7.650  0.8138 -0.1283 -1.3066
  353MOL0     C48609   8.556   9.930   7.512 -0.0475  0.6271  0.7913
  353MOL0     C48610   8.579  10.058   7.466 -0.1848 -1.3947 -0.0787
  353MOL0     C48611   8.556  10.172   7.549 -0.0010 -0.0305  0.1196
  353MOL0     O48612   8.565  10.295   7.485 -0.6418 -0.0711 -0.2774
  353MOL0     C48613   8.457  10.385   7.510  0.6495  0.4819  0.5708
  353MOL0     C48614   8.430  10.485   7.399 -0.8912  0.2567  0.8851
  353MOL0     C48615   8.548  10.573   7.371 -0.6918 -0.3198  0.2022
  353MOL0     C48616   8.568  10.683   7.467  0.2375 -0.4051  0.5541
  353MOL0     C48617   8.706  10.738   7.454  0.0927 -0.2243 -0.3023
  353MOL0     C48618   8.737  10.846   7.557 -0.0840  0.3569 -0.3907
  353MOL0     C48619   8.855  10.935   7.514  0.3522  0.3856  0.2949
  353MOL0     C48620   8.887  11.038   7.615 -0.4723  0.1908 -0.5325
  353MOL0    Cl48621   8.901  10.968   7.784 -0.6506 -0.3343  0.0183
  353MOL0     C48622   8.530  10.153   7.687 -0.4226 -0.0026  0.1031
  353MOL0     C48623   8.515  10.020   7.735 -1.3868 -0.2271  0.8667
  353MOL0     O48624   8.739   9.734   7.646 -0.5929 -0.5939 -0.3181
  353MOL0     C48625   8.712   9.545   7.861 -0.0430 -0.3090 -0.4790
  353MOL0     C48626   8.689   9.456   7.964  0.2837 -0.0139 -0.1180
  353MOL0     N48627   8.642   8.696   8.381  0.2551  0.1457  0.8887
  353MOL0     N48628   8.760   8.637   8.398 -0.1868  0.1978 -0.4439
  353MOL0     C48629   9.854   7.931   8.500 -0.5669  0.5374  0.0375
  353MOL0     C48630   9.898   7.805   8.476 -0.8305  0.5915 -0.0180
  353MOL0     C48631   9.854   7.380   8.290 -0.3675  0.1528  0.4912
  353MOL0     C48632   9.944   7.377   8.182 -0.5470 -0.7653 -0.7772
  353MOL0     C48633   9.978   7.259   8.124 -0.3856 -0.1115  0.1764
  353MOL0     C48634   9.929   7.140   8.174 -0.1952 -1.0780  0.1169
  353MOL0     O48635   9.961   7.017   8.122 -0.4563  0.1050 -0.1630
  353MOL0     C48636   9.866   6.910   8.133  0.6158  0.2897 -0.0592
  353MOL0     C48637   9.842   6.855   7.996  1.0053  0.4143 -0.6015
  353MOL0     C48638   9.775   6.946   7.890  0.4424  0.3609 -1.4177
  353MOL0     C48639   9.622   6.940   7.878 -0.5482  0.5080  0.0733
  353MOL0     C48640   9.575   6.806   7.831  0.4578 -0.7498 -0.7941
  353MOL0     C48641   9.528   6.693   7.800  0.4604  0.1797 -0.0578
  353MOL0     C48642   9.853   7.142   8.291  0.1153  0.4267 -0.2105
  353MOL0     C48643   9.811   7.258   8.351  0.6601 -0.9148  0.1610
  353MOL0     C48644   9.702   7.261   8.446  0.6935 -0.8341  0.7670
  353MOL0     H48645   9.629   7.632   8.571  1.4370 -0.2711 -0.1499
  353MOL0     H48646   9.541   7.854   8.601  0.7438 -5.2413  0.9902
  353MOL0     H48647   9.481   8.075   8.631  0.0235  0.1231  0.2419
  353MOL0     H48648   9.492   8.112   8.449 -1.9774  1.4894  0.0632
  353MOL0     H48649   9.578   8.282   8.672  0.2224 -0.6889 -1.4037
  353MOL0     H48650   9.596   8.321   8.497 -1.2006  1.3343 -1.5792
  353MOL0     H48651   9.346   8.281   8.469  3.2255 -0.9701 -1.7595
  353MOL0     H48652   9.340   8.334   8.637 -2.0706 -3.5176 -0.9250
  353MOL0     H48653   9.431   8.562   8.580 -2.3496 -2.4629  2.9201
  353MOL0     H48654   9.476   8.491   8.417 -0.3733 -1.7913  0.1353
  353MOL0     H48655   9.198   8.457   8.426 -1.9095  0.7298  1.1810
  353MOL0     H48656   9.295   8.558   8.334  1.1429  0.4111 -0.0129
  353MOL0     H48657   9.234   8.657   8.620  1.9814 -0.1790 -0.1996
  353MOL0     H48658   9.249   8.749   8.469  0.4137  0.3418  0.3046
  353MOL0     H48659   8.997   8.736   8.552 -3.8758 -1.9788  0.1229
  353MOL0     H48660   9.006   8.555   8.536  1.4890 -0.1424  0.6112
  353MOL0     H48661   9.060   8.766   8.322  2.4107 -1.2561 -1.3443
  353MOL0     H48662   9.033   8.598   8.284 -1.0495  0.0074 -0.1380
  353MOL0     H48663   8.847   8.931   8.293  2.4705 -1.1157  2.1791
  353MOL0     H48664   8.551   8.999   8.404  0.1152  1.6364 -0.5896
  353MOL0     H48665   8.453   8.883   8.308  0.8142 -0.1758  0.8646
  353MOL0     H48666   8.667   9.057   8.199  0.8244 -2.9883  0.6682
  353MOL0     H48667   8.576   8.932   8.106 -0.9352 -0.9110  0.1806
  353MOL0     H48668   8.366   9.046   8.162  1.4103 -2.9734 -3.4542
  353MOL0     H48669   8.465   9.173   8.238 -1.5190 -0.7379 -0.3145
  353MOL0     H48670   8.465   9.113   7.927  0.5646 -0.9514  0.3166
  353MOL0     H48671   8.371   9.228   8.021 -0.1642  0.9782  3.1537
  353MOL0     H48672   8.421   9.326   7.808 -1.2392  0.3025  2.3498
  353MOL0     H48673   8.463   9.536   7.542  0.5906 -1.7632  0.1409
  353MOL0     H48674   8.351   9.578   7.668  0.8826 -0.3454 -0.3444
  353MOL0     H48675   8.358   9.413   7.617 -2.5868  0.8963  1.7235
  353MOL0     H48676   8.580   9.849   7.445  4.0255  2.3792 -0.1671
  353MOL0     H48677   8.596  10.084   7.362 -2.2675  1.1216  0.1157
  353MOL0     H48678   8.367  10.324   7.510  1.8672 -1.3804 -0.0151
  353MOL0     H48679   8.463  10.436   7.607  0.9651  0.1765  0.7168
  353MOL0     H48680   8.398  10.440   7.304  0.9693  4.8937 -2.2844
  353MOL0     H48681   8.343  10.543   7.431 -0.0610  1.3502  1.2111
  353MOL0     H48682   8.529  10.617   7.272 -0.1964  1.4091  0.8468
  353MOL0     H48683   8.634  10.507   7.352 -0.5236  0.5098 -2.3317
  353MOL0     H48684   8.549  10.657   7.572 -0.1637  0.5287  0.7230
  353MOL0     H48685   8.500  10.760   7.430  1.8280  0.5775 -0.4264
  353MOL0     H48686   8.785  10.663   7.469 -2.0444 -2.5383 -0.0775
  353MOL0     H48687   8.729  10.785   7.358  0.6976 -1.0201 -0.5638
  353MOL0     H48688   8.743  10.803   7.657  0.0211  0.4768 -0.3464
  353MOL0     H48689   8.657  10.918   7.540 -2.0976 -2.1243 -2.1589
  353MOL0     H48690   8.833  10.977   7.416  1.1522  0.1829  0.0230
  353MOL0     H48691   8.932  10.861   7.492 -2.0903 -2.0884 -0.5872
  353MOL0     H48692   8.803  11.107   7.622  0.0918  0.7459  1.4412
  353MOL0     H48693   8.975  11.096   7.586  0.0393  1.3958  2.9288
  353MOL0     H48694   8.530  10.247   7.741  0.5459  0.2832 -0.3634
  353MOL0     H48695   8.502  10.015   7.843  0.2596  1.6174  1.1921
  353MOL0     H48696   8.787   9.623   7.873 -1.2582  1.3473 -2.7132
  353MOL0     H48697   8.761   9.451   8.044 -0.6625 -2.3227  0.6755
  353MOL0     H48698   9.933   8.004   8.485  1.7397 -1.1309  2.9040
  353MOL0     H48699  10.004   7.802   8.455 -0.8603  2.9775 -0.7856
  353MOL0     H48700  10.002   7.467   8.162  1.9986 -1.4644  2.5361
  353MOL0     H48701  10.041   7.244   8.037 -0.4388 -0.6445  0.2249
  353MOL0     H48702   9.901   6.838   8.208 -4.9372  0.0619  2.8724
  353MOL0     H48703   9.769   6.940   8.174 -0.6574  1.4470 -3.5710
  353MOL0     H48704   9.776   6.769   8.011  2.3014 -0.3688  0.9712
  353MOL0     H48705   9.940   6.819   7.965  2.2713  2.1896  1.1215
  353MOL0     H48706   9.813   7.048   7.903 -1.3406  0.8122  1.2950
  353MOL0     H48707   9.816   6.911   7.795 -1.2913 -3.6506 -0.8917
  353MOL0     H48708   9.595   7.024   7.812  0.4963  1.2634  0.5739
  353MOL0     H48709   9.581   6.968   7.976  2.4607 -1.3657  2.0135
  353MOL0     H48710   9.493   6.599   7.763 -1.2995  1.4277 -1.7570
  353MOL0     H48711   9.823   7.045   8.332  2.9613 -2.7228 -4.6809
  353MOL0     H48712   9.726   7.318   8.536 -0.0979 -1.7830  1.6103
  353MOL0     H48713   9.603   7.288   8.407  0.5949  2.1207  2.7090
  353MOL0     H48714   9.685   7.156   8.475 -0.1329 -0.9955 -0.2333
  354MOL0     O48715   9.568   2.652   6.584  0.2521 -0.2032 -0.2662
  354MOL0     C48716   9.546   2.767   6.633  1.3990  0.3341 -0.0542
  354MOL0     O48717   9.619   2.873   6.608 -0.1510  0.1050 -0.1716
  354MOL0     C48718   9.754   2.860   6.588  1.6006  0.3912 -0.1487
  354MOL0     C48719   9.808   2.948   6.497  0.8864  0.7886  0.3765
  354MOL0     C48720   9.945   2.956   6.481 -0.0733 -0.9137  0.1490
  354MOL0     C48721  10.033   2.875   6.538 -0.1015  0.4808  0.1431
  354MOL0     O48722  10.164   2.887   6.503  0.0700  0.5908 -0.6394
  354MOL0     C48723  10.245   2.761   6.504  0.1164  0.6499 -0.6341
  354MOL0     C48724  10.371   2.814   6.450 -1.1161  0.1636  0.5125
  354MOL0     C48725  10.491   2.721   6.448  0.6970  0.3303  0.0666
  354MOL0     C48726  10.469   2.593   6.380  0.6684  0.0127 -1.0719
  354MOL0     C48727  10.588   2.525   6.322 -1.0683 -0.2559  0.4928
  354MOL0     C48728  10.706   2.506   6.410  0.4979 -0.4053  0.0794
  354MOL0     C48729  10.807   2.423   6.347  0.3590 -0.1163 -0.1700
  354MOL0     C48730  10.781   2.279   6.380 -0.4049 -0.3596  0.3976
  354MOL0     N48731  10.869   2.184   6.303  0.2765  0.5765  0.0922
  354MOL0     C48732  10.827   2.135   6.182  0.3675 -1.4464 -0.5445
  354MOL0     C48733  10.940   2.080   6.140 -0.1887  0.0749  0.2121
  354MOL0     C48734  10.956   2.015   6.013 -0.6859 -0.7017 -0.3530
  354MOL0     C48735  11.084   2.063   5.943  0.4300  0.1014  0.3924
  354MOL0     C48736  11.099   1.986   5.812 -0.2396  0.5425 -0.8200
  354MOL0     C48737  11.248   1.999   5.758 -0.4522 -0.2979 -0.8756
  354MOL0     O48738  11.261   2.130   5.702  0.6772  0.5818 -0.3546
  354MOL0     C48739  11.264   2.122   5.570  0.0760  1.4460  0.1540
  354MOL0     C48740  11.157   2.083   5.488  0.9764 -0.4883  0.2921
  354MOL0     C48741  11.167   2.067   5.353 -0.2369 -0.5632  0.0151
  354MOL0     C48742  11.039   2.029   5.277  0.0062  0.3684 -0.8912
  354MOL0     C48743  11.288   2.118   5.285 -1.4930 -1.0442  0.4752
  354MOL0     C48744  11.302   2.145   5.138  0.4383  0.6555  1.2908
  354MOL0     O48745  11.185   2.124   5.051  0.4177  0.1881  0.4849
  354MOL0     C48746  11.197   2.150   4.921  1.4833  0.0984  1.0351
  354MOL0     C48747  11.130   2.049   4.841 -0.0989  0.3098  0.4786
  354MOL0     C48748  11.112   2.068   4.707  0.2651 -0.6149  0.8089
  354MOL0     C48749  11.168   2.184   4.643  0.7545  0.1079 -0.7229
  354MOL0     O48750  11.125   2.214   4.514  0.2385 -0.9730  0.2595
  354MOL0     C48751  11.133   2.106   4.426 -0.3271 -0.5817  0.1787
  354MOL0     C48752  11.137   2.139   4.270  1.0842  0.7779  0.4211
  354MOL0     C48753  11.275   2.173   4.213  0.0556 -0.8368  0.6627
  354MOL0     C48754  11.270   2.173   4.057  0.6233  0.8302  0.4670
  354MOL0     C48755  11.403   2.211   3.987 -0.3443  0.3181  0.1838
  354MOL0     C48756  11.432   2.357   3.938 -0.3187 -0.1397 -0.5869
  354MOL0     C48757  11.422   2.455   4.046  0.5760 -0.8846  0.0777
  354MOL0     C48758  11.542   2.438   4.152  0.0882  0.6083 -0.2286
  354MOL0    Cl48759  11.701   2.424   4.074  0.2337  0.2358  0.1719
  354MOL0     C48760  11.229   2.278   4.730  0.8128 -0.2588  0.6115
  354MOL0     C48761  11.244   2.261   4.862  0.4956 -0.2160 -0.4497
  354MOL0     O48762  11.407   2.197   5.108 -0.3262  0.0168 -0.2201
  354MOL0     C48763  11.393   2.161   5.372 -1.2159  0.5922  0.1622
  354MOL0     C48764  11.379   2.161   5.507 -0.1359 -0.1115  0.0314
  354MOL0     N48765  11.046   2.097   6.224 -0.6761  0.3328 -0.8349
  354MOL0     N48766  10.997   2.152   6.328  0.2418 -0.5986  0.2056
  354MOL0     C48767   9.982   2.778   6.637 -0.5132 -1.0927  0.3026
  354MOL0     C48768   9.837   2.774   6.664 -0.8393  0.5208  0.3516
  354MOL0     C48769   9.412   2.792   6.694  0.0004 -0.2499  0.9914
  354MOL0     C48770   9.395   2.909   6.777  0.9574  0.9564  0.4017
  354MOL0     C48771   9.261   2.934   6.831 -0.0995  0.5579  0.0868
  354MOL0     C48772   9.151   2.845   6.808 -0.1536 -0.2772  0.0062
  354MOL0     O48773   9.038   2.884   6.884  0.6827 -0.0695  0.0262
  354MOL0     C48774   8.958   2.778   6.918 -0.1489 -0.0610 -0.0539
  354MOL0     C48775   8.894   2.786   7.058 -0.0735 -0.1863 -0.5267
  354MOL0     C48776   8.797   2.677   7.106 -0.4058 -0.3768 -0.0286
  354MOL0     C48777   8.691   2.739   7.208  0.8449  0.1526  0.5869
  354MOL0     C48778   8.744   2.837   7.302  0.8018 -0.0745 -0.0636
  354MOL0     C48779   8.780   2.913   7.392 -0.0442  0.3724 -0.6978
  354MOL0     C48780   9.167   2.739   6.723  0.1510  0.4975  0.9219
  354MOL0     C48781   9.293   2.715   6.659  0.3364 -0.1180 -0.1090
  354MOL0     C48782   9.282   2.618   6.544 -0.5637  0.0594 -0.3423
  354MOL0     H48783   9.744   3.020   6.448 -1.3274 -1.0350  0.3862
  354MOL0     H48784   9.987   3.026   6.409  1.0852 -0.1894  1.4839
  354MOL0     H48785  10.201   2.676   6.450 -4.1818  0.7192  2.2624
  354MOL0     H48786  10.268   2.723   6.604 -1.6930  0.1172 -0.3891
  354MOL0     H48787  10.363   2.840   6.344  0.3663  1.1837  0.6268
  354MOL0     H48788  10.404   2.901   6.507 -0.0243 -0.9408  1.6393
  354MOL0     H48789  10.577   2.768   6.399  0.2873  3.6952  2.2360
  354MOL0     H48790  10.534   2.695   6.545 -0.0530  1.1228  0.6275
  354MOL0     H48791  10.406   2.535   6.448  2.1325  1.6486  1.8799
  354MOL0     H48792  10.407   2.616   6.293 -0.0218  0.7929 -0.3878
  354MOL0     H48793  10.618   2.576   6.229  0.0432  0.8578  1.4335
  354MOL0     H48794  10.552   2.429   6.284  1.7294 -1.5823  0.9970
  354MOL0     H48795  10.747   2.608   6.415  1.0578 -0.6808  1.6940
  354MOL0     H48796  10.681   2.465   6.508 -0.3108  0.9571  0.4748
  354MOL0     H48797  10.907   2.448   6.385 -0.1869  0.1056  1.1471
  354MOL0     H48798  10.811   2.437   6.239  0.0423  1.5652  0.0126
  354MOL0     H48799  10.791   2.256   6.486 -0.8417  1.9334  0.9992
  354MOL0     H48800  10.675   2.257   6.360 -0.4516  0.4607 -0.3339
  354MOL0     H48801  10.727   2.141   6.139  0.9801  0.9869 -1.7873
  354MOL0     H48802  10.872   2.057   5.957  0.2963 -0.7007 -1.8677
  354MOL0     H48803  10.948   1.906   6.009 -2.8965 -0.5479 -2.1352
  354MOL0     H48804  11.078   2.172   5.934 -0.0326 -0.0237 -0.9955
  354MOL0     H48805  11.167   2.023   6.002  0.5919  0.5507  0.4687
  354MOL0     H48806  11.097   1.879   5.834  3.4421  0.5637  0.3365
  354MOL0     H48807  11.024   2.022   5.742  1.3379  1.8830 -1.9257
  354MOL0     H48808  11.321   1.991   5.838 -2.2942  0.9670  1.0238
  354MOL0     H48809  11.251   1.914   5.688 -1.4503 -3.2317  2.3628
  354MOL0     H48810  11.060   2.053   5.527 -0.9549  3.0500 -1.2700
  354MOL0     H48811  10.974   1.966   5.339 -2.1261  2.4001 -0.9308
  354MOL0     H48812  11.061   1.972   5.186  0.1195  1.0636 -1.3023
  354MOL0     H48813  10.977   2.117   5.254 -1.4561 -0.5502 -0.6147
  354MOL0     H48814  11.089   1.969   4.901  0.9306 -2.1441 -1.9104
  354MOL0     H48815  11.040   2.008   4.652 -1.3801  0.0030  2.1920
  354MOL0     H48816  11.222   2.048   4.451  0.1512  0.6572  1.4523
  354MOL0     H48817  11.049   2.035   4.423  0.4951 -1.6148  0.8747
  354MOL0     H48818  11.088   2.062   4.210  0.1692 -0.7157  2.9188
  354MOL0     H48819  11.068   2.220   4.242  0.0458 -0.2685 -0.0967
  354MOL0     H48820  11.347   2.096   4.243  2.3366  0.3027 -1.5439
  354MOL0     H48821  11.314   2.268   4.251  0.4741 -0.8203  0.1902
  354MOL0     H48822  11.195   2.246   4.027 -1.1477 -0.6335  1.1448
  354MOL0     H48823  11.248   2.073   4.018  1.3698  0.7586  0.2147
  354MOL0     H48824  11.486   2.166   4.041 -1.3270 -0.7342  0.8525
  354MOL0     H48825  11.398   2.154   3.894 -0.4428 -0.3420  0.5869
  354MOL0     H48826  11.364   2.399   3.864 -2.7323  0.2042  1.6756
  354MOL0     H48827  11.522   2.349   3.876  1.6784  1.7537  1.8483
  354MOL0     H48828  11.324   2.459   4.094  0.4102  0.2283 -0.3096
  354MOL0     H48829  11.446   2.549   3.995  2.6758 -1.2077  0.3673
  354MOL0     H48830  11.520   2.350   4.213  2.1619  1.1612  1.4202
  354MOL0     H48831  11.542   2.527   4.216 -2.0062  0.2198  0.3881
  354MOL0     H48832  11.267   2.367   4.682  1.4777  1.1160  3.5012
  354MOL0     H48833  11.275   2.336   4.933 -0.2374  1.8462 -2.2211
  354MOL0     H48834  11.489   2.206   5.348 -0.6153  0.6448  2.4409
  354MOL0     H48835  11.446   2.204   5.581 -3.4038  4.0995  0.9327
  354MOL0     H48836  10.050   2.717   6.696 -0.8236  0.2962  2.2115
  354MOL0     H48837   9.807   2.714   6.749 -0.6588 -0.1254 -0.0307
  354MOL0     H48838   9.467   2.988   6.797  0.6285  0.7759  2.5966
  354MOL0     H48839   9.253   3.019   6.898  2.4993 -0.1160  1.4157
  354MOL0     H48840   8.880   2.758   6.845 -0.5314  1.4701 -0.0939
  354MOL0     H48841   9.019   2.687   6.923 -3.3746 -2.5482 -1.8162
  354MOL0     H48842   8.848   2.886   7.055  0.3209  0.0221  0.1708
  354MOL0     H48843   8.971   2.780   7.135  0.8058  0.1721 -1.3562
  354MOL0     H48844   8.749   2.630   7.020  1.6088 -4.0038  0.6206
  354MOL0     H48845   8.846   2.596   7.162  3.2874  0.9517 -1.0459
  354MOL0     H48846   8.645   2.652   7.255 -0.6231  1.0091  0.8281
  354MOL0     H48847   8.609   2.783   7.149  0.7156 -0.7951  0.0514
  354MOL0     H48848   8.830   2.967   7.470 -0.8251  0.3676 -0.1884
  354MOL0     H48849   9.081   2.682   6.689  0.4302  0.9241 -0.5427
  354MOL0     H48850   9.315   2.668   6.452  1.9481 -1.4700 -0.3752
  354MOL0     H48851   9.349   2.534   6.566 -0.5269  0.3686  0.8021
  354MOL0     H48852   9.179   2.585   6.530 -1.0629  0.5431  1.8360
  355MOL0     O48853  10.407   8.865  11.266  0.8191 -0.4445 -0.0047
  355MOL0     C48854  10.302   8.800  11.271 -0.1708 -0.7526  0.0237
  355MOL0     O48855  10.206   8.826  11.363 -0.1709  0.2461  0.2678
  355MOL0     C48856  10.182   8.952  11.403  1.0286 -0.4264 -0.3152
  355MOL0     C48857  10.165   9.062  11.317 -0.2344 -1.1522  0.6899
  355MOL0     C48858  10.155   9.193  11.355  0.2549  0.6160  0.1681
  355MOL0     C48859  10.165   9.226  11.492 -0.4779  0.6808 -0.3575
  355MOL0     O48860  10.138   9.353  11.536 -0.4183  0.1652 -0.6009
  355MOL0     C48861  10.057   9.442  11.451  1.0838  0.3035  0.8717
  355MOL0     C48862   9.992   9.564  11.531  0.5935 -0.1540  0.2283
  355MOL0     C48863  10.092   9.680  11.561  0.0786 -0.1897  0.5765
  355MOL0     C48864  10.032   9.789  11.656  0.0338  0.3331 -0.0990
  355MOL0     C48865  10.125   9.917  11.678  0.8132  0.2571  0.1850
  355MOL0     C48866  10.115  10.016  11.565  0.4712  0.0907  0.3567
  355MOL0     C48867  10.179  10.147  11.597  0.2364 -0.3836  0.2686
  355MOL0     C48868  10.150  10.242  11.473 -0.1073 -0.4162 -1.0340
  355MOL0     N48869  10.240  10.362  11.492 -0.1697 -0.7084 -0.5381
  355MOL0     C48870  10.257  10.422  11.614 -0.4641  0.2377  1.1528
  355MOL0     C48871  10.353  10.511  11.593  0.3497  0.0607  0.8313
  355MOL0     C48872  10.434  10.597  11.692  0.1085  0.7052 -0.4239
  355MOL0     C48873  10.517  10.696  11.622 -0.4919  0.2923 -0.3883
  355MOL0     C48874  10.640  10.761  11.707 -0.3441 -0.9087  0.1357
  355MOL0     C48875  10.683  10.898  11.655 -0.0252 -0.3681  0.1323
  355MOL0     O48876  10.582  10.998  11.666  0.4242  0.1086  0.4104
  355MOL0     C48877  10.575  11.083  11.773 -0.0525 -0.1301  0.3243
  355MOL0     C48878  10.458  11.162  11.788  0.5712  0.4858 -0.9009
  355MOL0     C48879  10.434  11.251  11.893 -0.3207 -1.0032 -0.7234
  355MOL0     C48880  10.315  11.336  11.887  0.5277  0.0088 -0.4450
  355MOL0     C48881  10.533  11.260  11.996  0.3418 -0.5315  0.2370
  355MOL0     C48882  10.509  11.332  12.125  0.0195 -0.3945 -0.0449
  355MOL0     O48883  10.600  11.300  12.225  0.4352 -1.2470  0.3772
  355MOL0     C48884  10.641  11.394  12.319  0.3235 -0.1464  0.0109
  355MOL0     C48885  10.675  11.529  12.287  0.7782 -0.3966  0.5372
  355MOL0     C48886  10.736  11.613  12.373  0.4454  0.6676  0.1229
  355MOL0     C48887  10.758  11.566  12.507  0.6192 -0.4675 -0.1645
  355MOL0     O48888  10.810  11.643  12.602 -0.3731  0.1148 -0.1791
  355MOL0     C48889  10.790  11.786  12.602 -0.7490  0.0555  0.1256
  355MOL0     C48890  10.814  11.862  12.742  0.1824 -0.0621 -0.2455
  355MOL0     C48891  10.728  11.788  12.852 -0.6852  0.9044  0.5865
  355MOL0     C48892  10.772  11.851  12.986  1.5711 -0.8161  0.1942
  355MOL0     C48893  10.735  11.778  13.115  0.5723  1.1470  0.7259
  355MOL0     C48894  10.583  11.745  13.133 -0.1991 -0.2925  0.3313
  355MOL0     C48895  10.549  11.639  13.240 -0.1340 -0.4720 -0.0516
  355MOL0     C48896  10.598  11.501  13.207 -0.0956  0.2780  0.0086
  355MOL0    Cl48897  10.490  11.425  13.079  0.0364 -0.1220  0.4508
  355MOL0     C48898  10.723  11.433  12.543  0.0542  0.0362  1.0287
  355MOL0     C48899  10.660  11.345  12.450 -0.5680 -0.3158  0.2215
  355MOL0     O48900  10.429  11.420  12.131  0.7125  0.0253 -0.3914
  355MOL0     C48901  10.659  11.197  11.971  1.1609 -0.3167 -0.3578
  355MOL0     C48902  10.677  11.125  11.855  0.2013 -1.0153  0.1778
  355MOL0     N48903  10.397  10.495  11.462  0.9563 -0.5255 -0.1001
  355MOL0     N48904  10.315  10.420  11.396 -0.0761 -0.6879  0.0947
  355MOL0     C48905  10.170   9.119  11.582 -0.2662  0.2209 -0.5427
  355MOL0     C48906  10.173   8.985  11.539 -1.2387 -0.8153 -0.1810
  355MOL0     C48907  10.302   8.677  11.204 -0.3882  0.6901 -0.2143
  355MOL0     C48908  10.193   8.586  11.227 -0.9384 -0.5641  0.5707
  355MOL0     C48909  10.178   8.477  11.147  0.2327 -0.0433 -0.5193
  355MOL0     C48910  10.276   8.444  11.049 -0.4838  1.1084 -0.5597
  355MOL0     O48911  10.270   8.339  10.958 -0.5721  0.7370  0.6579
  355MOL0     C48912  10.140   8.314  10.900 -0.2982 -0.8559  0.2316
  355MOL0     C48913  10.158   8.280  10.755 -0.1969 -0.0119 -0.2214
  355MOL0     C48914  10.188   8.137  10.721 -0.4913 -0.2905 -0.5057
  355MOL0     C48915  10.209   8.139  10.566 -0.3981  0.3093 -0.2008
  355MOL0     C48916  10.073   8.144  10.506 -0.1151  0.7087 -0.0019
  355MOL0     C48917   9.962   8.143  10.457  0.2653 -1.1997 -0.8170
  355MOL0     C48918  10.391   8.524  11.042 -0.4233 -1.0890 -0.3911
  355MOL0     C48919  10.408   8.639  11.111  0.3816  0.5419 -0.7297
  355MOL0     C48920  10.531   8.730  11.080 -0.5284 -0.6606  0.1920
  355MOL0     H48921  10.170   9.038  11.212 -3.4467  0.8075 -0.0456
  355MOL0     H48922  10.139   9.282  11.294 -1.3233 -0.8258 -1.6576
  355MOL0     H48923   9.974   9.387  11.406  3.3277 -1.6442 -1.1377
  355MOL0     H48924  10.117   9.483  11.369 -0.9235 -1.2462 -1.5334
  355MOL0     H48925   9.910   9.603  11.470  1.1847  0.1942 -0.3748
  355MOL0     H48926   9.950   9.523  11.623  0.4079 -0.4924 -0.0054
  355MOL0     H48927  10.182   9.634  11.604 -1.7797 -2.0788  2.7014
  355MOL0     H48928  10.124   9.723  11.466 -0.8921 -1.7702 -0.4930
  355MOL0     H48929   9.941   9.814  11.601  1.4996  0.7221 -2.5352
  355MOL0     H48930  10.003   9.750  11.754  3.0035 -0.6598  0.4825
  355MOL0     H48931  10.230   9.886  11.681  0.8035  0.0211 -1.1628
  355MOL0     H48932  10.092   9.975  11.765 -0.4764 -0.7100  0.3534
  355MOL0     H48933  10.143   9.975  11.468  1.1657  0.0102  0.5860
  355MOL0     H48934  10.011  10.049  11.559 -0.0096  0.1211  4.9868
  355MOL0     H48935  10.288  10.132  11.597  0.2874 -0.3022 -1.6488
  355MOL0     H48936  10.152  10.195  11.691 -0.0836  1.6481 -0.8024
  355MOL0     H48937  10.168  10.191  11.378 -3.7624  0.6446 -2.4850
  355MOL0     H48938  10.045  10.274  11.470  0.5025  1.7258 -3.0718
  355MOL0     H48939  10.207  10.392  11.706 -0.0382 -2.3458  0.6081
  355MOL0     H48940  10.494  10.537  11.761  1.3030 -0.0108 -2.0352
  355MOL0     H48941  10.353  10.641  11.751 -1.3237 -1.8526 -0.3048
  355MOL0     H48942  10.564  10.663  11.529  1.5849  1.8274  0.0357
  355MOL0     H48943  10.451  10.778  11.595  0.8058  1.6402  0.3832
  355MOL0     H48944  10.601  10.768  11.809  0.6582  1.9443  0.4160
  355MOL0     H48945  10.733  10.703  11.716  0.1877 -0.8170 -3.4637
  355MOL0     H48946  10.776  10.921  11.708  0.5038 -2.7634  0.3685
  355MOL0     H48947  10.699  10.885  11.548 -0.3712 -0.0474  0.0416
  355MOL0     H48948  10.381  11.153  11.711 -1.2417  1.8824  0.6475
  355MOL0     H48949  10.280  11.332  11.783  1.6581  2.0681 -0.9581
  355MOL0     H48950  10.333  11.440  11.916 -2.1096  0.3581  0.2430
  355MOL0     H48951  10.242  11.283  11.950 -0.9293  0.1628 -1.9211
  355MOL0     H48952  10.673  11.569  12.186  0.1849 -2.1090 -0.1684
  355MOL0     H48953  10.768  11.710  12.336  2.4637 -0.5228 -1.4232
  355MOL0     H48954  10.846  11.837  12.523 -1.6756  2.0841  0.7132
  355MOL0     H48955  10.685  11.810  12.584 -0.2482  1.8554 -0.6650
  355MOL0     H48956  10.920  11.865  12.767 -0.6334  1.0792  3.7018
  355MOL0     H48957  10.785  11.967  12.731 -1.0684 -0.4834 -1.2515
  355MOL0     H48958  10.759  11.683  12.853 -2.0407  0.4905  1.1835
  355MOL0     H48959  10.621  11.796  12.831 -0.7163  0.7961  0.7036
  355MOL0     H48960  10.744  11.957  12.988 -0.6114 -1.3046 -1.0197
  355MOL0     H48961  10.881  11.845  12.976  1.3945 -4.6958 -1.1453
  355MOL0     H48962  10.790  11.683  13.111 -0.7296  0.3936 -1.8255
  355MOL0     H48963  10.779  11.843  13.191  3.4621  3.0726 -2.3085
  355MOL0     H48964  10.543  11.712  13.037 -1.4527  2.5909 -0.2491
  355MOL0     H48965  10.542  11.841  13.165 -2.1534 -0.0227 -2.6108
  355MOL0     H48966  10.440  11.633  13.252  0.1953 -2.0098  3.6393
  355MOL0     H48967  10.586  11.664  13.340 -1.5624 -0.4822  0.5027
  355MOL0     H48968  10.585  11.438  13.296 -1.6531 -2.4470 -2.0079
  355MOL0     H48969  10.701  11.506  13.170 -0.1162  1.0524  0.0360
  355MOL0     H48970  10.728  11.408  12.649 -2.7273 -1.6263  0.8701
  355MOL0     H48971  10.631  11.242  12.465 -4.6153  0.7106  0.6202
  355MOL0     H48972  10.738  11.222  12.042 -0.7185 -2.9428  3.0104
  355MOL0     H48973  10.779  11.097  11.830  0.4851  1.0702 -1.2195
  355MOL0     H48974  10.162   9.145  11.687 -0.3880  0.5199 -0.6262
  355MOL0     H48975  10.164   8.913  11.620  0.8574 -1.3489 -0.3801
  355MOL0     H48976  10.122   8.607  11.306 -1.6402  2.0857 -0.6732
  355MOL0     H48977  10.097   8.407  11.163  0.3171  0.0965  0.5561
  355MOL0     H48978  10.093   8.239  10.964 -1.5051  0.0610  0.4474
  355MOL0     H48979  10.080   8.406  10.903  2.1063  0.7978  1.2675
  355MOL0     H48980  10.233   8.352  10.723  2.3473 -1.2260  2.5909
  355MOL0     H48981  10.060   8.302  10.711 -0.5500  2.8242  1.7100
  355MOL0     H48982  10.282   8.111  10.770  2.1769  1.9552 -3.9725
  355MOL0     H48983  10.106   8.069  10.746 -1.4460 -0.4039 -3.5554
  355MOL0     H48984  10.268   8.052  10.535  3.4632  2.5096  0.2854
  355MOL0     H48985  10.271   8.219  10.526 -3.0973  1.5613 -2.1294
  355MOL0     H48986   9.859   8.130  10.433 -0.0083 -2.6535  0.8847
  355MOL0     H48987  10.471   8.492  10.976  0.7719 -0.6630  0.8097
  355MOL0     H48988  10.592   8.753  11.168 -0.2929 -2.5019  0.5681
  355MOL0     H48989  10.609   8.678  11.023 -1.9512 -1.6210 -0.9477
  355MOL0     H48990  10.517   8.829  11.038 -0.0430 -1.6760 -2.5450
  356MOL0     O48991   2.029   8.993   4.817 -0.6176  0.4644  0.7191
  356MOL0     C48992   1.961   8.926   4.745  0.4132  0.1882  0.4006
  356MOL0     O48993   1.862   8.972   4.656  0.4278 -0.3775  0.5349
  356MOL0     C48994   1.845   9.104   4.626 -0.5838  0.6336  0.3695
  356MOL0     C48995   1.954   9.189   4.604 -0.6035  0.2192 -0.1167
  356MOL0     C48996   1.936   9.323   4.558 -0.6329  0.2548  0.0119
  356MOL0     C48997   1.810   9.368   4.528  0.2260  0.3963  0.3478
  356MOL0     O48998   1.778   9.491   4.472  0.1566 -0.4216  0.7294
  356MOL0     C48999   1.860   9.608   4.494  0.0723  0.0466 -0.4558
  356MOL0     C49000   1.813   9.736   4.430  0.9452 -0.1041 -0.0143
  356MOL0     C49001   1.798   9.741   4.273 -0.3530  0.1682  0.5308
  356MOL0     C49002   1.709   9.851   4.231  1.5231  0.3960 -0.9246
  356MOL0     C49003   1.738   9.928   4.094  0.0436  0.9800 -0.6557
  356MOL0     C49004   1.739   9.851   3.960 -0.7939 -0.4675  0.1243
  356MOL0     C49005   1.842   9.940   3.875  0.9991  0.4472  0.6770
  356MOL0     C49006   1.852   9.893   3.725  1.6215  1.1352  0.6862
  356MOL0     N49007   1.727   9.844   3.659 -0.4761 -0.1766  0.0793
  356MOL0     C49008   1.719   9.730   3.599 -0.2561 -0.1968  0.6169
  356MOL0     C49009   1.622   9.735   3.509  1.4963 -0.7588 -0.2939
  356MOL0     C49010   1.582   9.624   3.417 -0.1811  0.1888 -0.0503
  356MOL0     C49011   1.690   9.602   3.306  0.2222 -0.4721  0.1503
  356MOL0     C49012   1.676   9.704   3.188 -0.6663  0.7915 -0.2538
  356MOL0     C49013   1.765   9.669   3.072 -0.0451  1.0226 -0.2941
  356MOL0     O49014   1.907   9.705   3.103 -0.1404  0.8458 -0.1142
  356MOL0     C49015   1.995   9.697   2.997  0.7972 -0.4641  0.3341
  356MOL0     C49016   2.115   9.769   3.005  0.2035  0.3271 -0.2906
  356MOL0     C49017   2.206   9.775   2.893  0.0632  0.2219 -0.4113
  356MOL0     C49018   2.339   9.845   2.936  0.8256 -0.1723 -0.5631
  356MOL0     C49019   2.174   9.700   2.776 -0.3711  0.0260  0.5211
  356MOL0     C49020   2.264   9.698   2.651 -0.0695  0.0620 -0.1734
  356MOL0     O49021   2.244   9.609   2.546  0.2020 -0.2851  0.1339
  356MOL0     C49022   2.302   9.628   2.422 -0.1770 -0.6631 -0.7935
  356MOL0     C49023   2.301   9.751   2.348 -0.2978  0.6794  0.2883
  356MOL0     C49024   2.372   9.765   2.228  0.0432  0.4173  0.4294
  356MOL0     C49025   2.435   9.661   2.172  0.6237 -0.0552 -0.2016
  356MOL0     O49026   2.495   9.678   2.047  0.2557  1.0054  0.3842
  356MOL0     C49027   2.587   9.585   2.005 -0.9728  0.4567  0.4381
  356MOL0     C49028   2.655   9.643   1.875  0.1666  0.7363  0.4627
  356MOL0     C49029   2.758   9.537   1.844  0.1650 -0.5145  0.6673
  356MOL0     C49030   2.844   9.565   1.715  0.0355  0.6041  0.5894
  356MOL0     C49031   2.941   9.687   1.718  0.9839  0.4819  0.4451
  356MOL0     C49032   3.030   9.678   1.595 -0.7335  0.1164  0.3245
  356MOL0     C49033   3.150   9.592   1.620 -0.3156  0.0702  0.6949
  356MOL0     C49034   3.241   9.578   1.499  0.0475 -0.2347  0.3846
  356MOL0    Cl49035   3.282   9.738   1.438  0.2216 -0.2166  0.5309
  356MOL0     C49036   2.426   9.537   2.239  0.6025 -0.0266 -0.3894
  356MOL0     C49037   2.359   9.519   2.358  0.5289  0.6873  0.5364
  356MOL0     O49038   2.359   9.771   2.658 -0.0241  0.0708  0.7587
  356MOL0     C49039   2.053   9.637   2.766 -0.6310  0.3710 -0.3351
  356MOL0     C49040   1.966   9.631   2.878  0.7132  0.0968  0.7579
  356MOL0     N49041   1.550   9.858   3.546  0.1091  0.2312  0.5476
  356MOL0     N49042   1.617   9.914   3.636 -0.6754  0.5670 -0.2763
  356MOL0     C49043   1.708   9.278   4.540 -0.3927  0.8205  0.7430
  356MOL0     C49044   1.721   9.145   4.588  0.7488  0.6352  0.9550
  356MOL0     C49045   2.007   8.785   4.738  0.4015  1.2582 -0.8363
  356MOL0     C49046   1.989   8.723   4.609 -1.2530  0.1012  0.7053
  356MOL0     C49047   2.039   8.598   4.581  0.0307 -0.0846  0.2952
  356MOL0     C49048   2.111   8.528   4.675 -0.2045 -0.3601 -0.4366
  356MOL0     O49049   2.153   8.399   4.654  0.2748  0.3240  0.1082
  356MOL0     C49050   2.297   8.398   4.664  0.4165 -0.1275 -0.3754
  356MOL0     C49051   2.367   8.276   4.620  0.6185 -0.0916 -0.4647
  356MOL0     C49052   2.517   8.288   4.647  1.0197 -0.0905  0.3685
  356MOL0     C49053   2.589   8.159   4.598 -0.1590 -0.6917 -0.4529
  356MOL0     C49054   2.733   8.165   4.631 -0.1122  0.2458  0.3996
  356MOL0     C49055   2.853   8.182   4.660  0.0387 -0.8464  0.6242
  356MOL0     C49056   2.137   8.581   4.806 -0.6279 -0.6301 -0.1240
  356MOL0     C49057   2.077   8.709   4.836 -0.0063  0.4364  0.8032
  356MOL0     C49058   2.105   8.756   4.976 -0.1617 -0.1387 -0.4620
  356MOL0     H49059   2.052   9.148   4.628  0.0022  0.8218 -1.4802
  356MOL0     H49060   2.016   9.396   4.547 -1.4370  1.3147  1.0199
  356MOL0     H49061   1.956   9.593   4.445 -0.3719 -4.3582 -0.3467
  356MOL0     H49062   1.875   9.626   4.601  2.4843 -1.3343 -0.5107
  356MOL0     H49063   1.714   9.761   4.469  0.6903  1.8484 -1.7796
  356MOL0     H49064   1.894   9.804   4.457  2.0674 -1.3808 -0.0702
  356MOL0     H49065   1.890   9.760   4.218 -2.1235  0.1278 -2.7466
  356MOL0     H49066   1.758   9.648   4.231  1.1905 -1.8637  3.3044
  356MOL0     H49067   1.609   9.807   4.231  1.3938  0.6792 -0.1926
  356MOL0     H49068   1.702   9.925   4.312  1.7431  1.6860 -2.0448
  356MOL0     H49069   1.834   9.978   4.111  1.6704 -2.3267  0.6938
  356MOL0     H49070   1.672  10.013   4.071  1.8350  2.6833  0.1781
  356MOL0     H49071   1.775   9.751   3.985 -1.7699 -1.4767 -2.2846
  356MOL0     H49072   1.634   9.850   3.930 -0.7775  0.5669 -0.0194
  356MOL0     H49073   1.944   9.946   3.915  2.2795 -1.0766 -2.0501
  356MOL0     H49074   1.802  10.042   3.872  0.8170  0.4136  1.6273
  356MOL0     H49075   1.891   9.977   3.666  1.6491  0.3953 -0.3876
  356MOL0     H49076   1.925   9.812   3.725  0.6576  0.2485  0.8921
  356MOL0     H49077   1.781   9.643   3.617 -3.1701 -2.6827 -0.3684
  356MOL0     H49078   1.477   9.622   3.387 -0.3632 -3.6385  0.3855
  356MOL0     H49079   1.601   9.535   3.477  1.2960  0.9404  0.6562
  356MOL0     H49080   1.789   9.622   3.347 -0.0152  4.5288 -1.0243
  356MOL0     H49081   1.678   9.497   3.279 -1.5166  0.0731 -1.3996
  356MOL0     H49082   1.570   9.696   3.159 -0.8557  0.5029  0.4705
  356MOL0     H49083   1.695   9.808   3.214  1.3782  0.6410 -0.9674
  356MOL0     H49084   1.752   9.564   3.043  1.1451  0.1137  2.1650
  356MOL0     H49085   1.724   9.729   2.990 -2.2441  0.7199  0.5350
  356MOL0     H49086   2.123   9.837   3.089 -3.1158 -0.7314  1.0795
  356MOL0     H49087   2.332   9.943   2.888 -2.2135 -0.2802 -0.5644
  356MOL0     H49088   2.432   9.800   2.900  1.7804  1.0745  0.2707
  356MOL0     H49089   2.336   9.873   3.041  0.6036 -1.3890 -0.2267
  356MOL0     H49090   2.250   9.837   2.391 -0.3124  1.3467 -1.0142
  356MOL0     H49091   2.363   9.859   2.175 -1.1941  1.1319  1.8433
  356MOL0     H49092   2.675   9.567   2.067  1.0336  2.8745 -1.4901
  356MOL0     H49093   2.540   9.488   1.986 -0.1729  0.6479 -3.4692
  356MOL0     H49094   2.585   9.655   1.792  2.0577 -1.9611 -1.7401
  356MOL0     H49095   2.713   9.732   1.900 -2.4851  2.8361 -0.4016
  356MOL0     H49096   2.698   9.446   1.829  0.0823 -0.3581  0.0419
  356MOL0     H49097   2.817   9.517   1.934 -0.9350  0.3749  1.6273
  356MOL0     H49098   2.782   9.575   1.626  2.1903 -1.3788 -1.3063
  356MOL0     H49099   2.902   9.474   1.693 -0.2650  0.9375 -1.8640
  356MOL0     H49100   2.885   9.780   1.717 -1.7093 -1.0354  1.5801
  356MOL0     H49101   3.009   9.678   1.803  1.3663 -2.0274 -0.0374
  356MOL0     H49102   3.069   9.778   1.575  0.1781 -0.0735  1.0453
  356MOL0     H49103   2.965   9.655   1.510 -1.5465  1.4005  0.5707
  356MOL0     H49104   3.120   9.495   1.661  0.4837 -1.1371 -1.3947
  356MOL0     H49105   3.209   9.642   1.698 -0.4397  2.5839 -0.7094
  356MOL0     H49106   3.187   9.518   1.425  1.3200 -2.3815  1.0826
  356MOL0     H49107   3.335   9.528   1.527  0.7480  2.2108  2.8640
  356MOL0     H49108   2.471   9.456   2.182 -1.5774  1.2526 -4.3261
  356MOL0     H49109   2.357   9.420   2.401  1.5259  0.4900  0.1585
  356MOL0     H49110   2.015   9.596   2.674 -0.1541 -0.5256 -0.1550
  356MOL0     H49111   1.871   9.579   2.866 -0.9951  3.1881 -0.1493
  356MOL0     H49112   1.612   9.320   4.511  0.5045  2.4290 -0.0307
  356MOL0     H49113   1.630   9.086   4.594  0.1538  1.6418  2.2680
  356MOL0     H49114   1.913   8.763   4.543 -0.9272  1.8263  1.3225
  356MOL0     H49115   2.015   8.564   4.481 -5.4364 -0.6943  1.5141
  356MOL0     H49116   2.334   8.470   4.590  2.4435 -2.2251 -1.5310
  356MOL0     H49117   2.324   8.416   4.769 -1.3985 -1.6031  0.4046
  356MOL0     H49118   2.348   8.249   4.516  4.0985  0.8865 -1.4987
  356MOL0     H49119   2.321   8.195   4.677 -2.6871  2.6293  1.0383
  356MOL0     H49120   2.553   8.373   4.587  1.7201 -0.1913  0.6452
  356MOL0     H49121   2.541   8.318   4.749  4.1850  0.2360 -0.3820
  356MOL0     H49122   2.577   8.136   4.492  0.5851  1.1420 -0.9768
  356MOL0     H49123   2.554   8.072   4.654  1.3206  0.1524  1.9227
  356MOL0     H49124   2.957   8.202   4.678 -0.0377  2.2728 -1.5596
  356MOL0     H49125   2.192   8.526   4.881  2.6477  0.6279 -1.3976
  356MOL0     H49126   2.011   8.790   5.021 -0.1172  3.2701 -2.6110
  356MOL0     H49127   2.148   8.677   5.039  1.3470  1.5773  0.7724
  356MOL0     H49128   2.188   8.826   4.985  2.6326 -3.3409  1.3587
  357MOL0     O49129   3.995   4.059   2.081  0.1276  1.3203 -0.5972
  357MOL0     C49130   3.968   3.940   2.081  0.0319 -0.5979 -0.2797
  357MOL0     O49131   4.064   3.832   2.054 -0.0781  0.1054 -0.5080
  357MOL0     C49132   4.189   3.847   1.999 -0.7270  0.0518  0.5701
  357MOL0     C49133   4.297   3.762   2.041  0.4370 -0.1442  0.1493
  357MOL0     C49134   4.414   3.763   1.976 -0.1338  0.5866 -0.1804
  357MOL0     C49135   4.453   3.851   1.879 -0.0810  0.0298 -0.1946
  357MOL0     O49136   4.589   3.851   1.854 -0.0160 -0.4607  0.4836
  357MOL0     C49137   4.641   3.966   1.780  0.5489  1.0303  0.1620
  357MOL0     C49138   4.791   3.966   1.746 -0.5144 -0.5873 -1.5648
  357MOL0     C49139   4.866   3.996   1.883  0.2893 -0.4320 -0.6593
  357MOL0     C49140   5.019   4.005   1.867 -0.2564 -0.1131 -0.9930
  357MOL0     C49141   5.094   3.873   1.810  0.3287  0.0918 -0.9608
  357MOL0     C49142   5.241   3.894   1.803 -0.0955 -0.1828  0.4447
  357MOL0     C49143   5.298   3.916   1.938 -0.5867 -0.0886 -0.5965
  357MOL0     C49144   5.294   3.788   2.029  0.4108  0.5627 -0.4129
  357MOL0     N49145   5.350   3.799   2.168 -0.1560 -0.2732  0.4305
  357MOL0     C49146   5.479   3.788   2.199  0.5652  0.0400  0.8091
  357MOL0     C49147   5.479   3.809   2.332 -0.8278 -0.5005  0.6354
  357MOL0     C49148   5.596   3.804   2.424 -0.9472 -0.3533  0.2581
  357MOL0     C49149   5.732   3.778   2.359 -0.2342  0.3124  0.4341
  357MOL0     C49150   5.847   3.769   2.457 -0.8275 -0.0307  0.3248
  357MOL0     C49151   5.993   3.772   2.392  0.3717 -0.5084  0.2140
  357MOL0     O49152   6.078   3.829   2.487  1.1349  0.5001  0.0800
  357MOL0     C49153   6.210   3.837   2.474 -0.5361 -0.6544 -0.6767
  357MOL0     C49154   6.284   3.905   2.576  0.2659  0.4489  0.4542
  357MOL0     C49155   6.417   3.912   2.573  0.9451 -0.2447  1.0370
  357MOL0     C49156   6.487   4.001   2.675 -0.2512 -1.0097  0.7820
  357MOL0     C49157   6.487   3.850   2.471 -0.1893  1.0191 -0.2883
  357MOL0     C49158   6.632   3.870   2.441 -0.0447 -0.4136 -0.1810
  357MOL0     O49159   6.671   3.909   2.315  0.2081  0.4930 -0.1316
  357MOL0     C49160   6.803   3.882   2.292 -0.0203  0.1932  0.7667
  357MOL0     C49161   6.854   3.754   2.274 -0.8334  0.1218  0.4156
  357MOL0     C49162   6.967   3.734   2.201  0.3670  1.2086  0.1566
  357MOL0     C49163   7.041   3.839   2.161  0.1873 -0.9712  0.0506
  357MOL0     O49164   7.161   3.822   2.099  0.8781 -0.1980 -0.5410
  357MOL0     C49165   7.254   3.736   2.167  0.6120 -0.6125 -0.9382
  357MOL0     C49166   7.405   3.788   2.144  0.6460  0.1869 -0.0772
  357MOL0     C49167   7.440   3.801   1.999  0.3550  0.0424  0.1878
  357MOL0     C49168   7.572   3.880   1.981 -0.0847 -0.0984  0.1746
  357MOL0     C49169   7.638   3.851   1.839  0.6362 -1.4291  0.6828
  357MOL0     C49170   7.736   3.966   1.828  0.1625  0.1980 -0.3904
  357MOL0     C49171   7.813   3.969   1.699  0.7239 -0.1497 -0.4199
  357MOL0     C49172   7.861   3.830   1.652 -0.3913  0.5439 -0.1680
  357MOL0    Cl49173   7.973   3.752   1.767 -0.8374 -0.6336 -0.6008
  357MOL0     C49174   7.002   3.968   2.179  0.9742  0.4383  0.4659
  357MOL0     C49175   6.879   3.990   2.245  0.1026 -0.3197  0.4576
  357MOL0     O49176   6.710   3.831   2.525  0.9650 -0.2997 -0.6993
  357MOL0     C49177   6.411   3.780   2.371  0.5880 -0.2222 -1.1406
  357MOL0     C49178   6.275   3.778   2.373  0.0859  0.0608 -0.0282
  357MOL0     N49179   5.353   3.833   2.377 -0.0840  1.1141 -0.6132
  357MOL0     N49180   5.275   3.844   2.276 -0.2784 -0.1697 -0.1173
  357MOL0     C49181   4.353   3.945   1.833  0.1898  0.0962 -0.5693
  357MOL0     C49182   4.231   3.938   1.898  0.1713 -0.9301  0.1715
  357MOL0     C49183   3.819   3.900   2.100  0.3227 -0.4858 -0.9529
  357MOL0     C49184   3.776   3.777   2.050 -0.9127 -0.3235  0.9413
  357MOL0     C49185   3.635   3.744   2.051 -0.3820 -0.0316 -0.2555
  357MOL0     C49186   3.546   3.812   2.137  0.6374  0.2390  0.1020
  357MOL0     O49187   3.421   3.772   2.151 -0.5628  0.4017 -0.1044
  357MOL0     C49188   3.319   3.862   2.117 -0.2570 -0.0620  0.2681
  357MOL0     C49189   3.213   3.876   2.230 -1.4619  0.3449 -0.6642
  357MOL0     C49190   3.115   3.765   2.257  0.0447  0.4652  0.2333
  357MOL0     C49191   3.068   3.673   2.154 -0.1043  0.5843  0.1368
  357MOL0     C49192   2.989   3.746   2.056 -0.0806  1.0517 -0.1715
  357MOL0     C49193   2.929   3.805   1.966 -0.2347 -0.0068  0.2201
  357MOL0     C49194   3.599   3.927   2.194  0.4385 -0.6928  0.4360
  357MOL0     C49195   3.728   3.971   2.189 -0.9989  0.0055  1.4175
  357MOL0     C49196   3.762   4.091   2.272 -0.4654 -0.2445 -0.5608
  357MOL0     H49197   4.290   3.678   2.109 -1.6245  0.0064  0.1931
  357MOL0     H49198   4.498   3.709   2.018  0.1754 -0.1154 -1.6374
  357MOL0     H49199   4.614   4.052   1.842 -0.7014  0.3194  0.6387
  357MOL0     H49200   4.596   3.982   1.682 -0.0713  1.1197  0.4573
  357MOL0     H49201   4.834   3.888   1.684 -2.0613 -2.1635 -0.7409
  357MOL0     H49202   4.793   4.062   1.694  1.2126  0.6360  0.5696
  357MOL0     H49203   4.822   4.083   1.932  0.8248 -1.8050  2.4747
  357MOL0     H49204   4.848   3.905   1.940  0.4716  0.2973  0.6086
  357MOL0     H49205   5.044   4.097   1.812 -2.3092  2.5275  2.0807
  357MOL0     H49206   5.061   4.025   1.966 -2.3361 -4.1561  0.9052
  357MOL0     H49207   5.058   3.856   1.708 -0.4122 -2.1392 -0.3671
  357MOL0     H49208   5.070   3.784   1.868  1.4637  0.8787  0.8081
  357MOL0     H49209   5.290   3.810   1.752 -0.5871 -1.1920  1.5847
  357MOL0     H49210   5.251   3.985   1.743  3.5348 -1.7129 -1.5897
  357MOL0     H49211   5.254   4.003   1.986 -0.9191  0.8496 -2.5165
  357MOL0     H49212   5.399   3.956   1.919 -0.1604 -0.6090  0.5113
  357MOL0     H49213   5.187   3.772   2.041  0.3781  2.4185  3.1933
  357MOL0     H49214   5.336   3.707   1.969  3.1555  0.9466  0.8252
  357MOL0     H49215   5.563   3.754   2.140 -1.5248 -0.8838 -1.8592
  357MOL0     H49216   5.585   3.722   2.495 -1.0822 -0.3305  0.2645
  357MOL0     H49217   5.606   3.897   2.480  3.7040 -1.2825  1.3536
  357MOL0     H49218   5.726   3.682   2.309 -2.5475  1.7731 -2.3976
  357MOL0     H49219   5.744   3.859   2.285 -1.1925 -0.6206 -0.7790
  357MOL0     H49220   5.858   3.852   2.527  3.6194 -2.9947  3.7089
  357MOL0     H49221   5.825   3.677   2.513  0.6925  0.0529  1.1054
  357MOL0     H49222   6.034   3.673   2.370  1.3470  0.0265 -0.4572
  357MOL0     H49223   6.005   3.823   2.295  1.0545 -0.7474  0.1693
  357MOL0     H49224   6.223   3.952   2.653  2.2090  0.4886  2.0435
  357MOL0     H49225   6.415   4.061   2.730 -1.7102 -0.5923 -1.4506
  357MOL0     H49226   6.559   4.064   2.621 -1.7712 -0.2411 -0.4077
  357MOL0     H49227   6.552   3.946   2.744 -0.2089  1.0646  2.5056
  357MOL0     H49228   6.800   3.665   2.306  2.5209 -2.3478 -0.1792
  357MOL0     H49229   7.002   3.632   2.183 -3.3345  0.0576 -1.3876
  357MOL0     H49230   7.243   3.737   2.276  1.6874 -0.9722 -0.8036
  357MOL0     H49231   7.248   3.633   2.128  3.1296 -0.8243 -0.9827
  357MOL0     H49232   7.423   3.879   2.203 -0.0970  0.8948 -0.9203
  357MOL0     H49233   7.468   3.707   2.180 -1.1245 -0.9491  0.6153
  357MOL0     H49234   7.358   3.832   1.933  1.7278  2.0385 -0.6731
  357MOL0     H49235   7.461   3.698   1.968 -0.3764 -0.1370  0.2740
  357MOL0     H49236   7.643   3.849   2.058 -3.8427 -0.4965  3.8440
  357MOL0     H49237   7.565   3.988   1.993 -0.1102 -0.0349 -0.3672
  357MOL0     H49238   7.674   3.749   1.823 -3.1106 -3.1280  1.8130
  357MOL0     H49239   7.564   3.861   1.759  2.9151  3.6212 -1.2642
  357MOL0     H49240   7.801   3.972   1.915  0.8169 -1.4986 -0.7248
  357MOL0     H49241   7.672   4.055   1.832 -2.2100 -1.4332  3.0674
  357MOL0     H49242   7.901   4.031   1.711 -0.9315  2.4823 -1.0851
  357MOL0     H49243   7.755   4.020   1.622  0.2583 -2.0850 -1.4200
  357MOL0     H49244   7.915   3.831   1.557 -3.4400 -5.0512 -2.4279
  357MOL0     H49245   7.782   3.760   1.625 -1.2832 -0.4629  4.2095
  357MOL0     H49246   7.054   4.055   2.140  0.9747  0.6330  0.8965
  357MOL0     H49247   6.824   4.084   2.246  1.7067  0.6525  0.1866
  357MOL0     H49248   6.448   3.715   2.293  0.6013 -0.2220 -1.1344
  357MOL0     H49249   6.217   3.724   2.298  0.9438  2.4066 -2.5462
  357MOL0     H49250   4.374   4.015   1.753 -0.8303 -0.2856 -1.1910
  357MOL0     H49251   4.146   3.992   1.857  1.5838  2.5341  1.4659
  357MOL0     H49252   3.850   3.707   2.012 -1.6835 -1.2021  1.0233
  357MOL0     H49253   3.600   3.659   1.994 -0.9005 -1.9110  2.6677
  357MOL0     H49254   3.362   3.958   2.086  0.2079 -0.3766 -0.0721
  357MOL0     H49255   3.270   3.827   2.026  1.3778 -2.4521  0.1979
  357MOL0     H49256   3.154   3.965   2.206 -2.1418 -0.3662 -1.6982
  357MOL0     H49257   3.269   3.891   2.323 -1.4338 -1.9714 -0.2334
  357MOL0     H49258   3.146   3.706   2.344 -6.7215 -0.3814  2.7196
  357MOL0     H49259   3.028   3.812   2.304 -1.2762 -2.9428  1.5568
  357MOL0     H49260   3.011   3.597   2.207 -0.1602  0.9915  0.6647
  357MOL0     H49261   3.146   3.622   2.096 -2.3134  0.5398 -3.0710
  357MOL0     H49262   2.869   3.859   1.895  0.2303 -0.1312 -0.2751
  357MOL0     H49263   3.525   3.985   2.248 -0.0660 -2.1558  1.3845
  357MOL0     H49264   3.737   4.081   2.378 -0.5410  1.4331 -0.3901
  357MOL0     H49265   3.869   4.115   2.266  0.4181 -3.6908 -0.8046
  357MOL0     H49266   3.696   4.171   2.237  1.8960  1.5549 -1.2025
  358MOL0     O49267   6.218   6.542   8.085 -0.0572  0.6613 -0.9306
  358MOL0     C49268   6.216   6.441   8.012  0.3251 -0.3174 -1.0691
  358MOL0     O49269   6.306   6.347   8.020  0.4480  0.2505  0.7438
  358MOL0     C49270   6.396   6.364   8.124 -0.1585 -1.0038 -0.1371
  358MOL0     C49271   6.378   6.321   8.257  0.5897  0.2512 -0.4119
  358MOL0     C49272   6.470   6.350   8.356  0.6354 -0.0683 -0.9260
  358MOL0     C49273   6.596   6.401   8.323 -1.2219  0.9284 -0.5393
  358MOL0     O49274   6.700   6.413   8.415  0.3775  0.3321 -0.2312
  358MOL0     C49275   6.724   6.311   8.517  0.6019  0.7719  0.0489
  358MOL0     C49276   6.725   6.354   8.665  0.0881 -0.2383  0.1036
  358MOL0     C49277   6.577   6.346   8.708 -1.0811  0.2212 -1.1530
  358MOL0     C49278   6.563   6.368   8.857 -0.2935 -1.2555  0.8879
  358MOL0     C49279   6.421   6.338   8.900  0.1651 -0.0391 -0.0512
  358MOL0     C49280   6.394   6.357   9.048 -0.2902 -0.3733 -0.3849
  358MOL0     C49281   6.269   6.272   9.089  0.4261 -0.6692 -0.4445
  358MOL0     C49282   6.203   6.311   9.228 -0.0927 -0.3943  0.5233
  358MOL0     N49283   6.066   6.257   9.244  0.3044 -1.0497 -0.3730
  358MOL0     C49284   5.991   6.285   9.357  0.6880 -0.3909  0.2664
  358MOL0     C49285   5.920   6.169   9.371 -0.3812  0.7090 -0.5101
  358MOL0     C49286   5.826   6.133   9.493  0.0378 -0.5961 -0.3950
  358MOL0     C49287   5.903   6.139   9.626  0.0819  0.0623  0.6387
  358MOL0     C49288   5.813   6.107   9.741  1.0659 -0.0480  0.6489
  358MOL0     C49289   5.883   6.145   9.877  0.4024 -0.2100 -0.4167
  358MOL0     O49290   6.008   6.082   9.902 -0.4413  0.3209 -0.2364
  358MOL0     C49291   6.057   6.069  10.031 -0.9108 -0.7562 -0.3269
  358MOL0     C49292   6.174   5.990  10.048  1.2740 -0.7187 -0.1494
  358MOL0     C49293   6.237   5.968  10.174 -0.1903  0.9072 -0.4716
  358MOL0     C49294   6.363   5.888  10.196  0.6803  0.2369  0.5705
  358MOL0     C49295   6.168   6.022  10.293  0.1631  0.3954 -0.2688
  358MOL0     C49296   6.235   6.021  10.432  0.7166 -0.5009 -1.1104
  358MOL0     O49297   6.149   6.065  10.530  1.4026  0.6618 -0.0982
  358MOL0     C49298   6.173   6.091  10.662  0.2561 -0.2170 -0.4056
  358MOL0     C49299   6.267   6.020  10.738 -0.2625 -0.1533  1.1210
  358MOL0     C49300   6.276   6.052  10.874 -0.3249 -0.2276 -0.1152
  358MOL0     C49301   6.205   6.155  10.938  0.0766 -0.3496  1.1063
  358MOL0     O49302   6.222   6.166  11.078  1.2055  0.1333  0.3525
  358MOL0     C49303   6.193   6.297  11.115  0.8565  0.7282 -0.7050
  358MOL0     C49304   6.240   6.316  11.258  0.4722  0.8891  0.1666
  358MOL0     C49305   6.161   6.225  11.351  0.3687  0.4406  0.1467
  358MOL0     C49306   6.055   6.300  11.428  0.2933 -0.6618 -0.2186
  358MOL0     C49307   6.033   6.235  11.567  0.5933  0.7530 -0.9469
  358MOL0     C49308   5.927   6.310  11.654 -0.5347 -0.4788  0.9722
  358MOL0     C49309   5.879   6.235  11.788 -0.1435  0.0915  0.2773
  358MOL0     C49310   5.997   6.175  11.869  0.5217  0.1817 -0.1678
  358MOL0    Cl49311   5.932   6.119  12.026  0.0897  0.0967  0.5016
  358MOL0     C49312   6.109   6.220  10.860 -0.6097 -0.7134  0.9342
  358MOL0     C49313   6.101   6.187  10.720  0.9212  1.0451  0.3781
  358MOL0     O49314   6.354   6.038  10.439  0.4508 -1.0608 -0.0037
  358MOL0     C49315   6.052   6.096  10.272  0.0589  1.3350 -1.3432
  358MOL0     C49316   5.995   6.122  10.149 -0.5526 -0.3845  0.2818
  358MOL0     N49317   5.963   6.071   9.279 -0.2343 -0.0004 -0.3380
  358MOL0     N49318   6.043   6.127   9.200  0.2171  0.8197 -0.3963
  358MOL0     C49319   6.616   6.445   8.189  0.8134 -0.2293 -0.3339
  358MOL0     C49320   6.512   6.439   8.092  0.1193  1.2828  0.5752
  358MOL0     C49321   6.097   6.430   7.916 -0.0365  0.2789  0.7187
  358MOL0     C49322   6.087   6.323   7.826  0.4900 -0.3543  0.3463
  358MOL0     C49323   5.988   6.302   7.743  0.4904 -0.1229  0.7912
  358MOL0     C49324   5.889   6.395   7.729 -0.0430 -0.0978  0.4710
  358MOL0     O49325   5.799   6.373   7.628 -0.1142 -0.1885  0.2505
  358MOL0     C49326   5.664   6.416   7.649  0.2055  0.0702  0.2865
  358MOL0     C49327   5.611   6.501   7.530 -0.5647  0.3874  0.6011
  358MOL0     C49328   5.477   6.563   7.573 -0.5574  0.5608 -0.7373
  358MOL0     C49329   5.414   6.640   7.458  0.0854 -0.3329 -0.0869
  358MOL0     C49330   5.469   6.773   7.443 -0.2834  0.2591  0.6119
  358MOL0     C49331   5.518   6.882   7.442 -0.0214 -0.1500  0.6534
  358MOL0     C49332   5.907   6.514   7.796  0.8851 -0.0181 -0.6165
  358MOL0     C49333   6.005   6.534   7.886  0.5915 -0.4471  0.1308
  358MOL0     C49334   5.998   6.673   7.948 -0.2988 -0.1645 -0.7527
  358MOL0     H49335   6.290   6.263   8.285 -0.5529  1.5999 -1.0615
  358MOL0     H49336   6.459   6.323   8.460  3.9163 -1.1854 -0.7392
  358MOL0     H49337   6.824   6.270   8.501 -0.6355 -2.8057  0.5242
  358MOL0     H49338   6.665   6.219   8.519  1.1647  0.4140  1.6428
  358MOL0     H49339   6.779   6.282   8.728  0.3931  1.3653  1.7441
  358MOL0     H49340   6.775   6.447   8.691 -0.6174 -0.1920  1.3566
  358MOL0     H49341   6.510   6.417   8.660 -1.8121 -0.3852 -1.0443
  358MOL0     H49342   6.546   6.246   8.679  4.6130 -2.3971  0.2580
  358MOL0     H49343   6.626   6.302   8.917 -0.9525 -1.4174  1.4173
  358MOL0     H49344   6.603   6.463   8.892  1.2856 -1.3001 -0.6814
  358MOL0     H49345   6.403   6.231   8.887 -0.0829  0.1103 -0.9660
  358MOL0     H49346   6.347   6.397   8.846  2.1816  3.4616  0.6680
  358MOL0     H49347   6.474   6.328   9.117 -4.2378  1.0224  5.5402
  358MOL0     H49348   6.375   6.463   9.065 -1.0952 -0.6591  0.6008
  358MOL0     H49349   6.298   6.167   9.102 -2.2758 -1.3754  0.5304
  358MOL0     H49350   6.206   6.273   9.000  1.8639  1.9651 -1.5499
  358MOL0     H49351   6.267   6.263   9.303  1.9470 -1.3456 -1.6918
  358MOL0     H49352   6.195   6.419   9.238 -2.8742 -0.2296 -2.2147
  358MOL0     H49353   5.986   6.367   9.428  0.2399  0.0054 -0.2139
  358MOL0     H49354   5.783   6.033   9.489 -1.4287 -0.0530  0.7976
  358MOL0     H49355   5.748   6.209   9.484  2.0418  1.5436 -0.7622
  358MOL0     H49356   5.988   6.070   9.629  0.9903  0.8396 -2.7723
  358MOL0     H49357   5.947   6.239   9.639 -0.9335  0.4499  1.2079
  358MOL0     H49358   5.715   6.148   9.719 -0.1263 -3.9770 -2.7024
  358MOL0     H49359   5.800   6.000   9.721 -3.5177  0.6423 -1.3219
  358MOL0     H49360   5.882   6.254   9.870 -0.8248 -0.2857 -2.0802
  358MOL0     H49361   5.821   6.101   9.955  5.0802 -2.2915  2.6134
  358MOL0     H49362   6.210   5.951   9.953  0.2040  2.4034 -1.9917
  358MOL0     H49363   6.366   5.812  10.117 -1.7828  0.1790  0.4614
  358MOL0     H49364   6.364   5.827  10.287 -1.6423 -6.7538 -3.2672
  358MOL0     H49365   6.456   5.945  10.194  0.1015  1.2300 -1.6737
  358MOL0     H49366   6.327   5.939  10.697 -0.6160  0.4729 -0.7466
  358MOL0     H49367   6.339   5.989  10.936 -2.8740 -1.1261  1.7019
  358MOL0     H49368   6.250   6.371  11.059  0.7692 -0.4818 -2.4674
  358MOL0     H49369   6.084   6.313  11.115  0.9739  1.8962  1.3768
  358MOL0     H49370   6.344   6.281  11.250 -0.2435 -2.3318  2.8755
  358MOL0     H49371   6.224   6.422  11.279 -2.9852  0.5933 -0.5231
  358MOL0     H49372   6.242   6.187  11.413  0.9683 -1.1803 -1.5278
  358MOL0     H49373   6.110   6.140  11.304 -0.2428  0.5936  0.5282
  358MOL0     H49374   5.961   6.308  11.373  0.0746  0.9833  0.3224
  358MOL0     H49375   6.090   6.403  11.438  0.2068 -0.4152 -2.0986
  358MOL0     H49376   5.996   6.133  11.556 -3.6255  1.9062  0.3348
  358MOL0     H49377   6.126   6.243  11.624  1.3774  0.5894 -2.1762
  358MOL0     H49378   5.837   6.329  11.594 -0.3031  1.5205  1.2000
  358MOL0     H49379   5.958   6.412  11.677 -1.2064  0.3258 -1.4571
  358MOL0     H49380   5.804   6.167  11.747 -1.3259  2.2970 -1.4805
  358MOL0     H49381   5.837   6.309  11.858  2.7424  2.6152 -0.4314
  358MOL0     H49382   6.079   6.244  11.893  0.4441  0.0691  0.4280
  358MOL0     H49383   6.040   6.092  11.812  2.2361  1.5539 -0.9740
  358MOL0     H49384   6.044   6.303  10.888  1.4546  1.6239 -0.8192
  358MOL0     H49385   6.025   6.238  10.661  3.1750  4.1364 -0.1569
  358MOL0     H49386   5.996   6.134  10.357  0.2531  1.3862 -1.2394
  358MOL0     H49387   5.906   6.183  10.138 -0.9848 -0.7887  1.4060
  358MOL0     H49388   6.713   6.487   8.163  0.3940 -0.0313 -1.6475
  358MOL0     H49389   6.544   6.475   7.994  2.8133  0.5276  1.0734
  358MOL0     H49390   6.156   6.241   7.844 -0.0677 -0.6612  1.1591
  358MOL0     H49391   5.972   6.215   7.678  2.7200  1.0540 -1.5219
  358MOL0     H49392   5.608   6.323   7.664 -1.4210  1.3464  2.8706
  358MOL0     H49393   5.650   6.478   7.738  0.2320  4.0193 -2.2494
  358MOL0     H49394   5.591   6.441   7.441 -1.0328  2.2923 -0.6377
  358MOL0     H49395   5.684   6.575   7.496 -0.7034 -0.1321 -0.8994
  358MOL0     H49396   5.407   6.480   7.589  1.1575 -1.1307 -1.6296
  358MOL0     H49397   5.485   6.611   7.671 -0.3649  1.1371 -1.0339
  358MOL0     H49398   5.307   6.651   7.476  0.1661  0.2531  0.0413
  358MOL0     H49399   5.438   6.592   7.362 -0.9666 -1.7228  0.3178
  358MOL0     H49400   5.564   6.978   7.434 -0.1503 -0.1169  0.2700
  358MOL0     H49401   5.838   6.594   7.773  0.9929  0.4687  0.6752
  358MOL0     H49402   5.959   6.752   7.883  2.9232  0.6944 -1.8351
  358MOL0     H49403   5.929   6.674   8.034 -0.5914  1.2316 -0.9764
  358MOL0     H49404   6.089   6.725   7.979 -1.6771  0.2096  3.1837
  359MOL0     O49405   1.891   5.887  10.468 -0.3535 -0.0112  0.2228
  359MOL0     C49406   1.813   5.968  10.414 -0.7469  0.5667 -1.0201
  359MOL0     O49407   1.842   6.091  10.381  0.3523 -0.0349  0.6682
  359MOL0     C49408   1.967   6.140  10.410 -0.1184  0.1077 -0.3031
  359MOL0     C49409   2.062   6.165  10.313  0.6627 -1.3608  0.9439
  359MOL0     C49410   2.198   6.210  10.351  0.3148  0.3333  0.5243
  359MOL0     C49411   2.223   6.227  10.485 -0.0030  0.0285  0.6234
  359MOL0     O49412   2.341   6.277  10.536  0.7074  0.2857  0.1152
  359MOL0     C49413   2.454   6.307  10.457  0.7198 -0.9566  0.9880
  359MOL0     C49414   2.587   6.293  10.534 -1.3139 -0.1363  0.0468
  359MOL0     C49415   2.588   6.386  10.656  0.1237 -0.0575 -0.3610
  359MOL0     C49416   2.516   6.322  10.777  0.5246 -0.2599 -0.0183
  359MOL0     C49417   2.537   6.412  10.901 -0.3846  0.0069 -0.6239
  359MOL0     C49418   2.496   6.308  11.022 -0.0632 -0.0082  1.4400
  359MOL0     C49419   2.484   6.372  11.161 -0.1363 -0.1785  0.8264
  359MOL0     C49420   2.622   6.391  11.214  0.2178 -0.5824  0.0968
  359MOL0     N49421   2.635   6.410  11.358  0.3475 -0.1852 -0.1164
  359MOL0     C49422   2.608   6.314  11.456 -0.8223 -0.0210  0.0237
  359MOL0     C49423   2.625   6.383  11.570  0.6358  1.1928  1.1160
  359MOL0     C49424   2.605   6.324  11.704 -0.1358  0.7519 -0.4309
  359MOL0     C49425   2.448   6.330  11.711  0.0316  0.8932  1.2683
  359MOL0     C49426   2.388   6.194  11.666 -0.1695 -0.1769 -0.7721
  359MOL0     C49427   2.257   6.181  11.740  1.6331  0.8249 -0.0750
  359MOL0     O49428   2.150   6.263  11.683  0.0991 -0.3817 -0.2158
  359MOL0     C49429   2.048   6.295  11.774  0.9197  1.4832 -0.0766
  359MOL0     C49430   2.048   6.324  11.907 -0.1911 -0.6251 -0.3481
  359MOL0     C49431   1.924   6.336  11.982  0.5074  0.0460  0.2385
  359MOL0     C49432   1.955   6.378  12.123 -1.0022  0.0481 -0.6866
  359MOL0     C49433   1.799   6.307  11.925  0.6529 -0.9268  0.9860
  359MOL0     C49434   1.666   6.316  11.997 -0.4794 -0.5538 -0.4953
  359MOL0     O49435   1.558   6.312  11.916  0.0136 -0.1961  0.0545
  359MOL0     C49436   1.475   6.209  11.951 -0.7727  0.0648 -0.4073
  359MOL0     C49437   1.508   6.090  11.895  0.5051 -0.0788 -0.1578
  359MOL0     C49438   1.444   5.969  11.927 -0.6438 -0.3308  0.7464
  359MOL0     C49439   1.338   5.982  12.004  0.3035 -0.4207 -0.1844
  359MOL0     O49440   1.271   5.865  12.027  0.9801 -0.3679  0.0356
  359MOL0     C49441   1.141   5.879  12.092  0.1943  0.9867 -0.5014
  359MOL0     C49442   1.090   5.741  12.099 -0.3233 -0.8039  0.0879
  359MOL0     C49443   0.951   5.737  12.144 -1.1173 -0.4460 -0.9191
  359MOL0     C49444   0.848   5.825  12.054  0.3803  0.0380  0.5299
  359MOL0     C49445   0.717   5.745  12.033 -0.3833  0.0391  0.3804
  359MOL0     C49446   0.684   5.730  11.892  0.0897  0.0700 -0.3400
  359MOL0     C49447   0.655   5.865  11.821  0.6300 -0.3403  0.3387
  359MOL0     C49448   0.649   5.846  11.665  0.6946  0.1633 -0.4419
  359MOL0    Cl49449   0.537   5.713  11.624  0.3268 -0.4697 -0.3615
  359MOL0     C49450   1.300   6.099  12.067 -0.2494  0.1692 -0.0241
  359MOL0     C49451   1.367   6.219  12.044 -0.8966 -0.6271  0.6504
  359MOL0     O49452   1.662   6.328  12.118  0.6726 -0.0717  0.3734
  359MOL0     C49453   1.805   6.289  11.783 -0.1858 -0.0042 -0.0688
  359MOL0     C49454   1.920   6.280  11.712 -0.8543 -0.8338  0.5550
  359MOL0     N49455   2.649   6.518  11.538 -0.1266 -0.5768 -0.1171
  359MOL0     N49456   2.649   6.532  11.410 -0.0775  0.7535  0.2157
  359MOL0     C49457   2.123   6.208  10.578 -0.9287 -0.8155 -1.1171
  359MOL0     C49458   2.006   6.155  10.544  1.0345  1.2565 -0.5126
  359MOL0     C49459   1.674   5.924  10.399 -0.4006 -0.2416  0.4184
  359MOL0     C49460   1.621   5.841  10.498  0.8536 -0.4688  0.7540
  359MOL0     C49461   1.486   5.797  10.500 -0.7333 -0.2269  0.4255
  359MOL0     C49462   1.400   5.836  10.398 -0.2769  0.2300  0.6196
  359MOL0     O49463   1.269   5.789  10.406 -0.3091 -0.3111  1.0840
  359MOL0     C49464   1.179   5.905  10.435  0.4496  0.4865 -0.0425
  359MOL0     C49465   1.135   5.887  10.578 -0.1335  0.2449 -0.3015
  359MOL0     C49466   1.064   6.017  10.632  0.4259 -0.0934  0.5125
  359MOL0     C49467   1.174   6.121  10.638  0.6947 -0.3518 -0.0930
  359MOL0     C49468   1.129   6.235  10.557  0.5023 -1.0160 -0.2697
  359MOL0     C49469   1.068   6.327  10.505  0.0790  0.3469 -0.2539
  359MOL0     C49470   1.444   5.929  10.303  0.6163 -0.1496 -0.2028
  359MOL0     C49471   1.579   5.976  10.310  0.0912 -0.3322  0.5315
  359MOL0     C49472   1.643   6.069  10.203  0.5272 -0.1124 -1.0132
  359MOL0     H49473   2.032   6.135  10.213  0.1515  2.5388 -0.2296
  359MOL0     H49474   2.277   6.211  10.276  0.5848 -2.1260  0.6810
  359MOL0     H49475   2.438   6.410  10.423 -1.7436 -1.8699 -0.9791
  359MOL0     H49476   2.455   6.235  10.374 -4.6482 -1.4440  0.9760
  359MOL0     H49477   2.605   6.190  10.567  0.8515 -0.2157 -1.1918
  359MOL0     H49478   2.677   6.325  10.481 -0.8090  2.0429  2.0599
  359MOL0     H49479   2.693   6.392  10.686  0.3919 -2.2882 -0.6746
  359MOL0     H49480   2.556   6.489  10.639 -1.0573 -0.1942  0.8352
  359MOL0     H49481   2.408   6.314  10.762  0.7027  1.5393 -3.4188
  359MOL0     H49482   2.553   6.219  10.780 -0.5835 -0.9723 -4.0697
  359MOL0     H49483   2.467   6.495  10.892 -0.8741 -0.3216  0.0338
  359MOL0     H49484   2.642   6.443  10.911 -0.2611 -0.2443 -1.1416
  359MOL0     H49485   2.394   6.289  10.986  0.7831 -1.3829 -0.4001
  359MOL0     H49486   2.555   6.216  11.028  0.5439  0.3914  1.6214
  359MOL0     H49487   2.422   6.303  11.219  0.9964 -0.4709  1.7322
  359MOL0     H49488   2.435   6.469  11.149  2.0364  0.7464 -1.2670
  359MOL0     H49489   2.684   6.302  11.196  1.7095 -0.3825  3.5151
  359MOL0     H49490   2.674   6.469  11.158  2.2925 -2.6751 -1.0981
  359MOL0     H49491   2.601   6.206  11.454  0.4470 -0.2444  2.8149
  359MOL0     H49492   2.657   6.386  11.777  0.9451  3.6069 -3.3611
  359MOL0     H49493   2.653   6.226  11.713  0.1491  1.0821  2.4722
  359MOL0     H49494   2.398   6.347  11.807 -1.3248 -0.8947  0.9314
  359MOL0     H49495   2.406   6.411  11.651 -1.0241 -0.2476  0.4181
  359MOL0     H49496   2.365   6.186  11.560  1.3024  2.4381 -1.3639
  359MOL0     H49497   2.454   6.110  11.689  1.4500  1.6176  1.7928
  359MOL0     H49498   2.220   6.078  11.726  0.1318  1.2603  0.4744
  359MOL0     H49499   2.262   6.185  11.849 -3.4582 -0.2809  0.4408
  359MOL0     H49500   2.146   6.352  11.944  1.3441 -2.3509 -2.8004
  359MOL0     H49501   1.864   6.426  12.160 -3.4255 -1.6930 -3.8584
  359MOL0     H49502   2.026   6.461  12.115 -2.9989  2.1635  1.8016
  359MOL0     H49503   2.001   6.303  12.187  2.0262  1.0468 -1.5410
  359MOL0     H49504   1.592   6.085  11.828  2.3858 -3.2380  2.1175
  359MOL0     H49505   1.472   5.869  11.896  1.9580  1.0041 -1.6184
  359MOL0     H49506   1.148   5.912  12.197 -1.5873  1.4077 -0.4933
  359MOL0     H49507   1.079   5.945  12.032 -1.5634  0.5332  0.7222
  359MOL0     H49508   1.090   5.685  12.006  1.9312 -2.1095  0.7845
  359MOL0     H49509   1.151   5.689  12.173 -3.0708 -1.1750  2.2989
  359MOL0     H49510   0.953   5.755  12.252 -1.6758 -0.9337 -0.8216
  359MOL0     H49511   0.934   5.631  12.127  1.6472 -0.7928 -1.8726
  359MOL0     H49512   0.893   5.846  11.957  1.5285  0.8991  1.2279
  359MOL0     H49513   0.832   5.923  12.100 -0.2423 -0.8960  2.4473
  359MOL0     H49514   0.726   5.655  12.094  0.2956  1.6230  2.7905
  359MOL0     H49515   0.636   5.811  12.065  2.5578  4.8482 -0.9856
  359MOL0     H49516   0.608   5.652  11.877 -0.8704  1.3146 -2.5452
  359MOL0     H49517   0.766   5.681  11.838 -1.3505 -2.6577 -0.2625
  359MOL0     H49518   0.731   5.940  11.843  0.9033 -0.2386 -0.8615
  359MOL0     H49519   0.557   5.904  11.850  0.3351 -0.8606  0.0736
  359MOL0     H49520   0.747   5.808  11.632  0.3251  1.4793 -3.3329
  359MOL0     H49521   0.608   5.942  11.633 -0.9435 -1.1531 -2.5442
  359MOL0     H49522   1.216   6.101  12.136 -1.1160  0.6801 -1.0550
  359MOL0     H49523   1.351   6.319  12.084  0.2108  0.5982 -1.7632
  359MOL0     H49524   1.721   6.289  11.714  1.0762  4.1542 -1.9533
  359MOL0     H49525   1.910   6.272  11.604 -0.7107  0.1513  0.4514
  359MOL0     H49526   2.158   6.220  10.680  3.0742 -1.8934 -2.1878
  359MOL0     H49527   1.947   6.123  10.629  0.8808  1.1230 -0.6694
  359MOL0     H49528   1.686   5.815  10.581  0.7017  2.4599  1.9272
  359MOL0     H49529   1.434   5.735  10.573 -2.2008  0.4050 -0.0284
  359MOL0     H49530   1.230   6.002  10.434 -2.2309  2.0216  0.7773
  359MOL0     H49531   1.097   5.899  10.362  0.4756 -0.5064 -0.0005
  359MOL0     H49532   1.225   5.867  10.637  1.6761  0.0426 -2.9711
  359MOL0     H49533   1.077   5.795  10.565  0.8084 -0.1224 -2.2786
  359MOL0     H49534   0.982   6.054  10.569 -0.4244 -0.8610  1.1451
  359MOL0     H49535   1.014   6.013  10.729 -2.5156  0.6413 -0.8569
  359MOL0     H49536   1.280   6.096  10.621  1.6210  1.0472  2.9116
  359MOL0     H49537   1.175   6.146  10.745 -0.4565 -0.7540  0.0275
  359MOL0     H49538   1.009   6.406  10.464 -0.3585 -0.0797 -0.4547
  359MOL0     H49539   1.380   5.959  10.221  1.9640 -0.5884 -1.4696
  359MOL0     H49540   1.743   6.034  10.177  0.0796 -1.0910 -1.4262
  359MOL0     H49541   1.585   6.069  10.111  1.2369  5.4629 -1.8169
  359MOL0     H49542   1.647   6.172  10.242 -1.0822 -0.5209  0.3292
  360MOL0     O49543   9.529  11.498  11.343  0.1886  0.9384 -0.0856
  360MOL0     C49544   9.640  11.534  11.359 -0.8357 -0.2973 -0.5988
  360MOL0     O49545   9.753  11.482  11.286  0.3107 -0.8043 -0.0582
  360MOL0     C49546   9.737  11.401  11.181  1.0373  0.8644 -0.0157
  360MOL0     C49547   9.701  11.450  11.054  1.4090 -0.2129 -0.7018
  360MOL0     C49548   9.693  11.357  10.951  1.5217  0.9375 -0.0202
  360MOL0     C49549   9.735  11.228  10.968  0.5286  0.0994  0.0950
  360MOL0     O49550   9.715  11.140  10.864 -0.1733  1.0946 -0.1046
  360MOL0     C49551   9.588  11.134  10.794  0.2012 -0.7233  0.9822
  360MOL0     C49552   9.473  11.082  10.886  1.0219  0.8609 -0.5912
  360MOL0     C49553   9.390  11.182  10.954 -0.2779 -0.5610 -0.0908
  360MOL0     C49554   9.262  11.129  11.011  0.0448  0.4824  0.0344
  360MOL0     C49555   9.160  11.238  11.061 -1.2759 -0.0157  1.0805
  360MOL0     C49556   9.210  11.308  11.186  0.4042  0.7090 -0.6140
  360MOL0     C49557   9.106  11.390  11.245  0.3631 -0.4638  0.0849
  360MOL0     C49558   9.140  11.447  11.391  0.1749  0.5293  0.8524
  360MOL0     N49559   9.088  11.362  11.498 -0.7581  0.8975  0.8949
  360MOL0     C49560   9.156  11.306  11.598 -0.0090  0.4048 -0.3223
  360MOL0     C49561   9.064  11.245  11.667  0.0426  0.5107 -1.0764
  360MOL0     C49562   9.093  11.154  11.780  0.1255 -0.2713 -1.0057
  360MOL0     C49563   9.031  11.194  11.908 -0.8290 -0.5628 -0.3050
  360MOL0     C49564   9.080  11.332  11.958 -0.3897  1.6141 -0.2240
  360MOL0     C49565   9.004  11.382  12.077  0.4516  1.2176  0.6512
  360MOL0     O49566   9.046  11.308  12.194 -0.4414 -0.7121  0.2897
  360MOL0     C49567   9.172  11.325  12.240 -0.9898  0.4002  1.0096
  360MOL0     C49568   9.228  11.220  12.312  0.2079 -0.3927 -0.0680
  360MOL0     C49569   9.348  11.221  12.378 -0.4316 -0.5265 -0.6575
  360MOL0     C49570   9.386  11.100  12.461  0.1897  0.0334  0.1390
  360MOL0     C49571   9.426  11.344  12.360  0.1063  0.3516 -1.0852
  360MOL0     C49572   9.558  11.360  12.412  0.2049  0.9914 -1.1649
  360MOL0     O49573   9.579  11.301  12.533 -0.1834 -0.3167 -0.1639
  360MOL0     C49574   9.700  11.351  12.588 -0.2760 -0.6033  0.7243
  360MOL0     C49575   9.721  11.485  12.617 -0.5326  0.1844  0.9678
  360MOL0     C49576   9.840  11.528  12.675 -0.1612  0.2856 -1.2903
  360MOL0     C49577   9.947  11.440  12.699  0.2406  0.3174  0.5609
  360MOL0     O49578  10.072  11.492  12.737 -0.3685  0.0618 -0.6060
  360MOL0     C49579  10.192  11.406  12.719  0.8767 -0.3490 -0.2041
  360MOL0     C49580  10.195  11.315  12.844  0.5923 -0.4634 -0.6175
  360MOL0     C49581  10.299  11.202  12.848  0.1350 -0.1614  0.2980
  360MOL0     C49582  10.445  11.243  12.803  0.1991  0.6017  0.0262
  360MOL0     C49583  10.527  11.111  12.803 -0.0903 -0.0016 -0.5204
  360MOL0     C49584  10.678  11.130  12.786 -0.1530  0.3343 -0.2714
  360MOL0     C49585  10.742  10.991  12.787 -0.0534  1.0868  0.5679
  360MOL0     C49586  10.887  11.008  12.815 -0.1486  0.2671 -0.6886
  360MOL0    Cl49587  10.964  11.126  12.707 -0.1232 -0.3271 -0.3157
  360MOL0     C49588   9.926  11.302  12.665  1.2231 -0.9647 -1.3096
  360MOL0     C49589   9.801  11.257  12.616  0.1899 -0.2825  0.1481
  360MOL0     O49590   9.635  11.430  12.342 -0.1608 -0.1541 -0.4098
  360MOL0     C49591   9.370  11.444  12.275  0.0536 -0.7634  0.2425
  360MOL0     C49592   9.246  11.436  12.219  0.0261  0.2113 -0.9757
  360MOL0     N49593   8.942  11.257  11.610 -0.5709 -0.3423  0.2988
  360MOL0     N49594   8.952  11.341  11.513  0.5213 -0.7590 -0.0765
  360MOL0     C49595   9.788  11.191  11.094  0.2516  1.3491  0.8000
  360MOL0     C49596   9.786  11.278  11.197 -0.6061  0.4405 -0.0348
  360MOL0     C49597   9.682  11.636  11.464  0.6404  0.5718  0.1728
  360MOL0     C49598   9.815  11.700  11.466  0.0953  1.0106 -0.2193
  360MOL0     C49599   9.843  11.798  11.567 -0.1375 -0.3351 -0.4781
  360MOL0     C49600   9.750  11.834  11.670  0.3839  0.1398  0.1907
  360MOL0     O49601   9.774  11.926  11.774 -1.2913  0.2049  0.8120
  360MOL0     C49602   9.903  11.994  11.776  0.1806  0.8651 -1.2091
  360MOL0     C49603   9.889  12.084  11.897  0.4186  0.4693  0.6474
  360MOL0     C49604  10.034  12.115  11.947 -0.5064  0.4942 -0.3268
  360MOL0     C49605  10.039  12.185  12.076  0.3588  0.1291 -1.3573
  360MOL0     C49606  10.000  12.330  12.060 -0.1373  0.3182 -0.3742
  360MOL0     C49607   9.957  12.443  12.056  0.4333  0.3398 -0.1204
  360MOL0     C49608   9.629  11.765  11.670  0.0693  0.0663  0.3751
  360MOL0     C49609   9.588  11.677  11.562  0.1404 -0.4756 -0.0262
  360MOL0     C49610   9.448  11.615  11.584 -0.4646 -0.2245  0.9821
  360MOL0     H49611   9.647  11.541  11.033  1.5494 -1.0080 -5.7138
  360MOL0     H49612   9.667  11.398  10.854 -4.7846  1.4897  1.4959
  360MOL0     H49613   9.601  11.065  10.711  0.3057  0.9419 -0.4301
  360MOL0     H49614   9.559  11.232  10.755 -0.6488 -1.1943  0.3859
  360MOL0     H49615   9.404  11.018  10.830  0.0287  1.6286 -0.2747
  360MOL0     H49616   9.515  11.007  10.953  0.0546 -2.5521 -3.4912
  360MOL0     H49617   9.442  11.229  11.039 -1.7250  2.0289 -0.5242
  360MOL0     H49618   9.367  11.263  10.884  1.4261 -2.0209 -2.4657
  360MOL0     H49619   9.216  11.070  10.932  3.6794 -1.9561 -0.5163
  360MOL0     H49620   9.295  11.059  11.089  2.7299  0.8176 -0.6941
  360MOL0     H49621   9.057  11.203  11.072 -1.6070  0.1078 -1.1410
  360MOL0     H49622   9.162  11.315  10.983 -0.2361  0.0768  1.1816
  360MOL0     H49623   9.249  11.241  11.263  1.1980  1.5287 -0.2710
  360MOL0     H49624   9.283  11.377  11.142  1.2500 -0.9200 -1.8529
  360MOL0     H49625   9.018  11.327  11.255  1.6949 -2.7284 -1.5366
  360MOL0     H49626   9.073  11.472  11.181 -0.9306 -0.6826  0.4516
  360MOL0     H49627   9.248  11.451  11.406  0.4961 -1.7259 -0.3164
  360MOL0     H49628   9.087  11.539  11.415  2.8044  2.5199 -0.5267
  360MOL0     H49629   9.263  11.305  11.618 -0.2645 -0.8644  1.2364
  360MOL0     H49630   9.201  11.139  11.786 -0.0861 -2.7051 -2.2774
  360MOL0     H49631   9.066  11.052  11.754 -0.5801 -0.0247 -1.2654
  360MOL0     H49632   8.922  11.183  11.905 -1.0173 -0.7981  3.1161
  360MOL0     H49633   9.054  11.128  11.992  3.4343  0.7262 -0.2486
  360MOL0     H49634   9.186  11.323  11.983 -0.9222  0.3432  1.8802
  360MOL0     H49635   9.077  11.404  11.875  3.5342 -0.4098 -2.4081
  360MOL0     H49636   9.019  11.489  12.096  3.3641  1.2298 -1.1062
  360MOL0     H49637   8.897  11.362  12.073  0.5535  0.7779 -0.1404
  360MOL0     H49638   9.172  11.127  12.307  3.3269 -2.5121  1.5078
  360MOL0     H49639   9.323  11.014  12.436  2.2292 -1.0496 -1.7047
  360MOL0     H49640   9.371  11.128  12.565 -3.5820  2.3437 -0.8158
  360MOL0     H49641   9.487  11.077  12.426 -0.8193  0.9590 -3.9114
  360MOL0     H49642   9.650  11.555  12.575  0.3288  0.3999 -0.1969
  360MOL0     H49643   9.862  11.632  12.693  0.2859 -0.0641  0.3447
  360MOL0     H49644  10.188  11.342  12.631  1.0010  0.5911 -0.9066
  360MOL0     H49645  10.279  11.471  12.711  0.0673  0.6179 -1.4949
  360MOL0     H49646  10.206  11.376  12.934 -0.2253  0.9521 -1.4399
  360MOL0     H49647  10.096  11.270  12.860  0.9524 -2.0211 -2.4340
  360MOL0     H49648  10.255  11.127  12.782 -0.6517  0.6738 -0.1506
  360MOL0     H49649  10.315  11.164  12.950  2.0092 -2.5434 -0.7815
  360MOL0     H49650  10.507  11.304  12.869  3.1051  3.4033 -4.6361
  360MOL0     H49651  10.445  11.306  12.713  1.0510  1.4631  0.6130
  360MOL0     H49652  10.517  11.070  12.904 -2.6226 -0.4158 -0.8753
  360MOL0     H49653  10.479  11.041  12.734 -1.5386 -0.5794  1.0058
  360MOL0     H49654  10.709  11.199  12.865  1.4341 -1.1673  0.4771
  360MOL0     H49655  10.691  11.185  12.692 -3.0641 -1.4558 -1.8748
  360MOL0     H49656  10.724  10.935  12.695 -0.5746  2.1264  0.0125
  360MOL0     H49657  10.700  10.933  12.870 -2.8097  1.9835 -0.0648
  360MOL0     H49658  10.947  10.916  12.818  0.0688  0.4366  1.0107
  360MOL0     H49659  10.898  11.042  12.918 -1.4785 -2.1322  0.3264
  360MOL0     H49660  10.007  11.234  12.687  2.2261  0.6937  0.4304
  360MOL0     H49661   9.787  11.149  12.613 -0.1774 -0.2554  0.7315
  360MOL0     H49662   9.418  11.539  12.258 -0.8817 -0.3422 -0.0894
  360MOL0     H49663   9.205  11.520  12.165  0.7157  1.1442 -0.0976
  360MOL0     H49664   9.835  11.095  11.116  2.1079  1.7157 -1.1657
  360MOL0     H49665   9.846  11.267  11.286  0.9279  6.1260  0.0583
  360MOL0     H49666   9.869  11.683  11.374 -3.5930 -0.7883 -2.2682
  360MOL0     H49667   9.944  11.834  11.551 -1.1313  1.3274 -4.0539
  360MOL0     H49668   9.983  11.920  11.785 -2.5564 -2.0358  2.2603
  360MOL0     H49669   9.915  12.051  11.683 -0.6322  2.3734 -0.4368
  360MOL0     H49670   9.828  12.044  11.979  1.0451  1.8352  1.8287
  360MOL0     H49671   9.839  12.174  11.860 -0.4399  0.2334  1.2076
  360MOL0     H49672  10.086  12.019  11.959  2.3324  1.5871 -2.5902
  360MOL0     H49673  10.093  12.172  11.874  0.4742 -1.7524 -1.4089
  360MOL0     H49674  10.139  12.186  12.120 -0.0685  1.5981 -0.3348
  360MOL0     H49675   9.968  12.140  12.146 -1.4446  2.4865 -1.5404
  360MOL0     H49676   9.921  12.542  12.037 -3.7532 -0.9631  0.1530
  360MOL0     H49677   9.557  11.791  11.746 -1.6155 -0.2986 -1.0376
  360MOL0     H49678   9.394  11.623  11.489 -1.1431 -0.3084  1.3555
  360MOL0     H49679   9.454  11.506  11.591 -2.5520 -0.5303 -0.8071
  360MOL0     H49680   9.404  11.653  11.677 -2.4807 -1.0595  0.4309
  361MOL0     O49681   7.713   9.244   8.911 -1.0570 -0.8236 -0.0192
  361MOL0     C49682   7.810   9.175   8.950 -0.7447 -0.2117 -0.3262
  361MOL0     O49683   7.947   9.216   8.938 -0.6174 -0.1797 -0.0924
  361MOL0     C49684   7.963   9.337   8.876  1.5110 -1.0668  0.1644
  361MOL0     C49685   7.952   9.336   8.731 -0.6914  0.6621 -0.7307
  361MOL0     C49686   7.992   9.443   8.651  0.9716  0.0532 -0.0996
  361MOL0     C49687   8.031   9.553   8.723  0.2335 -1.5294  0.4548
  361MOL0     O49688   8.052   9.678   8.665 -0.4410 -0.2118  0.6421
  361MOL0     C49689   7.960   9.721   8.558  0.9320  0.3642 -0.2153
  361MOL0     C49690   8.024   9.841   8.480 -0.6010 -0.0029  0.0790
  361MOL0     C49691   7.921   9.931   8.417  0.7110 -0.3939  0.6794
  361MOL0     C49692   7.981  10.062   8.374  0.6577  0.3841 -0.1604
  361MOL0     C49693   7.868  10.144   8.328 -0.1903 -0.2471 -0.2232
  361MOL0     C49694   7.907  10.286   8.282 -0.7890  0.2947 -0.5991
  361MOL0     C49695   7.799  10.366   8.216  0.0251  0.1786  0.4792
  361MOL0     C49696   7.846  10.508   8.186  0.1316 -0.7829  0.0382
  361MOL0     N49697   7.726  10.586   8.162 -1.5973  0.5246  0.1651
  361MOL0     C49698   7.631  10.567   8.064 -1.1403 -0.3138  0.1028
  361MOL0     C49699   7.534  10.653   8.096 -0.5947  0.5597 -0.1608
  361MOL0     C49700   7.416  10.671   8.009  0.0084 -0.6573 -0.9188
  361MOL0     C49701   7.300  10.745   8.087 -0.5110  0.3883  0.4582
  361MOL0     C49702   7.172  10.755   7.992 -0.9568 -0.3921 -0.7015
  361MOL0     C49703   7.092  10.633   7.972  0.1497 -0.8158 -0.4956
  361MOL0     O49704   6.991  10.656   7.864  0.3770 -0.0668  0.4739
  361MOL0     C49705   6.897  10.568   7.825  0.1243 -0.0522 -0.3806
  361MOL0     C49706   6.914  10.435   7.866 -0.0842 -0.7972 -0.6540
  361MOL0     C49707   6.819  10.336   7.824 -0.0682  0.9881 -0.3606
  361MOL0     C49708   6.848  10.190   7.859  0.2082 -0.0991 -0.0821
  361MOL0     C49709   6.712  10.378   7.743  0.3990  0.1474 -0.1124
  361MOL0     C49710   6.618  10.276   7.695 -0.4983  0.0252  0.2286
  361MOL0     O49711   6.588  10.282   7.559  0.2076 -0.3935 -0.3032
  361MOL0     C49712   6.507  10.199   7.498  0.1237  0.2334 -0.2226
  361MOL0     C49713   6.566  10.115   7.400 -0.2516  1.0084 -1.0665
  361MOL0     C49714   6.482  10.013   7.338 -0.0118 -0.6971 -0.8589
  361MOL0     C49715   6.343  10.012   7.366 -1.2321 -1.2072 -0.4161
  361MOL0     O49716   6.268   9.902   7.330  0.5566 -0.0545 -0.6406
  361MOL0     C49717   6.326   9.782   7.285  0.2639  0.2229  0.3611
  361MOL0     C49718   6.232   9.659   7.314  0.0106 -0.8817 -0.4897
  361MOL0     C49719   6.163   9.665   7.454  0.2740  0.1899  0.4524
  361MOL0     C49720   6.075   9.543   7.474 -0.1384  0.2311 -0.6850
  361MOL0     C49721   6.005   9.567   7.614  0.6733  1.0679  0.0163
  361MOL0     C49722   5.965   9.434   7.683 -0.2419 -0.0573  0.1871
  361MOL0     C49723   5.862   9.449   7.788 -0.3306  0.1954 -0.6918
  361MOL0     C49724   5.842   9.308   7.861  1.4488 -0.2735 -0.5678
  361MOL0    Cl49725   5.744   9.341   8.013 -0.1705  0.1336  0.5996
  361MOL0     C49726   6.293  10.106   7.461 -0.1989 -0.1788 -1.2016
  361MOL0     C49727   6.373  10.194   7.534  1.2175 -1.1268  0.3111
  361MOL0     O49728   6.560  10.211   7.780 -0.5995 -0.6718 -0.3286
  361MOL0     C49729   6.694  10.512   7.716  0.8823  0.4262  0.0399
  361MOL0     C49730   6.779  10.618   7.755 -0.1137 -0.6431  0.9235
  361MOL0     N49731   7.565  10.711   8.217 -0.4797 -0.1339  0.9164
  361MOL0     N49732   7.689  10.680   8.253 -0.0457 -0.3863 -0.4202
  361MOL0     C49733   8.030   9.564   8.865  0.6280  0.4630  0.2033
  361MOL0     C49734   7.999   9.451   8.942  0.2127 -1.1499 -0.4075
  361MOL0     C49735   7.782   9.062   9.050 -0.8838 -0.4888 -0.6110
  361MOL0     C49736   7.888   9.018   9.137  0.1664 -1.1213  0.0871
  361MOL0     C49737   7.871   8.938   9.238 -0.1183  0.4677 -0.4451
  361MOL0     C49738   7.746   8.886   9.262  0.3835  0.6571 -0.0498
  361MOL0     O49739   7.741   8.797   9.362 -0.1587  0.8588  0.0235
  361MOL0     C49740   7.697   8.854   9.489 -0.0609  0.8241 -0.3129
  361MOL0     C49741   7.774   8.791   9.608 -0.2822  1.4882 -0.4968
  361MOL0     C49742   7.922   8.802   9.614  0.3765 -0.0242  0.0870
  361MOL0     C49743   7.997   8.733   9.739  0.7102  0.5501  0.4697
  361MOL0     C49744   8.000   8.588   9.749 -1.4558  0.3973  0.0903
  361MOL0     C49745   8.033   8.460   9.741  0.0715 -0.7524  0.0837
  361MOL0     C49746   7.642   8.922   9.186  0.9341  0.0398  1.5014
  361MOL0     C49747   7.656   9.008   9.081 -0.3230 -0.0744  1.3280
  361MOL0     C49748   7.532   9.050   9.001  0.1845 -0.7590 -0.3471
  361MOL0     H49749   7.929   9.244   8.679 -1.4376 -0.1201  0.8954
  361MOL0     H49750   7.998   9.426   8.544  2.5569 -2.5095  0.3025
  361MOL0     H49751   7.867   9.748   8.609  1.9344 -0.6048  2.2830
  361MOL0     H49752   7.921   9.655   8.481  0.7865  0.6622 -0.4024
  361MOL0     H49753   8.078   9.901   8.554  0.1307 -2.7734  1.9213
  361MOL0     H49754   8.083   9.791   8.403 -2.2970 -4.1446  1.1797
  361MOL0     H49755   7.882   9.877   8.330  4.8319  0.2193 -1.8490
  361MOL0     H49756   7.838   9.954   8.483 -2.1462 -2.3511 -1.9243
  361MOL0     H49757   8.015  10.122   8.459 -1.0711  1.7454 -0.3774
  361MOL0     H49758   8.061  10.056   8.300 -0.2555  4.5748 -1.7609
  361MOL0     H49759   7.796  10.152   8.410  0.9913 -0.8531  0.8992
  361MOL0     H49760   7.804  10.096   8.252 -1.1028 -0.8778  0.9143
  361MOL0     H49761   7.959  10.338   8.364  1.5608  0.1002 -1.8549
  361MOL0     H49762   7.987  10.286   8.207 -0.0406  1.2710  0.1508
  361MOL0     H49763   7.716  10.367   8.286  0.4225  1.3787  0.9542
  361MOL0     H49764   7.764  10.320   8.123  0.9505  3.9837 -1.9980
  361MOL0     H49765   7.911  10.554   8.261  0.3931  1.6491 -1.5583
  361MOL0     H49766   7.902  10.510   8.092  2.2317  0.3769  1.2390
  361MOL0     H49767   7.640  10.512   7.971  1.0439  1.9350 -1.1215
  361MOL0     H49768   7.388  10.569   7.980  6.5038 -2.8319 -1.1767
  361MOL0     H49769   7.440  10.726   7.918 -1.7612 -2.0777 -2.3068
  361MOL0     H49770   7.273  10.673   8.165 -0.1370  0.7262  0.9086
  361MOL0     H49771   7.341  10.836   8.133  1.0911 -1.4121  2.8658
  361MOL0     H49772   7.101  10.827   8.035 -1.5086  0.0871 -2.3360
  361MOL0     H49773   7.198  10.807   7.899  0.8579 -0.3749 -0.2110
  361MOL0     H49774   7.159  10.550   7.950  1.3576  0.0068 -0.0231
  361MOL0     H49775   7.049  10.619   8.072  2.0537  3.0145  1.0792
  361MOL0     H49776   7.008  10.412   7.916  1.4615  2.4827 -1.7102
  361MOL0     H49777   6.956  10.187   7.881  0.0159 -0.3247  0.8651
  361MOL0     H49778   6.825  10.120   7.778  0.5272  0.5723 -0.7650
  361MOL0     H49779   6.802  10.168   7.956  0.8886  2.8658  1.0302
  361MOL0     H49780   6.673  10.107   7.384  0.1454 -2.8277  1.7310
  361MOL0     H49781   6.521   9.941   7.267  3.2569 -1.1864  1.2070
  361MOL0     H49782   6.355   9.777   7.180 -1.0144 -2.1156  0.0564
  361MOL0     H49783   6.418   9.768   7.344 -0.1546  0.5446  1.1124
  361MOL0     H49784   6.143   9.659   7.250 -0.8160 -4.3867  0.4179
  361MOL0     H49785   6.282   9.564   7.292 -0.7507 -0.9876 -1.8991
  361MOL0     H49786   6.098   9.753   7.446 -0.3224 -0.2999 -0.3066
  361MOL0     H49787   6.234   9.692   7.532  2.7970 -3.7597 -0.2303
  361MOL0     H49788   6.140   9.456   7.469  0.8691  1.0152 -1.7360
  361MOL0     H49789   6.002   9.531   7.393 -4.6866  5.3552  1.9242
  361MOL0     H49790   6.064   9.621   7.689  2.0738 -1.7380  1.1127
  361MOL0     H49791   5.919   9.633   7.601 -0.9929 -1.0059 -0.0198
  361MOL0     H49792   6.053   9.400   7.738 -0.9949 -1.7540  0.4072
  361MOL0     H49793   5.927   9.364   7.609 -2.8443 -0.0308  1.3689
  361MOL0     H49794   5.768   9.487   7.746 -0.8197  2.5438  2.2401
  361MOL0     H49795   5.883   9.515   7.872  0.7935 -1.6905  0.5976
  361MOL0     H49796   5.939   9.274   7.898  0.7054  0.2626  2.0880
  361MOL0     H49797   5.791   9.244   7.788 -0.1654  1.1511 -0.7422
  361MOL0     H49798   6.192  10.098   7.500  0.3797 -1.0799  0.1920
  361MOL0     H49799   6.304  10.256   7.590 -2.6662 -3.1973 -1.7078
  361MOL0     H49800   6.620  10.543   7.643  1.6050 -1.1121 -1.4014
  361MOL0     H49801   6.762  10.724   7.745 -1.6596 -0.8771  0.9135
  361MOL0     H49802   8.059   9.662   8.902 -1.4010  1.3279 -0.3221
  361MOL0     H49803   7.999   9.441   9.050 -0.2550 -2.4526 -0.5217
  361MOL0     H49804   7.993   9.045   9.124  0.6918 -2.7534  0.5714
  361MOL0     H49805   7.956   8.900   9.293 -2.9479 -2.4421  2.3463
  361MOL0     H49806   7.704   8.963   9.484 -2.1848  0.9984 -0.3290
  361MOL0     H49807   7.590   8.834   9.498 -0.0693  1.3485  0.9197
  361MOL0     H49808   7.753   8.684   9.620 -1.0888  1.4470 -2.0945
  361MOL0     H49809   7.727   8.834   9.697 -0.7172 -1.0251  0.5847
  361MOL0     H49810   7.967   8.764   9.522  3.7652  1.3917  1.0241
  361MOL0     H49811   7.953   8.907   9.618 -0.8113  0.4158 -1.2324
  361MOL0     H49812   7.939   8.770   9.825 -0.2039 -2.1464  1.1028
  361MOL0     H49813   8.101   8.765   9.748  0.2085  2.3324  0.4599
  361MOL0     H49814   8.049   8.354   9.730 -3.6824 -1.3222 -1.1949
  361MOL0     H49815   7.553   8.872   9.220 -0.8553  1.9545 -0.0637
  361MOL0     H49816   7.543   9.057   8.892  1.5543  0.9600 -0.1354
  361MOL0     H49817   7.442   8.988   9.012 -1.6876  1.4029 -2.2742
  361MOL0     H49818   7.499   9.153   9.015 -0.7079 -0.5695 -3.1656
  362MOL0     O49819   6.256   2.603   8.395 -0.1782  0.1292 -0.0777
  362MOL0     C49820   6.286   2.523   8.308 -0.1962  0.1799  0.7218
  362MOL0     O49821   6.389   2.428   8.320 -0.2449  0.1159 -0.0311
  362MOL0     C49822   6.451   2.386   8.439  0.5710 -0.1417  0.1909
  362MOL0     C49823   6.561   2.308   8.417 -0.3676 -0.2584 -0.4494
  362MOL0     C49824   6.634   2.257   8.527  0.5296  0.6753 -0.0838
  362MOL0     C49825   6.591   2.265   8.671 -0.2111 -0.8483  0.4878
  362MOL0     O49826   6.647   2.199   8.778  0.3921  0.2884 -0.0274
  362MOL0     C49827   6.687   2.065   8.737  0.2881 -0.4407  0.7175
  362MOL0     C49828   6.733   2.001   8.865 -0.3673  0.3381  0.6035
  362MOL0     C49829   6.632   2.009   8.985  0.0604 -0.8415  0.1049
  362MOL0     C49830   6.697   1.967   9.112 -0.1616  0.3864  0.0366
  362MOL0     C49831   6.586   1.939   9.223 -0.7618 -0.9004 -0.6316
  362MOL0     C49832   6.645   1.894   9.364 -1.0384  1.2372 -0.9700
  362MOL0     C49833   6.543   1.838   9.470  1.6536 -0.5230  0.1525
  362MOL0     C49834   6.476   1.942   9.549 -0.7504 -0.8764  0.6402
  362MOL0     N49835   6.402   1.912   9.673 -0.1263 -0.9030 -0.3016
  362MOL0     C49836   6.351   1.790   9.727  0.0257  0.4701  0.5623
  362MOL0     C49837   6.362   1.795   9.865 -0.1738  1.5657  0.3475
  362MOL0     C49838   6.296   1.680   9.946  0.9494 -0.0781  0.8073
  362MOL0     C49839   6.171   1.723  10.024  0.0404 -0.5191  0.9510
  362MOL0     C49840   6.180   1.847  10.112  0.5370 -0.0003 -0.3741
  362MOL0     C49841   6.272   1.836  10.237  0.3182  0.8021  0.1804
  362MOL0     O49842   6.201   1.753  10.331  0.5081  0.1988  0.0708
  362MOL0     C49843   6.276   1.684  10.412  0.0518  0.6201  0.2719
  362MOL0     C49844   6.207   1.655  10.532 -0.1932  0.1440 -0.5232
  362MOL0     C49845   6.260   1.574  10.639  1.2452  0.1437 -0.3848
  362MOL0     C49846   6.178   1.530  10.753  0.0532  0.3701 -0.1141
  362MOL0     C49847   6.394   1.533  10.627 -0.3622  0.0537 -1.5144
  362MOL0     C49848   6.465   1.457  10.743 -0.0513 -0.0076  1.9778
  362MOL0     O49849   6.591   1.417  10.707  0.0494 -0.0449 -0.3150
  362MOL0     C49850   6.634   1.307  10.782 -0.1288 -0.0870  0.1261
  362MOL0     C49851   6.713   1.338  10.898 -0.1182 -0.5603 -0.4654
  362MOL0     C49852   6.767   1.233  10.973  0.3511 -0.1006 -0.4925
  362MOL0     C49853   6.746   1.100  10.938 -0.3682 -0.6559  0.0858
  362MOL0     O49854   6.808   0.986  10.998  0.2804 -0.5388  0.1819
  362MOL0     C49855   6.929   0.995  11.074 -0.2803  0.3926  0.2890
  362MOL0     C49856   6.953   0.851  11.113  0.9453 -0.2555  0.1015
  362MOL0     C49857   7.062   0.847  11.225 -0.4331  0.1205  0.5881
  362MOL0     C49858   7.204   0.894  11.184  0.0654 -0.0683 -0.4204
  362MOL0     C49859   7.290   0.894  11.314  0.0136 -0.6313 -0.0969
  362MOL0     C49860   7.314   0.761  11.381  0.4621 -0.3837 -0.2855
  362MOL0     C49861   7.397   0.665  11.299 -0.4057 -0.1532 -0.6379
  362MOL0     C49862   7.379   0.520  11.329  0.3751  0.9166 -0.1805
  362MOL0    Cl49863   7.249   0.476  11.228 -0.0370  0.4504 -0.0314
  362MOL0     C49864   6.676   1.079  10.819 -1.0580 -0.4572  0.5594
  362MOL0     C49865   6.624   1.177  10.738 -0.0561  0.7679  0.6355
  362MOL0     O49866   6.417   1.443  10.859  0.0013 -0.2396  0.5685
  362MOL0     C49867   6.465   1.565  10.511  1.0481 -0.4052 -0.5420
  362MOL0     C49868   6.406   1.627  10.402 -0.0706 -0.3378 -0.0374
  362MOL0     N49869   6.431   1.911   9.899 -0.1447  1.0560  1.1192
  362MOL0     N49870   6.453   1.969   9.781  0.1058 -0.3449 -0.4235
  362MOL0     C49871   6.465   2.328   8.687  0.1607  0.7594  0.2452
  362MOL0     C49872   6.399   2.381   8.578  0.4904  0.2498  0.5549
  362MOL0     C49873   6.218   2.517   8.175 -0.4182 -0.1836 -0.5273
  362MOL0     C49874   6.114   2.607   8.158 -0.3901 -0.4042  0.5537
  362MOL0     C49875   6.042   2.622   8.039  0.7994 -0.5315  0.8907
  362MOL0     C49876   6.084   2.539   7.927 -1.0173  0.2905 -0.2150
  362MOL0     O49877   6.025   2.531   7.795  0.2534  0.2025 -0.6023
  362MOL0     C49878   5.951   2.646   7.754 -0.1771 -0.1151  0.5078
  362MOL0     C49879   6.032   2.752   7.666 -0.1365  0.0792 -0.1103
  362MOL0     C49880   6.084   2.702   7.528  0.1694 -0.3777  0.1959
  362MOL0     C49881   6.172   2.800   7.456 -0.4067 -0.7896 -0.1810
  362MOL0     C49882   6.104   2.933   7.428  0.0299 -0.0558 -0.1327
  362MOL0     C49883   6.044   3.027   7.411  0.0244  0.6113  0.2043
  362MOL0     C49884   6.186   2.451   7.947 -0.0649 -0.3215 -1.0089
  362MOL0     C49885   6.257   2.436   8.069 -0.0982 -1.1997 -1.4387
  362MOL0     C49886   6.365   2.332   8.072  0.2410  0.3661 -0.6742
  362MOL0     H49887   6.614   2.287   8.324  2.0240  0.1378  0.7672
  362MOL0     H49888   6.726   2.202   8.511 -0.3430 -0.0643 -3.2132
  362MOL0     H49889   6.770   2.077   8.667 -0.1647 -1.8918 -0.1098
  362MOL0     H49890   6.604   2.010   8.692  1.8366 -1.9167 -0.4705
  362MOL0     H49891   6.762   1.896   8.849  2.4963  0.6509  2.9590
  362MOL0     H49892   6.826   2.044   8.900 -0.1228 -0.5237  1.0525
  362MOL0     H49893   6.590   2.110   8.987 -0.1053 -0.7960 -2.6616
  362MOL0     H49894   6.552   1.937   8.968 -2.4389  2.3088 -3.0331
  362MOL0     H49895   6.747   1.871   9.094  0.3896  0.9092 -1.3445
  362MOL0     H49896   6.781   2.029   9.143 -1.7228  2.6843 -0.1327
  362MOL0     H49897   6.510   1.868   9.189 -0.4306 -3.0335  2.5646
  362MOL0     H49898   6.539   2.038   9.234  1.4889  0.2960 -1.3398
  362MOL0     H49899   6.711   1.808   9.348 -0.8939  1.0244  0.6500
  362MOL0     H49900   6.703   1.983   9.391  4.5181 -2.5521  1.3921
  362MOL0     H49901   6.587   1.770   9.544  1.1429 -1.2325 -0.1828
  362MOL0     H49902   6.474   1.773   9.415  1.9399 -1.0325  0.3810
  362MOL0     H49903   6.551   2.016   9.577 -1.7640 -0.1080  1.4024
  362MOL0     H49904   6.403   1.980   9.477 -0.2571  1.0539  1.0855
  362MOL0     H49905   6.290   1.712   9.683  0.4116  0.4118  0.1289
  362MOL0     H49906   6.368   1.651  10.023  0.3381 -0.0733  1.3914
  362MOL0     H49907   6.278   1.587   9.892 -4.0767  0.1195  1.6830
  362MOL0     H49908   6.092   1.744   9.952  2.7995  1.2611 -1.8388
  362MOL0     H49909   6.126   1.641  10.081 -3.7978 -2.0144 -3.5693
  362MOL0     H49910   6.221   1.927  10.049  0.5925  0.6907  0.5123
  362MOL0     H49911   6.077   1.875  10.137  1.4586  1.5997  2.0772
  362MOL0     H49912   6.369   1.794  10.208  0.5353 -0.4629  2.5051
  362MOL0     H49913   6.272   1.936  10.281 -0.5990  0.3199  1.3466
  362MOL0     H49914   6.102   1.677  10.549  0.5259  3.3113  0.5138
  362MOL0     H49915   6.208   1.583  10.844  2.2196 -0.9468  0.0053
  362MOL0     H49916   6.170   1.426  10.784  2.9806  0.9149  3.1020
  362MOL0     H49917   6.076   1.568  10.741 -0.2539 -0.8377 -1.6501
  362MOL0     H49918   6.720   1.437  10.941  0.7556 -1.9406  2.8516
  362MOL0     H49919   6.844   1.259  11.046 -1.1086  1.4944  0.5425
  362MOL0     H49920   7.019   1.034  11.026 -0.0853 -1.5145 -0.9841
  362MOL0     H49921   6.909   1.049  11.167  0.3295 -0.2915  0.8335
  362MOL0     H49922   6.855   0.816  11.147  0.1790  1.4060 -0.2968
  362MOL0     H49923   6.980   0.786  11.029  0.0298 -1.5604  0.7784
  362MOL0     H49924   7.061   0.745  11.263  3.2534 -0.5685 -0.7680
  362MOL0     H49925   7.037   0.908  11.312 -0.3312  0.5330  0.3319
  362MOL0     H49926   7.187   0.994  11.142 -1.6999 -0.5170 -0.8892
  362MOL0     H49927   7.238   0.832  11.101 -0.5090 -1.1228  0.1189
  362MOL0     H49928   7.388   0.928  11.278  0.2954  0.3535  1.4639
  362MOL0     H49929   7.257   0.975  11.380  0.4834  1.5994 -2.4393
  362MOL0     H49930   7.217   0.712  11.394  0.0494  0.8346  1.5845
  362MOL0     H49931   7.356   0.771  11.482 -0.5027  2.1195 -0.0641
  362MOL0     H49932   7.505   0.679  11.302 -0.8695  5.3563  1.9453
  362MOL0     H49933   7.373   0.693  11.196  0.4499  0.5018 -0.6674
  362MOL0     H49934   7.356   0.502  11.434 -0.1116  0.6467 -0.3319
  362MOL0     H49935   7.473   0.467  11.310  1.5927  2.6892  0.6320
  362MOL0     H49936   6.665   0.974  10.794 -0.0193 -0.1525 -1.3674
  362MOL0     H49937   6.574   1.129  10.655  0.5241  0.2799  0.5681
  362MOL0     H49938   6.570   1.540  10.500  1.5686  2.0863 -1.7102
  362MOL0     H49939   6.459   1.652  10.310 -0.0820 -2.0171 -0.5510
  362MOL0     H49940   6.415   2.335   8.783 -1.4614 -1.8488 -0.2975
  362MOL0     H49941   6.305   2.433   8.594  0.3516  1.0912 -2.4179
  362MOL0     H49942   6.075   2.675   8.233  1.5639  0.1041  1.1682
  362MOL0     H49943   5.952   2.684   8.036 -0.9132 -2.8988 -0.2861
  362MOL0     H49944   5.870   2.613   7.688 -1.6730  2.8199  0.7108
  362MOL0     H49945   5.912   2.711   7.833  3.2192  2.6678  0.1424
  362MOL0     H49946   6.110   2.799   7.727  0.3070 -1.1384  0.2834
  362MOL0     H49947   5.958   2.830   7.646 -0.9314 -0.5099  0.4625
  362MOL0     H49948   6.152   2.618   7.549  4.8014  1.9683 -3.4552
  362MOL0     H49949   6.001   2.671   7.465  0.2667  0.2902 -0.2725
  362MOL0     H49950   6.211   2.758   7.363  1.9883 -1.2386  0.9544
  362MOL0     H49951   6.257   2.821   7.521 -2.7749  0.2071  2.8508
  362MOL0     H49952   5.988   3.116   7.390  1.3864  1.4556  0.0442
  362MOL0     H49953   6.226   2.388   7.868 -0.5158  2.1023 -3.3656
  362MOL0     H49954   6.387   2.290   7.974 -0.8742  0.3191 -0.9162
  362MOL0     H49955   6.463   2.362   8.109 -0.6429  2.3077  0.2624
  362MOL0     H49956   6.342   2.240   8.126 -3.0512  1.3913 -0.0800
  363MOL0     O49957   1.930   2.963   9.276  0.7107  0.0675  0.0574
  363MOL0     C49958   1.906   3.068   9.339  0.4119  0.6352 -0.1303
  363MOL0     O49959   1.863   3.177   9.282  0.0035 -0.5291  0.2236
  363MOL0     C49960   1.892   3.218   9.153 -0.0311 -0.4801 -0.2461
  363MOL0     C49961   1.796   3.302   9.084  0.7397  0.7667  0.0477
  363MOL0     C49962   1.826   3.353   8.952 -0.5002 -1.1112 -0.7890
  363MOL0     C49963   1.942   3.307   8.889  0.0432 -0.4833  1.0376
  363MOL0     O49964   1.989   3.350   8.766  0.1589 -0.1869  0.4167
  363MOL0     C49965   1.933   3.467   8.701 -0.6730 -0.0275 -0.3666
  363MOL0     C49966   1.812   3.442   8.614  0.2488 -0.1140 -0.0397
  363MOL0     C49967   1.831   3.479   8.472 -0.6338  0.2191  0.5562
  363MOL0     C49968   1.970   3.459   8.407 -0.7663 -1.0868 -1.2256
  363MOL0     C49969   2.007   3.304   8.419 -0.1983  0.3715  0.3691
  363MOL0     C49970   2.106   3.251   8.309  0.2870  0.9958  0.1376
  363MOL0     C49971   2.143   3.102   8.330  0.9145 -0.3752 -0.8061
  363MOL0     C49972   2.024   3.000   8.334 -0.3638  0.3693  0.1143
  363MOL0     N49973   2.070   2.873   8.377 -0.2406  0.5869  0.3415
  363MOL0     C49974   2.001   2.766   8.436 -0.3966  0.1599  0.5380
  363MOL0     C49975   2.095   2.671   8.439 -0.8353 -0.1475  1.1677
  363MOL0     C49976   2.079   2.529   8.499 -0.1138 -0.1563 -0.3161
  363MOL0     C49977   2.108   2.432   8.383  0.1862  1.1438 -0.0903
  363MOL0     C49978   2.127   2.286   8.416 -0.8884  0.0663  0.2448
  363MOL0     C49979   2.116   2.199   8.291 -0.4473 -0.8667  0.4184
  363MOL0     O49980   2.209   2.251   8.191 -0.6799 -0.4557 -0.5307
  363MOL0     C49981   2.200   2.185   8.077  0.3911  0.2026 -0.1367
  363MOL0     C49982   2.257   2.059   8.045  0.5410  0.0053  0.1609
  363MOL0     C49983   2.249   1.998   7.920  0.6044 -0.0879  0.6944
  363MOL0     C49984   2.353   1.887   7.902  0.1552  0.1276  0.0963
  363MOL0     C49985   2.168   2.070   7.823 -0.3272  1.2852 -0.0011
  363MOL0     C49986   2.150   2.031   7.681 -0.2032 -1.5562 -0.4928
  363MOL0     O49987   2.148   1.895   7.650 -0.1853 -0.1678  0.0666
  363MOL0     C49988   2.112   1.858   7.522 -0.8632  0.2765  0.9051
  363MOL0     C49989   2.029   1.746   7.525 -0.3667  1.4292 -1.0865
  363MOL0     C49990   1.975   1.698   7.412 -0.0500 -0.6742  0.5474
  363MOL0     C49991   1.995   1.761   7.291  0.5093  0.2848 -0.5978
  363MOL0     O49992   1.928   1.697   7.192 -0.7924  0.5704  0.4720
  363MOL0     C49993   1.868   1.768   7.090 -0.5960 -0.7500  1.2431
  363MOL0     C49994   1.749   1.687   7.037  0.0190  0.0211 -0.7794
  363MOL0     C49995   1.639   1.646   7.139  0.3421 -0.3311  0.0862
  363MOL0     C49996   1.521   1.566   7.072  0.4767  0.5365  0.0331
  363MOL0     C49997   1.432   1.509   7.189 -0.3193  0.1300 -0.4918
  363MOL0     C49998   1.364   1.382   7.133  0.4345 -1.1622 -0.5991
  363MOL0     C49999   1.260   1.327   7.238  0.2855 -0.2094  0.6953
  363MOL0     C50000   1.164   1.238   7.147  0.0189  0.4634  0.4752
  363MOL0    Cl50001   1.055   1.139   7.241  0.1370 -0.0102 -0.1715
  363MOL0     C50002   2.074   1.875   7.290 -0.6219 -0.3838 -0.5889
  363MOL0     C50003   2.143   1.928   7.402 -0.2187 -0.3666  0.0717
  363MOL0     O50004   2.115   2.122   7.608  0.5695  0.0806  0.2243
  363MOL0     C50005   2.108   2.194   7.865  0.0082 -0.0788 -0.7652
  363MOL0     C50006   2.125   2.251   7.985 -0.1665  0.5954 -0.2726
  363MOL0     N50007   2.217   2.708   8.390  0.9928 -0.5364 -0.2173
  363MOL0     N50008   2.200   2.827   8.350  0.7390  0.2333 -0.5385
  363MOL0     C50009   2.031   3.222   8.958 -0.6346 -0.6580 -0.3180
  363MOL0     C50010   2.006   3.184   9.087 -0.0678 -0.2844 -0.1467
  363MOL0     C50011   1.924   3.067   9.490 -0.1558  0.0630  0.1876
  363MOL0     C50012   1.964   3.196   9.536 -0.2777  0.8919 -0.5981
  363MOL0     C50013   1.991   3.215   9.672  0.5543  0.2642  0.2500
  363MOL0     C50014   1.953   3.118   9.766 -0.2771 -0.0329  0.2685
  363MOL0     O50015   1.972   3.147   9.907  0.5458 -0.0093 -0.3479
  363MOL0     C50016   2.103   3.183   9.950 -0.2766 -0.5856  0.7927
  363MOL0     C50017   2.134   3.083  10.053  0.2585  0.6199 -0.9649
  363MOL0     C50018   2.282   3.084  10.077 -0.6925  0.3186 -0.5597
  363MOL0     C50019   2.328   3.033  10.210 -0.6665 -0.4074  0.7501
  363MOL0     C50020   2.287   2.893  10.235 -0.7965 -1.4637 -0.3966
  363MOL0     C50021   2.267   2.782  10.253 -0.1349  0.1662  0.0172
  363MOL0     C50022   1.910   2.992   9.717  0.5690 -0.4334 -0.5510
  363MOL0     C50023   1.898   2.958   9.578 -0.8493 -0.8894  0.5141
  363MOL0     C50024   1.850   2.825   9.539 -0.4380 -0.7956 -1.4263
  363MOL0     H50025   1.705   3.330   9.137 -1.6060 -1.1257 -2.6629
  363MOL0     H50026   1.764   3.426   8.901 -0.5588 -0.2594  0.4435
  363MOL0     H50027   2.017   3.514   8.649 -0.3323  3.6109  3.0413
  363MOL0     H50028   1.919   3.547   8.773  0.2945 -0.4175  0.2745
  363MOL0     H50029   1.784   3.336   8.612 -0.3876  0.0513 -1.4195
  363MOL0     H50030   1.728   3.507   8.638  0.8690  0.2050  1.3364
  363MOL0     H50031   1.764   3.418   8.412  1.8611 -2.0495 -0.1550
  363MOL0     H50032   1.805   3.583   8.450 -1.6899 -0.8570 -4.4107
  363MOL0     H50033   1.939   3.481   8.304 -0.9538 -1.4305 -1.2441
  363MOL0     H50034   2.037   3.536   8.445 -2.9929  1.3762 -1.9548
  363MOL0     H50035   1.919   3.239   8.423  0.9726 -1.2455  0.6679
  363MOL0     H50036   2.059   3.290   8.514  0.2616 -1.7966 -0.1487
  363MOL0     H50037   2.045   3.260   8.219  0.5473 -1.3482 -0.3336
  363MOL0     H50038   2.198   3.311   8.303 -1.4131  3.6186 -2.8635
  363MOL0     H50039   2.204   3.081   8.418  2.1332 -0.0411 -1.5449
  363MOL0     H50040   2.212   3.073   8.250  2.4576 -0.1646  0.4026
  363MOL0     H50041   1.951   3.032   8.409 -0.6017  0.3551 -0.1129
  363MOL0     H50042   1.976   2.983   8.238 -1.5913  0.3141  0.7229
  363MOL0     H50043   1.895   2.759   8.460 -0.5909 -2.8554 -0.6324
  363MOL0     H50044   1.985   2.521   8.554 -0.5324  1.6176 -0.6857
  363MOL0     H50045   2.155   2.510   8.575 -0.9842 -3.2435 -0.0876
  363MOL0     H50046   2.029   2.449   8.309 -2.4193 -0.4078  2.1511
  363MOL0     H50047   2.205   2.458   8.337  0.5764 -3.1441 -2.2096
  363MOL0     H50048   2.227   2.267   8.456  0.4485  2.5825 -1.6351
  363MOL0     H50049   2.060   2.268   8.501  0.1485  0.3530  1.1321
  363MOL0     H50050   2.158   2.101   8.316 -0.1371 -0.6876  0.6164
  363MOL0     H50051   2.014   2.190   8.253 -0.6218  1.8843  0.0157
  363MOL0     H50052   2.310   2.001   8.120  2.8355  0.6268 -0.8627
  363MOL0     H50053   2.413   1.858   7.989  0.0378 -0.1245  0.0948
  363MOL0     H50054   2.425   1.905   7.822 -2.7168 -0.2641 -2.7859
  363MOL0     H50055   2.301   1.794   7.876  2.0220 -1.1135  0.5504
  363MOL0     H50056   2.007   1.697   7.619  2.0739 -1.0001 -1.6543
  363MOL0     H50057   1.932   1.598   7.407  0.8864 -1.0340 -0.8663
  363MOL0     H50058   1.837   1.865   7.130  0.3521  0.5961 -1.1266
  363MOL0     H50059   1.937   1.785   7.008 -1.6924  3.1621  0.9637
  363MOL0     H50060   1.703   1.747   6.958  0.0989  0.2089 -0.6833
  363MOL0     H50061   1.787   1.599   6.984 -2.7301 -2.4885  1.0595
  363MOL0     H50062   1.587   1.730   7.187  1.2498  0.4985 -0.3497
  363MOL0     H50063   1.684   1.580   7.214  1.4712  0.8985  0.5383
  363MOL0     H50064   1.562   1.484   7.012 -1.3200  0.0547 -0.6199
  363MOL0     H50065   1.453   1.624   7.009 -2.2710  0.1062  2.3961
  363MOL0     H50066   1.498   1.477   7.270 -1.9549 -2.8381 -0.2013
  363MOL0     H50067   1.362   1.589   7.218 -0.5824 -1.1029  2.6218
  363MOL0     H50068   1.430   1.298   7.114 -1.7702 -2.2521 -4.6983
  363MOL0     H50069   1.332   1.403   7.031  2.6633  2.4230 -0.7581
  363MOL0     H50070   1.209   1.400   7.302  3.2826  1.6761  1.1034
  363MOL0     H50071   1.314   1.270   7.314  1.7295 -0.5646 -0.5440
  363MOL0     H50072   1.212   1.166   7.080  0.3340 -0.4036  1.6148
  363MOL0     H50073   1.101   1.304   7.086 -2.2619 -0.0578  2.1130
  363MOL0     H50074   2.105   1.930   7.201  0.8785 -2.6509 -1.5638
  363MOL0     H50075   2.190   2.025   7.390  1.8432 -1.1383  1.5212
  363MOL0     H50076   2.034   2.238   7.799 -0.7756 -0.7170 -0.3220
  363MOL0     H50077   2.079   2.348   7.999  0.1128  0.4813  1.6189
  363MOL0     H50078   2.124   3.193   8.910 -0.5168 -2.1022  0.7109
  363MOL0     H50079   2.080   3.118   9.130 -1.6596 -1.5421  0.7681
  363MOL0     H50080   2.000   3.270   9.465  0.1698 -0.0365 -1.3629
  363MOL0     H50081   2.033   3.310   9.702  0.8623  0.3052 -0.2963
  363MOL0     H50082   2.178   3.161   9.874  3.1312 -0.1188  3.7341
  363MOL0     H50083   2.116   3.288   9.977  4.1931  0.9158 -5.2225
  363MOL0     H50084   2.108   2.983  10.017  0.3131  0.5669 -0.8593
  363MOL0     H50085   2.086   3.108  10.148  1.4447  1.5141 -0.5760
  363MOL0     H50086   2.332   3.017  10.006  0.3065 -1.9081  2.0461
  363MOL0     H50087   2.328   3.183  10.086  1.2278 -0.4478 -1.2453
  363MOL0     H50088   2.277   3.097  10.282  0.3551 -1.0631  2.0918
  363MOL0     H50089   2.437   3.035  10.220 -0.4955 -1.8761 -0.4286
  363MOL0     H50090   2.243   2.681  10.281 -0.9578  1.3061  4.1869
  363MOL0     H50091   1.902   2.921   9.799  1.1763 -1.5027 -1.3870
  363MOL0     H50092   1.781   2.828   9.455  0.5409  0.1547 -2.2235
  363MOL0     H50093   1.933   2.755   9.525 -0.2219 -0.8904  0.0605
  363MOL0     H50094   1.795   2.800   9.630 -1.0512  3.9075 -0.2193
  364MOL0     O50095   0.983   4.374   7.535 -0.4603  0.5081  0.1708
  364MOL0     C50096   1.046   4.325   7.628 -0.2627  0.0598 -0.2057
  364MOL0     O50097   1.129   4.223   7.620 -0.8332 -0.8213  0.0075
  364MOL0     C50098   1.179   4.172   7.502  0.5364  0.4103  0.4535
  364MOL0     C50099   1.261   4.061   7.533  0.6443  0.0802 -0.6393
  364MOL0     C50100   1.334   3.996   7.432  0.7779  0.6308  0.2005
  364MOL0     C50101   1.325   4.041   7.299  0.5565 -0.4971  0.4292
  364MOL0     O50102   1.408   3.997   7.201  0.4013  0.5715  0.0895
  364MOL0     C50103   1.344   3.904   7.112 -0.0700 -0.0051 -0.3356
  364MOL0     C50104   1.346   3.762   7.166 -0.9501 -0.2136  0.4850
  364MOL0     C50105   1.492   3.716   7.189  0.4117 -0.4588  0.5308
  364MOL0     C50106   1.502   3.598   7.291  0.1997  0.1111  0.1489
  364MOL0     C50107   1.638   3.531   7.283  0.4634 -0.1030  0.0445
  364MOL0     C50108   1.663   3.432   7.395  1.5032 -0.0975 -0.0885
  364MOL0     C50109   1.766   3.326   7.362 -0.3175 -0.3124  1.0333
  364MOL0     C50110   1.812   3.248   7.470  0.1968 -0.9397 -1.1152
  364MOL0     N50111   1.882   3.130   7.427 -0.1157 -0.7149  0.4521
  364MOL0     C50112   1.971   3.075   7.511 -0.2192 -0.0947  0.3567
  364MOL0     C50113   1.998   2.959   7.453 -0.2127  0.2041 -0.8884
  364MOL0     C50114   2.098   2.854   7.508  0.0376 -0.2313 -0.0712
  364MOL0     C50115   2.028   2.714   7.502  0.5444 -0.6313  1.0919
  364MOL0     C50116   2.079   2.604   7.605 -0.0910  0.4005  0.0851
  364MOL0     C50117   2.218   2.559   7.578 -0.3801 -0.9720 -0.3055
  364MOL0     O50118   2.243   2.515   7.442 -0.4261  0.2283  0.4339
  364MOL0     C50119   2.372   2.492   7.400 -0.3516  0.9897 -0.7469
  364MOL0     C50120   2.406   2.487   7.275 -0.7733  0.3656  0.0115
  364MOL0     C50121   2.538   2.454   7.234  0.0603 -0.7495 -0.1550
  364MOL0     C50122   2.548   2.472   7.091 -0.0741 -0.4043 -0.6374
  364MOL0     C50123   2.639   2.431   7.322 -0.7133  0.2695  0.2364
  364MOL0     C50124   2.781   2.386   7.279  1.4577  0.6616 -0.2616
  364MOL0     O50125   2.866   2.376   7.386  0.6423 -0.1069  1.1912
  364MOL0     C50126   2.983   2.308   7.365 -0.3035 -0.8491  0.7258
  364MOL0     C50127   3.104   2.365   7.395  0.4760 -0.5722  0.2123
  364MOL0     C50128   3.221   2.294   7.378  0.1534 -0.2522 -0.2177
  364MOL0     C50129   3.223   2.165   7.324  0.3790 -0.5558 -1.1963
  364MOL0     O50130   3.335   2.098   7.293  0.0188  0.2712  0.3773
  364MOL0     C50131   3.441   2.097   7.392  0.7360 -0.3877 -0.3789
  364MOL0     C50132   3.504   1.957   7.398  0.4046 -0.2461 -0.7644
  364MOL0     C50133   3.632   1.960   7.484  0.3584  0.6350  1.0896
  364MOL0     C50134   3.744   1.871   7.422  0.3934 -0.5121  0.1717
  364MOL0     C50135   3.872   1.888   7.498 -0.6671  0.2054 -0.5821
  364MOL0     C50136   3.858   1.876   7.650  0.5936  0.8313  1.0382
  364MOL0     C50137   3.989   1.848   7.731  0.1351  0.0457 -0.8355
  364MOL0     C50138   4.034   1.706   7.696 -0.5560  0.2155  0.9966
  364MOL0    Cl50139   4.182   1.667   7.798 -0.0209 -0.0347 -0.0774
  364MOL0     C50140   3.104   2.111   7.296  0.2907 -0.5271 -0.2207
  364MOL0     C50141   2.984   2.184   7.311  0.6882  0.1323  0.4269
  364MOL0     O50142   2.816   2.365   7.160  0.2748 -0.5602  0.5069
  364MOL0     C50143   2.608   2.443   7.461 -0.5157  1.1887 -0.3234
  364MOL0     C50144   2.475   2.464   7.496 -0.5260  0.9657 -0.0623
  364MOL0     N50145   1.924   2.943   7.340 -0.1669 -0.3461  0.4491
  364MOL0     N50146   1.854   3.052   7.319  0.6330 -0.0065 -0.0960
  364MOL0     C50147   1.240   4.147   7.265 -0.5683 -0.6614 -0.2871
  364MOL0     C50148   1.157   4.205   7.363  0.0722  0.5988  0.7802
  364MOL0     C50149   1.017   4.386   7.759 -1.2413 -0.0010 -0.5229
  364MOL0     C50150   1.003   4.289   7.853  0.6379  0.1523 -0.7177
  364MOL0     C50151   0.941   4.324   7.977  0.2183  0.0519 -0.9271
  364MOL0     C50152   0.899   4.454   8.006 -0.4688 -0.0215 -0.0772
  364MOL0     O50153   0.823   4.465   8.120 -0.0180 -0.2388 -0.4471
  364MOL0     C50154   0.861   4.562   8.222 -0.0687  0.8089 -0.4446
  364MOL0     C50155   0.745   4.639   8.275  0.5701 -0.2789 -0.0440
  364MOL0     C50156   0.684   4.729   8.167  0.5055  0.3686 -0.2867
  364MOL0     C50157   0.550   4.777   8.231 -0.8136  0.0188 -0.2850
  364MOL0     C50158   0.577   4.840   8.365 -0.6393  0.1255  0.6123
  364MOL0     C50159   0.613   4.901   8.469  1.0281  0.4329 -0.0882
  364MOL0     C50160   0.936   4.556   7.919 -0.4431  0.2317  0.6419
  364MOL0     C50161   0.997   4.528   7.796  0.6464  0.4315  0.2578
  364MOL0     C50162   1.012   4.633   7.689 -0.9883  0.0434 -0.9649
  364MOL0     H50163   1.269   4.014   7.631 -0.6792 -0.5145 -0.7979
  364MOL0     H50164   1.400   3.913   7.454  0.3460  0.6383  1.6523
  364MOL0     H50165   1.376   3.909   7.007 -1.6417  1.0384 -0.8029
  364MOL0     H50166   1.243   3.936   7.087  0.8049  2.5437 -0.9955
  364MOL0     H50167   1.300   3.758   7.265 -4.5322 -1.1735 -1.0914
  364MOL0     H50168   1.287   3.692   7.107 -2.1033  2.2708 -1.4917
  364MOL0     H50169   1.533   3.683   7.093 -0.2141 -0.1449  0.1476
  364MOL0     H50170   1.549   3.801   7.226 -1.1759  0.5406  0.7949
  364MOL0     H50171   1.493   3.653   7.385 -0.9440  0.1623  0.0246
  364MOL0     H50172   1.417   3.530   7.281 -3.7640  4.3850  1.2741
  364MOL0     H50173   1.721   3.602   7.288  1.0902 -0.8828  1.8070
  364MOL0     H50174   1.642   3.477   7.188  2.5900  2.0370 -1.1837
  364MOL0     H50175   1.695   3.481   7.488 -1.2480  1.5718  0.1074
  364MOL0     H50176   1.569   3.378   7.412  2.2257 -0.9005  1.5836
  364MOL0     H50177   1.853   3.376   7.320 -2.4638  1.8832 -1.1644
  364MOL0     H50178   1.722   3.258   7.287  0.5545  1.3280 -1.0563
  364MOL0     H50179   1.891   3.312   7.509  0.1335  0.4752 -3.1718
  364MOL0     H50180   1.728   3.231   7.538 -0.7171 -0.7926 -2.1742
  364MOL0     H50181   2.016   3.115   7.601  2.3684 -0.5700 -0.6540
  364MOL0     H50182   2.125   2.881   7.611 -1.1099 -0.2574  0.2472
  364MOL0     H50183   2.186   2.863   7.444  0.4866  0.8455  0.6593
  364MOL0     H50184   1.922   2.724   7.526  0.0342 -2.4006 -0.1914
  364MOL0     H50185   2.042   2.686   7.397  3.9979 -3.2213  2.0272
  364MOL0     H50186   2.078   2.647   7.705  3.2161 -0.6205  0.7005
  364MOL0     H50187   2.011   2.519   7.596 -1.6548  1.5816  0.4248
  364MOL0     H50188   2.277   2.648   7.599 -4.2489  2.1339 -1.4516
  364MOL0     H50189   2.227   2.484   7.657 -2.5256 -2.9537 -1.8198
  364MOL0     H50190   2.331   2.506   7.199  0.3158 -0.2433 -1.2642
  364MOL0     H50191   2.468   2.531   7.046 -2.3094 -0.8193  2.4665
  364MOL0     H50192   2.546   2.374   7.042  0.9661 -0.9555  0.3659
  364MOL0     H50193   2.633   2.536   7.065 -0.9805  0.7445 -0.8373
  364MOL0     H50194   3.110   2.466   7.434 -2.0864  0.0414 -0.7720
  364MOL0     H50195   3.314   2.322   7.427  0.0961 -2.3217  1.1975
  364MOL0     H50196   3.523   2.158   7.353  0.0880 -0.9942 -2.8486
  364MOL0     H50197   3.406   2.126   7.492 -0.2356  0.3715 -0.9147
  364MOL0     H50198   3.432   1.887   7.442  2.6934 -2.5421 -0.4194
  364MOL0     H50199   3.522   1.925   7.295  3.6854  0.3135 -0.4705
  364MOL0     H50200   3.614   1.926   7.587  3.0691  1.4084  1.9212
  364MOL0     H50201   3.674   2.061   7.497  2.2941 -0.1519  1.2921
  364MOL0     H50202   3.760   1.916   7.323 -2.5932  2.2502  0.7981
  364MOL0     H50203   3.714   1.766   7.432 -1.8988  0.2836  2.9885
  364MOL0     H50204   3.934   1.806   7.463 -0.5770  0.1589 -0.3195
  364MOL0     H50205   3.927   1.981   7.479  1.1075 -0.2879  1.7299
  364MOL0     H50206   3.784   1.796   7.660  5.2900 -4.1796  0.2433
  364MOL0     H50207   3.816   1.973   7.677 -0.5969  0.4005  0.7901
  364MOL0     H50208   3.982   1.857   7.840 -1.3544  1.2403 -1.0150
  364MOL0     H50209   4.067   1.917   7.698  2.9297 -1.3453  2.2593
  364MOL0     H50210   4.054   1.706   7.588 -0.4754  2.8950  0.9332
  364MOL0     H50211   3.952   1.636   7.708  0.2278 -1.2709 -1.5586
  364MOL0     H50212   3.107   2.019   7.238  2.3612 -1.3462  1.0809
  364MOL0     H50213   2.896   2.130   7.279  3.7196 -1.7883 -6.6463
  364MOL0     H50214   2.678   2.434   7.544 -1.7420  1.2705  0.7618
  364MOL0     H50215   2.460   2.471   7.603  1.0427  2.2447  0.1168
  364MOL0     H50216   1.244   4.181   7.162  2.1696 -1.9665 -0.6894
  364MOL0     H50217   1.083   4.275   7.326  0.6192  0.9137  0.2602
  364MOL0     H50218   1.023   4.183   7.840 -4.4171 -1.3211  1.0466
  364MOL0     H50219   0.901   4.238   8.029 -0.2362 -0.4709 -2.1067
  364MOL0     H50220   0.905   4.505   8.304 -1.7350 -0.7061 -0.5382
  364MOL0     H50221   0.937   4.637   8.197 -0.1991  1.4139  0.8765
  364MOL0     H50222   0.783   4.700   8.357  1.7152 -1.0844  0.0323
  364MOL0     H50223   0.661   4.574   8.302 -0.2790 -0.9824 -3.7197
  364MOL0     H50224   0.760   4.807   8.153  1.5215 -0.4264  0.5624
  364MOL0     H50225   0.667   4.683   8.070  1.4169  0.3808 -0.4633
  364MOL0     H50226   0.499   4.681   8.244 -1.7393  0.6201  0.7290
  364MOL0     H50227   0.502   4.853   8.169 -1.8203 -0.8202 -0.5678
  364MOL0     H50228   0.639   4.954   8.559 -3.1839 -0.1739  1.7371
  364MOL0     H50229   0.908   4.657   7.945 -1.7052  0.6608 -2.1151
  364MOL0     H50230   0.927   4.703   7.690 -0.0990  1.1584 -0.2844
  364MOL0     H50231   1.103   4.689   7.715  0.0269 -1.9481 -0.0267
  364MOL0     H50232   1.028   4.593   7.589 -1.9082 -5.3479  0.7456
  365MOL0     O50233   2.151   5.526  10.607 -0.0286 -0.7035  0.2757
  365MOL0     C50234   2.140   5.404  10.612 -1.0959  0.4798 -0.6603
  365MOL0     O50235   2.245   5.330  10.634 -0.4661 -0.1664 -0.3174
  365MOL0     C50236   2.350   5.374  10.720  0.2791  0.8156 -0.5203
  365MOL0     C50237   2.320   5.385  10.860 -0.2856 -0.2994 -0.0208
  365MOL0     C50238   2.423   5.405  10.946  0.5205  0.7915  0.2441
  365MOL0     C50239   2.553   5.426  10.901  0.4356  0.0466 -0.0722
  365MOL0     O50240   2.651   5.478  10.985  1.4989  0.1180  0.5732
  365MOL0     C50241   2.626   5.607  11.040  0.1449 -0.6435 -0.0170
  365MOL0     C50242   2.595   5.716  10.946 -0.2254  0.0367  0.0820
  365MOL0     C50243   2.713   5.770  10.861  0.7723  0.3672 -0.2983
  365MOL0     C50244   2.696   5.882  10.759 -0.2025  0.2289 -1.0028
  365MOL0     C50245   2.627   5.858  10.626  0.3985  0.0909  0.1503
  365MOL0     C50246   2.479   5.888  10.628  0.7985  0.4165  0.0046
  365MOL0     C50247   2.406   5.840  10.502 -0.2473 -0.2906  0.8841
  365MOL0     C50248   2.417   5.946  10.391 -0.1791 -0.3207  0.1757
  365MOL0     N50249   2.311   5.916  10.285 -0.3278 -0.3643  0.0149
  365MOL0     C50250   2.191   5.847  10.296  0.7314 -0.4417  0.4264
  365MOL0     C50251   2.130   5.851  10.175  0.0593 -0.6531  0.9341
  365MOL0     C50252   2.010   5.783  10.138 -0.1428  1.0182  0.4982
  365MOL0     C50253   1.999   5.713   9.995 -0.7671  0.1281 -0.4506
  365MOL0     C50254   1.850   5.711   9.940 -0.6353  0.3258 -1.1904
  365MOL0     C50255   1.772   5.603  10.011  1.1660  0.3434 -0.7118
  365MOL0     O50256   1.632   5.633   9.980 -0.0801  0.1711 -0.4998
  365MOL0     C50257   1.519   5.562  10.020 -0.0701 -0.5176  0.4542
  365MOL0     C50258   1.398   5.594   9.950  0.6121 -0.0247  0.3458
  365MOL0     C50259   1.277   5.528   9.987  0.3106  0.3636 -0.3754
  365MOL0     C50260   1.156   5.556   9.902  0.6392  0.0328  0.3864
  365MOL0     C50261   1.276   5.429  10.084  0.0392 -0.4554  0.1660
  365MOL0     C50262   1.168   5.336  10.116  0.3528  0.4785 -0.1036
  365MOL0     O50263   1.188   5.253  10.224 -0.5525 -0.5766  0.0402
  365MOL0     C50264   1.081   5.172  10.253  0.9008 -0.0464  0.1748
  365MOL0     C50265   1.030   5.069  10.161  0.3477 -0.1988  0.8976
  365MOL0     C50266   0.913   4.992  10.186  0.0527 -0.7809 -1.0314
  365MOL0     C50267   0.851   5.009  10.316 -0.0265 -0.1506  0.3013
  365MOL0     O50268   0.751   4.924  10.341  1.1757 -0.2549 -0.0300
  365MOL0     C50269   0.783   4.782  10.356  0.3856  0.0395  0.9004
  365MOL0     C50270   0.872   4.750  10.467 -0.2787 -0.7126 -0.5071
  365MOL0     C50271   0.825   4.818  10.592 -0.4073  0.2863 -0.3497
  365MOL0     C50272   0.933   4.806  10.691 -0.5462 -0.4133 -0.9585
  365MOL0     C50273   0.961   4.946  10.747  0.3091  0.7736  0.9849
  365MOL0     C50274   1.081   4.960  10.843 -0.0462 -0.3342 -0.5132
  365MOL0     C50275   1.215   4.923  10.782 -0.1908 -0.0344 -0.1881
  365MOL0     C50276   1.334   4.970  10.867 -0.2530 -0.5159 -0.4470
  365MOL0    Cl50277   1.384   5.141  10.810 -0.2989 -0.3357 -0.0035
  365MOL0     C50278   0.896   5.106  10.402  1.4644  0.1967 -0.1950
  365MOL0     C50279   1.006   5.178  10.373 -0.4460 -1.2308 -0.3670
  365MOL0     O50280   1.060   5.342  10.053  0.2283  0.6316  0.5139
  365MOL0     C50281   1.396   5.416  10.165  0.7820  0.8727 -0.3209
  365MOL0     C50282   1.519   5.470  10.132  0.3944  0.0998  0.0957
  365MOL0     N50283   2.222   5.906  10.087  0.2593  1.0937  1.0298
  365MOL0     N50284   2.322   5.950  10.154 -0.4409  0.5108 -0.1083
  365MOL0     C50285   2.584   5.422  10.767  0.0489 -0.4704  1.1079
  365MOL0     C50286   2.475   5.391  10.675 -0.2703  0.1245  0.5464
  365MOL0     C50287   2.008   5.328  10.580 -0.0434  0.0470  0.2193
  365MOL0     C50288   1.995   5.196  10.604  0.4118  0.3120 -0.3865
  365MOL0     C50289   1.882   5.129  10.557  0.0051 -0.1532  0.6237
  365MOL0     C50290   1.774   5.187  10.497 -0.3817 -0.2043  0.0279
  365MOL0     O50291   1.658   5.130  10.454 -0.3655  0.1080  0.3807
  365MOL0     C50292   1.663   4.985  10.447  1.3118  0.3782  0.4357
  365MOL0     C50293   1.543   4.932  10.376  0.5343 -0.2326  0.9503
  365MOL0     C50294   1.414   4.926  10.454  0.1425 -0.3514  0.5801
  365MOL0     C50295   1.279   4.895  10.373 -0.4112 -0.2282 -0.2448
  365MOL0     C50296   1.248   4.749  10.366 -0.5439  0.5040  0.1786
  365MOL0     C50297   1.230   4.635  10.404 -0.2939  0.8164 -0.5582
  365MOL0     C50298   1.768   5.325  10.503  0.1903 -0.1300  0.3853
  365MOL0     C50299   1.886   5.393  10.542 -0.7032 -0.0217  0.0222
  365MOL0     C50300   1.865   5.544  10.511  0.0206  0.1460 -0.4880
  365MOL0     H50301   2.217   5.367  10.890 -0.5073 -3.5301 -2.1969
  365MOL0     H50302   2.398   5.421  11.051  1.8396  1.5640  0.4629
  365MOL0     H50303   2.698   5.650  11.110 -0.3879 -0.4842  0.4413
  365MOL0     H50304   2.535   5.591  11.098  0.6304  0.3541  1.0652
  365MOL0     H50305   2.524   5.674  10.874 -1.8017  1.5625  0.6998
  365MOL0     H50306   2.557   5.809  10.989 -1.5691  0.4101 -1.7709
  365MOL0     H50307   2.793   5.796  10.930  0.4767 -1.5275  0.8095
  365MOL0     H50308   2.744   5.681  10.806  0.8793 -0.6586  1.3591
  365MOL0     H50309   2.656   5.972  10.805  2.4417  0.1888  1.7441
  365MOL0     H50310   2.800   5.911  10.741  0.7983 -1.7216  1.0562
  365MOL0     H50311   2.662   5.764  10.583  2.1778  0.5637  0.4537
  365MOL0     H50312   2.672   5.930  10.557  0.1776  0.3230  0.2481
  365MOL0     H50313   2.434   5.830  10.709 -2.0745  3.8011  1.0625
  365MOL0     H50314   2.456   5.992  10.650  1.8156  0.2480  2.0747
  365MOL0     H50315   2.303   5.811  10.527 -0.8334 -1.7659 -2.5208
  365MOL0     H50316   2.451   5.749  10.461  2.0704  0.4023  1.7080
  365MOL0     H50317   2.412   6.041  10.446  1.5709 -1.1330  1.8311
  365MOL0     H50318   2.516   5.938  10.346  2.1584  1.0474  4.6025
  365MOL0     H50319   2.150   5.802  10.386 -0.3244 -1.8139 -0.7079
  365MOL0     H50320   1.926   5.850  10.159 -1.0813 -0.2115  0.8602
  365MOL0     H50321   1.993   5.699  10.206  2.2036 -2.3888 -2.7221
  365MOL0     H50322   2.060   5.769   9.923 -1.7731 -0.7418 -2.0547
  365MOL0     H50323   2.036   5.611   9.996 -2.2084 -0.5024 -2.8512
  365MOL0     H50324   1.804   5.806   9.969 -0.3758 -0.9151  4.4960
  365MOL0     H50325   1.840   5.688   9.834 -4.0496 -1.8628 -0.5599
  365MOL0     H50326   1.807   5.504   9.980  4.3045  0.4846  1.8379
  365MOL0     H50327   1.774   5.619  10.119 -0.2027 -0.5198 -0.5446
  365MOL0     H50328   1.401   5.639   9.851  1.0140  1.3889  0.9720
  365MOL0     H50329   1.055   5.553   9.944 -0.2190 -1.6488 -1.6494
  365MOL0     H50330   1.167   5.491   9.815 -0.1236  1.1064 -0.5404
  365MOL0     H50331   1.157   5.656   9.858 -2.2657 -0.6215 -1.4643
  365MOL0     H50332   1.094   5.035  10.080  1.2865  1.0860  1.0763
  365MOL0     H50333   0.872   4.934  10.103 -3.7203 -1.3471  0.9841
  365MOL0     H50334   0.690   4.728  10.376  1.7888 -2.3659  1.3371
  365MOL0     H50335   0.824   4.750  10.260  0.1021 -3.0223  1.6712
  365MOL0     H50336   0.873   4.643  10.489  0.8277 -0.1168  2.9696
  365MOL0     H50337   0.968   4.791  10.434 -0.8270  1.3734  0.3216
  365MOL0     H50338   0.739   4.758  10.625 -0.9722  1.0839 -0.3346
  365MOL0     H50339   0.782   4.919  10.588 -3.9056 -0.9193  1.7922
  365MOL0     H50340   1.024   4.773  10.641  0.0035 -1.4081  0.6052
  365MOL0     H50341   0.914   4.740  10.776 -0.7036  1.8014  0.8139
  365MOL0     H50342   0.969   5.022  10.668  1.5642  0.9132  1.2235
  365MOL0     H50343   0.870   4.970  10.802 -3.0889 -3.1862 -2.1962
  365MOL0     H50344   1.053   4.909  10.936  1.0864  1.2561  0.7552
  365MOL0     H50345   1.087   5.066  10.870 -1.9667 -0.1883 -0.5287
  365MOL0     H50346   1.229   4.974  10.686 -1.4632  1.9377  0.5995
  365MOL0     H50347   1.213   4.814  10.784 -0.5850 -0.0974  3.3359
  365MOL0     H50348   1.413   4.895  10.857 -1.8562 -2.3288 -0.0599
  365MOL0     H50349   1.303   4.967  10.971  0.1803 -1.9151 -0.3338
  365MOL0     H50350   0.835   5.122  10.491  3.6367  2.0191  1.0962
  365MOL0     H50351   1.044   5.249  10.446 -1.6308  1.0726 -1.8841
  365MOL0     H50352   1.398   5.356  10.256 -2.0302  1.0823 -0.0460
  365MOL0     H50353   1.603   5.453  10.199 -1.4824 -0.0187  2.5228
  365MOL0     H50354   2.687   5.425  10.733  0.2277  2.4020  1.6202
  365MOL0     H50355   2.491   5.373  10.569  2.1322 -1.8324  1.1482
  365MOL0     H50356   2.076   5.139  10.648 -2.2315 -5.0256 -1.6773
  365MOL0     H50357   1.888   5.021  10.562  2.2951 -0.0733  1.0096
  365MOL0     H50358   1.758   4.951  10.404  1.1273 -0.1865  0.4615
  365MOL0     H50359   1.650   4.944  10.548 -0.5427 -0.7587 -0.2243
  365MOL0     H50360   1.563   4.830  10.341 -2.7493 -0.2296 -1.3713
  365MOL0     H50361   1.526   4.999  10.291  0.0350  1.8353  2.6151
  365MOL0     H50362   1.429   4.855  10.536  1.7711 -0.7732 -0.0443
  365MOL0     H50363   1.402   5.029  10.487  1.7656 -0.2724  0.9847
  365MOL0     H50364   1.294   4.928  10.270  0.7393  1.4473  0.4126
  365MOL0     H50365   1.187   4.946  10.402 -1.7282 -1.6208 -1.8003
  365MOL0     H50366   1.212   4.532  10.427  1.0947  0.6858  0.0420
  365MOL0     H50367   1.684   5.366  10.448  1.4872  0.0400 -1.5844
  365MOL0     H50368   1.759   5.570  10.501 -0.9154 -2.5851  1.1225
  365MOL0     H50369   1.911   5.602  10.591  1.6659 -3.1288  1.1355
  365MOL0     H50370   1.920   5.575  10.422 -2.7738  2.4055 -1.6009
  366MOL0     O50371   5.051   5.487   9.142  0.2352  0.5625 -1.1545
  366MOL0     C50372   5.136   5.517   9.059  0.6008  0.3591 -0.8981
  366MOL0     O50373   5.174   5.647   9.028 -0.0689  0.3333 -0.3333
  366MOL0     C50374   5.111   5.757   9.068 -0.3132  0.4859  0.2030
  366MOL0     C50375   5.089   5.853   8.972 -0.1003  0.3806 -0.2868
  366MOL0     C50376   5.039   5.976   9.021 -1.2719 -0.1371 -0.0545
  366MOL0     C50377   4.990   5.996   9.153 -0.1222  0.1509 -0.1315
  366MOL0     O50378   4.936   6.126   9.173 -0.2951 -0.0644 -0.3141
  366MOL0     C50379   4.893   6.145   9.309 -0.1378  0.7042  0.9625
  366MOL0     C50380   4.841   6.280   9.336 -0.3872  1.9937  0.0404
  366MOL0     C50381   4.805   6.282   9.471 -0.5389  0.8626 -0.0625
  366MOL0     C50382   4.721   6.402   9.497 -0.2488  0.8545 -0.5336
  366MOL0     C50383   4.742   6.463   9.636 -0.5100 -0.1416  0.3085
  366MOL0     C50384   4.860   6.566   9.630 -0.4985 -0.4093  0.2245
  366MOL0     C50385   4.810   6.703   9.603 -0.9400 -0.3972  0.3715
  366MOL0     C50386   4.930   6.800   9.605  0.5710  0.6965 -0.1870
  366MOL0     N50387   4.963   6.850   9.742  0.8083 -0.5111  0.3259
  366MOL0     C50388   4.891   6.955   9.798  0.0291  0.3002 -0.0635
  366MOL0     C50389   4.928   6.960   9.922  0.9821  0.4633  0.7495
  366MOL0     C50390   4.881   7.060  10.022 -0.0181  0.9147 -1.1013
  366MOL0     C50391   5.001   7.111  10.109 -0.4061  0.4467  0.3583
  366MOL0     C50392   5.114   7.164  10.020 -0.6599 -0.4678  0.3277
  366MOL0     C50393   5.235   7.216  10.105 -1.2655 -0.3856 -0.0535
  366MOL0     O50394   5.184   7.297  10.215  0.4727  0.4723  0.0377
  366MOL0     C50395   5.228   7.432  10.225  1.4828 -0.1944  1.2125
  366MOL0     C50396   5.136   7.522  10.295 -0.7567  0.6644  0.1997
  366MOL0     C50397   5.159   7.662  10.304 -1.3253  0.1509  1.3966
  366MOL0     C50398   5.052   7.748  10.369  0.8558  0.3202  0.2357
  366MOL0     C50399   5.273   7.716  10.240  0.2373 -0.4606 -0.9250
  366MOL0     C50400   5.302   7.867  10.252 -0.6213  0.2874 -1.2674
  366MOL0     O50401   5.428   7.899  10.296 -0.7563  0.9083 -0.4065
  366MOL0     C50402   5.522   7.838  10.374  0.1477  0.6265  0.1593
  366MOL0     C50403   5.644   7.894  10.378 -0.0713 -0.9657  0.9623
  366MOL0     C50404   5.747   7.848  10.463  0.2768  0.4698 -0.3607
  366MOL0     C50405   5.726   7.727  10.536 -0.1018 -0.3786 -0.4847
  366MOL0     O50406   5.839   7.673  10.595 -0.5698  0.4776 -0.3633
  366MOL0     C50407   5.829   7.595  10.711  0.5130  0.3892 -0.1000
  366MOL0     C50408   5.751   7.648  10.838  0.4294 -0.4110 -0.4851
  366MOL0     C50409   5.821   7.779  10.872 -0.1592 -0.2363 -0.1096
  366MOL0     C50410   5.784   7.844  11.008  0.3831 -0.6638 -0.3290
  366MOL0     C50411   5.634   7.848  11.044 -0.0722 -0.7855  0.4382
  366MOL0     C50412   5.614   7.876  11.192 -1.0021 -0.2620 -0.4544
  366MOL0     C50413   5.467   7.921  11.214 -0.9294  0.7503 -0.6266
  366MOL0     C50414   5.442   7.892  11.365  0.3730  0.9410 -0.3728
  366MOL0    Cl50415   5.294   7.963  11.417 -0.3012  0.4970 -0.3277
  366MOL0     C50416   5.600   7.665  10.528  0.4558  0.9976 -0.4256
  366MOL0     C50417   5.496   7.725  10.457 -0.0313 -0.6583  0.0449
  366MOL0     O50418   5.213   7.941  10.223 -0.8751  0.2682  0.5160
  366MOL0     C50419   5.368   7.628  10.175  0.8123 -0.7688  0.2390
  366MOL0     C50420   5.343   7.487  10.163 -0.5368 -0.2550  0.2725
  366MOL0     N50421   5.018   6.851   9.949  1.1565 -0.3383  0.3809
  366MOL0     N50422   5.018   6.785   9.842 -0.0590 -0.6070 -0.1072
  366MOL0     C50423   4.998   5.888   9.242 -0.4068  0.2381 -0.2292
  366MOL0     C50424   5.059   5.770   9.196 -0.3198 -0.1967 -0.3575
  366MOL0     C50425   5.194   5.420   8.968 -0.2054 -0.5143 -1.2144
  366MOL0     C50426   5.199   5.289   9.022  0.5486  0.3380  0.8039
  366MOL0     C50427   5.246   5.180   8.951  0.2931  0.3686 -0.4204
  366MOL0     C50428   5.286   5.198   8.818  0.9258 -0.8605  0.0284
  366MOL0     O50429   5.328   5.103   8.739  0.3051  0.3289  0.6070
  366MOL0     C50430   5.240   4.994   8.724 -0.2109  0.7608  0.1568
  366MOL0     C50431   5.132   5.026   8.626 -0.1547  0.2021  1.0836
  366MOL0     C50432   5.163   4.997   8.475  0.6281 -1.5173 -0.0263
  366MOL0     C50433   5.262   5.096   8.405  0.2250 -0.0579  0.0841
  366MOL0     C50434   5.233   5.108   8.262 -0.1908  0.0767  0.3913
  366MOL0     C50435   5.203   5.128   8.144 -0.5059  0.3348 -0.6508
  366MOL0     C50436   5.273   5.328   8.757  0.3382 -0.3572 -0.3147
  366MOL0     C50437   5.239   5.444   8.838 -0.9088 -0.3039 -0.0449
  366MOL0     C50438   5.251   5.579   8.771  1.1024 -0.1103  0.2603
  366MOL0     H50439   5.123   5.834   8.871  0.3174 -2.1139  0.2716
  366MOL0     H50440   5.034   6.067   8.962  2.2792  0.9959  1.1400
  366MOL0     H50441   4.975   6.134   9.382  1.5156  1.0481 -0.7529
  366MOL0     H50442   4.812   6.078   9.337  1.7679 -1.2299  2.2218
  366MOL0     H50443   4.917   6.356   9.315  1.3384  1.1293  2.7148
  366MOL0     H50444   4.752   6.293   9.273  1.3083  1.2686 -2.6884
  366MOL0     H50445   4.747   6.194   9.500 -0.8310  1.1313  0.1715
  366MOL0     H50446   4.895   6.299   9.532 -0.8733  1.0488  0.3838
  366MOL0     H50447   4.751   6.480   9.425 -2.6125  1.4364 -0.9905
  366MOL0     H50448   4.615   6.378   9.484 -0.7364  1.2248  2.1810
  366MOL0     H50449   4.770   6.395   9.717  2.2136  1.6165  0.9983
  366MOL0     H50450   4.645   6.509   9.654 -0.2977  0.5967 -0.3543
  366MOL0     H50451   4.892   6.574   9.734  1.4621  2.2252 -0.4696
  366MOL0     H50452   4.946   6.547   9.564  0.1316  0.4885  0.7543
  366MOL0     H50453   4.742   6.735   9.683 -1.0628 -0.6257  0.3599
  366MOL0     H50454   4.749   6.699   9.512  1.5465  1.9005 -1.5554
  366MOL0     H50455   5.015   6.749   9.559  1.7578  2.6929 -0.2760
  366MOL0     H50456   4.907   6.891   9.549  1.6790  1.2504  0.2330
  366MOL0     H50457   4.811   7.017   9.759 -0.4635  0.6578  1.4819
  366MOL0     H50458   4.804   7.015  10.084  0.5699  0.5400 -0.6293
  366MOL0     H50459   4.839   7.149   9.974 -0.9528  1.1663  0.1375
  366MOL0     H50460   4.955   7.186  10.174 -1.4299  2.0423 -2.0686
  366MOL0     H50461   5.020   7.029  10.180 -2.4686  1.2767  1.9633
  366MOL0     H50462   5.170   7.089   9.965  1.2152 -0.4826  2.1353
  366MOL0     H50463   5.073   7.247   9.962 -0.3405 -0.8993 -0.5305
  366MOL0     H50464   5.287   7.134  10.154  0.1198 -1.2812 -2.8517
  366MOL0     H50465   5.310   7.257  10.036 -2.7972  1.6693 -0.6259
  366MOL0     H50466   5.041   7.482  10.326  0.0937 -3.1480 -1.4871
  366MOL0     H50467   5.074   7.841  10.420 -0.4646  0.5592  0.4190
  366MOL0     H50468   5.014   7.691  10.455 -3.9154  0.8939 -1.1987
  366MOL0     H50469   4.963   7.758  10.306  0.7539 -1.8853 -0.0745
  366MOL0     H50470   5.644   7.986  10.321 -2.5300  1.4047  4.3774
  366MOL0     H50471   5.844   7.897  10.469  0.5543  0.1061 -1.5046
  366MOL0     H50472   5.786   7.500  10.678 -2.3429  1.7634 -0.5921
  366MOL0     H50473   5.931   7.578  10.748  1.0357  1.6083 -0.9203
  366MOL0     H50474   5.647   7.654  10.806  0.3346  1.3749  0.0205
  366MOL0     H50475   5.760   7.578  10.921 -1.3696  0.4416  0.4758
  366MOL0     H50476   5.792   7.854  10.798  0.3776  1.0335  0.9298
  366MOL0     H50477   5.929   7.760  10.877  0.2105  1.0729 -2.0713
  366MOL0     H50478   5.821   7.946  11.016  0.8191 -0.8960  0.7968
  366MOL0     H50479   5.831   7.777  11.080 -2.0891  0.0737  2.1434
  366MOL0     H50480   5.584   7.915  10.973  0.7705  0.2290  0.7740
  366MOL0     H50481   5.589   7.751  11.019  2.2609 -1.8833  0.2232
  366MOL0     H50482   5.689   7.952  11.218 -1.8538  0.8997 -1.2996
  366MOL0     H50483   5.642   7.781  11.239  0.4472 -0.8148 -2.2823
  366MOL0     H50484   5.399   7.854  11.161 -0.9960  2.1132 -2.3466
  366MOL0     H50485   5.434   8.021  11.184  0.5955  1.5769  0.3357
  366MOL0     H50486   5.527   7.928  11.423  3.5622 -0.1179 -3.9995
  366MOL0     H50487   5.434   7.784  11.377  2.4698  0.7143 -0.7344
  366MOL0     H50488   5.586   7.568  10.574  0.4778  0.4516 -1.5404
  366MOL0     H50489   5.400   7.675  10.455 -2.5687  3.5840  2.2157
  366MOL0     H50490   5.442   7.686  10.121 -0.4681  1.2898  0.6162
  366MOL0     H50491   5.409   7.426  10.103  1.7102  1.4160  0.8893
  366MOL0     H50492   4.958   5.880   9.343 -2.2626  1.9934 -0.7752
  366MOL0     H50493   5.055   5.689   9.268 -0.7843 -1.7110 -2.0083
  366MOL0     H50494   5.166   5.256   9.120  1.4276 -4.0160 -0.1481
  366MOL0     H50495   5.255   5.091   9.012  0.2634  0.2807 -0.5445
  366MOL0     H50496   5.287   4.899   8.697 -1.8215 -0.2276  0.6804
  366MOL0     H50497   5.183   4.972   8.814 -0.1515 -2.8513 -0.5587
  366MOL0     H50498   5.105   5.130   8.649 -0.6403  0.0130  1.3748
  366MOL0     H50499   5.048   4.963   8.654  1.0505 -1.4973  1.0366
  366MOL0     H50500   5.216   4.901   8.470 -0.2605 -2.3640  3.8291
  366MOL0     H50501   5.071   4.991   8.417 -0.1430  0.4992  0.8987
  366MOL0     H50502   5.366   5.063   8.418  0.9125  2.6266  2.2610
  366MOL0     H50503   5.258   5.197   8.444  0.9202 -0.1377  0.3819
  366MOL0     H50504   5.200   5.133   8.037 -1.6945  1.9322 -0.5700
  366MOL0     H50505   5.305   5.355   8.657  2.7417 -2.4388 -0.2216
  366MOL0     H50506   5.309   5.650   8.832  2.4446 -0.1434 -0.9266
  366MOL0     H50507   5.305   5.567   8.677 -0.9550 -1.4046 -0.8254
  366MOL0     H50508   5.157   5.626   8.742  2.3591  2.7257  0.4565
  367MOL0     O50509   0.131  11.317   8.222  0.6495 -0.7104  0.6551
  367MOL0     C50510   0.236  11.281   8.160  0.2455 -0.7587  1.2328
  367MOL0     O50511   0.365  11.311   8.189  0.1027 -0.0210 -0.4051
  367MOL0     C50512   0.410  11.367   8.309  0.6084 -1.1454 -0.6809
  367MOL0     C50513   0.333  11.421   8.414 -0.4515 -0.0685  0.0404
  367MOL0     C50514   0.395  11.495   8.514  0.0058 -0.9511  0.0277
  367MOL0     C50515   0.533  11.518   8.517 -0.4512  0.5774  0.3424
  367MOL0     O50516   0.591  11.608   8.604  0.6084  0.3387  0.1562
  367MOL0     C50517   0.527  11.737   8.620 -0.0109  0.1954 -0.0026
  367MOL0     C50518   0.621  11.839   8.552  0.1185 -0.0323 -0.9447
  367MOL0     C50519   0.670  11.806   8.415  0.0653  0.0877 -0.1147
  367MOL0     C50520   0.755  11.923   8.356 -0.2091 -0.7196  0.0698
  367MOL0     C50521   0.820  11.908   8.215  0.3281 -1.2536  0.3974
  367MOL0     C50522   0.906  12.036   8.181  0.3317  0.4103 -0.2757
  367MOL0     C50523   0.936  12.036   8.026  0.5523 -0.6956 -0.7498
  367MOL0     C50524   0.998  12.160   7.968  0.2440  0.7414  0.1075
  367MOL0     N50525   0.937  12.285   8.008  0.8968 -0.2331  0.0743
  367MOL0     C50526   0.821  12.341   7.964  0.4591  0.2577  0.2831
  367MOL0     C50527   0.800  12.450   8.040 -0.4152 -0.4893  0.2183
  367MOL0     C50528   0.696  12.558   8.022  0.1023 -1.0000  0.7024
  367MOL0     C50529   0.735  12.636   7.892  0.1652  0.9783 -0.0819
  367MOL0     C50530   0.701  12.778   7.921  1.0421 -0.6175 -0.1900
  367MOL0     C50531   0.758  12.868   7.812  0.2110  0.9393  0.7768
  367MOL0     O50532   0.892  12.889   7.832  0.5583  0.6136  0.4189
  367MOL0     C50533   0.961  12.963   7.744  0.1293 -0.2008 -0.5149
  367MOL0     C50534   1.104  12.945   7.757 -0.6889  0.0941  0.1170
  367MOL0     C50535   1.191  13.038   7.704 -0.3377 -0.4832 -0.1384
  367MOL0     C50536   1.336  13.021   7.746 -0.1957 -0.5435 -0.8212
  367MOL0     C50537   1.138  13.130   7.614 -0.7229 -0.0853 -0.6908
  367MOL0     C50538   1.229  13.238   7.564 -1.0953  1.1124 -0.1827
  367MOL0     O50539   1.318  13.292   7.647 -0.8395 -0.0008  0.5340
  367MOL0     C50540   1.395  13.388   7.595 -0.3392 -0.5017  0.4197
  367MOL0     C50541   1.491  13.365   7.504  0.1072 -0.4588 -0.0445
  367MOL0     C50542   1.583  13.474   7.473  0.2785  0.1425  0.3833
  367MOL0     C50543   1.564  13.607   7.513 -0.6314  0.1474 -0.0531
  367MOL0     O50544   1.648  13.708   7.475  0.1102 -0.2291 -0.3360
  367MOL0     C50545   1.761  13.690   7.391  0.3618  0.1208 -0.6311
  367MOL0     C50546   1.822  13.832   7.371  0.6692 -0.2219 -0.5549
  367MOL0     C50547   1.938  13.829   7.275  0.1501 -0.8480  0.5549
  367MOL0     C50548   1.943  13.934   7.172 -0.0007  0.5112  0.2342
  367MOL0     C50549   2.029  13.874   7.050 -0.3004  0.0557  0.6906
  367MOL0     C50550   2.171  13.847   7.076  1.0245 -0.2263 -0.3971
  367MOL0     C50551   2.253  13.816   6.944  0.0829 -0.9917  0.3754
  367MOL0     C50552   2.272  13.928   6.838  1.2288  1.0788 -0.2949
  367MOL0    Cl50553   2.406  13.861   6.741  0.0026 -0.2403 -0.1402
  367MOL0     C50554   1.452  13.635   7.591  1.0095 -0.4322  0.0935
  367MOL0     C50555   1.379  13.524   7.635  0.2253 -0.2598  0.1846
  367MOL0     O50556   1.213  13.273   7.444  1.0406 -0.1566  0.2119
  367MOL0     C50557   0.997  13.139   7.584 -0.3187  0.1817  0.6975
  367MOL0     C50558   0.918  13.064   7.659 -0.5503  1.1493  0.5855
  367MOL0     N50559   0.911  12.460   8.125 -0.3724  0.2396 -0.0718
  367MOL0     N50560   0.985  12.354   8.112  0.5623  0.5044  0.1532
  367MOL0     C50561   0.608  11.450   8.424  0.0703  0.2808 -0.5560
  367MOL0     C50562   0.548  11.376   8.322 -0.4712 -0.6914  0.3848
  367MOL0     C50563   0.226  11.198   8.046 -0.2738 -1.3129 -1.1059
  367MOL0     C50564   0.307  11.091   8.043  0.3090  0.9077  0.1898
  367MOL0     C50565   0.292  10.995   7.948 -0.9859 -0.0684  0.5826
  367MOL0     C50566   0.207  11.018   7.837  0.8828  1.6749 -0.5371
  367MOL0     O50567   0.224  10.926   7.739  0.9342 -0.4917 -0.1623
  367MOL0     C50568   0.164  10.950   7.611  0.2479  0.2183  0.1875
  367MOL0     C50569   0.027  10.882   7.595 -0.2502  0.3901 -0.2848
  367MOL0     C50570   0.012  10.852   7.444  0.3088 -0.1507 -0.2143
  367MOL0     C50571  -0.130  10.862   7.416  0.1997 -0.3584  0.6784
  367MOL0     C50572  -0.207  10.986   7.423 -0.0390 -1.0998 -0.1300
  367MOL0     C50573  -0.261  11.086   7.444  0.3017  0.6142  0.4445
  367MOL0     C50574   0.127  11.120   7.843  0.1372  0.3575  0.8504
  367MOL0     C50575   0.132  11.219   7.944 -0.7998 -0.2168 -1.2328
  367MOL0     C50576   0.058  11.338   7.932  0.8497 -0.5392  0.3424
  367MOL0     H50577   0.224  11.420   8.420 -0.4275  0.8740  1.0245
  367MOL0     H50578   0.327  11.524   8.593 -1.1361 -2.6213 -0.2771
  367MOL0     H50579   0.519  11.753   8.728 -1.3591 -0.5099  0.0221
  367MOL0     H50580   0.426  11.749   8.579  0.2814  0.2857 -0.7080
  367MOL0     H50581   0.562  11.931   8.557 -0.6535 -0.5998  1.1081
  367MOL0     H50582   0.703  11.857   8.622  2.2221 -2.9114 -2.4452
  367MOL0     H50583   0.718  11.709   8.401 -0.1765 -0.2868  1.4219
  367MOL0     H50584   0.583  11.805   8.349 -0.5849 -1.4003  0.7059
  367MOL0     H50585   0.697  12.016   8.356 -0.1401 -0.6702  0.6751
  367MOL0     H50586   0.829  11.943   8.434  1.2986  1.5802 -1.8470
  367MOL0     H50587   0.737  11.905   8.143  3.2392  2.3409 -3.6474
  367MOL0     H50588   0.887  11.821   8.217  1.0639 -0.7918 -1.4552
  367MOL0     H50589   0.853  12.127   8.211  0.4979  0.2339  0.5802
  367MOL0     H50590   0.998  12.034   8.241  2.9187 -1.3049 -3.8625
  367MOL0     H50591   0.857  11.998   7.960  0.6443 -2.6325  0.1997
  367MOL0     H50592   1.011  11.957   8.030  1.2795 -0.0652 -1.5522
  367MOL0     H50593   1.103  12.149   7.998 -0.0869  1.7691  1.7546
  367MOL0     H50594   0.986  12.148   7.860 -3.5236  0.3284  0.4483
  367MOL0     H50595   0.757  12.311   7.882  1.5029 -1.2708 -0.0194
  367MOL0     H50596   0.688  12.620   8.111  4.3552 -1.0091  1.3026
  367MOL0     H50597   0.596  12.514   8.014 -0.0588 -0.7685  1.3920
  367MOL0     H50598   0.843  12.635   7.873  0.3745 -4.7331 -0.4131
  367MOL0     H50599   0.699  12.597   7.796 -3.7544  2.2419  0.6890
  367MOL0     H50600   0.593  12.794   7.925  1.1366 -0.1400  3.4141
  367MOL0     H50601   0.742  12.803   8.019  1.8047 -1.2503 -0.3350
  367MOL0     H50602   0.734  12.817   7.719  1.2629 -1.1935  1.6055
  367MOL0     H50603   0.706  12.964   7.802  0.6053  0.8953 -3.8224
  367MOL0     H50604   1.145  12.867   7.820 -1.3391  0.4174  0.9578
  367MOL0     H50605   1.370  12.923   7.779  0.6307  0.8430  2.9647
  367MOL0     H50606   1.347  13.091   7.829  1.1454  0.6506 -1.9490
  367MOL0     H50607   1.397  13.051   7.661  2.0432 -2.5905 -0.0640
  367MOL0     H50608   1.516  13.263   7.476  1.1456 -0.2785  0.1776
  367MOL0     H50609   1.677  13.445   7.427  1.4244  1.0711  2.0006
  367MOL0     H50610   1.838  13.625   7.435  0.4912  0.8745  0.2737
  367MOL0     H50611   1.721  13.634   7.306  1.1516 -0.3396 -0.7179
  367MOL0     H50612   1.746  13.899   7.331  0.8314  0.3521  0.0691
  367MOL0     H50613   1.854  13.873   7.468  0.9615 -0.3630 -0.5901
  367MOL0     H50614   1.955  13.727   7.238  2.4984 -0.4192  0.2996
  367MOL0     H50615   2.020  13.841   7.346 -0.3693 -1.4916  1.2827
  367MOL0     H50616   1.977  14.030   7.211  3.3711 -0.9680  1.3467
  367MOL0     H50617   1.846  13.958   7.129  0.8627  3.0162 -0.4731
  367MOL0     H50618   1.982  13.782   7.016  0.9095  0.1536 -1.3796
  367MOL0     H50619   2.017  13.955   6.978 -2.9815 -1.3477 -0.5536
  367MOL0     H50620   2.175  13.761   7.144  0.3807 -1.2909 -1.6566
  367MOL0     H50621   2.210  13.930   7.135 -0.6320  0.2363  0.0909
  367MOL0     H50622   2.215  13.722   6.901 -3.5060 -0.1546  1.3617
  367MOL0     H50623   2.354  13.802   6.984 -0.1130 -0.4121  1.0970
  367MOL0     H50624   2.284  14.024   6.889 -0.6533  0.6122  1.1259
  367MOL0     H50625   2.178  13.936   6.782  0.1323  0.4249  1.3753
  367MOL0     H50626   1.451  13.731   7.642  0.6302 -0.7919  0.7863
  367MOL0     H50627   1.313  13.549   7.717  1.1420 -1.3690  1.3032
  367MOL0     H50628   0.962  13.219   7.520  1.2485  2.5939  2.6564
  367MOL0     H50629   0.814  13.095   7.654 -1.1291 -0.7671 -3.1693
  367MOL0     H50630   0.716  11.460   8.419  0.1342  0.9318  1.4305
  367MOL0     H50631   0.603  11.320   8.247 -1.4468 -1.8013  0.4776
  367MOL0     H50632   0.390  11.050   8.100  0.7059 -4.1340 -3.3845
  367MOL0     H50633   0.356  10.907   7.949  0.4715  0.7943 -2.7045
  367MOL0     H50634   0.149  11.055   7.585  0.5601  0.2409  0.1000
  367MOL0     H50635   0.239  10.916   7.539  1.3302 -0.9903  1.8077
  367MOL0     H50636  -0.052  10.941   7.644 -0.4172 -2.7537  3.8478
  367MOL0     H50637   0.040  10.797   7.663 -1.5479  0.6028  0.2651
  367MOL0     H50638   0.068  10.931   7.393 -1.4925  2.1963  1.2222
  367MOL0     H50639   0.051  10.755   7.412  1.1362  0.0682  0.1074
  367MOL0     H50640  -0.179  10.790   7.482 -1.5823  1.9555  2.0431
  367MOL0     H50641  -0.150  10.823   7.316  1.5887 -0.3477  0.3788
  367MOL0     H50642  -0.324  11.172   7.448 -0.6896  0.3846 -4.4611
  367MOL0     H50643   0.060  11.136   7.759 -1.0114  3.2768  2.1806
  367MOL0     H50644   0.029  11.357   7.828 -2.7031  0.0352  1.3203
  367MOL0     H50645  -0.036  11.334   7.988  2.3102 -4.4178  2.9078
  367MOL0     H50646   0.115  11.424   7.969 -1.8714  2.7118 -2.3243
  368MOL0     O50647  10.006   2.281   6.243  0.9111 -0.3671  0.4261
  368MOL0     C50648   9.954   2.166   6.265 -0.2703 -1.3885 -0.2001
  368MOL0     O50649   9.964   2.060   6.184  1.0997 -0.4320  0.6106
  368MOL0     C50650   9.952   2.059   6.052  0.0749 -0.9300  0.5785
  368MOL0     C50651   9.970   1.942   5.988  0.1140  0.1316 -0.8976
  368MOL0     C50652   9.951   1.937   5.847 -0.8073 -0.1149 -0.2669
  368MOL0     C50653   9.928   2.049   5.769  0.3119 -1.0410 -0.0031
  368MOL0     O50654   9.923   2.044   5.631 -0.3692  0.2909  0.0748
  368MOL0     C50655   9.930   2.160   5.549 -0.3465 -1.3121  0.3749
  368MOL0     C50656   9.962   2.123   5.402  0.2750  0.0247 -0.5888
  368MOL0     C50657  10.099   2.065   5.380 -0.8974  0.5440 -0.7996
  368MOL0     C50658  10.211   2.143   5.446 -0.3578  0.4821 -1.1708
  368MOL0     C50659  10.353   2.100   5.372  0.8044 -1.2620 -0.2005
  368MOL0     C50660  10.350   2.143   5.218 -0.9682  0.9950 -0.1007
  368MOL0     C50661  10.500   2.168   5.185  1.3728  0.6241 -0.0553
  368MOL0     C50662  10.541   2.306   5.219 -0.4674  0.1036  0.0253
  368MOL0     N50663  10.673   2.338   5.152  0.1713 -0.5711 -0.0037
  368MOL0     C50664  10.794   2.356   5.208  0.3303  0.4563 -0.6631
  368MOL0     C50665  10.876   2.398   5.106 -0.0065  0.1976 -0.4678
  368MOL0     C50666  11.026   2.426   5.099  0.6500  0.0353 -0.4772
  368MOL0     C50667  11.057   2.551   5.182  0.7847 -0.2330  0.8784
  368MOL0     C50668  11.186   2.537   5.254 -0.5994 -0.5521 -0.3657
  368MOL0     C50669  11.248   2.681   5.279 -0.2117 -0.6908 -0.0835
  368MOL0     O50670  11.154   2.779   5.331  0.3731  0.7825  0.4929
  368MOL0     C50671  11.207   2.894   5.382  0.0088  0.3635  0.1915
  368MOL0     C50672  11.343   2.943   5.369 -0.0845 -0.3124  0.1960
  368MOL0     C50673  11.383   3.057   5.445  0.8842 -0.2911  0.1090
  368MOL0     C50674  11.524   3.108   5.416  0.0437  0.0401  0.7076
  368MOL0     C50675  11.291   3.116   5.528  0.4523  0.5237  0.2840
  368MOL0     C50676  11.328   3.230   5.616 -0.4843  0.3450  0.2769
  368MOL0     O50677  11.300   3.213   5.743 -0.3117  0.1337 -0.0167
  368MOL0     C50678  11.355   3.300   5.837  0.0901  0.8772  0.4138
  368MOL0     C50679  11.297   3.423   5.854 -0.3362  0.0531  0.2639
  368MOL0     C50680  11.317   3.505   5.961 -0.0703  0.0289 -0.4864
  368MOL0     C50681  11.414   3.467   6.057 -0.2738 -1.0808  0.3544
  368MOL0     O50682  11.460   3.532   6.163 -0.0917 -1.0157 -0.2660
  368MOL0     C50683  11.390   3.658   6.199  0.3433  0.2231 -1.0668
  368MOL0     C50684  11.446   3.726   6.326  0.1162  0.8493 -0.5338
  368MOL0     C50685  11.413   3.646   6.451  0.0203  1.3846 -0.4950
  368MOL0     C50686  11.313   3.724   6.542  0.3146 -0.4660  0.0374
  368MOL0     C50687  11.222   3.622   6.607 -0.4600 -0.0479 -0.0682
  368MOL0     C50688  11.121   3.691   6.695 -0.6116  0.4376 -0.3883
  368MOL0     C50689  11.056   3.594   6.784  0.0801  0.7610 -0.0974
  368MOL0     C50690  11.154   3.513   6.871  0.1968 -0.4646 -0.2003
  368MOL0    Cl50691  11.177   3.343   6.794 -0.0357  0.0311 -0.3818
  368MOL0     C50692  11.498   3.360   6.018  0.8863  0.8711  0.3977
  368MOL0     C50693  11.468   3.266   5.911 -0.5196 -0.4307  1.4679
  368MOL0     O50694  11.379   3.334   5.568 -0.2868 -0.1975 -0.1696
  368MOL0     C50695  11.156   3.072   5.530  1.1464 -0.1049 -0.0771
  368MOL0     C50696  11.108   2.964   5.452 -0.3949 -0.0379  0.4010
  368MOL0     N50697  10.800   2.418   4.997  0.6389  0.5276  0.1689
  368MOL0     N50698  10.676   2.386   5.024  0.7699  0.2687  0.8718
  368MOL0     C50699   9.923   2.179   5.836  0.0235  0.5454 -0.5863
  368MOL0     C50700   9.923   2.178   5.976 -0.1394  0.5958 -0.9782
  368MOL0     C50701   9.877   2.163   6.394 -0.2917  0.6381 -0.5975
  368MOL0     C50702   9.847   2.029   6.438 -0.5008  0.3558 -0.0457
  368MOL0     C50703   9.798   2.002   6.569 -0.2198  1.0219 -0.5350
  368MOL0     C50704   9.755   2.112   6.652 -0.4519  0.2101 -0.7504
  368MOL0     O50705   9.701   2.094   6.773  1.1820  0.5245 -0.0694
  368MOL0     C50706   9.667   1.967   6.832  0.1766  0.0153  0.2003
  368MOL0     C50707   9.788   1.897   6.879 -0.5146  0.4996  0.7163
  368MOL0     C50708   9.870   1.984   6.971  0.2986 -0.4663 -0.9545
  368MOL0     C50709   9.996   1.915   7.047 -0.4160  0.1334  0.7905
  368MOL0     C50710   9.975   1.789   7.108 -0.4095 -0.1209 -0.2885
  368MOL0     C50711   9.971   1.676   7.159 -0.1048  0.3675 -0.6676
  368MOL0     C50712   9.791   2.244   6.608 -0.4982 -0.1473 -0.0088
  368MOL0     C50713   9.847   2.271   6.485  0.9118 -0.5769  0.6078
  368MOL0     C50714   9.862   2.415   6.442 -0.8663 -0.3385 -0.1761
  368MOL0     H50715  10.011   1.866   6.054  0.2153  0.9111 -0.0504
  368MOL0     H50716   9.975   1.846   5.793  0.9625  1.0276 -1.5058
  368MOL0     H50717  10.008   2.226   5.587  1.5424 -2.3708 -1.4005
  368MOL0     H50718   9.840   2.221   5.554  1.9014  2.3240 -0.1952
  368MOL0     H50719   9.887   2.050   5.372  1.6075 -1.2756 -0.8462
  368MOL0     H50720   9.953   2.206   5.331  3.2946  1.0748  0.0736
  368MOL0     H50721  10.096   1.964   5.422  0.2499 -0.4981 -3.0458
  368MOL0     H50722  10.102   2.057   5.271  2.6522 -0.6564 -0.7253
  368MOL0     H50723  10.198   2.251   5.433  0.1056  0.5585 -1.0077
  368MOL0     H50724  10.212   2.114   5.551  0.5031 -1.5151 -1.6939
  368MOL0     H50725  10.371   1.993   5.378 -0.5863 -1.4287  2.8364
  368MOL0     H50726  10.427   2.153   5.432  2.7374 -1.2533 -2.4397
  368MOL0     H50727  10.299   2.059   5.169 -2.4909  2.5376 -1.2768
  368MOL0     H50728  10.292   2.234   5.200  1.4999  2.6891 -0.0442
  368MOL0     H50729  10.498   2.155   5.077  0.1439 -0.5819  0.0816
  368MOL0     H50730  10.550   2.084   5.234  0.2366 -0.5695 -0.8816
  368MOL0     H50731  10.469   2.379   5.180  1.7167  2.3513 -0.0862
  368MOL0     H50732  10.551   2.309   5.328 -1.1198 -2.3484  0.2188
  368MOL0     H50733  10.807   2.339   5.315  1.3907  3.0146 -0.2995
  368MOL0     H50734  11.060   2.429   4.995 -0.1038 -3.7659 -0.9566
  368MOL0     H50735  11.079   2.343   5.147  2.9217  1.0953 -0.9921
  368MOL0     H50736  11.044   2.631   5.109 -1.9646 -1.9979 -0.7564
  368MOL0     H50737  10.994   2.564   5.271 -1.8098 -2.5416 -0.4618
  368MOL0     H50738  11.185   2.482   5.349 -1.4583  0.2697  0.1209
  368MOL0     H50739  11.256   2.479   5.193 -0.8979 -1.9891  0.6093
  368MOL0     H50740  11.332   2.668   5.349  0.6636 -2.6323 -1.3969
  368MOL0     H50741  11.293   2.729   5.192 -0.1760  0.3008  0.4760
  368MOL0     H50742  11.414   2.894   5.303  2.3563  2.1191  0.8157
  368MOL0     H50743  11.534   3.216   5.400  0.9164 -0.1609 -0.2033
  368MOL0     H50744  11.556   3.054   5.326  0.0660  0.9995  0.1258
  368MOL0     H50745  11.584   3.073   5.500 -0.9394  1.1895  1.9233
  368MOL0     H50746  11.216   3.447   5.785  1.3755  0.8212 -1.5935
  368MOL0     H50747  11.258   3.595   5.970 -1.1103 -0.5468 -1.3186
  368MOL0     H50748  11.411   3.722   6.113 -2.4822  1.3195 -1.0305
  368MOL0     H50749  11.287   3.628   6.219  1.3319 -0.5941  4.8027
  368MOL0     H50750  11.553   3.741   6.312 -0.1113  0.2430 -3.4190
  368MOL0     H50751  11.407   3.828   6.333  0.3552  0.9297 -0.3599
  368MOL0     H50752  11.504   3.625   6.507 -1.4310  0.8436  1.7870
  368MOL0     H50753  11.374   3.547   6.428  0.5512  0.0776  3.4734
  368MOL0     H50754  11.246   3.793   6.490  0.6416 -0.6341 -0.6226
  368MOL0     H50755  11.378   3.779   6.610 -0.7828  2.6621 -1.2749
  368MOL0     H50756  11.171   3.569   6.525 -2.3199 -3.8217  3.2060
  368MOL0     H50757  11.288   3.550   6.656 -0.1858  1.1965  1.4685
  368MOL0     H50758  11.045   3.736   6.630 -2.6773 -1.2888  0.6974
  368MOL0     H50759  11.184   3.758   6.755 -0.7279  0.7488 -0.6106
  368MOL0     H50760  10.996   3.521   6.730  1.0811 -1.7622  1.9737
  368MOL0     H50761  10.985   3.648   6.847 -0.9031 -2.1505  1.4903
  368MOL0     H50762  11.110   3.499   6.971 -2.9579 -1.0291 -1.5296
  368MOL0     H50763  11.245   3.570   6.890 -0.5695  1.0240 -0.7978
  368MOL0     H50764  11.589   3.334   6.071  0.0460 -1.5980  0.7487
  368MOL0     H50765  11.539   3.191   5.878  0.8439  0.1923  2.8848
  368MOL0     H50766  11.090   3.120   5.602  3.2889  1.9303  0.6497
  368MOL0     H50767  11.003   2.937   5.452 -0.2605 -0.5829 -0.2144
  368MOL0     H50768   9.906   2.272   5.782 -0.9988  2.1011  2.1809
  368MOL0     H50769   9.891   2.270   6.025  3.1991  1.1469  0.4135
  368MOL0     H50770   9.874   1.936   6.388 -0.9213  0.1640  0.0739
  368MOL0     H50771   9.770   1.897   6.567 -0.3903  1.0010  1.4970
  368MOL0     H50772   9.601   1.986   6.917  0.1995  0.2820  0.1596
  368MOL0     H50773   9.619   1.902   6.759  0.3085  1.0699 -0.8534
  368MOL0     H50774   9.853   1.865   6.798 -4.0660 -0.1115 -2.1254
  368MOL0     H50775   9.752   1.803   6.923 -0.1863  0.9801  2.0667
  368MOL0     H50776   9.892   2.084   6.932 -0.4349  0.8070  1.6458
  368MOL0     H50777   9.799   2.006   7.052 -2.2504  1.7976 -3.5621
  368MOL0     H50778  10.030   1.970   7.135 -0.5985  0.3765  0.7106
  368MOL0     H50779  10.067   1.914   6.964 -1.6733 -0.6140 -0.3160
  368MOL0     H50780   9.991   1.582   7.207  0.4552 -1.5006 -4.1999
  368MOL0     H50781   9.766   2.331   6.668  3.1395 -0.7558  2.7131
  368MOL0     H50782   9.813   2.418   6.345 -2.2310 -1.1553  0.4618
  368MOL0     H50783   9.820   2.489   6.511  0.9997 -0.1656  0.8523
  368MOL0     H50784   9.970   2.431   6.434 -0.0676 -2.7184  3.2718
  369MOL0     O50785   0.296   4.612   6.589  0.4106  0.5644 -0.3482
  369MOL0     C50786   0.373   4.676   6.516  0.2881  0.8603  0.6744
  369MOL0     O50787   0.336   4.738   6.400 -0.3371 -0.5995  0.0959
  369MOL0     C50788   0.206   4.738   6.365  0.0591 -0.1053 -0.4924
  369MOL0     C50789   0.122   4.831   6.417  0.2669  0.7399  0.1555
  369MOL0     C50790  -0.014   4.838   6.383 -0.1843 -0.7634  0.5833
  369MOL0     C50791  -0.062   4.739   6.306 -0.8817  0.1548 -0.7105
  369MOL0     O50792  -0.189   4.755   6.282  0.0486  0.6866 -0.1010
  369MOL0     C50793  -0.255   4.665   6.196 -0.2721 -0.9704 -1.9407
  369MOL0     C50794  -0.405   4.693   6.213 -0.2960  0.0532  0.5242
  369MOL0     C50795  -0.477   4.598   6.309  0.1849  0.6841 -0.6538
  369MOL0     C50796  -0.621   4.633   6.311 -0.5186 -0.3663  0.3489
  369MOL0     C50797  -0.704   4.573   6.428 -0.4695  0.4052  0.5539
  369MOL0     C50798  -0.720   4.419   6.395  0.4594  0.3161  0.3424
  369MOL0     C50799  -0.820   4.338   6.485 -0.1200  0.5245 -0.3503
  369MOL0     C50800  -0.951   4.396   6.520 -0.5349 -1.0700  0.2301
  369MOL0     N50801  -1.033   4.300   6.597  0.1945 -0.5815 -0.7056
  369MOL0     C50802  -1.106   4.193   6.548  1.1022  0.5646  1.4345
  369MOL0     C50803  -1.170   4.152   6.654 -0.4747 -0.1573  0.6397
  369MOL0     C50804  -1.285   4.051   6.640 -0.0891 -0.6207 -0.8115
  369MOL0     C50805  -1.369   4.016   6.766  0.1780  0.7788  1.1183
  369MOL0     C50806  -1.307   3.996   6.904  0.2303  0.5846  0.4271
  369MOL0     C50807  -1.217   3.875   6.899  1.3856  1.0381  0.1010
  369MOL0     O50808  -1.290   3.752   6.903 -0.7454 -0.1236 -0.2020
  369MOL0     C50809  -1.217   3.647   6.851  0.4957 -0.1862 -0.9029
  369MOL0     C50810  -1.098   3.606   6.910  0.8019  0.3200  0.0531
  369MOL0     C50811  -1.031   3.492   6.863  0.0275 -0.1261 -0.1383
  369MOL0     C50812  -0.900   3.460   6.942 -0.2506 -1.0828 -0.4141
  369MOL0     C50813  -1.064   3.427   6.737 -0.4689 -0.1015 -0.5243
  369MOL0     C50814  -0.985   3.317   6.675 -0.1752 -0.1885  0.9107
  369MOL0     O50815  -1.059   3.250   6.577 -0.1823  0.0836 -0.2711
  369MOL0     C50816  -0.994   3.152   6.509  0.0351  0.3054 -0.7753
  369MOL0     C50817  -0.914   3.050   6.560  0.5207 -0.5273  0.0385
  369MOL0     C50818  -0.853   2.947   6.479  0.5523  0.5236  0.3667
  369MOL0     C50819  -0.864   2.950   6.337 -0.3214  0.4859  0.2934
  369MOL0     O50820  -0.783   2.870   6.255  0.4215 -0.3115  0.3357
  369MOL0     C50821  -0.650   2.849   6.301 -0.4107 -0.9577  0.2889
  369MOL0     C50822  -0.587   2.739   6.219  1.1218  0.6494  0.2481
  369MOL0     C50823  -0.439   2.754   6.213 -0.3223 -0.1596  0.4638
  369MOL0     C50824  -0.385   2.635   6.151 -0.3870  0.7039  0.3439
  369MOL0     C50825  -0.230   2.644   6.120  0.2444 -0.0658 -0.2844
  369MOL0     C50826  -0.157   2.626   6.252  0.4349  0.1132  0.7196
  369MOL0     C50827  -0.015   2.666   6.230 -0.5287  0.3578 -0.0155
  369MOL0     C50828   0.094   2.602   6.323 -0.6232 -0.3778 -0.6507
  369MOL0    Cl50829   0.078   2.427   6.362  0.1975  0.0510  0.0014
  369MOL0     C50830  -0.943   3.048   6.285  1.2069  0.2062 -0.1597
  369MOL0     C50831  -1.003   3.141   6.375  0.0273  0.0490  0.0322
  369MOL0     O50832  -0.869   3.282   6.714 -0.2359 -0.4127 -0.6878
  369MOL0     C50833  -1.192   3.473   6.677 -0.2230 -0.1002  0.4113
  369MOL0     C50834  -1.255   3.585   6.733 -0.1233 -0.4006  0.8465
  369MOL0     N50835  -1.126   4.220   6.768  0.4227  0.2413  0.7371
  369MOL0     N50836  -1.038   4.307   6.731  0.8031  0.5175  0.6552
  369MOL0     C50837   0.025   4.643   6.254 -0.1363 -0.6698 -0.8025
  369MOL0     C50838   0.150   4.631   6.302  0.5426 -0.6830  0.5635
  369MOL0     C50839   0.509   4.706   6.575 -0.4543 -0.1884  0.0069
  369MOL0     C50840   0.521   4.717   6.718  0.1657 -0.5242 -0.0168
  369MOL0     C50841   0.650   4.754   6.760  0.7810 -0.5528 -0.5811
  369MOL0     C50842   0.766   4.759   6.682  1.4315  0.7024  0.6044
  369MOL0     O50843   0.888   4.777   6.728 -0.1674 -0.2672 -0.3573
  369MOL0     C50844   0.907   4.824   6.864  0.1956 -0.9553 -0.1011
  369MOL0     C50845   1.060   4.828   6.906 -0.1682 -0.5138  0.4503
  369MOL0     C50846   1.131   4.940   6.822  0.3002 -0.1395 -0.4659
  369MOL0     C50847   1.278   4.898   6.801 -0.6740  0.0207  0.3649
  369MOL0     C50848   1.350   5.001   6.724  0.3055 -0.4747  0.7959
  369MOL0     C50849   1.387   5.099   6.655  0.3210 -0.5684  0.7570
  369MOL0     C50850   0.748   4.744   6.544 -0.3466  0.6882  0.4964
  369MOL0     C50851   0.622   4.738   6.491 -0.1473  0.4573 -0.7080
  369MOL0     C50852   0.623   4.750   6.346  0.6181  0.2357 -0.0753
  369MOL0     H50853   0.151   4.916   6.478  2.9549  0.3198 -0.4156
  369MOL0     H50854  -0.085   4.910   6.421 -0.3991 -0.8356  0.3219
  369MOL0     H50855  -0.225   4.564   6.226 -0.5189 -0.5014  0.0170
  369MOL0     H50856  -0.227   4.688   6.093 -3.0341  3.0737 -1.9984
  369MOL0     H50857  -0.408   4.794   6.256  1.5889 -0.6129  2.3666
  369MOL0     H50858  -0.453   4.685   6.115  0.4856 -1.1174  0.2221
  369MOL0     H50859  -0.479   4.489   6.294 -4.6905  0.3146  0.8795
  369MOL0     H50860  -0.438   4.625   6.408  2.5268  1.6704 -1.7676
  369MOL0     H50861  -0.614   4.741   6.322 -1.2058 -0.3325  0.5422
  369MOL0     H50862  -0.660   4.608   6.212 -2.3779  1.2942  0.6066
  369MOL0     H50863  -0.802   4.622   6.423 -0.3320  0.6588  0.3346
  369MOL0     H50864  -0.652   4.600   6.520  0.5657  4.1192 -0.9609
  369MOL0     H50865  -0.754   4.408   6.292 -1.3634  1.8244  0.7272
  369MOL0     H50866  -0.622   4.372   6.405 -1.1745 -3.8527 -1.1955
  369MOL0     H50867  -0.768   4.305   6.575 -0.5453  2.6923  0.7757
  369MOL0     H50868  -0.854   4.248   6.434  1.7638 -0.8613  0.7064
  369MOL0     H50869  -0.934   4.484   6.583 -5.3111 -0.6830  1.3670
  369MOL0     H50870  -1.001   4.419   6.425 -0.1554 -0.7159  0.1105
  369MOL0     H50871  -1.130   4.165   6.446 -0.0322  0.1873  1.7833
  369MOL0     H50872  -1.246   3.958   6.598  3.1601  0.0985  0.3658
  369MOL0     H50873  -1.359   4.097   6.573 -1.3089  0.1612  0.9749
  369MOL0     H50874  -1.435   4.101   6.785  2.1320  2.6219  0.0912
  369MOL0     H50875  -1.434   3.935   6.732  1.9341  0.2388 -1.2298
  369MOL0     H50876  -1.247   4.079   6.943 -0.8247  1.0155  1.1643
  369MOL0     H50877  -1.387   3.983   6.976  0.1354  3.3079  0.9169
  369MOL0     H50878  -1.150   3.875   6.813  2.7361  0.3931  1.1195
  369MOL0     H50879  -1.146   3.892   6.981  2.0260  1.0404 -0.4495
  369MOL0     H50880  -1.071   3.644   7.008  0.7934 -1.0038  0.5977
  369MOL0     H50881  -0.813   3.486   6.880  1.4972 -2.9100  1.1162
  369MOL0     H50882  -0.890   3.355   6.970 -3.4297 -1.1067  0.9269
  369MOL0     H50883  -0.898   3.510   7.039  2.7427  0.3063 -1.0677
  369MOL0     H50884  -0.896   3.036   6.666  1.7410 -0.8202 -0.1970
  369MOL0     H50885  -0.796   2.868   6.527  0.4690  0.9801  1.2324
  369MOL0     H50886  -0.597   2.945   6.297  0.9201 -1.6867 -2.9648
  369MOL0     H50887  -0.636   2.813   6.403  2.5175 -0.9796 -0.0430
  369MOL0     H50888  -0.607   2.641   6.264  3.6501 -0.9564 -1.8850
  369MOL0     H50889  -0.633   2.734   6.120 -0.1119 -0.4332  0.8374
  369MOL0     H50890  -0.392   2.780   6.308  1.4044 -0.5788 -0.2355
  369MOL0     H50891  -0.417   2.841   6.151  1.7176 -0.3421  0.8786
  369MOL0     H50892  -0.433   2.610   6.056 -3.4827 -0.8170  2.1453
  369MOL0     H50893  -0.400   2.542   6.206  2.0123 -0.7369 -1.2072
  369MOL0     H50894  -0.197   2.569   6.048 -1.0673 -1.8217  0.8712
  369MOL0     H50895  -0.202   2.742   6.079 -2.7666  1.9646  1.9854
  369MOL0     H50896  -0.167   2.524   6.290  0.0231 -1.1531 -2.4555
  369MOL0     H50897  -0.206   2.688   6.328 -1.9041 -2.3286  1.3706
  369MOL0     H50898  -0.000   2.773   6.250 -3.0482  1.0122 -1.2268
  369MOL0     H50899   0.022   2.638   6.131 -0.8328  1.1813 -0.3710
  369MOL0     H50900   0.097   2.656   6.418  1.5414  2.4782 -2.1789
  369MOL0     H50901   0.194   2.618   6.283 -0.7749 -2.6872 -2.1309
  369MOL0     H50902  -0.971   3.052   6.180 -1.1982  0.3929  0.4259
  369MOL0     H50903  -1.069   3.222   6.343 -0.4323  0.0330  0.9257
  369MOL0     H50904  -1.226   3.421   6.588  1.4661  1.1765 -1.0642
  369MOL0     H50905  -1.342   3.617   6.677 -1.0503 -2.0469  1.2875
  369MOL0     H50906  -0.006   4.569   6.181  3.9488 -2.2291 -1.2064
  369MOL0     H50907   0.215   4.558   6.254 -2.1379 -0.1981 -4.4083
  369MOL0     H50908   0.430   4.706   6.776 -1.2368  0.7898 -1.8434
  369MOL0     H50909   0.649   4.768   6.868  1.2624 -0.4753 -0.5836
  369MOL0     H50910   0.866   4.923   6.883  0.9358 -0.6727  0.0759
  369MOL0     H50911   0.848   4.762   6.932 -0.2596  1.3232  1.7027
  369MOL0     H50912   1.092   4.727   6.879  2.2151 -0.8173  3.7749
  369MOL0     H50913   1.069   4.841   7.015  0.3132  1.0315  0.2507
  369MOL0     H50914   1.079   4.953   6.727 -2.0833 -0.5712  0.6777
  369MOL0     H50915   1.131   5.031   6.882 -1.0054 -0.3580 -0.0842
  369MOL0     H50916   1.286   4.799   6.755 -1.0868 -1.0870  2.5350
  369MOL0     H50917   1.323   4.877   6.899  0.8909 -1.4488 -0.6209
  369MOL0     H50918   1.405   5.192   6.605  0.8713 -0.8500  0.4244
  369MOL0     H50919   0.834   4.757   6.480 -0.1812  1.1897  0.8162
  369MOL0     H50920   0.591   4.649   6.316  1.3588 -0.3654  1.0783
  369MOL0     H50921   0.545   4.822   6.320  1.7530  1.1198 -1.1546
  369MOL0     H50922   0.719   4.774   6.300  1.9115 -1.2812  1.6957
  370MOL0     O50923   7.072   5.831   4.214  0.2527 -0.5068 -0.8156
  370MOL0     C50924   7.060   5.946   4.250 -0.5063 -0.3581  0.8655
  370MOL0     O50925   6.936   6.003   4.282 -0.1699  0.3158 -0.4710
  370MOL0     C50926   6.829   5.930   4.240 -0.2066  0.3050 -0.1127
  370MOL0     C50927   6.750   5.958   4.132  0.1854 -0.8273 -0.0470
  370MOL0     C50928   6.629   5.892   4.097 -0.1121  0.3325  0.3137
  370MOL0     C50929   6.597   5.792   4.192  0.3414  0.1459  0.5156
  370MOL0     O50930   6.482   5.719   4.188 -0.0572  0.5920  0.4600
  370MOL0     C50931   6.369   5.768   4.123 -0.3461  0.5128 -0.8958
  370MOL0     C50932   6.244   5.682   4.167  0.5138  0.0483 -0.4463
  370MOL0     C50933   6.228   5.555   4.084 -0.2472  0.3272  0.0798
  370MOL0     C50934   6.145   5.449   4.160 -0.0716 -0.1093 -0.8696
  370MOL0     C50935   6.207   5.311   4.130  0.2746  0.0484  0.1584
  370MOL0     C50936   6.304   5.280   4.249 -0.5563  0.0468 -0.0461
  370MOL0     C50937   6.381   5.136   4.237  0.8769  0.7158 -0.5234
  370MOL0     C50938   6.306   5.041   4.327 -0.3247  0.3185 -0.4128
  370MOL0     N50939   6.325   5.048   4.471  1.1443  0.0025  0.3037
  370MOL0     C50940   6.401   4.968   4.546 -0.2215  0.1542  0.1617
  370MOL0     C50941   6.383   5.024   4.667  0.5077  0.5726  0.2327
  370MOL0     C50942   6.469   4.988   4.790  1.0613 -0.1318 -0.1044
  370MOL0     C50943   6.445   4.851   4.862  0.7733 -0.4050 -0.9950
  370MOL0     C50944   6.302   4.799   4.884 -0.4493 -0.5366  1.4482
  370MOL0     C50945   6.294   4.645   4.869 -0.2743 -0.3073  1.1367
  370MOL0     O50946   6.389   4.576   4.950  0.7412 -0.0457 -0.1622
  370MOL0     C50947   6.332   4.484   5.037 -0.0402  0.5032 -0.0565
  370MOL0     C50948   6.254   4.374   4.993  0.1864  0.5490 -1.1588
  370MOL0     C50949   6.208   4.278   5.093  0.1416  0.3468  0.6534
  370MOL0     C50950   6.121   4.167   5.025 -0.3699  0.8268 -0.3429
  370MOL0     C50951   6.244   4.292   5.229  2.0495  0.6807 -0.4800
  370MOL0     C50952   6.195   4.195   5.335 -0.7161 -0.2076  0.5361
  370MOL0     O50953   6.215   4.238   5.456  0.4806 -0.4481 -1.1224
  370MOL0     C50954   6.178   4.187   5.581  0.9811  0.9157 -0.7569
  370MOL0     C50955   6.159   4.277   5.679 -0.0620  0.7705 -0.0884
  370MOL0     C50956   6.105   4.234   5.804  0.2514 -0.8958 -0.9865
  370MOL0     C50957   6.086   4.101   5.840  0.5926  0.6471  0.6900
  370MOL0     O50958   6.049   4.077   5.970  0.4852 -1.1326  0.6428
  370MOL0     C50959   5.910   4.089   5.996  1.3161 -0.1305 -0.2740
  370MOL0     C50960   5.883   4.093   6.149  0.0699  0.4370 -0.3336
  370MOL0     C50961   5.820   3.957   6.210  0.5109  0.0082 -0.0433
  370MOL0     C50962   5.860   3.936   6.353  0.1200  0.6993 -0.9006
  370MOL0     C50963   5.825   4.048   6.449 -0.0987  0.2871  0.4422
  370MOL0     C50964   5.705   4.023   6.534  0.6057  0.8078 -0.6308
  370MOL0     C50965   5.692   4.104   6.656  0.2596  0.2995  0.4736
  370MOL0     C50966   5.817   4.084   6.743  0.0208 -0.1338  0.0046
  370MOL0    Cl50967   5.798   4.171   6.899 -0.9521  0.0318  0.3688
  370MOL0     C50968   6.096   4.005   5.733 -0.3349  0.7739 -1.1900
  370MOL0     C50969   6.143   4.053   5.608 -0.6638 -0.2681  0.7524
  370MOL0     O50970   6.161   4.079   5.308 -0.4007 -0.0163  0.1013
  370MOL0     C50971   6.320   4.401   5.266  0.2427  0.4406  0.7467
  370MOL0     C50972   6.369   4.490   5.175  0.2220 -0.6291  0.0809
  370MOL0     N50973   6.298   5.131   4.659  0.9039 -0.4977  0.5801
  370MOL0     N50974   6.261   5.140   4.536  0.1596  0.5394  0.4030
  370MOL0     C50975   6.683   5.757   4.302 -0.3798 -0.0630 -0.0412
  370MOL0     C50976   6.796   5.824   4.322  0.3575 -0.2163 -1.0227
  370MOL0     C50977   7.186   6.028   4.266 -1.1358 -0.4226 -0.9322
  370MOL0     C50978   7.176   6.149   4.331  0.2148  0.8177 -0.8217
  370MOL0     C50979   7.280   6.236   4.356  0.3039 -0.7163  0.1621
  370MOL0     C50980   7.404   6.220   4.312  0.7190 -0.1265  0.7105
  370MOL0     O50981   7.498   6.318   4.337 -0.0619 -0.1981 -0.1229
  370MOL0     C50982   7.633   6.307   4.288 -0.1920 -1.0288  0.3237
  370MOL0     C50983   7.709   6.439   4.290  0.0660 -0.0121  0.3879
  370MOL0     C50984   7.858   6.415   4.304 -0.4710 -0.1291 -1.0758
  370MOL0     C50985   7.931   6.371   4.181  0.5058 -0.3763  1.0369
  370MOL0     C50986   8.075   6.341   4.213 -0.3904 -0.1768 -0.3762
  370MOL0     C50987   8.182   6.303   4.246  0.0906 -0.5427  0.0640
  370MOL0     C50988   7.420   6.098   4.244 -0.3063 -0.4284  0.8603
  370MOL0     C50989   7.321   6.000   4.224  0.3820 -0.9498 -1.3746
  370MOL0     C50990   7.357   5.884   4.143  1.2530  0.7131  0.5591
  370MOL0     H50991   6.795   6.034   4.067  1.2404  0.7180  2.3591
  370MOL0     H50992   6.582   5.904   4.000  4.7637  0.9930 -2.2774
  370MOL0     H50993   6.387   5.767   4.015  2.6782 -1.3705 -0.5147
  370MOL0     H50994   6.359   5.870   4.159 -1.1012  0.2495 -0.3294
  370MOL0     H50995   6.249   5.652   4.272 -0.8096 -1.8404 -0.8720
  370MOL0     H50996   6.160   5.752   4.161  0.1327 -0.1157  2.0383
  370MOL0     H50997   6.201   5.573   3.979  1.7995  1.4541 -0.3157
  370MOL0     H50998   6.327   5.510   4.075 -0.9381 -1.4548  1.0297
  370MOL0     H50999   6.151   5.469   4.268 -1.2676 -2.4915 -0.2805
  370MOL0     H51000   6.039   5.464   4.138 -0.9922 -3.5223  0.5434
  370MOL0     H51001   6.262   5.310   4.035  1.0270  3.6301  0.4188
  370MOL0     H51002   6.126   5.239   4.141  1.3076 -1.0482  0.9462
  370MOL0     H51003   6.377   5.362   4.253 -1.6698  1.0334  0.7018
  370MOL0     H51004   6.246   5.291   4.341 -0.4164  1.4237 -0.0977
  370MOL0     H51005   6.481   5.153   4.277 -0.3117  3.2832  1.6081
  370MOL0     H51006   6.373   5.097   4.135 -3.0016 -1.1313  0.2967
  370MOL0     H51007   6.200   5.039   4.302 -0.4502  2.8905 -0.3451
  370MOL0     H51008   6.353   4.945   4.302  0.6832  0.2399  1.5504
  370MOL0     H51009   6.459   4.884   4.510 -1.1620 -1.2722  1.7896
  370MOL0     H51010   6.455   5.077   4.852 -4.9667  0.1949 -1.4029
  370MOL0     H51011   6.574   5.002   4.763  2.2530 -1.4534  3.2662
  370MOL0     H51012   6.502   4.772   4.813  1.8330 -0.1487 -0.2051
  370MOL0     H51013   6.476   4.864   4.966  0.8596 -0.8980 -0.9585
  370MOL0     H51014   6.270   4.819   4.987  1.6529 -2.2106  2.5256
  370MOL0     H51015   6.229   4.839   4.813 -0.1365  0.1855  1.5205
  370MOL0     H51016   6.191   4.610   4.878 -1.8883  2.0402 -4.2141
  370MOL0     H51017   6.314   4.631   4.763  1.2871  0.8770  1.2298
  370MOL0     H51018   6.229   4.381   4.888 -0.2878  2.9659 -0.9515
  370MOL0     H51019   6.026   4.157   5.078  3.1931  0.7719  7.2273
  370MOL0     H51020   6.175   4.077   5.055 -0.7675  0.2947 -1.1727
  370MOL0     H51021   6.120   4.171   4.915  0.5793  2.7131 -0.3232
  370MOL0     H51022   6.181   4.383   5.670  4.3778  0.0636  0.4314
  370MOL0     H51023   6.075   4.307   5.879 -1.3990 -1.8299 -0.6892
  370MOL0     H51024   5.870   4.189   5.977 -0.1548 -0.4443  0.9552
  370MOL0     H51025   5.840   4.014   5.958  0.1888 -0.8150  2.8751
  370MOL0     H51026   5.975   4.122   6.201  0.7404 -3.7282  1.2002
  370MOL0     H51027   5.815   4.177   6.166 -2.1794 -0.5029 -3.7150
  370MOL0     H51028   5.857   3.871   6.153 -2.2555 -0.2182 -1.6894
  370MOL0     H51029   5.712   3.973   6.198  0.6354  1.2556  0.4050
  370MOL0     H51030   5.969   3.944   6.348  0.0041  3.5908 -0.1415
  370MOL0     H51031   5.818   3.837   6.373  0.3986  0.1226 -2.9426
  370MOL0     H51032   5.913   4.071   6.509 -0.8592  0.2644  1.5897
  370MOL0     H51033   5.801   4.140   6.395 -1.0342 -0.6024 -0.7575
  370MOL0     H51034   5.697   3.919   6.565  0.8796  0.5127 -1.5065
  370MOL0     H51035   5.625   4.050   6.464 -1.4962 -1.6580  0.6515
  370MOL0     H51036   5.604   4.100   6.721  1.0829  1.0859  1.6871
  370MOL0     H51037   5.681   4.201   6.607 -0.3321 -1.2781 -2.7788
  370MOL0     H51038   5.907   4.126   6.695  1.1584 -2.1319  0.2616
  370MOL0     H51039   5.821   3.980   6.775 -0.2487  0.7001  3.1198
  370MOL0     H51040   6.078   3.901   5.758  5.1368 -0.4186 -0.9766
  370MOL0     H51041   6.145   3.980   5.528 -0.4795  0.9965 -0.4153
  370MOL0     H51042   6.339   4.424   5.371 -0.7071  3.3638  0.3649
  370MOL0     H51043   6.442   4.568   5.199 -2.4390  2.2828 -0.6549
  370MOL0     H51044   6.633   5.683   4.364 -0.5065  1.2390  1.5051
  370MOL0     H51045   6.863   5.796   4.403  2.2734  3.6624 -1.0100
  370MOL0     H51046   7.075   6.185   4.348 -0.1174  0.4728 -1.9809
  370MOL0     H51047   7.260   6.326   4.413  0.3270  0.2404 -1.2950
  370MOL0     H51048   7.681   6.232   4.351  0.0832  0.0022  1.3828
  370MOL0     H51049   7.642   6.269   4.186  0.1839  1.0224 -0.4616
  370MOL0     H51050   7.666   6.503   4.368 -1.2140 -1.8809  1.2985
  370MOL0     H51051   7.690   6.494   4.198 -0.6882  1.2144  1.2344
  370MOL0     H51052   7.895   6.513   4.334  0.9046 -0.4833 -1.5536
  370MOL0     H51053   7.884   6.342   4.382 -2.4400 -1.0855 -1.2473
  370MOL0     H51054   7.920   6.450   4.106  3.2418 -3.0811 -2.5977
  370MOL0     H51055   7.881   6.278   4.153 -1.3865  0.3550  1.8196
  370MOL0     H51056   8.277   6.261   4.273  1.6581  2.9805  0.5921
  370MOL0     H51057   7.515   6.071   4.200 -1.8495 -0.1672 -3.0774
  370MOL0     H51058   7.372   5.808   4.221  3.0866  3.1372  2.8008
  370MOL0     H51059   7.277   5.857   4.074  1.6002  0.5824  0.2089
  370MOL0     H51060   7.453   5.895   4.092  0.1374 -1.8744 -2.4233
  371MOL0     O51061   7.269   6.224   1.012  0.4689  0.8732  1.0765
  371MOL0     C51062   7.276   6.161   0.901  0.5161  0.7179  0.8490
  371MOL0     O51063   7.390   6.119   0.851 -0.1089  0.4652  0.7007
  371MOL0     C51064   7.502   6.083   0.922 -0.9016  0.4118  0.1867
  371MOL0     C51065   7.550   5.948   0.915 -0.8104 -1.3018  0.8361
  371MOL0     C51066   7.668   5.917   0.977  0.4894  0.2608 -0.4345
  371MOL0     C51067   7.739   6.019   1.045 -0.6339  0.1292  0.3369
  371MOL0     O51068   7.870   6.008   1.096  0.4824 -0.3210 -0.6778
  371MOL0     C51069   7.943   5.891   1.072  0.3064  0.1606 -0.2519
  371MOL0     C51070   8.093   5.913   1.111  1.1720 -0.5495 -0.5225
  371MOL0     C51071   8.120   5.985   1.247 -0.2201  0.2125 -0.8680
  371MOL0     C51072   8.270   5.982   1.275  0.3053  0.4016  0.9951
  371MOL0     C51073   8.296   6.075   1.381 -0.4568  0.6133 -1.4763
  371MOL0     C51074   8.241   6.028   1.517  0.6665  0.0465 -0.6410
  371MOL0     C51075   8.273   6.121   1.623  0.8642 -0.1326 -0.2991
  371MOL0     C51076   8.218   6.071   1.752  0.5457  0.8489 -0.6623
  371MOL0     N51077   8.282   6.146   1.863 -0.6728  1.1599 -0.2708
  371MOL0     C51078   8.275   6.275   1.898 -0.3867 -0.6178  0.3656
  371MOL0     C51079   8.371   6.298   1.990 -0.0082  0.2057 -1.0485
  371MOL0     C51080   8.381   6.435   2.049  1.0522 -0.2473  0.1674
  371MOL0     C51081   8.367   6.404   2.195 -0.2999  0.3086  0.8826
  371MOL0     C51082   8.207   6.387   2.212  1.1419 -0.1034 -0.2176
  371MOL0     C51083   8.187   6.316   2.340  0.2542 -0.2035  0.1826
  371MOL0     O51084   8.293   6.360   2.429 -0.1024  0.2993 -0.3735
  371MOL0     C51085   8.346   6.275   2.517 -0.7211 -0.6270  0.2413
  371MOL0     C51086   8.452   6.335   2.588  1.1997 -0.2804 -0.1217
  371MOL0     C51087   8.522   6.239   2.674  1.0063 -0.0601 -0.4962
  371MOL0     C51088   8.622   6.314   2.762  0.2389 -0.3173  0.3402
  371MOL0     C51089   8.483   6.110   2.698 -0.0226  0.2025  0.4017
  371MOL0     C51090   8.551   6.029   2.798  0.2181  0.9013  0.0877
  371MOL0     O51091   8.550   6.075   2.931  0.1723 -0.3067 -0.4552
  371MOL0     C51092   8.588   5.984   3.026  0.0999 -0.8988  0.2803
  371MOL0     C51093   8.718   6.006   3.070  1.3737  0.0593  0.5179
  371MOL0     C51094   8.767   5.909   3.165 -0.6599 -0.4113 -0.6527
  371MOL0     C51095   8.686   5.816   3.228 -0.1988  0.0615 -1.3691
  371MOL0     O51096   8.724   5.748   3.344 -0.0410  0.7752  0.4932
  371MOL0     C51097   8.707   5.608   3.331 -0.7170 -0.0227 -0.3109
  371MOL0     C51098   8.844   5.540   3.298  1.0191 -0.1633  0.5426
  371MOL0     C51099   8.934   5.513   3.417 -0.2179  0.2474 -0.4996
  371MOL0     C51100   8.896   5.399   3.497  0.6250  0.8145  0.2214
  371MOL0     C51101   8.979   5.380   3.619  0.3707 -0.1246 -1.0176
  371MOL0     C51102   9.126   5.340   3.592 -0.3004  0.6085  0.1102
  371MOL0     C51103   9.203   5.328   3.715 -0.3710 -0.6231 -0.0639
  371MOL0     C51104   9.354   5.343   3.698  0.3658 -0.1309 -0.2302
  371MOL0    Cl51105   9.401   5.525   3.681 -0.3118  0.1839  0.0601
  371MOL0     C51106   8.556   5.803   3.184 -0.5306  0.5455  0.4271
  371MOL0     C51107   8.514   5.880   3.074 -0.8004  0.3655  0.2448
  371MOL0     O51108   8.583   5.914   2.760  0.5328  0.2775 -0.0042
  371MOL0     C51109   8.369   6.067   2.637 -0.3036  0.3624 -0.6139
  371MOL0     C51110   8.303   6.148   2.547  0.7006  0.7789  0.0890
  371MOL0     N51111   8.436   6.178   2.009  1.0163  0.0171  0.4396
  371MOL0     N51112   8.377   6.087   1.934  0.8532 -0.3369  0.1142
  371MOL0     C51113   7.684   6.144   1.067  0.7903  0.3679 -0.1191
  371MOL0     C51114   7.561   6.170   1.022  0.4685  0.5161  0.3915
  371MOL0     C51115   7.159   6.114   0.816  0.6441  1.3946  0.6701
  371MOL0     C51116   7.186   6.082   0.685 -0.7128 -0.3585 -0.6117
  371MOL0     C51117   7.078   6.070   0.601  0.1562  0.1724  0.3495
  371MOL0     C51118   6.940   6.079   0.640 -0.7626  0.4895  0.5019
  371MOL0     O51119   6.844   6.044   0.547 -0.0120 -1.0687 -0.9033
  371MOL0     C51120   6.706   6.085   0.574 -0.6128  1.0001  0.6065
  371MOL0     C51121   6.693   6.237   0.565  0.8288 -0.3886  0.0679
  371MOL0     C51122   6.728   6.285   0.422  0.0336  0.1398 -0.8042
  371MOL0     C51123   6.655   6.421   0.403  0.1536 -0.7425 -0.3205
  371MOL0     C51124   6.685   6.530   0.501 -0.1414  0.6775 -0.4187
  371MOL0     C51125   6.725   6.601   0.587 -0.5285 -0.5296  0.6050
  371MOL0     C51126   6.921   6.094   0.772 -0.5970 -0.7436  0.0291
  371MOL0     C51127   7.024   6.107   0.862 -0.4335  0.3745  0.3312
  371MOL0     C51128   6.982   6.146   1.000 -0.0522 -0.3866  0.0127
  371MOL0     H51129   7.498   5.880   0.849  0.8190 -0.0736 -1.8793
  371MOL0     H51130   7.705   5.817   0.959  0.8166  0.0553  1.1585
  371MOL0     H51131   7.941   5.859   0.967 -2.3532 -0.2059 -0.1543
  371MOL0     H51132   7.908   5.807   1.132  1.4070 -0.0922  0.0530
  371MOL0     H51133   8.131   5.812   1.127  0.8209 -0.7113 -0.6879
  371MOL0     H51134   8.156   5.941   1.026 -1.2766 -1.3147 -2.7337
  371MOL0     H51135   8.079   6.086   1.236 -4.0030 -0.8611  1.4687
  371MOL0     H51136   8.065   5.935   1.327 -0.2114 -0.2185 -1.1320
  371MOL0     H51137   8.295   5.876   1.289  1.4736  0.8601  2.6052
  371MOL0     H51138   8.323   6.013   1.184  1.1113 -1.5987  0.7239
  371MOL0     H51139   8.261   6.175   1.354 -1.7424  1.1903  1.9065
  371MOL0     H51140   8.405   6.080   1.392 -0.6802 -0.2266  2.1827
  371MOL0     H51141   8.135   6.031   1.488  1.3113 -1.8051 -3.6480
  371MOL0     H51142   8.265   5.925   1.542  0.9509 -0.1591 -1.6942
  371MOL0     H51143   8.219   6.211   1.593 -1.6462 -0.7108  2.1407
  371MOL0     H51144   8.382   6.129   1.630  0.9507 -0.4678 -1.0897
  371MOL0     H51145   8.109   6.080   1.756 -0.2674 -4.5697 -1.8340
  371MOL0     H51146   8.225   5.962   1.762 -1.3550  0.7550  0.2271
  371MOL0     H51147   8.197   6.345   1.872 -1.3223 -1.9482 -0.4978
  371MOL0     H51148   8.314   6.517   2.021 -0.4318 -0.8638  1.7603
  371MOL0     H51149   8.484   6.470   2.034  2.8205 -4.8250 -0.1757
  371MOL0     H51150   8.425   6.316   2.223  1.7793  1.3701  0.2144
  371MOL0     H51151   8.398   6.498   2.242 -0.8276  0.8021  0.2599
  371MOL0     H51152   8.161   6.486   2.218  0.4102 -0.5205  3.0791
  371MOL0     H51153   8.161   6.337   2.126 -1.1683  0.1644  0.8005
  371MOL0     H51154   8.090   6.334   2.386  1.0107  0.0022  1.7893
  371MOL0     H51155   8.219   6.213   2.318  0.3710  0.3384 -2.6129
  371MOL0     H51156   8.484   6.436   2.567  2.2916 -1.0115 -2.2406
  371MOL0     H51157   8.704   6.249   2.794 -0.0477 -1.8230 -1.7404
  371MOL0     H51158   8.580   6.355   2.854  0.9128 -1.4007  1.1510
  371MOL0     H51159   8.672   6.396   2.710 -1.1615  0.3056 -0.0666
  371MOL0     H51160   8.781   6.077   3.017  0.8258 -1.4038 -2.2859
  371MOL0     H51161   8.869   5.909   3.199  0.1207 -0.0962 -2.8077
  371MOL0     H51162   8.679   5.573   3.431 -0.3322 -0.7949 -0.4620
  371MOL0     H51163   8.625   5.569   3.269 -1.6250  1.1990  0.0917
  371MOL0     H51164   8.830   5.445   3.247 -1.0721 -1.9051  3.9912
  371MOL0     H51165   8.913   5.596   3.235  0.4930  0.1536  0.2327
  371MOL0     H51166   8.931   5.602   3.481  1.1682 -0.1755  0.1886
  371MOL0     H51167   9.039   5.498   3.388  0.3561  0.3271  1.3776
  371MOL0     H51168   8.898   5.302   3.448  0.5114 -0.0174  1.7794
  371MOL0     H51169   8.794   5.411   3.534 -0.5155 -2.0165 -1.6805
  371MOL0     H51170   8.981   5.476   3.670 -0.2060 -0.0839 -1.0713
  371MOL0     H51171   8.933   5.312   3.691  1.6099  2.8361  2.9346
  371MOL0     H51172   9.169   5.422   3.533 -1.5420  1.0891 -0.1573
  371MOL0     H51173   9.137   5.251   3.530 -0.6358 -1.0187  2.2822
  371MOL0     H51174   9.183   5.231   3.761 -1.0761 -0.9834 -1.0911
  371MOL0     H51175   9.170   5.419   3.767 -1.0638  0.0535 -1.6137
  371MOL0     H51176   9.381   5.274   3.617 -1.1821 -1.9284  0.7220
  371MOL0     H51177   9.404   5.306   3.788  0.3791  0.2046 -0.0972
  371MOL0     H51178   8.491   5.728   3.228  2.0698 -1.1039  1.6819
  371MOL0     H51179   8.415   5.858   3.036 -0.5460 -0.9363  0.2917
  371MOL0     H51180   8.350   5.961   2.652  1.0081 -0.2418 -2.8240
  371MOL0     H51181   8.218   6.106   2.494  1.1442 -0.7185  0.5396
  371MOL0     H51182   7.731   6.220   1.128  1.2516  3.0436 -3.5036
  371MOL0     H51183   7.527   6.272   1.034 -1.0714  0.1582 -0.6616
  371MOL0     H51184   7.289   6.079   0.650  0.1263  1.9682  1.3662
  371MOL0     H51185   7.101   6.045   0.498 -2.4115 -1.7346  0.1419
  371MOL0     H51186   6.634   6.038   0.507  0.3543 -0.1538  0.3554
  371MOL0     H51187   6.675   6.054   0.675  0.6471 -1.5007  0.2983
  371MOL0     H51188   6.753   6.292   0.639 -0.7976 -0.0584  1.1850
  371MOL0     H51189   6.590   6.265   0.588  0.4934  0.1438 -1.9498
  371MOL0     H51190   6.836   6.293   0.409  0.2987  2.6792  1.8727
  371MOL0     H51191   6.686   6.214   0.350 -4.8559 -0.4149  2.0791
  371MOL0     H51192   6.548   6.405   0.391 -0.1694 -0.9516  2.3525
  371MOL0     H51193   6.691   6.471   0.312 -1.2463 -1.0217 -1.0488
  371MOL0     H51194   6.770   6.671   0.655 -2.7002 -0.9521  2.6176
  371MOL0     H51195   6.820   6.095   0.811 -0.7489  0.9264 -0.2949
  371MOL0     H51196   6.920   6.063   1.035 -1.0547  0.8517  1.3434
  371MOL0     H51197   7.068   6.135   1.067 -0.3579 -3.8965  0.0007
  371MOL0     H51198   6.943   6.248   1.013 -1.3681 -0.7590 -0.8432
  372MOL0     O51199   8.835   8.476   3.600  0.2741  0.5249  0.2466
  372MOL0     C51200   8.783   8.580   3.652  0.5682  0.2381 -1.6028
  372MOL0     O51201   8.660   8.579   3.711  0.1992  0.7311  0.0092
  372MOL0     C51202   8.613   8.454   3.719  0.0769  0.8137 -1.1229
  372MOL0     C51203   8.655   8.372   3.834 -0.3486 -0.7280  0.7241
  372MOL0     C51204   8.602   8.244   3.859  0.6996 -0.9492  0.1048
  372MOL0     C51205   8.522   8.186   3.751 -0.5754 -0.8697 -0.0506
  372MOL0     O51206   8.491   8.052   3.768  0.6095  0.2463 -0.0297
  372MOL0     C51207   8.389   7.983   3.694 -0.0090 -0.2135 -0.5642
  372MOL0     C51208   8.365   7.845   3.757 -0.0200 -0.0843 -1.6879
  372MOL0     C51209   8.250   7.763   3.701  0.2697  0.2437  0.3078
  372MOL0     C51210   8.109   7.837   3.687  0.1380 -0.2151 -0.5213
  372MOL0     C51211   8.000   7.737   3.646 -0.5483 -0.3237 -0.4864
  372MOL0     C51212   7.958   7.636   3.743 -0.1224  0.6246 -0.3533
  372MOL0     C51213   7.840   7.570   3.690  0.2371  1.0010 -0.7005
  372MOL0     C51214   7.811   7.437   3.765  0.1851 -0.2084  0.4034
  372MOL0     N51215   7.750   7.473   3.890 -0.0161  0.0800 -0.6153
  372MOL0     C51216   7.808   7.456   4.011  0.5019  0.2462 -0.0173
  372MOL0     C51217   7.714   7.483   4.102  0.0714  1.1343  0.0761
  372MOL0     C51218   7.720   7.508   4.242  0.3635  1.2005 -0.1590
  372MOL0     C51219   7.601   7.587   4.278  0.5940  0.8121  0.1433
  372MOL0     C51220   7.619   7.653   4.413 -0.2111 -0.4125 -0.1847
  372MOL0     C51221   7.634   7.552   4.522  0.4590 -0.8630 -0.5616
  372MOL0     O51222   7.635   7.631   4.644  0.3863 -0.2138 -0.2018
  372MOL0     C51223   7.591   7.555   4.745  0.6044 -0.8622 -0.7494
  372MOL0     C51224   7.677   7.477   4.821  0.1274 -0.3967  0.2565
  372MOL0     C51225   7.638   7.387   4.917  1.2773  0.7657  0.3976
  372MOL0     C51226   7.739   7.305   4.989  0.6011 -0.0593 -0.6662
  372MOL0     C51227   7.492   7.386   4.949  0.2399 -0.8575  0.6905
  372MOL0     C51228   7.429   7.293   5.041  0.6469  0.2748  0.1317
  372MOL0     O51229   7.501   7.253   5.155 -0.4113  0.2212 -0.3352
  372MOL0     C51230   7.452   7.161   5.247  0.4802  1.0583 -0.2147
  372MOL0     C51231   7.325   7.160   5.303  0.1450  0.6356 -0.1094
  372MOL0     C51232   7.293   7.077   5.419 -0.4884 -0.2131  1.5080
  372MOL0     C51233   7.391   6.996   5.470 -0.1481 -0.0633  0.4393
  372MOL0     O51234   7.372   6.905   5.573 -0.5209 -0.0406  0.7767
  372MOL0     C51235   7.238   6.849   5.587  1.1392  0.6798 -0.0094
  372MOL0     C51236   7.206   6.772   5.717  0.6414 -0.6243  0.3991
  372MOL0     C51237   7.123   6.641   5.703 -0.2203  0.3385 -0.6269
  372MOL0     C51238   7.126   6.574   5.839  0.0301 -0.4840  1.4979
  372MOL0     C51239   7.054   6.434   5.828  0.3357 -0.5854  0.1444
  372MOL0     C51240   7.062   6.364   5.965 -0.5146  0.1676 -0.1033
  372MOL0     C51241   6.947   6.276   5.999 -0.1371  0.2772 -0.1496
  372MOL0     C51242   6.983   6.184   6.122  0.1127 -0.5456 -0.4595
  372MOL0    Cl51243   6.852   6.066   6.178 -0.0892 -0.2650  0.0624
  372MOL0     C51244   7.517   6.997   5.420 -0.3208 -0.2915 -0.6070
  372MOL0     C51245   7.548   7.072   5.302 -1.6685  0.6676 -0.4010
  372MOL0     O51246   7.323   7.239   4.999 -0.1182  0.2631 -0.1230
  372MOL0     C51247   7.410   7.472   4.873  0.7613  0.1009  0.3129
  372MOL0     C51248   7.455   7.556   4.777 -0.3702  0.3352 -0.1397
  372MOL0     N51249   7.595   7.489   4.027 -0.1865 -0.4369 -0.5871
  372MOL0     N51250   7.621   7.468   3.903 -0.8630  0.1153 -0.8541
  372MOL0     C51251   8.485   8.264   3.642 -0.0420  0.6909  0.8296
  372MOL0     C51252   8.517   8.403   3.637  0.6879  0.5103  0.7025
  372MOL0     C51253   8.847   8.713   3.625  0.0818 -1.1684  0.3227
  372MOL0     C51254   8.772   8.836   3.629 -0.6494  0.4722  0.4987
  372MOL0     C51255   8.834   8.953   3.605 -0.4830  0.1057 -1.2356
  372MOL0     C51256   8.974   8.967   3.580 -1.0123  0.1362  0.6363
  372MOL0     O51257   9.038   9.090   3.584 -0.0652 -0.3369 -0.0802
  372MOL0     C51258   9.172   9.117   3.542 -0.4431 -0.9652  0.3045
  372MOL0     C51259   9.205   9.123   3.392 -0.1897  0.6033  0.5068
  372MOL0     C51260   9.280   8.994   3.342  0.6441  0.1409  0.0968
  372MOL0     C51261   9.356   9.005   3.214  0.0176  0.4947  0.3881
  372MOL0     C51262   9.360   8.893   3.127  0.2529 -0.4988  0.4872
  372MOL0     C51263   9.362   8.804   3.046 -0.3116 -0.0632 -0.7491
  372MOL0     C51264   9.054   8.848   3.583  0.0085  0.6998 -0.5154
  372MOL0     C51265   8.992   8.730   3.603  0.7180  0.2749  0.4726
  372MOL0     C51266   9.089   8.622   3.602  0.1949  0.8520 -0.6984
  372MOL0     H51267   8.730   8.414   3.899 -0.1192  0.9267 -0.5369
  372MOL0     H51268   8.616   8.193   3.954 -0.9603  0.7851  1.3473
  372MOL0     H51269   8.412   7.969   3.588  1.8873  0.0347 -0.2316
  372MOL0     H51270   8.305   8.051   3.709  1.8612  1.9351  1.0875
  372MOL0     H51271   8.459   7.788   3.756  0.5352  0.1117  4.0309
  372MOL0     H51272   8.346   7.854   3.865 -0.3295  0.9778 -1.8219
  372MOL0     H51273   8.276   7.715   3.606 -3.2233 -1.3439 -0.0221
  372MOL0     H51274   8.234   7.688   3.779  0.3514  2.6009  2.7113
  372MOL0     H51275   8.075   7.896   3.772 -1.0858 -0.9546 -0.4702
  372MOL0     H51276   8.105   7.907   3.603 -0.3977 -1.7025 -1.8004
  372MOL0     H51277   8.033   7.685   3.556  2.4805 -0.4141  0.5792
  372MOL0     H51278   7.914   7.803   3.625 -1.2464 -1.3951 -1.0826
  372MOL0     H51279   8.031   7.555   3.751  0.0759  0.6508 -1.6714
  372MOL0     H51280   7.934   7.681   3.839 -2.9335 -3.4324  1.1498
  372MOL0     H51281   7.845   7.541   3.585 -0.7326 -3.6984  0.3293
  372MOL0     H51282   7.747   7.626   3.701 -0.1193  0.4146 -0.6956
  372MOL0     H51283   7.741   7.367   3.718 -0.6949  1.3149 -0.6664
  372MOL0     H51284   7.902   7.381   3.786  1.6386  1.9450  0.2092
  372MOL0     H51285   7.909   7.426   4.038 -0.4769 -1.2331  2.2635
  372MOL0     H51286   7.809   7.567   4.265  2.0951  0.2507 -3.8036
  372MOL0     H51287   7.721   7.419   4.306 -5.9688  1.9088  1.6891
  372MOL0     H51288   7.590   7.657   4.195 -0.0829  1.2570  0.6038
  372MOL0     H51289   7.505   7.534   4.281  0.7001  0.6629  1.4932
  372MOL0     H51290   7.697   7.730   4.406 -2.2660  1.6967 -1.2144
  372MOL0     H51291   7.532   7.719   4.423  0.4321  0.8964 -2.5087
  372MOL0     H51292   7.552   7.480   4.510  0.3779 -1.3972  2.5419
  372MOL0     H51293   7.733   7.509   4.505 -1.3157 -4.1430 -4.8611
  372MOL0     H51294   7.782   7.493   4.797  0.9151  0.5347  3.7727
  372MOL0     H51295   7.688   7.212   5.015 -1.7391  1.2576 -0.2826
  372MOL0     H51296   7.786   7.359   5.072 -1.6126  1.7144 -0.4823
  372MOL0     H51297   7.814   7.277   4.914  1.2979 -0.7783  0.2702
  372MOL0     H51298   7.245   7.231   5.280 -3.3658 -2.3459  1.7781
  372MOL0     H51299   7.188   7.083   5.443 -1.2192  0.7479 -1.4761
  372MOL0     H51300   7.158   6.920   5.565 -0.7272 -1.6059 -1.0752
  372MOL0     H51301   7.233   6.763   5.519  0.6955  1.9434 -1.6532
  372MOL0     H51302   7.300   6.759   5.771  0.3192 -3.9364  0.3705
  372MOL0     H51303   7.147   6.849   5.769 -1.2424  0.9857 -3.6955
  372MOL0     H51304   7.163   6.573   5.627 -2.9047  1.4205 -3.2113
  372MOL0     H51305   7.016   6.654   5.682 -0.4022 -1.9072 -1.3566
  372MOL0     H51306   7.069   6.633   5.911 -3.3111  1.5009 -2.3166
  372MOL0     H51307   7.225   6.544   5.874  0.5967  0.3893  0.7209
  372MOL0     H51308   6.950   6.453   5.802  0.6839  0.3105 -0.6293
  372MOL0     H51309   7.100   6.369   5.753 -1.5724 -3.3522  1.1873
  372MOL0     H51310   7.065   6.440   6.044  1.0876  3.1259 -2.7821
  372MOL0     H51311   7.162   6.319   5.965  0.5365  2.0457 -3.7802
  372MOL0     H51312   6.929   6.209   5.914  1.9470  1.7703 -1.8882
  372MOL0     H51313   6.855   6.331   6.020 -0.4924 -0.3277 -0.0912
  372MOL0     H51314   6.993   6.251   6.208  0.7932 -0.9639 -0.2040
  372MOL0     H51315   7.080   6.139   6.101  0.0174 -1.0241  0.0765
  372MOL0     H51316   7.595   6.943   5.473  1.2608  1.7437 -0.7296
  372MOL0     H51317   7.648   7.074   5.261 -1.8145  0.0996 -0.8109
  372MOL0     H51318   7.304   7.483   4.893  0.6196  0.9884 -0.8939
  372MOL0     H51319   7.378   7.609   4.723  0.3589 -0.1727 -1.7493
  372MOL0     H51320   8.439   8.218   3.556 -1.3876 -0.4110  2.0828
  372MOL0     H51321   8.480   8.464   3.555 -0.1437  1.0914  1.4867
  372MOL0     H51322   8.665   8.851   3.637 -1.1815 -3.1820  3.2152
  372MOL0     H51323   8.775   9.044   3.602 -2.2856 -0.8215  1.8218
  372MOL0     H51324   9.194   9.210   3.594  0.7507 -1.3206  0.4706
  372MOL0     H51325   9.238   9.041   3.585  0.3487  0.7220  2.1966
  372MOL0     H51326   9.264   9.212   3.369 -0.9343  1.0945  0.4603
  372MOL0     H51327   9.108   9.131   3.341 -0.7527 -2.5631  0.8516
  372MOL0     H51328   9.357   8.974   3.416  3.3335  1.6322 -2.1096
  372MOL0     H51329   9.198   8.922   3.346 -2.1650  3.0709  5.1532
  372MOL0     H51330   9.458   9.025   3.247 -0.4276 -1.1212  3.0291
  372MOL0     H51331   9.322   9.097   3.165  0.8299 -0.0028 -1.1613
  372MOL0     H51332   9.355   8.723   2.977 -0.5585  1.9431 -3.2181
  372MOL0     H51333   9.162   8.859   3.587 -0.0206  0.6723  2.3957
  372MOL0     H51334   9.168   8.656   3.670 -2.7082  1.4316  2.7489
  372MOL0     H51335   9.058   8.529   3.652  2.2908 -0.9852 -2.6442
  372MOL0     H51336   9.115   8.610   3.497  1.8700  0.2258 -0.2366
  373MOL0     O51337  10.223   6.329   1.531  0.4123 -0.7973 -0.3142
  373MOL0     C51338  10.305   6.418   1.556  0.2990  0.0356 -0.6188
  373MOL0     O51339  10.404   6.473   1.479  0.1479  0.0240 -0.6756
  373MOL0     C51340  10.421   6.406   1.367 -0.4492  0.5260 -0.8274
  373MOL0     C51341  10.548   6.338   1.364  0.6562 -1.0888 -0.3888
  373MOL0     C51342  10.572   6.263   1.250  0.1332  0.3522  0.1282
  373MOL0     C51343  10.479   6.256   1.147  0.1532 -0.2908  0.1697
  373MOL0     O51344  10.523   6.190   1.040  0.3618  0.2963  0.2364
  373MOL0     C51345  10.447   6.088   0.971  0.3753 -1.8790  0.0947
  373MOL0     C51346  10.545   5.978   0.934  0.3171  0.5088 -1.0232
  373MOL0     C51347  10.677   6.011   0.859  1.0294  0.5797 -1.3946
  373MOL0     C51348  10.661   6.099   0.734 -0.2080  0.7441 -0.0042
  373MOL0     C51349  10.790   6.107   0.652  0.5171  0.0244  0.3663
  373MOL0     C51350  10.754   6.140   0.506 -0.0591 -0.2484  0.4902
  373MOL0     C51351  10.885   6.171   0.434 -0.1764  1.0042 -0.6579
  373MOL0     C51352  10.988   6.060   0.430  0.4331  0.4767  0.1805
  373MOL0     N51353  10.961   5.927   0.376  0.1248 -0.0591 -0.3979
  373MOL0     C51354  10.900   5.909   0.253 -0.9469 -0.5102  0.5500
  373MOL0     C51355  10.862   5.780   0.256 -0.0226  0.3065 -0.0607
  373MOL0     C51356  10.805   5.700   0.142 -0.5662  0.2281  0.6263
  373MOL0     C51357  10.674   5.757   0.077  0.6736  0.1122  0.7049
  373MOL0     C51358  10.585   5.664  -0.015 -1.1377 -0.0387  0.4521
  373MOL0     C51359  10.525   5.542   0.055  0.8319  0.2107  0.2800
  373MOL0     O51360  10.420   5.496  -0.037  0.5300  0.1635  0.0119
  373MOL0     C51361  10.329   5.399   0.003  0.2831 -0.3621 -0.7693
  373MOL0     C51362  10.284   5.304  -0.090  0.0739 -0.4054 -0.3876
  373MOL0     C51363  10.187   5.204  -0.056  0.6114  0.0142  0.2338
  373MOL0     C51364  10.114   5.132  -0.161 -0.9778 -0.4273 -0.4024
  373MOL0     C51365  10.162   5.172   0.075 -1.1117 -1.0594  0.8799
  373MOL0     C51366  10.089   5.045   0.129 -0.4081  0.5324  0.0892
  373MOL0     O51367  10.123   5.002   0.257 -0.8065 -0.0745  0.1598
  373MOL0     C51368  10.025   4.929   0.323 -0.4005 -0.3645  0.7666
  373MOL0     C51369   9.978   4.987   0.452 -1.0401  0.4722  0.0359
  373MOL0     C51370   9.888   4.903   0.534 -0.9411 -0.2910  0.4849
  373MOL0     C51371   9.845   4.775   0.489 -0.4925  0.2370  0.4871
  373MOL0     O51372   9.754   4.704   0.567 -0.4850  0.3455  0.0108
  373MOL0     C51373   9.614   4.740   0.556 -0.4275  0.2380 -0.2858
  373MOL0     C51374   9.563   4.755   0.702  0.0499  0.0695  0.4838
  373MOL0     C51375   9.405   4.752   0.716  1.5252 -0.3770  0.4212
  373MOL0     C51376   9.363   4.725   0.859  0.2545  0.1854  0.2915
  373MOL0     C51377   9.201   4.734   0.859 -0.4381  0.5103 -0.3161
  373MOL0     C51378   9.126   4.600   0.826 -0.5505  0.3762  0.0098
  373MOL0     C51379   9.104   4.527   0.958  0.8519  0.7720 -0.7269
  373MOL0     C51380   9.033   4.389   0.934 -0.3262  0.1927  0.2628
  373MOL0    Cl51381   9.128   4.281   0.834  0.0181 -0.1817  0.4459
  373MOL0     C51382   9.892   4.729   0.362 -0.1260  1.0889  0.0064
  373MOL0     C51383   9.984   4.801   0.290  0.7347  0.7846 -0.4359
  373MOL0     O51384  10.013   4.984   0.045 -0.2458  0.3643 -0.4593
  373MOL0     C51385  10.228   5.258   0.172  0.5062 -0.7345  0.8174
  373MOL0     C51386  10.306   5.369   0.136  0.2967 -0.3786 -0.4374
  373MOL0     N51387  10.889   5.731   0.376 -0.2034  0.3041 -0.7454
  373MOL0     N51388  10.951   5.812   0.456 -0.3089 -0.6951  0.5140
  373MOL0     C51389  10.357   6.310   1.157  0.2403 -0.9175 -0.9731
  373MOL0     C51390  10.328   6.383   1.264 -0.1405 -0.1540  0.2762
  373MOL0     C51391  10.303   6.476   1.689  1.0239 -0.0387 -0.1758
  373MOL0     C51392  10.300   6.620   1.694  0.5734 -0.2001  0.2757
  373MOL0     C51393  10.300   6.691   1.814 -0.1793  0.9150 -0.2566
  373MOL0     C51394  10.286   6.617   1.933  0.1370  1.4788  0.2565
  373MOL0     O51395  10.263   6.675   2.062 -0.5524 -0.1774  0.5457
  373MOL0     C51396  10.234   6.816   2.063 -0.4732  0.2414 -0.1081
  373MOL0     C51397  10.217   6.873   2.203  0.0916 -0.9995 -0.3773
  373MOL0     C51398  10.219   7.030   2.193 -0.2604  0.0995  0.7561
  373MOL0     C51399  10.271   7.072   2.326  0.3034  0.1719  0.1633
  373MOL0     C51400  10.278   7.221   2.334  0.5340 -0.3309 -0.4097
  373MOL0     C51401  10.284   7.341   2.359 -0.6902 -0.2617 -0.6439
  373MOL0     C51402  10.284   6.472   1.928  0.9122 -0.5648 -0.1249
  373MOL0     C51403  10.299   6.398   1.813  0.7943  0.5247 -0.1267
  373MOL0     C51404  10.326   6.250   1.811  0.8022  0.1045 -0.7838
  373MOL0     H51405  10.618   6.326   1.446  0.1982  1.0568  0.3875
  373MOL0     H51406  10.668   6.212   1.240 -0.0712 -0.1709  0.7378
  373MOL0     H51407  10.403   6.128   0.879  0.2620  2.3974  1.7588
  373MOL0     H51408  10.367   6.049   1.035 -1.5783  0.1806 -0.9150
  373MOL0     H51409  10.565   5.944   1.036 -0.0335  3.4625  0.1280
  373MOL0     H51410  10.497   5.910   0.863 -1.8461 -0.1604  0.9435
  373MOL0     H51411  10.753   6.066   0.916  1.4074 -1.3436  0.0656
  373MOL0     H51412  10.713   5.911   0.832 -1.6028 -1.7451  2.6553
  373MOL0     H51413  10.574   6.056   0.683  0.0335 -0.1305  0.3039
  373MOL0     H51414  10.638   6.201   0.766  0.7247  1.1288 -0.5166
  373MOL0     H51415  10.843   6.011   0.652 -1.4990 -1.2330 -2.0686
  373MOL0     H51416  10.841   6.193   0.695 -0.3559  0.4237  0.6319
  373MOL0     H51417  10.706   6.052   0.464  1.1646  0.5645 -2.9164
  373MOL0     H51418  10.691   6.230   0.499 -0.7039 -0.8271 -2.2746
  373MOL0     H51419  10.930   6.252   0.493 -2.2397  1.2847  0.6487
  373MOL0     H51420  10.857   6.217   0.339 -0.2812 -0.4819 -1.3627
  373MOL0     H51421  11.075   6.095   0.372  0.5102  0.9410  0.5737
  373MOL0     H51422  11.021   6.046   0.533 -3.1017 -3.3713  1.0458
  373MOL0     H51423  10.888   5.982   0.173  2.8795  0.2376  0.4995
  373MOL0     H51424  10.782   5.608   0.197  0.3282  0.7645  1.9385
  373MOL0     H51425  10.880   5.683   0.064  0.0994 -4.2161  1.9227
  373MOL0     H51426  10.600   5.800   0.146 -0.2124  0.2463 -0.2995
  373MOL0     H51427  10.697   5.854   0.034 -4.0924  1.1542 -0.1115
  373MOL0     H51428  10.501   5.720  -0.057 -1.6338  0.4538  2.0355
  373MOL0     H51429  10.651   5.635  -0.097 -0.3600  0.6710  0.8158
  373MOL0     H51430  10.598   5.465   0.082  3.4838  1.4064 -2.8936
  373MOL0     H51431  10.485   5.584   0.148 -0.9330  0.4469 -0.5416
  373MOL0     H51432  10.315   5.302  -0.194  0.3095  4.3925 -0.6610
  373MOL0     H51433  10.139   5.025  -0.164 -1.1763 -0.5291  0.9210
  373MOL0     H51434  10.126   5.176  -0.260  0.3163 -0.5538 -0.3197
  373MOL0     H51435  10.009   5.143  -0.132 -0.7800  0.8110 -0.1141
  373MOL0     H51436  10.017   5.081   0.490  1.4480 -0.8102  0.8742
  373MOL0     H51437   9.856   4.943   0.630 -1.6273  0.3704 -0.0079
  373MOL0     H51438   9.610   4.831   0.496  2.4577  0.4101 -0.3880
  373MOL0     H51439   9.565   4.655   0.509 -1.2580  0.1011  0.7789
  373MOL0     H51440   9.601   4.658   0.738  3.3383  1.2663  0.5622
  373MOL0     H51441   9.608   4.835   0.762 -2.4082  0.3151  2.1513
  373MOL0     H51442   9.372   4.663   0.662  2.5022 -1.7786  2.0513
  373MOL0     H51443   9.371   4.850   0.679  0.9850 -0.8377 -0.3448
  373MOL0     H51444   9.408   4.803   0.922  0.2690  1.0107 -0.7231
  373MOL0     H51445   9.395   4.626   0.893  3.1545  2.0453  3.7636
  373MOL0     H51446   9.157   4.771   0.952 -0.4178  0.5625 -0.3274
  373MOL0     H51447   9.173   4.814   0.790  1.3960  1.2916 -0.2031
  373MOL0     H51448   9.189   4.534   0.766  0.5747  1.2008  0.2510
  373MOL0     H51449   9.031   4.615   0.774  0.3384 -0.6407 -2.0562
  373MOL0     H51450   9.036   4.599   1.004 -1.9671 -2.3788  0.4971
  373MOL0     H51451   9.201   4.508   1.006 -0.0278 -0.3454  0.6826
  373MOL0     H51452   8.936   4.409   0.888 -1.5559 -2.2338  1.6061
  373MOL0     H51453   9.012   4.337   1.028 -0.5605 -1.6525 -0.7682
  373MOL0     H51454   9.873   4.633   0.316  3.5658  0.1296  0.1357
  373MOL0     H51455  10.027   4.755   0.201 -2.8054 -2.1010 -0.8784
  373MOL0     H51456  10.216   5.242   0.278 -1.1429  2.2610  1.2020
  373MOL0     H51457  10.339   5.437   0.215  0.9306 -0.8919 -0.2464
  373MOL0     H51458  10.282   6.304   1.079 -5.1413 -0.4295  3.5474
  373MOL0     H51459  10.222   6.403   1.275 -0.0498  1.1929 -0.9558
  373MOL0     H51460  10.269   6.676   1.606  0.2274  0.9005  1.0757
  373MOL0     H51461  10.298   6.800   1.808  1.0720  0.8826 -2.7521
  373MOL0     H51462  10.311   6.874   2.011  0.2116  0.0478  0.6623
  373MOL0     H51463  10.136   6.839   2.020 -0.8665  3.1653  2.0979
  373MOL0     H51464  10.298   6.841   2.270  1.2610  1.3931 -0.5428
  373MOL0     H51465  10.123   6.844   2.252  0.4187 -0.9035  0.3268
  373MOL0     H51466  10.285   7.070   2.115  0.3411  3.7316  2.8638
  373MOL0     H51467  10.125   7.079   2.167  1.9101  4.0385 -0.5425
  373MOL0     H51468  10.371   7.033   2.347  0.7687  1.7235  0.9879
  373MOL0     H51469  10.205   7.033   2.404  4.1623 -0.6441  3.3195
  373MOL0     H51470  10.281   7.442   2.394 -1.9914 -0.5232  0.0722
  373MOL0     H51471  10.272   6.418   2.021 -2.3971  2.2681  1.2970
  373MOL0     H51472  10.234   6.201   1.778 -0.3424  1.2781  0.5214
  373MOL0     H51473  10.410   6.233   1.743  1.2239 -0.5409 -0.1153
  373MOL0     H51474  10.360   6.214   1.909 -0.9492 -2.3270 -0.9866
  374MOL0     O51475  11.254   2.923   3.061 -0.0321 -0.8802 -0.2226
  374MOL0     C51476  11.149   2.860   3.056 -0.5508  1.1123 -0.0076
  374MOL0     O51477  11.037   2.903   2.993 -0.5124  0.5028  0.3131
  374MOL0     C51478  11.026   3.033   2.945 -0.5978  0.2623 -0.0887
  374MOL0     C51479  11.017   3.138   3.040  0.2123  0.1706  0.8969
  374MOL0     C51480  11.027   3.267   2.994 -0.1921 -0.2565 -1.1373
  374MOL0     C51481  11.009   3.294   2.864  0.0284 -0.8739 -0.7512
  374MOL0     O51482  10.990   3.422   2.822  0.4032  0.8625  0.3897
  374MOL0     C51483  11.065   3.460   2.705 -0.4931 -0.4239  0.2400
  374MOL0     C51484  11.121   3.599   2.746  0.1207  0.3782  0.6718
  374MOL0     C51485  11.224   3.637   2.639 -0.3655  0.1181  0.6084
  374MOL0     C51486  11.361   3.578   2.633  0.3886 -0.5125 -0.5919
  374MOL0     C51487  11.458   3.612   2.514 -0.1985  0.7411  0.0410
  374MOL0     C51488  11.599   3.555   2.549 -0.1946  1.0630  0.1497
  374MOL0     C51489  11.650   3.442   2.468  0.5768  0.3675  0.7129
  374MOL0     C51490  11.685   3.482   2.321 -0.5650 -0.1401 -1.1244
  374MOL0     N51491  11.700   3.362   2.237  0.7751 -0.7750 -0.7129
  374MOL0     C51492  11.601   3.270   2.200 -0.0278 -0.1817 -1.2797
  374MOL0     C51493  11.668   3.182   2.111 -0.2822 -0.5287 -0.6241
  374MOL0     C51494  11.610   3.065   2.034  0.2119 -0.8910  0.4400
  374MOL0     C51495  11.561   3.112   1.897 -0.5429 -0.3124 -0.6380
  374MOL0     C51496  11.460   3.212   1.921  0.1706 -0.0159  0.6768
  374MOL0     C51497  11.381   3.245   1.795 -0.9001 -0.5572 -0.2394
  374MOL0     O51498  11.296   3.136   1.767  0.0182  0.5163 -0.0394
  374MOL0     C51499  11.187   3.170   1.689  0.4454  0.3477  0.6096
  374MOL0     C51500  11.179   3.283   1.605 -0.4440 -0.5858 -0.5320
  374MOL0     C51501  11.064   3.308   1.535  0.5114  0.5210  0.6729
  374MOL0     C51502  11.083   3.424   1.437 -0.2596 -0.3046  0.7725
  374MOL0     C51503  10.951   3.227   1.550 -0.3815 -0.0271  0.1753
  374MOL0     C51504  10.828   3.243   1.472 -1.4559 -1.1971  0.0452
  374MOL0     O51505  10.760   3.130   1.439  0.0158  0.2301  0.4056
  374MOL0     C51506  10.629   3.141   1.480  0.3369 -0.0229  0.0048
  374MOL0     C51507  10.540   3.097   1.370  0.3528  0.5317  0.1574
  374MOL0     C51508  10.406   3.098   1.394 -0.0911 -0.6879 -0.8884
  374MOL0     C51509  10.346   3.144   1.515  0.4993  0.2199 -0.4148
  374MOL0     O51510  10.211   3.122   1.547 -0.7069 -0.3220  0.7379
  374MOL0     C51511  10.105   3.122   1.447 -0.8169 -0.1928  0.7374
  374MOL0     C51512  10.068   3.255   1.385 -0.0332 -0.1130  0.6600
  374MOL0     C51513  10.004   3.354   1.486  1.3650 -0.2029  0.2562
  374MOL0     C51514   9.864   3.322   1.512  1.2603 -0.3901  0.0315
  374MOL0     C51515   9.802   3.416   1.619  0.1402  0.1889  0.5857
  374MOL0     C51516   9.829   3.389   1.766 -0.2504 -0.6568 -0.2119
  374MOL0     C51517   9.747   3.280   1.828 -0.5020  1.3881  0.2784
  374MOL0     C51518   9.597   3.291   1.810  0.3359 -1.2115  0.1123
  374MOL0    Cl51519   9.528   3.154   1.920 -0.3722  0.3606 -0.1024
  374MOL0     C51520  10.432   3.208   1.607 -0.3927  0.3777 -0.1943
  374MOL0     C51521  10.569   3.194   1.598  0.2790 -0.8166  0.2907
  374MOL0     O51522  10.792   3.361   1.449  0.8812  0.6447  0.1081
  374MOL0     C51523  10.955   3.115   1.634 -1.2013 -0.3539 -0.6005
  374MOL0     C51524  11.075   3.080   1.699 -0.4588 -0.7989  0.1089
  374MOL0     N51525  11.797   3.230   2.093  0.6089 -0.4448  1.2508
  374MOL0     N51526  11.810   3.345   2.155 -0.4955  0.6158  0.1668
  374MOL0     C51527  10.991   3.192   2.775 -0.0382  1.2176  0.4865
  374MOL0     C51528  11.011   3.054   2.810 -0.2187 -0.7371 -0.4531
  374MOL0     C51529  11.138   2.724   3.118 -0.1917  0.1834  0.5346
  374MOL0     C51530  11.058   2.632   3.047 -0.5195 -0.2654 -0.5523
  374MOL0     C51531  11.034   2.503   3.086 -0.9204 -0.0537 -0.2894
  374MOL0     C51532  11.071   2.471   3.219 -0.4040 -0.5006 -0.3430
  374MOL0     O51533  11.056   2.347   3.270 -0.0407 -0.0991 -0.0004
  374MOL0     C51534  10.942   2.262   3.224  0.6899 -0.8743  0.2088
  374MOL0     C51535  10.803   2.319   3.236  0.2781 -0.5574  0.8714
  374MOL0     C51536  10.775   2.378   3.365  0.0380  0.4684  0.6543
  374MOL0     C51537  10.621   2.384   3.401 -0.4909 -0.1618 -0.1161
  374MOL0     C51538  10.533   2.453   3.306 -0.1995 -0.1791 -0.1755
  374MOL0     C51539  10.466   2.516   3.227  0.7098  1.0759  0.3636
  374MOL0     C51540  11.153   2.557   3.294  0.3573  0.2310 -0.4605
  374MOL0     C51541  11.189   2.681   3.249 -0.3447  0.4648  0.6306
  374MOL0     C51542  11.280   2.769   3.333 -0.4677  0.1975  0.1723
  374MOL0     H51543  11.007   3.109   3.144  0.3171 -4.9701 -0.2494
  374MOL0     H51544  11.022   3.343   3.072  1.1141 -1.9388  0.6602
  374MOL0     H51545  11.010   3.468   2.610 -0.9774 -0.2803  0.5307
  374MOL0     H51546  11.143   3.388   2.679 -0.4163 -0.1407 -0.3441
  374MOL0     H51547  11.040   3.673   2.737 -1.3101 -1.0037  1.6728
  374MOL0     H51548  11.163   3.596   2.847 -1.2204 -0.6233  1.2328
  374MOL0     H51549  11.172   3.621   2.544 -0.1344 -4.2795  1.0225
  374MOL0     H51550  11.213   3.746   2.641 -3.1086  0.1878 -3.8005
  374MOL0     H51551  11.407   3.618   2.724  1.5364  1.9943 -2.1733
  374MOL0     H51552  11.352   3.469   2.635 -1.0656 -0.4274  1.6052
  374MOL0     H51553  11.459   3.720   2.499  4.9667  0.8562 -0.4634
  374MOL0     H51554  11.426   3.571   2.418 -1.9339  0.4892  0.6861
  374MOL0     H51555  11.664   3.641   2.532  1.7935 -0.4211 -0.0771
  374MOL0     H51556  11.607   3.527   2.654 -1.1929  0.8765  0.1917
  374MOL0     H51557  11.568   3.370   2.462  1.9934 -1.2041 -0.9851
  374MOL0     H51558  11.742   3.399   2.508 -0.8175 -0.9753  2.6674
  374MOL0     H51559  11.603   3.537   2.275 -2.5042  0.1365  2.3700
  374MOL0     H51560  11.777   3.541   2.321 -0.9350  0.5430  1.5671
  374MOL0     H51561  11.494   3.258   2.213  0.3809 -1.4197  1.8655
  374MOL0     H51562  11.534   3.019   2.097 -0.3939 -0.9750 -0.3421
  374MOL0     H51563  11.695   3.004   2.000 -0.6218 -0.2409 -3.2320
  374MOL0     H51564  11.650   3.131   1.837 -0.4639 -1.7516 -1.0136
  374MOL0     H51565  11.510   3.034   1.839  0.5671 -0.3887 -1.5298
  374MOL0     H51566  11.388   3.172   1.993 -1.8463 -3.8778 -3.0129
  374MOL0     H51567  11.491   3.309   1.961 -2.6400 -0.6232  5.0740
  374MOL0     H51568  11.322   3.335   1.819 -1.2438 -0.6105 -0.8594
  374MOL0     H51569  11.447   3.265   1.710 -0.1856  0.3105  0.5023
  374MOL0     H51570  11.264   3.350   1.600  1.7260 -2.5815  4.0922
  374MOL0     H51571  11.040   3.514   1.483  1.5613  2.0278 -1.8463
  374MOL0     H51572  11.039   3.410   1.338  1.2674 -1.9654  0.2818
  374MOL0     H51573  11.188   3.447   1.419  0.0027 -1.8154  0.2438
  374MOL0     H51574  10.564   3.057   1.272 -1.0399 -1.6493  0.6363
  374MOL0     H51575  10.346   3.053   1.316 -1.6590  0.4023 -0.3591
  374MOL0     H51576  10.126   3.066   1.356  1.7492  1.9837 -0.1478
  374MOL0     H51577  10.025   3.073   1.502  1.1405  0.3976  4.4280
  374MOL0     H51578  10.159   3.311   1.360 -0.9715  1.0141 -0.3634
  374MOL0     H51579  10.014   3.238   1.292  0.5581  1.5175 -0.0155
  374MOL0     H51580  10.005   3.457   1.450 -0.6119  0.2667  1.4247
  374MOL0     H51581  10.063   3.357   1.578  0.6061  0.7206  0.7360
  374MOL0     H51582   9.853   3.219   1.546 -3.0685 -0.7240 -1.7532
  374MOL0     H51583   9.799   3.345   1.427  1.2288  2.3189  0.6799
  374MOL0     H51584   9.845   3.516   1.611  0.3716  0.2432  2.1147
  374MOL0     H51585   9.693   3.417   1.613 -0.1473 -0.6364  3.7946
  374MOL0     H51586   9.800   3.480   1.819 -2.7923 -0.8513 -1.0996
  374MOL0     H51587   9.937   3.374   1.776 -0.4113 -0.1495  3.3271
  374MOL0     H51588   9.769   3.273   1.935  0.2471 -0.7152  0.0331
  374MOL0     H51589   9.767   3.180   1.787  1.1572  1.8944 -0.2411
  374MOL0     H51590   9.565   3.285   1.705  0.9915 -0.8535 -0.1192
  374MOL0     H51591   9.557   3.389   1.839  0.0026  0.1004 -4.0249
  374MOL0     H51592  10.393   3.244   1.701 -2.4953 -3.0621  0.4240
  374MOL0     H51593  10.629   3.216   1.685 -0.0165 -2.9611  1.0884
  374MOL0     H51594  10.867   3.053   1.620 -0.1831 -1.5257 -2.1589
  374MOL0     H51595  11.083   2.989   1.756 -2.2621 -2.0966 -1.5617
  374MOL0     H51596  10.961   3.203   2.671 -1.1040 -0.6799  0.5373
  374MOL0     H51597  11.000   2.971   2.741 -0.1681  0.2913 -1.7318
  374MOL0     H51598  11.022   2.659   2.948  0.6188  3.4557 -0.1049
  374MOL0     H51599  10.973   2.443   3.019 -0.6485  0.1466 -0.7259
  374MOL0     H51600  10.966   2.234   3.121  0.1974  1.4214 -0.5689
  374MOL0     H51601  10.937   2.165   3.276 -3.4029 -1.8057 -1.5746
  374MOL0     H51602  10.737   2.234   3.216 -1.7411  0.5698  2.3643
  374MOL0     H51603  10.799   2.393   3.156  1.2706 -0.3600  0.9873
  374MOL0     H51604  10.839   2.339   3.445  0.0870  0.4705  0.6169
  374MOL0     H51605  10.802   2.484   3.360 -0.6814  0.7205  1.8356
  374MOL0     H51606  10.605   2.421   3.502 -4.6257 -1.6594 -0.0551
  374MOL0     H51607  10.588   2.280   3.407 -0.1677 -0.1786  2.4894
  374MOL0     H51608  10.412   2.563   3.148 -2.4487 -3.0494 -0.2493
  374MOL0     H51609  11.194   2.520   3.388  1.6630 -1.3307 -1.5899
  374MOL0     H51610  11.324   2.724   3.422  0.0394  0.9380  0.3132
  374MOL0     H51611  11.365   2.798   3.270 -0.0258  0.2637  0.7898
  374MOL0     H51612  11.230   2.859   3.373 -0.5359  2.0230 -3.5813
  375MOL0     O51613  10.599   9.439   0.161  0.7006  0.7376  0.1189
  375MOL0     C51614  10.645   9.444   0.278  0.1999  0.0007 -0.1452
  375MOL0     O51615  10.699   9.330   0.350 -0.1328  0.4490 -0.4748
  375MOL0     C51616  10.686   9.205   0.291  0.3615 -0.3563  0.2539
  375MOL0     C51617  10.563   9.152   0.263  0.4965  0.1163 -0.0256
  375MOL0     C51618  10.564   9.031   0.191 -0.5114 -0.6498  0.8496
  375MOL0     C51619  10.676   8.956   0.165  0.4643  0.3953 -0.0541
  375MOL0     O51620  10.650   8.831   0.109  0.7151 -0.1695 -0.4250
  375MOL0     C51621  10.742   8.781   0.019  0.6992 -0.8811  0.5667
  375MOL0     C51622  10.686   8.643  -0.031  0.1708  0.2743  0.0419
  375MOL0     C51623  10.788   8.584  -0.133 -0.6057 -0.2421  0.2451
  375MOL0     C51624  10.732   8.454  -0.188 -0.5302 -0.4953 -0.9355
  375MOL0     C51625  10.834   8.384  -0.283 -0.0445  0.5626 -0.0363
  375MOL0     C51626  10.766   8.278  -0.363  0.4285  0.3059  0.4197
  375MOL0     C51627  10.639   8.317  -0.452  0.1764  0.0016 -0.9799
  375MOL0     C51628  10.601   8.220  -0.564  0.7193  0.4231  0.9386
  375MOL0     N51629  10.687   8.244  -0.678 -0.6790  0.4055  1.0782
  375MOL0     C51630  10.675   8.184  -0.801  0.4872 -0.1200 -0.1385
  375MOL0     C51631  10.742   8.262  -0.883 -0.3299  0.3989 -0.3597
  375MOL0     C51632  10.740   8.266  -1.029  0.2281 -0.6769  0.4737
  375MOL0     C51633  10.678   8.398  -1.091 -0.2322 -0.0104  0.1740
  375MOL0     C51634  10.537   8.416  -1.050  0.4588  0.5893  0.0651
  375MOL0     C51635  10.497   8.564  -1.103  0.6728 -0.4768  0.1864
  375MOL0     O51636  10.359   8.572  -1.139 -0.8038 -0.0484  0.1174
  375MOL0     C51637  10.253   8.575  -1.054  0.1591  0.7083 -0.5695
  375MOL0     C51638  10.128   8.543  -1.091  0.1587  0.0097 -0.0732
  375MOL0     C51639  10.015   8.560  -1.005 -0.7527 -0.0953 -0.5312
  375MOL0     C51640   9.887   8.502  -1.051  0.6074  0.7852  0.5344
  375MOL0     C51641  10.032   8.609  -0.870 -0.3728  0.8561  0.2896
  375MOL0     C51642   9.921   8.630  -0.762  0.3018  0.8293 -0.6777
  375MOL0     O51643   9.953   8.703  -0.660  0.1798 -0.5266 -0.0242
  375MOL0     C51644   9.873   8.726  -0.552 -0.8298 -0.7315  0.3663
  375MOL0     C51645   9.933   8.782  -0.430 -0.1240 -0.3348  0.2927
  375MOL0     C51646   9.856   8.822  -0.324  0.2424  0.3752  0.2302
  375MOL0     C51647   9.716   8.809  -0.323  0.2638  0.1520  0.6057
  375MOL0     O51648   9.634   8.831  -0.214 -0.9368  0.8721  0.2142
  375MOL0     C51649   9.538   8.944  -0.242 -0.4213 -0.4716 -0.1848
  375MOL0     C51650   9.621   9.071  -0.246  0.3874  0.4804  0.0444
  375MOL0     C51651   9.651   9.114  -0.101 -0.3017  0.2275  0.3797
  375MOL0     C51652   9.731   9.250  -0.093  0.5725  1.6790  0.2471
  375MOL0     C51653   9.650   9.365  -0.151 -0.5263 -0.0093 -0.2426
  375MOL0     C51654   9.526   9.387  -0.071 -0.1245 -0.0273  0.5247
  375MOL0     C51655   9.408   9.376  -0.168  1.2401 -0.2857 -0.2783
  375MOL0     C51656   9.381   9.511  -0.234  0.0312 -0.4336 -0.7114
  375MOL0    Cl51657   9.244   9.500  -0.344 -0.3119 -0.0259 -0.0919
  375MOL0     C51658   9.661   8.751  -0.436  0.1652 -0.4912  0.0658
  375MOL0     C51659   9.730   8.710  -0.551  0.6462  0.3706 -0.9058
  375MOL0     O51660   9.819   8.567  -0.773  0.6865  0.2181 -0.0154
  375MOL0     C51661  10.162   8.648  -0.836  0.7108 -0.1149 -0.2161
  375MOL0     C51662  10.271   8.632  -0.926  0.3605 -0.5634 -0.3152
  375MOL0     N51663  10.815   8.355  -0.810  0.3314  0.6232  0.4940
  375MOL0     N51664  10.784   8.341  -0.685 -0.2737  0.1321  0.9067
  375MOL0     C51665  10.808   9.010   0.197  0.3371 -0.4272 -1.3335
  375MOL0     C51666  10.804   9.141   0.254 -0.2884  0.0723 -0.1821
  375MOL0     C51667  10.644   9.575   0.349  0.4318  0.3294  0.4355
  375MOL0     C51668  10.672   9.569   0.488 -0.1203  0.5152  0.5449
  375MOL0     C51669  10.680   9.683   0.565  0.1152 -0.1041 -0.1268
  375MOL0     C51670  10.660   9.809   0.509  0.1287 -0.8814 -0.1646
  375MOL0     O51671  10.678   9.924   0.590 -0.1069 -0.1799 -0.4577
  375MOL0     C51672  10.826   9.941   0.614  0.8940  0.6286  0.5985
  375MOL0     C51673  10.850   9.979   0.760 -0.9361  0.3014  0.1082
  375MOL0     C51674  10.722  10.048   0.828 -0.4698  0.4887 -0.2809
  375MOL0     C51675  10.763  10.121   0.953  0.1195  0.3426 -0.2096
  375MOL0     C51676  10.655  10.134   1.040 -1.0477  0.2423  0.5123
  375MOL0     C51677  10.561  10.136   1.119  0.0740  0.5344  0.2655
  375MOL0     C51678  10.631   9.823   0.374  0.6267  0.1675  0.3256
  375MOL0     C51679  10.612   9.707   0.299 -0.4407 -0.7794  0.1822
  375MOL0     C51680  10.570   9.731   0.158 -0.2678  0.5559  0.0886
  375MOL0     H51681  10.475   9.213   0.278  1.0797  1.6819 -2.4055
  375MOL0     H51682  10.471   9.000   0.144 -0.0187 -0.6039 -0.1936
  375MOL0     H51683  10.836   8.769   0.074  1.1484 -1.4574 -0.3038
  375MOL0     H51684  10.746   8.858  -0.058  0.0817  0.0067  1.3992
  375MOL0     H51685  10.674   8.579   0.058  0.5460  2.0519  1.4219
  375MOL0     H51686  10.583   8.659  -0.064 -0.7130  4.5998  3.8462
  375MOL0     H51687  10.796   8.657  -0.214  1.2889  0.8956  1.3932
  375MOL0     H51688  10.888   8.569  -0.091  1.5344 -4.3940 -5.2206
  375MOL0     H51689  10.703   8.393  -0.102 -3.1457 -0.5593 -1.7758
  375MOL0     H51690  10.642   8.471  -0.247  0.2112 -0.3880 -2.0863
  375MOL0     H51691  10.916   8.349  -0.219 -1.0464  0.2174  1.0736
  375MOL0     H51692  10.869   8.456  -0.358  0.8074  1.9354  1.5940
  375MOL0     H51693  10.839   8.251  -0.440  0.2864 -0.0483  0.4052
  375MOL0     H51694  10.743   8.186  -0.308  0.0906 -0.9009 -1.5940
  375MOL0     H51695  10.647   8.419  -0.491  2.1182  0.6874  0.9797
  375MOL0     H51696  10.555   8.329  -0.383  1.8242  4.0144  0.6440
  375MOL0     H51697  10.602   8.115  -0.533  2.6260  1.2812  4.3299
  375MOL0     H51698  10.495   8.232  -0.588  0.7340  0.7394  1.0247
  375MOL0     H51699  10.616   8.097  -0.830  0.0098 -0.5336  1.8849
  375MOL0     H51700  10.692   8.173  -1.063  2.6005 -1.6110 -0.6031
  375MOL0     H51701  10.845   8.271  -1.060 -0.1310 -0.1784 -0.6963
  375MOL0     H51702  10.737   8.476  -1.043 -2.1654  1.6844 -0.0623
  375MOL0     H51703  10.692   8.403  -1.200  0.3489  1.0191  0.2761
  375MOL0     H51704  10.473   8.340  -1.096  1.9766 -0.5150 -0.2870
  375MOL0     H51705  10.527   8.401  -0.942  0.5068 -0.2346 -0.0352
  375MOL0     H51706  10.530   8.640  -1.031 -0.8009 -0.6834  1.1255
  375MOL0     H51707  10.557   8.590  -1.190 -0.0294 -1.2571 -0.5418
  375MOL0     H51708  10.104   8.502  -1.188 -1.9151 -3.7209  1.7742
  375MOL0     H51709   9.871   8.411  -0.993 -0.7791  0.3885 -0.4039
  375MOL0     H51710   9.893   8.464  -1.154 -0.3366  1.5835  0.1634
  375MOL0     H51711   9.802   8.571  -1.042 -1.5636 -1.6511  0.0564
  375MOL0     H51712  10.041   8.783  -0.434 -0.0968  1.2061  0.8348
  375MOL0     H51713   9.907   8.860  -0.236  1.3454 -1.7376  0.5562
  375MOL0     H51714   9.493   8.928  -0.341  1.5688 -1.2505 -1.0373
  375MOL0     H51715   9.461   8.943  -0.165 -0.6114  0.1094 -0.3670
  375MOL0     H51716   9.714   9.075  -0.303  2.0963  4.7283  2.5854
  375MOL0     H51717   9.570   9.144  -0.310 -0.8508 -1.2226 -0.9835
  375MOL0     H51718   9.711   9.030  -0.064 -0.7198 -0.5446 -0.6341
  375MOL0     H51719   9.554   9.116  -0.050 -0.1752  2.7896  0.6473
  375MOL0     H51720   9.819   9.246  -0.158 -0.1846  3.2711 -0.9498
  375MOL0     H51721   9.781   9.274   0.002  1.3549 -2.5210  1.0861
  375MOL0     H51722   9.704   9.459  -0.137 -0.1570 -0.3717  0.9159
  375MOL0     H51723   9.631   9.342  -0.256 -2.9058  0.8916 -0.0634
  375MOL0     H51724   9.527   9.492  -0.041  1.6851  0.3779 -0.8141
  375MOL0     H51725   9.501   9.322   0.014 -2.8365 -1.4402 -1.1929
  375MOL0     H51726   9.329   9.346  -0.098  2.5511 -0.3639  1.2300
  375MOL0     H51727   9.428   9.293  -0.236  1.3452 -0.2038 -0.3474
  375MOL0     H51728   9.475   9.539  -0.282  0.2009  1.5592  0.6685
  375MOL0     H51729   9.357   9.587  -0.159  3.9286 -1.1661  1.5855
  375MOL0     H51730   9.553   8.748  -0.428  0.0362  1.4275 -0.4371
  375MOL0     H51731   9.668   8.690  -0.637 -0.2646 -0.5238 -0.0658
  375MOL0     H51732  10.167   8.691  -0.736  2.4977 -0.0945 -0.2755
  375MOL0     H51733  10.367   8.650  -0.878 -0.9648  1.5696  1.7539
  375MOL0     H51734  10.903   8.975   0.160 -0.1798  0.4394 -3.6900
  375MOL0     H51735  10.897   9.198   0.263 -0.4024  0.1517  0.5832
  375MOL0     H51736  10.692   9.478   0.543 -0.6916 -1.4995 -2.3112
  375MOL0     H51737  10.682   9.684   0.673  2.8945  2.0889 -0.0892
  375MOL0     H51738  10.880   9.848   0.595  0.9822  0.9254 -0.6836
  375MOL0     H51739  10.860  10.015   0.541 -0.7090  0.8273  0.0195
  375MOL0     H51740  10.927  10.056   0.770  0.2208 -0.3974 -2.5134
  375MOL0     H51741  10.887   9.890   0.812 -0.9660 -1.5425 -2.7954
  375MOL0     H51742  10.668  10.123   0.771 -0.4690  2.7001  2.3886
  375MOL0     H51743  10.655   9.966   0.856  0.6047  0.6588  3.4218
  375MOL0     H51744  10.797  10.222   0.925 -2.0729  1.0890 -0.3876
  375MOL0     H51745  10.844  10.067   1.001 -2.2136 -1.3196  2.1436
  375MOL0     H51746  10.475  10.144   1.182  1.3135  0.8691  1.9703
  375MOL0     H51747  10.605   9.917   0.325  0.3355 -0.1190 -0.0761
  375MOL0     H51748  10.543   9.836   0.140 -0.3158  0.1845 -2.3938
  375MOL0     H51749  10.649   9.706   0.087 -0.2229 -2.6825  1.1079
  375MOL0     H51750  10.493   9.665   0.117  0.6312 -0.2344 -0.3662
  376MOL0     O51751  11.143   3.084  11.282  0.4602 -0.2680  0.4193
  376MOL0     C51752  11.162   3.019  11.182 -0.9278  0.5568 -0.2767
  376MOL0     O51753  11.116   2.891  11.164  0.0039 -0.2001  0.1737
  376MOL0     C51754  11.052   2.820  11.263 -0.6705  2.0336  0.4609
  376MOL0     C51755  11.077   2.682  11.266  0.4897 -0.3292 -0.8868
  376MOL0     C51756  10.997   2.601  11.348 -0.4066  0.1765 -1.0228
  376MOL0     C51757  10.900   2.660  11.437 -0.3218  0.4552  0.1120
  376MOL0     O51758  10.841   2.584  11.533  0.1539 -0.2057  0.5996
  376MOL0     C51759  10.814   2.444  11.514 -0.9357  0.4026 -0.5210
  376MOL0     C51760  10.730   2.393  11.626  0.7116  0.5141  0.9104
  376MOL0     C51761  10.596   2.470  11.629  0.4344 -0.1837  0.9169
  376MOL0     C51762  10.494   2.424  11.729  0.4532 -0.0746  0.4879
  376MOL0     C51763  10.366   2.523  11.745 -0.2774 -0.1958  0.7680
  376MOL0     C51764  10.302   2.551  11.607  0.7127 -0.5976 -0.6111
  376MOL0     C51765  10.147   2.592  11.615  0.8660 -0.6455  1.0212
  376MOL0     C51766  10.049   2.476  11.614 -0.1762  0.7644  0.2694
  376MOL0     N51767   9.906   2.504  11.608 -1.0424  0.6523  0.4302
  376MOL0     C51768   9.821   2.474  11.502 -0.1960  0.2243 -0.1499
  376MOL0     C51769   9.693   2.480  11.558  0.0565  0.1394  0.2843
  376MOL0     C51770   9.557   2.463  11.484 -0.3034 -1.1680 -0.0509
  376MOL0     C51771   9.483   2.589  11.448  0.5802 -0.3363  0.4223
  376MOL0     C51772   9.367   2.567  11.355  0.2026  1.0109  1.3824
  376MOL0     C51773   9.272   2.677  11.348  1.0939 -0.1610 -0.1300
  376MOL0     O51774   9.193   2.681  11.476  0.1730  0.5765 -0.6663
  376MOL0     C51775   9.115   2.800  11.469 -0.0544 -1.1346  0.3281
  376MOL0     C51776   9.016   2.818  11.368  0.8890  0.7040 -0.1993
  376MOL0     C51777   8.950   2.944  11.348  0.5802  0.5800 -0.9271
  376MOL0     C51778   8.865   2.959  11.225 -0.6944 -0.1755 -0.2893
  376MOL0     C51779   8.973   3.043  11.444 -0.7153  0.9502 -0.0897
  376MOL0     C51780   8.912   3.175  11.446 -0.3552  0.3143 -0.2255
  376MOL0     O51781   8.900   3.237  11.570 -0.1643  0.6320  0.0236
  376MOL0     C51782   8.828   3.348  11.570 -0.2629 -0.0805 -0.8289
  376MOL0     C51783   8.687   3.348  11.550  0.0881 -0.0517  0.1604
  376MOL0     C51784   8.616   3.472  11.544  0.9726 -0.6198  0.5065
  376MOL0     C51785   8.683   3.600  11.556 -0.0011  0.5369  0.2804
  376MOL0     O51786   8.632   3.730  11.544  0.0024 -0.4213 -0.5528
  376MOL0     C51787   8.494   3.746  11.527  0.4199 -1.3241 -0.2848
  376MOL0     C51788   8.448   3.881  11.583  0.1391  0.4971 -0.6153
  376MOL0     C51789   8.503   4.007  11.501  0.1733  0.0113  0.2677
  376MOL0     C51790   8.627   4.075  11.557 -0.0582  0.5266 -0.2367
  376MOL0     C51791   8.655   4.215  11.500 -0.4392 -0.0637 -0.2121
  376MOL0     C51792   8.807   4.256  11.486  0.5321 -0.1757 -0.4038
  376MOL0     C51793   8.860   4.173  11.364 -0.4501 -0.1677  0.3358
  376MOL0     C51794   9.007   4.227  11.346  0.0758  0.9729 -0.2876
  376MOL0    Cl51795   9.076   4.146  11.212 -0.5177  0.4445  0.4313
  376MOL0     C51796   8.824   3.597  11.578 -0.5172  0.9952 -0.3847
  376MOL0     C51797   8.892   3.475  11.593 -1.5788 -0.3056 -0.2515
  376MOL0     O51798   8.862   3.210  11.342  0.7786 -0.5600  0.2891
  376MOL0     C51799   9.071   3.012  11.548  0.8087  0.2003 -0.2769
  376MOL0     C51800   9.146   2.895  11.561 -0.0772 -0.5762  0.4191
  376MOL0     N51801   9.700   2.492  11.700 -0.2465 -0.1318 -0.2916
  376MOL0     N51802   9.832   2.504  11.731 -0.7622  0.4587  0.8525
  376MOL0     C51803  10.869   2.791  11.422  0.4551 -0.7921  0.1089
  376MOL0     C51804  10.946   2.868  11.332 -0.3381 -0.2162  0.5179
  376MOL0     C51805  11.247   3.077  11.074  0.1349  0.9556 -0.1970
  376MOL0     C51806  11.281   2.991  10.966  0.9632 -0.5891 -0.8101
  376MOL0     C51807  11.374   3.027  10.869  0.3605  0.4350 -0.1024
  376MOL0     C51808  11.435   3.154  10.867  0.2284 -0.9959 -0.4884
  376MOL0     O51809  11.508   3.175  10.755 -0.6058 -0.1223  0.0838
  376MOL0     C51810  11.562   3.308  10.750  0.7225  0.4497  1.2192
  376MOL0     C51811  11.693   3.323  10.826 -0.6530 -0.0961 -0.1516
  376MOL0     C51812  11.811   3.245  10.786  0.2217  0.5745 -0.0497
  376MOL0     C51813  11.857   3.263  10.642 -0.2790  0.1767 -0.6578
  376MOL0     C51814  11.975   3.180  10.630  1.4221  0.1968 -0.0608
  376MOL0     C51815  12.076   3.113  10.625 -0.7710 -0.6715 -0.9052
  376MOL0     C51816  11.419   3.232  10.981  0.0138  0.3428  0.2817
  376MOL0     C51817  11.316   3.205  11.079  0.3095  0.7498 -0.3334
  376MOL0     C51818  11.295   3.296  11.196  0.8763 -0.1989  0.1751
  376MOL0     H51819  11.155   2.642  11.202  1.8505  0.4942  0.1903
  376MOL0     H51820  10.993   2.494  11.328 -2.1047  0.1772 -0.8461
  376MOL0     H51821  10.906   2.385  11.510 -0.7988  0.6664 -2.7633
  376MOL0     H51822  10.779   2.435  11.410  6.7991  3.9815 -4.2631
  376MOL0     H51823  10.710   2.286  11.630  1.0069  0.4354  0.4108
  376MOL0     H51824  10.773   2.428  11.720  2.6390 -0.5085  0.4616
  376MOL0     H51825  10.616   2.578  11.634 -1.4219  0.3172 -0.9909
  376MOL0     H51826  10.547   2.452  11.533 -0.0386 -1.9459  1.4426
  376MOL0     H51827  10.460   2.329  11.687 -1.9782  1.3092 -0.8435
  376MOL0     H51828  10.538   2.384  11.821  0.5948 -4.3778 -1.2058
  376MOL0     H51829  10.386   2.625  11.781 -1.6666  1.0106 -1.6629
  376MOL0     H51830  10.293   2.484  11.817  0.2637  0.9583  1.9764
  376MOL0     H51831  10.360   2.637  11.569 -1.4932  1.0720 -0.4065
  376MOL0     H51832  10.322   2.467  11.540  2.4944  0.8089 -1.9837
  376MOL0     H51833  10.123   2.660  11.533  1.1507 -1.3074  0.3847
  376MOL0     H51834  10.127   2.650  11.706  0.5587  3.5659 -1.4385
  376MOL0     H51835  10.068   2.414  11.526 -1.5396 -0.5034  0.8419
  376MOL0     H51836  10.060   2.402  11.694 -1.1243 -2.4622 -2.3634
  376MOL0     H51837   9.838   2.470  11.395  1.3336  0.7118  0.0503
  376MOL0     H51838   9.493   2.406  11.552 -0.1087 -0.4246  0.7885
  376MOL0     H51839   9.587   2.405  11.396  2.6130 -1.5361  1.0682
  376MOL0     H51840   9.446   2.624  11.545 -1.7478  0.8686 -0.8206
  376MOL0     H51841   9.546   2.666  11.403 -3.3496  3.1748  0.3389
  376MOL0     H51842   9.406   2.550  11.255  0.7357 -0.2888  1.7911
  376MOL0     H51843   9.313   2.479  11.391  1.1064 -1.0514 -1.9094
  376MOL0     H51844   9.323   2.773  11.332  1.0294 -0.2013 -0.5881
  376MOL0     H51845   9.193   2.657  11.275  0.1994  2.3687  0.0598
  376MOL0     H51846   8.999   2.742  11.293 -2.2147  0.7901  0.3050
  376MOL0     H51847   8.912   3.022  11.149 -1.6891  2.3821  1.1037
  376MOL0     H51848   8.766   2.998  11.252 -1.5492 -1.4165 -1.4595
  376MOL0     H51849   8.857   2.856  11.190  0.0662 -0.5782  0.6500
  376MOL0     H51850   8.642   3.250  11.535  0.9050 -0.3072 -0.7389
  376MOL0     H51851   8.511   3.473  11.518  1.2003 -1.0233 -0.4665
  376MOL0     H51852   8.449   3.747  11.427  2.6666  1.5257 -1.3863
  376MOL0     H51853   8.437   3.667  11.577  1.5296 -1.8113  0.2368
  376MOL0     H51854   8.340   3.890  11.594  0.3032  1.7184  0.2468
  376MOL0     H51855   8.481   3.880  11.688 -3.9952 -4.9118  1.0761
  376MOL0     H51856   8.421   4.079  11.500 -3.6615 -3.8944  1.1946
  376MOL0     H51857   8.533   3.973  11.401 -0.1917 -0.9989  0.4833
  376MOL0     H51858   8.717   4.013  11.556 -1.3349 -1.4119 -2.0902
  376MOL0     H51859   8.615   4.083  11.666  4.3119 -1.6785  0.6556
  376MOL0     H51860   8.612   4.229  11.400  1.3760  0.1601 -0.9909
  376MOL0     H51861   8.617   4.293  11.567  1.4658 -0.5396  1.5176
  376MOL0     H51862   8.878   4.234  11.567 -1.2220  1.2160  1.6286
  376MOL0     H51863   8.804   4.363  11.469 -1.5729  0.1138  1.2486
  376MOL0     H51864   8.806   4.187  11.269 -2.4185  0.5643  1.5153
  376MOL0     H51865   8.855   4.064  11.374 -0.7025 -0.7762 -4.0681
  376MOL0     H51866   9.063   4.218  11.440 -0.6430 -1.3527 -0.0251
  376MOL0     H51867   9.002   4.333  11.319  3.5838  1.3096 -0.0872
  376MOL0     H51868   8.886   3.682  11.604  0.1197  0.9198 -1.5908
  376MOL0     H51869   9.000   3.484  11.605 -1.6371 -1.3047  1.2340
  376MOL0     H51870   9.069   3.073  11.637  0.3216  2.7917 -1.9621
  376MOL0     H51871   9.218   2.863  11.636  1.0729  2.5519  0.7967
  376MOL0     H51872  10.793   2.835  11.486 -0.0631 -0.9771 -0.3694
  376MOL0     H51873  10.940   2.975  11.314  1.7392 -0.3036 -1.0901
  376MOL0     H51874  11.232   2.894  10.975 -2.2239  0.9717  0.5425
  376MOL0     H51875  11.394   2.960  10.786  2.8589  2.7199 -1.5095
  376MOL0     H51876  11.579   3.323  10.643 -1.1099  1.7387  1.0615
  376MOL0     H51877  11.499   3.394  10.774 -0.3618  0.2046 -0.5504
  376MOL0     H51878  11.671   3.299  10.931 -3.7640  3.5432  0.2464
  376MOL0     H51879  11.707   3.432  10.823  0.0821 -0.2022 -1.2813
  376MOL0     H51880  11.887   3.263  10.863 -1.2990  2.4682  1.1268
  376MOL0     H51881  11.772   3.144  10.795 -0.9490  1.0880  1.0406
  376MOL0     H51882  11.890   3.366  10.621  3.0956 -1.1065 -2.3781
  376MOL0     H51883  11.783   3.235  10.566 -0.4083 -1.3153  0.0017
  376MOL0     H51884  12.170   3.063  10.638  1.0107  2.1646 -2.0147
  376MOL0     H51885  11.478   3.324  10.980 -1.0048  1.0169 -1.1231
  376MOL0     H51886  11.189   3.325  11.204 -0.0054 -2.4042 -2.0773
  376MOL0     H51887  11.352   3.266  11.283  1.0145 -0.1531  0.0997
  376MOL0     H51888  11.337   3.392  11.164  1.8079 -0.8937 -0.7808
  377MOL0     O51889   1.617   0.406   3.014 -0.8457  0.0185  0.1513
  377MOL0     C51890   1.635   0.508   2.951  0.5879 -0.5324 -0.2668
  377MOL0     O51891   1.637   0.518   2.809 -0.1489 -1.2334  0.3609
  377MOL0     C51892   1.622   0.407   2.726  0.7670  0.1461  0.1031
  377MOL0     C51893   1.697   0.414   2.605  0.1355 -0.0393  0.4065
  377MOL0     C51894   1.694   0.316   2.509  0.0326 -0.3727 -0.3735
  377MOL0     C51895   1.591   0.215   2.523  0.2854 -1.2527  0.4214
  377MOL0     O51896   1.566   0.145   2.406 -0.3014  0.2357  0.3329
  377MOL0     C51897   1.430   0.113   2.382 -0.0628 -0.5299 -0.7322
  377MOL0     C51898   1.347   0.241   2.352  0.2515 -0.9407 -0.5774
  377MOL0     C51899   1.384   0.318   2.225 -0.6771 -0.0903  0.3173
  377MOL0     C51900   1.310   0.261   2.103  0.6117  1.0749  1.3740
  377MOL0     C51901   1.378   0.276   1.968 -0.4901 -0.2574  0.3451
  377MOL0     C51902   1.395   0.421   1.925 -0.2475  0.4388 -0.0906
  377MOL0     C51903   1.471   0.435   1.792 -0.3489 -0.1556  0.4565
  377MOL0     C51904   1.408   0.363   1.671 -0.0957  1.1930 -1.1736
  377MOL0     N51905   1.450   0.426   1.543  0.0747  0.4184  0.7406
  377MOL0     C51906   1.499   0.353   1.441 -0.3367  0.0544  0.4024
  377MOL0     C51907   1.533   0.447   1.347  0.2968 -1.4269 -0.2349
  377MOL0     C51908   1.579   0.442   1.198 -0.2690 -0.1199 -0.0754
  377MOL0     C51909   1.526   0.316   1.133  1.1610  0.7058 -0.0056
  377MOL0     C51910   1.576   0.293   0.985 -0.0468  0.4453 -0.0971
  377MOL0     C51911   1.464   0.261   0.879 -0.3830 -0.7051  0.0135
  377MOL0     O51912   1.413   0.130   0.900  0.2520  0.0750 -0.3851
  377MOL0     C51913   1.326   0.077   0.806  0.3878  0.1007  1.4410
  377MOL0     C51914   1.303  -0.060   0.815  1.2374  0.0651  0.3942
  377MOL0     C51915   1.221  -0.128   0.728  0.5202 -0.5717  0.2725
  377MOL0     C51916   1.201  -0.269   0.772 -0.0535  0.1199 -0.3875
  377MOL0     C51917   1.148  -0.060   0.624  0.5823  0.2090  0.2140
  377MOL0     C51918   1.037  -0.118   0.538  0.4838 -0.4398 -0.8787
  377MOL0     O51919   1.006  -0.244   0.539  0.0438  0.1238  0.6665
  377MOL0     C51920   0.887  -0.296   0.498 -0.7470 -0.1002  0.5972
  377MOL0     C51921   0.767  -0.228   0.509  0.3794 -0.3418  0.1402
  377MOL0     C51922   0.654  -0.292   0.458 -0.9337 -0.5915  0.4136
  377MOL0     C51923   0.655  -0.414   0.391 -0.3215 -0.6240 -0.6210
  377MOL0     O51924   0.538  -0.462   0.341 -0.5969 -0.3878 -0.7585
  377MOL0     C51925   0.526  -0.605   0.345 -0.7612  0.2544 -0.1442
  377MOL0     C51926   0.384  -0.655   0.329  0.8066  1.1491  0.4108
  377MOL0     C51927   0.294  -0.623   0.453 -1.2530  0.2350 -0.1850
  377MOL0     C51928   0.143  -0.637   0.423 -0.7611 -0.7255  0.3105
  377MOL0     C51929   0.059  -0.599   0.547  0.4236 -0.4773 -0.2450
  377MOL0     C51930  -0.092  -0.619   0.521  0.1610  0.0510  0.2823
  377MOL0     C51931  -0.183  -0.577   0.641  0.5464 -1.5576  0.5692
  377MOL0     C51932  -0.158  -0.433   0.695  0.2392 -0.4011 -0.6003
  377MOL0    Cl51933  -0.021  -0.426   0.794  0.4732 -0.0856  0.0319
  377MOL0     C51934   0.782  -0.488   0.390 -0.8085 -0.3950 -0.2107
  377MOL0     C51935   0.891  -0.423   0.443 -0.1959 -0.2728 -0.0158
  377MOL0     O51936   0.975  -0.028   0.473 -0.3604  1.0841  1.0965
  377MOL0     C51937   1.170   0.078   0.619  0.6491  0.5529  0.2868
  377MOL0     C51938   1.253   0.148   0.711  0.6372  0.0147  0.1487
  377MOL0     N51939   1.499   0.577   1.398  0.3766  1.0233 -0.2982
  377MOL0     N51940   1.453   0.562   1.519 -0.4600 -0.1548 -0.3451
  377MOL0     C51941   1.518   0.209   2.645  0.4581 -0.5644  0.7724
  377MOL0     C51942   1.533   0.307   2.742 -0.4828 -0.3674 -0.5615
  377MOL0     C51943   1.680   0.639   3.022  0.9505  0.1589 -0.0299
  377MOL0     C51944   1.725   0.738   2.938 -0.3565  0.7882  0.2788
  377MOL0     C51945   1.778   0.855   2.992 -0.2725 -0.9156  0.1208
  377MOL0     C51946   1.805   0.872   3.122 -0.0568 -0.9375 -0.3565
  377MOL0     O51947   1.887   0.969   3.172 -0.1590 -0.1996 -0.5710
  377MOL0     C51948   1.988   1.033   3.086 -0.2634 -0.3620 -0.6190
  377MOL0     C51949   1.931   1.164   3.030  0.7043  0.4682 -0.1647
  377MOL0     C51950   1.932   1.267   3.153  0.0895  0.5237 -1.0903
  377MOL0     C51951   1.922   1.404   3.094 -0.5038  0.3705  0.3243
  377MOL0     C51952   1.898   1.501   3.202 -0.6676 -0.0671 -0.7283
  377MOL0     C51953   1.885   1.577   3.292  0.3977 -0.1095 -0.0908
  377MOL0     C51954   1.754   0.773   3.201  0.1748  0.9838 -0.6116
  377MOL0     C51955   1.680   0.665   3.160  0.7217 -0.2158 -0.1692
  377MOL0     C51956   1.633   0.565   3.265 -0.3607 -0.3761 -0.0084
  377MOL0     H51957   1.733   0.510   2.570 -1.2502  1.3672  2.5354
  377MOL0     H51958   1.741   0.315   2.411 -1.3807 -4.2799 -1.2140
  377MOL0     H51959   1.399   0.054   2.469  1.1370 -0.4838 -0.2576
  377MOL0     H51960   1.435   0.050   2.293  1.2284  1.2709 -2.0155
  377MOL0     H51961   1.241   0.216   2.361  0.1101 -0.1596  0.0218
  377MOL0     H51962   1.361   0.307   2.438 -0.2848 -1.2812 -0.2224
  377MOL0     H51963   1.361   0.423   2.243  1.0926  0.3554  0.1110
  377MOL0     H51964   1.491   0.301   2.209 -0.5853  1.3305 -0.7277
  377MOL0     H51965   1.290   0.155   2.120 -1.7529  1.2715  0.1790
  377MOL0     H51966   1.208   0.300   2.103  0.3225  0.4906  4.0092
  377MOL0     H51967   1.312   0.221   1.900 -3.1258  0.3259  2.2370
  377MOL0     H51968   1.472   0.221   1.960 -1.2640 -1.7789  1.2305
  377MOL0     H51969   1.292   0.456   1.909 -0.3628  0.6073  0.9578
  377MOL0     H51970   1.443   0.483   2.001 -1.5908 -0.0987  1.2365
  377MOL0     H51971   1.579   0.420   1.801  0.0099  0.3004 -2.3756
  377MOL0     H51972   1.451   0.542   1.775 -2.6558 -0.3539  1.5083
  377MOL0     H51973   1.439   0.259   1.681  0.2397  1.4866  2.1134
  377MOL0     H51974   1.299   0.371   1.672 -0.0814  1.4160  0.1957
  377MOL0     H51975   1.503   0.245   1.431  0.4107  0.2818 -4.1122
  377MOL0     H51976   1.688   0.450   1.192 -0.3428 -0.2245 -1.9051
  377MOL0     H51977   1.528   0.516   1.136  2.9816 -1.2617 -4.6162
  377MOL0     H51978   1.555   0.231   1.196  3.0620 -0.8395 -2.7680
  377MOL0     H51979   1.416   0.320   1.137  1.2157  1.5761  1.3548
  377MOL0     H51980   1.626   0.383   0.948  3.0232 -0.7376  0.7766
  377MOL0     H51981   1.654   0.216   0.980 -2.7636 -2.4414 -1.3186
  377MOL0     H51982   1.385   0.336   0.890  0.0149 -0.5629  2.6917
  377MOL0     H51983   1.517   0.269   0.784 -0.8764  0.8701 -0.1647
  377MOL0     H51984   1.352  -0.111   0.897  1.0517  0.6129  0.8502
  377MOL0     H51985   1.267  -0.331   0.710 -0.6256  0.7371 -1.6558
  377MOL0     H51986   1.098  -0.302   0.753 -0.3248  0.4462  0.4683
  377MOL0     H51987   1.237  -0.282   0.874 -1.1301  7.4682  1.4539
  377MOL0     H51988   0.749  -0.137   0.565  0.7319 -0.8853  1.1609
  377MOL0     H51989   0.560  -0.238   0.467  1.0638  2.9816  1.2512
  377MOL0     H51990   0.584  -0.647   0.263 -2.1658 -0.9774 -0.5627
  377MOL0     H51991   0.561  -0.642   0.442  0.5625  1.5423 -0.1007
  377MOL0     H51992   0.339  -0.603   0.244 -1.2549 -2.3386 -0.8741
  377MOL0     H51993   0.384  -0.761   0.301  1.1602  0.6670  2.1091
  377MOL0     H51994   0.308  -0.518   0.479  2.4824 -0.6091  1.8933
  377MOL0     H51995   0.342  -0.677   0.535  2.3338  1.2827 -1.4239
  377MOL0     H51996   0.125  -0.739   0.386  0.6454 -0.5110 -1.0849
  377MOL0     H51997   0.116  -0.576   0.336 -0.1212 -1.2153 -0.2500
  377MOL0     H51998   0.089  -0.655   0.636 -1.7943 -2.2693 -0.5232
  377MOL0     H51999   0.063  -0.490   0.557 -1.2164 -0.2470 -1.5552
  377MOL0     H52000  -0.116  -0.724   0.503  2.3960 -0.3828 -0.4021
  377MOL0     H52001  -0.127  -0.574   0.427  1.4722 -1.3964 -0.9442
  377MOL0     H52002  -0.188  -0.666   0.704  1.3722 -3.0926 -1.4110
  377MOL0     H52003  -0.284  -0.578   0.599  0.2528  0.1899  1.1693
  377MOL0     H52004  -0.244  -0.413   0.761  1.3052  3.4404 -0.1375
  377MOL0     H52005  -0.150  -0.358   0.616  5.0788  0.4635  0.3797
  377MOL0     H52006   0.799  -0.583   0.339 -0.5224  0.8497 -2.5909
  377MOL0     H52007   0.989  -0.470   0.433 -0.6375 -1.7565  1.9564
  377MOL0     H52008   1.111   0.133   0.546 -1.2560 -2.8655 -0.9737
  377MOL0     H52009   1.258   0.254   0.689 -0.3476  0.3965  1.5837
  377MOL0     H52010   1.454   0.122   2.661 -1.1520  0.0861 -1.6152
  377MOL0     H52011   1.458   0.291   2.819 -1.1609 -1.7479 -1.4617
  377MOL0     H52012   1.727   0.737   2.829  0.4903  1.1063  0.2837
  377MOL0     H52013   1.812   0.919   2.912 -0.7162 -0.8081  0.0107
  377MOL0     H52014   2.076   1.056   3.147  0.5616 -0.7647 -1.6331
  377MOL0     H52015   2.027   0.962   3.013 -0.7193  0.9184 -2.1779
  377MOL0     H52016   1.831   1.142   2.992  1.4608 -0.1608 -1.9029
  377MOL0     H52017   1.997   1.210   2.956  2.1605  2.0279  1.9667
  377MOL0     H52018   1.851   1.233   3.219 -0.6147  0.2226 -2.0831
  377MOL0     H52019   2.022   1.252   3.213 -0.9520  1.7299  0.9019
  377MOL0     H52020   1.831   1.396   3.034 -1.8465  0.2300  2.2909
  377MOL0     H52021   2.010   1.437   3.039  0.5339 -2.4019  0.1637
  377MOL0     H52022   1.879   1.646   3.374 -3.3681 -2.8901  2.3771
  377MOL0     H52023   1.776   0.786   3.307 -3.6182 -3.4633  1.0787
  377MOL0     H52024   1.678   0.468   3.240  0.0828  0.2864 -1.9566
  377MOL0     H52025   1.668   0.595   3.365  3.2821  1.6803 -1.7073
  377MOL0     H52026   1.528   0.532   3.265  0.4525 -3.5488  2.8227
  378MOL0     O52027   6.732   4.399   0.219  0.8829  0.2113 -0.5314
  378MOL0     C52028   6.774   4.510   0.213 -0.3664 -0.9160  1.0675
  378MOL0     O52029   6.768   4.601   0.316 -0.1138  0.3983 -0.0511
  378MOL0     C52030   6.691   4.561   0.415 -0.0866 -0.4943 -0.3330
  378MOL0     C52031   6.548   4.552   0.405 -0.3300 -0.3559  0.2663
  378MOL0     C52032   6.470   4.503   0.500  0.9819  0.3866  0.0189
  378MOL0     C52033   6.533   4.474   0.631  0.8535  0.4016 -0.9232
  378MOL0     O52034   6.472   4.421   0.746  0.0844 -0.0374 -0.1147
  378MOL0     C52035   6.334   4.417   0.756 -0.2373  0.1801 -0.8670
  378MOL0     C52036   6.296   4.391   0.904 -0.2477  0.2465 -0.3678
  378MOL0     C52037   6.187   4.478   0.970  0.2661 -0.5100  0.2844
  378MOL0     C52038   6.172   4.434   1.115 -1.0825  0.1298 -0.0437
  378MOL0     C52039   6.273   4.497   1.218  0.1203  0.1551  0.0946
  378MOL0     C52040   6.195   4.506   1.355  0.3621 -0.2600  0.2704
  378MOL0     C52041   6.289   4.522   1.472 -0.4410  0.6022 -0.6146
  378MOL0     C52042   6.348   4.665   1.478 -0.1638  0.3873 -0.1918
  378MOL0     N52043   6.467   4.673   1.560 -0.9139 -0.6257  0.3201
  378MOL0     C52044   6.581   4.599   1.551 -0.2795  0.1951  0.1744
  378MOL0     C52045   6.684   4.661   1.622  0.0253  0.8070  1.1381
  378MOL0     C52046   6.824   4.613   1.657 -0.2813 -0.0506  0.6798
  378MOL0     C52047   6.930   4.651   1.552  0.4256  0.3472 -0.2423
  378MOL0     C52048   7.065   4.593   1.572 -0.6500 -0.1643 -0.0375
  378MOL0     C52049   7.160   4.653   1.466 -0.2594 -0.5097  0.0832
  378MOL0     O52050   7.288   4.579   1.455  0.1995 -0.8323  0.2459
  378MOL0     C52051   7.402   4.660   1.459 -0.7087  0.3438  0.4749
  378MOL0     C52052   7.443   4.727   1.339 -0.1285 -0.2066 -0.1464
  378MOL0     C52053   7.562   4.804   1.334 -0.1704 -0.2691 -0.6934
  378MOL0     C52054   7.597   4.853   1.197 -0.2001  0.8124 -1.5293
  378MOL0     C52055   7.643   4.818   1.451  0.3526 -0.7962  0.0035
  378MOL0     C52056   7.781   4.870   1.448 -0.1606  0.0144 -1.1119
  378MOL0     O52057   7.870   4.780   1.498 -0.2043  0.7633 -0.1302
  378MOL0     C52058   8.004   4.819   1.516 -0.6479 -0.2694  0.0044
  378MOL0     C52059   8.036   4.935   1.591 -0.2681  0.1863  0.5841
  378MOL0     C52060   8.168   4.971   1.608  0.2962 -0.8464 -0.4561
  378MOL0     C52061   8.276   4.897   1.552  0.2063 -0.3094 -0.2559
  378MOL0     O52062   8.407   4.934   1.568  0.4418  0.1442 -0.4136
  378MOL0     C52063   8.445   5.068   1.551  0.5783 -0.1137  1.6880
  378MOL0     C52064   8.547   5.081   1.442 -0.3753 -0.5084 -0.0893
  378MOL0     C52065   8.569   5.226   1.397  0.7846  1.6553 -0.2047
  378MOL0     C52066   8.445   5.290   1.345  0.7963 -0.2566 -0.2974
  378MOL0     C52067   8.445   5.435   1.316  0.3661  0.2137  0.0006
  378MOL0     C52068   8.501   5.465   1.173 -0.8165 -0.3062 -0.1261
  378MOL0     C52069   8.535   5.618   1.176  0.1854  0.2056  0.7831
  378MOL0     C52070   8.477   5.697   1.056  0.1648  0.1929  0.0569
  378MOL0    Cl52071   8.539   5.616   0.905  0.3157  0.2840 -0.0053
  378MOL0     C52072   8.246   4.782   1.490  0.1897  0.6440  0.4099
  378MOL0     C52073   8.111   4.746   1.463 -0.2683 -0.8190  0.4656
  378MOL0     O52074   7.809   4.972   1.389  0.0686 -0.2310  0.0658
  378MOL0     C52075   7.598   4.749   1.566 -0.4814 -0.1006 -1.5061
  378MOL0     C52076   7.476   4.675   1.579 -0.4692 -0.1092  0.0950
  378MOL0     N52077   6.630   4.781   1.662 -0.0752  0.5877 -0.2336
  378MOL0     N52078   6.506   4.785   1.628 -0.4444 -0.0054 -0.5622
  378MOL0     C52079   6.670   4.484   0.649 -0.5052 -0.2144 -0.5959
  378MOL0     C52080   6.743   4.528   0.542  1.2826 -0.2784  0.0268
  378MOL0     C52081   6.832   4.560   0.083 -0.1130  0.0405 -0.0906
  378MOL0     C52082   6.835   4.705   0.076 -0.3208 -0.6836 -0.3619
  378MOL0     C52083   6.880   4.769  -0.037  0.7187  0.2853  0.5502
  378MOL0     C52084   6.931   4.686  -0.139 -0.3978 -0.1950 -0.4400
  378MOL0     O52085   6.963   4.755  -0.257  0.1107 -0.3842  0.5196
  378MOL0     C52086   6.849   4.822  -0.330 -0.8117  1.1087 -0.5700
  378MOL0     C52087   6.861   4.798  -0.476  0.4460 -0.9939  1.3508
  378MOL0     C52088   6.741   4.877  -0.546  0.0712  0.6467  0.7247
  378MOL0     C52089   6.730   4.867  -0.693  0.2660 -1.1819  0.2632
  378MOL0     C52090   6.744   4.731  -0.728 -0.0362  0.0116  0.4066
  378MOL0     C52091   6.727   4.611  -0.754 -0.4779  1.0731  0.2383
  378MOL0     C52092   6.930   4.540  -0.131 -0.6612  0.8589 -0.6902
  378MOL0     C52093   6.876   4.476  -0.015 -0.4826 -0.1489  1.2896
  378MOL0     C52094   6.861   4.323  -0.007 -0.8218 -0.2357  0.8262
  378MOL0     H52095   6.512   4.575   0.305  2.8725 -4.1945 -2.0455
  378MOL0     H52096   6.363   4.492   0.484  0.6971  2.3455  0.3361
  378MOL0     H52097   6.295   4.338   0.691  1.7806 -0.7201 -1.0807
  378MOL0     H52098   6.292   4.514   0.731  1.0481  1.4714  1.5492
  378MOL0     H52099   6.278   4.284   0.921  1.6057  0.0271  0.5010
  378MOL0     H52100   6.386   4.415   0.961 -1.2584 -0.7423  1.7633
  378MOL0     H52101   6.229   4.579   0.963  4.3529 -2.1565 -3.0860
  378MOL0     H52102   6.089   4.465   0.923  0.2935 -1.3403  0.4521
  378MOL0     H52103   6.078   4.484   1.138  0.3032  2.1464  1.6165
  378MOL0     H52104   6.167   4.325   1.118  0.8983 -0.2053 -3.3149
  378MOL0     H52105   6.298   4.598   1.184 -0.4644  0.3518  0.2477
  378MOL0     H52106   6.359   4.429   1.211 -0.8105 -0.8723 -2.1493
  378MOL0     H52107   6.122   4.588   1.363  1.5250  0.9286 -0.8247
  378MOL0     H52108   6.142   4.412   1.371 -2.2846  1.1352  0.3227
  378MOL0     H52109   6.371   4.449   1.468 -0.4693  0.3262  2.0160
  378MOL0     H52110   6.225   4.502   1.558  0.8169  2.3676  0.8077
  378MOL0     H52111   6.368   4.697   1.376 -1.3823 -1.1534 -0.9671
  378MOL0     H52112   6.277   4.734   1.524 -1.6711 -1.3810  0.2867
  378MOL0     H52113   6.593   4.514   1.483 -3.4684  0.4522 -0.8505
  378MOL0     H52114   6.813   4.504   1.657 -0.9994  0.0018 -0.6584
  378MOL0     H52115   6.843   4.643   1.760  3.4253 -0.7736  0.3534
  378MOL0     H52116   6.892   4.617   1.455 -1.6638 -1.9145  1.2572
  378MOL0     H52117   6.921   4.760   1.549 -2.5991  0.1673 -2.5948
  378MOL0     H52118   7.100   4.620   1.672  0.6728 -1.3836 -0.1486
  378MOL0     H52119   7.074   4.486   1.553  2.5115  0.1171 -0.6883
  378MOL0     H52120   7.114   4.668   1.368  3.6831  0.5432 -1.8108
  378MOL0     H52121   7.193   4.756   1.483  0.9541 -0.8995  0.1944
  378MOL0     H52122   7.378   4.694   1.258  1.5098 -2.8186 -0.5174
  378MOL0     H52123   7.589   4.962   1.198  0.6409  0.9158 -3.0326
  378MOL0     H52124   7.523   4.821   1.124  0.5053  3.5712 -3.6344
  378MOL0     H52125   7.690   4.812   1.158 -0.0941  0.9777 -1.4523
  378MOL0     H52126   7.948   4.991   1.620 -1.8326 -0.6734 -2.1454
  378MOL0     H52127   8.188   5.048   1.682 -1.5236 -1.3603  0.6242
  378MOL0     H52128   8.348   5.112   1.526  1.0029 -0.0110  0.1721
  378MOL0     H52129   8.476   5.119   1.643 -1.5707  2.9008  0.9197
  378MOL0     H52130   8.646   5.038   1.462 -0.2767 -0.2336  0.0136
  378MOL0     H52131   8.517   5.021   1.355  1.3149 -2.6490  0.7123
  378MOL0     H52132   8.633   5.226   1.308 -0.4149  0.4522 -1.1148
  378MOL0     H52133   8.595   5.293   1.479 -1.3593  2.2218  0.0728
  378MOL0     H52134   8.350   5.273   1.396  1.0423  0.8005  0.5622
  378MOL0     H52135   8.423   5.242   1.249  2.3403  0.3711 -1.0098
  378MOL0     H52136   8.344   5.474   1.322  0.8626  2.1083 -2.4710
  378MOL0     H52137   8.503   5.480   1.397  1.1494 -1.5517  0.4798
  378MOL0     H52138   8.431   5.433   1.096  0.8970 -1.1438 -1.4164
  378MOL0     H52139   8.591   5.406   1.152  0.6580  2.6162 -2.7625
  378MOL0     H52140   8.643   5.624   1.163 -0.1869  1.2470 -3.3078
  378MOL0     H52141   8.498   5.663   1.269  0.7229 -1.7376  1.9853
  378MOL0     H52142   8.513   5.800   1.054 -0.1747  0.2987 -0.9607
  378MOL0     H52143   8.368   5.696   1.062  0.1828 -0.1651  5.0237
  378MOL0     H52144   8.315   4.704   1.458  1.4225  1.7346  0.3050
  378MOL0     H52145   8.074   4.660   1.408 -1.1531  0.8339 -1.6961
  378MOL0     H52146   7.665   4.750   1.651 -0.3884  1.6661 -1.5798
  378MOL0     H52147   7.454   4.626   1.674  2.2871 -2.1596 -0.1734
  378MOL0     H52148   6.724   4.440   0.732 -1.4277  0.9882  0.6784
  378MOL0     H52149   6.851   4.532   0.554  0.9797  0.4465  3.5464
  378MOL0     H52150   6.825   4.760   0.169  0.4010 -3.5556  1.5701
  378MOL0     H52151   6.868   4.877  -0.031  2.0913  0.5162 -0.5105
  378MOL0     H52152   6.756   4.782  -0.288 -0.8000  1.2442 -0.4161
  378MOL0     H52153   6.854   4.928  -0.305 -0.9051  1.0517 -0.3095
  378MOL0     H52154   6.855   4.692  -0.504 -2.2426 -0.1210 -2.0399
  378MOL0     H52155   6.961   4.831  -0.505  0.5531 -3.0152 -0.9257
  378MOL0     H52156   6.645   4.844  -0.505  1.5316 -0.3797  3.5952
  378MOL0     H52157   6.740   4.984  -0.523  3.0004  0.4369  2.2927
  378MOL0     H52158   6.798   4.939  -0.739 -0.4852  0.2788  1.3463
  378MOL0     H52159   6.626   4.894  -0.713  0.4908 -0.7721 -0.3917
  378MOL0     H52160   6.695   4.513  -0.782  0.4965  0.8510 -0.1505
  378MOL0     H52161   6.963   4.483  -0.217  0.3349  0.6656 -0.1952
  378MOL0     H52162   6.925   4.268  -0.076  1.4449 -1.6973  3.8565
  378MOL0     H52163   6.882   4.285   0.093 -4.2410  0.4981  1.9868
  378MOL0     H52164   6.763   4.298  -0.050 -0.3149  0.7197 -0.9928
  379MOL0     O52165   4.755   0.012   0.617 -0.3156 -0.0525  0.0378
  379MOL0     C52166   4.786  -0.061   0.713  0.7316 -0.0381  0.0062
  379MOL0     O52167   4.695  -0.143   0.787 -0.4759 -0.2915 -0.2929
  379MOL0     C52168   4.558  -0.114   0.781  0.1812  0.0017  0.8993
  379MOL0     C52169   4.490  -0.130   0.660 -0.0268  0.4993  0.4162
  379MOL0     C52170   4.352  -0.094   0.660  0.1927  0.3734 -0.2063
  379MOL0     C52171   4.274  -0.065   0.776 -0.5833  0.1685  0.2924
  379MOL0     O52172   4.145  -0.031   0.759  0.6073 -0.4270  0.3590
  379MOL0     C52173   4.044  -0.024   0.874 -0.5198 -0.4308 -0.3902
  379MOL0     C52174   4.045  -0.150   0.958 -0.3694 -1.0444  0.0483
  379MOL0     C52175   3.906  -0.166   1.022 -0.8011  0.3977 -0.1186
  379MOL0     C52176   3.862  -0.057   1.121 -1.4474  0.0709  0.5913
  379MOL0     C52177   3.764  -0.102   1.223  1.0748  0.4497  0.2991
  379MOL0     C52178   3.712   0.026   1.301 -0.0899 -0.1397 -0.4623
  379MOL0     C52179   3.601  -0.026   1.392  0.0392 -0.0264 -0.6441
  379MOL0     C52180   3.468  -0.006   1.326  0.6013  0.3362 -0.4285
  379MOL0     N52181   3.362  -0.090   1.386 -0.1588  0.5378 -0.1612
  379MOL0     C52182   3.328  -0.072   1.510  1.0860 -0.6488  0.1092
  379MOL0     C52183   3.214  -0.146   1.516  0.1790 -0.1714  0.1322
  379MOL0     C52184   3.132  -0.161   1.641 -0.2585 -1.1230  0.3624
  379MOL0     C52185   3.090  -0.305   1.694 -0.2698 -0.8046  0.5481
  379MOL0     C52186   3.035  -0.396   1.587  0.1147 -1.0806  0.0184
  379MOL0     C52187   3.008  -0.531   1.643 -1.0304  0.8408 -0.0998
  379MOL0     O52188   3.118  -0.603   1.713 -0.3151 -0.4360  0.6352
  379MOL0     C52189   3.092  -0.716   1.782  0.3920  0.6329 -0.5387
  379MOL0     C52190   2.958  -0.772   1.795  0.4751  0.2979  0.2862
  379MOL0     C52191   2.941  -0.896   1.861 -0.6941 -0.8406  0.6249
  379MOL0     C52192   2.806  -0.973   1.855 -0.3989  0.0120  0.3534
  379MOL0     C52193   3.055  -0.946   1.925 -0.3307 -0.0575 -0.0587
  379MOL0     C52194   3.049  -1.075   1.994 -0.3407  0.4293 -0.0467
  379MOL0     O52195   3.079  -1.073   2.122 -0.8015  0.3508  0.1849
  379MOL0     C52196   3.034  -1.178   2.203 -0.9731 -0.7422 -0.2016
  379MOL0     C52197   3.095  -1.185   2.332  0.0150 -0.3293  0.8062
  379MOL0     C52198   3.048  -1.278   2.425  0.4190 -0.7535 -0.0459
  379MOL0     C52199   2.946  -1.369   2.390  0.1255  0.2226  0.2151
  379MOL0     O52200   2.906  -1.449   2.498  0.6229  0.3170  0.5470
  379MOL0     C52201   2.864  -1.587   2.473 -0.4954  0.3915  0.1839
  379MOL0     C52202   2.793  -1.645   2.598  0.5063  1.2033 -0.5194
  379MOL0     C52203   2.651  -1.598   2.629  0.3341  0.1842  0.1753
  379MOL0     C52204   2.645  -1.452   2.676 -0.0508  0.2860  0.5793
  379MOL0     C52205   2.515  -1.397   2.722 -0.4054  0.0546 -0.7862
  379MOL0     C52206   2.489  -1.402   2.870  0.2048  0.1027  0.1762
  379MOL0     C52207   2.336  -1.362   2.904 -0.7040  0.3870  0.3299
  379MOL0     C52208   2.332  -1.301   3.042  0.1026 -0.6642 -0.7880
  379MOL0    Cl52209   2.287  -1.126   3.019  0.5874  0.1829 -0.1237
  379MOL0     C52210   2.883  -1.367   2.267 -0.6301  0.9387  0.5987
  379MOL0     C52211   2.931  -1.262   2.171 -0.6032  0.5447  0.2577
  379MOL0     O52212   3.036  -1.171   1.921  0.3613  0.0624  0.7502
  379MOL0     C52213   3.178  -0.879   1.931 -1.0989 -0.6593  0.1073
  379MOL0     C52214   3.193  -0.762   1.861  0.3409  0.3986 -0.5480
  379MOL0     N52215   3.176  -0.188   1.396 -0.0328  0.0404 -0.3698
  379MOL0     N52216   3.266  -0.144   1.312  0.4143 -0.6904 -0.8229
  379MOL0     C52217   4.339  -0.064   0.896  0.7065  0.0626 -0.1726
  379MOL0     C52218   4.479  -0.074   0.894  0.4180  0.6250  0.5086
  379MOL0     C52219   4.927  -0.080   0.747  0.3551 -0.4670  0.7406
  379MOL0     C52220   5.022  -0.065   0.650 -0.4477 -0.0468 -0.5649
  379MOL0     C52221   5.158  -0.086   0.681  0.4365  0.3490 -0.0669
  379MOL0     C52222   5.200  -0.094   0.811  0.2153 -0.7875 -0.5576
  379MOL0     O52223   5.338  -0.093   0.828  0.0759  0.0009 -0.4138
  379MOL0     C52224   5.404  -0.154   0.940  0.3899 -0.4228 -0.5692
  379MOL0     C52225   5.383  -0.304   0.940 -0.3742  0.2270 -0.0048
  379MOL0     C52226   5.397  -0.378   0.801  0.2857 -0.5029 -0.6030
  379MOL0     C52227   5.437  -0.523   0.818 -0.1774  0.9485 -0.1870
  379MOL0     C52228   5.319  -0.610   0.821  0.6820  0.5167  0.6576
  379MOL0     C52229   5.219  -0.686   0.824  0.1950 -0.5738  0.2993
  379MOL0     C52230   5.110  -0.099   0.911 -0.0231  0.1336  0.9867
  379MOL0     C52231   4.973  -0.096   0.880 -0.1580  0.5296  0.6985
  379MOL0     C52232   4.878  -0.096   0.999  0.0136 -0.3370  0.0006
  379MOL0     H52233   4.528  -0.171   0.567 -3.2194 -0.5586 -0.5262
  379MOL0     H52234   4.302  -0.100   0.564  2.3385  0.8276 -1.4228
  379MOL0     H52235   3.940  -0.010   0.842 -0.5282  2.8137  0.7176
  379MOL0     H52236   4.063   0.062   0.939 -4.0098  0.3842 -0.2490
  379MOL0     H52237   4.069  -0.229   0.887  0.5878 -0.7426  0.0211
  379MOL0     H52238   4.111  -0.148   1.045 -4.5446 -1.3404  3.5878
  379MOL0     H52239   3.837  -0.167   0.937  0.8022  0.6431 -1.4827
  379MOL0     H52240   3.911  -0.266   1.067 -0.2690 -0.8922 -2.8098
  379MOL0     H52241   3.949  -0.029   1.181 -0.0123 -4.5632  1.0554
  379MOL0     H52242   3.820   0.023   1.059 -0.2968  0.6255  0.5075
  379MOL0     H52243   3.807  -0.163   1.303  0.1041 -0.7399 -0.0447
  379MOL0     H52244   3.695  -0.171   1.173  2.6238 -1.4001  0.6062
  379MOL0     H52245   3.795   0.068   1.360 -0.9984  2.6828 -0.9997
  379MOL0     H52246   3.681   0.112   1.241  0.0554 -0.1643 -0.5720
  379MOL0     H52247   3.604   0.010   1.495 -0.7414  0.2012 -0.6942
  379MOL0     H52248   3.629  -0.127   1.422  1.7292  1.4716  3.5693
  379MOL0     H52249   3.436   0.099   1.325 -1.9642 -0.3697 -2.5292
  379MOL0     H52250   3.468  -0.026   1.219 -0.6755 -2.8701  0.0848
  379MOL0     H52251   3.368  -0.004   1.585 -2.1837  1.0373  0.5097
  379MOL0     H52252   3.043  -0.104   1.616  2.2121  2.8609 -0.2996
  379MOL0     H52253   3.192  -0.118   1.722  0.4861 -3.0598  0.8927
  379MOL0     H52254   3.181  -0.348   1.737 -0.1244 -1.0228  0.0329
  379MOL0     H52255   3.023  -0.298   1.780  1.5064 -0.9414  2.0178
  379MOL0     H52256   2.940  -0.351   1.559  0.3955  0.5113  1.4956
  379MOL0     H52257   3.092  -0.426   1.498  1.2688 -0.0348  0.3750
  379MOL0     H52258   2.923  -0.515   1.710 -0.7872 -0.5914  0.6051
  379MOL0     H52259   2.964  -0.592   1.564  1.8184 -2.4553  0.5907
  379MOL0     H52260   2.868  -0.738   1.744  1.8192 -1.0044 -3.2680
  379MOL0     H52261   2.731  -0.897   1.879  0.5218  0.9156  0.4673
  379MOL0     H52262   2.806  -1.050   1.933 -1.0834  1.3389  1.7178
  379MOL0     H52263   2.785  -1.003   1.752 -0.9306  4.0766 -0.9064
  379MOL0     H52264   3.181  -1.120   2.346  1.9814 -2.8798  1.1726
  379MOL0     H52265   3.102  -1.289   2.518  0.2853 -0.8416  0.0209
  379MOL0     H52266   2.799  -1.593   2.386  1.1720  0.0927 -1.0803
  379MOL0     H52267   2.952  -1.643   2.441  1.9067  4.0432 -0.1966
  379MOL0     H52268   2.778  -1.753   2.585  0.3774  1.4044 -2.2493
  379MOL0     H52269   2.866  -1.635   2.680 -0.3279 -0.0152  0.4126
  379MOL0     H52270   2.604  -1.665   2.701  4.0245 -3.6494 -0.5887
  379MOL0     H52271   2.605  -1.610   2.530  0.3412 -2.1524  0.4015
  379MOL0     H52272   2.674  -1.402   2.583  0.3285  0.7306  0.9324
  379MOL0     H52273   2.729  -1.439   2.745 -0.8809 -1.1886  1.9447
  379MOL0     H52274   2.507  -1.290   2.698 -2.1373 -0.4147 -2.5472
  379MOL0     H52275   2.426  -1.441   2.676 -1.0460  0.7209 -0.2071
  379MOL0     H52276   2.559  -1.329   2.912  1.8341 -2.9289  3.2060
  379MOL0     H52277   2.508  -1.501   2.912 -0.8067  0.4276  1.4283
  379MOL0     H52278   2.260  -1.440   2.916  0.2123 -0.7400 -0.8742
  379MOL0     H52279   2.297  -1.287   2.834 -0.8262  2.0321  2.0687
  379MOL0     H52280   2.435  -1.294   3.079  0.3036 -0.9367 -1.2882
  379MOL0     H52281   2.267  -1.351   3.115 -0.4211  3.7470  2.1002
  379MOL0     H52282   2.821  -1.449   2.230 -0.4222  0.9589  0.1956
  379MOL0     H52283   2.875  -1.246   2.079  1.2632 -1.4312 -1.3316
  379MOL0     H52284   3.259  -0.928   1.982 -1.5495 -2.3295 -0.7251
  379MOL0     H52285   3.294  -0.721   1.861  1.8314 -2.8863  0.7067
  379MOL0     H52286   4.287  -0.039   0.988 -1.5947  1.2311 -1.7010
  379MOL0     H52287   4.513  -0.073   0.997 -2.0543  1.2726  1.3908
  379MOL0     H52288   4.991  -0.037   0.550 -4.3510 -0.5897  0.3183
  379MOL0     H52289   5.237  -0.076   0.607  2.2563  2.0713  1.9434
  379MOL0     H52290   5.512  -0.142   0.934  0.6092 -1.9244 -0.0234
  379MOL0     H52291   5.377  -0.105   1.035  3.4672 -2.0059  1.2540
  379MOL0     H52292   5.286  -0.330   0.983  0.4160 -3.2508 -0.0628
  379MOL0     H52293   5.450  -0.346   1.016 -1.9235  2.1280  2.6011
  379MOL0     H52294   5.303  -0.366   0.747 -0.8994 -1.1410  1.2268
  379MOL0     H52295   5.469  -0.320   0.741 -0.1755  1.6975  0.8421
  379MOL0     H52296   5.497  -0.538   0.909  0.1388  0.1185 -0.5192
  379MOL0     H52297   5.495  -0.556   0.731  1.6903 -2.3989  2.0897
  379MOL0     H52298   5.149  -0.766   0.810  0.4286 -0.6331 -0.6300
  379MOL0     H52299   5.161  -0.100   1.007 -0.8194 -0.3198  1.4177
  379MOL0     H52300   4.799  -0.020   0.997 -1.8630 -2.0382  3.0447
  379MOL0     H52301   4.815  -0.185   1.000 -3.2436  1.8168  0.3529
  379MOL0     H52302   4.934  -0.087   1.092 -0.5351  1.1325  0.2152
  380MOL0     O52303   0.463   5.144   7.680 -0.0648  0.1523  0.5739
  380MOL0     C52304   0.357   5.145   7.737 -0.5234 -0.4845  0.2202
  380MOL0     O52305   0.237   5.139   7.672  0.2786 -0.0242  0.3070
  380MOL0     C52306   0.228   5.117   7.537  1.1452  0.2454  0.7973
  380MOL0     C52307   0.271   5.212   7.446 -0.1974  0.4499 -0.0124
  380MOL0     C52308   0.243   5.205   7.309 -0.1271  1.0357  0.2926
  380MOL0     C52309   0.166   5.097   7.268 -0.6301 -0.3479  0.7045
  380MOL0     O52310   0.141   5.089   7.133 -0.3464 -0.1121  0.6612
  380MOL0     C52311   0.015   5.129   7.073  0.3393 -0.4225 -0.4059
  380MOL0     C52312   0.011   5.279   7.033  0.2208 -0.3100 -0.0184
  380MOL0     C52313  -0.121   5.326   6.959  0.2367 -0.6505  0.6147
  380MOL0     C52314  -0.097   5.454   6.874  0.7229  0.4831  0.4271
  380MOL0     C52315  -0.234   5.536   6.846  0.4720  0.0565  0.2870
  380MOL0     C52316  -0.204   5.659   6.762  1.0164  0.2797  0.4909
  380MOL0     C52317  -0.331   5.749   6.750  0.4524 -0.1032  0.7574
  380MOL0     C52318  -0.339   5.839   6.616  0.4963 -0.0512  0.5718
  380MOL0     N52319  -0.446   5.939   6.615  0.5712 -0.1760  0.1289
  380MOL0     C52320  -0.577   5.908   6.632 -0.1422 -0.1276  0.2545
  380MOL0     C52321  -0.649   6.016   6.591 -0.0231 -0.4230 -0.0956
  380MOL0     C52322  -0.797   6.011   6.555  0.1932  0.4827 -0.4830
  380MOL0     C52323  -0.873   6.142   6.568 -0.8686  0.0998  0.1253
  380MOL0     C52324  -0.864   6.232   6.438 -0.4570  0.2313 -0.1183
  380MOL0     C52325  -0.926   6.368   6.466 -0.8097  0.0761  0.4655
  380MOL0     O52326  -0.888   6.458   6.365 -0.5116  0.1293  0.3197
  380MOL0     C52327  -0.964   6.491   6.266  0.0593  0.6988 -0.3900
  380MOL0     C52328  -1.036   6.400   6.188  0.3199 -0.0174  0.9350
  380MOL0     C52329  -1.114   6.443   6.072 -0.2813 -0.3824 -0.4943
  380MOL0     C52330  -1.198   6.335   6.007  1.0309  0.3384 -1.6609
  380MOL0     C52331  -1.121   6.581   6.057 -1.0443 -0.7326 -0.6656
  380MOL0     C52332  -1.192   6.642   5.950  0.2031 -0.5347  1.0000
  380MOL0     O52333  -1.246   6.759   5.977 -0.5964  0.0197 -0.3342
  380MOL0     C52334  -1.308   6.829   5.877 -0.5096  0.4446  0.3888
  380MOL0     C52335  -1.294   6.967   5.879  0.3115 -0.2518 -0.4474
  380MOL0     C52336  -1.369   7.051   5.796 -0.1308 -0.2999 -0.4159
  380MOL0     C52337  -1.473   7.000   5.726 -0.1362 -0.2052  0.0200
  380MOL0     O52338  -1.542   7.077   5.635  0.0676 -0.2865 -1.2638
  380MOL0     C52339  -1.674   7.099   5.686 -0.0530 -0.2374  0.3034
  380MOL0     C52340  -1.745   7.183   5.581 -0.6032 -0.1462  0.1899
  380MOL0     C52341  -1.887   7.218   5.606 -0.6199  0.1224  0.3637
  380MOL0     C52342  -1.962   7.300   5.495 -0.5761  0.7642  0.9649
  380MOL0     C52343  -2.102   7.347   5.537 -0.2311 -0.5108  0.3406
  380MOL0     C52344  -2.186   7.412   5.424 -1.7640 -0.4837 -0.0337
  380MOL0     C52345  -2.129   7.554   5.377  0.4767  1.0164  0.2548
  380MOL0     C52346  -2.217   7.636   5.290 -0.0578  0.5630 -0.4475
  380MOL0    Cl52347  -2.157   7.802   5.254  0.4049  0.2551  0.1579
  380MOL0     C52348  -1.493   6.867   5.725 -0.6007  0.1258  0.4409
  380MOL0     C52349  -1.408   6.780   5.795 -0.6721  1.1499  0.1985
  380MOL0     O52350  -1.187   6.586   5.842  0.2557  0.2145 -0.6286
  380MOL0     C52351  -1.047   6.660   6.135 -0.5760  0.3732 -0.2222
  380MOL0     C52352  -0.964   6.621   6.240  0.0444 -0.0784 -0.0396
  380MOL0     N52353  -0.548   6.117   6.577  0.3301  1.8973 -0.7136
  380MOL0     N52354  -0.434   6.070   6.580 -0.0955  0.3959 -0.6770
  380MOL0     C52355   0.118   5.002   7.355 -0.3647 -0.3943  0.2743
  380MOL0     C52356   0.147   5.012   7.490 -1.4599  0.5949  0.1000
  380MOL0     C52357   0.342   5.147   7.889  0.1339  0.1147 -0.2751
  380MOL0     C52358   0.210   5.179   7.942  0.6566  0.2255  0.6149
  380MOL0     C52359   0.175   5.172   8.077  0.0815 -0.2125  0.4114
  380MOL0     C52360   0.276   5.150   8.163  0.7085 -0.7697 -0.3739
  380MOL0     O52361   0.224   5.158   8.297 -1.0228  0.0793  0.8380
  380MOL0     C52362   0.305   5.126   8.413 -0.0495  0.6634  0.2845
  380MOL0     C52363   0.245   5.009   8.484  0.9363 -0.8248  0.7155
  380MOL0     C52364   0.089   5.018   8.484  1.7188  0.6456 -0.1680
  380MOL0     C52365   0.018   4.920   8.588 -0.3926  0.6053 -0.1544
  380MOL0     C52366  -0.009   4.964   8.727  0.5587 -0.0945  0.4430
  380MOL0     C52367  -0.030   4.989   8.846  0.6293 -0.3901 -0.3408
  380MOL0     C52368   0.406   5.110   8.124 -0.2968  0.0603 -1.0158
  380MOL0     C52369   0.447   5.110   7.990 -0.9877 -0.0338  0.7190
  380MOL0     C52370   0.582   5.060   7.946  0.3561 -0.5542  0.6325
  380MOL0     H52371   0.316   5.308   7.469  5.6210 -1.1943 -2.7367
  380MOL0     H52372   0.262   5.289   7.243 -1.4263  2.6105  1.8148
  380MOL0     H52373  -0.061   5.107   7.149  1.1697  2.0146  1.2820
  380MOL0     H52374  -0.003   5.071   6.982 -3.5819  0.0496 -0.1064
  380MOL0     H52375   0.032   5.336   7.124  3.7864 -0.4421 -0.6325
  380MOL0     H52376   0.093   5.305   6.966  1.5256 -0.5726  1.4371
  380MOL0     H52377  -0.170   5.260   6.887  1.2200 -0.5791 -0.1529
  380MOL0     H52378  -0.192   5.361   7.034 -1.3976  2.0234 -1.9244
  380MOL0     H52379  -0.024   5.523   6.916 -1.7067  4.4932 -1.3531
  380MOL0     H52380  -0.057   5.419   6.778 -1.1052 -0.9519  0.1225
  380MOL0     H52381  -0.277   5.568   6.940  3.6964  1.4408  1.4376
  380MOL0     H52382  -0.295   5.466   6.788 -1.0742  0.7888  0.9849
  380MOL0     H52383  -0.135   5.724   6.816 -0.5259  0.1602  2.7280
  380MOL0     H52384  -0.166   5.630   6.664 -0.3785 -1.6220  0.4566
  380MOL0     H52385  -0.326   5.827   6.827  3.4400  0.0873  0.4903
  380MOL0     H52386  -0.416   5.682   6.765  0.6544 -0.3027  1.0077
  380MOL0     H52387  -0.248   5.885   6.576 -0.2933  0.9138 -0.1821
  380MOL0     H52388  -0.356   5.767   6.535  2.4435 -0.5152  0.5486
  380MOL0     H52389  -0.625   5.812   6.646  1.1953 -1.3056 -2.5181
  380MOL0     H52390  -0.837   5.934   6.623  1.1992 -0.2823 -0.7292
  380MOL0     H52391  -0.801   5.966   6.455  2.7803 -0.9831 -0.0334
  380MOL0     H52392  -0.980   6.135   6.587 -0.5698 -1.9615  1.3449
  380MOL0     H52393  -0.842   6.199   6.656 -3.4085  0.7056  0.7190
  380MOL0     H52394  -0.767   6.266   6.402 -0.6378 -1.3618 -2.3124
  380MOL0     H52395  -0.910   6.181   6.353 -0.7937 -1.4213  1.0168
  380MOL0     H52396  -1.033   6.358   6.490 -1.5022  3.3925 -0.6561
  380MOL0     H52397  -0.896   6.411   6.562 -2.8376  0.3910  1.0052
  380MOL0     H52398  -1.041   6.296   6.218  1.5602 -0.5689 -0.6002
  380MOL0     H52399  -1.289   6.386   5.976  0.1299 -0.4984 -0.4703
  380MOL0     H52400  -1.224   6.261   6.083  0.4141  2.6603  0.4919
  380MOL0     H52401  -1.151   6.280   5.924  1.7320  0.5920 -1.4386
  380MOL0     H52402  -1.231   7.015   5.953 -1.9898  1.4698  0.5108
  380MOL0     H52403  -1.360   7.159   5.788  1.1195 -0.5096 -3.9876
  380MOL0     H52404  -1.724   7.002   5.698  2.4903 -2.1077 -2.5703
  380MOL0     H52405  -1.668   7.146   5.784 -1.4095 -0.2643  0.4212
  380MOL0     H52406  -1.710   7.287   5.582  1.0382 -0.6183  3.2887
  380MOL0     H52407  -1.742   7.141   5.480 -2.1481 -0.1273  0.1134
  380MOL0     H52408  -1.894   7.273   5.700 -2.3792  0.9194 -0.2006
  380MOL0     H52409  -1.937   7.124   5.630 -4.4056  1.4137 -1.6237
  380MOL0     H52410  -1.981   7.235   5.410 -0.7392  1.0947  0.7477
  380MOL0     H52411  -1.894   7.378   5.459  2.8953 -1.7005  1.7286
  380MOL0     H52412  -2.155   7.264   5.584  1.9534 -0.0654  3.9033
  380MOL0     H52413  -2.097   7.431   5.607 -0.2682 -1.1342  1.0991
  380MOL0     H52414  -2.282   7.442   5.467 -1.0508  1.0930  0.5297
  380MOL0     H52415  -2.195   7.347   5.336  0.4649  0.1082 -0.7483
  380MOL0     H52416  -2.044   7.520   5.316 -2.1869 -0.9382 -2.6807
  380MOL0     H52417  -2.121   7.606   5.473 -2.1030  1.0962  0.4736
  380MOL0     H52418  -2.323   7.643   5.314  0.0686  2.7375 -0.3524
  380MOL0     H52419  -2.210   7.599   5.187  0.6904 -1.1454  0.1716
  380MOL0     H52420  -1.566   6.823   5.657  0.1146  0.4366 -0.5477
  380MOL0     H52421  -1.425   6.673   5.783  0.0654  0.9262  1.0341
  380MOL0     H52422  -1.057   6.767   6.118 -2.5229 -0.2399 -4.1333
  380MOL0     H52423  -0.919   6.691   6.308  2.3625 -0.6743 -0.8701
  380MOL0     H52424   0.065   4.917   7.315  0.2810 -1.4559  1.5725
  380MOL0     H52425   0.102   4.931   7.546 -1.9047 -1.3018 -2.7773
  380MOL0     H52426   0.139   5.222   7.872  1.6837  1.4026  0.2428
  380MOL0     H52427   0.076   5.182   8.119  0.3985 -0.1622  1.1712
  380MOL0     H52428   0.413   5.111   8.403 -0.0751 -1.0159  1.8620
  380MOL0     H52429   0.286   5.219   8.468 -2.4983  1.1849 -1.3145
  380MOL0     H52430   0.286   5.008   8.586  0.0462  0.0405  1.1022
  380MOL0     H52431   0.271   4.914   8.435 -1.6448 -2.1858  1.8007
  380MOL0     H52432   0.056   5.114   8.524 -1.7721  0.0372 -1.3015
  380MOL0     H52433   0.046   5.000   8.385  0.0562  0.1253  0.6228
  380MOL0     H52434   0.069   4.823   8.588  0.1684  0.8902  0.5648
  380MOL0     H52435  -0.078   4.893   8.543  0.0624 -1.3676 -0.0380
  380MOL0     H52436  -0.059   5.011   8.947 -1.5488  1.9712 -1.3729
  380MOL0     H52437   0.483   5.101   8.199 -0.3994 -0.7272 -0.9921
  380MOL0     H52438   0.619   5.010   8.037 -0.2761  2.5105  2.7295
  380MOL0     H52439   0.582   4.990   7.862  2.1036  0.5055 -0.3173
  380MOL0     H52440   0.648   5.144   7.923 -0.4323 -0.5632 -1.8496
  381MOL0     O52441   7.890   2.244   5.535  0.0473 -0.0185 -0.3279
  381MOL0     C52442   7.909   2.290   5.648  1.0016 -0.0839  0.3888
  381MOL0     O52443   8.031   2.300   5.696  0.1160  0.4853 -0.5379
  381MOL0     C52444   8.142   2.255   5.615  0.3340  0.2464 -0.6703
  381MOL0     C52445   8.172   2.115   5.629 -0.9092 -0.1615  0.0430
  381MOL0     C52446   8.272   2.057   5.539  0.8795 -0.1356  0.0624
  381MOL0     C52447   8.337   2.139   5.442  0.3661  0.9786  0.4191
  381MOL0     O52448   8.423   2.086   5.351  0.6997  0.3219  0.4923
  381MOL0     C52449   8.426   1.947   5.332  0.6677 -0.1547  0.2836
  381MOL0     C52450   8.514   1.907   5.217 -0.5527  0.6276  0.5390
  381MOL0     C52451   8.438   1.912   5.088  0.5740  0.7005 -1.0487
  381MOL0     C52452   8.520   1.901   4.962 -0.1284 -0.0370 -0.4771
  381MOL0     C52453   8.432   1.916   4.847 -0.6962 -0.7064  0.0823
  381MOL0     C52454   8.481   1.928   4.702 -0.7337  0.3786 -0.3794
  381MOL0     C52455   8.606   2.014   4.691  0.3639 -1.3889 -0.2383
  381MOL0     C52456   8.583   2.160   4.733  0.6265  0.4656 -0.4967
  381MOL0     N52457   8.671   2.247   4.656 -0.0723  0.6402 -0.3737
  381MOL0     C52458   8.655   2.378   4.617  0.1168 -1.2776  0.6008
  381MOL0     C52459   8.763   2.428   4.549  0.2053  0.1740 -0.2885
  381MOL0     C52460   8.788   2.554   4.465  0.5042 -0.7311 -1.0356
  381MOL0     C52461   8.658   2.591   4.390 -0.2778 -0.0425 -0.2892
  381MOL0     C52462   8.625   2.482   4.283 -0.8582  0.6855 -0.1859
  381MOL0     C52463   8.507   2.530   4.190  0.5668 -0.3084 -0.5208
  381MOL0     O52464   8.551   2.624   4.088  0.1944  0.1660  0.6499
  381MOL0     C52465   8.463   2.723   4.040  1.0806  0.4052  0.0987
  381MOL0     C52466   8.493   2.765   3.909  0.2211 -0.3550  0.3947
  381MOL0     C52467   8.433   2.871   3.850  0.4951 -0.3074 -0.6624
  381MOL0     C52468   8.490   2.923   3.722 -0.3250  0.1557 -0.2458
  381MOL0     C52469   8.325   2.938   3.920 -0.9825  0.4133  0.0523
  381MOL0     C52470   8.243   3.046   3.861 -0.1753 -1.3501  0.4596
  381MOL0     O52471   8.225   3.154   3.941  0.3212  0.4207  0.3101
  381MOL0     C52472   8.134   3.254   3.931  0.8494 -0.8711 -0.6404
  381MOL0     C52473   8.089   3.312   4.046 -0.1092  0.5481  0.8756
  381MOL0     C52474   7.985   3.410   4.049 -0.4515 -0.0823 -0.2609
  381MOL0     C52475   7.922   3.457   3.936  0.0078  1.0069 -1.2085
  381MOL0     O52476   7.844   3.570   3.928  0.8118  0.4231  1.1440
  381MOL0     C52477   7.705   3.547   3.899 -0.0927 -0.2360 -0.1637
  381MOL0     C52478   7.618   3.651   3.979 -0.4128  0.0935  0.1608
  381MOL0     C52479   7.625   3.629   4.133 -0.1388  0.1641  0.3137
  381MOL0     C52480   7.536   3.730   4.211 -0.2125 -0.3769 -0.8429
  381MOL0     C52481   7.517   3.723   4.368 -0.0504 -0.3356  0.7890
  381MOL0     C52482   7.649   3.720   4.441 -1.1029  0.2024 -0.5583
  381MOL0     C52483   7.634   3.670   4.589 -0.0744  0.5869  0.5550
  381MOL0     C52484   7.762   3.680   4.660 -0.3372 -0.6943  0.1080
  381MOL0    Cl52485   7.837   3.853   4.675  0.3463  0.2670 -0.1401
  381MOL0     C52486   7.956   3.389   3.819 -0.7904 -0.0270 -0.2445
  381MOL0     C52487   8.059   3.290   3.817 -0.2377 -0.6375  0.2098
  381MOL0     O52488   8.202   3.029   3.746  0.2600 -0.1615  0.0510
  381MOL0     C52489   8.284   2.891   4.045  0.2561 -0.2946  0.3326
  381MOL0     C52490   8.352   2.781   4.098  0.2593  0.8035  0.5327
  381MOL0     N52491   8.857   2.320   4.552 -0.7282  0.3681 -0.0128
  381MOL0     N52492   8.795   2.214   4.606  0.9458 -0.4808  0.0562
  381MOL0     C52493   8.308   2.279   5.440 -0.2202 -0.3841 -0.0951
  381MOL0     C52494   8.215   2.332   5.530  0.3504 -0.1398  0.6946
  381MOL0     C52495   7.790   2.314   5.737  0.1276  0.7728  0.2968
  381MOL0     C52496   7.668   2.306   5.668  0.5957  0.0634 -0.4000
  381MOL0     C52497   7.549   2.344   5.728 -0.3361 -0.0977 -0.9082
  381MOL0     C52498   7.543   2.378   5.863  0.6226 -0.6745  0.2701
  381MOL0     O52499   7.429   2.414   5.939 -0.4740  0.5515 -0.5344
  381MOL0     C52500   7.308   2.439   5.868 -1.5430 -0.7716  1.1858
  381MOL0     C52501   7.219   2.476   5.976  0.0878 -0.7854 -0.5963
  381MOL0     C52502   7.179   2.365   6.075 -0.2925 -1.3519 -0.7432
  381MOL0     C52503   7.126   2.422   6.203  1.4884 -0.0422 -0.5889
  381MOL0     C52504   7.015   2.519   6.191 -0.3597 -0.1956  0.2398
  381MOL0     C52505   6.929   2.607   6.199  0.3044  0.8882 -0.6566
  381MOL0     C52506   7.662   2.376   5.936 -0.1963 -0.5956 -0.1787
  381MOL0     C52507   7.788   2.352   5.879  0.0936  0.6729 -0.6440
  381MOL0     C52508   7.912   2.327   5.962 -0.0684  0.3114 -0.7977
  381MOL0     H52509   8.132   2.048   5.705  1.2899 -0.9249  0.6017
  381MOL0     H52510   8.297   1.952   5.548  2.8563  0.5003  3.5597
  381MOL0     H52511   8.323   1.913   5.317  0.4080  0.0702  1.4580
  381MOL0     H52512   8.460   1.907   5.429 -0.9618 -0.9981  0.5441
  381MOL0     H52513   8.604   1.968   5.230  1.1020 -1.8311  1.5315
  381MOL0     H52514   8.550   1.804   5.226 -1.2037  0.5616  3.3696
  381MOL0     H52515   8.370   1.828   5.106  1.2868  0.7204  2.6291
  381MOL0     H52516   8.380   2.004   5.094  0.5196  0.7051 -1.6586
  381MOL0     H52517   8.603   1.972   4.957 -0.7396  0.5944 -2.2523
  381MOL0     H52518   8.558   1.799   4.953 -1.4798 -0.4202 -2.5035
  381MOL0     H52519   8.371   2.005   4.867  0.6899  0.0878  0.9372
  381MOL0     H52520   8.379   1.820   4.848 -0.9668 -0.6665  3.8733
  381MOL0     H52521   8.524   1.832   4.671 -0.5827  0.4571 -0.4167
  381MOL0     H52522   8.406   1.950   4.626 -1.1072 -0.3020 -0.2177
  381MOL0     H52523   8.627   2.013   4.584 -4.2694  1.8834 -1.5004
  381MOL0     H52524   8.685   1.967   4.751  1.1443  1.3437  1.0155
  381MOL0     H52525   8.476   2.168   4.709  0.1726  0.9861  1.4882
  381MOL0     H52526   8.612   2.169   4.837  1.4594 -0.5368 -0.6334
  381MOL0     H52527   8.564   2.432   4.640  0.9506  1.0468 -1.1072
  381MOL0     H52528   8.866   2.532   4.391 -1.0866 -0.0173 -3.0418
  381MOL0     H52529   8.821   2.639   4.526 -0.1108 -0.3781 -1.1913
  381MOL0     H52530   8.581   2.609   4.465  0.5036  0.5805  0.3842
  381MOL0     H52531   8.672   2.686   4.337 -0.3403  1.2131  1.8365
  381MOL0     H52532   8.709   2.442   4.227 -2.6877 -2.5534 -0.8303
  381MOL0     H52533   8.594   2.390   4.334 -0.8034  0.7408 -0.0518
  381MOL0     H52534   8.461   2.439   4.150  0.6444 -1.1165  1.1128
  381MOL0     H52535   8.416   2.573   4.232  2.1392  2.3295  0.4623
  381MOL0     H52536   8.573   2.702   3.870  2.8544  1.5389  2.3707
  381MOL0     H52537   8.538   3.020   3.739 -0.3813  0.0715  0.4371
  381MOL0     H52538   8.418   2.947   3.643  1.0136  1.2063 -1.1822
  381MOL0     H52539   8.568   2.856   3.685 -0.0353 -0.3139  1.1523
  381MOL0     H52540   8.134   3.267   4.134 -0.5466  0.8051  1.2345
  381MOL0     H52541   7.959   3.449   4.147  1.8729  1.9349 -0.3467
  381MOL0     H52542   7.703   3.561   3.791 -0.8270  1.7497  0.0758
  381MOL0     H52543   7.671   3.448   3.932 -0.9040  0.2845  0.5996
  381MOL0     H52544   7.654   3.752   3.955  2.1610 -0.2210  2.1893
  381MOL0     H52545   7.513   3.648   3.951 -0.5746 -2.3539  0.8692
  381MOL0     H52546   7.725   3.648   4.171  0.4305 -0.8453 -0.6106
  381MOL0     H52547   7.590   3.528   4.156 -0.9561  0.2488 -0.4981
  381MOL0     H52548   7.434   3.721   4.171  0.1725 -1.3856 -1.6735
  381MOL0     H52549   7.570   3.832   4.194 -2.0835  0.6153  0.9132
  381MOL0     H52550   7.453   3.799   4.413 -1.4368 -1.6475  1.1330
  381MOL0     H52551   7.459   3.630   4.376 -3.3419  1.6126  1.5666
  381MOL0     H52552   7.701   3.815   4.428 -1.4651  0.7841  1.8074
  381MOL0     H52553   7.712   3.637   4.406 -0.2350 -0.0940  1.5684
  381MOL0     H52554   7.615   3.563   4.592  2.3747  0.0936  2.2375
  381MOL0     H52555   7.556   3.725   4.643  1.3248  1.8312  1.4005
  381MOL0     H52556   7.828   3.606   4.613 -0.9047  0.9193 -3.5360
  381MOL0     H52557   7.756   3.653   4.766 -0.2000  1.6627  0.7737
  381MOL0     H52558   7.907   3.416   3.726 -0.6577  2.4073  0.3378
  381MOL0     H52559   8.086   3.252   3.719 -1.0747  0.1757 -0.3471
  381MOL0     H52560   8.194   2.936   4.086 -0.8708  1.2836 -3.3968
  381MOL0     H52561   8.343   2.757   4.204 -1.0141 -1.7351 -0.0675
  381MOL0     H52562   8.344   2.343   5.360 -0.5179  2.6380  1.9977
  381MOL0     H52563   8.196   2.439   5.528 -0.1011 -0.2228  0.6410
  381MOL0     H52564   7.654   2.306   5.560  1.4426  1.6382 -0.5380
  381MOL0     H52565   7.466   2.364   5.660  0.2514  0.9803 -1.3333
  381MOL0     H52566   7.326   2.520   5.797 -0.0708 -1.5235  0.6666
  381MOL0     H52567   7.253   2.361   5.815 -0.1268  0.3861 -2.2701
  381MOL0     H52568   7.133   2.530   5.935 -0.5515  0.9121  2.6403
  381MOL0     H52569   7.273   2.549   6.037  0.8577 -2.5482  0.9344
  381MOL0     H52570   7.105   2.305   6.022  0.9728 -0.0834 -4.2073
  381MOL0     H52571   7.269   2.305   6.090  0.9777  0.6262 -0.0586
  381MOL0     H52572   7.214   2.471   6.247  0.8726  0.5126  0.0599
  381MOL0     H52573   7.085   2.346   6.270 -1.8143  0.1817 -2.1855
  381MOL0     H52574   6.849   2.678   6.201 -1.5933 -1.1294  2.1741
  381MOL0     H52575   7.651   2.386   6.043 -0.0429  0.3724 -0.2465
  381MOL0     H52576   7.885   2.347   6.066 -0.9735 -0.4716 -0.8680
  381MOL0     H52577   7.952   2.226   5.952 -1.2400 -0.1255 -1.2065
  381MOL0     H52578   7.994   2.389   5.925  0.0860 -0.3304 -1.5536
  382MOL0     O52579   9.602   2.902   1.474  1.2410  0.2873 -0.5673
  382MOL0     C52580   9.630   2.809   1.546 -0.9795 -0.2887 -0.0366
  382MOL0     O52581   9.581   2.680   1.542 -0.0784 -0.0114  0.4127
  382MOL0     C52582   9.481   2.644   1.451 -1.0421  0.2152 -1.3921
  382MOL0     C52583   9.392   2.550   1.492 -0.1937 -0.0389 -0.6206
  382MOL0     C52584   9.291   2.513   1.405  0.0204  0.2152  0.6758
  382MOL0     C52585   9.284   2.558   1.263 -0.4764  0.0315  0.0851
  382MOL0     O52586   9.187   2.511   1.178  0.0018  0.2951 -0.5289
  382MOL0     C52587   9.216   2.513   1.037  0.0290  0.9197 -0.9803
  382MOL0     C52588   9.097   2.474   0.951  0.1324  0.9373  0.8382
  382MOL0     C52589   9.068   2.326   0.937  0.1733  0.3864  0.2978
  382MOL0     C52590   8.939   2.292   0.873 -0.5928 -0.0630  0.5019
  382MOL0     C52591   8.903   2.153   0.920  0.9166  1.1787  0.1746
  382MOL0     C52592   8.778   2.119   0.838 -0.7452  1.0130  0.6182
  382MOL0     C52593   8.717   1.986   0.891 -0.8526 -0.6060 -1.1108
  382MOL0     C52594   8.789   1.859   0.852 -0.7347  0.6600  1.1575
  382MOL0     N52595   8.779   1.837   0.706 -0.3140 -0.4159 -0.7711
  382MOL0     C52596   8.677   1.796   0.636 -0.5121  0.9930  0.1750
  382MOL0     C52597   8.724   1.808   0.505  0.4351  0.7934  1.0933
  382MOL0     C52598   8.648   1.765   0.380  0.9562 -0.7091 -0.1816
  382MOL0     C52599   8.522   1.674   0.408 -0.1357  0.1393  1.0204
  382MOL0     C52600   8.385   1.751   0.432 -0.1604  0.0102 -0.7367
  382MOL0     C52601   8.255   1.664   0.456  0.3511 -0.6348  0.9340
  382MOL0     O52602   8.251   1.541   0.382  0.6009  0.0593 -0.1426
  382MOL0     C52603   8.173   1.440   0.424  0.0375  0.3440 -0.8208
  382MOL0     C52604   8.184   1.320   0.350  0.0805  0.1188  0.3926
  382MOL0     C52605   8.104   1.210   0.378 -0.0737 -0.4076  1.1412
  382MOL0     C52606   8.118   1.098   0.269 -0.7862 -0.3506  0.7834
  382MOL0     C52607   8.012   1.209   0.489 -0.8816  0.3946 -0.1347
  382MOL0     C52608   7.914   1.107   0.523  0.8756 -0.3096 -0.4100
  382MOL0     O52609   7.895   1.009   0.438 -0.2415 -0.0364  0.5452
  382MOL0     C52610   7.808   0.913   0.478 -0.0587 -0.0877  0.0779
  382MOL0     C52611   7.666   0.936   0.496 -0.5080 -0.1023  0.3725
  382MOL0     C52612   7.582   0.830   0.523 -0.0839 -0.1161 -1.0576
  382MOL0     C52613   7.632   0.703   0.529  0.3480  0.2035  0.0337
  382MOL0     O52614   7.538   0.609   0.548  0.1213  0.1007 -0.6390
  382MOL0     C52615   7.541   0.485   0.479  1.7941 -0.7673 -0.1197
  382MOL0     C52616   7.403   0.415   0.509 -0.2099 -0.1634  0.1191
  382MOL0     C52617   7.411   0.290   0.423 -0.0492 -0.9616 -0.0038
  382MOL0     C52618   7.280   0.225   0.415 -0.5122 -0.7050  0.4228
  382MOL0     C52619   7.297   0.109   0.314  0.0442  0.3517  1.1826
  382MOL0     C52620   7.170   0.030   0.284  0.2894 -0.6701  0.1372
  382MOL0     C52621   7.169  -0.033   0.145 -0.4636 -0.7712  1.6199
  382MOL0     C52622   7.294  -0.133   0.125  0.7562 -0.6714 -0.2882
  382MOL0    Cl52623   7.305  -0.229   0.275 -0.8724  0.0667 -0.6136
  382MOL0     C52624   7.771   0.677   0.504  0.1660  0.7491  0.0728
  382MOL0     C52625   7.856   0.780   0.490  0.5727 -0.4761 -0.9913
  382MOL0     O52626   7.834   1.136   0.612  0.1730  0.8077 -0.0014
  382MOL0     C52627   8.011   1.332   0.562  0.0472  0.1223  0.7447
  382MOL0     C52628   8.084   1.449   0.526  0.1886 -0.8448 -0.2188
  382MOL0     N52629   8.854   1.853   0.502 -0.0724  0.0209 -0.3531
  382MOL0     N52630   8.879   1.868   0.625 -0.0763  0.2654  0.1793
  382MOL0     C52631   9.387   2.654   1.231  0.8153  1.0601  0.2072
  382MOL0     C52632   9.481   2.694   1.319  0.7642 -0.2350  0.6297
  382MOL0     C52633   9.732   2.837   1.637 -0.2177 -0.1947 -0.4552
  382MOL0     C52634   9.854   2.894   1.604  0.2178  0.7374  0.9461
  382MOL0     C52635   9.964   2.897   1.688 -0.3201 -0.2604  0.2039
  382MOL0     C52636   9.955   2.862   1.831  0.0706  0.1298  0.3004
  382MOL0     O52637  10.062   2.859   1.920 -0.0422  0.8077  0.1661
  382MOL0     C52638  10.200   2.865   1.876  0.1696 -0.5679  0.1356
  382MOL0     C52639  10.242   3.011   1.885 -0.9055  0.3335  0.4463
  382MOL0     C52640  10.261   3.043   2.029  0.5303 -0.3746  0.9954
  382MOL0     C52641  10.317   3.186   2.054 -0.9689  0.9376 -0.7050
  382MOL0     C52642  10.210   3.282   2.026  0.9369  0.4113 -0.0813
  382MOL0     C52643  10.097   3.336   2.024 -0.6108 -0.1511 -0.0242
  382MOL0     C52644   9.822   2.824   1.872  0.2189 -1.1864  0.5082
  382MOL0     C52645   9.720   2.801   1.773  0.9369 -0.0268  0.0714
  382MOL0     C52646   9.607   2.716   1.834 -0.2275  0.5148 -0.0743
  382MOL0     H52647   9.409   2.524   1.596  0.0542  0.6819 -0.4760
  382MOL0     H52648   9.227   2.430   1.432  2.1845 -3.0967 -3.2593
  382MOL0     H52649   9.316   2.474   1.017  0.1198 -1.1788  2.7142
  382MOL0     H52650   9.216   2.619   1.009  1.4134  1.1495 -0.1817
  382MOL0     H52651   9.006   2.519   0.991 -1.8649 -2.8005  0.8163
  382MOL0     H52652   9.105   2.518   0.851  3.9659  0.2682  0.6785
  382MOL0     H52653   9.154   2.274   0.894 -0.6649 -0.1309 -0.8152
  382MOL0     H52654   9.066   2.302   1.044  1.0997  0.0322  0.2413
  382MOL0     H52655   8.848   2.353   0.885  0.7219  1.8303  1.2775
  382MOL0     H52656   8.960   2.288   0.765 -0.2809 -3.8155  0.5753
  382MOL0     H52657   8.875   2.156   1.025 -1.7799 -1.4198 -0.3461
  382MOL0     H52658   8.986   2.083   0.907  1.2505  1.1796  2.0676
  382MOL0     H52659   8.697   2.191   0.852 -1.9812 -0.6727  3.0563
  382MOL0     H52660   8.810   2.120   0.733  3.0301 -1.3578  1.5454
  382MOL0     H52661   8.618   2.000   0.847 -0.7670 -0.6553 -1.3202
  382MOL0     H52662   8.724   1.979   1.000 -1.7306  0.7181 -0.9375
  382MOL0     H52663   8.897   1.873   0.864 -0.1946 -0.9705 -1.0743
  382MOL0     H52664   8.745   1.769   0.895  0.6348 -0.9401 -0.6370
  382MOL0     H52665   8.583   1.759   0.675 -1.1265  2.8364  0.5193
  382MOL0     H52666   8.722   1.712   0.320  1.7589  1.4024 -1.1869
  382MOL0     H52667   8.616   1.857   0.331 -2.8523 -0.4321  2.3536
  382MOL0     H52668   8.508   1.604   0.325  0.1302  0.3291  0.8130
  382MOL0     H52669   8.540   1.606   0.492 -1.0320  1.2828  2.1892
  382MOL0     H52670   8.408   1.811   0.520 -1.1605 -0.7361  0.0560
  382MOL0     H52671   8.367   1.818   0.347  2.3777  1.0391 -0.5169
  382MOL0     H52672   8.256   1.639   0.562 -3.1284 -2.1549  0.7451
  382MOL0     H52673   8.166   1.727   0.455  3.2543  4.1104 -2.3781
  382MOL0     H52674   8.250   1.320   0.264 -2.4422  1.4538 -1.6944
  382MOL0     H52675   8.060   1.008   0.288 -0.3101 -0.5517  1.3183
  382MOL0     H52676   8.226   1.080   0.257 -1.0621 -0.2551 -3.2675
  382MOL0     H52677   8.091   1.125   0.166 -0.8995 -1.6906  0.4389
  382MOL0     H52678   7.638   1.040   0.509 -0.9459 -0.2510  0.6744
  382MOL0     H52679   7.477   0.821   0.551  0.5254  2.2169  2.6517
  382MOL0     H52680   7.547   0.489   0.369 -2.0339 -2.2812 -0.5316
  382MOL0     H52681   7.626   0.433   0.523  1.2740 -0.9965  0.6220
  382MOL0     H52682   7.396   0.374   0.610 -2.9882 -1.5988 -0.5649
  382MOL0     H52683   7.318   0.481   0.491 -0.1613 -0.3487 -0.8828
  382MOL0     H52684   7.495   0.228   0.454  0.8432 -0.5088 -1.4277
  382MOL0     H52685   7.437   0.322   0.322  3.7925  0.1073  1.1605
  382MOL0     H52686   7.198   0.288   0.378 -0.7817 -1.9120 -1.1403
  382MOL0     H52687   7.244   0.195   0.513 -2.9873 -0.3128 -0.2823
  382MOL0     H52688   7.341   0.150   0.222 -1.2613 -0.1940  0.2746
  382MOL0     H52689   7.375   0.046   0.356  0.4476  0.6217  0.8523
  382MOL0     H52690   7.081   0.093   0.280  0.8248  0.1911  1.4161
  382MOL0     H52691   7.151  -0.036   0.369 -2.4320 -0.3878 -0.1640
  382MOL0     H52692   7.184   0.049   0.075  2.8661  0.7155  3.8108
  382MOL0     H52693   7.077  -0.092   0.142 -0.6304 -0.4936  1.3518
  382MOL0     H52694   7.395  -0.092   0.116  0.5567 -0.3179 -0.9394
  382MOL0     H52695   7.284  -0.196   0.036 -2.0029  0.8721 -1.1731
  382MOL0     H52696   7.810   0.578   0.526 -0.7188  0.3029 -0.2949
  382MOL0     H52697   7.964   0.767   0.493  0.6801 -0.1069  3.7495
  382MOL0     H52698   7.959   1.331   0.657  2.2963 -1.1902  2.0815
  382MOL0     H52699   8.084   1.538   0.589  1.2415 -1.3528  0.5244
  382MOL0     H52700   9.396   2.698   1.132  0.7710 -1.0400 -0.8100
  382MOL0     H52701   9.557   2.763   1.286  3.4618 -3.3833 -0.2668
  382MOL0     H52702   9.872   2.927   1.503 -1.1903 -1.7779 -0.2369
  382MOL0     H52703  10.060   2.942   1.666 -0.8006 -0.7118 -3.5165
  382MOL0     H52704  10.250   2.793   1.942 -1.1620 -1.1282  0.5713
  382MOL0     H52705  10.204   2.824   1.775 -0.4329 -2.6292  0.8926
  382MOL0     H52706  10.161   3.077   1.850  0.4951  0.6603 -2.5450
  382MOL0     H52707  10.327   3.038   1.821 -1.8814 -1.0167 -1.5347
  382MOL0     H52708  10.163   3.032   2.075  0.2879 -0.6209  0.4276
  382MOL0     H52709  10.335   2.968   2.060  1.7973  0.1817 -0.5190
  382MOL0     H52710  10.405   3.195   1.989 -0.3719  0.1717 -0.0190
  382MOL0     H52711  10.345   3.193   2.160 -1.3808  0.2654 -0.5457
  382MOL0     H52712  10.018   3.401   1.993  1.6543  2.0215 -1.6463
  382MOL0     H52713   9.796   2.815   1.977  3.6014 -1.4440  1.4263
  382MOL0     H52714   9.595   2.617   1.789  0.6156  1.3554 -2.3047
  382MOL0     H52715   9.619   2.713   1.942 -0.5895 -1.4759 -0.0510
  382MOL0     H52716   9.510   2.765   1.820 -0.9568 -1.5429 -3.6527
  383MOL0     O52717  10.746   4.173  11.162  0.2374 -0.2341 -0.3452
  383MOL0     C52718  10.743   4.214  11.043 -0.0325 -0.4471 -0.1956
  383MOL0     O52719  10.791   4.346  11.006  0.7568 -0.3396 -0.6505
  383MOL0     C52720  10.832   4.424  11.109 -0.4547  0.6074  0.7803
  383MOL0     C52721  10.756   4.447  11.223  0.4280 -0.0268 -0.8834
  383MOL0     C52722  10.803   4.514  11.335  0.3756  0.0737  0.1861
  383MOL0     C52723  10.935   4.568  11.328 -0.0507 -0.6809  0.6838
  383MOL0     O52724  10.976   4.625  11.443  0.1199  0.3267 -0.3639
  383MOL0     C52725  11.091   4.712  11.432  0.3663  0.5464  0.8693
  383MOL0     C52726  11.085   4.836  11.526  0.3089  1.0560 -0.3388
  383MOL0     C52727  11.136   4.819  11.669 -0.0090 -0.6039  0.1110
  383MOL0     C52728  11.104   4.945  11.752 -0.6148  0.1726  1.2842
  383MOL0     C52729  11.088   4.914  11.897  0.0372 -0.3090  0.2360
  383MOL0     C52730  11.213   4.859  11.970 -0.5976 -0.3153 -0.2856
  383MOL0     C52731  11.192   4.818  12.114  0.4835  0.2491 -0.4767
  383MOL0     C52732  11.320   4.758  12.181  0.4533 -0.0323  0.1328
  383MOL0     N52733  11.438   4.841  12.164 -0.5500 -0.9429 -0.0358
  383MOL0     C52734  11.464   4.962  12.222  0.6258  0.4921  1.2745
  383MOL0     C52735  11.580   5.002  12.166  0.3225 -0.2313  0.6518
  383MOL0     C52736  11.646   5.120  12.230 -0.2661  0.5479  0.9978
  383MOL0     C52737  11.615   5.255  12.160  0.3493  0.8531 -0.0373
  383MOL0     C52738  11.471   5.275  12.091 -0.1864 -0.2860  0.9364
  383MOL0     C52739  11.450   5.403  12.007  0.3722 -1.0858  0.2723
  383MOL0     O52740  11.310   5.409  11.979 -0.5833 -0.1945  0.8039
  383MOL0     C52741  11.274   5.479  11.876  0.0841  0.4635 -0.2724
  383MOL0     C52742  11.276   5.614  11.888  0.1279 -0.0826  0.6814
  383MOL0     C52743  11.221   5.690  11.775 -0.4393  0.0799 -0.3183
  383MOL0     C52744  11.228   5.836  11.784 -0.2049  0.5163 -0.3777
  383MOL0     C52745  11.179   5.622  11.662 -0.2009 -0.3287 -0.1007
  383MOL0     C52746  11.102   5.682  11.551 -0.1495  0.0624 -0.4426
  383MOL0     O52747  11.047   5.588  11.458  0.0658 -0.2052  0.3270
  383MOL0     C52748  10.994   5.647  11.346 -0.0343 -0.2389  0.0606
  383MOL0     C52749  11.053   5.621  11.233  0.1309 -0.1135  1.1226
  383MOL0     C52750  10.990   5.647  11.114  0.2179  0.1182 -0.5702
  383MOL0     C52751  10.863   5.716  11.118 -1.0360  0.5587  0.7478
  383MOL0     O52752  10.777   5.733  11.008 -0.8184 -0.0384  0.5495
  383MOL0     C52753  10.777   5.630  10.900 -0.7005 -0.5642  0.1275
  383MOL0     C52754  10.868   5.683  10.781  0.3061 -0.8797 -0.9280
  383MOL0     C52755  10.855   5.837  10.742  0.1625  0.2886 -0.4531
  383MOL0     C52756  10.967   5.881  10.642 -0.1473 -0.2749 -0.1686
  383MOL0     C52757  10.950   6.018  10.572  0.6329 -0.5101  0.5649
  383MOL0     C52758  11.051   6.068  10.472  0.3972  0.5351  0.8158
  383MOL0     C52759  11.021   6.000  10.334  0.6322  1.5061  0.0699
  383MOL0     C52760  11.136   6.021  10.238 -0.5031  0.2352  0.0566
  383MOL0    Cl52761  11.299   5.962  10.290  0.0029 -0.2310 -0.5886
  383MOL0     C52762  10.815   5.762  11.240 -0.0377  0.1213  0.3935
  383MOL0     C52763  10.878   5.725  11.356 -0.9404 -0.1991 -0.2452
  383MOL0     O52764  11.082   5.801  11.541 -0.3032 -0.3841  0.2749
  383MOL0     C52765  11.194   5.483  11.654 -0.6990  0.4143 -0.3081
  383MOL0     C52766  11.239   5.412  11.758  0.2800  0.3536 -0.1460
  383MOL0     N52767  11.630   4.918  12.067  0.1456 -0.0494 -0.1450
  383MOL0     N52768  11.534   4.823  12.068 -0.0181  0.4287 -0.2720
  383MOL0     C52769  11.022   4.539  11.217 -0.8774  0.5179  0.2120
  383MOL0     C52770  10.968   4.466  11.109 -0.1119  0.0815  0.2419
  383MOL0     C52771  10.692   4.130  10.931 -0.0374 -0.2722  0.8909
  383MOL0     C52772  10.685   4.188  10.806 -0.3680  0.3752 -0.2853
  383MOL0     C52773  10.644   4.113  10.694  0.0500 -0.2800 -0.3804
  383MOL0     C52774  10.602   3.984  10.702 -0.5859  0.5832 -0.2297
  383MOL0     O52775  10.557   3.901  10.600  0.4166 -0.1794 -0.2844
  383MOL0     C52776  10.600   3.934  10.471  0.0226  0.2293 -0.2187
  383MOL0     C52777  10.587   3.815  10.375 -0.4271 -0.0192 -0.1099
  383MOL0     C52778  10.668   3.842  10.243 -0.7597  0.0928 -0.0486
  383MOL0     C52779  10.597   3.778  10.121 -0.4901 -0.3894 -0.1491
  383MOL0     C52780  10.644   3.640  10.096  0.1147 -0.1996  0.2250
  383MOL0     C52781  10.679   3.520  10.083 -1.1805 -0.0299 -0.1013
  383MOL0     C52782  10.601   3.932  10.839  0.2317  0.2754  1.3095
  383MOL0     C52783  10.659   3.990  10.956  1.0259 -0.8184 -0.0985
  383MOL0     C52784  10.649   3.906  11.080  0.8413  0.1240 -0.6941
  383MOL0     H52785  10.656   4.406  11.234 -0.4281 -0.3717 -6.8343
  383MOL0     H52786  10.734   4.525  11.418 -1.6762  0.7420 -1.5094
  383MOL0     H52787  11.089   4.749  11.329 -1.2981 -4.2458 -1.1123
  383MOL0     H52788  11.185   4.660  11.450  0.8888  0.2812 -2.1307
  383MOL0     H52789  11.132   4.923  11.479 -1.0637  1.8974 -0.2120
  383MOL0     H52790  10.978   4.853  11.544  0.3442 -1.0836  2.5891
  383MOL0     H52791  11.088   4.731  11.715 -0.3665  0.1067  1.1332
  383MOL0     H52792  11.244   4.811  11.659 -0.0985 -2.6527  0.3140
  383MOL0     H52793  11.189   5.013  11.751 -0.2963 -0.1760  2.6017
  383MOL0     H52794  11.023   5.005  11.710  1.6178  0.3991 -3.3338
  383MOL0     H52795  11.004   4.843  11.891  0.5757 -0.8600 -1.3682
  383MOL0     H52796  11.057   5.003  11.952  1.0575 -2.0771  4.0093
  383MOL0     H52797  11.265   4.778  11.919 -0.6490 -0.9935  0.7084
  383MOL0     H52798  11.286   4.941  11.969 -2.0563  1.0607  0.7399
  383MOL0     H52799  11.102   4.755  12.119 -1.7114  3.2611  1.8831
  383MOL0     H52800  11.162   4.910  12.164  4.6650  1.4647  0.1637
  383MOL0     H52801  11.298   4.748  12.288  1.7945  0.3297  0.4680
  383MOL0     H52802  11.338   4.659  12.140  0.6545  0.0344  0.0566
  383MOL0     H52803  11.414   5.008  12.307  0.7897  1.5569  0.8152
  383MOL0     H52804  11.754   5.101  12.219  0.5377 -0.4559  6.9566
  383MOL0     H52805  11.628   5.139  12.336  1.5037  2.0295  1.0791
  383MOL0     H52806  11.633   5.344  12.221  1.8217  0.0291  0.7817
  383MOL0     H52807  11.694   5.254  12.084 -0.1756  1.5102 -0.6024
  383MOL0     H52808  11.462   5.183  12.032 -0.7792  1.3544 -1.6855
  383MOL0     H52809  11.399   5.268  12.173  0.0685 -0.7025  1.1246
  383MOL0     H52810  11.484   5.497  12.052 -3.3152  0.0555  1.0222
  383MOL0     H52811  11.500   5.380  11.912 -2.6095 -1.6782 -1.2991
  383MOL0     H52812  11.304   5.655  11.985  1.6793 -0.7482  0.5469
  383MOL0     H52813  11.139   5.889  11.749 -0.5281  0.8941  0.9615
  383MOL0     H52814  11.311   5.864  11.719  1.1796 -0.9141  0.6915
  383MOL0     H52815  11.259   5.889  11.875 -1.1458  1.2991 -0.4949
  383MOL0     H52816  11.148   5.569  11.227  0.0992 -0.0416 -0.9564
  383MOL0     H52817  11.041   5.622  11.022  3.5255  0.9998  0.8811
  383MOL0     H52818  10.805   5.531  10.935 -2.1982 -0.6514  1.1403
  383MOL0     H52819  10.678   5.631  10.854 -0.3436  0.2123 -0.6734
  383MOL0     H52820  10.975   5.675  10.802  0.3902  0.4724 -0.7273
  383MOL0     H52821  10.829   5.629  10.695  0.5227  1.3664 -2.5292
  383MOL0     H52822  10.858   5.903  10.829  1.3077 -2.8800  2.1481
  383MOL0     H52823  10.767   5.836  10.677  0.4445  1.7579 -0.8911
  383MOL0     H52824  10.959   5.799  10.570  0.4364 -2.4366  2.1054
  383MOL0     H52825  11.070   5.877  10.679  0.7802 -4.8740 -2.4629
  383MOL0     H52826  10.849   6.019  10.529  0.9864  2.2860 -0.3963
  383MOL0     H52827  10.933   6.088  10.655  0.8611 -1.0582  1.0822
  383MOL0     H52828  11.150   6.040  10.509 -0.1305 -0.8747  1.2204
  383MOL0     H52829  11.036   6.176  10.458 -6.9019 -0.2049 -1.3825
  383MOL0     H52830  10.919   6.024  10.304 -0.5856 -3.4651 -0.7037
  383MOL0     H52831  11.019   5.892  10.348  2.6296  1.4817  0.5506
  383MOL0     H52832  11.129   6.125  10.202 -2.0836  0.4614  0.9318
  383MOL0     H52833  11.112   5.955  10.155  2.4873 -0.7666 -0.1238
  383MOL0     H52834  10.716   5.805  11.247 -0.7462 -1.4439  0.3703
  383MOL0     H52835  10.842   5.752  11.455 -1.2829 -0.2492 -0.3538
  383MOL0     H52836  11.179   5.431  11.560 -0.6692 -1.2843  0.5857
  383MOL0     H52837  11.235   5.304  11.766 -0.8596  0.5080  2.0861
  383MOL0     H52838  11.128   4.558  11.210 -1.0629  2.4146  1.6144
  383MOL0     H52839  11.015   4.431  11.017 -2.6609  0.5355 -1.3159
  383MOL0     H52840  10.729   4.285  10.782  1.3716 -0.7111 -1.7759
  383MOL0     H52841  10.633   4.167  10.601  1.0285  1.1509  0.2976
  383MOL0     H52842  10.553   4.018  10.419  2.7159 -0.1327 -3.5832
  383MOL0     H52843  10.699   3.980  10.479 -1.1296  2.5518  2.0654
  383MOL0     H52844  10.481   3.792  10.365 -0.5999 -0.8281  2.7393
  383MOL0     H52845  10.636   3.729  10.421  1.0134  1.0871  0.4990
  383MOL0     H52846  10.679   3.950  10.233  0.5558  0.5158  4.1997
  383MOL0     H52847  10.771   3.808  10.257 -0.7404  0.1061 -0.1516
  383MOL0     H52848  10.627   3.843  10.039 -3.4229  2.0014  0.4818
  383MOL0     H52849  10.487   3.770  10.118 -0.5057 -1.4120  1.8356
  383MOL0     H52850  10.682   3.414  10.066 -1.6789 -0.3364  1.5660
  383MOL0     H52851  10.545   3.840  10.857 -4.3804  1.8994 -2.5287
  383MOL0     H52852  10.586   3.817  11.070  1.9890 -0.9996  1.4015
  383MOL0     H52853  10.746   3.867  11.111 -0.0324  0.9519  3.6297
  383MOL0     H52854  10.597   3.963  11.157 -0.3017 -1.7373 -0.0250
  384MOL0     O52855   3.118   1.278   4.684  0.5156  0.0996 -0.3414
  384MOL0     C52856   3.100   1.262   4.567  0.6503 -0.2030  1.6940
  384MOL0     O52857   3.091   1.143   4.507  0.8422 -0.0247  0.2600
  384MOL0     C52858   3.095   1.032   4.587 -0.4494  0.5106  0.3704
  384MOL0     C52859   2.982   0.952   4.586 -0.0655 -0.3750 -0.0372
  384MOL0     C52860   2.981   0.831   4.659  0.7999  0.5505  0.5351
  384MOL0     C52861   3.095   0.795   4.735  1.2494 -0.5482  0.1976
  384MOL0     O52862   3.111   0.669   4.790  0.5490 -0.3995 -0.1858
  384MOL0     C52863   3.008   0.626   4.879 -0.3542 -0.5580 -0.4484
  384MOL0     C52864   3.082   0.582   4.999  0.0001  0.2989  0.2308
  384MOL0     C52865   2.989   0.512   5.092  0.3287 -0.1540 -0.5469
  384MOL0     C52866   2.850   0.579   5.139  0.0165 -1.5241  0.0857
  384MOL0     C52867   2.751   0.500   5.214 -0.2748 -0.0809 -0.1958
  384MOL0     C52868   2.811   0.481   5.356  0.0485 -0.1071 -0.3095
  384MOL0     C52869   2.750   0.366   5.432 -0.5209 -0.3579 -0.1273
  384MOL0     C52870   2.845   0.244   5.427 -0.1016  1.1298 -0.2851
  384MOL0     N52871   2.822   0.181   5.300 -0.0947  0.9173 -0.4477
  384MOL0     C52872   2.923   0.164   5.214 -0.3974  0.0645 -0.0312
  384MOL0     C52873   2.866   0.109   5.107  0.9168 -1.0360  0.3699
  384MOL0     C52874   2.945   0.063   4.991  0.0312  0.3808  0.1950
  384MOL0     C52875   2.903   0.141   4.866  0.3514 -0.5842  0.9476
  384MOL0     C52876   2.929   0.051   4.742 -1.1293  0.7035 -0.0156
  384MOL0     C52877   2.899   0.106   4.603 -0.0867 -0.9949  0.8399
  384MOL0     O52878   2.796   0.208   4.610 -0.2335 -0.1020 -0.2227
  384MOL0     C52879   2.686   0.197   4.529  0.0175 -0.7760  0.3089
  384MOL0     C52880   2.563   0.163   4.574  0.1266 -1.1569  0.5633
  384MOL0     C52881   2.454   0.149   4.485 -0.6947  0.6252  0.3522
  384MOL0     C52882   2.331   0.096   4.543  0.4872  1.1470 -0.3405
  384MOL0     C52883   2.469   0.181   4.347  0.7814 -0.9609  0.1677
  384MOL0     C52884   2.358   0.188   4.252  1.0432 -0.6983  0.7924
  384MOL0     O52885   2.247   0.258   4.278  0.4141 -0.3631 -0.0427
  384MOL0     C52886   2.160   0.277   4.175  0.7203 -0.8489  0.1964
  384MOL0     C52887   2.135   0.411   4.125 -0.9285  0.1829 -0.7042
  384MOL0     C52888   2.037   0.430   4.025  0.6062 -0.3360 -0.1696
  384MOL0     C52889   1.972   0.317   3.969  0.1136 -0.4492  0.1325
  384MOL0     O52890   1.889   0.325   3.858  0.7712  0.9267  0.7727
  384MOL0     C52891   1.753   0.368   3.877 -1.2959 -0.3417  0.8027
  384MOL0     C52892   1.685   0.382   3.745  0.0121  0.0267  0.6866
  384MOL0     C52893   1.703   0.519   3.681  0.8101 -0.9645  0.0225
  384MOL0     C52894   1.832   0.532   3.599 -0.0925  0.5277 -0.0033
  384MOL0     C52895   1.874   0.681   3.574 -0.6612 -0.8039 -0.3042
  384MOL0     C52896   2.020   0.708   3.531  0.6259 -0.9453 -0.1115
  384MOL0     C52897   2.052   0.642   3.404  0.3986 -0.1965 -0.6466
  384MOL0     C52898   2.180   0.704   3.357 -0.9769  0.5757  0.6667
  384MOL0    Cl52899   2.175   0.886   3.335 -0.1276  0.1730  0.1244
  384MOL0     C52900   1.988   0.192   4.032  0.7496  0.2509  0.0742
  384MOL0     C52901   2.082   0.176   4.134  0.4493  0.1414  0.6427
  384MOL0     O52902   2.364   0.117   4.154 -0.9240  0.9404 -0.2619
  384MOL0     C52903   2.600   0.209   4.301  0.5205 -0.3965 -0.2907
  384MOL0     C52904   2.705   0.211   4.392  0.3222 -0.2274 -0.4728
  384MOL0     N52905   2.724   0.100   5.125  0.9442 -0.5611 -0.6487
  384MOL0     N52906   2.701   0.141   5.247 -0.3915  0.2961 -0.4947
  384MOL0     C52907   3.207   0.881   4.738 -0.2315  0.1990 -0.7636
  384MOL0     C52908   3.205   1.002   4.663  1.5421 -0.3982 -0.3482
  384MOL0     C52909   3.092   1.381   4.477 -0.0284 -0.8221 -0.3973
  384MOL0     C52910   2.985   1.474   4.489 -1.0071 -1.5545 -0.8953
  384MOL0     C52911   2.966   1.570   4.392 -0.1742  0.2096 -0.1043
  384MOL0     C52912   3.047   1.585   4.280  0.5059 -0.2596 -0.8794
  384MOL0     O52913   3.026   1.683   4.190 -0.1796 -0.0181  0.5926
  384MOL0     C52914   3.138   1.732   4.113 -0.3291 -0.5354 -0.4679
  384MOL0     C52915   3.231   1.814   4.194 -0.7955  0.8063 -1.1749
  384MOL0     C52916   3.178   1.952   4.225 -0.4029 -0.4330 -1.1821
  384MOL0     C52917   3.238   2.013   4.364 -0.6886 -0.1731 -0.6505
  384MOL0     C52918   3.158   1.994   4.484  0.4669  0.6029  0.4320
  384MOL0     C52919   3.087   1.980   4.581  0.8804  0.1303 -0.1632
  384MOL0     C52920   3.152   1.495   4.265 -0.5213 -0.3103 -0.3072
  384MOL0     C52921   3.166   1.390   4.360  0.4482  0.2624  0.1876
  384MOL0     C52922   3.281   1.292   4.330  0.6487 -0.0178 -0.6117
  384MOL0     H52923   2.894   0.981   4.529  0.7850 -0.7386 -1.5957
  384MOL0     H52924   2.900   0.764   4.634 -0.7100  1.7808  1.8997
  384MOL0     H52925   2.956   0.537   4.844 -2.4154  0.3935 -0.0030
  384MOL0     H52926   2.935   0.703   4.907 -0.8596 -1.6896  1.4745
  384MOL0     H52927   3.161   0.513   4.968  0.1901 -0.1173  1.5992
  384MOL0     H52928   3.111   0.682   5.031 -1.0911  0.6039  0.3233
  384MOL0     H52929   2.955   0.416   5.053 -0.0932 -0.7508  1.1826
  384MOL0     H52930   3.049   0.480   5.178  1.0480 -0.7652 -1.2601
  384MOL0     H52931   2.864   0.678   5.182  0.8587 -1.7645  0.3833
  384MOL0     H52932   2.796   0.606   5.048 -2.5259 -1.2804  1.5446
  384MOL0     H52933   2.751   0.406   5.158  0.5127 -1.3378  1.8358
  384MOL0     H52934   2.648   0.538   5.212 -0.4381 -0.1624  2.5221
  384MOL0     H52935   2.919   0.462   5.358  0.1218  0.3502  0.9472
  384MOL0     H52936   2.801   0.576   5.409 -3.2809 -0.1822 -0.5849
  384MOL0     H52937   2.652   0.337   5.395 -0.3115  2.9469 -4.0049
  384MOL0     H52938   2.725   0.388   5.535 -2.7086 -1.9073 -0.2618
  384MOL0     H52939   2.950   0.274   5.428  0.4749 -0.6940  1.5242
  384MOL0     H52940   2.827   0.177   5.512  0.5950  1.8463  0.4479
  384MOL0     H52941   3.029   0.188   5.223 -0.3492  1.1001 -2.4701
  384MOL0     H52942   2.921  -0.040   4.963  2.8839  0.8876 -5.7482
  384MOL0     H52943   3.054   0.061   5.001  0.3466 -2.3406 -2.3522
  384MOL0     H52944   2.797   0.165   4.877  0.6971  2.5879 -1.5107
  384MOL0     H52945   2.962   0.230   4.842  0.5171 -1.5921 -3.1169
  384MOL0     H52946   3.028   0.011   4.763 -0.2300  1.5213 -2.4450
  384MOL0     H52947   2.868  -0.037   4.763 -1.5462  1.4618  2.2517
  384MOL0     H52948   2.994   0.136   4.558 -0.3204 -0.6155  0.5931
  384MOL0     H52949   2.862   0.014   4.558 -0.3502 -1.4701  1.9780
  384MOL0     H52950   2.558   0.146   4.682  1.5591  2.9554  1.4358
  384MOL0     H52951   2.298   0.136   4.639  0.0595  2.2563 -0.9292
  384MOL0     H52952   2.340  -0.010   4.570 -4.2865  0.6494  0.1761
  384MOL0     H52953   2.253   0.108   4.468  1.5641  1.9743 -1.3630
  384MOL0     H52954   2.186   0.491   4.176  1.9479 -3.0254  1.9662
  384MOL0     H52955   2.018   0.530   3.989 -0.0957  1.0090  3.4796
  384MOL0     H52956   1.698   0.299   3.941 -0.4510 -3.2864 -1.4162
  384MOL0     H52957   1.761   0.467   3.922  2.9819 -1.3982  2.8311
  384MOL0     H52958   1.724   0.302   3.682  0.4367  0.0488  0.9204
  384MOL0     H52959   1.578   0.388   3.770  0.0007 -1.5549  1.1615
  384MOL0     H52960   1.710   0.587   3.766 -1.0146 -2.7388  1.6906
  384MOL0     H52961   1.621   0.544   3.612 -0.7066 -0.4960  1.9137
  384MOL0     H52962   1.832   0.485   3.501  1.2868  0.5498 -0.0383
  384MOL0     H52963   1.912   0.478   3.650  0.8041 -0.9834 -2.8340
  384MOL0     H52964   1.805   0.726   3.501  1.8086 -1.7327 -3.4470
  384MOL0     H52965   1.862   0.747   3.660 -0.7060 -0.1602 -0.7912
  384MOL0     H52966   2.082   0.676   3.614 -0.4600 -2.5015  0.1407
  384MOL0     H52967   2.030   0.817   3.538 -2.2132 -0.7309  3.3384
  384MOL0     H52968   1.974   0.656   3.329  1.4404  0.8326 -1.5663
  384MOL0     H52969   2.063   0.534   3.423  1.5231  0.2362  1.5794
  384MOL0     H52970   2.200   0.663   3.257  1.1513 -0.3652  1.4131
  384MOL0     H52971   2.264   0.670   3.418 -0.6787  1.0486  0.5256
  384MOL0     H52972   1.918   0.120   3.991 -1.7360  2.7709 -0.4270
  384MOL0     H52973   2.107   0.078   4.172  1.7402  0.3798  0.4595
  384MOL0     H52974   2.624   0.230   4.197 -1.2342 -1.4746 -0.9519
  384MOL0     H52975   2.804   0.244   4.362  1.7417 -0.8758  2.9900
  384MOL0     H52976   3.296   0.863   4.797 -0.9576  1.4832  0.8246
  384MOL0     H52977   3.288   1.073   4.667  1.2168 -0.0765  2.0274
  384MOL0     H52978   2.906   1.475   4.564 -0.6758  3.4230 -0.2475
  384MOL0     H52979   2.881   1.636   4.402 -0.5137  0.2860 -2.7140
  384MOL0     H52980   3.189   1.654   4.054 -2.3004 -1.0768 -1.5445
  384MOL0     H52981   3.097   1.800   4.037  2.5688  1.4676 -0.3991
  384MOL0     H52982   3.324   1.824   4.137 -0.3106  0.6564 -0.4189
  384MOL0     H52983   3.252   1.752   4.282  0.8551 -0.0905 -2.1436
  384MOL0     H52984   3.209   2.022   4.147  1.2073  1.4199  0.9763
  384MOL0     H52985   3.069   1.953   4.234 -0.3914  1.3368 -0.9366
  384MOL0     H52986   3.256   2.120   4.353  1.8358 -0.1576  2.3577
  384MOL0     H52987   3.337   1.970   4.384 -0.2664  0.9937 -0.1819
  384MOL0     H52988   2.999   1.971   4.641  0.9567  7.7070  2.0811
  384MOL0     H52989   3.236   1.500   4.197  0.2860 -3.4975  0.2640
  384MOL0     H52990   3.356   1.342   4.269 -0.7658 -1.4425 -3.7926
  384MOL0     H52991   3.332   1.268   4.423  0.1152  1.7855  0.1843
  384MOL0     H52992   3.258   1.203   4.270  0.1831 -0.3147 -0.0001
  385MOL0     O52993   9.075   0.873   4.626  0.3917  0.2360 -0.1067
  385MOL0     C52994   9.170   0.819   4.570 -0.6805 -0.0788 -0.7867
  385MOL0     O52995   9.240   0.721   4.627 -0.1712 -0.2107 -0.1877
  385MOL0     C52996   9.234   0.689   4.758  1.0760  1.2581 -0.3726
  385MOL0     C52997   9.245   0.775   4.857 -0.4457 -0.4129  0.2312
  385MOL0     C52998   9.251   0.738   4.989 -1.5697 -0.1764  0.2422
  385MOL0     C52999   9.235   0.607   5.026 -0.0439 -0.0176 -1.2850
  385MOL0     O53000   9.227   0.578   5.162 -0.6220  0.5040 -0.0598
  385MOL0     C53001   9.286   0.461   5.221 -0.1950  0.4621 -0.1732
  385MOL0     C53002   9.308   0.472   5.376  0.1278 -0.2532 -0.1200
  385MOL0     C53003   9.165   0.456   5.446 -0.6007  0.2886  0.6652
  385MOL0     C53004   9.186   0.439   5.605 -0.6364 -0.3658  0.2915
  385MOL0     C53005   9.063   0.400   5.680 -1.4188  0.7311 -0.0390
  385MOL0     C53006   9.091   0.356   5.819  0.1154  0.6652 -0.5344
  385MOL0     C53007   8.960   0.313   5.895  0.3034 -1.3116  0.3234
  385MOL0     C53008   8.882   0.192   5.830  0.0285 -0.6321 -0.2501
  385MOL0     N53009   8.765   0.150   5.919  0.3706  0.0278  0.2732
  385MOL0     C53010   8.658   0.224   5.962 -0.3989  0.4656  1.0372
  385MOL0     C53011   8.553   0.139   5.972  0.3898  0.0066  0.4968
  385MOL0     C53012   8.414   0.167   6.002  0.2082  0.3485  0.4585
  385MOL0     C53013   8.403   0.200   6.149  0.9064  0.5513 -0.3592
  385MOL0     C53014   8.261   0.230   6.195  0.2372 -0.2468  0.2813
  385MOL0     C53015   8.252   0.272   6.344  0.6533 -0.1337 -1.5178
  385MOL0     O53016   8.301   0.413   6.347  0.0921 -0.1672 -0.2839
  385MOL0     C53017   8.352   0.447   6.471 -0.4419  0.4218 -0.3816
  385MOL0     C53018   8.293   0.425   6.599  0.0357  0.1770  0.2715
  385MOL0     C53019   8.349   0.459   6.725  0.5086  0.1319  0.6146
  385MOL0     C53020   8.284   0.411   6.861  0.4948 -1.1206  0.7111
  385MOL0     C53021   8.473   0.523   6.727 -0.7136  0.0394  0.0112
  385MOL0     C53022   8.536   0.595   6.846  0.7769 -0.1127  0.2230
  385MOL0     O53023   8.660   0.633   6.823 -0.9066  0.0618  0.8504
  385MOL0     C53024   8.748   0.683   6.927  0.2397 -0.2400  0.5231
  385MOL0     C53025   8.862   0.763   6.892 -0.0930  0.5667 -0.2695
  385MOL0     C53026   8.952   0.811   6.991  0.9331  0.9682 -0.4888
  385MOL0     C53027   8.919   0.768   7.124  0.0265  1.7012  0.7859
  385MOL0     O53028   9.001   0.796   7.226  0.1685 -0.0269 -0.1208
  385MOL0     C53029   8.980   0.927   7.283  1.9712 -1.2955  1.2119
  385MOL0     C53030   8.985   0.917   7.444 -0.2644 -0.2597  0.2831
  385MOL0     C53031   8.955   1.057   7.509  0.2011  0.2536 -0.7302
  385MOL0     C53032   9.019   1.058   7.642 -0.0414  0.4249 -0.1806
  385MOL0     C53033   9.003   1.187   7.713 -0.2769 -0.0522 -0.2144
  385MOL0     C53034   9.065   1.185   7.855 -1.3119 -0.2151  0.7821
  385MOL0     C53035   9.047   1.317   7.930  0.2478 -0.3183 -0.1259
  385MOL0     C53036   9.136   1.429   7.880 -0.0440  0.6190 -0.2356
  385MOL0    Cl53037   9.314   1.402   7.929 -0.2094  0.1928 -0.0941
  385MOL0     C53038   8.814   0.681   7.155 -0.3520  0.0947 -0.3721
  385MOL0     C53039   8.731   0.639   7.063  0.8729  1.5356  0.7622
  385MOL0     O53040   8.468   0.616   6.945  0.2668 -0.2065  0.9036
  385MOL0     C53041   8.535   0.548   6.601  0.2077  1.2791  0.1812
  385MOL0     C53042   8.482   0.500   6.480 -0.9165 -0.1591 -0.0859
  385MOL0     N53043   8.606   0.017   5.951  0.3120  0.5449  1.0501
  385MOL0     N53044   8.729   0.026   5.918 -0.5055 -0.2128  0.0516
  385MOL0     C53045   9.233   0.508   4.925  0.2580  0.3037 -0.2265
  385MOL0     C53046   9.236   0.549   4.786  0.8845  0.7751 -1.0926
  385MOL0     C53047   9.200   0.855   4.426  0.5825 -0.2754 -0.1895
  385MOL0     C53048   9.223   0.987   4.392 -0.4565  0.1053  1.0386
  385MOL0     C53049   9.258   1.017   4.259  0.0973 -0.7857 -0.7021
  385MOL0     C53050   9.270   0.914   4.163 -0.5855 -0.1545 -0.3020
  385MOL0     O53051   9.318   0.944   4.039 -0.1416  0.0005 -1.0601
  385MOL0     C53052   9.329   0.858   3.924 -0.8017 -1.2338 -0.6757
  385MOL0     C53053   9.380   0.935   3.799 -0.2795 -0.2604 -0.1873
  385MOL0     C53054   9.272   1.014   3.724  0.3961  0.2475 -0.6841
  385MOL0     C53055   9.333   1.111   3.615 -0.2489 -0.7412  0.0044
  385MOL0     C53056   9.247   1.128   3.499 -0.3336  0.8628 -0.3794
  385MOL0     C53057   9.177   1.145   3.398  0.0643 -0.1705 -0.3692
  385MOL0     C53058   9.240   0.784   4.201  0.8906  0.5830  0.2934
  385MOL0     C53059   9.209   0.754   4.332  0.1565 -0.0199  0.0712
  385MOL0     C53060   9.185   0.602   4.359  0.2242  0.2504  0.4884
  385MOL0     H53061   9.260   0.879   4.828 -0.3513 -0.7360 -0.9122
  385MOL0     H53062   9.289   0.819   5.049  2.8027 -0.7503 -1.3704
  385MOL0     H53063   9.385   0.438   5.179  0.2348 -0.7654  1.4260
  385MOL0     H53064   9.228   0.371   5.199  2.2735 -1.4412  0.6001
  385MOL0     H53065   9.383   0.401   5.411  0.3766  0.2905  0.4800
  385MOL0     H53066   9.347   0.573   5.391  1.5982 -0.7252 -0.5555
  385MOL0     H53067   9.107   0.541   5.409 -1.6623 -1.4969 -2.1094
  385MOL0     H53068   9.112   0.366   5.412  1.8031 -0.2705 -1.8686
  385MOL0     H53069   9.258   0.359   5.624 -1.0555 -0.6953  0.5213
  385MOL0     H53070   9.226   0.537   5.632 -0.4250 -0.3759  0.0202
  385MOL0     H53071   9.005   0.329   5.620 -1.7781  1.6556 -0.8143
  385MOL0     H53072   8.994   0.485   5.681 -2.2719  0.0723 -0.6663
  385MOL0     H53073   9.162   0.274   5.820  0.1125  0.6467 -1.2667
  385MOL0     H53074   9.132   0.439   5.877  0.1531  2.3658 -2.8385
  385MOL0     H53075   8.904   0.407   5.899  0.3293 -1.3337  1.3336
  385MOL0     H53076   8.964   0.287   6.001 -0.4960  1.3367  1.0900
  385MOL0     H53077   8.830   0.225   5.739 -2.1060  1.7470  1.7051
  385MOL0     H53078   8.960   0.122   5.799  1.0939  1.7797 -3.6519
  385MOL0     H53079   8.648   0.332   5.962 -2.0565  0.4022 -1.6103
  385MOL0     H53080   8.347   0.084   5.978 -1.4700  2.0599 -1.0496
  385MOL0     H53081   8.387   0.255   5.942  1.8063 -0.1122 -1.0433
  385MOL0     H53082   8.449   0.112   6.196  0.0715 -0.8875 -2.1088
  385MOL0     H53083   8.452   0.295   6.173 -3.3361  2.1886  3.4109
  385MOL0     H53084   8.234   0.309   6.125 -0.5089 -2.3572 -1.9837
  385MOL0     H53085   8.209   0.137   6.171  0.1047  0.2798 -1.6223
  385MOL0     H53086   8.146   0.281   6.369  1.0053  0.4036 -0.1576
  385MOL0     H53087   8.297   0.201   6.413  0.7090 -2.6932 -3.9921
  385MOL0     H53088   8.191   0.388   6.607 -1.2158  3.2814  0.1798
  385MOL0     H53089   8.252   0.502   6.912  2.9004  0.7591 -0.8959
  385MOL0     H53090   8.348   0.339   6.913 -1.1441 -1.5070  2.3290
  385MOL0     H53091   8.188   0.359   6.859 -0.3270  0.0740  3.4944
  385MOL0     H53092   8.886   0.771   6.786 -0.7406  0.2158 -0.4417
  385MOL0     H53093   9.044   0.864   6.969  1.1030  0.0834 -2.1033
  385MOL0     H53094   9.055   1.001   7.254 -0.4633 -0.3134 -3.4352
  385MOL0     H53095   8.884   0.970   7.253  1.4598 -3.0656  0.1144
  385MOL0     H53096   8.920   0.844   7.493 -0.8523  0.6855  0.9434
  385MOL0     H53097   9.091   0.901   7.469 -0.0146  0.6546 -0.1322
  385MOL0     H53098   8.850   1.088   7.510 -0.2711 -1.2802 -0.5530
  385MOL0     H53099   9.014   1.133   7.456  2.3590 -1.3611 -0.7669
  385MOL0     H53100   9.124   1.032   7.627 -0.5468 -2.4150  0.5990
  385MOL0     H53101   8.973   0.980   7.703 -3.1047 -0.7743 -3.6705
  385MOL0     H53102   9.064   1.263   7.663  1.7402 -0.0711  2.0630
  385MOL0     H53103   8.898   1.218   7.711  0.4331  2.5750 -0.5146
  385MOL0     H53104   9.172   1.171   7.838 -1.5434 -0.7128 -0.3337
  385MOL0     H53105   9.018   1.096   7.898 -2.7358 -0.4403 -1.1154
  385MOL0     H53106   9.066   1.309   8.037 -1.6804  0.6676  0.3213
  385MOL0     H53107   8.946   1.356   7.916  1.1575  2.9011  1.2372
  385MOL0     H53108   9.123   1.529   7.924 -0.3741  0.9873 -1.1418
  385MOL0     H53109   9.141   1.428   7.771 -2.3883  1.1157 -0.4204
  385MOL0     H53110   8.801   0.650   7.258 -0.9511  1.8319  0.1031
  385MOL0     H53111   8.647   0.573   7.086  1.5324  0.1598 -0.5509
  385MOL0     H53112   8.619   0.615   6.586 -0.0513  1.4584 -0.5208
  385MOL0     H53113   8.529   0.528   6.386 -1.7311  0.2088 -0.3929
  385MOL0     H53114   9.224   0.405   4.955 -1.5714  0.6251  0.4455
  385MOL0     H53115   9.199   0.479   4.711  0.1181  2.2942 -2.1925
  385MOL0     H53116   9.207   1.062   4.470  1.3907  0.4446  1.1395
  385MOL0     H53117   9.264   1.122   4.231 -4.5339 -0.6707 -2.2097
  385MOL0     H53118   9.396   0.776   3.951  0.5045  1.1046  4.5502
  385MOL0     H53119   9.229   0.822   3.896 -0.9184 -2.6604  1.2996
  385MOL0     H53120   9.423   0.857   3.735  3.8547  0.9716  0.7847
  385MOL0     H53121   9.464   1.002   3.821  0.2819  0.2450 -3.2984
  385MOL0     H53122   9.197   0.941   3.693  0.4291 -1.1242  2.1449
  385MOL0     H53123   9.218   1.068   3.802  1.4916 -1.7436  1.5780
  385MOL0     H53124   9.432   1.082   3.581 -0.9829 -5.4896  1.2045
  385MOL0     H53125   9.352   1.203   3.671 -0.7904  0.4678 -1.7139
  385MOL0     H53126   9.131   1.161   3.303 -1.2678 -0.8080  0.1379
  385MOL0     H53127   9.241   0.700   4.132  3.3265 -0.4103  1.4119
  385MOL0     H53128   9.129   0.560   4.276 -1.3702 -0.0476  1.6556
  385MOL0     H53129   9.278   0.547   4.350 -0.4273 -1.3300  2.5288
  385MOL0     H53130   9.143   0.579   4.458 -0.6538  0.8177  0.2654
  386MOL0     O53131   3.205   4.152   9.788 -0.0976  0.6892  0.1754
  386MOL0     C53132   3.325   4.151   9.751 -0.5497 -0.5855 -0.2077
  386MOL0     O53133   3.391   4.046   9.691 -0.4121 -0.5541  0.0685
  386MOL0     C53134   3.338   3.916   9.680  0.0683 -0.1308  0.0391
  386MOL0     C53135   3.416   3.811   9.616  0.9485 -0.3760  0.7542
  386MOL0     C53136   3.376   3.685   9.597  0.0651  0.0666  0.5024
  386MOL0     C53137   3.254   3.650   9.649  0.0155  0.3900  0.3269
  386MOL0     O53138   3.205   3.524   9.634  0.2094 -0.4274 -0.0783
  386MOL0     C53139   3.269   3.403   9.666 -0.1234  0.5505 -0.0434
  386MOL0     C53140   3.160   3.291   9.642  0.7965  0.4708 -0.0042
  386MOL0     C53141   3.043   3.342   9.557  0.6449 -0.1548  0.5240
  386MOL0     C53142   2.943   3.232   9.521  1.4374 -0.4321 -0.3689
  386MOL0     C53143   2.846   3.192   9.637 -0.2477 -0.2149 -0.2631
  386MOL0     C53144   2.737   3.100   9.578 -1.1850 -0.4961 -0.0576
  386MOL0     C53145   2.611   3.142   9.656 -0.0611 -0.2299  1.2771
  386MOL0     C53146   2.501   3.051   9.601 -0.1081  0.2112  0.0198
  386MOL0     N53147   2.427   3.085   9.476 -0.2657 -0.0895 -0.9746
  386MOL0     C53148   2.474   3.093   9.355 -0.8625 -0.0064  0.3841
  386MOL0     C53149   2.375   3.147   9.281 -0.5123  0.2757  0.2015
  386MOL0     C53150   2.385   3.166   9.133  0.9008  0.7416 -0.1617
  386MOL0     C53151   2.467   3.288   9.083  0.5105 -0.3136  0.2093
  386MOL0     C53152   2.594   3.302   9.158 -0.4632  0.6657 -0.5734
  386MOL0     C53153   2.670   3.417   9.098 -0.7284 -0.9297  0.3675
  386MOL0     O53154   2.770   3.465   9.188  0.0656 -0.5527 -0.6754
  386MOL0     C53155   2.743   3.573   9.278  0.2452  0.8693  0.1065
  386MOL0     C53156   2.626   3.646   9.291 -0.2456 -0.1156 -0.8097
  386MOL0     C53157   2.597   3.745   9.386 -0.4990  0.0217  0.4168
  386MOL0     C53158   2.458   3.803   9.380  0.4406  0.0790 -0.3893
  386MOL0     C53159   2.700   3.774   9.486 -1.3764 -0.4112  0.3253
  386MOL0     C53160   2.689   3.853   9.616 -0.4014  0.0485  0.9870
  386MOL0     O53161   2.810   3.870   9.683 -0.1079  0.5923 -0.1110
  386MOL0     C53162   2.823   3.940   9.793  0.0854 -0.5638 -0.2579
  386MOL0     C53163   2.785   3.889   9.916 -0.6975 -0.3628 -0.9897
  386MOL0     C53164   2.800   3.963  10.036 -0.2825  0.4732  1.0159
  386MOL0     C53165   2.854   4.091  10.030 -0.3937 -0.1899  0.7837
  386MOL0     O53166   2.880   4.163  10.143  0.5614  0.2837 -0.0836
  386MOL0     C53167   2.944   4.103  10.254 -0.2131  0.3654 -0.0776
  386MOL0     C53168   3.065   4.189  10.300  1.1107 -0.5669 -0.3020
  386MOL0     C53169   3.170   4.104  10.381  0.0918  1.4774 -0.2787
  386MOL0     C53170   3.298   4.172  10.403 -0.2119 -0.0751 -0.1335
  386MOL0     C53171   3.387   4.111  10.510  0.1557 -0.3579 -0.0332
  386MOL0     C53172   3.514   4.199  10.520 -0.0364 -0.1171 -0.0818
  386MOL0     C53173   3.631   4.161  10.611  0.7492 -0.3447 -0.2282
  386MOL0     C53174   3.700   4.020  10.576 -0.1985 -0.0683  0.7246
  386MOL0    Cl53175   3.703   4.023  10.398 -0.2789  0.3328  0.4256
  386MOL0     C53176   2.891   4.137   9.903  0.8258 -0.6051 -0.4464
  386MOL0     C53177   2.866   4.071   9.785  0.6505  0.8730  0.8000
  386MOL0     O53178   2.578   3.880   9.655 -0.3888  0.0535  0.1688
  386MOL0     C53179   2.820   3.702   9.465  0.6413  0.3119 -0.2685
  386MOL0     C53180   2.838   3.592   9.380 -0.3996  0.0411 -0.3495
  386MOL0     N53181   2.262   3.169   9.358 -0.7627  0.4668  0.9751
  386MOL0     N53182   2.300   3.143   9.473 -0.6167  0.6564  0.4420
  386MOL0     C53183   3.169   3.742   9.714 -0.1469 -0.7123  0.8169
  386MOL0     C53184   3.216   3.873   9.734  0.1771 -0.3864 -0.1423
  386MOL0     C53185   3.390   4.285   9.750 -0.2001 -0.4239 -0.4722
  386MOL0     C53186   3.470   4.314   9.645 -0.6387 -1.3391  0.7645
  386MOL0     C53187   3.545   4.435   9.632  0.4949 -0.4403  0.7278
  386MOL0     C53188   3.532   4.532   9.739  1.0116 -0.2120  0.8835
  386MOL0     O53189   3.614   4.646   9.732  0.5274 -0.6580 -0.5693
  386MOL0     C53190   3.681   4.680   9.858 -0.0172 -0.1010  1.0977
  386MOL0     C53191   3.813   4.751   9.827  0.7838 -1.3438 -0.2435
  386MOL0     C53192   3.905   4.765   9.953 -0.0994 -0.4762  0.1701
  386MOL0     C53193   3.833   4.829  10.080  1.3763 -0.0405  1.0514
  386MOL0     C53194   3.914   4.912  10.149 -0.5334 -0.2236 -1.1671
  386MOL0     C53195   3.972   5.003  10.208  0.5756  0.5397 -0.0649
  386MOL0     C53196   3.454   4.493   9.847 -1.4077 -1.3305  0.4374
  386MOL0     C53197   3.378   4.380   9.855 -0.9350 -0.0974  0.4768
  386MOL0     C53198   3.302   4.364   9.984  0.2465 -0.3070 -1.4623
  386MOL0     H53199   3.508   3.854   9.578  0.6974  0.3076  0.8955
  386MOL0     H53200   3.425   3.619   9.526 -1.7347 -1.1156  0.2897
  386MOL0     H53201   3.313   3.417   9.766  1.2696  1.2833 -0.7360
  386MOL0     H53202   3.356   3.388   9.602  0.3229  0.7320  0.5106
  386MOL0     H53203   3.205   3.199   9.603 -0.9480  0.0582 -1.2092
  386MOL0     H53204   3.115   3.269   9.740  2.2715 -3.3231 -0.0115
  386MOL0     H53205   2.995   3.421   9.616  0.9676  1.4754 -1.3349
  386MOL0     H53206   3.079   3.391   9.467  0.4931  0.2951  0.7040
  386MOL0     H53207   2.876   3.283   9.451  0.9723 -1.0816 -0.4080
  386MOL0     H53208   2.986   3.140   9.480 -1.7925 -3.3888  2.1729
  386MOL0     H53209   2.810   3.292   9.660  0.1324  0.2283 -1.5440
  386MOL0     H53210   2.889   3.147   9.727 -2.9021 -1.8410  0.2990
  386MOL0     H53211   2.718   3.120   9.472  0.0134  2.1894  0.1589
  386MOL0     H53212   2.762   2.995   9.599 -1.0686 -0.6098 -0.7445
  386MOL0     H53213   2.579   3.238   9.615 -2.3592 -1.2890  0.4151
  386MOL0     H53214   2.623   3.134   9.765 -1.6289  3.5533  1.8966
  386MOL0     H53215   2.550   2.954   9.590 -0.4853 -0.3365  2.4483
  386MOL0     H53216   2.432   3.033   9.684  1.7925 -0.7357  1.4695
  386MOL0     H53217   2.569   3.056   9.319 -1.3853  0.2308 -1.3625
  386MOL0     H53218   2.282   3.181   9.098  0.6285  4.4000  1.7013
  386MOL0     H53219   2.428   3.075   9.089 -1.8090 -1.1374  0.7751
  386MOL0     H53220   2.499   3.275   8.979  3.0132 -0.5142  0.9378
  386MOL0     H53221   2.416   3.385   9.094  1.2869  0.4400 -2.1856
  386MOL0     H53222   2.572   3.316   9.265  0.6508  0.2696 -0.2747
  386MOL0     H53223   2.652   3.209   9.153 -1.9620 -0.4120  1.0374
  386MOL0     H53224   2.723   3.388   9.006  1.2774  0.2063  1.1120
  386MOL0     H53225   2.595   3.490   9.066 -0.2658 -0.6271 -0.0527
  386MOL0     H53226   2.544   3.639   9.220 -3.0226  1.8405  1.9265
  386MOL0     H53227   2.414   3.787   9.281 -0.5154 -1.8396  0.2999
  386MOL0     H53228   2.455   3.908   9.411  1.3244 -0.5415  2.0592
  386MOL0     H53229   2.399   3.749   9.455 -0.4101  1.9975  0.4108
  386MOL0     H53230   2.736   3.793   9.927 -0.4778 -0.4205 -0.4824
  386MOL0     H53231   2.761   3.908  10.120 -1.3766 -0.5483 -0.1233
  386MOL0     H53232   2.865   4.102  10.330 -1.1547  1.4989 -0.9972
  386MOL0     H53233   2.988   4.007  10.225 -1.8024  0.2753 -2.5076
  386MOL0     H53234   3.123   4.233  10.219  2.0675 -0.6788  0.3078
  386MOL0     H53235   3.022   4.269  10.361 -0.2056 -1.4454 -0.0278
  386MOL0     H53236   3.186   4.012  10.322  4.3864  2.6564 -1.3263
  386MOL0     H53237   3.129   4.072  10.477  0.7537 -2.6049 -1.1362
  386MOL0     H53238   3.274   4.277  10.424  0.3943 -0.0918  0.7119
  386MOL0     H53239   3.352   4.177  10.307 -1.4870  2.2367 -0.8132
  386MOL0     H53240   3.341   4.106  10.609  0.1794  0.7746  0.0466
  386MOL0     H53241   3.405   4.008  10.480 -2.3119 -2.1631  3.7667
  386MOL0     H53242   3.476   4.299  10.543 -1.2458 -0.4825 -0.4220
  386MOL0     H53243   3.555   4.207  10.419  4.8898  0.0436  1.6501
  386MOL0     H53244   3.590   4.161  10.712  0.8492 -2.2548 -0.1604
  386MOL0     H53245   3.711   4.235  10.600 -1.2629  1.8481 -1.0820
  386MOL0     H53246   3.634   3.940  10.610  1.7935 -1.1592  2.2446
  386MOL0     H53247   3.798   4.008  10.624  1.1152  2.2234 -1.1391
  386MOL0     H53248   2.934   4.236   9.894  3.4996 -1.5080  0.9987
  386MOL0     H53249   2.885   4.111   9.686 -1.1214 -0.4090 -0.1105
  386MOL0     H53250   2.900   3.715   9.536 -0.2012  1.2653  0.5389
  386MOL0     H53251   2.932   3.537   9.385 -0.1546  0.4995  0.2016
  386MOL0     H53252   3.067   3.711   9.735 -1.7123  0.3454 -3.8202
  386MOL0     H53253   3.147   3.937   9.788  0.9327 -1.3447  2.0664
  386MOL0     H53254   3.480   4.253   9.555 -2.2601  1.3435 -1.3746
  386MOL0     H53255   3.598   4.470   9.543 -0.5764 -1.2755 -0.2790
  386MOL0     H53256   3.614   4.746   9.915  0.5363  1.6789 -0.2086
  386MOL0     H53257   3.695   4.589   9.916  2.2675  0.1963  1.0867
  386MOL0     H53258   3.784   4.841   9.773 -1.5609 -1.0639  1.3716
  386MOL0     H53259   3.875   4.687   9.763  0.8737 -0.3817 -1.1408
  386MOL0     H53260   3.925   4.659   9.974 -1.4541 -1.0852 -1.4106
  386MOL0     H53261   3.999   4.817   9.932  0.8214 -2.1261 -0.0413
  386MOL0     H53262   3.764   4.766  10.137 -0.3359  2.3970  1.8152
  386MOL0     H53263   3.760   4.898  10.037  0.5670 -0.8080  1.1595
  386MOL0     H53264   4.018   5.093  10.243 -0.4531  0.1241  2.5634
  386MOL0     H53265   3.460   4.560   9.932 -0.9961 -1.3391  0.4152
  386MOL0     H53266   3.372   4.355  10.068 -1.1687 -2.8122 -0.4707
  386MOL0     H53267   3.231   4.446  10.000 -1.0630 -1.2286 -2.3704
  386MOL0     H53268   3.252   4.268   9.997  1.9354 -1.1237 -0.6736
  387MOL0     O53269   6.903   9.273   5.144 -0.3486 -0.8365 -0.5530
  387MOL0     C53270   6.794   9.282   5.099  0.2989  0.5782  1.2630
  387MOL0     O53271   6.682   9.271   5.170 -0.1545  0.3477  0.0755
  387MOL0     C53272   6.689   9.257   5.306  0.2697  0.0309  0.5203
  387MOL0     C53273   6.688   9.363   5.395  0.3607 -1.1436 -0.1811
  387MOL0     C53274   6.668   9.331   5.530  0.2358 -0.8566  0.1607
  387MOL0     C53275   6.655   9.196   5.575  1.2769 -0.6334  0.0341
  387MOL0     O53276   6.636   9.154   5.708  0.0280  0.2238 -0.4996
  387MOL0     C53277   6.568   9.260   5.782  0.0590 -0.2679 -0.0239
  387MOL0     C53278   6.510   9.191   5.901  0.3105 -0.2206  0.6354
  387MOL0     C53279   6.613   9.145   6.002  0.1901  0.2208  0.1026
  387MOL0     C53280   6.558   9.093   6.128 -0.2650 -0.3566 -0.7376
  387MOL0     C53281   6.664   9.022   6.213  0.6410  0.5223  0.5003
  387MOL0     C53282   6.792   9.112   6.239 -0.3430 -0.1088 -0.3148
  387MOL0     C53283   6.875   9.067   6.358  0.8667  0.1735 -0.0293
  387MOL0     C53284   6.930   8.930   6.325  0.8460  0.5445  0.1864
  387MOL0     N53285   7.016   8.890   6.430  0.1383  0.3019 -0.4356
  387MOL0     C53286   7.150   8.866   6.428 -0.3651  0.4124 -0.0473
  387MOL0     C53287   7.180   8.847   6.561  0.5996  0.4694  0.4090
  387MOL0     C53288   7.323   8.831   6.609 -0.3209  0.2689 -0.8292
  387MOL0     C53289   7.339   8.727   6.719 -0.0097 -0.4075  0.4878
  387MOL0     C53290   7.387   8.572   6.678  0.3366  0.1843  0.0835
  387MOL0     C53291   7.270   8.475   6.665  0.1298 -0.3723  1.2983
  387MOL0     O53292   7.167   8.521   6.569  0.4599  0.2404 -0.4122
  387MOL0     C53293   7.176   8.494   6.436  0.0754 -0.1259  0.1998
  387MOL0     C53294   7.251   8.383   6.387 -0.3559  0.4117 -0.3310
  387MOL0     C53295   7.251   8.366   6.238  0.1440  0.5106 -0.2448
  387MOL0     C53296   7.341   8.256   6.193  0.0085 -0.6025 -0.0846
  387MOL0     C53297   7.181   8.451   6.151 -0.8007  0.2291 -0.3529
  387MOL0     C53298   7.163   8.423   6.007  0.0227 -1.0348  0.2648
  387MOL0     O53299   7.158   8.540   5.931  0.4008 -0.4538 -0.1672
  387MOL0     C53300   7.143   8.537   5.790  0.3262  0.8748 -0.3925
  387MOL0     C53301   7.247   8.579   5.716 -0.3606 -0.5444 -0.2662
  387MOL0     C53302   7.238   8.559   5.577  0.0848  0.1210  0.1042
  387MOL0     C53303   7.120   8.498   5.519 -0.0866 -0.0470  0.1981
  387MOL0     O53304   7.096   8.507   5.385 -0.1580 -0.2738  0.7243
  387MOL0     C53305   7.190   8.443   5.301 -0.3161 -0.4871 -0.0761
  387MOL0     C53306   7.168   8.445   5.152  0.4448  0.2441 -0.0414
  387MOL0     C53307   7.302   8.414   5.084 -1.1183 -0.4978  0.4677
  387MOL0     C53308   7.374   8.278   5.141 -0.9614 -0.7215  0.1417
  387MOL0     C53309   7.492   8.261   5.045 -0.2216  0.1240  0.3107
  387MOL0     C53310   7.618   8.353   5.075 -0.8562 -0.4698 -0.5028
  387MOL0     C53311   7.738   8.311   4.997 -0.3906  0.5629  0.7371
  387MOL0     C53312   7.839   8.423   4.984  0.8003  0.6766 -0.3655
  387MOL0    Cl53313   7.937   8.390   4.829 -0.0509 -0.0941  0.3944
  387MOL0     C53314   7.016   8.467   5.597  1.0759 -0.1179  0.3160
  387MOL0     C53315   7.031   8.467   5.739 -0.8793 -0.2048  0.4042
  387MOL0     O53316   7.148   8.306   5.969  0.3775 -0.0594 -0.6331
  387MOL0     C53317   7.111   8.555   6.207  0.6504 -0.0341  0.3853
  387MOL0     C53318   7.104   8.576   6.351  0.6083 -0.7633  0.8200
  387MOL0     N53319   7.063   8.862   6.630 -0.0224  0.3075  0.4366
  387MOL0     N53320   6.962   8.869   6.551 -0.5816  0.0538 -0.6861
  387MOL0     C53321   6.664   9.097   5.488  1.1408  0.7621  0.0695
  387MOL0     C53322   6.683   9.121   5.349 -0.1847  0.3757  0.4759
  387MOL0     C53323   6.785   9.322   4.957 -1.0976  0.0793 -0.3814
  387MOL0     C53324   6.737   9.454   4.923  0.7835  0.4330 -0.8428
  387MOL0     C53325   6.755   9.500   4.795  0.3362  0.5659 -0.3470
  387MOL0     C53326   6.790   9.423   4.691 -0.3588  0.6667  0.4500
  387MOL0     O53327   6.804   9.475   4.561  0.2786 -0.3678 -0.3420
  387MOL0     C53328   6.912   9.438   4.479  0.5273  0.0963 -0.4292
  387MOL0     C53329   6.856   9.464   4.338 -0.2589 -0.7507 -0.1043
  387MOL0     C53330   6.973   9.440   4.235  0.5357  0.3284  0.4292
  387MOL0     C53331   7.061   9.560   4.232  0.9595  0.1278  1.2294
  387MOL0     C53332   7.164   9.544   4.121  0.8051 -0.0276 -0.2481
  387MOL0     C53333   7.255   9.533   4.038  0.6909  0.6118 -0.1415
  387MOL0     C53334   6.841   9.290   4.722 -1.1025 -0.3559 -0.2097
  387MOL0     C53335   6.840   9.244   4.855  0.5620 -0.1132  0.1391
  387MOL0     C53336   6.886   9.102   4.869  0.1132  0.2492  0.0237
  387MOL0     H53337   6.705   9.467   5.371 -1.3039 -0.0782  2.7041
  387MOL0     H53338   6.682   9.410   5.603  0.8910 -2.2152  1.5593
  387MOL0     H53339   6.484   9.297   5.722 -1.9594 -2.7132  1.1209
  387MOL0     H53340   6.633   9.344   5.807 -1.3401  1.1265 -0.8331
  387MOL0     H53341   6.448   9.274   5.937  1.2029  0.6753  0.1569
  387MOL0     H53342   6.452   9.107   5.861 -2.4623  0.9787  1.8445
  387MOL0     H53343   6.668   9.054   5.978  0.0500  0.1655 -0.0084
  387MOL0     H53344   6.688   9.222   6.022  2.2534 -2.1381  2.3359
  387MOL0     H53345   6.526   9.180   6.187  0.7000  0.8143 -1.8816
  387MOL0     H53346   6.472   9.027   6.113  0.4092 -1.6142  0.7076
  387MOL0     H53347   6.701   8.932   6.162  1.7801 -0.5457  3.0540
  387MOL0     H53348   6.627   9.006   6.315  0.4007  0.6799  0.4394
  387MOL0     H53349   6.855   9.122   6.150 -1.4592  1.1217 -0.9898
  387MOL0     H53350   6.757   9.213   6.264 -2.1208 -0.5907 -0.7710
  387MOL0     H53351   6.819   9.068   6.452 -0.3397  1.7994 -0.7148
  387MOL0     H53352   6.959   9.134   6.378  2.4967 -1.9594  0.5963
  387MOL0     H53353   6.854   8.852   6.315  3.1085 -2.0193  1.5860
  387MOL0     H53354   6.978   8.937   6.227 -2.4014 -1.3227 -1.7109
  387MOL0     H53355   7.213   8.863   6.340  0.7803  2.0766  0.6516
  387MOL0     H53356   7.369   8.923   6.647  3.9692 -1.4150 -1.3802
  387MOL0     H53357   7.379   8.808   6.517  2.7747  2.1258  0.4018
  387MOL0     H53358   7.414   8.765   6.788  1.1076 -1.8042  0.0786
  387MOL0     H53359   7.257   8.736   6.791  2.0810 -1.6012  3.1679
  387MOL0     H53360   7.444   8.571   6.585  0.5632 -2.1874  0.1828
  387MOL0     H53361   7.457   8.525   6.747  2.0285  1.1678 -0.8987
  387MOL0     H53362   7.300   8.374   6.637 -2.4928 -0.2094 -2.8929
  387MOL0     H53363   7.229   8.473   6.767 -1.0344 -0.7231  0.8418
  387MOL0     H53364   7.296   8.307   6.450 -0.5635 -1.0883 -1.9199
  387MOL0     H53365   7.273   8.181   6.152 -0.2394  0.3952 -1.5475
  387MOL0     H53366   7.417   8.212   6.259 -1.1308 -1.0041  1.0039
  387MOL0     H53367   7.402   8.298   6.112 -2.4579 -1.9336 -2.7804
  387MOL0     H53368   7.333   8.626   5.764 -0.0430 -1.2256 -0.1534
  387MOL0     H53369   7.311   8.603   5.509 -1.3357  1.0763 -0.8576
  387MOL0     H53370   7.290   8.483   5.322 -0.1266 -1.2547  0.5062
  387MOL0     H53371   7.197   8.337   5.327 -2.0056 -1.0097 -1.5365
  387MOL0     H53372   7.081   8.380   5.140 -1.1699  1.6846  2.8156
  387MOL0     H53373   7.134   8.543   5.120  0.6272  0.8668  1.5512
  387MOL0     H53374   7.359   8.507   5.092 -2.3509  0.1700  2.0646
  387MOL0     H53375   7.290   8.403   4.976  3.6335 -2.1790 -0.1276
  387MOL0     H53376   7.314   8.189   5.163  1.2884 -1.8598  2.2499
  387MOL0     H53377   7.414   8.303   5.240  1.6005  2.4230 -1.5101
  387MOL0     H53378   7.539   8.163   5.057 -0.6949  0.2017  5.0045
  387MOL0     H53379   7.455   8.269   4.943  2.3636  0.6930 -0.6525
  387MOL0     H53380   7.644   8.344   5.181  0.1706 -1.0569 -0.7932
  387MOL0     H53381   7.596   8.460   5.061 -0.4744 -0.2634  0.4190
  387MOL0     H53382   7.702   8.299   4.895 -0.5925  2.4431  0.5604
  387MOL0     H53383   7.785   8.217   5.029  3.4118  3.2238  4.0173
  387MOL0     H53384   7.893   8.412   5.079 -1.1203  0.0686  0.7368
  387MOL0     H53385   7.787   8.519   4.981 -1.4492 -0.3906  1.1812
  387MOL0     H53386   6.926   8.425   5.554  0.0754  1.2055  1.0463
  387MOL0     H53387   6.953   8.426   5.803 -0.5471 -0.3193  0.7411
  387MOL0     H53388   7.049   8.624   6.151  2.5803  1.4798  0.0214
  387MOL0     H53389   7.031   8.650   6.380 -0.4960 -1.4967  0.0017
  387MOL0     H53390   6.658   8.997   5.529  3.0992 -0.4451 -2.2599
  387MOL0     H53391   6.708   9.047   5.274  2.0740  3.3929 -1.9645
  387MOL0     H53392   6.704   9.515   5.007 -3.3778 -1.6443 -0.7168
  387MOL0     H53393   6.716   9.594   4.758  0.3050  0.5500 -0.3559
  387MOL0     H53394   6.994   9.506   4.507 -0.1352  1.2926 -1.2924
  387MOL0     H53395   6.940   9.335   4.499  2.3045  1.0591  2.6535
  387MOL0     H53396   6.814   9.563   4.323  0.9108 -0.1029  0.7185
  387MOL0     H53397   6.766   9.405   4.320 -1.0662  0.0195  1.2058
  387MOL0     H53398   7.025   9.348   4.266  1.4842  1.2102  1.5540
  387MOL0     H53399   6.930   9.428   4.136  1.2780  0.2011  0.1205
  387MOL0     H53400   7.113   9.571   4.328 -0.2859  3.8512  1.6381
  387MOL0     H53401   7.008   9.650   4.199  3.6143  2.0976  1.9747
  387MOL0     H53402   7.331   9.505   3.968 -0.2437 -3.0809  0.0775
  387MOL0     H53403   6.884   9.223   4.649 -0.4132  2.8550 -2.9941
  387MOL0     H53404   6.884   9.039   4.780  0.8151 -2.1597  1.6092
  387MOL0     H53405   6.980   9.099   4.925 -0.3101  4.2541  1.3047
  387MOL0     H53406   6.807   9.055   4.929 -0.3074 -2.0402 -2.1668
  388MOL0     O53407   1.595   3.032  10.805 -0.4584 -0.1968 -1.6093
  388MOL0     C53408   1.497   3.042  10.880 -0.3387 -0.7785 -0.7074
  388MOL0     O53409   1.380   3.095  10.839 -0.0934 -0.0243 -0.1986
  388MOL0     C53410   1.375   3.145  10.715  0.2426 -0.1801  1.0938
  388MOL0     C53411   1.415   3.276  10.697  0.7562 -1.1027 -0.0058
  388MOL0     C53412   1.421   3.334  10.571 -0.1014  1.0527  0.2613
  388MOL0     C53413   1.374   3.269  10.460  0.6000 -1.0398 -0.1142
  388MOL0     O53414   1.374   3.347  10.339 -0.9964 -0.3873  1.0158
  388MOL0     C53415   1.345   3.285  10.207 -0.4517  0.0298  0.0908
  388MOL0     C53416   1.354   3.379  10.092 -0.8092 -0.5847 -0.0414
  388MOL0     C53417   1.267   3.497  10.118 -0.6882  0.2060  0.0724
  388MOL0     C53418   1.225   3.579   9.989  0.8692 -0.5658 -0.3323
  388MOL0     C53419   1.338   3.624   9.886  1.1112 -0.3827 -0.2091
  388MOL0     C53420   1.259   3.713   9.787  0.7134 -0.7074 -0.2557
  388MOL0     C53421   1.359   3.750   9.687 -0.1808  0.3911  0.0964
  388MOL0     C53422   1.301   3.822   9.564 -0.3293 -0.6200  0.4418
  388MOL0     N53423   1.404   3.837   9.455  0.9817 -0.1012 -0.0084
  388MOL0     C53424   1.382   3.845   9.317 -0.1263  0.3114 -0.5377
  388MOL0     C53425   1.511   3.847   9.263 -1.2306  0.4507 -0.9420
  388MOL0     C53426   1.534   3.858   9.115  0.2222 -0.2938  0.3645
  388MOL0     C53427   1.485   3.732   9.044  0.8467 -0.0543  0.2567
  388MOL0     C53428   1.553   3.684   8.918 -0.6261 -0.1278  0.0527
  388MOL0     C53429   1.461   3.588   8.835 -0.4552  0.3308  0.3245
  388MOL0     O53430   1.497   3.446   8.862  0.8835 -0.2880 -0.1749
  388MOL0     C53431   1.387   3.360   8.868  0.9722 -0.5327 -0.6188
  388MOL0     C53432   1.398   3.243   8.943  0.2577  0.5050 -0.3661
  388MOL0     C53433   1.303   3.139   8.945 -0.6869 -0.0774 -0.6911
  388MOL0     C53434   1.331   3.014   9.032  0.1782  0.4413 -0.6151
  388MOL0     C53435   1.177   3.157   8.879 -0.2177  0.5010  0.5354
  388MOL0     C53436   1.073   3.050   8.878 -0.0727 -0.2333  0.3536
  388MOL0     O53437   1.021   2.991   8.768 -0.0849 -0.7099 -0.0589
  388MOL0     C53438   1.073   3.017   8.644 -0.1032 -0.7109  0.2605
  388MOL0     C53439   1.025   3.127   8.569  0.7229 -0.4564  0.9577
  388MOL0     C53440   1.075   3.154   8.440 -0.0537  0.6589 -0.0930
  388MOL0     C53441   1.179   3.077   8.390  0.5296  0.1233 -0.1330
  388MOL0     O53442   1.231   3.119   8.268  0.4377 -0.0710  0.3499
  388MOL0     C53443   1.277   3.030   8.169  0.0633  0.0255  0.6467
  388MOL0     C53444   1.262   3.071   8.022 -0.9572  0.5252  0.4321
  388MOL0     C53445   1.350   3.194   7.970 -0.3983  0.3937  0.9828
  388MOL0     C53446   1.303   3.238   7.834 -0.1626 -0.6221 -0.6053
  388MOL0     C53447   1.382   3.353   7.771  0.0591 -0.2897  0.0708
  388MOL0     C53448   1.393   3.487   7.858  0.4874  0.9512  0.0313
  388MOL0     C53449   1.418   3.605   7.762  0.3248 -0.0023 -0.3345
  388MOL0     C53450   1.435   3.733   7.859 -0.3629 -0.1784  0.6472
  388MOL0    Cl53451   1.270   3.814   7.887  0.2867 -0.2128  0.5230
  388MOL0     C53452   1.229   2.968   8.461  0.9128 -0.0677  1.1881
  388MOL0     C53453   1.179   2.938   8.593 -0.8219  0.7791  0.2792
  388MOL0     O53454   1.027   3.032   8.987  0.3440  0.1913 -0.1743
  388MOL0     C53455   1.159   3.284   8.828  0.8284 -0.3650  0.2014
  388MOL0     C53456   1.262   3.380   8.806  0.1830  0.6069  0.4098
  388MOL0     N53457   1.599   3.870   9.362 -1.0570 -0.2398  0.2827
  388MOL0     N53458   1.537   3.867   9.471  0.4530 -0.0133 -0.6731
  388MOL0     C53459   1.322   3.143  10.477  0.5661  0.0104  0.4771
  388MOL0     C53460   1.335   3.073  10.600 -0.7148 -0.2409  0.7330
  388MOL0     C53461   1.493   2.980  11.019  0.9424  0.5190  0.5413
  388MOL0     C53462   1.359   2.935  11.067 -0.1170 -0.8830 -0.1256
  388MOL0     C53463   1.346   2.887  11.200  0.1632  0.2774 -0.3274
  388MOL0     C53464   1.464   2.872  11.279 -0.4335 -0.3518 -0.1923
  388MOL0     O53465   1.470   2.819  11.404 -0.3415 -0.6887  0.1176
  388MOL0     C53466   1.360   2.879  11.483 -0.2175  0.1630 -0.7195
  388MOL0     C53467   1.348   2.789  11.612 -0.8370 -0.2595 -0.4720
  388MOL0     C53468   1.219   2.706  11.611 -1.0749  0.5377 -0.6647
  388MOL0     C53469   1.164   2.715  11.752  0.5256 -0.3424  0.3630
  388MOL0     C53470   1.029   2.658  11.756  0.2029  0.4824 -0.0050
  388MOL0     C53471   0.916   2.620  11.774  0.2258  0.5304 -0.7019
  388MOL0     C53472   1.588   2.899  11.223 -0.2981 -0.3187 -0.3235
  388MOL0     C53473   1.604   2.956  11.097  0.0676  0.0046  1.0058
  388MOL0     C53474   1.746   3.009  11.071 -0.4264 -0.2045 -0.4030
  388MOL0     H53475   1.423   3.344  10.782  2.2298  1.8159 -2.2766
  388MOL0     H53476   1.457   3.436  10.565 -2.1517  2.0712  2.9018
  388MOL0     H53477   1.240   3.255  10.206 -0.5492  0.3563  0.3848
  388MOL0     H53478   1.419   3.206  10.193  2.3263  2.5598 -0.6051
  388MOL0     H53479   1.458   3.412  10.090 -1.6631  2.4126 -1.2948
  388MOL0     H53480   1.325   3.338   9.995 -1.9742  1.7448 -0.7500
  388MOL0     H53481   1.175   3.465  10.167 -2.3184 -0.1843 -3.0094
  388MOL0     H53482   1.327   3.573  10.170  0.6212 -0.0821 -0.9778
  388MOL0     H53483   1.163   3.515   9.926  3.1951 -1.4892 -1.8155
  388MOL0     H53484   1.172   3.664  10.034  0.1324 -2.0096  1.6794
  388MOL0     H53485   1.366   3.536   9.827  1.8689  1.0789 -2.1574
  388MOL0     H53486   1.420   3.667   9.944 -1.3769  2.6177  1.3913
  388MOL0     H53487   1.166   3.673   9.747  0.0205 -0.9751  1.5380
  388MOL0     H53488   1.230   3.808   9.833  0.0948 -0.9212 -0.2076
  388MOL0     H53489   1.389   3.658   9.635  0.2332  0.2085  0.6409
  388MOL0     H53490   1.453   3.793   9.722  0.6185  0.7008 -2.2831
  388MOL0     H53491   1.218   3.757   9.533  0.9554 -1.8933 -0.4539
  388MOL0     H53492   1.266   3.917   9.606  3.9855 -0.2028  3.6526
  388MOL0     H53493   1.291   3.847   9.258  0.7350 -1.8169 -2.0543
  388MOL0     H53494   1.642   3.867   9.100  0.2395 -2.7896 -1.6383
  388MOL0     H53495   1.480   3.944   9.074  0.0915 -0.7742 -0.5076
  388MOL0     H53496   1.477   3.646   9.112  3.6339 -2.4592 -2.1955
  388MOL0     H53497   1.379   3.747   9.022  0.5127 -0.3549  1.5834
  388MOL0     H53498   1.547   3.782   8.868  0.9129  0.1469  0.3560
  388MOL0     H53499   1.654   3.644   8.935  0.9342  1.6790 -3.7158
  388MOL0     H53500   1.357   3.617   8.852 -0.3793  0.6748  0.2117
  388MOL0     H53501   1.491   3.602   8.730  0.7729 -1.8081  0.3244
  388MOL0     H53502   1.487   3.222   9.001  0.1985  1.6764  0.1766
  388MOL0     H53503   1.286   3.028   9.131  3.5240  0.6599  1.0360
  388MOL0     H53504   1.437   2.991   9.045 -0.4140 -0.6911  3.5958
  388MOL0     H53505   1.278   2.930   8.985 -2.6307  2.4779 -1.3190
  388MOL0     H53506   0.939   3.184   8.605  0.4716 -1.4860  2.0590
  388MOL0     H53507   1.034   3.223   8.367 -0.6186 -1.7418 -2.1687
  388MOL0     H53508   1.386   3.018   8.178 -0.0388 -0.1197  1.7588
  388MOL0     H53509   1.219   2.938   8.173 -2.8236  1.6679 -0.4302
  388MOL0     H53510   1.287   2.986   7.958  0.1277  0.4979  0.8698
  388MOL0     H53511   1.156   3.091   8.005 -1.6392 -2.3473  0.7765
  388MOL0     H53512   1.454   3.162   7.975 -0.4552  0.3826  3.0162
  388MOL0     H53513   1.338   3.278   8.039  0.7042  2.0211 -0.7206
  388MOL0     H53514   1.196   3.260   7.838  0.1346  1.1216 -1.0842
  388MOL0     H53515   1.309   3.154   7.765 -0.5938 -2.3156  1.3107
  388MOL0     H53516   1.479   3.307   7.748  1.4153  1.1827  2.5168
  388MOL0     H53517   1.328   3.365   7.676 -0.8107 -3.1393  0.0875
  388MOL0     H53518   1.474   3.471   7.930 -0.2152  2.1342  1.1358
  388MOL0     H53519   1.297   3.499   7.909 -0.8223 -0.7700 -1.8640
  388MOL0     H53520   1.342   3.608   7.683  1.7262 -2.7568 -1.9613
  388MOL0     H53521   1.509   3.616   7.703  0.4577  4.8690  0.4045
  388MOL0     H53522   1.499   3.808   7.811 -0.7608  0.8733  1.7204
  388MOL0     H53523   1.456   3.707   7.963  0.8840 -2.6585 -0.1564
  388MOL0     H53524   1.321   2.931   8.416 -0.8794 -2.7349 -0.5674
  388MOL0     H53525   1.218   2.849   8.643  3.6454  0.8760 -2.5279
  388MOL0     H53526   1.060   3.310   8.790  0.5324 -1.4807  0.1577
  388MOL0     H53527   1.248   3.471   8.749 -1.6136  0.8306  1.1347
  388MOL0     H53528   1.269   3.099  10.393  0.6155 -0.9437  0.9213
  388MOL0     H53529   1.315   2.966  10.598  1.8953 -0.7751 -0.6506
  388MOL0     H53530   1.272   2.965  11.010 -0.3442  0.9588  1.0984
  388MOL0     H53531   1.245   2.871  11.236 -1.0366  3.3276 -1.9441
  388MOL0     H53532   1.369   2.983  11.515  1.8661  0.3300 -1.6780
  388MOL0     H53533   1.268   2.861  11.426  0.6395 -5.1293 -0.9365
  388MOL0     H53534   1.356   2.851  11.701  2.3109 -2.7345  1.1542
  388MOL0     H53535   1.433   2.721  11.610 -0.0676  0.6801 -2.1836
  388MOL0     H53536   1.145   2.747  11.542 -1.6702 -3.1110 -2.4204
  388MOL0     H53537   1.242   2.601  11.590 -3.1445 -0.2780  0.7449
  388MOL0     H53538   1.143   2.820  11.773 -1.5623 -0.4197 -0.9563
  388MOL0     H53539   1.227   2.663  11.824  1.3016  0.0145 -0.0441
  388MOL0     H53540   0.818   2.580  11.791  0.9362 -0.8742  0.3971
  388MOL0     H53541   1.671   2.873  11.287 -1.0786  1.4550  1.5302
  388MOL0     H53542   1.741   3.104  11.017  1.5309  0.6819  0.8589
  388MOL0     H53543   1.798   3.024  11.166  1.0523  3.6947 -1.6348
  388MOL0     H53544   1.801   2.931  11.018 -1.2278 -1.3668  0.4230
  389MOL0     O53545   4.487   4.549   2.942  0.3179 -0.3514 -0.6161
  389MOL0     C53546   4.554   4.471   2.874 -0.6573  0.3981 -0.2293
  389MOL0     O53547   4.643   4.514   2.775 -0.4223 -0.7563 -0.0080
  389MOL0     C53548   4.735   4.611   2.810  0.9307  0.3597 -0.9803
  389MOL0     C53549   4.795   4.596   2.934  0.3550 -0.2958  0.1186
  389MOL0     C53550   4.899   4.677   2.967  0.2943 -0.7392  0.8257
  389MOL0     C53551   4.937   4.781   2.873 -0.3375  0.6157 -0.0675
  389MOL0     O53552   5.036   4.866   2.916  0.2097 -0.1418 -0.1786
  389MOL0     C53553   5.007   5.001   2.876  0.0708  0.2346  0.5473
  389MOL0     C53554   5.079   5.104   2.961  0.1030 -0.1509 -1.0869
  389MOL0     C53555   5.042   5.259   2.939  0.1005  0.0124 -0.2788
  389MOL0     C53556   4.913   5.308   2.996  0.4305 -0.3559 -0.8923
  389MOL0     C53557   4.911   5.465   2.994  0.1968  0.0936  0.7875
  389MOL0     C53558   4.888   5.520   2.852  0.1230 -0.1575  0.6412
  389MOL0     C53559   4.909   5.676   2.839  0.0411  0.2547  0.2342
  389MOL0     C53560   5.044   5.711   2.764  0.0558 -0.7436  0.0354
  389MOL0     N53561   5.158   5.611   2.766 -0.0444  1.0546  0.3865
  389MOL0     C53562   5.259   5.625   2.853  0.3440  0.3411 -0.2899
  389MOL0     C53563   5.348   5.525   2.812  0.0652 -0.7402 -0.3757
  389MOL0     C53564   5.468   5.475   2.887 -0.3657 -0.2724  0.3797
  389MOL0     C53565   5.439   5.480   3.029  0.5436 -0.3953 -0.3441
  389MOL0     C53566   5.553   5.417   3.107  0.6005  0.0412  0.9702
  389MOL0     C53567   5.506   5.372   3.241 -0.3251  0.6421 -0.4641
  389MOL0     O53568   5.624   5.325   3.313  0.3565  0.3373  0.2555
  389MOL0     C53569   5.673   5.397   3.418  1.6055  0.6248  0.7908
  389MOL0     C53570   5.751   5.330   3.514  0.2155  0.8740 -0.9738
  389MOL0     C53571   5.810   5.388   3.622  0.9471 -0.7975 -0.0926
  389MOL0     C53572   5.885   5.297   3.710 -0.9259 -0.3698 -1.1359
  389MOL0     C53573   5.800   5.534   3.630 -0.1738 -0.1235 -0.2677
  389MOL0     C53574   5.872   5.607   3.729  0.2506  0.7388 -0.1112
  389MOL0     O53575   5.897   5.737   3.699 -1.1916  0.1914 -0.3858
  389MOL0     C53576   5.978   5.814   3.771 -0.0137 -0.8981 -0.3719
  389MOL0     C53577   5.951   5.829   3.911 -0.1946  0.2918 -1.1844
  389MOL0     C53578   6.021   5.917   3.997 -0.4453 -0.2925  0.8828
  389MOL0     C53579   6.137   5.986   3.944 -0.3198  0.4982 -0.0242
  389MOL0     O53580   6.220   6.053   4.033  0.1466 -1.0680  1.0454
  389MOL0     C53581   6.319   6.141   3.981 -0.3773 -0.1384  0.4271
  389MOL0     C53582   6.397   6.210   4.091 -0.7421 -0.3157  0.3149
  389MOL0     C53583   6.524   6.280   4.031  0.0960 -0.1309 -1.1845
  389MOL0     C53584   6.555   6.400   4.121 -0.4383 -0.4275  0.2760
  389MOL0     C53585   6.681   6.478   4.072  0.0928  0.7378 -0.9786
  389MOL0     C53586   6.801   6.439   4.158  0.3752 -0.2874  0.1450
  389MOL0     C53587   6.917   6.530   4.123  0.5968 -0.4141 -0.6410
  389MOL0     C53588   7.056   6.484   4.176 -0.9850  0.2899 -0.9933
  389MOL0    Cl53589   7.052   6.476   4.364  0.0240  0.5942 -0.0965
  389MOL0     C53590   6.173   5.957   3.807  0.1060 -0.3187 -0.3881
  389MOL0     C53591   6.089   5.880   3.721  0.0388 -0.3219 -0.5145
  389MOL0     O53592   5.916   5.546   3.823 -0.2574 -0.3763 -0.0697
  389MOL0     C53593   5.712   5.599   3.538 -0.4680 -0.2308  0.4481
  389MOL0     C53594   5.651   5.534   3.433 -0.1094 -0.3787 -0.6969
  389MOL0     N53595   5.311   5.478   2.683  0.2040  0.0550 -0.0227
  389MOL0     N53596   5.195   5.536   2.657 -0.2337  0.0909 -0.5395
  389MOL0     C53597   4.867   4.792   2.755 -0.6493  0.4637 -0.1041
  389MOL0     C53598   4.769   4.705   2.717  1.3833  0.0428  0.8518
  389MOL0     C53599   4.516   4.328   2.888 -0.2959 -1.2085  0.0757
  389MOL0     C53600   4.504   4.285   3.021 -0.2235  0.0953  0.4358
  389MOL0     C53601   4.445   4.161   3.043 -0.6575 -0.1432  0.4030
  389MOL0     C53602   4.417   4.064   2.936  0.2836  0.2783  0.2242
  389MOL0     O53603   4.346   3.944   2.956 -0.7073 -0.5533  1.2011
  389MOL0     C53604   4.357   3.891   3.084 -0.3299  0.2636 -0.3386
  389MOL0     C53605   4.291   3.752   3.077 -0.3312 -0.4352 -0.0539
  389MOL0     C53606   4.347   3.675   2.958  0.1916  0.6112 -0.7473
  389MOL0     C53607   4.494   3.651   2.984  0.1811 -0.8568  0.3293
  389MOL0     C53608   4.515   3.561   3.096 -0.6531  0.9347 -0.7482
  389MOL0     C53609   4.526   3.503   3.198 -0.4521 -0.0810  0.1643
  389MOL0     C53610   4.432   4.118   2.804 -0.2390  0.4537 -0.0538
  389MOL0     C53611   4.478   4.247   2.775 -0.6334 -0.0419  0.4068
  389MOL0     C53612   4.483   4.294   2.638  0.7944 -0.3676  0.1830
  389MOL0     H53613   4.760   4.533   3.015 -1.6901  3.1052  2.1369
  389MOL0     H53614   4.942   4.666   3.066  1.9972  3.1881  0.7323
  389MOL0     H53615   4.899   5.020   2.885 -0.1131 -1.2752  1.9146
  389MOL0     H53616   5.045   5.007   2.774  1.0951  1.2737  0.9698
  389MOL0     H53617   5.068   5.078   3.066 -0.0599  0.9202 -0.8341
  389MOL0     H53618   5.185   5.091   2.936  0.2388 -0.6764 -0.2606
  389MOL0     H53619   5.120   5.320   2.986 -1.4456  2.3926 -0.6136
  389MOL0     H53620   5.042   5.283   2.833 -0.7180 -1.3763 -0.6212
  389MOL0     H53621   4.822   5.277   2.945 -0.0277  1.7771 -1.4939
  389MOL0     H53622   4.909   5.268   3.097  1.2537 -1.6095 -1.3307
  389MOL0     H53623   5.006   5.495   3.041  0.0743 -1.2731  1.9796
  389MOL0     H53624   4.829   5.504   3.055 -0.1628 -1.0608  1.0666
  389MOL0     H53625   4.930   5.465   2.769  0.2225  0.9899 -0.0932
  389MOL0     H53626   4.784   5.494   2.830  1.1764 -1.2031 -4.1169
  389MOL0     H53627   4.916   5.706   2.944  1.9592  0.0088  0.2070
  389MOL0     H53628   4.826   5.728   2.790  1.1125  0.1694 -1.7717
  389MOL0     H53629   5.029   5.734   2.658  0.2125 -3.2864 -0.6057
  389MOL0     H53630   5.084   5.801   2.811 -1.9961  0.8020 -1.0522
  389MOL0     H53631   5.263   5.704   2.926  1.9916  0.1266 -0.1112
  389MOL0     H53632   5.550   5.539   2.853 -1.3442 -0.3369 -2.4168
  389MOL0     H53633   5.493   5.373   2.856 -2.6487 -1.4297  2.0586
  389MOL0     H53634   5.428   5.586   3.055  1.9526  0.0956 -1.6147
  389MOL0     H53635   5.341   5.436   3.050  0.9675 -2.2974 -1.9908
  389MOL0     H53636   5.590   5.328   3.056 -3.4060 -0.6277 -1.2217
  389MOL0     H53637   5.642   5.481   3.109  3.4309 -3.5914  1.6871
  389MOL0     H53638   5.452   5.448   3.298  0.8053  0.2283  1.2297
  389MOL0     H53639   5.423   5.300   3.234 -0.7959  1.1035  0.2084
  389MOL0     H53640   5.767   5.223   3.512  1.8720  0.9978  1.4614
  389MOL0     H53641   5.882   5.195   3.672  0.9811 -1.4165  1.2022
  389MOL0     H53642   5.837   5.292   3.808  0.4610 -0.1600 -0.4168
  389MOL0     H53643   5.985   5.342   3.715 -1.6227  1.1631 -0.1863
  389MOL0     H53644   5.869   5.774   3.956  0.6746 -0.3521 -0.3510
  389MOL0     H53645   5.982   5.936   4.096 -1.8963 -3.7813  1.1134
  389MOL0     H53646   6.397   6.102   3.915  2.4903  2.1406  2.1672
  389MOL0     H53647   6.267   6.214   3.917  2.6545  1.2143 -0.6893
  389MOL0     H53648   6.340   6.298   4.120  3.4627  2.2606  1.6183
  389MOL0     H53649   6.423   6.144   4.175 -1.8361 -0.5976  0.4431
  389MOL0     H53650   6.495   6.321   3.934 -1.2072 -0.4925 -0.9595
  389MOL0     H53651   6.606   6.208   4.028  1.2387  1.1404 -1.6385
  389MOL0     H53652   6.558   6.368   4.225  2.9318  1.8002  1.0443
  389MOL0     H53653   6.469   6.467   4.113 -2.1745 -2.7285 -3.7113
  389MOL0     H53654   6.700   6.459   3.965 -0.8647 -2.5905 -0.6485
  389MOL0     H53655   6.659   6.585   4.075 -1.6140  0.4784 -2.6208
  389MOL0     H53656   6.828   6.336   4.133 -2.2377 -0.8930 -0.5134
  389MOL0     H53657   6.779   6.449   4.264 -0.3648  1.0423 -0.1097
  389MOL0     H53658   6.897   6.631   4.158  1.3642 -0.6093  0.3961
  389MOL0     H53659   6.913   6.535   4.014  0.7342  1.4461 -0.5910
  389MOL0     H53660   7.132   6.557   4.147 -0.6872  0.7727  0.8647
  389MOL0     H53661   7.082   6.382   4.146  0.8534  0.7753 -1.1311
  389MOL0     H53662   6.266   5.998   3.769 -0.5832  1.5407 -0.1794
  389MOL0     H53663   6.119   5.864   3.618  0.0762 -1.1102 -0.3882
  389MOL0     H53664   5.699   5.707   3.545 -0.1365  0.1590 -2.9628
  389MOL0     H53665   5.601   5.589   3.354  1.4858 -0.8146 -2.0653
  389MOL0     H53666   4.905   4.867   2.687 -0.6924 -0.1130 -0.7763
  389MOL0     H53667   4.708   4.711   2.627 -3.9130 -4.3241  3.5699
  389MOL0     H53668   4.523   4.352   3.104  0.6457  1.2409 -0.6430
  389MOL0     H53669   4.412   4.132   3.142 -1.5323  0.8988  0.4341
  389MOL0     H53670   4.459   3.879   3.123 -0.5566 -0.0449  0.1676
  389MOL0     H53671   4.286   3.946   3.146 -2.1449 -1.5225 -0.7344
  389MOL0     H53672   4.182   3.756   3.066 -0.7712  1.3434  3.5337
  389MOL0     H53673   4.301   3.716   3.180 -0.1282  2.2391  0.9398
  389MOL0     H53674   4.293   3.580   2.964 -0.2150  0.8774 -0.0829
  389MOL0     H53675   4.330   3.715   2.859  0.6576  2.9266  0.0538
  389MOL0     H53676   4.556   3.740   2.997 -3.0856  1.6230  0.0108
  389MOL0     H53677   4.531   3.601   2.894  0.7728 -4.0969  2.2137
  389MOL0     H53678   4.529   3.443   3.287 -1.3018  0.8667  0.8557
  389MOL0     H53679   4.395   4.073   2.712  1.4223  2.7756 -1.9711
  389MOL0     H53680   4.579   4.343   2.621  0.1294  0.4006 -1.6492
  389MOL0     H53681   4.467   4.212   2.567  0.7474 -2.1253  2.1196
  389MOL0     H53682   4.399   4.362   2.620  0.4444 -1.0722 -0.9427
  390MOL0     O53683   5.380   9.143   7.860  0.4021 -0.9600 -0.5331
  390MOL0     C53684   5.388   9.238   7.777 -0.2167 -0.0492 -0.7432
  390MOL0     O53685   5.298   9.342   7.760 -0.0905  0.2551 -1.0291
  390MOL0     C53686   5.227   9.384   7.866 -0.1949  1.4695 -0.5130
  390MOL0     C53687   5.274   9.409   7.994 -0.1193 -1.1107 -0.5074
  390MOL0     C53688   5.182   9.428   8.096 -0.5838 -0.1030  0.5073
  390MOL0     C53689   5.047   9.459   8.069  0.4866 -0.2832 -0.2294
  390MOL0     O53690   4.956   9.503   8.161 -0.5069  0.1506 -0.4435
  390MOL0     C53691   4.991   9.531   8.304  0.0562  0.3161  0.0894
  390MOL0     C53692   4.879   9.626   8.357  0.1237 -0.4340 -0.1612
  390MOL0     C53693   4.857   9.609   8.520 -0.0777 -0.9184  0.1170
  390MOL0     C53694   4.724   9.561   8.563  0.1311  0.0202 -0.2411
  390MOL0     C53695   4.603   9.657   8.533  0.8059  0.2453 -1.1214
  390MOL0     C53696   4.469   9.581   8.553  0.4558  0.4398  0.2734
  390MOL0     C53697   4.453   9.511   8.690  0.9715 -0.1453  0.6930
  390MOL0     C53698   4.456   9.605   8.793 -0.8917 -0.5071 -0.0787
  390MOL0     N53699   4.473   9.536   8.929 -0.0948  0.1390  0.3993
  390MOL0     C53700   4.363   9.491   9.005  0.2512  0.7267  0.4802
  390MOL0     C53701   4.410   9.397   9.090 -1.1256 -0.3574  1.2766
  390MOL0     C53702   4.336   9.312   9.184 -0.4465 -0.1910  1.4614
  390MOL0     C53703   4.338   9.386   9.314  0.2505  0.1292  0.0041
  390MOL0     C53704   4.283   9.282   9.414 -0.1885  0.5149 -0.5341
  390MOL0     C53705   4.307   9.335   9.557 -0.7938 -1.0162 -0.5944
  390MOL0     O53706   4.307   9.232   9.661 -0.1979  0.3717  0.8607
  390MOL0     C53707   4.409   9.150   9.673 -0.1536  0.3316  0.4418
  390MOL0     C53708   4.387   9.016   9.653 -0.3808  0.0897 -0.7540
  390MOL0     C53709   4.491   8.915   9.660  0.5452 -1.6627  0.5546
  390MOL0     C53710   4.455   8.778   9.648 -0.1968  0.3386 -0.0247
  390MOL0     C53711   4.615   8.963   9.697  0.2964 -0.6006 -1.2033
  390MOL0     C53712   4.725   8.870   9.701 -0.2904 -0.8763 -0.2022
  390MOL0     O53713   4.800   8.898   9.810 -0.4467  0.0833 -0.0214
  390MOL0     C53714   4.902   8.816   9.850 -0.3651 -0.5164  0.9005
  390MOL0     C53715   5.007   8.885   9.922  0.2765  0.0532 -0.3829
  390MOL0     C53716   5.122   8.817   9.971 -0.2797 -0.8569  1.1099
  390MOL0     C53717   5.126   8.675   9.951  1.6409 -0.3395 -0.2179
  390MOL0     O53718   5.209   8.601  10.027  0.1541  0.1041 -0.6394
  390MOL0     C53719   5.147   8.556  10.148 -0.9105 -1.4783 -0.5877
  390MOL0     C53720   5.228   8.434  10.199 -0.3510  1.4550  0.0606
  390MOL0     C53721   5.164   8.380  10.324  0.2430 -0.6512  1.1941
  390MOL0     C53722   5.254   8.273  10.391 -0.5855  0.2854  0.0923
  390MOL0     C53723   5.351   8.329  10.492 -0.9751 -0.4544  0.2403
  390MOL0     C53724   5.445   8.221  10.541  0.6707  1.2218 -0.2130
  390MOL0     C53725   5.536   8.273  10.652  0.2325  0.0491  0.5329
  390MOL0     C53726   5.626   8.167  10.700 -0.4839 -0.6529  0.3232
  390MOL0    Cl53727   5.722   8.241  10.827  0.3379 -0.3435 -0.1502
  390MOL0     C53728   5.024   8.606   9.883  0.3062 -0.5069 -0.1458
  390MOL0     C53729   4.916   8.680   9.829  0.0660 -1.0120 -0.1565
  390MOL0     O53730   4.758   8.799   9.607  1.1720 -0.7338 -0.0767
  390MOL0     C53731   4.645   9.095   9.726  0.0267 -0.1257  0.7498
  390MOL0     C53732   4.539   9.184   9.716 -0.5053 -0.4397  0.1639
  390MOL0     N53733   4.549   9.377   9.058 -0.4364 -0.3679  0.1574
  390MOL0     N53734   4.579   9.456   8.957 -1.5110 -0.1163  0.7014
  390MOL0     C53735   4.999   9.450   7.938 -0.4896  0.8640  0.8478
  390MOL0     C53736   5.094   9.417   7.836  0.2289  0.2492  0.4251
  390MOL0     C53737   5.497   9.214   7.671 -0.6414 -0.1008 -0.2386
  390MOL0     C53738   5.595   9.115   7.691  0.1079  0.0442  0.6607
  390MOL0     C53739   5.691   9.090   7.600 -0.0982 -1.5933 -0.6445
  390MOL0     C53740   5.707   9.161   7.482 -0.6027  1.4860 -0.4304
  390MOL0     O53741   5.806   9.121   7.396  1.2829 -0.6231 -0.1142
  390MOL0     C53742   5.842   9.214   7.294 -0.0071 -0.4655  0.1837
  390MOL0     C53743   5.950   9.162   7.202 -0.3085  0.3397 -0.1222
  390MOL0     C53744   5.987   9.249   7.077  0.8850 -0.9676 -0.5217
  390MOL0     C53745   6.137   9.259   7.066 -0.9658  0.6154  0.7940
  390MOL0     C53746   6.190   9.133   7.020  0.0721 -0.0143  0.9023
  390MOL0     C53747   6.212   9.025   6.970 -0.8438 -1.3430 -0.1774
  390MOL0     C53748   5.615   9.258   7.456 -0.4187 -0.0573  0.5956
  390MOL0     C53749   5.513   9.288   7.551  0.4982  0.5219  0.6262
  390MOL0     C53750   5.430   9.411   7.522  0.6623 -0.3841  0.3556
  390MOL0     H53751   5.379   9.401   8.019 -0.2078  1.6765  1.1772
  390MOL0     H53752   5.222   9.435   8.197  0.0942 -0.8279  0.2940
  390MOL0     H53753   5.078   9.596   8.316 -1.9849  3.3225 -0.2939
  390MOL0     H53754   4.997   9.430   8.346 -4.1446 -1.0198 -1.9120
  390MOL0     H53755   4.916   9.728   8.341  1.4594 -0.9316 -0.2855
  390MOL0     H53756   4.782   9.619   8.306  0.1372 -0.4029 -0.1914
  390MOL0     H53757   4.940   9.546   8.551  0.7637  0.8875  1.7261
  390MOL0     H53758   4.888   9.700   8.573  0.7936 -1.6552  0.8962
  390MOL0     H53759   4.706   9.464   8.515  0.5385  0.7105 -1.8668
  390MOL0     H53760   4.732   9.556   8.672 -0.8375 -0.9494 -0.1915
  390MOL0     H53761   4.607   9.686   8.428  1.5794 -0.4884 -1.2943
  390MOL0     H53762   4.609   9.747   8.596 -3.4207  1.6187 -2.3079
  390MOL0     H53763   4.390   9.653   8.530  0.0548  1.3318  3.7658
  390MOL0     H53764   4.460   9.496   8.484  0.5489 -2.4882  3.5532
  390MOL0     H53765   4.530   9.433   8.693 -0.5938 -1.8191 -0.2290
  390MOL0     H53766   4.364   9.449   8.691  1.0333 -0.3514 -1.4831
  390MOL0     H53767   4.528   9.687   8.787 -2.9941  1.8205  3.0817
  390MOL0     H53768   4.356   9.650   8.791 -1.4831 -1.7868 -0.4508
  390MOL0     H53769   4.265   9.538   9.003  0.6796  1.6610 -2.1778
  390MOL0     H53770   4.380   9.212   9.184 -0.2513 -0.1387 -0.3752
  390MOL0     H53771   4.235   9.306   9.143 -0.0497  1.2957  0.1417
  390MOL0     H53772   4.439   9.425   9.334  0.4652 -0.5432  0.2730
  390MOL0     H53773   4.270   9.471   9.315 -0.2780 -0.2669 -0.7637
  390MOL0     H53774   4.177   9.274   9.388  0.5733  0.5386 -4.0918
  390MOL0     H53775   4.334   9.188   9.392 -1.6025 -1.0126  2.1531
  390MOL0     H53776   4.401   9.391   9.551 -1.5130  0.1957 -1.0267
  390MOL0     H53777   4.235   9.411   9.590  3.6257  2.7733  1.5704
  390MOL0     H53778   4.282   8.991   9.644 -0.4032 -0.2969  0.3746
  390MOL0     H53779   4.471   8.711   9.733 -0.5277  0.2373 -0.0386
  390MOL0     H53780   4.510   8.745   9.560  2.3607 -3.5113  2.6712
  390MOL0     H53781   4.349   8.770   9.620  0.4529 -2.0923 -2.2136
  390MOL0     H53782   4.999   8.991   9.941  0.4817  0.0982 -0.5478
  390MOL0     H53783   5.204   8.865  10.024 -1.6463  1.4269  1.2981
  390MOL0     H53784   5.157   8.638  10.220  0.2198  1.3156 -3.6704
  390MOL0     H53785   5.050   8.520  10.113 -0.4070 -2.5600 -0.8933
  390MOL0     H53786   5.242   8.345  10.138  2.3522  1.3364  0.6867
  390MOL0     H53787   5.326   8.456  10.243 -0.8543 -2.2189  3.5943
  390MOL0     H53788   5.074   8.323  10.299 -0.8039  0.0943  3.0713
  390MOL0     H53789   5.153   8.465  10.393  2.1765  2.8035 -2.3578
  390MOL0     H53790   5.308   8.213  10.317  2.1020  1.2613  1.1447
  390MOL0     H53791   5.187   8.208  10.448 -0.5848  1.5288  1.5593
  390MOL0     H53792   5.406   8.412  10.445 -2.3721  0.2817 -0.1562
  390MOL0     H53793   5.306   8.379  10.578 -1.5570  1.2113 -0.9769
  390MOL0     H53794   5.511   8.196  10.457 -0.2594  0.6214 -0.7879
  390MOL0     H53795   5.387   8.133  10.568 -2.6734  3.3008 -0.0803
  390MOL0     H53796   5.467   8.301  10.732  0.3158  3.0403 -0.3223
  390MOL0     H53797   5.585   8.366  10.623 -0.5085  0.8886  1.8852
  390MOL0     H53798   5.701   8.133  10.628  3.1645  2.2815  2.3640
  390MOL0     H53799   5.572   8.079  10.736  2.8132 -2.1329  2.0725
  390MOL0     H53800   5.043   8.502   9.860 -2.3707 -0.7434 -1.6988
  390MOL0     H53801   4.840   8.635   9.766 -3.5834  3.1388  0.7861
  390MOL0     H53802   4.744   9.119   9.764  0.6639 -0.0645 -0.8735
  390MOL0     H53803   4.560   9.289   9.735 -0.5532 -0.5682  0.9212
  390MOL0     H53804   4.893   9.459   7.917 -1.2697 -2.8945  2.4156
  390MOL0     H53805   5.062   9.392   7.736 -3.8477  2.0691  1.0749
  390MOL0     H53806   5.590   9.055   7.781  0.3671 -0.3776  0.3928
  390MOL0     H53807   5.776   9.026   7.621 -0.6666 -1.4546  2.7089
  390MOL0     H53808   5.755   9.232   7.231  1.1904  4.0796 -0.5737
  390MOL0     H53809   5.875   9.311   7.332  1.2751 -1.1041  0.7819
  390MOL0     H53810   5.901   9.073   7.162  0.1106  0.5153 -1.0539
  390MOL0     H53811   6.030   9.132   7.271 -2.6189  0.4728  2.8008
  390MOL0     H53812   5.947   9.205   6.986 -0.6360  0.5001 -0.6013
  390MOL0     H53813   5.945   9.349   7.093  0.8000 -1.2992  1.5709
  390MOL0     H53814   6.187   9.268   7.162 -1.4964 -4.7196  1.8616
  390MOL0     H53815   6.171   9.335   6.995  0.1746  0.0430  0.7119
  390MOL0     H53816   6.235   8.933   6.920 -3.7809 -0.7425 -2.9697
  390MOL0     H53817   5.616   9.317   7.365  0.1329 -0.7343  0.1459
  390MOL0     H53818   5.405   9.478   7.604  1.3421 -1.3277  1.3626
  390MOL0     H53819   5.478   9.477   7.448 -1.2237 -0.3601 -0.9182
  390MOL0     H53820   5.335   9.390   7.472  0.1495 -0.9008  1.5124
  391MOL0     O53821   1.370   1.453  10.458  0.9457 -0.3492  0.2486
  391MOL0     C53822   1.316   1.564  10.459 -0.6135  0.1611  0.4655
  391MOL0     O53823   1.178   1.588  10.483  0.5076  0.4648 -0.0797
  391MOL0     C53824   1.107   1.475  10.505 -0.5127  0.5573 -0.1844
  391MOL0     C53825   1.033   1.446  10.624 -0.5131  0.5942  0.2022
  391MOL0     C53826   0.961   1.321  10.644  0.4158  0.1395  0.1098
  391MOL0     C53827   0.938   1.233  10.544 -0.3171  0.2187  0.6199
  391MOL0     O53828   0.858   1.119  10.539  0.1621  1.1134  0.1704
  391MOL0     C53829   0.728   1.130  10.610  0.2359 -0.0471  0.4400
  391MOL0     C53830   0.661   0.987  10.617 -0.1413 -0.4625 -0.0983
  391MOL0     C53831   0.511   1.004  10.671 -0.5837 -0.7875 -0.5032
  391MOL0     C53832   0.498   1.058  10.812 -0.6427  0.4998 -0.1982
  391MOL0     C53833   0.358   1.042  10.861  0.4250  0.8787 -0.3144
  391MOL0     C53834   0.327   1.102  10.990 -0.3452 -0.6344  0.7756
  391MOL0     C53835   0.401   1.044  11.116  0.8496  0.0114 -0.8571
  391MOL0     C53836   0.392   1.148  11.230 -0.5582 -0.0972  0.5661
  391MOL0     N53837   0.276   1.112  11.314  0.1272 -0.2944  0.2195
  391MOL0     C53838   0.148   1.105  11.272  1.6057 -0.5303 -0.8645
  391MOL0     C53839   0.077   1.061  11.372 -0.6020 -0.0729 -0.3768
  391MOL0     C53840  -0.075   1.048  11.393 -0.5891  0.2796  0.7507
  391MOL0     C53841  -0.123   1.121  11.516 -0.1324  1.1277 -0.5914
  391MOL0     C53842  -0.100   1.270  11.511 -0.4145  0.0665  0.1340
  391MOL0     C53843  -0.170   1.349  11.407 -0.2981  0.1519  0.6329
  391MOL0     O53844  -0.137   1.493  11.424 -0.2503  1.0287 -0.3759
  391MOL0     C53845  -0.210   1.585  11.357 -0.5483  0.0869 -1.4247
  391MOL0     C53846  -0.158   1.718  11.359  0.0902  1.0340  0.4177
  391MOL0     C53847  -0.229   1.818  11.287 -0.0723 -0.2957 -0.0110
  391MOL0     C53848  -0.176   1.962  11.284  0.3685 -0.2679  0.6596
  391MOL0     C53849  -0.356   1.784  11.232 -0.1269  0.8323  0.5966
  391MOL0     C53850  -0.434   1.890  11.155 -0.5088  0.2397  0.7038
  391MOL0     O53851  -0.434   2.017  11.188 -0.7082 -0.7990 -1.2157
  391MOL0     C53852  -0.518   2.112  11.134  0.9024  0.3607  1.1992
  391MOL0     C53853  -0.506   2.180  11.015  0.4222 -0.0447  0.8751
  391MOL0     C53854  -0.604   2.263  10.957 -0.1535  0.7073 -0.3326
  391MOL0     C53855  -0.716   2.302  11.027 -0.4150 -1.2283  0.5320
  391MOL0     O53856  -0.817   2.389  10.992  0.6132 -0.3272 -0.4519
  391MOL0     C53857  -0.755   2.521  10.978  0.2244 -0.8763  0.2734
  391MOL0     C53858  -0.870   2.626  10.971 -0.8706  0.2598  0.9507
  391MOL0     C53859  -0.968   2.605  10.844  0.2748  0.6117 -0.0795
  391MOL0     C53860  -0.890   2.610  10.708 -0.1150 -0.9519 -0.6981
  391MOL0     C53861  -0.971   2.539  10.608 -0.3194 -1.0985 -0.0017
  391MOL0     C53862  -0.909   2.512  10.468 -0.6838 -0.8254  0.0187
  391MOL0     C53863  -1.027   2.479  10.384  0.2507  0.5075  0.8611
  391MOL0     C53864  -0.975   2.444  10.243  0.1038  0.3452 -0.0735
  391MOL0    Cl53865  -1.099   2.394  10.149  0.2352  0.5248 -0.1515
  391MOL0     C53866  -0.735   2.235  11.147  0.1416 -0.5253  0.4084
  391MOL0     C53867  -0.640   2.150  11.202 -0.1774  1.0972 -0.0786
  391MOL0     O53868  -0.474   1.850  11.044  0.4340 -0.6261 -0.1602
  391MOL0     C53869  -0.402   1.654  11.235  0.7289  0.0865  0.4898
  391MOL0     C53870  -0.326   1.556  11.290  0.1635 -0.1690 -0.1813
  391MOL0     N53871   0.168   1.024  11.473  0.1038  0.5488  0.4717
  391MOL0     N53872   0.285   1.070  11.442 -0.4222 -0.3947  0.1024
  391MOL0     C53873   0.999   1.269  10.422 -0.6733  0.3817  0.5700
  391MOL0     C53874   1.083   1.381  10.403 -1.0673 -0.1153  0.1174
  391MOL0     C53875   1.405   1.680  10.422 -0.1900 -0.3362 -0.7600
  391MOL0     C53876   1.397   1.781  10.525  0.0029 -0.0093  1.0968
  391MOL0     C53877   1.461   1.900  10.500  0.2995  0.3855 -0.8467
  391MOL0     C53878   1.542   1.922  10.385  1.4861  0.3351  0.0881
  391MOL0     O53879   1.610   2.046  10.378  0.0817  0.6077  0.8540
  391MOL0     C53880   1.603   2.116  10.255 -0.7956  0.5426 -1.4279
  391MOL0     C53881   1.479   2.214  10.263 -0.5975  0.2866 -0.9810
  391MOL0     C53882   1.488   2.314  10.149 -0.2563 -0.5458 -0.1209
  391MOL0     C53883   1.541   2.449  10.188  0.7046  0.4192 -0.1875
  391MOL0     C53884   1.592   2.510  10.067 -0.2927  0.2859  0.3358
  391MOL0     C53885   1.632   2.585   9.976 -0.1110  0.5809 -0.0772
  391MOL0     C53886   1.538   1.823  10.283 -1.5984  0.5641 -0.8670
  391MOL0     C53887   1.474   1.704  10.299 -0.6184  0.6650 -0.1076
  391MOL0     C53888   1.493   1.603  10.193  0.4027  0.5660  0.6044
  391MOL0     H53889   1.048   1.520  10.702 -1.2250  0.7557  0.1908
  391MOL0     H53890   0.915   1.305  10.740  1.2219 -1.6243  0.2399
  391MOL0     H53891   0.662   1.198  10.556 -1.3766 -2.0365 -0.2369
  391MOL0     H53892   0.755   1.171  10.707  2.1421  2.6554 -1.0926
  391MOL0     H53893   0.648   0.946  10.516 -0.9961  1.0447 -0.6279
  391MOL0     H53894   0.712   0.922  10.688 -3.8903 -0.1502  3.2573
  391MOL0     H53895   0.447   1.063  10.605 -0.7136  0.2689  0.5311
  391MOL0     H53896   0.470   0.903  10.670  0.0094 -1.0609  0.6349
  391MOL0     H53897   0.572   1.027  10.886  2.1775 -0.0173 -3.0294
  391MOL0     H53898   0.524   1.163  10.797  2.9352  0.4448  3.6617
  391MOL0     H53899   0.342   0.934  10.863 -1.1915  1.0590 -1.5205
  391MOL0     H53900   0.290   1.078  10.783  0.3195  2.0854  0.3057
  391MOL0     H53901   0.351   1.207  10.971  2.1447 -1.2729 -0.0203
  391MOL0     H53902   0.219   1.093  11.005 -1.1078  3.1645 -1.1230
  391MOL0     H53903   0.507   1.036  11.092  1.2999 -1.4411  1.3341
  391MOL0     H53904   0.354   0.950  11.145 -1.1559  0.9633 -0.8432
  391MOL0     H53905   0.480   1.156  11.294 -1.3500 -0.6381  1.7649
  391MOL0     H53906   0.362   1.249  11.203 -1.4130  0.5180  3.4209
  391MOL0     H53907   0.105   1.141  11.179  0.0136 -1.4537 -0.5173
  391MOL0     H53908  -0.097   0.941  11.404 -0.9538  0.3587  0.8012
  391MOL0     H53909  -0.103   1.097  11.299  4.7050  1.3503 -0.5568
  391MOL0     H53910  -0.228   1.098  11.533  0.1850  0.4345  0.5852
  391MOL0     H53911  -0.066   1.084  11.602  0.6980  0.3563 -1.4673
  391MOL0     H53912  -0.129   1.307  11.610  0.3915  0.1769  0.3338
  391MOL0     H53913   0.007   1.290  11.498 -0.2179 -0.7128  0.5136
  391MOL0     H53914  -0.140   1.320  11.306  2.8295  1.3592  1.0974
  391MOL0     H53915  -0.276   1.335  11.430 -0.4223  3.8615  3.0952
  391MOL0     H53916  -0.072   1.764  11.408  1.8589  0.7335 -2.2107
  391MOL0     H53917  -0.239   2.021  11.351 -0.7827 -3.5167  2.7114
  391MOL0     H53918  -0.189   2.007  11.185  0.9076 -0.0382  0.6903
  391MOL0     H53919  -0.068   1.963  11.300  0.9069  1.3044 -2.4125
  391MOL0     H53920  -0.408   2.163  10.971  0.2289  0.2011  0.3402
  391MOL0     H53921  -0.589   2.317  10.864 -0.9156 -0.4833 -1.1763
  391MOL0     H53922  -0.687   2.543  11.060 -1.2049 -0.3387  1.3524
  391MOL0     H53923  -0.707   2.518  10.879 -2.6466  0.6933 -1.3185
  391MOL0     H53924  -0.915   2.633  11.070  1.7487  3.3992  2.0878
  391MOL0     H53925  -0.836   2.727  10.949 -1.0862 -0.3942 -3.2258
  391MOL0     H53926  -1.057   2.668  10.845  0.4588  0.9148  1.7925
  391MOL0     H53927  -0.999   2.501  10.855  2.3956 -0.1912 -1.0724
  391MOL0     H53928  -0.788   2.572  10.713  0.2240 -0.3692 -2.4411
  391MOL0     H53929  -0.884   2.716  10.681  1.4398 -1.0849 -0.9224
  391MOL0     H53930  -1.003   2.444  10.653 -0.5901 -0.7823  0.4925
  391MOL0     H53931  -1.064   2.593  10.584  0.8735  0.8686 -0.4591
  391MOL0     H53932  -0.837   2.431  10.465  0.8171  0.4777 -0.6169
  391MOL0     H53933  -0.860   2.599  10.423 -1.1460 -1.3877 -1.6409
  391MOL0     H53934  -1.099   2.561  10.378 -0.0566  0.4959  3.3671
  391MOL0     H53935  -1.083   2.397  10.430 -2.2923  1.5007 -0.2733
  391MOL0     H53936  -0.904   2.361  10.244 -1.8100 -1.3908  3.0178
  391MOL0     H53937  -0.929   2.525  10.184  0.9794 -0.6656 -0.8122
  391MOL0     H53938  -0.832   2.254  11.193 -0.1021  3.9370 -1.3668
  391MOL0     H53939  -0.646   2.090  11.292  3.8805  2.6758  1.4755
  391MOL0     H53940  -0.497   1.629  11.189 -0.1891  3.9085 -0.0317
  391MOL0     H53941  -0.377   1.460  11.286  0.3919 -0.2517 -1.2377
  391MOL0     H53942   0.991   1.199  10.339  0.1990 -0.6414  1.3194
  391MOL0     H53943   1.148   1.392  10.317  0.8979 -1.6772  1.3238
  391MOL0     H53944   1.337   1.777  10.615  1.2634  0.8932  2.0142
  391MOL0     H53945   1.454   1.989  10.562 -0.0460 -0.9149  1.0609
  391MOL0     H53946   1.694   2.174  10.235 -0.0035 -0.0424  0.2804
  391MOL0     H53947   1.594   2.048  10.169 -2.1436 -0.2761 -0.6683
  391MOL0     H53948   1.494   2.262  10.361  4.0571 -0.2781 -1.1641
  391MOL0     H53949   1.389   2.153  10.264 -1.0268  0.8194  2.1959
  391MOL0     H53950   1.534   2.275  10.058 -0.6964  0.1489 -0.6541
  391MOL0     H53951   1.385   2.319  10.112  0.2993 -0.3309 -1.7349
  391MOL0     H53952   1.618   2.424  10.261  1.4592  0.9357 -0.7815
  391MOL0     H53953   1.462   2.508  10.234  0.9736  0.0027  0.8160
  391MOL0     H53954   1.668   2.643   9.894 -3.0677 -1.9445 -3.5236
  391MOL0     H53955   1.605   1.844  10.200 -0.0178  0.1864  0.2745
  391MOL0     H53956   1.461   1.636  10.094  0.5546 -1.3932 -0.1389
  391MOL0     H53957   1.597   1.573  10.178  0.1221  0.0616 -0.3741
  391MOL0     H53958   1.423   1.522  10.215 -1.0254  1.7606  0.5842
  392MOL0     O53959   6.019   0.584  10.216 -0.2343  0.0599 -0.3388
  392MOL0     C53960   6.054   0.571  10.101  0.1416  0.5012 -0.8710
  392MOL0     O53961   6.013   0.475  10.011 -0.3107  0.3419  0.4575
  392MOL0     C53962   5.910   0.393  10.056  0.0446  0.4589 -0.2514
  392MOL0     C53963   5.778   0.444  10.053 -0.1084 -0.5878 -0.1206
  392MOL0     C53964   5.672   0.374  10.072 -0.3178  0.4848 -0.4283
  392MOL0     C53965   5.668   0.234  10.081 -1.0553 -0.1402  0.7071
  392MOL0     O53966   5.558   0.166  10.098 -0.1817  0.8681  0.7574
  392MOL0     C53967   5.542   0.041  10.026 -0.3735  0.3239  0.0723
  392MOL0     C53968   5.408  -0.010  10.049 -0.7110 -0.2460  0.2466
  392MOL0     C53969   5.366  -0.121   9.959  0.1074 -0.0929 -0.2138
  392MOL0     C53970   5.227  -0.168   9.983  1.1632 -0.6443 -0.5450
  392MOL0     C53971   5.171  -0.278   9.893  0.3970  0.0203 -1.0894
  392MOL0     C53972   5.040  -0.338   9.959 -0.5791 -0.4339  0.2486
  392MOL0     C53973   5.004  -0.469   9.895  0.4908  0.9021 -0.3040
  392MOL0     C53974   4.860  -0.520   9.923 -0.5017  1.9052  0.6629
  392MOL0     N53975   4.769  -0.432   9.859  0.7308 -0.9347  0.3202
  392MOL0     C53976   4.750  -0.422   9.720  0.3166 -0.3545  0.5607
  392MOL0     C53977   4.648  -0.332   9.694 -0.1790 -0.4946 -0.3869
  392MOL0     C53978   4.584  -0.276   9.567  0.3194 -0.2906  1.5823
  392MOL0     C53979   4.581  -0.392   9.461  0.2554 -0.7026  0.3271
  392MOL0     C53980   4.519  -0.328   9.335 -0.3280  0.6129 -0.4013
  392MOL0     C53981   4.516  -0.420   9.211 -1.0765 -0.1312 -1.1819
  392MOL0     O53982   4.427  -0.534   9.231  0.1803  0.3341  0.6208
  392MOL0     C53983   4.416  -0.629   9.134 -0.9358  0.7634  0.6875
  392MOL0     C53984   4.381  -0.761   9.172  0.7698  0.3698  0.4274
  392MOL0     C53985   4.379  -0.871   9.083  0.3877  0.3388 -0.7059
  392MOL0     C53986   4.340  -1.005   9.134  0.4820  0.2513 -0.5242
  392MOL0     C53987   4.420  -0.849   8.952  0.0446  0.8097  1.1094
  392MOL0     C53988   4.432  -0.963   8.847  0.1129  0.2609 -1.4142
  392MOL0     O53989   4.427  -0.925   8.719 -0.1339 -0.1656 -0.2396
  392MOL0     C53990   4.430  -1.012   8.613  0.9890 -0.4757 -0.1607
  392MOL0     C53991   4.501  -0.997   8.493  0.2859 -0.1978  1.0162
  392MOL0     C53992   4.474  -1.077   8.374 -0.8289 -0.2889 -0.3927
  392MOL0     C53993   4.374  -1.168   8.380 -0.4308 -0.0562  0.0940
  392MOL0     O53994   4.337  -1.218   8.258 -0.0146 -0.2338  0.7038
  392MOL0     C53995   4.195  -1.240   8.233  0.4275  0.3120 -0.8637
  392MOL0     C53996   4.166  -1.230   8.087  0.1735 -0.9959 -0.7341
  392MOL0     C53997   4.195  -1.362   8.011 -0.0532  0.3589  0.2391
  392MOL0     C53998   4.219  -1.349   7.861  0.1535 -0.4268 -0.8594
  392MOL0     C53999   4.238  -1.483   7.791  0.3853  0.0873 -1.2553
  392MOL0     C54000   4.123  -1.581   7.799 -0.4071 -0.9765 -0.5193
  392MOL0     C54001   4.128  -1.710   7.727 -0.3495  0.0698 -0.7691
  392MOL0     C54002   4.002  -1.796   7.744  0.3254  0.3691  1.2144
  392MOL0    Cl54003   4.005  -1.894   7.904  0.1813  0.0390 -0.1575
  392MOL0     C54004   4.298  -1.194   8.501 -0.6805  0.2348  0.3877
  392MOL0     C54005   4.330  -1.109   8.619 -0.0926  1.0130  0.3484
  392MOL0     O54006   4.446  -1.081   8.888 -0.2507 -0.1939  1.4017
  392MOL0     C54007   4.464  -0.724   8.910  0.5090 -0.3142 -0.5873
  392MOL0     C54008   4.465  -0.611   9.000  0.7192 -0.0172  0.5527
  392MOL0     N54009   4.634  -0.270   9.824  0.4223  0.4356  0.6881
  392MOL0     N54010   4.702  -0.334   9.915 -0.2909 -0.3811  1.1197
  392MOL0     C54011   5.796   0.179  10.079 -1.5212  0.1160 -0.4464
  392MOL0     C54012   5.918   0.251  10.075  0.1160  0.3065 -0.2283
  392MOL0     C54013   6.156   0.667  10.052  0.3467  1.3162 -0.8258
  392MOL0     C54014   6.198   0.649   9.921 -0.8815 -1.1215 -0.4124
  392MOL0     C54015   6.299   0.730   9.872  0.5196 -1.0478  0.4590
  392MOL0     C54016   6.367   0.816   9.947 -0.4672  0.5306  0.2309
  392MOL0     O54017   6.478   0.885   9.913 -0.0734  0.0037 -1.2378
  392MOL0     C54018   6.490   0.959   9.792  0.5722  0.4666  1.1889
  392MOL0     C54019   6.553   0.871   9.679  0.2789  0.1664  0.3447
  392MOL0     C54020   6.702   0.844   9.693 -0.4099  1.3266  0.4404
  392MOL0     C54021   6.797   0.966   9.664  0.7379 -0.3398 -0.7374
  392MOL0     C54022   6.748   1.053   9.561 -0.0371 -0.2638 -0.1861
  392MOL0     C54023   6.727   1.127   9.470  0.9473  0.6789 -0.1129
  392MOL0     C54024   6.302   0.860  10.066 -1.3179  0.2555 -0.2515
  392MOL0     C54025   6.204   0.781  10.123 -0.0764 -0.2611  0.1368
  392MOL0     C54026   6.158   0.826  10.264 -0.3874  0.6847  1.2227
  392MOL0     H54027   5.767   0.550  10.074 -2.9783 -0.4119 -1.9995
  392MOL0     H54028   5.576   0.424  10.075 -1.6025 -1.8291 -0.7570
  392MOL0     H54029   5.622  -0.028  10.055 -1.3211 -0.7775  0.1670
  392MOL0     H54030   5.555   0.077   9.924  0.4442  1.9062  0.6964
  392MOL0     H54031   5.409  -0.065  10.144 -1.8374 -3.8573 -1.6502
  392MOL0     H54032   5.333   0.069  10.036 -2.9717 -2.3484 -0.2557
  392MOL0     H54033   5.371  -0.090   9.854 -3.7429 -1.2437 -0.8984
  392MOL0     H54034   5.441  -0.201   9.963  2.6913  2.1930 -0.0188
  392MOL0     H54035   5.230  -0.214  10.083  4.7959  0.7868  0.1530
  392MOL0     H54036   5.161  -0.081   9.992  0.6100 -1.2520  2.1619
  392MOL0     H54037   5.247  -0.357   9.892 -0.0489 -0.4751  0.5751
  392MOL0     H54038   5.159  -0.257   9.787  1.2011 -4.0611 -2.1721
  392MOL0     H54039   5.063  -0.353  10.065 -0.3363 -0.0700  0.2460
  392MOL0     H54040   4.959  -0.265   9.948  1.3756  1.6110 -1.9346
  392MOL0     H54041   5.073  -0.553   9.911 -1.2231 -1.3428 -3.5409
  392MOL0     H54042   5.007  -0.455   9.787 -1.4960 -0.4706 -0.5959
  392MOL0     H54043   4.840  -0.618   9.879  3.1463 -0.4545  3.7276
  392MOL0     H54044   4.830  -0.533  10.027 -2.4830  1.5601  0.1052
  392MOL0     H54045   4.793  -0.482   9.640 -2.5762 -1.6509 -0.1397
  392MOL0     H54046   4.632  -0.188   9.522 -0.4508 -1.5657 -2.1004
  392MOL0     H54047   4.483  -0.235   9.579  0.5678  0.9231 -0.0396
  392MOL0     H54048   4.682  -0.426   9.435  0.2184  0.7315 -1.9774
  392MOL0     H54049   4.522  -0.476   9.497 -1.2977 -0.3662 -1.2814
  392MOL0     H54050   4.419  -0.290   9.358 -0.3438 -0.0169  0.6002
  392MOL0     H54051   4.581  -0.240   9.315 -0.2690  0.2948 -1.7136
  392MOL0     H54052   4.484  -0.351   9.132  2.6852  2.6271 -0.6284
  392MOL0     H54053   4.619  -0.455   9.199 -1.4384 -2.3105  1.3087
  392MOL0     H54054   4.366  -0.771   9.279  1.2425 -1.3360  0.3556
  392MOL0     H54055   4.421  -1.076   9.150 -0.5157 -0.4430  1.9867
  392MOL0     H54056   4.261  -1.049   9.072  2.0631  0.1098 -2.5454
  392MOL0     H54057   4.291  -0.988   9.230  0.7344 -0.8687 -0.1851
  392MOL0     H54058   4.571  -0.914   8.483  0.5527 -0.7107 -3.0305
  392MOL0     H54059   4.534  -1.050   8.287  0.4592  1.3483  0.9327
  392MOL0     H54060   4.165  -1.337   8.274 -1.3573  1.6218  1.1580
  392MOL0     H54061   4.140  -1.166   8.292  2.4471  1.4489 -0.3323
  392MOL0     H54062   4.057  -1.220   8.084  0.0046  1.5195  4.0880
  392MOL0     H54063   4.211  -1.147   8.032 -1.1688 -1.1872 -2.2073
  392MOL0     H54064   4.099  -1.415   8.006 -1.0035  2.1564 -3.3417
  392MOL0     H54065   4.264  -1.428   8.065 -0.6272  1.1621  2.0379
  392MOL0     H54066   4.311  -1.294   7.839  1.7030 -1.8389  1.5824
  392MOL0     H54067   4.131  -1.301   7.818 -1.8605 -2.7956  0.3585
  392MOL0     H54068   4.243  -1.473   7.682 -0.6939  3.0804 -1.1183
  392MOL0     H54069   4.327  -1.535   7.829 -0.9785 -1.6272 -0.2955
  392MOL0     H54070   4.043  -1.528   7.747 -0.2222  0.5604  0.6710
  392MOL0     H54071   4.088  -1.600   7.901  0.0280 -0.7855 -0.3302
  392MOL0     H54072   4.207  -1.770   7.772 -0.9168 -0.2441 -0.1870
  392MOL0     H54073   4.147  -1.695   7.620  1.4000  2.1804 -0.2355
  392MOL0     H54074   4.014  -1.874   7.668 -2.4584 -0.3690  1.4298
  392MOL0     H54075   3.907  -1.743   7.734  0.9956  1.3858 -0.0351
  392MOL0     H54076   4.216  -1.264   8.503  0.2720 -0.9033  2.3424
  392MOL0     H54077   4.281  -1.126   8.715 -0.6252 -0.2204 -0.1171
  392MOL0     H54078   4.495  -0.704   8.808 -0.0279  1.0469 -0.5005
  392MOL0     H54079   4.476  -0.509   8.965 -2.2447  0.3041  0.3607
  392MOL0     H54080   5.810   0.071  10.083  0.6881  0.3700  0.5299
  392MOL0     H54081   6.000   0.182  10.094  1.2289  2.1106  2.0159
  392MOL0     H54082   6.168   0.572   9.851  0.0133 -2.6458  0.8254
  392MOL0     H54083   6.333   0.699   9.773 -1.9286  1.4289 -1.2976
  392MOL0     H54084   6.389   0.981   9.755  0.7487  0.6683  0.8190
  392MOL0     H54085   6.549   1.050   9.805  0.3259  0.8384 -0.1190
  392MOL0     H54086   6.534   0.915   9.581 -1.8830  1.9588  1.4544
  392MOL0     H54087   6.502   0.775   9.680 -1.1638  0.8410 -1.7912
  392MOL0     H54088   6.725   0.808   9.794  2.6433 -0.3126 -0.7104
  392MOL0     H54089   6.725   0.764   9.622 -1.7983  0.5647  0.8001
  392MOL0     H54090   6.897   0.933   9.634  0.4329  0.6088 -3.0168
  392MOL0     H54091   6.815   1.023   9.755  0.5402 -5.7660  3.1641
  392MOL0     H54092   6.710   1.195   9.389  2.1325  1.4270  0.2326
  392MOL0     H54093   6.336   0.939  10.131  0.0731 -0.6880  0.2079
  392MOL0     H54094   6.050   0.815  10.281 -0.9017  2.4962 -0.4859
  392MOL0     H54095   6.202   0.763  10.342 -2.2795 -2.2690  0.0849
  392MOL0     H54096   6.178   0.931  10.289 -0.2280  1.0883 -0.4914
  393MOL0     O54097   6.867   5.403  11.448 -0.4265  0.0774 -0.4332
  393MOL0     C54098   6.901   5.289  11.412 -0.1302 -0.3936 -0.0955
  393MOL0     O54099   6.819   5.205  11.342  0.1678  0.3103 -0.0297
  393MOL0     C54100   6.684   5.221  11.367  0.1064  0.1300  0.5729
  393MOL0     C54101   6.616   5.326  11.304  0.0407  0.5138 -0.1662
  393MOL0     C54102   6.470   5.338  11.328 -0.5554 -0.2720 -0.0825
  393MOL0     C54103   6.403   5.249  11.416  0.4537  0.8820  0.1861
  393MOL0     O54104   6.274   5.280  11.430 -0.1604 -0.1874 -0.1338
  393MOL0     C54105   6.199   5.194  11.505 -0.3763  0.1354  0.0192
  393MOL0     C54106   6.047   5.204  11.502  0.0966  0.5417  0.4661
  393MOL0     C54107   6.009   5.337  11.560 -0.3716 -0.2437  0.2258
  393MOL0     C54108   5.855   5.370  11.581  0.2806 -1.2716  0.1369
  393MOL0     C54109   5.785   5.301  11.701 -0.0168 -0.0747 -0.7703
  393MOL0     C54110   5.852   5.341  11.835  0.7608 -0.2113 -0.2649
  393MOL0     C54111   5.780   5.298  11.961  0.1832 -0.3594 -0.6544
  393MOL0     C54112   5.764   5.142  11.980  0.1866  0.3974 -0.4363
  393MOL0     N54113   5.718   5.106  12.118 -0.2012 -0.2700  0.0464
  393MOL0     C54114   5.687   5.193  12.222  0.4258  0.6505 -0.2319
  393MOL0     C54115   5.684   5.118  12.333  0.9207  0.1116  0.2312
  393MOL0     C54116   5.674   5.135  12.483  0.7119  0.3950 -0.1437
  393MOL0     C54117   5.671   5.275  12.531  0.0843 -0.2302  0.1725
  393MOL0     C54118   5.795   5.347  12.551  0.2529  0.3873 -0.3250
  393MOL0     C54119   5.900   5.344  12.432  0.4895  0.0026  0.2611
  393MOL0     O54120   5.965   5.219  12.433  0.2293  1.3588 -0.1952
  393MOL0     C54121   6.024   5.176  12.320 -0.3617 -0.5945 -0.2459
  393MOL0     C54122   6.070   5.270  12.217 -0.0595 -0.1593  0.2910
  393MOL0     C54123   6.110   5.227  12.086 -0.2284  0.3938 -0.0273
  393MOL0     C54124   6.156   5.342  11.992 -0.3158  0.1714 -0.2268
  393MOL0     C54125   6.113   5.090  12.050  0.4312 -0.3992  0.4167
  393MOL0     C54126   6.142   5.033  11.920  0.3603  0.1000 -0.8212
  393MOL0     O54127   6.147   4.899  11.925  0.1790  0.2527 -0.4826
  393MOL0     C54128   6.185   4.831  11.813 -0.0139 -0.3371 -0.5371
  393MOL0     C54129   6.152   4.866  11.684  0.0910 -0.2575  0.0834
  393MOL0     C54130   6.212   4.816  11.570 -0.3301  0.3698  0.0842
  393MOL0     C54131   6.309   4.716  11.579 -0.5857 -0.2878 -0.9827
  393MOL0     O54132   6.360   4.665  11.471 -0.4761 -0.2653  0.5042
  393MOL0     C54133   6.500   4.650  11.472  0.2327 -0.4008  0.1731
  393MOL0     C54134   6.525   4.573  11.340 -0.5958 -0.3613 -0.0886
  393MOL0     C54135   6.486   4.419  11.357  0.9075 -0.1611  0.0589
  393MOL0     C54136   6.507   4.339  11.224 -0.1025 -0.5687 -0.4953
  393MOL0     C54137   6.664   4.321  11.188  0.1167  0.7881 -0.6390
  393MOL0     C54138   6.709   4.237  11.082  0.4737  0.2838 -1.1760
  393MOL0     C54139   6.854   4.271  11.062 -0.7746 -0.1215 -0.2301
  393MOL0     C54140   6.919   4.181  10.954  0.1314 -0.6682 -0.7607
  393MOL0    Cl54141   6.821   4.160  10.809 -0.2470 -0.0918  0.3325
  393MOL0     C54142   6.347   4.674  11.709  0.5593  0.4385  0.3804
  393MOL0     C54143   6.282   4.728  11.825 -0.1871  0.4022  0.1206
  393MOL0     O54144   6.186   5.096  11.825  0.5863 -0.0944  0.3857
  393MOL0     C54145   6.078   5.005  12.156 -0.5478  0.2005 -1.2567
  393MOL0     C54146   6.047   5.043  12.285 -0.5209  0.1544  0.6818
  393MOL0     N54147   5.713   4.988  12.295  1.1258  0.5263  0.0824
  393MOL0     N54148   5.737   4.984  12.169  0.1196  0.3720 -0.0488
  393MOL0     C54149   6.472   5.134  11.459 -0.5950 -0.9616  0.3650
  393MOL0     C54150   6.613   5.124  11.440  0.4729  0.7478  0.0520
  393MOL0     C54151   7.035   5.236  11.450  0.3188 -0.1521 -0.0521
  393MOL0     C54152   7.043   5.098  11.471 -0.1002  0.3876  0.0935
  393MOL0     C54153   7.156   5.030  11.525  0.4355  0.8191  0.5538
  393MOL0     C54154   7.272   5.098  11.552  0.1323  0.1077 -0.2752
  393MOL0     O54155   7.364   5.023  11.629  0.8415  0.2124 -0.0466
  393MOL0     C54156   7.463   5.105  11.697 -0.6227  0.1105 -0.4928
  393MOL0     C54157   7.584   5.127  11.608 -1.4904 -0.2594  0.8335
  393MOL0     C54158   7.696   5.222  11.657 -0.8062  0.3419 -0.2245
  393MOL0     C54159   7.646   5.364  11.640  0.7328 -0.8654 -0.2705
  393MOL0     C54160   7.755   5.458  11.646 -0.2667  0.0425 -0.6797
  393MOL0     C54161   7.849   5.536  11.633  0.5618 -0.2677 -0.0737
  393MOL0     C54162   7.270   5.236  11.523 -0.5228 -0.1515 -0.0203
  393MOL0     C54163   7.153   5.305  11.479  1.0166 -0.6231 -0.5673
  393MOL0     C54164   7.159   5.458  11.471 -0.6965  0.0747  0.5805
  393MOL0     H54165   6.665   5.394  11.235 -2.9450  3.2425  0.1275
  393MOL0     H54166   6.412   5.418  11.284  1.4744  0.9460 -0.6882
  393MOL0     H54167   6.233   5.200  11.609 -0.1589  0.7241 -0.0837
  393MOL0     H54168   6.202   5.093  11.465 -1.9012 -0.8200  2.0986
  393MOL0     H54169   6.022   5.199  11.396  1.0316  3.2548  0.0461
  393MOL0     H54170   6.010   5.122  11.565  3.0717 -1.0341  0.3315
  393MOL0     H54171   6.065   5.350  11.654 -1.4891  0.0014  0.8656
  393MOL0     H54172   6.036   5.413  11.486 -1.4166 -0.9096 -0.8836
  393MOL0     H54173   5.850   5.477  11.603  0.0552 -1.7699  2.9568
  393MOL0     H54174   5.797   5.358  11.490  0.6530  2.2169 -0.6964
  393MOL0     H54175   5.762   5.194  11.700  0.5560 -0.2325  0.6943
  393MOL0     H54176   5.686   5.348  11.694  0.0665 -0.0947 -2.4364
  393MOL0     H54177   5.945   5.286  11.815 -0.4488 -0.7446 -6.1958
  393MOL0     H54178   5.859   5.449  11.846 -2.7655 -0.0267  1.5643
  393MOL0     H54179   5.683   5.349  11.959 -1.6352 -3.4706  0.3052
  393MOL0     H54180   5.844   5.338  12.040  0.1601 -0.6528 -0.4853
  393MOL0     H54181   5.692   5.113  11.904  2.9446 -3.0253 -2.0171
  393MOL0     H54182   5.861   5.100  11.952  0.3534  1.6967 -1.9603
  393MOL0     H54183   5.657   5.297  12.220 -0.2518  0.5273  1.6705
  393MOL0     H54184   5.740   5.081  12.552 -1.6633 -1.8283  0.5363
  393MOL0     H54185   5.572   5.097  12.497  0.5178  0.9725  0.0343
  393MOL0     H54186   5.609   5.336  12.466  0.0385 -2.2123 -1.7695
  393MOL0     H54187   5.617   5.281  12.626  0.7681 -3.4545  0.8955
  393MOL0     H54188   5.766   5.450  12.573  1.7507  1.1351 -1.6946
  393MOL0     H54189   5.840   5.322  12.648 -0.1770 -1.7219 -0.6123
  393MOL0     H54190   5.847   5.356  12.337 -0.4056 -1.8712  0.4778
  393MOL0     H54191   5.973   5.422  12.454  0.9372 -0.1316 -0.6987
  393MOL0     H54192   6.058   5.378  12.221 -0.0481 -0.0231 -1.9122
  393MOL0     H54193   6.185   5.328  11.887  0.2481  4.0521 -0.7572
  393MOL0     H54194   6.248   5.382  12.038  1.0385 -1.8122 -1.0967
  393MOL0     H54195   6.080   5.420  11.980 -2.3514 -1.8688 -1.2309
  393MOL0     H54196   6.077   4.943  11.669 -1.1970 -1.9674 -3.1513
  393MOL0     H54197   6.207   4.863  11.472  2.7547  2.2345  0.6875
  393MOL0     H54198   6.544   4.751  11.470 -0.2462 -0.0404  3.0139
  393MOL0     H54199   6.546   4.606  11.561 -1.1652 -1.2267  0.5183
  393MOL0     H54200   6.473   4.617  11.255 -0.4671 -3.3011 -1.8155
  393MOL0     H54201   6.633   4.586  11.326 -0.7592  0.2812 -0.8155
  393MOL0     H54202   6.385   4.410  11.398  0.2826 -0.1209 -1.4068
  393MOL0     H54203   6.544   4.380  11.441 -1.4133  2.2579  3.0010
  393MOL0     H54204   6.452   4.389  11.143  0.0216 -1.0893 -0.9061
  393MOL0     H54205   6.455   4.244  11.236 -2.7947  0.6356 -1.7004
  393MOL0     H54206   6.690   4.424  11.163 -0.0501  0.5478 -1.9108
  393MOL0     H54207   6.715   4.293  11.280 -0.1273  2.5710  0.0673
  393MOL0     H54208   6.650   4.254  10.992 -1.3431  1.5800  0.1829
  393MOL0     H54209   6.699   4.133  11.113  1.9718  0.8782  1.7164
  393MOL0     H54210   6.904   4.273  11.159 -2.7467  2.1811  0.8506
  393MOL0     H54211   6.857   4.373  11.022 -0.2848 -0.7206 -1.8071
  393MOL0     H54212   6.932   4.078  10.986 -0.8695 -0.1029  1.7379
  393MOL0     H54213   7.018   4.220  10.928 -0.0989  1.1098  0.7230
  393MOL0     H54214   6.415   4.592  11.731 -0.1784 -1.7486 -4.2562
  393MOL0     H54215   6.308   4.694  11.924 -2.4575 -0.9545  0.3206
  393MOL0     H54216   6.088   4.897  12.150  1.7231  0.2588  0.4028
  393MOL0     H54217   6.030   4.961  12.354  1.6741 -0.7698  0.1893
  393MOL0     H54218   6.418   5.066  11.525 -2.4143  0.2079  0.1526
  393MOL0     H54219   6.664   5.045  11.494 -1.3949  0.6369  1.7490
  393MOL0     H54220   6.960   5.031  11.448  0.6136 -0.7183  0.6329
  393MOL0     H54221   7.153   4.925  11.551  1.3207  0.6349 -0.0382
  393MOL0     H54222   7.408   5.191  11.735 -0.9814 -0.2747 -0.1162
  393MOL0     H54223   7.498   5.068  11.794  0.0156  0.9702 -0.3835
  393MOL0     H54224   7.555   5.142  11.503  2.9020  1.2672 -0.3980
  393MOL0     H54225   7.631   5.029  11.599 -0.0803  0.5507 -2.6717
  393MOL0     H54226   7.724   5.203  11.761  1.1170  1.6111 -0.4650
  393MOL0     H54227   7.781   5.195  11.594 -0.3576  0.3247  0.3762
  393MOL0     H54228   7.570   5.385  11.715  1.3204 -0.2975  0.1809
  393MOL0     H54229   7.587   5.373  11.549 -0.0473  0.8860  0.3609
  393MOL0     H54230   7.920   5.608  11.597  0.4273  1.0132  2.0227
  393MOL0     H54231   7.354   5.296  11.557 -3.4063  4.1562  0.3297
  393MOL0     H54232   7.263   5.492  11.471  0.0473 -1.9655  2.3889
  393MOL0     H54233   7.114   5.479  11.374  1.1281  0.9874 -0.1014
  393MOL0     H54234   7.109   5.502  11.558  0.4743  0.3704  1.1184
  394MOL0     O54235  10.689   2.271   1.194 -0.5612 -0.3861  0.1945
  394MOL0     C54236  10.730   2.348   1.283 -0.3547  0.2882 -0.5006
  394MOL0     O54237  10.789   2.313   1.404 -0.1641 -1.0178 -0.4188
  394MOL0     C54238  10.794   2.186   1.455  1.0934 -0.6654 -0.8068
  394MOL0     C54239  10.827   2.196   1.584 -0.1655 -0.0210 -1.0856
  394MOL0     C54240  10.855   2.080   1.661  1.0382  0.9357  0.2600
  394MOL0     C54241  10.833   1.958   1.602 -0.8070 -0.7434 -0.1370
  394MOL0     O54242  10.862   1.857   1.695 -0.5603  0.3570  0.2823
  394MOL0     C54243  10.967   1.753   1.663 -0.0910  0.2436  0.4746
  394MOL0     C54244  11.103   1.799   1.716 -0.4268  0.3961  0.0584
  394MOL0     C54245  11.090   1.803   1.866  0.3615 -0.8902 -0.0797
  394MOL0     C54246  11.144   1.683   1.932 -0.2005  0.5110  0.6252
  394MOL0     C54247  11.152   1.700   2.077 -0.0515 -0.2845 -0.0504
  394MOL0     C54248  11.290   1.760   2.124  0.3600 -0.0446  0.2377
  394MOL0     C54249  11.316   1.750   2.268 -0.3961  0.5479 -0.5108
  394MOL0     C54250  11.266   1.873   2.345  0.8742 -0.6813  0.1209
  394MOL0     N54251  11.300   1.883   2.492 -0.3151 -0.5219  0.3324
  394MOL0     C54252  11.428   1.924   2.540 -0.6228 -1.1670 -0.5904
  394MOL0     C54253  11.411   1.891   2.675  0.3207  0.1034  0.4913
  394MOL0     C54254  11.513   1.899   2.780 -0.8590  0.4799 -0.0844
  394MOL0     C54255  11.554   1.756   2.818  0.5594 -0.8969  0.8999
  394MOL0     C54256  11.641   1.699   2.716  0.1598  0.2279 -0.8070
  394MOL0     C54257  11.688   1.558   2.771 -0.4908 -0.6406  0.5809
  394MOL0     O54258  11.580   1.462   2.794 -0.4396 -0.2048  0.4515
  394MOL0     C54259  11.534   1.405   2.674  0.3685 -0.0358 -0.6028
  394MOL0     C54260  11.589   1.286   2.640 -0.0804  0.7214 -0.3143
  394MOL0     C54261  11.550   1.229   2.522 -0.3459  0.5029  0.3617
  394MOL0     C54262  11.631   1.112   2.473 -0.1855  0.1874 -1.1575
  394MOL0     C54263  11.443   1.279   2.437  1.0830  1.0674  0.5678
  394MOL0     C54264  11.364   1.197   2.330  0.0990  0.0553  0.8447
  394MOL0     O54265  11.318   1.274   2.220  0.0481 -0.0213  0.2809
  394MOL0     C54266  11.290   1.214   2.102 -0.2952  0.2210 -0.2686
  394MOL0     C54267  11.353   1.099   2.044  0.2534 -1.1991  0.3244
  394MOL0     C54268  11.291   1.016   1.948  0.5302  0.3549  0.3193
  394MOL0     C54269  11.158   1.044   1.910 -0.2555  0.4697  0.3242
  394MOL0     O54270  11.093   0.969   1.814 -1.0285 -0.3628  0.2503
  394MOL0     C54271  10.978   0.899   1.872 -0.8192 -0.3359  0.1180
  394MOL0     C54272  10.959   0.772   1.789  0.0322 -0.2043  0.3707
  394MOL0     C54273  11.095   0.693   1.776 -0.3070 -0.6225  0.3071
  394MOL0     C54274  11.066   0.575   1.694 -0.1908  0.0700 -0.3190
  394MOL0     C54275  11.188   0.484   1.660 -0.3532  0.0911 -0.4885
  394MOL0     C54276  11.279   0.545   1.550  0.8974  0.6673  0.0391
  394MOL0     C54277  11.383   0.458   1.480  0.1461  0.1122 -0.4070
  394MOL0     C54278  11.348   0.426   1.338 -0.0421 -0.6912 -0.1927
  394MOL0    Cl54279  11.193   0.333   1.345 -0.5226  0.4444  0.8898
  394MOL0     C54280  11.088   1.153   1.971 -0.3299 -0.4122 -1.1075
  394MOL0     C54281  11.159   1.236   2.059  0.5096  0.3190  0.1466
  394MOL0     O54282  11.352   1.076   2.334  0.5873 -0.3939  0.3900
  394MOL0     C54283  11.396   1.401   2.470  0.4532  0.1969 -0.8264
  394MOL0     C54284  11.445   1.467   2.583 -0.4366  0.9032  0.0651
  394MOL0     N54285  11.286   1.831   2.692  0.4815 -0.5335 -1.4863
  394MOL0     N54286  11.223   1.821   2.587  0.2840  0.3857  1.1666
  394MOL0     C54287  10.805   1.940   1.460 -0.1360 -0.3531  0.6371
  394MOL0     C54288  10.787   2.059   1.389  0.0454 -0.0528 -0.4276
  394MOL0     C54289  10.741   2.488   1.232 -0.0906 -0.5557 -0.0546
  394MOL0     C54290  10.854   2.560   1.285  1.2413 -0.8202  0.0958
  394MOL0     C54291  10.879   2.701   1.248 -0.4253  0.2897  0.6904
  394MOL0     C54292  10.801   2.753   1.140 -0.5286 -0.3518  0.0479
  394MOL0     O54293  10.819   2.873   1.074 -1.4212  0.0806 -0.3807
  394MOL0     C54294  10.889   2.968   1.157  0.0101  0.0064  0.9493
  394MOL0     C54295  10.869   3.103   1.082 -0.2947  0.0376 -0.2711
  394MOL0     C54296  10.965   3.219   1.125  0.5877 -0.1655  0.2377
  394MOL0     C54297  11.090   3.229   1.040 -0.4444 -0.5510 -0.4761
  394MOL0     C54298  11.165   3.347   1.077  0.7252  0.0922  0.2418
  394MOL0     C54299  11.238   3.427   1.115 -0.4235 -0.3183  0.3962
  394MOL0     C54300  10.695   2.675   1.086  0.6458 -0.2323 -0.6076
  394MOL0     C54301  10.658   2.546   1.128  0.2932 -0.0732  0.2937
  394MOL0     C54302  10.535   2.486   1.065 -0.6985 -0.5191 -0.5555
  394MOL0     H54303  10.842   2.292   1.632  1.4948 -1.1899  0.9141
  394MOL0     H54304  10.902   2.094   1.758  4.1171 -0.4951 -0.8886
  394MOL0     H54305  10.975   1.746   1.554  1.3125  0.3735  0.5523
  394MOL0     H54306  10.928   1.663   1.711 -1.3460  1.1159  1.1819
  394MOL0     H54307  11.185   1.736   1.681 -1.6066  0.7612 -3.8329
  394MOL0     H54308  11.123   1.901   1.680 -1.1637 -0.1683 -2.0605
  394MOL0     H54309  11.130   1.900   1.896  0.3379 -0.1846 -2.2222
  394MOL0     H54310  10.990   1.802   1.910  0.7768  0.5298  0.9927
  394MOL0     H54311  11.079   1.598   1.908  0.2254  1.3674 -4.7195
  394MOL0     H54312  11.247   1.672   1.897 -1.5376 -1.3709 -3.2398
  394MOL0     H54313  11.152   1.600   2.121 -1.3014  0.3100  1.3981
  394MOL0     H54314  11.058   1.744   2.111 -0.2964 -0.6312 -0.2609
  394MOL0     H54315  11.380   1.723   2.074  1.6193  2.1974  0.7190
  394MOL0     H54316  11.288   1.867   2.103 -0.2555 -0.0448  0.2620
  394MOL0     H54317  11.422   1.742   2.298 -0.8672 -1.1566  0.8931
  394MOL0     H54318  11.277   1.664   2.322  2.1347  1.2251  2.7534
  394MOL0     H54319  11.313   1.964   2.307 -1.5087 -0.4029 -2.4640
  394MOL0     H54320  11.157   1.889   2.341  0.8267 -1.2175 -1.1067
  394MOL0     H54321  11.519   1.958   2.491 -1.5461  3.3654  0.3715
  394MOL0     H54322  11.469   1.947   2.867  1.5856  0.6423  1.1576
  394MOL0     H54323  11.600   1.955   2.743 -0.9517 -1.5404 -3.9335
  394MOL0     H54324  11.614   1.751   2.910  1.9317  0.5353  0.1239
  394MOL0     H54325  11.467   1.694   2.836 -0.3306 -0.0454 -0.3208
  394MOL0     H54326  11.588   1.677   2.623  1.7077 -3.6362 -0.9354
  394MOL0     H54327  11.735   1.752   2.699  0.9264 -1.5413 -2.4906
  394MOL0     H54328  11.744   1.522   2.684 -1.4132  3.3236 -1.9271
  394MOL0     H54329  11.749   1.566   2.861 -1.9884 -3.1550  1.9421
  394MOL0     H54330  11.671   1.247   2.700 -0.3118 -0.0070 -0.4574
  394MOL0     H54331  11.577   1.027   2.428 -0.2123 -0.5136  0.1358
  394MOL0     H54332  11.692   1.063   2.550  2.5253  1.8432 -2.1194
  394MOL0     H54333  11.700   1.154   2.399  0.8969 -0.2664 -0.4357
  394MOL0     H54334  11.447   1.058   2.081  0.5746 -0.3128  0.5194
  394MOL0     H54335  11.341   0.933   1.898 -1.4800  1.2531 -3.6461
  394MOL0     H54336  11.002   0.876   1.976  3.0095  0.7059 -0.3766
  394MOL0     H54337  10.884   0.953   1.857 -0.7826 -0.3978 -0.3345
  394MOL0     H54338  10.904   0.699   1.849  1.7816 -1.1451  0.8891
  394MOL0     H54339  10.908   0.803   1.697 -1.7214  1.0855  1.6907
  394MOL0     H54340  11.128   0.670   1.878  1.3824 -2.3619 -0.5668
  394MOL0     H54341  11.176   0.746   1.725  0.0026  0.4251  1.8025
  394MOL0     H54342  11.018   0.601   1.599  2.2746  0.3122 -1.5837
  394MOL0     H54343  11.005   0.512   1.760  0.5021 -0.0297  0.2355
  394MOL0     H54344  11.244   0.463   1.752  0.0205  2.1209 -0.2123
  394MOL0     H54345  11.132   0.399   1.619 -3.0203  1.6935 -0.4293
  394MOL0     H54346  11.317   0.641   1.587 -1.0082  1.5187 -0.0902
  394MOL0     H54347  11.203   0.570   1.475  0.1125  0.3584  0.7150
  394MOL0     H54348  11.399   0.358   1.522 -1.8651 -1.8518 -3.8175
  394MOL0     H54349  11.485   0.495   1.466 -0.5459  2.4744  0.3531
  394MOL0     H54350  11.432   0.389   1.279  1.0568  2.4868 -0.7838
  394MOL0     H54351  11.320   0.519   1.288 -3.2850 -1.6786 -0.4631
  394MOL0     H54352  10.988   1.189   1.949 -0.3989  1.7786  2.0881
  394MOL0     H54353  11.110   1.313   2.118 -2.2799 -0.3718 -1.1203
  394MOL0     H54354  11.321   1.442   2.404 -0.9416  1.8607  1.6131
  394MOL0     H54355  11.399   1.562   2.608  1.2802  2.4617 -2.2924
  394MOL0     H54356  10.811   1.845   1.409  0.7615  0.8647 -1.6349
  394MOL0     H54357  10.773   2.061   1.282 -1.0857 -1.1798 -0.3258
  394MOL0     H54358  10.926   2.508   1.347 -0.6665  0.4895  3.7038
  394MOL0     H54359  10.953   2.755   1.307 -2.4961  1.6921  2.1247
  394MOL0     H54360  10.839   2.974   1.255 -2.0831 -2.5080  0.1767
  394MOL0     H54361  10.994   2.937   1.163  0.0708 -0.3565 -1.1383
  394MOL0     H54362  10.765   3.132   1.098 -0.3995 -0.7271  0.4902
  394MOL0     H54363  10.877   3.089   0.974  0.5554  0.1156 -0.2290
  394MOL0     H54364  10.924   3.319   1.110  1.5887  0.2216 -0.0729
  394MOL0     H54365  10.980   3.216   1.233  0.6815  1.4697  0.2957
  394MOL0     H54366  11.081   3.236   0.931  5.1504 -0.7372 -1.2451
  394MOL0     H54367  11.146   3.136   1.055  1.2217 -0.4119 -4.4940
  394MOL0     H54368  11.299   3.505   1.156  1.0799 -1.2302 -0.0299
  394MOL0     H54369  10.639   2.726   1.008 -0.3519 -1.4052 -0.6835
  394MOL0     H54370  10.558   2.449   0.965 -0.9890  1.7326 -1.5058
  394MOL0     H54371  10.492   2.406   1.127  1.8012 -2.6372 -1.3575
  394MOL0     H54372  10.464   2.566   1.044  0.0302  0.8409  1.7471
  395MOL0     O54373   1.041   6.301   0.640  0.0423  0.9479  0.4193
  395MOL0     C54374   0.932   6.359   0.616 -0.3955  0.2161  0.4136
  395MOL0     O54375   0.921   6.480   0.559 -0.4055  0.8212 -0.5932
  395MOL0     C54376   1.040   6.555   0.557  0.3865 -0.3023  0.4301
  395MOL0     C54377   1.154   6.520   0.488 -0.1089 -0.9744 -0.5459
  395MOL0     C54378   1.266   6.604   0.485  0.5461  0.5468  0.0357
  395MOL0     C54379   1.265   6.727   0.542  1.4160  0.0800  0.2047
  395MOL0     O54380   1.359   6.829   0.545 -1.1870  0.1779 -0.3529
  395MOL0     C54381   1.496   6.796   0.563 -0.7907 -0.2282 -0.1246
  395MOL0     C54382   1.583   6.915   0.551  0.0345 -0.3819  0.4710
  395MOL0     C54383   1.553   7.028   0.653  0.1953  0.7688  0.1062
  395MOL0     C54384   1.575   6.984   0.800 -0.1552  0.3404 -0.9028
  395MOL0     C54385   1.543   7.100   0.904  0.2232 -0.2988  0.2592
  395MOL0     C54386   1.554   7.037   1.046 -0.4214  0.1972 -0.4652
  395MOL0     C54387   1.698   7.001   1.076 -0.0863 -1.1037  0.0709
  395MOL0     C54388   1.733   7.018   1.232  0.8395  0.6051  0.9184
  395MOL0     N54389   1.859   6.949   1.276 -0.1313 -0.0727  0.3980
  395MOL0     C54390   1.887   6.816   1.259  0.1299  0.6380 -1.2163
  395MOL0     C54391   2.006   6.803   1.317  0.3258 -0.3206 -0.2938
  395MOL0     C54392   2.090   6.681   1.356 -0.2973 -1.2042  0.8521
  395MOL0     C54393   2.195   6.717   1.468  0.3004 -0.0495  0.6382
  395MOL0     C54394   2.290   6.592   1.489  0.4969 -0.0172 -0.5391
  395MOL0     C54395   2.416   6.620   1.572  0.4495 -0.5566 -0.7840
  395MOL0     O54396   2.389   6.655   1.707  0.5487 -0.1098 -0.0745
  395MOL0     C54397   2.304   6.571   1.769 -0.1165 -0.3474 -0.3697
  395MOL0     C54398   2.321   6.431   1.766 -0.1410  0.6562 -0.1464
  395MOL0     C54399   2.239   6.342   1.837  0.0520  0.4934  0.5949
  395MOL0     C54400   2.268   6.195   1.825 -0.2668 -0.9496 -0.3321
  395MOL0     C54401   2.134   6.399   1.915 -0.5610  0.6055 -0.3430
  395MOL0     C54402   2.044   6.318   2.002  0.4652  0.7593  0.5152
  395MOL0     O54403   1.992   6.393   2.108 -0.7958 -0.2222 -0.1395
  395MOL0     C54404   1.916   6.334   2.210 -0.1554  0.3160  0.3919
  395MOL0     C54405   1.779   6.326   2.196  0.6783  0.4606  0.3239
  395MOL0     C54406   1.706   6.257   2.293  0.4727  0.5168  0.6627
  395MOL0     C54407   1.766   6.199   2.405 -0.4171 -0.2634 -0.3042
  395MOL0     O54408   1.688   6.126   2.492 -0.4096  0.1530 -0.9439
  395MOL0     C54409   1.758   6.011   2.553 -0.2283  1.0673  0.4046
  395MOL0     C54410   1.649   5.926   2.617  0.9741 -0.3416 -0.1738
  395MOL0     C54411   1.686   5.781   2.619 -0.7641 -0.1297 -0.7317
  395MOL0     C54412   1.573   5.685   2.646  0.0610 -0.2537 -0.1017
  395MOL0     C54413   1.598   5.532   2.653  0.7861  0.4493 -0.2649
  395MOL0     C54414   1.665   5.480   2.779  0.6390  0.1426 -0.2012
  395MOL0     C54415   1.729   5.339   2.757 -0.7177  0.1218 -0.1371
  395MOL0     C54416   1.830   5.297   2.859 -0.2324 -0.0871  0.5563
  395MOL0    Cl54417   1.879   5.118   2.821 -0.1142 -0.1482  0.1716
  395MOL0     C54418   1.904   6.212   2.422  0.0222  0.0766  0.1592
  395MOL0     C54419   1.978   6.274   2.321  0.8037 -0.5324 -0.3464
  395MOL0     O54420   1.996   6.217   1.955 -0.1689 -0.5069 -0.4192
  395MOL0     C54421   2.120   6.542   1.930  0.0510  0.9991  0.5214
  395MOL0     C54422   2.202   6.628   1.858 -0.2971  0.7719  0.4484
  395MOL0     N54423   2.044   6.926   1.372 -0.2994  0.1375 -0.2479
  395MOL0     N54424   1.949   7.011   1.359  0.3093  0.2516 -0.7434
  395MOL0     C54425   1.147   6.764   0.621  0.6655 -0.4250  0.8187
  395MOL0     C54426   1.038   6.676   0.635  0.2084  0.8130 -0.5383
  395MOL0     C54427   0.807   6.277   0.635 -0.0775 -0.4983  1.4997
  395MOL0     C54428   0.822   6.154   0.705 -0.1379 -0.3761  0.4340
  395MOL0     C54429   0.709   6.064   0.699  0.0061 -0.4718 -0.1709
  395MOL0     C54430   0.583   6.095   0.643 -0.4833 -0.1303  0.0606
  395MOL0     O54431   0.486   5.999   0.660 -0.5099 -0.5766  0.3567
  395MOL0     C54432   0.363   6.020   0.609 -0.5664  0.2347  0.4437
  395MOL0     C54433   0.257   5.905   0.610  0.2157 -0.0973 -1.2191
  395MOL0     C54434   0.202   5.884   0.755  0.1767 -0.6850 -0.6444
  395MOL0     C54435   0.296   5.882   0.878 -0.3948 -0.9811 -0.0711
  395MOL0     C54436   0.207   5.914   0.993  0.9390 -0.6594 -0.5608
  395MOL0     C54437   0.149   5.931   1.097 -0.1660  0.2782  0.7908
  395MOL0     C54438   0.572   6.215   0.580  0.3730  0.6369  0.5988
  395MOL0     C54439   0.673   6.312   0.580 -0.0198  0.1203 -0.5531
  395MOL0     C54440   0.636   6.450   0.522  0.1585 -0.0274 -0.8229
  395MOL0     H54441   1.157   6.424   0.436  1.4141 -2.8531  2.6761
  395MOL0     H54442   1.350   6.582   0.420 -1.2981 -0.9948 -1.9617
  395MOL0     H54443   1.527   6.722   0.489 -2.0179 -1.2321  0.3330
  395MOL0     H54444   1.521   6.745   0.656  1.7978 -0.1489 -0.7023
  395MOL0     H54445   1.687   6.889   0.570  0.0222  0.4678  1.8355
  395MOL0     H54446   1.560   6.950   0.450 -0.1435 -2.0543 -0.1087
  395MOL0     H54447   1.623   7.112   0.644  0.5198  0.3984 -0.8853
  395MOL0     H54448   1.456   7.076   0.632 -0.8853 -0.1662  2.5171
  395MOL0     H54449   1.516   6.898   0.832 -0.4198  1.1612  0.9310
  395MOL0     H54450   1.679   6.953   0.815 -0.6259 -2.0793 -2.2098
  395MOL0     H54451   1.444   7.138   0.877  0.8842  1.5407  0.2622
  395MOL0     H54452   1.615   7.182   0.892 -0.4992  0.0147 -2.4434
  395MOL0     H54453   1.513   7.104   1.123  0.2406  2.0343 -1.6548
  395MOL0     H54454   1.498   6.944   1.056  1.4984 -0.9962 -0.3227
  395MOL0     H54455   1.764   7.073   1.026 -0.4338 -1.0293 -0.2820
  395MOL0     H54456   1.715   6.897   1.048 -1.9178 -1.4334  0.0564
  395MOL0     H54457   1.736   7.122   1.267 -3.2414  1.3513 -0.3936
  395MOL0     H54458   1.652   6.981   1.296  2.1195 -1.7402  1.2872
  395MOL0     H54459   1.836   6.736   1.207  0.1824  1.2843 -2.2895
  395MOL0     H54460   2.142   6.651   1.264 -1.1048 -0.7106  0.2209
  395MOL0     H54461   2.024   6.600   1.389 -1.2560 -0.0093  1.9982
  395MOL0     H54462   2.258   6.804   1.446  1.4355 -0.3701  2.3923
  395MOL0     H54463   2.155   6.737   1.568  3.9666  1.0361  2.0498
  395MOL0     H54464   2.234   6.512   1.536  0.0055  0.6787  0.0867
  395MOL0     H54465   2.327   6.549   1.395 -0.7152 -1.1036 -0.5404
  395MOL0     H54466   2.477   6.530   1.569  3.0120  1.1102 -2.3525
  395MOL0     H54467   2.485   6.693   1.527  0.9230 -0.5765 -0.1032
  395MOL0     H54468   2.393   6.373   1.710 -2.1271 -1.5285 -0.6098
  395MOL0     H54469   2.209   6.152   1.743 -0.6524 -3.6867  1.2784
  395MOL0     H54470   2.236   6.140   1.913 -0.2195 -1.7572 -0.8107
  395MOL0     H54471   2.375   6.194   1.804  0.8464  2.5183  3.7746
  395MOL0     H54472   1.725   6.381   2.119 -1.0978 -1.7194 -0.0815
  395MOL0     H54473   1.603   6.226   2.279  0.8123 -1.9021  2.7401
  395MOL0     H54474   1.811   5.956   2.475 -1.8847  0.7860 -0.5513
  395MOL0     H54475   1.837   6.034   2.626  0.1407 -0.4044  0.5012
  395MOL0     H54476   1.624   5.964   2.716  0.6304  0.3734 -0.5263
  395MOL0     H54477   1.552   5.936   2.568  1.4007 -0.2610 -1.0324
  395MOL0     H54478   1.759   5.768   2.700 -1.8541 -0.3188  0.2626
  395MOL0     H54479   1.721   5.749   2.521 -1.8373 -2.8858 -0.2961
  395MOL0     H54480   1.504   5.685   2.561  1.1700 -3.2682 -1.1143
  395MOL0     H54481   1.517   5.714   2.735 -1.8674 -0.9144 -1.0375
  395MOL0     H54482   1.501   5.484   2.640 -1.2762  4.0979  0.2063
  395MOL0     H54483   1.648   5.507   2.559  0.9545  0.8932 -0.3008
  395MOL0     H54484   1.595   5.484   2.862  0.6817  1.4288 -0.1986
  395MOL0     H54485   1.746   5.552   2.794  0.3582  0.8632 -1.9116
  395MOL0     H54486   1.777   5.341   2.658  3.2687 -3.5676  1.4129
  395MOL0     H54487   1.647   5.266   2.755 -0.3941 -0.2516 -1.8869
  395MOL0     H54488   1.796   5.291   2.963 -0.0721 -0.5481  0.5855
  395MOL0     H54489   1.911   5.371   2.854  1.0637 -1.4797  0.3291
  395MOL0     H54490   1.964   6.157   2.494  0.2850 -2.0250 -1.5514
  395MOL0     H54491   2.083   6.293   2.342  0.6167  0.8244 -0.5469
  395MOL0     H54492   2.042   6.591   1.988  2.9727  3.2438  2.8743
  395MOL0     H54493   2.187   6.735   1.862  0.4324  0.8716  0.6042
  395MOL0     H54494   1.140   6.856   0.678  0.2017 -0.6241  1.0872
  395MOL0     H54495   0.954   6.683   0.705  2.1108 -0.3291  2.0384
  395MOL0     H54496   0.913   6.111   0.745 -0.2248 -1.4287 -0.4317
  395MOL0     H54497   0.729   5.963   0.731 -0.7532  0.4734  3.7621
  395MOL0     H54498   0.315   6.105   0.657 -4.4799 -0.2675 -2.0759
  395MOL0     H54499   0.380   6.052   0.506 -1.9591 -0.2407  0.0491
  395MOL0     H54500   0.306   5.815   0.570 -2.1994 -1.4683 -1.3508
  395MOL0     H54501   0.167   5.922   0.549  0.1784  0.2139 -1.0786
  395MOL0     H54502   0.114   5.945   0.773 -0.7918 -1.9306 -0.9903
  395MOL0     H54503   0.172   5.779   0.745  2.1288 -1.0857 -5.0255
  395MOL0     H54504   0.366   5.966   0.871 -2.3880  0.8063  0.6352
  395MOL0     H54505   0.347   5.785   0.883 -2.0490 -1.9431 -1.0335
  395MOL0     H54506   0.114   5.947   1.197 -2.6145 -2.6463  0.5501
  395MOL0     H54507   0.476   6.251   0.542  0.5874 -1.9218 -2.7903
  395MOL0     H54508   0.692   6.526   0.577 -0.1208  0.8729 -1.7364
  395MOL0     H54509   0.668   6.449   0.417 -0.0052 -2.1352 -0.8872
  395MOL0     H54510   0.528   6.470   0.531  0.7347  2.3598  2.3832
  396MOL0     O54511   0.345   9.920   0.451  0.0410  0.1459  0.2551
  396MOL0     C54512   0.396   9.989   0.542 -1.0517  0.4806  0.9250
  396MOL0     O54513   0.527   9.961   0.601  0.0285 -0.2362  0.4210
  396MOL0     C54514   0.617   9.880   0.536 -0.5157 -1.4709 -0.0663
  396MOL0     C54515   0.710   9.807   0.608 -0.3093 -0.3801 -0.7897
  396MOL0     C54516   0.801   9.721   0.556 -0.4544 -0.1750 -0.3540
  396MOL0     C54517   0.806   9.722   0.419 -0.4459  1.7982 -1.0253
  396MOL0     O54518   0.897   9.655   0.341 -0.6559 -0.0627 -0.3775
  396MOL0     C54519   1.015   9.607   0.407 -0.6589  0.8435  0.1861
  396MOL0     C54520   1.106   9.590   0.278  0.1774  0.2384  0.3355
  396MOL0     C54521   1.217   9.702   0.281  0.3478  0.6717 -0.0071
  396MOL0     C54522   1.142   9.822   0.219  0.1651 -0.1754  0.7231
  396MOL0     C54523   1.144   9.930   0.332 -0.8951  0.3072 -0.5565
  396MOL0     C54524   1.057  10.052   0.300 -0.6854  0.8011 -0.5163
  396MOL0     C54525   1.039  10.152   0.406  0.6522  0.1464  0.0790
  396MOL0     C54526   0.981  10.082   0.533  0.3215  0.8743 -0.0078
  396MOL0     N54527   0.913  10.176   0.626  0.4716  0.3844  1.1149
  396MOL0     C54528   0.958  10.291   0.681 -0.8188 -0.6263 -0.8054
  396MOL0     C54529   0.848  10.348   0.745  0.2282  0.0977  0.6857
  396MOL0     C54530   0.844  10.471   0.820 -0.3182 -0.2965 -0.3684
  396MOL0     C54531   0.814  10.439   0.970 -0.3340  0.3069 -0.0415
  396MOL0     C54532   0.756  10.554   1.062 -1.3725  0.5975  0.5833
  396MOL0     C54533   0.736  10.530   1.214 -1.0449  1.1810 -0.0581
  396MOL0     O54534   0.619  10.465   1.243  0.7870  0.0587 -0.5766
  396MOL0     C54535   0.525  10.547   1.301  1.0323 -0.3845 -0.6755
  396MOL0     C54536   0.480  10.502   1.426  0.0587 -0.1292 -0.3984
  396MOL0     C54537   0.384  10.569   1.495  0.8052  0.8039  0.3299
  396MOL0     C54538   0.327  10.489   1.611  0.1210 -0.9542  0.1925
  396MOL0     C54539   0.331  10.690   1.437  0.0583  0.9209 -0.3460
  396MOL0     C54540   0.233  10.764   1.513 -0.5502 -1.6033  0.2009
  396MOL0     O54541   0.220  10.897   1.479  0.7570 -0.4211  0.0546
  396MOL0     C54542   0.120  10.968   1.541  0.1106 -0.1355  0.1749
  396MOL0     C54543   0.003  11.000   1.468  0.1286 -0.8998  0.3818
  396MOL0     C54544  -0.103  11.079   1.520 -0.4858  0.0185 -0.6924
  396MOL0     C54545  -0.083  11.127   1.656 -0.4864  0.5220 -0.0440
  396MOL0     O54546  -0.178  11.198   1.721  0.3988  0.9287 -0.0024
  396MOL0     C54547  -0.264  11.132   1.821  0.4926 -0.2836  0.3942
  396MOL0     C54548  -0.365  11.028   1.764 -0.0559 -0.2571  0.5286
  396MOL0     C54549  -0.482  10.998   1.874  0.1358  1.0885 -0.3506
  396MOL0     C54550  -0.586  10.885   1.824  0.0879 -0.3786  0.2234
  396MOL0     C54551  -0.693  10.867   1.931  0.1035 -0.0477 -0.7519
  396MOL0     C54552  -0.805  10.766   1.915  0.3272  0.6711 -0.4129
  396MOL0     C54553  -0.897  10.781   2.026 -0.0374  0.3174 -0.6552
  396MOL0     C54554  -1.020  10.683   2.002  0.2692  0.0699 -0.4497
  396MOL0    Cl54555  -1.124  10.673   2.146 -0.2980 -0.0037  0.1185
  396MOL0     C54556   0.028  11.088   1.730  1.1364  0.1186  0.8428
  396MOL0     C54557   0.131  11.017   1.670  0.1138  0.6329  0.5200
  396MOL0     O54558   0.151  10.707   1.584 -0.4495 -0.1930 -0.1349
  396MOL0     C54559   0.381  10.737   1.311 -0.1658  0.2946  0.1277
  396MOL0     C54560   0.474  10.661   1.241 -0.3732 -0.0622  0.0448
  396MOL0     N54561   0.741  10.266   0.705 -0.0838 -0.1392  0.0799
  396MOL0     N54562   0.779  10.173   0.636  0.6717  0.1765  0.5511
  396MOL0     C54563   0.716   9.787   0.340 -0.4318  0.2257 -0.1345
  396MOL0     C54564   0.622   9.864   0.402 -0.2451 -0.3979  0.4403
  396MOL0     C54565   0.336  10.119   0.587  0.0529  0.1192 -0.4537
  396MOL0     C54566   0.403  10.186   0.689 -0.0136 -0.5370  1.2285
  396MOL0     C54567   0.352  10.299   0.752 -0.4914  0.2601 -1.0315
  396MOL0     C54568   0.241  10.360   0.709  0.3149 -0.3633 -0.0576
  396MOL0     O54569   0.205  10.475   0.779  0.5627 -0.3525 -0.3024
  396MOL0     C54570   0.122  10.574   0.725 -0.5969 -0.8216  0.2940
  396MOL0     C54571   0.061  10.655   0.840  0.0516 -0.8283  0.9438
  396MOL0     C54572   0.157  10.741   0.928  1.4048  0.2297  0.0529
  396MOL0     C54573   0.192  10.879   0.883  0.1947 -0.5973  0.6414
  396MOL0     C54574   0.242  10.973   0.982 -0.0133  1.2948 -0.1058
  396MOL0     C54575   0.299  11.054   1.051 -0.1181 -0.8821  1.2577
  396MOL0     C54576   0.167  10.298   0.616 -0.2076 -0.3514  0.8422
  396MOL0     C54577   0.211  10.174   0.556 -0.3511 -0.3438  0.9576
  396MOL0     C54578   0.131  10.115   0.439  0.2850 -0.4779 -0.7370
  396MOL0     H54579   0.702   9.819   0.715  0.0028 -1.1245 -0.6750
  396MOL0     H54580   0.867   9.664   0.620 -1.5222  1.1298  2.0554
  396MOL0     H54581   1.006   9.506   0.449  0.1091 -0.6947 -3.0293
  396MOL0     H54582   1.065   9.673   0.479  0.0580 -0.7670  1.2166
  396MOL0     H54583   1.164   9.498   0.297 -1.5431 -1.3239 -1.5383
  396MOL0     H54584   1.056   9.584   0.181  1.8266  3.3367 -0.8455
  396MOL0     H54585   1.252   9.719   0.384  0.7255  1.4407 -0.2496
  396MOL0     H54586   1.300   9.683   0.212  0.0334 -0.9365  0.0359
  396MOL0     H54587   1.201   9.853   0.132  0.1950 -1.1921  0.3681
  396MOL0     H54588   1.037   9.808   0.194 -0.4883  3.9490  0.4348
  396MOL0     H54589   1.245   9.967   0.352 -0.8641  1.1058 -2.0472
  396MOL0     H54590   1.109   9.885   0.425  0.5818  2.7612  1.3125
  396MOL0     H54591   1.093  10.099   0.208 -0.8157  0.0548 -0.9524
  396MOL0     H54592   0.958  10.010   0.278  0.0093 -0.4172 -1.4452
  396MOL0     H54593   0.966  10.228   0.377 -1.5248 -1.3533  1.3945
  396MOL0     H54594   1.132  10.207   0.426  0.7932  1.1554 -2.9059
  396MOL0     H54595   0.921   9.998   0.498 -1.4959  1.2331  1.9936
  396MOL0     H54596   1.066  10.049   0.592 -1.6267 -6.1486 -0.3142
  396MOL0     H54597   1.062  10.323   0.678 -0.8657 -0.1943  1.1288
  396MOL0     H54598   0.765  10.531   0.775  1.4854  1.3250 -1.5437
  396MOL0     H54599   0.941  10.520   0.806  0.4207 -1.1809  1.3594
  396MOL0     H54600   0.744  10.355   0.971  0.0149  0.0006  1.8446
  396MOL0     H54601   0.902  10.402   1.024 -2.6746 -1.1031  3.0828
  396MOL0     H54602   0.827  10.635   1.044 -1.5767  0.1011 -3.2508
  396MOL0     H54603   0.664  10.593   1.017 -0.6843  2.8996  1.0135
  396MOL0     H54604   0.816  10.459   1.234 -2.6228 -2.1633 -4.0581
  396MOL0     H54605   0.756  10.622   1.270  1.9557  0.0133  0.9681
  396MOL0     H54606   0.529  10.415   1.468 -0.1375  0.2014  0.5356
  396MOL0     H54607   0.403  10.418   1.645  2.9456  1.0591 -1.4944
  396MOL0     H54608   0.230  10.442   1.593  1.5286 -3.8026 -0.4533
  396MOL0     H54609   0.328  10.567   1.689  0.0669 -2.5257  1.8337
  396MOL0     H54610  -0.007  10.951   1.372  1.8572 -1.1728  0.2950
  396MOL0     H54611  -0.191  11.111   1.464 -1.6782 -0.5543  0.7649
  396MOL0     H54612  -0.192  11.088   1.891  0.9032  1.5355  1.1792
  396MOL0     H54613  -0.327  11.207   1.870 -0.5601 -0.2037 -0.9941
  396MOL0     H54614  -0.412  11.063   1.671 -0.6455 -3.2541 -0.4214
  396MOL0     H54615  -0.314  10.938   1.729  2.2050  1.2359 -0.2232
  396MOL0     H54616  -0.538  11.089   1.897  1.8835  2.4758 -1.2943
  396MOL0     H54617  -0.433  10.961   1.965 -0.1780  0.3966 -0.4509
  396MOL0     H54618  -0.532  10.792   1.808  1.0477  0.2765 -0.4054
  396MOL0     H54619  -0.629  10.919   1.729 -0.3541  0.4220  0.6938
  396MOL0     H54620  -0.634  10.838   2.018 -1.8312  0.3288  0.7334
  396MOL0     H54621  -0.736  10.966   1.947  0.5140  0.0014  0.1023
  396MOL0     H54622  -0.744  10.677   1.903  1.9939  1.9049 -1.5191
  396MOL0     H54623  -0.859  10.773   1.820  0.9666  0.0105 -0.8326
  396MOL0     H54624  -0.924  10.887   2.032 -1.5036  0.0016 -1.2707
  396MOL0     H54625  -0.850  10.763   2.123  3.6858  1.5260 -2.0709
  396MOL0     H54626  -0.983  10.582   1.984 -0.9188 -1.3869  4.0732
  396MOL0     H54627  -1.079  10.716   1.916 -0.6243  0.9122  0.4470
  396MOL0     H54628   0.027  11.118   1.834 -3.2616 -2.1803  1.7128
  396MOL0     H54629   0.219  10.997   1.731  0.6113  0.3050 -0.2904
  396MOL0     H54630   0.345  10.829   1.267  0.4168 -0.2451 -1.5994
  396MOL0     H54631   0.513  10.691   1.145  1.7249 -1.6570  0.3195
  396MOL0     H54632   0.722   9.765   0.234  2.9388  0.2840 -0.0587
  396MOL0     H54633   0.546   9.911   0.340 -0.6455 -1.1562  0.3381
  396MOL0     H54634   0.509  10.184   0.713 -0.0359  2.5924  2.0435
  396MOL0     H54635   0.400  10.349   0.836 -0.8989 -0.6062 -0.2632
  396MOL0     H54636   0.171  10.634   0.649 -2.4874 -2.1935 -2.1747
  396MOL0     H54637   0.048  10.519   0.666  0.6918 -1.4527 -0.7681
  396MOL0     H54638   0.021  10.583   0.912  0.2554 -1.8280  0.0729
  396MOL0     H54639  -0.024  10.709   0.798  2.0305  1.3320 -0.5687
  396MOL0     H54640   0.109  10.737   1.026  0.0826 -1.0756 -0.6122
  396MOL0     H54641   0.243  10.673   0.934 -1.0651 -3.2681 -1.3044
  396MOL0     H54642   0.101  10.935   0.858  1.2836  2.1622  2.5018
  396MOL0     H54643   0.256  10.864   0.795 -1.6149  1.3335 -1.1242
  396MOL0     H54644   0.357  11.132   1.097 -0.1715 -0.3250  0.4061
  396MOL0     H54645   0.072  10.340   0.585 -0.4792 -0.0473  2.0232
  396MOL0     H54646   0.029  10.154   0.446 -0.7761 -3.2442  0.5227
  396MOL0     H54647   0.176  10.137   0.341 -0.9697  1.3186 -0.9558
  396MOL0     H54648   0.109  10.010   0.458  0.3712 -0.3691 -0.0187
  397MOL0     O54649   7.716   5.917   6.159 -0.7938 -0.2255 -0.4435
  397MOL0     C54650   7.690   5.818   6.092  0.5312  0.5107 -0.0828
  397MOL0     O54651   7.744   5.690   6.097 -0.0224  0.5693 -0.2551
  397MOL0     C54652   7.844   5.661   6.192 -0.1098 -0.0167 -0.3285
  397MOL0     C54653   7.852   5.534   6.248 -0.3754  0.1977  1.2025
  397MOL0     C54654   7.941   5.496   6.349 -0.7732  0.9054  0.3016
  397MOL0     C54655   8.040   5.588   6.384  0.5648 -0.3110  0.4464
  397MOL0     O54656   8.139   5.570   6.479 -0.3577  0.5169 -0.0448
  397MOL0     C54657   8.102   5.494   6.597 -0.2564 -0.0476  0.4167
  397MOL0     C54658   8.181   5.542   6.723 -0.0344 -0.0407  1.2152
  397MOL0     C54659   8.163   5.436   6.837  0.8192 -0.2812 -0.4405
  397MOL0     C54660   8.226   5.467   6.976 -0.7401  0.7810 -0.4529
  397MOL0     C54661   8.139   5.553   7.070  0.1700 -0.0463 -0.3763
  397MOL0     C54662   8.192   5.553   7.215 -0.0119 -0.3761 -0.0447
  397MOL0     C54663   8.334   5.606   7.232  0.8982 -0.6631 -0.9840
  397MOL0     C54664   8.363   5.746   7.183 -0.6972  0.6373 -0.1007
  397MOL0     N54665   8.329   5.860   7.262  0.5812  0.9657 -0.8462
  397MOL0     C54666   8.229   5.945   7.235 -0.3049 -0.0281  0.0014
  397MOL0     C54667   8.238   6.038   7.328 -0.5095  0.0925  0.1542
  397MOL0     C54668   8.143   6.160   7.332 -0.0743 -0.3149 -0.2087
  397MOL0     C54669   8.104   6.215   7.196 -0.1633 -0.2951  0.2490
  397MOL0     C54670   8.054   6.356   7.188 -0.4878  0.2083 -0.4049
  397MOL0     C54671   8.024   6.398   7.040  0.4156 -0.1621  0.5725
  397MOL0     O54672   7.999   6.539   7.045 -0.3982  0.2456 -0.2364
  397MOL0     C54673   8.072   6.620   6.973  0.6790 -1.4235 -0.9837
  397MOL0     C54674   8.154   6.596   6.863 -0.2921  0.7885 -0.2080
  397MOL0     C54675   8.218   6.709   6.803 -0.6324  0.4710  0.1443
  397MOL0     C54676   8.304   6.666   6.689 -0.1995 -0.6021  0.3604
  397MOL0     C54677   8.191   6.838   6.842 -0.2130 -0.2856 -0.4153
  397MOL0     C54678   8.254   6.951   6.765  0.9609  0.2548 -0.2704
  397MOL0     O54679   8.299   6.925   6.635 -0.4177  0.8411 -0.6357
  397MOL0     C54680   8.306   7.028   6.543  0.0038  0.4467  0.9458
  397MOL0     C54681   8.386   7.146   6.568  0.5770  0.7455 -1.0989
  397MOL0     C54682   8.407   7.241   6.460  0.1910 -0.3453 -0.2018
  397MOL0     C54683   8.352   7.222   6.336 -0.1541 -0.6295  0.4207
  397MOL0     O54684   8.353   7.330   6.249 -0.6178  0.0822  0.8315
  397MOL0     C54685   8.359   7.290   6.112 -0.3214 -1.0072 -0.2822
  397MOL0     C54686   8.432   7.406   6.036 -0.7847 -0.5592 -0.6767
  397MOL0     C54687   8.365   7.537   6.045  0.0062 -0.9737 -0.1462
  397MOL0     C54688   8.373   7.612   6.179 -0.2978  0.3956 -0.2842
  397MOL0     C54689   8.343   7.764   6.157  0.1830  0.4425 -0.2131
  397MOL0     C54690   8.323   7.854   6.279 -0.7836  1.0364  0.0451
  397MOL0     C54691   8.451   7.851   6.371  0.3616 -0.2709 -0.0346
  397MOL0     C54692   8.561   7.958   6.342 -0.0868 -0.1971 -0.1754
  397MOL0    Cl54693   8.499   8.109   6.411 -0.3832 -0.2532  0.2446
  397MOL0     C54694   8.272   7.115   6.318 -0.6446  1.2066 -0.7085
  397MOL0     C54695   8.247   7.017   6.419  0.5940  0.5373 -0.1661
  397MOL0     O54696   8.261   7.063   6.823  0.5064  0.6257  0.3665
  397MOL0     C54697   8.099   6.857   6.945  0.8520 -0.8151 -0.9916
  397MOL0     C54698   8.035   6.751   7.005  0.4951 -0.0516  0.2936
  397MOL0     N54699   8.347   6.011   7.410 -0.3469  0.5581 -0.4181
  397MOL0     N54700   8.393   5.893   7.371 -0.2669 -0.5812 -0.4763
  397MOL0     C54701   8.039   5.709   6.324  0.3182 -0.4189 -0.0444
  397MOL0     C54702   7.948   5.747   6.230  0.1096  0.8193  0.5010
  397MOL0     C54703   7.580   5.827   5.994  0.6078 -0.2399 -0.6368
  397MOL0     C54704   7.589   5.930   5.896 -0.6127 -0.4390 -0.0651
  397MOL0     C54705   7.487   5.953   5.803  0.0591 -0.1191  0.0053
  397MOL0     C54706   7.388   5.855   5.789 -0.2883 -0.5859  0.2464
  397MOL0     O54707   7.287   5.857   5.694 -0.0579  0.3164  0.2201
  397MOL0     C54708   7.185   5.945   5.726  0.9763  0.0471  0.0083
  397MOL0     C54709   7.124   5.943   5.868 -0.2629 -0.5047 -0.2371
  397MOL0     C54710   7.022   5.821   5.884 -0.6848  0.7884  1.1292
  397MOL0     C54711   6.879   5.857   5.845 -0.4967 -0.0226 -0.3285
  397MOL0     C54712   6.847   5.804   5.714 -0.0634 -0.1390  0.3252
  397MOL0     C54713   6.833   5.765   5.603  1.3515  0.1047  0.1168
  397MOL0     C54714   7.392   5.741   5.872 -0.2845 -0.7452 -0.7524
  397MOL0     C54715   7.472   5.738   5.979  0.7237  1.1389  0.1959
  397MOL0     C54716   7.455   5.635   6.091 -0.7579 -0.4306  0.1145
  397MOL0     H54717   7.780   5.464   6.208  1.8794  0.1700 -3.5342
  397MOL0     H54718   7.945   5.393   6.384 -1.1448  0.5531 -0.6448
  397MOL0     H54719   8.134   5.393   6.572  0.5239 -0.0145  1.2558
  397MOL0     H54720   7.997   5.506   6.627  0.0110 -2.9468  3.0126
  397MOL0     H54721   8.282   5.577   6.699 -0.9602  2.3849  0.6098
  397MOL0     H54722   8.137   5.637   6.754  2.6784  1.0982  1.8734
  397MOL0     H54723   8.060   5.402   6.844  0.4825  0.7519 -0.1937
  397MOL0     H54724   8.218   5.351   6.796  0.5965  1.2306 -4.3103
  397MOL0     H54725   8.238   5.367   7.020  0.0290  0.4687 -1.3625
  397MOL0     H54726   8.326   5.510   6.968 -1.5101  2.2607 -3.8251
  397MOL0     H54727   8.036   5.521   7.053  0.5050 -2.0241  0.9822
  397MOL0     H54728   8.157   5.656   7.040  1.1176 -0.3262 -0.8242
  397MOL0     H54729   8.141   5.619   7.285  1.0485 -1.1807  1.5732
  397MOL0     H54730   8.195   5.450   7.253 -0.2302 -0.4540 -0.2371
  397MOL0     H54731   8.401   5.538   7.180 -0.1423 -3.1818  0.7985
  397MOL0     H54732   8.345   5.610   7.341 -1.9446  1.2697 -0.6486
  397MOL0     H54733   8.469   5.745   7.159 -0.7106 -2.3331 -0.4079
  397MOL0     H54734   8.326   5.763   7.082 -2.3196  1.4647  0.5765
  397MOL0     H54735   8.155   5.938   7.155  1.0346 -3.0248 -1.1277
  397MOL0     H54736   8.199   6.236   7.388 -0.0266  0.7658 -1.6447
  397MOL0     H54737   8.050   6.131   7.381 -1.4716  0.4897 -2.2261
  397MOL0     H54738   8.190   6.206   7.129 -0.5364 -3.6002  0.0352
  397MOL0     H54739   8.025   6.159   7.145  0.7082 -1.7265  0.4197
  397MOL0     H54740   7.968   6.373   7.254 -1.5079  0.2388 -1.7145
  397MOL0     H54741   8.139   6.413   7.228  0.9596  0.0663 -3.0242
  397MOL0     H54742   8.107   6.365   6.976 -0.7324 -1.3003 -0.3632
  397MOL0     H54743   7.935   6.346   7.006 -0.6638 -1.2630  4.5855
  397MOL0     H54744   8.166   6.493   6.830 -5.6776 -0.3440  0.4265
  397MOL0     H54745   8.400   6.718   6.695 -0.0906 -0.5887 -1.1677
  397MOL0     H54746   8.268   6.690   6.589 -3.2582  0.8217  1.6733
  397MOL0     H54747   8.328   6.559   6.689 -3.0593 -1.3705 -1.7193
  397MOL0     H54748   8.432   7.148   6.667 -0.9006  2.1194 -0.3995
  397MOL0     H54749   8.478   7.321   6.479 -0.2531 -0.2692  1.2731
  397MOL0     H54750   8.419   7.200   6.095  0.9842 -0.5017  1.3535
  397MOL0     H54751   8.258   7.264   6.079  0.1294 -2.5115 -0.5495
  397MOL0     H54752   8.537   7.421   6.063 -0.5403 -1.3497 -1.1430
  397MOL0     H54753   8.427   7.379   5.930 -2.0940  1.2748 -1.1217
  397MOL0     H54754   8.261   7.520   6.015 -0.6552 -0.8787  1.9145
  397MOL0     H54755   8.424   7.608   5.987  1.0255  1.4624  3.5094
  397MOL0     H54756   8.470   7.602   6.228  0.6428  2.2399 -1.6325
  397MOL0     H54757   8.301   7.565   6.247 -0.9394  2.0460  0.2322
  397MOL0     H54758   8.410   7.808   6.082 -1.0596  1.8872 -0.5162
  397MOL0     H54759   8.247   7.762   6.104 -0.2328 -2.3849  0.4970
  397MOL0     H54760   8.238   7.822   6.338 -1.2206  2.0589 -0.0082
  397MOL0     H54761   8.290   7.955   6.254 -1.8469  0.6950  0.0216
  397MOL0     H54762   8.481   7.746   6.372 -2.6921 -1.2824 -0.9018
  397MOL0     H54763   8.410   7.864   6.472  1.1412  0.3069  0.2191
  397MOL0     H54764   8.562   7.965   6.233  1.0706  2.6470 -0.0668
  397MOL0     H54765   8.657   7.922   6.380  0.3779  0.6075 -0.5683
  397MOL0     H54766   8.223   7.100   6.223 -1.1957  0.8759 -0.3754
  397MOL0     H54767   8.174   6.941   6.394 -1.1449  2.9122 -2.9498
  397MOL0     H54768   8.089   6.958   6.984  2.0598 -2.2563  3.6878
  397MOL0     H54769   7.961   6.765   7.083  0.2477  1.5498 -0.1888
  397MOL0     H54770   8.131   5.764   6.339 -0.1891  0.7809 -1.1592
  397MOL0     H54771   7.963   5.824   6.155 -3.2856 -0.9282 -2.2963
  397MOL0     H54772   7.654   6.017   5.902  1.8517 -2.2187  0.8994
  397MOL0     H54773   7.484   6.043   5.743 -1.9435 -1.2374 -1.7387
  397MOL0     H54774   7.227   6.041   5.695  1.6833 -1.2520 -3.6281
  397MOL0     H54775   7.092   5.930   5.671 -0.2322 -3.0895  2.5397
  397MOL0     H54776   7.075   6.040   5.880 -0.2064 -0.6418  1.3347
  397MOL0     H54777   7.204   5.939   5.943 -0.5245 -2.3435  0.0008
  397MOL0     H54778   7.064   5.741   5.822  0.8892  0.3575  2.6857
  397MOL0     H54779   7.022   5.802   5.992  3.6496 -0.1643  1.1687
  397MOL0     H54780   6.876   5.966   5.853  1.2877  0.0498 -0.3793
  397MOL0     H54781   6.823   5.809   5.926  1.4299  0.7132  1.5253
  397MOL0     H54782   6.823   5.729   5.503 -1.0570 -1.2111  0.7730
  397MOL0     H54783   7.321   5.661   5.859  1.4127 -2.0596 -2.6117
  397MOL0     H54784   7.358   5.585   6.094  0.1976 -2.5104 -0.8161
  397MOL0     H54785   7.509   5.542   6.068 -1.0514 -0.5355 -0.1601
  397MOL0     H54786   7.481   5.681   6.186  0.9938  0.4728 -0.7491
  398MOL0     O54787   3.018   2.339   2.197 -0.2198 -0.2512 -0.6411
  398MOL0     C54788   2.895   2.341   2.183  0.3613 -0.0460 -0.6575
  398MOL0     O54789   2.827   2.252   2.111 -0.5036 -0.1893  0.2837
  398MOL0     C54790   2.893   2.138   2.054  0.4390 -0.0110 -0.0342
  398MOL0     C54791   2.961   2.156   1.936 -0.9786  0.6253  0.4184
  398MOL0     C54792   3.001   2.045   1.863 -0.8027  0.5297 -0.7739
  398MOL0     C54793   2.984   1.909   1.915  0.7103 -0.8546  0.0066
  398MOL0     O54794   3.037   1.798   1.843 -0.1562  0.9911  0.7137
  398MOL0     C54795   3.111   1.826   1.718 -0.1593  0.1156 -1.1753
  398MOL0     C54796   3.192   1.694   1.697 -0.7920  0.0544 -0.5662
  398MOL0     C54797   3.287   1.655   1.813 -0.0980 -0.5585 -0.5539
  398MOL0     C54798   3.400   1.547   1.793  0.1825  0.4197 -0.1540
  398MOL0     C54799   3.485   1.540   1.913  0.6962 -0.0405  0.3324
  398MOL0     C54800   3.626   1.480   1.896  0.1174 -1.0935 -0.1956
  398MOL0     C54801   3.691   1.446   2.035 -0.3549  0.4744 -1.2144
  398MOL0     C54802   3.734   1.553   2.140 -0.5221 -0.1340 -0.3360
  398MOL0     N54803   3.836   1.638   2.090 -0.4958 -1.0035  0.1684
  398MOL0     C54804   3.845   1.724   1.981  0.3159 -0.1171 -0.1814
  398MOL0     C54805   3.947   1.802   1.996 -0.1448 -1.1403 -0.1342
  398MOL0     C54806   4.001   1.892   1.882  0.8292  0.3175 -0.5252
  398MOL0     C54807   3.968   2.037   1.917 -0.4256  0.1208 -0.2655
  398MOL0     C54808   4.040   2.096   2.035 -0.4982 -0.6556 -0.1409
  398MOL0     C54809   4.194   2.075   2.022  1.0820 -0.5057 -0.4285
  398MOL0     O54810   4.254   2.162   2.120 -0.3574  0.4310 -0.4289
  398MOL0     C54811   4.259   2.299   2.111 -0.2488 -0.3683 -1.2885
  398MOL0     C54812   4.264   2.371   1.993 -0.5207  0.7994  0.3844
  398MOL0     C54813   4.278   2.510   1.985  0.2027 -0.2288 -0.5421
  398MOL0     C54814   4.280   2.565   1.844 -0.3313 -0.3787 -0.0053
  398MOL0     C54815   4.306   2.584   2.107  1.0565 -0.1286 -0.2252
  398MOL0     C54816   4.317   2.734   2.112 -0.2133  0.1697  0.7598
  398MOL0     O54817   4.307   2.789   2.232  0.5275  0.3447 -1.0368
  398MOL0     C54818   4.293   2.927   2.242 -0.5319 -0.5872  0.9450
  398MOL0     C54819   4.348   2.997   2.342 -0.4744  0.0294  0.1612
  398MOL0     C54820   4.305   3.134   2.375  0.6527  0.6953  0.0803
  398MOL0     C54821   4.220   3.202   2.291 -0.1251 -0.4068  0.1504
  398MOL0     O54822   4.195   3.337   2.313 -0.9081  0.3231  0.2063
  398MOL0     C54823   4.095   3.413   2.242 -0.0714  0.7581  0.0046
  398MOL0     C54824   3.953   3.374   2.285 -0.3812 -0.1781 -0.1946
  398MOL0     C54825   3.840   3.464   2.217 -0.6879  0.5547 -0.6113
  398MOL0     C54826   3.726   3.490   2.319  0.6424  0.6239 -0.0926
  398MOL0     C54827   3.757   3.606   2.409 -0.2621 -0.5602 -0.3803
  398MOL0     C54828   3.616   3.649   2.462  0.5224 -1.1439 -0.6737
  398MOL0     C54829   3.626   3.772   2.563 -1.0911  0.4853  0.9370
  398MOL0     C54830   3.504   3.813   2.626  1.0188  0.2630 -0.2413
  398MOL0    Cl54831   3.432   3.956   2.535 -0.0798  0.2000 -0.3871
  398MOL0     C54832   4.171   3.130   2.179  0.7777  0.4419  0.6759
  398MOL0     C54833   4.205   2.997   2.156  0.0352 -0.6077 -0.3136
  398MOL0     O54834   4.336   2.789   2.004 -0.3593 -0.0715  0.4445
  398MOL0     C54835   4.307   2.516   2.227 -0.4250  0.1989 -0.8985
  398MOL0     C54836   4.277   2.372   2.232 -0.1165  0.0058  1.3630
  398MOL0     N54837   4.012   1.773   2.124 -0.2099 -0.2294  0.5153
  398MOL0     N54838   3.935   1.681   2.172  0.1852 -0.3860  0.5043
  398MOL0     C54839   2.924   1.891   2.042  0.0858  0.0636  0.2876
  398MOL0     C54840   2.883   2.006   2.117 -0.0536  0.3824  0.5576
  398MOL0     C54841   2.812   2.435   2.265  0.4491 -0.1577  1.5340
  398MOL0     C54842   2.876   2.538   2.328 -0.4272 -0.3303 -0.1697
  398MOL0     C54843   2.814   2.628   2.412 -0.3324 -0.4832 -0.4704
  398MOL0     C54844   2.674   2.613   2.436  0.1187  0.0559  0.4823
  398MOL0     O54845   2.602   2.704   2.509 -0.4255 -1.2707  0.6582
  398MOL0     C54846   2.676   2.797   2.585  0.0942 -0.0097 -0.1302
  398MOL0     C54847   2.580   2.884   2.675  0.8409 -0.4592 -0.1745
  398MOL0     C54848   2.518   2.804   2.789  0.8063  0.0844 -0.4430
  398MOL0     C54849   2.409   2.893   2.859 -0.2771  0.0463 -0.2252
  398MOL0     C54850   2.473   2.993   2.951  0.1757  0.5187  0.5081
  398MOL0     C54851   2.525   3.089   3.013 -0.2698 -0.3618  0.7505
  398MOL0     C54852   2.609   2.501   2.389 -1.2691  0.3858 -0.0568
  398MOL0     C54853   2.679   2.414   2.302  0.2470  0.9307  0.0272
  398MOL0     C54854   2.597   2.302   2.242 -1.1589  0.4579  0.7486
  398MOL0     H54855   2.982   2.260   1.915  0.6989  0.6531  1.9648
  398MOL0     H54856   3.062   2.066   1.775  1.5128 -0.7549  0.4125
  398MOL0     H54857   3.179   1.909   1.738 -2.2160  1.2496  1.6592
  398MOL0     H54858   3.043   1.848   1.636 -4.9453  1.1283  2.6257
  398MOL0     H54859   3.122   1.610   1.690 -0.4889 -1.0508  5.2096
  398MOL0     H54860   3.256   1.705   1.609 -0.2208  2.8392  0.1199
  398MOL0     H54861   3.336   1.748   1.844  0.4184 -1.1487  0.4600
  398MOL0     H54862   3.234   1.622   1.903  2.2259 -0.8422  0.8007
  398MOL0     H54863   3.360   1.448   1.771 -2.4179  0.2757  4.1431
  398MOL0     H54864   3.462   1.571   1.706 -0.5630 -1.2462 -1.1992
  398MOL0     H54865   3.429   1.501   1.999 -0.6929 -1.0149 -0.9730
  398MOL0     H54866   3.492   1.640   1.957 -0.5567 -2.2023  6.4909
  398MOL0     H54867   3.626   1.381   1.849  1.6342 -0.8119 -0.8409
  398MOL0     H54868   3.694   1.538   1.833  0.0733  1.9239  2.3014
  398MOL0     H54869   3.784   1.391   2.022 -0.2880  0.3552 -0.3028
  398MOL0     H54870   3.626   1.382   2.096  2.0638  1.0487  2.2613
  398MOL0     H54871   3.643   1.605   2.170  0.2715  0.5221  1.0208
  398MOL0     H54872   3.773   1.495   2.225  1.9646  1.3370 -0.3603
  398MOL0     H54873   3.787   1.712   1.890  0.8976  1.4470 -0.7958
  398MOL0     H54874   3.946   1.855   1.795 -1.0281 -1.2012  1.1726
  398MOL0     H54875   4.106   1.866   1.867  0.0015 -4.9593  0.6947
  398MOL0     H54876   3.991   2.100   1.831  2.4911  0.8139  0.9090
  398MOL0     H54877   3.860   2.049   1.936 -0.4245 -3.2095  3.0843
  398MOL0     H54878   4.028   2.204   2.025 -0.4189 -0.7081 -0.8373
  398MOL0     H54879   4.007   2.059   2.133  2.1056  3.0376  2.3979
  398MOL0     H54880   4.211   1.969   2.041 -1.1209 -0.6718  1.0764
  398MOL0     H54881   4.225   2.093   1.919 -0.5271  0.5765 -0.7724
  398MOL0     H54882   4.253   2.319   1.898  0.3928  3.8101 -1.4856
  398MOL0     H54883   4.297   2.480   1.777 -1.1169  0.1484 -0.8908
  398MOL0     H54884   4.363   2.632   1.818 -0.6912 -0.1787 -0.6478
  398MOL0     H54885   4.184   2.607   1.815  0.1848  0.2835 -0.8039
  398MOL0     H54886   4.420   2.945   2.406 -0.9530 -3.7071 -2.0488
  398MOL0     H54887   4.354   3.179   2.461  2.4345 -2.2043  0.7167
  398MOL0     H54888   4.125   3.515   2.267 -1.7772  1.0482  1.0181
  398MOL0     H54889   4.094   3.394   2.134  2.6279 -0.6516  0.1289
  398MOL0     H54890   3.942   3.268   2.260 -0.7677  0.6550 -4.2717
  398MOL0     H54891   3.953   3.397   2.392  1.1848  2.1970 -0.6203
  398MOL0     H54892   3.798   3.407   2.134 -0.8714  0.9614 -0.8019
  398MOL0     H54893   3.881   3.555   2.173  0.8436  1.7094  2.7809
  398MOL0     H54894   3.699   3.395   2.366  1.1360  1.7335  2.6241
  398MOL0     H54895   3.652   3.527   2.247  1.4078 -0.1734 -1.3261
  398MOL0     H54896   3.836   3.586   2.481  1.6812 -0.2465 -2.3075
  398MOL0     H54897   3.786   3.695   2.352  0.8539 -0.3071  0.5431
  398MOL0     H54898   3.567   3.563   2.508 -1.0641 -0.0096 -0.1495
  398MOL0     H54899   3.559   3.692   2.379  2.3743  1.0306 -0.9403
  398MOL0     H54900   3.681   3.849   2.508  0.1115 -0.3574  0.9236
  398MOL0     H54901   3.694   3.741   2.643 -0.0071 -0.0667 -0.1693
  398MOL0     H54902   3.523   3.840   2.730  4.3238  0.1155 -0.6967
  398MOL0     H54903   3.423   3.740   2.616 -0.5679  1.8337  0.5974
  398MOL0     H54904   4.125   3.183   2.097  1.2736 -1.5863 -0.9910
  398MOL0     H54905   4.148   2.955   2.074 -0.3443 -0.3817 -0.1705
  398MOL0     H54906   4.325   2.562   2.324  0.9701 -3.6563  0.8713
  398MOL0     H54907   4.279   2.313   2.323  0.0546 -3.1837 -0.5592
  398MOL0     H54908   2.903   1.792   2.081  0.6386  0.5530  1.9005
  398MOL0     H54909   2.839   1.987   2.214 -1.7209  4.4380  0.7910
  398MOL0     H54910   2.983   2.525   2.313 -0.7082 -0.3713 -2.4131
  398MOL0     H54911   2.886   2.696   2.457 -1.1700  1.0564 -1.3923
  398MOL0     H54912   2.758   2.755   2.643  0.8377  1.4889 -0.0444
  398MOL0     H54913   2.728   2.867   2.519 -1.7381  2.9964  1.3706
  398MOL0     H54914   2.507   2.925   2.605  2.0331  1.2136 -0.4963
  398MOL0     H54915   2.627   2.967   2.728 -0.7475 -1.5671  3.2109
  398MOL0     H54916   2.469   2.711   2.760  1.5344 -1.5189  2.9558
  398MOL0     H54917   2.598   2.778   2.859  1.8321 -2.6046 -2.4709
  398MOL0     H54918   2.333   2.839   2.916 -1.0361  2.8965  1.6575
  398MOL0     H54919   2.355   2.954   2.787 -0.6940  1.4726  1.2345
  398MOL0     H54920   2.577   3.162   3.071  2.6733 -0.2869 -1.7476
  398MOL0     H54921   2.503   2.490   2.410 -1.3222  2.3906  0.9173
  398MOL0     H54922   2.602   2.300   2.133  3.5881 -0.6724  0.7895
  398MOL0     H54923   2.638   2.210   2.283 -1.0506  0.5075  0.7505
  398MOL0     H54924   2.491   2.305   2.271 -0.7139  0.3891  2.4640
  399MOL0     O54925   2.049   4.151   0.581  0.2628  0.6537 -0.7542
  399MOL0     C54926   2.083   4.168   0.462  0.9090  0.6473 -0.1538
  399MOL0     O54927   2.197   4.120   0.405  0.2207 -0.4341 -0.3486
  399MOL0     C54928   2.291   4.096   0.487 -0.1014  1.1602  0.3048
  399MOL0     C54929   2.334   4.184   0.593 -0.9429  0.4439  0.4543
  399MOL0     C54930   2.423   4.129   0.685 -0.1919  0.1852 -0.0817
  399MOL0     C54931   2.483   4.002   0.680 -0.2725  0.0322 -0.6628
  399MOL0     O54932   2.554   3.943   0.779 -0.1149  0.1967  0.1062
  399MOL0     C54933   2.513   3.988   0.905 -0.5969  0.1348 -0.1080
  399MOL0     C54934   2.553   3.897   1.027 -0.2457  0.1866  0.4116
  399MOL0     C54935   2.701   3.876   1.024  0.1510  0.5005 -0.8118
  399MOL0     C54936   2.755   3.758   1.103  0.6552 -0.6828  0.9158
  399MOL0     C54937   2.902   3.730   1.080 -0.4521 -0.6939 -0.7916
  399MOL0     C54938   2.998   3.849   1.131  0.5098 -0.0041 -0.5841
  399MOL0     C54939   3.146   3.820   1.150  0.2511  0.3275  1.2558
  399MOL0     C54940   3.237   3.938   1.168  0.5645  0.6451 -0.3812
  399MOL0     N54941   3.382   3.911   1.188 -0.0135 -0.2579  0.3666
  399MOL0     C54942   3.455   3.801   1.149 -0.5495 -0.1240 -0.1142
  399MOL0     C54943   3.586   3.831   1.146 -0.6430  0.6029 -0.4370
  399MOL0     C54944   3.707   3.765   1.084  0.1568 -0.9042 -0.0676
  399MOL0     C54945   3.838   3.777   1.166 -0.3258  0.1611 -0.5274
  399MOL0     C54946   3.947   3.720   1.074  0.4180  0.4248  0.0501
  399MOL0     C54947   4.075   3.685   1.163 -0.0127 -0.4488  0.3966
  399MOL0     O54948   4.152   3.795   1.200  0.1032 -0.1572 -0.2267
  399MOL0     C54949   4.227   3.862   1.103  0.0155  0.2680  0.2502
  399MOL0     C54950   4.247   3.812   0.975 -0.3808 -0.0732 -0.5374
  399MOL0     C54951   4.332   3.862   0.876  0.2408 -0.0511  0.1629
  399MOL0     C54952   4.351   3.789   0.740 -0.0451 -0.3314 -0.2346
  399MOL0     C54953   4.371   3.992   0.901  0.5991  0.6084  0.0657
  399MOL0     C54954   4.459   4.062   0.806 -0.4830 -0.6618  0.1734
  399MOL0     O54955   4.581   4.017   0.773  0.3331  0.1051  0.6320
  399MOL0     C54956   4.647   3.931   0.861 -0.8056  0.2497  0.3258
  399MOL0     C54957   4.721   3.830   0.796  0.3594  0.9170  0.1172
  399MOL0     C54958   4.805   3.753   0.872  0.2081  0.5899  0.3465
  399MOL0     C54959   4.807   3.757   1.007  0.3093  0.9241 -0.2376
  399MOL0     O54960   4.890   3.675   1.075  1.0754  0.0213 -0.0160
  399MOL0     C54961   4.933   3.718   1.206  0.8405 -0.0764 -0.9896
  399MOL0     C54962   5.064   3.652   1.250 -0.0392 -0.7168  0.8196
  399MOL0     C54963   5.184   3.702   1.158 -0.0804  0.4208  0.0506
  399MOL0     C54964   5.218   3.845   1.207 -1.0686  0.5768  0.2851
  399MOL0     C54965   5.296   3.854   1.341 -0.9284 -0.2107  0.1785
  399MOL0     C54966   5.351   4.001   1.346  0.7715 -0.1675  0.1795
  399MOL0     C54967   5.432   4.032   1.470 -0.4173  0.9714  0.1586
  399MOL0     C54968   5.480   4.173   1.475  0.6152 -0.1425  0.4274
  399MOL0    Cl54969   5.601   4.201   1.358 -0.3146  0.0180  0.1379
  399MOL0     C54970   4.734   3.859   1.070  0.3548 -0.3661  0.1383
  399MOL0     C54971   4.659   3.951   0.995 -0.4291  0.1161  1.3747
  399MOL0     O54972   4.407   4.161   0.756 -0.0102  0.5438  0.0702
  399MOL0     C54973   4.339   4.049   1.021  1.1374  1.1739  0.2375
  399MOL0     C54974   4.272   3.990   1.117  0.1994  0.8094 -1.1609
  399MOL0     N54975   3.594   3.959   1.184  0.4435  0.6540  0.2315
  399MOL0     N54976   3.478   4.010   1.200  0.6255  0.0244 -0.7134
  399MOL0     C54977   2.438   3.924   0.576  0.0685  1.0759  0.2249
  399MOL0     C54978   2.346   3.965   0.478 -0.9403  0.5637  0.5494
  399MOL0     C54979   1.976   4.247   0.397 -0.8384  0.5710  0.3854
  399MOL0     C54980   1.935   4.370   0.453 -0.1178  0.6383  0.5092
  399MOL0     C54981   1.830   4.432   0.396  0.6432  0.3927 -0.4311
  399MOL0     C54982   1.760   4.380   0.286 -0.2820 -0.6477 -0.1773
  399MOL0     O54983   1.650   4.467   0.248 -0.2341  1.2901 -0.8582
  399MOL0     C54984   1.582   4.453   0.127 -0.4178  0.0319 -0.3469
  399MOL0     C54985   1.662   4.498   0.005  0.2421 -0.0626 -0.2729
  399MOL0     C54986   1.578   4.555  -0.110 -0.5370  0.5334  0.3535
  399MOL0     C54987   1.551   4.702  -0.107 -0.0642  0.4176  0.1018
  399MOL0     C54988   1.454   4.753  -0.211 -0.0455  0.7934  0.0767
  399MOL0     C54989   1.377   4.780  -0.302 -0.5000  0.3492  0.2314
  399MOL0     C54990   1.803   4.256   0.229  0.3091 -1.0945 -0.0118
  399MOL0     C54991   1.912   4.186   0.281 -0.0156  0.1262  0.7754
  399MOL0     C54992   1.969   4.067   0.194  0.1496 -0.5977  0.8147
  399MOL0     H54993   2.295   4.285   0.600  1.5978  1.6735 -1.4961
  399MOL0     H54994   2.442   4.200   0.765 -0.4434 -0.2053  0.3337
  399MOL0     H54995   2.404   3.998   0.905 -1.0443 -3.3418 -1.5558
  399MOL0     H54996   2.564   4.083   0.925 -3.1278  1.0009  2.9830
  399MOL0     H54997   2.532   3.945   1.123  1.3647  2.8272 -0.4486
  399MOL0     H54998   2.509   3.798   1.014  2.9521 -1.0574 -2.3060
  399MOL0     H54999   2.730   3.850   0.921 -0.3901 -1.9760 -0.3974
  399MOL0     H55000   2.748   3.971   1.053  1.3358  0.7887 -3.3621
  399MOL0     H55001   2.729   3.750   1.209  0.2967  0.4006  0.9263
  399MOL0     H55002   2.697   3.675   1.064 -1.2799 -1.3304  4.7342
  399MOL0     H55003   2.938   3.714   0.978 -0.5917 -2.1026 -0.6375
  399MOL0     H55004   2.914   3.633   1.130  1.3489  0.4429  1.1825
  399MOL0     H55005   2.982   3.923   1.052 -0.5117 -0.8446 -1.1840
  399MOL0     H55006   2.974   3.889   1.230  2.4226  1.8686 -0.8127
  399MOL0     H55007   3.175   3.768   1.058 -0.6049  0.1248  1.0896
  399MOL0     H55008   3.143   3.750   1.234 -0.8665  1.8593  2.5336
  399MOL0     H55009   3.222   4.008   1.086 -1.5319  1.5916  0.7565
  399MOL0     H55010   3.200   3.989   1.257  0.8837  1.1042 -0.5078
  399MOL0     H55011   3.418   3.707   1.107 -0.9233 -0.4040  0.8235
  399MOL0     H55012   3.711   3.812   0.985 -3.0669 -2.3462 -1.0084
  399MOL0     H55013   3.682   3.661   1.061 -1.3433 -0.0968 -2.5244
  399MOL0     H55014   3.859   3.877   1.205 -5.2484  2.5449 -3.0140
  399MOL0     H55015   3.828   3.703   1.247 -0.0644  0.9708  0.2639
  399MOL0     H55016   3.915   3.637   1.010  3.0568  0.9851 -2.1964
  399MOL0     H55017   3.973   3.795   0.999  5.0212 -1.0520 -0.1555
  399MOL0     H55018   4.052   3.630   1.255  2.6448 -0.9290  0.8348
  399MOL0     H55019   4.133   3.608   1.111  0.4463 -0.8111  1.4209
  399MOL0     H55020   4.220   3.707   0.964 -2.0888  0.3642 -0.7619
  399MOL0     H55021   4.433   3.833   0.683  1.5086 -1.2083  1.1966
  399MOL0     H55022   4.266   3.793   0.672 -1.2684 -2.0247  1.0938
  399MOL0     H55023   4.388   3.687   0.758 -0.6946 -0.8272 -1.5544
  399MOL0     H55024   4.713   3.799   0.692 -0.4595  0.1370  0.3981
  399MOL0     H55025   4.878   3.681   0.837  0.2781  0.7502  0.1595
  399MOL0     H55026   4.960   3.824   1.201  2.8737 -0.4229  1.1053
  399MOL0     H55027   4.852   3.708   1.279  0.4491  0.1593 -1.3855
  399MOL0     H55028   5.098   3.666   1.353 -0.6535 -0.8193  1.0376
  399MOL0     H55029   5.056   3.544   1.235  2.8464 -0.8840 -0.2114
  399MOL0     H55030   5.151   3.705   1.054  2.5179  4.1704 -0.8929
  399MOL0     H55031   5.273   3.639   1.169 -0.6141 -0.0535  2.1451
  399MOL0     H55032   5.134   3.907   1.241  0.8423  1.7325  3.3289
  399MOL0     H55033   5.265   3.894   1.122 -2.3336 -2.5836 -2.4646
  399MOL0     H55034   5.232   3.832   1.427  0.5183  1.0184  1.6279
  399MOL0     H55035   5.377   3.780   1.341  0.3784  1.1795  0.1448
  399MOL0     H55036   5.270   4.073   1.332 -0.1190 -1.6036 -2.8630
  399MOL0     H55037   5.413   4.025   1.259  0.3279  0.9813  0.1629
  399MOL0     H55038   5.516   3.961   1.474  0.1240  1.6493  2.0630
  399MOL0     H55039   5.377   4.007   1.561  0.9793  1.7240  1.2532
  399MOL0     H55040   5.520   4.199   1.573 -0.4471  3.1630  0.0805
  399MOL0     H55041   5.394   4.236   1.452  0.6871 -0.1330  0.1755
  399MOL0     H55042   4.742   3.877   1.176  3.0812 -2.0088  0.3144
  399MOL0     H55043   4.621   4.039   1.046 -0.9391  1.7672 -1.6301
  399MOL0     H55044   4.367   4.153   1.037 -2.2186  2.2905 -0.3505
  399MOL0     H55045   4.249   4.037   1.212  1.4915 -3.8255  1.7914
  399MOL0     H55046   2.474   3.821   0.574 -1.8296  0.2486  2.7672
  399MOL0     H55047   2.326   3.903   0.391 -0.6828  2.2858 -0.7789
  399MOL0     H55048   1.979   4.408   0.545 -0.2345  0.0587  0.8085
  399MOL0     H55049   1.793   4.518   0.451 -2.4270  0.3922 -2.2180
  399MOL0     H55050   1.561   4.346   0.120  2.4836 -0.7322  1.0331
  399MOL0     H55051   1.493   4.510   0.156 -0.0475 -0.5405  2.0993
  399MOL0     H55052   1.709   4.406  -0.030 -2.9227 -1.6081 -0.8341
  399MOL0     H55053   1.732   4.576   0.036 -1.6928  2.3143 -1.4201
  399MOL0     H55054   1.625   4.525  -0.204  0.4029  2.5170  0.1391
  399MOL0     H55055   1.479   4.508  -0.109  0.9076 -2.9061  3.1689
  399MOL0     H55056   1.646   4.751  -0.129 -1.9184  3.2129 -2.4029
  399MOL0     H55057   1.526   4.715  -0.001 -0.5162  2.5222 -0.2242
  399MOL0     H55058   1.313   4.793  -0.387 -0.9782 -2.1645  0.1259
  399MOL0     H55059   1.750   4.230   0.138 -0.3580  1.8825 -0.5644
  399MOL0     H55060   1.993   4.110   0.096 -2.3828 -0.0932  0.3406
  399MOL0     H55061   2.054   4.014   0.237  1.0052 -0.7785 -1.0105
  399MOL0     H55062   1.899   3.985   0.175  1.4566 -1.2978 -1.4117
  400MOL0     O55063   5.602   7.388   5.384  0.0973 -0.5740  0.5883
  400MOL0     C55064   5.619   7.279   5.333 -1.5414 -0.2856  0.4699
  400MOL0     O55065   5.569   7.241   5.214 -0.5754  0.8784  0.1291
  400MOL0     C55066   5.493   7.314   5.127 -0.1737 -0.6743 -0.8849
  400MOL0     C55067   5.482   7.241   5.002 -0.0531 -0.7741 -0.6431
  400MOL0     C55068   5.409   7.301   4.899  1.1775 -0.7585 -0.4297
  400MOL0     C55069   5.349   7.432   4.916  0.4972 -0.3712  0.2824
  400MOL0     O55070   5.273   7.495   4.823  0.0837 -0.1360  0.1643
  400MOL0     C55071   5.139   7.438   4.815  0.7348 -0.0631  0.5070
  400MOL0     C55072   5.049   7.512   4.913 -0.5280 -0.2342 -0.1664
  400MOL0     C55073   5.007   7.429   5.043  0.5307  0.0608  0.0693
  400MOL0     C55074   4.925   7.507   5.141  0.7309  0.2064  1.4213
  400MOL0     C55075   4.877   7.422   5.265 -0.2767  0.3896  0.7639
  400MOL0     C55076   4.997   7.401   5.361  0.3836 -0.8050 -0.3137
  400MOL0     C55077   4.942   7.313   5.479 -0.0646  0.6020 -0.2683
  400MOL0     C55078   4.930   7.169   5.429 -0.6635  0.5085 -0.8592
  400MOL0     N55079   4.865   7.085   5.523 -0.3089  0.0064 -1.1082
  400MOL0     C55080   4.914   7.046   5.648 -1.0405 -0.1561 -0.5717
  400MOL0     C55081   4.843   6.939   5.688 -0.3092 -1.1780 -0.6565
  400MOL0     C55082   4.857   6.856   5.815 -1.0107  0.2085 -0.3443
  400MOL0     C55083   4.999   6.885   5.888  0.1097 -1.1763  0.0955
  400MOL0     C55084   5.027   6.789   6.008 -0.3186  0.0438  0.8598
  400MOL0     C55085   4.932   6.792   6.121  0.7831 -0.2221 -0.5464
  400MOL0     O55086   4.946   6.703   6.232  0.1940  0.7029  0.5524
  400MOL0     C55087   5.041   6.713   6.330 -0.3137  0.9418 -0.6957
  400MOL0     C55088   5.120   6.828   6.346 -0.1023  0.3414 -0.2802
  400MOL0     C55089   5.213   6.847   6.458  0.2995 -0.3776  0.2768
  400MOL0     C55090   5.278   6.979   6.485  1.0591  0.6744 -0.4018
  400MOL0     C55091   5.238   6.729   6.544  0.5037 -0.2312 -0.4627
  400MOL0     C55092   5.335   6.732   6.661 -0.3812 -0.2926  0.0529
  400MOL0     O55093   5.421   6.835   6.683  0.0446  0.1001 -0.6660
  400MOL0     C55094   5.491   6.850   6.798  0.4730  1.0134 -0.2204
  400MOL0     C55095   5.444   6.809   6.928 -1.6608  0.0443  0.3955
  400MOL0     C55096   5.525   6.841   7.038  0.0608  0.0674 -0.4349
  400MOL0     C55097   5.628   6.925   7.035 -1.4299  0.5010 -0.4512
  400MOL0     O55098   5.685   6.962   7.162  0.7965  0.0613  0.3410
  400MOL0     C55099   5.774   7.078   7.160  0.6700 -0.3116 -0.8924
  400MOL0     C55100   5.812   7.130   7.297  0.0885 -0.0045 -1.1622
  400MOL0     C55101   5.894   7.261   7.269  0.1182  0.5528  0.5385
  400MOL0     C55102   6.010   7.242   7.167 -0.2852  0.3689  0.1952
  400MOL0     C55103   6.114   7.346   7.201  0.2393 -1.0381 -0.4531
  400MOL0     C55104   6.206   7.379   7.085 -0.8152 -0.4480 -0.6545
  400MOL0     C55105   6.305   7.265   7.061 -0.6963  0.3644  0.1299
  400MOL0     C55106   6.389   7.292   6.935 -0.1937  0.2179 -0.3233
  400MOL0    Cl55107   6.537   7.189   6.932  0.4589  0.1316  0.4016
  400MOL0     C55108   5.673   6.956   6.905  0.7625 -0.5589 -0.5713
  400MOL0     C55109   5.611   6.926   6.784  0.7401  0.1349  0.6211
  400MOL0     O55110   5.329   6.635   6.735  0.1899  1.0640 -0.5369
  400MOL0     C55111   5.155   6.618   6.529 -0.1652  0.1847 -0.0576
  400MOL0     C55112   5.063   6.605   6.424 -0.0462  0.2276 -0.3712
  400MOL0     N55113   4.749   6.921   5.582  0.2860  0.3787 -0.2299
  400MOL0     N55114   4.764   7.005   5.490  0.0726 -0.1618  1.0151
  400MOL0     C55115   5.367   7.493   5.035  0.4631 -0.5072 -0.5766
  400MOL0     C55116   5.439   7.443   5.139  0.3023 -0.4456 -0.1204
  400MOL0     C55117   5.679   7.178   5.421 -0.0556 -0.2277 -0.7894
  400MOL0     C55118   5.766   7.077   5.370  0.4359 -0.7805  0.4664
  400MOL0     C55119   5.835   6.985   5.448  0.3381 -0.1962  0.7926
  400MOL0     C55120   5.810   6.986   5.584 -0.3556 -0.2499 -0.6116
  400MOL0     O55121   5.879   6.893   5.658 -0.1388  0.2264 -0.0193
  400MOL0     C55122   5.862   6.883   5.798  0.4886  0.0311 -0.9168
  400MOL0     C55123   5.932   6.994   5.882 -0.6813 -0.2840  0.0286
  400MOL0     C55124   6.083   7.009   5.865 -0.3671  1.2768 -0.2131
  400MOL0     C55125   6.157   6.887   5.911 -0.1660 -0.5617 -0.0324
  400MOL0     C55126   6.301   6.912   5.918 -0.0470 -0.2224 -0.3256
  400MOL0     C55127   6.424   6.937   5.914  1.1799 -0.0045 -0.0948
  400MOL0     C55128   5.711   7.080   5.640 -0.1589 -0.1451 -0.1837
  400MOL0     C55129   5.644   7.174   5.556  0.4390 -0.0080  0.0303
  400MOL0     C55130   5.539   7.265   5.624  0.2840 -0.2581 -0.0076
  400MOL0     H55131   5.525   7.142   5.010 -0.2763 -0.7422  4.0662
  400MOL0     H55132   5.396   7.268   4.796  0.8022 -0.3235 -0.5270
  400MOL0     H55133   5.142   7.329   4.829  0.2131  0.1104  2.1899
  400MOL0     H55134   5.117   7.456   4.710 -0.2491  0.6000  0.8161
  400MOL0     H55135   5.094   7.603   4.954 -1.0459 -0.6540  1.4400
  400MOL0     H55136   4.958   7.533   4.856 -1.3437 -1.5001  0.6088
  400MOL0     H55137   4.946   7.344   5.011 -0.2502  0.7806 -0.4178
  400MOL0     H55138   5.099   7.387   5.085 -1.2616 -2.0065  2.2354
  400MOL0     H55139   4.987   7.592   5.169  3.2849 -1.3051  0.6901
  400MOL0     H55140   4.835   7.537   5.087 -0.0060  0.7002  2.8695
  400MOL0     H55141   4.848   7.325   5.225  2.1654  0.8792 -2.7082
  400MOL0     H55142   4.787   7.467   5.308 -1.6816 -0.2578 -1.3380
  400MOL0     H55143   5.092   7.358   5.328 -1.2847 -5.0738 -0.2706
  400MOL0     H55144   5.020   7.503   5.392  0.1965  0.3780 -3.6092
  400MOL0     H55145   4.854   7.367   5.514 -0.6086  0.0876 -0.8151
  400MOL0     H55146   5.025   7.318   5.550  3.1985  2.0486 -3.8225
  400MOL0     H55147   4.876   7.157   5.335 -3.9975  0.5427  0.9179
  400MOL0     H55148   5.028   7.127   5.402 -0.3836 -0.5269  1.4956
  400MOL0     H55149   4.992   7.100   5.701 -0.9637  2.7204 -3.3045
  400MOL0     H55150   4.848   6.750   5.792 -0.1082  0.4463 -1.9293
  400MOL0     H55151   4.778   6.881   5.886 -0.4365  0.0411  0.3712
  400MOL0     H55152   5.080   6.872   5.816 -0.6263 -0.1139 -0.9659
  400MOL0     H55153   4.995   6.987   5.928 -2.7043 -0.7182 -1.0756
  400MOL0     H55154   5.033   6.684   5.979  1.1463  1.0953 -3.3477
  400MOL0     H55155   5.122   6.818   6.054 -0.5912  3.4557 -0.4588
  400MOL0     H55156   4.907   6.893   6.156  0.1140  0.1127 -1.9386
  400MOL0     H55157   4.832   6.765   6.087  1.6584 -3.0187 -1.1150
  400MOL0     H55158   5.102   6.913   6.280 -0.6912 -0.2897 -0.9596
  400MOL0     H55159   5.234   7.063   6.431  0.3437 -2.1576 -4.8048
  400MOL0     H55160   5.385   6.971   6.463  1.5788  1.3043  1.7608
  400MOL0     H55161   5.265   6.997   6.592 -2.2584 -0.7961 -0.4150
  400MOL0     H55162   5.354   6.749   6.938 -0.4056 -1.7353  1.5738
  400MOL0     H55163   5.497   6.794   7.132  1.3453  1.3770  0.6507
  400MOL0     H55164   5.857   7.050   7.094  1.0544 -0.5932 -0.2943
  400MOL0     H55165   5.699   7.148   7.123  1.0689  0.7806  0.2811
  400MOL0     H55166   5.717   7.167   7.337  1.0445  0.0329  1.2268
  400MOL0     H55167   5.865   7.064   7.365  0.6113  0.3453 -1.2235
  400MOL0     H55168   5.938   7.297   7.363  0.6086  3.6626 -0.7383
  400MOL0     H55169   5.822   7.336   7.236  0.4063 -0.0595 -1.5748
  400MOL0     H55170   5.972   7.267   7.068 -0.6082 -0.3116  0.1428
  400MOL0     H55171   6.056   7.144   7.157  4.1588  1.8790  2.8638
  400MOL0     H55172   6.054   7.434   7.221  0.8946 -0.8049  0.5567
  400MOL0     H55173   6.157   7.334   7.301  1.7316  2.1450 -0.5913
  400MOL0     H55174   6.269   7.468   7.093 -3.8388  1.8072  0.1952
  400MOL0     H55175   6.136   7.397   7.003  0.4292 -1.7496 -2.0714
  400MOL0     H55176   6.247   7.172   7.058 -1.3394  0.7722 -0.4040
  400MOL0     H55177   6.362   7.263   7.154 -0.0410  1.1272 -0.2479
  400MOL0     H55178   6.416   7.395   6.909  0.7371 -0.6449 -3.1533
  400MOL0     H55179   6.329   7.255   6.852 -0.4072 -0.1110 -0.0228
  400MOL0     H55180   5.763   7.013   6.886 -1.4096  2.4933 -2.6179
  400MOL0     H55181   5.650   6.965   6.691 -0.3540  1.2447  0.6035
  400MOL0     H55182   5.165   6.539   6.603 -4.0017 -0.0561  0.3859
  400MOL0     H55183   5.003   6.514   6.418  1.7005 -1.0161  0.1630
  400MOL0     H55184   5.327   7.593   5.049  0.7807 -0.4860  0.2435
  400MOL0     H55185   5.435   7.512   5.223 -3.0735 -0.7515  0.0984
  400MOL0     H55186   5.787   7.089   5.264 -0.2090  0.3708  0.4635
  400MOL0     H55187   5.906   6.912   5.411 -1.1590 -1.4596  0.3037
  400MOL0     H55188   5.759   6.896   5.832  1.3231 -1.5154  2.7289
  400MOL0     H55189   5.910   6.792   5.834  2.6422  1.2170 -0.6373
  400MOL0     H55190   5.893   6.988   5.984  0.2577 -0.2311  0.3937
  400MOL0     H55191   5.899   7.097   5.860 -2.5473 -1.1896 -1.7494
  400MOL0     H55192   6.122   7.034   5.767  1.4853 -1.6127 -0.3323
  400MOL0     H55193   6.125   7.087   5.929  2.5853 -1.8415  1.9938
  400MOL0     H55194   6.141   6.794   5.855 -0.0353 -1.0757  0.7600
  400MOL0     H55195   6.119   6.858   6.010 -2.1375 -3.6550 -1.5343
  400MOL0     H55196   6.523   6.977   5.913  0.4797  1.8120 -0.1959
  400MOL0     H55197   5.683   7.083   5.745 -2.2311 -0.9999 -0.6507
  400MOL0     H55198   5.586   7.363   5.634 -3.3117  1.6949 -0.4642
  400MOL0     H55199   5.452   7.274   5.559 -0.5117 -1.2631  0.8690
  400MOL0     H55200   5.515   7.229   5.725 -0.0112 -0.0011  0.0185
  401MOL0     O55201   5.500   0.661   5.098  0.3802  0.1304  0.6753
  401MOL0     C55202   5.475   0.785   5.106  0.2898  1.4884  0.7062
  401MOL0     O55203   5.366   0.846   5.046  0.3384 -0.1500  0.3109
  401MOL0     C55204   5.299   0.779   4.944 -0.0810 -0.2758  0.5555
  401MOL0     C55205   5.160   0.759   4.943  0.2487 -0.2958 -0.1014
  401MOL0     C55206   5.085   0.683   4.846  0.0617 -0.0483 -0.8400
  401MOL0     C55207   5.157   0.623   4.741  0.8566  0.0212 -0.0104
  401MOL0     O55208   5.090   0.537   4.649  0.1095 -0.6425 -0.6475
  401MOL0     C55209   5.155   0.471   4.537 -0.1338  0.7185  0.2136
  401MOL0     C55210   5.196   0.334   4.576 -0.7168 -0.7845 -0.2613
  401MOL0     C55211   5.088   0.254   4.639  0.6593  1.1723 -0.6779
  401MOL0     C55212   5.104   0.102   4.611 -0.1202 -0.2535  0.3542
  401MOL0     C55213   5.043   0.053   4.473  0.0772 -0.7895  0.4446
  401MOL0     C55214   5.041  -0.105   4.476  0.4020 -0.4324 -0.3430
  401MOL0     C55215   5.021  -0.159   4.326 -0.1151 -0.0658  0.2913
  401MOL0     C55216   4.887  -0.117   4.248 -0.0045  0.5135  0.1448
  401MOL0     N55217   4.876  -0.178   4.119  0.0214  1.2155  0.5968
  401MOL0     C55218   4.906  -0.110   4.004 -0.6719  0.8915  0.0041
  401MOL0     C55219   4.846  -0.177   3.903  0.9192  0.5395 -0.1868
  401MOL0     C55220   4.858  -0.159   3.758  0.5565  0.0778  0.1618
  401MOL0     C55221   4.766  -0.049   3.696 -0.0393 -0.5460 -0.0711
  401MOL0     C55222   4.836   0.019   3.575 -0.2495 -0.0430 -0.6403
  401MOL0     C55223   4.862  -0.086   3.460 -0.3732  0.4039 -0.8747
  401MOL0     O55224   4.739  -0.145   3.421  0.4177 -0.4513  0.2890
  401MOL0     C55225   4.736  -0.245   3.336 -0.5267  0.9473 -0.0374
  401MOL0     C55226   4.845  -0.297   3.274  0.2544  0.0504  0.1639
  401MOL0     C55227   4.837  -0.414   3.197 -0.5752  0.1328 -0.2636
  401MOL0     C55228   4.964  -0.480   3.141 -0.1768  0.7620 -0.4880
  401MOL0     C55229   4.709  -0.474   3.171 -0.0208 -0.3577 -0.8622
  401MOL0     C55230   4.682  -0.596   3.079  0.3021  0.5082 -0.2260
  401MOL0     O55231   4.782  -0.652   3.001 -0.1746 -0.0143 -0.3994
  401MOL0     C55232   4.743  -0.704   2.877 -0.7013  0.3749 -0.3310
  401MOL0     C55233   4.631  -0.670   2.811  0.7868 -0.5199 -0.7031
  401MOL0     C55234   4.594  -0.736   2.694 -0.4469 -0.3952 -0.3634
  401MOL0     C55235   4.680  -0.829   2.639  0.5534  0.1575  0.1085
  401MOL0     O55236   4.629  -0.880   2.518  0.7896  0.3346 -0.6833
  401MOL0     C55237   4.714  -0.979   2.442  0.4775  0.3498  0.2022
  401MOL0     C55238   4.630  -1.052   2.330 -0.6256  0.7943 -0.0701
  401MOL0     C55239   4.495  -1.106   2.404 -0.2181  0.0702 -0.1017
  401MOL0     C55240   4.448  -1.220   2.308  0.0191  0.3436 -1.2914
  401MOL0     C55241   4.327  -1.297   2.360 -0.2308 -0.4781 -0.0337
  401MOL0     C55242   4.205  -1.200   2.378  0.7323 -0.2740 -0.1642
  401MOL0     C55243   4.067  -1.251   2.393  0.9531 -0.2815  0.7112
  401MOL0     C55244   4.043  -1.392   2.453 -0.4154 -0.1761 -0.3838
  401MOL0    Cl55245   4.138  -1.411   2.600 -0.1201  0.5791 -0.0392
  401MOL0     C55246   4.802  -0.860   2.699 -0.7905  0.8274 -0.1575
  401MOL0     C55247   4.842  -0.789   2.813 -0.2390  0.9880 -0.2622
  401MOL0     O55248   4.561  -0.633   3.075  0.2455 -0.1690  0.4123
  401MOL0     C55249   4.596  -0.424   3.253  0.0323 -0.5393 -0.7456
  401MOL0     C55250   4.607  -0.299   3.321 -1.1328  0.5366 -0.1405
  401MOL0     N55251   4.770  -0.275   3.956  0.3802 -0.0221  0.1989
  401MOL0     N55252   4.785  -0.280   4.084 -0.0969  0.6532 -0.7032
  401MOL0     C55253   5.298   0.637   4.743  0.7614 -0.0395  0.5421
  401MOL0     C55254   5.367   0.713   4.839 -0.1948  0.4226 -0.7956
  401MOL0     C55255   5.575   0.881   5.157  0.2773  0.2465 -0.4907
  401MOL0     C55256   5.561   1.021   5.116 -0.2301 -0.3589  0.9593
  401MOL0     C55257   5.633   1.116   5.170 -0.2691 -0.2278 -0.3577
  401MOL0     C55258   5.730   1.095   5.271 -0.0418  1.2061 -0.5368
  401MOL0     O55259   5.800   1.187   5.346  0.5248 -0.2475  0.5181
  401MOL0     C55260   5.812   1.320   5.300 -0.7615  0.3035 -1.3721
  401MOL0     C55261   5.726   1.420   5.381  0.7876 -0.4301 -0.3821
  401MOL0     C55262   5.608   1.466   5.285 -0.2853 -0.4255 -0.7092
  401MOL0     C55263   5.543   1.602   5.324 -0.5363 -1.2723  0.4788
  401MOL0     C55264   5.422   1.622   5.248  0.0604 -0.4691  0.8850
  401MOL0     C55265   5.332   1.654   5.173  0.6944  0.1297 -0.4092
  401MOL0     C55266   5.758   0.958   5.292  0.2647  0.3997 -0.2071
  401MOL0     C55267   5.685   0.849   5.249  0.1342 -0.3423  0.1832
  401MOL0     C55268   5.719   0.721   5.317 -0.2401 -0.1429  0.0185
  401MOL0     H55269   5.103   0.795   5.029  3.3542 -2.2191  3.0171
  401MOL0     H55270   4.977   0.688   4.855  0.1250  1.2262 -0.6072
  401MOL0     H55271   5.239   0.530   4.497  1.4684 -2.0828 -0.8176
  401MOL0     H55272   5.087   0.460   4.452 -2.4004 -0.1595  2.0678
  401MOL0     H55273   5.232   0.287   4.484 -1.4269  1.1577 -1.6066
  401MOL0     H55274   5.280   0.335   4.645 -1.4495 -1.1350  0.6607
  401MOL0     H55275   5.113   0.265   4.745 -1.3437  0.0331 -0.0376
  401MOL0     H55276   4.984   0.282   4.621  0.0979 -0.6240 -0.4229
  401MOL0     H55277   5.208   0.068   4.612 -1.0006 -3.1870  2.0651
  401MOL0     H55278   5.047   0.045   4.685 -1.9968  0.5964 -0.3891
  401MOL0     H55279   5.104   0.097   4.393  0.3061  0.5604  1.3198
  401MOL0     H55280   4.945   0.098   4.455  0.2458  0.0617  1.4836
  401MOL0     H55281   5.136  -0.145   4.512 -0.8019 -2.5371  0.6220
  401MOL0     H55282   4.964  -0.130   4.549 -0.1449  3.9723  0.8818
  401MOL0     H55283   5.025  -0.269   4.324 -0.6082 -0.1120 -2.5549
  401MOL0     H55284   5.103  -0.129   4.261 -0.3310 -2.1238 -1.0165
  401MOL0     H55285   4.808  -0.145   4.319  1.0303  1.1924  1.5838
  401MOL0     H55286   4.886  -0.009   4.230  0.9614  0.0650 -3.4785
  401MOL0     H55287   4.959  -0.015   4.004  1.5632 -0.2747 -0.3841
  401MOL0     H55288   4.846  -0.258   3.712  0.4823 -0.4406  1.2414
  401MOL0     H55289   4.962  -0.140   3.733  0.0144  0.8286 -1.6498
  401MOL0     H55290   4.664  -0.085   3.684  0.5348 -2.0210 -0.6955
  401MOL0     H55291   4.757   0.033   3.768 -0.5648 -1.0274  0.4225
  401MOL0     H55292   4.774   0.103   3.543  0.4970  0.9732  0.4865
  401MOL0     H55293   4.927   0.071   3.606 -1.1795  0.6519  1.0252
  401MOL0     H55294   4.908  -0.045   3.370  1.6582  1.4418  0.5598
  401MOL0     H55295   4.928  -0.163   3.502 -1.1158  0.9663  1.4593
  401MOL0     H55296   4.946  -0.258   3.288  0.3133 -0.4911  1.4131
  401MOL0     H55297   4.961  -0.589   3.152  0.1277  0.7650 -0.3805
  401MOL0     H55298   5.054  -0.435   3.184 -1.1094  2.5120 -0.3123
  401MOL0     H55299   4.973  -0.460   3.034  1.0599  1.8120 -0.2112
  401MOL0     H55300   4.574  -0.583   2.843  1.3274  0.2263 -1.6862
  401MOL0     H55301   4.498  -0.702   2.657 -0.8280  1.0410  1.7598
  401MOL0     H55302   4.805  -0.937   2.398  2.3597 -1.0111  2.5527
  401MOL0     H55303   4.751  -1.058   2.508 -0.2361 -0.8829 -0.8130
  401MOL0     H55304   4.610  -0.994   2.240  0.7333  1.9537  0.3316
  401MOL0     H55305   4.690  -1.137   2.296  1.7187  4.0100 -5.2862
  401MOL0     H55306   4.422  -1.025   2.413 -0.1811  0.0020  0.9671
  401MOL0     H55307   4.532  -1.140   2.501  3.0581 -1.3388 -1.6905
  401MOL0     H55308   4.531  -1.291   2.304  1.8276  2.0424  1.9696
  401MOL0     H55309   4.434  -1.172   2.211 -1.2765  3.1868  0.1719
  401MOL0     H55310   4.298  -1.370   2.283 -0.3522 -1.0765  0.5720
  401MOL0     H55311   4.348  -1.337   2.459 -0.8905 -2.5651 -0.6642
  401MOL0     H55312   4.206  -1.123   2.301 -1.7265  0.8193  0.7862
  401MOL0     H55313   4.223  -1.144   2.471 -2.3173 -0.4625  0.6556
  401MOL0     H55314   4.018  -1.248   2.295  2.1280  1.3238  0.1173
  401MOL0     H55315   4.010  -1.175   2.447 -0.8599 -0.9571 -0.1524
  401MOL0     H55316   4.087  -1.462   2.381 -0.7112 -0.7721  0.0026
  401MOL0     H55317   3.944  -1.430   2.480 -0.4180  0.4582  0.5541
  401MOL0     H55318   4.872  -0.937   2.669  0.2127  0.9762  1.6344
  401MOL0     H55319   4.933  -0.808   2.868  1.1897  2.1674 -2.1010
  401MOL0     H55320   4.496  -0.462   3.236 -0.6623  1.3708 -1.2164
  401MOL0     H55321   4.525  -0.241   3.362  1.1872  3.0921  1.1691
  401MOL0     H55322   5.357   0.576   4.676  1.3672 -1.3961  2.2237
  401MOL0     H55323   5.476   0.707   4.836 -0.2432 -0.6574 -3.3895
  401MOL0     H55324   5.480   1.048   5.049  1.2905 -0.1741 -0.9278
  401MOL0     H55325   5.626   1.217   5.131  2.5244 -0.5476 -1.9484
  401MOL0     H55326   5.917   1.337   5.327 -0.6234  3.0974 -3.2423
  401MOL0     H55327   5.796   1.335   5.193 -0.6721  1.6835 -1.2053
  401MOL0     H55328   5.784   1.510   5.401 -0.6604  0.7313 -1.2146
  401MOL0     H55329   5.691   1.379   5.477 -0.7187  1.2909 -0.1382
  401MOL0     H55330   5.646   1.481   5.184  0.0421  2.4743 -0.2576
  401MOL0     H55331   5.535   1.385   5.291 -2.0976  1.2134  0.7002
  401MOL0     H55332   5.616   1.678   5.295  3.7679 -4.2253  2.5735
  401MOL0     H55333   5.516   1.627   5.427  0.6791  1.0501  0.3114
  401MOL0     H55334   5.246   1.684   5.116  2.3625  2.3153 -1.9126
  401MOL0     H55335   5.849   0.939   5.348  3.0448  0.4807 -4.2142
  401MOL0     H55336   5.807   0.729   5.381 -0.3069 -2.9346  0.6111
  401MOL0     H55337   5.627   0.681   5.362 -0.0812  1.2694  1.7149
  401MOL0     H55338   5.745   0.647   5.240  0.3646 -2.0362  1.9268
  402MOL0     O55339   6.940   7.639   9.723  0.5444 -0.1789  0.1289
  402MOL0     C55340   6.857   7.653   9.630 -0.4726  0.3100  0.0794
  402MOL0     O55341   6.891   7.674   9.504 -0.6910  0.2019  0.7345
  402MOL0     C55342   7.009   7.735   9.489 -0.1783  0.6560  0.6334
  402MOL0     C55343   7.090   7.678   9.391 -0.1403  0.0565  0.5537
  402MOL0     C55344   7.221   7.730   9.360  0.5960  0.6331  0.5382
  402MOL0     C55345   7.266   7.848   9.423 -0.6748  0.1990 -0.4594
  402MOL0     O55346   7.389   7.905   9.401 -0.4149 -0.1333 -0.2774
  402MOL0     C55347   7.494   7.823   9.338 -0.5614 -0.2376  0.0590
  402MOL0     C55348   7.604   7.935   9.308  0.0655 -0.3505 -0.4813
  402MOL0     C55349   7.586   7.987   9.158  0.3441 -0.8072  0.2140
  402MOL0     C55350   7.467   8.061   9.116 -1.3621  0.0388  0.2283
  402MOL0     C55351   7.364   7.968   9.054 -0.3005  0.2403 -0.1102
  402MOL0     C55352   7.259   8.034   8.964 -0.2942  0.4615  0.2855
  402MOL0     C55353   7.172   8.134   9.036  0.6654  0.0457 -0.8513
  402MOL0     C55354   7.081   8.073   9.143  0.8104  0.5190  0.4334
  402MOL0     N55355   6.960   8.002   9.081 -0.1149  0.2694 -0.4942
  402MOL0     C55356   6.895   8.035   8.967  0.4578  0.5585 -0.5444
  402MOL0     C55357   6.829   7.923   8.931 -0.2194 -0.7466  1.5988
  402MOL0     C55358   6.764   7.896   8.791 -0.2928  0.4953  0.9106
  402MOL0     C55359   6.707   7.752   8.782 -0.4788 -0.1606  0.0002
  402MOL0     C55360   6.647   7.723   8.643  0.6763 -0.1175 -0.6574
  402MOL0     C55361   6.493   7.732   8.649  0.0656  0.3516 -0.2681
  402MOL0     O55362   6.447   7.854   8.583 -0.0599  0.3005  0.1341
  402MOL0     C55363   6.325   7.902   8.624  0.4555  0.0015  0.2757
  402MOL0     C55364   6.217   7.812   8.661 -0.2431  0.0934  0.2793
  402MOL0     C55365   6.090   7.871   8.702 -0.9113  0.2424  0.5627
  402MOL0     C55366   5.983   7.791   8.764 -0.0412  0.3580  0.0800
  402MOL0     C55367   6.074   8.008   8.703  0.3418 -0.2806  0.5156
  402MOL0     C55368   5.946   8.078   8.727  0.6633  1.8065  0.3782
  402MOL0     O55369   5.857   8.095   8.622 -1.0001  0.0395  0.8671
  402MOL0     C55370   5.726   8.125   8.626 -0.2059  0.8484 -0.8385
  402MOL0     C55371   5.664   8.145   8.502 -0.7269  0.0495  0.3761
  402MOL0     C55372   5.533   8.169   8.487 -0.0906  0.0629 -0.0906
  402MOL0     C55373   5.453   8.177   8.600 -0.1181  0.5003 -0.7017
  402MOL0     O55374   5.321   8.213   8.609 -1.1518 -0.2424  1.0337
  402MOL0     C55375   5.242   8.182   8.486 -0.1189 -0.9370 -0.2468
  402MOL0     C55376   5.105   8.233   8.507 -0.1473 -0.2166  0.2410
  402MOL0     C55377   5.033   8.142   8.607  1.0106  0.0276  0.0332
  402MOL0     C55378   4.886   8.180   8.600  0.7048 -0.0171  0.1706
  402MOL0     C55379   4.790   8.113   8.703 -0.5673 -0.7641  0.5104
  402MOL0     C55380   4.747   7.976   8.659 -0.9079 -0.7272  0.0546
  402MOL0     C55381   4.643   7.914   8.756  0.0698 -0.6355  0.0475
  402MOL0     C55382   4.588   7.788   8.699  0.1229 -0.9503 -0.4724
  402MOL0    Cl55383   4.495   7.811   8.554 -0.0546  0.0053 -0.4823
  402MOL0     C55384   5.507   8.159   8.727 -0.1000  0.5642 -0.1368
  402MOL0     C55385   5.642   8.121   8.740 -0.5998 -1.0894  0.5683
  402MOL0     O55386   5.922   8.110   8.845  0.4675 -0.5299 -0.0716
  402MOL0     C55387   6.175   8.087   8.648  0.0296 -0.2724  0.9638
  402MOL0     C55388   6.296   8.040   8.611 -0.0108  0.1251  0.3735
  402MOL0     N55389   6.859   7.819   9.015 -0.9626 -0.6097 -1.1139
  402MOL0     N55390   6.947   7.863   9.106 -0.0214 -0.1486  0.2485
  402MOL0     C55391   7.176   7.914   9.513 -0.0226  0.4306 -0.0733
  402MOL0     C55392   7.049   7.851   9.549 -0.2259 -0.3218 -0.4667
  402MOL0     C55393   6.710   7.639   9.657 -0.2364 -0.4107  0.0697
  402MOL0     C55394   6.617   7.652   9.545 -0.3276 -0.1359  1.2178
  402MOL0     C55395   6.480   7.644   9.553  0.4840  0.1152  0.5430
  402MOL0     C55396   6.425   7.628   9.675  1.3251  0.1131 -0.9654
  402MOL0     O55397   6.288   7.626   9.681  0.4318 -0.1975 -0.0350
  402MOL0     C55398   6.210   7.648   9.795  0.5038 -1.0585  0.1338
  402MOL0     C55399   6.057   7.670   9.769  0.3791 -1.0369 -0.6828
  402MOL0     C55400   6.035   7.804   9.698 -0.2590  0.8538  0.5714
  402MOL0     C55401   5.902   7.844   9.645  0.1089 -0.3505 -0.4601
  402MOL0     C55402   5.876   7.764   9.521  0.5784  0.0656 -0.4417
  402MOL0     C55403   5.871   7.715   9.410 -0.9403 -0.7504 -0.1913
  402MOL0     C55404   6.507   7.619   9.787 -0.0351 -0.5976  0.2479
  402MOL0     C55405   6.646   7.619   9.780  0.0613  0.4325  0.2119
  402MOL0     C55406   6.725   7.589   9.908 -0.4121 -0.2984 -0.1990
  402MOL0     H55407   7.054   7.594   9.332 -0.5298  0.7692 -0.2419
  402MOL0     H55408   7.283   7.677   9.288 -0.7450 -0.0675 -0.1365
  402MOL0     H55409   7.472   7.760   9.252  0.2133 -0.8552  0.2955
  402MOL0     H55410   7.523   7.754   9.419 -0.1352  0.4541  0.5109
  402MOL0     H55411   7.592   8.015   9.381  0.9906  0.4365 -1.1680
  402MOL0     H55412   7.701   7.888   9.327  1.1690  1.1180 -2.2113
  402MOL0     H55413   7.668   8.057   9.139 -1.8096  1.3527 -1.7666
  402MOL0     H55414   7.603   7.902   9.091  1.3474 -0.4844  0.0325
  402MOL0     H55415   7.427   8.116   9.201 -5.6405 -0.7316 -1.0609
  402MOL0     H55416   7.491   8.130   9.034 -2.4560 -0.3002 -0.4030
  402MOL0     H55417   7.315   7.907   9.130 -0.8389  1.2674  0.3808
  402MOL0     H55418   7.405   7.889   8.990  0.2850 -0.1047  0.6792
  402MOL0     H55419   7.312   8.085   8.882  2.5520  0.3678  1.9372
  402MOL0     H55420   7.195   7.953   8.928  0.2141  0.2544 -0.1653
  402MOL0     H55421   7.117   8.196   8.965 -0.9936 -0.5477 -0.1278
  402MOL0     H55422   7.234   8.201   9.096  0.1506  0.6122 -0.9426
  402MOL0     H55423   7.132   8.003   9.209 -0.3349  1.0745  1.9567
  402MOL0     H55424   7.047   8.158   9.204  0.0369  0.6154 -0.1107
  402MOL0     H55425   6.918   8.130   8.919  2.6503  0.3399 -0.0461
  402MOL0     H55426   6.843   7.907   8.716  0.1455 -1.7037  0.9738
  402MOL0     H55427   6.680   7.963   8.768  0.0631  1.6581  2.7986
  402MOL0     H55428   6.788   7.678   8.780 -0.3753 -0.0514 -1.7250
  402MOL0     H55429   6.642   7.739   8.868 -3.6782 -0.3182 -2.2652
  402MOL0     H55430   6.686   7.788   8.564 -0.1271  0.0877 -0.8996
  402MOL0     H55431   6.670   7.619   8.622  0.2078 -0.8760  2.2230
  402MOL0     H55432   6.455   7.640   8.603  2.6169 -0.1619 -1.5583
  402MOL0     H55433   6.470   7.741   8.755  2.9380  2.9504  0.2857
  402MOL0     H55434   6.226   7.704   8.672 -1.1009 -0.0681 -0.5304
  402MOL0     H55435   5.890   7.808   8.708 -0.1870 -1.5497 -0.3267
  402MOL0     H55436   5.970   7.816   8.869 -2.4371 -0.9989  0.1876
  402MOL0     H55437   6.017   7.688   8.752 -0.0290  0.5155 -1.4821
  402MOL0     H55438   5.722   8.159   8.411  3.8107  2.0735  3.1930
  402MOL0     H55439   5.486   8.174   8.390 -1.7906 -2.2677  0.5431
  402MOL0     H55440   5.275   8.224   8.391  1.0478 -1.3034 -0.0225
  402MOL0     H55441   5.256   8.074   8.473  2.1704 -0.9592  1.6159
  402MOL0     H55442   5.106   8.335   8.546  1.1385 -0.5652  1.1766
  402MOL0     H55443   5.062   8.234   8.406  3.3373 -1.3622 -1.3858
  402MOL0     H55444   5.075   8.142   8.709 -1.2740 -0.4123  1.0362
  402MOL0     H55445   5.061   8.042   8.572 -0.5722 -0.5400  0.2729
  402MOL0     H55446   4.851   8.160   8.498 -0.6647 -1.1183  0.8181
  402MOL0     H55447   4.868   8.286   8.618 -1.1540 -0.0593 -1.0881
  402MOL0     H55448   4.843   8.100   8.798  2.8723 -2.1205 -1.4198
  402MOL0     H55449   4.699   8.174   8.700  0.9380  1.5748 -0.4771
  402MOL0     H55450   4.838   7.916   8.669 -0.6048 -0.0701  1.3060
  402MOL0     H55451   4.715   7.973   8.554  1.8828  2.2022 -1.0227
  402MOL0     H55452   4.557   7.978   8.782 -0.1670 -0.4492 -1.1181
  402MOL0     H55453   4.698   7.879   8.843  1.0004 -0.7596 -0.5874
  402MOL0     H55454   4.508   7.742   8.757 -0.5662 -0.8923 -1.3460
  402MOL0     H55455   4.671   7.717   8.689 -0.6384 -1.8574 -0.4593
  402MOL0     H55456   5.457   8.176   8.822  1.8291  0.4660  0.9560
  402MOL0     H55457   5.680   8.102   8.840  1.1739  0.3515  0.2061
  402MOL0     H55458   6.141   8.189   8.634  0.9719  0.4166  3.1229
  402MOL0     H55459   6.374   8.111   8.586 -0.4414  0.3574 -0.3309
  402MOL0     H55460   7.204   8.005   9.565 -0.1771 -0.3578  1.4688
  402MOL0     H55461   6.980   7.908   9.611  2.0591  1.0649  0.9602
  402MOL0     H55462   6.670   7.693   9.459 -1.7259  0.5737  0.6507
  402MOL0     H55463   6.408   7.672   9.477  0.3360 -2.4828 -0.3759
  402MOL0     H55464   6.219   7.573   9.874  0.8210  0.3904  1.5054
  402MOL0     H55465   6.248   7.743   9.833 -1.8144  1.4692 -3.3010
  402MOL0     H55466   6.005   7.674   9.865  0.4914  1.3676 -0.6587
  402MOL0     H55467   6.007   7.597   9.705 -4.7627  1.7230 -0.3259
  402MOL0     H55468   6.065   7.882   9.769  1.8302  1.1140 -0.4910
  402MOL0     H55469   6.103   7.811   9.611 -2.0126  0.0309 -0.9329
  402MOL0     H55470   5.906   7.948   9.611  1.0762 -0.2711 -0.1381
  402MOL0     H55471   5.824   7.833   9.721 -0.0633 -1.4574 -0.7802
  402MOL0     H55472   5.858   7.673   9.312 -2.9963 -3.1190  0.9670
  402MOL0     H55473   6.468   7.622   9.888 -2.3912  3.9803 -0.5484
  402MOL0     H55474   6.813   7.654   9.910 -0.8830  0.3817  2.5481
  402MOL0     H55475   6.670   7.620   9.997 -2.4810 -0.9740 -1.1771
  402MOL0     H55476   6.761   7.485   9.915  1.1101 -0.0612 -2.9934
  403MOL0     O55477   2.483   5.988   3.195  0.5472  0.0358 -0.2963
  403MOL0     C55478   2.493   6.109   3.210  0.3966  0.0461  0.0495
  403MOL0     O55479   2.427   6.187   3.313 -0.7130  0.1429 -0.0985
  403MOL0     C55480   2.371   6.114   3.407  0.5012 -0.1967  0.1355
  403MOL0     C55481   2.229   6.096   3.416  0.6177  0.0179  0.2924
  403MOL0     C55482   2.181   6.002   3.505  0.0315 -0.7183 -0.4928
  403MOL0     C55483   2.272   5.943   3.594  0.0051 -0.2228  0.5506
  403MOL0     O55484   2.206   5.861   3.681 -0.6870 -0.2810 -0.6188
  403MOL0     C55485   2.272   5.736   3.696 -0.2961 -0.2646 -0.3109
  403MOL0     C55486   2.206   5.649   3.805 -0.2347  0.2428 -0.3432
  403MOL0     C55487   2.265   5.697   3.936 -0.2432 -0.5526  0.2116
  403MOL0     C55488   2.208   5.612   4.047 -0.2238  1.5398 -0.7128
  403MOL0     C55489   2.248   5.656   4.193  0.7401 -0.1916  0.3899
  403MOL0     C55490   2.159   5.764   4.251 -0.4762 -0.4741  0.2266
  403MOL0     C55491   2.198   5.786   4.397 -0.2887 -0.3623  0.4541
  403MOL0     C55492   2.108   5.700   4.490 -0.0273 -0.6769 -0.5740
  403MOL0     N55493   2.159   5.709   4.626 -0.3968 -0.4474  0.6148
  403MOL0     C55494   2.129   5.803   4.725 -0.3820 -0.1237 -0.0363
  403MOL0     C55495   2.218   5.766   4.827  1.8021 -0.0890 -0.0154
  403MOL0     C55496   2.214   5.833   4.965 -0.0679  0.0161 -0.2569
  403MOL0     C55497   2.356   5.871   5.013 -0.2709  0.3076 -0.1297
  403MOL0     C55498   2.366   5.854   5.164  0.3248  0.6263 -0.1333
  403MOL0     C55499   2.395   5.720   5.215  0.6771  0.8136 -0.2032
  403MOL0     O55500   2.280   5.637   5.243  0.1838  0.4142  0.3041
  403MOL0     C55501   2.189   5.647   5.347 -0.4797  1.2572 -0.1978
  403MOL0     C55502   2.233   5.631   5.475 -1.0831  0.8091 -0.1387
  403MOL0     C55503   2.151   5.640   5.588 -0.1019 -0.2828 -0.7927
  403MOL0     C55504   2.218   5.613   5.722  0.1034 -1.2661 -0.3761
  403MOL0     C55505   2.014   5.657   5.565  0.1235  0.2954  0.3679
  403MOL0     C55506   1.920   5.658   5.680 -0.3800  0.3007 -0.9275
  403MOL0     O55507   1.802   5.585   5.681 -0.3908  0.3254  0.0800
  403MOL0     C55508   1.803   5.469   5.612  0.4013  0.2384 -0.1626
  403MOL0     C55509   1.692   5.430   5.534 -0.5621  0.4194  0.0541
  403MOL0     C55510   1.684   5.295   5.481  0.2080 -0.3980 -0.2029
  403MOL0     C55511   1.787   5.201   5.508  0.6059  0.0695 -0.4285
  403MOL0     O55512   1.802   5.070   5.452  0.3622  0.0434 -0.7323
  403MOL0     C55513   1.719   5.034   5.343 -0.4776  0.4128 -0.0851
  403MOL0     C55514   1.754   4.893   5.292 -1.1728 -0.3146 -0.2595
  403MOL0     C55515   1.742   4.786   5.406  0.9072  0.2645  0.5857
  403MOL0     C55516   1.758   4.642   5.358 -0.2991  0.2076 -0.1635
  403MOL0     C55517   1.661   4.545   5.408  0.3489 -0.2465 -0.5122
  403MOL0     C55518   1.680   4.405   5.343  0.1674  0.2110 -0.3315
  403MOL0     C55519   1.610   4.291   5.418 -0.4352 -0.6475 -0.5178
  403MOL0     C55520   1.460   4.312   5.440 -0.5799  0.7973  0.6490
  403MOL0    Cl55521   1.347   4.261   5.301 -0.5301 -0.4726  0.7016
  403MOL0     C55522   1.895   5.243   5.584 -0.7204 -0.0201  0.4410
  403MOL0     C55523   1.902   5.367   5.638  0.3536  0.0655 -0.5928
  403MOL0     O55524   1.942   5.735   5.772 -0.3070  0.8750 -0.2475
  403MOL0     C55525   1.973   5.657   5.425  0.9038 -0.1403  0.1959
  403MOL0     C55526   2.059   5.656   5.322  0.5845  0.4391  0.6356
  403MOL0     N55527   2.282   5.652   4.792  0.4184  0.4042 -0.2895
  403MOL0     N55528   2.254   5.622   4.671  0.7184 -0.2883 -0.2344
  403MOL0     C55529   2.411   5.972   3.595  0.3493 -0.5395 -0.3131
  403MOL0     C55530   2.452   6.064   3.505 -0.9365 -0.0337 -0.1299
  403MOL0     C55531   2.606   6.179   3.135  0.5408 -0.0330  0.3981
  403MOL0     C55532   2.643   6.316   3.166 -0.1319  0.0132 -0.1261
  403MOL0     C55533   2.754   6.371   3.110 -0.0272 -0.1969  0.0073
  403MOL0     C55534   2.830   6.312   3.012 -0.3629 -0.6814  0.9453
  403MOL0     O55535   2.926   6.364   2.938  0.3270  0.0617  0.3835
  403MOL0     C55536   2.958   6.503   2.979 -0.0562  1.1056 -0.1565
  403MOL0     C55537   3.091   6.553   2.900  0.5885  0.2133 -0.2500
  403MOL0     C55538   3.209   6.456   2.908  0.8545 -0.6155  0.2307
  403MOL0     C55539   3.279   6.456   2.773  0.9137 -0.1212  0.4645
  403MOL0     C55540   3.414   6.409   2.799 -0.1692  0.0955 -0.2641
  403MOL0     C55541   3.522   6.356   2.802 -0.5146  0.6035 -0.7932
  403MOL0     C55542   2.794   6.181   2.976  0.1539 -0.3724 -0.7426
  403MOL0     C55543   2.687   6.115   3.031 -0.5337  0.5371  0.2043
  403MOL0     C55544   2.663   5.964   2.992 -0.9488 -0.3422  0.2112
  403MOL0     H55545   2.167   6.135   3.336  0.4457 -2.6972 -1.0315
  403MOL0     H55546   2.075   5.981   3.510 -0.4288  1.6857  2.6317
  403MOL0     H55547   2.380   5.728   3.710 -0.7881 -3.9179  3.3220
  403MOL0     H55548   2.253   5.678   3.605 -0.8543 -2.4499  1.1314
  403MOL0     H55549   2.097   5.648   3.796 -0.1235 -1.7515 -2.1812
  403MOL0     H55550   2.242   5.549   3.780 -1.5619 -0.6344  1.0494
  403MOL0     H55551   2.373   5.678   3.925 -0.0971 -0.1743  0.9499
  403MOL0     H55552   2.269   5.805   3.952  1.6098  0.1824 -3.7926
  403MOL0     H55553   2.099   5.601   4.052  0.0080 -0.4777  1.1411
  403MOL0     H55554   2.238   5.508   4.030 -0.4595  1.0157  1.7224
  403MOL0     H55555   2.355   5.681   4.199  0.3902  1.5868 -0.0715
  403MOL0     H55556   2.225   5.566   4.252 -1.2306 -2.7435 -3.8332
  403MOL0     H55557   2.176   5.855   4.192  0.6919 -0.9408 -0.1650
  403MOL0     H55558   2.054   5.740   4.233 -0.8025  2.0930 -2.0051
  403MOL0     H55559   2.181   5.892   4.419 -0.4722 -0.0813 -0.9279
  403MOL0     H55560   2.305   5.779   4.419 -0.6503  1.2276  3.2605
  403MOL0     H55561   2.010   5.747   4.480 -0.6297 -1.8672 -0.4781
  403MOL0     H55562   2.111   5.595   4.457  0.6748 -0.3654 -1.5643
  403MOL0     H55563   2.045   5.871   4.734  1.1045  1.8028 -0.2969
  403MOL0     H55564   2.154   5.765   5.026  0.9344 -0.3083  0.3845
  403MOL0     H55565   2.159   5.928   4.960  0.3313  0.2268 -3.7022
  403MOL0     H55566   2.433   5.815   4.960 -0.0258 -1.1032  1.6326
  403MOL0     H55567   2.394   5.973   5.001  0.1025  0.8543  4.1058
  403MOL0     H55568   2.455   5.911   5.191 -0.4355  0.3947  3.3544
  403MOL0     H55569   2.282   5.904   5.214  1.3500  0.7080  1.5699
  403MOL0     H55570   2.436   5.654   5.138  1.9325 -0.0129  1.1087
  403MOL0     H55571   2.472   5.706   5.292  0.9168 -2.9613 -0.9221
  403MOL0     H55572   2.340   5.617   5.485 -1.3602 -0.3264  1.8087
  403MOL0     H55573   2.179   5.521   5.768  1.0147 -0.8927  1.2252
  403MOL0     H55574   2.203   5.685   5.803 -4.1731 -2.2659 -0.0428
  403MOL0     H55575   2.325   5.602   5.703  0.7553 -2.1800  3.1290
  403MOL0     H55576   1.623   5.510   5.509  0.9107  1.4540 -0.8581
  403MOL0     H55577   1.595   5.264   5.426  0.7918 -2.4126 -0.1144
  403MOL0     H55578   1.613   5.020   5.368 -0.7498  0.1176 -1.3353
  403MOL0     H55579   1.722   5.116   5.270 -0.7460  0.4892 -0.0124
  403MOL0     H55580   1.701   4.867   5.200  2.7527 -2.2039 -2.2708
  403MOL0     H55581   1.861   4.901   5.267 -0.8196  0.7361  1.4423
  403MOL0     H55582   1.644   4.797   5.453 -0.3331 -1.4166 -1.4063
  403MOL0     H55583   1.817   4.814   5.480  1.4761 -0.9970  0.5130
  403MOL0     H55584   1.858   4.607   5.386 -0.7283 -1.2491 -0.3319
  403MOL0     H55585   1.753   4.643   5.249  1.5140  2.2732 -0.2811
  403MOL0     H55586   1.671   4.532   5.516  0.8627  0.3882 -0.4757
  403MOL0     H55587   1.566   4.593   5.383 -0.4677  1.1707  4.1934
  403MOL0     H55588   1.786   4.382   5.332  0.5956  2.2895 -1.0608
  403MOL0     H55589   1.635   4.408   5.243  0.8115  1.7311 -0.6007
  403MOL0     H55590   1.673   4.274   5.506  0.0567 -0.3623 -0.8114
  403MOL0     H55591   1.612   4.194   5.368 -0.8792 -0.1108 -1.5951
  403MOL0     H55592   1.432   4.416   5.459  0.8636  1.1421  0.9924
  403MOL0     H55593   1.429   4.243   5.520 -0.3830  1.1599  1.0380
  403MOL0     H55594   1.980   5.178   5.600 -0.7708 -1.3208 -3.5307
  403MOL0     H55595   1.996   5.403   5.678 -2.0442  4.0182  2.2610
  403MOL0     H55596   1.865   5.662   5.416  0.6731 -3.2298  0.2522
  403MOL0     H55597   2.004   5.649   5.228 -1.4310 -1.9013  1.8562
  403MOL0     H55598   2.486   5.937   3.666  1.0999  2.7599  0.6841
  403MOL0     H55599   2.550   6.111   3.500 -1.9777  2.3908  0.8274
  403MOL0     H55600   2.587   6.373   3.240 -3.3490  0.3821 -2.6440
  403MOL0     H55601   2.766   6.476   3.138 -1.2866  0.3727 -1.4717
  403MOL0     H55602   2.871   6.568   2.970 -0.8851  0.2168  1.0495
  403MOL0     H55603   2.976   6.493   3.087 -1.8733  0.6488  0.1360
  403MOL0     H55604   3.129   6.648   2.940 -1.5568  1.1278 -0.2467
  403MOL0     H55605   3.064   6.570   2.795 -1.7273 -1.8108 -0.0701
  403MOL0     H55606   3.288   6.490   2.975  1.4306 -1.3205 -0.0780
  403MOL0     H55607   3.178   6.359   2.949 -0.4951 -0.6830 -0.8670
  403MOL0     H55608   3.281   6.557   2.731 -0.8486 -0.4595 -0.5338
  403MOL0     H55609   3.232   6.386   2.703 -1.7610  1.3869  0.5676
  403MOL0     H55610   3.617   6.306   2.798  0.2530  2.0159 -0.9939
  403MOL0     H55611   2.842   6.137   2.889 -0.4961 -0.5482 -1.0221
  403MOL0     H55612   2.564   5.957   2.945 -0.7658 -2.1456  0.0068
  403MOL0     H55613   2.735   5.917   2.925 -2.1444 -3.4728  0.9215
  403MOL0     H55614   2.679   5.890   3.071 -1.1522 -2.2273 -1.4241
  404MOL0     O55615   1.789   0.909   1.650 -0.6898 -0.4747  0.7897
  404MOL0     C55616   1.682   0.970   1.656 -0.2753 -1.5785 -0.4024
  404MOL0     O55617   1.636   1.050   1.554  0.0457  0.3853  0.1216
  404MOL0     C55618   1.685   1.045   1.423  0.2759  0.2219  0.2143
  404MOL0     C55619   1.692   1.160   1.337  0.6570 -0.5734 -0.3375
  404MOL0     C55620   1.732   1.151   1.203 -0.7297  0.6119  0.8285
  404MOL0     C55621   1.788   1.038   1.156  0.7870  0.2325 -0.8294
  404MOL0     O55622   1.840   1.014   1.028 -0.2829  0.1799  0.4634
  404MOL0     C55623   1.823   1.109   0.918 -0.7228  0.1892 -0.3787
  404MOL0     C55624   1.802   1.031   0.784  0.5223 -0.9003  0.7694
  404MOL0     C55625   1.915   0.941   0.735  0.0691  0.6438 -0.5743
  404MOL0     C55626   2.024   1.025   0.684  0.2953 -0.0738  0.4552
  404MOL0     C55627   2.117   0.945   0.599 -0.1671  1.1810  0.0524
  404MOL0     C55628   2.222   0.845   0.668  0.6363 -0.3334  0.4857
  404MOL0     C55629   2.301   0.892   0.788 -0.2966 -1.2175  0.1782
  404MOL0     C55630   2.442   0.847   0.782  0.0631 -0.3544  0.7055
  404MOL0     N55631   2.491   0.720   0.837 -0.0159 -0.3708  0.5237
  404MOL0     C55632   2.608   0.707   0.903 -0.3170 -0.5686 -0.1005
  404MOL0     C55633   2.620   0.574   0.922  0.1408  0.2311  0.0441
  404MOL0     C55634   2.738   0.511   0.988  0.8688 -0.2312 -0.0372
  404MOL0     C55635   2.822   0.459   0.874 -0.5927  0.8955 -0.5977
  404MOL0     C55636   2.925   0.343   0.930  1.1048 -0.0971 -0.1428
  404MOL0     C55637   2.972   0.266   0.808  0.1693 -1.1714 -0.3009
  404MOL0     O55638   3.088   0.185   0.841  0.4487 -0.5370  0.8883
  404MOL0     C55639   3.201   0.211   0.770  0.1474 -0.2477  0.5147
  404MOL0     C55640   3.262   0.336   0.777  0.2884 -1.1127  0.2534
  404MOL0     C55641   3.381   0.369   0.707 -0.0298  0.9327  1.0594
  404MOL0     C55642   3.426   0.508   0.721 -0.6706 -1.1454 -0.4497
  404MOL0     C55643   3.430   0.263   0.620  0.6716 -0.2260  0.1111
  404MOL0     C55644   3.537   0.288   0.513 -0.3235  0.6323  0.1621
  404MOL0     O55645   3.560   0.188   0.422  0.2897 -0.6623 -0.6997
  404MOL0     C55646   3.666   0.193   0.340  0.4811 -0.5625 -0.4215
  404MOL0     C55647   3.710   0.303   0.273 -0.1060  0.7068 -0.8289
  404MOL0     C55648   3.823   0.305   0.194 -0.5001  0.4048 -0.2864
  404MOL0     C55649   3.895   0.198   0.175  0.4921  0.4855  0.5378
  404MOL0     O55650   3.995   0.208   0.087  0.2482  0.2422  0.2223
  404MOL0     C55651   4.113   0.146   0.119 -0.6237 -0.1492 -0.1850
  404MOL0     C55652   4.227   0.152   0.002  0.2912 -0.3266 -1.0704
  404MOL0     C55653   4.300   0.286   0.001 -0.3113  0.7413 -1.9593
  404MOL0     C55654   4.455   0.281   0.005 -0.1185 -0.2768  0.3991
  404MOL0     C55655   4.524   0.418   0.005 -0.7614  0.6584 -0.4422
  404MOL0     C55656   4.665   0.405   0.072  0.1175 -0.7392 -0.0524
  404MOL0     C55657   4.767   0.524   0.051  0.2589 -0.0475  0.1124
  404MOL0     C55658   4.909   0.504   0.111  0.1043 -0.2274 -0.3240
  404MOL0    Cl55659   4.884   0.480   0.279 -0.0747  0.1277  0.0076
  404MOL0     C55660   3.859   0.078   0.243 -0.6337 -0.1776 -0.4291
  404MOL0     C55661   3.742   0.075   0.326  0.6989  0.1400  0.2508
  404MOL0     O55662   3.596   0.395   0.522 -0.0962  0.7111 -0.3659
  404MOL0     C55663   3.374   0.132   0.615 -0.0995 -0.0986 -0.2443
  404MOL0     C55664   3.264   0.109   0.694 -0.0152 -0.9401  0.0520
  404MOL0     N55665   2.520   0.511   0.860  0.4483 -0.2037  0.0730
  404MOL0     N55666   2.446   0.599   0.807  0.0760 -0.3580  0.0518
  404MOL0     C55667   1.797   0.934   1.243  0.2979  0.6257 -0.3752
  404MOL0     C55668   1.742   0.933   1.364  0.7076  0.3590 -0.9442
  404MOL0     C55669   1.587   0.954   1.767  0.2724  0.2285  0.7329
  404MOL0     C55670   1.487   1.044   1.766  0.8648  0.5691 -0.1271
  404MOL0     C55671   1.377   1.040   1.856 -0.6646  0.5696  0.5574
  404MOL0     C55672   1.375   0.946   1.956 -0.3844  0.3490 -0.3648
  404MOL0     O55673   1.278   0.945   2.061 -0.6763  0.9183 -0.6381
  404MOL0     C55674   1.158   1.019   2.043  0.6465 -1.0229 -0.3579
  404MOL0     C55675   1.061   0.961   1.932 -1.0785 -1.0106 -0.5357
  404MOL0     C55676   0.988   0.838   1.968  0.4083 -0.2977  0.3701
  404MOL0     C55677   1.080   0.719   1.986  0.0617  0.5123 -0.6917
  404MOL0     C55678   1.000   0.592   1.998  0.3548  0.0714  0.8226
  404MOL0     C55679   0.920   0.509   2.016  0.2383  0.4953 -0.9955
  404MOL0     C55680   1.472   0.849   1.949 -0.0768  0.0550  0.2057
  404MOL0     C55681   1.575   0.846   1.851 -0.2629 -0.0105  0.0216
  404MOL0     C55682   1.688   0.733   1.869  0.2867 -0.4383 -0.1054
  404MOL0     H55683   1.663   1.257   1.377 -0.3217 -1.4004  1.0185
  404MOL0     H55684   1.730   1.231   1.130  1.1474  0.1386  0.2047
  404MOL0     H55685   1.911   1.170   0.892  0.2815 -1.2878 -0.5773
  404MOL0     H55686   1.733   1.168   0.937 -2.0180 -0.8089 -2.8815
  404MOL0     H55687   1.715   0.964   0.792  0.0513 -0.5461 -0.9915
  404MOL0     H55688   1.772   1.097   0.703 -0.2731 -0.4683  1.3948
  404MOL0     H55689   1.949   0.874   0.814  0.7974  1.0006 -0.5747
  404MOL0     H55690   1.884   0.867   0.660 -1.8491 -1.6687  2.2774
  404MOL0     H55691   1.993   1.103   0.614 -0.9152 -1.6007 -0.7533
  404MOL0     H55692   2.082   1.070   0.765 -0.7401  0.3669  0.9687
  404MOL0     H55693   2.177   1.008   0.533  1.2218 -1.3710 -1.2962
  404MOL0     H55694   2.060   0.884   0.527  3.1082  0.3751 -2.0950
  404MOL0     H55695   2.169   0.758   0.706  1.5040 -1.7530 -1.3982
  404MOL0     H55696   2.293   0.804   0.595 -0.2607  2.4213 -2.1681
  404MOL0     H55697   2.260   0.872   0.888  1.5421 -1.1222  1.0027
  404MOL0     H55698   2.296   1.002   0.784 -3.3158 -1.1384  2.5041
  404MOL0     H55699   2.476   0.862   0.679 -2.5465  2.4371  0.0773
  404MOL0     H55700   2.490   0.929   0.837 -4.2063  2.5498  0.6461
  404MOL0     H55701   2.666   0.787   0.946 -1.4569 -0.7572  1.9130
  404MOL0     H55702   2.711   0.436   1.063  1.0377  0.1757  0.4361
  404MOL0     H55703   2.783   0.591   1.048  1.1000 -0.9782  0.8142
  404MOL0     H55704   2.748   0.409   0.811 -1.2517 -0.1010  0.8871
  404MOL0     H55705   2.886   0.530   0.821  1.1737  1.3589  1.9477
  404MOL0     H55706   3.010   0.377   0.988  0.2031  1.9705  0.0438
  404MOL0     H55707   2.872   0.263   0.983 -0.9631  1.0842 -0.2902
  404MOL0     H55708   2.892   0.203   0.769 -2.0579  1.2798  0.0767
  404MOL0     H55709   3.007   0.349   0.745  3.1135 -3.4760 -1.9786
  404MOL0     H55710   3.230   0.412   0.848  0.4464  0.1113 -0.9359
  404MOL0     H55711   3.518   0.500   0.779 -1.3507 -1.8895  0.5573
  404MOL0     H55712   3.358   0.580   0.769  0.5873 -0.9027  1.0292
  404MOL0     H55713   3.450   0.549   0.622  2.8158 -2.5469 -0.3086
  404MOL0     H55714   3.656   0.396   0.283 -4.0620 -1.5416  0.6557
  404MOL0     H55715   3.854   0.390   0.134  0.1875 -1.0463 -2.0926
  404MOL0     H55716   4.152   0.188   0.213 -1.8573  3.6685 -1.1827
  404MOL0     H55717   4.098   0.038   0.128  2.9824 -0.8295 -0.6792
  404MOL0     H55718   4.304   0.077   0.019  1.3812  0.6809 -1.4030
  404MOL0     H55719   4.189   0.128  -0.098  2.3350 -1.1610 -1.6850
  404MOL0     H55720   4.286   0.351   0.088  2.8899 -0.9846  0.0636
  404MOL0     H55721   4.255   0.337  -0.084  0.5692 -0.2106 -3.0220
  404MOL0     H55722   4.486   0.226  -0.084 -1.1028  0.0181 -0.1475
  404MOL0     H55723   4.488   0.207   0.078 -1.3520 -0.6718  0.5803
  404MOL0     H55724   4.540   0.469  -0.090 -0.6628 -0.7951 -1.2471
  404MOL0     H55725   4.449   0.471   0.064 -0.3001  1.1231 -0.2585
  404MOL0     H55726   4.718   0.328   0.015  1.1977  0.2995 -0.4955
  404MOL0     H55727   4.660   0.376   0.177  0.8408 -0.2656  0.1125
  404MOL0     H55728   4.722   0.616   0.090  1.4171  0.9026 -0.6923
  404MOL0     H55729   4.789   0.522  -0.056 -0.5732 -3.9267 -0.1323
  404MOL0     H55730   4.972   0.591   0.093  1.9199 -1.6751 -1.2812
  404MOL0     H55731   4.960   0.414   0.073 -0.6934  0.2932 -2.7948
  404MOL0     H55732   3.920  -0.012   0.241 -2.2224 -1.2896 -0.9295
  404MOL0     H55733   3.708  -0.007   0.388  0.0945 -1.0415 -1.5489
  404MOL0     H55734   3.403   0.044   0.558 -2.2412 -1.8736  1.2085
  404MOL0     H55735   3.221   0.011   0.676  0.6607 -0.9215 -2.0610
  404MOL0     H55736   1.844   0.839   1.222 -3.4713 -1.1189 -1.6975
  404MOL0     H55737   1.756   0.835   1.408  0.8380  0.2415 -1.2470
  404MOL0     H55738   1.475   1.125   1.695  0.4522  1.6330  1.0992
  404MOL0     H55739   1.299   1.114   1.841 -2.8490 -2.1846 -4.1323
  404MOL0     H55740   1.103   1.039   2.136  2.1322  1.9956 -0.0213
  404MOL0     H55741   1.181   1.123   2.017  1.0831 -0.6738  1.2995
  404MOL0     H55742   1.130   0.954   1.848 -1.8379  0.9164 -1.3877
  404MOL0     H55743   0.989   1.039   1.905  0.4267  1.8591  2.9344
  404MOL0     H55744   0.918   0.843   2.051  1.1682 -1.3070  1.0903
  404MOL0     H55745   0.930   0.801   1.883 -0.8870  0.7847  0.7531
  404MOL0     H55746   1.133   0.727   2.081  0.4621  2.2011 -1.0319
  404MOL0     H55747   1.150   0.705   1.904  1.2660 -1.7333  0.6206
  404MOL0     H55748   0.841   0.437   2.029 -1.2284  2.2185  0.0927
  404MOL0     H55749   1.465   0.773   2.027 -1.8934 -1.3529 -1.2302
  404MOL0     H55750   1.688   0.671   1.779 -3.3647  1.4859 -1.6814
  404MOL0     H55751   1.786   0.773   1.895  0.5323 -1.6544  0.9449
  404MOL0     H55752   1.649   0.666   1.946 -1.3450  0.6608  0.0724
  405MOL0     O55753   8.019   0.888   9.802  0.7229 -0.5858 -0.7288
  405MOL0     C55754   8.111   0.807   9.780 -0.3308 -0.7051  0.4908
  405MOL0     O55755   8.102   0.715   9.676  0.1654  0.0920 -0.1410
  405MOL0     C55756   7.979   0.663   9.655 -0.0785  0.6236 -0.0623
  405MOL0     C55757   7.969   0.597   9.523 -0.4203  0.1773  0.5844
  405MOL0     C55758   7.856   0.531   9.484 -0.0057  1.3992  0.3658
  405MOL0     C55759   7.751   0.509   9.573 -0.3351 -0.5831  0.1966
  405MOL0     O55760   7.625   0.449   9.541 -1.3381  0.7952  0.6454
  405MOL0     C55761   7.595   0.401   9.407 -0.7417  0.5552  0.3637
  405MOL0     C55762   7.491   0.283   9.425 -0.1770 -0.1197  0.5086
  405MOL0     C55763   7.574   0.161   9.460  0.0435 -1.2402 -0.1719
  405MOL0     C55764   7.496   0.048   9.525 -0.1769 -0.4369 -0.2832
  405MOL0     C55765   7.580  -0.074   9.516  0.3297 -0.3451  0.0366
  405MOL0     C55766   7.504  -0.194   9.587 -0.1147  0.2769 -0.0501
  405MOL0     C55767   7.581  -0.321   9.605  0.1921  0.4906 -0.2206
  405MOL0     C55768   7.583  -0.428   9.490  0.0883  0.6545  1.2382
  405MOL0     N55769   7.622  -0.369   9.364 -0.1387  1.4698 -0.1031
  405MOL0     C55770   7.537  -0.308   9.278  1.1393  0.2228  0.5880
  405MOL0     C55771   7.613  -0.269   9.178 -0.9093  1.1522  0.9294
  405MOL0     C55772   7.570  -0.179   9.067 -0.6465 -0.6325  0.0767
  405MOL0     C55773   7.456  -0.239   8.990 -0.6581 -0.5827  0.2366
  405MOL0     C55774   7.436  -0.172   8.846 -0.3639  0.7633  0.2125
  405MOL0     C55775   7.366  -0.041   8.849 -0.3748 -0.0390 -0.0148
  405MOL0     O55776   7.464   0.053   8.919 -0.1742  0.0616  0.0545
  405MOL0     C55777   7.495   0.175   8.863 -0.0433 -0.2157 -0.2068
  405MOL0     C55778   7.613   0.229   8.887 -0.4139 -0.7772 -0.0515
  405MOL0     C55779   7.652   0.351   8.829  0.4976  0.5195 -0.0754
  405MOL0     C55780   7.785   0.417   8.859 -0.8564 -0.4543  0.3429
  405MOL0     C55781   7.559   0.420   8.741 -0.1570  0.2549  0.0026
  405MOL0     C55782   7.601   0.539   8.664 -0.3371 -0.4883 -0.5599
  405MOL0     O55783   7.709   0.517   8.578  0.7679 -0.7750 -0.0566
  405MOL0     C55784   7.769   0.628   8.531  0.9056  0.7841  0.5494
  405MOL0     C55785   7.730   0.689   8.407  0.3873 -0.3060  0.2246
  405MOL0     C55786   7.800   0.799   8.359 -0.5610 -0.9749 -1.0281
  405MOL0     C55787   7.909   0.846   8.435  0.0603 -0.2084 -0.2433
  405MOL0     O55788   7.982   0.938   8.373  0.3254 -0.5494  0.8284
  405MOL0     C55789   8.120   0.951   8.394  0.6145 -0.4731 -0.0803
  405MOL0     C55790   8.184   1.063   8.317 -0.0011  0.2768  0.0668
  405MOL0     C55791   8.103   1.195   8.359 -0.0814 -0.3481 -0.3927
  405MOL0     C55792   8.161   1.313   8.265  0.4775 -1.4030 -0.7982
  405MOL0     C55793   8.108   1.446   8.328 -0.1889  0.5246  0.5562
  405MOL0     C55794   8.115   1.561   8.227  0.0473  0.3543 -0.8338
  405MOL0     C55795   8.063   1.697   8.279 -0.4679  0.6866 -1.5166
  405MOL0     C55796   8.134   1.813   8.213  0.3204  0.7076  0.8263
  405MOL0    Cl55797   8.065   1.840   8.044 -0.0895  0.5582  0.3956
  405MOL0     C55798   7.942   0.788   8.562 -0.0016  0.2491  0.3825
  405MOL0     C55799   7.871   0.677   8.607  0.2214 -0.7252  0.2434
  405MOL0     O55800   7.554   0.649   8.676  0.0146  0.1416  0.5360
  405MOL0     C55801   7.439   0.356   8.707  0.4823  0.4667  0.3779
  405MOL0     C55802   7.399   0.242   8.776  0.0653 -0.1357  0.1229
  405MOL0     N55803   7.746  -0.311   9.209  0.7338 -0.2806  0.7311
  405MOL0     N55804   7.750  -0.373   9.316 -0.2216  0.5429  0.5999
  405MOL0     C55805   7.764   0.568   9.706  0.1753 -0.2420 -0.5020
  405MOL0     C55806   7.873   0.654   9.739  0.3603  0.6383  0.0964
  405MOL0     C55807   8.240   0.824   9.847 -0.4910 -0.6583 -0.6533
  405MOL0     C55808   8.301   0.704   9.886  0.0040 -1.2036 -0.0259
  405MOL0     C55809   8.441   0.722   9.920  0.3901  0.9347 -0.6460
  405MOL0     C55810   8.507   0.846   9.934 -0.2311  0.5726 -0.5831
  405MOL0     O55811   8.639   0.836   9.962 -0.7457 -0.1184 -0.6594
  405MOL0     C55812   8.696   0.960  10.025  0.3132  0.6593  0.7185
  405MOL0     C55813   8.636   1.008  10.154 -0.1424  0.7139 -0.4143
  405MOL0     C55814   8.678   1.163  10.183  0.0274 -0.0681 -0.4236
  405MOL0     C55815   8.590   1.222  10.290 -0.5711 -0.9017 -1.3752
  405MOL0     C55816   8.455   1.258  10.236 -0.4480  0.0761 -0.4540
  405MOL0     C55817   8.353   1.298  10.191  0.0306 -0.6934  0.0933
  405MOL0     C55818   8.438   0.968   9.910 -0.3789  0.4065 -0.0829
  405MOL0     C55819   8.301   0.955   9.867 -0.2127 -0.3934 -0.4980
  405MOL0     C55820   8.232   1.090   9.833  0.4970  0.0751 -0.3388
  405MOL0     H55821   8.051   0.602   9.452 -2.0274 -0.1121 -1.3790
  405MOL0     H55822   7.844   0.485   9.386  0.0782  4.0644 -0.9983
  405MOL0     H55823   7.678   0.371   9.343 -1.3824  2.5920 -1.5437
  405MOL0     H55824   7.551   0.477   9.341 -1.1747  1.7327  1.9588
  405MOL0     H55825   7.424   0.307   9.508  0.5325  1.4000  0.6889
  405MOL0     H55826   7.435   0.263   9.334 -2.5068 -1.4418  2.1390
  405MOL0     H55827   7.631   0.121   9.376  0.5472 -2.6073  0.7794
  405MOL0     H55828   7.636   0.202   9.540 -0.3599 -0.5242 -0.2181
  405MOL0     H55829   7.499   0.070   9.632  2.4530 -3.0781  0.2940
  405MOL0     H55830   7.395   0.023   9.492 -0.0052 -4.5170  1.7123
  405MOL0     H55831   7.674  -0.050   9.566 -0.5580  3.0490  0.3080
  405MOL0     H55832   7.596  -0.104   9.412  1.9046  0.7368 -0.0799
  405MOL0     H55833   7.471  -0.165   9.687 -1.7133 -3.0464  0.5631
  405MOL0     H55834   7.422  -0.223   9.521 -0.0627  0.5989 -0.2573
  405MOL0     H55835   7.552  -0.368   9.700  0.8613 -0.8612 -0.6501
  405MOL0     H55836   7.685  -0.288   9.616  0.0827  0.6886  0.2607
  405MOL0     H55837   7.658  -0.504   9.511  2.2234  2.5355  0.7768
  405MOL0     H55838   7.483  -0.470   9.477  0.8503 -0.9183  0.1315
  405MOL0     H55839   7.429  -0.294   9.277  1.4605  4.1819 -1.8428
  405MOL0     H55840   7.646  -0.148   8.995 -2.5445  1.8570 -1.0128
  405MOL0     H55841   7.537  -0.089   9.119  0.1966  0.2330 -0.8449
  405MOL0     H55842   7.488  -0.343   8.973  0.2860 -0.4287  1.0016
  405MOL0     H55843   7.360  -0.248   9.042 -0.7350 -2.1121 -0.1075
  405MOL0     H55844   7.535  -0.173   8.800 -1.2236 -2.0500 -1.9262
  405MOL0     H55845   7.373  -0.227   8.775  3.7735  0.6445 -3.8547
  405MOL0     H55846   7.335  -0.005   8.750  1.4262  2.9107  0.3907
  405MOL0     H55847   7.284  -0.065   8.917  0.8829 -3.6091  0.4728
  405MOL0     H55848   7.677   0.178   8.959 -2.5021 -2.4607  0.7457
  405MOL0     H55849   7.823   0.362   8.945  2.1914 -2.0478 -1.8719
  405MOL0     H55850   7.775   0.520   8.895  3.3236  0.2389  0.0036
  405MOL0     H55851   7.862   0.403   8.783 -1.6182  0.7920 -0.7086
  405MOL0     H55852   7.631   0.664   8.371 -0.3116  2.4276  0.0378
  405MOL0     H55853   7.774   0.866   8.278  0.4309 -0.6768 -1.1022
  405MOL0     H55854   8.142   0.978   8.498 -1.8679 -0.3445  0.4912
  405MOL0     H55855   8.181   0.861   8.377  2.5604  0.8650 -0.4515
  405MOL0     H55856   8.289   1.058   8.349  0.2872  0.7246 -0.7705
  405MOL0     H55857   8.177   1.031   8.213 -1.4003  0.3657  0.1192
  405MOL0     H55858   8.122   1.219   8.464 -0.4782  2.2974 -0.8610
  405MOL0     H55859   7.996   1.175   8.343  0.2142 -3.8381  1.0536
  405MOL0     H55860   8.139   1.301   8.159 -4.0422 -4.2039  0.1678
  405MOL0     H55861   8.269   1.322   8.275  0.8440 -0.4376 -4.3217
  405MOL0     H55862   8.007   1.428   8.366 -1.0163  0.1944 -1.6727
  405MOL0     H55863   8.169   1.475   8.414  2.3429  1.2768 -1.3596
  405MOL0     H55864   8.072   1.530   8.131 -2.5824 -2.6826  1.1267
  405MOL0     H55865   8.220   1.578   8.203  0.8180  0.6489  2.3725
  405MOL0     H55866   8.089   1.698   8.385 -3.3634 -2.5498 -0.5934
  405MOL0     H55867   7.953   1.704   8.282 -0.7422 -2.2680  2.3136
  405MOL0     H55868   8.242   1.795   8.219 -0.0465 -3.5767 -1.8325
  405MOL0     H55869   8.104   1.906   8.264 -2.4666 -0.0314  0.6875
  405MOL0     H55870   8.021   0.833   8.621  0.3445  1.9083 -1.2358
  405MOL0     H55871   7.898   0.635   8.703  0.3152 -2.3302 -0.4483
  405MOL0     H55872   7.356   0.399   8.654 -0.5719  0.1907  1.7454
  405MOL0     H55873   7.297   0.206   8.763 -0.4345  0.0242  2.9441
  405MOL0     H55874   7.694   0.549   9.787  1.1483  0.8145  0.6404
  405MOL0     H55875   7.874   0.694   9.840 -0.3567  0.0145  0.3626
  405MOL0     H55876   8.254   0.607   9.872 -1.5874 -0.4540 -0.0927
  405MOL0     H55877   8.489   0.625   9.925 -0.0119  0.7855  0.7524
  405MOL0     H55878   8.801   0.938  10.046  1.2768  0.1214 -3.6876
  405MOL0     H55879   8.691   1.040   9.950 -0.8434  2.4162  2.5846
  405MOL0     H55880   8.663   0.948  10.241 -0.9781 -0.1943 -0.7667
  405MOL0     H55881   8.527   1.021  10.149 -0.2116  0.0988 -0.6202
  405MOL0     H55882   8.780   1.150  10.222  0.0085  0.0349 -0.3416
  405MOL0     H55883   8.672   1.222  10.092 -0.4384 -2.6452 -2.1794
  405MOL0     H55884   8.636   1.316  10.320 -1.8592 -1.3549  2.7571
  405MOL0     H55885   8.588   1.160  10.381 -1.6147  0.0710 -0.7105
  405MOL0     H55886   8.260   1.337  10.153 -0.8957 -3.1520 -0.3680
  405MOL0     H55887   8.487   1.064   9.894 -1.7121  1.0562 -0.3867
  405MOL0     H55888   8.153   1.089   9.757 -1.3334  3.4767  1.2939
  405MOL0     H55889   8.189   1.124   9.927  2.2412 -2.0513  1.3441
  405MOL0     H55890   8.304   1.160   9.790 -0.1675 -0.9250 -3.3515
  406MOL0     O55891   9.035   1.431   7.166  0.3117  0.2757 -0.0145
  406MOL0     C55892   8.914   1.448   7.168  0.0660  0.9663 -0.9081
  406MOL0     O55893   8.833   1.432   7.059  0.6390  0.3033  0.5912
  406MOL0     C55894   8.871   1.460   6.932  0.2396  0.0210  0.0226
  406MOL0     C55895   8.850   1.363   6.836  0.4337  0.2015  0.0979
  406MOL0     C55896   8.913   1.373   6.709  0.5444 -0.1182  0.4297
  406MOL0     C55897   8.970   1.499   6.669  0.9779 -0.6183  0.0802
  406MOL0     O55898   8.994   1.505   6.531  0.0985  0.6171  0.4124
  406MOL0     C55899   9.057   1.626   6.475 -1.1854  0.0574 -0.3568
  406MOL0     C55900   9.161   1.583   6.367 -0.1919 -0.0224  0.2114
  406MOL0     C55901   9.220   1.709   6.307  0.0419 -0.3284  0.1824
  406MOL0     C55902   9.141   1.745   6.170  0.0263  0.2057  0.0767
  406MOL0     C55903   9.188   1.880   6.124 -0.5525 -0.0445 -0.1989
  406MOL0     C55904   9.082   1.940   6.031 -0.8068  0.2880  0.9272
  406MOL0     C55905   9.046   1.855   5.908 -0.6516 -0.0614 -0.0537
  406MOL0     C55906   9.161   1.811   5.821  0.3354 -0.5878 -0.2378
  406MOL0     N55907   9.246   1.917   5.778  0.1923  0.5397 -0.3639
  406MOL0     C55908   9.369   1.941   5.834 -1.1354 -0.1810 -0.0653
  406MOL0     C55909   9.404   2.052   5.772  0.0568 -0.7250 -0.9275
  406MOL0     C55910   9.522   2.146   5.816  1.3565  0.7487  0.5720
  406MOL0     C55911   9.502   2.216   5.952  0.1724  0.3053  0.6094
  406MOL0     C55912   9.411   2.328   5.971  0.3768  0.5301 -0.6255
  406MOL0     C55913   9.447   2.444   5.884 -0.9266  0.4377 -0.4058
  406MOL0     O55914   9.579   2.483   5.924  0.2461 -0.0883  0.1210
  406MOL0     C55915   9.672   2.504   5.824  0.5960  0.3589 -0.5898
  406MOL0     C55916   9.664   2.484   5.693 -0.5466 -0.3578 -0.5134
  406MOL0     C55917   9.774   2.509   5.602  0.5476 -0.1279 -0.1227
  406MOL0     C55918   9.761   2.493   5.450  0.6131 -0.1511 -0.6866
  406MOL0     C55919   9.892   2.552   5.653  0.1604  0.2033 -1.2594
  406MOL0     C55920  10.018   2.574   5.576 -1.0767 -0.1877 -0.3587
  406MOL0     O55921  10.097   2.462   5.540  0.1682  0.4884 -0.8937
  406MOL0     C55922  10.227   2.506   5.511  1.0326 -0.2874  0.3912
  406MOL0     C55923  10.320   2.506   5.608  0.2870 -0.1010 -0.2459
  406MOL0     C55924  10.448   2.560   5.583 -0.6385 -0.0016 -0.2589
  406MOL0     C55925  10.489   2.611   5.463  1.1851  0.6774 -0.1356
  406MOL0     O55926  10.617   2.646   5.452 -0.2501  0.1126  0.4907
  406MOL0     C55927  10.664   2.725   5.339  0.5118 -0.1880 -0.1846
  406MOL0     C55928  10.595   2.861   5.338 -0.2938 -0.6527 -0.9609
  406MOL0     C55929  10.590   2.914   5.184  0.1508  0.0556 -0.6657
  406MOL0     C55930  10.512   3.040   5.180  0.5268 -0.5183  0.2883
  406MOL0     C55931  10.549   3.151   5.280 -0.5453 -0.1726  0.1203
  406MOL0     C55932  10.692   3.192   5.276 -0.7455 -0.3155  0.3071
  406MOL0     C55933  10.724   3.272   5.399 -0.5757  0.1799 -0.6910
  406MOL0     C55934  10.853   3.349   5.396 -1.1190 -0.8258 -1.0236
  406MOL0    Cl55935  10.882   3.405   5.569 -0.0135  0.0115  1.2572
  406MOL0     C55936  10.404   2.599   5.347 -0.2591  0.4692  0.4366
  406MOL0     C55937  10.272   2.549   5.380  0.5449 -0.2855 -0.1473
  406MOL0     O55938  10.038   2.688   5.538  0.3850  0.1373 -0.3135
  406MOL0     C55939   9.899   2.586   5.792  0.0943 -0.0748  0.2186
  406MOL0     C55940   9.790   2.559   5.869 -0.2771 -0.5554 -0.1580
  406MOL0     N55941   9.315   2.088   5.666 -0.4388 -0.4385 -0.3730
  406MOL0     N55942   9.226   2.002   5.674  1.2562 -0.6274  0.6387
  406MOL0     C55943   8.986   1.599   6.772  0.0643  0.0340  0.3495
  406MOL0     C55944   8.938   1.579   6.900 -0.2939 -0.5890 -0.0127
  406MOL0     C55945   8.844   1.441   7.304 -0.1375  0.4364 -1.0055
  406MOL0     C55946   8.707   1.433   7.302  0.4658  0.9720 -0.0188
  406MOL0     C55947   8.629   1.428   7.423  0.5861 -0.1583  0.1448
  406MOL0     C55948   8.689   1.459   7.546 -0.0047  0.7048 -0.1091
  406MOL0     O55949   8.610   1.465   7.658 -0.2733 -0.3695  1.0701
  406MOL0     C55950   8.568   1.598   7.693 -0.4404 -0.9075 -0.2360
  406MOL0     C55951   8.685   1.681   7.765 -0.6860  0.6481  0.7008
  406MOL0     C55952   8.736   1.607   7.892  0.6585  0.3061  0.5685
  406MOL0     C55953   8.841   1.691   7.961  0.1256 -0.4154  0.3305
  406MOL0     C55954   8.949   1.734   7.868  1.6458  1.3163  0.2031
  406MOL0     C55955   9.034   1.753   7.783 -0.3504 -0.8587  0.2432
  406MOL0     C55956   8.827   1.471   7.550 -0.6324  0.8856  0.1232
  406MOL0     C55957   8.903   1.470   7.433 -0.2658  0.2553  0.5343
  406MOL0     C55958   9.042   1.524   7.440  0.3887 -0.4815  1.0330
  406MOL0     H55959   8.813   1.264   6.861 -0.4956  1.2019  3.0912
  406MOL0     H55960   8.911   1.297   6.631  2.0416 -0.2987  0.5338
  406MOL0     H55961   9.112   1.678   6.554  1.2774 -1.9888 -0.5733
  406MOL0     H55962   8.984   1.695   6.432  1.2928  2.1959 -1.4186
  406MOL0     H55963   9.240   1.519   6.408 -1.0876 -1.2837  0.0465
  406MOL0     H55964   9.114   1.525   6.287 -0.5444  0.1285  0.3056
  406MOL0     H55965   9.214   1.794   6.375  2.6022  1.3643 -1.5439
  406MOL0     H55966   9.323   1.684   6.279  0.2716 -0.1381  0.8472
  406MOL0     H55967   9.158   1.663   6.099  0.3778  2.7162 -2.9526
  406MOL0     H55968   9.034   1.747   6.193 -0.0112  0.7782 -0.1297
  406MOL0     H55969   9.285   1.873   6.073 -0.3807 -2.6324  0.3359
  406MOL0     H55970   9.181   1.952   6.205 -4.0360  1.6319 -1.7972
  406MOL0     H55971   8.988   1.963   6.082 -1.9286  1.8610 -1.6911
  406MOL0     H55972   9.121   2.035   5.993 -2.2340 -0.9839 -4.5070
  406MOL0     H55973   8.977   1.908   5.841 -0.1211 -0.7019 -1.1485
  406MOL0     H55974   8.989   1.767   5.943  1.3059 -0.8849  1.2097
  406MOL0     H55975   9.233   1.752   5.879  0.8879  1.8636  1.7613
  406MOL0     H55976   9.133   1.753   5.733 -1.1474 -0.7198  0.3004
  406MOL0     H55977   9.423   1.890   5.912  4.4565 -1.1175 -3.9495
  406MOL0     H55978   9.546   2.213   5.734  5.2928  1.7034  2.3065
  406MOL0     H55979   9.607   2.079   5.826 -0.8496 -2.8522 -2.2449
  406MOL0     H55980   9.474   2.142   6.028 -0.4400  0.4716  0.5512
  406MOL0     H55981   9.605   2.239   5.980  1.2551 -2.5673 -0.6208
  406MOL0     H55982   9.308   2.300   5.946 -0.4603  0.6996  2.2616
  406MOL0     H55983   9.416   2.352   6.078  1.8082 -1.4148 -0.2026
  406MOL0     H55984   9.436   2.412   5.780  0.2263  0.1182 -0.4442
  406MOL0     H55985   9.383   2.529   5.911 -2.3233 -0.0220 -2.0557
  406MOL0     H55986   9.574   2.436   5.655 -0.6725 -0.1535 -0.4784
  406MOL0     H55987   9.721   2.584   5.404 -0.0207 -0.7178 -1.2880
  406MOL0     H55988   9.686   2.418   5.425 -0.8927  1.5625 -1.5343
  406MOL0     H55989   9.850   2.477   5.388 -1.0066 -0.7912 -3.0007
  406MOL0     H55990  10.283   2.476   5.705  0.9211  1.8182  0.6351
  406MOL0     H55991  10.516   2.554   5.667 -0.1155 -1.9008 -0.7696
  406MOL0     H55992  10.771   2.728   5.361 -0.0498 -2.4800  3.9933
  406MOL0     H55993  10.644   2.676   5.243  1.1499  3.1446 -2.1724
  406MOL0     H55994  10.490   2.850   5.364 -0.9403 -0.7531 -3.3881
  406MOL0     H55995  10.640   2.938   5.402 -1.1181  0.6352 -1.8689
  406MOL0     H55996  10.549   2.828   5.131 -0.5641 -1.3762  2.0241
  406MOL0     H55997  10.695   2.923   5.154 -0.1039  3.1693 -0.9098
  406MOL0     H55998  10.405   3.020   5.188  0.8837 -4.9407 -2.4267
  406MOL0     H55999  10.521   3.066   5.074  0.2681 -3.5447 -0.5803
  406MOL0     H56000  10.480   3.232   5.256 -0.2754  1.0565  3.0517
  406MOL0     H56001  10.518   3.116   5.379 -0.9832  1.0905  0.4481
  406MOL0     H56002  10.713   3.241   5.180 -2.9320  1.6701  0.7699
  406MOL0     H56003  10.764   3.109   5.281  1.3312  1.3361 -0.6765
  406MOL0     H56004  10.745   3.203   5.481  0.2628  2.2416  0.9075
  406MOL0     H56005  10.648   3.338   5.442  2.0568  2.1415  1.2980
  406MOL0     H56006  10.841   3.441   5.339 -0.2609  1.1347  1.7718
  406MOL0     H56007  10.942   3.293   5.364 -0.5098  1.3579 -3.4080
  406MOL0     H56008  10.427   2.644   5.251  0.7090 -1.3695 -0.2380
  406MOL0     H56009  10.200   2.544   5.299 -1.6996 -0.0970  1.7420
  406MOL0     H56010   9.988   2.627   5.839  0.0278 -0.0195  0.2937
  406MOL0     H56011   9.794   2.578   5.976  0.3723 -2.3592  0.1629
  406MOL0     H56012   9.042   1.690   6.756  1.9050 -0.8202  1.5306
  406MOL0     H56013   8.957   1.651   6.979  0.4279  1.8435 -2.2710
  406MOL0     H56014   8.655   1.418   7.208  0.3712  3.1412 -0.3733
  406MOL0     H56015   8.523   1.405   7.422  0.2375  1.3671 -1.2109
  406MOL0     H56016   8.531   1.658   7.610 -0.6931 -0.8671 -0.0950
  406MOL0     H56017   8.484   1.588   7.762  0.5533 -0.0852  1.1662
  406MOL0     H56018   8.653   1.783   7.788 -2.0865  0.5584 -0.6150
  406MOL0     H56019   8.768   1.690   7.695  1.3231  1.7700  3.1234
  406MOL0     H56020   8.660   1.592   7.969  0.7546  0.5758  0.7185
  406MOL0     H56021   8.770   1.506   7.868 -0.4920 -0.4634  2.0532
  406MOL0     H56022   8.881   1.631   8.043  2.5407 -0.9662 -1.1431
  406MOL0     H56023   8.785   1.774   8.005 -2.9896 -2.4124  0.4384
  406MOL0     H56024   9.104   1.771   7.704 -0.6182 -0.2511  0.1364
  406MOL0     H56025   8.871   1.492   7.647  1.0716  1.8374 -0.8078
  406MOL0     H56026   9.063   1.555   7.542 -2.5685  1.4637  1.1653
  406MOL0     H56027   9.108   1.441   7.414 -1.9721 -2.5337  1.1677
  406MOL0     H56028   9.057   1.611   7.375 -1.1974 -1.3456 -0.5963
  407MOL0     O56029   2.053   7.372   9.002 -0.5888  0.2299 -0.3035
  407MOL0     C56030   2.099   7.311   9.098 -0.6628 -0.7149  0.0769
  407MOL0     O56031   2.222   7.337   9.149  0.3377  0.4787  0.2390
  407MOL0     C56032   2.281   7.454   9.119  0.6668  0.1430 -0.2611
  407MOL0     C56033   2.263   7.553   9.214 -0.2281  1.1630 -0.3772
  407MOL0     C56034   2.347   7.673   9.218 -0.3768 -0.2215  0.7788
  407MOL0     C56035   2.426   7.693   9.098  1.0788 -0.4840  0.3743
  407MOL0     O56036   2.509   7.800   9.084 -0.1011  0.5578 -0.0376
  407MOL0     C56037   2.453   7.917   9.027 -0.0566  0.8021 -0.1390
  407MOL0     C56038   2.460   8.033   9.129 -0.0272 -0.7023 -1.5791
  407MOL0     C56039   2.429   8.174   9.067  0.0789  1.2178  0.8535
  407MOL0     C56040   2.298   8.179   8.985  0.0409 -0.2269  0.5249
  407MOL0     C56041   2.277   8.315   8.913  0.4144  0.1834 -0.5832
  407MOL0     C56042   2.229   8.290   8.767  0.5154  0.2441 -0.2233
  407MOL0     C56043   2.095   8.214   8.748 -0.3018  0.4915 -0.6272
  407MOL0     C56044   1.981   8.290   8.803 -0.4056  0.3953 -0.3250
  407MOL0     N56045   1.853   8.242   8.756 -0.1709  0.4381  0.1161
  407MOL0     C56046   1.779   8.151   8.821 -0.0102  0.2928 -0.1154
  407MOL0     C56047   1.670   8.132   8.742  0.1162  0.1697  0.7707
  407MOL0     C56048   1.551   8.040   8.754 -0.1820  0.0866 -0.3702
  407MOL0     C56049   1.522   7.981   8.609  0.1150  0.6346 -0.3142
  407MOL0     C56050   1.409   7.870   8.592  0.2685 -0.5624 -0.2159
  407MOL0     C56051   1.280   7.915   8.662 -0.1964  0.3221  0.0593
  407MOL0     O56052   1.230   8.043   8.605 -1.0069 -0.6916  0.4106
  407MOL0     C56053   1.160   8.124   8.692 -0.0002 -0.5811 -0.4577
  407MOL0     C56054   1.068   8.080   8.787  0.1315 -0.6066  0.5369
  407MOL0     C56055   1.011   8.167   8.873 -0.0577 -0.2200 -0.3341
  407MOL0     C56056   0.907   8.111   8.976  0.5259 -0.6191 -0.3151
  407MOL0     C56057   1.049   8.302   8.880 -0.2609 -1.1939  0.4449
  407MOL0     C56058   1.003   8.398   8.976 -0.1488  0.3096  0.5518
  407MOL0     O56059   0.908   8.484   8.939  0.9374  0.2928  0.0040
  407MOL0     C56060   0.898   8.607   8.998  0.1791 -0.4760 -0.4420
  407MOL0     C56061   0.804   8.626   9.096 -0.5405  0.4825 -0.4920
  407MOL0     C56062   0.802   8.745   9.174 -0.0083  0.4854 -0.4777
  407MOL0     C56063   0.886   8.844   9.156 -0.1279 -1.1951 -0.6181
  407MOL0     O56064   0.859   8.966   9.223 -0.8087  0.0933  0.7792
  407MOL0     C56065   0.947   9.080   9.193 -0.7315 -0.6242  0.1767
  407MOL0     C56066   0.890   9.193   9.275 -0.2214 -0.7261 -0.5661
  407MOL0     C56067   0.737   9.213   9.269  0.2047 -0.0648 -1.0895
  407MOL0     C56068   0.683   9.349   9.321 -0.4027  1.0100  0.0501
  407MOL0     C56069   0.531   9.364   9.333 -0.1239  0.4563 -0.5400
  407MOL0     C56070   0.449   9.257   9.427 -0.9680 -0.8809  0.2896
  407MOL0     C56071   0.310   9.311   9.470 -1.0436 -1.3832 -0.3175
  407MOL0     C56072   0.241   9.225   9.578  0.3344 -1.0106  0.4036
  407MOL0    Cl56073   0.332   9.226   9.729 -0.3667 -0.5028 -0.3972
  407MOL0     C56074   0.991   8.823   9.061 -0.1527 -0.1773 -0.0277
  407MOL0     C56075   0.988   8.712   8.973  0.2943  1.3855 -0.2196
  407MOL0     O56076   1.072   8.406   9.078  0.3780 -0.1672 -0.6176
  407MOL0     C56077   1.143   8.350   8.782 -0.0970  0.2482 -0.5062
  407MOL0     C56078   1.204   8.258   8.696  0.2030  0.6207 -0.8113
  407MOL0     N56079   1.675   8.225   8.630 -0.8932 -0.3800 -0.1102
  407MOL0     N56080   1.791   8.286   8.639  0.6929  0.7414 -0.0723
  407MOL0     C56081   2.421   7.606   8.987 -0.6790  0.7914 -0.4233
  407MOL0     C56082   2.358   7.484   9.006  0.5873  0.3622  0.2022
  407MOL0     C56083   2.028   7.204   9.160 -0.1065  0.6298 -0.2670
  407MOL0     C56084   2.099   7.103   9.231  0.5517 -0.3626  0.3177
  407MOL0     C56085   2.041   7.017   9.332  0.3060 -1.0466 -0.1284
  407MOL0     C56086   1.903   7.025   9.338  0.3404 -0.6609  0.3420
  407MOL0     O56087   1.858   6.933   9.419 -0.2506  0.9330 -0.3827
  407MOL0     C56088   1.811   6.972   9.547 -0.5406 -0.0199  0.3564
  407MOL0     C56089   1.701   6.864   9.593 -1.0572  0.3111 -0.2719
  407MOL0     C56090   1.755   6.737   9.660 -0.6926  0.3047 -0.8215
  407MOL0     C56091   1.642   6.654   9.720 -0.0869 -0.5964  0.3300
  407MOL0     C56092   1.579   6.725   9.829  0.7648  0.0722  0.2358
  407MOL0     C56093   1.517   6.765   9.926 -0.2912  1.1398 -0.6122
  407MOL0     C56094   1.817   7.115   9.265 -0.3522  0.4168 -0.2907
  407MOL0     C56095   1.883   7.210   9.183 -0.2095 -0.4683  0.0942
  407MOL0     C56096   1.781   7.303   9.114  0.0256  0.0920  0.7963
  407MOL0     H56097   2.203   7.525   9.300  0.5275 -0.1444 -0.2576
  407MOL0     H56098   2.351   7.747   9.297  2.0774  3.5096 -2.4729
  407MOL0     H56099   2.348   7.909   8.998  0.2974 -3.7922 -0.8525
  407MOL0     H56100   2.504   7.946   8.935 -0.3112 -1.4677 -1.0628
  407MOL0     H56101   2.407   8.012   9.222 -2.0832  0.4441 -2.4375
  407MOL0     H56102   2.556   8.031   9.182 -1.8692 -1.3627  2.0166
  407MOL0     H56103   2.414   8.238   9.155  1.2963  4.3743 -1.0791
  407MOL0     H56104   2.515   8.202   9.006  0.9853  1.6575  2.2693
  407MOL0     H56105   2.303   8.104   8.906  0.6077 -1.6125  1.8117
  407MOL0     H56106   2.213   8.155   9.049  1.9952 -4.5487  1.8625
  407MOL0     H56107   2.376   8.361   8.905  2.1718 -3.3295 -1.1166
  407MOL0     H56108   2.206   8.365   8.979  0.7069 -3.1298  2.5448
  407MOL0     H56109   2.217   8.382   8.710  1.2831  0.6988  0.3349
  407MOL0     H56110   2.304   8.229   8.717 -1.3508 -2.3958  0.0045
  407MOL0     H56111   2.089   8.109   8.779 -0.3294  0.1221 -1.8503
  407MOL0     H56112   2.066   8.197   8.644  0.3055  0.5116 -0.8048
  407MOL0     H56113   1.991   8.287   8.912  1.3142  2.9402 -0.3234
  407MOL0     H56114   1.998   8.393   8.768  1.7730 -0.7422 -3.0282
  407MOL0     H56115   1.807   8.095   8.910  1.2869  0.7136 -0.2380
  407MOL0     H56116   1.473   8.106   8.791 -0.1031 -1.0600  2.0581
  407MOL0     H56117   1.560   7.963   8.832 -0.3546  1.3999  0.9859
  407MOL0     H56118   1.503   8.068   8.544  0.2915  1.0624  0.1998
  407MOL0     H56119   1.618   7.957   8.562 -1.8667 -1.6059 -3.6957
  407MOL0     H56120   1.392   7.838   8.489 -2.0498 -1.4792  0.3830
  407MOL0     H56121   1.420   7.771   8.637 -0.7748 -1.5137 -1.9168
  407MOL0     H56122   1.205   7.835   8.653  2.5807 -2.2803 -2.3211
  407MOL0     H56123   1.302   7.925   8.769  1.0701  0.4313 -0.1959
  407MOL0     H56124   1.035   7.977   8.799 -0.3470 -0.6367 -0.8969
  407MOL0     H56125   0.871   8.195   9.036  3.2833 -1.6383  3.1220
  407MOL0     H56126   0.960   8.038   9.038  2.5306  1.2926  0.3599
  407MOL0     H56127   0.823   8.070   8.918 -0.8476  0.1866  1.0331
  407MOL0     H56128   0.748   8.540   9.130 -0.7894  0.4500 -0.9803
  407MOL0     H56129   0.731   8.741   9.256 -1.2868  1.0222 -1.5106
  407MOL0     H56130   1.050   9.052   9.220  0.1878  3.0045  0.9682
  407MOL0     H56131   0.958   9.098   9.086  1.4885  0.2748  0.4964
  407MOL0     H56132   0.931   9.181   9.376 -0.0369 -0.9181 -0.6604
  407MOL0     H56133   0.942   9.287   9.253  0.0611 -0.2120  2.0262
  407MOL0     H56134   0.695   9.141   9.340  3.2946 -0.0694  0.9527
  407MOL0     H56135   0.696   9.189   9.170 -3.1580 -0.7686  0.3370
  407MOL0     H56136   0.715   9.416   9.241 -2.0022  0.5494 -1.0226
  407MOL0     H56137   0.722   9.378   9.419  3.3620 -0.0415 -0.9778
  407MOL0     H56138   0.509   9.460   9.382 -1.5719  1.0248 -2.1962
  407MOL0     H56139   0.488   9.359   9.233 -1.0576  0.2873 -0.1414
  407MOL0     H56140   0.507   9.222   9.513 -1.1446  3.3785  2.3984
  407MOL0     H56141   0.448   9.164   9.369 -2.8545 -2.3408  2.4825
  407MOL0     H56142   0.248   9.337   9.384  0.7663  0.8703 -1.0574
  407MOL0     H56143   0.336   9.406   9.519 -1.5926 -1.8273  0.8782
  407MOL0     H56144   0.226   9.121   9.549 -0.8103  0.1546 -3.8498
  407MOL0     H56145   0.147   9.279   9.593  1.8070  2.0309 -0.5338
  407MOL0     H56146   1.054   8.905   9.028 -0.2276 -1.4349 -3.6782
  407MOL0     H56147   1.056   8.691   8.892  0.8742 -1.9324  0.9580
  407MOL0     H56148   1.196   8.445   8.785  2.4514 -1.1062  2.1245
  407MOL0     H56149   1.280   8.289   8.626  1.0062 -0.3325 -0.3915
  407MOL0     H56150   2.480   7.634   8.900 -0.5783  4.2037  0.6153
  407MOL0     H56151   2.355   7.407   8.930 -0.7245 -0.5915  1.1652
  407MOL0     H56152   2.207   7.104   9.219  0.6377 -0.3352  1.0777
  407MOL0     H56153   2.107   6.941   9.372  1.2913 -1.4003 -2.2647
  407MOL0     H56154   1.890   6.984   9.622 -1.1360  3.8266  0.6018
  407MOL0     H56155   1.762   7.070   9.550  1.0533  0.8046  2.4661
  407MOL0     H56156   1.637   6.826   9.513  1.3405 -1.8853 -1.2745
  407MOL0     H56157   1.625   6.912   9.656 -2.1287 -2.2855  0.5359
  407MOL0     H56158   1.819   6.678   9.593  2.0583  0.5139  1.4404
  407MOL0     H56159   1.818   6.762   9.746  0.5524 -4.5752 -0.0134
  407MOL0     H56160   1.678   6.557   9.757 -1.4137 -0.2330  2.8319
  407MOL0     H56161   1.568   6.635   9.642  0.3215 -1.4196  0.1307
  407MOL0     H56162   1.491   6.831  10.006  3.2488  4.0483 -1.5835
  407MOL0     H56163   1.711   7.094   9.267 -0.4594  0.6865 -1.7505
  407MOL0     H56164   1.797   7.281   9.008  0.0470 -2.9628  1.3233
  407MOL0     H56165   1.675   7.290   9.137 -0.4693 -0.6687 -1.6476
  407MOL0     H56166   1.813   7.407   9.125 -0.3529  0.0590  2.5666
  408MOL0     O56167   8.422   8.319  11.140 -0.5083  0.0667  0.9724
  408MOL0     C56168   8.406   8.237  11.050  0.2233  0.9725  0.5678
  408MOL0     O56169   8.282   8.181  11.023 -0.0935 -0.0232 -0.6619
  408MOL0     C56170   8.174   8.242  11.080 -0.5405  0.0764  1.2310
  408MOL0     C56171   8.116   8.357  11.030 -0.7188  0.3831  0.3821
  408MOL0     C56172   7.996   8.410  11.079  0.4958  0.6548  0.0102
  408MOL0     C56173   7.912   8.337  11.167  0.3638  0.0284 -0.1243
  408MOL0     O56174   7.786   8.361  11.220 -0.9290 -0.6218  0.0694
  408MOL0     C56175   7.731   8.489  11.189  0.8399 -0.3923 -0.1063
  408MOL0     C56176   7.626   8.523  11.291  0.4947 -0.7062  0.4073
  408MOL0     C56177   7.667   8.486  11.440 -0.5711  0.0427  0.2674
  408MOL0     C56178   7.579   8.535  11.551 -0.4290  0.1441  0.4449
  408MOL0     C56179   7.644   8.486  11.689  0.8848 -0.6329  0.3996
  408MOL0     C56180   7.550   8.536  11.814 -0.0441  0.1432  0.5336
  408MOL0     C56181   7.524   8.683  11.814 -0.6483 -0.5992  0.5119
  408MOL0     C56182   7.486   8.728  11.956  0.2848  0.2224  0.7627
  408MOL0     N56183   7.359   8.665  12.000 -0.2000  0.5771  1.3857
  408MOL0     C56184   7.244   8.675  11.925 -0.7090  0.2836 -0.9412
  408MOL0     C56185   7.178   8.562  11.972 -0.3059 -0.1728 -0.1250
  408MOL0     C56186   7.059   8.507  11.908  0.2811  0.5197 -0.9228
  408MOL0     C56187   7.092   8.381  11.820 -0.6232 -0.0989 -0.2792
  408MOL0     C56188   6.979   8.344  11.730 -0.1421  0.3741  0.7033
  408MOL0     C56189   6.839   8.296  11.779  0.1582 -0.4096 -0.0954
  408MOL0     O56190   6.769   8.234  11.676 -0.2638 -0.1183 -0.1595
  408MOL0     C56191   6.640   8.196  11.711 -1.7176  0.9917 -1.1698
  408MOL0     C56192   6.567   8.137  11.610  1.4273 -1.6129  0.2265
  408MOL0     C56193   6.435   8.096  11.637  0.6614  0.2217  0.3222
  408MOL0     C56194   6.341   8.077  11.504 -0.8119  0.8978 -1.2057
  408MOL0     C56195   6.376   8.107  11.762 -0.7525  0.3630 -0.0329
  408MOL0     C56196   6.236   8.048  11.780 -0.3201  0.1097  0.3331
  408MOL0     O56197   6.166   8.117  11.878 -0.5446  0.3810  0.3894
  408MOL0     C56198   6.037   8.067  11.891 -0.7046  0.0618 -0.2161
  408MOL0     C56199   5.928   8.128  11.807  0.2260 -1.0772 -0.5790
  408MOL0     C56200   5.800   8.067  11.817 -0.2523  0.2297 -0.1594
  408MOL0     C56201   5.780   7.969  11.913  0.2347  0.6746  0.8798
  408MOL0     O56202   5.644   7.923  11.949  0.1002  0.5932 -0.0685
  408MOL0     C56203   5.542   7.911  11.838 -0.7400 -0.6052 -0.8519
  408MOL0     C56204   5.474   7.780  11.863  0.3758  0.9337 -0.0985
  408MOL0     C56205   5.359   7.767  11.764 -0.5107 -0.2200 -0.1227
  408MOL0     C56206   5.253   7.673  11.820  0.8913  0.4163  0.0902
  408MOL0     C56207   5.174   7.579  11.721  0.2111 -0.8537  0.2207
  408MOL0     C56208   5.052   7.656  11.658  1.8613  0.7750  0.3403
  408MOL0     C56209   5.010   7.576  11.524 -0.5130  0.7236  0.3091
  408MOL0     C56210   4.879   7.515  11.551 -0.0058 -0.0594  0.1406
  408MOL0    Cl56211   4.820   7.416  11.413  0.4673  0.4713  0.0498
  408MOL0     C56212   5.884   7.906  11.969 -0.1272  1.0711  0.1024
  408MOL0     C56213   6.012   7.948  11.964  0.0230  0.4595  1.6303
  408MOL0     O56214   6.201   7.948  11.714 -0.0930 -0.1687 -0.0232
  408MOL0     C56215   6.447   8.173  11.864 -1.0148  0.2693  0.2806
  408MOL0     C56216   6.589   8.204  11.837  0.7448 -0.5632 -0.4765
  408MOL0     N56217   7.248   8.484  12.063 -0.7985 -0.2176  0.5350
  408MOL0     N56218   7.352   8.553  12.085  0.3856  0.4591 -0.0595
  408MOL0     C56219   7.968   8.217  11.215  0.4616 -0.5435  0.4784
  408MOL0     C56220   8.097   8.177  11.184  0.0642 -0.2402  0.3092
  408MOL0     C56221   8.509   8.209  10.944 -0.2281 -0.0846  0.4350
  408MOL0     C56222   8.476   8.117  10.844  0.7017 -0.1027 -0.5771
  408MOL0     C56223   8.572   8.077  10.751 -0.2538  1.3085  0.8465
  408MOL0     C56224   8.708   8.115  10.758  0.7063 -0.4073 -0.5924
  408MOL0     O56225   8.782   8.074  10.649 -0.1864  0.3360 -0.1805
  408MOL0     C56226   8.922   8.113  10.636 -0.5717 -0.0240  0.5733
  408MOL0     C56227   8.932   8.251  10.571 -0.8944  0.2381  0.0805
  408MOL0     C56228   9.045   8.233  10.458 -0.6276 -0.6712 -0.9527
  408MOL0     C56229   9.090   8.353  10.383  0.0896 -0.5859  0.4428
  408MOL0     C56230   9.123   8.466  10.469 -0.2604  0.4908  0.1717
  408MOL0     C56231   9.166   8.552  10.546  0.0227 -0.0072  0.1297
  408MOL0     C56232   8.739   8.218  10.850  0.3602  0.2248 -0.2092
  408MOL0     C56233   8.644   8.252  10.943  0.1890 -0.3499  0.5428
  408MOL0     C56234   8.692   8.341  11.057 -0.3792 -0.0687  0.0866
  408MOL0     H56235   8.163   8.421  10.956  0.2414 -2.2437 -1.4505
  408MOL0     H56236   7.953   8.503  11.042 -0.3813  0.4998  0.5899
  408MOL0     H56237   7.690   8.487  11.087 -1.9574  2.3131  0.7846
  408MOL0     H56238   7.814   8.557  11.208 -0.9474  1.3123  2.3339
  408MOL0     H56239   7.596   8.628  11.301 -2.9174 -1.4402 -0.6254
  408MOL0     H56240   7.536   8.471  11.256 -0.6716  2.1290 -1.1208
  408MOL0     H56241   7.668   8.378  11.454 -3.4196 -0.2041 -0.8172
  408MOL0     H56242   7.769   8.518  11.467  0.7823 -0.2506 -3.7445
  408MOL0     H56243   7.557   8.641  11.536  1.7667  0.5427 -0.2988
  408MOL0     H56244   7.484   8.481  11.544 -0.0914 -1.1225  3.5878
  408MOL0     H56245   7.743   8.532  11.689 -0.4053  2.3466 -0.9119
  408MOL0     H56246   7.663   8.378  11.701  0.6416 -0.5145  2.1628
  408MOL0     H56247   7.454   8.485  11.804 -1.0509  2.3458 -2.4562
  408MOL0     H56248   7.599   8.498  11.904 -0.6287  0.1087  0.8413
  408MOL0     H56249   7.448   8.698  11.737 -2.4307 -3.9922  1.3850
  408MOL0     H56250   7.607   8.743  11.776 -2.7454  2.2326  0.1342
  408MOL0     H56251   7.569   8.706  12.024  0.4404  0.4314  0.6409
  408MOL0     H56252   7.479   8.837  11.954 -1.1838  0.1385 -0.8366
  408MOL0     H56253   7.216   8.754  11.856 -0.6305  0.8194 -0.3731
  408MOL0     H56254   7.022   8.577  11.833  1.8541 -0.0694 -2.2931
  408MOL0     H56255   6.991   8.468  11.985  0.3210 -0.8748 -1.5519
  408MOL0     H56256   7.181   8.407  11.762 -2.3967 -0.5086 -3.4139
  408MOL0     H56257   7.116   8.300  11.889  2.1135  2.4644  2.0568
  408MOL0     H56258   6.969   8.434  11.669  3.8488 -0.4672 -1.5228
  408MOL0     H56259   7.018   8.258  11.675  2.5297 -0.1844  3.1949
  408MOL0     H56260   6.853   8.226  11.862  1.1981 -0.4807 -0.3101
  408MOL0     H56261   6.787   8.387  11.809  0.2520 -0.0468 -0.9861
  408MOL0     H56262   6.608   8.145  11.510  3.2025  1.0396  1.0719
  408MOL0     H56263   6.381   8.128  11.416 -2.2368  0.8825 -1.8792
  408MOL0     H56264   6.240   8.107  11.533 -1.2973 -1.4933 -0.2486
  408MOL0     H56265   6.350   7.970  11.487  3.6796  1.0399 -1.1164
  408MOL0     H56266   5.938   8.221  11.751 -1.9802 -0.6404 -0.3355
  408MOL0     H56267   5.716   8.102  11.759 -1.2681 -2.8223 -0.7081
  408MOL0     H56268   5.465   7.988  11.841 -1.3851 -1.2686  1.0044
  408MOL0     H56269   5.580   7.912  11.735  1.9912 -0.6787  0.0619
  408MOL0     H56270   5.550   7.702  11.861  1.0831  1.6175 -2.4206
  408MOL0     H56271   5.447   7.763  11.968  2.1039 -1.1938  0.0563
  408MOL0     H56272   5.411   7.709  11.686  1.2697 -1.4206  1.8525
  408MOL0     H56273   5.326   7.866  11.733 -3.0822 -0.2546  2.1846
  408MOL0     H56274   5.171   7.729  11.867  0.2618 -2.2211  2.4077
  408MOL0     H56275   5.300   7.608  11.894  3.0669 -1.3568 -2.6646
  408MOL0     H56276   5.239   7.553  11.637  0.7102 -0.9785  0.6426
  408MOL0     H56277   5.141   7.489  11.775 -2.5692  0.3523  0.7162
  408MOL0     H56278   5.084   7.758  11.635  1.8314  0.8318  0.5532
  408MOL0     H56279   4.971   7.655  11.731  0.3600  1.8118 -1.2184
  408MOL0     H56280   5.093   7.506  11.507  0.3614  1.6772  0.5477
  408MOL0     H56281   5.016   7.645  11.439 -2.2630 -0.8011 -1.1349
  408MOL0     H56282   4.808   7.595  11.575  1.1824  0.8221  0.8803
  408MOL0     H56283   4.883   7.451  11.639  0.9796  0.1793  0.2872
  408MOL0     H56284   5.874   7.825  12.041  0.0955 -0.7314 -1.7861
  408MOL0     H56285   6.103   7.904  12.003  0.7299  0.7196  0.3178
  408MOL0     H56286   6.411   8.195  11.964 -1.4641  0.2091  0.1338
  408MOL0     H56287   6.644   8.242  11.922  1.0418 -1.0774 -0.4345
  408MOL0     H56288   7.909   8.151  11.278 -0.2229 -0.3273  0.0794
  408MOL0     H56289   8.119   8.080  11.228 -0.1162  0.3356  1.7383
  408MOL0     H56290   8.375   8.079  10.841  1.5489 -2.5011 -3.0092
  408MOL0     H56291   8.545   8.000  10.680 -0.7627 -2.3574  4.5845
  408MOL0     H56292   8.979   8.094  10.728 -0.7652 -2.2494  0.3077
  408MOL0     H56293   8.945   8.026  10.574 -3.1843  0.2725 -0.9687
  408MOL0     H56294   8.965   8.322  10.648  2.3307  0.8935 -1.7475
  408MOL0     H56295   8.839   8.289  10.527 -1.8647 -0.0303  1.8082
  408MOL0     H56296   9.140   8.196  10.499 -0.3979  1.9590  1.1983
  408MOL0     H56297   9.005   8.163  10.385 -0.7371 -0.2365 -1.3197
  408MOL0     H56298   9.005   8.378  10.320 -1.6088 -3.2409  1.4844
  408MOL0     H56299   9.169   8.324  10.312  1.4673 -1.4915  2.2398
  408MOL0     H56300   9.184   8.604  10.638 -1.9474 -1.2365  1.2879
  408MOL0     H56301   8.841   8.255  10.850 -0.1465  1.9226  2.4564
  408MOL0     H56302   8.698   8.286  11.151 -1.5786  1.1719  0.9190
  408MOL0     H56303   8.792   8.373  11.025 -0.6916  0.1549 -0.6901
  408MOL0     H56304   8.624   8.426  11.070 -3.0774 -2.3184  1.7391
  409MOL0     O56305   8.955   7.937  11.033  0.2624  0.4248  0.2891
  409MOL0     C56306   8.865   7.986  11.093 -0.2635 -0.2894 -0.3397
  409MOL0     O56307   8.883   8.091  11.182 -0.0802 -0.3854  0.0474
  409MOL0     C56308   8.982   8.187  11.164  0.5231  0.3170  0.6791
  409MOL0     C56309   8.989   8.280  11.263  0.6045 -0.5789  0.4938
  409MOL0     C56310   9.073   8.389  11.262  0.9679  0.1778 -0.2142
  409MOL0     C56311   9.163   8.392  11.153  0.0311 -0.4200  1.4367
  409MOL0     O56312   9.255   8.494  11.170  0.1664  0.3939  0.1815
  409MOL0     C56313   9.391   8.471  11.127  0.6559 -0.4515 -0.2484
  409MOL0     C56314   9.485   8.405  11.232  0.2192  0.1454 -0.5372
  409MOL0     C56315   9.449   8.460  11.370 -0.6198  0.1570  0.1456
  409MOL0     C56316   9.566   8.432  11.474  0.3312 -0.1150 -0.3341
  409MOL0     C56317   9.595   8.277  11.492  0.2151  0.6816 -0.1994
  409MOL0     C56318   9.692   8.255  11.604  0.2458 -0.7529  1.2157
  409MOL0     C56319   9.710   8.105  11.627 -0.8990 -0.1245  0.7829
  409MOL0     C56320   9.769   8.081  11.767  0.1683 -0.0509  0.3784
  409MOL0     N56321   9.785   7.932  11.794 -0.3670  0.0258 -0.9687
  409MOL0     C56322   9.684   7.829  11.794 -0.1692  0.0789 -0.0422
  409MOL0     C56323   9.743   7.709  11.761 -0.7606  0.1818  1.1531
  409MOL0     C56324   9.679   7.585  11.731  0.1512  0.2669 -0.1848
  409MOL0     C56325   9.735   7.517  11.609 -0.3408  0.3844 -0.0542
  409MOL0     C56326   9.643   7.429  11.542  0.0586 -0.4399  0.5340
  409MOL0     C56327   9.668   7.415  11.391 -1.2065  1.2500  0.9749
  409MOL0     O56328   9.554   7.351  11.333  0.7856  0.3321  0.3446
  409MOL0     C56329   9.568   7.290  11.211  0.7837 -0.2071 -0.2399
  409MOL0     C56330   9.486   7.176  11.187  0.9398 -0.9341 -1.2613
  409MOL0     C56331   9.507   7.094  11.075  0.9892  0.0398  0.5040
  409MOL0     C56332   9.402   6.996  11.052  0.2227  0.3594  0.8925
  409MOL0     C56333   9.615   7.103  10.981  0.5375 -0.6629  0.8477
  409MOL0     C56334   9.639   7.028  10.860  1.1421  0.3688 -0.1996
  409MOL0     O56335   9.699   7.095  10.755  0.7469 -0.3430  0.1804
  409MOL0     C56336   9.718   7.035  10.630  0.1595 -0.0244 -0.8057
  409MOL0     C56337   9.623   6.947  10.576 -1.4541 -0.4159  0.8076
  409MOL0     C56338   9.650   6.892  10.453  1.0320  0.6575 -0.7073
  409MOL0     C56339   9.761   6.922  10.376  0.4678 -0.2194 -0.1485
  409MOL0     O56340   9.770   6.854  10.257 -0.3695  0.1891 -0.1281
  409MOL0     C56341   9.879   6.907  10.174  0.0643  0.3352  0.2371
  409MOL0     C56342   9.879   6.848  10.031  1.1544 -0.1818  0.7766
  409MOL0     C56343   9.894   6.695  10.042 -0.4822 -0.6822  0.3368
  409MOL0     C56344   9.897   6.637   9.903 -0.0428  1.6340  0.5263
  409MOL0     C56345   9.895   6.482   9.894  0.4834 -0.0641 -0.0606
  409MOL0     C56346   9.759   6.434   9.954  0.9144 -0.0361  0.4568
  409MOL0     C56347   9.743   6.281   9.951 -0.1435  0.0496  0.3411
  409MOL0     C56348   9.861   6.212  10.011 -0.1689  0.1808 -0.4758
  409MOL0    Cl56349   9.835   6.035   9.987  0.2480 -0.5457  0.6209
  409MOL0     C56350   9.859   7.001  10.438  0.1181 -0.7909 -0.6242
  409MOL0     C56351   9.839   7.051  10.569  0.4968 -0.9215 -0.4482
  409MOL0     O56352   9.598   6.909  10.851  0.1209 -0.7035 -0.2370
  409MOL0     C56353   9.687   7.215  11.003 -0.2349 -0.1443  0.4151
  409MOL0     C56354   9.671   7.311  11.109  0.2577  0.1456  0.1305
  409MOL0     N56355   9.882   7.734  11.759 -0.4452 -0.3402  0.5185
  409MOL0     N56356   9.906   7.864  11.778 -0.8810  0.5480  0.5690
  409MOL0     C56357   9.162   8.292  11.048  0.0715 -0.4716 -0.0832
  409MOL0     C56358   9.062   8.196  11.047  0.0059 -0.4926 -0.1906
  409MOL0     C56359   8.728   7.928  11.112  0.8189  0.7184 -0.8304
  409MOL0     C56360   8.635   7.992  11.195  0.5497  0.8525  0.4356
  409MOL0     C56361   8.496   7.951  11.213 -0.6720 -0.1268 -0.5368
  409MOL0     C56362   8.450   7.838  11.147  0.3399 -0.3242  0.0128
  409MOL0     O56363   8.314   7.817  11.159 -1.1207  0.8117 -0.3730
  409MOL0     C56364   8.239   7.741  11.066  0.5464 -0.2126 -0.3887
  409MOL0     C56365   8.091   7.742  11.106  0.3591 -0.1538  0.1329
  409MOL0     C56366   8.070   7.661  11.229  0.0743  1.1911 -0.0184
  409MOL0     C56367   8.122   7.514  11.231  0.5349  0.2137 -0.0508
  409MOL0     C56368   8.098   7.431  11.116  0.4462 -0.1270  0.1435
  409MOL0     C56369   8.050   7.367  11.029 -0.4501 -2.0093  0.6752
  409MOL0     C56370   8.539   7.768  11.064 -0.9867  0.1094  0.5944
  409MOL0     C56371   8.674   7.812  11.040 -0.4872 -0.1111 -0.5697
  409MOL0     C56372   8.750   7.723  10.942  0.8293  0.2085 -1.0784
  409MOL0     H56373   8.930   8.265  11.353 -1.3072 -2.2539 -0.9607
  409MOL0     H56374   9.070   8.467  11.337 -1.7065  2.5500 -2.5614
  409MOL0     H56375   9.438   8.567  11.105 -1.1905  0.9861  1.7218
  409MOL0     H56376   9.387   8.404  11.041  1.4870 -0.0749 -0.5914
  409MOL0     H56377   9.457   8.299  11.235  0.3811  0.0948  3.3021
  409MOL0     H56378   9.593   8.405  11.213  0.3669  4.0377 -0.5616
  409MOL0     H56379   9.426   8.567  11.366  2.0916  0.8138 -0.4262
  409MOL0     H56380   9.360   8.406  11.405 -1.6140  2.5208  1.4552
  409MOL0     H56381   9.659   8.472  11.433 -1.0047  1.9214 -1.5615
  409MOL0     H56382   9.536   8.484  11.566  0.0236  0.8273 -0.9495
  409MOL0     H56383   9.638   8.236  11.401 -0.4245 -0.6961  0.0939
  409MOL0     H56384   9.496   8.232  11.502  1.2547 -2.0664 -1.4343
  409MOL0     H56385   9.778   8.320  11.585 -0.6162 -0.3804 -1.9464
  409MOL0     H56386   9.646   8.295  11.695 -1.2064 -1.2311  0.7195
  409MOL0     H56387   9.768   8.060  11.546 -2.6470  0.6964 -1.0198
  409MOL0     H56388   9.613   8.057  11.617 -0.3889 -0.6263 -3.3845
  409MOL0     H56389   9.864   8.134  11.779 -0.2206  0.9649 -0.8585
  409MOL0     H56390   9.698   8.124  11.838  0.4363 -0.1855  0.7320
  409MOL0     H56391   9.577   7.841  11.807 -0.1692 -2.1897  3.0233
  409MOL0     H56392   9.571   7.597  11.724  0.1564  0.9796  0.8114
  409MOL0     H56393   9.712   7.517  11.810  3.7120  0.7060 -1.0910
  409MOL0     H56394   9.789   7.576  11.535  3.2719 -1.8454  0.5591
  409MOL0     H56395   9.806   7.440  11.640 -0.0526  0.4401 -0.5778
  409MOL0     H56396   9.645   7.329  11.588 -0.4754 -1.6122 -1.8417
  409MOL0     H56397   9.546   7.478  11.552 -0.6953 -1.7192 -0.3096
  409MOL0     H56398   9.708   7.503  11.340 -0.2863  1.1581  1.5237
  409MOL0     H56399   9.747   7.341  11.380 -0.1778  2.3973  0.4182
  409MOL0     H56400   9.405   7.153  11.255 -0.1823  0.7448 -1.9573
  409MOL0     H56401   9.376   6.993  10.946 -0.8453 -1.1981  1.1582
  409MOL0     H56402   9.316   7.019  11.116 -0.1211 -0.4330  0.7277
  409MOL0     H56403   9.438   6.893  11.067  1.3443  0.8291  1.5752
  409MOL0     H56404   9.524   6.923  10.614 -1.5830 -0.9610  0.1528
  409MOL0     H56405   9.579   6.817  10.417  0.9197  1.0414 -1.2963
  409MOL0     H56406   9.873   7.014  10.154  3.1562  0.2657 -1.7557
  409MOL0     H56407   9.973   6.886  10.226 -0.7604  2.7603  2.9771
  409MOL0     H56408   9.781   6.873   9.988  1.2723 -0.7892  0.1272
  409MOL0     H56409   9.957   6.897   9.973  1.5475 -0.2812  1.2195
  409MOL0     H56410   9.819   6.646  10.105 -0.0172 -0.5101  1.0316
  409MOL0     H56411   9.995   6.685  10.081  1.8737 -2.1178 -5.1478
  409MOL0     H56412   9.984   6.678   9.851  2.6045  0.7792  3.8726
  409MOL0     H56413   9.815   6.682   9.846 -0.7672 -1.7949 -1.3969
  409MOL0     H56414   9.920   6.459   9.790  0.5648 -1.4184  0.2335
  409MOL0     H56415   9.976   6.451   9.960 -0.9294 -0.3528  1.6110
  409MOL0     H56416   9.672   6.480   9.903  1.1341  0.5788  0.6247
  409MOL0     H56417   9.752   6.466  10.058  1.1111  0.1747  0.4078
  409MOL0     H56418   9.741   6.237   9.851  1.5783 -0.0044  0.3046
  409MOL0     H56419   9.650   6.268  10.007  0.6881  2.4703  2.5312
  409MOL0     H56420   9.870   6.235  10.118  0.9579  0.8969 -0.7050
  409MOL0     H56421   9.951   6.239   9.957 -0.3071 -2.6979 -2.3889
  409MOL0     H56422   9.948   7.017  10.377 -0.8729 -0.2739 -1.9971
  409MOL0     H56423   9.924   7.103  10.613 -0.3131 -2.8520  3.9146
  409MOL0     H56424   9.766   7.250  10.937 -0.7209  2.2330  0.9922
  409MOL0     H56425   9.740   7.395  11.105  0.9319 -0.3314  1.2026
  409MOL0     H56426   9.229   8.297  10.963 -0.4611 -2.4011 -0.6627
  409MOL0     H56427   9.056   8.131  10.961 -0.0945  0.8142 -1.1928
  409MOL0     H56428   8.660   8.087  11.241  0.7066  2.2641 -2.3082
  409MOL0     H56429   8.430   8.017  11.268  0.7184  3.8425 -3.1760
  409MOL0     H56430   8.252   7.782  10.965  0.1636  0.6029 -0.1113
  409MOL0     H56431   8.274   7.637  11.061  0.6338 -0.4275  2.7607
  409MOL0     H56432   8.024   7.711  11.025  0.6872  1.7145 -0.9062
  409MOL0     H56433   8.072   7.847  11.131  2.0701  0.3067 -0.3596
  409MOL0     H56434   8.110   7.715  11.315 -2.3871 -0.0498  2.0598
  409MOL0     H56435   7.962   7.651  11.243 -0.0827  2.4738 -0.1979
  409MOL0     H56436   8.074   7.461  11.314  0.3493 -0.5812 -0.6585
  409MOL0     H56437   8.223   7.514  11.273  1.3453 -1.4131 -1.8478
  409MOL0     H56438   8.024   7.316  10.939 -1.2879 -1.7997  0.7944
  409MOL0     H56439   8.498   7.690  11.000 -2.4493  2.1981 -1.1650
  409MOL0     H56440   8.674   7.708  10.864 -2.9721  2.2455  1.8374
  409MOL0     H56441   8.836   7.772  10.896  2.3522 -2.3947 -1.1735
  409MOL0     H56442   8.767   7.617  10.961 -1.0510 -0.5459 -3.1684
  410MOL0     O56443   3.172   6.193   3.472 -0.0960 -1.0013  0.0612
  410MOL0     C56444   3.107   6.138   3.557  0.2658  0.0448  0.6801
  410MOL0     O56445   3.128   6.147   3.697 -0.1622  0.3887 -1.0442
  410MOL0     C56446   3.254   6.169   3.744 -0.0192 -0.4118  1.1471
  410MOL0     C56447   3.296   6.296   3.788  0.0658 -0.2288 -0.7318
  410MOL0     C56448   3.433   6.311   3.825  0.0785 -0.1514 -0.1891
  410MOL0     C56449   3.530   6.207   3.821  0.2981  0.4083 -0.1794
  410MOL0     O56450   3.656   6.222   3.861 -0.7982 -0.5019 -0.2642
  410MOL0     C56451   3.725   6.325   3.797  0.3257 -0.4717 -0.3387
  410MOL0     C56452   3.825   6.391   3.890 -0.4303 -0.4488  0.3387
  410MOL0     C56453   3.765   6.437   4.027  0.4223  0.2761  0.4266
  410MOL0     C56454   3.870   6.511   4.114 -0.4138  0.6528  0.9266
  410MOL0     C56455   4.000   6.431   4.131 -1.2650 -0.9916  0.9526
  410MOL0     C56456   4.074   6.489   4.245 -1.2535  0.4964  0.4285
  410MOL0     C56457   4.210   6.413   4.268 -0.6957 -1.0659 -0.5406
  410MOL0     C56458   4.307   6.438   4.149 -0.7236  0.1755 -0.4330
  410MOL0     N56459   4.441   6.366   4.163 -0.5694  0.1632 -0.0270
  410MOL0     C56460   4.565   6.416   4.110  0.1200  0.9522  0.2033
  410MOL0     C56461   4.650   6.311   4.135 -0.7648  0.1453  0.0230
  410MOL0     C56462   4.805   6.329   4.128 -0.2233  0.1760 -0.2019
  410MOL0     C56463   4.898   6.252   4.231  1.1695 -0.6341  0.1107
  410MOL0     C56464   4.920   6.110   4.184 -0.1230  0.5052 -0.2079
  410MOL0     C56465   4.992   6.029   4.300 -0.8343  0.9328 -0.1332
  410MOL0     O56466   5.096   6.096   4.368 -0.4370  0.5652  0.2724
  410MOL0     C56467   5.138   6.042   4.495  1.1334  0.2333 -0.0575
  410MOL0     C56468   5.232   6.112   4.567 -0.0800 -0.0312  0.8066
  410MOL0     C56469   5.257   6.084   4.701 -0.6455  0.2195 -0.0376
  410MOL0     C56470   5.373   6.171   4.758  0.1349 -0.1114 -0.8483
  410MOL0     C56471   5.201   5.973   4.767 -0.0946 -0.5559 -0.6283
  410MOL0     C56472   5.226   5.925   4.908  0.1070  0.5260 -0.5225
  410MOL0     O56473   5.290   6.004   4.988  1.2698 -0.8159  0.3775
  410MOL0     C56474   5.330   5.955   5.108  1.3890 -0.3441 -1.3274
  410MOL0     C56475   5.247   5.970   5.218 -0.3959  0.5966 -0.0622
  410MOL0     C56476   5.284   5.921   5.338  0.2457  0.4458  0.7666
  410MOL0     C56477   5.405   5.845   5.353  0.6140 -0.1203 -0.4553
  410MOL0     O56478   5.456   5.788   5.461 -0.7391 -0.1400  0.6401
  410MOL0     C56479   5.380   5.797   5.577  0.5975  0.0112  0.0458
  410MOL0     C56480   5.450   5.716   5.671 -0.4051  0.1051  0.5286
  410MOL0     C56481   5.468   5.563   5.623 -0.2860  0.5612 -0.0442
  410MOL0     C56482   5.584   5.497   5.686 -0.1025  0.2710 -0.1720
  410MOL0     C56483   5.536   5.411   5.804 -0.0446  0.0598  0.0935
  410MOL0     C56484   5.643   5.329   5.883 -0.9620  0.1782  0.6278
  410MOL0     C56485   5.732   5.250   5.786 -0.2570  1.1056 -0.1659
  410MOL0     C56486   5.662   5.155   5.681  0.4270  0.2283 -0.8149
  410MOL0    Cl56487   5.554   5.043   5.746  0.3719  0.2427 -0.7351
  410MOL0     C56488   5.491   5.832   5.240  0.2886 -0.4417  0.0666
  410MOL0     C56489   5.448   5.888   5.116 -0.6820  0.4610 -0.3756
  410MOL0     O56490   5.186   5.814   4.940 -0.5570 -0.5503 -0.6368
  410MOL0     C56491   5.106   5.901   4.686 -0.3758  1.6341 -0.4957
  410MOL0     C56492   5.076   5.927   4.557 -0.7038 -0.6158 -0.2537
  410MOL0     N56493   4.589   6.214   4.204 -0.3591  0.8316  0.6688
  410MOL0     N56494   4.459   6.245   4.219 -0.8564  0.5861  0.8123
  410MOL0     C56495   3.482   6.081   3.788  0.9753 -0.4819 -0.2557
  410MOL0     C56496   3.347   6.060   3.748 -0.2804  0.2113 -0.6615
  410MOL0     C56497   3.021   6.021   3.518 -0.2215  0.1712 -0.1315
  410MOL0     C56498   3.023   5.911   3.601  0.0781  0.6010 -0.6987
  410MOL0     C56499   2.908   5.827   3.603 -0.5111  1.0934  0.4060
  410MOL0     C56500   2.810   5.843   3.509  0.0948  0.7795 -0.2806
  410MOL0     O56501   2.707   5.755   3.522 -1.0037 -0.1350  0.0585
  410MOL0     C56502   2.672   5.683   3.403  0.2149  0.3785  0.7256
  410MOL0     C56503   2.674   5.533   3.428  1.2684  0.6544 -0.4675
  410MOL0     C56504   2.582   5.486   3.538  0.0013 -0.9844  0.4809
  410MOL0     C56505   2.647   5.480   3.684  0.1807  0.4339 -0.4761
  410MOL0     C56506   2.546   5.420   3.769 -0.0762 -0.5922 -0.5687
  410MOL0     C56507   2.480   5.387   3.868  0.0784 -0.4012  0.2512
  410MOL0     C56508   2.832   5.934   3.408  0.6018  0.9141  0.2385
  410MOL0     C56509   2.928   6.035   3.423  0.4950  0.5778  1.4617
  410MOL0     C56510   2.908   6.151   3.323  1.1701 -1.4609  1.2906
  410MOL0     H56511   3.229   6.380   3.804  1.2570  1.1890 -2.6314
  410MOL0     H56512   3.474   6.401   3.868  2.0427  0.4353 -3.0030
  410MOL0     H56513   3.654   6.406   3.780  0.6201 -0.5609 -2.1574
  410MOL0     H56514   3.778   6.290   3.708  0.9273 -1.3508  0.3391
  410MOL0     H56515   3.912   6.326   3.907  1.8890  1.5932 -2.7030
  410MOL0     H56516   3.868   6.473   3.832  2.1183 -3.5744 -2.6345
  410MOL0     H56517   3.687   6.511   4.008  2.6867  2.5926 -0.3301
  410MOL0     H56518   3.726   6.345   4.072  2.8063 -1.8364 -1.4570
  410MOL0     H56519   3.894   6.602   4.058 -2.3000 -0.1679 -1.3868
  410MOL0     H56520   3.832   6.538   4.213 -0.9441  2.3288  0.2924
  410MOL0     H56521   4.057   6.426   4.038  1.6958 -0.2343  2.6249
  410MOL0     H56522   3.970   6.327   4.145  1.1840 -1.8145  0.5490
  410MOL0     H56523   4.090   6.594   4.222  0.2533  0.0546 -0.6818
  410MOL0     H56524   4.008   6.481   4.332 -3.5690 -1.3405 -1.3483
  410MOL0     H56525   4.201   6.305   4.278  2.2542 -1.2103  1.9651
  410MOL0     H56526   4.259   6.443   4.361  0.4498  1.1914 -1.7628
  410MOL0     H56527   4.258   6.392   4.063 -2.7064  0.2152  0.6197
  410MOL0     H56528   4.335   6.542   4.130  1.0481  0.4721  2.9612
  410MOL0     H56529   4.581   6.519   4.078 -1.5644  0.9372 -0.8109
  410MOL0     H56530   4.835   6.433   4.141 -0.6662  0.1812  0.7637
  410MOL0     H56531   4.820   6.287   4.027 -3.3828 -1.0427 -0.2867
  410MOL0     H56532   5.001   6.287   4.222  1.8590 -3.0076 -3.0776
  410MOL0     H56533   4.859   6.258   4.333 -2.6639  1.0973 -1.2625
  410MOL0     H56534   4.822   6.062   4.171 -0.0981  0.4357 -0.1409
  410MOL0     H56535   4.980   6.099   4.094  0.1540 -0.1016  0.0370
  410MOL0     H56536   4.911   5.998   4.367  1.2385 -3.0837  0.8580
  410MOL0     H56537   5.030   5.934   4.261 -3.7430  0.2294 -1.5222
  410MOL0     H56538   5.274   6.200   4.519 -1.3580 -0.5791 -1.4602
  410MOL0     H56539   5.350   6.205   4.859 -2.3340 -4.0558  0.1533
  410MOL0     H56540   5.405   6.247   4.686  1.7228  1.5271  1.4743
  410MOL0     H56541   5.464   6.110   4.768  0.6106  0.7792  0.5731
  410MOL0     H56542   5.153   6.024   5.221 -1.2193 -0.7348  3.6960
  410MOL0     H56543   5.211   5.934   5.417  0.0723 -0.2191  0.7178
  410MOL0     H56544   5.371   5.900   5.612 -1.7960 -0.0954 -0.0895
  410MOL0     H56545   5.278   5.759   5.565  1.2101 -2.8331  2.6114
  410MOL0     H56546   5.543   5.772   5.680  1.4126 -2.4088 -1.1324
  410MOL0     H56547   5.381   5.721   5.756 -1.6763  2.8033 -0.5245
  410MOL0     H56548   5.506   5.563   5.520  0.0774  0.9311  0.0875
  410MOL0     H56549   5.375   5.507   5.628  0.2577 -0.3895 -0.3459
  410MOL0     H56550   5.652   5.572   5.728 -2.7639  1.9371  1.4559
  410MOL0     H56551   5.630   5.440   5.604  1.3822 -1.6509  1.8694
  410MOL0     H56552   5.473   5.468   5.873 -1.5139 -2.5562  1.0472
  410MOL0     H56553   5.468   5.342   5.754  1.9614 -0.1213 -2.6435
  410MOL0     H56554   5.597   5.260   5.954 -2.3982  0.8201  0.3519
  410MOL0     H56555   5.707   5.403   5.933  0.7799  0.8988 -2.4067
  410MOL0     H56556   5.818   5.209   5.840 -0.3798  0.5372 -0.4048
  410MOL0     H56557   5.778   5.330   5.728  3.2908 -0.2852  0.4945
  410MOL0     H56558   5.738   5.094   5.630  0.7155 -0.7863  0.7480
  410MOL0     H56559   5.606   5.211   5.606  0.9963  0.5364 -1.0170
  410MOL0     H56560   5.595   5.802   5.243  0.7758  1.1575  0.1282
  410MOL0     H56561   5.497   5.872   5.020 -1.0210 -1.1814 -0.3112
  410MOL0     H56562   5.041   5.823   4.725  1.6708  0.7554  1.3935
  410MOL0     H56563   5.009   5.865   4.498 -0.2013  0.6665 -2.2978
  410MOL0     H56564   3.560   6.006   3.782  4.3755  2.7901 -0.7786
  410MOL0     H56565   3.316   5.963   3.712 -1.2155  0.3198 -0.1958
  410MOL0     H56566   3.114   5.879   3.650 -0.8491 -2.5559 -0.8487
  410MOL0     H56567   2.899   5.741   3.669 -0.1779  1.2991  0.7198
  410MOL0     H56568   2.575   5.725   3.377  1.1302  2.3603  0.3117
  410MOL0     H56569   2.733   5.715   3.317  0.0190  0.6515  0.6869
  410MOL0     H56570   2.776   5.496   3.443  2.2424  3.1148 -0.6185
  410MOL0     H56571   2.647   5.486   3.333 -4.0791  0.8312  0.6980
  410MOL0     H56572   2.491   5.547   3.535  0.8686  0.6831  3.5173
  410MOL0     H56573   2.557   5.383   3.510 -2.3596 -0.3149 -0.1051
  410MOL0     H56574   2.678   5.579   3.719 -0.0903  1.1077 -2.0709
  410MOL0     H56575   2.742   5.426   3.687  1.1547  2.0814 -0.4517
  410MOL0     H56576   2.431   5.364   3.961  2.1941  0.1481  1.5724
  410MOL0     H56577   2.759   5.934   3.329 -1.0027  1.9330  1.6436
  410MOL0     H56578   2.833   6.132   3.246 -0.0666  0.9414  1.8003
  410MOL0     H56579   2.887   6.239   3.385  0.7710 -0.9967  0.5137
  410MOL0     H56580   2.998   6.183   3.269 -0.9586 -0.5823 -2.0996
  411MOL0     O56581   0.742   9.312   1.595 -0.2987  0.3252  0.6652
  411MOL0     C56582   0.715   9.241   1.692  0.7000 -0.2799  0.8179
  411MOL0     O56583   0.645   9.273   1.798 -0.2221 -0.3031 -0.4319
  411MOL0     C56584   0.615   9.401   1.814  0.5562 -1.3486  0.2445
  411MOL0     C56585   0.707   9.501   1.846  0.6147 -0.3300  0.5267
  411MOL0     C56586   0.665   9.630   1.898 -0.4956  0.6844  0.0390
  411MOL0     C56587   0.526   9.665   1.905  0.1260  0.6374 -0.5401
  411MOL0     O56588   0.472   9.779   1.952 -0.2004  0.6042 -0.2984
  411MOL0     C56589   0.553   9.854   2.048 -0.5695  0.1607 -0.0521
  411MOL0     C56590   0.519   9.808   2.185  0.9928  0.7025  0.2464
  411MOL0     C56591   0.588   9.879   2.303 -0.0951  0.1972 -1.0564
  411MOL0     C56592   0.739   9.868   2.304  0.5229  0.3155 -1.0924
  411MOL0     C56593   0.791   9.951   2.421 -0.5629  0.0997  0.1645
  411MOL0     C56594   0.949   9.942   2.440  0.3360 -0.9833 -0.6970
  411MOL0     C56595   1.013  10.037   2.548 -0.7425 -0.6922 -0.1240
  411MOL0     C56596   1.067   9.966   2.673 -1.0074  0.2008 -0.0040
  411MOL0     N56597   1.125  10.070   2.764  0.0325 -0.4332  0.1311
  411MOL0     C56598   1.051  10.180   2.805 -0.5802  0.2151  1.1764
  411MOL0     C56599   1.151  10.263   2.835 -0.8376  0.2027  0.0629
  411MOL0     C56600   1.126  10.411   2.879  0.3966  0.7883 -0.3107
  411MOL0     C56601   1.129  10.518   2.777 -0.1513  0.1946  0.3752
  411MOL0     C56602   1.039  10.494   2.651  0.6177  0.5601 -0.2380
  411MOL0     C56603   1.096  10.390   2.549 -0.1994 -0.3363 -0.3364
  411MOL0     O56604   1.003  10.381   2.443  0.3912  0.1649  0.2154
  411MOL0     C56605   1.025  10.303   2.324  0.2480  1.1733 -0.3523
  411MOL0     C56606   0.909  10.265   2.256 -0.3143 -0.5099 -0.5512
  411MOL0     C56607   0.906  10.185   2.149 -0.1432 -0.4262  0.7055
  411MOL0     C56608   0.775  10.166   2.068 -0.2833  0.8294  0.7970
  411MOL0     C56609   1.035  10.142   2.095 -0.2537  0.0163 -0.2424
  411MOL0     C56610   1.048  10.060   1.973 -0.0260 -0.1627  1.2888
  411MOL0     O56611   0.949   9.967   1.940  0.7045  0.5079 -0.3484
  411MOL0     C56612   0.966   9.871   1.844 -0.4388 -0.7265 -0.6287
  411MOL0     C56613   1.083   9.794   1.825 -0.0590  0.3509  0.6738
  411MOL0     C56614   1.083   9.693   1.726 -0.0080  0.0360 -0.6053
  411MOL0     C56615   0.992   9.670   1.628  0.5847 -0.5276  0.5871
  411MOL0     O56616   1.025   9.587   1.517  0.1662  0.1888  0.7160
  411MOL0     C56617   0.935   9.572   1.402 -0.6511 -0.5519 -0.4054
  411MOL0     C56618   1.008   9.471   1.309  0.4134  0.2269 -0.5233
  411MOL0     C56619   0.913   9.409   1.201 -0.3733 -0.1012  0.3067
  411MOL0     C56620   0.858   9.521   1.110  0.7139  0.0349  0.0223
  411MOL0     C56621   0.730   9.468   1.054 -0.3956  0.9340 -0.1239
  411MOL0     C56622   0.656   9.553   0.951  0.1799  0.5291 -0.9975
  411MOL0     C56623   0.512   9.512   0.929 -0.8949  0.6384  0.3113
  411MOL0     C56624   0.436   9.604   0.834  0.2003  0.7628 -0.1577
  411MOL0    Cl56625   0.376   9.763   0.900  0.2751 -0.4441 -0.0421
  411MOL0     C56626   0.880   9.755   1.632 -0.0316 -0.3283 -0.0535
  411MOL0     C56627   0.861   9.845   1.746 -0.7397 -0.4990 -0.0372
  411MOL0     O56628   1.150  10.083   1.905  0.6737  0.1081 -0.5144
  411MOL0     C56629   1.153  10.192   2.160 -0.1406 -0.1781  0.9244
  411MOL0     C56630   1.147  10.273   2.272 -0.0317  0.7055 -0.1356
  411MOL0     N56631   1.277  10.210   2.822  0.1587 -0.1647  0.1936
  411MOL0     N56632   1.257  10.089   2.772 -0.2510 -0.6588  0.4593
  411MOL0     C56633   0.439   9.566   1.864 -0.2856 -0.0997  0.9452
  411MOL0     C56634   0.485   9.439   1.823 -0.6879  0.5545  0.3447
  411MOL0     C56635   0.769   9.104   1.672  0.5211  0.8792  0.0383
  411MOL0     C56636   0.864   9.087   1.561  0.2901  0.3118 -0.2613
  411MOL0     C56637   0.937   8.973   1.559 -0.5003 -0.5758  0.3884
  411MOL0     C56638   0.914   8.866   1.639  0.0183 -0.0887 -0.2596
  411MOL0     O56639   1.003   8.764   1.612  0.2047  0.0513 -0.4998
  411MOL0     C56640   0.975   8.622   1.644  0.5660 -0.3559 -0.0404
  411MOL0     C56641   0.842   8.567   1.597 -0.4797  0.8388 -0.1335
  411MOL0     C56642   0.798   8.589   1.448  1.1227 -0.4769  0.2985
  411MOL0     C56643   0.657   8.526   1.416  0.1520  0.3603  1.1456
  411MOL0     C56644   0.607   8.565   1.284  1.0033  1.0778 -1.0870
  411MOL0     C56645   0.558   8.583   1.171  0.1719 -0.6471 -0.5659
  411MOL0     C56646   0.809   8.875   1.736  0.6762  1.2272  1.0639
  411MOL0     C56647   0.740   8.991   1.761 -0.1258 -0.2585  0.0700
  411MOL0     C56648   0.635   8.993   1.863 -0.0400 -0.5115 -0.8226
  411MOL0     H56649   0.815   9.487   1.844  0.5871 -0.6475  0.9286
  411MOL0     H56650   0.738   9.701   1.936  0.8483  0.7947 -2.5169
  411MOL0     H56651   0.533   9.962   2.042 -0.7167  0.2662  1.8815
  411MOL0     H56652   0.661   9.843   2.032 -0.5785 -3.4440  1.4404
  411MOL0     H56653   0.411   9.815   2.194  0.8178 -0.7087 -0.5169
  411MOL0     H56654   0.542   9.701   2.188  1.4275  0.8160  1.3996
  411MOL0     H56655   0.572   9.987   2.312  0.2855  0.1659  0.0854
  411MOL0     H56656   0.547   9.844   2.398 -0.4914  4.2836  0.5012
  411MOL0     H56657   0.780   9.768   2.318  1.0678  0.8052  1.3742
  411MOL0     H56658   0.788   9.913   2.217 -0.1981 -0.1729 -1.7640
  411MOL0     H56659   0.741   9.901   2.504 -1.4940 -0.2421 -0.5860
  411MOL0     H56660   0.751  10.052   2.413 -0.7756 -0.0626 -0.9918
  411MOL0     H56661   0.982   9.839   2.455 -2.8896 -2.1954 -1.3057
  411MOL0     H56662   0.991   9.964   2.342  1.8537 -0.9121 -0.0652
  411MOL0     H56663   0.944  10.112   2.588 -2.8061 -2.2909 -0.5012
  411MOL0     H56664   1.097  10.090   2.503 -1.3996  1.1624  0.7541
  411MOL0     H56665   0.983   9.918   2.723 -1.2825 -0.1485 -0.7931
  411MOL0     H56666   1.136   9.884   2.652 -1.2421 -0.6020  2.1046
  411MOL0     H56667   0.944  10.189   2.820 -1.1745 -2.6904 -0.4635
  411MOL0     H56668   1.196  10.434   2.960 -0.7359 -2.2048  1.7050
  411MOL0     H56669   1.033  10.415   2.936  1.5438 -1.8389  1.9491
  411MOL0     H56670   1.095  10.605   2.833  4.6201  1.7538  1.3250
  411MOL0     H56671   1.231  10.551   2.757  0.4252 -0.8394  1.5078
  411MOL0     H56672   0.938  10.460   2.677  2.0148 -6.6355 -2.0454
  411MOL0     H56673   1.022  10.590   2.601 -1.9256  2.2536  3.4394
  411MOL0     H56674   1.195  10.416   2.511  0.6430 -0.8627  1.3610
  411MOL0     H56675   1.114  10.290   2.589  3.9632  0.3975  0.0825
  411MOL0     H56676   0.810  10.298   2.286 -1.2494 -0.7184 -3.1745
  411MOL0     H56677   0.741  10.063   2.074  4.4301 -1.1932 -1.7033
  411MOL0     H56678   0.797  10.189   1.963 -1.0238  0.4567  0.5553
  411MOL0     H56679   0.698  10.240   2.094 -1.6293  1.2970 -3.6408
  411MOL0     H56680   1.165   9.803   1.896 -0.5436  1.6667  1.1020
  411MOL0     H56681   1.176   9.639   1.734 -0.2045 -0.2034  0.2434
  411MOL0     H56682   0.845   9.523   1.439 -1.1271  1.1488  0.8458
  411MOL0     H56683   0.922   9.674   1.363  0.5207 -0.3255 -0.2221
  411MOL0     H56684   1.086   9.523   1.252  2.5456 -1.6961  0.4538
  411MOL0     H56685   1.052   9.387   1.364  1.9828  0.0778 -1.9360
  411MOL0     H56686   0.832   9.359   1.255 -1.5688  0.7925 -0.6072
  411MOL0     H56687   0.953   9.329   1.138 -2.1219 -2.5652  2.1110
  411MOL0     H56688   0.920   9.547   1.024 -0.2995  1.4390 -0.3100
  411MOL0     H56689   0.845   9.615   1.165  1.7287  0.5885 -0.6638
  411MOL0     H56690   0.745   9.372   1.003  0.8148  2.1610 -2.2406
  411MOL0     H56691   0.672   9.451   1.145  3.8591  1.7631  3.0525
  411MOL0     H56692   0.711   9.538   0.858 -0.7543 -1.2939 -1.3011
  411MOL0     H56693   0.650   9.658   0.981 -1.3303 -0.0606  1.0077
  411MOL0     H56694   0.457   9.495   1.022 -1.6914 -0.8392 -0.3892
  411MOL0     H56695   0.505   9.414   0.881 -0.0775  1.0920 -0.7573
  411MOL0     H56696   0.348   9.545   0.807 -0.4611  2.0978 -1.0089
  411MOL0     H56697   0.499   9.611   0.745  0.6160  0.1770  0.0859
  411MOL0     H56698   0.803   9.757   1.555 -0.1193  1.6147  0.0201
  411MOL0     H56699   0.773   9.908   1.759  0.5564  0.9068  2.6690
  411MOL0     H56700   1.253  10.166   2.128 -0.0749  1.2482 -0.1491
  411MOL0     H56701   1.242  10.294   2.319  0.7993 -2.6528 -0.0286
  411MOL0     H56702   0.331   9.582   1.866 -0.2106  0.5891 -0.0719
  411MOL0     H56703   0.426   9.349   1.807  0.8602 -0.4318 -0.0846
  411MOL0     H56704   0.880   9.162   1.484 -3.4544 -1.0299 -2.6486
  411MOL0     H56705   1.017   8.974   1.487  0.4685  1.2696  1.4058
  411MOL0     H56706   1.047   8.565   1.585  0.1688 -0.0447 -0.8470
  411MOL0     H56707   0.994   8.606   1.751 -0.5379  0.8958  0.3799
  411MOL0     H56708   0.764   8.602   1.666  0.2979 -1.2356  1.9245
  411MOL0     H56709   0.842   8.459   1.613  1.3880  1.0612  1.7169
  411MOL0     H56710   0.797   8.697   1.435  3.1083 -0.6223 -1.7274
  411MOL0     H56711   0.880   8.551   1.386  0.9253 -1.0456  0.3753
  411MOL0     H56712   0.585   8.569   1.487  1.8453  1.7031  2.1384
  411MOL0     H56713   0.665   8.418   1.430 -0.7174 -0.3374 -2.7584
  411MOL0     H56714   0.550   8.606   1.067  3.9411 -1.0251 -1.0920
  411MOL0     H56715   0.778   8.789   1.794 -1.4860  0.5251 -0.9786
  411MOL0     H56716   0.675   9.019   1.961 -0.6371 -1.4759 -0.3120
  411MOL0     H56717   0.560   9.066   1.829  0.6378  0.5297 -0.1348
  411MOL0     H56718   0.582   8.900   1.885 -1.5612  1.0823  3.2036
  412MOL0     O56719  10.052   6.381   5.819  0.7046 -0.2083  0.4023
  412MOL0     C56720  10.044   6.476   5.748 -0.2598  0.2067  0.5642
  412MOL0     O56721  10.097   6.499   5.623  0.5220 -0.0049  0.7719
  412MOL0     C56722  10.169   6.397   5.554 -1.1928 -0.7536 -0.8970
  412MOL0     C56723  10.122   6.303   5.475 -0.6638 -0.0047 -0.8891
  412MOL0     C56724  10.205   6.208   5.409  0.9455  0.0848 -0.5278
  412MOL0     C56725  10.345   6.206   5.423 -0.5975  0.3954 -0.8781
  412MOL0     O56726  10.436   6.125   5.365 -1.3262 -0.5276  0.0990
  412MOL0     C56727  10.387   6.003   5.293  0.0978 -1.0425 -0.4036
  412MOL0     C56728  10.507   5.915   5.267 -0.0374  0.0168  0.3917
  412MOL0     C56729  10.491   5.835   5.141 -0.2690  0.1459  0.6356
  412MOL0     C56730  10.391   5.722   5.144  0.0589  0.4399  0.0107
  412MOL0     C56731  10.398   5.649   5.008 -0.5931  1.1887 -0.2605
  412MOL0     C56732  10.312   5.518   4.996 -0.1453 -0.2549  0.0575
  412MOL0     C56733  10.165   5.523   5.042 -0.0677 -0.0762  0.0467
  412MOL0     C56734  10.076   5.620   4.961 -1.1280  0.4342 -0.4706
  412MOL0     N56735  10.049   5.564   4.830  0.5524 -0.5550  0.2215
  412MOL0     C56736  10.137   5.572   4.725  0.6377  0.2845  0.6874
  412MOL0     C56737  10.082   5.489   4.633 -1.0565 -0.4164 -0.1868
  412MOL0     C56738  10.161   5.463   4.508 -0.0201  0.2913 -0.3360
  412MOL0     C56739  10.137   5.559   4.384 -0.7821  0.3247  0.2261
  412MOL0     C56740  10.196   5.482   4.255  0.2695  0.1242 -0.5134
  412MOL0     C56741  10.317   5.536   4.192  0.2881  0.1627 -0.3351
  412MOL0     O56742  10.427   5.552   4.291  0.9482 -0.1173  0.3607
  412MOL0     C56743  10.525   5.622   4.234  0.6492 -0.9864 -0.6896
  412MOL0     C56744  10.576   5.577   4.113  0.1717 -0.0706 -0.2669
  412MOL0     C56745  10.668   5.658   4.043  0.6481  0.6234 -0.2705
  412MOL0     C56746  10.719   5.615   3.905 -0.5356 -0.7175 -0.2522
  412MOL0     C56747  10.724   5.776   4.106  0.1872 -0.3996 -0.0431
  412MOL0     C56748  10.833   5.860   4.059  0.3455 -0.1365  0.9464
  412MOL0     O56749  10.948   5.787   4.033  0.9586 -0.3383 -0.6422
  412MOL0     C56750  11.074   5.834   4.015  0.0849  0.7373  0.1938
  412MOL0     C56751  11.115   5.966   4.026  0.4912 -0.3159 -0.2195
  412MOL0     C56752  11.250   5.999   4.001  1.1045  0.3726  0.5628
  412MOL0     C56753  11.343   5.906   3.942  0.4237  0.1089  0.7757
  412MOL0     O56754  11.470   5.933   3.900  0.1515 -0.3788 -0.5260
  412MOL0     C56755  11.567   6.002   3.990  0.8884  0.4510  0.3544
  412MOL0     C56756  11.644   6.122   3.937  0.3690 -0.2230  0.0012
  412MOL0     C56757  11.559   6.225   3.868 -0.6095  0.1194 -0.4142
  412MOL0     C56758  11.659   6.317   3.791  0.9743  0.4848  0.8849
  412MOL0     C56759  11.584   6.422   3.705  0.4145 -0.0037  0.0915
  412MOL0     C56760  11.666   6.523   3.643 -0.3242 -0.4367  0.1160
  412MOL0     C56761  11.595   6.567   3.514  0.3120 -0.3481 -0.2048
  412MOL0     C56762  11.654   6.694   3.447  0.9701  0.0201 -0.2609
  412MOL0    Cl56763  11.622   6.837   3.553  0.1752  0.1476 -0.2101
  412MOL0     C56764  11.294   5.772   3.935 -0.0049  0.5945  0.7741
  412MOL0     C56765  11.167   5.741   3.971  0.1204 -0.2062 -0.4467
  412MOL0     O56766  10.814   5.977   4.040 -0.9394 -0.5440 -1.0090
  412MOL0     C56767  10.675   5.813   4.236 -0.7456  0.7747 -0.1112
  412MOL0     C56768  10.567   5.743   4.294 -0.3866  1.0154  0.1308
  412MOL0     N56769   9.965   5.439   4.680  0.2933 -0.5253 -0.5012
  412MOL0     N56770   9.936   5.493   4.792  0.0592  0.5087 -1.0391
  412MOL0     C56771  10.401   6.303   5.507 -0.5258 -0.4640 -0.5271
  412MOL0     C56772  10.312   6.392   5.571 -0.4921  0.3730  0.2874
  412MOL0     C56773   9.949   6.584   5.793  0.3846  0.8200 -0.2443
  412MOL0     C56774   9.872   6.650   5.702  0.1821  0.8036  0.7446
  412MOL0     C56775   9.792   6.756   5.738  0.2343 -1.0814 -0.0426
  412MOL0     C56776   9.771   6.787   5.876  0.2604 -0.0612 -0.4333
  412MOL0     O56777   9.683   6.889   5.900  0.4005 -0.5289 -0.0489
  412MOL0     C56778   9.632   6.900   6.036  0.5868  0.0454  1.0320
  412MOL0     C56779   9.563   7.036   6.056  0.1434  0.2185  0.4482
  412MOL0     C56780   9.678   7.134   6.084  0.2873  0.2165 -0.7274
  412MOL0     C56781   9.620   7.277   6.103  0.0210 -0.3511 -0.3590
  412MOL0     C56782   9.736   7.366   6.104  0.1111  0.3151 -0.1999
  412MOL0     C56783   9.821   7.453   6.128  0.1648  0.0628  0.4961
  412MOL0     C56784   9.838   6.712   5.969 -0.4372  0.0892  0.0839
  412MOL0     C56785   9.939   6.614   5.929 -0.1446 -0.5251 -0.6355
  412MOL0     C56786  10.036   6.586   6.038  0.0645  1.1068  0.0110
  412MOL0     H56787  10.014   6.305   5.467 -0.7683  2.1273  0.2270
  412MOL0     H56788  10.167   6.129   5.345  4.3462 -3.1388  1.0641
  412MOL0     H56789  10.344   6.038   5.199  3.3569 -1.5731 -2.2462
  412MOL0     H56790  10.304   5.961   5.349 -1.8118  2.2916 -0.4295
  412MOL0     H56791  10.602   5.967   5.253 -1.3306  1.6748 -3.6438
  412MOL0     H56792  10.501   5.845   5.351  2.1625 -1.3891 -0.5251
  412MOL0     H56793  10.469   5.902   5.057  0.9640 -0.5628 -0.2944
  412MOL0     H56794  10.590   5.793   5.121 -0.3662 -0.1685  0.8289
  412MOL0     H56795  10.425   5.648   5.217  1.4035 -0.9289 -1.8810
  412MOL0     H56796  10.289   5.755   5.165 -1.0484 -1.3994 -2.0133
  412MOL0     H56797  10.504   5.627   4.996 -0.1919  0.8097  2.8904
  412MOL0     H56798  10.369   5.725   4.935 -0.4421 -1.7105 -3.6020
  412MOL0     H56799  10.322   5.476   4.895  2.7184 -4.8922  1.9658
  412MOL0     H56800  10.362   5.449   5.065 -2.5695 -0.1654  2.0465
  412MOL0     H56801  10.169   5.568   5.141  0.7108 -0.3990  0.1596
  412MOL0     H56802  10.125   5.421   5.051  4.8434 -2.1201  1.7426
  412MOL0     H56803   9.979   5.625   5.012 -1.3269  0.4313 -0.8483
  412MOL0     H56804  10.123   5.719   4.958 -2.2358  1.0470  0.9218
  412MOL0     H56805  10.240   5.607   4.723  0.3027  1.5751 -3.7254
  412MOL0     H56806  10.135   5.359   4.485  1.8721 -0.8287  2.1714
  412MOL0     H56807  10.266   5.441   4.531 -0.0549 -0.4813 -0.8589
  412MOL0     H56808  10.030   5.573   4.365 -0.5271  3.5277  0.5964
  412MOL0     H56809  10.179   5.659   4.396  2.7982 -0.8500 -1.2256
  412MOL0     H56810  10.219   5.382   4.293  0.3476 -0.1474 -1.2685
  412MOL0     H56811  10.115   5.487   4.182  2.2714  3.2758 -2.7928
  412MOL0     H56812  10.350   5.455   4.127  1.2909  0.2302  0.0715
  412MOL0     H56813  10.300   5.626   4.132 -0.5158  0.5197  0.3901
  412MOL0     H56814  10.555   5.476   4.081  1.5915  0.4203 -3.0585
  412MOL0     H56815  10.639   5.571   3.845  0.4107 -3.4340  0.3299
  412MOL0     H56816  10.796   5.537   3.908  0.2221 -0.1004 -2.0448
  412MOL0     H56817  10.747   5.707   3.851  0.4833 -2.0948 -2.2067
  412MOL0     H56818  11.047   6.034   4.076  0.1170  0.4649 -1.7100
  412MOL0     H56819  11.276   6.105   4.001 -2.8024  1.5280 -1.0846
  412MOL0     H56820  11.508   6.039   4.074  1.0706  1.4735  0.0528
  412MOL0     H56821  11.630   5.925   4.035 -0.4852  0.5195  2.5270
  412MOL0     H56822  11.716   6.170   4.004  0.0103 -1.5860  1.4146
  412MOL0     H56823  11.717   6.087   3.863 -0.8968 -2.0605 -0.4512
  412MOL0     H56824  11.511   6.289   3.943 -0.3775 -1.0903  0.8161
  412MOL0     H56825  11.491   6.181   3.796 -0.6695 -0.8150  0.2044
  412MOL0     H56826  11.708   6.244   3.725  1.0487 -1.1966  2.7244
  412MOL0     H56827  11.738   6.364   3.850  1.3699  0.4173  0.4183
  412MOL0     H56828  11.512   6.376   3.636 -0.4900 -0.0355  1.0214
  412MOL0     H56829  11.514   6.475   3.770  1.5991 -0.5791  1.8986
  412MOL0     H56830  11.768   6.489   3.628  0.2771 -0.7798  3.8712
  412MOL0     H56831  11.684   6.619   3.694 -0.0353 -0.6101  0.3419
  412MOL0     H56832  11.496   6.596   3.550  1.7515  4.0876  0.7621
  412MOL0     H56833  11.599   6.489   3.437 -1.8474 -0.0362 -0.6756
  412MOL0     H56834  11.605   6.707   3.350  4.9969  0.3965 -2.4776
  412MOL0     H56835  11.761   6.682   3.425  1.0389  1.0289 -0.5556
  412MOL0     H56836  11.353   5.693   3.891 -0.7308 -0.2435  1.2663
  412MOL0     H56837  11.138   5.636   3.965 -1.5307  0.0232  2.0692
  412MOL0     H56838  10.719   5.889   4.299 -0.2215 -0.0055  0.4851
  412MOL0     H56839  10.522   5.773   4.389  1.4782 -1.6869  2.0145
  412MOL0     H56840  10.505   6.314   5.536 -0.9938 -0.9180  1.4316
  412MOL0     H56841  10.357   6.460   5.643 -0.6680  1.8629 -0.9365
  412MOL0     H56842   9.888   6.624   5.598 -1.9018 -1.5246  0.8963
  412MOL0     H56843   9.739   6.818   5.666  2.2912  0.6623 -0.1454
  412MOL0     H56844   9.549   6.834   6.062 -0.1328  0.8567  0.8265
  412MOL0     H56845   9.712   6.893   6.111  0.9315  1.7610  0.8557
  412MOL0     H56846   9.503   7.027   6.147  0.9989  0.8861  1.0986
  412MOL0     H56847   9.491   7.064   5.978  0.7961 -1.5057 -0.8278
  412MOL0     H56848   9.725   7.094   6.174 -1.9339 -1.7618 -0.3398
  412MOL0     H56849   9.744   7.130   5.997  1.3546 -3.8768  0.0885
  412MOL0     H56850   9.571   7.293   6.200  4.1557  1.6400  1.6825
  412MOL0     H56851   9.548   7.300   6.024 -1.3566 -0.5102  0.8014
  412MOL0     H56852   9.904   7.519   6.141 -0.9488  1.7155 -0.4463
  412MOL0     H56853   9.841   6.737   6.075  3.3043 -2.0693  0.6557
  412MOL0     H56854  10.063   6.480   6.042  2.4480  1.4210 -3.4013
  412MOL0     H56855  10.121   6.650   6.013  1.5383 -2.1134 -4.3103
  412MOL0     H56856  10.003   6.608   6.140  0.5404  1.0770  0.1719
  413MOL0     O56857   1.143   6.648   4.937 -0.4560 -0.4156  0.1559
  413MOL0     C56858   1.048   6.714   4.987 -0.1010 -0.5306 -0.4686
  413MOL0     O56859   0.984   6.820   4.923  0.3552 -0.1494  0.1603
  413MOL0     C56860   1.034   6.854   4.800  1.0941 -0.6941 -0.0973
  413MOL0     C56861   1.037   6.768   4.692  0.9349 -0.6063  1.4682
  413MOL0     C56862   1.094   6.810   4.569 -0.5978  0.0166  0.3228
  413MOL0     C56863   1.150   6.936   4.560  0.3804 -0.7033  0.0816
  413MOL0     O56864   1.221   6.962   4.447  0.4748 -0.8145  0.3080
  413MOL0     C56865   1.287   7.086   4.428 -1.0017  0.6324 -0.0750
  413MOL0     C56866   1.411   7.078   4.338  0.8482  0.6933 -0.4637
  413MOL0     C56867   1.399   7.042   4.193  0.3466  0.0436  0.7292
  413MOL0     C56868   1.281   7.118   4.118  0.0940 -0.3145 -0.2614
  413MOL0     C56869   1.278   7.067   3.976 -0.4896 -0.2387  0.7317
  413MOL0     C56870   1.157   7.110   3.890  0.3810 -0.0182  0.3814
  413MOL0     C56871   1.169   7.053   3.750  0.0347 -0.1633 -0.3545
  413MOL0     C56872   1.133   6.903   3.735 -0.9424  0.2905 -0.6318
  413MOL0     N56873   1.084   6.866   3.597  0.3222 -0.0917 -0.3454
  413MOL0     C56874   0.959   6.817   3.567 -0.0427  0.0365 -0.0061
  413MOL0     C56875   0.967   6.773   3.439  0.0282  1.0362  0.2095
  413MOL0     C56876   0.875   6.721   3.341  0.4876 -0.0089  0.0835
  413MOL0     C56877   0.757   6.811   3.318  0.0182  0.4628 -0.3862
  413MOL0     C56878   0.654   6.771   3.207  0.8630  0.6658 -0.4469
  413MOL0     C56879   0.537   6.858   3.214 -0.2056 -0.4864 -0.5441
  413MOL0     O56880   0.435   6.797   3.136  0.3523 -0.6556 -0.7969
  413MOL0     C56881   0.315   6.856   3.120 -0.7355 -0.4388  1.4721
  413MOL0     C56882   0.217   6.772   3.075  0.5508  0.4165  0.8306
  413MOL0     C56883   0.088   6.811   3.044  0.5030  0.1522  0.2918
  413MOL0     C56884  -0.002   6.718   2.976 -0.6130 -0.2675 -0.7342
  413MOL0     C56885   0.051   6.947   3.071 -0.2257  0.1272  0.8048
  413MOL0     C56886  -0.081   7.005   3.049  0.0182  0.5787 -0.6073
  413MOL0     O56887  -0.090   7.137   3.093  0.5934 -0.1765 -0.6616
  413MOL0     C56888  -0.204   7.206   3.121  0.6285  0.3595 -0.0530
  413MOL0     C56889  -0.322   7.136   3.174  0.2190 -0.0462 -0.9250
  413MOL0     C56890  -0.438   7.201   3.190  1.1705 -0.5680 -0.1335
  413MOL0     C56891  -0.460   7.336   3.143 -0.0016  0.4263 -1.1425
  413MOL0     O56892  -0.575   7.417   3.139  0.4833  0.2010 -0.3018
  413MOL0     C56893  -0.698   7.353   3.181 -0.0062 -0.2026 -0.7680
  413MOL0     C56894  -0.833   7.419   3.140  0.6531 -0.1259 -1.1847
  413MOL0     C56895  -0.829   7.480   2.999  0.3720 -0.0043 -0.3275
  413MOL0     C56896  -0.951   7.557   2.939 -0.5373  0.4116 -0.0166
  413MOL0     C56897  -0.911   7.595   2.797 -0.3152 -0.5523 -0.1064
  413MOL0     C56898  -1.037   7.604   2.705 -0.1138 -1.5947 -0.2580
  413MOL0     C56899  -0.980   7.605   2.561 -0.0864 -1.1850 -0.5600
  413MOL0     C56900  -1.103   7.636   2.469 -0.1903 -0.6611 -0.5029
  413MOL0    Cl56901  -1.201   7.792   2.504 -0.7325  0.1758 -0.4163
  413MOL0     C56902  -0.347   7.404   3.093 -0.0661  0.0602  0.7174
  413MOL0     C56903  -0.223   7.336   3.079 -1.0780 -0.8518 -0.5002
  413MOL0     O56904  -0.168   6.942   2.984 -0.3991 -0.1261  0.4130
  413MOL0     C56905   0.153   7.033   3.120  0.6522 -0.1357  0.4937
  413MOL0     C56906   0.285   6.993   3.143  0.7825 -0.0350 -1.3102
  413MOL0     N56907   1.102   6.783   3.409  0.4447  0.7053 -0.0211
  413MOL0     N56908   1.175   6.830   3.507 -0.0474 -0.6978 -1.4468
  413MOL0     C56909   1.124   7.028   4.664 -0.0058  0.4904 -0.5501
  413MOL0     C56910   1.059   6.987   4.788  0.1999  1.1184 -0.3097
  413MOL0     C56911   0.987   6.686   5.124  0.0961  0.6672 -0.7677
  413MOL0     C56912   0.891   6.772   5.189  0.2922 -0.6463  0.4768
  413MOL0     C56913   0.840   6.742   5.311 -0.4972  0.0467 -1.2810
  413MOL0     C56914   0.896   6.641   5.389  0.8190 -0.1288  0.0934
  413MOL0     O56915   0.866   6.610   5.515  0.8434  0.9391  0.1181
  413MOL0     C56916   0.738   6.655   5.564  0.4988  0.7673 -0.2543
  413MOL0     C56917   0.714   6.620   5.710 -0.8345 -1.0859  0.3746
  413MOL0     C56918   0.583   6.678   5.777  0.4429 -0.1815  0.1301
  413MOL0     C56919   0.444   6.608   5.732 -0.4548  0.6995 -0.2928
  413MOL0     C56920   0.415   6.629   5.590  0.5274  0.5700  0.9226
  413MOL0     C56921   0.380   6.636   5.472 -0.0461 -0.7289 -0.0543
  413MOL0     C56922   0.989   6.557   5.338 -1.1515 -0.2917 -0.6383
  413MOL0     C56923   1.036   6.574   5.207 -0.0778 -0.6094  0.9864
  413MOL0     C56924   1.126   6.472   5.144  0.4514  0.5081 -0.8172
  413MOL0     H56925   0.992   6.670   4.698 -1.3676  0.2731 -0.0297
  413MOL0     H56926   1.110   6.744   4.485  3.1147 -0.1753  1.0346
  413MOL0     H56927   1.332   7.108   4.525  2.5618 -1.6134 -1.0366
  413MOL0     H56928   1.227   7.171   4.393  2.5449  2.7333 -1.7067
  413MOL0     H56929   1.474   7.168   4.335 -2.0135  2.8088 -2.7425
  413MOL0     H56930   1.466   6.993   4.381  0.3633  0.6505  0.0778
  413MOL0     H56931   1.494   7.038   4.140  0.9922  0.2190  1.8331
  413MOL0     H56932   1.377   6.934   4.195  1.7979 -0.3121 -0.7146
  413MOL0     H56933   1.189   7.097   4.174  0.4961  1.3325  1.1139
  413MOL0     H56934   1.308   7.224   4.110  2.3828 -0.9428 -2.0157
  413MOL0     H56935   1.280   6.958   3.980 -3.5228 -0.4134  0.0658
  413MOL0     H56936   1.372   7.088   3.925 -0.0760  0.4544  1.7513
  413MOL0     H56937   1.065   7.079   3.940  1.5009  0.5130  2.8981
  413MOL0     H56938   1.141   7.217   3.878 -1.4817 -0.0873  1.7302
  413MOL0     H56939   1.270   7.073   3.713  0.8110 -0.8680  1.2832
  413MOL0     H56940   1.104   7.108   3.682  1.3391  2.2836  0.2751
  413MOL0     H56941   1.233   6.858   3.738 -0.8841  0.5020  0.8979
  413MOL0     H56942   1.075   6.859   3.817 -2.1618 -2.1527 -2.6426
  413MOL0     H56943   0.872   6.824   3.632  2.5345  1.1610  3.7070
  413MOL0     H56944   0.832   6.630   3.387 -1.3140  0.6774 -0.1483
  413MOL0     H56945   0.921   6.709   3.243  0.2886 -0.7243  0.0661
  413MOL0     H56946   0.695   6.841   3.403  1.3558 -1.7497  1.4736
  413MOL0     H56947   0.810   6.905   3.302  4.3503 -1.3618  1.4550
  413MOL0     H56948   0.700   6.765   3.108  1.9035 -5.1339  0.0677
  413MOL0     H56949   0.619   6.669   3.225  2.1071 -0.2474 -2.7476
  413MOL0     H56950   0.495   6.853   3.315 -1.9210 -0.3431 -1.2116
  413MOL0     H56951   0.554   6.965   3.200 -2.1207  0.3262  2.3313
  413MOL0     H56952   0.241   6.666   3.075 -0.7331  0.0541 -1.6924
  413MOL0     H56953  -0.031   6.765   2.882 -0.4548 -0.1544 -0.7270
  413MOL0     H56954  -0.089   6.686   3.035 -0.6696 -1.1614 -1.2809
  413MOL0     H56955   0.044   6.621   2.952 -0.3634  0.0160 -1.4127
  413MOL0     H56956  -0.311   7.031   3.197 -0.7952 -0.0662 -0.4938
  413MOL0     H56957  -0.508   7.134   3.239  1.5672 -2.3813 -1.9100
  413MOL0     H56958  -0.702   7.252   3.137 -2.4646 -0.0290 -1.0690
  413MOL0     H56959  -0.695   7.341   3.289 -3.6377 -1.6933 -0.6669
  413MOL0     H56960  -0.917   7.349   3.148  0.4227  0.3433  2.2795
  413MOL0     H56961  -0.849   7.492   3.220  2.2456 -0.8810 -0.1211
  413MOL0     H56962  -0.818   7.393   2.934  0.2447 -2.7764  3.0765
  413MOL0     H56963  -0.741   7.545   3.001  2.0661 -2.1895  2.3649
  413MOL0     H56964  -0.968   7.641   3.007  1.1404  3.5575 -3.1683
  413MOL0     H56965  -1.027   7.479   2.951  0.3816 -0.6525 -0.8711
  413MOL0     H56966  -0.853   7.687   2.808  1.1601 -1.3529 -1.0137
  413MOL0     H56967  -0.835   7.525   2.763 -2.5829 -2.9383 -0.5369
  413MOL0     H56968  -1.101   7.690   2.726  1.0591 -0.4726 -1.1374
  413MOL0     H56969  -1.098   7.514   2.718 -1.0213 -0.8640  0.7600
  413MOL0     H56970  -0.935   7.511   2.529  0.5981 -0.6027 -1.3799
  413MOL0     H56971  -0.900   7.677   2.541  0.8708 -2.2840 -0.7785
  413MOL0     H56972  -1.166   7.546   2.467  0.2273 -1.0305  1.6567
  413MOL0     H56973  -1.061   7.654   2.369  3.9650  0.5546  1.2656
  413MOL0     H56974  -0.344   7.510   3.072  5.3417 -0.1109 -0.9345
  413MOL0     H56975  -0.142   7.393   3.034  0.6839 -2.1685  0.8082
  413MOL0     H56976   0.142   7.140   3.133  1.6343 -0.2266  2.3850
  413MOL0     H56977   0.343   7.071   3.190 -3.2561  2.9510 -0.7470
  413MOL0     H56978   1.157   7.130   4.649  0.5655  0.1405 -1.8386
  413MOL0     H56979   1.044   7.053   4.872  0.2804 -0.4790  1.0094
  413MOL0     H56980   0.853   6.854   5.129  0.8191  0.6889  1.8887
  413MOL0     H56981   0.760   6.807   5.344  0.4770  1.0326 -0.8012
  413MOL0     H56982   0.728   6.763   5.549 -2.1265  0.4819 -1.1237
  413MOL0     H56983   0.652   6.612   5.512 -0.2396 -0.8586  2.1228
  413MOL0     H56984   0.803   6.660   5.759 -0.4516 -1.6206  0.1341
  413MOL0     H56985   0.717   6.511   5.722  0.4042 -0.8593  2.9371
  413MOL0     H56986   0.594   6.668   5.885  2.8848 -1.2021 -0.1446
  413MOL0     H56987   0.564   6.783   5.753 -1.0289 -0.7528 -1.4551
  413MOL0     H56988   0.359   6.638   5.794 -0.8012 -1.2579  0.2529
  413MOL0     H56989   0.442   6.500   5.748  1.7509  0.6413 -0.1794
  413MOL0     H56990   0.350   6.623   5.370 -2.0335 -1.3388  0.5427
  413MOL0     H56991   1.020   6.470   5.394  1.3404 -0.0924 -1.5720
  413MOL0     H56992   1.142   6.381   5.203 -0.6731  0.3389 -0.7637
  413MOL0     H56993   1.088   6.447   5.044 -0.7444  1.5130 -0.6350
  413MOL0     H56994   1.228   6.507   5.124  0.4733 -0.1083 -1.8832
  414MOL0     O56995  10.711   2.706   6.731 -0.6965  0.2100  0.3517
  414MOL0     C56996  10.788   2.762   6.812  0.1825  0.3679 -0.1750
  414MOL0     O56997  10.921   2.740   6.838 -0.5076  0.1635 -1.1286
  414MOL0     C56998  10.993   2.668   6.754 -1.0630 -0.2312  0.4560
  414MOL0     C56999  11.124   2.712   6.737  0.0110 -0.0515  0.5518
  414MOL0     C57000  11.207   2.655   6.645  0.5113  0.1693 -0.2653
  414MOL0     C57001  11.163   2.533   6.586  0.7068 -0.1083 -0.0920
  414MOL0     O57002  11.253   2.467   6.508  0.2125  0.5670 -0.3773
  414MOL0     C57003  11.330   2.373   6.588  0.2791  0.2588  0.2507
  414MOL0     C57004  11.323   2.229   6.532 -0.0413  0.5796 -0.5820
  414MOL0     C57005  11.342   2.219   6.381  0.1592  0.3942 -1.0028
  414MOL0     C57006  11.397   2.090   6.345 -0.5353  0.1612 -0.4795
  414MOL0     C57007  11.444   2.079   6.201 -0.6790  0.8321 -0.2151
  414MOL0     C57008  11.523   1.947   6.188 -0.4624  0.2049 -0.2935
  414MOL0     C57009  11.554   1.903   6.041  0.0398  0.6574  0.4380
  414MOL0     C57010  11.642   1.998   5.965 -0.0414  0.3995  0.8624
  414MOL0     N57011  11.665   1.945   5.831 -0.1844 -0.5614  0.5906
  414MOL0     C57012  11.740   1.843   5.788 -1.0621  0.3824 -0.5759
  414MOL0     C57013  11.737   1.846   5.650  0.1539 -1.7035 -0.0271
  414MOL0     C57014  11.783   1.753   5.547 -0.3413  0.0817 -0.3488
  414MOL0     C57015  11.878   1.805   5.446  0.0511 -0.5985 -1.2823
  414MOL0     C57016  11.889   1.710   5.336 -0.2332 -0.5237  1.4830
  414MOL0     C57017  12.028   1.731   5.262  0.1258  0.1546 -0.0056
  414MOL0     O57018  12.062   1.865   5.208  0.6035 -0.0217 -0.7778
  414MOL0     C57019  12.182   1.916   5.223 -0.7246  0.4495 -0.7243
  414MOL0     C57020  12.191   2.059   5.214  0.7153  0.1772  0.2947
  414MOL0     C57021  12.319   2.118   5.223 -0.2038 -0.2238 -0.3316
  414MOL0     C57022  12.327   2.264   5.168  0.2929  0.4469 -0.0239
  414MOL0     C57023  12.439   2.042   5.268  0.4153 -0.5902  0.4480
  414MOL0     C57024  12.573   2.103   5.286 -0.4896 -0.1651 -0.4897
  414MOL0     O57025  12.672   2.009   5.300 -0.0950 -0.6258 -0.0487
  414MOL0     C57026  12.809   2.040   5.284 -0.3195 -0.1032  0.1175
  414MOL0     C57027  12.902   1.973   5.377  0.0350  0.0529  0.6177
  414MOL0     C57028  13.039   1.993   5.376 -0.0757 -0.4003  0.2225
  414MOL0     C57029  13.090   2.065   5.274 -0.3440 -0.1726 -0.0792
  414MOL0     O57030  13.233   2.068   5.260  0.0369 -0.8541 -0.4752
  414MOL0     C57031  13.289   2.128   5.140  1.4220 -0.4427 -0.3656
  414MOL0     C57032  13.441   2.083   5.130  0.7910  0.8423  0.0244
  414MOL0     C57033  13.526   2.154   5.229 -0.4454 -0.8780 -0.0826
  414MOL0     C57034  13.649   2.078   5.264 -0.1374 -0.6733 -0.7650
  414MOL0     C57035  13.733   2.122   5.390  1.0589  0.3291  0.3912
  414MOL0     C57036  13.806   2.250   5.349 -0.0020 -0.5416 -0.3221
  414MOL0     C57037  13.823   2.338   5.480  0.4464 -0.0658 -0.1394
  414MOL0     C57038  13.693   2.381   5.549  0.4359 -0.5895  0.2586
  414MOL0    Cl57039  13.585   2.460   5.445 -0.2457 -0.1834 -0.1674
  414MOL0     C57040  13.005   2.134   5.182 -1.0929  0.4413 -0.2532
  414MOL0     C57041  12.867   2.117   5.184  0.1133  0.0124 -0.1869
  414MOL0     O57042  12.588   2.231   5.269  0.0679  0.4123  0.2266
  414MOL0     C57043  12.425   1.905   5.272  0.5948 -0.4281  0.1388
  414MOL0     C57044  12.301   1.845   5.248 -1.4309 -1.4918  0.0960
  414MOL0     N57045  11.662   1.961   5.613  0.6873  1.1798  0.6917
  414MOL0     N57046  11.627   2.011   5.717  0.0647  0.2869 -0.1837
  414MOL0     C57047  11.038   2.475   6.608 -0.1754 -0.1019  0.0969
  414MOL0     C57048  10.948   2.547   6.695 -0.0679 -0.4022  0.0935
  414MOL0     C57049  10.727   2.877   6.886  1.5667  1.0898 -0.1083
  414MOL0     C57050  10.795   2.953   6.978 -0.0425  0.5966 -0.2654
  414MOL0     C57051  10.744   3.067   7.033 -0.4848 -0.3865  0.3369
  414MOL0     C57052  10.614   3.095   7.036 -0.0269 -0.1204  0.2632
  414MOL0     O57053  10.570   3.185   7.131 -0.1117  0.0036 -0.9074
  414MOL0     C57054  10.435   3.211   7.167 -0.4259  0.3735  0.6331
  414MOL0     C57055  10.372   3.314   7.070 -0.3059  0.2981 -0.4017
  414MOL0     C57056  10.218   3.301   7.073 -0.4665  0.4080  0.0504
  414MOL0     C57057  10.163   3.366   7.198  0.3636  0.2258 -0.3178
  414MOL0     C57058  10.182   3.515   7.206 -0.0143 -0.9425  0.1782
  414MOL0     C57059  10.185   3.635   7.190  0.2803  0.9463 -0.2876
  414MOL0     C57060  10.534   3.019   6.953 -0.6430 -0.6750 -0.3569
  414MOL0     C57061  10.585   2.915   6.879 -0.1532  0.3526  0.5311
  414MOL0     C57062  10.476   2.848   6.801 -0.1078 -0.0123 -0.1252
  414MOL0     H57063  11.164   2.803   6.780 -0.8766  0.5437  0.1672
  414MOL0     H57064  11.305   2.695   6.623  1.8274 -3.0224 -0.6671
  414MOL0     H57065  11.292   2.360   6.690  1.1005  0.6777  0.6237
  414MOL0     H57066  11.436   2.402   6.586  0.8958 -1.7161 -2.8018
  414MOL0     H57067  11.397   2.170   6.586 -0.3732  0.2608 -0.4679
  414MOL0     H57068  11.221   2.194   6.554  0.7082 -1.5028 -0.2211
  414MOL0     H57069  11.247   2.243   6.334 -1.4261 -0.6111  1.4791
  414MOL0     H57070  11.414   2.293   6.347  1.6174 -1.4003 -2.0044
  414MOL0     H57071  11.481   2.058   6.407 -0.5623  0.8643 -0.0776
  414MOL0     H57072  11.320   2.013   6.357 -2.3754  2.1370  1.1247
  414MOL0     H57073  11.511   2.158   6.165 -1.1685  3.5713  4.1050
  414MOL0     H57074  11.355   2.064   6.139  1.5271 -5.8327 -2.6902
  414MOL0     H57075  11.615   1.963   6.245  0.4825 -0.8108 -1.4752
  414MOL0     H57076  11.462   1.870   6.237 -2.1460 -0.1791 -2.8127
  414MOL0     H57077  11.462   1.886   5.985  2.2075 -2.1682 -2.7212
  414MOL0     H57078  11.595   1.802   6.055 -0.8542  0.3792  1.1522
  414MOL0     H57079  11.599   2.097   5.946  1.6766  0.4761 -4.0893
  414MOL0     H57080  11.734   2.016   6.021  2.1096 -0.7828 -2.0113
  414MOL0     H57081  11.780   1.760   5.845 -4.3013 -1.7252 -1.1298
  414MOL0     H57082  11.697   1.720   5.489  0.5371 -0.8730 -1.1590
  414MOL0     H57083  11.812   1.660   5.598  1.6279 -0.2050 -1.8638
  414MOL0     H57084  11.867   1.903   5.398 -1.5712 -0.0376  0.1459
  414MOL0     H57085  11.971   1.810   5.503 -1.2395 -0.4674  0.9179
  414MOL0     H57086  11.889   1.609   5.377  2.4774 -1.1254  0.2904
  414MOL0     H57087  11.803   1.713   5.269 -0.4844  0.2686  1.8302
  414MOL0     H57088  12.101   1.692   5.333  0.1566  1.5604  0.7856
  414MOL0     H57089  12.038   1.666   5.174 -0.9240  0.8089 -0.6310
  414MOL0     H57090  12.110   2.129   5.195  1.7767  1.1244 -0.9413
  414MOL0     H57091  12.245   2.297   5.103 -1.6875  1.2149  2.6509
  414MOL0     H57092  12.418   2.295   5.118  0.2434  0.8713  0.1483
  414MOL0     H57093  12.315   2.324   5.259 -2.2296 -1.7970  1.2902
  414MOL0     H57094  12.848   1.925   5.458  0.1234  2.0236  1.8890
  414MOL0     H57095  13.110   1.947   5.443 -0.9147 -1.2518  0.5618
  414MOL0     H57096  13.229   2.097   5.054  0.8084  1.3071 -0.6066
  414MOL0     H57097  13.277   2.237   5.141 -0.6371 -0.6330 -0.3851
  414MOL0     H57098  13.441   1.974   5.144  0.3415  1.0089  1.4749
  414MOL0     H57099  13.477   2.099   5.028  4.6750  2.3455  1.4669
  414MOL0     H57100  13.480   2.163   5.327 -0.6957 -0.0096 -0.2727
  414MOL0     H57101  13.548   2.257   5.196 -1.8068 -0.7045 -0.5149
  414MOL0     H57102  13.714   2.075   5.176  0.2794  1.5884 -0.5982
  414MOL0     H57103  13.615   1.976   5.283 -3.0553  0.7671  3.1026
  414MOL0     H57104  13.665   2.125   5.475 -0.5021 -0.6617 -0.7553
  414MOL0     H57105  13.811   2.053   5.423  0.6157  0.6751  2.2470
  414MOL0     H57106  13.743   2.317   5.291  0.4766 -0.7236 -1.0593
  414MOL0     H57107  13.901   2.228   5.299  1.3519  1.9462  0.9373
  414MOL0     H57108  13.894   2.417   5.452  1.8014 -1.5419 -1.0097
  414MOL0     H57109  13.869   2.281   5.561  3.1137  0.9408 -0.8341
  414MOL0     H57110  13.722   2.448   5.630 -0.1501 -0.2396  0.1846
  414MOL0     H57111  13.640   2.299   5.598  1.3764 -0.3507  1.7244
  414MOL0     H57112  13.060   2.206   5.123  0.4094  1.9124  2.7286
  414MOL0     H57113  12.786   2.155   5.123 -0.1723 -2.3564 -1.4073
  414MOL0     H57114  12.513   1.843   5.284  2.2543  0.4056 -5.0319
  414MOL0     H57115  12.293   1.737   5.254  4.9150 -2.3009  1.3373
  414MOL0     H57116  11.023   2.377   6.562  0.1427 -0.3410  0.4948
  414MOL0     H57117  10.844   2.522   6.710  0.3644 -1.6849  1.1593
  414MOL0     H57118  10.889   2.912   7.014 -1.5282 -4.7414 -1.5796
  414MOL0     H57119  10.809   3.128   7.095  0.9415 -2.0562  0.5827
  414MOL0     H57120  10.388   3.113   7.174 -0.6472  0.5236  1.3532
  414MOL0     H57121  10.443   3.247   7.270  0.5623  2.2129 -0.0500
  414MOL0     H57122  10.408   3.284   6.971 -0.9362 -4.3495  0.5253
  414MOL0     H57123  10.398   3.416   7.099 -3.3516  0.2614  3.2959
  414MOL0     H57124  10.182   3.365   6.993 -0.6514  1.2771  0.8043
  414MOL0     H57125  10.179   3.200   7.058 -0.0139  0.3535 -0.8099
  414MOL0     H57126  10.213   3.317   7.282 -0.8810  1.2460  1.0570
  414MOL0     H57127  10.060   3.334   7.217  1.8535 -4.2085  1.8483
  414MOL0     H57128  10.180   3.740   7.173  0.3582  1.3380  1.8903
  414MOL0     H57129  10.426   3.020   6.956 -0.6690 -2.5629  0.9695
  414MOL0     H57130  10.377   2.888   6.826 -1.0661 -0.2962 -3.1544
  414MOL0     H57131  10.492   2.844   6.693  0.2263 -1.6474 -0.0407
  414MOL0     H57132  10.459   2.748   6.842  2.6054  0.0971  1.5179
  415MOL0     O57133   8.859   2.563  11.186 -0.1937  0.0273 -0.0651
  415MOL0     C57134   8.753   2.513  11.153  0.2799 -0.7888 -0.5201
  415MOL0     O57135   8.680   2.554  11.048 -0.8734 -0.6285  0.5744
  415MOL0     C57136   8.705   2.690  11.007 -0.5510  0.3498  0.2779
  415MOL0     C57137   8.609   2.790  11.034  0.1036  0.2034  0.6526
  415MOL0     C57138   8.621   2.914  10.977  0.4687  0.3236  0.3451
  415MOL0     C57139   8.737   2.949  10.914 -0.0515 -0.0997 -0.2007
  415MOL0     O57140   8.766   3.071  10.866  0.2610 -0.4741  0.2086
  415MOL0     C57141   8.800   3.101  10.729 -0.1766  0.1519 -0.1774
  415MOL0     C57142   8.798   3.257  10.692 -0.1744  1.0937 -0.5996
  415MOL0     C57143   8.653   3.315  10.688 -0.4904 -0.2474 -0.0401
  415MOL0     C57144   8.660   3.457  10.629  0.1156  0.3665  1.0420
  415MOL0     C57145   8.565   3.501  10.514 -0.5041 -1.1175  1.0105
  415MOL0     C57146   8.613   3.628  10.439  0.7967 -0.1484 -0.0949
  415MOL0     C57147   8.608   3.758  10.530 -0.6733  0.4232  0.6428
  415MOL0     C57148   8.472   3.824  10.534 -0.1739  0.2609 -0.9942
  415MOL0     N57149   8.479   3.954  10.610 -0.1877 -0.0654  0.3893
  415MOL0     C57150   8.362   4.017  10.640  0.0057 -0.3569  0.2082
  415MOL0     C57151   8.384   4.126  10.708 -0.2871 -0.0802 -0.3223
  415MOL0     C57152   8.286   4.238  10.744 -0.1738  1.3145 -0.0734
  415MOL0     C57153   8.296   4.360  10.658  0.6513  0.7421  0.0063
  415MOL0     C57154   8.224   4.488  10.718 -0.4184  0.2987  0.1216
  415MOL0     C57155   8.281   4.612  10.658  0.2060  1.2805 -0.2254
  415MOL0     O57156   8.425   4.616  10.656 -0.6240 -0.2473 -0.4207
  415MOL0     C57157   8.495   4.639  10.536  0.2190 -0.0455  0.2326
  415MOL0     C57158   8.628   4.689  10.558  1.0694  0.2603 -0.5407
  415MOL0     C57159   8.712   4.713  10.450 -0.4711  0.7815 -0.1517
  415MOL0     C57160   8.850   4.753  10.474  0.7433 -0.9582 -0.2376
  415MOL0     C57161   8.664   4.686  10.323  0.7402 -0.3824 -0.3928
  415MOL0     C57162   8.745   4.721  10.207  0.5041 -0.0980  0.0143
  415MOL0     O57163   8.807   4.838  10.219 -0.6672  0.3733  0.0075
  415MOL0     C57164   8.925   4.839  10.158  0.1631 -0.0769  0.1081
  415MOL0     C57165   8.955   4.964  10.105  1.2213  0.3792  0.5508
  415MOL0     C57166   9.068   4.981  10.021 -0.2323  0.7160  0.5303
  415MOL0     C57167   9.161   4.873   9.998  0.8620  0.1410  0.0541
  415MOL0     O57168   9.288   4.879   9.940  0.5007 -0.7885  0.0491
  415MOL0     C57169   9.337   5.002   9.870 -0.1666  1.4351 -0.3142
  415MOL0     C57170   9.235   5.036   9.753 -0.2811 -0.5335 -0.8956
  415MOL0     C57171   9.222   4.919   9.652  0.0870  0.3631  0.2951
  415MOL0     C57172   9.335   4.899   9.561 -0.5378  0.2688  0.6880
  415MOL0     C57173   9.293   4.969   9.428 -0.4618 -0.0566 -0.1230
  415MOL0     C57174   9.424   4.988   9.343  0.1175 -0.2410 -0.4845
  415MOL0     C57175   9.394   5.025   9.195 -0.4065  0.3748  0.9615
  415MOL0     C57176   9.512   5.020   9.087  0.6039 -0.4751  0.3540
  415MOL0    Cl57177   9.593   4.862   9.078 -0.5153  0.2647 -0.2129
  415MOL0     C57178   9.137   4.752  10.063  0.4892 -1.3093  0.3453
  415MOL0     C57179   9.022   4.736  10.141 -0.2524  0.2195 -0.3471
  415MOL0     O57180   8.731   4.654  10.107  0.2602 -0.2874  0.7314
  415MOL0     C57181   8.529   4.651  10.296 -0.2317  1.0426 -0.1725
  415MOL0     C57182   8.456   4.612  10.405  0.4504 -0.5274  0.2261
  415MOL0     N57183   8.525   4.137  10.709  0.1528  0.5159  0.4209
  415MOL0     N57184   8.579   4.043  10.649 -0.1050  1.0036  0.5398
  415MOL0     C57185   8.827   2.846  10.872  0.6902 -0.0494 -0.4471
  415MOL0     C57186   8.814   2.716  10.919  0.3816 -0.0804  0.5793
  415MOL0     C57187   8.700   2.384  11.219 -0.3187  0.1332  0.3270
  415MOL0     C57188   8.787   2.316  11.314  0.4100  0.1420  0.0945
  415MOL0     C57189   8.763   2.194  11.369  0.8340 -0.0161  0.4343
  415MOL0     C57190   8.646   2.122  11.343 -0.7761 -0.5636  0.8341
  415MOL0     O57191   8.640   1.994  11.404  0.3517  0.4555  0.2320
  415MOL0     C57192   8.503   1.941  11.409 -0.2410  0.0495  0.0893
  415MOL0     C57193   8.520   1.785  11.408  0.6558  0.2992  0.0568
  415MOL0     C57194   8.568   1.708  11.536  0.0830 -0.2704  0.1401
  415MOL0     C57195   8.486   1.744  11.665  0.2046  0.9996 -0.6636
  415MOL0     C57196   8.353   1.697  11.672 -0.1249  0.8050 -1.2573
  415MOL0     C57197   8.240   1.644  11.686 -0.7088 -0.3354  0.1565
  415MOL0     C57198   8.556   2.180  11.256  0.4434  0.3957  0.4502
  415MOL0     C57199   8.579   2.314  11.190  0.2106  0.3946  0.2432
  415MOL0     C57200   8.467   2.363  11.102 -1.0622 -0.6830 -0.2194
  415MOL0     H57201   8.522   2.775  11.097 -0.3001 -2.4850 -0.3766
  415MOL0     H57202   8.547   2.992  10.989 -0.6724 -0.7378  0.5069
  415MOL0     H57203   8.723   3.055  10.665  1.9140  0.0507 -2.7928
  415MOL0     H57204   8.899   3.070  10.693 -0.1095  1.8263 -1.5773
  415MOL0     H57205   8.848   3.324  10.762 -0.0964  0.1801  0.2544
  415MOL0     H57206   8.859   3.258  10.602  1.9058 -0.5552  0.6861
  415MOL0     H57207   8.593   3.258  10.616  0.0154  3.2194 -3.5251
  415MOL0     H57208   8.603   3.314  10.785 -0.5948  2.6675  0.0062
  415MOL0     H57209   8.653   3.527  10.713 -0.0414  0.3700  1.0268
  415MOL0     H57210   8.761   3.476  10.590 -0.0448 -3.4932 -1.8433
  415MOL0     H57211   8.466   3.513  10.559 -0.3083  1.8862  0.8462
  415MOL0     H57212   8.555   3.424  10.437  1.8308 -1.0694  0.5859
  415MOL0     H57213   8.718   3.615  10.413  0.4183 -1.3394 -1.1151
  415MOL0     H57214   8.559   3.637  10.345 -1.3451  0.3682  1.1111
  415MOL0     H57215   8.681   3.830  10.492  0.5976 -1.5147 -0.7591
  415MOL0     H57216   8.652   3.740  10.628  2.6527  1.1398 -0.5813
  415MOL0     H57217   8.436   3.846  10.433 -3.7602 -0.7148 -0.0581
  415MOL0     H57218   8.399   3.751  10.570  3.9328 -2.3900  3.1135
  415MOL0     H57219   8.263   3.983  10.613  0.0832  1.1282 -2.2317
  415MOL0     H57220   8.309   4.270  10.846  0.3330  0.2107  0.1751
  415MOL0     H57221   8.177   4.224  10.752  0.1103 -0.4780  1.2073
  415MOL0     H57222   8.402   4.366  10.630  0.4229 -1.9934 -1.8466
  415MOL0     H57223   8.250   4.331  10.563 -0.3116 -0.2032  0.7348
  415MOL0     H57224   8.116   4.495  10.704 -0.3875  2.5171  0.6849
  415MOL0     H57225   8.251   4.500  10.823 -0.1520  0.5201  0.0276
  415MOL0     H57226   8.236   4.624  10.559 -3.3206 -0.8631  0.9198
  415MOL0     H57227   8.241   4.695  10.716  2.6693  0.6081  2.6257
  415MOL0     H57228   8.651   4.717  10.660 -0.6319  1.5786 -0.4757
  415MOL0     H57229   8.857   4.861  10.454  2.0266 -1.1489 -0.9542
  415MOL0     H57230   8.920   4.702  10.407  0.8093 -2.2655  0.7805
  415MOL0     H57231   8.883   4.747  10.578  0.9774  2.3130 -0.0267
  415MOL0     H57232   8.883   5.046  10.106  2.7689  1.9548 -2.2415
  415MOL0     H57233   9.086   5.082   9.985  0.6960  0.3449 -0.0765
  415MOL0     H57234   9.349   5.085   9.940 -2.1281  1.4881  0.0283
  415MOL0     H57235   9.440   4.980   9.843 -0.0593 -2.0009  2.2204
  415MOL0     H57236   9.134   5.069   9.779 -0.4679  2.1592 -4.3433
  415MOL0     H57237   9.266   5.132   9.710  0.0188 -1.1978 -2.2400
  415MOL0     H57238   9.126   4.939   9.604 -1.3632  0.8416  3.1761
  415MOL0     H57239   9.212   4.832   9.717  1.0436  1.7254  2.3898
  415MOL0     H57240   9.364   4.800   9.527 -0.4445  0.5088  0.0551
  415MOL0     H57241   9.425   4.941   9.607 -2.0762  2.5391  1.8649
  415MOL0     H57242   9.215   4.909   9.380 -0.6981 -1.6892  2.1525
  415MOL0     H57243   9.261   5.073   9.437 -1.7885 -0.3186 -1.4332
  415MOL0     H57244   9.484   4.896   9.348  1.2446  0.4777 -0.2139
  415MOL0     H57245   9.478   5.067   9.398  0.5659 -3.0580  3.6242
  415MOL0     H57246   9.359   5.128   9.199 -0.7702  0.2239  2.5132
  415MOL0     H57247   9.311   4.965   9.156 -0.8535  2.1790 -1.0714
  415MOL0     H57248   9.578   5.102   9.116 -1.0160  2.0631 -2.5091
  415MOL0     H57249   9.464   5.057   8.996  0.0109 -1.3518  0.2906
  415MOL0     H57250   9.207   4.669  10.066  3.2596  0.9288  1.3056
  415MOL0     H57251   9.007   4.641  10.190 -0.9184  0.1978 -0.5908
  415MOL0     H57252   8.483   4.640  10.198 -3.2430  0.9692  1.1369
  415MOL0     H57253   8.357   4.571  10.384 -0.1806  1.3283 -0.7046
  415MOL0     H57254   8.912   2.861  10.805  1.4930  0.1965  0.6010
  415MOL0     H57255   8.873   2.630  10.887 -1.2907 -0.8736 -0.5560
  415MOL0     H57256   8.889   2.342  11.341  0.3631 -0.3410  0.7394
  415MOL0     H57257   8.835   2.162  11.443 -0.1992  3.0663  3.0265
  415MOL0     H57258   8.445   1.965  11.499 -0.1862 -1.7545  0.6415
  415MOL0     H57259   8.439   1.948  11.321  1.7634  0.1657 -1.4180
  415MOL0     H57260   8.573   1.749  11.320  4.7443  1.4336  1.8201
  415MOL0     H57261   8.420   1.741  11.399  0.8939  0.0002 -1.2419
  415MOL0     H57262   8.549   1.605  11.503 -0.1499 -0.6975  1.5320
  415MOL0     H57263   8.672   1.731  11.562 -0.3206  0.2723  1.3519
  415MOL0     H57264   8.493   1.852  11.679 -2.4038  0.9713  1.9084
  415MOL0     H57265   8.544   1.698  11.746  3.7201  1.0464 -2.9449
  415MOL0     H57266   8.147   1.593  11.701 -3.2732  2.6768 -3.6081
  415MOL0     H57267   8.470   2.126  11.219 -0.4690 -0.1350  3.1825
  415MOL0     H57268   8.394   2.287  11.072 -1.8408  0.5628 -1.5754
  415MOL0     H57269   8.418   2.450  11.147  1.3751  1.7979 -2.0459
  415MOL0     H57270   8.498   2.395  11.002 -2.6037 -0.9831 -0.8206
  416MOL0     O57271   6.297   7.423  10.040 -0.1517  0.2925  0.3381
  416MOL0     C57272   6.250   7.309  10.016 -1.5111 -0.2767  0.1788
  416MOL0     O57273   6.304   7.230   9.922 -0.4508 -0.0588  0.7795
  416MOL0     C57274   6.440   7.242   9.890 -0.0147  0.1547 -0.1553
  416MOL0     C57275   6.533   7.218   9.990 -0.8261 -1.0858  0.6344
  416MOL0     C57276   6.669   7.222   9.947  0.3691  0.2140  0.3834
  416MOL0     C57277   6.708   7.225   9.811  0.3406 -0.2975 -0.2426
  416MOL0     O57278   6.843   7.220   9.773  0.8398  0.1001  0.2926
  416MOL0     C57279   6.939   7.264   9.868  0.0627  0.5605  0.8504
  416MOL0     C57280   7.076   7.257   9.798  0.6629 -0.5630  0.4368
  416MOL0     C57281   7.131   7.386   9.761 -0.4014 -0.5696  0.6478
  416MOL0     C57282   7.279   7.394   9.719 -0.8086 -0.1281  0.1014
  416MOL0     C57283   7.319   7.505   9.616  0.8816 -1.0165  0.3445
  416MOL0     C57284   7.469   7.521   9.597  0.1092 -0.3582 -0.6808
  416MOL0     C57285   7.515   7.622   9.699 -0.1011  0.2209 -0.1064
  416MOL0     C57286   7.657   7.677   9.673  0.0491  0.2183  0.0488
  416MOL0     N57287   7.681   7.807   9.741  0.1004  0.5055 -0.2643
  416MOL0     C57288   7.643   7.930   9.692  0.5593  0.3858  0.4260
  416MOL0     C57289   7.646   8.017   9.792 -0.7950 -0.1754 -0.2482
  416MOL0     C57290   7.607   8.159   9.787 -0.7048 -0.6467  0.4442
  416MOL0     C57291   7.578   8.216   9.930 -0.9530  0.0795 -0.9131
  416MOL0     C57292   7.455   8.137   9.997 -0.2242 -0.0295 -1.2649
  416MOL0     C57293   7.322   8.172   9.934  1.1299  0.1044  0.7507
  416MOL0     O57294   7.285   8.306   9.923  0.1584 -0.0536 -0.9892
  416MOL0     C57295   7.185   8.350  10.005  0.5537  0.4284 -0.9745
  416MOL0     C57296   7.215   8.433  10.112  0.4915  0.0383  0.4488
  416MOL0     C57297   7.114   8.475  10.204  0.6752 -0.2087 -0.5234
  416MOL0     C57298   7.167   8.576  10.308 -0.9657 -0.1948  0.0181
  416MOL0     C57299   6.980   8.430  10.180 -0.1750  0.2916  1.0199
  416MOL0     C57300   6.861   8.450  10.271 -0.3797  0.7185 -0.5225
  416MOL0     O57301   6.883   8.430  10.410 -0.1395  0.4968  0.1490
  416MOL0     C57302   6.776   8.436  10.491 -0.5890  0.5048  0.2901
  416MOL0     C57303   6.787   8.516  10.603  0.1421  0.1603 -0.1025
  416MOL0     C57304   6.684   8.515  10.704 -1.0322 -0.7877 -0.2321
  416MOL0     C57305   6.560   8.448  10.684 -0.8651  1.1198  0.5703
  416MOL0     O57306   6.446   8.459  10.765 -0.1388  0.9010 -0.1469
  416MOL0     C57307   6.430   8.555  10.875  0.0467  0.4469  0.1866
  416MOL0     C57308   6.282   8.573  10.882  0.3881 -0.9607  0.5345
  416MOL0     C57309   6.249   8.684  10.986 -0.6176 -0.1452  0.0096
  416MOL0     C57310   6.104   8.734  10.982 -0.6510 -0.1562 -0.1122
  416MOL0     C57311   6.009   8.623  10.968 -0.3149 -0.1493  1.2424
  416MOL0     C57312   5.867   8.658  11.000  0.1560 -0.0749  0.1522
  416MOL0     C57313   5.789   8.534  10.979 -0.1473  0.3768  0.8700
  416MOL0     C57314   5.637   8.565  10.999  0.2297  0.8726 -0.9973
  416MOL0    Cl57315   5.600   8.569  11.173 -0.4052 -0.0099 -0.4210
  416MOL0     C57316   6.555   8.381  10.561 -0.4411 -0.7333 -1.1086
  416MOL0     C57317   6.664   8.366  10.478 -0.1806  0.9601  0.0863
  416MOL0     O57318   6.767   8.486  10.206 -0.1999 -0.5242 -0.7487
  416MOL0     C57319   6.953   8.352  10.062  0.2803  0.3973 -0.6464
  416MOL0     C57320   7.053   8.312   9.974  0.6424  0.9280  0.7176
  416MOL0     N57321   7.701   7.944   9.902  0.5268  0.2842  0.3811
  416MOL0     N57322   7.721   7.822   9.876 -0.0216 -0.5581 -0.0020
  416MOL0     C57323   6.618   7.258   9.713 -0.7916  0.0040 -0.9022
  416MOL0     C57324   6.483   7.270   9.754  0.4430  0.1710  0.1663
  416MOL0     C57325   6.135   7.273  10.104 -0.0843 -0.1710 -0.7622
  416MOL0     C57326   6.031   7.366  10.115  0.9171 -0.3340 -0.2084
  416MOL0     C57327   5.919   7.346  10.202  0.5743  0.5685  0.0022
  416MOL0     C57328   5.908   7.230  10.276 -1.1386  0.1894 -0.5754
  416MOL0     O57329   5.803   7.198  10.359 -0.1564  0.1426  0.8557
  416MOL0     C57330   5.719   7.298  10.418  0.6157 -0.4717  0.0219
  416MOL0     C57331   5.647   7.242  10.542 -0.8267 -0.5352 -0.2602
  416MOL0     C57332   5.496   7.256  10.512 -0.1668 -0.6182  0.5123
  416MOL0     C57333   5.422   7.186  10.634  0.3947  0.3418  0.2828
  416MOL0     C57334   5.286   7.233  10.616  0.1505 -0.6702  0.1774
  416MOL0     C57335   5.165   7.261  10.621  0.0325 -0.2804  0.1631
  416MOL0     C57336   6.013   7.139  10.260 -0.2088  0.0921  0.2410
  416MOL0     C57337   6.129   7.164  10.186 -0.7886 -0.3251  0.0877
  416MOL0     C57338   6.227   7.054  10.171  0.8613 -0.3456 -0.3685
  416MOL0     H57339   6.506   7.204  10.094  0.4728  3.2113  1.7835
  416MOL0     H57340   6.742   7.226  10.027  1.4406 -3.6249 -0.1868
  416MOL0     H57341   6.948   7.193   9.951  1.1532 -3.0261 -2.0785
  416MOL0     H57342   6.929   7.368   9.901  0.9974  0.5553  1.1532
  416MOL0     H57343   7.150   7.207   9.861  0.1519 -2.6552 -0.5486
  416MOL0     H57344   7.070   7.204   9.703  1.8811  0.5713 -0.3226
  416MOL0     H57345   7.068   7.411   9.675 -2.7800 -3.6671  1.3104
  416MOL0     H57346   7.118   7.446   9.852  2.0964  1.6295 -0.2835
  416MOL0     H57347   7.343   7.418   9.804  1.1517  2.4040 -1.9440
  416MOL0     H57348   7.327   7.307   9.674 -2.2432 -0.1529 -1.4824
  416MOL0     H57349   7.257   7.592   9.636 -1.0652 -2.4490  0.7830
  416MOL0     H57350   7.276   7.467   9.523 -1.4010  1.4906  0.2753
  416MOL0     H57351   7.522   7.427   9.612 -0.3588 -0.3322  1.5632
  416MOL0     H57352   7.485   7.558   9.495  2.2770  1.2599  0.1673
  416MOL0     H57353   7.514   7.587   9.802  0.7292 -1.1617 -0.5426
  416MOL0     H57354   7.443   7.703   9.684  0.1176 -0.1783 -4.6245
  416MOL0     H57355   7.731   7.599   9.693  0.1604 -1.4298 -5.1235
  416MOL0     H57356   7.665   7.697   9.565  1.5293  1.1750  0.3125
  416MOL0     H57357   7.613   7.957   9.591  1.7190  3.4286  0.7840
  416MOL0     H57358   7.522   8.169   9.718  1.9197  0.5429 -2.9406
  416MOL0     H57359   7.685   8.220   9.740 -1.0967 -0.9034 -0.5629
  416MOL0     H57360   7.654   8.210  10.008 -4.1123  0.3567  2.4922
  416MOL0     H57361   7.540   8.318   9.928 -1.4912 -0.0849  0.1490
  416MOL0     H57362   7.455   8.028   9.986  2.3664 -0.6665  2.6861
  416MOL0     H57363   7.457   8.159  10.105  4.3565  0.1999 -1.1849
  416MOL0     H57364   7.322   8.134   9.831  5.5343  2.0960 -0.2266
  416MOL0     H57365   7.243   8.124   9.992  0.6839 -1.8592 -1.3443
  416MOL0     H57366   7.318   8.459  10.136  0.8628 -1.6796  0.8653
  416MOL0     H57367   7.098   8.659  10.324 -0.4502  0.5496 -1.4343
  416MOL0     H57368   7.269   8.610  10.286 -0.3479  0.0297  2.8311
  416MOL0     H57369   7.175   8.527  10.405 -0.3853  0.9190  0.5459
  416MOL0     H57370   6.872   8.581  10.621 -1.9672  3.3537 -0.8681
  416MOL0     H57371   6.693   8.576  10.793 -1.0221 -1.3817  0.1836
  416MOL0     H57372   6.473   8.504  10.962  2.3254 -1.2614 -1.8144
  416MOL0     H57373   6.482   8.651  10.864  3.1003 -0.5067  3.9300
  416MOL0     H57374   6.249   8.596  10.781 -0.1324 -1.7786  0.5104
  416MOL0     H57375   6.233   8.477  10.902 -0.8405 -0.2749  0.9349
  416MOL0     H57376   6.326   8.762  10.980  2.4945 -2.5691  3.8537
  416MOL0     H57377   6.269   8.632  11.080 -0.5666  1.1236  0.7222
  416MOL0     H57378   6.086   8.814  10.910  0.1735  0.5875  0.5046
  416MOL0     H57379   6.077   8.773  11.081  1.6239  0.1178  0.4466
  416MOL0     H57380   6.030   8.576  10.872  2.3761  1.9752  0.6850
  416MOL0     H57381   6.042   8.543  11.035  0.6950 -2.3622 -1.6757
  416MOL0     H57382   5.827   8.737  10.936  1.5485 -0.1407 -0.8308
  416MOL0     H57383   5.860   8.686  11.105 -1.7564 -0.2900  0.1336
  416MOL0     H57384   5.816   8.452  11.047 -0.9224 -0.5257  0.1302
  416MOL0     H57385   5.802   8.509  10.873 -1.7269  0.0487  0.7304
  416MOL0     H57386   5.586   8.484  10.946  0.5542  1.7543 -2.7417
  416MOL0     H57387   5.610   8.657  10.946  1.2059  1.9639  0.3306
  416MOL0     H57388   6.463   8.327  10.538 -0.6606 -1.4237  1.1683
  416MOL0     H57389   6.658   8.305  10.389 -1.7774 -0.1404  0.9012
  416MOL0     H57390   6.852   8.327  10.033  1.0936 -0.3166 -3.0960
  416MOL0     H57391   7.040   8.254   9.883  0.4077  1.2919  0.5196
  416MOL0     H57392   6.655   7.286   9.615  0.6017  0.5695 -0.2472
  416MOL0     H57393   6.410   7.301   9.680 -2.1051  0.1476  2.5045
  416MOL0     H57394   6.026   7.455  10.054 -0.1129 -1.6772 -2.1958
  416MOL0     H57395   5.838   7.419  10.200  1.2066  1.2686 -0.9416
  416MOL0     H57396   5.766   7.393  10.446  2.8768 -0.7967 -2.2660
  416MOL0     H57397   5.652   7.325  10.336 -0.5416  0.0825  1.1221
  416MOL0     H57398   5.683   7.297  10.630 -2.8507  1.7413 -0.7528
  416MOL0     H57399   5.671   7.135  10.543  0.3413 -0.3056 -0.9247
  416MOL0     H57400   5.484   7.364  10.527  0.2100 -0.6087  0.7737
  416MOL0     H57401   5.470   7.211  10.416  3.1776  0.0677 -0.8447
  416MOL0     H57402   5.453   7.224  10.732  0.7190  1.1784 -0.1309
  416MOL0     H57403   5.432   7.078  10.623 -2.8934 -0.0034 -0.1448
  416MOL0     H57404   5.066   7.295  10.647 -1.4144 -4.3447  0.7851
  416MOL0     H57405   6.004   7.044  10.312 -0.2267  0.4682  0.9286
  416MOL0     H57406   6.231   7.005  10.269  0.9228  0.0290 -0.1836
  416MOL0     H57407   6.192   6.971  10.108  2.4494 -1.3689  0.0507
  416MOL0     H57408   6.320   7.103  10.140  0.8583  0.1258  0.3402
  417MOL0     O57409   9.657   3.230   5.093 -0.3985  0.4751 -0.1947
  417MOL0     C57410   9.541   3.219   5.092  0.6077  0.6663  0.0460
  417MOL0     O57411   9.460   3.229   5.197 -0.3101 -0.7241  0.7677
  417MOL0     C57412   9.519   3.291   5.302  0.2436  0.4929 -0.8215
  417MOL0     C57413   9.533   3.427   5.318  0.6749 -0.2464  0.0558
  417MOL0     C57414   9.544   3.484   5.444 -1.1277 -0.1402 -0.4283
  417MOL0     C57415   9.568   3.418   5.560  0.7752  0.7766  0.4017
  417MOL0     O57416   9.605   3.477   5.674  0.2763 -0.6242 -0.3332
  417MOL0     C57417   9.742   3.465   5.721 -0.5105  1.4147  0.3517
  417MOL0     C57418   9.840   3.490   5.606  0.0397  0.1669 -0.4266
  417MOL0     C57419   9.852   3.641   5.586 -0.9742 -0.6380  0.0026
  417MOL0     C57420   9.994   3.680   5.550 -0.0562  0.6151 -0.7137
  417MOL0     C57421   9.992   3.839   5.507 -0.3304 -0.3852 -0.5066
  417MOL0     C57422  10.125   3.901   5.469 -0.6880  0.1261 -0.2927
  417MOL0     C57423  10.223   3.905   5.590  0.4087  0.0845  0.5655
  417MOL0     C57424  10.351   3.978   5.546 -0.3503 -0.4294  0.5780
  417MOL0     N57425  10.339   4.130   5.549  0.2964 -0.1940 -0.1724
  417MOL0     C57426  10.242   4.200   5.617  1.3497  0.8658 -0.1465
  417MOL0     C57427  10.257   4.336   5.579 -0.2998 -0.4121  0.4060
  417MOL0     C57428  10.155   4.441   5.618  0.5514 -0.1677 -0.2327
  417MOL0     C57429  10.190   4.513   5.750  0.4453 -0.6448  0.1968
  417MOL0     C57430  10.119   4.436   5.870 -0.5554 -0.3070 -0.6388
  417MOL0     C57431   9.969   4.477   5.894  0.0742  0.3677 -0.0986
  417MOL0     O57432   9.952   4.607   5.958  0.3998 -1.2027  0.4238
  417MOL0     C57433   9.825   4.650   5.975 -0.4966  0.3968 -0.3821
  417MOL0     C57434   9.808   4.773   6.039  0.1773  0.2990  1.0210
  417MOL0     C57435   9.679   4.822   6.080  0.0438  0.3686 -0.1009
  417MOL0     C57436   9.682   4.956   6.159 -0.1650  0.5435 -0.2273
  417MOL0     C57437   9.566   4.745   6.041  0.5928 -0.8230 -0.8458
  417MOL0     C57438   9.417   4.785   6.058  0.9207 -0.1840  0.1365
  417MOL0     O57439   9.395   4.907   6.083  0.0641 -0.2285  0.0035
  417MOL0     C57440   9.280   4.956   6.133 -0.0561  0.0710 -0.7602
  417MOL0     C57441   9.198   4.901   6.232 -0.8334 -0.7167  0.2245
  417MOL0     C57442   9.077   4.955   6.270  0.4098  1.0148 -0.2662
  417MOL0     C57443   9.038   5.079   6.215  0.5013  0.6127  0.0942
  417MOL0     O57444   8.919   5.143   6.248  0.4887 -0.1576  0.5659
  417MOL0     C57445   8.814   5.083   6.332 -0.1790  0.1525  0.6440
  417MOL0     C57446   8.702   5.189   6.348 -0.7713  1.0743  0.2268
  417MOL0     C57447   8.589   5.122   6.417 -0.2426  0.3898 -0.0333
  417MOL0     C57448   8.469   5.222   6.440 -0.7967  1.1266  0.8834
  417MOL0     C57449   8.399   5.291   6.323  0.0210 -0.0625 -1.0786
  417MOL0     C57450   8.316   5.204   6.242 -1.8021  0.3496 -0.3824
  417MOL0     C57451   8.265   5.287   6.122 -0.1732 -0.2156  0.5283
  417MOL0     C57452   8.114   5.269   6.089  0.0264 -0.4869 -0.8512
  417MOL0    Cl57453   8.050   5.408   6.000  0.0639  0.1840 -0.1334
  417MOL0     C57454   9.111   5.123   6.108  0.4863 -0.7282  0.2064
  417MOL0     C57455   9.232   5.073   6.071 -0.6894  0.4800 -0.4250
  417MOL0     O57456   9.332   4.699   6.038 -0.4101  0.0919  1.0010
  417MOL0     C57457   9.590   4.642   5.948  0.2303  0.4195 -0.6369
  417MOL0     C57458   9.714   4.593   5.912  0.0396 -0.9340 -0.5129
  417MOL0     N57459  10.352   4.345   5.480 -0.0321  0.5946  0.6027
  417MOL0     N57460  10.406   4.222   5.471  0.5809 -0.0496  0.3940
  417MOL0     C57461   9.543   3.279   5.555  0.0456 -0.1377  0.1488
  417MOL0     C57462   9.523   3.217   5.425  0.1826  0.0962 -0.2332
  417MOL0     C57463   9.487   3.180   4.964 -0.6956  0.3958 -0.2454
  417MOL0     C57464   9.363   3.121   4.976 -0.4012  0.5981  0.5976
  417MOL0     C57465   9.300   3.062   4.865  0.5906  0.2039  0.2547
  417MOL0     C57466   9.346   3.082   4.733  0.3796 -0.4832  0.1028
  417MOL0     O57467   9.269   3.029   4.630  0.3908 -0.6791  1.1468
  417MOL0     C57468   9.265   3.126   4.519  0.1883 -0.4878 -0.2474
  417MOL0     C57469   9.137   3.113   4.437 -0.1054  0.1327  1.2311
  417MOL0     C57470   9.148   3.149   4.291 -0.5007  0.0392  0.3448
  417MOL0     C57471   9.007   3.143   4.215 -0.4584 -0.1392  0.3865
  417MOL0     C57472   8.910   3.242   4.275 -0.3974  0.6382  0.4461
  417MOL0     C57473   8.807   3.299   4.301  0.4498  0.5010 -0.6987
  417MOL0     C57474   9.463   3.157   4.722 -0.7042 -0.0977 -0.2403
  417MOL0     C57475   9.537   3.208   4.832  0.8734 -0.0635 -0.3452
  417MOL0     C57476   9.664   3.293   4.808  0.8058 -0.4080 -0.5124
  417MOL0     H57477   9.531   3.490   5.230  0.9252 -1.6432 -0.9907
  417MOL0     H57478   9.546   3.593   5.444 -0.0073 -0.0315 -3.5289
  417MOL0     H57479   9.757   3.363   5.757  0.3658  0.9371 -1.2866
  417MOL0     H57480   9.762   3.523   5.812  3.0092 -0.8005  1.1713
  417MOL0     H57481   9.935   3.458   5.648 -1.1558 -2.6513  0.3478
  417MOL0     H57482   9.825   3.440   5.510 -2.8315 -2.1100  1.0693
  417MOL0     H57483   9.785   3.668   5.504 -0.5496  1.3814  0.2647
  417MOL0     H57484   9.817   3.699   5.672 -1.9898 -0.6928 -0.3633
  417MOL0     H57485  10.061   3.660   5.633  0.0948 -0.9195 -1.1669
  417MOL0     H57486  10.022   3.612   5.469  1.1302  0.1905  0.0432
  417MOL0     H57487   9.957   3.894   5.595 -1.8912 -2.5177  0.2930
  417MOL0     H57488   9.915   3.858   5.432  1.7616  1.5193 -2.3286
  417MOL0     H57489  10.171   3.842   5.389 -0.7742  0.1259 -0.3422
  417MOL0     H57490  10.098   4.004   5.445  1.8936  0.7560 -0.7708
  417MOL0     H57491  10.245   3.799   5.606 -1.7682 -0.3099  1.3678
  417MOL0     H57492  10.185   3.945   5.685  2.6566 -1.8682  2.4529
  417MOL0     H57493  10.437   3.965   5.613  0.3885 -2.0878 -0.6251
  417MOL0     H57494  10.390   3.920   5.463 -1.3951  0.2749 -0.4325
  417MOL0     H57495  10.168   4.157   5.683 -0.3337 -0.7301 -2.8483
  417MOL0     H57496  10.051   4.405   5.620  0.7677 -0.7923  0.0329
  417MOL0     H57497  10.144   4.515   5.538  1.2026  1.6380  1.3067
  417MOL0     H57498  10.299   4.515   5.759  0.3792 -2.2161  1.9989
  417MOL0     H57499  10.150   4.614   5.741 -0.8303 -1.1811 -0.3848
  417MOL0     H57500  10.128   4.328   5.860  0.5603 -0.8276  3.8592
  417MOL0     H57501  10.159   4.461   5.969 -5.0743  2.2117  0.8542
  417MOL0     H57502   9.918   4.483   5.798  1.7452  0.9682 -0.9714
  417MOL0     H57503   9.914   4.400   5.949  0.8186  1.5735  2.5130
  417MOL0     H57504   9.895   4.832   6.064  0.2074  0.0385  1.5311
  417MOL0     H57505   9.691   4.943   6.267  0.5721  1.7292 -0.1260
  417MOL0     H57506   9.593   5.016   6.136  0.4800  1.9019  0.6362
  417MOL0     H57507   9.762   5.022   6.122  1.1413 -0.7770  0.1462
  417MOL0     H57508   9.224   4.804   6.272  3.2391  0.6429  1.3183
  417MOL0     H57509   9.028   4.924   6.361  1.4248  0.3257  0.0638
  417MOL0     H57510   8.777   4.997   6.277 -1.3262  2.9741 -3.4624
  417MOL0     H57511   8.864   5.056   6.426  0.9119  0.5387  0.1955
  417MOL0     H57512   8.747   5.278   6.395  1.8222 -0.8699  1.6996
  417MOL0     H57513   8.664   5.221   6.251 -0.3267  0.3312 -0.1988
  417MOL0     H57514   8.643   5.108   6.512  3.9502 -2.0008 -2.4534
  417MOL0     H57515   8.560   5.020   6.391 -2.8929  0.5523  1.8268
  417MOL0     H57516   8.513   5.305   6.498  3.1854  0.5051 -0.9330
  417MOL0     H57517   8.386   5.179   6.497 -0.3015  0.1833  0.9106
  417MOL0     H57518   8.336   5.366   6.371  0.8552 -0.2730  0.3989
  417MOL0     H57519   8.471   5.337   6.256  2.0504 -1.7238 -0.1378
  417MOL0     H57520   8.229   5.157   6.289 -0.0138 -2.2177  0.5683
  417MOL0     H57521   8.366   5.112   6.211 -1.9333  0.0649  0.2368
  417MOL0     H57522   8.318   5.268   6.029  0.5040  1.2028  0.5938
  417MOL0     H57523   8.274   5.393   6.148  0.0436 -0.5232  1.8169
  417MOL0     H57524   8.050   5.242   6.174 -0.9485 -1.8643 -1.9788
  417MOL0     H57525   8.109   5.179   6.027 -1.2801 -1.1887  0.2088
  417MOL0     H57526   9.071   5.216   6.068  0.1316  0.2118  2.5847
  417MOL0     H57527   9.282   5.114   5.984  0.5977  2.2530  1.0569
  417MOL0     H57528   9.508   4.594   5.896 -1.7365  2.0333  0.8419
  417MOL0     H57529   9.709   4.503   5.851  3.4435 -2.0605  0.6540
  417MOL0     H57530   9.557   3.219   5.645 -2.7094 -1.5779 -0.2400
  417MOL0     H57531   9.508   3.110   5.425 -1.9020  0.3409  0.6083
  417MOL0     H57532   9.314   3.097   5.069 -0.0373  0.7056  0.8177
  417MOL0     H57533   9.206   3.012   4.886 -0.3837  1.6541 -0.4583
  417MOL0     H57534   9.271   3.227   4.558  0.5652 -1.6922  3.1168
  417MOL0     H57535   9.351   3.116   4.452  1.9862  1.4339  1.6305
  417MOL0     H57536   9.055   3.172   4.479  2.5731  4.2341  1.2550
  417MOL0     H57537   9.101   3.011   4.454  1.8871 -0.6865  0.8510
  417MOL0     H57538   9.193   3.249   4.285 -0.7869  0.0783 -2.0922
  417MOL0     H57539   9.219   3.081   4.241 -0.6256  0.7103 -0.7927
  417MOL0     H57540   8.959   3.045   4.219 -0.4559 -0.2723 -1.5676
  417MOL0     H57541   9.025   3.175   4.112  0.4635 -1.6698  0.0401
  417MOL0     H57542   8.716   3.333   4.345  0.4704  0.0301 -0.2875
  417MOL0     H57543   9.492   3.166   4.618 -0.2308  0.1450 -0.0879
  417MOL0     H57544   9.756   3.243   4.841  0.0977  0.3468  2.9753
  417MOL0     H57545   9.662   3.330   4.705 -0.9234 -2.1139 -1.1549
  417MOL0     H57546   9.662   3.381   4.873  3.7507  0.2839 -1.2154
  418MOL0     O57547   2.647   5.522   1.877 -0.5211  0.3524  0.3841
  418MOL0     C57548   2.550   5.555   1.815  0.2394  0.1630  0.4203
  418MOL0     O57549   2.509   5.511   1.691  0.2823  0.0465 -1.1157
  418MOL0     C57550   2.595   5.432   1.622 -0.0121  0.4661  0.7613
  418MOL0     C57551   2.736   5.463   1.600 -0.0262 -0.4365 -0.1910
  418MOL0     C57552   2.832   5.378   1.548  0.7924 -0.2336 -0.7899
  418MOL0     C57553   2.780   5.257   1.508  0.1413 -0.3154 -0.4400
  418MOL0     O57554   2.873   5.164   1.454  0.4511 -0.0513  0.1702
  418MOL0     C57555   2.884   5.031   1.510  0.4777 -0.0912  0.4376
  418MOL0     C57556   2.946   5.012   1.644  0.3270 -0.2796  0.7609
  418MOL0     C57557   3.084   5.092   1.651 -0.2514 -0.3015 -0.0001
  418MOL0     C57558   3.168   5.086   1.783 -0.0195 -0.0524 -0.6102
  418MOL0     C57559   3.254   4.963   1.792 -0.5396  1.4018  0.1326
  418MOL0     C57560   3.327   4.967   1.924  0.8224  0.3980  0.5346
  418MOL0     C57561   3.415   4.849   1.966  0.6548  0.3675  0.1831
  418MOL0     C57562   3.568   4.878   1.918  2.1642  0.8392 -0.4076
  418MOL0     N57563   3.636   4.758   1.966  1.3799 -0.6134  0.4449
  418MOL0     C57564   3.679   4.659   1.877  0.1506 -0.1979 -0.2751
  418MOL0     C57565   3.717   4.558   1.957  0.2676  0.0923  0.7447
  418MOL0     C57566   3.792   4.431   1.912  0.1152  0.9245  0.8649
  418MOL0     C57567   3.937   4.448   1.939  0.0966 -0.2103  0.2979
  418MOL0     C57568   4.014   4.329   1.888 -0.2955  0.0332 -0.4958
  418MOL0     C57569   4.165   4.318   1.923 -0.9147 -0.0440  0.1297
  418MOL0     O57570   4.239   4.429   1.867 -0.4042  0.0826  0.6144
  418MOL0     C57571   4.366   4.426   1.924  0.2469 -0.1988 -1.3532
  418MOL0     C57572   4.471   4.401   1.843  0.1289  0.9390 -0.0383
  418MOL0     C57573   4.601   4.409   1.890 -0.3273 -0.4453 -0.4110
  418MOL0     C57574   4.704   4.358   1.790 -0.0711 -0.1132 -0.5093
  418MOL0     C57575   4.632   4.447   2.025  0.4377  0.4636  1.0674
  418MOL0     C57576   4.763   4.451   2.096  0.3590 -0.0865  1.4004
  418MOL0     O57577   4.762   4.446   2.232  0.6473 -0.5343 -0.3315
  418MOL0     C57578   4.876   4.470   2.302  0.4556  0.1715 -1.0129
  418MOL0     C57579   5.013   4.499   2.268 -0.6573  0.7026 -0.5938
  418MOL0     C57580   5.110   4.521   2.365 -0.0425  0.0965  0.2175
  418MOL0     C57581   5.088   4.522   2.494  0.9092  0.8637  0.3540
  418MOL0     O57582   5.201   4.532   2.575  0.5694 -0.6222  0.4805
  418MOL0     C57583   5.180   4.528   2.722 -0.3871 -0.3372 -1.3039
  418MOL0     C57584   5.307   4.565   2.813 -0.0646 -0.0316  0.7498
  418MOL0     C57585   5.277   4.582   2.963 -0.3659  0.4780  0.6367
  418MOL0     C57586   5.309   4.459   3.058 -0.7728 -0.1362  0.7410
  418MOL0     C57587   5.186   4.385   3.098  0.5632  0.3112  0.2964
  418MOL0     C57588   5.115   4.462   3.206 -0.2880 -0.2960  0.4406
  418MOL0     C57589   5.202   4.477   3.336  0.2891 -0.8415  1.0753
  418MOL0     C57590   5.114   4.489   3.458  0.0879 -0.3793 -0.1435
  418MOL0    Cl57591   5.017   4.341   3.484 -0.3011  0.3088 -0.2703
  418MOL0     C57592   4.956   4.491   2.535  0.2932  0.8173 -0.1627
  418MOL0     C57593   4.854   4.464   2.438  0.0029 -0.5671 -0.0979
  418MOL0     O57594   4.862   4.463   2.021  0.1756 -0.2908  0.5259
  418MOL0     C57595   4.510   4.478   2.104 -0.5340  0.5210 -0.7265
  418MOL0     C57596   4.384   4.482   2.052  0.9921  0.7533  0.3313
  418MOL0     N57597   3.691   4.593   2.089 -1.0725 -0.2343  0.0623
  418MOL0     N57598   3.643   4.714   2.092 -0.5167 -0.4584  0.1766
  418MOL0     C57599   2.644   5.226   1.501  0.2728  0.1648 -0.7014
  418MOL0     C57600   2.547   5.312   1.558  0.2100  0.1167 -0.0591
  418MOL0     C57601   2.450   5.642   1.895  0.6456  0.2691 -0.3212
  418MOL0     C57602   2.358   5.715   1.813 -0.5715  0.7976  0.1299
  418MOL0     C57603   2.249   5.773   1.865  0.5619  0.4593 -0.0075
  418MOL0     C57604   2.220   5.778   1.999  0.6594 -0.1759  0.1942
  418MOL0     O57605   2.114   5.867   2.027 -0.5786 -0.2102 -0.4747
  418MOL0     C57606   2.042   5.845   2.157 -0.6382  0.4465  1.0451
  418MOL0     C57607   1.908   5.913   2.165  0.4399  0.3024 -0.1531
  418MOL0     C57608   1.810   5.878   2.046  0.0305 -0.2594 -0.0142
  418MOL0     C57609   1.674   5.936   2.074  0.5268 -1.0447 -0.5211
  418MOL0     C57610   1.616   5.859   2.183  0.2430 -0.3775 -0.3917
  418MOL0     C57611   1.572   5.778   2.264  0.5489  0.9332  1.1712
  418MOL0     C57612   2.305   5.711   2.080  0.0957  0.0913 -0.1416
  418MOL0     C57613   2.414   5.631   2.030  0.4825  0.3328  0.1852
  418MOL0     C57614   2.491   5.547   2.136  0.3017 -0.0077 -1.2468
  418MOL0     H57615   2.777   5.552   1.645 -1.6632 -0.9226  2.4840
  418MOL0     H57616   2.932   5.420   1.538  0.2409  0.7479 -2.7441
  418MOL0     H57617   2.940   4.968   1.440  0.0802  0.1586 -0.1154
  418MOL0     H57618   2.779   4.999   1.518  1.0728 -1.8061  2.3499
  418MOL0     H57619   2.882   5.059   1.720 -1.9727 -2.1109  0.0795
  418MOL0     H57620   2.960   4.907   1.673 -0.6585 -1.1607 -1.7298
  418MOL0     H57621   3.157   5.070   1.572  0.9739  1.4419  0.5907
  418MOL0     H57622   3.049   5.195   1.642  0.1020 -0.2481 -0.8371
  418MOL0     H57623   3.238   5.170   1.779  0.7098 -0.4680  1.9556
  418MOL0     H57624   3.100   5.093   1.868 -1.3005 -2.5226 -1.3276
  418MOL0     H57625   3.323   4.968   1.708  0.8889  2.5890  1.3241
  418MOL0     H57626   3.191   4.873   1.791  3.1921 -1.4627  0.2690
  418MOL0     H57627   3.378   5.064   1.936  2.1277 -0.3309  1.2375
  418MOL0     H57628   3.244   4.958   1.995 -1.0165  0.8482 -1.4606
  418MOL0     H57629   3.373   4.756   1.926 -1.7629  1.7306 -0.6786
  418MOL0     H57630   3.423   4.847   2.075  3.9497 -1.5031  0.0051
  418MOL0     H57631   3.572   4.881   1.809 -1.0857  2.3171 -0.6010
  418MOL0     H57632   3.618   4.970   1.950  2.2028  1.5380 -2.3306
  418MOL0     H57633   3.699   4.675   1.771  5.1908  1.1668  0.5961
  418MOL0     H57634   3.766   4.398   1.811 -0.6930  0.1070  1.3256
  418MOL0     H57635   3.750   4.352   1.974  0.5128 -1.0911 -1.2857
  418MOL0     H57636   3.979   4.533   1.884  0.9079 -1.0055 -0.3482
  418MOL0     H57637   3.951   4.454   2.047  0.8260  0.4602  0.1819
  418MOL0     H57638   3.958   4.255   1.946 -3.0180 -1.3687 -4.4717
  418MOL0     H57639   3.998   4.318   1.780  1.6647 -0.7135 -0.7548
  418MOL0     H57640   4.165   4.315   2.032 -1.0513 -1.0343  0.1106
  418MOL0     H57641   4.213   4.229   1.881  0.8628  1.7204 -1.8240
  418MOL0     H57642   4.453   4.360   1.744 -3.8826  1.7636  0.2021
  418MOL0     H57643   4.776   4.290   1.838 -2.2358 -0.9821  1.7259
  418MOL0     H57644   4.770   4.440   1.760 -2.3591  1.4791 -1.4116
  418MOL0     H57645   4.668   4.303   1.702  1.8235 -1.4599 -0.5148
  418MOL0     H57646   5.049   4.495   2.166  2.4387 -0.7004  0.4028
  418MOL0     H57647   5.215   4.526   2.336 -0.3401 -1.4372 -1.2543
  418MOL0     H57648   5.105   4.599   2.757  2.4220  1.5045  1.5682
  418MOL0     H57649   5.147   4.426   2.745 -1.4333  0.2779  0.0329
  418MOL0     H57650   5.395   4.504   2.788 -0.6221 -1.6501  2.5218
  418MOL0     H57651   5.341   4.662   2.774 -1.2315  0.6194  1.2950
  418MOL0     H57652   5.169   4.599   2.965 -0.2585  1.1267  1.2474
  418MOL0     H57653   5.334   4.667   3.001  1.5940 -2.2809  4.5773
  418MOL0     H57654   5.379   4.490   3.136 -0.3260 -2.4284  1.3538
  418MOL0     H57655   5.371   4.390   2.999  1.3103  1.6976  0.6933
  418MOL0     H57656   5.121   4.373   3.011  0.9844  0.0004  0.0236
  418MOL0     H57657   5.199   4.279   3.121  0.7601  0.4982  1.0819
  418MOL0     H57658   5.024   4.402   3.217 -0.9639  1.0765  3.1988
  418MOL0     H57659   5.094   4.562   3.168  3.7641  0.5984  0.0870
  418MOL0     H57660   5.255   4.573   3.339 -2.0098  0.4727  3.2437
  418MOL0     H57661   5.261   4.385   3.337 -2.8991 -3.1602 -1.9896
  418MOL0     H57662   5.053   4.579   3.443 -3.7129 -2.9882 -1.9521
  418MOL0     H57663   5.171   4.505   3.550  2.7017  0.5082 -1.8010
  418MOL0     H57664   4.926   4.485   2.639 -2.8965  2.2142 -0.8918
  418MOL0     H57665   4.751   4.459   2.474  0.2684  1.5512  1.0872
  418MOL0     H57666   4.525   4.504   2.208 -1.7776  1.8848 -0.8597
  418MOL0     H57667   4.303   4.519   2.115 -0.1763 -1.5221  0.2707
  418MOL0     H57668   2.615   5.136   1.447 -1.3208  0.0446  0.2931
  418MOL0     H57669   2.440   5.293   1.555 -0.3144  1.1139  4.5459
  418MOL0     H57670   2.361   5.718   1.705  0.1909  2.6381  0.1618
  418MOL0     H57671   2.176   5.830   1.810  1.6820  0.7546 -1.2541
  418MOL0     H57672   2.024   5.737   2.165 -0.8059  0.5276  1.9315
  418MOL0     H57673   2.084   5.887   2.249 -2.5733  3.1367  0.7929
  418MOL0     H57674   1.910   6.022   2.163 -0.9383  0.3546  0.0377
  418MOL0     H57675   1.872   5.876   2.262  2.2307  1.6125  1.0789
  418MOL0     H57676   1.860   5.914   1.955 -2.2233 -0.4644 -1.3959
  418MOL0     H57677   1.805   5.769   2.035  1.6296 -0.5045  1.3122
  418MOL0     H57678   1.609   5.939   1.986  2.4436 -0.4404 -1.9656
  418MOL0     H57679   1.676   6.040   2.107 -0.3261 -0.8543 -1.0305
  418MOL0     H57680   1.536   5.688   2.310 -0.3937  0.3812 -0.5421
  418MOL0     H57681   2.268   5.721   2.182 -2.2112  1.0904 -1.0129
  418MOL0     H57682   2.427   5.505   2.214  0.4653 -0.0018 -1.1096
  418MOL0     H57683   2.527   5.449   2.103  1.0902 -0.8986  1.9230
  418MOL0     H57684   2.572   5.609   2.175 -0.3887 -0.0017  0.2279
  419MOL0     O57685   7.551   9.753   5.848 -0.4469 -0.3351  0.7495
  419MOL0     C57686   7.454   9.678   5.811 -0.3456 -0.8955 -0.8762
  419MOL0     O57687   7.471   9.579   5.714  0.3174  0.0459  0.5753
  419MOL0     C57688   7.572   9.570   5.627 -0.2362  0.4530 -0.1676
  419MOL0     C57689   7.584   9.653   5.510 -0.0594  0.1524 -0.3055
  419MOL0     C57690   7.675   9.615   5.412  0.0507  0.9912  0.1014
  419MOL0     C57691   7.760   9.509   5.436 -0.2073  0.2665 -0.0106
  419MOL0     O57692   7.859   9.481   5.343  0.0635 -0.8175  0.3711
  419MOL0     C57693   7.970   9.402   5.382  0.3166  0.4552  0.1107
  419MOL0     C57694   8.102   9.434   5.316 -0.1067 -0.6189 -0.3357
  419MOL0     C57695   8.154   9.575   5.368  1.1513  0.5200  0.3728
  419MOL0     C57696   8.293   9.604   5.316  0.2886  0.3494 -1.2467
  419MOL0     C57697   8.353   9.724   5.387 -0.6978 -0.3957  0.2250
  419MOL0     C57698   8.500   9.746   5.334  0.2690  0.4068  0.2826
  419MOL0     C57699   8.583   9.850   5.421  0.3830 -0.1302 -0.0513
  419MOL0     C57700   8.506   9.982   5.430  0.1911  0.1198  0.1731
  419MOL0     N57701   8.472  10.037   5.298  0.3612  0.0800  0.5231
  419MOL0     C57702   8.536  10.140   5.242 -0.2111  0.1970  1.4348
  419MOL0     C57703   8.455  10.186   5.141 -0.1361 -0.7057 -1.0823
  419MOL0     C57704   8.484  10.286   5.036 -0.0579  0.6415 -0.2270
  419MOL0     C57705   8.548  10.219   4.905  0.1700  0.5145 -0.8617
  419MOL0     C57706   8.463  10.107   4.834  0.8293  0.7188  0.2988
  419MOL0     C57707   8.542  10.027   4.732 -0.1972  0.0690  0.4382
  419MOL0     O57708   8.628   9.927   4.788 -0.2115  0.3389  0.1693
  419MOL0     C57709   8.655   9.813   4.714  0.0990  0.4156  0.3853
  419MOL0     C57710   8.658   9.700   4.795 -0.2054 -0.1016  0.3633
  419MOL0     C57711   8.668   9.572   4.740  0.0819  0.3436  0.4892
  419MOL0     C57712   8.649   9.451   4.833  0.0524  0.0071 -0.3589
  419MOL0     C57713   8.686   9.550   4.596  0.4008 -0.1946 -0.9005
  419MOL0     C57714   8.706   9.419   4.525  0.2418 -0.2627 -0.2602
  419MOL0     O57715   8.681   9.428   4.392 -0.0846  0.2594 -0.4308
  419MOL0     C57716   8.727   9.324   4.315 -0.1886 -0.1968  0.5511
  419MOL0     C57717   8.841   9.336   4.237  0.5281 -0.4177 -0.0553
  419MOL0     C57718   8.888   9.227   4.150 -0.6022 -0.0024 -0.0447
  419MOL0     C57719   8.831   9.104   4.160  0.7451 -0.5039  0.2621
  419MOL0     O57720   8.883   8.995   4.097 -0.4756  0.5329  0.4973
  419MOL0     C57721   8.934   8.892   4.174  0.3734 -0.8064  0.0250
  419MOL0     C57722   9.014   8.788   4.103  0.1616 -0.2730  0.5783
  419MOL0     C57723   8.922   8.711   3.999 -0.4349 -0.2427 -0.4608
  419MOL0     C57724   8.987   8.573   3.962  0.1104 -0.2239 -0.1183
  419MOL0     C57725   9.023   8.463   4.069 -0.5270 -1.4967 -0.9122
  419MOL0     C57726   9.098   8.327   4.020  1.0989 -1.1596 -0.4742
  419MOL0     C57727   9.248   8.338   4.008  0.2966  0.0138 -1.2207
  419MOL0     C57728   9.314   8.345   4.150  0.0444  0.6211  0.6747
  419MOL0    Cl57729   9.506   8.312   4.148  0.0896 -0.6741 -0.7235
  419MOL0     C57730   8.712   9.092   4.237  0.2337 -0.5860 -0.4971
  419MOL0     C57731   8.664   9.197   4.313 -0.7926  0.5713  0.7372
  419MOL0     O57732   8.720   9.320   4.589  0.9211 -0.0023 -0.4049
  419MOL0     C57733   8.680   9.664   4.514 -0.1452 -0.1388  0.1761
  419MOL0     C57734   8.667   9.794   4.570  0.2417  1.0302  0.5056
  419MOL0     N57735   8.332  10.115   5.140  0.6478 -0.4251  0.3644
  419MOL0     N57736   8.345  10.032   5.239  0.0551  0.1942 -0.0697
  419MOL0     C57737   7.749   9.426   5.558  0.0132 -0.3683  1.1913
  419MOL0     C57738   7.657   9.456   5.650 -0.6667 -0.0805 -1.4009
  419MOL0     C57739   7.323   9.715   5.864 -0.2328 -0.4698 -0.6607
  419MOL0     C57740   7.236   9.772   5.770  1.4001  0.4416 -0.1274
  419MOL0     C57741   7.109   9.819   5.801  1.1157 -0.0523 -0.1818
  419MOL0     C57742   7.050   9.793   5.923  0.1294 -0.4861 -0.2346
  419MOL0     O57743   6.916   9.826   5.942  0.4422 -0.4714  0.1096
  419MOL0     C57744   6.869   9.848   6.064  1.0064  0.1860 -0.8398
  419MOL0     C57745   6.737   9.925   6.042  0.3004  0.1946  0.6647
  419MOL0     C57746   6.617   9.849   5.979  0.3051  0.0110 -0.1212
  419MOL0     C57747   6.539   9.730   6.046 -1.0584 -0.5517 -0.0027
  419MOL0     C57748   6.621   9.621   6.099  0.3687  0.0246  0.3287
  419MOL0     C57749   6.680   9.528   6.151 -0.0955 -0.0211 -0.0376
  419MOL0     C57750   7.129   9.744   6.020 -0.7302  0.2657 -0.2172
  419MOL0     C57751   7.267   9.709   5.997  0.2084 -0.3949  0.2806
  419MOL0     C57752   7.352   9.662   6.109 -0.9479 -0.0185  0.5843
  419MOL0     H57753   7.518   9.738   5.509  2.2507  2.1244  1.8105
  419MOL0     H57754   7.682   9.679   5.324  2.6517 -0.9168 -1.2164
  419MOL0     H57755   7.941   9.300   5.356  0.2423  0.9029 -1.7004
  419MOL0     H57756   7.989   9.412   5.489  0.1430  1.4032  0.0661
  419MOL0     H57757   8.166   9.347   5.333 -0.5430 -1.6936 -3.5277
  419MOL0     H57758   8.070   9.427   5.212  1.2663 -1.3122 -0.7319
  419MOL0     H57759   8.081   9.654   5.351  0.9302  0.6028  1.6226
  419MOL0     H57760   8.148   9.575   5.477 -1.7047  0.0970  0.2944
  419MOL0     H57761   8.362   9.519   5.320  0.7509  0.7316  2.2736
  419MOL0     H57762   8.272   9.633   5.212 -6.1238 -0.5515 -0.6124
  419MOL0     H57763   8.359   9.698   5.493 -0.7672 -2.7003 -0.3049
  419MOL0     H57764   8.281   9.801   5.356 -0.5205 -0.9403 -1.6414
  419MOL0     H57765   8.545   9.647   5.342 -0.4979 -0.0512 -0.8814
  419MOL0     H57766   8.511   9.776   5.230  1.4805  3.8234  1.2419
  419MOL0     H57767   8.680   9.853   5.371  0.7622 -0.8324  0.6208
  419MOL0     H57768   8.580   9.805   5.521 -4.9445 -0.2070  0.0442
  419MOL0     H57769   8.409   9.963   5.477 -0.0637 -0.5307 -0.5935
  419MOL0     H57770   8.561  10.052   5.494  0.9388 -3.2861  3.5575
  419MOL0     H57771   8.637  10.170   5.270 -1.0246  4.0630  0.7767
  419MOL0     H57772   8.546  10.364   5.083 -0.1848  1.4443 -1.3315
  419MOL0     H57773   8.397  10.340   4.997  0.5445  0.0345 -2.5660
  419MOL0     H57774   8.571  10.305   4.841 -0.1104  2.2606  1.2750
  419MOL0     H57775   8.646  10.177   4.929 -1.4671 -3.6095 -0.4232
  419MOL0     H57776   8.408  10.039   4.900  0.0901 -1.5868 -2.5021
  419MOL0     H57777   8.378  10.154   4.784  1.6801  1.6738 -0.2850
  419MOL0     H57778   8.474   9.973   4.666 -2.8113  1.6651  1.6392
  419MOL0     H57779   8.594  10.107   4.678  1.4344 -0.5430  1.0337
  419MOL0     H57780   8.628   9.712   4.898 -0.9242 -2.6712  0.5230
  419MOL0     H57781   8.546   9.414   4.827  0.3014 -0.7592 -0.0323
  419MOL0     H57782   8.650   9.479   4.939  0.9557  0.3541 -0.4495
  419MOL0     H57783   8.720   9.371   4.813 -1.6845 -1.9624  0.9426
  419MOL0     H57784   8.882   9.436   4.224  1.8966 -1.0962 -1.3436
  419MOL0     H57785   8.985   9.232   4.101 -0.5746 -0.8225 -0.0950
  419MOL0     H57786   8.990   8.937   4.255 -2.7594 -1.6244  2.8550
  419MOL0     H57787   8.860   8.826   4.220 -0.3310  0.0540  0.1429
  419MOL0     H57788   9.091   8.848   4.053 -1.2032  2.0399  1.1183
  419MOL0     H57789   9.052   8.713   4.174  3.4089 -0.7352 -1.4278
  419MOL0     H57790   8.929   8.769   3.906 -0.2201 -2.7500 -2.0929
  419MOL0     H57791   8.817   8.708   4.031 -0.6683 -0.6553 -1.2332
  419MOL0     H57792   9.069   8.592   3.892  1.6772 -1.1308  1.3716
  419MOL0     H57793   8.912   8.522   3.901  0.8833  0.1870 -1.4406
  419MOL0     H57794   9.078   8.514   4.149 -0.1387 -1.3963 -1.2367
  419MOL0     H57795   8.928   8.424   4.107 -1.1226  1.3579  0.7938
  419MOL0     H57796   9.053   8.288   3.928  0.1952  0.0317 -0.5641
  419MOL0     H57797   9.067   8.245   4.086 -2.8514 -0.7544 -1.5287
  419MOL0     H57798   9.272   8.416   3.935 -3.1496 -0.0900 -2.6168
  419MOL0     H57799   9.273   8.247   3.952  3.7805  0.3236 -0.4391
  419MOL0     H57800   9.273   8.263   4.209  1.6795  0.5239  1.7557
  419MOL0     H57801   9.285   8.440   4.195  3.2519  3.5059 -2.6808
  419MOL0     H57802   8.661   8.997   4.234 -2.3377  0.7136 -0.4831
  419MOL0     H57803   8.587   9.175   4.387 -0.8710 -0.4061  0.3759
  419MOL0     H57804   8.702   9.666   4.408 -0.3365  2.2091  0.1218
  419MOL0     H57805   8.667   9.871   4.493 -3.5964 -0.2279 -0.9641
  419MOL0     H57806   7.809   9.336   5.567 -1.4358 -1.6259 -0.7612
  419MOL0     H57807   7.646   9.398   5.741 -1.7111  1.0728 -0.7438
  419MOL0     H57808   7.272   9.773   5.667  0.3250  1.1790 -0.5100
  419MOL0     H57809   7.050   9.871   5.726 -1.1929  2.0303  2.8273
  419MOL0     H57810   6.843   9.753   6.112  0.6018  0.4324 -0.5641
  419MOL0     H57811   6.936   9.900   6.133 -0.6391  0.3253  0.7362
  419MOL0     H57812   6.745  10.018   5.985 -2.2209  1.2590  1.8720
  419MOL0     H57813   6.707   9.962   6.140  0.0020  0.0679  0.6234
  419MOL0     H57814   6.540   9.926   5.968 -0.0830 -0.2322  0.7943
  419MOL0     H57815   6.632   9.808   5.879 -3.8427 -1.6292 -0.2613
  419MOL0     H57816   6.470   9.688   5.972 -0.7593  0.2347 -0.7366
  419MOL0     H57817   6.486   9.769   6.134  2.7297  2.1914  1.3111
  419MOL0     H57818   6.720   9.449   6.211 -0.9933  0.6546  1.5098
  419MOL0     H57819   7.082   9.737   6.117 -0.5956  0.5484 -0.1312
  419MOL0     H57820   7.442   9.723   6.117  0.2351 -1.5750 -0.3538
  419MOL0     H57821   7.294   9.663   6.202 -0.3385  1.3734  0.9650
  419MOL0     H57822   7.379   9.557   6.095  0.8059  0.3939  0.7072
  420MOL0     O57823  10.718  10.925  10.572  0.1668 -0.3122 -0.3800
  420MOL0     C57824  10.731  10.986  10.463  0.9751  0.5624  0.3756
  420MOL0     O57825  10.828  11.078  10.445 -0.1582 -0.5025 -0.0243
  420MOL0     C57826  10.939  11.077  10.523 -0.2199  0.1719  1.1876
  420MOL0     C57827  11.014  11.194  10.531 -0.6543  0.7244  0.3505
  420MOL0     C57828  11.135  11.193  10.611  1.0006 -0.3223 -0.1353
  420MOL0     C57829  11.188  11.078  10.664  0.3764 -0.7267  0.1260
  420MOL0     O57830  11.310  11.087  10.735  0.5294  0.3728  0.3895
  420MOL0     C57831  11.382  10.968  10.755  0.2556 -0.4187  0.4706
  420MOL0     C57832  11.510  10.989  10.827 -1.4728 -0.4018  0.0513
  420MOL0     C57833  11.572  10.849  10.835 -0.0833  0.2396 -0.3475
  420MOL0     C57834  11.699  10.853  10.929 -0.0174  0.7320  0.8419
  420MOL0     C57835  11.796  10.740  10.904  0.0208 -0.4284  0.0538
  420MOL0     C57836  11.758  10.599  10.937 -0.3189  0.1948  0.3840
  420MOL0     C57837  11.859  10.500  10.899 -0.5552 -0.5770 -0.3390
  420MOL0     C57838  11.862  10.495  10.735 -0.4345  0.0519  0.0677
  420MOL0     N57839  11.973  10.407  10.708 -0.0272 -0.2962 -0.3933
  420MOL0     C57840  12.109  10.441  10.715  0.4220 -0.9225 -0.5497
  420MOL0     C57841  12.176  10.332  10.686  0.2578 -0.3450  0.0301
  420MOL0     C57842  12.319  10.318  10.677 -0.3107 -0.7428  0.6977
  420MOL0     C57843  12.370  10.236  10.562 -0.3144  0.4758  0.7406
  420MOL0     C57844  12.372  10.319  10.437  0.3287 -0.7904 -0.6210
  420MOL0     C57845  12.413  10.247  10.307  0.2029  0.4003  0.0213
  420MOL0     O57846  12.515  10.156  10.316  0.3824 -0.3752 -0.0958
  420MOL0     C57847  12.557  10.110  10.198 -0.1468  0.7368 -0.1230
  420MOL0     C57848  12.491  10.051  10.087 -0.1675 -0.2565  0.8097
  420MOL0     C57849  12.562  10.006   9.973 -0.8018  0.1200 -0.2209
  420MOL0     C57850  12.477   9.959   9.866 -0.5849  0.0312  0.4269
  420MOL0     C57851  12.705  10.016   9.981  0.6885 -0.1751  0.8601
  420MOL0     C57852  12.795   9.969   9.864 -0.5177  0.3159  1.4293
  420MOL0     O57853  12.753   9.886   9.778  0.0637  0.3666 -0.4068
  420MOL0     C57854  12.797   9.873   9.641 -0.0369  0.2140 -1.1980
  420MOL0     C57855  12.901   9.945   9.575  0.0098 -0.1293 -1.0215
  420MOL0     C57856  12.934   9.931   9.443 -0.2269  0.2283  0.4234
  420MOL0     C57857  12.874   9.834   9.364  0.1524 -0.6345  1.0776
  420MOL0     O57858  12.894   9.811   9.234  0.6314 -1.0182  0.4129
  420MOL0     C57859  13.013   9.827   9.165 -0.3651  0.1187  0.3431
  420MOL0     C57860  12.986   9.779   9.015 -0.3975 -0.0085  0.3674
  420MOL0     C57861  12.855   9.823   8.959  0.8522 -0.0538  0.4417
  420MOL0     C57862  12.838   9.773   8.815  0.3773  0.5851 -0.1398
  420MOL0     C57863  12.705   9.823   8.775 -0.3715 -0.1557 -0.5719
  420MOL0     C57864  12.649   9.757   8.655  0.8373  0.2876 -0.4618
  420MOL0     C57865  12.723   9.739   8.523 -0.2721 -0.3961 -0.4759
  420MOL0     C57866  12.634   9.774   8.404  0.5739  0.4715 -0.4595
  420MOL0    Cl57867  12.488   9.665   8.398 -0.7957  0.1511  0.0910
  420MOL0     C57868  12.776   9.759   9.426 -0.0723 -0.5456 -0.2434
  420MOL0     C57869  12.738   9.772   9.562  0.8492 -0.2146  0.7686
  420MOL0     O57870  12.899  10.043   9.853 -0.3200  0.7945  0.2805
  420MOL0     C57871  12.770  10.072  10.099 -0.2123  0.2396  0.7149
  420MOL0     C57872  12.695  10.114  10.197  0.1984 -0.7519 -0.3894
  420MOL0     N57873  12.086  10.233  10.667 -0.6354  1.5145 -0.7000
  420MOL0     N57874  11.966  10.274  10.687 -1.1650  0.2752  0.1458
  420MOL0     C57875  11.110  10.962  10.646 -0.4531  0.5766 -0.6473
  420MOL0     C57876  10.996  10.959  10.580  0.6581 -0.1531 -0.3324
  420MOL0     C57877  10.635  10.961  10.346  0.1167 -0.4233 -0.2905
  420MOL0     C57878  10.651  11.042  10.232  0.7556 -0.9869 -0.3668
  420MOL0     C57879  10.564  11.024  10.123  0.4153 -0.1224  0.4209
  420MOL0     C57880  10.480  10.908  10.111 -0.0077  0.4660 -0.3924
  420MOL0     O57881  10.403  10.903  10.003 -0.5918 -0.0946  0.7669
  420MOL0     C57882  10.307  10.786   9.995 -0.4030 -0.4886  0.5685
  420MOL0     C57883  10.205  10.821   9.879  0.5901  0.3712 -0.9704
  420MOL0     C57884  10.263  10.815   9.739 -0.2951  0.1153 -0.6354
  420MOL0     C57885  10.241  10.948   9.662  0.0117  0.8471 -0.4587
  420MOL0     C57886  10.279  10.931   9.527 -0.5371 -0.5418  0.8251
  420MOL0     C57887  10.332  10.919   9.416  0.3219  0.0063 -0.0340
  420MOL0     C57888  10.478  10.823  10.223 -0.3949  0.0125 -0.0355
  420MOL0     C57889  10.550  10.850  10.338  0.1057  0.2558 -0.0253
  420MOL0     C57890  10.530  10.765  10.458 -0.5712  0.6691 -0.3278
  420MOL0     H57891  10.968  11.285  10.493 -0.9474  1.6166  2.6976
  420MOL0     H57892  11.190  11.286  10.615 -0.5815  0.6930 -0.9312
  420MOL0     H57893  11.407  10.911  10.665  2.7442 -0.8585  1.3523
  420MOL0     H57894  11.324  10.907  10.825 -1.7767  0.5820 -0.2773
  420MOL0     H57895  11.587  11.048  10.777 -1.9553  0.2379  0.0455
  420MOL0     H57896  11.486  11.023  10.928 -2.6123  2.4047 -1.0466
  420MOL0     H57897  11.503  10.782  10.886 -0.0743  0.7715  0.3719
  420MOL0     H57898  11.598  10.812  10.736  0.8572  5.4112 -2.3654
  420MOL0     H57899  11.761  10.942  10.915  1.1036  0.1000  1.6088
  420MOL0     H57900  11.662  10.853  11.032 -0.4615  1.1867  0.6836
  420MOL0     H57901  11.880  10.774  10.964 -0.0742 -0.8054  0.4038
  420MOL0     H57902  11.815  10.742  10.796 -0.9173  0.4412 -0.1061
  420MOL0     H57903  11.734  10.589  11.043  0.4310 -0.4097  0.5062
  420MOL0     H57904  11.668  10.590  10.876  1.1849 -2.4132 -1.6401
  420MOL0     H57905  11.833  10.400  10.934  1.4877 -2.2081 -3.0347
  420MOL0     H57906  11.958  10.529  10.937 -0.5112  1.6668 -1.9295
  420MOL0     H57907  11.767  10.470  10.686 -0.4950  1.1889 -0.4162
  420MOL0     H57908  11.884  10.591  10.688 -1.8659  0.6208  0.4954
  420MOL0     H57909  12.146  10.537  10.750  2.7615 -1.8893 -0.1578
  420MOL0     H57910  12.347  10.267  10.770 -1.0431 -2.5835 -0.0432
  420MOL0     H57911  12.365  10.417  10.670 -3.0204  0.6241  1.0992
  420MOL0     H57912  12.476  10.215  10.580 -0.7299 -2.8688 -0.1483
  420MOL0     H57913  12.316  10.142  10.546 -2.2025  1.6453 -0.1192
  420MOL0     H57914  12.272  10.361  10.423  0.0437 -1.3582 -0.3204
  420MOL0     H57915  12.438  10.406  10.448 -1.4445  0.2688  3.1069
  420MOL0     H57916  12.328  10.192  10.266 -0.0150  1.0402 -0.4190
  420MOL0     H57917  12.433  10.315  10.223 -2.1017  0.3094 -0.6679
  420MOL0     H57918  12.385  10.028  10.094 -0.6326  2.2366  4.4276
  420MOL0     H57919  12.485  10.023   9.777 -3.1014 -0.2825 -0.1114
  420MOL0     H57920  12.376   9.932   9.896 -0.8432 -0.4154 -0.7618
  420MOL0     H57921  12.509   9.860   9.832  1.9719  1.3062 -1.2035
  420MOL0     H57922  12.946  10.028   9.628 -4.3238  0.7618  1.7397
  420MOL0     H57923  12.993  10.010   9.397 -2.7920  1.9655 -0.0793
  420MOL0     H57924  13.033   9.934   9.168  2.7784 -0.2808 -1.3108
  420MOL0     H57925  13.095   9.771   9.212  0.7451  1.3362 -0.0747
  420MOL0     H57926  13.076   9.801   8.957 -2.0162 -0.5499 -2.5120
  420MOL0     H57927  12.990   9.670   9.010 -3.1498 -0.1725  0.3610
  420MOL0     H57928  12.831   9.929   8.952 -1.0911 -0.3709  1.4644
  420MOL0     H57929  12.775   9.770   9.012  1.2583 -1.2493 -0.1053
  420MOL0     H57930  12.847   9.665   8.808  1.9186  0.6639  0.4432
  420MOL0     H57931  12.909   9.810   8.740 -0.5345  0.0860 -1.2831
  420MOL0     H57932  12.624   9.811   8.848 -0.7048  0.7593 -0.7708
  420MOL0     H57933  12.714   9.923   8.731 -1.2157  1.1034  1.9605
  420MOL0     H57934  12.555   9.806   8.627 -0.3486 -1.1116  0.9244
  420MOL0     H57935  12.614   9.658   8.684  1.2419 -0.2497 -1.7246
  420MOL0     H57936  12.762   9.636   8.521  0.8744  0.0040  0.0192
  420MOL0     H57937  12.805   9.811   8.512 -0.1618 -0.5585 -0.7357
  420MOL0     H57938  12.695   9.749   8.316  0.5141 -1.7971  0.0698
  420MOL0     H57939  12.605   9.879   8.400 -0.4984  0.1691 -0.9284
  420MOL0     H57940  12.721   9.682   9.373 -1.6262  0.1430  0.3092
  420MOL0     H57941  12.665   9.710   9.611  1.1508  1.1579  3.1277
  420MOL0     H57942  12.877  10.087  10.112 -0.2822  1.8568 -0.3536
  420MOL0     H57943  12.726  10.158  10.292  0.3600  1.8936 -1.5809
  420MOL0     H57944  11.153  10.867  10.676 -0.1111  1.3869  1.6436
  420MOL0     H57945  10.944  10.863  10.583  4.1542 -2.1744  0.6966
  420MOL0     H57946  10.728  11.118  10.220  0.4329  0.2640  3.8158
  420MOL0     H57947  10.576  11.097  10.044 -1.5110 -1.3142 -1.0485
  420MOL0     H57948  10.360  10.694   9.973 -0.2027 -0.3819  0.6032
  420MOL0     H57949  10.248  10.779  10.087 -2.3987 -0.1664 -0.6031
  420MOL0     H57950  10.160  10.919   9.897 -0.4241 -0.4803  1.4393
  420MOL0     H57951  10.119  10.753   9.876 -2.3931  3.8695 -2.8744
  420MOL0     H57952  10.369  10.789   9.729 -0.2466  0.5427 -1.3028
  420MOL0     H57953  10.195  10.742   9.694 -2.2575  2.6993 -2.1309
  420MOL0     H57954  10.302  11.018   9.720 -0.5120 -2.0723  4.1158
  420MOL0     H57955  10.135  10.975   9.668 -0.7034 -1.4412 -1.7238
  420MOL0     H57956  10.383  10.920   9.322  0.4086  3.5630 -0.0819
  420MOL0     H57957  10.399  10.749  10.230 -0.1225 -0.2529  0.3130
  420MOL0     H57958  10.456  10.687  10.436 -4.2553  2.9651  2.6750
  420MOL0     H57959  10.624  10.726  10.497 -1.4080  1.0251  2.2181
  420MOL0     H57960  10.482  10.829  10.532 -5.7630  0.3141 -2.9110
  421MOL0     O57961   8.932   5.080   9.491 -0.3960  0.1778 -0.6177
  421MOL0     C57962   8.834   5.016   9.526 -0.3551  0.1296 -0.2178
  421MOL0     O57963   8.771   4.925   9.439 -0.1589 -0.9818 -0.1742
  421MOL0     C57964   8.820   4.895   9.314  0.2724  0.3108  0.1070
  421MOL0     C57965   8.951   4.865   9.279 -0.7299 -0.0172  0.8507
  421MOL0     C57966   8.999   4.853   9.151  0.5378  0.0855 -0.3604
  421MOL0     C57967   8.906   4.864   9.054 -0.6449 -0.9470 -0.7837
  421MOL0     O57968   8.951   4.854   8.929  0.0199  0.0612  0.1493
  421MOL0     C57969   8.924   4.963   8.843  0.5273  0.5862 -0.5989
  421MOL0     C57970   9.046   4.988   8.747  0.6848  0.1608  1.0625
  421MOL0     C57971   9.167   5.053   8.812 -0.8468 -0.0397  0.6919
  421MOL0     C57972   9.292   5.062   8.727  0.6897  0.1515 -0.8092
  421MOL0     C57973   9.283   5.179   8.634  0.5017 -0.3106 -0.4016
  421MOL0     C57974   9.422   5.205   8.577 -0.7034 -0.7283 -0.3761
  421MOL0     C57975   9.427   5.351   8.517  0.3704  0.9603  0.4472
  421MOL0     C57976   9.467   5.458   8.626 -0.4806  0.0053 -0.2005
  421MOL0     N57977   9.444   5.592   8.582 -0.1152  0.2669 -0.0118
  421MOL0     C57978   9.494   5.645   8.468  0.0695 -0.7909  0.1243
  421MOL0     C57979   9.439   5.774   8.478 -0.2836 -0.4773  0.3762
  421MOL0     C57980   9.471   5.894   8.393 -0.3197 -0.2947 -0.4732
  421MOL0     C57981   9.379   5.910   8.278  0.2089 -0.1049  0.7654
  421MOL0     C57982   9.433   6.021   8.184 -0.3344 -0.1497 -0.2112
  421MOL0     C57983   9.450   6.158   8.256  0.4660 -0.4168 -1.1865
  421MOL0     O57984   9.323   6.208   8.298 -0.1451  0.5834 -0.4677
  421MOL0     C57985   9.328   6.243   8.430  0.1039  0.1656 -0.1956
  421MOL0     C57986   9.270   6.175   8.533 -0.1981  0.0068 -0.0326
  421MOL0     C57987   9.283   6.202   8.668 -0.6800  0.2474 -0.0935
  421MOL0     C57988   9.253   6.087   8.757 -0.2512 -0.8509 -0.4448
  421MOL0     C57989   9.360   6.312   8.710  0.4997 -0.5205  0.3850
  421MOL0     C57990   9.383   6.362   8.845  0.0084  1.1174 -1.4656
  421MOL0     O57991   9.292   6.306   8.936  0.0219  0.7682  0.1534
  421MOL0     C57992   9.298   6.332   9.068 -0.2755 -0.9535 -0.2668
  421MOL0     C57993   9.406   6.285   9.143  0.3297  0.1047  0.2617
  421MOL0     C57994   9.413   6.322   9.276  0.1012  0.9132  0.6885
  421MOL0     C57995   9.317   6.383   9.343  0.9064 -0.8128 -0.4431
  421MOL0     O57996   9.338   6.420   9.473  1.2596 -0.1976  0.0857
  421MOL0     C57997   9.220   6.400   9.557  0.5163  0.0478  0.5219
  421MOL0     C57998   9.275   6.373   9.699 -0.0229  1.1706 -0.6798
  421MOL0     C57999   9.156   6.393   9.800  0.7497  0.3489  0.1264
  421MOL0     C58000   9.134   6.534   9.842 -1.2858  0.0052 -0.0583
  421MOL0     C58001   9.012   6.566   9.917 -0.2762  1.1537  0.5993
  421MOL0     C58002   9.017   6.715   9.970  0.3480 -0.6757 -0.3349
  421MOL0     C58003   8.886   6.750  10.034  0.6452 -0.3305 -0.0910
  421MOL0     C58004   8.863   6.898  10.048 -0.0216 -0.0252  0.8418
  421MOL0    Cl58005   8.687   6.922  10.084  0.0260  0.2172 -0.1519
  421MOL0     C58006   9.208   6.425   9.265  0.0688  0.5050 -0.2102
  421MOL0     C58007   9.200   6.405   9.132  0.1758  0.2985 -0.2716
  421MOL0     O58008   9.454   6.453   8.872 -1.1864 -0.2120  0.0789
  421MOL0     C58009   9.407   6.396   8.605  0.6994 -0.9977  0.9554
  421MOL0     C58010   9.392   6.359   8.468 -0.0994  1.0043  0.7799
  421MOL0     N58011   9.364   5.795   8.597 -0.3711 -0.2146 -0.4308
  421MOL0     N58012   9.372   5.682   8.662  0.3403 -1.0471 -0.0359
  421MOL0     C58013   8.769   4.891   9.078 -0.0790  0.2723 -0.1828
  421MOL0     C58014   8.729   4.905   9.210  0.4780 -0.0744  0.3001
  421MOL0     C58015   8.773   5.047   9.651 -0.3029 -0.0528 -0.1295
  421MOL0     C58016   8.790   5.176   9.714  0.0085  1.3234  0.5901
  421MOL0     C58017   8.739   5.205   9.839 -0.1418 -0.3055  0.4302
  421MOL0     C58018   8.653   5.121   9.902 -0.0991 -0.8157 -0.4553
  421MOL0     O58019   8.580   5.162  10.004  0.1741  0.1832  1.0412
  421MOL0     C58020   8.476   5.071  10.050 -0.5661  0.0110 -0.3139
  421MOL0     C58021   8.421   5.108  10.186 -0.1493 -0.8274  0.2850
  421MOL0     C58022   8.320   5.015  10.245 -0.1846 -0.6201  0.4768
  421MOL0     C58023   8.298   5.059  10.396 -0.4732  0.3002  0.7444
  421MOL0     C58024   8.208   4.974  10.476 -0.0945  0.6528  0.3411
  421MOL0     C58025   8.124   4.920  10.545 -0.3593  0.6932 -0.1150
  421MOL0     C58026   8.632   4.995   9.841  0.7583 -0.6525  0.2266
  421MOL0     C58027   8.687   4.960   9.718 -0.2223  0.3877 -0.7770
  421MOL0     C58028   8.675   4.819   9.678 -0.4935 -0.6714 -1.0503
  421MOL0     H58029   9.023   4.848   9.359  0.4379 -1.8478 -0.5002
  421MOL0     H58030   9.104   4.840   9.124  0.2181  0.5698 -1.9230
  421MOL0     H58031   8.886   5.053   8.893 -1.2759 -2.1449  3.4492
  421MOL0     H58032   8.838   4.925   8.787  0.3081 -0.1764  0.2531
  421MOL0     H58033   9.073   4.898   8.690 -0.4142  0.5780 -0.1863
  421MOL0     H58034   9.000   5.048   8.667 -2.1958 -3.9078 -0.7321
  421MOL0     H58035   9.141   5.157   8.832 -0.1557  0.6655 -1.7139
  421MOL0     H58036   9.197   4.998   8.902 -1.8386  1.2818  1.8678
  421MOL0     H58037   9.381   5.076   8.790  0.5386  0.9845 -0.7672
  421MOL0     H58038   9.295   4.971   8.666 -4.2237 -2.4879  2.1919
  421MOL0     H58039   9.242   5.265   8.687  1.1925 -1.4505  2.1871
  421MOL0     H58040   9.207   5.164   8.558  0.2450 -3.2590  0.2811
  421MOL0     H58041   9.516   5.194   8.632 -0.4364  3.2840  0.2047
  421MOL0     H58042   9.437   5.151   8.483  2.7691 -2.4450  0.9537
  421MOL0     H58043   9.325   5.356   8.480  0.2901  1.1720  0.6985
  421MOL0     H58044   9.497   5.377   8.437  0.2294  3.2323  0.9987
  421MOL0     H58045   9.404   5.441   8.714 -0.2630  1.6771  0.3283
  421MOL0     H58046   9.568   5.436   8.660 -1.0218 -1.2872  0.6253
  421MOL0     H58047   9.577   5.618   8.404 -2.1294  0.1189 -3.3945
  421MOL0     H58048   9.570   5.868   8.355 -0.9613 -1.0038 -1.7188
  421MOL0     H58049   9.481   5.980   8.461 -2.4941 -3.2144  4.0054
  421MOL0     H58050   9.378   5.817   8.220  2.2271  1.4159 -1.8739
  421MOL0     H58051   9.274   5.925   8.307 -0.2693  1.6228 -1.6205
  421MOL0     H58052   9.536   6.001   8.156 -0.5849 -2.2136  0.1535
  421MOL0     H58053   9.366   6.036   8.099 -1.9679  1.8851  1.3359
  421MOL0     H58054   9.521   6.144   8.337 -2.4025 -0.7752  1.4356
  421MOL0     H58055   9.503   6.233   8.197 -0.7897  1.9139  0.5111
  421MOL0     H58056   9.239   6.076   8.501 -0.1862 -1.0322  2.8565
  421MOL0     H58057   9.168   6.124   8.815  2.2640  3.7210  0.8040
  421MOL0     H58058   9.345   6.065   8.811  1.3423 -0.1698 -2.7277
  421MOL0     H58059   9.222   5.994   8.707  3.4671 -0.9173 -3.0242
  421MOL0     H58060   9.493   6.235   9.101 -0.1571 -2.0826  1.7173
  421MOL0     H58061   9.507   6.294   9.321 -0.7939 -0.4964  1.8027
  421MOL0     H58062   9.152   6.484   9.543 -0.2060 -0.9434 -3.1096
  421MOL0     H58063   9.160   6.314   9.524  0.4493 -0.0744  0.9573
  421MOL0     H58064   9.313   6.271   9.696  1.2289  1.6467 -1.5614
  421MOL0     H58065   9.356   6.437   9.736 -0.8474  0.1634  3.3434
  421MOL0     H58066   9.172   6.342   9.896  0.6925  1.7070  0.8712
  421MOL0     H58067   9.070   6.351   9.746  1.6120  0.5124 -1.4276
  421MOL0     H58068   9.132   6.601   9.755 -0.1801 -3.0715 -2.6598
  421MOL0     H58069   9.226   6.567   9.892 -0.7877 -0.7857 -0.4417
  421MOL0     H58070   8.931   6.557   9.844  1.5644  0.0423 -1.4262
  421MOL0     H58071   8.998   6.498  10.002 -0.7585  2.1685  1.3393
  421MOL0     H58072   9.033   6.786   9.888 -1.3898  0.5761  0.3510
  421MOL0     H58073   9.100   6.735  10.038  1.9901 -0.2088 -2.3381
  421MOL0     H58074   8.869   6.709  10.133 -1.3152  1.4816  0.4191
  421MOL0     H58075   8.806   6.709   9.971 -1.0107  0.8560  1.1582
  421MOL0     H58076   8.885   6.947   9.953 -5.3187 -1.4236 -1.4471
  421MOL0     H58077   8.929   6.942  10.123  1.3946 -3.0437  1.5032
  421MOL0     H58078   9.135   6.492   9.310  3.1290  1.1029  4.5196
  421MOL0     H58079   9.120   6.443   9.071  2.6923  5.2480 -1.0189
  421MOL0     H58080   9.463   6.485   8.633 -1.1272 -0.1265  2.0274
  421MOL0     H58081   9.438   6.424   8.394 -2.2775  1.4994 -0.1874
  421MOL0     H58082   8.695   4.913   9.003  1.9401  1.7201 -1.8687
  421MOL0     H58083   8.625   4.934   9.227  0.4692 -0.3483  0.7345
  421MOL0     H58084   8.848   5.247   9.657  0.7207 -0.6264 -1.2016
  421MOL0     H58085   8.770   5.298   9.886  0.5080  0.8584 -2.1309
  421MOL0     H58086   8.391   5.082   9.982 -1.5893 -0.2048  0.8723
  421MOL0     H58087   8.501   4.965  10.064  1.4382  0.8024  3.7496
  421MOL0     H58088   8.367   5.203  10.181 -0.3438 -0.9803 -1.0419
  421MOL0     H58089   8.497   5.127  10.262 -1.1281 -0.2471  1.1500
  421MOL0     H58090   8.224   5.014  10.192 -1.0537  0.3227  1.9509
  421MOL0     H58091   8.365   4.915  10.244  1.1537 -0.0424 -0.7107
  421MOL0     H58092   8.263   5.163  10.395  1.1228  0.8614  0.6821
  421MOL0     H58093   8.395   5.052  10.446 -0.8872  1.1176  1.7096
  421MOL0     H58094   8.058   4.856  10.600 -0.1257 -1.3693 -2.0652
  421MOL0     H58095   8.573   4.917   9.887 -2.1380  0.8526 -0.6554
  421MOL0     H58096   8.775   4.782   9.654 -0.3659 -1.3061  0.3968
  421MOL0     H58097   8.642   4.757   9.761 -1.4728 -1.9127 -2.3065
  421MOL0     H58098   8.612   4.801   9.590 -2.0083  2.8333 -0.8699
  422MOL0     O58099   0.861   7.002   3.077  0.4047  0.3686  0.8064
  422MOL0     C58100   0.946   7.016   2.993  0.9264 -0.4915  0.2348
  422MOL0     O58101   0.936   6.987   2.866 -0.0251  0.2150  0.4154
  422MOL0     C58102   0.817   6.948   2.811 -0.3206 -0.0842 -1.0287
  422MOL0     C58103   0.704   7.023   2.846  0.2762 -0.1667  0.3499
  422MOL0     C58104   0.582   6.982   2.805  0.0980  0.4030 -0.3829
  422MOL0     C58105   0.571   6.870   2.707  0.1756 -0.3033  0.2089
  422MOL0     O58106   0.449   6.820   2.654 -0.1776 -0.2464 -0.0112
  422MOL0     C58107   0.330   6.894   2.646 -0.8208 -0.0185 -0.5194
  422MOL0     C58108   0.235   6.818   2.559 -0.6082  0.9599 -0.4946
  422MOL0     C58109   0.298   6.747   2.439 -1.1844 -0.6432  0.0980
  422MOL0     C58110   0.194   6.729   2.324 -0.1673  0.1744 -0.1102
  422MOL0     C58111   0.096   6.619   2.342  0.0987 -0.0475  0.5072
  422MOL0     C58112  -0.002   6.597   2.226  0.5515 -0.0496  0.0121
  422MOL0     C58113  -0.079   6.466   2.212  0.1620 -0.3022  0.1569
  422MOL0     C58114  -0.152   6.407   2.335 -0.4375  0.8137  0.6794
  422MOL0     N58115  -0.061   6.346   2.431 -0.5125 -0.6373 -0.1547
  422MOL0     C58116  -0.043   6.383   2.566  0.6389  0.7428 -0.0327
  422MOL0     C58117   0.054   6.306   2.613  0.7974  0.0161  0.5824
  422MOL0     C58118   0.083   6.294   2.759 -0.4331  0.1801 -1.0985
  422MOL0     C58119   0.204   6.377   2.794  0.3262  0.4629  0.4570
  422MOL0     C58120   0.264   6.350   2.935  0.6276  0.0137  0.1943
  422MOL0     C58121   0.158   6.329   3.049  0.5046 -0.2272  0.3256
  422MOL0     O58122   0.226   6.304   3.174  0.0087  0.0306  0.1537
  422MOL0     C58123   0.245   6.180   3.227 -0.1230 -0.4094  0.0932
  422MOL0     C58124   0.233   6.060   3.158 -0.5383 -0.8192  0.6375
  422MOL0     C58125   0.261   5.941   3.222  0.5281 -0.4207 -0.8049
  422MOL0     C58126   0.249   5.813   3.142  0.4780 -0.5093 -0.4598
  422MOL0     C58127   0.285   5.945   3.361  0.1340 -0.0606  0.6315
  422MOL0     C58128   0.287   5.824   3.452  0.2841  0.3432  0.6619
  422MOL0     O58129   0.205   5.816   3.557 -0.1332 -0.4149  0.6636
  422MOL0     C58130   0.203   5.711   3.642  0.1563  0.6461 -0.0078
  422MOL0     C58131   0.109   5.727   3.751  0.4772  0.1318 -0.2980
  422MOL0     C58132   0.079   5.621   3.841 -0.6869  0.2050  0.2743
  422MOL0     C58133   0.144   5.499   3.818  0.6683  0.0724  0.1352
  422MOL0     O58134   0.105   5.409   3.911 -0.4492 -0.0766 -0.1500
  422MOL0     C58135   0.084   5.265   3.878 -0.1857  0.0973  0.2166
  422MOL0     C58136  -0.056   5.223   3.837 -0.2247 -1.7024 -0.4513
  422MOL0     C58137  -0.119   5.324   3.738 -0.3720 -0.0155 -0.1195
  422MOL0     C58138  -0.259   5.268   3.719 -1.0146 -0.6983  0.8177
  422MOL0     C58139  -0.349   5.385   3.657  0.3249  0.5393 -0.5882
  422MOL0     C58140  -0.487   5.322   3.610  0.0454  0.1830  0.0130
  422MOL0     C58141  -0.482   5.227   3.481  0.7183  0.1489  0.7881
  422MOL0     C58142  -0.420   5.298   3.356  0.5269  0.1499  0.1112
  422MOL0    Cl58143  -0.249   5.283   3.367  0.1164 -0.2811 -0.4379
  422MOL0     C58144   0.241   5.481   3.716 -0.2219 -0.0148 -0.1502
  422MOL0     C58145   0.272   5.586   3.633 -0.2568  0.1847  0.0962
  422MOL0     O58146   0.359   5.733   3.405 -0.0514 -0.8275 -0.8485
  422MOL0     C58147   0.298   6.062   3.432  0.6241 -0.0591 -0.1012
  422MOL0     C58148   0.284   6.186   3.364  0.0513  0.8444 -0.4261
  422MOL0     N58149   0.096   6.217   2.518 -0.1716  0.7021  0.0725
  422MOL0     N58150   0.024   6.241   2.414  0.5702 -0.4946 -0.4250
  422MOL0     C58151   0.689   6.797   2.685 -0.5085 -0.4021  0.4659
  422MOL0     C58152   0.812   6.834   2.729  0.6184 -1.0848  0.7307
  422MOL0     C58153   1.062   7.084   3.054 -0.3760  0.3093  0.4703
  422MOL0     C58154   1.085   7.077   3.192 -0.3221  0.6064 -0.3758
  422MOL0     C58155   1.196   7.147   3.243 -0.4090 -0.2695  0.6394
  422MOL0     C58156   1.287   7.222   3.164 -0.0711  0.0032  0.5164
  422MOL0     O58157   1.391   7.289   3.216 -0.6578  0.4071 -0.3166
  422MOL0     C58158   1.376   7.339   3.348 -0.0190  1.0984 -0.0603
  422MOL0     C58159   1.391   7.236   3.467  0.3966  1.0624 -0.3800
  422MOL0     C58160   1.493   7.122   3.444 -0.6645  0.7376  0.1544
  422MOL0     C58161   1.624   7.160   3.405 -1.6849  0.1957 -0.7537
  422MOL0     C58162   1.693   7.241   3.499  0.6213  0.0062  0.1656
  422MOL0     C58163   1.741   7.295   3.594  0.2736 -0.2029 -0.3988
  422MOL0     C58164   1.271   7.220   3.025  0.1915  1.2011  0.0216
  422MOL0     C58165   1.157   7.150   2.973  0.0885 -0.0177 -0.5224
  422MOL0     C58166   1.151   7.153   2.828  0.2260 -0.3812  0.1476
  422MOL0     H58167   0.704   7.114   2.906  2.9280  0.3575 -0.3008
  422MOL0     H58168   0.491   7.032   2.836  0.0790 -1.6951  3.4871
  422MOL0     H58169   0.352   6.987   2.593 -0.8027  0.4485  0.2874
  422MOL0     H58170   0.291   6.923   2.744 -1.1422 -3.9068  0.6787
  422MOL0     H58171   0.170   6.748   2.612  1.2529  0.5332  1.3145
  422MOL0     H58172   0.167   6.890   2.512 -1.1930  4.1329  4.5289
  422MOL0     H58173   0.390   6.793   2.402  2.7233 -4.2593  4.0913
  422MOL0     H58174   0.341   6.654   2.476  3.0660  1.5120  1.2222
  422MOL0     H58175   0.143   6.825   2.309  0.3464  0.7843  1.7899
  422MOL0     H58176   0.259   6.714   2.238  1.0053 -0.6208  0.8738
  422MOL0     H58177   0.054   6.618   2.443 -1.0587 -0.4809  0.0290
  422MOL0     H58178   0.155   6.526   2.339  0.6100  0.2876 -2.8154
  422MOL0     H58179  -0.083   6.671   2.231  1.2982  0.9891 -2.1759
  422MOL0     H58180   0.047   6.607   2.129 -1.5875 -2.6757 -1.4979
  422MOL0     H58181  -0.011   6.393   2.169  4.2587  1.4912  2.9723
  422MOL0     H58182  -0.157   6.483   2.137 -0.6080 -1.0568  0.7621
  422MOL0     H58183  -0.212   6.480   2.389 -0.6044 -0.1394  1.8094
  422MOL0     H58184  -0.222   6.332   2.296  1.6978 -1.8141  1.6025
  422MOL0     H58185  -0.098   6.454   2.627 -0.3723 -2.5513  3.2965
  422MOL0     H58186   0.114   6.191   2.779  1.1362  0.5045 -1.7010
  422MOL0     H58187  -0.003   6.317   2.822  0.6433 -0.1346  0.5457
  422MOL0     H58188   0.284   6.357   2.723 -0.4072 -1.8273  0.1764
  422MOL0     H58189   0.170   6.480   2.784  0.2970  0.6815  2.3821
  422MOL0     H58190   0.336   6.268   2.935  0.2179 -0.3937  2.1162
  422MOL0     H58191   0.325   6.436   2.963  0.5682  0.4779 -1.0544
  422MOL0     H58192   0.081   6.406   3.056  1.6729  1.0464 -0.3464
  422MOL0     H58193   0.096   6.243   3.023  0.2000  0.7541 -2.5408
  422MOL0     H58194   0.201   6.053   3.055  0.9083  0.2032  0.0867
  422MOL0     H58195   0.342   5.810   3.085  0.2971  0.6788 -0.8362
  422MOL0     H58196   0.159   5.819   3.080 -3.1524 -1.7775  4.0788
  422MOL0     H58197   0.235   5.719   3.198  1.2469 -1.5177 -1.9154
  422MOL0     H58198   0.066   5.819   3.790  2.6221  0.8866  0.4890
  422MOL0     H58199   0.015   5.630   3.928 -0.0051 -1.4770  0.9791
  422MOL0     H58200   0.148   5.235   3.795  0.9279  1.4442  0.5507
  422MOL0     H58201   0.097   5.213   3.974  1.4984  1.9941  1.0872
  422MOL0     H58202  -0.065   5.119   3.803 -3.4046 -2.4830  2.2769
  422MOL0     H58203  -0.117   5.234   3.927  0.1491  0.0369 -0.3914
  422MOL0     H58204  -0.057   5.317   3.648 -0.5485 -4.0368 -0.1254
  422MOL0     H58205  -0.122   5.428   3.770  1.6692  0.3889 -1.0427
  422MOL0     H58206  -0.300   5.236   3.816 -0.0535  1.0380  1.8540
  422MOL0     H58207  -0.260   5.189   3.644  0.0894  1.9078 -2.1683
  422MOL0     H58208  -0.364   5.466   3.728  0.3099  1.1745 -1.3073
  422MOL0     H58209  -0.299   5.426   3.569  0.6813  0.2359 -0.5320
  422MOL0     H58210  -0.560   5.403   3.602  1.4877  1.7100  1.3935
  422MOL0     H58211  -0.523   5.272   3.700  0.9719 -0.2840  0.1356
  422MOL0     H58212  -0.586   5.203   3.458  0.3677  2.6335 -0.6893
  422MOL0     H58213  -0.435   5.129   3.492 -0.2370 -0.6171 -1.2633
  422MOL0     H58214  -0.458   5.400   3.346 -0.0849 -0.0274  0.5246
  422MOL0     H58215  -0.455   5.238   3.271  2.3249  1.4931 -1.6629
  422MOL0     H58216   0.280   5.380   3.710 -1.8531 -0.6545 -0.3712
  422MOL0     H58217   0.348   5.556   3.562  2.0808 -1.4145  3.0466
  422MOL0     H58218   0.324   6.061   3.537  1.5898 -2.3996 -0.2870
  422MOL0     H58219   0.273   6.279   3.418  2.6522 -0.2460  2.2272
  422MOL0     H58220   0.694   6.710   2.621  2.3184  0.5374 -0.7363
  422MOL0     H58221   0.907   6.789   2.703  2.2883  1.9260  1.1951
  422MOL0     H58222   1.034   7.015   3.266  2.0981  0.7210  1.5116
  422MOL0     H58223   1.204   7.129   3.350  4.9443  0.0340  0.5805
  422MOL0     H58224   1.457   7.410   3.366  1.7005 -1.2564  2.2275
  422MOL0     H58225   1.277   7.386   3.347 -1.0609 -0.8296  2.2018
  422MOL0     H58226   1.300   7.191   3.507  1.4356  0.2800  1.2020
  422MOL0     H58227   1.435   7.288   3.553 -0.0918 -0.5985  0.9187
  422MOL0     H58228   1.505   7.065   3.537  0.5090 -1.4425 -1.2546
  422MOL0     H58229   1.455   7.044   3.377 -0.9631 -2.4301  3.6847
  422MOL0     H58230   1.632   7.217   3.312  2.2350  0.0255 -0.6644
  422MOL0     H58231   1.686   7.070   3.397 -0.3731  0.9667  0.4441
  422MOL0     H58232   1.784   7.349   3.676 -2.5054  0.8082  0.5192
  422MOL0     H58233   1.335   7.280   2.961  2.2364 -0.2317  0.6171
  422MOL0     H58234   1.200   7.073   2.772 -1.2352 -0.6454 -0.8360
  422MOL0     H58235   1.048   7.155   2.790 -0.1982  0.7193  1.2964
  422MOL0     H58236   1.199   7.247   2.800 -1.0584  0.3674  0.3509
  423MOL0     O58237   8.592  11.541   6.873  0.0296 -0.1614 -0.4073
  423MOL0     C58238   8.708  11.557   6.833  0.0035  0.6591 -0.7452
  423MOL0     O58239   8.776  11.464   6.748  0.4193 -0.4387  0.0933
  423MOL0     C58240   8.721  11.346   6.713  0.4470 -0.0168  0.6221
  423MOL0     C58241   8.711  11.246   6.804 -0.3486  1.0504 -0.3882
  423MOL0     C58242   8.649  11.123   6.768 -0.2325  0.7141  0.3044
  423MOL0     C58243   8.616  11.107   6.631 -0.6042  0.6055 -0.3100
  423MOL0     O58244   8.532  11.011   6.583 -0.1778 -0.6414  0.1481
  423MOL0     C58245   8.493  10.905   6.670 -0.7629 -1.1461 -0.6038
  423MOL0     C58246   8.392  10.831   6.592  0.7181 -0.0992  0.1900
  423MOL0     C58247   8.375  10.692   6.635  0.4332  1.2672 -0.3303
  423MOL0     C58248   8.276  10.658   6.751 -0.5476  0.1531  0.0866
  423MOL0     C58249   8.256  10.508   6.765 -0.1515 -0.2964  0.0206
  423MOL0     C58250   8.129  10.445   6.686 -0.2204 -0.1283  0.5479
  423MOL0     C58251   8.089  10.303   6.731 -0.1027  0.1605  0.0378
  423MOL0     C58252   8.210  10.204   6.723  0.3325 -1.5600  0.8031
  423MOL0     N58253   8.167  10.064   6.738 -0.0190  0.7293  0.8547
  423MOL0     C58254   8.035  10.021   6.728  0.2686  0.0375 -0.5040
  423MOL0     C58255   8.043   9.891   6.761 -0.0070  0.9010  0.0791
  423MOL0     C58256   7.926   9.787   6.776  0.3739 -0.5263 -0.1065
  423MOL0     C58257   7.890   9.722   6.647  0.2987  1.0393  0.5454
  423MOL0     C58258   8.001   9.638   6.585 -1.0463  1.2573  1.0904
  423MOL0     C58259   7.964   9.571   6.455  0.0251  0.2716 -0.6442
  423MOL0     O58260   8.022   9.638   6.346 -0.7043  0.1929  0.0498
  423MOL0     C58261   8.155   9.633   6.329 -1.0040  0.0949 -0.5441
  423MOL0     C58262   8.224   9.724   6.246  0.6555 -0.2535 -0.0816
  423MOL0     C58263   8.361   9.724   6.212  0.3342  0.1086  1.1020
  423MOL0     C58264   8.423   9.816   6.102  0.7573 -0.3717  0.4470
  423MOL0     C58265   8.443   9.630   6.265 -0.3214  0.0348  0.9139
  423MOL0     C58266   8.591   9.619   6.236  0.0855  0.1140 -0.5710
  423MOL0     O58267   8.640   9.496   6.224  0.8148  0.3666 -0.5077
  423MOL0     C58268   8.754   9.459   6.150  0.4564  0.1870 -0.8918
  423MOL0     C58269   8.804   9.527   6.037 -0.1394 -0.5907  0.6577
  423MOL0     C58270   8.925   9.481   5.983  0.2655 -0.1689 -0.7611
  423MOL0     C58271   8.985   9.363   6.033  0.3813 -1.0334  0.2789
  423MOL0     O58272   9.086   9.310   5.959  0.2005  0.1014 -0.6290
  423MOL0     C58273   9.218   9.344   6.016 -0.7434  0.5425  0.3203
  423MOL0     C58274   9.314   9.242   5.970  0.4672 -0.4262 -0.8519
  423MOL0     C58275   9.444   9.277   6.036  0.1794  0.0960  0.2998
  423MOL0     C58276   9.542   9.162   6.031  0.2750  0.9553 -0.6729
  423MOL0     C58277   9.613   9.149   5.898 -0.3631 -0.1176  0.0178
  423MOL0     C58278   9.753   9.095   5.918 -0.0894  0.7098  0.2143
  423MOL0     C58279   9.758   8.952   5.929  0.7330 -0.2325 -0.7142
  423MOL0     C58280   9.897   8.876   5.916  0.3744 -0.8048  0.2233
  423MOL0    Cl58281   9.999   8.897   6.055  0.0604 -0.2815 -0.3043
  423MOL0     C58282   8.930   9.289   6.134  0.2506 -0.6274  0.1355
  423MOL0     C58283   8.821   9.343   6.200 -0.4033 -0.1962  0.2561
  423MOL0     O58284   8.652   9.723   6.226  1.0971  0.2056  0.4770
  423MOL0     C58285   8.384   9.539   6.360  0.2350 -0.8911 -0.4105
  423MOL0     C58286   8.248   9.541   6.392 -0.1641 -0.3265  0.6303
  423MOL0     N58287   8.177   9.857   6.787 -1.5583  0.7520 -0.0913
  423MOL0     N58288   8.248   9.960   6.766  0.6333 -0.2011 -0.3007
  423MOL0     C58289   8.636  11.204   6.534 -0.7363  1.3027 -0.0079
  423MOL0     C58290   8.685  11.327   6.578  0.6603 -0.3226  0.5415
  423MOL0     C58291   8.801  11.646   6.903 -0.1333  0.8292 -0.9144
  423MOL0     C58292   8.926  11.600   6.932 -0.5245  0.7893  1.0462
  423MOL0     C58293   9.021  11.671   7.011 -0.2068  0.5439 -0.9189
  423MOL0     C58294   8.983  11.806   7.043  0.5105  0.2532 -0.4900
  423MOL0     O58295   9.068  11.886   7.114  0.8682  0.7106  0.5496
  423MOL0     C58296   9.094  11.843   7.247  0.1370 -0.3662 -0.1047
  423MOL0     C58297   8.977  11.872   7.351  0.1554  0.2601  0.3191
  423MOL0     C58298   8.909  12.013   7.324 -0.3969  0.2488 -0.2891
  423MOL0     C58299   8.864  12.080   7.455 -1.3261 -0.0469  0.0081
  423MOL0     C58300   8.816  11.986   7.564  1.1007 -0.9232  0.1976
  423MOL0     C58301   8.755  11.906   7.633 -0.5567  0.8675 -0.4578
  423MOL0     C58302   8.856  11.855   7.002  0.2078 -0.5599 -0.3153
  423MOL0     C58303   8.770  11.778   6.924  0.7335 -1.2667 -1.1224
  423MOL0     C58304   8.644  11.840   6.861 -1.2475 -0.2773  0.5150
  423MOL0     H58305   8.734  11.281   6.904 -0.8012  3.1446 -0.9702
  423MOL0     H58306   8.633  11.041   6.837  2.1112  0.6767  0.8657
  423MOL0     H58307   8.456  10.926   6.770  1.5590 -0.5194  0.1840
  423MOL0     H58308   8.574  10.834   6.687  1.8651  1.7700  0.0217
  423MOL0     H58309   8.294  10.881   6.593 -0.0795 -1.3717 -2.6303
  423MOL0     H58310   8.434  10.821   6.491 -0.9387  0.8146 -0.6403
  423MOL0     H58311   8.335  10.641   6.547  0.8057  0.2494  0.0810
  423MOL0     H58312   8.472  10.645   6.651  0.3851  1.2705 -0.0341
  423MOL0     H58313   8.319  10.686   6.847 -1.1474 -2.8691  1.3667
  423MOL0     H58314   8.181  10.713   6.755 -0.3974  0.3295  1.5342
  423MOL0     H58315   8.230  10.502   6.871 -1.7697  0.6886 -0.2806
  423MOL0     H58316   8.351  10.454   6.764 -0.5767 -1.0861  0.7271
  423MOL0     H58317   8.043  10.509   6.705  1.0080  1.8482 -0.2565
  423MOL0     H58318   8.150  10.453   6.579 -1.5395  0.8636  0.3319
  423MOL0     H58319   8.011  10.267   6.663 -0.5427  1.2669 -0.0731
  423MOL0     H58320   8.044  10.318   6.830  0.1447 -0.4125  0.2355
  423MOL0     H58321   8.268  10.209   6.630 -0.9685  1.0933  0.0427
  423MOL0     H58322   8.287  10.226   6.797 -0.6658  1.3876  1.0518
  423MOL0     H58323   7.943  10.073   6.707 -0.0468 -0.3233 -0.0443
  423MOL0     H58324   7.838   9.846   6.802  1.6154  0.7585  1.4395
  423MOL0     H58325   7.937   9.707   6.850 -0.9403 -0.5015  0.1309
  423MOL0     H58326   7.805   9.656   6.668  0.5426 -0.5832 -2.9652
  423MOL0     H58327   7.855   9.798   6.576  2.5670  1.1653 -0.5063
  423MOL0     H58328   8.086   9.704   6.566 -1.1988  0.7502 -1.7191
  423MOL0     H58329   8.028   9.552   6.647 -2.3537 -1.4212 -1.7390
  423MOL0     H58330   7.996   9.467   6.459 -0.7987  0.0398  0.1057
  423MOL0     H58331   7.856   9.583   6.451  0.0082 -0.2180 -2.5282
  423MOL0     H58332   8.160   9.796   6.197  0.3671  2.4659  3.8708
  423MOL0     H58333   8.340   9.861   6.046  0.6548 -0.2157  0.7225
  423MOL0     H58334   8.479   9.763   6.025  0.0554  1.3421 -1.3256
  423MOL0     H58335   8.487   9.894   6.143  0.2758 -1.0706  2.6694
  423MOL0     H58336   8.755   9.621   6.013  0.3275 -0.4307  0.3126
  423MOL0     H58337   8.971   9.536   5.902  1.8467  0.2451  0.3641
  423MOL0     H58338   9.233   9.439   5.964  0.2160 -0.5912 -1.5527
  423MOL0     H58339   9.214   9.364   6.124 -3.4102  2.7404 -0.0738
  423MOL0     H58340   9.285   9.140   5.997  2.6710 -0.9196 -0.0967
  423MOL0     H58341   9.320   9.241   5.861 -4.1617  0.6291 -1.3182
  423MOL0     H58342   9.414   9.305   6.137 -3.5367  1.0459 -0.8844
  423MOL0     H58343   9.501   9.364   6.005  2.1039 -0.8498  1.0491
  423MOL0     H58344   9.491   9.070   6.062  0.1073  1.4855  0.6920
  423MOL0     H58345   9.620   9.182   6.104  1.6220  0.3451 -1.8995
  423MOL0     H58346   9.550   9.089   5.832  1.3287  0.8506 -2.6142
  423MOL0     H58347   9.629   9.250   5.859  0.2200 -0.6103 -1.0558
  423MOL0     H58348   9.812   9.157   5.986  0.2288  2.6665 -1.7339
  423MOL0     H58349   9.806   9.111   5.823  0.1981  0.3199  0.3046
  423MOL0     H58350   9.694   8.908   5.851 -0.7918  1.8635 -0.7360
  423MOL0     H58351   9.707   8.914   6.017  0.7018 -1.9441 -1.4222
  423MOL0     H58352   9.949   8.908   5.825 -2.2842 -2.1795 -1.9222
  423MOL0     H58353   9.879   8.771   5.890 -3.7065  0.0454 -1.0703
  423MOL0     H58354   8.961   9.194   6.176 -0.7438 -1.0381 -0.0338
  423MOL0     H58355   8.781   9.308   6.295  1.4326 -0.6974  0.8805
  423MOL0     H58356   8.456   9.472   6.406 -1.4140 -2.0800  0.5274
  423MOL0     H58357   8.201   9.461   6.449 -4.2866  3.7050  3.6258
  423MOL0     H58358   8.620  11.189   6.428 -1.5567 -2.0689  0.4948
  423MOL0     H58359   8.707  11.407   6.508 -1.7348 -1.6801 -1.9266
  423MOL0     H58360   8.942  11.498   6.898  0.4239  1.3372 -0.2574
  423MOL0     H58361   9.123  11.648   7.040 -0.8346  0.2042  1.1638
  423MOL0     H58362   9.119  11.737   7.231  3.0433  0.3999 -1.0698
  423MOL0     H58363   9.179  11.886   7.301 -0.4516 -1.3024  1.6684
  423MOL0     H58364   9.018  11.865   7.452  1.7867  4.3296  0.1449
  423MOL0     H58365   8.902  11.795   7.335  2.1620 -1.4042 -1.6676
  423MOL0     H58366   8.969  12.080   7.261 -3.0719 -1.2475 -4.9559
  423MOL0     H58367   8.814  12.006   7.271 -0.8611  2.2675  0.2181
  423MOL0     H58368   8.804  12.168   7.433 -0.2456  0.5455 -0.6501
  423MOL0     H58369   8.959  12.116   7.495 -2.0175 -0.1647  1.8574
  423MOL0     H58370   8.696  11.829   7.678  2.0057 -0.1877  1.2889
  423MOL0     H58371   8.836  11.957   7.032  3.1738  0.3036 -0.9519
  423MOL0     H58372   8.550  11.800   6.901 -1.2177 -2.4477 -1.3851
  423MOL0     H58373   8.637  11.947   6.881  0.3390 -0.3263  1.4824
  423MOL0     H58374   8.647  11.811   6.756  1.2745  0.8508  0.2067
  424MOL0     O58375   7.098   2.891   5.147  1.0246  0.0256  0.2191
  424MOL0     C58376   6.976   2.906   5.131 -0.1917  0.3081  0.7423
  424MOL0     O58377   6.913   2.903   5.019  0.3391  0.4372  0.4892
  424MOL0     C58378   6.977   2.897   4.901  0.7280 -0.9854  0.4098
  424MOL0     C58379   7.048   3.014   4.866 -0.2275  0.4523 -0.9282
  424MOL0     C58380   7.129   3.008   4.755 -0.3965  0.7053 -0.2209
  424MOL0     C58381   7.145   2.889   4.681 -1.3481  0.2589  0.1313
  424MOL0     O58382   7.230   2.889   4.577 -0.7078  0.3865  0.5877
  424MOL0     C58383   7.275   2.763   4.524 -0.8496  1.0162  0.3576
  424MOL0     C58384   7.395   2.787   4.422 -0.1759  0.9196 -0.9738
  424MOL0     C58385   7.410   2.666   4.332  0.0764  0.0702  0.2119
  424MOL0     C58386   7.513   2.697   4.218 -0.0623 -0.7869  0.4256
  424MOL0     C58387   7.529   2.576   4.114 -0.3886 -0.0448  0.5641
  424MOL0     C58388   7.604   2.625   3.983  1.2145  1.0887  0.4327
  424MOL0     C58389   7.616   2.489   3.892 -1.2363 -0.8395  0.1522
  424MOL0     C58390   7.693   2.500   3.767 -0.5008  0.3535 -0.2717
  424MOL0     N58391   7.735   2.370   3.697 -0.5061  0.2333 -0.2522
  424MOL0     C58392   7.642   2.267   3.668 -1.1244  0.2832 -1.2464
  424MOL0     C58393   7.722   2.168   3.617 -0.3710 -0.9053  0.3430
  424MOL0     C58394   7.692   2.027   3.587 -1.0785  0.7154 -0.2099
  424MOL0     C58395   7.612   2.019   3.460 -0.3429  0.3842 -0.1160
  424MOL0     C58396   7.544   1.882   3.431  0.4390 -0.2688 -0.2600
  424MOL0     C58397   7.468   1.863   3.294 -0.0669  0.2807  0.1878
  424MOL0     O58398   7.560   1.866   3.190 -0.3496  0.1571 -0.3917
  424MOL0     C58399   7.508   1.912   3.066  0.2077 -0.3995 -0.0690
  424MOL0     C58400   7.378   1.916   3.026  0.2492  0.7246  0.5541
  424MOL0     C58401   7.328   1.978   2.915 -0.1698 -0.3094  0.5304
  424MOL0     C58402   7.185   1.996   2.911  0.1132  0.5925 -0.2643
  424MOL0     C58403   7.421   2.025   2.824  0.5205 -1.1376 -0.0870
  424MOL0     C58404   7.379   2.104   2.701 -0.5669 -0.4024 -1.0504
  424MOL0     O58405   7.361   2.025   2.590 -0.1280 -0.4878  0.3098
  424MOL0     C58406   7.331   2.084   2.458  0.0948 -0.1581 -0.5685
  424MOL0     C58407   7.264   2.211   2.430  0.7552 -0.1782  1.2083
  424MOL0     C58408   7.231   2.249   2.296  0.3451  0.8405  0.4693
  424MOL0     C58409   7.287   2.185   2.183  0.1218  0.4871  0.2638
  424MOL0     O58410   7.261   2.236   2.057 -0.8616  0.1195 -0.2218
  424MOL0     C58411   7.276   2.151   1.943 -0.0314 -0.9567  0.1374
  424MOL0     C58412   7.162   2.055   1.936  0.0659 -1.2072  0.6336
  424MOL0     C58413   7.200   1.966   1.812  0.1314  1.2308  0.0570
  424MOL0     C58414   7.130   1.821   1.825  0.5456 -0.5838  0.2972
  424MOL0     C58415   7.156   1.713   1.714  0.2768 -0.6309 -1.4192
  424MOL0     C58416   7.089   1.577   1.748 -0.1808 -0.0051  0.9469
  424MOL0     C58417   7.111   1.464   1.650 -0.4194 -0.1646  0.0680
  424MOL0     C58418   7.037   1.332   1.688  0.6368 -0.3451 -0.2633
  424MOL0    Cl58419   7.060   1.283   1.865  0.0734  0.3452  0.2824
  424MOL0     C58420   7.353   2.060   2.210  0.1709  0.0610  0.6461
  424MOL0     C58421   7.374   2.016   2.343  0.3386 -0.2556  0.6599
  424MOL0     O58422   7.368   2.226   2.707 -0.4322 -0.2989 -0.3672
  424MOL0     C58423   7.562   2.021   2.851  0.3378  0.8250 -0.3797
  424MOL0     C58424   7.603   1.960   2.971 -0.3035 -0.7477  0.4733
  424MOL0     N58425   7.854   2.224   3.601  0.7885 -0.9396 -0.1093
  424MOL0     N58426   7.861   2.337   3.653 -0.1230 -0.0818 -0.1841
  424MOL0     C58427   7.055   2.783   4.709 -0.9351 -0.1256  0.6518
  424MOL0     C58428   6.965   2.790   4.810  0.3132  0.0803  0.3347
  424MOL0     C58429   6.883   2.899   5.245 -0.5864 -0.7591 -0.3708
  424MOL0     C58430   6.754   2.852   5.215  0.5580 -0.5567  0.4852
  424MOL0     C58431   6.654   2.838   5.318 -0.6224  0.1958 -0.5056
  424MOL0     C58432   6.687   2.886   5.445 -0.6306  0.6498  0.2845
  424MOL0     O58433   6.586   2.857   5.531 -0.2658  0.6907  0.2056
  424MOL0     C58434   6.608   2.869   5.674  1.6416 -0.0870 -1.3671
  424MOL0     C58435   6.703   2.778   5.745 -0.5340  0.6947  0.6549
  424MOL0     C58436   6.766   2.843   5.873 -0.3832  0.6908  0.4579
  424MOL0     C58437   6.671   2.884   5.982  0.8119  0.8732  0.8679
  424MOL0     C58438   6.748   2.930   6.102  0.4340  0.0608 -0.2707
  424MOL0     C58439   6.797   2.952   6.213  0.8346 -1.2297 -0.3532
  424MOL0     C58440   6.811   2.934   5.478  0.4869  0.0180  0.0598
  424MOL0     C58441   6.905   2.945   5.379 -0.6060 -0.2305  0.4575
  424MOL0     C58442   7.041   3.005   5.421  0.7486 -0.5733  0.0503
  424MOL0     H58443   7.056   3.105   4.926 -1.5651 -0.0582  0.0518
  424MOL0     H58444   7.177   3.102   4.731 -0.2632  0.2926 -1.7071
  424MOL0     H58445   7.202   2.707   4.466  3.2049 -0.4832 -3.9050
  424MOL0     H58446   7.310   2.702   4.609  0.1104  3.8148  2.1143
  424MOL0     H58447   7.371   2.872   4.357 -4.1124  0.7655  0.0135
  424MOL0     H58448   7.481   2.815   4.483 -1.3957  0.5648  1.0384
  424MOL0     H58449   7.453   2.588   4.395  2.8520  1.7798  0.6348
  424MOL0     H58450   7.314   2.632   4.293  1.3570 -3.9806  0.0987
  424MOL0     H58451   7.501   2.791   4.163  1.4392 -1.3299 -0.9055
  424MOL0     H58452   7.613   2.713   4.260  0.1074  1.1795 -0.5738
  424MOL0     H58453   7.433   2.534   4.083  0.7082 -0.3568 -2.8801
  424MOL0     H58454   7.585   2.494   4.159 -1.4291  0.6063  3.2140
  424MOL0     H58455   7.556   2.698   3.918  1.8642  2.3787  1.3594
  424MOL0     H58456   7.700   2.675   3.999  0.5353  1.9689  1.9602
  424MOL0     H58457   7.517   2.457   3.860 -0.8089 -2.3966  0.2957
  424MOL0     H58458   7.658   2.406   3.950 -0.3321 -1.3399 -1.1484
  424MOL0     H58459   7.644   2.557   3.688 -0.4276  2.9883  1.4700
  424MOL0     H58460   7.781   2.560   3.791  0.3197 -1.5388  1.8633
  424MOL0     H58461   7.540   2.272   3.706  0.1700  0.9636  2.5358
  424MOL0     H58462   7.654   1.977   3.677  1.6273 -4.1658 -1.4367
  424MOL0     H58463   7.782   1.971   3.562 -0.4443  1.9323 -0.7263
  424MOL0     H58464   7.530   2.091   3.451  0.0695  0.8893  0.1070
  424MOL0     H58465   7.686   2.043   3.383 -0.4994 -1.8606 -1.0226
  424MOL0     H58466   7.626   1.810   3.440 -0.4890 -1.1124  2.0475
  424MOL0     H58467   7.476   1.862   3.514 -0.3191 -1.2940 -1.0865
  424MOL0     H58468   7.437   1.758   3.295 -2.7526  1.0164  0.2472
  424MOL0     H58469   7.384   1.931   3.281  0.5167  1.1705  0.9120
  424MOL0     H58470   7.308   1.866   3.093 -1.4268 -3.2503 -3.6443
  424MOL0     H58471   7.146   2.087   2.958  2.1675  0.8219  1.0996
  424MOL0     H58472   7.148   1.907   2.964  1.7049 -0.6432 -1.1413
  424MOL0     H58473   7.151   1.995   2.807  2.7695  0.8744 -1.2045
  424MOL0     H58474   7.230   2.271   2.513  3.4779 -0.3787  2.5751
  424MOL0     H58475   7.157   2.327   2.279 -1.8528 -1.5380 -1.7601
  424MOL0     H58476   7.261   2.221   1.860 -0.8654 -2.1353 -0.7388
  424MOL0     H58477   7.372   2.098   1.943  0.0208 -0.9908  2.5610
  424MOL0     H58478   7.160   1.994   2.026  1.2234 -1.8773  0.2315
  424MOL0     H58479   7.070   2.113   1.928  0.8682 -0.0308 -0.5070
  424MOL0     H58480   7.309   1.955   1.810  0.3404  3.0476 -0.3233
  424MOL0     H58481   7.174   2.010   1.716 -4.3733  0.3270  0.6401
  424MOL0     H58482   7.022   1.837   1.832  0.6282  0.2084 -0.1192
  424MOL0     H58483   7.166   1.770   1.914 -1.3065 -1.5810  0.5306
  424MOL0     H58484   7.108   1.751   1.624  0.2518  0.6057 -0.9200
  424MOL0     H58485   7.264   1.705   1.696  1.1570  3.2550  0.7205
  424MOL0     H58486   6.982   1.598   1.743 -0.7269 -2.7499 -1.4512
  424MOL0     H58487   7.122   1.541   1.845  0.7445 -0.0021  0.6445
  424MOL0     H58488   7.218   1.442   1.658 -0.0931  0.9474 -1.0227
  424MOL0     H58489   7.086   1.496   1.549 -1.1901 -0.0930  0.2744
  424MOL0     H58490   7.076   1.253   1.623  1.2503 -0.5538  0.3465
  424MOL0     H58491   6.931   1.356   1.675  0.1342 -1.9137  0.6708
  424MOL0     H58492   7.370   1.982   2.137  0.8015 -2.5390  3.3661
  424MOL0     H58493   7.409   1.914   2.361 -1.9825 -1.6106 -1.7925
  424MOL0     H58494   7.634   2.075   2.790  1.5940  1.0288  1.2193
  424MOL0     H58495   7.710   1.949   2.986 -0.1044  1.5023  1.0919
  424MOL0     H58496   7.062   2.695   4.648 -0.5199  1.8566 -2.3668
  424MOL0     H58497   6.892   2.717   4.843  0.0982  0.2607  0.2592
  424MOL0     H58498   6.732   2.810   5.117  4.2627 -3.1079  0.5676
  424MOL0     H58499   6.562   2.786   5.290 -1.8117  0.9357  1.8131
  424MOL0     H58500   6.648   2.970   5.691  1.3268 -0.4572  2.4213
  424MOL0     H58501   6.510   2.865   5.722  0.2143  1.9991 -3.8298
  424MOL0     H58502   6.782   2.750   5.675  4.2496 -2.6709  6.4251
  424MOL0     H58503   6.662   2.682   5.779  2.0696 -1.0853 -0.8891
  424MOL0     H58504   6.828   2.759   5.905  1.8804  1.0757 -2.5018
  424MOL0     H58505   6.833   2.926   5.850  1.8623 -1.6824 -2.3246
  424MOL0     H58506   6.594   2.807   5.998  1.9444 -1.0326 -1.8982
  424MOL0     H58507   6.611   2.968   5.947 -3.0752 -1.3531  1.6094
  424MOL0     H58508   6.838   2.980   6.308 -0.2120 -0.2551 -0.1652
  424MOL0     H58509   6.829   2.972   5.578  1.6080 -1.2123  0.3695
  424MOL0     H58510   7.121   2.941   5.384 -0.1659 -1.3318 -0.6423
  424MOL0     H58511   7.049   3.101   5.369 -0.8033 -0.5872 -0.2557
  424MOL0     H58512   7.049   3.002   5.530  1.4663 -2.9677 -0.0124
  425MOL0     O58513   9.435   9.817   0.719  0.1009  0.1235  0.6224
  425MOL0     C58514   9.363   9.721   0.744 -0.2730  0.3396 -0.5707
  425MOL0     O58515   9.240   9.720   0.754  0.0008  0.2848  1.0029
  425MOL0     C58516   9.166   9.829   0.772  0.0732 -0.3589 -0.2270
  425MOL0     C58517   9.134   9.928   0.667  0.6993 -0.0159  0.8567
  425MOL0     C58518   9.038  10.030   0.676  0.4977  0.1059 -0.7013
  425MOL0     C58519   8.976  10.051   0.796 -0.4874 -0.4606 -0.3830
  425MOL0     O58520   8.886  10.154   0.829 -0.6163 -0.2271  0.2872
  425MOL0     C58521   8.831  10.238   0.731  1.3382 -0.5013 -0.2092
  425MOL0     C58522   8.699  10.304   0.769  0.2715 -1.0086 -1.2778
  425MOL0     C58523   8.680  10.424   0.678 -0.0897  0.2377  0.6002
  425MOL0     C58524   8.534  10.473   0.686  0.9165  0.5343  0.0341
  425MOL0     C58525   8.508  10.596   0.599 -0.0703 -0.0787 -0.3457
  425MOL0     C58526   8.367  10.643   0.619 -1.0512  0.5948  0.9376
  425MOL0     C58527   8.322  10.720   0.490 -0.5243  0.5687  0.8340
  425MOL0     C58528   8.325  10.649   0.356  0.8181  0.1944  0.2648
  425MOL0     N58529   8.193  10.681   0.291  0.3419 -0.1386  0.9524
  425MOL0     C58530   8.165  10.775   0.198  0.0918 -0.8738  0.2971
  425MOL0     C58531   8.033  10.762   0.173 -0.0176 -0.0980  0.2699
  425MOL0     C58532   7.960  10.844   0.071  0.1068  0.0057  0.1832
  425MOL0     C58533   7.981  10.791  -0.071 -0.3536 -0.2895  0.0079
  425MOL0     C58534   7.928  10.647  -0.108 -0.6280 -0.5323  0.0027
  425MOL0     C58535   8.012  10.526  -0.062  0.4573 -0.8326 -0.0080
  425MOL0     O58536   8.136  10.543  -0.131  0.4480  0.4561  0.0758
  425MOL0     C58537   8.248  10.509  -0.061  0.6067 -0.2848 -0.0458
  425MOL0     C58538   8.355  10.599  -0.082  0.8720 -0.9955 -0.6900
  425MOL0     C58539   8.474  10.582  -0.014  0.1080  0.3967 -0.1268
  425MOL0     C58540   8.578  10.693  -0.040  0.7616 -0.6502  0.7281
  425MOL0     C58541   8.491  10.471   0.069  0.1663 -0.8362  0.6815
  425MOL0     C58542   8.634  10.442   0.113  0.4511  0.4807 -1.4912
  425MOL0     O58543   8.644  10.330   0.193  0.0318  0.9089  0.3099
  425MOL0     C58544   8.770  10.279   0.216 -0.3657 -0.2845  0.7775
  425MOL0     C58545   8.786  10.163   0.141 -1.0055 -0.3805 -0.0147
  425MOL0     C58546   8.908  10.083   0.166 -0.4670 -0.1049 -0.3876
  425MOL0     C58547   9.015  10.132   0.236  0.0600 -0.2296  0.0956
  425MOL0     O58548   9.132  10.059   0.259  0.5206 -0.3057  0.7691
  425MOL0     C58549   9.247  10.114   0.318 -0.1528  0.4774  0.0601
  425MOL0     C58550   9.346   9.996   0.323  0.2557  0.2066 -0.1868
  425MOL0     C58551   9.488  10.055   0.313  0.1090  0.7839  0.2766
  425MOL0     C58552   9.602   9.953   0.268  0.2238 -0.0136  1.6770
  425MOL0     C58553   9.618   9.843   0.383  0.0933  0.4323  0.1822
  425MOL0     C58554   9.750   9.767   0.371 -0.3579 -0.2910  0.1535
  425MOL0     C58555   9.771   9.671   0.482 -0.6292  0.2273 -0.5234
  425MOL0     C58556   9.818   9.744   0.614 -0.5188  0.3008 -0.5011
  425MOL0    Cl58557   9.851   9.629   0.737  0.7399 -0.1690 -0.0239
  425MOL0     C58558   9.003  10.259   0.299 -0.0575 -0.6396  0.0911
  425MOL0     C58559   8.874  10.320   0.293 -0.0638 -0.3134  0.7225
  425MOL0     O58560   8.727  10.512   0.081 -0.0447  0.5669 -0.7612
  425MOL0     C58561   8.382  10.384   0.095  0.6104 -0.3200  0.1130
  425MOL0     C58562   8.256  10.406   0.036  1.0711 -0.8293  0.4647
  425MOL0     N58563   7.992  10.663   0.261 -0.0573  0.5915  0.8804
  425MOL0     N58564   8.086  10.611   0.327  1.3322 -0.1735  0.7386
  425MOL0     C58565   9.016   9.973   0.902  0.5233 -0.0034 -0.1672
  425MOL0     C58566   9.106   9.864   0.893  0.8308  0.5689  0.5785
  425MOL0     C58567   9.419   9.599   0.798  0.2080 -0.0563  0.7312
  425MOL0     C58568   9.370   9.477   0.757  0.2870  0.2509  0.5702
  425MOL0     C58569   9.415   9.355   0.800  0.6842  0.3086  0.3652
  425MOL0     C58570   9.516   9.351   0.895 -0.0516 -0.2259 -0.7309
  425MOL0     O58571   9.573   9.238   0.958  0.2692 -0.1919  0.4628
  425MOL0     C58572   9.504   9.116   0.931  0.3727  0.3363 -0.2051
  425MOL0     C58573   9.553   9.002   1.019 -0.0902 -0.5229  0.1770
  425MOL0     C58574   9.708   8.997   1.023 -0.4471  0.2299 -0.4925
  425MOL0     C58575   9.766   8.872   1.091 -0.0034  0.2827  0.1110
  425MOL0     C58576   9.913   8.878   1.082 -0.7968  0.4854  0.7263
  425MOL0     C58577  10.035   8.884   1.076  0.5274  0.4412 -0.3370
  425MOL0     C58578   9.562   9.470   0.952  1.4349  0.1818 -0.1047
  425MOL0     C58579   9.504   9.589   0.907 -0.0992  0.1719 -0.4573
  425MOL0     C58580   9.559   9.708   0.979 -1.1176  0.1053  0.3944
  425MOL0     H58581   9.187   9.921   0.572  3.0807 -0.7477  2.1464
  425MOL0     H58582   9.023  10.101   0.595 -2.2430 -1.2170 -1.4426
  425MOL0     H58583   8.812  10.194   0.633  0.4768  2.2554 -1.3898
  425MOL0     H58584   8.898  10.322   0.708  0.5160 -0.4395 -2.6650
  425MOL0     H58585   8.615  10.234   0.766 -0.6798 -0.1602  1.8617
  425MOL0     H58586   8.691  10.340   0.872 -2.4264 -0.9366 -1.4218
  425MOL0     H58587   8.739  10.510   0.710 -2.7825  2.5248 -0.1549
  425MOL0     H58588   8.706  10.387   0.578 -0.1239 -1.0896  1.0545
  425MOL0     H58589   8.479  10.387   0.648  3.1434  1.0991 -5.4289
  425MOL0     H58590   8.506  10.500   0.789 -0.4438  1.8821 -0.6363
  425MOL0     H58591   8.524  10.557   0.498  0.2368 -0.8552 -0.0087
  425MOL0     H58592   8.576  10.678   0.624  3.0140 -2.4049 -0.4647
  425MOL0     H58593   8.299  10.559   0.634 -1.3438 -0.0498 -3.0101
  425MOL0     H58594   8.367  10.717   0.700  1.8674  1.7745  0.0148
  425MOL0     H58595   8.393  10.801   0.473 -0.2440 -0.1042 -1.7146
  425MOL0     H58596   8.218  10.751   0.508 -1.6295 -0.0506 -3.3834
  425MOL0     H58597   8.419  10.677   0.306  1.0193  2.4694  1.7859
  425MOL0     H58598   8.334  10.540   0.357  0.7984  0.1813  2.0656
  425MOL0     H58599   8.225  10.849   0.147  3.1621 -1.7341  2.3826
  425MOL0     H58600   7.987  10.950   0.065 -1.1753  0.3352 -0.0066
  425MOL0     H58601   7.854  10.840   0.094  0.7455 -0.1044  3.4890
  425MOL0     H58602   7.939  10.870  -0.134  0.7256  2.0372  2.0246
  425MOL0     H58603   8.091  10.796  -0.077 -0.0772 -0.7968  3.0372
  425MOL0     H58604   7.824  10.641  -0.075 -1.9212  3.0824 -2.6955
  425MOL0     H58605   7.917  10.646  -0.217  2.1753 -0.3287 -0.3409
  425MOL0     H58606   8.028  10.511   0.045  0.2403 -1.9638 -0.1189
  425MOL0     H58607   7.959  10.436  -0.094  0.4227 -1.1384  0.8929
  425MOL0     H58608   8.364  10.678  -0.156  3.7187  3.0033  3.3514
  425MOL0     H58609   8.658  10.664  -0.109  0.7820 -0.0107  0.4768
  425MOL0     H58610   8.638  10.718   0.048  0.3845 -1.3071  1.1814
  425MOL0     H58611   8.517  10.776  -0.077 -0.0066 -1.0003  1.1866
  425MOL0     H58612   8.705  10.122   0.081 -1.4340  0.6916 -0.1832
  425MOL0     H58613   8.927   9.985   0.124 -3.1661 -0.7640 -0.2670
  425MOL0     H58614   9.280  10.191   0.248  1.5285 -2.4383 -2.6248
  425MOL0     H58615   9.214  10.150   0.416 -1.1846 -3.5680  1.3871
  425MOL0     H58616   9.342   9.943   0.418 -0.0418 -0.9125 -0.8040
  425MOL0     H58617   9.325   9.928   0.240 -0.0885  0.5781 -0.4128
  425MOL0     H58618   9.522  10.112   0.400  0.4574  2.8099 -1.1230
  425MOL0     H58619   9.486  10.133   0.237  0.3621 -0.5135 -1.0984
  425MOL0     H58620   9.699  10.000   0.253  0.1266 -0.3823 -0.5019
  425MOL0     H58621   9.575   9.893   0.181  1.7063 -0.6333  1.6297
  425MOL0     H58622   9.605   9.893   0.480  1.3323  0.1731  0.4950
  425MOL0     H58623   9.531   9.776   0.372 -1.1740  2.2589 -1.6299
  425MOL0     H58624   9.826   9.845   0.358 -0.8052  0.3515  1.2378
  425MOL0     H58625   9.737   9.713   0.276 -2.3400  0.5787 -0.1431
  425MOL0     H58626   9.850   9.601   0.453  1.3878  0.4422  3.6791
  425MOL0     H58627   9.677   9.616   0.494 -1.7627  0.4401 -5.7548
  425MOL0     H58628   9.748   9.827   0.630 -0.9705 -0.0254 -0.7619
  425MOL0     H58629   9.916   9.789   0.596 -0.5763  1.1319  1.0935
  425MOL0     H58630   9.080  10.310   0.357 -0.3374 -1.6538  1.3844
  425MOL0     H58631   8.854  10.417   0.335  0.8696  0.6395 -0.9033
  425MOL0     H58632   8.396  10.299   0.161 -1.9544 -0.6274  0.3390
  425MOL0     H58633   8.170  10.345   0.062  3.3880 -3.9560  1.5491
  425MOL0     H58634   8.987   9.995   1.005  1.4471  3.0428 -0.4629
  425MOL0     H58635   9.127   9.803   0.980 -0.4844 -1.8993 -0.7606
  425MOL0     H58636   9.299   9.486   0.676 -3.9124  4.0331  4.0990
  425MOL0     H58637   9.370   9.266   0.757  0.6263 -0.3457  1.7101
  425MOL0     H58638   9.397   9.126   0.947  0.4803  1.5003 -0.1755
  425MOL0     H58639   9.521   9.091   0.826  0.8406  3.6542 -1.0103
  425MOL0     H58640   9.520   8.914   0.963  2.9274 -3.0307  2.0241
  425MOL0     H58641   9.505   9.020   1.116 -0.8531  2.0334 -0.6036
  425MOL0     H58642   9.743   9.016   0.921 -3.0628 -0.9931 -1.7259
  425MOL0     H58643   9.732   9.078   1.093  1.1761  1.3206 -2.2028
  425MOL0     H58644   9.729   8.783   1.039  1.2965  0.8256 -1.8773
  425MOL0     H58645   9.747   8.866   1.198  3.6831 -3.0700  0.7994
  425MOL0     H58646  10.142   8.876   1.069  0.3508 -2.9285 -0.8629
  425MOL0     H58647   9.624   9.478   1.041  1.0157  5.4699  0.0430
  425MOL0     H58648   9.639   9.668   1.042 -1.9038 -3.0902 -0.4248
  425MOL0     H58649   9.601   9.770   0.899  0.4930 -1.5872 -0.1503
  425MOL0     H58650   9.477   9.762   1.027 -1.0207  2.3561 -1.8053
  426MOL0     O58651   1.248   5.923   3.060  0.2382  0.0837  0.8767
  426MOL0     C58652   1.243   5.994   3.164 -0.2411  0.5546 -0.3261
  426MOL0     O58653   1.173   5.957   3.278  0.7209 -0.3642  0.1472
  426MOL0     C58654   1.084   5.856   3.272  0.4984  0.1035 -1.0274
  426MOL0     C58655   0.968   5.886   3.348  0.1090  0.4190 -0.2959
  426MOL0     C58656   0.876   5.782   3.368 -0.8433 -0.0042 -0.4717
  426MOL0     C58657   0.883   5.663   3.297 -0.0064 -0.5370  0.0582
  426MOL0     O58658   0.799   5.559   3.314 -0.2245 -0.1380  0.5800
  426MOL0     C58659   0.681   5.574   3.233  0.2227 -0.3046 -0.7454
  426MOL0     C58660   0.634   5.445   3.171  0.2182 -0.1346  0.7701
  426MOL0     C58661   0.580   5.334   3.267  0.6938 -0.7137 -0.1876
  426MOL0     C58662   0.485   5.386   3.385 -0.3214  1.7061 -0.5374
  426MOL0     C58663   0.391   5.275   3.421 -0.2018  0.2574  0.5003
  426MOL0     C58664   0.266   5.294   3.338 -0.5204 -0.1116  1.1507
  426MOL0     C58665   0.178   5.170   3.343  0.7128  0.8176  0.5966
  426MOL0     C58666   0.223   5.065   3.236  0.2797  0.6197 -0.3411
  426MOL0     N58667   0.143   4.941   3.242 -0.3186  0.0568  0.3020
  426MOL0     C58668   0.022   4.915   3.315  0.0263 -0.1074  0.2585
  426MOL0     C58669   0.001   4.782   3.287  0.0440  0.8043 -0.2653
  426MOL0     C58670  -0.102   4.689   3.339 -0.7175 -0.7338 -0.0151
  426MOL0     C58671  -0.226   4.721   3.250 -0.0343 -0.3524  0.4669
  426MOL0     C58672  -0.286   4.849   3.276  0.2064 -0.3014  0.0823
  426MOL0     C58673  -0.431   4.852   3.239  0.8338 -0.2366  0.3312
  426MOL0     O58674  -0.435   4.817   3.103  0.0579 -0.0613  0.4746
  426MOL0     C58675  -0.547   4.837   3.025  0.1484 -0.1094 -0.1988
  426MOL0     C58676  -0.529   4.817   2.887 -0.4741 -0.4619 -0.1033
  426MOL0     C58677  -0.641   4.839   2.795  0.3544  0.3206 -0.2120
  426MOL0     C58678  -0.608   4.831   2.652 -0.7736  0.2653 -0.2071
  426MOL0     C58679  -0.773   4.853   2.845 -0.8072 -0.9043 -0.1889
  426MOL0     C58680  -0.886   4.867   2.756 -0.0259  0.2891  0.8120
  426MOL0     O58681  -1.005   4.815   2.809 -0.7597 -0.8533 -0.5265
  426MOL0     C58682  -1.112   4.785   2.729  0.8054 -0.2534 -0.2834
  426MOL0     C58683  -1.106   4.742   2.603 -1.0543  0.2767 -0.3110
  426MOL0     C58684  -1.223   4.695   2.540  0.0138 -0.8000  0.8205
  426MOL0     C58685  -1.348   4.725   2.591  0.9283  0.5038  0.6526
  426MOL0     O58686  -1.459   4.680   2.516 -0.7828  0.0937  0.0366
  426MOL0     C58687  -1.570   4.645   2.597  0.2744 -0.5574 -0.9771
  426MOL0     C58688  -1.678   4.571   2.516  0.1289 -0.1605  0.9826
  426MOL0     C58689  -1.821   4.587   2.566 -0.5718 -0.6132 -1.3589
  426MOL0     C58690  -1.879   4.733   2.522 -0.0864 -0.8396 -0.6949
  426MOL0     C58691  -2.017   4.764   2.568 -0.4737  0.2829 -0.2712
  426MOL0     C58692  -2.053   4.908   2.561  0.8552 -0.7797 -0.6721
  426MOL0     C58693  -2.197   4.941   2.617  0.4088  1.0140 -0.3485
  426MOL0     C58694  -2.267   5.076   2.592 -0.2633  0.7837  0.0439
  426MOL0    Cl58695  -2.161   5.200   2.672 -0.3267  0.0953 -0.1120
  426MOL0     C58696  -1.354   4.783   2.713  0.2714 -0.0354  0.1960
  426MOL0     C58697  -1.241   4.812   2.784  0.3561  0.1078  0.2750
  426MOL0     O58698  -0.878   4.929   2.651  0.2900  0.0501  0.4290
  426MOL0     C58699  -0.781   4.876   2.987 -0.7001  0.3090 -0.6445
  426MOL0     C58700  -0.674   4.863   3.080  0.2568 -0.1456  1.0110
  426MOL0     N58701   0.105   4.725   3.208  0.2414 -0.5011  0.5741
  426MOL0     N58702   0.183   4.825   3.178  0.0474 -0.8922 -0.4860
  426MOL0     C58703   1.000   5.636   3.232 -0.1131 -0.0591 -0.9379
  426MOL0     C58704   1.103   5.727   3.230 -0.3934  0.4422  0.7520
  426MOL0     C58705   1.307   6.129   3.173  0.7449  0.5616 -0.2580
  426MOL0     C58706   1.300   6.193   3.298  1.2583  0.4119  0.0016
  426MOL0     C58707   1.347   6.323   3.318 -0.0355  1.2548 -0.3802
  426MOL0     C58708   1.418   6.375   3.205 -0.6089 -1.1883  0.7863
  426MOL0     O58709   1.496   6.491   3.206 -0.0964 -0.3053  1.3090
  426MOL0     C58710   1.515   6.575   3.317  0.2238  0.1949 -0.3288
  426MOL0     C58711   1.474   6.708   3.266 -0.4745 -0.2808  0.9305
  426MOL0     C58712   1.566   6.775   3.156 -0.0100 -0.6592 -0.3012
  426MOL0     C58713   1.515   6.917   3.142 -0.1657  0.6034  0.1552
  426MOL0     C58714   1.528   6.967   3.000  1.6084 -0.6385 -0.2201
  426MOL0     C58715   1.525   7.000   2.882  0.1432  0.5592  0.8764
  426MOL0     C58716   1.420   6.320   3.082 -0.2009  1.1990  0.0554
  426MOL0     C58717   1.364   6.195   3.065 -0.7862  0.3584  0.6820
  426MOL0     C58718   1.347   6.154   2.919  0.6375 -0.1703  0.9288
  426MOL0     H58719   0.955   5.976   3.406 -1.9512 -0.9342  1.4930
  426MOL0     H58720   0.802   5.804   3.444 -0.2592 -0.8916  0.3934
  426MOL0     H58721   0.692   5.643   3.148 -3.7427 -1.5691 -2.5158
  426MOL0     H58722   0.606   5.620   3.298  1.8602 -0.5494  1.4531
  426MOL0     H58723   0.560   5.474   3.095  0.7674 -0.5146  0.0734
  426MOL0     H58724   0.721   5.408   3.116  0.1818  2.0921 -0.9576
  426MOL0     H58725   0.526   5.259   3.208  0.5462 -0.1799 -0.7342
  426MOL0     H58726   0.663   5.279   3.312  1.2986  2.1054  2.4968
  426MOL0     H58727   0.545   5.412   3.473 -0.1563 -2.2940  0.7274
  426MOL0     H58728   0.439   5.479   3.349  0.5395  1.6752 -1.8182
  426MOL0     H58729   0.365   5.286   3.526 -0.1759 -1.6527  0.7395
  426MOL0     H58730   0.443   5.181   3.401  1.9921  1.7733 -1.5135
  426MOL0     H58731   0.212   5.381   3.376 -1.1850  0.4663 -0.9551
  426MOL0     H58732   0.293   5.331   3.239  1.0062  1.2797  2.0332
  426MOL0     H58733   0.077   5.199   3.314  2.0422  2.1356 -3.3683
  426MOL0     H58734   0.171   5.134   3.446 -0.7835 -0.1184  0.1989
  426MOL0     H58735   0.207   5.108   3.137  0.4828 -1.9490 -1.5883
  426MOL0     H58736   0.328   5.036   3.248  0.1057  0.5718  1.3579
  426MOL0     H58737  -0.038   4.985   3.372 -2.0931  0.3592 -2.3368
  426MOL0     H58738  -0.106   4.713   3.446  3.5349  0.2518  0.0684
  426MOL0     H58739  -0.063   4.589   3.322  3.2842  0.7481 -0.4917
  426MOL0     H58740  -0.189   4.707   3.148 -0.6565  1.9558 -0.1298
  426MOL0     H58741  -0.308   4.651   3.268  0.0274 -1.0073 -1.5739
  426MOL0     H58742  -0.278   4.868   3.383  1.4502  1.5942 -0.2879
  426MOL0     H58743  -0.244   4.930   3.215 -1.1589 -0.2254 -0.8289
  426MOL0     H58744  -0.494   4.790   3.303 -0.8390  1.8087  0.8077
  426MOL0     H58745  -0.469   4.952   3.261 -1.1851 -1.0358  0.6985
  426MOL0     H58746  -0.435   4.798   2.836 -0.8684 -1.3487 -0.5277
  426MOL0     H58747  -0.509   4.785   2.648 -0.3757  1.1141 -0.4111
  426MOL0     H58748  -0.603   4.932   2.610 -0.8591  0.7008  0.7810
  426MOL0     H58749  -0.679   4.772   2.595  1.2748 -1.8421 -0.7292
  426MOL0     H58750  -1.013   4.732   2.549  0.4502  3.8544  1.2906
  426MOL0     H58751  -1.221   4.651   2.441 -0.8615 -0.4922  0.6548
  426MOL0     H58752  -1.532   4.581   2.678 -1.3188 -0.5054 -0.1648
  426MOL0     H58753  -1.620   4.727   2.648 -0.1291 -1.6086  0.3930
  426MOL0     H58754  -1.671   4.596   2.410 -1.9731  0.0758  0.8623
  426MOL0     H58755  -1.648   4.466   2.523 -1.8589 -0.7239  1.6697
  426MOL0     H58756  -1.813   4.586   2.675 -0.7407  2.9860 -1.2066
  426MOL0     H58757  -1.888   4.514   2.519  0.9320 -0.9907 -3.0173
  426MOL0     H58758  -1.882   4.752   2.414 -1.6581  2.7987 -0.1532
  426MOL0     H58759  -1.817   4.810   2.569 -0.1266 -0.9394 -0.4776
  426MOL0     H58760  -2.096   4.704   2.523 -2.2486  0.1563  2.7666
  426MOL0     H58761  -2.010   4.725   2.670 -1.7576 -1.9648 -0.9718
  426MOL0     H58762  -2.037   4.949   2.461 -4.8721 -0.8181 -1.9130
  426MOL0     H58763  -1.979   4.968   2.616  0.2561 -3.7756  3.9659
  426MOL0     H58764  -2.203   4.931   2.726  0.4627 -0.5515 -0.4636
  426MOL0     H58765  -2.262   4.863   2.577  2.6570 -0.9584 -0.3962
  426MOL0     H58766  -2.365   5.066   2.639  0.2674 -0.5280  0.9221
  426MOL0     H58767  -2.273   5.106   2.487  1.8538  0.1182 -0.3041
  426MOL0     H58768  -1.447   4.806   2.763 -1.3277  2.3986 -3.4068
  426MOL0     H58769  -1.247   4.867   2.878  1.0411  1.2382 -0.3231
  426MOL0     H58770  -0.883   4.878   3.024 -1.0229 -2.4843 -1.1776
  426MOL0     H58771  -0.684   4.874   3.188  1.6569  0.8376  1.0682
  426MOL0     H58772   1.020   5.539   3.187  1.7290 -0.9447  1.5546
  426MOL0     H58773   1.198   5.724   3.177  1.0310  5.2415  2.5121
  426MOL0     H58774   1.247   6.154   3.384 -1.2571  0.7908 -1.2957
  426MOL0     H58775   1.352   6.379   3.412 -0.3366  1.6084 -0.5702
  426MOL0     H58776   1.448   6.567   3.403  1.3379  3.9002  1.0833
  426MOL0     H58777   1.619   6.572   3.350  1.0901 -0.5963 -2.9533
  426MOL0     H58778   1.460   6.776   3.350 -1.1338  1.1363 -0.2893
  426MOL0     H58779   1.372   6.704   3.226 -0.3681  1.1853  0.4638
  426MOL0     H58780   1.674   6.770   3.171  0.4293 -1.9056 -3.2902
  426MOL0     H58781   1.549   6.719   3.064  1.4624 -0.9393 -0.4219
  426MOL0     H58782   1.587   6.972   3.204  2.3768 -1.1801 -1.0210
  426MOL0     H58783   1.417   6.931   3.190  1.0628  2.2825  2.3984
  426MOL0     H58784   1.531   7.017   2.776 -1.3156 -2.4576  0.1935
  426MOL0     H58785   1.481   6.356   3.000  2.8151 -0.4047  1.3983
  426MOL0     H58786   1.245   6.125   2.890  1.7042 -1.9784 -1.4151
  426MOL0     H58787   1.374   6.241   2.859 -0.9882  0.2163  0.7200
  426MOL0     H58788   1.423   6.078   2.898  0.3948 -0.3472  0.6737
  427MOL0     O58789   4.922  10.175   1.209 -0.4648  1.0034 -0.8028
  427MOL0     C58790   4.847  10.169   1.309  0.3872  0.2872  0.8476
  427MOL0     O58791   4.718  10.175   1.298 -0.2859  0.5001  0.2669
  427MOL0     C58792   4.667  10.202   1.173  0.5142  0.0607 -0.2860
  427MOL0     C58793   4.649  10.106   1.075 -0.6922 -0.3531  1.1900
  427MOL0     C58794   4.620  10.137   0.944 -0.4426  0.5193  0.3166
  427MOL0     C58795   4.622  10.278   0.908 -0.9954  0.0315  0.0612
  427MOL0     O58796   4.629  10.325   0.780 -0.0066 -0.2629  0.0737
  427MOL0     C58797   4.755  10.278   0.727  0.1131  1.1042  1.3427
  427MOL0     C58798   4.776  10.339   0.587 -0.4539 -0.4203  1.3948
  427MOL0     C58799   4.927  10.352   0.540 -0.8315  0.7319 -0.5146
  427MOL0     C58800   5.012  10.469   0.604 -0.2317 -0.5091 -0.9682
  427MOL0     C58801   5.159  10.474   0.563 -0.0753  0.2044 -0.5556
  427MOL0     C58802   5.238  10.354   0.613  0.0780  0.8189  0.2101
  427MOL0     C58803   5.379  10.352   0.569  0.4458 -0.0263 -0.5258
  427MOL0     C58804   5.478  10.448   0.651  0.9146 -0.6670  0.2365
  427MOL0     N58805   5.616  10.444   0.614 -0.6558  0.2695 -0.6500
  427MOL0     C58806   5.689  10.324   0.618  0.5507 -1.0477 -0.3988
  427MOL0     C58807   5.786  10.348   0.526 -0.4811  0.9760  0.3152
  427MOL0     C58808   5.882  10.243   0.480 -0.3371  0.3028 -0.3816
  427MOL0     C58809   6.000  10.243   0.571 -0.4776 -1.1163  1.0992
  427MOL0     C58810   5.966  10.175   0.694  0.5826 -0.7448 -0.9368
  427MOL0     C58811   6.085  10.088   0.752  1.1405 -1.1665 -0.3350
  427MOL0     O58812   6.098   9.974   0.670 -0.4542 -0.0621 -0.1941
  427MOL0     C58813   6.217   9.907   0.647  0.0540  0.5305  0.5987
  427MOL0     C58814   6.203   9.811   0.552  0.3316 -0.5486  0.4037
  427MOL0     C58815   6.312   9.750   0.486 -0.0291  0.5537 -0.7587
  427MOL0     C58816   6.277   9.664   0.373 -0.0545 -0.9870 -0.0025
  427MOL0     C58817   6.445   9.768   0.527 -0.2101  0.0788 -0.5495
  427MOL0     C58818   6.564   9.726   0.456 -0.4431  0.1780  0.3254
  427MOL0     O58819   6.547   9.651   0.347 -0.1438 -0.2821  0.3267
  427MOL0     C58820   6.661   9.619   0.280  0.6384 -0.5293 -0.0321
  427MOL0     C58821   6.730   9.500   0.310  1.1150 -0.4115  0.5928
  427MOL0     C58822   6.838   9.456   0.229  0.0284 -1.1821  0.2300
  427MOL0     C58823   6.892   9.542   0.134  0.0158  0.3555  0.8568
  427MOL0     O58824   7.012   9.507   0.075  0.1815  0.0240 -0.3775
  427MOL0     C58825   7.032   9.568  -0.056 -0.2349 -0.7476 -0.3641
  427MOL0     C58826   7.155   9.501  -0.116 -0.1034 -0.6664  0.3156
  427MOL0     C58827   7.278   9.521  -0.021  0.1264 -0.0200 -0.2575
  427MOL0     C58828   7.411   9.537  -0.094 -0.1108  1.2879 -0.6890
  427MOL0     C58829   7.460   9.418  -0.180  0.0319  0.6746  0.0559
  427MOL0     C58830   7.596   9.445  -0.247 -0.3876 -0.3045  0.2057
  427MOL0     C58831   7.587   9.449  -0.401 -0.2438 -0.1548  0.6087
  427MOL0     C58832   7.723   9.477  -0.463 -0.7999  0.9496  0.5848
  427MOL0    Cl58833   7.865   9.380  -0.425  0.0921  0.1595  0.0035
  427MOL0     C58834   6.822   9.661   0.107  0.2523  0.7053 -0.3610
  427MOL0     C58835   6.709   9.699   0.175  0.2111 -0.6865  0.3635
  427MOL0     O58836   6.668   9.780   0.494 -0.7427 -0.9041  0.3891
  427MOL0     C58837   6.465   9.859   0.636  0.3293  0.3304 -0.8557
  427MOL0     C58838   6.352   9.936   0.691 -0.0949 -0.2997  1.2383
  427MOL0     N58839   5.765  10.470   0.466  1.2027 -0.4444 -0.5808
  427MOL0     N58840   5.662  10.533   0.521  0.4707  0.4286 -0.7940
  427MOL0     C58841   4.605  10.376   1.010  0.1262  0.4193 -0.2320
  427MOL0     C58842   4.640  10.342   1.139 -0.1372 -0.0189 -0.1597
  427MOL0     C58843   4.920  10.168   1.435 -0.1095  0.1013  0.1668
  427MOL0     C58844   5.067  10.157   1.437  0.1289 -0.1642  0.3147
  427MOL0     C58845   5.136  10.143   1.563 -0.0285 -0.5403  0.6416
  427MOL0     C58846   5.068  10.136   1.684  0.3507  0.0190 -0.2467
  427MOL0     O58847   5.112  10.116   1.812 -0.3391  0.2831  0.7958
  427MOL0     C58848   5.251  10.068   1.829 -0.1262 -0.8098 -0.0676
  427MOL0     C58849   5.263   9.962   1.938 -0.4938  0.4359 -0.7915
  427MOL0     C58850   5.406   9.904   1.958  0.0926 -0.5574  0.2601
  427MOL0     C58851   5.439   9.864   2.096 -0.4646 -0.3750  0.5067
  427MOL0     C58852   5.576   9.838   2.102 -0.6034  0.2576  0.2285
  427MOL0     C58853   5.694   9.806   2.121 -0.8000  0.0950  0.0489
  427MOL0     C58854   4.928  10.153   1.679 -0.1382  0.4982 -0.3210
  427MOL0     C58855   4.851  10.175   1.562 -0.9995  0.8195  0.7041
  427MOL0     C58856   4.707  10.214   1.581 -0.1031  0.1626 -0.1055
  427MOL0     H58857   4.659  10.003   1.107 -0.1613 -0.4724  0.6516
  427MOL0     H58858   4.614  10.054   0.875 -2.5213 -2.1930  3.4807
  427MOL0     H58859   4.753  10.172   0.702 -1.7838  1.1854  0.9423
  427MOL0     H58860   4.835  10.291   0.800 -0.4896 -1.9113  2.6544
  427MOL0     H58861   4.721  10.282   0.512 -4.3234  2.4856  1.7127
  427MOL0     H58862   4.726  10.435   0.569  2.1282  0.7140 -0.3948
  427MOL0     H58863   4.971  10.251   0.539  1.9418  1.7851  2.0860
  427MOL0     H58864   4.922  10.387   0.436 -2.3404  0.4702 -0.5525
  427MOL0     H58865   4.964  10.563   0.574  0.5282 -0.2043 -1.2764
  427MOL0     H58866   4.986  10.467   0.710 -1.0693  2.0410 -1.0479
  427MOL0     H58867   5.212  10.561   0.603 -0.4152  1.1494 -2.0494
  427MOL0     H58868   5.160  10.486   0.454 -0.8131  1.2778 -0.4540
  427MOL0     H58869   5.248  10.353   0.722  2.3614 -4.6379  0.2307
  427MOL0     H58870   5.191  10.262   0.578 -1.0747  0.9949  1.2093
  427MOL0     H58871   5.375  10.383   0.465 -0.1502  1.6622 -0.0270
  427MOL0     H58872   5.425  10.254   0.588  0.5335 -0.0483 -0.8523
  427MOL0     H58873   5.447  10.551   0.629  1.4559  0.1906  3.0273
  427MOL0     H58874   5.470  10.436   0.760 -4.0236 -1.3076  0.0204
  427MOL0     H58875   5.655  10.234   0.667 -2.5484  0.3633  0.2843
  427MOL0     H58876   5.926  10.263   0.382  4.3603 -1.1781  1.1712
  427MOL0     H58877   5.832  10.146   0.475  0.3277 -0.2562  2.1927
  427MOL0     H58878   6.074  10.183   0.519 -2.3509 -3.5740  1.0726
  427MOL0     H58879   6.032  10.345   0.593  2.3010 -1.6250 -0.1728
  427MOL0     H58880   5.948  10.257   0.765  0.2644  0.6640 -2.5541
  427MOL0     H58881   5.878  10.110   0.689  1.2845 -1.7136 -0.8134
  427MOL0     H58882   6.180  10.141   0.762  1.7723 -2.1890 -0.7937
  427MOL0     H58883   6.046  10.061   0.851 -0.6921  1.7558 -0.1670
  427MOL0     H58884   6.105   9.793   0.507  0.7362  0.1543 -0.8093
  427MOL0     H58885   6.174   9.670   0.337  0.9819  1.5264 -2.9434
  427MOL0     H58886   6.318   9.562   0.379 -1.2616 -1.8196 -3.6768
  427MOL0     H58887   6.310   9.697   0.274 -3.6920 -0.1869 -1.0741
  427MOL0     H58888   6.689   9.442   0.392 -3.4312  2.3800  0.6660
  427MOL0     H58889   6.875   9.354   0.239  2.2902 -0.9813 -3.8564
  427MOL0     H58890   6.942   9.567  -0.119 -3.0751 -0.7247  3.3465
  427MOL0     H58891   7.059   9.671  -0.031 -1.0210 -0.7343  0.4968
  427MOL0     H58892   7.137   9.394  -0.129 -0.3335 -0.4747 -1.0856
  427MOL0     H58893   7.176   9.553  -0.210 -3.3143 -1.9767 -1.3054
  427MOL0     H58894   7.281   9.440   0.053 -1.7803  1.2565  1.2885
  427MOL0     H58895   7.270   9.620   0.023  1.5060 -0.0779  0.1587
  427MOL0     H58896   7.492   9.548  -0.021  2.7637 -2.4940 -2.9445
  427MOL0     H58897   7.416   9.634  -0.145  1.1217  2.4701  1.5149
  427MOL0     H58898   7.476   9.326  -0.123  0.0572 -0.0757 -1.1178
  427MOL0     H58899   7.381   9.406  -0.255  0.4813 -2.2731 -0.0701
  427MOL0     H58900   7.660   9.360  -0.221 -1.6442 -0.5071  3.0095
  427MOL0     H58901   7.638   9.531  -0.196  0.5785 -1.1261  0.8321
  427MOL0     H58902   7.513   9.514  -0.448 -2.1477 -3.8242 -1.9813
  427MOL0     H58903   7.557   9.347  -0.429  0.2489  0.1687 -1.2455
  427MOL0     H58904   7.744   9.585  -0.461 -2.0277  1.3497 -2.2814
  427MOL0     H58905   7.717   9.445  -0.568  1.9138  1.3324  0.2387
  427MOL0     H58906   6.847   9.717   0.017 -2.1051 -0.1984 -1.6624
  427MOL0     H58907   6.653   9.785   0.141  1.9033  0.1745 -0.3672
  427MOL0     H58908   6.562   9.897   0.665 -1.5871  4.2123  1.2338
  427MOL0     H58909   6.372  10.013   0.765 -1.8521  0.0790  1.3659
  427MOL0     H58910   4.600  10.481   0.985  1.1571  0.6737  0.5647
  427MOL0     H58911   4.642  10.425   1.210 -0.6828 -2.2396  2.6288
  427MOL0     H58912   5.123  10.151   1.344 -0.1457 -0.0039  0.1356
  427MOL0     H58913   5.243  10.128   1.565 -0.0503 -1.1392 -1.0372
  427MOL0     H58914   5.285  10.025   1.734  1.0070  2.2396 -1.1565
  427MOL0     H58915   5.330  10.141   1.848 -0.8901  0.0762 -0.2436
  427MOL0     H58916   5.197   9.878   1.918 -1.0659  0.9792 -1.2521
  427MOL0     H58917   5.228  10.004   2.032 -1.7201  1.9515 -1.8668
  427MOL0     H58918   5.426   9.817   1.894 -1.6344 -1.4636  0.8663
  427MOL0     H58919   5.477   9.983   1.934 -0.8481  1.0135  2.3304
  427MOL0     H58920   5.389   9.767   2.109 -1.8356  0.5031  2.1523
  427MOL0     H58921   5.394   9.930   2.171 -3.6288 -1.3039 -0.3900
  427MOL0     H58922   5.800   9.800   2.138 -0.5450  4.4614  1.4840
  427MOL0     H58923   4.875  10.149   1.774  1.1211 -2.3189  0.3342
  427MOL0     H58924   4.679  10.306   1.528  0.9878  2.0933  2.4391
  427MOL0     H58925   4.643  10.137   1.537 -0.1451 -0.9350  1.7439
  427MOL0     H58926   4.683  10.236   1.686  2.2234 -1.7226  0.9082
  428MOL0     O58927   7.412   6.670   0.652 -0.0296 -0.5897 -0.3261
  428MOL0     C58928   7.433   6.553   0.629 -0.1437 -0.5314 -0.0952
  428MOL0     O58929   7.544   6.495   0.663 -0.1189 -0.4562 -0.5625
  428MOL0     C58930   7.642   6.558   0.738  0.6341  0.8188  0.0658
  428MOL0     C58931   7.742   6.642   0.684 -0.5603 -0.2173  0.2585
  428MOL0     C58932   7.842   6.696   0.762  0.1146  0.3452 -0.0354
  428MOL0     C58933   7.839   6.684   0.900 -0.8610 -0.6418 -0.0270
  428MOL0     O58934   7.926   6.732   0.995  0.1198 -0.2640 -0.3148
  428MOL0     C58935   8.030   6.815   0.941 -0.5247  0.6710 -0.3910
  428MOL0     C58936   8.119   6.875   1.054  1.0143  0.4862 -0.1487
  428MOL0     C58937   8.050   6.938   1.176 -0.0485 -0.3333 -0.0965
  428MOL0     C58938   8.147   6.937   1.293  0.0647  0.6987  0.1326
  428MOL0     C58939   8.107   7.040   1.406  0.0338  0.1251  0.1373
  428MOL0     C58940   8.040   7.174   1.367 -0.4144 -0.7170 -0.6503
  428MOL0     C58941   8.057   7.281   1.476  0.6303  0.8642  0.1579
  428MOL0     C58942   7.994   7.411   1.425  0.2378 -0.6073 -0.3878
  428MOL0     N58943   7.987   7.506   1.537 -0.6111 -1.2021 -0.1770
  428MOL0     C58944   7.887   7.546   1.610  0.1931  0.6723 -0.4781
  428MOL0     C58945   7.929   7.658   1.679 -0.4035 -0.1553  0.3065
  428MOL0     C58946   7.840   7.728   1.781 -0.1336  0.4722  0.6181
  428MOL0     C58947   7.851   7.873   1.777 -0.1628  0.5644  1.0589
  428MOL0     C58948   7.798   7.934   1.648  0.3813 -0.8015  0.1711
  428MOL0     C58949   7.774   8.085   1.675 -0.0219  0.7591 -0.1319
  428MOL0     O58950   7.781   8.162   1.556 -0.1648 -0.2959  0.3568
  428MOL0     C58951   7.691   8.255   1.530 -0.7581 -0.6157  0.3760
  428MOL0     C58952   7.693   8.295   1.395  0.5999  0.5116  0.8305
  428MOL0     C58953   7.592   8.382   1.351  0.5961  0.1044  0.9260
  428MOL0     C58954   7.573   8.382   1.203  0.1228 -0.0560 -0.1553
  428MOL0     C58955   7.496   8.429   1.444  0.0754  1.1982  0.0957
  428MOL0     C58956   7.379   8.523   1.412 -0.1482  0.2635 -0.2696
  428MOL0     O58957   7.358   8.553   1.276 -0.6215  0.1757  1.3395
  428MOL0     C58958   7.237   8.598   1.228  0.0073  0.1420  0.0189
  428MOL0     C58959   7.241   8.662   1.103 -0.4178 -1.0172 -0.8254
  428MOL0     C58960   7.126   8.723   1.047  0.7243 -0.2128  0.1810
  428MOL0     C58961   7.000   8.692   1.110 -0.1075  0.0531  0.1148
  428MOL0     O58962   6.880   8.750   1.076 -0.0324  0.5719  0.3616
  428MOL0     C58963   6.850   8.770   0.931  1.2329 -0.0056 -0.3795
  428MOL0     C58964   6.699   8.761   0.914  0.2650 -0.3520  0.0567
  428MOL0     C58965   6.640   8.623   0.957 -0.6794 -1.5263 -0.4254
  428MOL0     C58966   6.489   8.626   0.941  0.2072 -0.2166 -0.3967
  428MOL0     C58967   6.420   8.503   1.001  0.0334 -0.5986 -0.3804
  428MOL0     C58968   6.442   8.468   1.143 -0.7007 -0.7410  0.2776
  428MOL0     C58969   6.387   8.329   1.173  0.5239  0.3282  0.0811
  428MOL0     C58970   6.409   8.279   1.318 -0.4104  0.2239  0.2370
  428MOL0    Cl58971   6.585   8.264   1.348 -0.1634 -0.8721  0.0277
  428MOL0     C58972   6.994   8.621   1.227  0.4342 -0.2678 -0.1334
  428MOL0     C58973   7.112   8.577   1.293 -0.2378  0.4915 -0.0853
  428MOL0     O58974   7.316   8.565   1.507  0.3982 -1.2182 -1.0410
  428MOL0     C58975   7.509   8.403   1.584 -0.2057 -0.3685  0.6713
  428MOL0     C58976   7.602   8.311   1.625 -0.0472 -0.3328  1.2959
  428MOL0     N58977   8.060   7.683   1.651  0.1236  0.6698  0.4102
  428MOL0     N58978   8.089   7.590   1.567  0.7933 -0.7030  0.0191
  428MOL0     C58979   7.743   6.599   0.961 -0.3578  0.2532  0.2750
  428MOL0     C58980   7.640   6.540   0.878  0.0250  0.3147 -0.2206
  428MOL0     C58981   7.339   6.481   0.548  0.2732  0.0361 -1.3069
  428MOL0     C58982   7.386   6.358   0.505  0.6677  0.3683  0.6077
  428MOL0     C58983   7.304   6.287   0.415  0.9548  1.4518 -0.3923
  428MOL0     C58984   7.170   6.312   0.385 -0.4451 -0.8095  0.0644
  428MOL0     O58985   7.109   6.229   0.298 -0.3847  0.7071 -0.0121
  428MOL0     C58986   7.024   6.284   0.200 -0.0186 -0.0513  0.4934
  428MOL0     C58987   7.089   6.284   0.055 -0.2320  0.6920 -0.2173
  428MOL0     C58988   7.116   6.138   0.013 -0.0845  0.0025  0.0938
  428MOL0     C58989   7.243   6.123  -0.069 -0.4955 -1.1607  0.2329
  428MOL0     C58990   7.267   6.231  -0.167 -0.4262 -0.2736 -0.9081
  428MOL0     C58991   7.281   6.320  -0.251  0.3479  0.3516  0.6880
  428MOL0     C58992   7.119   6.428   0.447  1.5116 -0.1013  0.1488
  428MOL0     C58993   7.198   6.515   0.514  0.2378  0.3806 -0.7285
  428MOL0     C58994   7.145   6.653   0.540 -0.5690  0.2451 -0.5351
  428MOL0     H58995   7.746   6.644   0.576 -0.1557 -1.3783  0.2410
  428MOL0     H58996   7.916   6.750   0.704 -0.6740 -0.8028 -2.2515
  428MOL0     H58997   7.993   6.904   0.890  1.0137  1.6771  0.1505
  428MOL0     H58998   8.081   6.754   0.866 -2.4166 -0.3538 -0.8876
  428MOL0     H58999   8.176   6.789   1.090  1.1796  0.3225 -0.7967
  428MOL0     H59000   8.184   6.957   1.024 -0.1872  1.6493  0.3138
  428MOL0     H59001   8.025   7.035   1.133  1.3183 -1.2650 -3.2823
  428MOL0     H59002   7.955   6.888   1.197 -2.2331  3.1088 -1.0098
  428MOL0     H59003   8.136   6.839   1.341 -0.1491  2.0637  3.1091
  428MOL0     H59004   8.245   6.966   1.256  0.1487 -0.6702 -0.7758
  428MOL0     H59005   8.198   7.060   1.464 -0.3132  1.2995  0.2914
  428MOL0     H59006   8.036   6.988   1.471 -0.8390  0.5137 -0.4881
  428MOL0     H59007   8.084   7.206   1.272  2.3720 -4.0411 -0.6468
  428MOL0     H59008   7.931   7.171   1.359 -0.5471  0.0669  0.6371
  428MOL0     H59009   8.164   7.285   1.498  0.2463 -0.7017  2.7985
  428MOL0     H59010   8.002   7.244   1.563  0.9144 -1.0036 -0.4107
  428MOL0     H59011   8.063   7.455   1.352 -1.7938  0.1634 -1.9460
  428MOL0     H59012   7.893   7.410   1.384  0.4822  2.0374 -1.2659
  428MOL0     H59013   7.785   7.509   1.610 -0.1701  0.7997 -5.7419
  428MOL0     H59014   7.877   7.691   1.877  1.7912 -2.4744 -1.0678
  428MOL0     H59015   7.738   7.701   1.755  0.4206 -0.7712 -0.4035
  428MOL0     H59016   7.784   7.912   1.854 -1.6329 -0.1024  0.1692
  428MOL0     H59017   7.955   7.893   1.805 -0.5006  0.7553  2.2317
  428MOL0     H59018   7.871   7.929   1.567 -0.5129  0.9236 -0.7937
  428MOL0     H59019   7.717   7.872   1.608  1.2546 -1.1433 -1.1479
  428MOL0     H59020   7.676   8.087   1.724  0.1264 -3.7727  0.7546
  428MOL0     H59021   7.839   8.122   1.756 -0.5600  1.9741 -0.2239
  428MOL0     H59022   7.754   8.246   1.320 -1.5726 -1.0598 -0.0344
  428MOL0     H59023   7.663   8.354   1.148  2.7360 -0.8185  4.0452
  428MOL0     H59024   7.551   8.483   1.166  0.5259  0.3663  0.7267
  428MOL0     H59025   7.487   8.324   1.168  0.2034  0.7075 -1.7265
  428MOL0     H59026   7.338   8.662   1.053 -0.9496  0.0351 -1.9066
  428MOL0     H59027   7.120   8.795   0.965 -0.6855  0.5036  0.8854
  428MOL0     H59028   6.895   8.867   0.908  2.0433 -0.2054  0.2738
  428MOL0     H59029   6.897   8.694   0.868  2.1998  2.7354 -3.2247
  428MOL0     H59030   6.658   8.849   0.964 -2.5697 -0.6577 -1.5166
  428MOL0     H59031   6.672   8.780   0.809 -0.8041 -1.9813 -0.0060
  428MOL0     H59032   6.655   8.620   1.065 -4.4912  0.8596  0.3311
  428MOL0     H59033   6.685   8.543   0.897 -0.3410 -2.1830  0.6809
  428MOL0     H59034   6.462   8.636   0.835  0.6126  1.2780 -0.3775
  428MOL0     H59035   6.466   8.719   0.994  3.1739 -1.2940  3.2620
  428MOL0     H59036   6.311   8.513   0.989 -0.5477 -1.8961  2.8381
  428MOL0     H59037   6.445   8.417   0.938  2.7335  0.8916 -1.5199
  428MOL0     H59038   6.402   8.548   1.205  0.2569 -0.3262  0.3821
  428MOL0     H59039   6.550   8.468   1.158 -0.5565  0.8967 -0.6242
  428MOL0     H59040   6.422   8.248   1.107 -2.6837 -0.3079 -1.0281
  428MOL0     H59041   6.278   8.333   1.177  0.3167 -1.2246 -2.0438
  428MOL0     H59042   6.363   8.181   1.337 -3.4964  0.7260 -3.4936
  428MOL0     H59043   6.365   8.346   1.393  0.6811 -0.9495  2.0297
  428MOL0     H59044   6.893   8.615   1.267  0.3182 -1.9793 -0.6358
  428MOL0     H59045   7.111   8.519   1.385 -0.2871 -1.8353 -1.5036
  428MOL0     H59046   7.446   8.445   1.663 -0.1523 -0.4570  0.7622
  428MOL0     H59047   7.603   8.279   1.729  1.1424  1.4825  1.8726
  428MOL0     H59048   7.750   6.585   1.068  5.5408 -1.0655  0.0138
  428MOL0     H59049   7.557   6.484   0.921 -1.2683  0.6611 -2.1229
  428MOL0     H59050   7.486   6.316   0.516 -0.1745 -1.7614  0.6476
  428MOL0     H59051   7.340   6.194   0.372  0.9435  1.1982  0.1408
  428MOL0     H59052   6.927   6.233   0.208  1.6469 -3.1677  3.3441
  428MOL0     H59053   7.006   6.388   0.228  0.1664  0.4709 -1.1969
  428MOL0     H59054   7.184   6.338   0.053  0.3526 -0.2488  1.0141
  428MOL0     H59055   7.035   6.340  -0.022 -1.6509  1.1187  1.0353
  428MOL0     H59056   7.135   6.073   0.099 -0.2817 -1.0282 -0.6157
  428MOL0     H59057   7.025   6.109  -0.040 -1.0297  1.4913  0.8555
  428MOL0     H59058   7.251   6.028  -0.122 -1.8196 -1.2637  0.1832
  428MOL0     H59059   7.325   6.120   0.004 -0.1142 -0.3137 -0.1427
  428MOL0     H59060   7.305   6.409  -0.305  0.4138 -2.1811 -4.0172
  428MOL0     H59061   7.015   6.437   0.416  1.6962 -0.5975 -0.6713
  428MOL0     H59062   7.216   6.734   0.522 -1.2995  1.7273  2.6404
  428MOL0     H59063   7.052   6.670   0.486 -1.7286 -0.8318  1.0319
  428MOL0     H59064   7.102   6.661   0.640 -0.1782  2.9093 -0.5237
  429MOL0     O59065   5.822   7.639   8.417  0.1432  0.1339 -0.7261
  429MOL0     C59066   5.879   7.577   8.330 -0.0599  0.0426 -0.5135
  429MOL0     O59067   5.842   7.580   8.191 -0.2144  0.3505  0.0049
  429MOL0     C59068   5.740   7.663   8.150 -0.9432 -0.0434 -0.6446
  429MOL0     C59069   5.753   7.802   8.181 -0.1128  0.7908  0.8872
  429MOL0     C59070   5.658   7.891   8.128  0.3563  0.8238 -0.7362
  429MOL0     C59071   5.550   7.841   8.055 -0.2482  0.0909 -0.8102
  429MOL0     O59072   5.457   7.915   7.997 -0.0787  0.4801 -0.7312
  429MOL0     C59073   5.399   8.025   8.067  0.3986 -0.7665 -0.5890
  429MOL0     C59074   5.321   8.003   8.191  0.1784 -0.1144 -0.4490
  429MOL0     C59075   5.219   7.889   8.179 -0.0518 -0.2565  0.2616
  429MOL0     C59076   5.119   7.882   8.296  0.0346  0.8057 -0.2105
  429MOL0     C59077   5.005   7.793   8.268  0.0709 -1.1535  0.5631
  429MOL0     C59078   4.973   7.682   8.366 -0.4376 -0.4735 -0.4092
  429MOL0     C59079   4.837   7.628   8.334 -0.3606  0.0437  0.5654
  429MOL0     C59080   4.865   7.490   8.258 -0.6700 -0.7521  0.0691
  429MOL0     N59081   4.891   7.526   8.111  0.5394  0.2563 -0.8985
  429MOL0     C59082   4.812   7.599   8.025  0.8596  1.5599  0.5741
  429MOL0     C59083   4.877   7.604   7.909 -0.2012 -0.0485 -0.0054
  429MOL0     C59084   4.818   7.654   7.780 -0.5397 -0.1271  0.4402
  429MOL0     C59085   4.832   7.541   7.671 -0.7753 -0.7191  0.0297
  429MOL0     C59086   4.754   7.567   7.541 -0.5710 -0.3620  0.3116
  429MOL0     C59087   4.830   7.655   7.440  0.0627 -0.9793 -0.0652
  429MOL0     O59088   4.722   7.714   7.360  0.0833 -0.4972 -1.1727
  429MOL0     C59089   4.760   7.819   7.273 -1.2748  0.4854  0.6201
  429MOL0     C59090   4.859   7.808   7.175 -1.2007 -0.5147  0.4467
  429MOL0     C59091   4.888   7.922   7.089 -0.3917 -0.8356  0.3483
  429MOL0     C59092   5.011   7.911   7.000 -0.0072  0.2081  1.2962
  429MOL0     C59093   4.805   8.041   7.089 -0.3838  0.1008  0.1531
  429MOL0     C59094   4.823   8.158   6.996 -0.6597 -0.2607  0.7215
  429MOL0     O59095   4.891   8.140   6.875 -0.2059  0.7429 -1.0769
  429MOL0     C59096   4.910   8.241   6.789  0.0717  0.1913 -0.1978
  429MOL0     C59097   5.035   8.289   6.765  0.3023  0.1455 -0.1744
  429MOL0     C59098   5.052   8.371   6.656  0.2466 -0.5690 -0.1321
  429MOL0     C59099   4.944   8.410   6.573  1.0327 -0.4988 -0.3715
  429MOL0     O59100   4.961   8.504   6.467  0.6250  0.3248 -0.2289
  429MOL0     C59101   4.991   8.449   6.340  0.0129  0.0960 -0.4905
  429MOL0     C59102   5.098   8.537   6.277  0.2622  0.1250  0.7436
  429MOL0     C59103   5.140   8.460   6.146 -0.3651 -0.8186 -0.2515
  429MOL0     C59104   5.250   8.527   6.068 -0.4759  0.0177 -0.8396
  429MOL0     C59105   5.203   8.652   5.988  0.2220  0.8625  0.5049
  429MOL0     C59106   5.320   8.701   5.911 -1.0731  0.2554  0.0010
  429MOL0     C59107   5.296   8.783   5.790 -0.4020  0.2913  1.0009
  429MOL0     C59108   5.280   8.700   5.660 -0.3585  0.0617  0.7594
  429MOL0    Cl59109   5.258   8.792   5.512 -0.0120 -0.2366  0.2925
  429MOL0     C59110   4.819   8.356   6.606  0.1967 -0.3001  0.3682
  429MOL0     C59111   4.802   8.276   6.712  0.0368  0.0666  0.0153
  429MOL0     O59112   4.767   8.259   7.021  1.1038  0.1054 -0.0422
  429MOL0     C59113   4.712   8.045   7.192  0.0165 -0.0115 -0.3963
  429MOL0     C59114   4.686   7.933   7.276 -0.3521  0.2615  0.6918
  429MOL0     N59115   4.983   7.518   7.933  0.6965 -0.6022  0.8276
  429MOL0     N59116   4.995   7.467   8.049  0.0633  0.1649  0.0403
  429MOL0     C59117   5.544   7.705   8.019 -0.1390 -0.0969  0.1339
  429MOL0     C59118   5.636   7.618   8.068 -0.0816 -0.5155  0.0481
  429MOL0     C59119   6.004   7.498   8.368 -0.1152 -0.0835 -0.4922
  429MOL0     C59120   6.103   7.498   8.273 -0.2802  0.1589  0.5607
  429MOL0     C59121   6.230   7.448   8.297 -0.3578  0.2499 -0.0302
  429MOL0     C59122   6.265   7.394   8.420 -0.8814  0.4751 -0.6140
  429MOL0     O59123   6.400   7.367   8.438  0.6730  0.2006 -0.1838
  429MOL0     C59124   6.441   7.312   8.560  1.1290  0.2665 -0.3787
  429MOL0     C59125   6.573   7.240   8.540 -0.4016  0.2812  0.2124
  429MOL0     C59126   6.629   7.155   8.658  0.1850 -0.4247 -0.2218
  429MOL0     C59127   6.760   7.107   8.626  0.1208 -0.9509 -0.3174
  429MOL0     C59128   6.802   7.051   8.753  0.4578  1.1495  0.7124
  429MOL0     C59129   6.838   7.014   8.862 -0.2256  0.5768  0.1196
  429MOL0     C59130   6.163   7.382   8.508  0.0408 -0.4382 -0.6632
  429MOL0     C59131   6.042   7.443   8.490  1.3618 -0.1912  0.6725
  429MOL0     C59132   5.942   7.437   8.603 -0.3927 -0.6791 -0.0066
  429MOL0     H59133   5.831   7.830   8.252 -0.4105  3.3653  0.3225
  429MOL0     H59134   5.647   7.995   8.159 -0.1966  0.4912  0.2478
  429MOL0     H59135   5.323   8.075   8.005 -1.5416 -0.1280  2.1281
  429MOL0     H59136   5.465   8.112   8.075 -3.6692  2.6993 -0.4309
  429MOL0     H59137   5.384   7.979   8.277 -2.3041  3.8211  2.8713
  429MOL0     H59138   5.266   8.093   8.220 -2.1371 -2.2194  2.2416
  429MOL0     H59139   5.160   7.912   8.090 -2.0862  5.2198  2.6061
  429MOL0     H59140   5.261   7.789   8.166  0.8343 -0.0765  1.5089
  429MOL0     H59141   5.184   7.843   8.375 -0.7084 -1.6683 -0.7434
  429MOL0     H59142   5.077   7.979   8.326 -1.7566 -0.3431  1.2491
  429MOL0     H59143   5.018   7.751   8.168  0.5525  1.7993 -0.7253
  429MOL0     H59144   4.924   7.866   8.264  1.9904  1.1111  0.0254
  429MOL0     H59145   5.053   7.608   8.373  0.3933  0.4431  0.1058
  429MOL0     H59146   4.983   7.720   8.468 -0.4167  0.5572 -0.7806
  429MOL0     H59147   4.774   7.699   8.280 -0.2265  1.1004  1.7571
  429MOL0     H59148   4.782   7.599   8.424 -0.4385 -3.2223 -0.3962
  429MOL0     H59149   4.941   7.425   8.302 -0.8928  0.5858  2.6455
  429MOL0     H59150   4.774   7.429   8.258 -1.2334 -0.0475  2.3269
  429MOL0     H59151   4.713   7.644   8.033 -0.1913 -0.7941  2.0931
  429MOL0     H59152   4.880   7.740   7.751  0.3167 -0.9317 -0.1828
  429MOL0     H59153   4.713   7.681   7.793 -0.6791 -0.6850  0.4925
  429MOL0     H59154   4.932   7.505   7.647 -0.2994  0.6531 -0.1157
  429MOL0     H59155   4.782   7.456   7.719  3.2703 -2.0813  2.2713
  429MOL0     H59156   4.730   7.479   7.481 -2.5445  1.9927 -2.6494
  429MOL0     H59157   4.656   7.601   7.576  0.0903  0.2962  1.6390
  429MOL0     H59158   4.878   7.745   7.481 -2.5969  0.0914  0.9220
  429MOL0     H59159   4.905   7.606   7.377  1.6568  2.4191 -1.0889
  429MOL0     H59160   4.933   7.730   7.165 -0.6395 -0.0448  0.8609
  429MOL0     H59161   5.072   8.001   7.017 -0.8436  0.6772  1.8634
  429MOL0     H59162   4.980   7.912   6.895  0.9233  2.0463  0.9955
  429MOL0     H59163   5.067   7.818   7.013 -1.0148 -1.0858 -2.3653
  429MOL0     H59164   5.118   8.249   6.822  0.0090 -3.1397 -1.8198
  429MOL0     H59165   5.149   8.413   6.631  1.3340 -2.7240  0.2279
  429MOL0     H59166   5.027   8.346   6.354  0.3693  0.5769  2.9495
  429MOL0     H59167   4.898   8.432   6.286  0.5753  1.6932 -2.0693
  429MOL0     H59168   5.056   8.638   6.270  1.8736  0.7737 -0.0177
  429MOL0     H59169   5.182   8.552   6.346  0.7049  4.7983 -0.4512
  429MOL0     H59170   5.055   8.455   6.077  0.4217  4.3866 -2.1022
  429MOL0     H59171   5.185   8.363   6.171  4.5567  1.5110  1.3130
  429MOL0     H59172   5.285   8.456   5.993 -0.6409  0.0561 -0.9540
  429MOL0     H59173   5.336   8.555   6.130 -1.0993  1.0943 -0.4255
  429MOL0     H59174   5.120   8.621   5.923  0.8363 -1.4328  0.7286
  429MOL0     H59175   5.166   8.736   6.047  2.2998  1.5996  0.8161
  429MOL0     H59176   5.388   8.620   5.883  1.2070  2.1239 -0.2341
  429MOL0     H59177   5.376   8.774   5.971  0.5826  0.6435 -1.9074
  429MOL0     H59178   5.371   8.861   5.775 -0.5903  0.0389 -1.8804
  429MOL0     H59179   5.202   8.827   5.826 -1.4699 -2.3255  1.6212
  429MOL0     H59180   5.207   8.622   5.683  0.5408 -0.4204  2.1036
  429MOL0     H59181   5.373   8.644   5.642  1.1346  2.3051  1.0784
  429MOL0     H59182   4.726   8.379   6.556 -0.0289  0.4839  1.1152
  429MOL0     H59183   4.707   8.229   6.736  0.0175 -0.6259 -1.3254
  429MOL0     H59184   4.638   8.123   7.208  0.3326  0.2882 -0.4013
  429MOL0     H59185   4.615   7.950   7.356  2.3446  0.2253  3.2399
  429MOL0     H59186   5.478   7.668   7.941  2.3133 -2.1139 -1.1500
  429MOL0     H59187   5.631   7.514   8.040 -0.5112  0.6343 -5.1946
  429MOL0     H59188   6.090   7.556   8.182 -3.2762  2.0644  2.0198
  429MOL0     H59189   6.304   7.472   8.221 -1.8822  1.1340 -1.3057
  429MOL0     H59190   6.441   7.387   8.639 -0.6553  1.7271 -1.6789
  429MOL0     H59191   6.367   7.237   8.591 -0.9103  3.1521  2.3206
  429MOL0     H59192   6.644   7.323   8.530  0.6553 -0.6380 -0.0758
  429MOL0     H59193   6.577   7.189   8.444  1.9061  2.9867 -1.2698
  429MOL0     H59194   6.619   7.217   8.748  1.6651 -0.0642 -0.2750
  429MOL0     H59195   6.556   7.075   8.667 -1.5933  0.3154 -5.1197
  429MOL0     H59196   6.825   7.190   8.599 -1.8105  1.7412  2.6506
  429MOL0     H59197   6.748   7.034   8.545 -3.8242  0.8999 -1.6362
  429MOL0     H59198   6.856   6.987   8.964  0.2910  0.9593  0.1386
  429MOL0     H59199   6.188   7.325   8.596  2.5918 -2.2638 -2.3986
  429MOL0     H59200   5.856   7.374   8.577 -2.1830  0.6471  2.3038
  429MOL0     H59201   5.980   7.389   8.695 -1.2725  2.4270  2.1295
  429MOL0     H59202   5.917   7.539   8.634  4.2278  1.8750 -3.4191
  430MOL0     O59203   8.003   3.986   5.738  0.6038 -0.0012 -0.7297
  430MOL0     C59204   7.977   3.906   5.648  0.4726  0.2246  0.0907
  430MOL0     O59205   7.855   3.901   5.587 -0.3747 -0.0838  0.3734
  430MOL0     C59206   7.777   4.005   5.569 -0.0455  0.1571  0.9682
  430MOL0     C59207   7.653   3.979   5.515 -1.0595  0.8953  0.2880
  430MOL0     C59208   7.576   4.081   5.454 -0.6226 -0.1549  0.4149
  430MOL0     C59209   7.612   4.212   5.470 -0.1649 -0.5461  0.9245
  430MOL0     O59210   7.540   4.303   5.394  0.4579 -0.0864 -0.1327
  430MOL0     C59211   7.408   4.352   5.439 -0.1174  0.2921 -0.1329
  430MOL0     C59212   7.367   4.485   5.373  0.0288  0.4013  0.5844
  430MOL0     C59213   7.469   4.603   5.403 -0.1642 -0.0391 -0.1472
  430MOL0     C59214   7.471   4.641   5.547 -0.0954 -0.6051  0.3360
  430MOL0     C59215   7.566   4.771   5.563 -0.2894  0.1427 -0.6883
  430MOL0     C59216   7.512   4.849   5.684 -0.0061  0.5727  0.1008
  430MOL0     C59217   7.382   4.920   5.662  0.0251 -1.2131  1.0484
  430MOL0     C59218   7.349   5.035   5.750 -0.4018  0.3824  0.4812
  430MOL0     N59219   7.304   4.983   5.872  0.4535 -0.4730 -0.3708
  430MOL0     C59220   7.181   4.917   5.880  0.4057  0.3507 -0.4519
  430MOL0     C59221   7.180   4.858   6.005 -0.0685  0.8926  0.0094
  430MOL0     C59222   7.070   4.779   6.067  0.1264  1.1133  0.8761
  430MOL0     C59223   6.959   4.855   6.149 -0.0475 -0.0762 -0.5946
  430MOL0     C59224   6.873   4.945   6.068 -0.2977  0.2169  0.7518
  430MOL0     C59225   6.775   4.891   5.970 -0.1349 -0.0575 -0.2106
  430MOL0     O59226   6.647   4.958   5.975  0.0022  0.5623  1.1089
  430MOL0     C59227   6.617   5.055   5.878 -0.0897 -0.3084  0.2770
  430MOL0     C59228   6.692   5.092   5.762  0.1147 -0.9341  0.2627
  430MOL0     C59229   6.644   5.182   5.658  0.7861 -0.4534  0.4680
  430MOL0     C59230   6.739   5.213   5.551  1.0706  0.3750  0.5080
  430MOL0     C59231   6.524   5.247   5.675  0.8015  0.3164  0.4412
  430MOL0     C59232   6.472   5.357   5.601  0.5099  0.3503  0.0642
  430MOL0     O59233   6.553   5.475   5.600  0.7826 -0.0845  0.4853
  430MOL0     C59234   6.510   5.578   5.518 -0.0764  0.6574  0.0692
  430MOL0     C59235   6.523   5.551   5.378 -0.2140  0.0969  0.8945
  430MOL0     C59236   6.498   5.656   5.282  0.6277 -0.1593 -0.1685
  430MOL0     C59237   6.435   5.772   5.321  0.6783  0.1040 -0.2178
  430MOL0     O59238   6.429   5.881   5.234 -0.4744  0.2572 -0.3768
  430MOL0     C59239   6.298   5.939   5.195 -0.5822  0.6600  0.3695
  430MOL0     C59240   6.314   6.070   5.124  0.1240 -0.8239 -0.5252
  430MOL0     C59241   6.394   6.171   5.205 -0.3933  0.0281 -0.0329
  430MOL0     C59242   6.320   6.230   5.329 -0.8662 -0.0146  0.1482
  430MOL0     C59243   6.428   6.269   5.437  0.1517  0.2100  0.2451
  430MOL0     C59244   6.545   6.365   5.408 -0.3713  0.0747 -0.1383
  430MOL0     C59245   6.632   6.364   5.542 -0.3613  0.0733  1.2063
  430MOL0     C59246   6.592   6.432   5.669 -0.3986 -0.4414  0.2446
  430MOL0    Cl59247   6.683   6.363   5.813  0.3026 -0.0871  0.0365
  430MOL0     C59248   6.417   5.800   5.466 -1.0272  0.3656  0.1671
  430MOL0     C59249   6.463   5.704   5.558  0.7631 -0.5077  0.3870
  430MOL0     O59250   6.371   5.343   5.536 -0.1628  0.1970  0.2354
  430MOL0     C59251   6.454   5.225   5.803 -0.4342  0.0397 -0.3071
  430MOL0     C59252   6.495   5.120   5.888  0.4774 -0.1799 -0.7081
  430MOL0     N59253   7.294   4.911   6.082 -0.0237  0.5375  0.3532
  430MOL0     N59254   7.371   4.972   5.985  0.2394  0.1934 -0.7397
  430MOL0     C59255   7.735   4.242   5.527  0.3888 -0.3467  0.4649
  430MOL0     C59256   7.823   4.137   5.574  0.3177  0.3009 -0.1071
  430MOL0     C59257   8.069   3.792   5.629 -1.0387 -0.9171 -0.6104
  430MOL0     C59258   8.015   3.669   5.596  1.1021 -0.1590  0.0276
  430MOL0     C59259   8.095   3.562   5.577  0.4249 -0.1804  0.5797
  430MOL0     C59260   8.235   3.560   5.588  0.3240 -0.3243  0.1328
  430MOL0     O59261   8.312   3.458   5.543  0.5941  0.1514  0.2249
  430MOL0     C59262   8.360   3.374   5.647 -0.1956 -0.7224  0.2425
  430MOL0     C59263   8.435   3.246   5.597  0.3104 -0.3838 -0.3040
  430MOL0     C59264   8.507   3.273   5.478 -0.6643  0.3777  0.7442
  430MOL0     C59265   8.564   3.154   5.419 -0.0621 -0.3597  0.8531
  430MOL0     C59266   8.664   3.186   5.314  0.3920 -0.7964 -0.0480
  430MOL0     C59267   8.735   3.209   5.217 -0.7108  0.0733  0.4639
  430MOL0     C59268   8.300   3.689   5.616  0.7453 -0.3606  0.6396
  430MOL0     C59269   8.216   3.806   5.633 -0.1667 -0.0597 -0.2461
  430MOL0     C59270   8.294   3.936   5.666  0.0604  0.9669  0.4748
  430MOL0     H59271   7.624   3.874   5.514  1.1534  0.2310  0.6408
  430MOL0     H59272   7.492   4.039   5.401  2.7410 -2.4172 -3.7070
  430MOL0     H59273   7.420   4.376   5.545  1.8318  2.4913 -0.7673
  430MOL0     H59274   7.335   4.272   5.425  2.0627 -2.1431  1.3490
  430MOL0     H59275   7.349   4.466   5.267  2.6118  0.2681  0.0889
  430MOL0     H59276   7.274   4.527   5.411  0.1589  1.0526  0.1865
  430MOL0     H59277   7.572   4.575   5.377  0.1940 -1.2571  2.3014
  430MOL0     H59278   7.443   4.695   5.351 -1.1260 -0.5846 -0.6419
  430MOL0     H59279   7.369   4.663   5.580 -1.1623 -1.3712 -2.1909
  430MOL0     H59280   7.501   4.565   5.619  2.6652 -2.4045 -2.4654
  430MOL0     H59281   7.570   4.837   5.476 -0.8521  1.9451  0.6010
  430MOL0     H59282   7.666   4.739   5.593 -1.5426 -2.5668  1.0129
  430MOL0     H59283   7.506   4.785   5.772  0.3209 -1.2436 -1.1598
  430MOL0     H59284   7.584   4.920   5.726 -0.2586  2.9555 -3.0825
  430MOL0     H59285   7.292   4.859   5.649 -0.8406  0.5337 -2.2637
  430MOL0     H59286   7.400   4.975   5.569  1.8028 -2.7253  0.4405
  430MOL0     H59287   7.439   5.098   5.750 -0.6504  0.7762  2.2666
  430MOL0     H59288   7.272   5.094   5.700  3.6763  4.2246 -2.0111
  430MOL0     H59289   7.112   4.900   5.797 -2.8587  4.1717  1.1602
  430MOL0     H59290   7.125   4.709   6.131  2.3638  2.0261  0.0364
  430MOL0     H59291   7.037   4.721   5.980  0.9908  2.1349 -0.1584
  430MOL0     H59292   6.890   4.791   6.204 -0.7551  3.0118  2.5299
  430MOL0     H59293   7.006   4.917   6.227 -0.9194 -0.4336  0.2242
  430MOL0     H59294   6.820   4.996   6.150 -0.1694 -1.8296  2.1998
  430MOL0     H59295   6.940   5.021   6.028  0.6563 -1.1374 -0.2914
  430MOL0     H59296   6.821   4.882   5.871 -2.9476 -1.4334 -1.5232
  430MOL0     H59297   6.751   4.789   6.003  1.0812  0.5662  2.9466
  430MOL0     H59298   6.786   5.043   5.737 -0.8187 -1.8776 -1.6932
  430MOL0     H59299   6.836   5.178   5.589  1.2376  1.5714  1.2154
  430MOL0     H59300   6.735   5.320   5.529 -0.5525  0.0876 -0.7746
  430MOL0     H59301   6.721   5.156   5.459  0.1250 -1.3765  1.7102
  430MOL0     H59302   6.542   5.447   5.355  1.6725 -0.1805  3.2626
  430MOL0     H59303   6.520   5.649   5.176  0.4637 -0.2794 -0.1954
  430MOL0     H59304   6.248   5.869   5.128  0.3491 -1.1167  1.4645
  430MOL0     H59305   6.233   5.960   5.280 -0.3234  1.0689  0.4700
  430MOL0     H59306   6.376   6.054   5.035  2.2104  1.7557  0.3518
  430MOL0     H59307   6.213   6.101   5.097 -1.0606 -1.9210  2.2562
  430MOL0     H59308   6.418   6.250   5.133 -0.9323 -1.0833 -1.4700
  430MOL0     H59309   6.491   6.133   5.237 -0.6936  0.3698  1.3441
  430MOL0     H59310   6.250   6.158   5.371 -3.4794  3.2620  1.8733
  430MOL0     H59311   6.258   6.311   5.290 -1.1856 -1.4646 -2.5894
  430MOL0     H59312   6.376   6.315   5.521 -1.3857 -0.6662 -0.1841
  430MOL0     H59313   6.469   6.176   5.476 -2.2122 -1.6000 -1.2550
  430MOL0     H59314   6.523   6.468   5.377 -0.2288 -0.6303 -2.8147
  430MOL0     H59315   6.607   6.325   5.327  0.6200 -1.4043  1.2815
  430MOL0     H59316   6.722   6.414   5.507 -0.0848 -1.7918 -0.9273
  430MOL0     H59317   6.665   6.261   5.557 -1.2766 -0.1319  1.9589
  430MOL0     H59318   6.484   6.426   5.685 -0.6636  2.1840 -0.0617
  430MOL0     H59319   6.618   6.538   5.678  0.0186 -0.5360  0.1518
  430MOL0     H59320   6.381   5.896   5.501  0.6672  0.5994  1.3683
  430MOL0     H59321   6.454   5.734   5.661  0.2164  0.9143 -0.0448
  430MOL0     H59322   6.385   5.306   5.828 -0.6582 -0.1942 -0.1712
  430MOL0     H59323   6.431   5.102   5.973 -1.1423  0.6927 -1.6840
  430MOL0     H59324   7.770   4.344   5.530  2.6512 -0.9571 -1.8495
  430MOL0     H59325   7.922   4.161   5.611  0.2097 -0.9976  1.1135
  430MOL0     H59326   7.908   3.661   5.580  0.7857 -2.0639  2.4762
  430MOL0     H59327   8.050   3.474   5.534  1.2340  0.1755 -1.0712
  430MOL0     H59328   8.429   3.435   5.707 -1.5676  1.3040 -0.1663
  430MOL0     H59329   8.279   3.334   5.708 -0.6195  0.7391  0.6819
  430MOL0     H59330   8.350   3.177   5.585 -1.0632  1.0429  0.7235
  430MOL0     H59331   8.512   3.207   5.664  2.5770 -0.4751 -2.8398
  430MOL0     H59332   8.449   3.331   5.406 -0.0239 -1.3737 -1.3163
  430MOL0     H59333   8.593   3.336   5.502  0.2868  0.1674 -1.8056
  430MOL0     H59334   8.487   3.097   5.365  1.5251  0.3744 -2.4128
  430MOL0     H59335   8.621   3.087   5.485  1.4329  2.1431  2.2607
  430MOL0     H59336   8.793   3.233   5.131 -0.1310  4.3677  1.7976
  430MOL0     H59337   8.406   3.707   5.614  0.2812  2.8043 -1.1251
  430MOL0     H59338   8.402   3.923   5.669  0.0321  0.8409  2.2251
  430MOL0     H59339   8.258   4.015   5.599 -1.8948  1.4623  2.0072
  430MOL0     H59340   8.262   3.975   5.763 -1.1720 -3.0749  1.9076
  431MOL0     O59341   2.144   3.631   4.897  0.0040 -1.1996  0.7456
  431MOL0     C59342   2.119   3.557   4.798 -0.8314 -0.0029  0.7144
  431MOL0     O59343   2.202   3.484   4.726 -0.1214 -0.5754  0.3258
  431MOL0     C59344   2.337   3.510   4.760 -0.0958  0.6942  0.3401
  431MOL0     C59345   2.427   3.543   4.652  1.4417 -0.5718  0.1168
  431MOL0     C59346   2.560   3.562   4.685  0.5106  0.3959  0.0424
  431MOL0     C59347   2.617   3.515   4.806  0.0238  0.0434 -0.3230
  431MOL0     O59348   2.753   3.506   4.823 -0.6463 -0.1828  0.0883
  431MOL0     C59349   2.796   3.380   4.765  1.2501 -0.2271  1.0222
  431MOL0     C59350   2.941   3.351   4.822  0.0055 -0.2243 -0.3091
  431MOL0     C59351   3.011   3.232   4.759 -0.0300 -0.6472 -0.4561
  431MOL0     C59352   3.158   3.221   4.812 -0.3959  0.7803 -0.0424
  431MOL0     C59353   3.241   3.113   4.722  0.1226  0.0068 -0.5174
  431MOL0     C59354   3.286   3.181   4.586 -1.2038 -0.1444  0.3705
  431MOL0     C59355   3.400   3.101   4.517  0.4644  0.3496  0.3283
  431MOL0     C59356   3.348   2.957   4.477 -0.3256  0.4844  0.0942
  431MOL0     N59357   3.465   2.873   4.441 -0.3268 -0.6939 -0.1250
  431MOL0     C59358   3.559   2.914   4.345  0.1257 -0.0463  1.0181
  431MOL0     C59359   3.664   2.838   4.362  0.0998  0.2450  0.0694
  431MOL0     C59360   3.783   2.827   4.277  0.1874 -0.6983 -0.1656
  431MOL0     C59361   3.768   2.733   4.152 -0.1617  0.6294 -0.3788
  431MOL0     C59362   3.835   2.795   4.024  0.7084  0.2986  0.6521
  431MOL0     C59363   3.987   2.826   4.033  0.5416  0.5104 -0.2746
  431MOL0     O59364   4.057   2.711   4.084 -0.0717 -0.8048  0.0715
  431MOL0     C59365   4.105   2.624   3.990  0.4161  0.3556 -0.4895
  431MOL0     C59366   4.070   2.630   3.855 -0.4293 -0.2789  0.0146
  431MOL0     C59367   4.135   2.540   3.767  1.3381  0.5813  0.6763
  431MOL0     C59368   4.071   2.551   3.618 -0.4462  0.6068 -1.0971
  431MOL0     C59369   4.223   2.444   3.812 -0.6852 -0.4286  0.0602
  431MOL0     C59370   4.285   2.340   3.716 -0.2525 -1.2175  0.0804
  431MOL0     O59371   4.375   2.242   3.770  0.7772 -0.3170 -0.2410
  431MOL0     C59372   4.447   2.171   3.672  0.2876  0.3037  0.8021
  431MOL0     C59373   4.391   2.058   3.617  0.7035 -0.7452 -0.3525
  431MOL0     C59374   4.456   1.995   3.511 -0.4528  0.1679  0.0946
  431MOL0     C59375   4.574   2.052   3.454 -0.8419  0.1423  0.3165
  431MOL0     O59376   4.621   1.983   3.343  0.2042 -0.4541 -0.3728
  431MOL0     C59377   4.755   1.965   3.325  0.3336 -2.0765 -0.2398
  431MOL0     C59378   4.809   1.858   3.422 -0.4518 -0.9938  0.7210
  431MOL0     C59379   4.748   1.718   3.388 -0.0173 -1.0425 -0.0307
  431MOL0     C59380   4.827   1.604   3.468 -0.2111  0.1743 -1.1718
  431MOL0     C59381   4.962   1.559   3.405 -0.0963 -0.1192  0.1764
  431MOL0     C59382   4.950   1.530   3.253 -0.0099 -0.3411  0.1213
  431MOL0     C59383   5.060   1.440   3.210 -0.0051  0.0315  0.1009
  431MOL0     C59384   5.040   1.395   3.067  0.3295 -0.2768  0.3297
  431MOL0    Cl59385   4.914   1.275   3.060  0.5775 -0.2105 -0.4019
  431MOL0     C59386   4.635   2.159   3.511  0.0075 -0.1813  0.7891
  431MOL0     C59387   4.560   2.229   3.614 -0.2633  0.0027  0.0340
  431MOL0     O59388   4.280   2.357   3.598 -0.9718 -0.3438 -0.4934
  431MOL0     C59389   4.245   2.435   3.948 -0.7123 -0.1302  0.0167
  431MOL0     C59390   4.197   2.539   4.034  0.0834  0.2824 -0.1712
  431MOL0     N59391   3.625   2.742   4.461  0.7076  0.6089 -0.0054
  431MOL0     N59392   3.503   2.768   4.515 -0.9513  0.9684  0.1829
  431MOL0     C59393   2.534   3.475   4.905 -0.1522  0.4538 -0.7763
  431MOL0     C59394   2.391   3.479   4.884  0.3776 -0.1760  0.4598
  431MOL0     C59395   1.973   3.550   4.756 -0.4139  0.3584 -0.1419
  431MOL0     C59396   1.962   3.523   4.614  0.3751  0.5650 -0.4303
  431MOL0     C59397   1.833   3.527   4.566 -0.1520 -0.6718 -0.0916
  431MOL0     C59398   1.724   3.526   4.644  0.6855 -0.3216 -0.2644
  431MOL0     O59399   1.604   3.506   4.571  0.2411  0.1134 -0.0117
  431MOL0     C59400   1.476   3.545   4.630  0.6316  0.5157  0.0144
  431MOL0     C59401   1.436   3.680   4.593  0.2168  0.8268  0.4203
  431MOL0     C59402   1.314   3.740   4.668  0.3635  0.1597 -0.6371
  431MOL0     C59403   1.271   3.853   4.577  0.0291 -0.7435 -0.0540
  431MOL0     C59404   1.139   3.891   4.630 -0.8349 -0.4438  0.0759
  431MOL0     C59405   1.021   3.894   4.655  0.3216  0.4643  0.1323
  431MOL0     C59406   1.734   3.537   4.783 -1.3509 -1.1606 -0.0462
  431MOL0     C59407   1.864   3.566   4.839  1.4156 -0.5025  0.0504
  431MOL0     C59408   1.869   3.583   4.989  0.5670  0.1404 -0.0339
  431MOL0     H59409   2.382   3.568   4.557  0.8310  1.9135  0.9904
  431MOL0     H59410   2.629   3.597   4.609 -1.3151  2.1844 -0.8599
  431MOL0     H59411   2.804   3.385   4.656 -2.7826 -1.8484  0.5165
  431MOL0     H59412   2.729   3.299   4.793  3.7754 -2.1951  1.7931
  431MOL0     H59413   3.006   3.434   4.794  3.0552 -2.6839 -1.0079
  431MOL0     H59414   2.935   3.341   4.931 -0.6165 -0.9678 -0.4038
  431MOL0     H59415   2.954   3.142   4.785 -0.6313 -0.7017 -1.8829
  431MOL0     H59416   3.014   3.251   4.652  2.4152 -2.3631 -0.7859
  431MOL0     H59417   3.209   3.318   4.822 -1.3224  1.6213 -2.6347
  431MOL0     H59418   3.149   3.181   4.914  0.9704  3.6759  1.3243
  431MOL0     H59419   3.182   3.022   4.713 -1.5769  1.1861 -1.9823
  431MOL0     H59420   3.336   3.085   4.768  0.2057  0.6564 -0.2778
  431MOL0     H59421   3.202   3.195   4.518 -0.5923  4.2884  0.2505
  431MOL0     H59422   3.322   3.281   4.611 -1.7133  0.7013 -2.0605
  431MOL0     H59423   3.493   3.085   4.572  1.3764  0.7900 -1.0379
  431MOL0     H59424   3.430   3.156   4.427  2.4638 -0.3050  0.5396
  431MOL0     H59425   3.292   2.899   4.551 -0.4709 -2.6508 -2.2695
  431MOL0     H59426   3.292   2.970   4.384 -2.0935 -2.8212  0.5357
  431MOL0     H59427   3.552   2.999   4.279 -1.9971  0.3947  1.7109
  431MOL0     H59428   3.870   2.785   4.328  1.4031  1.7518 -0.0306
  431MOL0     H59429   3.818   2.925   4.241 -0.0769  0.8022  3.3026
  431MOL0     H59430   3.809   2.633   4.171 -1.3634  0.2320  0.2191
  431MOL0     H59431   3.662   2.714   4.134 -0.1942  0.3833  0.0509
  431MOL0     H59432   3.833   2.723   3.942 -0.8676  0.6875  0.3214
  431MOL0     H59433   3.784   2.888   3.997  3.7462  1.9362  0.1146
  431MOL0     H59434   4.011   2.862   3.932 -2.8292 -1.2047 -1.8362
  431MOL0     H59435   4.002   2.913   4.097  4.8884 -0.7638  0.7797
  431MOL0     H59436   4.005   2.710   3.822  0.3592  0.4283  0.1278
  431MOL0     H59437   4.140   2.608   3.554  3.1562 -1.7144  0.3559
  431MOL0     H59438   3.968   2.586   3.616 -0.6046  1.6586  5.2809
  431MOL0     H59439   4.066   2.453   3.569  0.9899 -0.5808  1.0043
  431MOL0     H59440   4.302   2.026   3.671  1.1367  0.6854  1.2959
  431MOL0     H59441   4.411   1.902   3.476  3.4174 -1.9848  0.2216
  431MOL0     H59442   4.761   1.935   3.220 -0.9837  0.8366 -1.2591
  431MOL0     H59443   4.814   2.057   3.333  1.3431 -2.7178 -0.0763
  431MOL0     H59444   4.917   1.848   3.406 -0.0910  0.5795  1.9791
  431MOL0     H59445   4.785   1.878   3.526 -0.2125  1.7988  0.3303
  431MOL0     H59446   4.726   1.709   3.282 -0.9226  2.3733 -0.2485
  431MOL0     H59447   4.648   1.723   3.432 -2.2008  1.4974 -4.5916
  431MOL0     H59448   4.765   1.515   3.480 -1.4704  1.2180  0.3946
  431MOL0     H59449   4.860   1.647   3.563  1.2319 -2.2359 -0.4878
  431MOL0     H59450   5.039   1.634   3.422  1.7925 -2.0507  0.5238
  431MOL0     H59451   4.994   1.467   3.456 -0.5385 -0.3125  0.1160
  431MOL0     H59452   4.963   1.623   3.196  1.1886  0.0191  0.9515
  431MOL0     H59453   4.849   1.490   3.242 -1.5472  3.2696 -0.4357
  431MOL0     H59454   5.061   1.354   3.277 -4.1988 -0.1394  0.1611
  431MOL0     H59455   5.150   1.500   3.229 -1.4998  1.7721  2.1888
  431MOL0     H59456   5.131   1.354   3.022 -0.8552  1.2357 -3.9120
  431MOL0     H59457   5.023   1.485   3.008  2.3770  3.1653  4.4210
  431MOL0     H59458   4.726   2.211   3.483  1.5237 -2.1275  1.8971
  431MOL0     H59459   4.593   2.329   3.642 -0.2763  0.0136  0.0101
  431MOL0     H59460   4.299   2.348   3.985 -2.9271 -2.0775 -1.0143
  431MOL0     H59461   4.224   2.532   4.139  4.1320 -2.0032 -1.1464
  431MOL0     H59462   2.569   3.440   5.002 -1.2759  0.5952 -0.3052
  431MOL0     H59463   2.326   3.442   4.962  2.1675 -3.3843  0.5659
  431MOL0     H59464   2.049   3.500   4.553  0.2268 -0.4604 -0.2812
  431MOL0     H59465   1.814   3.518   4.460 -6.1368  2.8604  0.2375
  431MOL0     H59466   1.392   3.481   4.599  0.6289  0.5204  0.0120
  431MOL0     H59467   1.477   3.538   4.739  1.6956  0.9407  0.0430
  431MOL0     H59468   1.423   3.681   4.484  2.4651  1.0403  0.0958
  431MOL0     H59469   1.524   3.741   4.617  0.1533 -0.4223  4.7268
  431MOL0     H59470   1.238   3.663   4.682  1.9785 -1.3080  0.5172
  431MOL0     H59471   1.341   3.783   4.765 -1.4531  1.2075 -0.5675
  431MOL0     H59472   1.261   3.819   4.473 -0.4416  1.4174 -0.7673
  431MOL0     H59473   1.332   3.944   4.580 -0.5735 -0.1096 -3.2447
  431MOL0     H59474   0.918   3.919   4.675  0.2579  1.6635 -1.4377
  431MOL0     H59475   1.646   3.522   4.845 -0.1425  2.4610  2.8634
  431MOL0     H59476   1.770   3.587   5.035 -1.0980  1.4077 -3.4395
  431MOL0     H59477   1.928   3.502   5.032 -0.6379 -0.1154  1.1938
  431MOL0     H59478   1.911   3.678   5.024 -0.8946 -0.0679  2.5662
  432MOL0     O59479   6.889   9.803   3.091  0.5273 -0.7781 -0.0667
  432MOL0     C59480   6.936   9.913   3.066  0.6918  0.4336 -0.1247
  432MOL0     O59481   6.865  10.015   3.004 -0.3663 -0.0820 -0.5456
  432MOL0     C59482   6.723  10.015   2.985  0.0827  0.0579 -0.9925
  432MOL0     C59483   6.640  10.075   3.077 -0.2382  0.0802 -0.2359
  432MOL0     C59484   6.502  10.082   3.065  1.0437  0.5310 -0.1142
  432MOL0     C59485   6.448  10.022   2.952  0.8759  1.1315  0.4483
  432MOL0     O59486   6.308  10.039   2.941  0.2985 -0.2018  0.5089
  432MOL0     C59487   6.238  10.003   2.818  0.0602  0.4818 -0.0794
  432MOL0     C59488   6.162   9.867   2.834 -0.0066 -0.6546  0.8182
  432MOL0     C59489   6.092   9.871   2.968 -0.5941 -0.6799  0.0558
  432MOL0     C59490   5.982   9.768   2.985  0.8060  0.1776  0.2839
  432MOL0     C59491   5.954   9.748   3.139  0.2432 -0.9914  0.4916
  432MOL0     C59492   5.847   9.647   3.157  0.1093 -0.5792 -0.8429
  432MOL0     C59493   5.879   9.502   3.102  0.5252 -0.8009  0.7627
  432MOL0     C59494   5.984   9.429   3.176  0.2928  0.2920  1.0834
  432MOL0     N59495   5.965   9.431   3.324 -0.1549  0.4261  0.3629
  432MOL0     C59496   5.845   9.385   3.379  0.4569  0.3870  0.0058
  432MOL0     C59497   5.835   9.444   3.502 -1.2061 -0.8514 -0.9564
  432MOL0     C59498   5.726   9.448   3.594  1.3375 -0.2687  0.0170
  432MOL0     C59499   5.755   9.361   3.718  0.7788  0.2585  0.4528
  432MOL0     C59500   5.883   9.368   3.806  0.3645 -0.1190  0.2074
  432MOL0     C59501   5.919   9.508   3.871 -1.1570 -0.1468  0.3119
  432MOL0     O59502   5.807   9.532   3.967 -1.1271 -0.8610  0.2219
  432MOL0     C59503   5.817   9.622   4.073  0.2017  0.3689 -0.2155
  432MOL0     C59504   5.913   9.726   4.111  0.8048 -0.0033  0.5835
  432MOL0     C59505   5.885   9.805   4.220 -0.4636 -0.4916 -0.7403
  432MOL0     C59506   5.972   9.930   4.234 -0.1995  0.0626 -0.4782
  432MOL0     C59507   5.780   9.779   4.312  0.4966  0.0383  0.1842
  432MOL0     C59508   5.742   9.861   4.427  0.7698  0.1684  0.8409
  432MOL0     O59509   5.616   9.835   4.473  0.2934  0.4517  0.0744
  432MOL0     C59510   5.581   9.884   4.602  0.0478 -0.2962  0.5156
  432MOL0     C59511   5.532   9.795   4.700 -0.3305 -1.5742 -0.1056
  432MOL0     C59512   5.492   9.858   4.822 -0.2822  0.1729 -0.8900
  432MOL0     C59513   5.507   9.994   4.847  0.0137 -0.5344 -0.7454
  432MOL0     O59514   5.464  10.051   4.964 -0.2366 -0.2760 -0.2794
  432MOL0     C59515   5.333  10.028   5.008  0.7209 -1.2327 -0.2954
  432MOL0     C59516   5.263  10.159   4.993  0.9660 -0.4100  0.7726
  432MOL0     C59517   5.143  10.167   5.079  0.1169 -1.3105  0.2008
  432MOL0     C59518   5.103  10.323   5.095 -0.7233 -0.2282 -0.2113
  432MOL0     C59519   4.986  10.327   5.200 -0.8385 -0.7665 -0.5093
  432MOL0     C59520   4.937  10.465   5.227 -0.5138 -0.0345  0.0842
  432MOL0     C59521   4.817  10.448   5.312 -0.3707 -0.6471 -0.8371
  432MOL0     C59522   4.770  10.580   5.364 -0.2112  0.9306 -0.6956
  432MOL0    Cl59523   4.719  10.685   5.220 -0.1660 -0.0555  0.1784
  432MOL0     C59524   5.566  10.071   4.750  0.7049  1.0560 -0.4352
  432MOL0     C59525   5.597  10.020   4.625 -0.2474 -0.6718  0.1723
  432MOL0     O59526   5.818   9.940   4.476 -0.0681  0.6596 -0.5477
  432MOL0     C59527   5.698   9.670   4.277  0.4836 -0.4123 -0.0093
  432MOL0     C59528   5.713   9.605   4.159 -0.3393  0.4764  0.2339
  432MOL0     N59529   5.941   9.531   3.522  0.1725 -0.3296  0.9338
  432MOL0     N59530   6.021   9.520   3.417 -0.3702  0.2669  0.0755
  432MOL0     C59531   6.524   9.954   2.865 -0.1876  0.2798  0.9227
  432MOL0     C59532   6.666   9.949   2.873  0.0833  0.1315  0.6046
  432MOL0     C59533   7.075   9.952   3.114  0.0884  0.6849 -0.2073
  432MOL0     C59534   7.144  10.055   3.048  0.3534  0.2212  0.1234
  432MOL0     C59535   7.266  10.097   3.092 -1.6612 -0.0729 -0.5845
  432MOL0     C59536   7.332  10.034   3.199  0.1263 -0.2632  0.4276
  432MOL0     O59537   7.456  10.078   3.250 -0.4379 -0.3681  0.1618
  432MOL0     C59538   7.467  10.226   3.271 -0.5869  0.5565  1.0637
  432MOL0     C59539   7.519  10.259   3.412  0.5705  0.1257  0.2849
  432MOL0     C59540   7.417  10.212   3.517  0.7949 -0.1102 -0.2030
  432MOL0     C59541   7.453  10.258   3.662 -0.1963 -0.2278  0.4534
  432MOL0     C59542   7.596  10.226   3.695  0.7069  0.4206  0.0752
  432MOL0     C59543   7.706  10.187   3.724 -0.2644 -1.5187  0.4224
  432MOL0     C59544   7.267   9.939   3.276 -1.4841 -0.4496  0.1500
  432MOL0     C59545   7.142   9.890   3.233 -0.7938  0.3879 -0.0666
  432MOL0     C59546   7.081   9.786   3.320 -0.1275  0.1432  0.3259
  432MOL0     H59547   6.680  10.119   3.168 -5.2385  1.4210  1.6894
  432MOL0     H59548   6.425  10.114   3.134 -2.6835 -2.2908 -2.5656
  432MOL0     H59549   6.303   9.996   2.730  0.4844  0.2280  0.2512
  432MOL0     H59550   6.164  10.082   2.799 -3.4877 -2.2019  1.3532
  432MOL0     H59551   6.097   9.861   2.746  2.1448  0.5415 -0.9468
  432MOL0     H59552   6.237   9.788   2.823  1.9142  1.1118  0.7329
  432MOL0     H59553   6.174   9.848   3.037 -0.8093  1.7723  1.2500
  432MOL0     H59554   6.055   9.972   2.985  1.0483  0.1109 -0.7764
  432MOL0     H59555   5.891   9.802   2.934  1.2774  0.9465 -0.0797
  432MOL0     H59556   6.013   9.676   2.934 -4.2030 -0.0673 -3.0801
  432MOL0     H59557   5.923   9.845   3.180  1.4003 -1.0427  1.5767
  432MOL0     H59558   6.047   9.713   3.186  0.8205  0.2502  0.3027
  432MOL0     H59559   5.829   9.636   3.264 -3.3589 -4.8412 -1.6186
  432MOL0     H59560   5.761   9.690   3.105 -0.5620  0.3051  0.8929
  432MOL0     H59561   5.885   9.511   2.993 -2.8738 -1.6961  0.4059
  432MOL0     H59562   5.789   9.440   3.110  0.9067 -1.2684  1.5757
  432MOL0     H59563   5.975   9.327   3.139  3.3567  0.4354 -0.3803
  432MOL0     H59564   6.075   9.471   3.133 -1.0163  1.2102 -0.9098
  432MOL0     H59565   5.766   9.320   3.342  0.5369  0.2483  0.0800
  432MOL0     H59566   5.642   9.401   3.540  3.8810 -3.7437 -1.3189
  432MOL0     H59567   5.700   9.552   3.612  0.7238 -0.7567  2.2342
  432MOL0     H59568   5.668   9.377   3.781 -2.6924 -5.3603 -2.1275
  432MOL0     H59569   5.751   9.261   3.674  2.9938  1.0178 -1.7236
  432MOL0     H59570   5.892   9.295   3.887 -1.9549 -0.3781  0.3102
  432MOL0     H59571   5.964   9.346   3.736 -2.0544  2.0064 -3.6058
  432MOL0     H59572   6.010   9.490   3.928 -1.6083  0.8131  1.3656
  432MOL0     H59573   5.941   9.589   3.801  4.9262 -1.3123  0.3447
  432MOL0     H59574   5.992   9.751   4.041 -0.0293  0.2278 -0.2919
  432MOL0     H59575   5.907  10.016   4.248  1.0425  0.7047  1.7607
  432MOL0     H59576   6.032   9.948   4.144  2.2202 -0.7317  0.8971
  432MOL0     H59577   6.039   9.918   4.320 -0.2570 -0.9404 -0.5603
  432MOL0     H59578   5.521   9.688   4.688  1.0791 -1.8049  0.4429
  432MOL0     H59579   5.445   9.808   4.906  1.2260  0.1459 -0.0285
  432MOL0     H59580   5.292   9.933   4.971  2.6601 -2.9684  1.6701
  432MOL0     H59581   5.353  10.006   5.114  0.1732  1.3115  0.3866
  432MOL0     H59582   5.335  10.237   5.018 -1.4842  2.3476 -0.2112
  432MOL0     H59583   5.225  10.184   4.894  1.4870 -0.3196  0.5916
  432MOL0     H59584   5.141  10.122   5.179  1.1856  0.7623  1.2127
  432MOL0     H59585   5.070  10.119   5.013 -0.4077  2.4668 -2.2240
  432MOL0     H59586   5.064  10.353   4.997  1.9472 -4.6455 -2.9808
  432MOL0     H59587   5.189  10.390   5.103  0.1398 -1.1766 -1.1437
  432MOL0     H59588   4.903  10.261   5.174 -1.6446 -1.0782  2.5141
  432MOL0     H59589   5.030  10.294   5.294 -2.7331 -1.1592  0.2842
  432MOL0     H59590   4.918  10.518   5.133  1.5925 -3.0128 -2.2126
  432MOL0     H59591   5.011  10.527   5.278 -1.2935  0.0480  1.1449
  432MOL0     H59592   4.838  10.398   5.407  0.5296  0.2683 -0.5302
  432MOL0     H59593   4.734  10.414   5.250 -0.9593 -1.3720  0.3146
  432MOL0     H59594   4.852  10.632   5.414 -0.4744  2.0771 -1.4028
  432MOL0     H59595   4.688  10.568   5.436 -0.1284  3.0531 -0.1774
  432MOL0     H59596   5.590  10.173   4.779 -0.9824  0.9433  1.6404
  432MOL0     H59597   5.634  10.093   4.554 -4.6534 -0.6796 -2.4477
  432MOL0     H59598   5.618   9.637   4.343  0.2748 -0.5464 -0.3247
  432MOL0     H59599   5.633   9.531   4.157 -0.7782  0.9357  0.4897
  432MOL0     H59600   6.468   9.901   2.788 -1.2852 -2.5230  3.4685
  432MOL0     H59601   6.735   9.898   2.807  0.1500 -0.0429  0.8075
  432MOL0     H59602   7.092  10.094   2.961  0.6273 -0.1701 -0.2193
  432MOL0     H59603   7.320  10.178   3.044  0.0488  1.7810  3.8908
  432MOL0     H59604   7.528  10.261   3.188 -3.8286  0.0743 -1.7680
  432MOL0     H59605   7.383  10.286   3.236 -0.1848 -0.2527 -1.5019
  432MOL0     H59606   7.531  10.367   3.422 -0.8241  0.6955 -2.8435
  432MOL0     H59607   7.617  10.211   3.410  0.7370  0.4815 -0.3797
  432MOL0     H59608   7.319  10.253   3.493  0.5035  1.2390  2.7871
  432MOL0     H59609   7.414  10.102   3.510 -4.3111 -0.0864 -4.7544
  432MOL0     H59610   7.392  10.214   3.741 -4.1620  2.6159 -0.6701
  432MOL0     H59611   7.440  10.366   3.675 -1.1102 -0.4125  1.1645
  432MOL0     H59612   7.799  10.153   3.766  0.2903 -0.9389 -0.3151
  432MOL0     H59613   7.341   9.888   3.336  0.4071  0.4126 -1.3338
  432MOL0     H59614   7.066   9.693   3.264 -1.4639  0.4149  0.2146
  432MOL0     H59615   7.141   9.757   3.407 -0.6252  1.9713  1.3193
  432MOL0     H59616   6.991   9.816   3.373  0.0502 -0.0391  0.7342
  433MOL0     O59617   6.213   6.057   5.683  0.5300  0.0801 -0.1978
  433MOL0     C59618   6.143   6.058   5.779 -0.6894 -0.0720  0.7079
  433MOL0     O59619   6.002   6.053   5.768  0.7334 -0.2270  0.2687
  433MOL0     C59620   5.943   6.047   5.640 -0.7983 -0.5340 -0.2903
  433MOL0     C59621   5.879   5.932   5.597  0.4126  0.9031  0.2803
  433MOL0     C59622   5.824   5.933   5.472 -0.2577 -0.3974 -0.0083
  433MOL0     C59623   5.822   6.043   5.387 -0.6365  0.6963 -1.4086
  433MOL0     O59624   5.749   6.032   5.272  0.0116  0.1923 -0.4528
  433MOL0     C59625   5.789   6.141   5.184  0.7098  0.9363  0.3427
  433MOL0     C59626   5.785   6.090   5.033 -0.7870  0.0929 -0.3419
  433MOL0     C59627   5.879   5.981   5.001 -0.4658  0.6661 -0.3265
  433MOL0     C59628   5.854   5.921   4.863  0.2263 -0.1205 -0.2625
  433MOL0     C59629   5.963   5.826   4.827 -0.3695 -0.2304 -0.6935
  433MOL0     C59630   5.912   5.770   4.697  0.4474 -0.2282  1.0736
  433MOL0     C59631   6.014   5.704   4.603  0.3173 -0.3085  0.6593
  433MOL0     C59632   6.114   5.600   4.672  0.7931  0.9316 -0.0195
  433MOL0     N59633   6.049   5.476   4.740  0.5478 -0.7943  0.7567
  433MOL0     C59634   6.018   5.361   4.663 -0.9779 -0.4802  0.0631
  433MOL0     C59635   5.926   5.307   4.740  1.0186 -0.4537  0.4186
  433MOL0     C59636   5.882   5.168   4.714  0.3613 -0.0636  0.4784
  433MOL0     C59637   5.947   5.067   4.812 -0.1599  0.5695  0.8016
  433MOL0     C59638   5.909   4.922   4.765  0.6104  0.0934  0.1556
  433MOL0     C59639   5.914   4.832   4.879  0.5839 -0.1186 -0.1766
  433MOL0     O59640   5.896   4.697   4.836 -1.1069 -0.8000  0.3202
  433MOL0     C59641   5.845   4.621   4.935  0.2178  0.7488 -0.2019
  433MOL0     C59642   5.902   4.618   5.067 -1.1698 -0.5524 -0.4991
  433MOL0     C59643   5.867   4.525   5.157 -0.3618  1.2782  0.1852
  433MOL0     C59644   5.933   4.547   5.295 -0.0755  0.5261  0.0507
  433MOL0     C59645   5.765   4.425   5.116 -0.2124  0.1032 -0.1943
  433MOL0     C59646   5.712   4.334   5.221 -0.5352 -0.0857 -1.5262
  433MOL0     O59647   5.765   4.345   5.346  0.2043  0.7756 -1.0711
  433MOL0     C59648   5.730   4.256   5.448 -0.4170 -0.3561  0.1812
  433MOL0     C59649   5.650   4.135   5.455 -0.7832 -0.1951  0.9890
  433MOL0     C59650   5.611   4.081   5.573  0.6562  1.0647  0.3180
  433MOL0     C59651   5.646   4.139   5.695 -1.3398 -1.1801 -0.5825
  433MOL0     O59652   5.608   4.091   5.817  0.7520 -0.1210 -0.0510
  433MOL0     C59653   5.471   4.078   5.847 -0.1039 -0.0806  0.0547
  433MOL0     C59654   5.456   4.028   5.996  0.0985  0.4904  0.1219
  433MOL0     C59655   5.419   4.146   6.082  0.3296 -1.0035  1.1853
  433MOL0     C59656   5.394   4.102   6.221 -0.0371 -0.3201 -0.4805
  433MOL0     C59657   5.346   4.200   6.324  0.2743  0.0586 -0.0558
  433MOL0     C59658   5.254   4.141   6.437 -0.2486 -0.1458 -0.4027
  433MOL0     C59659   5.338   4.056   6.544 -1.0538 -0.1953  0.5790
  433MOL0     C59660   5.261   3.967   6.632  0.4736  0.0321 -0.0459
  433MOL0    Cl59661   5.366   3.909   6.762  0.6434  0.3596 -0.1609
  433MOL0     C59662   5.720   4.258   5.692  0.4071 -0.8190  0.7607
  433MOL0     C59663   5.766   4.313   5.570  0.1410  0.1394  0.0272
  433MOL0     O59664   5.638   4.246   5.184  0.2349  0.3688 -0.6998
  433MOL0     C59665   5.708   4.431   4.991 -0.0208  0.7713 -0.3494
  433MOL0     C59666   5.750   4.530   4.907  0.2468 -0.2188  0.4795
  433MOL0     N59667   5.909   5.373   4.859 -0.1856  0.0631  0.0302
  433MOL0     N59668   5.980   5.475   4.855 -0.4353 -0.2054  0.2822
  433MOL0     C59669   5.883   6.163   5.434 -1.1996 -0.5898 -0.4665
  433MOL0     C59670   5.953   6.159   5.558 -0.2495 -0.0280 -0.0829
  433MOL0     C59671   6.206   6.040   5.906  0.1831  1.5090  0.3203
  433MOL0     C59672   6.130   5.975   6.007 -0.0800  0.2122  0.3190
  433MOL0     C59673   6.186   5.939   6.130 -0.5808 -1.5650 -0.8949
  433MOL0     C59674   6.320   5.953   6.153  0.4760 -0.5582 -0.4359
  433MOL0     O59675   6.369   5.899   6.270 -0.4154 -0.5666 -0.2480
  433MOL0     C59676   6.502   5.938   6.309  0.0327 -0.2150  0.2273
  433MOL0     C59677   6.554   5.911   6.446  1.5039  0.3087 -0.5484
  433MOL0     C59678   6.463   5.810   6.530 -0.4819 -0.9760  1.0733
  433MOL0     C59679   6.514   5.772   6.673  0.7060 -0.3281  0.0861
  433MOL0     C59680   6.447   5.648   6.724  0.7180 -0.0386 -0.6829
  433MOL0     C59681   6.392   5.552   6.756  0.1366  0.3051 -0.8350
  433MOL0     C59682   6.401   6.011   6.055 -0.0913 -0.0909  0.0015
  433MOL0     C59683   6.350   6.066   5.935  1.6809  0.4493 -0.1833
  433MOL0     C59684   6.439   6.135   5.836  0.8872 -1.1183 -0.1445
  433MOL0     H59685   5.876   5.845   5.662 -1.2765  0.6403 -0.1061
  433MOL0     H59686   5.774   5.846   5.428 -3.3568  0.6053  1.2624
  433MOL0     H59687   5.892   6.175   5.201  1.7615  0.0895 -3.3855
  433MOL0     H59688   5.718   6.223   5.200 -0.0885  0.0375  1.6082
  433MOL0     H59689   5.683   6.062   5.006 -0.2762 -1.7797 -0.4210
  433MOL0     H59690   5.798   6.179   4.971  1.7306 -1.0812 -1.6037
  433MOL0     H59691   5.984   6.009   4.996 -0.0917 -0.8877 -3.2196
  433MOL0     H59692   5.874   5.903   5.078  1.8685  1.2895  0.5158
  433MOL0     H59693   5.758   5.871   4.850 -0.9683  1.2701  2.4639
  433MOL0     H59694   5.849   6.001   4.788 -2.0390 -3.3883 -4.0271
  433MOL0     H59695   5.960   5.748   4.903 -2.7415 -0.5829 -1.0663
  433MOL0     H59696   6.064   5.867   4.812 -0.0967 -0.3800  0.6163
  433MOL0     H59697   5.829   5.700   4.710  1.3408 -1.1179  2.2024
  433MOL0     H59698   5.862   5.842   4.631 -0.9590 -0.1070  2.2387
  433MOL0     H59699   6.075   5.784   4.559  1.4709 -0.3825  2.0503
  433MOL0     H59700   5.966   5.654   4.519  2.0564 -0.9135 -0.0212
  433MOL0     H59701   6.189   5.550   4.610 -1.0653 -0.9748 -0.8585
  433MOL0     H59702   6.178   5.643   4.749 -2.7663  2.0197  2.5791
  433MOL0     H59703   6.074   5.312   4.584  1.1520 -0.9639  1.7796
  433MOL0     H59704   5.911   5.144   4.611 -0.1904  0.6846  0.1413
  433MOL0     H59705   5.772   5.164   4.713  0.3641 -0.1626 -0.1966
  433MOL0     H59706   6.056   5.072   4.816  0.1782 -1.0886 -2.4957
  433MOL0     H59707   5.921   5.088   4.916 -0.0374  0.7431  0.7995
  433MOL0     H59708   5.807   4.917   4.725  0.8565 -0.0156 -0.4659
  433MOL0     H59709   5.979   4.891   4.687  2.4215 -0.1379  1.8015
  433MOL0     H59710   6.008   4.833   4.936  0.6982  1.0645 -0.3571
  433MOL0     H59711   5.838   4.863   4.952 -1.3051 -0.4836 -1.9139
  433MOL0     H59712   5.977   4.694   5.085 -2.3890  1.0292 -1.7856
  433MOL0     H59713   5.993   4.456   5.304 -2.4518 -1.6410 -3.2350
  433MOL0     H59714   5.878   4.553   5.389  1.7554 -2.0404  1.4238
  433MOL0     H59715   5.991   4.639   5.291  1.3653 -0.3365  0.3633
  433MOL0     H59716   5.619   4.083   5.364  1.1432 -0.4079  0.4147
  433MOL0     H59717   5.565   3.983   5.560 -1.4049  1.7877  1.5956
  433MOL0     H59718   5.420   4.172   5.826  0.7299  0.1148 -1.2462
  433MOL0     H59719   5.438   4.003   5.775 -1.8563  0.0981  0.6434
  433MOL0     H59720   5.373   3.958   6.006 -1.4829  2.4561  1.6456
  433MOL0     H59721   5.552   3.985   6.025  0.2280  1.2336  0.8468
  433MOL0     H59722   5.329   4.197   6.046  0.6144 -1.1942  0.1836
  433MOL0     H59723   5.501   4.218   6.081 -0.2872 -0.1857 -2.1977
  433MOL0     H59724   5.487   4.055   6.256  0.4404 -1.8782 -3.4920
  433MOL0     H59725   5.323   4.020   6.215 -2.6365  1.9146 -2.6133
  433MOL0     H59726   5.426   4.262   6.363  1.0627  0.1341 -1.7126
  433MOL0     H59727   5.289   4.268   6.260  2.1860  0.1299 -1.7828
  433MOL0     H59728   5.180   4.075   6.392  1.4121 -1.5815 -1.1393
  433MOL0     H59729   5.201   4.222   6.488 -4.7686 -1.0679 -3.0619
  433MOL0     H59730   5.395   4.123   6.609  0.2408  1.3582 -2.0049
  433MOL0     H59731   5.414   4.004   6.485  1.7058  3.7515  0.3281
  433MOL0     H59732   5.228   3.877   6.579  1.2126 -0.8426  0.9287
  433MOL0     H59733   5.182   4.026   6.681  2.0936  2.0504  0.2454
  433MOL0     H59734   5.713   4.299   5.792 -0.6427  1.9081 -0.3274
  433MOL0     H59735   5.807   4.413   5.585 -0.7559  0.4467  0.5519
  433MOL0     H59736   5.630   4.358   4.972 -1.0155  1.3186  1.4241
  433MOL0     H59737   5.694   4.548   4.817  0.5532  1.9711  0.6617
  433MOL0     H59738   5.892   6.259   5.383  1.7108 -0.2738  0.4386
  433MOL0     H59739   6.006   6.250   5.584  0.1838 -0.6912  1.4532
  433MOL0     H59740   6.029   5.947   5.980  1.0547 -1.5746 -2.5960
  433MOL0     H59741   6.133   5.884   6.206  2.8131 -4.1572 -0.1629
  433MOL0     H59742   6.566   5.894   6.232  0.4525 -1.8618  1.4588
  433MOL0     H59743   6.512   6.046   6.291  2.2431 -0.2526  0.9466
  433MOL0     H59744   6.557   6.001   6.508  1.4335 -1.4050  2.0756
  433MOL0     H59745   6.661   5.890   6.434  1.5921  0.8985 -0.8742
  433MOL0     H59746   6.360   5.838   6.553 -0.1672  0.0068  1.3389
  433MOL0     H59747   6.466   5.718   6.471 -0.5691  0.6581 -1.6988
  433MOL0     H59748   6.496   5.851   6.745 -0.4237 -0.9107  0.4796
  433MOL0     H59749   6.621   5.754   6.668  0.7559 -0.6477  1.8432
  433MOL0     H59750   6.356   5.455   6.784  0.1882 -0.2389 -2.5362
  433MOL0     H59751   6.508   6.016   6.075 -0.5486  0.4275  2.7869
  433MOL0     H59752   6.405   6.235   5.808  0.7750 -0.9876  0.4413
  433MOL0     H59753   6.531   6.159   5.891  1.4796 -1.3277 -1.0230
  433MOL0     H59754   6.476   6.061   5.765  2.1717  0.6603 -1.3977
  434MOL0     O59755  10.933   4.196   0.398  0.3730  0.7108 -0.0155
  434MOL0     C59756  11.035   4.157   0.351  0.4170  0.1437 -0.0976
  434MOL0     O59757  11.105   4.055   0.415  0.0000  0.3249  0.7581
  434MOL0     C59758  11.050   3.997   0.526 -0.0565 -0.3461  0.2043
  434MOL0     C59759  11.074   4.057   0.651  0.1593 -0.3946 -0.0726
  434MOL0     C59760  11.050   3.979   0.765  0.0749  1.1548 -0.4617
  434MOL0     C59761  10.988   3.852   0.753 -0.2355  0.4730 -0.5685
  434MOL0     O59762  10.921   3.801   0.867 -0.0869 -0.2000 -0.2021
  434MOL0     C59763  10.996   3.700   0.936 -1.0059  0.2300 -0.0690
  434MOL0     C59764  10.964   3.699   1.087 -0.2234  0.1453  0.0736
  434MOL0     C59765  10.816   3.696   1.109  0.0109  0.6960  0.6545
  434MOL0     C59766  10.800   3.646   1.258 -0.1717 -0.0008  0.0827
  434MOL0     C59767  10.650   3.628   1.290  0.1703  0.7658 -0.5038
  434MOL0     C59768  10.597   3.521   1.199  1.0313 -0.2785  0.2872
  434MOL0     C59769  10.448   3.492   1.223 -0.1496  0.4073  0.2291
  434MOL0     C59770  10.378   3.451   1.084 -0.6788  0.1649 -1.2514
  434MOL0     N59771  10.239   3.442   1.093 -1.1844 -0.5874  0.4079
  434MOL0     C59772  10.160   3.552   1.088 -0.1914 -0.0684  0.6226
  434MOL0     C59773  10.035   3.509   1.078 -0.2809 -0.2935 -0.5794
  434MOL0     C59774   9.924   3.598   1.060 -0.2165 -0.1571  0.2306
  434MOL0     C59775   9.868   3.664   1.184 -0.5443  0.1887  1.2165
  434MOL0     C59776   9.781   3.790   1.139  0.0892  0.8945  0.2260
  434MOL0     C59777   9.751   3.874   1.263 -0.5640 -0.3831  0.7592
  434MOL0     O59778   9.662   3.815   1.347  0.1817  0.1130  0.5292
  434MOL0     C59779   9.537   3.876   1.369 -0.2840  0.1086  2.0983
  434MOL0     C59780   9.456   3.933   1.273 -0.5072 -0.0496  0.0605
  434MOL0     C59781   9.334   3.998   1.312 -0.2252 -0.4023 -0.8585
  434MOL0     C59782   9.255   4.067   1.195  0.9072 -0.4430 -1.0785
  434MOL0     C59783   9.298   4.010   1.452  0.5136 -0.5031  0.2244
  434MOL0     C59784   9.182   4.091   1.507 -0.3145  0.1486  0.8698
  434MOL0     O59785   9.195   4.143   1.629 -0.4331  0.3323  0.3805
  434MOL0     C59786   9.091   4.217   1.675 -0.0498  0.1562 -0.6761
  434MOL0     C59787   8.976   4.156   1.735 -0.4909 -0.5416 -0.0302
  434MOL0     C59788   8.867   4.235   1.773  0.3764 -0.2375  0.5024
  434MOL0     C59789   8.868   4.374   1.758 -0.6173 -0.1429  0.6648
  434MOL0     O59790   8.760   4.453   1.780 -0.3534 -0.6978 -0.0361
  434MOL0     C59791   8.633   4.393   1.742 -0.2019  0.1965 -0.1450
  434MOL0     C59792   8.531   4.512   1.731 -0.5127 -0.4707 -0.4213
  434MOL0     C59793   8.388   4.460   1.720 -0.4884  0.6557  0.1616
  434MOL0     C59794   8.347   4.409   1.581  0.4326 -0.0176 -0.8511
  434MOL0     C59795   8.194   4.382   1.561 -0.6498  0.0121  0.2416
  434MOL0     C59796   8.166   4.310   1.430  1.1044 -0.5666 -1.3143
  434MOL0     C59797   8.246   4.177   1.404  0.5865  0.1659 -0.4930
  434MOL0     C59798   8.141   4.077   1.339  0.3357  0.1764 -0.0376
  434MOL0    Cl59799   8.065   4.140   1.199 -0.1206  0.5701 -0.0325
  434MOL0     C59800   8.973   4.428   1.696  0.1321 -0.3768  1.2066
  434MOL0     C59801   9.091   4.355   1.664 -0.3181  0.5216 -0.8007
  434MOL0     O59802   9.077   4.095   1.441 -0.0458  0.4882 -0.6235
  434MOL0     C59803   9.383   3.947   1.541  0.3335 -0.0600 -0.7171
  434MOL0     C59804   9.495   3.885   1.493 -0.3674 -0.0093  0.3739
  434MOL0     N59805  10.031   3.371   1.079  0.3635 -1.0472  0.4462
  434MOL0     N59806  10.156   3.335   1.095 -0.2665  0.8349 -0.1622
  434MOL0     C59807  10.960   3.800   0.632 -0.2373  0.4819 -0.2221
  434MOL0     C59808  10.996   3.870   0.519 -0.7238  0.0626 -0.0640
  434MOL0     C59809  11.074   4.196   0.212  0.7908 -0.3375 -0.3341
  434MOL0     C59810  11.116   4.095   0.121  0.2786 -0.4644 -0.6449
  434MOL0     C59811  11.148   4.119  -0.013  0.0163  0.2603 -0.6860
  434MOL0     C59812  11.142   4.253  -0.072 -0.7033  0.3878  0.2807
  434MOL0     O59813  11.161   4.282  -0.211 -0.3576  0.3486 -0.1554
  434MOL0     C59814  11.090   4.203  -0.303  0.6718 -0.5034 -0.2101
  434MOL0     C59815  11.168   4.084  -0.371  0.6050 -0.1361  0.2387
  434MOL0     C59816  11.084   4.033  -0.493  0.3345 -0.8295  0.5539
  434MOL0     C59817  11.159   3.924  -0.574 -0.2931 -0.2458  0.3329
  434MOL0     C59818  11.261   3.988  -0.644 -0.4796 -0.1235  0.4169
  434MOL0     C59819  11.352   4.039  -0.702 -0.3381  0.9230 -0.6954
  434MOL0     C59820  11.106   4.351   0.021 -0.7828  0.2665  0.1590
  434MOL0     C59821  11.068   4.331   0.154  1.1996  0.3430  0.5404
  434MOL0     C59822  10.982   4.447   0.208 -0.2544 -0.3529  0.1880
  434MOL0     H59823  11.121   4.154   0.664  1.2545 -0.2828 -3.7126
  434MOL0     H59824  11.067   4.013   0.867  2.0952  1.0118 -0.7175
  434MOL0     H59825  11.101   3.706   0.907 -0.6664 -2.0395  0.4933
  434MOL0     H59826  10.963   3.599   0.909 -1.8211  0.4470  0.0988
  434MOL0     H59827  10.999   3.601   1.121 -0.1217 -0.0050 -0.4537
  434MOL0     H59828  11.009   3.783   1.140  0.8608  1.0968 -2.1860
  434MOL0     H59829  10.759   3.785   1.080  3.2939  1.9122 -3.1497
  434MOL0     H59830  10.790   3.620   1.035  0.4894  1.7688 -0.6725
  434MOL0     H59831  10.851   3.551   1.278  2.5417  0.8931 -2.0373
  434MOL0     H59832  10.835   3.726   1.324 -1.9213 -0.4684  1.6819
  434MOL0     H59833  10.591   3.719   1.291 -0.3304  0.4516 -0.9227
  434MOL0     H59834  10.646   3.587   1.392  2.0329  1.8396  0.0539
  434MOL0     H59835  10.596   3.566   1.099 -4.1670  1.3532  0.7467
  434MOL0     H59836  10.664   3.436   1.195  0.1492 -1.0251 -4.5305
  434MOL0     H59837  10.398   3.578   1.267 -1.5085  0.3626 -1.1496
  434MOL0     H59838  10.451   3.413   1.300  0.5568  1.0419  0.8666
  434MOL0     H59839  10.399   3.518   1.000  0.6688  1.3024 -0.0699
  434MOL0     H59840  10.431   3.359   1.056 -0.2458 -0.3715  1.1140
  434MOL0     H59841  10.197   3.652   1.069 -1.7909  0.0910 -2.2384
  434MOL0     H59842   9.845   3.534   1.019  2.3045 -4.1559  1.0794
  434MOL0     H59843   9.962   3.670   0.987 -1.5313 -0.9597 -1.3243
  434MOL0     H59844   9.823   3.593   1.254 -0.1310  0.3075  1.6051
  434MOL0     H59845   9.958   3.703   1.232  0.0066 -0.0311  0.3855
  434MOL0     H59846   9.827   3.854   1.063  0.2929  0.7317  0.2112
  434MOL0     H59847   9.681   3.760   1.105 -0.6005  4.1385 -1.0735
  434MOL0     H59848   9.847   3.883   1.314  2.0011 -2.9520 -3.0342
  434MOL0     H59849   9.715   3.973   1.233 -0.2650 -1.1868 -2.7261
  434MOL0     H59850   9.498   3.944   1.174  0.3813  1.5377  0.5825
  434MOL0     H59851   9.254   4.006   1.104  1.1842 -1.0725 -0.6629
  434MOL0     H59852   9.308   4.157   1.162 -0.3398 -0.1649 -2.4493
  434MOL0     H59853   9.151   4.092   1.218  0.3849 -1.1663 -2.4934
  434MOL0     H59854   8.986   4.048   1.742  0.5673 -0.4891 -0.5575
  434MOL0     H59855   8.775   4.191   1.812 -1.2792  2.6976  0.2352
  434MOL0     H59856   8.655   4.343   1.647 -1.4205  1.1470 -0.9635
  434MOL0     H59857   8.602   4.321   1.818 -0.5800 -0.1026 -0.5723
  434MOL0     H59858   8.553   4.583   1.811  2.0097 -1.1082 -0.4556
  434MOL0     H59859   8.557   4.560   1.635 -0.6878 -3.0395 -1.8375
  434MOL0     H59860   8.318   4.533   1.763 -2.7413 -2.4540  2.2305
  434MOL0     H59861   8.395   4.371   1.783  4.8779  0.1417 -0.7144
  434MOL0     H59862   8.395   4.313   1.561  1.3671  0.3133 -0.2331
  434MOL0     H59863   8.389   4.482   1.511  4.4326 -1.1475  0.1259
  434MOL0     H59864   8.153   4.319   1.641  0.7839 -0.8031  0.3549
  434MOL0     H59865   8.137   4.475   1.563 -1.7348 -0.6200  2.0460
  434MOL0     H59866   8.176   4.378   1.345 -0.5330 -0.6210 -1.5856
  434MOL0     H59867   8.060   4.280   1.433  0.5530  1.3319  0.8509
  434MOL0     H59868   8.293   4.126   1.489 -1.5793 -2.1371 -0.5503
  434MOL0     H59869   8.323   4.195   1.328 -0.5733  0.1808 -1.6816
  434MOL0     H59870   8.066   4.040   1.409  1.1282  0.8406  1.2089
  434MOL0     H59871   8.190   3.988   1.298  1.4346  0.5395  0.4466
  434MOL0     H59872   8.969   4.532   1.665 -3.0265 -1.1025 -1.2833
  434MOL0     H59873   9.172   4.402   1.608  0.4230 -0.0951 -0.2584
  434MOL0     H59874   9.359   3.929   1.645 -2.5485 -2.4014 -1.6191
  434MOL0     H59875   9.556   3.826   1.561  0.1602 -1.6647 -1.4579
  434MOL0     H59876  10.911   3.705   0.615  0.4467  0.2207 -0.8192
  434MOL0     H59877  10.967   3.823   0.425 -1.1240  1.9368 -0.9086
  434MOL0     H59878  11.117   3.994   0.159  2.2687  0.4125  1.9016
  434MOL0     H59879  11.178   4.032  -0.070  3.0459  0.7175  0.0113
  434MOL0     H59880  11.000   4.178  -0.245  1.6448 -2.0050  0.7529
  434MOL0     H59881  11.062   4.266  -0.388 -1.0205 -1.1923 -0.1989
  434MOL0     H59882  11.172   4.005  -0.296  2.9842  1.1061  1.5264
  434MOL0     H59883  11.266   4.121  -0.402  0.4318  1.8142  1.8051
  434MOL0     H59884  10.989   3.992  -0.459 -2.7698  1.5228 -4.0748
  434MOL0     H59885  11.060   4.116  -0.561  1.8045 -0.5374  0.3451
  434MOL0     H59886  11.095   3.898  -0.658 -0.7028  1.4646  0.0869
  434MOL0     H59887  11.175   3.842  -0.504 -1.4908 -4.2867 -3.6657
  434MOL0     H59888  11.451   4.063  -0.737  1.1779 -1.5518  1.5239
  434MOL0     H59889  11.105   4.457  -0.004 -3.4008  1.1397  3.2414
  434MOL0     H59890  11.009   4.476   0.310 -4.0162  2.3437  0.6057
  434MOL0     H59891  10.982   4.539   0.148 -1.5858 -0.0756  0.5873
  434MOL0     H59892  10.882   4.404   0.203  0.2630 -2.0842  2.6755
  435MOL0     O59893   1.200   8.791   6.886 -0.4164  0.0528  0.2122
  435MOL0     C59894   1.092   8.740   6.911  0.2324 -0.1994 -0.2090
  435MOL0     O59895   1.061   8.662   7.021  0.4332 -0.0940 -0.4050
  435MOL0     C59896   1.153   8.624   7.112  0.0244  0.6301 -0.0062
  435MOL0     C59897   1.251   8.716   7.154  0.0745 -0.0045 -0.5805
  435MOL0     C59898   1.342   8.678   7.251 -0.4610  0.6059  0.1919
  435MOL0     C59899   1.338   8.549   7.310  0.4657 -0.5644 -0.3247
  435MOL0     O59900   1.443   8.521   7.406 -0.1964 -0.2883  0.1026
  435MOL0     C59901   1.458   8.385   7.458 -0.9580 -0.2930  0.9461
  435MOL0     C59902   1.555   8.369   7.566  0.1261 -0.7460  0.5586
  435MOL0     C59903   1.697   8.440   7.556 -0.2524 -0.7711  0.9715
  435MOL0     C59904   1.773   8.425   7.427  0.5745 -0.1513 -1.4116
  435MOL0     C59905   1.922   8.452   7.432 -0.4592 -0.7711 -0.3336
  435MOL0     C59906   1.985   8.455   7.293 -0.9164 -0.9907 -0.4808
  435MOL0     C59907   2.132   8.502   7.298 -1.0217 -0.1834 -0.7466
  435MOL0     C59908   2.156   8.638   7.247  0.0603 -0.2467 -0.1932
  435MOL0     N59909   2.287   8.681   7.284 -0.9893  0.1713  0.6398
  435MOL0     C59910   2.349   8.707   7.406 -0.5501 -0.7767 -0.2516
  435MOL0     C59911   2.476   8.742   7.383 -0.9654  0.3511  0.7077
  435MOL0     C59912   2.584   8.777   7.480  0.1962  0.6444  0.3537
  435MOL0     C59913   2.625   8.921   7.462  0.0479  0.1049 -0.1128
  435MOL0     C59914   2.574   9.016   7.569 -0.2118  0.0990  0.2252
  435MOL0     C59915   2.428   9.075   7.528  0.0506  0.1069 -1.4565
  435MOL0     O59916   2.394   9.180   7.619  0.3211 -0.3854  0.1404
  435MOL0     C59917   2.271   9.237   7.621  0.0802  0.2651  0.1604
  435MOL0     C59918   2.224   9.300   7.739  0.2752  0.0781  0.0900
  435MOL0     C59919   2.105   9.369   7.754  0.4870  0.2660  0.4196
  435MOL0     C59920   2.089   9.434   7.883  0.5556 -0.5538 -0.0484
  435MOL0     C59921   2.010   9.369   7.651  0.3927  0.9036  0.6575
  435MOL0     C59922   1.873   9.419   7.667 -0.7096 -0.2891  0.0048
  435MOL0     O59923   1.788   9.339   7.583 -0.1943 -0.3759 -0.0497
  435MOL0     C59924   1.659   9.390   7.568 -0.0929 -0.0672 -0.4226
  435MOL0     C59925   1.627   9.432   7.438  0.8074 -0.3633  0.2452
  435MOL0     C59926   1.495   9.477   7.415 -0.5497 -0.8012 -0.3865
  435MOL0     C59927   1.395   9.478   7.511  0.3754  1.0703 -0.1772
  435MOL0     O59928   1.261   9.515   7.488  0.2121  0.4806 -0.4999
  435MOL0     C59929   1.226   9.597   7.378 -0.3526 -0.2770  0.1425
  435MOL0     C59930   1.086   9.658   7.385 -0.2732  0.3345 -0.8466
  435MOL0     C59931   0.967   9.553   7.401 -0.3344 -0.0877 -0.5197
  435MOL0     C59932   0.932   9.520   7.545 -0.4420  0.0404 -0.4693
  435MOL0     C59933   0.815   9.414   7.543 -0.3927  0.1954 -1.1227
  435MOL0     C59934   0.783   9.345   7.675  0.5504 -0.5704 -0.2091
  435MOL0     C59935   0.667   9.244   7.669  0.3043 -1.0927  0.3420
  435MOL0     C59936   0.662   9.162   7.799 -0.1676 -0.5200  0.1709
  435MOL0    Cl59937   0.524   9.046   7.802  0.4050 -0.4173 -0.3402
  435MOL0     C59938   1.429   9.433   7.641 -1.0499 -0.0827 -1.0510
  435MOL0     C59939   1.554   9.382   7.660 -1.0322 -0.3506 -0.6512
  435MOL0     O59940   1.840   9.518   7.726 -0.4792 -0.8189  0.4870
  435MOL0     C59941   2.047   9.307   7.528  0.1189  1.3927 -0.6011
  435MOL0     C59942   2.171   9.247   7.515 -0.7033  0.6673 -0.1635
  435MOL0     N59943   2.486   8.747   7.245  0.1940 -0.2873  0.0125
  435MOL0     N59944   2.379   8.712   7.184  0.3923  0.1884 -0.1491
  435MOL0     C59945   1.238   8.465   7.273 -0.1549 -0.1158 -0.1871
  435MOL0     C59946   1.140   8.505   7.179  0.1119 -0.5390  0.4277
  435MOL0     C59947   0.970   8.775   6.839  0.4785 -0.0912 -0.1052
  435MOL0     C59948   0.842   8.801   6.900 -0.1767 -0.4076 -0.1682
  435MOL0     C59949   0.740   8.871   6.833  0.0447 -0.0919 -0.4816
  435MOL0     C59950   0.749   8.902   6.700 -0.2009 -0.5778 -0.2340
  435MOL0     O59951   0.663   8.980   6.636 -0.3738 -0.4956 -0.5436
  435MOL0     C59952   0.694   9.122   6.642 -0.8927 -0.8236  0.7031
  435MOL0     C59953   0.638   9.185   6.775  0.7862  0.3405 -0.2518
  435MOL0     C59954   0.674   9.334   6.772 -0.7555  0.1445  0.4820
  435MOL0     C59955   0.810   9.373   6.835  0.5945  0.0424  0.1119
  435MOL0     C59956   0.835   9.322   6.971  0.5954  0.6814  0.1573
  435MOL0     C59957   0.849   9.285   7.087 -0.3477 -0.3136  0.4623
  435MOL0     C59958   0.864   8.864   6.636  0.5581  1.1244  1.8716
  435MOL0     C59959   0.982   8.808   6.698 -1.0226  0.3305 -0.3325
  435MOL0     C59960   1.110   8.790   6.615  0.4087 -0.8564  0.4254
  435MOL0     H59961   1.265   8.816   7.115 -2.7063  2.2805  3.5525
  435MOL0     H59962   1.420   8.744   7.286 -1.2866  1.3351  0.7047
  435MOL0     H59963   1.484   8.317   7.375  5.1261  2.1361  0.3059
  435MOL0     H59964   1.363   8.352   7.500 -0.6860 -1.0734  0.9629
  435MOL0     H59965   1.522   8.398   7.666 -1.3182  0.7266 -0.3003
  435MOL0     H59966   1.579   8.263   7.552 -0.0335 -0.7564  0.3501
  435MOL0     H59967   1.685   8.547   7.576 -0.4047 -0.4574 -0.6377
  435MOL0     H59968   1.747   8.394   7.641 -2.2843 -2.5704  1.2967
  435MOL0     H59969   1.767   8.321   7.395  4.3204 -0.4755 -1.5384
  435MOL0     H59970   1.725   8.500   7.364 -2.4019 -0.2897  0.5018
  435MOL0     H59971   1.979   8.384   7.496  0.6296  0.6850  0.2964
  435MOL0     H59972   1.925   8.553   7.473 -2.6690 -0.8889  0.3024
  435MOL0     H59973   1.974   8.350   7.264  1.5683 -1.3322 -0.4665
  435MOL0     H59974   1.934   8.513   7.216  0.5056 -1.3908 -1.7939
  435MOL0     H59975   2.195   8.448   7.227 -0.6397 -0.2353 -0.3749
  435MOL0     H59976   2.161   8.496   7.403 -1.0888  4.1831 -0.2851
  435MOL0     H59977   2.135   8.634   7.140 -1.0691  0.2049  0.0068
  435MOL0     H59978   2.092   8.710   7.298 -0.0175  0.8908 -1.8279
  435MOL0     H59979   2.316   8.704   7.509  1.9463  3.6790  0.9673
  435MOL0     H59980   2.673   8.718   7.458  0.0065  1.0663 -1.7285
  435MOL0     H59981   2.541   8.751   7.578 -1.0522  0.9422 -0.0963
  435MOL0     H59982   2.734   8.928   7.470 -0.1706  2.5690  2.7590
  435MOL0     H59983   2.611   8.970   7.365  0.7827 -0.9216 -0.7522
  435MOL0     H59984   2.543   8.972   7.664  3.0898  2.5234  2.6796
  435MOL0     H59985   2.648   9.091   7.600 -1.9508  1.5709  0.9525
  435MOL0     H59986   2.429   9.114   7.426  1.6569  1.5749 -0.9363
  435MOL0     H59987   2.347   9.001   7.531 -0.2054  0.4184 -0.3981
  435MOL0     H59988   2.277   9.291   7.833  0.9580  0.0212 -0.2859
  435MOL0     H59989   2.088   9.542   7.864 -3.7762 -0.8838 -3.3682
  435MOL0     H59990   2.164   9.415   7.961  0.5996 -2.4365 -0.5181
  435MOL0     H59991   1.989   9.409   7.920  0.7367 -1.8449 -0.3947
  435MOL0     H59992   1.708   9.431   7.366 -0.1461 -2.1972 -0.8789
  435MOL0     H59993   1.487   9.524   7.317 -0.9197  0.0925  0.0653
  435MOL0     H59994   1.291   9.684   7.367  0.2852 -0.9429 -1.7759
  435MOL0     H59995   1.240   9.545   7.283  0.0394  1.4858 -0.7871
  435MOL0     H59996   1.083   9.725   7.472 -1.5885 -0.3963 -0.2927
  435MOL0     H59997   1.072   9.722   7.298 -2.1213 -0.8388 -1.4606
  435MOL0     H59998   0.984   9.458   7.350 -0.1895  0.1230 -0.8718
  435MOL0     H59999   0.872   9.602   7.378 -0.4997  0.4912  1.2084
  435MOL0     H60000   0.897   9.607   7.601 -1.6139 -0.6678 -0.0417
  435MOL0     H60001   1.014   9.464   7.590 -0.2634  0.9176  0.3183
  435MOL0     H60002   0.727   9.478   7.531 -0.3309  0.7900  1.0729
  435MOL0     H60003   0.818   9.344   7.459  0.9360 -1.3917  0.1816
  435MOL0     H60004   0.750   9.424   7.743 -2.3697 -2.0133  0.2192
  435MOL0     H60005   0.876   9.298   7.708 -0.7054 -4.3781 -1.5145
  435MOL0     H60006   0.684   9.187   7.578 -2.4267  2.2483 -2.5408
  435MOL0     H60007   0.566   9.281   7.648 -0.4337 -4.0525 -1.9798
  435MOL0     H60008   0.636   9.234   7.877  0.5374 -0.2315  0.1489
  435MOL0     H60009   0.761   9.115   7.808  0.9728  1.5222 -0.9949
  435MOL0     H60010   1.354   9.423   7.718 -1.0629  3.7461 -0.3791
  435MOL0     H60011   1.586   9.344   7.756 -2.6262  0.5866  0.2886
  435MOL0     H60012   1.987   9.303   7.437  0.0988 -1.3575 -0.5435
  435MOL0     H60013   2.197   9.199   7.422  0.0573 -0.2042  0.4812
  435MOL0     H60014   1.235   8.363   7.310  1.5746  0.4890  1.7796
  435MOL0     H60015   1.057   8.441   7.151  0.2698 -0.4813 -0.1992
  435MOL0     H60016   0.843   8.784   7.007 -1.1702 -2.7564 -0.4860
  435MOL0     H60017   0.658   8.908   6.894 -0.2932 -0.0529 -0.9603
  435MOL0     H60018   0.803   9.133   6.638 -1.0997  1.4676  0.2794
  435MOL0     H60019   0.651   9.181   6.561 -2.6365 -0.5637  1.7798
  435MOL0     H60020   0.670   9.132   6.865  1.7111 -0.2981 -0.9428
  435MOL0     H60021   0.529   9.179   6.766  0.9339 -3.9692 -1.2584
  435MOL0     H60022   0.675   9.364   6.667 -0.4821  0.5240  0.5903
  435MOL0     H60023   0.599   9.389   6.830  1.3346  1.6351  1.9536
  435MOL0     H60024   0.824   9.481   6.843  3.3532 -0.2414  0.2955
  435MOL0     H60025   0.888   9.336   6.768  0.2371  0.4475 -0.5348
  435MOL0     H60026   0.876   9.259   7.188  2.3802  2.9288  0.7624
  435MOL0     H60027   0.865   8.903   6.535 -2.3026 -1.3907  0.7083
  435MOL0     H60028   1.159   8.888   6.612  3.3572 -2.2261 -0.8335
  435MOL0     H60029   1.190   8.723   6.651  1.6749  1.0955  1.4000
  435MOL0     H60030   1.091   8.763   6.511 -0.9211  0.9026  0.1749
  436MOL0     O60031   8.027  10.704  10.560 -0.4257  0.2801 -0.4439
  436MOL0     C60032   8.081  10.759  10.656 -0.0737  0.3353  0.6038
  436MOL0     O60033   8.125  10.893  10.660 -0.2917  0.4498 -0.2578
  436MOL0     C60034   8.123  10.974  10.546 -0.4504 -0.4140 -0.1715
  436MOL0     C60035   8.230  11.061  10.546 -0.2344 -0.6542 -0.1455
  436MOL0     C60036   8.255  11.146  10.436 -0.5997  0.0473 -0.4624
  436MOL0     C60037   8.165  11.134  10.328 -0.0990 -0.0092  0.8063
  436MOL0     O60038   8.175  11.198  10.207  0.1523 -0.5663  0.5447
  436MOL0     C60039   8.121  11.336  10.211 -0.1375  0.4798  0.0302
  436MOL0     C60040   8.191  11.413  10.094 -0.9306 -0.1698 -0.9873
  436MOL0     C60041   8.206  11.338   9.963 -0.6400  0.1144  0.2220
  436MOL0     C60042   8.280  11.421   9.865  0.4901  0.0939  0.5126
  436MOL0     C60043   8.441  11.423   9.876 -0.6139 -0.2975  0.3800
  436MOL0     C60044   8.515  11.289   9.848 -0.3473 -0.3713 -0.3006
  436MOL0     C60045   8.465  11.206   9.732  0.6038 -0.5088  0.3336
  436MOL0     C60046   8.525  11.058   9.746  0.0819  0.2074  0.8424
  436MOL0     N60047   8.671  11.045   9.714  0.6469  0.1473  0.3585
  436MOL0     C60048   8.738  11.098   9.607  0.8189 -0.1803  0.1041
  436MOL0     C60049   8.869  11.066   9.636  0.6107 -0.1372 -0.3625
  436MOL0     C60050   8.978  11.112   9.545 -0.2898  0.5516  0.2874
  436MOL0     C60051   9.066  11.209   9.622 -0.0448 -0.5283 -1.0622
  436MOL0     C60052   9.209  11.166   9.591 -1.2771  0.2444  0.1606
  436MOL0     C60053   9.295  11.291   9.590  0.4183 -0.1575 -0.0746
  436MOL0     O60054   9.431  11.257   9.544 -0.8375 -0.0637  0.5774
  436MOL0     C60055   9.447  11.236   9.405  0.8984  0.0078  0.3542
  436MOL0     C60056   9.359  11.273   9.310 -0.2592  0.8331  0.7174
  436MOL0     C60057   9.370  11.240   9.174  0.3941 -0.3758 -0.3640
  436MOL0     C60058   9.249  11.289   9.087  0.0789  0.0958  0.7467
  436MOL0     C60059   9.487  11.166   9.140  0.6564 -0.8615  0.3877
  436MOL0     C60060   9.516  11.111   9.006  0.3316 -0.3094  0.1254
  436MOL0     O60061   9.638  11.038   9.000  0.3758 -0.5865  1.0885
  436MOL0     C60062   9.660  10.973   8.880  0.0629  1.1345 -0.3238
  436MOL0     C60063   9.720  11.035   8.775  0.5459 -0.5182  0.2085
  436MOL0     C60064   9.752  10.982   8.654 -0.3695 -0.1552 -0.6790
  436MOL0     C60065   9.701  10.856   8.634 -0.6579 -0.7105  0.2340
  436MOL0     O60066   9.719  10.793   8.518 -0.4558 -0.5304 -0.3563
  436MOL0     C60067   9.844  10.795   8.451 -0.1153  0.4786  0.8988
  436MOL0     C60068   9.851  10.669   8.356  0.1212 -0.5382  0.5189
  436MOL0     C60069   9.860  10.537   8.440  0.5595 -0.2441  0.8826
  436MOL0     C60070   9.930  10.422   8.364  1.3655  0.8164 -0.5320
  436MOL0     C60071   9.869  10.281   8.416  0.2771  0.4293  0.6902
  436MOL0     C60072   9.920  10.164   8.328 -0.1403 -1.2820 -0.4774
  436MOL0     C60073   9.860  10.034   8.359 -0.4801  0.7280 -0.2077
  436MOL0     C60074   9.886   9.912   8.274 -0.5273 -0.1913 -0.1546
  436MOL0    Cl60075   9.890   9.962   8.109 -0.0949  0.1017 -0.7350
  436MOL0     C60076   9.635  10.790   8.734  0.8532 -0.2766  0.6770
  436MOL0     C60077   9.603  10.852   8.851 -0.8482 -0.0582 -0.4914
  436MOL0     O60078   9.429  11.114   8.916  0.1069 -0.2670  0.2506
  436MOL0     C60079   9.576  11.122   9.247  0.2163 -0.2815 -0.5476
  436MOL0     C60080   9.564  11.174   9.373  0.2112  0.7667  0.2076
  436MOL0     N60081   8.880  11.004   9.752  0.1711 -0.2999 -0.1014
  436MOL0     N60082   8.760  10.984   9.804 -0.3287  0.8050  0.2278
  436MOL0     C60083   8.069  11.033  10.322  0.5521 -0.5385  0.1521
  436MOL0     C60084   8.038  10.963  10.433 -0.4093 -1.0494  0.5466
  436MOL0     C60085   8.101  10.671  10.772 -0.4359  0.1800  0.7931
  436MOL0     C60086   8.142  10.540  10.746  0.3906  0.7798 -1.3787
  436MOL0     C60087   8.136  10.445  10.856 -1.3998  0.2776 -0.6759
  436MOL0     C60088   8.093  10.477  10.991 -0.1937  0.1529  0.3722
  436MOL0     O60089   8.101  10.371  11.092  0.2447  0.8612 -0.1238
  436MOL0     C60090   8.090  10.392  11.233 -0.4029  0.9074  0.8102
  436MOL0     C60091   8.095  10.253  11.301  0.2916 -0.9539 -0.0253
  436MOL0     C60092   7.971  10.181  11.322  0.4998  0.2775  0.2778
  436MOL0     C60093   7.960  10.062  11.224  0.4369 -0.1589 -0.3190
  436MOL0     C60094   8.044   9.945  11.263  0.2029  0.7039 -0.4358
  436MOL0     C60095   8.133   9.870  11.290 -0.1130 -0.0345 -0.3016
  436MOL0     C60096   8.029  10.605  11.001 -0.4125 -0.3134 -1.0953
  436MOL0     C60097   8.046  10.701  10.902 -0.1362 -0.7950 -0.4156
  436MOL0     C60098   7.999  10.848  10.933 -0.2440  0.5474 -0.2738
  436MOL0     H60099   8.302  11.053  10.627 -2.5991 -1.2262  2.0110
  436MOL0     H60100   8.346  11.204  10.431 -0.5480  0.2626  1.9597
  436MOL0     H60101   8.126  11.395  10.303  1.8116  2.6258 -1.3418
  436MOL0     H60102   8.012  11.335  10.196 -0.3480  1.0601  1.3804
  436MOL0     H60103   8.135  11.507  10.084  3.1150  2.6143  0.0845
  436MOL0     H60104   8.287  11.451  10.130 -1.1036 -0.6244 -0.0140
  436MOL0     H60105   8.274  11.253   9.979 -3.3370 -2.4126 -0.7405
  436MOL0     H60106   8.118  11.292   9.917  0.4388  0.5930 -2.5210
  436MOL0     H60107   8.250  11.376   9.770 -2.6121  0.3838  1.2540
  436MOL0     H60108   8.240  11.523   9.860 -2.4339 -1.0069 -0.9384
  436MOL0     H60109   8.461  11.441   9.982  1.9667 -2.9036  0.4679
  436MOL0     H60110   8.485  11.500   9.812  2.4720 -2.4100 -0.2087
  436MOL0     H60111   8.622  11.306   9.831 -0.3246 -0.6518 -0.4460
  436MOL0     H60112   8.496  11.228   9.937  1.1119  0.3968  0.5799
  436MOL0     H60113   8.500  11.250   9.638 -4.0685  3.9149  0.2379
  436MOL0     H60114   8.356  11.194   9.732  0.2258  1.6721 -2.8022
  436MOL0     H60115   8.511  11.037   9.852 -0.3979 -1.7234  0.4383
  436MOL0     H60116   8.482  10.985   9.676  0.4108  0.1526  0.6978
  436MOL0     H60117   8.692  11.143   9.519  1.1446  0.9035  0.4729
  436MOL0     H60118   8.936  11.157   9.455 -0.6793  0.5746  0.4751
  436MOL0     H60119   9.041  11.029   9.515  0.5109  0.6000  1.7604
  436MOL0     H60120   9.049  11.313   9.594 -1.1898  0.4671  2.7181
  436MOL0     H60121   9.039  11.202   9.728 -2.2400 -1.3127 -1.6165
  436MOL0     H60122   9.238  11.102   9.674  0.2775  0.5179 -0.1516
  436MOL0     H60123   9.220  11.110   9.498  1.3798 -1.5886  1.4672
  436MOL0     H60124   9.232  11.349   9.523  0.0779 -0.5097 -0.0651
  436MOL0     H60125   9.290  11.343   9.686 -2.0736  2.5004 -1.4978
  436MOL0     H60126   9.265  11.322   9.333 -1.9165 -0.8735 -1.8666
  436MOL0     H60127   9.189  11.370   9.131 -0.3562  1.7280 -2.5244
  436MOL0     H60128   9.179  11.206   9.068 -2.0757  1.7409  1.0716
  436MOL0     H60129   9.270  11.315   8.983 -3.0099 -1.1598 -0.3093
  436MOL0     H60130   9.753  11.137   8.792 -0.9531 -0.1561  1.1809
  436MOL0     H60131   9.820  11.033   8.587  4.6850 -2.9211  1.7562
  436MOL0     H60132   9.850  10.892   8.399  1.4556 -1.6309 -3.3524
  436MOL0     H60133   9.922  10.799   8.527  0.7909  0.0433  0.0232
  436MOL0     H60134   9.761  10.659   8.295 -0.1788  0.0627  0.8588
  436MOL0     H60135   9.945  10.676   8.301  0.6805 -1.5209  1.2988
  436MOL0     H60136   9.756  10.522   8.472  0.0155  1.3076 -0.0662
  436MOL0     H60137   9.926  10.553   8.526 -1.4682 -0.2408  2.5318
  436MOL0     H60138  10.039  10.423   8.372  1.2819  1.4355  1.0987
  436MOL0     H60139   9.910  10.421   8.257 -0.2259 -2.6873 -0.3306
  436MOL0     H60140   9.901  10.249   8.516 -0.9053 -1.6777  0.4482
  436MOL0     H60141   9.761  10.287   8.430  0.5643  3.3276  2.6418
  436MOL0     H60142  10.029  10.174   8.339 -0.2924 -0.1261  0.2035
  436MOL0     H60143   9.909  10.194   8.224  2.6984  0.2342 -0.4492
  436MOL0     H60144   9.753  10.053   8.351 -1.3205 -3.7347 -4.0467
  436MOL0     H60145   9.879   9.996   8.460  1.1863 -0.5959 -0.9668
  436MOL0     H60146   9.808   9.837   8.290 -1.6657  0.9438 -0.2675
  436MOL0     H60147   9.986   9.878   8.303  1.6365  4.4948 -1.2541
  436MOL0     H60148   9.603  10.689   8.711  1.3645 -0.9114  2.6023
  436MOL0     H60149   9.538  10.808   8.926 -0.9556  2.9781  1.3854
  436MOL0     H60150   9.663  11.061   9.224 -0.6806 -1.2672 -1.4156
  436MOL0     H60151   9.629  11.144   9.455  1.4382  1.2799 -0.5491
  436MOL0     H60152   7.996  11.015  10.244 -1.6913  2.1413  1.4847
  436MOL0     H60153   7.960  10.887  10.435 -0.8890 -0.5574  1.1782
  436MOL0     H60154   8.148  10.501  10.646  1.1913  3.9761 -2.6991
  436MOL0     H60155   8.164  10.343  10.830 -2.4670 -0.3009  0.3421
  436MOL0     H60156   8.174  10.456  11.260  0.5322 -0.1554  0.4680
  436MOL0     H60157   7.990  10.436  11.244 -2.0244 -1.5320 -2.5005
  436MOL0     H60158   8.116  10.288  11.402 -0.9612 -0.4705  0.0788
  436MOL0     H60159   8.179  10.190  11.268  0.2679 -1.9997  1.7533
  436MOL0     H60160   7.946  10.143  11.422 -3.6909  0.7101 -0.4247
  436MOL0     H60161   7.894  10.258  11.308 -2.6176 -2.6292 -0.1060
  436MOL0     H60162   7.982  10.116  11.132 -0.0029  3.1534  1.3765
  436MOL0     H60163   7.853  10.036  11.227  0.7040 -1.3689  2.7114
  436MOL0     H60164   8.211   9.802  11.316  1.3270  1.0043 -1.7331
  436MOL0     H60165   7.981  10.640  11.092 -0.7234 -1.6418 -0.7288
  436MOL0     H60166   8.091  10.906  10.942 -1.7026  3.3491 -2.1132
  436MOL0     H60167   7.951  10.903  10.851 -2.0928  0.2668  0.5712
  436MOL0     H60168   7.933  10.859  11.019 -0.9069 -0.1250 -0.6836
  437MOL0     O60169   3.574  10.193   4.838 -0.3091  0.2200 -0.3080
  437MOL0     C60170   3.475  10.184   4.770  0.4919  0.5354  0.2962
  437MOL0     O60171   3.441  10.077   4.699 -0.8823  0.4477 -0.0858
  437MOL0     C60172   3.551  10.008   4.646  0.5179 -0.5709  0.4232
  437MOL0     C60173   3.618   9.924   4.735  0.1402 -0.1034  0.7949
  437MOL0     C60174   3.729   9.838   4.686  0.2402 -0.2856 -0.8891
  437MOL0     C60175   3.756   9.845   4.554  0.1047  0.6375  0.2130
  437MOL0     O60176   3.864   9.762   4.512 -0.4075 -0.4859 -0.3621
  437MOL0     C60177   3.950   9.810   4.403  0.6718  0.0162  0.1279
  437MOL0     C60178   3.917   9.756   4.269 -0.0981 -0.8161 -1.1702
  437MOL0     C60179   3.947   9.859   4.152 -0.3713  0.3009  0.0571
  437MOL0     C60180   4.095   9.881   4.127  0.4888  0.0520  0.8647
  437MOL0     C60181   4.126   9.971   4.004 -0.2482 -0.1280  0.0496
  437MOL0     C60182   4.050   9.930   3.877 -0.1334  0.0391 -0.4721
  437MOL0     C60183   4.089  10.025   3.769 -0.9639 -0.3189 -1.1129
  437MOL0     C60184   4.016  10.156   3.785  0.9446 -0.2159 -0.6233
  437MOL0     N60185   3.878  10.148   3.734  0.8606 -0.6526  0.1547
  437MOL0     C60186   3.822  10.198   3.613 -0.3240  0.4231 -1.3219
  437MOL0     C60187   3.686  10.182   3.617 -1.1295 -0.2480 -0.3468
  437MOL0     C60188   3.579  10.237   3.532 -0.1636  0.3504  0.2422
  437MOL0     C60189   3.608  10.273   3.388  0.0224 -0.5582  0.3301
  437MOL0     C60190   3.671  10.155   3.319 -0.7439  1.3391 -0.7980
  437MOL0     C60191   3.680  10.183   3.172  0.0572 -0.3552  0.9929
  437MOL0     O60192   3.549  10.167   3.111 -0.0965  0.2479 -0.6682
  437MOL0     C60193   3.522  10.178   2.981 -0.7297 -0.6829  0.8152
  437MOL0     C60194   3.400  10.132   2.930 -0.2673  0.6535 -0.0406
  437MOL0     C60195   3.368  10.139   2.793  0.1949 -0.4759 -0.2175
  437MOL0     C60196   3.235  10.082   2.746  0.6559 -0.5748  0.9273
  437MOL0     C60197   3.462  10.196   2.705  0.2915  0.2334  0.1696
  437MOL0     C60198   3.435  10.217   2.557  0.3844  0.4898 -0.3175
  437MOL0     O60199   3.508  10.323   2.507 -0.5809 -0.2344 -0.1582
  437MOL0     C60200   3.522  10.355   2.372  0.4794  0.4965 -0.2470
  437MOL0     C60201   3.434  10.309   2.277 -0.6525 -0.5111  1.2664
  437MOL0     C60202   3.437  10.347   2.144 -0.0767  0.7217 -0.3287
  437MOL0     C60203   3.544  10.436   2.101 -0.6003  0.0851 -0.1910
  437MOL0     O60204   3.553  10.495   1.982 -0.0312  0.9602  0.1797
  437MOL0     C60205   3.474  10.435   1.870 -0.8562  0.7153 -0.2849
  437MOL0     C60206   3.515  10.523   1.750 -0.9827  0.7390  0.0282
  437MOL0     C60207   3.438  10.466   1.627  0.0975 -0.7485 -0.7829
  437MOL0     C60208   3.410  10.588   1.532 -0.9122 -0.3243  0.6279
  437MOL0     C60209   3.367  10.535   1.400 -0.0393  0.9285  0.0870
  437MOL0     C60210   3.337  10.639   1.291 -0.1945  0.8182  0.5103
  437MOL0     C60211   3.195  10.704   1.313  1.0232  0.2870  1.1476
  437MOL0     C60212   3.169  10.818   1.217  0.5567 -0.4554  1.3608
  437MOL0    Cl60213   3.038  10.912   1.279 -0.3596 -0.1421  0.0718
  437MOL0     C60214   3.645  10.477   2.192  0.1663  1.0331  0.4304
  437MOL0     C60215   3.635  10.433   2.327 -0.6000  0.2302 -0.3608
  437MOL0     O60216   3.384  10.123   2.492 -0.0291  0.3619  0.4402
  437MOL0     C60217   3.580  10.244   2.751 -0.5880  0.4791 -0.2493
  437MOL0     C60218   3.613  10.234   2.889  0.0867 -0.6990  0.0541
  437MOL0     N60219   3.662  10.135   3.744  0.1998  0.4893  0.2821
  437MOL0     N60220   3.771  10.100   3.807  1.2479  0.7410 -0.0216
  437MOL0     C60221   3.683   9.924   4.468  0.8008  0.3688  0.6394
  437MOL0     C60222   3.580  10.001   4.512  0.1492 -0.5393  0.1420
  437MOL0     C60223   3.407  10.308   4.761  0.0646 -0.1224 -0.1402
  437MOL0     C60224   3.415  10.354   4.628  0.3445  0.2502 -0.3869
  437MOL0     C60225   3.347  10.465   4.595  0.5814 -0.3403  0.5644
  437MOL0     C60226   3.270  10.543   4.688 -0.0061  0.0228 -0.6154
  437MOL0     O60227   3.214  10.654   4.645 -1.0449 -0.4616  0.4786
  437MOL0     C60228   3.112  10.620   4.540  0.1721  0.7475 -0.1115
  437MOL0     C60229   3.019  10.736   4.524  1.0862 -0.9213 -1.4329
  437MOL0     C60230   3.087  10.865   4.456  0.8939 -0.5077 -0.5267
  437MOL0     C60231   2.983  10.977   4.424 -0.6426  0.5597  0.7617
  437MOL0     C60232   2.905  11.024   4.542  0.2670  0.0519 -0.7787
  437MOL0     C60233   2.845  11.048   4.644  0.0637  0.3415 -0.5715
  437MOL0     C60234   3.286  10.505   4.824  0.1180  0.6582  0.2778
  437MOL0     C60235   3.340  10.378   4.862 -0.4393 -0.5273  0.2606
  437MOL0     C60236   3.336  10.326   4.995  0.9193 -0.3881 -0.8423
  437MOL0     H60237   3.601   9.931   4.842 -1.0836  1.2630  0.5459
  437MOL0     H60238   3.779   9.778   4.762  2.5000  2.9205  0.4162
  437MOL0     H60239   4.050   9.771   4.425  0.6451 -0.5272 -0.6549
  437MOL0     H60240   3.954   9.919   4.404 -0.8402  0.1890 -2.5500
  437MOL0     H60241   3.980   9.667   4.261  1.6304 -0.3226  3.6413
  437MOL0     H60242   3.809   9.738   4.260  0.3462 -2.6239 -4.4514
  437MOL0     H60243   3.890   9.803   4.078  1.4588 -4.0880  1.6056
  437MOL0     H60244   3.909   9.960   4.167  0.1509  0.7292 -1.3398
  437MOL0     H60245   4.134   9.920   4.222 -0.5429 -0.9406  1.7295
  437MOL0     H60246   4.144   9.786   4.104  0.8160  0.5046 -0.4048
  437MOL0     H60247   4.233   9.972   3.982 -0.3639  0.6933 -0.4952
  437MOL0     H60248   4.105  10.075   4.031 -0.5205 -0.1994  0.1135
  437MOL0     H60249   4.065   9.826   3.846  1.8238 -0.3255  1.4221
  437MOL0     H60250   3.943   9.936   3.900  0.1095 -0.7356  0.9770
  437MOL0     H60251   4.056   9.976   3.676 -0.0009  0.7847 -2.0692
  437MOL0     H60252   4.197  10.039   3.770 -0.7868 -1.5601 -0.5660
  437MOL0     H60253   4.008  10.194   3.888  0.4280 -2.1513  0.0893
  437MOL0     H60254   4.087  10.220   3.731  4.2750 -3.1472 -0.0841
  437MOL0     H60255   3.880  10.237   3.530  0.2114  0.5172 -0.9037
  437MOL0     H60256   3.536  10.328   3.573 -2.4528 -0.1614 -0.8869
  437MOL0     H60257   3.508  10.155   3.545  2.8435 -2.3734  0.9034
  437MOL0     H60258   3.514  10.309   3.344 -0.4923  0.2680  2.0096
  437MOL0     H60259   3.681  10.355   3.389  2.1510 -2.3596 -0.1108
  437MOL0     H60260   3.765  10.132   3.370 -0.8957 -0.4848 -1.3075
  437MOL0     H60261   3.610  10.067   3.340  0.0434  1.3637  2.0781
  437MOL0     H60262   3.723  10.280   3.146  0.2041 -0.8719 -0.9322
  437MOL0     H60263   3.751  10.111   3.129 -0.0965 -0.4518  0.8975
  437MOL0     H60264   3.329  10.084   2.997  1.1301 -0.4751  0.6617
  437MOL0     H60265   3.174  10.161   2.702  0.8426  0.0035  1.6682
  437MOL0     H60266   3.179  10.048   2.834 -1.0961  2.5385  1.1848
  437MOL0     H60267   3.255  10.008   2.669  0.6330  2.2944 -2.0474
  437MOL0     H60268   3.352  10.237   2.280 -1.2514 -0.0556 -1.3652
  437MOL0     H60269   3.363  10.318   2.070  1.5168 -0.4536 -1.5351
  437MOL0     H60270   3.499  10.329   1.859 -1.1691  0.6407 -0.2762
  437MOL0     H60271   3.367  10.444   1.892 -0.5587 -1.9493  3.1483
  437MOL0     H60272   3.483  10.624   1.778 -1.4275  1.0635 -1.5223
  437MOL0     H60273   3.624  10.515   1.742 -0.9519  0.9354  0.2436
  437MOL0     H60274   3.345  10.415   1.654 -0.5415 -0.1996 -1.8950
  437MOL0     H60275   3.501  10.396   1.571  1.6359  0.2847 -0.4107
  437MOL0     H60276   3.497  10.654   1.523 -1.1187 -0.1204  0.0552
  437MOL0     H60277   3.340  10.661   1.575  1.1971  1.5231  1.1213
  437MOL0     H60278   3.440  10.471   1.349 -2.2136 -1.2228 -0.5378
  437MOL0     H60279   3.282  10.469   1.422  2.5414 -2.5775  0.4320
  437MOL0     H60280   3.344  10.592   1.193 -1.9119  0.5879  0.4633
  437MOL0     H60281   3.412  10.717   1.310 -0.5668  1.2262  0.3261
  437MOL0     H60282   3.188  10.742   1.415  3.0685  1.9407  0.7378
  437MOL0     H60283   3.113  10.636   1.289 -0.7520  2.3278  1.1365
  437MOL0     H60284   3.143  10.777   1.119  0.7148  4.9283 -1.3064
  437MOL0     H60285   3.259  10.880   1.206  0.7341 -0.9125  0.1145
  437MOL0     H60286   3.737  10.519   2.154 -0.2434  0.0760 -1.7908
  437MOL0     H60287   3.702  10.467   2.405 -4.1655  1.9104  2.2367
  437MOL0     H60288   3.651  10.285   2.680  2.4873 -3.2046  0.3405
  437MOL0     H60289   3.710  10.271   2.919  0.1045  0.4835 -1.3452
  437MOL0     H60290   3.707   9.935   4.363 -1.2455 -2.2022 -0.2018
  437MOL0     H60291   3.540  10.067   4.436  1.7670 -0.0761 -0.3524
  437MOL0     H60292   3.461  10.302   4.544  0.5433  2.3197 -1.6399
  437MOL0     H60293   3.350  10.488   4.489  0.1316 -3.8373 -0.3308
  437MOL0     H60294   3.151  10.603   4.439  0.3467 -0.5647  0.1537
  437MOL0     H60295   3.069  10.520   4.557  3.5334 -0.6872  0.6576
  437MOL0     H60296   2.974  10.745   4.624 -0.0133  2.2737 -2.0697
  437MOL0     H60297   2.933  10.710   4.462  0.9925 -1.0906 -1.2321
  437MOL0     H60298   3.162  10.897   4.528 -1.1705  1.1586  1.0125
  437MOL0     H60299   3.129  10.838   4.359  2.1715 -1.4280  0.2414
  437MOL0     H60300   2.912  10.947   4.346  1.7077  0.7236 -1.5991
  437MOL0     H60301   3.027  11.064   4.375 -2.1904  0.3232 -1.1742
  437MOL0     H60302   2.791  11.047   4.737  2.1462  2.3121  0.7723
  437MOL0     H60303   3.235  10.568   4.896  0.5504 -1.5864  2.6968
  437MOL0     H60304   3.258  10.249   5.003  0.2464  0.3284 -0.4002
  437MOL0     H60305   3.429  10.283   5.035  1.7591  2.0236 -0.0160
  437MOL0     H60306   3.310  10.411   5.058 -2.1544 -2.4667  0.9530
  438MOL0     O60307   5.839   3.864  10.459  0.5545 -0.0899  0.4654
  438MOL0     C60308   5.713   3.878  10.474 -0.4697  0.2086 -0.1061
  438MOL0     O60309   5.654   3.887  10.593  0.2022 -0.3258 -0.0618
  438MOL0     C60310   5.719   3.869  10.709 -0.3972 -0.0287 -0.0073
  438MOL0     C60311   5.794   3.974  10.765  0.4366 -0.3040  0.4037
  438MOL0     C60312   5.870   3.964  10.883 -0.8304 -0.6276 -0.0342
  438MOL0     C60313   5.874   3.836  10.950 -0.4884 -0.2812  0.3165
  438MOL0     O60314   5.951   3.825  11.059  0.6702 -0.1045  0.3437
  438MOL0     C60315   5.944   3.721  11.157  0.4526 -0.2902  0.2693
  438MOL0     C60316   5.981   3.766  11.288 -0.5320  0.6107 -0.5792
  438MOL0     C60317   6.004   3.654  11.390 -0.1046 -0.7413 -0.2398
  438MOL0     C60318   6.128   3.574  11.365 -0.0245  0.2717 -0.1722
  438MOL0     C60319   6.186   3.478  11.475  0.0972  0.3329  0.0048
  438MOL0     C60320   6.243   3.550  11.600 -0.2144  0.2750  0.6704
  438MOL0     C60321   6.265   3.441  11.712 -0.0795 -0.1639  0.5988
  438MOL0     C60322   6.358   3.482  11.816 -0.2139 -0.4643 -0.3578
  438MOL0     N60323   6.386   3.381  11.910 -0.5003  0.9236 -0.6792
  438MOL0     C60324   6.314   3.332  12.019  0.4712  0.0204 -0.3018
  438MOL0     C60325   6.398   3.254  12.100 -0.0275  0.4140  1.4204
  438MOL0     C60326   6.383   3.195  12.232  0.6620 -0.1640 -0.1575
  438MOL0     C60327   6.314   3.281  12.336  0.4357 -0.0737  0.4123
  438MOL0     C60328   6.156   3.276  12.334  0.5677  0.2881 -0.0706
  438MOL0     C60329   6.095   3.382  12.428  0.2202  0.0310  0.3239
  438MOL0     O60330   6.103   3.498  12.344  0.2292 -0.4050 -0.5208
  438MOL0     C60331   5.991   3.528  12.270 -0.7698  0.0648 -0.0994
  438MOL0     C60332   5.992   3.542  12.136  0.2801  0.0086  0.2365
  438MOL0     C60333   5.877   3.566  12.058 -0.5826 -0.2395  0.0245
  438MOL0     C60334   5.896   3.543  11.907  0.0949  0.3214 -0.0991
  438MOL0     C60335   5.757   3.605  12.121  0.0655 -0.8841  0.4402
  438MOL0     C60336   5.633   3.640  12.049  0.7239  0.2101 -0.4126
  438MOL0     O60337   5.630   3.648  11.911  0.3023 -0.7246  0.6655
  438MOL0     C60338   5.521   3.683  11.830 -0.4447 -0.6605  1.3478
  438MOL0     C60339   5.524   3.633  11.700 -0.0391 -0.0058 -0.6153
  438MOL0     C60340   5.431   3.672  11.608  0.5026  0.2109  0.5290
  438MOL0     C60341   5.345   3.777  11.635  0.3928  0.6756 -0.4232
  438MOL0     O60342   5.254   3.833  11.544 -0.2690 -0.0973  0.1262
  438MOL0     C60343   5.266   3.801  11.408 -0.1311 -0.6355 -0.2916
  438MOL0     C60344   5.171   3.898  11.325  0.5827  0.5885  0.3609
  438MOL0     C60345   5.221   4.042  11.339  0.0490 -0.1168  0.7074
  438MOL0     C60346   5.157   4.136  11.238  0.0415 -0.9088  0.6278
  438MOL0     C60347   5.014   4.191  11.261  0.5940  0.8474 -0.0804
  438MOL0     C60348   4.984   4.220  11.406  0.1214 -0.1303 -0.5214
  438MOL0     C60349   5.081   4.327  11.465  0.4625 -0.6494 -0.3544
  438MOL0     C60350   5.039   4.367  11.600  0.3770  0.5904 -1.3366
  438MOL0    Cl60351   5.016   4.212  11.700  0.3668 -0.0778  0.1954
  438MOL0     C60352   5.346   3.838  11.761  0.0121  0.5335  0.0838
  438MOL0     C60353   5.436   3.788  11.864  0.2234 -0.2676  0.1781
  438MOL0     O60354   5.544   3.672  12.119 -0.1265 -0.6288 -0.0963
  438MOL0     C60355   5.752   3.614  12.266 -0.2025 -0.1386  0.1963
  438MOL0     C60356   5.870   3.573  12.335 -0.1620 -0.5857  0.6242
  438MOL0     N60357   6.521   3.259  12.044 -0.3889 -0.0713 -0.6451
  438MOL0     N60358   6.518   3.333  11.938  0.6751 -0.1794  1.3233
  438MOL0     C60359   5.794   3.730  10.899 -0.5156 -0.0438 -0.0608
  438MOL0     C60360   5.728   3.750  10.783 -0.4087 -0.2568  0.2976
  438MOL0     C60361   5.618   3.864  10.355  0.4278 -0.0989 -1.4303
  438MOL0     C60362   5.483   3.836  10.386 -0.0471  0.1150 -0.7981
  438MOL0     C60363   5.385   3.794  10.290 -0.2284 -0.2037  0.6117
  438MOL0     C60364   5.417   3.773  10.153 -0.2482  1.0101 -0.4697
  438MOL0     O60365   5.321   3.750  10.055 -0.1550  0.2391 -0.0646
  438MOL0     C60366   5.188   3.726  10.094  0.5410  0.4080  0.0182
  438MOL0     C60367   5.116   3.673   9.975 -0.6746  0.8572  0.4804
  438MOL0     C60368   4.986   3.597  10.009  0.7213 -0.7362  0.0899
  438MOL0     C60369   4.862   3.672  10.058 -0.0101  0.4445 -0.4050
  438MOL0     C60370   4.832   3.660  10.199  0.0353  0.6336 -0.2206
  438MOL0     C60371   4.803   3.651  10.316  0.6895 -0.8555 -0.2534
  438MOL0     C60372   5.553   3.798  10.123  0.2799  0.0971 -0.8533
  438MOL0     C60373   5.653   3.830  10.222  0.2142  0.1033  0.7707
  438MOL0     C60374   5.792   3.813  10.165 -0.2609  0.3498 -0.3557
  438MOL0     H60375   5.793   4.069  10.711  0.7401 -1.1473 -1.1418
  438MOL0     H60376   5.916   4.053  10.926  1.7309 -1.7510 -0.2260
  438MOL0     H60377   6.008   3.636  11.133 -0.3108 -0.9605  0.5804
  438MOL0     H60378   5.841   3.686  11.171  0.9700 -1.4147  1.5588
  438MOL0     H60379   6.073   3.826  11.281  0.1941 -0.0366  2.0667
  438MOL0     H60380   5.903   3.834  11.324  1.6479  3.8472 -1.5119
  438MOL0     H60381   6.019   3.708  11.484  1.8875  0.7794 -1.3662
  438MOL0     H60382   5.910   3.600  11.408 -0.1687 -1.0441 -1.4132
  438MOL0     H60383   6.116   3.508  11.278 -1.4552  2.6259 -1.8693
  438MOL0     H60384   6.206   3.645  11.336 -1.1803  0.6557 -2.5727
  438MOL0     H60385   6.261   3.409  11.437 -1.2267 -0.3407 -1.5043
  438MOL0     H60386   6.101   3.420  11.514 -1.1037  2.2874  0.4554
  438MOL0     H60387   6.339   3.598  11.577  0.2542 -0.9493 -0.0743
  438MOL0     H60388   6.177   3.625  11.643 -1.5105 -1.2757  1.4942
  438MOL0     H60389   6.282   3.346  11.660  1.7037 -0.5132  1.7236
  438MOL0     H60390   6.164   3.433  11.755 -0.8598  1.1841 -0.8942
  438MOL0     H60391   6.456   3.506  11.773  1.9849  0.0817  4.3443
  438MOL0     H60392   6.326   3.566  11.877  4.1981  0.7123  0.6866
  438MOL0     H60393   6.211   3.358  12.044  1.4131  3.8966  0.1011
  438MOL0     H60394   6.480   3.170  12.276 -0.2786 -0.8352  1.6733
  438MOL0     H60395   6.329   3.102  12.211 -2.1790  1.7769 -2.1149
  438MOL0     H60396   6.334   3.243  12.436 -1.1309 -2.2333 -0.0204
  438MOL0     H60397   6.348   3.385  12.327  1.5124 -0.1718  2.7337
  438MOL0     H60398   6.122   3.313  12.237  0.6537  2.5522  0.7115
  438MOL0     H60399   6.128   3.174  12.363 -1.9985  1.4849  2.0753
  438MOL0     H60400   5.992   3.346  12.444 -0.0787  0.0889 -1.2728
  438MOL0     H60401   6.146   3.401  12.523 -2.1985  3.2794  1.1627
  438MOL0     H60402   6.081   3.497  12.095 -0.3316 -1.5962  0.5807
  438MOL0     H60403   5.921   3.631  11.848  0.8804  0.5562  0.5615
  438MOL0     H60404   5.809   3.495  11.863 -0.7611  1.0100  0.8060
  438MOL0     H60405   5.976   3.471  11.885 -1.1370 -0.3837 -2.5941
  438MOL0     H60406   5.608   3.574  11.665  0.2350  0.2661 -0.4162
  438MOL0     H60407   5.446   3.642  11.505  1.0328  2.0925  0.0209
  438MOL0     H60408   5.370   3.825  11.385 -0.5458  0.8944 -0.6883
  438MOL0     H60409   5.243   3.697  11.386 -1.3808 -0.4815  0.2387
  438MOL0     H60410   5.176   3.866  11.221 -0.4690 -0.6435  0.6636
  438MOL0     H60411   5.069   3.887  11.364  1.0779 -2.3113  1.0490
  438MOL0     H60412   5.330   4.045  11.331 -0.0185 -0.1843 -0.4526
  438MOL0     H60413   5.205   4.065  11.445  1.8315  1.0857  0.7696
  438MOL0     H60414   5.167   4.084  11.142  0.1593  1.6104 -0.7917
  438MOL0     H60415   5.221   4.224  11.231 -1.7680  0.3847 -0.1908
  438MOL0     H60416   4.999   4.275  11.193  0.9194  2.5390  1.8312
  438MOL0     H60417   4.942   4.113  11.236  1.0354  0.9872 -1.9082
  438MOL0     H60418   4.958   4.140  11.475 -1.7127 -0.3644 -1.4200
  438MOL0     H60419   4.888   4.273  11.398 -0.2247 -0.7806 -0.7516
  438MOL0     H60420   5.067   4.414  11.400  1.2308  1.1751  1.7859
  438MOL0     H60421   5.183   4.288  11.475  0.0999 -1.1147  2.2561
  438MOL0     H60422   4.945   4.418  11.577 -0.3993 -0.7422 -1.2373
  438MOL0     H60423   5.106   4.440  11.645  0.7905 -1.1653  1.1350
  438MOL0     H60424   5.274   3.914  11.789 -2.0849 -0.4203 -2.2834
  438MOL0     H60425   5.437   3.837  11.960 -0.3137  2.7023 -1.2193
  438MOL0     H60426   5.674   3.655  12.330 -0.6155 -1.8316  0.8233
  438MOL0     H60427   5.872   3.566  12.444 -0.5642  1.6526  0.8123
  438MOL0     H60428   5.797   3.634  10.950  1.0338  0.0853  0.1290
  438MOL0     H60429   5.670   3.663  10.754  2.6504 -2.6685  1.0076
  438MOL0     H60430   5.445   3.847  10.487  2.0013 -0.5014  0.0767
  438MOL0     H60431   5.283   3.785  10.326 -1.4642 -4.7466 -3.0476
  438MOL0     H60432   5.193   3.652  10.174  1.2798 -0.7988 -1.1085
  438MOL0     H60433   5.130   3.816  10.117 -1.6370 -1.0678  0.7163
  438MOL0     H60434   5.191   3.617   9.918 -0.0579 -0.3004  2.3717
  438MOL0     H60435   5.080   3.757   9.914 -2.2630  2.6313  3.6362
  438MOL0     H60436   4.968   3.545   9.914 -0.6872  0.7767 -0.5200
  438MOL0     H60437   5.021   3.514  10.070  1.9670 -1.9440 -2.1324
  438MOL0     H60438   4.772   3.637  10.006  0.6463 -1.3836 -0.3680
  438MOL0     H60439   4.857   3.777  10.027  0.6011 -0.5184 -4.1920
  438MOL0     H60440   4.764   3.657  10.416 -0.3560 -0.1942 -0.6846
  438MOL0     H60441   5.576   3.790  10.017  1.8288 -0.7493 -0.4905
  438MOL0     H60442   5.829   3.716  10.199  3.1791  2.4387  2.5624
  438MOL0     H60443   5.795   3.823  10.056 -0.2214 -0.0112 -0.3883
  438MOL0     H60444   5.861   3.890  10.201 -0.3361  0.0082  0.5522
  439MOL0     O60445   4.414   5.059  11.065  0.1127  0.0151 -0.1736
  439MOL0     C60446   4.514   5.063  11.134 -0.0154  0.0273  0.1572
  439MOL0     O60447   4.513   5.098  11.269 -0.2817  0.2841  0.0591
  439MOL0     C60448   4.417   5.188  11.314  0.5365  0.6842  0.3367
  439MOL0     C60449   4.323   5.140  11.407  0.6216  0.4947  0.4327
  439MOL0     C60450   4.209   5.217  11.434  0.3120 -0.2555  0.8095
  439MOL0     C60451   4.172   5.332  11.368 -0.8662 -0.3889 -0.2993
  439MOL0     O60452   4.068   5.403  11.427  0.1336 -0.1889 -0.0994
  439MOL0     C60453   4.021   5.522  11.353  0.3796 -0.2431  1.1661
  439MOL0     C60454   3.944   5.486  11.214 -0.0016 -0.5580 -0.8981
  439MOL0     C60455   3.831   5.577  11.149 -0.1181 -0.7501 -0.3981
  439MOL0     C60456   3.864   5.727  11.164 -0.4192 -0.1955 -0.3661
  439MOL0     C60457   3.798   5.802  11.050 -0.8128 -0.8410 -0.5849
  439MOL0     C60458   3.781   5.944  11.101  0.7617 -0.2395  0.2072
  439MOL0     C60459   3.709   6.043  10.999  0.2189  0.5546 -0.5650
  439MOL0     C60460   3.598   6.124  11.062 -0.5866  0.5677 -0.5662
  439MOL0     N60461   3.649   6.254  11.110  0.3709  0.7374 -0.0664
  439MOL0     C60462   3.711   6.275  11.226 -0.2173  0.3648 -0.9221
  439MOL0     C60463   3.780   6.392  11.214 -0.9551 -0.1750  0.2902
  439MOL0     C60464   3.850   6.459  11.328  0.1888  0.3895 -0.3412
  439MOL0     C60465   3.906   6.595  11.295 -0.4534 -0.3170  0.9398
  439MOL0     C60466   3.790   6.695  11.284 -0.4713 -0.5267  0.2077
  439MOL0     C60467   3.848   6.828  11.273  0.6723  0.3493  0.2382
  439MOL0     O60468   3.900   6.864  11.400  0.4058  0.1649  0.1640
  439MOL0     C60469   3.983   6.977  11.401 -0.3062  0.2809 -0.5237
  439MOL0     C60470   4.099   6.982  11.332  0.2437  0.2376 -0.3770
  439MOL0     C60471   4.168   7.104  11.321 -0.7144 -0.0441  0.7655
  439MOL0     C60472   4.296   7.118  11.229 -1.1480 -0.1543  1.0126
  439MOL0     C60473   4.129   7.221  11.389  0.2618  0.5564 -0.0699
  439MOL0     C60474   4.204   7.351  11.409 -0.2288 -0.1890 -0.2431
  439MOL0     O60475   4.322   7.366  11.346 -0.4596  0.4307  0.1238
  439MOL0     C60476   4.384   7.485  11.366  1.0562 -0.1905 -0.1539
  439MOL0     C60477   4.420   7.556  11.255 -0.3534  0.3212 -0.0628
  439MOL0     C60478   4.487   7.679  11.257  1.2054 -0.2347  0.3624
  439MOL0     C60479   4.506   7.748  11.379  0.6505 -0.1032 -0.3115
  439MOL0     O60480   4.576   7.867  11.394  0.3059  0.5814  0.0096
  439MOL0     C60481   4.565   7.964  11.288 -0.0965  0.7638  0.1319
  439MOL0     C60482   4.421   8.020  11.302  0.8929  0.9343  0.6346
  439MOL0     C60483   4.416   8.158  11.219  0.4334  0.1018 -1.3068
  439MOL0     C60484   4.273   8.202  11.188  0.2718  0.0397  0.3616
  439MOL0     C60485   4.262   8.342  11.143 -0.0519 -0.1710  0.9124
  439MOL0     C60486   4.128   8.361  11.066 -0.8981  0.6253 -0.2092
  439MOL0     C60487   4.142   8.490  10.982  0.6894  0.2565  0.0126
  439MOL0     C60488   4.009   8.531  10.927  0.0620 -0.5291  0.0518
  439MOL0    Cl60489   4.033   8.702  10.878 -0.0216 -0.2710  0.2163
  439MOL0     C60490   4.475   7.667  11.496 -0.5298  0.8440  0.4994
  439MOL0     C60491   4.420   7.538  11.495  0.4033 -0.2148  0.7513
  439MOL0     O60492   4.144   7.448  11.458 -0.3274 -0.0945  0.5573
  439MOL0     C60493   4.009   7.203  11.460 -0.5604 -0.2967  0.3939
  439MOL0     C60494   3.934   7.087  11.465 -0.5435 -0.1464  0.8317
  439MOL0     N60495   3.776   6.430  11.080  0.3865 -0.3802  0.0907
  439MOL0     N60496   3.698   6.344  11.019  0.2499 -1.2658 -0.7029
  439MOL0     C60497   4.268   5.382  11.271 -0.4151  0.4120 -0.5730
  439MOL0     C60498   4.383   5.304  11.237 -0.0985  0.6176 -0.0723
  439MOL0     C60499   4.639   5.005  11.084  0.3751 -0.0634 -0.1968
  439MOL0     C60500   4.756   5.037  11.160  0.3652  0.5260  0.7727
  439MOL0     C60501   4.885   5.011  11.108 -0.6546  1.4214 -1.2288
  439MOL0     C60502   4.902   4.931  10.996 -0.9353 -0.5296 -1.1017
  439MOL0     O60503   5.027   4.894  10.943 -0.5282  0.3455  0.5101
  439MOL0     C60504   5.149   4.904  11.022 -0.5765  0.0975  0.1512
  439MOL0     C60505   5.228   5.036  11.012  0.6409 -1.2357 -1.2567
  439MOL0     C60506   5.364   5.025  11.070 -0.3672 -0.5542  0.0316
  439MOL0     C60507   5.369   4.986  11.216  0.8407  0.4062 -1.0797
  439MOL0     C60508   5.304   5.082  11.310  0.8714 -0.7253  0.4388
  439MOL0     C60509   5.230   5.152  11.375 -0.0513 -0.3756  0.4608
  439MOL0     C60510   4.789   4.887  10.930  0.0679  0.7852  0.0454
  439MOL0     C60511   4.655   4.914  10.968 -0.4910 -0.3351 -0.8611
  439MOL0     C60512   4.565   4.847  10.875  0.1331 -0.3329  0.2950
  439MOL0     H60513   4.341   5.042  11.449  3.5879 -0.0934 -1.8237
  439MOL0     H60514   4.141   5.189  11.515 -0.5153  0.0197  0.2225
  439MOL0     H60515   4.102   5.591  11.329 -0.0699 -0.0304  0.1863
  439MOL0     H60516   3.962   5.582  11.423  2.4451  3.8514 -0.2990
  439MOL0     H60517   4.032   5.500  11.150  1.1092  1.6614  0.9665
  439MOL0     H60518   3.906   5.385  11.231 -1.6374  0.2414  0.4763
  439MOL0     H60519   3.815   5.546  11.046  0.1839  1.5212 -1.1662
  439MOL0     H60520   3.735   5.563  11.201 -0.0644 -0.6457 -0.2689
  439MOL0     H60521   3.822   5.766  11.256  0.4699 -0.6826  0.2582
  439MOL0     H60522   3.972   5.745  11.159 -0.3547 -0.0842  1.1676
  439MOL0     H60523   3.704   5.749  11.036 -1.4902 -0.1987  1.2287
  439MOL0     H60524   3.854   5.794  10.956  0.5775  0.5169  0.0771
  439MOL0     H60525   3.722   5.944  11.193  0.7626 -0.4820  0.2093
  439MOL0     H60526   3.878   5.992  11.114  1.2754 -1.3649  0.6798
  439MOL0     H60527   3.655   5.981  10.927  0.0806  0.9024 -0.7631
  439MOL0     H60528   3.772   6.117  10.947  1.8623  0.5906  1.3438
  439MOL0     H60529   3.530   6.141  10.978 -0.6581  2.1714 -0.2201
  439MOL0     H60530   3.550   6.069  11.143  1.1223  1.2047  0.9520
  439MOL0     H60531   3.695   6.224  11.320 -0.6684  3.2217  0.6597
  439MOL0     H60532   3.931   6.396  11.364  1.6965  2.2375 -0.3045
  439MOL0     H60533   3.775   6.466  11.407 -1.3977 -0.7545 -1.6828
  439MOL0     H60534   3.979   6.632  11.367  0.2103  0.1064  0.0705
  439MOL0     H60535   3.965   6.604  11.204  2.1753  1.3923  2.6871
  439MOL0     H60536   3.732   6.672  11.195 -1.2000 -0.9735  0.7922
  439MOL0     H60537   3.723   6.699  11.370  1.1625  2.2402  1.4932
  439MOL0     H60538   3.932   6.824  11.204 -1.0695 -0.1152 -1.9867
  439MOL0     H60539   3.774   6.901  11.239  0.6299  0.7565  1.1761
  439MOL0     H60540   4.118   6.895  11.270 -1.7511  1.5562 -3.0238
  439MOL0     H60541   4.390   7.134  11.283 -0.8163  0.9357  0.1582
  439MOL0     H60542   4.285   7.202  11.159 -0.7942 -0.5770  0.4490
  439MOL0     H60543   4.309   7.025  11.175 -0.5089 -0.6554  1.9989
  439MOL0     H60544   4.389   7.527  11.155  0.6895  0.8760 -0.5690
  439MOL0     H60545   4.521   7.729  11.168 -0.1846 -1.1105 -0.7044
  439MOL0     H60546   4.647   8.034  11.298 -0.6518  1.4434 -0.0171
  439MOL0     H60547   4.579   7.925  11.187  1.4508  0.2970  0.4983
  439MOL0     H60548   4.353   7.947  11.258  2.0707  0.4743 -0.5115
  439MOL0     H60549   4.405   8.038  11.408 -0.0968  0.4948  0.5685
  439MOL0     H60550   4.476   8.147  11.128  0.3261 -0.9795 -1.2603
  439MOL0     H60551   4.459   8.240  11.278  0.2724  0.9048 -2.2716
  439MOL0     H60552   4.206   8.182  11.272  0.2854 -0.5840  0.2226
  439MOL0     H60553   4.240   8.128  11.115  2.6949 -0.0055 -0.7818
  439MOL0     H60554   4.258   8.408  11.230 -2.0837 -1.7684  2.1399
  439MOL0     H60555   4.346   8.362  11.076 -1.6065 -1.0288 -1.4167
  439MOL0     H60556   4.044   8.369  11.136  0.1014  0.2232  1.0801
  439MOL0     H60557   4.103   8.273  11.006 -2.5668  2.5194 -2.4816
  439MOL0     H60558   4.215   8.472  10.903  1.3048  0.9896  0.3963
  439MOL0     H60559   4.176   8.573  11.045  5.2603  0.3465 -2.1454
  439MOL0     H60560   3.925   8.529  10.996 -0.6474  3.2360 -0.4801
  439MOL0     H60561   3.987   8.477  10.834  1.7400  1.0502 -1.3559
  439MOL0     H60562   4.512   7.704  11.592  1.4048  0.6324 -0.1178
  439MOL0     H60563   4.416   7.482  11.589  0.6751 -0.4263  0.6390
  439MOL0     H60564   3.961   7.277  11.523 -0.4666 -1.1638  1.5110
  439MOL0     H60565   3.839   7.077  11.516 -2.0038 -1.8863 -1.9754
  439MOL0     H60566   4.260   5.476  11.218  1.1665  0.0722 -1.4964
  439MOL0     H60567   4.429   5.321  11.140 -2.6282  0.9893 -1.2907
  439MOL0     H60568   4.751   5.083  11.258 -0.4070  0.3919  0.8046
  439MOL0     H60569   4.969   5.035  11.173 -0.3443 -0.8632 -0.7049
  439MOL0     H60570   5.124   4.888  11.127  0.7217  0.5291  0.5439
  439MOL0     H60571   5.208   4.815  10.995 -0.1861  0.5105 -0.3841
  439MOL0     H60572   5.172   5.114  11.066 -2.8138 -3.4653 -1.3305
  439MOL0     H60573   5.225   5.063  10.906 -3.2323 -0.9612 -1.2338
  439MOL0     H60574   5.418   4.956  11.004  0.4822 -0.7920  0.9451
  439MOL0     H60575   5.419   5.118  11.065  0.3911 -1.0436 -0.9678
  439MOL0     H60576   5.476   4.980  11.240 -0.0208 -2.2635  3.3489
  439MOL0     H60577   5.341   4.880  11.226  1.7241 -0.2388 -4.2182
  439MOL0     H60578   5.174   5.219  11.438  0.6411  1.4509 -0.7664
  439MOL0     H60579   4.802   4.829  10.840  1.4672  0.8576  0.1763
  439MOL0     H60580   4.468   4.898  10.876  1.1438  1.7113 -0.7445
  439MOL0     H60581   4.605   4.849  10.773  1.4033 -1.7290  0.7375
  439MOL0     H60582   4.536   4.743  10.892  0.3831 -0.2609  1.1771
  440MOL0     O60583   5.816   9.049   8.175 -0.0604  0.1874  0.1018
  440MOL0     C60584   5.827   8.958   8.251 -0.4796  0.0246  1.0050
  440MOL0     O60585   5.806   8.831   8.213  0.5864 -1.2331 -0.2479
  440MOL0     C60586   5.740   8.800   8.091 -0.1463 -0.8537  0.2185
  440MOL0     C60587   5.625   8.870   8.055  0.1750 -0.5420 -0.1929
  440MOL0     C60588   5.559   8.844   7.934 -0.0842  0.4214  0.5180
  440MOL0     C60589   5.591   8.731   7.856  0.0090  0.4346  0.9609
  440MOL0     O60590   5.508   8.685   7.757  0.1877 -0.5099 -0.1055
  440MOL0     C60591   5.449   8.771   7.664 -0.4656 -0.8098 -0.6224
  440MOL0     C60592   5.523   8.764   7.540  0.1022 -0.7688  0.2726
  440MOL0     C60593   5.449   8.804   7.415 -0.1426 -0.4997  0.3662
  440MOL0     C60594   5.430   8.954   7.401  0.8569  0.6900 -0.1637
  440MOL0     C60595   5.322   9.019   7.315 -0.3644  0.0478 -0.6018
  440MOL0     C60596   5.296   8.945   7.186 -0.1741 -0.4951  0.6061
  440MOL0     C60597   5.209   9.041   7.095 -1.2191 -0.1619  0.7611
  440MOL0     C60598   5.172   8.977   6.960 -0.3727  0.4324 -1.4721
  440MOL0     N60599   5.265   8.997   6.851  0.0711  0.0757 -0.1421
  440MOL0     C60600   5.395   8.961   6.849 -1.0516 -0.1874  0.3324
  440MOL0     C60601   5.437   9.000   6.721  0.6592  0.7024  0.3462
  440MOL0     C60602   5.580   8.983   6.671 -0.7610  0.5782  0.4196
  440MOL0     C60603   5.613   9.095   6.578  0.7994 -0.0191 -0.9754
  440MOL0     C60604   5.759   9.078   6.518 -0.3999 -0.1399  0.0536
  440MOL0     C60605   5.800   9.170   6.398 -0.3049 -0.2287  0.6363
  440MOL0     O60606   5.942   9.187   6.385 -0.3392  0.3048  0.3502
  440MOL0     C60607   5.993   9.107   6.289 -0.0547 -0.0790 -0.3902
  440MOL0     C60608   6.012   9.159   6.167 -0.2970  0.2692  0.4203
  440MOL0     C60609   6.078   9.089   6.070 -0.3875 -0.2124  0.3912
  440MOL0     C60610   6.109   9.168   5.944 -0.2350  0.3456  0.6510
  440MOL0     C60611   6.117   8.942   6.087  0.3691 -0.2093  0.4958
  440MOL0     C60612   6.170   8.859   5.983  0.4955  0.0324 -0.0558
  440MOL0     O60613   6.247   8.756   6.021  0.0090  0.3809  0.1355
  440MOL0     C60614   6.332   8.718   5.922 -0.1811 -0.1333  0.1911
  440MOL0     C60615   6.450   8.787   5.916 -0.6898  0.1737 -0.2913
  440MOL0     C60616   6.533   8.773   5.807  0.3920 -0.4196  0.4869
  440MOL0     C60617   6.511   8.676   5.705 -0.5985  0.3862 -0.0571
  440MOL0     O60618   6.602   8.655   5.607  0.3492  0.0505  0.2053
  440MOL0     C60619   6.589   8.574   5.488  0.3783  0.2952 -0.2884
  440MOL0     C60620   6.473   8.620   5.393 -0.2695 -0.8778  0.1388
  440MOL0     C60621   6.479   8.765   5.351 -0.1844  0.3112  0.5047
  440MOL0     C60622   6.339   8.845   5.363  0.3764 -0.1617  0.0614
  440MOL0     C60623   6.351   8.999   5.341 -0.6152  0.1003 -0.0578
  440MOL0     C60624   6.248   9.082   5.416  0.0431 -0.2491  0.1591
  440MOL0     C60625   6.309   9.227   5.437  0.0859  0.3722 -0.3262
  440MOL0     C60626   6.203   9.315   5.509 -0.2797 -0.0200  0.2794
  440MOL0    Cl60627   6.267   9.474   5.480  0.4027 -0.1227  0.1725
  440MOL0     C60628   6.397   8.596   5.721  1.1225  1.5089 -0.3930
  440MOL0     C60629   6.303   8.621   5.824 -0.2037  0.5653 -0.5337
  440MOL0     O60630   6.138   8.882   5.865 -0.0834 -0.6484 -0.3103
  440MOL0     C60631   6.093   8.887   6.214 -0.1343 -0.0457  0.2854
  440MOL0     C60632   6.037   8.976   6.307 -0.4501 -0.9523 -0.0199
  440MOL0     N60633   5.336   9.063   6.651 -0.8576 -1.0174  0.2594
  440MOL0     N60634   5.236   9.055   6.731  0.5412  0.1575  0.2584
  440MOL0     C60635   5.693   8.654   7.898  0.5862  0.3917 -0.2306
  440MOL0     C60636   5.771   8.693   8.010  0.2572  0.0399  0.3055
  440MOL0     C60637   5.893   8.989   8.386  0.3435 -0.5864  0.3181
  440MOL0     C60638   5.920   8.881   8.468  0.9361 -0.2499 -0.5892
  440MOL0     C60639   5.958   8.898   8.596 -0.7842  0.0321  0.4433
  440MOL0     C60640   5.979   9.026   8.662  1.0783 -0.4754  0.1021
  440MOL0     O60641   6.021   9.048   8.792 -0.0231 -0.4879  0.3470
  440MOL0     C60642   6.031   8.938   8.876 -1.0384 -0.0141  0.2943
  440MOL0     C60643   6.037   8.966   9.028 -0.1857  0.0090  0.6229
  440MOL0     C60644   6.161   9.043   9.068 -0.2235 -0.2129  0.0049
  440MOL0     C60645   6.283   8.945   9.085 -0.5688 -0.5181 -1.0669
  440MOL0     C60646   6.391   9.040   9.120 -0.2510  0.4429 -0.8648
  440MOL0     C60647   6.478   9.115   9.159 -0.7759  0.5985 -0.4591
  440MOL0     C60648   5.951   9.135   8.580 -0.4240 -0.1673  0.5536
  440MOL0     C60649   5.908   9.120   8.447 -0.4392  0.2705 -0.8231
  440MOL0     C60650   5.876   9.247   8.368  0.2561 -0.0890  0.2493
  440MOL0     H60651   5.592   8.955   8.113  2.8260  0.6452 -0.2769
  440MOL0     H60652   5.472   8.904   7.910 -0.8021 -1.4230 -1.8814
  440MOL0     H60653   5.452   8.878   7.691  0.4696 -1.0515  0.3171
  440MOL0     H60654   5.343   8.756   7.639 -0.4635  1.0538 -2.0138
  440MOL0     H60655   5.615   8.823   7.548 -1.8848  2.9075 -1.4570
  440MOL0     H60656   5.558   8.661   7.529 -2.1529 -1.6529  0.8479
  440MOL0     H60657   5.515   8.771   7.334 -1.3730 -0.1446 -0.8259
  440MOL0     H60658   5.353   8.754   7.401 -1.3216  1.1849  1.9320
  440MOL0     H60659   5.411   8.991   7.503 -0.0956 -1.2366  0.3985
  440MOL0     H60660   5.526   8.995   7.369  2.0298 -1.6503  0.1772
  440MOL0     H60661   5.349   9.123   7.295  3.8636 -0.6582  0.5280
  440MOL0     H60662   5.224   9.006   7.363 -0.9265 -1.5474 -2.0705
  440MOL0     H60663   5.381   8.899   7.133  0.5196  4.2925 -3.0998
  440MOL0     H60664   5.226   8.864   7.211 -3.9351  1.8528 -1.4033
  440MOL0     H60665   5.273   9.124   7.063 -0.2644 -0.6202  1.4227
  440MOL0     H60666   5.119   9.084   7.140 -1.0153  0.4496  0.5857
  440MOL0     H60667   5.132   8.877   6.978 -0.3084  0.6369 -0.0900
  440MOL0     H60668   5.078   9.018   6.924 -1.1377 -0.3468 -0.4454
  440MOL0     H60669   5.458   8.908   6.920 -1.6465 -0.7397  0.4531
  440MOL0     H60670   5.593   8.891   6.614  0.3822  1.1532 -0.2852
  440MOL0     H60671   5.650   8.978   6.756 -1.7731 -2.2242  1.1864
  440MOL0     H60672   5.538   9.099   6.498 -0.6869 -2.0676  0.2305
  440MOL0     H60673   5.600   9.188   6.635  0.0808 -1.0798  0.6608
  440MOL0     H60674   5.832   9.084   6.600  1.0505 -3.0710 -0.8537
  440MOL0     H60675   5.766   8.974   6.485  0.2895 -0.8475  2.2191
  440MOL0     H60676   5.756   9.135   6.304 -0.0689 -0.9604  0.7979
  440MOL0     H60677   5.747   9.265   6.411  0.2231  0.1577  0.0631
  440MOL0     H60678   5.987   9.263   6.152  0.3374  1.3498  5.2266
  440MOL0     H60679   6.214   9.156   5.917 -0.1683 -1.6956  1.5999
  440MOL0     H60680   6.098   9.275   5.960  2.6885  0.7742  0.2131
  440MOL0     H60681   6.047   9.136   5.859 -1.0488  2.0482  0.5656
  440MOL0     H60682   6.466   8.874   5.978 -0.1732  0.6207 -1.0400
  440MOL0     H60683   6.619   8.835   5.785  1.8509 -1.7261  2.2351
  440MOL0     H60684   6.679   8.597   5.430  0.1952  1.7392 -0.0375
  440MOL0     H60685   6.592   8.469   5.517  2.4953  0.6297  0.9663
  440MOL0     H60686   6.474   8.551   5.308 -1.6194 -1.2962  0.4453
  440MOL0     H60687   6.380   8.605   5.449 -0.3267  1.8438  0.9184
  440MOL0     H60688   6.523   8.768   5.251 -0.7399  1.3279  0.2762
  440MOL0     H60689   6.551   8.819   5.413 -1.5107 -0.8830  3.2911
  440MOL0     H60690   6.304   8.836   5.466 -2.5043  0.1370 -0.7854
  440MOL0     H60691   6.258   8.799   5.305 -0.1044  2.5407 -1.6066
  440MOL0     H60692   6.456   9.022   5.362 -0.6186 -0.4380  0.5661
  440MOL0     H60693   6.346   9.013   5.232  0.2437  5.1830  0.3243
  440MOL0     H60694   6.220   9.040   5.513  2.7108 -1.7464  0.3734
  440MOL0     H60695   6.162   9.086   5.349 -0.0097 -0.1666  0.2310
  440MOL0     H60696   6.327   9.278   5.342 -2.6492  3.8320  0.7940
  440MOL0     H60697   6.403   9.221   5.492  0.5753 -3.4227 -1.2612
  440MOL0     H60698   6.185   9.292   5.615  1.7953 -0.1524  0.6452
  440MOL0     H60699   6.107   9.304   5.458 -1.2677  3.1250  1.2338
  440MOL0     H60700   6.365   8.514   5.657  3.7829  1.3602 -1.6689
  440MOL0     H60701   6.214   8.559   5.819 -1.7738  2.5485  1.1355
  440MOL0     H60702   6.122   8.787   6.242  2.4524  1.0388  1.8909
  440MOL0     H60703   6.012   8.920   6.396 -0.9463 -1.9615 -0.7707
  440MOL0     H60704   5.712   8.569   7.832 -0.7686 -1.3694  1.5331
  440MOL0     H60705   5.852   8.627   8.036 -0.5583 -1.6824 -1.2747
  440MOL0     H60706   5.922   8.781   8.427  3.0797  0.6468 -2.9209
  440MOL0     H60707   5.958   8.799   8.641 -3.7848 -1.0442 -1.6205
  440MOL0     H60708   5.955   8.863   8.851  0.9849 -1.4213 -2.1701
  440MOL0     H60709   6.126   8.892   8.846  0.9243  2.6311  1.9879
  440MOL0     H60710   6.033   8.867   9.076 -4.5102  0.5628  1.8894
  440MOL0     H60711   5.946   9.020   9.057  0.0284  0.0921  1.1419
  440MOL0     H60712   6.184   9.125   8.999 -1.5723  0.4304  0.2896
  440MOL0     H60713   6.139   9.095   9.161 -1.8613 -1.1356  0.1796
  440MOL0     H60714   6.304   8.893   8.991  1.1989 -0.1826 -0.8905
  440MOL0     H60715   6.256   8.874   9.163 -1.8375  0.6982 -0.3650
  440MOL0     H60716   6.546   9.184   9.206  0.6920  0.9824 -2.9862
  440MOL0     H60717   5.972   9.239   8.606 -3.2291  0.4552  0.6805
  440MOL0     H60718   5.768   9.259   8.355 -0.2683 -1.0709  3.1122
  440MOL0     H60719   5.910   9.335   8.424  0.7410 -0.5954  0.7630
  440MOL0     H60720   5.922   9.255   8.269  0.3125  0.3971  0.3155
  441MOL0     O60721   4.669   2.955   9.108 -0.0471  0.5517 -0.6923
  441MOL0     C60722   4.649   3.077   9.131 -1.0717  0.7394 -0.0369
  441MOL0     O60723   4.526   3.136   9.131  0.4365 -0.4165 -0.2561
  441MOL0     C60724   4.406   3.079   9.078 -0.2583  0.2292 -0.5195
  441MOL0     C60725   4.392   2.980   8.980 -0.3636  0.7298 -0.1802
  441MOL0     C60726   4.265   2.952   8.923  0.2202  0.7631 -0.8237
  441MOL0     C60727   4.156   3.031   8.952 -0.0384 -0.4880  0.1742
  441MOL0     O60728   4.033   2.999   8.896  0.1292 -0.1506  0.5423
  441MOL0     C60729   4.015   3.044   8.764 -0.0524 -0.4311  0.8845
  441MOL0     C60730   3.943   2.933   8.683  0.5681 -0.7369  0.0167
  441MOL0     C60731   3.857   2.997   8.568 -0.2121  0.2649  0.1509
  441MOL0     C60732   3.934   3.036   8.447  0.0269  0.5107  0.1825
  441MOL0     C60733   3.838   3.077   8.332  0.1269 -0.4653  0.0121
  441MOL0     C60734   3.755   2.958   8.270  0.6857  0.4288 -0.5311
  441MOL0     C60735   3.644   2.998   8.181  0.3562  0.3033 -0.3450
  441MOL0     C60736   3.524   3.051   8.253  0.2733 -0.8550 -0.1235
  441MOL0     N60737   3.455   2.951   8.327  0.0550 -0.0710 -0.8987
  441MOL0     C60738   3.440   2.959   8.467 -0.3666 -0.0590  0.9387
  441MOL0     C60739   3.354   2.861   8.497  1.2749  0.8501  1.1355
  441MOL0     C60740   3.318   2.804   8.633  0.3651 -0.0498  1.0514
  441MOL0     C60741   3.171   2.804   8.669  0.4978  0.0736  0.0768
  441MOL0     C60742   3.095   2.673   8.635  0.0845 -0.5557  0.0112
  441MOL0     C60743   3.042   2.657   8.496  0.5984 -0.7614  0.5536
  441MOL0     O60744   2.916   2.587   8.489 -0.3360  0.1290  1.0080
  441MOL0     C60745   2.888   2.530   8.364 -0.2501 -0.1012 -0.0881
  441MOL0     C60746   2.806   2.423   8.369 -0.9835 -0.1493 -0.0671
  441MOL0     C60747   2.773   2.350   8.258 -0.1891  0.4233 -0.3785
  441MOL0     C60748   2.665   2.237   8.275  0.4516  0.2040  0.5314
  441MOL0     C60749   2.812   2.395   8.133  0.2453  0.0136  0.8599
  441MOL0     C60750   2.774   2.324   8.007  0.6991  0.9834 -0.4002
  441MOL0     O60751   2.680   2.368   7.919  0.8093  0.2995  0.0946
  441MOL0     C60752   2.662   2.290   7.812 -0.2343 -0.4976 -0.0998
  441MOL0     C60753   2.755   2.249   7.714 -0.2118  0.4581 -0.0169
  441MOL0     C60754   2.714   2.161   7.612  0.3309  1.0986  0.3391
  441MOL0     C60755   2.582   2.116   7.603  0.9301 -0.7683  0.4552
  441MOL0     O60756   2.527   2.030   7.517  0.4319 -0.5324 -0.3173
  441MOL0     C60757   2.615   1.996   7.399 -0.1741  0.2505 -0.1295
  441MOL0     C60758   2.536   1.923   7.300 -0.9340 -0.1547  0.7764
  441MOL0     C60759   2.621   1.885   7.178 -0.4293 -0.1463  0.3463
  441MOL0     C60760   2.640   1.994   7.070 -0.2090  0.2466 -0.8824
  441MOL0     C60761   2.778   2.004   7.005  0.3693  0.5962 -0.3881
  441MOL0     C60762   2.783   2.122   6.908  0.3246  0.5866  1.1949
  441MOL0     C60763   2.923   2.117   6.840  0.3194 -0.3199 -0.1541
  441MOL0     C60764   3.025   2.220   6.894 -0.5752 -0.4626 -0.8240
  441MOL0    Cl60765   3.175   2.206   6.806 -0.1741 -0.4162  0.2491
  441MOL0     C60766   2.494   2.172   7.703  0.5417  0.5518 -0.5064
  441MOL0     C60767   2.533   2.252   7.805  0.9900 -0.1692 -0.5058
  441MOL0     O60768   2.834   2.214   7.995  0.1735 -0.2247  0.5384
  441MOL0     C60769   2.895   2.511   8.123  0.1799 -0.3396 -0.3881
  441MOL0     C60770   2.935   2.582   8.240 -0.4545 -0.8974  0.1219
  441MOL0     N60771   3.299   2.808   8.383 -0.7562  0.4298 -0.1093
  441MOL0     N60772   3.361   2.861   8.286 -0.0171  0.2496 -0.6738
  441MOL0     C60773   4.169   3.132   9.051  0.8727  0.6381  1.0573
  441MOL0     C60774   4.295   3.156   9.121 -0.7183  0.1221 -0.2316
  441MOL0     C60775   4.779   3.152   9.150  0.6834 -0.9672 -0.3812
  441MOL0     C60776   4.877   3.156   9.050 -0.8421 -0.6805 -0.6331
  441MOL0     C60777   4.997   3.213   9.077  0.1467  0.4054 -0.5382
  441MOL0     C60778   5.016   3.298   9.188  0.5613 -0.7223 -0.7772
  441MOL0     O60779   5.131   3.362   9.212  0.2320 -0.4247 -0.0383
  441MOL0     C60780   5.251   3.281   9.222 -0.5049 -1.2863  0.6020
  441MOL0     C60781   5.351   3.322   9.117  0.0874  0.5047 -0.6370
  441MOL0     C60782   5.491   3.305   9.187  1.2847 -0.4789  0.0594
  441MOL0     C60783   5.602   3.277   9.093  0.0740 -1.1536 -0.4780
  441MOL0     C60784   5.654   3.407   9.034  0.3752  0.0482  1.6956
  441MOL0     C60785   5.671   3.514   8.974 -0.1471 -0.7201  0.5957
  441MOL0     C60786   4.909   3.307   9.284 -0.0105  0.3844  0.2171
  441MOL0     C60787   4.795   3.227   9.275  0.9590 -0.6482 -0.0725
  441MOL0     C60788   4.689   3.236   9.378  0.5819 -1.0111  0.3711
  441MOL0     H60789   4.482   2.935   8.939 -0.3239  1.2998 -0.7321
  441MOL0     H60790   4.242   2.867   8.860 -3.0522 -0.8506  2.1934
  441MOL0     H60791   4.111   3.065   8.717  0.3550 -0.9160  1.4762
  441MOL0     H60792   3.958   3.136   8.755  1.6432  0.7838  2.0133
  441MOL0     H60793   4.007   2.858   8.634  0.0072 -0.3161 -1.3913
  441MOL0     H60794   3.877   2.884   8.755  1.3380 -0.1480  1.1673
  441MOL0     H60795   3.789   2.920   8.529 -0.8760  1.7787 -1.8728
  441MOL0     H60796   3.803   3.085   8.605  0.4368  0.4382  0.6972
  441MOL0     H60797   4.015   3.108   8.464  0.7869 -0.4774  0.7923
  441MOL0     H60798   3.974   2.939   8.417 -0.3895 -0.4723  2.5932
  441MOL0     H60799   3.904   3.126   8.260 -0.4647  1.9250  0.9748
  441MOL0     H60800   3.777   3.161   8.366  0.7200  0.9752 -2.2406
  441MOL0     H60801   3.835   2.908   8.214  1.1599 -0.5381  0.9489
  441MOL0     H60802   3.711   2.890   8.344 -0.3778  3.0913  1.4342
  441MOL0     H60803   3.629   2.921   8.105 -0.1688  1.2372 -1.2146
  441MOL0     H60804   3.683   3.080   8.120 -3.1928  1.5729 -1.1948
  441MOL0     H60805   3.548   3.130   8.325  3.0783  0.0610 -1.9045
  441MOL0     H60806   3.458   3.089   8.175 -1.7690 -0.3028  1.7731
  441MOL0     H60807   3.494   3.021   8.538 -0.2813  0.0016  0.8213
  441MOL0     H60808   3.381   2.846   8.711  1.9768 -1.1063  0.3765
  441MOL0     H60809   3.356   2.702   8.621  1.2415  0.3160  0.5979
  441MOL0     H60810   3.166   2.807   8.778  1.0696 -1.2251  0.1624
  441MOL0     H60811   3.124   2.892   8.624  1.4739  0.9849  0.7951
  441MOL0     H60812   3.152   2.589   8.675 -1.4655 -1.9218 -0.5307
  441MOL0     H60813   3.007   2.672   8.700  1.8276  0.2704  2.5535
  441MOL0     H60814   3.032   2.755   8.448  2.7784 -1.1441 -0.8328
  441MOL0     H60815   3.116   2.603   8.436  1.4427 -0.9358  1.7047
  441MOL0     H60816   2.775   2.387   8.466  0.1595 -0.7052  0.1108
  441MOL0     H60817   2.566   2.272   8.244  1.0412  1.5477  0.1010
  441MOL0     H60818   2.675   2.193   8.375 -0.1082 -2.0587 -0.3476
  441MOL0     H60819   2.694   2.156   8.207  0.6409 -1.5765  2.5865
  441MOL0     H60820   2.862   2.269   7.712  0.6614 -3.4932 -0.8898
  441MOL0     H60821   2.785   2.128   7.537 -1.1799 -0.5668 -0.4171
  441MOL0     H60822   2.656   2.088   7.356 -0.9270  0.1640 -1.0515
  441MOL0     H60823   2.701   1.937   7.433  0.4244  0.4931 -1.1733
  441MOL0     H60824   2.487   1.840   7.352 -3.1788  0.0433 -0.8485
  441MOL0     H60825   2.457   1.987   7.260  0.7552  0.9844 -0.9339
  441MOL0     H60826   2.572   1.798   7.133 -0.2620  0.4629 -1.0804
  441MOL0     H60827   2.719   1.853   7.217  1.2767  3.0399 -0.9601
  441MOL0     H60828   2.628   2.088   7.124  5.1475 -0.0421  1.4987
  441MOL0     H60829   2.564   1.994   6.991  0.8094 -0.4129 -1.9076
  441MOL0     H60830   2.864   2.006   7.073  1.8984  1.3719 -2.2531
  441MOL0     H60831   2.793   1.920   6.937 -0.3369  1.5211 -1.7222
  441MOL0     H60832   2.775   2.215   6.966  4.6158  2.0868 -0.2376
  441MOL0     H60833   2.704   2.114   6.833  0.1180  0.7440  1.3948
  441MOL0     H60834   2.904   2.116   6.733  2.1445 -2.6608 -0.5511
  441MOL0     H60835   2.972   2.022   6.866  1.8979 -0.0965 -2.1318
  441MOL0     H60836   3.047   2.190   6.997 -0.7614  0.2547 -0.5735
  441MOL0     H60837   2.984   2.321   6.904  5.3475  2.2462  0.5983
  441MOL0     H60838   2.398   2.123   7.703  0.9874 -0.3374 -0.4811
  441MOL0     H60839   2.464   2.285   7.883 -0.0627 -1.7466 -0.7093
  441MOL0     H60840   2.941   2.562   8.039 -0.0769  0.9991  0.2586
  441MOL0     H60841   2.999   2.670   8.232 -2.2978  0.3469 -2.8596
  441MOL0     H60842   4.077   3.188   9.067 -0.9999 -2.0349  0.2860
  441MOL0     H60843   4.296   3.247   9.180  0.4740  0.4919 -0.7871
  441MOL0     H60844   4.849   3.087   8.971  1.9270 -1.9438 -0.6004
  441MOL0     H60845   5.072   3.206   8.998  0.3603 -0.8087 -0.2344
  441MOL0     H60846   5.291   3.279   9.323  2.7169  3.5784 -0.2577
  441MOL0     H60847   5.233   3.173   9.212 -1.2180 -0.9603 -3.7880
  441MOL0     H60848   5.338   3.423   9.077  0.9843  0.4065 -1.2195
  441MOL0     H60849   5.353   3.242   9.042  2.6379 -1.3354  1.1951
  441MOL0     H60850   5.505   3.397   9.244 -2.3136  0.1533  0.1437
  441MOL0     H60851   5.483   3.217   9.252  1.8417 -1.3148 -0.9791
  441MOL0     H60852   5.593   3.213   9.004  2.9445 -2.6644  0.1824
  441MOL0     H60853   5.681   3.222   9.145  0.5614  1.2314  1.4590
  441MOL0     H60854   5.663   3.608   8.924 -1.1565 -0.7620  0.6511
  441MOL0     H60855   4.910   3.379   9.366 -0.5850  0.5609  0.0757
  441MOL0     H60856   4.720   3.274   9.475 -3.6065 -0.3456  1.6346
  441MOL0     H60857   4.620   3.309   9.337  0.8268 -1.2345 -0.4643
  441MOL0     H60858   4.638   3.140   9.394 -0.7150 -0.1881  1.3748
  442MOL0     O60859   6.065   1.587   5.932 -0.1767 -0.2899  0.5313
  442MOL0     C60860   6.052   1.662   6.026 -0.0793 -0.2920 -1.6932
  442MOL0     O60861   5.927   1.696   6.084 -0.1636  0.1571  0.2876
  442MOL0     C60862   5.828   1.594   6.095 -0.2537  0.9693  0.2028
  442MOL0     C60863   5.696   1.625   6.099  0.2610  1.0343 -0.3903
  442MOL0     C60864   5.598   1.534   6.147  0.0250 -0.9691 -0.2031
  442MOL0     C60865   5.637   1.398   6.156  0.2056 -0.6639  0.3464
  442MOL0     O60866   5.550   1.304   6.205 -0.2218  0.2243 -0.3106
  442MOL0     C60867   5.404   1.325   6.181  0.9182  1.5836  0.3722
  442MOL0     C60868   5.348   1.365   6.314  0.0380 -0.3031 -0.6199
  442MOL0     C60869   5.197   1.389   6.293  0.7092 -0.1751  0.1582
  442MOL0     C60870   5.130   1.409   6.423 -0.2449  0.0279 -0.9383
  442MOL0     C60871   4.980   1.406   6.406 -0.4339 -0.2918 -0.5489
  442MOL0     C60872   4.918   1.546   6.434  0.0914  0.4334  0.1564
  442MOL0     C60873   4.765   1.540   6.430 -0.7142 -0.2148  0.3703
  442MOL0     C60874   4.723   1.470   6.305  0.9124 -1.1480  0.2777
  442MOL0     N60875   4.577   1.496   6.300 -0.3543 -0.0727 -0.2437
  442MOL0     C60876   4.480   1.433   6.373 -0.1388 -0.7094 -0.1301
  442MOL0     C60877   4.368   1.506   6.341  0.5315 -0.6372 -0.7542
  442MOL0     C60878   4.240   1.460   6.389 -0.2972  0.0797 -0.0206
  442MOL0     C60879   4.154   1.392   6.280  0.7713  0.0477  0.3779
  442MOL0     C60880   4.170   1.238   6.282 -0.7212  0.7130 -0.1990
  442MOL0     C60881   4.283   1.177   6.200  0.6329  0.1034 -0.1209
  442MOL0     O60882   4.308   1.258   6.082  0.1102 -0.5046 -0.6906
  442MOL0     C60883   4.438   1.269   6.047 -0.2603 -0.6542  0.5538
  442MOL0     C60884   4.479   1.395   5.986  0.3068  0.0571  0.7972
  442MOL0     C60885   4.614   1.415   5.944 -0.2911 -0.2808  0.5986
  442MOL0     C60886   4.651   1.544   5.883 -0.2265 -0.6325 -0.3456
  442MOL0     C60887   4.714   1.309   5.956 -0.3987  0.3551  0.1201
  442MOL0     C60888   4.853   1.300   5.903  0.3202 -0.6414 -1.0269
  442MOL0     O60889   4.927   1.186   5.940  0.0652 -0.2122  0.0932
  442MOL0     C60890   5.062   1.157   5.915  0.1270 -0.4543 -0.0391
  442MOL0     C60891   5.092   1.028   5.899 -0.0534 -0.7237  0.4685
  442MOL0     C60892   5.232   0.987   5.877 -0.0795 -0.6800 -0.9074
  442MOL0     C60893   5.334   1.078   5.876  0.4162  0.2610 -0.5358
  442MOL0     O60894   5.457   1.019   5.857  0.1745 -0.9977 -0.3112
  442MOL0     C60895   5.569   1.109   5.876 -0.4088 -0.2192  0.4284
  442MOL0     C60896   5.592   1.199   5.749 -0.4319  0.0720 -0.2175
  442MOL0     C60897   5.604   1.118   5.623 -0.4179 -0.1689  0.4342
  442MOL0     C60898   5.478   1.121   5.542 -0.2605 -0.5445  0.8465
  442MOL0     C60899   5.414   0.993   5.508  0.1151  0.6264 -1.4457
  442MOL0     C60900   5.296   1.012   5.422  0.3548 -0.3942 -0.6316
  442MOL0     C60901   5.202   0.903   5.435  0.4799  1.0274  0.9516
  442MOL0     C60902   5.089   0.926   5.329 -0.8878 -0.2575  0.3092
  442MOL0    Cl60903   5.000   0.776   5.292  0.0433  0.1788 -0.5742
  442MOL0     C60904   5.296   1.214   5.895  1.0846  0.5517 -0.7628
  442MOL0     C60905   5.162   1.252   5.898 -0.4043  0.2207 -0.0122
  442MOL0     O60906   4.897   1.397   5.840 -0.0710  0.8050 -0.3570
  442MOL0     C60907   4.659   1.188   6.000  0.1539  0.8648  0.5388
  442MOL0     C60908   4.528   1.165   6.035  0.0006 -0.2133  0.3599
  442MOL0     N60909   4.395   1.617   6.256 -0.0504 -0.9105  0.1069
  442MOL0     N60910   4.523   1.603   6.231  0.5508  0.7640 -0.8158
  442MOL0     C60911   5.770   1.358   6.135 -0.3531 -0.3032 -0.3651
  442MOL0     C60912   5.863   1.458   6.112  0.8760  0.3667  0.7067
  442MOL0     C60913   6.171   1.736   6.073  0.5491 -0.4557 -1.1686
  442MOL0     C60914   6.174   1.802   6.199 -1.1380  0.5662 -0.7476
  442MOL0     C60915   6.279   1.885   6.239  0.1639 -0.3590  0.3900
  442MOL0     C60916   6.388   1.904   6.154  0.1109 -1.0504 -0.8023
  442MOL0     O60917   6.482   1.989   6.182 -0.4770 -0.3407 -0.4535
  442MOL0     C60918   6.428   2.129   6.171 -0.3498  0.8739 -0.6381
  442MOL0     C60919   6.538   2.227   6.175  0.1034 -1.0376  0.2107
  442MOL0     C60920   6.604   2.249   6.308  0.1871 -0.8881  0.5839
  442MOL0     C60921   6.719   2.153   6.323 -0.3232  0.1953 -0.0300
  442MOL0     C60922   6.809   2.176   6.441  0.5548 -0.0942  0.4257
  442MOL0     C60923   6.895   2.191   6.514  0.3740  1.0234 -0.7056
  442MOL0     C60924   6.400   1.815   6.045 -0.3701  0.7220 -0.0137
  442MOL0     C60925   6.283   1.752   5.992 -0.6367  1.2052  0.5592
  442MOL0     C60926   6.291   1.706   5.850 -1.3232  0.3849 -0.1579
  442MOL0     H60927   5.679   1.732   6.105  1.4034  1.1933  4.1563
  442MOL0     H60928   5.497   1.571   6.162  0.0751 -1.5250  1.7933
  442MOL0     H60929   5.355   1.233   6.149 -2.9125  3.0259  1.5475
  442MOL0     H60930   5.378   1.397   6.103 -0.7273 -2.0831 -2.7835
  442MOL0     H60931   5.383   1.292   6.388  2.7161 -1.6210 -2.9785
  442MOL0     H60932   5.394   1.455   6.357  0.5873 -1.9767  2.5789
  442MOL0     H60933   5.192   1.478   6.229 -1.0179  0.4423  1.1068
  442MOL0     H60934   5.147   1.300   6.255 -1.1810 -0.9392  3.9713
  442MOL0     H60935   5.163   1.320   6.477  3.1489 -1.6270 -5.1280
  442MOL0     H60936   5.163   1.503   6.469  0.5231 -0.9547  0.5759
  442MOL0     H60937   4.933   1.346   6.484  0.6583 -0.5227 -0.0651
  442MOL0     H60938   4.961   1.353   6.312 -1.2993 -3.6277  1.3695
  442MOL0     H60939   4.958   1.596   6.523  1.6130 -0.8170  0.2201
  442MOL0     H60940   4.965   1.615   6.363  2.4416  2.4703  3.4200
  442MOL0     H60941   4.715   1.637   6.432 -0.1792  0.2141 -2.9390
  442MOL0     H60942   4.739   1.501   6.529 -1.8841  0.1343  0.2154
  442MOL0     H60943   4.781   1.520   6.227  1.1537 -1.2162  0.4110
  442MOL0     H60944   4.746   1.363   6.311  1.9958 -1.0590 -1.5064
  442MOL0     H60945   4.506   1.346   6.432 -0.7160 -1.1452 -0.5057
  442MOL0     H60946   4.198   1.555   6.423 -0.4463 -1.4544  4.8157
  442MOL0     H60947   4.240   1.402   6.482 -1.6234 -0.1878 -0.1636
  442MOL0     H60948   4.050   1.413   6.306  0.2566  0.9187 -2.1566
  442MOL0     H60949   4.166   1.444   6.185 -1.9290  1.7076  0.8268
  442MOL0     H60950   4.170   1.209   6.387 -2.0236  0.5682 -0.2250
  442MOL0     H60951   4.081   1.189   6.242  0.3681 -2.2572  0.7924
  442MOL0     H60952   4.373   1.184   6.263 -1.1622 -0.5351  2.7142
  442MOL0     H60953   4.279   1.070   6.178 -0.2655  0.3437 -1.1912
  442MOL0     H60954   4.410   1.479   5.981  1.5314  1.1383  1.5085
  442MOL0     H60955   4.680   1.523   5.779  2.5977  0.1572  0.2168
  442MOL0     H60956   4.735   1.588   5.936 -1.8426  1.2243  0.8382
  442MOL0     H60957   4.569   1.616   5.894  0.2712 -0.3370  1.7252
  442MOL0     H60958   5.017   0.951   5.917 -0.4389 -0.0008  2.1632
  442MOL0     H60959   5.260   0.883   5.876  3.6651  0.0695  1.8930
  442MOL0     H60960   5.568   1.175   5.963  0.5072 -0.1953  0.4325
  442MOL0     H60961   5.660   1.049   5.877  0.8022  1.1785 -3.6697
  442MOL0     H60962   5.509   1.271   5.752  1.7608  2.7797  3.0017
  442MOL0     H60963   5.685   1.255   5.761 -0.3420  0.2184 -1.4675
  442MOL0     H60964   5.629   1.017   5.657 -2.8430 -1.6691 -1.9065
  442MOL0     H60965   5.686   1.163   5.567 -1.6031 -0.4375 -1.6133
  442MOL0     H60966   5.504   1.175   5.450 -1.7019  0.6167  1.0665
  442MOL0     H60967   5.399   1.181   5.589 -2.7643 -1.0996 -2.2785
  442MOL0     H60968   5.488   0.920   5.472  2.0268  1.8598 -0.2274
  442MOL0     H60969   5.372   0.936   5.591 -1.7904  1.5328 -1.7478
  442MOL0     H60970   5.340   1.021   5.322  0.5861 -3.0219 -0.8360
  442MOL0     H60971   5.248   1.106   5.452 -3.1997 -1.9392 -0.8606
  442MOL0     H60972   5.164   0.886   5.537 -0.7732 -1.2689  0.1729
  442MOL0     H60973   5.257   0.813   5.408  0.7106  0.4733  3.0416
  442MOL0     H60974   5.135   0.948   5.232  0.1313  1.8319  1.2129
  442MOL0     H60975   5.026   1.005   5.371  0.8036  1.0729  0.4495
  442MOL0     H60976   5.363   1.299   5.904  0.7004  0.7713  0.0555
  442MOL0     H60977   5.131   1.356   5.900 -0.5239  0.2028 -0.6317
  442MOL0     H60978   4.720   1.100   6.009 -0.2414  0.6673  1.4299
  442MOL0     H60979   4.491   1.068   6.067  0.5013 -0.4375  0.2725
  442MOL0     H60980   5.803   1.260   6.166  2.6076  1.2839  2.1199
  442MOL0     H60981   5.963   1.425   6.138 -0.5637 -3.7085  1.8450
  442MOL0     H60982   6.095   1.782   6.271 -1.4488 -0.6164 -1.3689
  442MOL0     H60983   6.257   1.944   6.328  0.4781 -1.3963  1.1801
  442MOL0     H60984   6.382   2.145   6.073 -0.5324 -0.1825 -0.7367
  442MOL0     H60985   6.355   2.146   6.251 -1.2319 -1.4900 -0.8530
  442MOL0     H60986   6.490   2.316   6.136 -0.9358 -1.2888  0.8855
  442MOL0     H60987   6.609   2.202   6.095  1.1768  2.2695 -0.0115
  442MOL0     H60988   6.648   2.349   6.299 -0.3845 -0.5964  1.0059
  442MOL0     H60989   6.541   2.241   6.397 -2.5827  0.1319 -1.1280
  442MOL0     H60990   6.780   2.149   6.233 -0.2129 -0.5063  0.0693
  442MOL0     H60991   6.672   2.054   6.334 -2.1550  1.1105  0.7621
  442MOL0     H60992   6.978   2.200   6.581  1.2541 -0.1479 -1.5899
  442MOL0     H60993   6.490   1.822   5.985  0.5755  2.8080  1.5241
  442MOL0     H60994   6.299   1.598   5.841 -2.0148  0.3588 -0.4820
  442MOL0     H60995   6.207   1.734   5.787 -5.1220 -2.4983  3.1302
  442MOL0     H60996   6.381   1.753   5.808  0.5494 -0.0957  2.9422
  443MOL0     O60997  10.064   8.502   1.854  0.3071  0.1506 -0.1183
  443MOL0     C60998   9.950   8.509   1.898  0.2892  0.3177 -0.3297
  443MOL0     O60999   9.863   8.392   1.906 -0.4847 -0.5509  0.0761
  443MOL0     C61000   9.929   8.273   1.885 -0.4659 -0.0484  0.2503
  443MOL0     C61001   9.911   8.198   1.765  0.2739  0.0045  0.3217
  443MOL0     C61002   9.972   8.073   1.745  0.5148  0.3713  0.1614
  443MOL0     C61003  10.034   8.016   1.854 -0.5003  0.6206 -0.7165
  443MOL0     O61004  10.075   7.883   1.828  1.4881 -0.4192 -0.5617
  443MOL0     C61005  10.154   7.815   1.920  0.9493  0.4951  0.2404
  443MOL0     C61006  10.308   7.837   1.908  0.0696  0.5307  0.7308
  443MOL0     C61007  10.392   7.735   1.989  0.4146 -0.6377  0.3540
  443MOL0     C61008  10.395   7.599   1.922 -0.6364 -0.3581  0.6174
  443MOL0     C61009  10.451   7.494   2.014 -0.6016 -0.5129 -0.7851
  443MOL0     C61010  10.585   7.531   2.076 -0.4531 -0.4164 -0.7642
  443MOL0     C61011  10.636   7.405   2.149  0.3107  0.0036 -1.0381
  443MOL0     C61012  10.756   7.414   2.230 -0.6707  1.2770 -0.3556
  443MOL0     N61013  10.797   7.278   2.255  0.0997 -1.0592 -0.2718
  443MOL0     C61014  10.916   7.215   2.220  0.1072 -0.0690  0.7132
  443MOL0     C61015  10.900   7.085   2.259 -0.0582  0.8594  0.6621
  443MOL0     C61016  10.997   6.976   2.237 -0.4696  0.3118 -0.3306
  443MOL0     C61017  10.973   6.860   2.332  0.4461 -0.2012  0.0035
  443MOL0     C61018  10.979   6.878   2.486 -0.4925 -0.6677  0.2060
  443MOL0     C61019  11.129   6.901   2.515  0.0713 -0.6345  0.2754
  443MOL0     O61020  11.206   6.782   2.491 -0.0738 -0.8307  0.9251
  443MOL0     C61021  11.222   6.698   2.594  0.0065  0.2181  0.2500
  443MOL0     C61022  11.194   6.569   2.561 -0.2586  1.5337  0.2113
  443MOL0     C61023  11.210   6.457   2.645 -0.6316 -0.5358  0.3837
  443MOL0     C61024  11.164   6.321   2.599 -0.1378 -0.3906  0.1890
  443MOL0     C61025  11.263   6.481   2.778 -0.1167 -0.3451  0.4001
  443MOL0     C61026  11.299   6.375   2.877 -0.6019 -0.3526  0.0704
  443MOL0     O61027  11.267   6.246   2.848  0.0562 -0.1844 -0.6887
  443MOL0     C61028  11.338   6.153   2.923 -0.2255  0.0483  0.7959
  443MOL0     C61029  11.441   6.090   2.852 -0.5337  0.9322 -0.0692
  443MOL0     C61030  11.508   5.983   2.907 -0.1316  0.2906 -0.2802
  443MOL0     C61031  11.470   5.928   3.028 -0.9415  0.0389  0.1965
  443MOL0     O61032  11.531   5.822   3.082  0.4783 -0.2538  1.2711
  443MOL0     C61033  11.477   5.759   3.195 -0.0241  0.1581 -0.1520
  443MOL0     C61034  11.523   5.611   3.208  0.0318  0.3435 -0.6511
  443MOL0     C61035  11.518   5.527   3.077 -0.0241  0.0620  0.2787
  443MOL0     C61036  11.631   5.424   3.084 -0.8236  0.2469  0.0263
  443MOL0     C61037  11.621   5.298   2.990 -0.1757 -0.1712 -0.3901
  443MOL0     C61038  11.516   5.187   3.035 -0.2709 -0.2382  1.0265
  443MOL0     C61039  11.467   5.102   2.928 -0.1279 -0.3673  0.6424
  443MOL0     C61040  11.543   4.970   2.909  0.7048 -0.6548 -0.3500
  443MOL0    Cl61041  11.680   5.012   2.799  0.3142 -0.3924 -0.1664
  443MOL0     C61042  11.388   6.012   3.110 -0.7306  0.5370  1.0523
  443MOL0     C61043  11.315   6.122   3.055 -0.6608  0.1246 -2.0094
  443MOL0     O61044  11.358   6.412   2.980 -0.1326  0.1961 -0.0228
  443MOL0     C61045  11.288   6.617   2.813 -0.5027  0.5720  0.9213
  443MOL0     C61046  11.268   6.723   2.727 -0.7205  0.0406  0.1138
  443MOL0     N61047  10.776   7.075   2.310  0.2364  0.4838  1.0215
  443MOL0     N61048  10.716   7.190   2.317  0.1106  0.0154  0.8157
  443MOL0     C61049  10.057   8.093   1.973  0.5121 -0.2523 -0.8351
  443MOL0     C61050   9.997   8.219   2.000  0.2432 -0.5568 -0.5784
  443MOL0     C61051   9.896   8.638   1.934 -0.1257  0.6168 -0.1084
  443MOL0     C61052   9.763   8.642   1.976  0.4565  0.1945 -0.1716
  443MOL0     C61053   9.697   8.762   1.997  0.6505  0.5671 -0.2440
  443MOL0     C61054   9.763   8.886   1.993 -0.2571  0.0997  0.2867
  443MOL0     O61055   9.704   9.000   2.038 -0.2093  0.3745  0.6406
  443MOL0     C61056   9.721   9.031   2.177  0.0762 -0.2460 -0.4424
  443MOL0     C61057   9.634   9.158   2.200 -0.4918  0.1679 -0.6471
  443MOL0     C61058   9.666   9.274   2.104 -0.4987 -0.1979 -0.5369
  443MOL0     C61059   9.812   9.306   2.083  0.0288 -0.0956 -1.1518
  443MOL0     C61060   9.870   9.352   2.214 -0.0702  0.4580  0.8782
  443MOL0     C61061   9.914   9.393   2.318  0.2066  0.0957  0.3550
  443MOL0     C61062   9.903   8.879   1.958  0.2077 -0.3612  1.0679
  443MOL0     C61063   9.967   8.764   1.935 -0.5160  0.3266  1.1032
  443MOL0     C61064  10.115   8.778   1.896  0.4110 -0.2067  0.3893
  443MOL0     H61065   9.867   8.240   1.675  1.6992 -2.7157 -1.8244
  443MOL0     H61066   9.964   8.018   1.651 -2.9523  0.0235  0.5198
  443MOL0     H61067  10.130   7.710   1.903  3.9616 -0.2730  0.2125
  443MOL0     H61068  10.126   7.830   2.025 -5.4291 -0.4772 -0.9046
  443MOL0     H61069  10.349   7.824   1.807  1.7857  0.4650  1.3983
  443MOL0     H61070  10.324   7.941   1.938  1.6764  0.4044  0.4006
  443MOL0     H61071  10.492   7.778   1.991  0.2125 -0.1695  1.9649
  443MOL0     H61072  10.352   7.721   2.090 -4.2107 -3.9423 -1.5810
  443MOL0     H61073  10.290   7.574   1.900 -1.3949  3.6436 -1.2887
  443MOL0     H61074  10.456   7.602   1.831  0.8128 -2.0309  1.4920
  443MOL0     H61075  10.453   7.407   1.948 -1.0035  0.3841 -2.0159
  443MOL0     H61076  10.388   7.476   2.101  2.4417  3.6168  2.7205
  443MOL0     H61077  10.656   7.562   1.999 -0.4849  1.4885 -0.0785
  443MOL0     H61078  10.583   7.610   2.152  4.4425 -0.1711 -0.5955
  443MOL0     H61079  10.658   7.338   2.065 -0.1280 -1.9658  0.3388
  443MOL0     H61080  10.553   7.366   2.209  0.7264  0.4218 -0.1685
  443MOL0     H61081  10.842   7.451   2.173 -1.9369 -1.9601 -4.9057
  443MOL0     H61082  10.741   7.484   2.313 -2.8175  1.5895 -0.9620
  443MOL0     H61083  10.983   7.248   2.142 -0.7280 -1.6094 -0.7155
  443MOL0     H61084  11.089   7.033   2.253  1.5699 -2.1967 -2.2925
  443MOL0     H61085  11.004   6.940   2.134 -0.2402 -1.8486  0.3889
  443MOL0     H61086  10.875   6.815   2.314  0.5920  0.1813 -1.9592
  443MOL0     H61087  11.059   6.797   2.305  1.2929  1.4948 -1.4357
  443MOL0     H61088  10.920   6.962   2.523  1.8238  0.7801  0.8313
  443MOL0     H61089  10.938   6.787   2.530 -4.8848  0.4271 -1.1125
  443MOL0     H61090  11.180   6.986   2.469 -0.2996  0.4547  1.8024
  443MOL0     H61091  11.146   6.916   2.622 -1.1157  4.6028 -0.0198
  443MOL0     H61092  11.166   6.546   2.458 -1.8572 -1.6950  1.2377
  443MOL0     H61093  11.087   6.282   2.665  0.4042  0.3908  1.3180
  443MOL0     H61094  11.258   6.266   2.612 -0.1572 -0.2144  1.1980
  443MOL0     H61095  11.150   6.322   2.491  1.7261 -0.9237 -0.0874
  443MOL0     H61096  11.460   6.128   2.752 -0.2257 -0.2077 -0.4507
  443MOL0     H61097  11.580   5.942   2.836  0.8557  2.0737 -0.3528
  443MOL0     H61098  11.499   5.813   3.287 -0.6566 -0.7977  0.5792
  443MOL0     H61099  11.369   5.758   3.177 -0.1457  1.7162  0.3513
  443MOL0     H61100  11.626   5.623   3.243 -0.3854 -0.4381  0.9446
  443MOL0     H61101  11.481   5.553   3.290  1.1504  2.9286  1.9279
  443MOL0     H61102  11.533   5.584   2.985 -1.1883 -0.3772 -0.2044
  443MOL0     H61103  11.417   5.485   3.070  0.1423 -0.1254 -1.0946
  443MOL0     H61104  11.642   5.387   3.187 -0.0876  0.6800  0.1189
  443MOL0     H61105  11.724   5.479   3.065 -0.2944 -1.1792 -1.7396
  443MOL0     H61106  11.614   5.324   2.884 -2.6962 -3.5733 -1.2254
  443MOL0     H61107  11.719   5.249   2.994  0.6619  1.4010 -0.7831
  443MOL0     H61108  11.427   5.239   3.072 -0.6809 -0.0217 -0.2058
  443MOL0     H61109  11.549   5.131   3.122 -1.3087  1.3509  2.5209
  443MOL0     H61110  11.448   5.150   2.831 -2.1144 -0.3892  0.9866
  443MOL0     H61111  11.369   5.067   2.962  0.3077 -2.5433 -0.1723
  443MOL0     H61112  11.477   4.903   2.854  0.3456  1.7612 -3.1474
  443MOL0     H61113  11.579   4.928   3.003  1.9039  0.6763 -0.1796
  443MOL0     H61114  11.378   5.986   3.215  1.9922  0.9418  1.4824
  443MOL0     H61115  11.249   6.181   3.118  1.5943 -1.0600  1.8389
  443MOL0     H61116  11.337   6.646   2.906 -0.8325 -0.3915  1.4116
  443MOL0     H61117  11.292   6.820   2.770 -1.8645  0.3941 -0.0149
  443MOL0     H61118  10.120   8.068   2.058 -2.6745  0.9914  2.1372
  443MOL0     H61119  10.001   8.273   2.094 -1.4658  2.4091 -2.0624
  443MOL0     H61120   9.705   8.552   1.991  1.2754 -0.3637 -0.3035
  443MOL0     H61121   9.592   8.762   2.027  0.1494  0.6690 -1.8837
  443MOL0     H61122   9.677   8.945   2.228 -0.1304  0.5198  0.7233
  443MOL0     H61123   9.826   9.041   2.209 -0.9069  2.3575  2.5264
  443MOL0     H61124   9.628   9.189   2.304 -1.1174 -0.1260 -0.5917
  443MOL0     H61125   9.528   9.133   2.185 -0.4458 -1.5622  1.4004
  443MOL0     H61126   9.614   9.267   2.008 -1.5064 -0.5819  0.0157
  443MOL0     H61127   9.624   9.360   2.157  0.9347  1.6647 -2.2637
  443MOL0     H61128   9.830   9.389   2.014 -1.0660  0.8721 -0.3158
  443MOL0     H61129   9.872   9.218   2.058 -2.4009 -1.6834 -1.7853
  443MOL0     H61130   9.939   9.439   2.412 -1.1399  1.9888 -0.1654
  443MOL0     H61131   9.958   8.973   1.954  0.3932 -0.4898  0.5091
  443MOL0     H61132  10.179   8.703   1.943 -0.3166 -0.9088  0.2570
  443MOL0     H61133  10.126   8.769   1.788 -2.0020  1.0227 -0.0365
  443MOL0     H61134  10.162   8.870   1.932  0.5619 -0.5026  0.9583
  444MOL0     O61135   4.121   3.644   8.156 -0.1928  0.5845  0.2775
  444MOL0     C61136   4.141   3.692   8.271 -0.4518 -0.1598 -0.4508
  444MOL0     O61137   4.241   3.793   8.298  0.0729  0.0645 -1.0376
  444MOL0     C61138   4.326   3.834   8.197 -0.2518  0.3278 -0.0876
  444MOL0     C61139   4.330   3.977   8.178  0.5534  0.5458  0.3113
  444MOL0     C61140   4.409   4.031   8.075 -0.2186  0.2817 -0.3007
  444MOL0     C61141   4.487   3.946   7.991  0.7667 -0.0648 -0.3966
  444MOL0     O61142   4.563   3.995   7.890  0.5470 -0.6648  0.6209
  444MOL0     C61143   4.545   4.110   7.814 -0.0611  0.2931  0.7888
  444MOL0     C61144   4.586   4.090   7.664  0.1996 -0.7228 -0.0556
  444MOL0     C61145   4.741   4.109   7.652 -0.8149 -0.6103 -0.3344
  444MOL0     C61146   4.797   4.080   7.515 -0.7046 -0.1550  0.6787
  444MOL0     C61147   4.945   4.087   7.514 -0.0136 -0.4885 -0.4340
  444MOL0     C61148   5.004   4.228   7.485  1.1624 -0.4562 -0.4256
  444MOL0     C61149   4.987   4.264   7.338 -0.3739  0.3800  0.3727
  444MOL0     C61150   5.080   4.183   7.248  0.0823  0.5031  0.4429
  444MOL0     N61151   5.105   4.242   7.118 -0.0733 -0.3309 -0.0886
  444MOL0     C61152   5.208   4.328   7.087 -0.1116  0.1137  0.3023
  444MOL0     C61153   5.191   4.347   6.951  0.4940 -0.6089  0.2276
  444MOL0     C61154   5.282   4.441   6.876  0.1113 -0.2213  0.2179
  444MOL0     C61155   5.217   4.463   6.732 -0.7149 -0.9321 -0.4315
  444MOL0     C61156   5.313   4.544   6.645 -0.5952  1.0745 -0.4231
  444MOL0     C61157   5.318   4.698   6.674 -0.0138  0.0916 -0.5080
  444MOL0     O61158   5.403   4.726   6.785 -0.2296  0.0187 -0.2705
  444MOL0     C61159   5.523   4.789   6.774  0.1919  0.4696  0.1858
  444MOL0     C61160   5.566   4.868   6.663 -0.7873  0.6691 -0.4372
  444MOL0     C61161   5.692   4.929   6.660  0.1259  0.6014  0.0302
  444MOL0     C61162   5.709   5.016   6.536 -1.0329 -0.0037 -0.5286
  444MOL0     C61163   5.778   4.912   6.776 -0.0522  0.3468  0.1005
  444MOL0     C61164   5.894   5.005   6.794 -0.6095 -0.6718 -0.0504
  444MOL0     O61165   5.875   5.108   6.891 -0.6507  0.2256  0.6733
  444MOL0     C61166   5.973   5.201   6.926  0.3822  0.2243 -0.2749
  444MOL0     C61167   6.105   5.169   6.956  0.1635 -0.4345 -0.4330
  444MOL0     C61168   6.195   5.270   6.995 -0.2171 -0.1494 -1.5596
  444MOL0     C61169   6.146   5.401   7.018 -0.8325  0.5661 -0.3626
  444MOL0     O61170   6.219   5.495   7.087  1.6132  0.0433  0.2682
  444MOL0     C61171   6.360   5.492   7.087 -0.0234 -0.4048 -0.4534
  444MOL0     C61172   6.411   5.442   7.216  0.2570  0.2789  0.3943
  444MOL0     C61173   6.388   5.552   7.320  0.0798 -0.2204 -0.5578
  444MOL0     C61174   6.505   5.663   7.329 -0.4799 -0.0834 -0.2339
  444MOL0     C61175   6.550   5.689   7.470  0.3473  0.9865  0.8799
  444MOL0     C61176   6.443   5.726   7.574  0.5656  0.3579  0.0531
  444MOL0     C61177   6.397   5.866   7.544 -0.0311 -0.3345 -0.1168
  444MOL0     C61178   6.317   5.915   7.668 -0.7024 -1.6093  0.1714
  444MOL0    Cl61179   6.416   5.983   7.797  0.4080 -0.3133  0.1001
  444MOL0     C61180   6.015   5.429   6.994 -0.1216 -0.1615 -0.3545
  444MOL0     C61181   5.928   5.332   6.943 -0.3929  0.4570  0.5254
  444MOL0     O61182   5.995   4.975   6.735 -0.0415  0.8612 -0.8102
  444MOL0     C61183   5.739   4.826   6.883  0.2140 -0.4547  0.7773
  444MOL0     C61184   5.609   4.765   6.874  0.0561 -0.1351 -1.3982
  444MOL0     N61185   5.091   4.264   6.902 -0.5120  0.2552  0.6048
  444MOL0     N61186   5.049   4.199   7.001 -0.2132  0.1689  0.1705
  444MOL0     C61187   4.482   3.814   8.017  0.3294 -0.3323  0.3579
  444MOL0     C61188   4.404   3.754   8.115 -0.5014 -0.0986  0.2348
  444MOL0     C61189   4.073   3.645   8.387 -0.8703 -0.1098 -0.1343
  444MOL0     C61190   4.086   3.719   8.510  0.6164 -0.1342 -0.1590
  444MOL0     C61191   4.016   3.685   8.627 -0.7967 -0.7739 -0.4257
  444MOL0     C61192   3.927   3.578   8.629 -1.0152  0.4246 -0.2332
  444MOL0     O61193   3.860   3.535   8.742 -0.8036 -0.0371 -0.5119
  444MOL0     C61194   3.833   3.637   8.848  0.4972  0.5964  0.4178
  444MOL0     C61195   3.725   3.587   8.938 -0.0244  0.3712  0.5337
  444MOL0     C61196   3.585   3.566   8.875  1.3983 -0.8538 -0.7660
  444MOL0     C61197   3.502   3.702   8.879 -0.9264  0.4713  0.5636
  444MOL0     C61198   3.519   3.785   8.764 -1.2251 -0.0089 -0.8826
  444MOL0     C61199   3.510   3.871   8.682 -0.2890  1.0425 -0.1216
  444MOL0     C61200   3.919   3.502   8.513 -0.0165  0.1744 -0.4219
  444MOL0     C61201   3.987   3.530   8.396 -0.7021  0.0000  0.6008
  444MOL0     C61202   3.962   3.430   8.285  0.1935  0.9433 -0.2452
  444MOL0     H61203   4.271   4.042   8.241 -0.1037  2.1632 -1.8607
  444MOL0     H61204   4.415   4.139   8.075 -2.8430  0.4960  0.2748
  444MOL0     H61205   4.595   4.198   7.856 -1.0368  1.4056 -0.2843
  444MOL0     H61206   4.440   4.141   7.820 -0.5502 -1.4360  2.0270
  444MOL0     H61207   4.544   3.995   7.632 -1.2205 -1.3322  3.1863
  444MOL0     H61208   4.540   4.172   7.607 -2.2254 -1.9499  0.0287
  444MOL0     H61209   4.771   4.209   7.685  0.3138 -1.2550  0.6894
  444MOL0     H61210   4.784   4.039   7.724 -0.6607 -0.3111 -0.1314
  444MOL0     H61211   4.778   3.973   7.504  0.1871 -0.5416  2.4579
  444MOL0     H61212   4.749   4.129   7.429  0.8011 -1.0504 -0.7130
  444MOL0     H61213   4.986   4.018   7.440 -0.4122 -0.3500 -0.7869
  444MOL0     H61214   4.995   4.053   7.605  2.5615 -1.2981 -2.0462
  444MOL0     H61215   4.946   4.301   7.542  1.4451  0.7637 -1.6659
  444MOL0     H61216   5.106   4.228   7.524 -0.5439  0.7027  4.8400
  444MOL0     H61217   5.024   4.365   7.319  3.4535 -1.1362 -1.5083
  444MOL0     H61218   4.887   4.251   7.297 -0.3564 -1.0811  0.7327
  444MOL0     H61219   5.179   4.172   7.293  0.4132 -0.7243 -0.5115
  444MOL0     H61220   5.047   4.079   7.234  2.8501 -1.1141  3.9831
  444MOL0     H61221   5.273   4.381   7.157 -0.6466  0.9779  0.1593
  444MOL0     H61222   5.379   4.391   6.870 -0.1595 -0.6559 -0.5423
  444MOL0     H61223   5.291   4.542   6.918  0.2797  0.6044 -1.7317
  444MOL0     H61224   5.203   4.361   6.694 -1.5983 -0.7730 -0.5397
  444MOL0     H61225   5.121   4.511   6.748  0.6347  1.3220  1.5371
  444MOL0     H61226   5.409   4.493   6.659 -2.3443 -2.2678  0.6744
  444MOL0     H61227   5.293   4.529   6.538  2.0784 -0.3220 -0.8135
  444MOL0     H61228   5.361   4.744   6.584  5.3094  1.0967  2.1944
  444MOL0     H61229   5.218   4.736   6.695 -0.1102  0.6204 -1.7809
  444MOL0     H61230   5.495   4.897   6.587 -2.3567 -2.5166 -0.3524
  444MOL0     H61231   5.645   5.104   6.546 -2.3592 -1.0036  0.0560
  444MOL0     H61232   5.688   4.967   6.441 -1.1649  0.8748 -0.9671
  444MOL0     H61233   5.815   5.039   6.522 -1.6348  2.4144 -1.5808
  444MOL0     H61234   6.129   5.064   6.945 -0.4248 -0.7714  1.1705
  444MOL0     H61235   6.294   5.251   7.035  0.7595 -2.2348 -4.6043
  444MOL0     H61236   6.400   5.422   7.012 -1.2669 -0.4534 -1.0950
  444MOL0     H61237   6.394   5.590   7.052 -2.1808  0.4337 -0.3084
  444MOL0     H61238   6.352   5.353   7.236  2.3468 -0.7222  2.4578
  444MOL0     H61239   6.513   5.401   7.215 -0.8540 -2.7518  1.0559
  444MOL0     H61240   6.382   5.503   7.417  1.5911 -0.2349 -0.4406
  444MOL0     H61241   6.293   5.600   7.296  1.2749  2.0065 -1.1048
  444MOL0     H61242   6.474   5.757   7.284  0.5604  2.2255  3.4753
  444MOL0     H61243   6.591   5.633   7.269  0.5927  0.9303  0.7605
  444MOL0     H61244   6.599   5.597   7.501 -0.5293 -0.1083 -0.8375
  444MOL0     H61245   6.617   5.775   7.461 -1.7919  2.9951  2.6420
  444MOL0     H61246   6.479   5.724   7.677 -3.8156 -0.1085  1.7706
  444MOL0     H61247   6.365   5.650   7.570  2.9045 -2.1932 -0.6579
  444MOL0     H61248   6.336   5.877   7.454 -0.7197  1.4806  0.5136
  444MOL0     H61249   6.482   5.933   7.525 -0.5080  0.0350 -1.0351
  444MOL0     H61250   6.260   5.826   7.700 -1.2797 -1.7149 -1.0923
  444MOL0     H61251   6.238   5.975   7.623 -0.1363 -1.0645 -0.1091
  444MOL0     H61252   5.978   5.528   7.018 -0.9156 -0.9925  2.1370
  444MOL0     H61253   5.825   5.356   6.921 -0.3036 -0.0096 -0.4497
  444MOL0     H61254   5.791   4.832   6.978 -1.8876  0.9997  1.9328
  444MOL0     H61255   5.579   4.696   6.952  0.7696 -1.1296 -1.9790
  444MOL0     H61256   4.532   3.735   7.962 -0.0529  0.5246 -1.3061
  444MOL0     H61257   4.416   3.647   8.117  2.3879  0.1426  0.9761
  444MOL0     H61258   4.154   3.802   8.521 -0.2610  0.6877 -0.7126
  444MOL0     H61259   4.026   3.745   8.716  1.7377 -2.5314  0.6020
  444MOL0     H61260   3.922   3.660   8.908  0.5160 -0.3323  0.7644
  444MOL0     H61261   3.791   3.727   8.802 -0.3257 -1.3572 -2.9895
  444MOL0     H61262   3.712   3.649   9.027 -3.8107  1.2146 -0.4348
  444MOL0     H61263   3.747   3.496   8.995  0.0199 -0.6138 -1.0028
  444MOL0     H61264   3.591   3.533   8.771 -4.2430  1.2436 -2.0963
  444MOL0     H61265   3.527   3.501   8.940  2.7179 -0.7394  0.5928
  444MOL0     H61266   3.532   3.760   8.967  1.5139  1.0919 -0.5988
  444MOL0     H61267   3.397   3.670   8.878 -0.5666 -0.7802  1.6168
  444MOL0     H61268   3.503   3.954   8.614  0.0063 -0.0249 -1.5103
  444MOL0     H61269   3.868   3.407   8.523  1.7202 -0.7630 -0.0866
  444MOL0     H61270   3.873   3.369   8.300  2.3091 -2.1906  0.4190
  444MOL0     H61271   3.974   3.467   8.183  2.5126  2.3529  0.4509
  444MOL0     H61272   4.047   3.361   8.290 -0.1559  0.5649  0.5583
  445MOL0     O61273   0.502   8.035   2.104  0.2558 -0.0450 -0.0194
  445MOL0     C61274   0.402   8.055   2.169 -0.4043  0.0222 -1.6320
  445MOL0     O61275   0.288   7.974   2.169 -0.1804  0.1726 -0.3177
  445MOL0     C61276   0.277   7.860   2.094 -0.4794  0.1770  1.2527
  445MOL0     C61277   0.193   7.856   1.979  0.5907 -0.7721 -1.0660
  445MOL0     C61278   0.169   7.737   1.911  0.1845  0.4465  0.5665
  445MOL0     C61279   0.242   7.619   1.934  0.8991 -0.8591  0.2882
  445MOL0     O61280   0.241   7.513   1.850 -0.0633  0.1428 -0.4545
  445MOL0     C61281   0.127   7.486   1.766 -0.3484  0.9982 -0.0593
  445MOL0     C61282   0.168   7.543   1.628  0.1793  0.4104 -0.4592
  445MOL0     C61283   0.048   7.537   1.539  0.7751  0.4699 -0.0583
  445MOL0     C61284   0.088   7.595   1.406  0.8593 -0.8348  0.7386
  445MOL0     C61285   0.031   7.512   1.294  0.7494  1.2362  0.2405
  445MOL0     C61286   0.012   7.601   1.165 -0.0761  0.7797 -0.2951
  445MOL0     C61287  -0.007   7.509   1.041  0.6253 -0.2455  0.7392
  445MOL0     C61288  -0.136   7.419   1.045 -0.5175 -0.4142 -0.2855
  445MOL0     N61289  -0.128   7.295   1.127  0.2089 -0.7841  0.8081
  445MOL0     C61290  -0.034   7.189   1.147  0.0092  0.1597 -0.1583
  445MOL0     C61291  -0.088   7.112   1.251 -0.4661  0.0063 -0.0273
  445MOL0     C61292  -0.023   6.992   1.302  1.5225  0.2322  0.4250
  445MOL0     C61293   0.088   7.024   1.393 -0.6218  0.2873 -0.5923
  445MOL0     C61294   0.052   7.120   1.510 -0.1419  0.1858 -0.0216
  445MOL0     C61295  -0.066   7.064   1.592  0.0423  0.6667 -0.2702
  445MOL0     O61296  -0.087   7.120   1.724 -0.9723  0.6762  1.0611
  445MOL0     C61297  -0.219   7.138   1.755 -0.2283 -0.1688 -0.6671
  445MOL0     C61298  -0.304   7.034   1.746  0.6857  0.2301 -0.0080
  445MOL0     C61299  -0.433   7.045   1.785  0.1872 -0.1325  1.2182
  445MOL0     C61300  -0.501   6.912   1.777  1.0891 -0.9076  0.1662
  445MOL0     C61301  -0.490   7.168   1.815  0.8411 -1.3131  0.5135
  445MOL0     C61302  -0.638   7.175   1.843 -0.1385 -1.2771  0.8959
  445MOL0     O61303  -0.730   7.100   1.770 -0.5786  0.1169  0.5774
  445MOL0     C61304  -0.859   7.097   1.800 -0.9306 -0.0866 -0.5831
  445MOL0     C61305  -0.910   7.067   1.924  1.2171 -0.4224  0.5446
  445MOL0     C61306  -1.059   7.052   1.938 -1.1077 -0.6562 -0.1610
  445MOL0     C61307  -1.146   7.070   1.834 -0.0066 -0.8443  0.1198
  445MOL0     O61308  -1.281   7.066   1.853 -0.5277  0.3415  0.1019
  445MOL0     C61309  -1.370   7.134   1.759 -0.8460 -0.2353 -0.1844
  445MOL0     C61310  -1.490   7.184   1.843  0.4968  0.3990 -0.2954
  445MOL0     C61311  -1.602   7.231   1.752  0.3381 -0.4396  0.5495
  445MOL0     C61312  -1.575   7.377   1.700  0.1986 -0.0874 -0.6457
  445MOL0     C61313  -1.604   7.376   1.555 -1.1518 -0.3744 -0.7659
  445MOL0     C61314  -1.651   7.510   1.491  0.2315  0.6225 -0.6406
  445MOL0     C61315  -1.563   7.631   1.524 -0.0710  0.1625 -0.1113
  445MOL0     C61316  -1.614   7.758   1.437 -1.1716 -0.1928 -0.6218
  445MOL0    Cl61317  -1.492   7.894   1.453 -0.1478 -0.2376  0.4326
  445MOL0     C61318  -1.081   7.097   1.708  0.1469 -0.0126  0.0769
  445MOL0     C61319  -0.942   7.110   1.687  0.8555 -0.0238 -0.1885
  445MOL0     O61320  -0.669   7.255   1.932 -0.1662 -0.3266 -1.0732
  445MOL0     C61321  -0.412   7.282   1.820 -0.6800  0.7160  0.2609
  445MOL0     C61322  -0.277   7.263   1.786 -0.3447 -0.0286  0.4739
  445MOL0     N61323  -0.212   7.171   1.291  0.0269  0.8149  0.2161
  445MOL0     N61324  -0.227   7.273   1.220  1.1914 -0.1203 -0.5134
  445MOL0     C61325   0.331   7.623   2.034 -0.9682 -0.6584 -0.4975
  445MOL0     C61326   0.349   7.740   2.112 -1.2398  1.4821 -0.4853
  445MOL0     C61327   0.421   8.164   2.269  0.0989  0.3634  1.2697
  445MOL0     C61328   0.450   8.285   2.212 -0.4250  0.9721  0.3270
  445MOL0     C61329   0.476   8.397   2.292 -0.0675 -0.0715 -0.3022
  445MOL0     C61330   0.465   8.385   2.432  0.5909  0.0695  0.2170
  445MOL0     O61331   0.502   8.488   2.522  1.0017  1.3173 -0.1869
  445MOL0     C61332   0.530   8.613   2.469  0.1753  0.3671 -0.7619
  445MOL0     C61333   0.544   8.721   2.576  0.7764 -0.7213 -0.0480
  445MOL0     C61334   0.404   8.793   2.620  0.4742 -0.7126 -0.1791
  445MOL0     C61335   0.431   8.889   2.732  0.5997 -0.3399 -0.3538
  445MOL0     C61336   0.485   9.020   2.698  0.0139  0.3937  0.3392
  445MOL0     C61337   0.531   9.125   2.668  0.0289 -0.6528 -0.2703
  445MOL0     C61338   0.431   8.263   2.486  0.3691  0.0270 -0.1828
  445MOL0     C61339   0.422   8.146   2.410 -0.7087 -0.5578  0.2600
  445MOL0     C61340   0.408   8.010   2.482  0.3037  0.4183 -0.5094
  445MOL0     H61341   0.140   7.951   1.966  1.8001 -0.1799 -1.7865
  445MOL0     H61342   0.090   7.743   1.838 -1.3279 -2.2543  1.8404
  445MOL0     H61343   0.040   7.542   1.801  1.7055  2.9556  2.2598
  445MOL0     H61344   0.104   7.379   1.771 -0.4666  1.0958  2.5839
  445MOL0     H61345   0.206   7.645   1.642  1.8840  0.0303 -1.9678
  445MOL0     H61346   0.254   7.484   1.594  0.4027 -0.9082  2.1310
  445MOL0     H61347   0.015   7.433   1.531  2.8854 -0.1799 -0.9756
  445MOL0     H61348  -0.032   7.597   1.582  0.2606 -0.4369  0.2856
  445MOL0     H61349   0.040   7.693   1.397 -1.1403 -1.9628 -4.1580
  445MOL0     H61350   0.197   7.590   1.408  0.8836 -6.0449  0.5857
  445MOL0     H61351  -0.065   7.466   1.320  1.4048 -0.9179 -0.9911
  445MOL0     H61352   0.090   7.426   1.264  0.0481  0.6324  0.5592
  445MOL0     H61353  -0.077   7.662   1.181 -0.3221  0.3215  0.1111
  445MOL0     H61354   0.105   7.658   1.163  0.0883  0.8968  3.2689
  445MOL0     H61355   0.075   7.439   1.022  1.3995  1.4948 -3.2276
  445MOL0     H61356  -0.016   7.575   0.955  2.5298 -3.3849 -2.0797
  445MOL0     H61357  -0.227   7.473   1.074  0.1126  1.1548 -1.0978
  445MOL0     H61358  -0.151   7.395   0.939  0.0512  0.7916 -0.6585
  445MOL0     H61359   0.055   7.155   1.094  0.2673 -1.2384  1.1025
  445MOL0     H61360   0.009   6.938   1.212 -1.1363  0.6612 -0.8945
  445MOL0     H61361  -0.097   6.923   1.345 -1.3478  1.5438 -2.0101
  445MOL0     H61362   0.145   6.942   1.437 -3.4241 -1.3948  0.1384
  445MOL0     H61363   0.169   7.075   1.339  2.8064 -2.9343  1.0563
  445MOL0     H61364   0.143   7.116   1.570 -2.2035 -1.0745  3.2633
  445MOL0     H61365   0.025   7.221   1.477 -1.1679  0.3631  1.2681
  445MOL0     H61366  -0.158   7.053   1.533  0.9285  1.2797 -1.8312
  445MOL0     H61367  -0.049   6.957   1.607 -0.1837  0.5744 -0.6586
  445MOL0     H61368  -0.253   6.940   1.729  0.4514 -0.2968  1.9888
  445MOL0     H61369  -0.586   6.914   1.847  1.3871  1.8927  0.5657
  445MOL0     H61370  -0.426   6.839   1.807  0.7613 -1.7276 -0.9246
  445MOL0     H61371  -0.544   6.883   1.680 -0.4500 -2.5616  1.2649
  445MOL0     H61372  -0.858   7.031   2.012 -1.9266  0.7874  3.1029
  445MOL0     H61373  -1.097   7.021   2.035 -2.2527 -1.2375 -0.7751
  445MOL0     H61374  -1.325   7.223   1.714  0.5137 -1.3628 -1.1284
  445MOL0     H61375  -1.398   7.062   1.682 -3.9772 -1.2111  1.6569
  445MOL0     H61376  -1.544   7.092   1.870 -0.2319  1.1658  0.9220
  445MOL0     H61377  -1.462   7.243   1.930 -2.3002  1.6995 -0.1842
  445MOL0     H61378  -1.697   7.224   1.806  1.1960 -0.4520  2.0936
  445MOL0     H61379  -1.607   7.162   1.667  1.2408  2.4513 -2.0715
  445MOL0     H61380  -1.472   7.404   1.724 -0.4561 -0.5017  3.3476
  445MOL0     H61381  -1.636   7.447   1.759 -0.5682 -0.1585 -1.3328
  445MOL0     H61382  -1.509   7.341   1.513 -0.5259 -1.4178  1.3878
  445MOL0     H61383  -1.689   7.311   1.534 -2.5728  0.9956  0.4736
  445MOL0     H61384  -1.749   7.523   1.536 -0.2179 -2.3937 -0.5820
  445MOL0     H61385  -1.653   7.497   1.382  2.6190 -0.4614 -0.6281
  445MOL0     H61386  -1.465   7.614   1.480 -1.0421  2.6293 -3.6037
  445MOL0     H61387  -1.547   7.641   1.632  0.5799 -2.1856  0.0744
  445MOL0     H61388  -1.714   7.796   1.462 -0.6541  0.6053  0.3307
  445MOL0     H61389  -1.630   7.724   1.335 -2.3899 -0.6827 -0.2925
  445MOL0     H61390  -1.142   7.094   1.618 -3.3113  0.0008  2.2235
  445MOL0     H61391  -0.891   7.102   1.591 -0.0197 -1.8343 -0.5511
  445MOL0     H61392  -0.439   7.380   1.860 -0.9276  1.0728 -0.7516
  445MOL0     H61393  -0.216   7.353   1.786 -1.8008  1.1459 -3.0245
  445MOL0     H61394   0.387   7.536   2.067 -1.7782 -1.0613 -0.1634
  445MOL0     H61395   0.415   7.731   2.198 -0.3102 -1.2017 -1.3718
  445MOL0     H61396   0.481   8.291   2.108  2.9440  0.6510  1.2160
  445MOL0     H61397   0.500   8.490   2.242 -0.2492 -0.3472 -0.9151
  445MOL0     H61398   0.625   8.597   2.418  0.5145 -2.2217  0.5010
  445MOL0     H61399   0.453   8.645   2.399 -0.8524 -0.9990 -0.3039
  445MOL0     H61400   0.630   8.779   2.539  1.2559 -2.2777 -1.4988
  445MOL0     H61401   0.581   8.674   2.668  2.6699  0.3109 -0.2144
  445MOL0     H61402   0.376   8.838   2.524 -0.8197  0.6053  0.7689
  445MOL0     H61403   0.325   8.721   2.644 -1.4739  1.3863 -0.0058
  445MOL0     H61404   0.497   8.836   2.801  0.2391 -1.8303 -1.0864
  445MOL0     H61405   0.339   8.919   2.784 -0.8389 -2.2624 -1.6159
  445MOL0     H61406   0.572   9.224   2.656  0.9868 -0.9339  0.5122
  445MOL0     H61407   0.413   8.257   2.593  1.2982  0.1556 -0.0120
  445MOL0     H61408   0.479   7.938   2.440  2.0051  0.5078  2.0116
  445MOL0     H61409   0.420   8.004   2.590  0.1137  0.6112 -0.4752
  445MOL0     H61410   0.307   7.971   2.467  0.5908 -1.0206  0.9886
  446MOL0     O61411   7.614   1.806   7.499  0.7145 -0.1146  0.7943
  446MOL0     C61412   7.646   1.906   7.442  0.4705 -0.8658  0.3563
  446MOL0     O61413   7.695   2.025   7.506  0.2462  0.3146 -0.1944
  446MOL0     C61414   7.674   2.037   7.643 -0.9428  0.0777  0.0228
  446MOL0     C61415   7.553   1.999   7.700  0.8119 -0.2365 -0.1082
  446MOL0     C61416   7.535   2.000   7.837  0.0347  0.5915 -1.0113
  446MOL0     C61417   7.637   2.042   7.917 -0.1521 -0.3342  0.4895
  446MOL0     O61418   7.607   2.037   8.056 -0.3253 -0.1135  0.3649
  446MOL0     C61419   7.694   2.043   8.166 -0.0146 -0.8699 -0.0551
  446MOL0     C61420   7.608   2.065   8.296  0.4190 -0.3761 -0.3855
  446MOL0     C61421   7.574   1.925   8.366  0.2417  1.0764  0.8599
  446MOL0     C61422   7.677   1.862   8.459 -0.2623 -0.1696  0.0596
  446MOL0     C61423   7.625   1.720   8.507  0.2521 -0.2502  0.3432
  446MOL0     C61424   7.715   1.658   8.623  0.0850  0.0127  0.5603
  446MOL0     C61425   7.826   1.586   8.546 -0.5527  0.4209  0.9073
  446MOL0     C61426   7.915   1.518   8.652  1.2537  0.4196  0.5044
  446MOL0     N61427   7.840   1.398   8.717 -0.0983 -0.5978  0.5957
  446MOL0     C61428   7.822   1.275   8.660  0.5496 -0.1012 -0.4511
  446MOL0     C61429   7.748   1.204   8.749  0.8022 -0.2930 -0.3228
  446MOL0     C61430   7.727   1.059   8.752  0.5337 -0.3075 -0.3760
  446MOL0     C61431   7.677   1.004   8.613 -0.8502  0.9041 -0.3467
  446MOL0     C61432   7.526   1.029   8.592 -0.1484  0.2864 -0.0151
  446MOL0     C61433   7.492   1.009   8.443  0.1478 -0.1447  0.3342
  446MOL0     O61434   7.372   1.071   8.385  0.2851  0.2364  0.2311
  446MOL0     C61435   7.254   1.001   8.416 -0.0096  0.3154 -0.4292
  446MOL0     C61436   7.227   0.872   8.451  0.4415 -0.4069 -0.1851
  446MOL0     C61437   7.105   0.825   8.508  0.7292  0.0728  0.3596
  446MOL0     C61438   7.107   0.674   8.525 -0.4705  0.1915 -0.1648
  446MOL0     C61439   6.998   0.915   8.530  0.1065 -0.2694 -0.7701
  446MOL0     C61440   6.870   0.883   8.597  0.6218  1.0319  0.3463
  446MOL0     O61441   6.798   0.776   8.543  0.3143  0.2314  0.1419
  446MOL0     C61442   6.666   0.767   8.582 -0.5944  0.4330  0.8983
  446MOL0     C61443   6.563   0.810   8.500 -0.7057  0.2899 -0.6849
  446MOL0     C61444   6.433   0.787   8.547 -0.2363 -0.1844  0.2912
  446MOL0     C61445   6.409   0.706   8.655  0.2438  0.2535 -0.4447
  446MOL0     O61446   6.277   0.684   8.686  0.0202 -0.0341  0.4326
  446MOL0     C61447   6.240   0.587   8.779  0.6624 -0.5180  0.0114
  446MOL0     C61448   6.092   0.574   8.779 -1.3920  0.9031  0.1270
  446MOL0     C61449   6.026   0.497   8.894 -0.0340 -0.4471  0.3327
  446MOL0     C61450   5.878   0.451   8.863  0.2595  0.3952 -0.4901
  446MOL0     C61451   5.818   0.381   8.982 -0.8233  0.1631 -0.2873
  446MOL0     C61452   5.689   0.308   8.956 -0.0691 -0.0040  0.0475
  446MOL0     C61453   5.686   0.191   8.844  0.3128  0.5370 -0.4792
  446MOL0     C61454   5.810   0.083   8.858  0.8678 -0.2290 -0.2056
  446MOL0    Cl61455   5.779  -0.067   8.762  0.1834 -0.3098  0.3457
  446MOL0     C61456   6.513   0.663   8.727  0.7414 -0.3707 -0.2292
  446MOL0     C61457   6.643   0.683   8.687  0.1403  1.1754 -0.3498
  446MOL0     O61458   6.843   0.964   8.679 -0.0574  0.0092 -0.3102
  446MOL0     C61459   7.020   1.054   8.495  0.8967  0.1052 -0.2484
  446MOL0     C61460   7.142   1.093   8.434  0.1658  0.8587  0.4819
  446MOL0     N61461   7.734   1.284   8.857  0.6433  0.8241 -0.2329
  446MOL0     N61462   7.778   1.396   8.834 -0.1036  0.3487  0.6704
  446MOL0     C61463   7.754   2.095   7.862 -0.2637  0.3440 -0.1724
  446MOL0     C61464   7.773   2.087   7.727  0.6696 -0.3134 -0.5692
  446MOL0     C61465   7.670   1.899   7.301 -0.5539  0.1606 -0.7026
  446MOL0     C61466   7.762   1.811   7.247 -0.0861 -0.3641  0.2759
  446MOL0     C61467   7.770   1.796   7.102 -0.9623  0.6271  0.5499
  446MOL0     C61468   7.682   1.858   7.016  1.0238 -0.4500  0.7559
  446MOL0     O61469   7.680   1.828   6.878 -0.0468 -0.2587  0.1065
  446MOL0     C61470   7.690   1.682   6.846  0.1975 -0.4525  0.1378
  446MOL0     C61471   7.603   1.643   6.719 -0.1594 -0.5097  0.6089
  446MOL0     C61472   7.631   1.504   6.666 -0.5062 -0.3766  0.1229
  446MOL0     C61473   7.615   1.480   6.514  0.1842 -0.1812  0.0533
  446MOL0     C61474   7.583   1.343   6.477 -0.6245  0.5963  0.1338
  446MOL0     C61475   7.572   1.230   6.460  0.3360  0.1967 -0.7557
  446MOL0     C61476   7.601   1.962   7.069  1.2634 -0.4460 -0.2434
  446MOL0     C61477   7.593   1.983   7.212  0.6160  0.2328 -0.0938
  446MOL0     C61478   7.508   2.103   7.274 -0.5787  0.1886 -0.4397
  446MOL0     H61479   7.481   1.961   7.629  1.3926  2.3931 -2.2592
  446MOL0     H61480   7.452   1.962   7.896  2.3235 -3.4802 -0.0634
  446MOL0     H61481   7.760   2.129   8.153  0.7222 -1.1734  1.4532
  446MOL0     H61482   7.753   1.954   8.189  3.1602  1.2734  0.8001
  446MOL0     H61483   7.650   2.138   8.365  0.1564  1.0607 -1.6814
  446MOL0     H61484   7.508   2.104   8.274  0.9431  0.0913 -2.1575
  446MOL0     H61485   7.483   1.941   8.424 -0.4427 -0.2979  0.2131
  446MOL0     H61486   7.546   1.852   8.289  1.5452  1.0925  0.3368
  446MOL0     H61487   7.768   1.838   8.405 -1.1269 -0.9287 -1.1076
  446MOL0     H61488   7.690   1.933   8.541  3.0064 -3.8886  3.1526
  446MOL0     H61489   7.613   1.651   8.422  0.7043 -0.2889  0.3102
  446MOL0     H61490   7.524   1.733   8.548  0.5820  0.8403  0.8484
  446MOL0     H61491   7.758   1.726   8.697  0.8419 -1.8594  1.9308
  446MOL0     H61492   7.660   1.579   8.675 -2.8981  1.1481 -0.6763
  446MOL0     H61493   7.883   1.648   8.477  0.0620  0.0398  1.0641
  446MOL0     H61494   7.783   1.504   8.488 -0.6146  2.3947 -2.0095
  446MOL0     H61495   8.008   1.476   8.613  0.5226  1.3475 -2.5428
  446MOL0     H61496   7.951   1.592   8.724  0.1981  1.8326 -0.3495
  446MOL0     H61497   7.880   1.242   8.574  0.7617  1.3610 -0.9020
  446MOL0     H61498   7.656   1.026   8.828  2.2877 -1.2933  0.8875
  446MOL0     H61499   7.825   1.018   8.775 -0.8693 -2.6381  1.9406
  446MOL0     H61500   7.741   1.054   8.540  1.0666 -0.9774 -0.0409
  446MOL0     H61501   7.683   0.895   8.614  0.0318  0.8718  2.8789
  446MOL0     H61502   7.451   0.983   8.656 -1.5271  1.0204 -1.0493
  446MOL0     H61503   7.511   1.137   8.604 -3.2623 -0.3238  3.0223
  446MOL0     H61504   7.570   1.068   8.393  0.9444 -0.4778  1.1482
  446MOL0     H61505   7.517   0.909   8.408  0.9764  0.6234 -1.3729
  446MOL0     H61506   7.315   0.810   8.441  0.8191  0.0803  0.0909
  446MOL0     H61507   7.205   0.635   8.554  0.1537  1.6510 -0.2182
  446MOL0     H61508   7.079   0.640   8.425  0.2304  2.2685 -1.1266
  446MOL0     H61509   7.029   0.645   8.595 -0.9147  0.6832 -0.4441
  446MOL0     H61510   6.579   0.864   8.407  1.4827 -1.4064 -1.3746
  446MOL0     H61511   6.352   0.840   8.497  1.7781  2.1950 -0.6849
  446MOL0     H61512   6.287   0.488   8.772 -0.3486 -0.9386 -1.0405
  446MOL0     H61513   6.272   0.639   8.871 -1.7080  4.0173 -1.4468
  446MOL0     H61514   6.039   0.667   8.756  0.1095  2.0962  1.3399
  446MOL0     H61515   6.062   0.510   8.695 -3.3102  1.1005  0.6177
  446MOL0     H61516   6.034   0.565   8.980 -1.7030 -0.8939  0.8947
  446MOL0     H61517   6.086   0.410   8.921 -0.9280 -0.7303  1.5267
  446MOL0     H61518   5.866   0.383   8.779 -3.0928  0.9074 -0.5612
  446MOL0     H61519   5.818   0.540   8.842  2.9933  1.7576 -3.5811
  446MOL0     H61520   5.887   0.305   9.021 -1.6075 -1.7680 -2.4447
  446MOL0     H61521   5.828   0.449   9.068  3.1965 -2.1243  1.3196
  446MOL0     H61522   5.616   0.381   8.918 -3.3441 -2.1611  1.7397
  446MOL0     H61523   5.654   0.270   9.052  0.4615  1.1777  0.7365
  446MOL0     H61524   5.705   0.230   8.743  0.2733  0.8519 -0.3658
  446MOL0     H61525   5.590   0.139   8.850  1.3617 -1.3244  1.4377
  446MOL0     H61526   5.819   0.062   8.965 -2.2315 -3.5719 -0.4292
  446MOL0     H61527   5.905   0.127   8.827  1.3811 -2.2832 -1.7555
  446MOL0     H61528   6.510   0.623   8.828 -1.1487 -1.6895 -0.7512
  446MOL0     H61529   6.726   0.651   8.749  0.0062  2.8833  0.7973
  446MOL0     H61530   6.940   1.122   8.521  2.1245  0.4672  3.1581
  446MOL0     H61531   7.156   1.198   8.415 -0.4733  0.7530 -0.6668
  446MOL0     H61532   7.824   2.138   7.934  1.2645 -2.4884  0.1757
  446MOL0     H61533   7.857   2.138   7.679 -0.3706  0.2909 -1.8178
  446MOL0     H61534   7.824   1.752   7.314  2.2988 -0.4481 -1.8047
  446MOL0     H61535   7.860   1.746   7.069 -0.3770  0.4636  2.3333
  446MOL0     H61536   7.793   1.647   6.835  0.1604 -0.1956 -1.1750
  446MOL0     H61537   7.644   1.620   6.923 -3.6436 -0.1451 -1.6747
  446MOL0     H61538   7.626   1.719   6.644 -1.0261 -2.2524 -1.5140
  446MOL0     H61539   7.497   1.656   6.740 -0.1489  3.5458 -0.9560
  446MOL0     H61540   7.736   1.493   6.694 -0.6835 -0.4656  0.7772
  446MOL0     H61541   7.568   1.438   6.727  1.4262 -0.4650  2.1475
  446MOL0     H61542   7.705   1.513   6.462 -0.9815 -1.1356 -2.8008
  446MOL0     H61543   7.537   1.544   6.472 -2.4071 -2.4963  0.9832
  446MOL0     H61544   7.562   1.124   6.474  2.7809  0.3006  3.7261
  446MOL0     H61545   7.538   2.028   7.010 -2.6740 -0.7388  3.1813
  446MOL0     H61546   7.408   2.073   7.308 -1.0350 -0.3788 -2.1976
  446MOL0     H61547   7.555   2.162   7.353  0.1520  0.8044 -1.3077
  446MOL0     H61548   7.478   2.168   7.192 -4.8324  1.2726  1.6751
  447MOL0     O61549   9.291   0.919  10.731 -0.0961 -0.0057 -0.0584
  447MOL0     C61550   9.268   1.030  10.759  1.0372 -0.0752 -0.1096
  447MOL0     O61551   9.293   1.136  10.676  0.0982 -0.3704 -0.9094
  447MOL0     C61552   9.395   1.121  10.582  0.1986  0.1866  0.7733
  447MOL0     C61553   9.521   1.166  10.622 -0.4224  0.1507  0.1817
  447MOL0     C61554   9.631   1.144  10.543  1.0997 -0.6698  0.6721
  447MOL0     C61555   9.622   1.081  10.418 -0.7205  0.3627 -0.0328
  447MOL0     O61556   9.746   1.069  10.369  0.4426 -0.5781  1.1600
  447MOL0     C61557   9.767   0.958  10.285 -1.3458  0.5914 -0.0382
  447MOL0     C61558   9.914   0.954  10.235  0.8476 -0.2828 -0.3975
  447MOL0     C61559   9.953   1.042  10.119  0.3037 -0.5329 -0.3515
  447MOL0     C61560  10.107   1.050  10.099  0.3571 -0.5548 -0.4223
  447MOL0     C61561  10.167   1.058   9.952  0.7156  0.2883 -0.9007
  447MOL0     C61562  10.099   1.168   9.867  0.1020 -0.3600 -0.1681
  447MOL0     C61563  10.167   1.175   9.724 -0.0353  0.6488  0.0949
  447MOL0     C61564  10.084   1.245   9.616  0.3101 -0.6606 -0.6045
  447MOL0     N61565  10.128   1.210   9.475 -0.1784  0.4029 -0.0100
  447MOL0     C61566  10.247   1.261   9.426 -0.6975 -0.0687  0.3059
  447MOL0     C61567  10.262   1.192   9.308 -0.5823 -0.6999  0.6492
  447MOL0     C61568  10.382   1.196   9.209  0.1721 -0.2089 -0.1498
  447MOL0     C61569  10.519   1.138   9.266 -0.3666  0.0886 -0.9488
  447MOL0     C61570  10.596   1.220   9.381 -0.7586  0.0550 -0.1092
  447MOL0     C61571  10.746   1.265   9.350 -0.0994 -0.4837 -0.0675
  447MOL0     O61572  10.768   1.360   9.456 -0.2059 -1.3850 -0.0699
  447MOL0     C61573  10.893   1.371   9.511  0.4071  0.2446  1.0987
  447MOL0     C61574  10.918   1.490   9.581 -0.7662 -0.0932  0.3344
  447MOL0     C61575  11.035   1.512   9.637 -0.1612 -0.3048  1.1018
  447MOL0     C61576  11.042   1.646   9.701 -0.8448 -0.2428  0.0039
  447MOL0     C61577  11.139   1.410   9.640 -1.2252  0.6771  0.4658
  447MOL0     C61578  11.267   1.413   9.704  0.6489 -0.8952 -0.1491
  447MOL0     O61579  11.332   1.308   9.750  0.4406  0.1328 -0.7435
  447MOL0     C61580  11.461   1.335   9.796 -0.5297  0.0510 -0.6925
  447MOL0     C61581  11.494   1.334   9.931  0.6678 -0.8727  0.0128
  447MOL0     C61582  11.619   1.376   9.984  0.5396  0.3115 -0.4340
  447MOL0     C61583  11.717   1.401   9.900 -0.5423 -0.3991  0.3927
  447MOL0     O61584  11.828   1.428   9.973  0.5980 -0.0853 -0.0603
  447MOL0     C61585  11.934   1.512   9.925 -0.4244  0.3296 -0.1484
  447MOL0     C61586  12.071   1.478   9.990  0.4128 -1.0292  0.1255
  447MOL0     C61587  12.186   1.559   9.939 -1.7225  0.4529  0.9673
  447MOL0     C61588  12.325   1.486   9.962 -0.6097  0.2707 -0.2325
  447MOL0     C61589  12.455   1.563   9.926 -0.2269  1.1752  0.3745
  447MOL0     C61590  12.483   1.689  10.011 -0.0452  0.5351  0.6455
  447MOL0     C61591  12.622   1.685  10.065 -0.4256 -0.3821  0.4363
  447MOL0     C61592  12.624   1.811  10.162 -0.0040  0.3358  1.1216
  447MOL0    Cl61593  12.523   1.774  10.308 -0.4310  0.2677  0.6491
  447MOL0     C61594  11.694   1.408   9.760 -0.6208  2.0686  0.5377
  447MOL0     C61595  11.568   1.367   9.713 -0.1593  0.4715 -0.5819
  447MOL0     O61596  11.298   1.526   9.737  0.1568 -0.4208  0.1926
  447MOL0     C61597  11.111   1.286   9.578  0.6961 -0.4346 -0.3453
  447MOL0     C61598  10.988   1.264   9.518  0.9324  0.0186  0.3889
  447MOL0     N61599  10.157   1.107   9.295  0.1204 -0.0459  0.4481
  447MOL0     N61600  10.080   1.112   9.397 -0.6577 -0.3896  1.1289
  447MOL0     C61601   9.493   1.052  10.363  0.1321 -0.2087  0.5431
  447MOL0     C61602   9.379   1.069  10.454 -0.1654  0.3445  0.6629
  447MOL0     C61603   9.194   1.042  10.887  0.4223 -0.0663 -0.0486
  447MOL0     C61604   9.174   0.927  10.965 -0.3564  0.2877 -0.4844
  447MOL0     C61605   9.115   0.932  11.091 -0.6293 -0.5342 -0.4938
  447MOL0     C61606   9.074   1.054  11.141  0.2795 -0.6355 -1.0053
  447MOL0     O61607   9.023   1.060  11.267  0.2531 -0.0679  0.7510
  447MOL0     C61608   8.903   1.146  11.292  0.1690 -0.7450  0.2149
  447MOL0     C61609   8.788   1.064  11.348  0.3274  0.5201 -0.5235
  447MOL0     C61610   8.719   0.962  11.251  0.4237  0.4142 -0.3319
  447MOL0     C61611   8.584   0.911  11.297  0.8620 -0.4128 -0.5835
  447MOL0     C61612   8.485   1.016  11.265  0.6169 -0.4183  1.0751
  447MOL0     C61613   8.420   1.109  11.221  0.7784  0.6482  0.1303
  447MOL0     C61614   9.093   1.175  11.064 -0.2484  0.9200 -0.2968
  447MOL0     C61615   9.150   1.169  10.933  0.2942 -0.1637 -0.8643
  447MOL0     C61616   9.155   1.304  10.866  0.1397  0.1869  0.8283
  447MOL0     H61617   9.527   1.222  10.715 -1.9399  2.5967 -1.0795
  447MOL0     H61618   9.728   1.174  10.580  1.5213 -2.3936  1.0792
  447MOL0     H61619   9.694   0.970  10.204  0.9469  3.7688 -1.8520
  447MOL0     H61620   9.750   0.868  10.346  0.1666 -1.2293 -2.1087
  447MOL0     H61621   9.976   0.992  10.317  1.7934  0.7964 -1.5716
  447MOL0     H61622   9.936   0.848  10.221 -4.0549 -1.9567  2.0330
  447MOL0     H61623   9.905   1.012  10.025  1.0586 -0.6410 -0.7074
  447MOL0     H61624   9.918   1.143  10.142  1.2841 -0.4813  1.0511
  447MOL0     H61625  10.143   1.136  10.155 -1.5310 -1.0439  1.6968
  447MOL0     H61626  10.148   0.952  10.125 -1.6321 -1.8902 -1.9221
  447MOL0     H61627  10.147   0.958   9.913 -1.0039 -1.0826  2.9792
  447MOL0     H61628  10.276   1.064   9.959  0.6107  0.4908  1.4198
  447MOL0     H61629   9.991   1.148   9.867 -0.5323  2.5194 -1.9325
  447MOL0     H61630  10.107   1.262   9.921  0.9824 -1.6744  2.1565
  447MOL0     H61631  10.183   1.077   9.679  2.9045  1.4514 -0.7784
  447MOL0     H61632  10.261   1.230   9.722  0.4715 -0.2254 -0.7786
  447MOL0     H61633   9.977   1.241   9.639  0.3424 -0.9079 -0.5013
  447MOL0     H61634  10.111   1.350   9.635  1.5884 -1.3558  1.8827
  447MOL0     H61635  10.315   1.331   9.472 -1.2484  0.4934  0.2735
  447MOL0     H61636  10.398   1.302   9.187 -0.9687  0.4367  1.8567
  447MOL0     H61637  10.340   1.138   9.127 -1.5554 -1.7244  1.7166
  447MOL0     H61638  10.499   1.041   9.313  2.9568 -1.4176 -2.3349
  447MOL0     H61639  10.591   1.126   9.185  1.6198  1.1629  0.5721
  447MOL0     H61640  10.536   1.311   9.388 -1.3969 -0.2894 -0.8777
  447MOL0     H61641  10.614   1.164   9.473  0.1287  1.4013  0.5689
  447MOL0     H61642  10.812   1.177   9.345  0.9973  0.2136  1.3456
  447MOL0     H61643  10.739   1.316   9.254 -2.1755  2.1396  1.3656
  447MOL0     H61644  10.840   1.564   9.594 -0.7207 -0.0653  0.4519
  447MOL0     H61645  11.114   1.655   9.783 -2.0959 -1.6762  1.3159
  447MOL0     H61646  10.951   1.673   9.754 -0.7685 -1.5959  0.8634
  447MOL0     H61647  11.061   1.715   9.618 -2.4613  0.4634  0.1910
  447MOL0     H61648  11.417   1.295   9.997 -1.2309 -1.5556 -2.4565
  447MOL0     H61649  11.637   1.384  10.091 -1.2573  1.8530 -0.2053
  447MOL0     H61650  11.952   1.493   9.819 -2.2570 -0.4236 -0.3653
  447MOL0     H61651  11.915   1.619   9.939  0.6331  0.9529 -2.9435
  447MOL0     H61652  12.065   1.499  10.097  0.4733  3.2407 -0.5234
  447MOL0     H61653  12.094   1.372   9.980  0.0042 -1.0381 -0.8091
  447MOL0     H61654  12.193   1.663   9.973 -2.0166  0.9318 -0.3755
  447MOL0     H61655  12.179   1.557   9.830  0.1344  1.0467  0.8054
  447MOL0     H61656  12.309   1.392   9.909  0.0409 -1.5643  2.5679
  447MOL0     H61657  12.340   1.465  10.069  1.0967 -0.1596 -0.5285
  447MOL0     H61658  12.533   1.486   9.924 -2.7387 -1.5512 -0.6827
  447MOL0     H61659  12.451   1.593   9.821 -0.1456  1.2831  0.4020
  447MOL0     H61660  12.410   1.685  10.093  1.1114 -0.6170  1.6709
  447MOL0     H61661  12.475   1.786   9.960  0.8373  1.8282  2.7974
  447MOL0     H61662  12.693   1.687   9.982 -0.6768 -1.3219  0.1857
  447MOL0     H61663  12.647   1.598  10.126  0.5622 -1.2468 -1.1396
  447MOL0     H61664  12.587   1.895  10.104 -1.1469 -1.7421 -1.3578
  447MOL0     H61665  12.729   1.820  10.194  0.1450 -1.0695  1.0900
  447MOL0     H61666  11.782   1.421   9.698 -1.5228 -2.7656 -2.2759
  447MOL0     H61667  11.542   1.394   9.611  0.5223  1.9329 -0.3975
  447MOL0     H61668  11.185   1.207   9.586  0.1736 -1.0177 -0.9796
  447MOL0     H61669  10.972   1.162   9.486 -0.2675  0.3309 -0.0617
  447MOL0     H61670   9.476   1.025  10.259 -1.8034  2.9418 -0.0886
  447MOL0     H61671   9.278   1.041  10.425 -0.8405 -2.1382  4.5329
  447MOL0     H61672   9.195   0.828  10.927 -0.1978  0.1442 -0.0338
  447MOL0     H61673   9.089   0.850  11.157  0.6090  0.5018  1.3661
  447MOL0     H61674   8.932   1.222  11.365  0.9102 -0.0871 -0.7489
  447MOL0     H61675   8.862   1.205  11.210 -2.0240  0.4294  2.0393
  447MOL0     H61676   8.716   1.141  11.378  1.6829  0.7021  2.6801
  447MOL0     H61677   8.819   1.016  11.441  0.4742 -0.4668 -1.0633
  447MOL0     H61678   8.711   1.003  11.149 -2.7294 -3.8005 -2.1067
  447MOL0     H61679   8.786   0.876  11.248  0.0986  0.1148  0.6633
  447MOL0     H61680   8.584   0.877  11.401 -0.1517 -1.2228 -0.8325
  447MOL0     H61681   8.551   0.824  11.238 -0.4229  0.2693 -0.9228
  447MOL0     H61682   8.353   1.188  11.192 -1.4312 -2.0142 -2.6340
  447MOL0     H61683   9.043   1.264  11.103  1.4855  3.0502 -2.6035
  447MOL0     H61684   9.126   1.288  10.762  1.7634 -0.0776  0.3855
  447MOL0     H61685   9.085   1.378  10.906  3.3569  3.3439  1.1211
  447MOL0     H61686   9.254   1.349  10.869  0.4534 -0.3262 -0.8237
  448MOL0     O61687  10.394   7.237   5.350  0.5576  0.3872  0.2905
  448MOL0     C61688  10.292   7.189   5.311 -0.5559 -0.0621  1.0588
  448MOL0     O61689  10.168   7.204   5.374  0.3658  0.0615 -0.4854
  448MOL0     C61690  10.164   7.313   5.462  0.7948 -0.1188 -0.2352
  448MOL0     C61691  10.073   7.417   5.433 -0.1613 -0.3305 -0.9465
  448MOL0     C61692  10.051   7.525   5.524  0.3965 -0.0339 -0.1949
  448MOL0     C61693  10.103   7.536   5.641  0.3426  0.4314 -0.6731
  448MOL0     O61694  10.078   7.627   5.737 -0.1489 -0.4756 -0.8455
  448MOL0     C61695   9.979   7.724   5.715 -0.1310 -0.3310 -0.0073
  448MOL0     C61696   9.836   7.672   5.735  0.2211 -0.2969 -0.4264
  448MOL0     C61697   9.739   7.779   5.670  0.5450  0.2924  0.2098
  448MOL0     C61698   9.714   7.886   5.781  0.1135  0.8458 -1.5444
  448MOL0     C61699   9.581   7.968   5.750  0.2181  0.0350 -0.0794
  448MOL0     C61700   9.585   8.101   5.819  0.6462 -0.1586  0.3803
  448MOL0     C61701   9.471   8.196   5.790  0.6211 -0.0209  0.6203
  448MOL0     C61702   9.486   8.340   5.838 -0.2524 -0.6647 -0.4117
  448MOL0     N61703   9.594   8.394   5.753 -0.0372 -0.1573 -0.3294
  448MOL0     C61704   9.721   8.427   5.801  0.0525 -0.6043 -0.9035
  448MOL0     C61705   9.796   8.468   5.697 -0.1759  0.0269 -0.0591
  448MOL0     C61706   9.928   8.541   5.711 -0.6148  0.2438  0.1660
  448MOL0     C61707  10.035   8.472   5.621  0.2198 -0.3040  0.5121
  448MOL0     C61708  10.162   8.558   5.605  0.6696  0.4872  0.4261
  448MOL0     C61709  10.262   8.538   5.725 -0.6138  0.3082  0.1846
  448MOL0     O61710  10.298   8.405   5.735 -0.8817 -0.6884 -0.0614
  448MOL0     C61711  10.393   8.374   5.828 -0.8899  1.0332 -0.5099
  448MOL0     C61712  10.457   8.256   5.795  1.2461 -0.0540  0.2270
  448MOL0     C61713  10.560   8.204   5.874 -0.2434 -0.2478  0.5479
  448MOL0     C61714  10.620   8.075   5.848 -0.5341  0.0697  0.7158
  448MOL0     C61715  10.614   8.296   5.978  0.2791  1.0634 -0.2876
  448MOL0     C61716  10.743   8.259   6.043  0.3814  0.1797  0.5507
  448MOL0     O61717  10.751   8.269   6.179  0.1192  0.9348 -0.0467
  448MOL0     C61718  10.866   8.228   6.248  0.1056  0.6194  0.1924
  448MOL0     C61719  10.842   8.137   6.345 -0.6546  0.7629  0.1981
  448MOL0     C61720  10.943   8.108   6.446 -0.3077  0.6797 -0.0458
  448MOL0     C61721  11.066   8.171   6.445  0.6516  0.2644  0.3211
  448MOL0     O61722  11.161   8.145   6.542 -0.2687 -0.0873  0.2521
  448MOL0     C61723  11.238   8.035   6.502 -0.3523  0.7400 -0.2308
  448MOL0     C61724  11.279   7.923   6.609 -0.2860 -0.4405  0.0359
  448MOL0     C61725  11.157   7.854   6.655  0.9620  0.1923  1.0679
  448MOL0     C61726  11.184   7.724   6.742 -0.6053 -0.2572 -0.4194
  448MOL0     C61727  11.064   7.662   6.823  0.2674  0.1495 -0.3900
  448MOL0     C61728  10.977   7.583   6.726  0.3063 -0.6553 -0.7836
  448MOL0     C61729  10.834   7.576   6.766 -0.2697 -0.8609  0.6093
  448MOL0     C61730  10.732   7.533   6.661 -0.5000 -0.1019  0.4344
  448MOL0    Cl61731  10.709   7.644   6.522  0.4433 -0.7486 -0.2978
  448MOL0     C61732  11.088   8.252   6.338 -0.8799 -0.9382  0.7051
  448MOL0     C61733  10.993   8.289   6.244  1.0031  0.3682  0.4332
  448MOL0     O61734  10.835   8.219   5.975  0.5500  0.1566 -0.2004
  448MOL0     C61735  10.554   8.419   6.007  0.3268 -0.1127  0.6265
  448MOL0     C61736  10.444   8.456   5.932 -0.0648 -0.3832  0.6345
  448MOL0     N61737   9.727   8.446   5.583  0.1404  0.0880 -0.3963
  448MOL0     N61738   9.612   8.399   5.617 -0.0792 -0.0456 -0.2509
  448MOL0     C61739  10.185   7.426   5.675 -0.0236 -0.4440 -0.0489
  448MOL0     C61740  10.218   7.321   5.581 -0.0180  0.1452 -0.3893
  448MOL0     C61741  10.292   7.123   5.178 -0.8161  0.1278 -0.6349
  448MOL0     C61742  10.173   7.135   5.103  1.1253  0.6692  0.1040
  448MOL0     C61743  10.142   7.059   4.980 -0.4383  0.7545  0.7505
  448MOL0     C61744  10.243   6.963   4.935  0.3981 -0.9148 -0.7333
  448MOL0     O61745  10.220   6.895   4.820  0.2725  0.7852  1.3343
  448MOL0     C61746  10.289   6.763   4.809  0.4993  0.3363  0.3442
  448MOL0     C61747  10.209   6.679   4.707 -0.4794 -0.1686  0.1010
  448MOL0     C61748  10.063   6.655   4.759 -0.3545 -0.2813  0.3909
  448MOL0     C61749   9.975   6.655   4.641  0.1680 -0.3031  0.0135
  448MOL0     C61750   9.953   6.793   4.591  0.0192 -0.8183 -0.0186
  448MOL0     C61751   9.919   6.898   4.544 -0.5975 -0.8661  0.0019
  448MOL0     C61752  10.357   6.959   5.013 -0.5162  0.7443 -0.8620
  448MOL0     C61753  10.386   7.035   5.130 -0.5052 -0.1754 -0.5613
  448MOL0     C61754  10.518   7.025   5.196  0.1759  0.6056  0.6229
  448MOL0     H61755  10.035   7.412   5.331  0.6375  1.4721 -1.3704
  448MOL0     H61756  10.001   7.612   5.481 -0.6609 -0.0366  0.9859
  448MOL0     H61757   9.996   7.782   5.624  0.4169  0.9634  0.8732
  448MOL0     H61758   9.991   7.788   5.803 -2.8054  0.9893 -0.5067
  448MOL0     H61759   9.816   7.585   5.671 -1.3416  1.9052 -3.1478
  448MOL0     H61760   9.822   7.646   5.840 -1.0928 -2.2243 -1.0348
  448MOL0     H61761   9.771   7.832   5.579 -5.5396  0.3233 -2.3612
  448MOL0     H61762   9.643   7.734   5.644  0.2736  1.2529 -0.5332
  448MOL0     H61763   9.701   7.847   5.882 -3.3231  1.1385 -1.7677
  448MOL0     H61764   9.801   7.952   5.767 -0.1333  1.0673 -2.0765
  448MOL0     H61765   9.498   7.913   5.796  0.0135  3.0569  3.5912
  448MOL0     H61766   9.567   7.972   5.642 -1.5343  0.2566  0.1173
  448MOL0     H61767   9.599   8.091   5.927  0.8080 -0.1053  0.3652
  448MOL0     H61768   9.675   8.153   5.784  0.5367 -1.3139 -1.8267
  448MOL0     H61769   9.379   8.152   5.831  0.8384 -2.3959 -1.2266
  448MOL0     H61770   9.449   8.210   5.684 -0.2669 -2.4010  0.4379
  448MOL0     H61771   9.390   8.391   5.822  0.8553  1.0445 -2.0391
  448MOL0     H61772   9.515   8.347   5.943  2.2050  0.2807 -1.0873
  448MOL0     H61773   9.733   8.439   5.909  0.8121  0.6591 -1.1068
  448MOL0     H61774   9.967   8.557   5.812 -1.4999  1.4274  0.3420
  448MOL0     H61775   9.909   8.638   5.664  0.0583  2.5722  4.2817
  448MOL0     H61776  10.047   8.377   5.673 -0.1846 -1.3694 -1.2715
  448MOL0     H61777   9.988   8.450   5.525  0.1977 -0.5364  0.5758
  448MOL0     H61778  10.205   8.526   5.510 -2.7161 -1.4742 -0.6089
  448MOL0     H61779  10.127   8.660   5.585 -3.8498 -0.8774  0.4444
  448MOL0     H61780  10.346   8.608   5.717 -1.6344  1.5347  0.0230
  448MOL0     H61781  10.221   8.552   5.825  2.3564 -0.4669  1.6477
  448MOL0     H61782  10.418   8.202   5.709 -3.0058  0.0638  1.8329
  448MOL0     H61783  10.715   8.097   5.798 -0.4761  0.1973  0.8833
  448MOL0     H61784  10.558   8.004   5.792 -0.5544  2.5978 -2.7753
  448MOL0     H61785  10.642   8.036   5.948 -2.3311  0.9329  1.4758
  448MOL0     H61786  10.752   8.078   6.357 -1.8241  1.3799 -4.0232
  448MOL0     H61787  10.919   8.035   6.522  0.2538 -0.7934 -1.2469
  448MOL0     H61788  11.185   7.981   6.423 -2.5126 -2.8713  3.3214
  448MOL0     H61789  11.328   8.089   6.470  0.7668  0.1561  1.7389
  448MOL0     H61790  11.352   7.856   6.562 -1.4796 -0.5930 -1.7255
  448MOL0     H61791  11.317   7.978   6.695 -2.9914 -1.1960  1.8555
  448MOL0     H61792  11.087   7.832   6.574 -0.5713  3.1934  1.4604
  448MOL0     H61793  11.110   7.932   6.715  2.1157  1.4159  0.4290
  448MOL0     H61794  11.260   7.753   6.816 -1.0686 -2.3674  0.9533
  448MOL0     H61795  11.238   7.651   6.681 -1.2327 -0.7566 -0.3841
  448MOL0     H61796  11.086   7.602   6.911  0.1914 -1.4397 -1.4094
  448MOL0     H61797  11.008   7.748   6.862 -0.7933 -1.1412  1.0659
  448MOL0     H61798  11.018   7.488   6.690 -1.2218 -0.0919 -4.4344
  448MOL0     H61799  10.972   7.635   6.630  0.7683 -0.0984 -0.5169
  448MOL0     H61800  10.800   7.670   6.812 -2.4007 -2.1737  1.8943
  448MOL0     H61801  10.814   7.506   6.848 -2.5676  0.5191  1.3323
  448MOL0     H61802  10.634   7.526   6.709 -1.3066  0.3361 -1.0707
  448MOL0     H61803  10.758   7.433   6.624  2.1412  1.3157 -1.9913
  448MOL0     H61804  11.180   8.309   6.326 -1.3870 -0.3774 -0.6604
  448MOL0     H61805  11.012   8.364   6.168 -0.8001  0.9934  0.5504
  448MOL0     H61806  10.595   8.487   6.081 -0.5127 -3.1741  4.2036
  448MOL0     H61807  10.404   8.553   5.960  0.1339 -0.9558  3.1226
  448MOL0     H61808  10.231   7.425   5.773 -1.7316  1.4777  0.8444
  448MOL0     H61809  10.291   7.241   5.592 -1.5253 -0.9731  2.9049
  448MOL0     H61810  10.090   7.196   5.139 -0.3876 -1.6864  0.8461
  448MOL0     H61811  10.046   7.060   4.928 -1.2935 -2.3996  2.0368
  448MOL0     H61812  10.393   6.783   4.782  0.0805  3.8600  0.8903
  448MOL0     H61813  10.290   6.707   4.904 -1.9681  0.0251  0.2516
  448MOL0     H61814  10.253   6.583   4.679 -1.7560 -1.4035  2.0726
  448MOL0     H61815  10.221   6.737   4.615  0.2691 -2.0503 -1.0376
  448MOL0     H61816  10.061   6.560   4.812  0.0286 -1.2202 -1.2127
  448MOL0     H61817  10.029   6.742   4.817  0.5046  1.0659 -1.0448
  448MOL0     H61818   9.882   6.606   4.670  1.5141 -2.7764  0.3840
  448MOL0     H61819  10.020   6.594   4.562  0.2107 -0.6101  0.2734
  448MOL0     H61820   9.898   6.990   4.493  1.1144 -0.8878 -0.7926
  448MOL0     H61821  10.438   6.901   4.971  0.3668  1.4914 -0.2366
  448MOL0     H61822  10.581   6.952   5.144 -1.1937  1.4752 -2.4683
  448MOL0     H61823  10.567   7.122   5.189  3.0967 -0.7534  0.5435
  448MOL0     H61824  10.493   6.990   5.297 -0.9782 -2.1369 -0.4921
  449MOL0     O61825   0.604   6.129   0.997 -0.0637  0.2509  0.5567
  449MOL0     C61826   0.623   6.245   1.043  0.4852 -0.4006 -0.4127
  449MOL0     O61827   0.532   6.339   1.060  0.5746  0.3977  0.4657
  449MOL0     C61828   0.397   6.313   1.013 -1.0101  0.6786 -0.3387
  449MOL0     C61829   0.363   6.378   0.890 -0.5536  0.5533 -0.0671
  449MOL0     C61830   0.233   6.368   0.833  0.7706 -0.6046  0.2706
  449MOL0     C61831   0.134   6.307   0.906  0.2784  0.1300  0.5172
  449MOL0     O61832   0.012   6.294   0.846  0.4278 -0.8402  0.1841
  449MOL0     C61833  -0.081   6.207   0.911 -0.4382 -0.0505 -0.4780
  449MOL0     C61834  -0.203   6.197   0.810 -0.3564  0.1098  0.0612
  449MOL0     C61835  -0.303   6.085   0.859 -1.4327 -1.0018 -0.2744
  449MOL0     C61836  -0.362   6.117   1.009  0.0378  0.0826  0.5115
  449MOL0     C61837  -0.498   6.044   1.025 -0.1258  1.2797  0.1554
  449MOL0     C61838  -0.557   6.043   1.169  0.1998  0.3105  0.0682
  449MOL0     C61839  -0.699   6.016   1.161  0.8381 -0.1732 -0.0154
  449MOL0     C61840  -0.757   5.966   1.291  0.6231  0.0329 -0.5304
  449MOL0     N61841  -0.751   6.054   1.408  0.7386  0.2679  0.7207
  449MOL0     C61842  -0.641   6.112   1.467  0.1788  0.9842 -0.2164
  449MOL0     C61843  -0.693   6.163   1.581  0.7706  0.0001 -0.6658
  449MOL0     C61844  -0.619   6.223   1.698  0.0729 -0.6713 -0.1359
  449MOL0     C61845  -0.553   6.362   1.668  1.2416  0.2379 -0.4794
  449MOL0     C61846  -0.432   6.366   1.584 -0.4328  0.2372  0.1273
  449MOL0     C61847  -0.348   6.491   1.597  0.2020  0.2606  0.6545
  449MOL0     O61848  -0.308   6.521   1.728 -0.3098  0.5273 -0.4761
  449MOL0     C61849  -0.196   6.599   1.747 -0.0697  0.3007  0.0580
  449MOL0     C61850  -0.095   6.627   1.659  0.0021 -0.4493 -0.0640
  449MOL0     C61851   0.014   6.716   1.680  0.3007 -0.1741  0.5917
  449MOL0     C61852   0.131   6.697   1.587 -0.3641  0.5586 -0.2534
  449MOL0     C61853   0.015   6.780   1.809 -0.2905 -0.2106  0.0736
  449MOL0     C61854   0.131   6.863   1.854 -0.2666  0.3398  0.2945
  449MOL0     O61855   0.115   6.902   1.986  1.1344  0.4573  0.4160
  449MOL0     C61856   0.195   7.000   2.037  0.1852  0.3390 -0.1843
  449MOL0     C61857   0.313   6.977   2.104 -0.6964 -0.0399  0.1967
  449MOL0     C61858   0.395   7.077   2.154  0.5082 -1.1032 -0.0084
  449MOL0     C61859   0.351   7.212   2.144  0.6957 -0.0755 -0.0413
  449MOL0     O61860   0.433   7.312   2.192  0.2430  0.6288 -0.3698
  449MOL0     C61861   0.393   7.351   2.323  0.3685  0.2862 -0.1661
  449MOL0     C61862   0.489   7.457   2.381  0.3113 -0.1252 -0.8546
  449MOL0     C61863   0.460   7.509   2.524  0.3897  0.4594  0.3330
  449MOL0     C61864   0.539   7.636   2.553  0.2572  1.3927 -0.8115
  449MOL0     C61865   0.517   7.677   2.704  0.6480 -0.3357  0.2741
  449MOL0     C61866   0.604   7.797   2.722 -0.1285 -0.1555 -0.5981
  449MOL0     C61867   0.577   7.852   2.863  0.5629 -0.2648 -0.9485
  449MOL0     C61868   0.663   7.972   2.904 -0.2467 -0.8952 -0.8193
  449MOL0    Cl61869   0.695   8.069   2.762 -0.1261 -0.3364 -0.4129
  449MOL0     C61870   0.225   7.233   2.082  0.1473  0.0112 -0.3060
  449MOL0     C61871   0.153   7.130   2.039  0.3994 -0.4461  0.4971
  449MOL0     O61872   0.230   6.894   1.780 -0.2542 -0.0384 -0.1408
  449MOL0     C61873  -0.097   6.764   1.888 -0.0043 -0.8909 -0.2474
  449MOL0     C61874  -0.205   6.670   1.864  0.0810 -0.5486  0.8283
  449MOL0     N61875  -0.835   6.166   1.572 -0.2317 -0.2414 -0.0256
  449MOL0     N61876  -0.864   6.100   1.465 -0.4909  0.5917 -0.4626
  449MOL0     C61877   0.170   6.249   1.037  0.5568 -0.7981  0.9979
  449MOL0     C61878   0.302   6.253   1.086  0.2708  1.0160 -0.1195
  449MOL0     C61879   0.757   6.282   1.077 -0.3324 -0.1659 -0.4068
  449MOL0     C61880   0.816   6.363   0.981 -0.6696 -0.3071 -0.4774
  449MOL0     C61881   0.948   6.412   1.009  0.2484 -0.2625 -0.3524
  449MOL0     C61882   1.006   6.388   1.136 -1.0991  0.5252  1.1818
  449MOL0     O61883   1.133   6.433   1.171 -0.0169 -0.4191 -0.2614
  449MOL0     C61884   1.187   6.552   1.119  0.7462 -0.6237  0.2460
  449MOL0     C61885   1.304   6.505   1.038 -0.1866  0.6732  0.6517
  449MOL0     C61886   1.377   6.624   0.972  1.2529  0.4006 -0.2730
  449MOL0     C61887   1.524   6.592   0.922  0.2465 -0.5762 -1.3997
  449MOL0     C61888   1.614   6.560   1.041  0.2422 -0.5736 -0.2590
  449MOL0     C61889   1.681   6.530   1.139  0.3869  0.5590  0.3239
  449MOL0     C61890   0.938   6.310   1.225  0.2794 -0.1917  0.0188
  449MOL0     C61891   0.811   6.252   1.197 -0.8003 -0.4098  0.5087
  449MOL0     C61892   0.740   6.160   1.292 -0.3227  0.0303 -1.6114
  449MOL0     H61893   0.439   6.433   0.835  0.4970  2.6187  3.1717
  449MOL0     H61894   0.213   6.408   0.734 -1.5807  1.8574  1.5814
  449MOL0     H61895  -0.104   6.250   1.010  2.2819  0.4428  0.0058
  449MOL0     H61896  -0.047   6.104   0.924 -0.8969  0.1372  3.7481
  449MOL0     H61897  -0.251   6.293   0.791 -4.4977 -1.8867 -0.8456
  449MOL0     H61898  -0.151   6.174   0.717 -0.2729 -1.4229  0.4584
  449MOL0     H61899  -0.387   6.061   0.792 -0.5574 -1.1565 -1.3587
  449MOL0     H61900  -0.237   5.998   0.864  2.2383  1.6215  0.9091
  449MOL0     H61901  -0.303   6.082   1.094 -2.8444 -1.4801  2.0325
  449MOL0     H61902  -0.374   6.225   1.020 -0.4767  0.1078 -0.2279
  449MOL0     H61903  -0.475   5.953   0.968 -2.0272  2.0061 -1.9515
  449MOL0     H61904  -0.570   6.097   0.961 -1.0284  1.8984  1.6230
  449MOL0     H61905  -0.495   5.982   1.235  1.7668  3.0605  1.3000
  449MOL0     H61906  -0.543   6.141   1.216 -0.6950 -0.4739  2.1082
  449MOL0     H61907  -0.727   5.942   1.086 -2.1922 -0.8812  1.6375
  449MOL0     H61908  -0.754   6.108   1.138 -2.0381 -1.4955  1.0203
  449MOL0     H61909  -0.860   5.932   1.275  1.4083 -2.8934  0.0373
  449MOL0     H61910  -0.701   5.875   1.313 -1.7244 -2.5118 -3.9417
  449MOL0     H61911  -0.538   6.096   1.439 -0.0901 -1.1568 -0.1879
  449MOL0     H61912  -0.551   6.146   1.735 -0.8489 -0.9242  1.1254
  449MOL0     H61913  -0.683   6.241   1.785 -0.7419 -2.3042 -0.3592
  449MOL0     H61914  -0.628   6.423   1.617 -1.2796 -3.0239 -0.9881
  449MOL0     H61915  -0.527   6.411   1.763  0.6170 -0.0555 -0.1526
  449MOL0     H61916  -0.365   6.288   1.622  1.9498  1.1222 -1.9788
  449MOL0     H61917  -0.453   6.339   1.481  1.6752  0.5004 -0.4132
  449MOL0     H61918  -0.253   6.468   1.548  0.8399  4.5127 -0.5103
  449MOL0     H61919  -0.403   6.576   1.555  0.1279 -0.6608 -1.2139
  449MOL0     H61920  -0.095   6.581   1.561 -2.0588  1.7243 -1.2063
  449MOL0     H61921   0.086   6.689   1.488  0.5570  1.0586 -0.7229
  449MOL0     H61922   0.181   6.601   1.599 -0.0162 -0.0782 -4.9823
  449MOL0     H61923   0.210   6.773   1.584  1.0340 -0.8292  0.2392
  449MOL0     H61924   0.356   6.877   2.095  0.3340  0.5396 -2.2489
  449MOL0     H61925   0.483   7.049   2.211  0.0790  0.4016  1.4465
  449MOL0     H61926   0.294   7.398   2.322 -0.7539 -1.9388 -2.4270
  449MOL0     H61927   0.386   7.269   2.395 -2.2590  1.0961  0.6234
  449MOL0     H61928   0.592   7.419   2.387  0.6715  0.8126 -0.8199
  449MOL0     H61929   0.499   7.544   2.315 -0.9187  3.2046  2.8792
  449MOL0     H61930   0.478   7.435   2.602  1.1933  0.7735  0.4573
  449MOL0     H61931   0.353   7.529   2.534 -0.0407  1.6008 -4.3177
  449MOL0     H61932   0.509   7.713   2.482  0.7126 -0.0880 -2.7053
  449MOL0     H61933   0.644   7.612   2.532  1.5446  0.9154  4.6289
  449MOL0     H61934   0.414   7.712   2.716  0.4900 -1.1786  1.6347
  449MOL0     H61935   0.545   7.602   2.779 -1.5212  1.6890  3.3255
  449MOL0     H61936   0.583   7.869   2.642 -0.6570  1.4102  0.8836
  449MOL0     H61937   0.710   7.777   2.708  1.1062  3.9140  1.2251
  449MOL0     H61938   0.596   7.768   2.930 -4.7070 -3.6665 -3.1009
  449MOL0     H61939   0.473   7.884   2.861  0.7573  0.4325 -0.1567
  449MOL0     H61940   0.757   7.940   2.950 -1.0135 -1.6320  0.2884
  449MOL0     H61941   0.612   8.028   2.983  2.2873  2.7038 -1.4973
  449MOL0     H61942   0.187   7.335   2.081  0.2221  0.0411 -0.1669
  449MOL0     H61943   0.057   7.157   1.997  0.1406  0.0822  1.3960
  449MOL0     H61944  -0.112   6.808   1.986 -0.3342  1.8580 -1.4410
  449MOL0     H61945  -0.276   6.655   1.945  0.7101  2.0939  1.9640
  449MOL0     H61946   0.091   6.202   1.096 -0.8180 -3.2151 -2.4299
  449MOL0     H61947   0.318   6.210   1.185 -2.4798  0.8201  0.3218
  449MOL0     H61948   0.772   6.386   0.885 -0.4105  0.7453 -0.3583
  449MOL0     H61949   0.988   6.481   0.935  2.3800 -0.4480  0.5319
  449MOL0     H61950   1.116   6.617   1.066  1.5362 -1.4923 -1.9933
  449MOL0     H61951   1.230   6.608   1.202 -1.5141  0.3719  0.8314
  449MOL0     H61952   1.253   6.446   0.962  0.4768 -0.3682  1.0042
  449MOL0     H61953   1.374   6.440   1.092  0.6908  0.6104 -0.5320
  449MOL0     H61954   1.318   6.671   0.893  0.7681  0.8434  0.3513
  449MOL0     H61955   1.386   6.707   1.042 -0.0736 -0.0458  0.4483
  449MOL0     H61956   1.566   6.677   0.869  1.4909  0.5923  1.2460
  449MOL0     H61957   1.518   6.509   0.851 -1.0092 -1.0528 -0.7725
  449MOL0     H61958   1.719   6.507   1.236  0.7464 -0.6454 -0.0825
  449MOL0     H61959   0.988   6.289   1.320 -0.3389  1.1485  0.6687
  449MOL0     H61960   0.778   6.168   1.394 -1.6207 -1.4961 -0.9634
  449MOL0     H61961   0.632   6.170   1.305 -0.8572 -2.4658 -3.4708
  449MOL0     H61962   0.770   6.060   1.260 -1.2839 -0.3607 -1.3099
  450MOL0     O61963   7.010   8.109   5.573 -0.6490  0.6577  0.5437
  450MOL0     C61964   7.080   8.032   5.645 -0.0118  0.1905 -0.6421
  450MOL0     O61965   7.036   7.919   5.703  1.1016  0.4990 -0.0651
  450MOL0     C61966   6.905   7.868   5.682 -0.2917  0.2659 -0.2840
  450MOL0     C61967   6.833   7.806   5.789 -0.2381  0.0038 -0.5095
  450MOL0     C61968   6.708   7.762   5.775  0.2918  0.6195  0.1876
  450MOL0     C61969   6.641   7.778   5.656 -0.3597  0.7010  0.5242
  450MOL0     O61970   6.503   7.756   5.632  0.7860  0.0400 -0.1214
  450MOL0     C61971   6.429   7.689   5.736  0.4045  1.1134 -0.2356
  450MOL0     C61972   6.283   7.692   5.685  0.1566  0.6547 -0.0540
  450MOL0     C61973   6.274   7.615   5.556 -0.1490  0.8722 -0.5911
  450MOL0     C61974   6.125   7.600   5.524  0.0980 -0.3954 -0.3155
  450MOL0     C61975   6.130   7.543   5.371  0.0957 -0.5102  0.5207
  450MOL0     C61976   5.989   7.468   5.357  0.0929  0.8541  0.0453
  450MOL0     C61977   5.960   7.435   5.211  0.7224 -0.5427  0.6286
  450MOL0     C61978   6.054   7.335   5.155 -0.6068  0.9443 -0.0051
  450MOL0     N61979   5.984   7.255   5.054  1.1032 -0.3101 -0.4455
  450MOL0     C61980   5.929   7.306   4.945  0.2006 -0.4941  0.8437
  450MOL0     C61981   5.840   7.211   4.905 -0.0264 -0.1834 -0.3733
  450MOL0     C61982   5.766   7.214   4.778 -0.2866  0.7444 -0.0157
  450MOL0     C61983   5.755   7.352   4.707  0.2198 -0.3539 -0.0673
  450MOL0     C61984   5.625   7.360   4.622 -0.2206  0.5221  0.7475
  450MOL0     C61985   5.666   7.328   4.482 -0.4924 -0.1420 -0.6241
  450MOL0     O61986   5.557   7.322   4.384  0.1135  0.1465 -0.5262
  450MOL0     C61987   5.599   7.291   4.256  0.2215 -0.0044  0.0187
  450MOL0     C61988   5.731   7.305   4.202  0.1371 -0.5838  0.7059
  450MOL0     C61989   5.772   7.284   4.068  0.2375  0.0849  0.0142
  450MOL0     C61990   5.915   7.320   4.049 -0.3651 -0.1628  0.3430
  450MOL0     C61991   5.680   7.233   3.981  0.2049 -0.2577  0.1017
  450MOL0     C61992   5.712   7.172   3.845 -0.6956  0.3618  0.6379
  450MOL0     O61993   5.841   7.143   3.815 -0.5647  0.1384 -0.3607
  450MOL0     C61994   5.879   7.081   3.697  0.3655 -0.2277  0.1045
  450MOL0     C61995   5.860   7.144   3.570  0.4344  0.3059 -1.0032
  450MOL0     C61996   5.908   7.091   3.457 -0.1904 -0.5195  1.0892
  450MOL0     C61997   5.958   6.961   3.457 -0.7534  0.4084 -0.1742
  450MOL0     O61998   6.016   6.896   3.349  0.1439 -0.6459 -0.0357
  450MOL0     C61999   6.010   6.956   3.215  0.4040 -0.2099  0.1211
  450MOL0     C62000   6.097   6.881   3.116  0.4707  0.6108 -0.6404
  450MOL0     C62001   6.071   6.730   3.103 -0.9607  0.2889  0.2029
  450MOL0     C62002   5.930   6.695   3.050  0.9980 -0.7871  0.2538
  450MOL0     C62003   5.923   6.548   3.020  0.4597 -0.1448  0.5761
  450MOL0     C62004   5.982   6.530   2.882  0.9861  0.1975  0.7237
  450MOL0     C62005   5.951   6.394   2.838 -0.1679 -0.0843 -0.6410
  450MOL0     C62006   6.034   6.368   2.715 -0.2610  0.0724  0.6199
  450MOL0    Cl62007   5.996   6.200   2.671 -0.2998  0.3308 -0.1682
  450MOL0     C62008   5.975   6.894   3.585  0.1442 -0.7957  0.4876
  450MOL0     C62009   5.929   6.956   3.705 -0.1732  0.7574 -0.3185
  450MOL0     O62010   5.620   7.159   3.771 -0.3481  0.8329 -0.1007
  450MOL0     C62011   5.551   7.213   4.038  0.0713  0.3501  1.1278
  450MOL0     C62012   5.513   7.263   4.160  0.0548  1.2231 -0.9740
  450MOL0     N62013   5.849   7.104   4.987  0.5931 -0.8268 -0.7779
  450MOL0     N62014   5.939   7.129   5.072  0.3341 -0.3026 -0.3601
  450MOL0     C62015   6.714   7.828   5.543 -0.3267  0.3937  0.0635
  450MOL0     C62016   6.850   7.862   5.552  0.5905 -0.5308 -0.8278
  450MOL0     C62017   7.201   8.080   5.690 -0.0296  0.3073  0.7750
  450MOL0     C62018   7.279   8.162   5.605  0.0498 -0.5650  0.4283
  450MOL0     C62019   7.408   8.206   5.648 -0.8479 -0.0415  0.1717
  450MOL0     C62020   7.467   8.173   5.762  1.5255  0.5066  0.3487
  450MOL0     O62021   7.588   8.220   5.823 -0.3740 -0.0912 -0.0433
  450MOL0     C62022   7.664   8.321   5.764 -0.4413  0.3259  0.7715
  450MOL0     C62023   7.602   8.464   5.744 -0.6361 -0.1391  0.2617
  450MOL0     C62024   7.712   8.576   5.736  0.9507  0.1247  0.3781
  450MOL0     C62025   7.791   8.583   5.606 -0.4289 -0.0931  0.2600
  450MOL0     C62026   7.699   8.655   5.507 -0.2747 -0.6456 -0.4535
  450MOL0     C62027   7.639   8.709   5.412 -0.4500  0.6904  0.1487
  450MOL0     C62028   7.391   8.087   5.841 -0.2296  0.1261  0.2857
  450MOL0     C62029   7.262   8.044   5.810  0.5698  0.1435 -0.7341
  450MOL0     C62030   7.205   7.957   5.927 -0.0883 -0.5866 -0.4057
  450MOL0     H62031   6.883   7.792   5.884 -1.1962  0.3473  0.0620
  450MOL0     H62032   6.671   7.712   5.864 -0.0113  1.4458  0.5251
  450MOL0     H62033   6.426   7.745   5.830 -0.1348  0.3220  0.2340
  450MOL0     H62034   6.458   7.584   5.748 -0.2477  1.0363  0.8234
  450MOL0     H62035   6.206   7.652   5.751 -1.2942  2.7900 -0.3516
  450MOL0     H62036   6.268   7.795   5.651 -0.5694  0.5533 -0.0584
  450MOL0     H62037   6.323   7.673   5.476  1.9220 -0.8096 -0.6293
  450MOL0     H62038   6.317   7.515   5.562 -3.9919 -0.8761  0.2869
  450MOL0     H62039   6.097   7.525   5.599 -1.4564  0.3412 -0.1240
  450MOL0     H62040   6.062   7.689   5.526  2.6827  1.6028 -1.8252
  450MOL0     H62041   6.222   7.483   5.367 -0.8776 -2.0207 -1.1976
  450MOL0     H62042   6.146   7.618   5.293 -3.9777 -0.0349 -0.0689
  450MOL0     H62043   5.988   7.375   5.414 -1.8889  1.3620  0.9436
  450MOL0     H62044   5.911   7.520   5.413  0.5921 -2.5017  4.3349
  450MOL0     H62045   5.966   7.524   5.149  1.7160 -0.3921  0.9138
  450MOL0     H62046   5.855   7.407   5.205  0.7952 -0.4528 -1.9820
  450MOL0     H62047   6.141   7.379   5.106  0.1087 -1.7643 -1.3622
  450MOL0     H62048   6.086   7.264   5.232 -2.6271  0.8566  0.8308
  450MOL0     H62049   5.950   7.406   4.907  0.8592 -1.2960 -1.0269
  450MOL0     H62050   5.665   7.172   4.789  1.2386 -3.4013 -0.3829
  450MOL0     H62051   5.810   7.139   4.713 -1.7052 -0.9386  0.8755
  450MOL0     H62052   5.746   7.436   4.777  1.4385 -0.7445  0.5848
  450MOL0     H62053   5.844   7.360   4.643  0.3698 -1.4867 -0.0175
  450MOL0     H62054   5.558   7.283   4.661  2.6235 -1.5402  1.9011
  450MOL0     H62055   5.584   7.460   4.636  0.2233  0.7245  0.6429
  450MOL0     H62056   5.737   7.408   4.461 -0.0201 -0.1373  0.8841
  450MOL0     H62057   5.718   7.233   4.491  0.0414  0.2181  0.1474
  450MOL0     H62058   5.800   7.355   4.270 -0.8880 -0.5084  1.7270
  450MOL0     H62059   5.930   7.380   3.959 -0.7309 -0.4367  0.1014
  450MOL0     H62060   5.981   7.233   4.045 -0.3470 -0.2193  1.4153
  450MOL0     H62061   5.958   7.371   4.136 -2.3036  3.4010 -0.5793
  450MOL0     H62062   5.840   7.251   3.568  1.9395  0.7045  1.6504
  450MOL0     H62063   5.918   7.155   3.370  0.4677 -1.4970  0.4253
  450MOL0     H62064   5.905   6.969   3.188  1.1633  1.8381 -2.2808
  450MOL0     H62065   6.050   7.058   3.220  0.0309 -0.0288 -0.4600
  450MOL0     H62066   6.076   6.917   3.015  1.3902  3.2083  0.0020
  450MOL0     H62067   6.200   6.915   3.128 -0.5413  3.1974  1.9496
  450MOL0     H62068   6.075   6.677   3.199 -2.1226 -0.0400  0.0856
  450MOL0     H62069   6.144   6.687   3.035  0.6721  4.0580 -0.6842
  450MOL0     H62070   5.901   6.758   2.966  0.3119  0.3501  1.3093
  450MOL0     H62071   5.849   6.725   3.117 -2.7988  0.0053 -4.2314
  450MOL0     H62072   5.983   6.494   3.093  2.8507  2.3132  0.5824
  450MOL0     H62073   5.825   6.499   3.016  1.2423 -1.8243  1.1501
  450MOL0     H62074   6.091   6.542   2.874  1.3468 -2.5339  0.7616
  450MOL0     H62075   5.927   6.600   2.817 -2.4233 -0.6749  2.4449
  450MOL0     H62076   5.844   6.379   2.819 -0.5918 -0.1109  1.4979
  450MOL0     H62077   5.984   6.328   2.920 -1.8440 -0.0044  0.1557
  450MOL0     H62078   6.140   6.361   2.740 -0.5400  0.7972  2.0742
  450MOL0     H62079   6.015   6.436   2.632 -1.4184  2.6399  2.8609
  450MOL0     H62080   6.011   6.793   3.598 -3.2303 -2.0416  1.2181
  450MOL0     H62081   5.939   6.891   3.791 -2.1492  1.1401  0.2515
  450MOL0     H62082   5.479   7.159   3.977  0.8792  2.0039 -1.4571
  450MOL0     H62083   5.413   7.260   4.200  0.9179 -2.5751  1.3996
  450MOL0     H62084   6.667   7.839   5.446 -0.6496 -2.0624 -0.1018
  450MOL0     H62085   6.904   7.894   5.463  0.6059 -2.0275 -1.3828
  450MOL0     H62086   7.239   8.209   5.516  2.9989 -2.8113 -2.3240
  450MOL0     H62087   7.467   8.269   5.582  1.2783 -1.3412  0.7511
  450MOL0     H62088   7.757   8.344   5.817  1.4881 -0.2441 -2.0956
  450MOL0     H62089   7.697   8.282   5.667  2.2988 -0.8392  2.0729
  450MOL0     H62090   7.555   8.497   5.837 -1.8778 -0.9319 -0.0703
  450MOL0     H62091   7.541   8.479   5.655  0.3955  3.4498  0.0044
  450MOL0     H62092   7.666   8.675   5.743 -0.5713 -0.5135 -0.0235
  450MOL0     H62093   7.784   8.569   5.818  1.6424 -2.0314 -0.3442
  450MOL0     H62094   7.816   8.482   5.573 -0.7113  0.1115 -0.5997
  450MOL0     H62095   7.876   8.640   5.644 -0.5937 -0.4760  1.2482
  450MOL0     H62096   7.586   8.745   5.326 -0.2644 -0.5821 -0.5226
  450MOL0     H62097   7.435   8.072   5.939 -2.2961  1.9662  1.5915
  450MOL0     H62098   7.267   7.970   6.016 -0.0084  0.6659 -0.6229
  450MOL0     H62099   7.104   7.992   5.951  1.1150  1.8100  1.7284
  450MOL0     H62100   7.222   7.854   5.895 -2.0094  0.0058 -3.8711
  451MOL0     O62101   2.430   1.067   2.246 -0.1072 -0.0392  0.5619
  451MOL0     C62102   2.529   0.999   2.260 -0.8446  0.4635 -0.4114
  451MOL0     O62103   2.551   0.884   2.188  0.0660 -0.0098 -0.0123
  451MOL0     C62104   2.463   0.850   2.089  0.0547  0.0127 -0.4092
  451MOL0     C62105   2.516   0.821   1.963 -1.5751  0.4566 -0.6821
  451MOL0     C62106   2.434   0.769   1.864  0.2697 -0.7846 -0.0493
  451MOL0     C62107   2.301   0.746   1.883 -0.4267 -0.3929  0.8178
  451MOL0     O62108   2.234   0.693   1.777 -0.1447 -0.1031 -0.0676
  451MOL0     C62109   2.087   0.664   1.783 -0.2520  0.3874  0.1255
  451MOL0     C62110   2.027   0.631   1.642  0.7223 -0.5733  0.2984
  451MOL0     C62111   2.104   0.519   1.579  0.1179  0.0805 -0.9951
  451MOL0     C62112   2.064   0.474   1.447 -0.0094 -0.3708  0.9470
  451MOL0     C62113   2.149   0.358   1.398 -1.0855  0.1439  0.3618
  451MOL0     C62114   2.138   0.239   1.489  0.5683  0.6751  0.5361
  451MOL0     C62115   2.212   0.120   1.438  0.2913  0.1327 -0.3851
  451MOL0     C62116   2.209   0.010   1.546  0.4010  1.0063  0.1545
  451MOL0     N62117   2.261  -0.119   1.509  0.5227 -1.1759  0.7012
  451MOL0     C62118   2.192  -0.187   1.416  0.5037 -0.1842 -0.1184
  451MOL0     C62119   2.275  -0.292   1.396 -0.5211  0.5324 -0.3097
  451MOL0     C62120   2.258  -0.415   1.313 -1.3220 -0.1603 -0.1515
  451MOL0     C62121   2.166  -0.531   1.352 -0.1052  0.8435 -0.1267
  451MOL0     C62122   2.171  -0.656   1.263  0.0566  0.3251  0.0871
  451MOL0     C62123   2.093  -0.775   1.320  1.0084  0.0914 -0.5722
  451MOL0     O62124   2.110  -0.894   1.245  0.5504 -0.2085  0.4712
  451MOL0     C62125   2.067  -1.006   1.306  0.3707 -1.5643 -0.1898
  451MOL0     C62126   1.931  -1.020   1.332  0.0210 -0.1997  0.0402
  451MOL0     C62127   1.893  -1.122   1.424  0.6372  0.7778 -0.3583
  451MOL0     C62128   1.751  -1.148   1.469 -0.0562 -0.1857  0.0529
  451MOL0     C62129   1.986  -1.225   1.456  0.1253  0.6413  0.2986
  451MOL0     C62130   1.957  -1.357   1.532  0.4219  0.8938  0.1329
  451MOL0     O62131   2.044  -1.460   1.498  0.3367 -0.1793 -0.8638
  451MOL0     C62132   2.076  -1.551   1.593 -1.1474 -0.3648 -0.3232
  451MOL0     C62133   1.987  -1.624   1.666  0.0460  0.3477  0.1281
  451MOL0     C62134   2.029  -1.738   1.727 -1.4530 -0.0324  0.6831
  451MOL0     C62135   2.164  -1.776   1.729 -0.7560  0.4879  1.4270
  451MOL0     O62136   2.199  -1.895   1.786  0.2338  0.0014 -0.0863
  451MOL0     C62137   2.095  -1.993   1.776 -0.3231 -0.5823  0.5714
  451MOL0     C62138   2.138  -2.134   1.819  0.2913 -1.0730 -0.2983
  451MOL0     C62139   2.140  -2.147   1.975 -1.1272  0.1660  0.1562
  451MOL0     C62140   2.205  -2.275   2.031  0.7758  0.3722  0.6570
  451MOL0     C62141   2.149  -2.405   1.962 -0.1537  0.3029  0.0310
  451MOL0     C62142   1.995  -2.417   1.993  0.4591 -0.0339  1.1928
  451MOL0     C62143   1.949  -2.560   1.964  0.6052 -0.4682 -0.3640
  451MOL0     C62144   1.942  -2.569   1.813 -0.3528 -0.6065 -0.3504
  451MOL0    Cl62145   1.833  -2.439   1.741  0.3438 -0.0672 -0.3227
  451MOL0     C62146   2.258  -1.688   1.675  0.3348  0.3249  0.3847
  451MOL0     C62147   2.220  -1.572   1.612 -0.6453  0.2786  0.9096
  451MOL0     O62148   1.890  -1.350   1.632  0.1217 -0.3645  0.5931
  451MOL0     C62149   2.116  -1.210   1.410 -0.6882 -0.6154  0.0403
  451MOL0     C62150   2.157  -1.099   1.338  0.1694  0.1919 -0.2362
  451MOL0     N62151   2.393  -0.283   1.476  0.3854 -0.2805  0.1754
  451MOL0     N62152   2.378  -0.176   1.542 -0.4006  0.0490 -0.3303
  451MOL0     C62153   2.244   0.777   2.004  0.3654 -0.1152  0.0110
  451MOL0     C62154   2.328   0.828   2.104  0.5545 -0.5181  0.6164
  451MOL0     C62155   2.634   1.044   2.357  0.6307 -0.4430 -0.0340
  451MOL0     C62156   2.730   0.949   2.390  0.0686  0.7716 -1.2282
  451MOL0     C62157   2.824   0.978   2.487  0.6347  1.0152  0.3889
  451MOL0     C62158   2.837   1.107   2.546 -0.5377  0.1191 -0.0397
  451MOL0     O62159   2.920   1.125   2.655  0.4290 -0.6431 -0.2932
  451MOL0     C62160   2.847   1.150   2.775  0.2057 -0.3980 -0.0278
  451MOL0     C62161   2.891   1.272   2.852 -0.0681 -0.5988 -0.2210
  451MOL0     C62162   3.050   1.266   2.852  0.6043 -0.1081 -0.0915
  451MOL0     C62163   3.106   1.385   2.918 -0.6418 -1.1751  0.3164
  451MOL0     C62164   3.255   1.379   2.913 -0.6532 -0.2082 -1.1418
  451MOL0     C62165   3.375   1.349   2.896  1.6354 -0.6408  0.0466
  451MOL0     C62166   2.739   1.206   2.503 -0.4111  1.0387 -0.6239
  451MOL0     C62167   2.639   1.170   2.417  0.0928  0.0851 -0.3466
  451MOL0     C62168   2.533   1.279   2.403  0.2769 -0.1920  0.4224
  451MOL0     H62169   2.622   0.841   1.946 -1.0041 -2.3682 -0.9618
  451MOL0     H62170   2.473   0.750   1.765  1.6644  0.4345  0.2314
  451MOL0     H62171   2.037   0.748   1.831  0.4806  0.2080  1.2246
  451MOL0     H62172   2.070   0.571   1.838  3.3964  0.3940  1.5314
  451MOL0     H62173   1.920   0.613   1.657  0.4001  0.8290 -0.1972
  451MOL0     H62174   2.026   0.727   1.590  0.9386 -1.3263 -1.1538
  451MOL0     H62175   2.212   0.540   1.583  1.1901 -4.3287 -0.5592
  451MOL0     H62176   2.095   0.439   1.654  2.4140  0.9468  0.3305
  451MOL0     H62177   1.959   0.444   1.447  0.2945 -1.5752  2.7523
  451MOL0     H62178   2.062   0.551   1.369 -3.1463  0.2870  1.5484
  451MOL0     H62179   2.256   0.374   1.389 -1.0734 -0.8887 -2.8408
  451MOL0     H62180   2.118   0.334   1.296  0.0475 -0.0512  0.0522
  451MOL0     H62181   2.182   0.265   1.585  1.6199  3.0209 -0.5003
  451MOL0     H62182   2.035   0.203   1.499 -0.0579  1.8401 -1.1779
  451MOL0     H62183   2.314   0.157   1.426  0.7628 -2.0825 -6.2010
  451MOL0     H62184   2.168   0.084   1.345 -2.0087  1.0911  0.2627
  451MOL0     H62185   2.273   0.042   1.629  0.6013 -0.6200  0.6694
  451MOL0     H62186   2.105  -0.000   1.581 -0.1369  2.6867 -0.8402
  451MOL0     H62187   2.091  -0.164   1.384  1.0477 -0.5674 -2.2587
  451MOL0     H62188   2.353  -0.454   1.276 -0.1873 -0.3163  2.6349
  451MOL0     H62189   2.215  -0.364   1.227  0.9659 -0.3360 -1.4769
  451MOL0     H62190   2.197  -0.563   1.452 -0.3823 -0.3197 -0.4026
  451MOL0     H62191   2.068  -0.484   1.362 -0.8138 -0.4791 -0.6298
  451MOL0     H62192   2.142  -0.640   1.159  2.2454 -0.9876 -0.7795
  451MOL0     H62193   2.272  -0.694   1.246 -0.0149  0.4636 -0.6597
  451MOL0     H62194   2.117  -0.775   1.427 -3.3685  0.3469  0.5942
  451MOL0     H62195   1.989  -0.743   1.329 -0.2541 -3.9090  1.4221
  451MOL0     H62196   1.860  -0.947   1.293  0.8721  0.3829 -0.4396
  451MOL0     H62197   1.685  -1.085   1.408  3.0643  0.9872 -2.3970
  451MOL0     H62198   1.739  -1.126   1.575  1.2123 -0.5640  0.2874
  451MOL0     H62199   1.733  -1.255   1.454  1.5863 -0.8073  2.0525
  451MOL0     H62200   1.881  -1.616   1.645 -0.1279 -2.7289 -0.7397
  451MOL0     H62201   1.945  -1.793   1.768 -3.4134  1.1162 -1.5487
  451MOL0     H62202   2.011  -1.964   1.840 -1.7692  0.7791 -1.7572
  451MOL0     H62203   2.049  -1.993   1.676  0.8653 -2.8052 -0.0317
  451MOL0     H62204   2.067  -2.201   1.771 -1.0375 -0.2988  0.5469
  451MOL0     H62205   2.239  -2.157   1.784  0.2059 -2.0565  0.0760
  451MOL0     H62206   2.036  -2.155   2.006 -0.2219 -3.2472  2.9401
  451MOL0     H62207   2.200  -2.071   2.027  3.0741 -2.8914  0.3302
  451MOL0     H62208   2.181  -2.269   2.137 -0.2026 -0.2389  0.4778
  451MOL0     H62209   2.311  -2.260   2.005  0.0313  2.7078 -1.4145
  451MOL0     H62210   2.174  -2.411   1.856 -1.3098  1.8569 -0.3624
  451MOL0     H62211   2.189  -2.496   2.007 -1.1304  0.6124  1.5957
  451MOL0     H62212   1.937  -2.346   1.934  0.0487 -2.6606 -1.8109
  451MOL0     H62213   1.980  -2.393   2.099  1.6635  1.6816  1.0169
  451MOL0     H62214   1.852  -2.588   2.007  2.2032 -2.7668  2.0947
  451MOL0     H62215   2.011  -2.635   2.014  0.5152 -0.0749  0.3557
  451MOL0     H62216   1.922  -2.676   1.798  1.1123 -0.9640  0.0519
  451MOL0     H62217   2.041  -2.558   1.768 -1.4445  0.7490 -2.5966
  451MOL0     H62218   2.360  -1.708   1.706 -0.0056 -2.5568 -0.0342
  451MOL0     H62219   2.296  -1.510   1.566 -0.3010 -2.4207 -2.5828
  451MOL0     H62220   2.191  -1.286   1.433 -2.9393 -2.5980  1.3491
  451MOL0     H62221   2.261  -1.082   1.315  0.1552  0.1009 -0.3696
  451MOL0     H62222   2.138   0.765   2.021  0.2259  0.5303 -0.3688
  451MOL0     H62223   2.288   0.840   2.204  1.8918 -2.9768  1.5212
  451MOL0     H62224   2.717   0.845   2.362 -2.9810  0.6155  0.3032
  451MOL0     H62225   2.893   0.899   2.515  0.3394  0.2991 -0.8413
  451MOL0     H62226   2.744   1.182   2.756  0.6977  0.7752 -0.8401
  451MOL0     H62227   2.843   1.063   2.841 -1.2608  1.3563  2.3921
  451MOL0     H62228   2.855   1.266   2.956 -0.4632 -2.0070 -0.4146
  451MOL0     H62229   2.863   1.359   2.793 -3.1725 -3.6528 -3.8225
  451MOL0     H62230   3.084   1.176   2.904 -0.1494 -1.1661 -1.3456
  451MOL0     H62231   3.078   1.267   2.746 -2.1835 -0.2693 -0.9063
  451MOL0     H62232   3.071   1.417   3.016 -0.9954 -1.9035  0.4310
  451MOL0     H62233   3.082   1.473   2.857 -1.4903 -0.0411  2.1907
  451MOL0     H62234   3.470   1.301   2.884  0.8242 -2.6672  1.1879
  451MOL0     H62235   2.740   1.301   2.555  0.7822  2.1840 -2.5649
  451MOL0     H62236   2.531   1.311   2.299  0.6306 -0.0148  0.4674
  451MOL0     H62237   2.429   1.257   2.429 -0.1843  2.2141  0.8527
  451MOL0     H62238   2.566   1.366   2.462 -3.3747  0.6048  1.5074
  452MOL0     O62239   7.200   3.312  10.019 -0.2232 -0.4711 -0.0606
  452MOL0     C62240   7.294   3.377  10.057  0.2740 -0.6776  1.1119
  452MOL0     O62241   7.407   3.393   9.988  0.0653 -0.2797 -0.3450
  452MOL0     C62242   7.453   3.319   9.880  0.5206 -0.4250  1.0451
  452MOL0     C62243   7.404   3.202   9.830 -0.2805 -0.5639  0.3127
  452MOL0     C62244   7.447   3.157   9.709  0.4752 -0.5585 -0.3655
  452MOL0     C62245   7.545   3.233   9.637 -0.7053  0.9493  0.8389
  452MOL0     O62246   7.590   3.199   9.504  0.1562 -0.6059 -0.7901
  452MOL0     C62247   7.545   3.071   9.464 -0.3588  1.0702  0.3569
  452MOL0     C62248   7.626   3.052   9.339 -0.0304  0.7658  0.5063
  452MOL0     C62249   7.615   3.170   9.237 -0.1890  0.5459 -0.1693
  452MOL0     C62250   7.666   3.131   9.099  0.5195  0.2414  0.1490
  452MOL0     C62251   7.699   3.253   9.021  0.2296  0.0055 -0.3490
  452MOL0     C62252   7.715   3.203   8.872 -0.1403  0.3398  0.4021
  452MOL0     C62253   7.730   3.325   8.778 -0.7708 -0.7407 -1.2503
  452MOL0     C62254   7.604   3.398   8.717 -0.1778 -0.0620  1.1165
  452MOL0     N62255   7.631   3.529   8.656  0.0630  0.2055 -1.0129
  452MOL0     C62256   7.700   3.566   8.543 -0.1159 -0.3685  0.3181
  452MOL0     C62257   7.724   3.698   8.552 -0.6268  0.1489 -0.2323
  452MOL0     C62258   7.790   3.773   8.432  0.0961 -0.6761 -0.8965
  452MOL0     C62259   7.682   3.806   8.336 -0.0654 -0.7256  0.2525
  452MOL0     C62260   7.639   3.955   8.348  0.0325  0.6675 -0.7082
  452MOL0     C62261   7.549   4.000   8.241  0.1082 -0.0185  1.1299
  452MOL0     O62262   7.515   4.136   8.264 -0.3387 -0.4740 -0.6809
  452MOL0     C62263   7.437   4.191   8.173 -0.2223 -0.1760  0.6220
  452MOL0     C62264   7.485   4.216   8.046 -0.2003 -0.3255 -1.3712
  452MOL0     C62265   7.405   4.288   7.956  0.7393  0.1572 -0.2874
  452MOL0     C62266   7.473   4.354   7.840  0.3883 -0.0602  0.3023
  452MOL0     C62267   7.275   4.327   7.981 -0.4235 -0.3753  0.0685
  452MOL0     C62268   7.192   4.414   7.903  0.6286  0.0032 -0.0365
  452MOL0     O62269   7.062   4.383   7.914 -1.0080  0.0043  0.0875
  452MOL0     C62270   6.957   4.464   7.886  0.4676 -0.6691  0.1776
  452MOL0     C62271   6.826   4.406   7.872  0.5423 -0.6292  0.4168
  452MOL0     C62272   6.719   4.468   7.811 -0.6062  0.6041 -0.4868
  452MOL0     C62273   6.732   4.600   7.768  0.6344 -0.0998 -0.0456
  452MOL0     O62274   6.637   4.662   7.698 -0.4896 -0.3063  0.9564
  452MOL0     C62275   6.501   4.600   7.703  0.4431  0.6307 -0.4470
  452MOL0     C62276   6.383   4.695   7.676 -0.6069 -0.4680  0.8812
  452MOL0     C62277   6.383   4.805   7.781  0.0016 -0.9830 -0.0930
  452MOL0     C62278   6.266   4.900   7.755  0.8443  0.8480  0.0737
  452MOL0     C62279   6.297   4.989   7.638  0.5196  0.1930  0.8920
  452MOL0     C62280   6.438   5.061   7.636  0.3710  0.1011  0.1028
  452MOL0     C62281   6.461   5.175   7.544 -0.8074 -0.9866 -1.4073
  452MOL0     C62282   6.608   5.220   7.524  0.6714  0.2237 -1.7627
  452MOL0    Cl62283   6.640   5.352   7.652  0.1309  0.2024 -0.0120
  452MOL0     C62284   6.855   4.661   7.788 -0.1758  0.2257 -0.2685
  452MOL0     C62285   6.960   4.604   7.855  0.2712 -0.2434 -0.7564
  452MOL0     O62286   7.236   4.499   7.828 -0.0743  0.3536  0.5938
  452MOL0     C62287   7.225   4.281   8.110  0.2814 -0.2853 -0.2032
  452MOL0     C62288   7.305   4.224   8.205  0.1128 -0.3145  0.8062
  452MOL0     N62289   7.676   3.738   8.673 -0.3406 -0.5333 -0.5202
  452MOL0     N62290   7.617   3.645   8.733  0.3811  0.8770  0.2588
  452MOL0     C62291   7.611   3.340   9.697  0.9073 -0.4465  0.2153
  452MOL0     C62292   7.556   3.389   9.819 -0.0269 -0.3426 -0.1010
  452MOL0     C62293   7.304   3.442  10.198  0.5934  0.6149  0.5626
  452MOL0     C62294   7.426   3.461  10.254 -0.5040 -0.5688  0.9632
  452MOL0     C62295   7.450   3.503  10.382 -0.4676 -0.2288  0.3837
  452MOL0     C62296   7.340   3.503  10.462 -0.0734 -0.1836  0.1825
  452MOL0     O62297   7.335   3.530  10.599  0.1955  0.6687 -0.0279
  452MOL0     C62298   7.453   3.551  10.667  0.9906  0.2880  0.3590
  452MOL0     C62299   7.394   3.572  10.809 -0.2963 -0.8018 -0.2409
  452MOL0     C62300   7.497   3.611  10.914  0.3869 -0.1603 -1.0639
  452MOL0     C62301   7.422   3.610  11.048  0.0050 -0.6010 -0.1320
  452MOL0     C62302   7.364   3.490  11.100  0.0009 -1.4056  0.5877
  452MOL0     C62303   7.324   3.382  11.114  0.3624 -0.3484 -0.1621
  452MOL0     C62304   7.208   3.483  10.407 -0.0114 -0.6529 -0.0299
  452MOL0     C62305   7.184   3.459  10.273 -0.1768 -0.3933 -0.4457
  452MOL0     C62306   7.046   3.432  10.222 -0.9647 -0.5535  0.3071
  452MOL0     H62307   7.330   3.138   9.878  0.6941 -2.6846 -0.9116
  452MOL0     H62308   7.407   3.061   9.681  0.0659 -0.7167  0.6858
  452MOL0     H62309   7.436   3.078   9.456 -0.5520  0.1276  1.8078
  452MOL0     H62310   7.573   2.993   9.535  0.1139  0.6391 -0.2965
  452MOL0     H62311   7.732   3.039   9.364  0.4187 -1.0031 -1.9096
  452MOL0     H62312   7.589   2.955   9.306 -1.3533  0.6845  2.1229
  452MOL0     H62313   7.514   3.207   9.218  0.4981  3.0172  0.5082
  452MOL0     H62314   7.666   3.259   9.277  0.7928 -0.9905  2.2198
  452MOL0     H62315   7.766   3.088   9.108  0.1071 -0.4062  2.1773
  452MOL0     H62316   7.588   3.074   9.047 -0.5293  1.1102  0.7268
  452MOL0     H62317   7.793   3.288   9.065  1.7635 -4.5569  0.5882
  452MOL0     H62318   7.616   3.320   9.044  1.4388  1.6405 -0.6467
  452MOL0     H62319   7.810   3.150   8.864 -0.7756 -0.6585 -1.0102
  452MOL0     H62320   7.630   3.142   8.839  0.2066  0.2112 -0.2542
  452MOL0     H62321   7.782   3.297   8.687  1.4862  2.4357 -1.0922
  452MOL0     H62322   7.789   3.401   8.829 -0.2141 -1.9233 -0.0681
  452MOL0     H62323   7.574   3.327   8.638  0.2722  2.0184 -1.0435
  452MOL0     H62324   7.529   3.404   8.796  1.8378  0.4872  3.0748
  452MOL0     H62325   7.727   3.512   8.453 -0.7611  0.2027 -0.2243
  452MOL0     H62326   7.860   3.702   8.386 -0.3395 -0.6521 -1.6115
  452MOL0     H62327   7.862   3.852   8.454 -1.3243  0.4203  0.0084
  452MOL0     H62328   7.718   3.790   8.234  0.2255 -2.1495  0.5602
  452MOL0     H62329   7.590   3.747   8.324 -0.7801  0.7898 -2.4145
  452MOL0     H62330   7.583   3.960   8.441  0.8187 -2.9599  0.0926
  452MOL0     H62331   7.728   4.019   8.349  1.9568 -1.6892 -3.0325
  452MOL0     H62332   7.593   3.988   8.142 -3.9359  1.4281 -1.0877
  452MOL0     H62333   7.457   3.942   8.242  0.3894 -0.4655  1.3904
  452MOL0     H62334   7.588   4.192   8.022  0.4053 -4.4106  3.4625
  452MOL0     H62335   7.423   4.347   7.743  0.2830 -0.1936  0.3655
  452MOL0     H62336   7.573   4.314   7.822 -1.0762 -2.6804 -3.3558
  452MOL0     H62337   7.487   4.461   7.853 -1.4411  0.3521 -0.7187
  452MOL0     H62338   6.813   4.301   7.899 -0.2169 -0.2257  1.7449
  452MOL0     H62339   6.635   4.401   7.796 -0.4854  0.5437 -0.9060
  452MOL0     H62340   6.495   4.525   7.624  0.2788  0.1852 -0.0170
  452MOL0     H62341   6.477   4.557   7.800 -3.6787  0.5408 -1.3353
  452MOL0     H62342   6.401   4.743   7.580 -1.7769 -2.4793 -0.4148
  452MOL0     H62343   6.284   4.650   7.665 -0.5303 -0.6307  0.8608
  452MOL0     H62344   6.477   4.858   7.797  0.6753 -2.6202  1.7505
  452MOL0     H62345   6.365   4.769   7.883  0.0590  0.3686  0.4168
  452MOL0     H62346   6.257   4.970   7.838 -0.3702 -1.3409  1.8946
  452MOL0     H62347   6.173   4.842   7.755  1.7512 -0.8161  3.1644
  452MOL0     H62348   6.274   4.940   7.543 -0.5543  2.2223  0.0208
  452MOL0     H62349   6.230   5.075   7.627  1.3375  0.6281 -1.3146
  452MOL0     H62350   6.519   4.988   7.627  1.2537  1.0406  0.2159
  452MOL0     H62351   6.446   5.108   7.735  0.0787 -1.0270  0.6820
  452MOL0     H62352   6.413   5.262   7.589 -0.3479 -2.3155  1.9593
  452MOL0     H62353   6.416   5.159   7.445 -1.5538  2.6589 -1.7792
  452MOL0     H62354   6.613   5.260   7.423  2.4540  0.7593 -1.5008
  452MOL0     H62355   6.672   5.132   7.530 -0.5416 -0.5749  0.7004
  452MOL0     H62356   6.882   4.763   7.764  0.2133  0.7662  2.1906
  452MOL0     H62357   7.048   4.666   7.867  0.1190  0.1387 -1.5227
  452MOL0     H62358   7.119   4.294   8.132  0.1105 -2.3886  0.4291
  452MOL0     H62359   7.270   4.192   8.303 -4.9760  2.7720  0.3735
  452MOL0     H62360   7.693   3.406   9.671  0.3198  1.3658  2.6756
  452MOL0     H62361   7.599   3.482   9.855  1.3993 -1.0371  0.0496
  452MOL0     H62362   7.517   3.437  10.199 -0.2803  3.1912 -0.6151
  452MOL0     H62363   7.554   3.522  10.407 -0.3505  4.1614 -2.3739
  452MOL0     H62364   7.510   3.458  10.677 -0.5735 -0.4355  4.5944
  452MOL0     H62365   7.509   3.642  10.642 -0.2962  2.5262  4.6778
  452MOL0     H62366   7.342   3.483  10.846  0.2940 -0.8923  0.3846
  452MOL0     H62367   7.315   3.648  10.802 -0.3833 -0.3906  3.4360
  452MOL0     H62368   7.576   3.536  10.909 -1.3135 -2.0671 -0.4070
  452MOL0     H62369   7.531   3.712  10.889 -0.5970 -0.1018 -2.2279
  452MOL0     H62370   7.351   3.693  11.042  0.5716 -0.1991 -2.4829
  452MOL0     H62371   7.495   3.644  11.122  0.1514 -3.4568  1.1881
  452MOL0     H62372   7.291   3.280  11.117  2.0922 -0.9332  0.4500
  452MOL0     H62373   7.120   3.483  10.470 -0.3688 -0.9378 -0.5180
  452MOL0     H62374   7.028   3.488  10.130 -1.3778  0.5566  1.0438
  452MOL0     H62375   7.024   3.325  10.210  2.9511 -1.3043 -1.6792
  452MOL0     H62376   6.972   3.471  10.293 -0.8009 -0.0595  0.2050
  453MOL0     O62377  10.592   8.133   3.858  0.0799 -0.3226 -0.6726
  453MOL0     C62378  10.645   8.057   3.776 -0.1744 -0.4242  0.8859
  453MOL0     O62379  10.720   8.095   3.670 -0.4711  0.5246  0.0000
  453MOL0     C62380  10.714   8.224   3.617  0.8824  0.4874 -0.3568
  453MOL0     C62381  10.827   8.291   3.593 -0.4689 -0.1420 -1.1153
  453MOL0     C62382  10.827   8.425   3.544  0.2579 -0.3083  0.2901
  453MOL0     C62383  10.709   8.491   3.526  0.8804  0.1517 -0.5334
  453MOL0     O62384  10.708   8.619   3.491 -0.8462 -0.9119  0.0491
  453MOL0     C62385  10.824   8.695   3.436 -0.2968  0.1096 -0.6414
  453MOL0     C62386  10.798   8.846   3.450  0.3637  0.0204 -1.0212
  453MOL0     C62387  10.934   8.915   3.417 -0.0503  0.3496 -1.0509
  453MOL0     C62388  10.919   9.066   3.449 -0.3967 -0.2739 -0.1835
  453MOL0     C62389  11.013   9.144   3.363 -0.3999 -0.6540 -0.0920
  453MOL0     C62390  10.964   9.146   3.217  0.4927 -0.4999  0.7931
  453MOL0     C62391  11.024   9.259   3.141 -0.6201  0.5822  0.5242
  453MOL0     C62392  11.176   9.242   3.112  0.0417  0.1119  0.5709
  453MOL0     N62393  11.243   9.352   3.052  0.2249  0.2472  0.6899
  453MOL0     C62394  11.224   9.481   3.080 -0.2743 -0.0155 -0.3599
  453MOL0     C62395  11.315   9.545   3.009  0.4912  0.0463  0.4760
  453MOL0     C62396  11.349   9.688   3.033  0.1307 -0.4353 -0.4674
  453MOL0     C62397  11.287   9.781   2.935  0.1589 -0.7914  0.2728
  453MOL0     C62398  11.198   9.887   3.010  0.0281  1.2966 -0.8260
  453MOL0     C62399  11.053   9.842   3.052 -0.4545 -0.3144  0.1762
  453MOL0     O62400  11.049   9.738   3.148  0.2716  0.7633 -0.1354
  453MOL0     C62401  10.926   9.683   3.184  0.1494  0.9194 -0.4945
  453MOL0     C62402  10.801   9.721   3.145  0.0550 -0.9975  0.3361
  453MOL0     C62403  10.688   9.676   3.211  0.3297  0.1863 -0.6723
  453MOL0     C62404  10.562   9.747   3.166  0.5749 -0.6296 -1.1661
  453MOL0     C62405  10.692   9.578   3.308 -0.3039 -0.1871 -0.3777
  453MOL0     C62406  10.567   9.538   3.387 -0.7847 -0.6840 -0.5851
  453MOL0     O62407  10.602   9.474   3.500 -0.6054  0.3664 -0.1306
  453MOL0     C62408  10.499   9.405   3.557 -0.3833 -1.1405  0.5123
  453MOL0     C62409  10.415   9.459   3.652 -0.4804  0.6788  0.3904
  453MOL0     C62410  10.321   9.376   3.718 -1.6460  0.3642  0.1712
  453MOL0     C62411  10.316   9.242   3.695  0.2441 -0.0172 -0.3605
  453MOL0     O62412  10.228   9.164   3.766  0.2278 -0.3077 -0.0950
  453MOL0     C62413  10.086   9.200   3.778 -0.8579  0.8881 -0.4567
  453MOL0     C62414  10.047   9.112   3.893  1.0647  1.1052  0.4653
  453MOL0     C62415   9.898   9.118   3.916 -0.0644  0.3814  1.1418
  453MOL0     C62416   9.852   9.022   4.027 -0.0175  0.1388 -0.6665
  453MOL0     C62417   9.836   8.879   3.982 -0.8825  0.0280  1.1595
  453MOL0     C62418   9.717   8.852   3.889 -0.3461 -0.2290 -0.3215
  453MOL0     C62419   9.682   8.695   3.912 -0.3550 -0.3985 -0.2205
  453MOL0     C62420   9.625   8.639   3.782 -0.4045 -0.1248  0.4156
  453MOL0    Cl62421   9.459   8.686   3.752 -0.2295  0.0420  0.1594
  453MOL0     C62422  10.406   9.178   3.609  0.7015  0.0048 -0.2381
  453MOL0     C62423  10.502   9.259   3.547 -0.2027  0.7162 -0.7556
  453MOL0     O62424  10.452   9.568   3.356 -0.3833  0.7209  0.5049
  453MOL0     C62425  10.817   9.524   3.333  0.2187 -0.5251 -0.3386
  453MOL0     C62426  10.940   9.577   3.279  0.6542 -0.1635 -0.5248
  453MOL0     N62427  11.369   9.454   2.924  0.9193 -0.3343 -0.8576
  453MOL0     N62428  11.335   9.337   2.954  1.1970 -0.3449  0.6761
  453MOL0     C62429  10.586   8.428   3.555 -0.7226  0.7767 -0.1817
  453MOL0     C62430  10.589   8.292   3.600 -0.4865 -0.8151  0.0353
  453MOL0     C62431  10.641   7.914   3.778  0.4291  0.5704  0.1311
  453MOL0     C62432  10.635   7.847   3.905  0.7539 -0.2496 -0.6088
  453MOL0     C62433  10.613   7.713   3.916  0.1642 -0.4253  0.1301
  453MOL0     C62434  10.593   7.626   3.808 -1.1376  0.0854  0.6390
  453MOL0     O62435  10.558   7.501   3.818  0.5273  0.5725 -0.3674
  453MOL0     C62436  10.641   7.421   3.906 -0.0171 -0.7872  0.1399
  453MOL0     C62437  10.776   7.399   3.838  0.4688 -0.5161  0.0744
  453MOL0     C62438  10.868   7.312   3.918  1.0219 -0.3332  0.0951
  453MOL0     C62439  11.012   7.314   3.866  0.7096  0.1381  1.0241
  453MOL0     C62440  11.086   7.208   3.936 -0.0026 -0.1669  0.4506
  453MOL0     C62441  11.143   7.122   4.000 -0.9764  0.2162 -1.0313
  453MOL0     C62442  10.602   7.696   3.687  1.1125  0.3398 -0.1448
  453MOL0     C62443  10.611   7.836   3.665 -0.8325 -0.4186  0.4469
  453MOL0     C62444  10.577   7.907   3.534  0.5526  0.4117 -0.2862
  453MOL0     H62445  10.921   8.242   3.612  0.8567  2.6739  0.1991
  453MOL0     H62446  10.922   8.474   3.521  0.8563 -0.2951  2.5450
  453MOL0     H62447  10.843   8.648   3.339  1.8809 -1.0427  0.2843
  453MOL0     H62448  10.914   8.670   3.493  0.7385 -1.8869 -2.9586
  453MOL0     H62449  10.724   8.890   3.382  0.5041  1.6912 -0.1548
  453MOL0     H62450  10.765   8.869   3.552  0.7014  1.3436 -1.1853
  453MOL0     H62451  10.998   8.868   3.492 -2.6686  1.5126  2.1647
  453MOL0     H62452  10.957   8.902   3.311 -0.1077  1.6517 -1.2384
  453MOL0     H62453  10.816   9.101   3.440 -0.3735 -0.5662 -1.8129
  453MOL0     H62454  10.957   9.085   3.550  1.6756 -2.6650 -0.3996
  453MOL0     H62455  11.116   9.110   3.381  0.6671  3.1992  2.2259
  453MOL0     H62456  11.026   9.247   3.398  1.2822 -0.8024 -0.1678
  453MOL0     H62457  10.973   9.047   3.171 -4.7563 -0.7093 -0.3384
  453MOL0     H62458  10.862   9.186   3.222 -0.0755 -2.0680  3.2702
  453MOL0     H62459  11.014   9.359   3.185 -0.4112  1.2189 -0.8082
  453MOL0     H62460  10.974   9.265   3.043 -1.8152 -0.4740  1.0411
  453MOL0     H62461  11.232   9.217   3.203 -1.7417  1.5392  2.1400
  453MOL0     H62462  11.189   9.160   3.041  0.8725  1.8916 -1.4168
  453MOL0     H62463  11.156   9.528   3.150  1.7696  0.0727  1.6542
  453MOL0     H62464  11.456   9.708   3.025 -0.2262  0.9628 -2.9509
  453MOL0     H62465  11.300   9.704   3.129  0.2420  0.0155 -0.4826
  453MOL0     H62466  11.359   9.832   2.869 -4.9878  0.3869 -5.3510
  453MOL0     H62467  11.217   9.734   2.866 -1.8115 -0.8861  2.2512
  453MOL0     H62468  11.246   9.935   3.096 -2.3458 -0.2603  1.5152
  453MOL0     H62469  11.180   9.973   2.946 -3.0844  0.0114 -1.8673
  453MOL0     H62470  11.015   9.933   3.098  2.6383  1.5275 -0.6028
  453MOL0     H62471  10.997   9.821   2.960 -3.0509 -0.0478  1.6223
  453MOL0     H62472  10.773   9.789   3.065 -0.7382 -0.0029  1.4193
  453MOL0     H62473  10.518   9.788   3.257  0.2942 -1.7876 -0.7646
  453MOL0     H62474  10.493   9.672   3.125 -2.5844  0.4601  1.6871
  453MOL0     H62475  10.578   9.821   3.086  1.5864  1.9349  1.2290
  453MOL0     H62476  10.411   9.565   3.675  2.0193  0.6942  1.0011
  453MOL0     H62477  10.258   9.413   3.797  0.0193 -1.2142  2.3846
  453MOL0     H62478  10.088   9.299   3.825 -0.9783 -0.8228  3.5406
  453MOL0     H62479  10.045   9.187   3.677 -0.1478 -2.6466 -0.4066
  453MOL0     H62480  10.072   9.007   3.876 -1.3929  0.3815  0.9472
  453MOL0     H62481  10.104   9.133   3.984  3.9045 -1.3823 -0.5585
  453MOL0     H62482   9.838   9.088   3.829  0.0016  1.6909  0.6303
  453MOL0     H62483   9.863   9.220   3.934  1.7781  0.9587  1.6778
  453MOL0     H62484   9.755   9.059   4.062  0.5421  2.3851 -1.3158
  453MOL0     H62485   9.928   9.021   4.106 -0.9567 -0.1748  0.2593
  453MOL0     H62486   9.929   8.836   3.944 -1.3106 -0.3090  0.4770
  453MOL0     H62487   9.823   8.826   4.077  0.9403  4.2660  4.1137
  453MOL0     H62488   9.738   8.875   3.785 -0.3968 -0.6179 -0.4205
  453MOL0     H62489   9.625   8.900   3.921 -0.6824  0.7359 -2.5746
  453MOL0     H62490   9.610   8.677   3.992 -2.4809  0.5651 -1.8122
  453MOL0     H62491   9.773   8.636   3.925 -1.1812 -1.8359 -0.7212
  453MOL0     H62492   9.620   8.530   3.790 -1.7661  0.0386  2.3739
  453MOL0     H62493   9.680   8.683   3.698  0.7517 -0.1658  1.1259
  453MOL0     H62494  10.404   9.071   3.589  1.8142  0.0131 -0.4500
  453MOL0     H62495  10.589   9.219   3.497 -0.5906 -1.7203  0.3800
  453MOL0     H62496  10.816   9.449   3.411 -5.5963  0.0023  0.5193
  453MOL0     H62497  11.035   9.537   3.312  0.6764 -0.1476 -0.5701
  453MOL0     H62498  10.494   8.484   3.543 -2.7107 -2.7379 -3.9856
  453MOL0     H62499  10.499   8.234   3.616 -0.3967 -2.0570 -3.1554
  453MOL0     H62500  10.652   7.894   4.002  1.2334 -1.0630 -0.2808
  453MOL0     H62501  10.596   7.686   4.020 -1.7682 -0.1313 -0.0576
  453MOL0     H62502  10.662   7.474   3.999  2.2185  1.3160 -1.4420
  453MOL0     H62503  10.598   7.320   3.913  2.1429 -2.1880 -3.6223
  453MOL0     H62504  10.823   7.497   3.828 -0.1247 -0.0187  1.7161
  453MOL0     H62505  10.773   7.351   3.740 -3.7244  1.6704 -1.1112
  453MOL0     H62506  10.873   7.346   4.022 -4.5993 -0.5571  0.7197
  453MOL0     H62507  10.825   7.212   3.934  2.0976 -0.8766 -0.2644
  453MOL0     H62508  11.055   7.413   3.881  1.8097 -0.2600  0.6100
  453MOL0     H62509  11.017   7.281   3.761  0.3064  2.6680  0.1513
  453MOL0     H62510  11.210   7.059   4.056 -1.2373  0.1698 -0.7690
  453MOL0     H62511  10.572   7.643   3.597 -0.9643  0.5455  0.3732
  453MOL0     H62512  10.672   7.936   3.486  2.4566  0.3655  3.1412
  453MOL0     H62513  10.531   7.826   3.478  0.1692 -2.1509  3.3749
  453MOL0     H62514  10.509   7.990   3.557 -1.0228 -0.3855 -1.8405
  454MOL0     O62515   5.961  11.461   1.016  0.0320  0.3254 -0.1400
  454MOL0     C62516   5.942  11.382   0.920 -0.2404  0.2086 -0.1401
  454MOL0     O62517   5.875  11.404   0.812  0.9506  0.2672 -0.0219
  454MOL0     C62518   5.812  11.522   0.788 -0.0015  0.3203  0.3577
  454MOL0     C62519   5.743  11.602   0.890  0.3910  0.4796 -0.4189
  454MOL0     C62520   5.671  11.707   0.859  1.3527 -0.5190  0.2739
  454MOL0     C62521   5.656  11.744   0.714 -1.3615  0.0812  0.0906
  454MOL0     O62522   5.579  11.846   0.671  0.0789  0.6297 -0.1515
  454MOL0     C62523   5.441  11.794   0.660 -0.4687  0.0965 -0.4303
  454MOL0     C62524   5.345  11.876   0.570  0.1437  0.7114 -0.3120
  454MOL0     C62525   5.300  12.004   0.640 -0.9892 -0.8080 -0.1961
  454MOL0     C62526   5.239  12.100   0.541  0.1048 -0.0230 -0.8192
  454MOL0     C62527   5.204  12.250   0.576  0.5773  0.3888 -0.1629
  454MOL0     C62528   5.124  12.247   0.709 -0.8946 -0.4446 -0.3062
  454MOL0     C62529   5.100  12.377   0.780  0.3622  0.5016 -0.5584
  454MOL0     C62530   5.226  12.463   0.799  0.3986 -0.0418 -0.4050
  454MOL0     N62531   5.223  12.578   0.892  0.3902  0.0459  0.6408
  454MOL0     C62532   5.224  12.702   0.842 -0.0313 -0.2201 -1.1626
  454MOL0     C62533   5.208  12.774   0.954  0.2697 -0.1736 -0.8569
  454MOL0     C62534   5.170  12.913   0.962  0.1087 -0.6113  0.4070
  454MOL0     C62535   5.031  12.939   1.010 -0.8284  0.4654  0.0572
  454MOL0     C62536   4.920  12.886   0.921  0.3373  0.6362 -0.8031
  454MOL0     C62537   4.787  12.941   0.964 -0.1681  0.0530 -0.3507
  454MOL0     O62538   4.734  12.870   1.078  0.4537  0.5846  0.7105
  454MOL0     C62539   4.624  12.927   1.138 -0.1347 -0.8554 -1.1358
  454MOL0     C62540   4.600  12.885   1.273  0.9969 -0.1607 -0.3284
  454MOL0     C62541   4.501  12.938   1.355 -0.0856  0.3888 -0.4983
  454MOL0     C62542   4.471  12.869   1.491 -0.6091 -0.2683 -0.4386
  454MOL0     C62543   4.431  13.051   1.301 -0.9516 -0.1972  0.6496
  454MOL0     C62544   4.329  13.130   1.365 -0.6159  0.2062 -0.3062
  454MOL0     O62545   4.202  13.124   1.340  0.0114 -0.1101  0.4851
  454MOL0     C62546   4.144  13.015   1.271  0.0243  0.4831 -0.0670
  454MOL0     C62547   4.145  12.876   1.312 -0.3882 -0.1686 -0.7107
  454MOL0     C62548   4.074  12.777   1.238 -0.0926 -0.0606  0.2749
  454MOL0     C62549   4.010  12.804   1.114  0.0446  0.1724 -0.2106
  454MOL0     O62550   3.960  12.703   1.037  0.4196  0.5496  0.8278
  454MOL0     C62551   3.931  12.718   0.904 -0.4354  0.8601 -0.0393
  454MOL0     C62552   3.904  12.585   0.848  0.1077  0.1901  0.9530
  454MOL0     C62553   3.873  12.577   0.690 -0.0705  0.1053  0.0618
  454MOL0     C62554   3.878  12.434   0.634 -0.3272 -0.4879  0.0620
  454MOL0     C62555   3.827  12.408   0.493  0.0269  0.0623 -0.4872
  454MOL0     C62556   3.672  12.423   0.501 -0.1552 -0.1121  0.3068
  454MOL0     C62557   3.619  12.412   0.362 -0.6162 -0.3915  0.0441
  454MOL0     C62558   3.559  12.540   0.327  0.4308  0.1858 -0.3787
  454MOL0    Cl62559   3.656  12.688   0.352 -0.6225 -0.1717 -0.0394
  454MOL0     C62560   4.010  12.938   1.079 -0.0826 -0.8319 -0.5392
  454MOL0     C62561   4.069  13.040   1.156  0.3665 -0.5979  0.0616
  454MOL0     O62562   4.371  13.207   1.448 -0.3947  0.3498 -0.5959
  454MOL0     C62563   4.455  13.102   1.171 -0.6644  0.4479  0.8669
  454MOL0     C62564   4.551  13.046   1.096 -0.5658  0.1882 -0.3483
  454MOL0     N62565   5.223  12.689   1.067 -0.2190  0.1758 -0.3965
  454MOL0     N62566   5.218  12.570   1.027 -0.1131  0.1558  0.9158
  454MOL0     C62567   5.729  11.672   0.620  0.8786 -0.7398  0.1241
  454MOL0     C62568   5.809  11.561   0.651 -0.2012 -1.1149  0.9373
  454MOL0     C62569   6.001  11.249   0.949 -0.6418  0.1506 -0.3200
  454MOL0     C62570   6.104  11.235   1.045  0.4992 -0.3591  0.2884
  454MOL0     C62571   6.153  11.106   1.079  0.7781 -1.0217  0.3153
  454MOL0     C62572   6.111  10.991   1.005  0.1471  0.0250  0.0357
  454MOL0     O62573   6.147  10.856   1.021 -1.3578 -0.3301 -0.6609
  454MOL0     C62574   6.240  10.839   1.125 -1.3728 -0.1137 -0.1749
  454MOL0     C62575   6.385  10.872   1.102 -0.0410  0.9966 -0.0205
  454MOL0     C62576   6.479  10.795   1.200 -0.1346  0.9096 -0.6191
  454MOL0     C62577   6.614  10.850   1.209 -0.2631  0.6654  0.1480
  454MOL0     C62578   6.711  10.812   1.109  0.4037 -0.2826  0.7157
  454MOL0     C62579   6.793  10.769   1.032  0.6800  0.0079 -0.0197
  454MOL0     C62580   6.017  11.007   0.905  1.3480 -0.0954  0.7553
  454MOL0     C62581   5.953  11.134   0.885  0.4519  1.0902  0.2295
  454MOL0     C62582   5.828  11.121   0.797 -0.1165 -0.4175 -0.3716
  454MOL0     H62583   5.740  11.575   0.995 -2.0101 -0.4863 -0.6784
  454MOL0     H62584   5.602  11.757   0.926  0.8959  1.3996 -1.5070
  454MOL0     H62585   5.394  11.775   0.757 -0.2256  0.6367 -0.2035
  454MOL0     H62586   5.447  11.695   0.614 -1.0069 -0.8445  1.4168
  454MOL0     H62587   5.407  11.894   0.481  1.4215 -1.3015  0.1045
  454MOL0     H62588   5.250  11.826   0.548  0.6086  0.7588 -2.7585
  454MOL0     H62589   5.231  11.982   0.722  0.7289 -0.1631  1.5205
  454MOL0     H62590   5.386  12.046   0.693 -2.8800 -0.2873  2.7032
  454MOL0     H62591   5.310  12.108   0.458  2.5481 -0.6779  1.1019
  454MOL0     H62592   5.143  12.056   0.515  0.6496 -2.1518  0.5537
  454MOL0     H62593   5.152  12.301   0.494  1.9308  0.5957 -0.9220
  454MOL0     H62594   5.295  12.309   0.591 -0.5272  1.8022  1.3949
  454MOL0     H62595   5.023  12.215   0.681 -0.7687  0.6905 -2.2731
  454MOL0     H62596   5.174  12.173   0.771  0.7599  0.4399 -0.5224
  454MOL0     H62597   5.062  12.354   0.879  1.9530  0.9602  0.1942
  454MOL0     H62598   5.020  12.438   0.736  0.3471  0.4978 -0.5361
  454MOL0     H62599   5.303  12.391   0.830  1.5001  0.4445 -1.9275
  454MOL0     H62600   5.255  12.496   0.699  1.6456  0.4928  0.1184
  454MOL0     H62601   5.218  12.739   0.740 -0.7024 -0.8420 -1.3577
  454MOL0     H62602   5.194  12.963   0.867  2.0358 -1.8189  0.2034
  454MOL0     H62603   5.238  12.958   1.035 -1.5488 -1.8118  2.7794
  454MOL0     H62604   5.044  12.892   1.108  3.9173  3.2327  1.0559
  454MOL0     H62605   5.016  13.048   1.014 -1.8313  0.3318  0.3537
  454MOL0     H62606   4.944  12.919   0.820  3.1276 -1.5160 -0.9718
  454MOL0     H62607   4.920  12.777   0.907  0.6372  0.7651 -1.9041
  454MOL0     H62608   4.793  13.048   0.988 -0.7351 -0.6596  3.7574
  454MOL0     H62609   4.718  12.918   0.882  0.4272 -2.7828 -0.1706
  454MOL0     H62610   4.664  12.811   1.318 -0.1201  0.1548  1.9626
  454MOL0     H62611   4.479  12.761   1.482  2.2659 -0.0337 -1.5560
  454MOL0     H62612   4.374  12.899   1.534  0.8126  2.2048  1.3368
  454MOL0     H62613   4.541  12.896   1.571 -3.5647  0.7989  1.9877
  454MOL0     H62614   4.194  12.848   1.405 -0.8178 -0.8713 -0.6852
  454MOL0     H62615   4.098  12.673   1.255 -2.4756 -1.0274 -1.6805
  454MOL0     H62616   3.841  12.775   0.880 -0.7094  0.9593  1.1512
  454MOL0     H62617   4.012  12.776   0.858 -0.5010  0.9153 -0.0844
  454MOL0     H62618   3.986  12.518   0.875 -0.2169 -0.2710  0.8103
  454MOL0     H62619   3.806  12.554   0.887 -0.4911 -0.2123 -0.7803
  454MOL0     H62620   3.957  12.635   0.650 -1.6954  2.3593 -0.3258
  454MOL0     H62621   3.778  12.625   0.666 -0.1528  0.7237  1.4652
  454MOL0     H62622   3.821  12.374   0.705 -2.4894  2.4510  1.0184
  454MOL0     H62623   3.984  12.411   0.645 -0.1593  0.3236  0.1749
  454MOL0     H62624   3.874  12.477   0.422  0.5922 -2.0622 -2.2892
  454MOL0     H62625   3.847  12.303   0.474  0.4032  0.1132 -0.3798
  454MOL0     H62626   3.641  12.518   0.546 -0.7172 -0.0860 -0.1189
  454MOL0     H62627   3.642  12.340   0.567 -0.5255 -0.7884 -0.6869
  454MOL0     H62628   3.542  12.334   0.361 -0.5067 -0.5172  0.8806
  454MOL0     H62629   3.695  12.380   0.290 -0.3129 -0.2673  0.3063
  454MOL0     H62630   3.473  12.562   0.391  0.3408 -0.4207 -0.2769
  454MOL0     H62631   3.521  12.528   0.226 -1.1093 -0.0365  0.2004
  454MOL0     H62632   3.946  12.953   0.993  1.2905  1.7080 -1.2356
  454MOL0     H62633   4.049  13.145   1.134  0.1246 -0.9838 -1.7369
  454MOL0     H62634   4.408  13.193   1.135 -2.7378 -1.5161 -1.8016
  454MOL0     H62635   4.583  13.109   1.013 -5.2155  1.5314 -1.3815
  454MOL0     H62636   5.722  11.705   0.517  3.6013  1.4130  0.5258
  454MOL0     H62637   5.867  11.510   0.574 -1.6122 -0.6967 -0.4415
  454MOL0     H62638   6.151  11.323   1.088  1.3613 -0.8676  0.4156
  454MOL0     H62639   6.233  11.099   1.152  0.5020  2.1995  1.0665
  454MOL0     H62640   6.208  10.896   1.213  2.7625  2.0168  0.2327
  454MOL0     H62641   6.235  10.736   1.161  0.4851  0.7351  2.9269
  454MOL0     H62642   6.405  10.979   1.110  0.9393  0.8584 -0.4309
  454MOL0     H62643   6.412  10.847   0.999  0.8403 -3.9167  1.1126
  454MOL0     H62644   6.426  10.787   1.296 -1.8718 -1.0600 -1.6800
  454MOL0     H62645   6.497  10.691   1.174  0.1813  0.5211  1.0086
  454MOL0     H62646   6.666  10.814   1.298 -0.2365 -3.2311 -1.2540
  454MOL0     H62647   6.611  10.960   1.211  0.0997  0.8833 -3.6700
  454MOL0     H62648   6.856  10.726   0.957  0.1042 -0.5945 -0.1716
  454MOL0     H62649   6.017  10.927   0.832  1.7708  0.3343  0.2719
  454MOL0     H62650   5.842  11.172   0.701  0.1603 -3.5205 -2.1093
  454MOL0     H62651   5.803  11.016   0.781  1.9946 -0.9909 -0.2045
  454MOL0     H62652   5.741  11.171   0.840 -1.5158 -0.7103 -2.7000
  455MOL0     O62653   4.977   3.572   0.597  0.5666 -0.7062 -0.4185
  455MOL0     C62654   5.077   3.630   0.632 -0.0340 -0.7163 -0.5963
  455MOL0     O62655   5.182   3.583   0.707 -0.5422  0.3002  0.4222
  455MOL0     C62656   5.186   3.468   0.778  1.2255 -0.5819  0.1013
  455MOL0     C62657   5.097   3.361   0.777 -0.0403 -0.1375  0.3277
  455MOL0     C62658   5.108   3.252   0.860  1.0214 -0.3633 -0.2103
  455MOL0     C62659   5.208   3.243   0.954 -0.8731 -0.5226  1.1490
  455MOL0     O62660   5.219   3.146   1.057  0.1043 -0.0539  1.1984
  455MOL0     C62661   5.268   3.018   1.019 -0.5655  0.2859  0.8179
  455MOL0     C62662   5.217   2.914   1.125  0.2433 -0.2440  0.0725
  455MOL0     C62663   5.284   2.926   1.261  0.9604 -0.9036 -0.3665
  455MOL0     C62664   5.409   2.848   1.291  0.7379 -1.0983 -0.3778
  455MOL0     C62665   5.481   2.908   1.412  0.5090 -0.1541  0.3841
  455MOL0     C62666   5.617   2.841   1.429  0.3674  0.9152  0.3687
  455MOL0     C62667   5.731   2.925   1.362 -0.5388  0.2306 -0.6611
  455MOL0     C62668   5.866   2.838   1.348  0.1350 -0.5916 -0.0153
  455MOL0     N62669   5.971   2.868   1.451 -0.1993 -0.1066  0.1403
  455MOL0     C62670   5.962   2.852   1.584 -0.0695  0.5407 -0.4319
  455MOL0     C62671   6.078   2.851   1.633 -0.3284 -0.5980 -0.0161
  455MOL0     C62672   6.119   2.839   1.777  0.7735  0.0657  0.3898
  455MOL0     C62673   6.044   2.919   1.878 -1.1061  0.8623  0.3398
  455MOL0     C62674   6.095   3.072   1.873 -0.0234  0.0008  0.2809
  455MOL0     C62675   6.133   3.125   1.731  0.2197 -0.1700 -0.5749
  455MOL0     O62676   6.151   3.269   1.747 -0.6177 -0.0564 -0.1463
  455MOL0     C62677   6.191   3.343   1.631 -1.5876  0.1329 -0.8656
  455MOL0     C62678   6.198   3.481   1.642  0.3017  0.0009  0.0752
  455MOL0     C62679   6.259   3.557   1.542 -0.0023 -0.1296 -0.5293
  455MOL0     C62680   6.271   3.699   1.568 -0.2075 -0.2623  0.5805
  455MOL0     C62681   6.296   3.490   1.420 -0.0176 -0.1250 -0.5416
  455MOL0     C62682   6.351   3.559   1.301  0.5726 -1.3339 -1.2692
  455MOL0     O62683   6.315   3.518   1.173 -0.3333 -0.3961 -0.0187
  455MOL0     C62684   6.407   3.557   1.076 -0.2045  0.1491 -1.2528
  455MOL0     C62685   6.361   3.627   0.969 -1.1500  0.7774 -0.3840
  455MOL0     C62686   6.434   3.624   0.854  0.4723 -0.8660  0.3921
  455MOL0     C62687   6.564   3.578   0.854 -0.1747 -0.0541 -1.0454
  455MOL0     O62688   6.630   3.623   0.750  0.7829  0.6722  0.3812
  455MOL0     C62689   6.754   3.555   0.712 -0.7321  0.7823 -0.6690
  455MOL0     C62690   6.815   3.619   0.585  0.0490  0.0824 -0.1863
  455MOL0     C62691   6.697   3.638   0.478  0.6227 -0.8472 -0.1974
  455MOL0     C62692   6.748   3.690   0.343 -0.2995 -0.3595  0.1092
  455MOL0     C62693   6.813   3.573   0.261  1.0600  0.4133 -0.7105
  455MOL0     C62694   6.876   3.612   0.131  0.0946 -0.1517 -0.0019
  455MOL0     C62695   6.942   3.747   0.119  0.1514 -0.8438 -0.0017
  455MOL0     C62696   6.980   3.773  -0.023 -0.5293 -0.8246 -0.1323
  455MOL0    Cl62697   7.070   3.933  -0.009 -0.0936  0.0072 -0.2437
  455MOL0     C62698   6.621   3.525   0.966  0.2530  0.5468  0.0639
  455MOL0     C62699   6.538   3.496   1.079  1.2398  0.4890 -0.3993
  455MOL0     O62700   6.444   3.625   1.339 -0.2031  0.0519  0.2213
  455MOL0     C62701   6.275   3.356   1.398  0.8009 -0.8639 -0.1519
  455MOL0     C62702   6.235   3.284   1.515 -0.2334  0.2787 -0.1284
  455MOL0     N62703   6.161   2.881   1.532 -0.2657  0.3343  0.5751
  455MOL0     N62704   6.101   2.895   1.420  0.3954  0.3138 -0.0509
  455MOL0     C62705   5.307   3.345   0.955  0.5374 -0.2362  0.9773
  455MOL0     C62706   5.296   3.459   0.866 -0.4354 -0.3384  0.5209
  455MOL0     C62707   5.085   3.767   0.581  0.3149 -0.2138  0.2916
  455MOL0     C62708   5.034   3.807   0.452  0.1763  0.6320  0.4304
  455MOL0     C62709   5.038   3.936   0.408 -0.8634  0.3627 -0.5959
  455MOL0     C62710   5.115   4.035   0.468 -0.1274  0.6141 -0.1977
  455MOL0     O62711   5.128   4.153   0.406  0.8628 -0.4658 -0.1245
  455MOL0     C62712   5.191   4.257   0.476 -0.1059  0.1414 -0.5649
  455MOL0     C62713   5.181   4.390   0.383 -0.0183  0.2138 -0.1943
  455MOL0     C62714   5.043   4.454   0.368 -0.4169  0.6276 -0.6283
  455MOL0     C62715   5.063   4.599   0.326  0.6379 -0.1851 -0.5235
  455MOL0     C62716   4.938   4.662   0.285 -0.0808 -0.3868 -0.4420
  455MOL0     C62717   4.822   4.714   0.264  0.0937  0.0786  0.5680
  455MOL0     C62718   5.172   3.998   0.590 -1.5639 -1.0180  0.6155
  455MOL0     C62719   5.157   3.875   0.648 -1.2294  1.0235 -0.3811
  455MOL0     C62720   5.215   3.872   0.788  1.2887  0.7049  0.5648
  455MOL0     H62721   5.019   3.352   0.702  1.9375 -1.7098 -1.6745
  455MOL0     H62722   5.039   3.168   0.854 -1.6532  1.7988 -1.6724
  455MOL0     H62723   5.377   3.008   1.011 -0.7384 -1.0027 -0.1948
  455MOL0     H62724   5.222   2.992   0.923 -0.2806 -1.6591  1.1793
  455MOL0     H62725   5.115   2.955   1.129  0.5599  0.5489  0.0766
  455MOL0     H62726   5.201   2.809   1.097 -1.4349 -1.0167  3.3687
  455MOL0     H62727   5.301   3.032   1.283 -1.3758 -0.1271 -1.8936
  455MOL0     H62728   5.201   2.898   1.327 -1.5222  1.0407 -2.4508
  455MOL0     H62729   5.367   2.752   1.320 -0.0525 -1.1591 -1.6420
  455MOL0     H62730   5.464   2.834   1.197 -2.5785 -2.0040 -2.3531
  455MOL0     H62731   5.428   2.896   1.506  2.3170 -0.2993  1.4381
  455MOL0     H62732   5.488   3.017   1.402  2.7248 -0.4003 -1.8417
  455MOL0     H62733   5.642   2.838   1.535  0.9368  3.7292  0.3938
  455MOL0     H62734   5.618   2.738   1.394 -2.6962  1.9180 -3.3596
  455MOL0     H62735   5.751   3.012   1.425  0.7517 -0.1431 -0.5339
  455MOL0     H62736   5.702   2.950   1.259  1.4926  0.5357 -1.1924
  455MOL0     H62737   5.835   2.733   1.342 -0.8263 -0.2552 -2.4912
  455MOL0     H62738   5.918   2.860   1.254 -1.8374  1.8866 -0.6609
  455MOL0     H62739   5.866   2.834   1.632  0.2716  0.3671  0.1857
  455MOL0     H62740   6.219   2.885   1.782 -1.9319  7.2345  0.8647
  455MOL0     H62741   6.123   2.736   1.812  0.1183  0.4844  1.8014
  455MOL0     H62742   5.939   2.919   1.846 -1.9970  0.6723  2.9864
  455MOL0     H62743   6.051   2.883   1.981  1.1682 -0.1422 -0.1053
  455MOL0     H62744   6.017   3.133   1.918  0.7907  0.2096  1.4567
  455MOL0     H62745   6.182   3.089   1.936 -1.6962  2.5806  2.0396
  455MOL0     H62746   6.225   3.086   1.688 -0.2475  0.5671 -2.3318
  455MOL0     H62747   6.053   3.113   1.657 -0.0682 -0.1207 -0.2715
  455MOL0     H62748   6.168   3.519   1.739 -3.9737 -1.7368 -0.3366
  455MOL0     H62749   6.227   3.738   1.661 -2.4493  1.9232 -1.2443
  455MOL0     H62750   6.196   3.744   1.502 -1.2561 -0.0354  1.8768
  455MOL0     H62751   6.371   3.743   1.555 -0.1650 -0.6825 -0.6314
  455MOL0     H62752   6.256   3.654   0.957 -1.6731  0.5024  2.6537
  455MOL0     H62753   6.393   3.653   0.757  0.3536 -0.4074  0.5794
  455MOL0     H62754   6.820   3.590   0.792 -2.1954  1.8890  0.1056
  455MOL0     H62755   6.744   3.446   0.708 -2.7623  0.9406 -0.6725
  455MOL0     H62756   6.863   3.713   0.615 -0.2504 -0.9121  4.0184
  455MOL0     H62757   6.891   3.557   0.537  0.1413  0.5172 -0.6173
  455MOL0     H62758   6.627   3.709   0.524  0.4959 -0.7021 -0.6055
  455MOL0     H62759   6.641   3.548   0.451 -0.6618  0.3879 -1.8708
  455MOL0     H62760   6.832   3.759   0.354 -0.8791 -0.0219  4.0371
  455MOL0     H62761   6.665   3.740   0.294  0.1096  0.3961  0.1848
  455MOL0     H62762   6.902   3.529   0.307  1.2126 -1.1278 -2.3663
  455MOL0     H62763   6.748   3.489   0.235 -0.5296  1.5398 -0.4660
  455MOL0     H62764   6.806   3.614   0.047 -0.9381 -0.2831  0.8323
  455MOL0     H62765   6.941   3.531   0.095 -0.5449 -0.7811  0.2305
  455MOL0     H62766   7.030   3.747   0.184  0.9646  3.3288 -0.7797
  455MOL0     H62767   6.870   3.826   0.143 -3.7144 -3.9634 -0.4144
  455MOL0     H62768   6.885   3.777  -0.076 -1.6276 -0.5246  1.7613
  455MOL0     H62769   7.044   3.697  -0.068 -0.7480  1.2848 -4.5097
  455MOL0     H62770   6.724   3.493   0.969 -0.4226 -2.4784 -2.7950
  455MOL0     H62771   6.561   3.440   1.168  2.2521 -1.0710 -1.5875
  455MOL0     H62772   6.290   3.299   1.307 -3.5909 -1.5273 -0.7028
  455MOL0     H62773   6.219   3.177   1.507 -2.9537  0.5167  1.1921
  455MOL0     H62774   5.387   3.327   1.025  0.8789  0.9939  0.9257
  455MOL0     H62775   5.375   3.533   0.871 -1.9629  1.2677  2.0527
  455MOL0     H62776   4.981   3.726   0.403  3.1466 -0.9202 -0.4588
  455MOL0     H62777   4.995   3.964   0.312 -0.4122 -0.1515 -0.9574
  455MOL0     H62778   5.146   4.275   0.574  2.5611  1.9582  0.4758
  455MOL0     H62779   5.297   4.235   0.489 -0.3321  0.4710  2.7332
  455MOL0     H62780   5.203   4.364   0.279  1.3714 -2.1951  0.6332
  455MOL0     H62781   5.253   4.468   0.412  0.6232  0.7039 -2.8334
  455MOL0     H62782   4.990   4.396   0.291  0.2295 -1.0025  0.0991
  455MOL0     H62783   4.993   4.454   0.465  0.6435  0.9771 -0.0798
  455MOL0     H62784   5.131   4.602   0.240  1.7014  0.1615  0.3005
  455MOL0     H62785   5.108   4.655   0.409 -0.0986  1.4174 -1.1657
  455MOL0     H62786   4.722   4.749   0.248 -1.4098 -3.7365  0.6536
  455MOL0     H62787   5.210   4.074   0.658 -0.4039  0.6724 -1.7881
  455MOL0     H62788   5.167   3.950   0.848  0.3987 -0.1977  1.0638
  455MOL0     H62789   5.193   3.771   0.824 -2.4337  0.5337 -1.6000
  455MOL0     H62790   5.322   3.895   0.785  1.5995 -0.4779  1.7206
  456MOL0     O62791   8.597   8.115   2.437 -0.3774 -0.7047 -0.1469
  456MOL0     C62792   8.674   8.191   2.377 -1.4517 -0.5433 -0.3298
  456MOL0     O62793   8.640   8.298   2.295  0.8803 -0.0159 -0.1051
  456MOL0     C62794   8.512   8.341   2.311  0.5834  0.0294  0.7776
  456MOL0     C62795   8.447   8.380   2.195 -0.4715  0.1471  0.3587
  456MOL0     C62796   8.316   8.435   2.209 -0.0365 -0.6119  1.1731
  456MOL0     C62797   8.248   8.448   2.325  0.5787  0.2306  0.1518
  456MOL0     O62798   8.117   8.478   2.322  0.2411 -0.3709  0.7811
  456MOL0     C62799   8.044   8.502   2.439  0.0584 -0.1099 -0.7752
  456MOL0     C62800   7.997   8.375   2.503 -0.2854  0.2183  0.0535
  456MOL0     C62801   7.933   8.396   2.642  0.8321 -0.3937 -0.0614
  456MOL0     C62802   7.807   8.491   2.638 -0.1358 -0.3659  0.2394
  456MOL0     C62803   7.744   8.509   2.767  0.8116 -0.7419 -0.5058
  456MOL0     C62804   7.599   8.570   2.751  0.4862 -0.0235 -0.5555
  456MOL0     C62805   7.531   8.627   2.889  0.3623  0.3007  0.2652
  456MOL0     C62806   7.382   8.609   2.866 -0.5055  0.5683  0.4628
  456MOL0     N62807   7.314   8.653   2.992  0.3320  0.8239 -0.2720
  456MOL0     C62808   7.230   8.563   3.062 -0.4489 -0.2654 -0.2733
  456MOL0     C62809   7.142   8.646   3.136  0.4630 -0.0888 -0.6533
  456MOL0     C62810   7.001   8.612   3.190  0.5729  0.8563 -1.0661
  456MOL0     C62811   6.983   8.654   3.341 -0.5148  0.0081 -0.0124
  456MOL0     C62812   7.064   8.564   3.433  0.1631 -0.6480  0.2048
  456MOL0     C62813   7.043   8.614   3.580  0.0735 -0.1954  0.2112
  456MOL0     O62814   6.919   8.580   3.634  0.1909 -0.0173 -0.6395
  456MOL0     C62815   6.916   8.500   3.740 -0.8130  0.5773 -0.2694
  456MOL0     C62816   6.833   8.521   3.844  0.2620 -0.1381  0.5631
  456MOL0     C62817   6.819   8.428   3.939 -0.7951 -0.3735 -0.6911
  456MOL0     C62818   6.750   8.482   4.059 -0.0393 -0.1404  0.2830
  456MOL0     C62819   6.885   8.302   3.931 -0.9549  0.3982  0.0971
  456MOL0     C62820   6.862   8.196   4.031 -0.4536 -0.1286 -0.1275
  456MOL0     O62821   6.963   8.117   4.061 -0.1603  0.6024  0.4056
  456MOL0     C62822   6.941   8.014   4.144  0.2681  0.0777  0.0872
  456MOL0     C62823   6.978   7.886   4.092  0.1989 -0.7024 -0.4194
  456MOL0     C62824   6.999   7.779   4.176 -0.0458  0.2323  0.0705
  456MOL0     C62825   6.953   7.788   4.301 -1.5642  0.4406 -0.6330
  456MOL0     O62826   6.957   7.676   4.384 -0.6867  0.2449  0.4773
  456MOL0     C62827   7.034   7.703   4.508  0.0766 -1.1654  1.0089
  456MOL0     C62828   7.087   7.580   4.559 -0.3337  0.6842 -0.0022
  456MOL0     C62829   7.186   7.515   4.472 -0.6032 -0.8479  1.1502
  456MOL0     C62830   7.256   7.401   4.538  0.2104  0.3072  0.2076
  456MOL0     C62831   7.173   7.265   4.523 -0.3118  0.7660  0.4673
  456MOL0     C62832   7.241   7.163   4.619 -0.7127  0.1873 -0.9322
  456MOL0     C62833   7.401   7.159   4.608  0.2529  0.5681  0.4395
  456MOL0     C62834   7.449   7.048   4.701 -0.2393 -0.1727 -0.4270
  456MOL0    Cl62835   7.631   7.045   4.696  0.3346 -0.0126  0.5921
  456MOL0     C62836   6.923   7.911   4.354  1.2488 -0.8702  0.2741
  456MOL0     C62837   6.914   8.030   4.278  0.1167  0.6104 -0.1874
  456MOL0     O62838   6.749   8.187   4.078  0.5474 -0.2299 -0.3340
  456MOL0     C62839   6.977   8.283   3.825 -0.4993 -0.6853 -0.0497
  456MOL0     C62840   6.991   8.374   3.728 -0.4314  0.2163 -0.1107
  456MOL0     N62841   7.164   8.776   3.093  0.4805 -1.0104 -0.5107
  456MOL0     N62842   7.261   8.780   3.011  0.0843 -0.0326 -0.4479
  456MOL0     C62843   8.320   8.411   2.444 -0.2690 -0.9275 -0.0616
  456MOL0     C62844   8.445   8.356   2.438 -0.5713  0.2170 -0.2221
  456MOL0     C62845   8.817   8.151   2.386 -0.5358 -0.5863 -0.7247
  456MOL0     C62846   8.886   8.155   2.271 -0.4656 -0.3273  0.1897
  456MOL0     C62847   9.025   8.129   2.268  0.4032 -0.0979  0.4791
  456MOL0     C62848   9.092   8.077   2.376 -0.4300 -0.0602 -0.1217
  456MOL0     O62849   9.228   8.055   2.365  0.5171  0.3049  0.6997
  456MOL0     C62850   9.295   8.055   2.487 -0.2318 -0.1873 -0.4915
  456MOL0     C62851   9.433   8.116   2.478  0.3602  0.2306 -0.1745
  456MOL0     C62852   9.536   8.034   2.400  0.7114 -0.0117 -0.2242
  456MOL0     C62853   9.667   8.110   2.409 -0.6672  0.5883  0.5009
  456MOL0     C62854   9.763   8.050   2.312  0.3869 -0.6565  0.6293
  456MOL0     C62855   9.834   8.019   2.223 -0.2010  0.4337  0.0644
  456MOL0     C62856   9.016   8.056   2.493 -0.3911 -0.0591 -0.0175
  456MOL0     C62857   8.882   8.101   2.499  0.4722  0.3825  0.8879
  456MOL0     C62858   8.803   8.094   2.631 -0.1093 -0.5528  0.5066
  456MOL0     H62859   8.490   8.376   2.096 -2.2770 -0.5014 -0.4362
  456MOL0     H62860   8.255   8.475   2.128  0.0333 -2.6318  0.0586
  456MOL0     H62861   7.950   8.555   2.417  1.2286  2.8567  0.7965
  456MOL0     H62862   8.088   8.566   2.516  0.7596 -1.0814 -0.3580
  456MOL0     H62863   7.929   8.322   2.436 -0.6127 -1.0931  1.3719
  456MOL0     H62864   8.078   8.302   2.515 -1.5835 -0.9991  2.2063
  456MOL0     H62865   7.919   8.296   2.682  0.0833 -1.2622 -2.3226
  456MOL0     H62866   7.996   8.443   2.718 -1.4649  1.3142  0.9479
  456MOL0     H62867   7.840   8.586   2.595 -1.2470 -0.4586 -0.8569
  456MOL0     H62868   7.733   8.443   2.573 -0.1328 -0.6795  0.4652
  456MOL0     H62869   7.806   8.574   2.829  0.4602 -1.6606  0.8837
  456MOL0     H62870   7.736   8.412   2.818  0.5093 -1.6069 -2.1541
  456MOL0     H62871   7.606   8.652   2.679 -0.0086 -0.9687 -1.7160
  456MOL0     H62872   7.545   8.493   2.695  1.1023  0.7586 -2.3117
  456MOL0     H62873   7.557   8.733   2.900 -1.2517  0.9064 -1.2325
  456MOL0     H62874   7.560   8.569   2.977  0.8812 -0.5292 -0.4331
  456MOL0     H62875   7.351   8.662   2.776 -1.5952 -1.2328 -0.2814
  456MOL0     H62876   7.368   8.501   2.858  0.5980  0.5349 -1.9326
  456MOL0     H62877   7.233   8.457   3.038 -0.0977 -0.5676  1.0696
  456MOL0     H62878   6.983   8.508   3.164 -0.7703  1.3916 -2.4256
  456MOL0     H62879   6.922   8.661   3.133  0.2345  1.5353 -0.0419
  456MOL0     H62880   7.015   8.758   3.349  0.5832 -0.3844  0.9913
  456MOL0     H62881   6.879   8.653   3.374 -0.9279  2.9439 -0.9078
  456MOL0     H62882   7.022   8.464   3.423 -0.7828 -0.7192  3.6775
  456MOL0     H62883   7.167   8.578   3.399 -0.6295 -3.3111 -3.9364
  456MOL0     H62884   7.133   8.589   3.637  3.1375 -0.2360 -4.1980
  456MOL0     H62885   7.048   8.723   3.575 -0.9647 -0.1694 -0.5327
  456MOL0     H62886   6.777   8.613   3.838  1.0364  0.3047  0.0556
  456MOL0     H62887   6.796   8.430   4.143  0.2362 -0.9439 -0.3548
  456MOL0     H62888   6.646   8.449   4.053 -0.9048  2.5600 -2.4180
  456MOL0     H62889   6.758   8.591   4.067  1.4545 -0.2916  1.2758
  456MOL0     H62890   6.979   7.874   3.984 -2.5217 -1.3565 -0.4507
  456MOL0     H62891   6.997   7.674   4.148 -5.4535 -0.0621  0.5187
  456MOL0     H62892   7.116   7.775   4.500  0.1191 -1.3364 -0.4100
  456MOL0     H62893   6.955   7.737   4.575 -1.3973  0.0622 -1.2111
  456MOL0     H62894   7.134   7.614   4.652  4.1443  0.4228 -1.9200
  456MOL0     H62895   7.004   7.511   4.578 -1.2084  0.7060 -3.2163
  456MOL0     H62896   7.249   7.594   4.429  1.3133 -1.7026  2.2395
  456MOL0     H62897   7.137   7.470   4.385  2.7320  0.4914 -1.6591
  456MOL0     H62898   7.280   7.415   4.644  0.2336  2.8306 -0.0886
  456MOL0     H62899   7.353   7.382   4.493  0.6231 -1.1962  1.6139
  456MOL0     H62900   7.067   7.265   4.551 -0.1669  0.0563  1.0618
  456MOL0     H62901   7.166   7.222   4.423 -0.0905  0.6547  0.4981
  456MOL0     H62902   7.211   7.061   4.594  0.5009 -1.0240  2.1280
  456MOL0     H62903   7.217   7.189   4.723  2.1233  0.5503 -0.3047
  456MOL0     H62904   7.443   7.257   4.633 -1.2288  1.7403 -1.4377
  456MOL0     H62905   7.439   7.138   4.508  2.8051  0.9242  1.2512
  456MOL0     H62906   7.409   6.952   4.667  1.3299 -0.4255 -1.6407
  456MOL0     H62907   7.419   7.058   4.806  3.2657 -0.5456  0.7151
  456MOL0     H62908   6.890   7.937   4.454  0.6682 -2.5271  0.5497
  456MOL0     H62909   6.878   8.126   4.313  3.0417  2.6515 -2.3343
  456MOL0     H62910   7.032   8.190   3.812  0.9796  0.2966 -1.0618
  456MOL0     H62911   7.050   8.342   3.642 -1.8871  1.1456 -1.5298
  456MOL0     H62912   8.275   8.428   2.541  1.2117 -1.4409  0.7481
  456MOL0     H62913   8.490   8.326   2.532 -0.6009 -5.0350 -1.5863
  456MOL0     H62914   8.840   8.197   2.182 -1.2535 -0.4708  0.5179
  456MOL0     H62915   9.071   8.140   2.171 -2.8514 -0.2255 -1.1951
  456MOL0     H62916   9.242   8.124   2.554  0.5858  1.5975 -1.5895
  456MOL0     H62917   9.299   7.950   2.516  0.8524 -0.3451 -1.1639
  456MOL0     H62918   9.469   8.126   2.580  0.9791  1.5610 -0.4935
  456MOL0     H62919   9.433   8.215   2.431  0.7801 -0.6023 -2.0651
  456MOL0     H62920   9.546   7.936   2.447 -2.2197  0.3892  1.4849
  456MOL0     H62921   9.511   8.014   2.296  1.4749  1.1402 -0.6497
  456MOL0     H62922   9.712   8.104   2.509  1.3185 -0.8323 -0.4061
  456MOL0     H62923   9.652   8.214   2.378  0.5392  0.2183 -1.5320
  456MOL0     H62924   9.909   7.993   2.152  0.9150  1.2339  0.9134
  456MOL0     H62925   9.056   8.004   2.580 -3.1575 -2.0508  0.2198
  456MOL0     H62926   8.740   8.184   2.642 -0.6141 -0.8696  0.2358
  456MOL0     H62927   8.737   8.007   2.632 -1.7698  0.6318  0.2731
  456MOL0     H62928   8.869   8.070   2.715 -0.9673 -0.9561  1.0781
  457MOL0     O62929   9.359   2.745   4.953 -0.0179 -0.2575  0.0815
  457MOL0     C62930   9.349   2.629   4.976  0.0438  1.0811  0.3237
  457MOL0     O62931   9.233   2.558   4.972  1.6413  0.1944  0.2495
  457MOL0     C62932   9.117   2.618   4.912 -0.4163 -0.0463 -0.0346
  457MOL0     C62933   9.015   2.643   5.005 -0.0394 -0.1225  0.5137
  457MOL0     C62934   8.899   2.713   4.970  0.2433  0.1757 -0.5254
  457MOL0     C62935   8.884   2.745   4.833 -0.6725  0.4522  0.9019
  457MOL0     O62936   8.783   2.824   4.783 -0.5435 -0.1266  1.2614
  457MOL0     C62937   8.686   2.872   4.872  0.6319 -0.3273 -0.2260
  457MOL0     C62938   8.585   2.940   4.797  0.3729 -0.0242  0.4161
  457MOL0     C62939   8.522   2.867   4.682  0.1053  0.3920  0.3883
  457MOL0     C62940   8.398   2.925   4.642  0.6614 -0.9372  0.1078
  457MOL0     C62941   8.280   2.886   4.728 -0.9702  0.0262 -0.2160
  457MOL0     C62942   8.155   2.972   4.708 -0.2020 -0.1512 -0.3416
  457MOL0     C62943   8.036   2.907   4.786  0.5057  0.3454  0.1621
  457MOL0     C62944   7.981   2.780   4.715 -0.3653 -0.3020 -0.0774
  457MOL0     N62945   7.835   2.767   4.748 -0.4925 -0.5869  0.2958
  457MOL0     C62946   7.788   2.741   4.869  0.1866  1.2248  0.3148
  457MOL0     C62947   7.659   2.773   4.855  0.1657  0.2444  0.9825
  457MOL0     C62948   7.545   2.766   4.956 -0.0072 -0.0344  0.3304
  457MOL0     C62949   7.409   2.735   4.895  0.9170 -0.0757  0.1345
  457MOL0     C62950   7.308   2.699   5.005  0.5603  0.0563 -0.1773
  457MOL0     C62951   7.329   2.568   5.092 -0.5620  0.6691 -0.0244
  457MOL0     O62952   7.327   2.464   4.993 -1.3396  0.6809  0.8145
  457MOL0     C62953   7.416   2.360   5.024  0.8358  0.1185 -0.2402
  457MOL0     C62954   7.364   2.246   5.076 -0.7395  0.4434  0.5786
  457MOL0     C62955   7.432   2.126   5.107  0.7817  0.4939  1.0804
  457MOL0     C62956   7.340   2.013   5.160  0.3849 -0.3060  0.0967
  457MOL0     C62957   7.566   2.125   5.086  1.2955  0.5367  0.0605
  457MOL0     C62958   7.643   2.008   5.132  1.1231 -1.1433  0.3046
  457MOL0     O62959   7.774   2.029   5.102 -0.1844 -0.0089 -0.1573
  457MOL0     C62960   7.859   1.930   5.137  0.2852 -0.5010 -0.9136
  457MOL0     C62961   7.931   1.955   5.258 -0.6441  0.0887  1.0903
  457MOL0     C62962   8.018   1.859   5.303 -0.3398 -0.6242 -0.4438
  457MOL0     C62963   8.030   1.737   5.245 -0.5732 -0.0851 -1.9628
  457MOL0     O62964   8.134   1.662   5.305  0.6187  0.4484 -0.0326
  457MOL0     C62965   8.167   1.526   5.246  0.5582 -0.5245  0.2994
  457MOL0     C62966   8.267   1.538   5.129 -0.5186  0.3933  0.2702
  457MOL0     C62967   8.372   1.420   5.130 -0.6532 -1.0046 -0.4261
  457MOL0     C62968   8.494   1.459   5.220  0.0488  0.1641  0.0210
  457MOL0     C62969   8.602   1.355   5.237 -0.5525  0.1734 -0.1568
  457MOL0     C62970   8.736   1.431   5.246  0.3406 -0.0664  0.2186
  457MOL0     C62971   8.851   1.356   5.304 -0.0044 -0.4991 -0.7309
  457MOL0     C62972   8.874   1.226   5.246 -0.0419 -0.0042 -0.5724
  457MOL0    Cl62973   8.958   1.222   5.092 -0.5684 -0.0722 -0.1761
  457MOL0     C62974   7.970   1.715   5.122 -0.6023  0.1650  0.3771
  457MOL0     C62975   7.880   1.811   5.068 -0.1947 -0.0262  0.1524
  457MOL0     O62976   7.590   1.912   5.192 -0.2163 -0.0287  0.0060
  457MOL0     C62977   7.628   2.235   5.025  0.2926 -0.4989 -0.7979
  457MOL0     C62978   7.557   2.353   4.992 -0.0947  0.1075 -0.2269
  457MOL0     N62979   7.638   2.799   4.718  0.0593  0.3486 -0.4453
  457MOL0     N62980   7.744   2.791   4.657  1.4572  0.2972 -0.4643
  457MOL0     C62981   8.978   2.708   4.740 -0.2265  0.2578 -0.6251
  457MOL0     C62982   9.105   2.652   4.779  0.2809  0.3002 -0.0624
  457MOL0     C62983   9.470   2.557   5.022  0.9256 -0.4518  0.8155
  457MOL0     C62984   9.486   2.431   4.964 -0.0896  0.1692  0.0784
  457MOL0     C62985   9.607   2.372   4.996  0.4896  0.1817 -0.0461
  457MOL0     C62986   9.712   2.422   5.070 -0.2410 -0.8653  0.4011
  457MOL0     O62987   9.820   2.340   5.090 -0.3709  0.2543  0.2735
  457MOL0     C62988   9.947   2.415   5.080  1.0793  0.2716 -0.1300
  457MOL0     C62989  10.036   2.338   4.989 -0.3010 -0.3297  0.4104
  457MOL0     C62990  10.146   2.430   4.950 -0.0907  0.2257  0.8420
  457MOL0     C62991  10.261   2.367   4.862  0.4102  0.0096 -1.0232
  457MOL0     C62992  10.212   2.295   4.749 -0.5976  0.4068 -0.9070
  457MOL0     C62993  10.157   2.263   4.650  0.3102  0.5705  0.6114
  457MOL0     C62994   9.684   2.549   5.125 -0.9747  0.0345  1.4977
  457MOL0     C62995   9.572   2.626   5.102 -0.9948  0.6976 -1.1428
  457MOL0     C62996   9.548   2.766   5.170  0.1877 -0.4094 -1.0283
  457MOL0     H62997   9.039   2.608   5.105  2.7086  2.9481  1.1183
  457MOL0     H62998   8.816   2.732   5.036  1.6166  2.4048  0.6917
  457MOL0     H62999   8.726   2.930   4.956 -1.5958 -0.8552  1.2896
  457MOL0     H63000   8.637   2.785   4.918  2.1507 -0.9953  0.2020
  457MOL0     H63001   8.523   2.969   4.883  0.4289 -0.4916  0.6148
  457MOL0     H63002   8.636   3.030   4.760  3.2598 -2.4722 -2.0817
  457MOL0     H63003   8.593   2.876   4.600  2.1734 -2.9195  1.6140
  457MOL0     H63004   8.505   2.760   4.700 -3.0113 -0.0275 -3.5876
  457MOL0     H63005   8.416   3.033   4.640  2.1288 -1.1534 -0.0312
  457MOL0     H63006   8.378   2.896   4.538 -0.0187 -0.1623  0.0122
  457MOL0     H63007   8.311   2.895   4.833  1.1875 -0.7595 -0.7354
  457MOL0     H63008   8.251   2.782   4.711 -1.1739  0.4501 -2.8873
  457MOL0     H63009   8.178   3.077   4.730 -0.5665  0.5454 -2.9494
  457MOL0     H63010   8.132   2.963   4.601  0.8075 -1.3999 -0.4707
  457MOL0     H63011   7.952   2.977   4.783 -0.8868 -1.2740 -2.2472
  457MOL0     H63012   8.052   2.886   4.892 -0.0993 -0.6629  0.0677
  457MOL0     H63013   7.988   2.790   4.607 -1.4599  0.0947 -0.1225
  457MOL0     H63014   8.041   2.695   4.748  0.9229  1.0478  1.1999
  457MOL0     H63015   7.841   2.709   4.958  2.8721  2.6966 -0.6494
  457MOL0     H63016   7.534   2.868   4.995  1.8559  1.0741 -1.7632
  457MOL0     H63017   7.566   2.701   5.041 -2.8943  1.8694  2.6913
  457MOL0     H63018   7.384   2.822   4.833  5.4285  0.5854 -1.1061
  457MOL0     H63019   7.415   2.652   4.825 -1.2870 -2.5394  2.5976
  457MOL0     H63020   7.310   2.778   5.081  3.6972 -0.0810  0.0226
  457MOL0     H63021   7.209   2.688   4.960 -0.0127  3.0561  0.1695
  457MOL0     H63022   7.421   2.585   5.149  0.2262  1.6854 -1.5317
  457MOL0     H63023   7.248   2.542   5.160 -0.2683 -0.2597 -0.0195
  457MOL0     H63024   7.256   2.244   5.086 -0.5957 -0.2509  2.3779
  457MOL0     H63025   7.378   1.988   5.259 -0.7842  0.8720  0.8830
  457MOL0     H63026   7.336   1.927   5.093  0.1825  0.1144 -0.4439
  457MOL0     H63027   7.235   2.044   5.170  0.8048  1.1257  0.2707
  457MOL0     H63028   7.916   2.043   5.321  2.6137 -0.1990  2.4835
  457MOL0     H63029   8.071   1.875   5.396 -2.2454 -0.7184  0.7143
  457MOL0     H63030   8.204   1.462   5.327  1.8051 -1.0736 -0.6632
  457MOL0     H63031   8.072   1.492   5.205  0.9256 -1.2721  0.0533
  457MOL0     H63032   8.208   1.530   5.037  2.0538 -0.8029 -1.3881
  457MOL0     H63033   8.319   1.633   5.110 -0.6749  0.1730 -1.3845
  457MOL0     H63034   8.406   1.412   5.027 -1.8019  1.5819 -1.0997
  457MOL0     H63035   8.332   1.322   5.159 -0.8302 -1.1915 -1.2651
  457MOL0     H63036   8.457   1.493   5.317  0.7531 -0.4972  0.5365
  457MOL0     H63037   8.536   1.547   5.171  0.8321 -1.2420 -1.9731
  457MOL0     H63038   8.581   1.289   5.321 -0.4416 -1.4413 -1.3587
  457MOL0     H63039   8.613   1.298   5.144  1.9315 -3.0118  1.8947
  457MOL0     H63040   8.711   1.517   5.308 -1.6865  1.2222 -2.1963
  457MOL0     H63041   8.754   1.478   5.149  1.5014 -1.8921 -0.5103
  457MOL0     H63042   8.847   1.345   5.413 -0.5018 -0.3864 -0.7391
  457MOL0     H63043   8.942   1.415   5.290  1.1640 -2.6461 -3.2179
  457MOL0     H63044   8.787   1.160   5.237  0.8276 -1.2076 -0.3557
  457MOL0     H63045   8.941   1.177   5.316 -1.5548 -2.1133 -0.4823
  457MOL0     H63046   7.981   1.631   5.053 -1.8983 -0.1126  0.4958
  457MOL0     H63047   7.843   1.785   4.969  0.1097 -1.7746  0.4527
  457MOL0     H63048   7.731   2.246   4.992  0.9930  0.2036  1.4744
  457MOL0     H63049   7.607   2.439   4.950 -2.6067  1.3918 -0.7716
  457MOL0     H63050   8.969   2.745   4.638 -1.1207  1.5801 -0.0915
  457MOL0     H63051   9.175   2.628   4.699 -0.8356  2.5244 -1.8375
  457MOL0     H63052   9.418   2.392   4.890 -0.3382  1.3634 -0.3468
  457MOL0     H63053   9.626   2.270   4.966  0.1604  0.0462  0.2054
  457MOL0     H63054   9.940   2.519   5.048  5.0686  0.6884 -0.1521
  457MOL0     H63055   9.985   2.435   5.181 -2.6579 -1.5164  1.8282
  457MOL0     H63056   9.988   2.292   4.902  1.3291 -1.4761  0.0795
  457MOL0     H63057  10.065   2.247   5.042 -2.9833 -0.8825  1.1104
  457MOL0     H63058  10.105   2.517   4.897 -2.9949 -0.4272  1.8005
  457MOL0     H63059  10.190   2.469   5.042 -0.2448  1.2539  0.5024
  457MOL0     H63060  10.307   2.292   4.927 -1.9572 -0.9582 -0.3930
  457MOL0     H63061  10.340   2.440   4.842  2.2996 -0.7711  2.6714
  457MOL0     H63062  10.108   2.238   4.558  2.4362  2.7709 -1.2574
  457MOL0     H63063   9.746   2.592   5.202  1.8797  0.3869 -0.8259
  457MOL0     H63064   9.594   2.842   5.105  0.3143  0.2722 -0.1647
  457MOL0     H63065   9.440   2.781   5.167  0.1653  0.0510  0.7430
  457MOL0     H63066   9.590   2.772   5.271  2.4155  2.6925 -2.0001
  458MOL0     O63067   0.921   1.587   4.871 -0.1359  0.1687  0.0345
  458MOL0     C63068   0.876   1.689   4.908 -0.5768  0.2698 -0.7633
  458MOL0     O63069   0.943   1.774   4.998 -0.0183 -0.7254  0.5705
  458MOL0     C63070   1.073   1.745   5.044 -0.9724 -0.2412  0.2307
  458MOL0     C63071   1.177   1.781   4.964 -0.8172 -0.6255  0.1581
  458MOL0     C63072   1.311   1.766   4.999  0.2405 -0.6183  0.3672
  458MOL0     C63073   1.340   1.690   5.114  0.8204 -0.2436 -0.6756
  458MOL0     O63074   1.468   1.665   5.146 -0.0225  0.4423 -0.1159
  458MOL0     C63075   1.497   1.635   5.278 -0.2899  0.4986 -0.2958
  458MOL0     C63076   1.649   1.630   5.279  0.6313 -0.5746  0.7370
  458MOL0     C63077   1.699   1.490   5.319  0.8082 -0.0399 -0.6078
  458MOL0     C63078   1.848   1.498   5.354 -0.5224 -0.5044 -0.5087
  458MOL0     C63079   1.910   1.380   5.418  0.0705  0.3848  0.1159
  458MOL0     C63080   1.897   1.257   5.327  0.5930  0.0282  0.1850
  458MOL0     C63081   1.766   1.181   5.358 -0.1234 -0.6846 -0.4326
  458MOL0     C63082   1.728   1.085   5.240  0.2710  0.4449 -0.6649
  458MOL0     N63083   1.673   1.143   5.119  0.4738 -0.2593  0.7747
  458MOL0     C63084   1.555   1.209   5.105  0.2591 -0.2212 -0.3379
  458MOL0     C63085   1.556   1.267   4.980  0.0520 -0.2296  0.4381
  458MOL0     C63086   1.458   1.377   4.937  0.2937 -0.2190  0.1431
  458MOL0     C63087   1.313   1.315   4.936  0.0412  0.3445  0.5621
  458MOL0     C63088   1.249   1.371   4.798 -0.4348  0.0067 -1.0181
  458MOL0     C63089   1.102   1.319   4.775  0.3039 -0.5832 -0.0036
  458MOL0     O63090   1.098   1.178   4.767 -0.0438 -0.2844  0.6526
  458MOL0     C63091   0.986   1.110   4.718 -0.0254 -0.2363  0.7874
  458MOL0     C63092   0.871   1.169   4.669  0.6032 -0.4623  0.2720
  458MOL0     C63093   0.760   1.099   4.620  0.6005  0.5735  0.2732
  458MOL0     C63094   0.637   1.168   4.567  0.1683  0.8350  0.5796
  458MOL0     C63095   0.771   0.957   4.616  0.2808 -0.3441 -0.2088
  458MOL0     C63096   0.652   0.873   4.575 -0.2208 -0.8524  0.9370
  458MOL0     O63097   0.564   0.823   4.661 -0.0410  0.8968  0.1884
  458MOL0     C63098   0.603   0.812   4.792 -0.3866 -0.5323 -0.4396
  458MOL0     C63099   0.688   0.709   4.825  0.4777 -0.4575  1.3344
  458MOL0     C63100   0.729   0.693   4.960 -0.1003  0.7218 -0.1041
  458MOL0     C63101   0.707   0.788   5.060  0.6684  0.4400 -0.3500
  458MOL0     O63102   0.753   0.779   5.191 -0.3172  0.4249  0.1397
  458MOL0     C63103   0.825   0.897   5.230  0.1335 -0.2486 -0.1326
  458MOL0     C63104   0.949   0.923   5.151  0.0452 -0.5568 -0.4658
  458MOL0     C63105   1.058   0.808   5.171  0.6012 -0.6063 -0.2708
  458MOL0     C63106   1.188   0.846   5.104  0.5603  1.0718  0.2454
  458MOL0     C63107   1.243   0.719   5.026  0.4291  0.4315 -0.0191
  458MOL0     C63108   1.383   0.754   4.949  0.8124 -0.5663  1.0163
  458MOL0     C63109   1.397   0.899   4.902  0.2788 -0.4619 -0.4013
  458MOL0     C63110   1.519   0.899   4.803 -0.1975 -1.5394 -0.2044
  458MOL0    Cl63111   1.666   0.849   4.884  0.5529 -0.3834  0.0330
  458MOL0     C63112   0.625   0.900   5.020  0.0378  0.2940 -0.1116
  458MOL0     C63113   0.577   0.910   4.888 -0.0098 -0.2407 -1.1895
  458MOL0     O63114   0.634   0.884   4.456 -0.4368  0.5295  0.1409
  458MOL0     C63115   0.888   0.891   4.667  0.0017 -0.2206  0.3570
  458MOL0     C63116   0.986   0.967   4.724  0.3431  0.0728  0.0067
  458MOL0     N63117   1.674   1.235   4.913  0.5347  0.3167  0.0211
  458MOL0     N63118   1.736   1.160   4.997 -0.0094 -0.1772  1.4283
  458MOL0     C63119   1.239   1.653   5.209 -0.5469  0.4034 -0.2608
  458MOL0     C63120   1.102   1.675   5.171 -0.3999 -0.5513  0.2933
  458MOL0     C63121   0.730   1.705   4.877  0.0137 -0.0375 -0.6706
  458MOL0     C63122   0.684   1.842   4.897 -0.3740  0.6259  0.0783
  458MOL0     C63123   0.547   1.869   4.878  0.4106  0.2824  0.0292
  458MOL0     C63124   0.467   1.782   4.815 -0.0326  0.2631  0.2106
  458MOL0     O63125   0.334   1.815   4.797 -0.3455 -0.3947  0.4719
  458MOL0     C63126   0.268   1.781   4.925 -1.1551  1.0403 -0.0352
  458MOL0     C63127   0.134   1.724   4.901  1.0193 -1.1181 -0.2437
  458MOL0     C63128   0.028   1.821   4.847  0.2505 -0.6358  0.4935
  458MOL0     C63129   0.054   1.838   4.695 -0.1427 -0.6944 -1.5154
  458MOL0     C63130   0.017   1.725   4.615  0.5096 -0.9785  0.5032
  458MOL0     C63131  -0.028   1.628   4.551  1.3686  0.2920  0.5102
  458MOL0     C63132   0.514   1.657   4.785 -0.6737  0.0410 -0.7887
  458MOL0     C63133   0.639   1.614   4.813 -0.6628 -0.0586 -0.7296
  458MOL0     C63134   0.670   1.477   4.778 -0.4507 -0.7211  0.0855
  458MOL0     H63135   1.136   1.824   4.873 -0.5846 -1.2559 -0.2503
  458MOL0     H63136   1.398   1.798   4.942  1.3665  1.1368  2.8547
  458MOL0     H63137   1.452   1.539   5.304 -0.3817  1.0389  1.7135
  458MOL0     H63138   1.461   1.703   5.355 -2.8070 -0.5678 -0.4400
  458MOL0     H63139   1.684   1.635   5.176 -4.3410  0.0019 -1.1924
  458MOL0     H63140   1.698   1.713   5.330 -0.0943 -0.2471  0.9114
  458MOL0     H63141   1.641   1.445   5.400  5.8678 -3.1909  1.8152
  458MOL0     H63142   1.693   1.421   5.234  1.1286 -4.5217  2.6461
  458MOL0     H63143   1.915   1.530   5.274  2.9509 -1.5531  1.7675
  458MOL0     H63144   1.857   1.575   5.432 -0.1545 -0.8073 -0.2488
  458MOL0     H63145   1.861   1.359   5.513 -2.7467  3.0410 -0.5757
  458MOL0     H63146   2.011   1.399   5.453 -0.4160  0.5395  1.4969
  458MOL0     H63147   1.907   1.287   5.222 -0.7499  0.0347  0.0439
  458MOL0     H63148   1.975   1.183   5.344  1.4128  1.5769  4.3671
  458MOL0     H63149   1.682   1.245   5.386 -0.5657 -0.7103 -1.6268
  458MOL0     H63150   1.785   1.118   5.445 -1.2296 -4.9662 -2.9815
  458MOL0     H63151   1.821   1.029   5.225  0.5594 -0.0560  2.3565
  458MOL0     H63152   1.660   1.014   5.288 -1.6114  2.8012  0.3848
  458MOL0     H63153   1.488   1.223   5.189 -0.0678  0.3089 -0.6844
  458MOL0     H63154   1.494   1.423   4.845 -1.6140  3.3315  0.9548
  458MOL0     H63155   1.459   1.456   5.013  1.0915 -0.4403  0.3748
  458MOL0     H63156   1.322   1.206   4.926  0.4465  0.5527 -2.0393
  458MOL0     H63157   1.250   1.344   5.020  1.2135  0.7588  1.3254
  458MOL0     H63158   1.256   1.480   4.795  1.1090 -0.0225  0.3823
  458MOL0     H63159   1.306   1.324   4.718  2.3991 -1.0124  1.4324
  458MOL0     H63160   1.036   1.349   4.857  0.2198 -3.2419  0.9976
  458MOL0     H63161   1.065   1.358   4.680 -0.5711  0.4350  0.7384
  458MOL0     H63162   0.851   1.276   4.673  0.8770 -0.4511  2.9277
  458MOL0     H63163   0.615   1.115   4.474  2.8506 -3.2918  2.0066
  458MOL0     H63164   0.669   1.271   4.550 -0.2577  0.6981 -1.2330
  458MOL0     H63165   0.551   1.167   4.635 -1.9022  2.2234 -1.8592
  458MOL0     H63166   0.717   0.636   4.750  0.1381  1.1703 -0.4760
  458MOL0     H63167   0.792   0.614   5.000 -0.2931 -1.1903 -3.2819
  458MOL0     H63168   0.758   0.983   5.231  0.3115 -0.0762 -1.5715
  458MOL0     H63169   0.855   0.875   5.333  0.8886 -0.3309 -0.3636
  458MOL0     H63170   0.939   0.930   5.043  4.0964 -2.6896 -1.1755
  458MOL0     H63171   1.005   1.007   5.192  1.8174 -0.9996 -1.8919
  458MOL0     H63172   1.005   0.718   5.138 -3.7399  1.1074  1.2977
  458MOL0     H63173   1.077   0.781   5.275 -1.0944  0.8531  0.4635
  458MOL0     H63174   1.262   0.902   5.163  0.6468  4.1796 -2.5002
  458MOL0     H63175   1.168   0.924   5.030  1.1922  2.3823  1.4105
  458MOL0     H63176   1.254   0.630   5.088 -0.5350 -2.1042 -3.1880
  458MOL0     H63177   1.173   0.690   4.947  1.3968 -1.1869 -0.3469
  458MOL0     H63178   1.391   0.683   4.866 -2.9511 -0.5367  0.4465
  458MOL0     H63179   1.456   0.731   5.027  0.1180  1.8409  2.4618
  458MOL0     H63180   1.437   0.966   4.979  2.1363  2.8417 -3.9285
  458MOL0     H63181   1.307   0.933   4.850 -1.2977 -2.7595  0.6319
  458MOL0     H63182   1.540   1.001   4.772 -1.7588 -1.8142 -2.4059
  458MOL0     H63183   1.503   0.829   4.721 -1.9279 -3.4911  1.6826
  458MOL0     H63184   0.620   0.990   5.080  2.1839 -0.5042  1.3480
  458MOL0     H63185   0.537   1.005   4.854 -0.5941 -0.2040 -0.4213
  458MOL0     H63186   0.894   0.783   4.673  2.1197 -0.1127  1.0863
  458MOL0     H63187   1.071   0.910   4.760  0.3708 -0.5880 -1.0610
  458MOL0     H63188   1.251   1.601   5.304 -1.7322 -0.3265 -0.4793
  458MOL0     H63189   1.012   1.639   5.220  0.3502 -3.1224 -0.0844
  458MOL0     H63190   0.750   1.917   4.939 -0.3922  0.6323  0.0958
  458MOL0     H63191   0.503   1.965   4.901  0.6530  0.0935  1.3092
  458MOL0     H63192   0.315   1.711   4.994 -1.9001  0.6262  0.0612
  458MOL0     H63193   0.268   1.874   4.983  2.1734  2.9827 -2.7176
  458MOL0     H63194   0.096   1.694   4.999 -0.4349  1.1755 -0.0486
  458MOL0     H63195   0.135   1.638   4.833  0.4470 -1.6076  0.3493
  458MOL0     H63196  -0.074   1.783   4.854  1.5769 -4.4296  2.7356
  458MOL0     H63197   0.030   1.919   4.894 -1.0760 -1.0754  1.4964
  458MOL0     H63198   0.157   1.874   4.684 -0.0906 -0.4331 -0.3698
  458MOL0     H63199  -0.011   1.924   4.678 -0.3235  0.1128  2.3834
  458MOL0     H63200  -0.096   1.554   4.515  0.1118  2.0962 -1.0066
  458MOL0     H63201   0.446   1.585   4.741 -1.7658 -1.4016  2.9054
  458MOL0     H63202   0.735   1.450   4.694  1.4810 -2.4446  2.0365
  458MOL0     H63203   0.719   1.423   4.859  0.8707 -1.7795 -1.3550
  458MOL0     H63204   0.576   1.424   4.763  1.0926 -2.9583 -2.6679
  459MOL0     O63205   9.118   4.897   7.889  0.2146 -0.2353 -0.5243
  459MOL0     C63206   9.142   4.862   7.777  0.5217 -0.2265 -0.3978
  459MOL0     O63207   9.131   4.953   7.670 -0.5841  0.3641 -0.6372
  459MOL0     C63208   9.088   5.085   7.695 -0.2135 -0.9543 -0.2302
  459MOL0     C63209   9.148   5.170   7.790  0.9181  0.7740  0.5764
  459MOL0     C63210   9.093   5.297   7.795 -0.1866  0.6182 -0.4475
  459MOL0     C63211   8.991   5.347   7.718  0.6420  0.4401 -0.0808
  459MOL0     O63212   8.941   5.478   7.722 -0.5070 -0.3840  0.3100
  459MOL0     C63213   9.012   5.574   7.794  0.5724  0.5110  0.0463
  459MOL0     C63214   8.932   5.706   7.780  0.1554  0.3868  0.5393
  459MOL0     C63215   8.929   5.791   7.898  0.3228  0.0139 -0.4563
  459MOL0     C63216   8.898   5.944   7.893 -0.5488 -0.6139  0.8788
  459MOL0     C63217   8.868   6.008   8.030 -1.0101 -1.0037  0.7238
  459MOL0     C63218   8.940   6.154   8.042 -1.1610 -0.4287  0.1305
  459MOL0     C63219   8.956   6.188   8.187  0.3185  1.3741  0.1409
  459MOL0     C63220   8.830   6.264   8.242 -0.7839 -0.0205 -0.6709
  459MOL0     N63221   8.856   6.331   8.383 -0.3728 -0.0198  0.2116
  459MOL0     C63222   8.980   6.344   8.438 -0.2399 -0.1914 -0.2561
  459MOL0     C63223   8.949   6.421   8.544 -0.4377 -0.0618  0.7153
  459MOL0     C63224   9.064   6.466   8.633 -0.0611 -0.9455 -0.9430
  459MOL0     C63225   9.037   6.601   8.707 -0.9022  0.2786 -0.4892
  459MOL0     C63226   9.173   6.657   8.775 -0.6632 -0.3162  0.0288
  459MOL0     C63227   9.141   6.807   8.806  0.3953  0.6806  0.6195
  459MOL0     O63228   9.235   6.857   8.893 -0.4305 -0.3257 -0.1463
  459MOL0     C63229   9.231   6.811   9.022  0.1990 -0.5703  0.1134
  459MOL0     C63230   9.356   6.812   9.084 -0.2405 -0.3789 -0.3131
  459MOL0     C63231   9.373   6.785   9.219 -0.7158  0.0270  0.4554
  459MOL0     C63232   9.517   6.777   9.279 -0.2820 -0.2872 -0.8877
  459MOL0     C63233   9.265   6.769   9.307  0.4555  0.9364  1.1747
  459MOL0     C63234   9.259   6.762   9.451 -0.6734 -0.3030 -0.2991
  459MOL0     O63235   9.371   6.799   9.532 -0.4816  0.4379 -0.1750
  459MOL0     C63236   9.368   6.821   9.673 -0.0145 -0.0436  0.6041
  459MOL0     C63237   9.461   6.767   9.754 -0.1850 -0.5906  0.2430
  459MOL0     C63238   9.456   6.797   9.892  0.1627 -0.6395  0.8898
  459MOL0     C63239   9.357   6.882   9.950  0.5988 -0.2761  0.6806
  459MOL0     O63240   9.325   6.910  10.076 -0.0986  0.1576 -0.0677
  459MOL0     C63241   9.431   6.929  10.173  0.6088  0.2698  1.0536
  459MOL0     C63242   9.455   7.069  10.222 -0.9063 -0.0444 -0.6940
  459MOL0     C63243   9.331   7.151  10.277 -0.4368 -0.5080  0.0197
  459MOL0     C63244   9.294   7.132  10.425  0.9670 -1.5327  0.3752
  459MOL0     C63245   9.168   7.201  10.476 -0.7725  0.3045  0.1629
  459MOL0     C63246   9.041   7.126  10.429 -0.1342 -0.5273 -0.3598
  459MOL0     C63247   8.904   7.210  10.460 -0.4841  0.2326 -0.2951
  459MOL0     C63248   8.800   7.183  10.349  0.0073  0.1440  0.1191
  459MOL0    Cl63249   8.708   7.030  10.394  0.1632 -0.0318 -0.2374
  459MOL0     C63250   9.264   6.933   9.860  0.6922  0.4531 -0.5345
  459MOL0     C63251   9.276   6.915   9.724 -0.1472 -0.5155 -0.0929
  459MOL0     O63252   9.150   6.729   9.505 -0.2738 -0.1220 -0.1919
  459MOL0     C63253   9.135   6.751   9.237  0.2630 -0.2553 -0.3240
  459MOL0     C63254   9.120   6.777   9.100 -0.9574 -1.0257 -0.3142
  459MOL0     N63255   8.817   6.447   8.559  0.4459  0.8489 -0.4025
  459MOL0     N63256   8.759   6.391   8.453  0.0434 -0.1360  0.2045
  459MOL0     C63257   8.928   5.257   7.625 -1.0234 -0.3681  0.4635
  459MOL0     C63258   8.982   5.133   7.614  0.4862  0.7353  0.7573
  459MOL0     C63259   9.188   4.724   7.750  0.4361 -0.0322  0.1716
  459MOL0     C63260   9.250   4.709   7.627 -1.4438  0.0418 -0.0875
  459MOL0     C63261   9.287   4.586   7.584  0.5878  0.1107  1.2609
  459MOL0     C63262   9.262   4.466   7.656 -1.1667 -0.2179  0.9808
  459MOL0     O63263   9.317   4.346   7.615 -0.2734  0.0975 -0.3898
  459MOL0     C63264   9.452   4.342   7.550 -0.2020  0.3620  0.0024
  459MOL0     C63265   9.423   4.306   7.395  0.7997  0.3683 -0.9894
  459MOL0     C63266   9.412   4.158   7.385  0.2826  0.2077 -0.4550
  459MOL0     C63267   9.549   4.095   7.359  0.6339 -0.1200  0.2040
  459MOL0     C63268   9.542   3.949   7.352 -0.0338  0.3093 -1.3292
  459MOL0     C63269   9.547   3.831   7.351 -0.8774 -0.1906  0.7067
  459MOL0     C63270   9.200   4.482   7.784 -0.1334  0.1985 -0.1328
  459MOL0     C63271   9.165   4.611   7.836  0.6648  0.2340  0.2744
  459MOL0     C63272   9.114   4.621   7.982  0.3839 -0.8466  0.1557
  459MOL0     H63273   9.223   5.140   7.863 -1.7807  0.2558  3.3259
  459MOL0     H63274   9.128   5.366   7.872 -0.0989 -0.2163  0.2820
  459MOL0     H63275   9.114   5.584   7.757  0.4336  4.9551  0.3635
  459MOL0     H63276   9.024   5.566   7.903 -1.3213  2.9300  0.5173
  459MOL0     H63277   8.975   5.757   7.693  3.6506 -2.9779 -0.0151
  459MOL0     H63278   8.831   5.673   7.755  0.5570 -1.4886  1.2759
  459MOL0     H63279   8.860   5.748   7.971  3.7095 -1.3983  2.2047
  459MOL0     H63280   9.024   5.784   7.952  0.1389  1.6906  0.1569
  459MOL0     H63281   8.974   6.002   7.840 -0.3102 -2.0388 -0.3983
  459MOL0     H63282   8.807   5.957   7.834  0.2926  1.9693  0.0257
  459MOL0     H63283   8.917   5.942   8.103  0.9977 -0.4151 -0.0307
  459MOL0     H63284   8.761   6.019   8.051 -0.6804 -0.4322  2.2623
  459MOL0     H63285   9.044   6.155   8.009 -0.2944  1.9658  2.5885
  459MOL0     H63286   8.881   6.236   8.000 -0.0008  1.6110  2.2610
  459MOL0     H63287   9.042   6.255   8.198  1.7896 -0.5728  1.0455
  459MOL0     H63288   8.966   6.093   8.240 -1.7007  0.0199 -1.7364
  459MOL0     H63289   8.834   6.353   8.178 -0.0701  0.5448  0.1401
  459MOL0     H63290   8.732   6.219   8.222 -1.7568  1.3793  0.6910
  459MOL0     H63291   9.073   6.301   8.401  0.0152 -1.7173  1.9598
  459MOL0     H63292   9.151   6.491   8.572  0.6296 -0.6064  0.1504
  459MOL0     H63293   9.101   6.388   8.701  3.5610  0.4600 -1.0643
  459MOL0     H63294   8.990   6.672   8.639  0.0827 -0.1082 -1.6204
  459MOL0     H63295   8.963   6.595   8.787  1.2788 -2.3809  1.5277
  459MOL0     H63296   9.186   6.612   8.874 -0.3054 -2.6793 -1.0275
  459MOL0     H63297   9.259   6.639   8.711 -1.4000 -0.5370 -0.9376
  459MOL0     H63298   9.124   6.867   8.716  0.9059  2.5971  1.7405
  459MOL0     H63299   9.042   6.811   8.852 -1.0157  1.7577 -2.2495
  459MOL0     H63300   9.448   6.839   9.035  1.2808 -0.0981  2.4638
  459MOL0     H63301   9.520   6.684   9.335 -0.6956  0.0609 -0.2765
  459MOL0     H63302   9.545   6.861   9.344  1.7379 -1.2441 -0.4454
  459MOL0     H63303   9.601   6.755   9.212 -0.4515 -2.1225 -0.5334
  459MOL0     H63304   9.510   6.679   9.713  0.4561 -0.6214  1.0407
  459MOL0     H63305   9.521   6.745   9.961  1.7195 -1.1776 -0.8865
  459MOL0     H63306   9.409   6.873  10.265  1.3141 -0.2207  0.9282
  459MOL0     H63307   9.515   6.871  10.136  0.5469  1.0407 -0.3424
  459MOL0     H63308   9.533   7.066  10.298 -2.4819 -1.1549  0.9566
  459MOL0     H63309   9.503   7.115  10.135  0.5123  2.1127  1.1037
  459MOL0     H63310   9.245   7.133  10.211 -1.8448  1.2810  1.2691
  459MOL0     H63311   9.363   7.255  10.265  0.6430 -0.8776 -0.4159
  459MOL0     H63312   9.384   7.157  10.482  1.3205 -2.1453  0.0878
  459MOL0     H63313   9.282   7.024  10.439  0.2210 -2.0967 -3.5075
  459MOL0     H63314   9.173   7.213  10.584 -2.4400 -0.4456  0.3487
  459MOL0     H63315   9.144   7.302  10.441 -1.2385 -0.2259 -1.1189
  459MOL0     H63316   9.028   7.022  10.461  1.4363 -1.3709 -2.2181
  459MOL0     H63317   9.057   7.110  10.322  1.4602 -6.4073  0.3761
  459MOL0     H63318   8.937   7.312  10.480 -0.0227 -0.3403  2.1202
  459MOL0     H63319   8.862   7.192  10.560  0.2012  2.8646  0.5489
  459MOL0     H63320   8.850   7.167  10.252 -2.1793 -0.4221 -0.9727
  459MOL0     H63321   8.728   7.265  10.343 -2.6022 -1.8730  1.7639
  459MOL0     H63322   9.190   7.004   9.896 -0.0231 -0.9890  0.9249
  459MOL0     H63323   9.217   6.980   9.660 -0.3184 -0.1584  0.4179
  459MOL0     H63324   9.054   6.723   9.304  1.2398  1.3623  1.6371
  459MOL0     H63325   9.028   6.778   9.042  0.6508  0.9985 -3.1245
  459MOL0     H63326   8.863   5.299   7.549  1.9045 -1.1610 -2.7290
  459MOL0     H63327   8.940   5.068   7.538  2.9955 -2.1425  1.6457
  459MOL0     H63328   9.279   4.794   7.566  1.5306  1.3581  2.8729
  459MOL0     H63329   9.336   4.581   7.488  1.6464  2.7517  1.5873
  459MOL0     H63330   9.494   4.443   7.557 -0.1833  0.3750 -0.2783
  459MOL0     H63331   9.523   4.269   7.589 -1.6336 -0.5570  1.0166
  459MOL0     H63332   9.496   4.358   7.332  0.4115  3.6998  1.0726
  459MOL0     H63333   9.329   4.347   7.359  0.4678 -1.3470 -2.1839
  459MOL0     H63334   9.361   4.106   7.467  3.2906 -3.8070 -0.8308
  459MOL0     H63335   9.351   4.150   7.295  0.5228  3.5217 -1.0427
  459MOL0     H63336   9.613   4.131   7.440  1.7949 -1.9096  0.1367
  459MOL0     H63337   9.588   4.135   7.265 -2.0478  1.7163 -0.2238
  459MOL0     H63338   9.528   3.729   7.325  0.5098 -0.1926 -0.4241
  459MOL0     H63339   9.170   4.387   7.827 -3.2542  0.6653 -1.0087
  459MOL0     H63340   9.171   4.703   8.027  1.6990 -0.3903 -2.1750
  459MOL0     H63341   9.006   4.637   7.985  0.6752  1.1719  1.7320
  459MOL0     H63342   9.136   4.525   8.029 -2.0857 -2.1285 -1.1301
  460MOL0     O63343   0.365   0.147   3.003 -0.2228 -0.1369 -0.3688
  460MOL0     C63344   0.340   0.253   2.949  1.1477  0.6332 -0.0457
  460MOL0     O63345   0.272   0.356   3.010 -0.5760  0.7655  0.0832
  460MOL0     C63346   0.206   0.333   3.133 -0.0323 -0.9743 -0.1586
  460MOL0     C63347   0.117   0.234   3.169 -0.5708 -0.7609  0.7720
  460MOL0     C63348   0.053   0.230   3.299  1.1625 -1.2190 -0.1528
  460MOL0     C63349   0.054   0.344   3.383 -0.8012  0.7197  0.1720
  460MOL0     O63350  -0.023   0.345   3.503 -0.3525 -0.9383  0.2305
  460MOL0     C63351  -0.157   0.289   3.507 -0.3589 -0.2869 -0.4554
  460MOL0     C63352  -0.208   0.310   3.656  0.4095  0.3234  0.2080
  460MOL0     C63353  -0.314   0.198   3.671  0.9542 -0.2142  0.0782
  460MOL0     C63354  -0.376   0.198   3.811 -0.5099  0.4104 -0.6089
  460MOL0     C63355  -0.439   0.063   3.836  0.3622  0.7967  0.5572
  460MOL0     C63356  -0.499   0.049   3.974 -0.4072  0.1780  1.0237
  460MOL0     C63357  -0.599  -0.073   3.986  0.5447 -0.1911  0.2981
  460MOL0     C63358  -0.649  -0.112   4.131  1.3080  0.1745 -0.4359
  460MOL0     N63359  -0.788  -0.167   4.136  0.3503  0.3039 -0.0305
  460MOL0     C63360  -0.910  -0.119   4.172  1.3380  0.3044 -0.2320
  460MOL0     C63361  -1.000  -0.213   4.136 -0.0738 -0.7811 -0.9175
  460MOL0     C63362  -1.145  -0.214   4.152  0.2425  0.0970 -1.0919
  460MOL0     C63363  -1.194  -0.347   4.211 -0.3549 -1.1920 -0.5212
  460MOL0     C63364  -1.224  -0.437   4.078 -0.7393  0.3999 -0.2214
  460MOL0     C63365  -1.233  -0.584   4.126  0.0376 -0.7159  0.0779
  460MOL0     O63366  -1.323  -0.604   4.233 -0.0514  0.1449 -0.2064
  460MOL0     C63367  -1.463  -0.602   4.219 -0.7463 -0.3219 -1.2232
  460MOL0     C63368  -1.534  -0.626   4.333  1.1452  0.6156  1.2872
  460MOL0     C63369  -1.678  -0.646   4.329  0.0727 -0.0632  0.4451
  460MOL0     C63370  -1.747  -0.688   4.462 -0.6598  0.3052  0.5830
  460MOL0     C63371  -1.751  -0.630   4.211  0.6119 -0.2086 -0.7535
  460MOL0     C63372  -1.899  -0.651   4.199 -0.9678 -0.4558 -0.3452
  460MOL0     O63373  -1.953  -0.734   4.105  0.5795  0.5959 -0.1069
  460MOL0     C63374  -2.080  -0.788   4.103 -0.8304 -0.1021  1.2675
  460MOL0     C63375  -2.144  -0.844   4.216 -0.5374 -0.2406  0.1657
  460MOL0     C63376  -2.265  -0.908   4.196  0.0922  0.1460 -0.6379
  460MOL0     C63377  -2.322  -0.914   4.075 -0.5930  0.1538  0.2834
  460MOL0     O63378  -2.439  -0.981   4.053  0.6124  0.1640 -0.0687
  460MOL0     C63379  -2.438  -1.113   3.981 -0.6563  0.2713 -0.8965
  460MOL0     C63380  -2.566  -1.165   3.928  0.2536 -0.5505 -0.1525
  460MOL0     C63381  -2.601  -1.081   3.808  0.3059  0.3511  0.3587
  460MOL0     C63382  -2.679  -0.960   3.863  0.1820  0.1422 -0.2554
  460MOL0     C63383  -2.670  -0.852   3.748 -0.5660  0.4062 -0.4337
  460MOL0     C63384  -2.754  -0.726   3.792  0.0968  0.2193  0.7822
  460MOL0     C63385  -2.758  -0.630   3.673 -0.0079 -0.6615  0.0631
  460MOL0     C63386  -2.616  -0.562   3.653  0.7195  0.0927  0.4059
  460MOL0    Cl63387  -2.651  -0.407   3.569  0.4088  0.3677  0.0131
  460MOL0     C63388  -2.269  -0.864   3.959  0.6634 -0.4616 -0.3576
  460MOL0     C63389  -2.149  -0.798   3.979 -0.4101  0.3528 -0.1658
  460MOL0     O63390  -1.963  -0.600   4.293  0.0399  0.6309  0.0218
  460MOL0     C63391  -1.671  -0.607   4.091  0.8421 -0.5959 -0.3924
  460MOL0     C63392  -1.531  -0.584   4.094  0.7542  0.7114 -0.1187
  460MOL0     N63393  -0.940  -0.319   4.073 -0.3273  0.0299  0.5775
  460MOL0     N63394  -0.809  -0.291   4.077  0.3407  0.3742  0.5554
  460MOL0     C63395   0.145   0.440   3.338 -0.4710  0.5298  0.3411
  460MOL0     C63396   0.221   0.433   3.218  0.3619  1.4440  0.2510
  460MOL0     C63397   0.394   0.275   2.807  0.8482 -0.7181 -0.7991
  460MOL0     C63398   0.368   0.398   2.754 -0.1909  0.0729  0.5681
  460MOL0     C63399   0.421   0.429   2.627  0.3696  0.1069  0.2340
  460MOL0     C63400   0.483   0.339   2.554 -0.8506 -0.0227  0.2338
  460MOL0     O63401   0.521   0.373   2.427  0.2127 -0.9468  0.7085
  460MOL0     C63402   0.514   0.288   2.311  0.5186 -0.1409 -0.0624
  460MOL0     C63403   0.665   0.260   2.284  0.5217 -1.0970  0.4987
  460MOL0     C63404   0.708   0.140   2.199  0.2751  0.4258 -0.5647
  460MOL0     C63405   0.640   0.151   2.062  0.2976 -0.9661 -0.3154
  460MOL0     C63406   0.683   0.039   1.982 -0.8301  0.7226  0.1590
  460MOL0     C63407   0.713  -0.066   1.931 -0.1575 -0.3541  0.2634
  460MOL0     C63408   0.479   0.207   2.599 -0.8911 -0.5065 -0.9271
  460MOL0     C63409   0.444   0.172   2.732 -1.2741 -1.3150  0.6860
  460MOL0     C63410   0.469   0.028   2.785 -0.7692 -0.6400  0.1178
  460MOL0     H63411   0.106   0.148   3.103  0.1783 -0.1622 -0.1572
  460MOL0     H63412  -0.017   0.151   3.323 -1.4083  1.7824  3.5299
  460MOL0     H63413  -0.153   0.184   3.477 -1.1903 -0.9585  1.6178
  460MOL0     H63414  -0.224   0.343   3.439 -2.1333  1.3731  2.4284
  460MOL0     H63415  -0.128   0.309   3.731  1.0120  3.8043 -0.2375
  460MOL0     H63416  -0.266   0.401   3.670  2.0015  1.5216 -0.6718
  460MOL0     H63417  -0.394   0.213   3.599  2.4196 -0.5553 -1.7126
  460MOL0     H63418  -0.269   0.100   3.649 -0.9739 -2.1050  3.6173
  460MOL0     H63419  -0.283   0.198   3.868  0.3983  1.6048 -2.0205
  460MOL0     H63420  -0.446   0.281   3.824 -0.9498  0.1987 -1.4786
  460MOL0     H63421  -0.364  -0.016   3.832 -0.4074 -0.1361  2.7760
  460MOL0     H63422  -0.513   0.037   3.761  0.9267 -0.3770  0.3815
  460MOL0     H63423  -0.412   0.046   4.040  2.7432  0.0375 -2.7734
  460MOL0     H63424  -0.563   0.135   3.996 -0.7659 -0.3730  2.1980
  460MOL0     H63425  -0.540  -0.155   3.943  0.8275 -2.7963  4.9519
  460MOL0     H63426  -0.684  -0.043   3.925  1.8037 -0.2344 -1.5546
  460MOL0     H63427  -0.593  -0.195   4.174 -1.0867 -1.8739 -1.0826
  460MOL0     H63428  -0.645  -0.022   4.195  3.2911 -0.8030  0.9253
  460MOL0     H63429  -0.936  -0.024   4.218 -2.0206  1.2507 -3.5258
  460MOL0     H63430  -1.186  -0.197   4.052  0.6989  1.2369 -1.1047
  460MOL0     H63431  -1.182  -0.145   4.228  2.3622 -0.5265  0.5975
  460MOL0     H63432  -1.115  -0.380   4.278  2.7510  0.4985 -3.0704
  460MOL0     H63433  -1.284  -0.335   4.271  0.7532  0.8978  0.8706
  460MOL0     H63434  -1.320  -0.406   4.034 -1.1997 -0.7229 -0.0449
  460MOL0     H63435  -1.142  -0.424   4.007  2.5389 -1.0110  3.0496
  460MOL0     H63436  -1.259  -0.648   4.041 -0.1404  0.3216 -0.6651
  460MOL0     H63437  -1.130  -0.604   4.158  1.4463  2.7692 -1.7569
  460MOL0     H63438  -1.474  -0.647   4.422  1.0053 -2.4353  0.7525
  460MOL0     H63439  -1.835  -0.625   4.478  0.1542  1.8832 -0.8690
  460MOL0     H63440  -1.677  -0.662   4.543 -0.3163 -0.5287  0.5617
  460MOL0     H63441  -1.753  -0.797   4.457 -0.1233  0.3293 -1.2631
  460MOL0     H63442  -2.100  -0.844   4.315  0.4828  0.5018 -0.2769
  460MOL0     H63443  -2.331  -0.948   4.273  0.7076  2.6897  1.3708
  460MOL0     H63444  -2.360  -1.118   3.904 -0.4953 -4.0336 -0.6440
  460MOL0     H63445  -2.424  -1.172   4.072  2.7545  3.1343  0.7020
  460MOL0     H63446  -2.550  -1.269   3.898  2.3865 -0.8144  1.6522
  460MOL0     H63447  -2.644  -1.160   4.005  2.7061  2.0391  2.3898
  460MOL0     H63448  -2.666  -1.141   3.744 -2.2554  1.0570  2.1439
  460MOL0     H63449  -2.504  -1.053   3.765  1.4043 -0.5041  2.1197
  460MOL0     H63450  -2.629  -0.913   3.948  0.3254 -2.2184  1.0479
  460MOL0     H63451  -2.778  -0.985   3.901  0.5077 -0.2527  0.3559
  460MOL0     H63452  -2.566  -0.823   3.734 -0.0176 -0.2829  1.6881
  460MOL0     H63453  -2.710  -0.889   3.653  0.6083  2.6237 -1.8740
  460MOL0     H63454  -2.730  -0.692   3.893  0.5095 -2.8986  1.8514
  460MOL0     H63455  -2.856  -0.766   3.802  0.6877 -3.1109 -3.5146
  460MOL0     H63456  -2.822  -0.542   3.677  1.9488  1.0647 -2.8226
  460MOL0     H63457  -2.790  -0.686   3.584  3.7441  1.4587 -2.9189
  460MOL0     H63458  -2.548  -0.624   3.594 -2.5311 -2.3292 -1.1264
  460MOL0     H63459  -2.566  -0.546   3.749 -1.8073 -0.2037  1.8488
  460MOL0     H63460  -2.310  -0.869   3.859 -1.7072  3.9458  0.1411
  460MOL0     H63461  -2.101  -0.768   3.886  0.9281 -0.3374  0.2811
  460MOL0     H63462  -1.702  -0.605   3.987  2.4411  0.3090 -0.8801
  460MOL0     H63463  -1.478  -0.559   4.003 -1.8638 -1.8915 -2.5749
  460MOL0     H63464   0.162   0.523   3.406 -2.4389  0.4014  1.0643
  460MOL0     H63465   0.270   0.524   3.185  1.3116  1.1152  0.7214
  460MOL0     H63466   0.314   0.482   2.798 -2.8397 -1.6923  0.9210
  460MOL0     H63467   0.417   0.535   2.601 -2.7368  0.1091  0.2989
  460MOL0     H63468   0.468   0.191   2.331  1.6183 -0.8971 -1.0675
  460MOL0     H63469   0.460   0.337   2.230 -0.3909  0.1367  0.6981
  460MOL0     H63470   0.716   0.249   2.380 -1.4419  2.9590  2.2616
  460MOL0     H63471   0.715   0.348   2.241  2.1091 -1.9038  0.6382
  460MOL0     H63472   0.815   0.150   2.175  0.7257  0.5252  1.3241
  460MOL0     H63473   0.684   0.046   2.249  1.7892 -0.5476 -1.5652
  460MOL0     H63474   0.664   0.247   2.014  6.1067 -0.4431  2.6739
  460MOL0     H63475   0.534   0.136   2.079  0.1574 -1.9709 -1.9032
  460MOL0     H63476   0.737  -0.159   1.885 -2.9892 -0.6010 -0.9315
  460MOL0     H63477   0.507   0.127   2.531  0.7435 -0.0694 -0.8075
  460MOL0     H63478   0.371  -0.016   2.806 -0.7963  0.1263  1.7889
  460MOL0     H63479   0.521  -0.021   2.702  2.6301 -1.2266  2.4005
  460MOL0     H63480   0.531   0.016   2.874  0.9788  3.2596 -0.3460
  461MOL0     O63481   9.969   4.126   6.089  0.0390 -0.6036 -0.2594
  461MOL0     C63482   9.914   4.089   5.985 -0.0226 -0.4723  1.7536
  461MOL0     O63483   9.955   3.992   5.896 -0.0938  0.0282 -0.0210
  461MOL0     C63484  10.078   3.942   5.912 -0.0347 -0.0940  0.5698
  461MOL0     C63485  10.094   3.803   5.907  0.4275  0.8681 -0.0997
  461MOL0     C63486  10.224   3.752   5.932 -0.3695 -0.5900  0.2919
  461MOL0     C63487  10.334   3.829   5.967  0.2495 -0.0438 -0.4306
  461MOL0     O63488  10.464   3.790   5.993  0.1458 -0.2608  0.9369
  461MOL0     C63489  10.496   3.659   5.967  0.0732  0.1044  0.2359
  461MOL0     C63490  10.651   3.662   5.967  0.4035 -0.3242  0.0581
  461MOL0     C63491  10.706   3.764   5.871 -0.8277  0.7210 -0.1706
  461MOL0     C63492  10.689   3.698   5.732  0.0300 -0.2504 -0.6013
  461MOL0     C63493  10.756   3.796   5.628 -0.0367 -0.0886  0.2084
  461MOL0     C63494  10.743   3.748   5.480 -0.0981  0.6003 -0.2820
  461MOL0     C63495  10.786   3.855   5.389  0.2947  1.1020 -0.1058
  461MOL0     C63496  10.777   3.805   5.248 -0.0302  0.3510 -0.0356
  461MOL0     N63497  10.817   3.913   5.164 -0.8122 -0.3561  0.3267
  461MOL0     C63498  10.951   3.931   5.148  0.4180 -0.5379  0.0683
  461MOL0     C63499  10.960   4.037   5.066 -0.5161  0.8797 -0.5133
  461MOL0     C63500  11.076   4.103   5.003  0.5846  0.1252 -0.0060
  461MOL0     C63501  11.097   4.053   4.850 -0.5197  0.1032  0.6316
  461MOL0     C63502  11.133   3.906   4.830  0.4728 -0.1785  0.0892
  461MOL0     C63503  11.159   3.847   4.695 -0.7810 -0.7703  0.1616
  461MOL0     O63504  11.241   3.947   4.621 -0.0428 -0.0451 -0.4643
  461MOL0     C63505  11.350   3.895   4.557  0.8112  0.1642 -0.3751
  461MOL0     C63506  11.343   3.876   4.417  0.3139 -0.1733 -0.8957
  461MOL0     C63507  11.457   3.836   4.341 -0.8362 -1.0940 -0.0793
  461MOL0     C63508  11.427   3.830   4.195 -0.3074  0.5063  0.3648
  461MOL0     C63509  11.572   3.787   4.411 -1.1080  1.0743 -0.3355
  461MOL0     C63510  11.687   3.720   4.344 -0.4486  0.4993 -0.4138
  461MOL0     O63511  11.779   3.654   4.427  0.8068  0.0062 -0.2898
  461MOL0     C63512  11.904   3.629   4.395  0.3237  0.7882  0.8495
  461MOL0     C63513  11.968   3.654   4.276 -0.8792 -0.2416  0.5846
  461MOL0     C63514  12.111   3.648   4.278  0.3774 -0.7619 -0.3379
  461MOL0     C63515  12.181   3.579   4.376  0.0348  0.9751  0.2767
  461MOL0     O63516  12.316   3.550   4.372  0.3625 -0.3535 -0.4415
  461MOL0     C63517  12.401   3.617   4.463  0.6836  0.7232  0.0813
  461MOL0     C63518  12.528   3.535   4.484 -0.0990 -0.2805 -0.0450
  461MOL0     C63519  12.572   3.422   4.374  0.1502 -0.8350 -0.1263
  461MOL0     C63520  12.691   3.350   4.432 -0.4615 -0.3816 -0.2145
  461MOL0     C63521  12.766   3.248   4.339  0.1287 -0.2036  0.6473
  461MOL0     C63522  12.689   3.117   4.339 -0.0987 -0.9348 -0.7028
  461MOL0     C63523  12.765   2.995   4.276  0.6973  0.3704  0.8446
  461MOL0     C63524  12.791   3.003   4.127 -0.2824 -0.3152  0.3262
  461MOL0    Cl63525  12.891   2.863   4.072 -0.1838 -0.1535 -0.0236
  461MOL0     C63526  12.102   3.529   4.480 -0.4759  0.0288 -1.1534
  461MOL0     C63527  11.969   3.550   4.492 -0.7504 -0.1685  0.0514
  461MOL0     O63528  11.690   3.713   4.225  0.5927 -0.8060 -0.0221
  461MOL0     C63529  11.575   3.807   4.556  0.3773  0.6014 -0.0294
  461MOL0     C63530  11.461   3.855   4.624 -0.0155  0.0422 -0.2405
  461MOL0     N63531  10.835   4.057   5.017 -0.1710 -0.7545 -0.3372
  461MOL0     N63532  10.746   3.998   5.090  0.7703 -0.5594  0.3318
  461MOL0     C63533  10.313   3.970   5.962  0.5276  0.2362 -0.1956
  461MOL0     C63534  10.191   4.024   5.940 -0.8056  0.0447  0.5356
  461MOL0     C63535   9.791   4.155   5.946  0.6193 -0.7151 -0.4428
  461MOL0     C63536   9.709   4.183   6.056 -0.5266  0.1750 -0.7699
  461MOL0     C63537   9.585   4.235   6.035 -0.5727 -0.5949  0.5900
  461MOL0     C63538   9.538   4.252   5.904 -0.3558 -0.3990  0.5913
  461MOL0     O63539   9.412   4.282   5.890  0.8626  0.0148  0.5882
  461MOL0     C63540   9.349   4.346   5.772  0.0576  0.5510  0.1278
  461MOL0     C63541   9.233   4.432   5.824  0.5693  0.6803 -0.6083
  461MOL0     C63542   9.130   4.343   5.895 -0.7662 -0.2672 -0.5326
  461MOL0     C63543   9.002   4.423   5.913  0.1384 -0.5404  0.4077
  461MOL0     C63544   8.897   4.324   5.953 -0.0626 -0.2738  0.2222
  461MOL0     C63545   8.819   4.240   5.986  0.6722  0.2859 -0.3692
  461MOL0     C63546   9.618   4.222   5.796 -0.4869 -0.3700 -1.2283
  461MOL0     C63547   9.746   4.180   5.815  0.4372 -0.0056  0.0010
  461MOL0     C63548   9.830   4.158   5.692  0.3933 -0.6174  0.9863
  461MOL0     H63549  10.004   3.746   5.888  0.7660  0.9391 -2.1262
  461MOL0     H63550  10.240   3.648   5.905  4.5836  0.4464 -1.9355
  461MOL0     H63551  10.458   3.615   5.875  1.4158  1.9136 -1.2545
  461MOL0     H63552  10.460   3.598   6.050 -3.8580  0.5085 -1.0072
  461MOL0     H63553  10.692   3.693   6.064  1.5114  2.5583 -1.2008
  461MOL0     H63554  10.687   3.565   5.932 -0.1992  0.2279 -2.3261
  461MOL0     H63555  10.660   3.863   5.874  2.0991  2.1773  0.0443
  461MOL0     H63556  10.809   3.788   5.899 -0.4697 -2.0223  1.2160
  461MOL0     H63557  10.727   3.596   5.726  2.4308  0.6171 -1.2632
  461MOL0     H63558  10.582   3.696   5.708  0.0698  0.0231 -0.8064
  461MOL0     H63559  10.863   3.806   5.648 -0.4679  0.0509  2.7942
  461MOL0     H63560  10.711   3.896   5.625 -0.9637 -0.5173 -1.8023
  461MOL0     H63561  10.798   3.654   5.465  0.6004  0.7187  1.3717
  461MOL0     H63562  10.635   3.730   5.472  0.0218 -0.8031  0.7885
  461MOL0     H63563  10.890   3.886   5.402  1.1043  0.7557 -4.3355
  461MOL0     H63564  10.718   3.940   5.399  0.1949  1.2772 -1.9325
  461MOL0     H63565  10.834   3.715   5.223 -0.2500  0.9220 -3.0357
  461MOL0     H63566  10.672   3.778   5.231 -0.1785 -1.2507  2.8258
  461MOL0     H63567  11.035   3.880   5.195  0.1463 -2.7714 -1.6553
  461MOL0     H63568  11.165   4.087   5.063  0.0123  0.9561  1.1003
  461MOL0     H63569  11.050   4.209   5.001 -1.2280 -0.2857 -1.3550
  461MOL0     H63570  11.008   4.079   4.792  0.0770 -2.1587 -1.4552
  461MOL0     H63571  11.171   4.121   4.806  1.3802 -3.2475 -1.8346
  461MOL0     H63572  11.230   3.898   4.880  0.9030  2.2185 -0.2512
  461MOL0     H63573  11.058   3.836   4.868 -0.7199 -0.0412 -1.8775
  461MOL0     H63574  11.209   3.750   4.697 -0.2266 -0.5890  4.4881
  461MOL0     H63575  11.068   3.831   4.636  0.0095  0.6486 -1.5473
  461MOL0     H63576  11.252   3.909   4.367 -0.2298 -0.8674 -0.3978
  461MOL0     H63577  11.321   3.851   4.183 -0.7879 -1.2722  1.1024
  461MOL0     H63578  11.453   3.731   4.157 -2.3799 -0.2147  0.7306
  461MOL0     H63579  11.486   3.903   4.139 -1.0930 -0.1383 -1.3589
  461MOL0     H63580  11.932   3.705   4.188  0.9621  1.1382  0.5808
  461MOL0     H63581  12.162   3.688   4.191 -2.2249  1.1676 -1.0925
  461MOL0     H63582  12.442   3.705   4.412 -0.0338  1.0138  0.0072
  461MOL0     H63583  12.358   3.644   4.559  2.8041  1.7559  0.8126
  461MOL0     H63584  12.622   3.590   4.494  0.4243 -1.1637 -0.0356
  461MOL0     H63585  12.508   3.496   4.585 -0.2587 -1.7352 -0.6208
  461MOL0     H63586  12.593   3.475   4.281  1.9533  1.6131  1.5655
  461MOL0     H63587  12.492   3.349   4.359 -0.9388  0.5849 -1.5456
  461MOL0     H63588  12.678   3.305   4.531 -0.1175  0.1355  0.0746
  461MOL0     H63589  12.767   3.428   4.447  0.0550  0.0480 -4.0134
  461MOL0     H63590  12.790   3.284   4.239  2.7186 -3.4610 -0.0800
  461MOL0     H63591  12.860   3.240   4.394  0.5744  4.0394  0.8312
  461MOL0     H63592  12.598   3.144   4.284 -1.1076  0.6727  1.6171
  461MOL0     H63593  12.650   3.095   4.438 -0.4639 -4.1596 -1.4472
  461MOL0     H63594  12.694   2.913   4.285 -1.3815  2.2726  3.3223
  461MOL0     H63595  12.848   2.959   4.338 -0.3118  0.4754  2.3066
  461MOL0     H63596  12.865   3.084   4.116  0.2056 -0.7420  0.4482
  461MOL0     H63597  12.703   3.025   4.066  0.6899  2.3615 -0.2540
  461MOL0     H63598  12.145   3.471   4.560 -1.9868  1.5605  0.8808
  461MOL0     H63599  11.927   3.512   4.585  2.9923  2.7539  3.2841
  461MOL0     H63600  11.661   3.781   4.617 -0.6672  3.9207  3.2098
  461MOL0     H63601  11.468   3.873   4.731 -1.8870 -0.6825  0.0391
  461MOL0     H63602  10.388   4.048   5.979 -0.3799  0.8994  0.8648
  461MOL0     H63603  10.187   4.132   5.937 -2.8730  0.0108  0.1024
  461MOL0     H63604   9.739   4.171   6.160  0.2462  0.6228 -0.9347
  461MOL0     H63605   9.515   4.278   6.106 -0.2327 -0.6284  0.9427
  461MOL0     H63606   9.421   4.411   5.722 -1.1644  0.0077 -2.5199
  461MOL0     H63607   9.317   4.266   5.705  0.1514 -0.1175  0.8586
  461MOL0     H63608   9.204   4.481   5.731  0.4008  4.6631  1.3283
  461MOL0     H63609   9.274   4.513   5.885  0.9121 -1.6835  2.5590
  461MOL0     H63610   9.121   4.259   5.826 -1.9178 -0.5218 -0.0938
  461MOL0     H63611   9.165   4.321   5.996 -0.1786 -0.0375 -0.6800
  461MOL0     H63612   9.001   4.482   5.821  5.8429 -2.3323 -1.2374
  461MOL0     H63613   9.019   4.499   5.990 -1.5440  1.7777 -1.3692
  461MOL0     H63614   8.771   4.146   6.004  1.1863 -0.1174 -1.0638
  461MOL0     H63615   9.591   4.246   5.693 -0.0980 -2.7995 -1.9468
  461MOL0     H63616   9.932   4.196   5.699  0.4376 -0.2395 -1.0102
  461MOL0     H63617   9.830   4.050   5.677 -0.5726 -0.3764 -1.3852
  461MOL0     H63618   9.790   4.209   5.603 -0.8248 -2.8236  0.1765
  462MOL0     O63619   8.694   3.518   9.272 -0.1140  0.8455 -0.5698
  462MOL0     C63620   8.661   3.637   9.270 -0.0079 -0.1862 -0.0877
  462MOL0     O63621   8.626   3.705   9.159  0.7704  0.8070 -0.1115
  462MOL0     C63622   8.654   3.648   9.032  0.4859 -0.5950 -0.7196
  462MOL0     C63623   8.550   3.602   8.952 -0.3546 -0.0744 -0.3476
  462MOL0     C63624   8.573   3.562   8.820  0.1549  0.3793  0.3389
  462MOL0     C63625   8.702   3.553   8.773 -0.0793  0.0818 -0.3251
  462MOL0     O63626   8.728   3.513   8.648  0.2612  0.0817 -0.0469
  462MOL0     C63627   8.690   3.375   8.633 -0.1349  0.4049 -0.0707
  462MOL0     C63628   8.642   3.368   8.486  0.2957  0.5928 -0.2544
  462MOL0     C63629   8.582   3.235   8.442  0.5147 -0.6561  0.0543
  462MOL0     C63630   8.618   3.217   8.295 -0.6866 -0.8877 -0.6806
  462MOL0     C63631   8.529   3.104   8.227 -0.4561  0.6549  1.2533
  462MOL0     C63632   8.569   3.102   8.076  0.2627 -0.7501 -0.7971
  462MOL0     C63633   8.473   3.006   8.001  0.0905 -0.7374  0.7432
  462MOL0     C63634   8.541   2.975   7.863 -0.3095 -1.2439  0.5341
  462MOL0     N63635   8.444   2.929   7.756  0.2493  0.8615  0.9634
  462MOL0     C63636   8.402   2.996   7.641  0.8100  0.0493 -0.4132
  462MOL0     C63637   8.335   2.898   7.576  0.7590 -0.0758 -0.0542
  462MOL0     C63638   8.272   2.940   7.439  0.2539  0.2935 -0.6875
  462MOL0     C63639   8.221   2.833   7.351  0.0480 -0.5557 -0.4699
  462MOL0     C63640   8.333   2.741   7.305 -0.7850 -0.1475  0.7596
  462MOL0     C63641   8.271   2.669   7.182 -0.2486 -1.0520 -0.6202
  462MOL0     O63642   8.355   2.589   7.097 -0.4580  0.5789 -0.3533
  462MOL0     C63643   8.318   2.542   6.981 -0.7344  0.3695 -0.2022
  462MOL0     C63644   8.191   2.500   6.941  1.1273 -0.8651  0.0320
  462MOL0     C63645   8.169   2.448   6.814 -0.2560 -0.0691 -0.0358
  462MOL0     C63646   8.036   2.407   6.765 -0.4018  0.4489 -0.4330
  462MOL0     C63647   8.275   2.438   6.724  0.7595  0.0978  0.8251
  462MOL0     C63648   8.266   2.379   6.580  0.2572  0.1375 -0.8005
  462MOL0     O63649   8.245   2.237   6.558  0.0872 -0.0831 -0.2196
  462MOL0     C63650   8.231   2.185   6.433 -0.9715  1.4595  1.1644
  462MOL0     C63651   8.189   2.257   6.313 -1.3839  0.4649 -0.1605
  462MOL0     C63652   8.168   2.186   6.193 -1.4718  1.1103 -0.4515
  462MOL0     C63653   8.184   2.048   6.185  0.3929 -0.0790 -0.6710
  462MOL0     O63654   8.159   1.988   6.065  0.5314 -0.4433 -0.1979
  462MOL0     C63655   8.148   1.846   6.062  0.1156 -0.7851 -1.0897
  462MOL0     C63656   8.085   1.808   5.935 -0.7052  1.1232  0.3502
  462MOL0     C63657   8.073   1.652   5.930 -0.3181 -0.1315 -0.8230
  462MOL0     C63658   8.033   1.613   5.792 -0.6421 -0.1228 -1.0330
  462MOL0     C63659   8.143   1.630   5.686  0.6976 -0.2430 -0.7924
  462MOL0     C63660   8.260   1.554   5.712  0.1099  0.8613  0.6770
  462MOL0     C63661   8.351   1.576   5.601 -0.0829  0.2505  1.3766
  462MOL0     C63662   8.469   1.476   5.598 -0.0315 -0.0563 -0.7933
  462MOL0    Cl63663   8.629   1.552   5.578  0.0541 -0.0216 -0.0151
  462MOL0     C63664   8.235   1.986   6.301 -0.2830  0.4012 -0.1310
  462MOL0     C63665   8.255   2.046   6.420 -0.1143  0.0176 -0.1903
  462MOL0     O63666   8.312   2.455   6.498  0.6422 -0.6198  0.2105
  462MOL0     C63667   8.404   2.483   6.768  0.6181 -0.2611  0.8977
  462MOL0     C63668   8.419   2.531   6.894 -0.3535 -0.7201  0.0890
  462MOL0     N63669   8.323   2.783   7.651 -0.9259 -0.0776 -0.4704
  462MOL0     N63670   8.386   2.802   7.761  0.2452  0.3116 -0.5170
  462MOL0     C63671   8.803   3.607   8.855  0.1417  1.0662 -0.1469
  462MOL0     C63672   8.781   3.654   8.982 -0.4785 -0.6492  1.1938
  462MOL0     C63673   8.639   3.702   9.403 -0.2771 -0.4241  0.1720
  462MOL0     C63674   8.523   3.666   9.470  0.5660  0.4657 -0.1493
  462MOL0     C63675   8.480   3.727   9.585  0.2465  0.0354 -0.9898
  462MOL0     C63676   8.555   3.823   9.644  0.2794  0.9694 -0.2720
  462MOL0     O63677   8.511   3.869   9.756 -0.3046 -0.3976 -0.9395
  462MOL0     C63678   8.505   4.012   9.783  0.5804  0.8041  0.1320
  462MOL0     C63679   8.413   4.081   9.684  0.1212 -0.7675 -0.6716
  462MOL0     C63680   8.308   4.158   9.772  0.2984  0.4662 -0.6176
  462MOL0     C63681   8.199   4.223   9.686 -0.0478 -0.5427  0.6608
  462MOL0     C63682   8.085   4.260   9.765  0.3978  0.5610  0.2544
  462MOL0     C63683   8.014   4.285   9.860 -0.1165 -0.9277 -0.3281
  462MOL0     C63684   8.677   3.852   9.584 -0.0145  0.8167  0.2244
  462MOL0     C63685   8.724   3.791   9.471 -0.3654 -0.1769  0.3512
  462MOL0     C63686   8.869   3.826   9.423 -0.2138  0.4556 -0.4810
  462MOL0     H63687   8.451   3.602   8.997 -0.2417 -1.9340 -0.0551
  462MOL0     H63688   8.494   3.528   8.755 -1.8482 -0.0824  2.8443
  462MOL0     H63689   8.601   3.346   8.690 -1.2495  1.6830 -1.0961
  462MOL0     H63690   8.780   3.315   8.652 -0.2101 -0.6168 -2.5441
  462MOL0     H63691   8.570   3.450   8.477 -1.3139 -0.9746 -2.6435
  462MOL0     H63692   8.716   3.397   8.411 -0.1401  1.6690 -0.2892
  462MOL0     H63693   8.621   3.154   8.504 -0.3184 -1.4265 -0.4087
  462MOL0     H63694   8.474   3.243   8.459 -0.3380 -1.3633 -3.9337
  462MOL0     H63695   8.612   3.311   8.239 -2.0974 -1.1279 -0.9780
  462MOL0     H63696   8.720   3.179   8.293 -0.4953 -0.4052 -0.3774
  462MOL0     H63697   8.422   3.124   8.236 -1.1365 -1.3176 -1.2001
  462MOL0     H63698   8.543   3.005   8.272  0.1681 -1.8673 -3.7735
  462MOL0     H63699   8.575   3.202   8.033 -0.3092 -1.3401 -2.3025
  462MOL0     H63700   8.671   3.065   8.070  0.5015 -0.1087 -0.8102
  462MOL0     H63701   8.379   3.054   7.975  0.7507  1.3464  1.9416
  462MOL0     H63702   8.466   2.920   8.069  0.0910  0.2003  1.9666
  462MOL0     H63703   8.595   3.060   7.820  0.2097 -2.2774 -0.9629
  462MOL0     H63704   8.603   2.887   7.878  1.3055 -0.6860 -2.2533
  462MOL0     H63705   8.415   3.099   7.608  1.0641  0.4525  0.9015
  462MOL0     H63706   8.355   2.988   7.387  0.2543  0.8193 -0.2072
  462MOL0     H63707   8.191   3.008   7.464  1.3803  1.1852  0.6583
  462MOL0     H63708   8.148   2.776   7.410  1.2525 -3.8605 -1.9367
  462MOL0     H63709   8.156   2.877   7.275 -1.4201 -1.2761  0.3318
  462MOL0     H63710   8.423   2.794   7.274 -2.2394  2.2861  0.4857
  462MOL0     H63711   8.368   2.665   7.376  0.1300 -1.7147 -1.2661
  462MOL0     H63712   8.185   2.609   7.213 -2.1415  3.1425  3.4069
  462MOL0     H63713   8.229   2.749   7.121 -3.8712  0.6081  3.5853
  462MOL0     H63714   8.115   2.519   7.016 -1.2028  1.9709 -2.7479
  462MOL0     H63715   7.994   2.316   6.807 -1.2976  0.3749 -1.4464
  462MOL0     H63716   8.040   2.392   6.657 -0.5314  1.5904 -0.6107
  462MOL0     H63717   7.980   2.497   6.793  1.4994  1.7438 -0.5671
  462MOL0     H63718   8.175   2.364   6.307  0.6795  0.9921  2.5611
  462MOL0     H63719   8.148   2.240   6.101 -1.4467 -0.8924 -1.6794
  462MOL0     H63720   8.246   1.801   6.078  0.1105 -0.4848 -0.2044
  462MOL0     H63721   8.079   1.808   6.139 -1.1893  2.7784 -0.3206
  462MOL0     H63722   7.993   1.867   5.944  1.6624  5.2291  0.2187
  462MOL0     H63723   8.146   1.854   5.857  0.5240  0.9240  1.1653
  462MOL0     H63724   7.986   1.628   5.992  1.2105  0.1789  1.5976
  462MOL0     H63725   8.148   1.579   5.964 -1.2542 -1.1051 -0.7716
  462MOL0     H63726   7.947   1.673   5.762 -0.8241 -0.6002 -1.4859
  462MOL0     H63727   8.002   1.508   5.799 -2.0522  0.3675  3.7285
  462MOL0     H63728   8.095   1.610   5.590 -4.1315 -2.4009  1.6752
  462MOL0     H63729   8.162   1.737   5.685 -1.6386  0.2423 -0.1933
  462MOL0     H63730   8.227   1.449   5.708 -4.5855  2.1003 -1.7885
  462MOL0     H63731   8.312   1.563   5.807  2.7263  2.3687 -0.7727
  462MOL0     H63732   8.383   1.681   5.610 -2.9384  1.6844 -2.5255
  462MOL0     H63733   8.295   1.570   5.508  0.3764  0.3528  1.0891
  462MOL0     H63734   8.456   1.394   5.528 -0.6921  0.4533 -1.2814
  462MOL0     H63735   8.477   1.420   5.692  2.0159 -2.7862 -2.4443
  462MOL0     H63736   8.258   1.880   6.309  1.3749  0.6133 -1.6498
  462MOL0     H63737   8.290   2.004   6.514  3.1510  0.6370 -0.9898
  462MOL0     H63738   8.492   2.490   6.705 -0.5360 -0.4862 -0.8411
  462MOL0     H63739   8.512   2.581   6.921 -1.1528  2.0587 -1.9068
  462MOL0     H63740   8.903   3.594   8.814  0.5568  0.5426  0.9851
  462MOL0     H63741   8.870   3.696   9.028 -0.3796  1.0443 -0.3779
  462MOL0     H63742   8.460   3.589   9.428  0.9637 -0.7012  1.3111
  462MOL0     H63743   8.388   3.693   9.634  1.1780 -1.9551 -0.5063
  462MOL0     H63744   8.461   4.019   9.882  2.8236 -2.1033  1.4916
  462MOL0     H63745   8.606   4.053   9.783  1.3437 -0.6901 -3.0634
  462MOL0     H63746   8.372   4.013   9.608 -1.4534  1.6445 -2.1450
  462MOL0     H63747   8.471   4.155   9.628 -1.2659  1.2471  0.4523
  462MOL0     H63748   8.255   4.086   9.835  2.7643  2.9468  4.9429
  462MOL0     H63749   8.348   4.234   9.840  0.2663 -3.4610  4.3328
  462MOL0     H63750   8.170   4.149   9.611  1.1864 -1.4137  0.9994
  462MOL0     H63751   8.239   4.315   9.643  0.9180 -0.0947  2.3754
  462MOL0     H63752   7.958   4.302   9.950 -0.2885 -3.3437  0.1066
  462MOL0     H63753   8.743   3.919   9.637  0.4102  0.9755 -0.4942
  462MOL0     H63754   8.864   3.798   9.318 -0.9188 -2.6416  0.2741
  462MOL0     H63755   8.902   3.930   9.435  2.0921 -0.3524  0.7635
  462MOL0     H63756   8.945   3.764   9.471  0.3795  1.0221 -0.6685
  463MOL0     O63757   9.923   6.463   9.181 -0.0902 -0.6453 -0.3079
  463MOL0     C63758   9.856   6.362   9.180  0.2217 -0.0112  0.8326
  463MOL0     O63759   9.851   6.262   9.079 -0.2231 -0.2734  0.9987
  463MOL0     C63760   9.913   6.313   8.969  1.0107 -0.5208  0.3603
  463MOL0     C63761  10.046   6.281   8.955  0.7109  0.4748 -0.4560
  463MOL0     C63762  10.118   6.332   8.850  0.0728 -0.8218 -0.2138
  463MOL0     C63763  10.058   6.416   8.758  0.6428  0.2587 -0.5251
  463MOL0     O63764  10.128   6.467   8.650 -0.3561 -0.5705  0.3282
  463MOL0     C63765  10.258   6.407   8.615  1.7443 -0.5808 -1.9144
  463MOL0     C63766  10.291   6.438   8.475  0.5133  0.0154  1.0628
  463MOL0     C63767  10.323   6.590   8.437 -0.1435  0.5128  0.1810
  463MOL0     C63768  10.458   6.624   8.514  0.2749 -0.5996 -0.0873
  463MOL0     C63769  10.529   6.741   8.452 -0.1749  0.3628 -0.3836
  463MOL0     C63770  10.628   6.817   8.539  0.2096 -0.0284  0.6522
  463MOL0     C63771  10.654   6.960   8.509 -0.4487  0.3788 -0.2711
  463MOL0     C63772  10.723   7.003   8.376 -0.4700  0.5303  0.1048
  463MOL0     N63773  10.657   6.973   8.252 -0.0233  1.2495  0.2484
  463MOL0     C63774  10.523   7.006   8.215 -0.4261  0.0298 -1.3703
  463MOL0     C63775  10.513   6.969   8.084  0.1914  0.0847 -0.4404
  463MOL0     C63776  10.388   6.969   7.996  0.9296  1.1925  0.6509
  463MOL0     C63777  10.297   6.852   8.033 -0.1300 -0.6413 -0.1276
  463MOL0     C63778  10.359   6.718   7.997  0.1933 -0.0419  0.1178
  463MOL0     C63779  10.262   6.613   8.027  0.9058  0.0249  0.2880
  463MOL0     O63780  10.171   6.601   7.917  0.3757  0.3409 -0.8323
  463MOL0     C63781  10.064   6.516   7.925  0.1355 -0.0300  0.3033
  463MOL0     C63782  10.067   6.400   8.003 -0.7058 -0.3920  0.4741
  463MOL0     C63783   9.966   6.305   7.998  0.6329  0.0416  0.5106
  463MOL0     C63784   9.992   6.171   8.072 -0.5658 -0.4767 -0.3156
  463MOL0     C63785   9.852   6.340   7.925 -0.9345  0.2138 -0.4587
  463MOL0     C63786   9.721   6.269   7.916  0.4212  0.9463 -0.3455
  463MOL0     O63787   9.628   6.302   7.816  0.2149 -0.6387  0.2349
  463MOL0     C63788   9.529   6.211   7.773 -0.4759  0.3037  0.1093
  463MOL0     C63789   9.428   6.161   7.843  1.1836 -0.4908  1.1071
  463MOL0     C63790   9.327   6.090   7.780 -0.7040  0.3852 -0.1152
  463MOL0     C63791   9.330   6.076   7.646 -0.5780 -0.2031 -0.2291
  463MOL0     O63792   9.245   5.975   7.602  0.0015  0.1531  0.0658
  463MOL0     C63793   9.198   5.991   7.466  0.9197  0.5431  0.0710
  463MOL0     C63794   9.085   5.895   7.423  0.4011 -0.8881 -0.3337
  463MOL0     C63795   9.156   5.761   7.416  1.2123 -0.3659 -0.0188
  463MOL0     C63796   9.048   5.652   7.381 -0.1498 -0.7770 -0.6159
  463MOL0     C63797   9.102   5.507   7.392 -1.1693  0.0316 -0.2155
  463MOL0     C63798   9.008   5.422   7.311  0.2532 -0.3836 -0.6849
  463MOL0     C63799   9.069   5.278   7.288  0.3349 -0.3231  0.3359
  463MOL0     C63800   9.149   5.270   7.156  0.3716 -0.3241 -0.1375
  463MOL0    Cl63801   9.244   5.121   7.176 -0.3138 -0.3143  0.1760
  463MOL0     C63802   9.433   6.139   7.573 -0.0310  0.4054  0.0824
  463MOL0     C63803   9.531   6.203   7.636  0.8684  0.7935 -0.0059
  463MOL0     O63804   9.693   6.186   8.008  0.9077 -1.0992  0.4810
  463MOL0     C63805   9.846   6.457   7.860  0.6783 -0.0954  0.2512
  463MOL0     C63806   9.944   6.555   7.861 -0.1528  0.3075 -0.0787
  463MOL0     N63807  10.630   6.898   8.041  0.4639  0.2761  0.8680
  463MOL0     N63808  10.705   6.905   8.149 -0.0999 -0.5535  1.1183
  463MOL0     C63809   9.930   6.456   8.772 -0.7015 -0.9826  0.3771
  463MOL0     C63810   9.859   6.397   8.876 -0.1466 -0.3879  0.3850
  463MOL0     C63811   9.787   6.325   9.311 -1.1454  0.4515  0.6086
  463MOL0     C63812   9.777   6.180   9.319  0.1249  0.4977  0.4803
  463MOL0     C63813   9.726   6.125   9.430  0.4396 -0.5857  0.6591
  463MOL0     C63814   9.662   6.205   9.530 -0.3340 -0.5916  0.7400
  463MOL0     O63815   9.606   6.157   9.640 -0.0896  0.5962  0.0071
  463MOL0     C63816   9.573   6.009   9.654  0.7108 -0.9189  0.1108
  463MOL0     C63817   9.445   5.978   9.578  0.0601  1.7006  0.2674
  463MOL0     C63818   9.418   5.823   9.593  0.2574 -0.4166 -0.4814
  463MOL0     C63819   9.332   5.749   9.493  0.4569 -0.4467 -0.4672
  463MOL0     C63820   9.201   5.825   9.481  0.2394 -0.7092 -0.6570
  463MOL0     C63821   9.106   5.893   9.454  0.0961  0.0328 -0.4809
  463MOL0     C63822   9.667   6.344   9.517  0.0820  0.6271 -0.5821
  463MOL0     C63823   9.742   6.406   9.419 -0.3056 -0.1530  0.0800
  463MOL0     C63824   9.773   6.549   9.433 -0.2917 -0.0311  0.1586
  463MOL0     H63825  10.087   6.203   9.019 -0.0754 -0.1696 -0.7197
  463MOL0     H63826  10.220   6.294   8.847  0.8773  1.2726 -1.6383
  463MOL0     H63827  10.257   6.298   8.617  1.4021 -0.6990 -4.7595
  463MOL0     H63828  10.326   6.442   8.693  1.7838 -4.6499  0.1161
  463MOL0     H63829  10.371   6.372   8.441  1.3423 -0.1726  3.2206
  463MOL0     H63830  10.197   6.422   8.422  0.7019  2.0563  0.0051
  463MOL0     H63831  10.352   6.591   8.332  0.6952  1.6104  0.4025
  463MOL0     H63832  10.237   6.657   8.449 -0.1640  0.7856 -1.3143
  463MOL0     H63833  10.427   6.644   8.617 -0.6685 -2.1775 -0.0317
  463MOL0     H63834  10.526   6.539   8.534  1.3649  0.4358  0.7994
  463MOL0     H63835  10.460   6.825   8.440  0.4922  1.5915  3.0952
  463MOL0     H63836  10.570   6.712   8.355 -0.4702 -1.4188 -0.0111
  463MOL0     H63837  10.593   6.808   8.643 -2.1438 -0.3212 -0.1084
  463MOL0     H63838  10.727   6.770   8.534  2.3673  4.0238  0.4819
  463MOL0     H63839  10.723   7.003   8.581 -1.0324 -1.7257  1.6697
  463MOL0     H63840  10.569   7.024   8.535  0.2291  0.5936  1.5381
  463MOL0     H63841  10.745   7.110   8.364  3.0157  0.1146  1.6972
  463MOL0     H63842  10.818   6.950   8.380 -0.8522 -0.1553  0.2463
  463MOL0     H63843  10.449   7.053   8.278  1.4076 -0.6399  1.5118
  463MOL0     H63844  10.407   6.957   7.888  0.6154 -1.2002  0.8150
  463MOL0     H63845  10.337   7.064   8.012  0.7409  1.1748  0.1832
  463MOL0     H63846  10.270   6.866   8.138 -1.8920  1.0477 -0.7641
  463MOL0     H63847  10.209   6.864   7.970  1.1948  0.8916 -1.7845
  463MOL0     H63848  10.392   6.729   7.894  0.3787 -0.2135  0.1578
  463MOL0     H63849  10.439   6.692   8.068 -0.4437  1.1183  1.2923
  463MOL0     H63850  10.318   6.520   8.011  0.1220 -0.4253  0.1231
  463MOL0     H63851  10.207   6.613   8.121 -0.7779 -2.3525 -0.6101
  463MOL0     H63852  10.151   6.386   8.070  1.3985  1.9244 -1.4950
  463MOL0     H63853  10.083   6.176   8.133  0.2201 -1.5523 -1.3665
  463MOL0     H63854  10.007   6.089   8.002  3.3483  0.1984 -0.4861
  463MOL0     H63855   9.903   6.148   8.131 -0.7665  0.5298 -0.2110
  463MOL0     H63856   9.427   6.180   7.950  4.3964 -1.7752  1.4803
  463MOL0     H63857   9.253   6.044   7.845 -0.5669  2.5171  1.6847
  463MOL0     H63858   9.157   6.091   7.446 -0.3291  0.0979  0.3469
  463MOL0     H63859   9.281   5.974   7.397  0.3761 -0.3766 -0.3768
  463MOL0     H63860   9.011   5.900   7.502  3.2743 -2.6859  2.7220
  463MOL0     H63861   9.057   5.924   7.321  2.7042  1.3635 -0.4390
  463MOL0     H63862   9.205   5.746   7.513  2.1345  2.6114  0.0901
  463MOL0     H63863   9.233   5.770   7.338 -0.1012  1.8721 -1.1742
  463MOL0     H63864   9.014   5.671   7.279  2.8172  1.7672 -1.2926
  463MOL0     H63865   8.969   5.673   7.454 -0.3385  1.9522 -1.4824
  463MOL0     H63866   9.201   5.497   7.348 -1.2355 -2.1337  0.0244
  463MOL0     H63867   9.119   5.473   7.495  3.8036  0.0316 -0.8100
  463MOL0     H63868   8.982   5.462   7.213  1.6030 -1.9424 -1.7241
  463MOL0     H63869   8.917   5.419   7.373 -0.0002  1.1595 -0.9582
  463MOL0     H63870   8.985   5.208   7.285  0.9917 -1.1022 -0.5776
  463MOL0     H63871   9.142   5.249   7.363  1.8643 -0.1221 -1.0156
  463MOL0     H63872   9.213   5.357   7.136 -1.0147  0.4223 -1.4740
  463MOL0     H63873   9.087   5.275   7.067  0.7215  4.1177 -0.3769
  463MOL0     H63874   9.432   6.119   7.466 -0.0542 -4.2056  0.7284
  463MOL0     H63875   9.611   6.261   7.591  1.5081  1.9367  2.4154
  463MOL0     H63876   9.757   6.486   7.806  2.4012  0.1249 -2.6884
  463MOL0     H63877   9.932   6.651   7.812 -0.8844 -0.4733 -1.5216
  463MOL0     H63878   9.885   6.527   8.702  1.0031 -1.0617 -0.8811
  463MOL0     H63879   9.754   6.419   8.893 -1.3022 -3.0869 -2.2366
  463MOL0     H63880   9.811   6.117   9.237  2.6440  2.0153  0.2333
  463MOL0     H63881   9.725   6.017   9.423  1.1814 -0.5551 -0.0939
  463MOL0     H63882   9.652   5.945   9.614  0.6195 -1.4773  0.8019
  463MOL0     H63883   9.542   5.986   9.756 -3.6951  1.5254 -0.4285
  463MOL0     H63884   9.455   5.980   9.469  3.7506 -5.8699 -0.2441
  463MOL0     H63885   9.362   6.039   9.614 -1.0579  0.6177 -0.4001
  463MOL0     H63886   9.511   5.766   9.588 -0.5864 -2.2287  2.1364
  463MOL0     H63887   9.377   5.807   9.693  0.5702  1.7181  0.0340
  463MOL0     H63888   9.305   5.647   9.522 -2.0970 -0.5959 -2.9270
  463MOL0     H63889   9.370   5.746   9.390  1.0496 -0.0982 -0.2639
  463MOL0     H63890   9.015   5.948   9.439  0.1285  0.1708 -0.1793
  463MOL0     H63891   9.608   6.403   9.586 -5.6015 -4.3474 -0.3899
  463MOL0     H63892   9.882   6.559   9.433 -0.3880  1.2375 -0.0225
  463MOL0     H63893   9.736   6.620   9.359  0.3667  0.6213  0.4332
  463MOL0     H63894   9.740   6.581   9.533  1.1065 -0.6718  0.8601
  464MOL0     O63895  11.029  10.726   2.327  0.6664 -0.3173  0.0375
  464MOL0     C63896  11.149  10.741   2.333 -0.0793 -0.8708 -0.1122
  464MOL0     O63897  11.244  10.676   2.252  0.0108 -0.1165  0.2316
  464MOL0     C63898  11.195  10.613   2.139  0.2321  0.4459  0.4223
  464MOL0     C63899  11.254  10.634   2.008  0.0464 -0.1573 -0.2521
  464MOL0     C63900  11.212  10.557   1.898 -0.3407  0.1316 -0.2210
  464MOL0     C63901  11.099  10.483   1.907  0.1305  1.0969  0.5609
  464MOL0     O63902  11.057  10.422   1.791 -0.3353 -0.0191  0.7311
  464MOL0     C63903  10.950  10.323   1.792 -0.2438  0.8007  0.0849
  464MOL0     C63904  10.924  10.278   1.646  0.0699  1.1203 -0.4813
  464MOL0     C63905  10.869  10.128   1.636  0.2792  0.1224 -0.1279
  464MOL0     C63906  10.745  10.112   1.551 -0.4067 -0.2456 -0.3426
  464MOL0     C63907  10.682   9.977   1.559  0.6613  0.0714  0.1632
  464MOL0     C63908  10.755   9.875   1.475 -0.6640  0.2990  0.5710
  464MOL0     C63909  10.787   9.906   1.323 -0.6168 -0.2815 -0.5552
  464MOL0     C63910  10.818   9.776   1.242 -0.5340 -0.0393 -0.3898
  464MOL0     N63911  10.695   9.715   1.211  0.2768  1.0646  0.3406
  464MOL0     C63912  10.596   9.761   1.127 -0.1721  0.5349  0.3260
  464MOL0     C63913  10.491   9.685   1.152  0.4740  0.1666  0.9635
  464MOL0     C63914  10.354   9.687   1.094 -0.5611 -0.2587 -0.1091
  464MOL0     C63915  10.272   9.817   1.132 -0.0525 -0.1545 -0.2581
  464MOL0     C63916  10.121   9.812   1.083 -0.7805 -0.0300  0.5092
  464MOL0     C63917  10.086   9.826   0.936 -0.4031 -0.7051  0.3601
  464MOL0     O63918  10.158   9.936   0.878 -0.6246 -0.3527 -0.5049
  464MOL0     C63919  10.090   9.990   0.773 -0.4769 -0.3884  0.1558
  464MOL0     C63920   9.983  10.074   0.806 -0.8750  0.3995 -0.0265
  464MOL0     C63921   9.910  10.142   0.704 -0.2221  0.0809  0.6400
  464MOL0     C63922   9.787  10.213   0.746  0.4888 -0.8205 -0.0408
  464MOL0     C63923   9.959  10.144   0.571 -0.2305  0.2573 -0.3150
  464MOL0     C63924   9.898  10.220   0.456  0.4861 -0.4306  0.3416
  464MOL0     O63925   9.981  10.265   0.350  0.5576  0.0092 -0.6350
  464MOL0     C63926   9.929  10.342   0.243 -0.0752  0.3823  0.0579
  464MOL0     C63927   9.968  10.475   0.236 -0.3797  0.0775 -1.1465
  464MOL0     C63928   9.920  10.554   0.130 -0.0317  0.5084 -0.2696
  464MOL0     C63929   9.836  10.501   0.035 -0.5019  0.1964  0.1718
  464MOL0     O63930   9.795  10.581  -0.069  0.6027 -0.6947 -0.4857
  464MOL0     C63931   9.901  10.649  -0.138 -0.0214 -0.2111  0.7784
  464MOL0     C63932   9.945  10.579  -0.270 -0.3385  0.6120  0.2976
  464MOL0     C63933  10.064  10.664  -0.327  0.5117  0.6452  0.2837
  464MOL0     C63934  10.131  10.621  -0.464 -0.4030  0.4884  0.8690
  464MOL0     C63935  10.254  10.713  -0.497  0.1694  0.5236 -0.3315
  464MOL0     C63936  10.317  10.662  -0.628  0.2804 -0.2949 -0.0083
  464MOL0     C63937  10.209  10.642  -0.746 -0.2144  0.3490 -0.0864
  464MOL0     C63938  10.267  10.649  -0.889 -0.0568  0.5102  0.0579
  464MOL0    Cl63939  10.413  10.556  -0.905 -0.0747 -0.1940 -0.4309
  464MOL0     C63940   9.798  10.369   0.042 -0.0601 -0.3975 -0.8734
  464MOL0     C63941   9.843  10.293   0.147 -0.5895  0.8248  0.9049
  464MOL0     O63942   9.777  10.238   0.462 -0.6507 -0.2629 -0.2420
  464MOL0     C63943  10.074  10.063   0.537 -0.1616  0.8585 -0.3680
  464MOL0     C63944  10.142   9.994   0.641  0.0499 -0.2052  0.1528
  464MOL0     N63945  10.526   9.599   1.256  0.2956 -0.3750  0.9260
  464MOL0     N63946  10.644   9.614   1.290  0.9423  0.4066 -0.3733
  464MOL0     C63947  11.048  10.466   2.029  0.7266  0.9061 -0.0348
  464MOL0     C63948  11.085  10.528   2.146 -0.1322  0.9995 -0.1825
  464MOL0     C63949  11.200  10.838   2.421  0.6848 -0.2589 -0.4002
  464MOL0     C63950  11.313  10.802   2.496  0.7417 -0.6994 -0.1502
  464MOL0     C63951  11.378  10.879   2.600 -0.6910 -0.6620  0.3055
  464MOL0     C63952  11.328  11.007   2.618  0.4440  0.5508 -0.1827
  464MOL0     O63953  11.384  11.101   2.707  0.3371 -0.4489  0.9888
  464MOL0     C63954  11.466  11.059   2.812 -0.5606  1.2265 -0.4613
  464MOL0     C63955  11.608  11.030   2.760  0.7749  0.2951 -0.6092
  464MOL0     C63956  11.683  10.947   2.851 -0.1071  0.3890  0.0492
  464MOL0     C63957  11.816  10.901   2.775  0.0337 -0.0124  0.0587
  464MOL0     C63958  11.800  10.788   2.681  0.3528 -0.4987 -0.0197
  464MOL0     C63959  11.793  10.697   2.605 -0.6928  0.2984  0.3069
  464MOL0     C63960  11.214  11.043   2.543  0.7201  0.4384 -0.3082
  464MOL0     C63961  11.140  10.964   2.458 -0.3408 -0.1926 -0.4355
  464MOL0     C63962  11.001  11.013   2.407 -0.5528 -0.1090  0.8125
  464MOL0     H63963  11.340  10.700   2.001 -0.6422  0.9162  1.0129
  464MOL0     H63964  11.269  10.551   1.806  2.4993 -3.6924  1.5156
  464MOL0     H63965  10.855  10.360   1.831 -2.2331 -3.9558  0.4758
  464MOL0     H63966  10.973  10.236   1.854 -1.6595  0.6660  0.4474
  464MOL0     H63967  10.849  10.344   1.602  0.2600  0.0898 -2.4572
  464MOL0     H63968  11.009  10.296   1.579 -1.1873  1.7158 -1.9731
  464MOL0     H63969  10.955  10.071   1.600  1.1107  2.0949 -1.4227
  464MOL0     H63970  10.861  10.073   1.731  0.2768  0.5123  0.0979
  464MOL0     H63971  10.679  10.189   1.592 -1.2053 -1.5840  0.9420
  464MOL0     H63972  10.773  10.154   1.453  0.9262  0.3506  0.2610
  464MOL0     H63973  10.577   9.992   1.532  1.1031  3.4565 -0.0297
  464MOL0     H63974  10.674   9.941   1.662 -0.6579 -4.3272 -1.2121
  464MOL0     H63975  10.847   9.851   1.529 -1.0097 -1.7047  0.3573
  464MOL0     H63976  10.687   9.789   1.478 -0.3612  0.0591  0.5522
  464MOL0     H63977  10.861   9.986   1.318  0.7151 -1.3639  0.9052
  464MOL0     H63978  10.707   9.957   1.269 -0.3975 -0.7075 -1.2926
  464MOL0     H63979  10.860   9.794   1.143 -0.5938 -1.7708 -0.7477
  464MOL0     H63980  10.880   9.705   1.297 -1.4688  0.0984  0.8850
  464MOL0     H63981  10.598   9.848   1.062  0.6905 -0.2087 -0.6894
  464MOL0     H63982  10.307   9.597   1.136 -0.9734 -0.4335 -0.9363
  464MOL0     H63983  10.366   9.672   0.987 -0.0182 -1.7360  0.1349
  464MOL0     H63984  10.274   9.836   1.240  3.0127  0.4955 -0.3269
  464MOL0     H63985  10.328   9.905   1.098  0.7033  1.6434  4.7862
  464MOL0     H63986  10.074   9.719   1.118 -1.4070  0.1011  0.0329
  464MOL0     H63987  10.064   9.888   1.137 -1.1735 -0.6870  1.0364
  464MOL0     H63988  10.122   9.737   0.883 -0.7677 -0.7634  0.2086
  464MOL0     H63989   9.977   9.830   0.937 -0.7821 -1.5950  6.8451
  464MOL0     H63990   9.952  10.080   0.910  1.8355  1.4920  0.7962
  464MOL0     H63991   9.699  10.188   0.686  0.1682  2.4915 -1.1417
  464MOL0     H63992   9.794  10.322   0.741 -1.1847 -0.7594 -2.3552
  464MOL0     H63993   9.765  10.190   0.851 -0.3110 -1.1378 -0.2721
  464MOL0     H63994  10.035  10.513   0.313  1.8352 -0.8768 -2.5024
  464MOL0     H63995   9.958  10.656   0.123  1.8385 -0.2740 -2.7049
  464MOL0     H63996   9.862  10.749  -0.159  1.4960  0.7056  2.0859
  464MOL0     H63997   9.996  10.659  -0.083  0.9184  0.3798 -0.8830
  464MOL0     H63998   9.978  10.478  -0.243  0.6993  0.4772 -1.3379
  464MOL0     H63999   9.861  10.584  -0.340 -2.8916 -0.7710  3.0007
  464MOL0     H64000  10.138  10.669  -0.246 -0.4822  4.6720  1.2042
  464MOL0     H64001  10.043  10.772  -0.328  1.3502  0.9856 -4.5738
  464MOL0     H64002  10.053  10.618  -0.541 -1.2187  1.2303  1.6472
  464MOL0     H64003  10.158  10.515  -0.454 -0.8722 -0.1150 -2.7763
  464MOL0     H64004  10.211  10.811  -0.517 -2.3751  0.1280  2.4325
  464MOL0     H64005  10.335  10.714  -0.423  1.1837 -0.3024 -1.3992
  464MOL0     H64006  10.366  10.567  -0.604 -1.7299 -1.5673 -0.7172
  464MOL0     H64007  10.388  10.735  -0.669  0.4456  0.2643  1.2253
  464MOL0     H64008  10.124  10.709  -0.734 -0.9961 -0.5464 -0.5834
  464MOL0     H64009  10.175  10.541  -0.724  1.3592  0.1475  1.7462
  464MOL0     H64010  10.294  10.755  -0.887  0.9694  0.3276 -1.7336
  464MOL0     H64011  10.188  10.633  -0.962 -0.1696 -2.5695  0.7419
  464MOL0     H64012   9.732  10.315  -0.026 -0.1332 -1.1723 -0.2010
  464MOL0     H64013   9.805  10.192   0.144 -1.8188  1.2992 -1.3329
  464MOL0     H64014  10.110  10.068   0.434 -3.1101  2.6091 -1.4354
  464MOL0     H64015  10.236   9.944   0.621  0.8890  0.2277  2.6378
  464MOL0     H64016  10.952  10.416   2.040  1.6102 -0.7872  0.4377
  464MOL0     H64017  11.022  10.509   2.232 -0.5100 -3.1501 -1.1503
  464MOL0     H64018  11.365  10.709   2.478  1.9158 -0.3014  1.0213
  464MOL0     H64019  11.462  10.830   2.649  0.0005 -3.1311 -2.9444
  464MOL0     H64020  11.475  11.136   2.889  1.8670  0.9970 -0.4378
  464MOL0     H64021  11.429  10.971   2.865  1.9682  2.1872  3.2687
  464MOL0     H64022  11.653  11.129   2.750 -0.3270  0.8702 -0.1100
  464MOL0     H64023  11.609  10.999   2.655 -0.5733  2.3670 -1.3027
  464MOL0     H64024  11.711  11.008   2.938 -1.4742 -1.9120  2.2251
  464MOL0     H64025  11.628  10.869   2.904 -1.4199  1.4588  0.3375
  464MOL0     H64026  11.900  10.878   2.841  0.2152  2.1743  0.6616
  464MOL0     H64027  11.858  10.973   2.705  0.7157  0.2747  0.7455
  464MOL0     H64028  11.790  10.609   2.544 -1.9079 -0.7856  1.8700
  464MOL0     H64029  11.170  11.138   2.572  2.1195  0.9327  0.2813
  464MOL0     H64030  10.953  10.940   2.342  2.1350 -2.1068  0.8908
  464MOL0     H64031  10.939  11.038   2.493 -1.5045  3.1588 -0.6587
  464MOL0     H64032  11.012  11.106   2.351 -2.0127 -0.5630 -0.3059
  465MOL0     O64033   5.145   1.818   7.378 -0.1209 -0.7571  0.0725
  465MOL0     C64034   5.121   1.703   7.382  0.2063 -0.0736  0.7249
  465MOL0     O64035   5.038   1.645   7.460  0.0319  0.2115  0.0415
  465MOL0     C64036   4.990   1.709   7.576 -0.0555  0.3552  0.2685
  465MOL0     C64037   4.868   1.669   7.619 -0.3407  0.1231  0.4107
  465MOL0     C64038   4.821   1.709   7.741  0.2674 -0.2852 -0.5774
  465MOL0     C64039   4.888   1.788   7.830  0.1908  0.6756  1.1585
  465MOL0     O64040   4.828   1.819   7.950  0.1820 -0.2397 -0.3560
  465MOL0     C64041   4.870   1.942   8.014  0.2953 -0.6580 -0.5455
  465MOL0     C64042   4.843   2.075   7.938 -1.0295  0.2140  0.0059
  465MOL0     C64043   4.698   2.086   7.905 -0.5474 -0.5011 -0.1221
  465MOL0     C64044   4.660   2.222   7.830  0.1551 -0.0893  0.2393
  465MOL0     C64045   4.515   2.210   7.766  0.2717 -0.5441  0.1327
  465MOL0     C64046   4.518   2.190   7.613 -0.0199 -0.0012 -0.1384
  465MOL0     C64047   4.608   2.077   7.566 -0.1225  0.1355 -0.7988
  465MOL0     C64048   4.533   1.944   7.593 -0.4783  0.4733  0.5260
  465MOL0     N64049   4.419   1.925   7.506  0.3832 -0.1304 -0.0201
  465MOL0     C64050   4.390   1.943   7.373 -0.4979  0.3650  0.5509
  465MOL0     C64051   4.270   1.882   7.348  1.0888 -0.8167  0.9849
  465MOL0     C64052   4.196   1.889   7.221  0.3037 -0.1895  0.0427
  465MOL0     C64053   4.089   2.008   7.207 -0.0660  0.0541 -0.3774
  465MOL0     C64054   4.160   2.144   7.197  0.3211  0.4319 -0.5618
  465MOL0     C64055   4.061   2.261   7.170 -0.5322  0.0039 -0.3261
  465MOL0     O64056   3.988   2.224   7.047 -1.4903 -1.0586  0.2198
  465MOL0     C64057   3.872   2.292   7.034 -0.1656 -0.3113  0.8978
  465MOL0     C64058   3.760   2.225   7.060  0.0307 -0.6177  0.2813
  465MOL0     C64059   3.633   2.294   7.039 -0.6379 -0.1087  0.6285
  465MOL0     C64060   3.506   2.230   7.070  0.9846  0.5843  0.0655
  465MOL0     C64061   3.632   2.426   6.992 -1.0775  0.3964 -0.9614
  465MOL0     C64062   3.513   2.511   6.983  0.6379  0.6363  0.8517
  465MOL0     O64063   3.450   2.527   7.100 -0.5230 -0.1655 -0.1477
  465MOL0     C64064   3.348   2.600   7.127  0.6618 -0.1343  0.7424
  465MOL0     C64065   3.221   2.544   7.106  0.1807 -0.0830 -0.3988
  465MOL0     C64066   3.110   2.616   7.145  0.3571 -0.2899 -0.0022
  465MOL0     C64067   3.125   2.741   7.209 -0.2266 -0.4421  0.5725
  465MOL0     O64068   3.028   2.798   7.279  0.2052 -0.9003 -0.2887
  465MOL0     C64069   2.903   2.736   7.297  0.9696  0.2219  0.5847
  465MOL0     C64070   2.808   2.784   7.183  0.2848  0.3173 -0.4168
  465MOL0     C64071   2.756   2.923   7.231  0.0919  0.7964  0.3334
  465MOL0     C64072   2.641   2.923   7.332  0.0269  0.1313 -0.3387
  465MOL0     C64073   2.608   3.068   7.360 -0.4884 -0.1181  1.2212
  465MOL0     C64074   2.474   3.083   7.419  0.1073  0.0000  0.2164
  465MOL0     C64075   2.406   3.222   7.432 -0.1228  0.0453  0.4921
  465MOL0     C64076   2.488   3.290   7.545  0.7030 -0.4494  0.2320
  465MOL0    Cl64077   2.413   3.243   7.703  0.7886  0.5688  0.3719
  465MOL0     C64078   3.246   2.788   7.233 -0.4872  0.6430  0.1569
  465MOL0     C64079   3.359   2.726   7.186 -0.3023  0.6371 -0.2554
  465MOL0     O64080   3.474   2.550   6.874 -0.7388 -0.4165 -0.3750
  465MOL0     C64081   3.757   2.483   6.958  0.0896 -0.1650 -0.1839
  465MOL0     C64082   3.878   2.417   6.984  1.2960 -0.1290  1.4375
  465MOL0     N64083   4.241   1.813   7.459 -0.3168  0.3138 -0.3286
  465MOL0     N64084   4.329   1.833   7.545  0.2955  0.2723 -0.0630
  465MOL0     C64085   5.017   1.838   7.789 -0.4815 -0.0311  0.0684
  465MOL0     C64086   5.072   1.787   7.668 -0.0932 -0.0842 -0.2421
  465MOL0     C64087   5.179   1.613   7.266  0.2188 -0.5672 -0.3630
  465MOL0     C64088   5.188   1.478   7.302 -0.4569 -0.6894  0.2458
  465MOL0     C64089   5.241   1.386   7.208  0.3512  0.0938  0.2140
  465MOL0     C64090   5.295   1.434   7.083  0.8100  0.7076  0.2630
  465MOL0     O64091   5.345   1.346   6.990 -0.7060  0.0623 -0.4553
  465MOL0     C64092   5.304   1.211   7.004 -1.1205  0.1903 -0.1567
  465MOL0     C64093   5.331   1.146   6.875 -0.8079  0.5620  0.1721
  465MOL0     C64094   5.306   0.998   6.893 -0.4110  0.1207 -0.0628
  465MOL0     C64095   5.413   0.926   6.973  0.1083 -0.1020 -0.6102
  465MOL0     C64096   5.511   0.851   6.899 -0.4127  0.4572  0.5416
  465MOL0     C64097   5.593   0.800   6.824 -0.4279  0.1020  0.4523
  465MOL0     C64098   5.293   1.572   7.064 -0.5794  0.3135 -0.1204
  465MOL0     C64099   5.230   1.665   7.140  0.5230  0.9337  0.5890
  465MOL0     C64100   5.222   1.795   7.095  0.0430  0.1860 -0.1650
  465MOL0     H64101   4.812   1.626   7.537  2.9519 -0.8063 -1.5078
  465MOL0     H64102   4.721   1.672   7.761 -0.1799 -0.0987 -2.3582
  465MOL0     H64103   4.977   1.932   8.038 -0.4216 -3.0758  2.2824
  465MOL0     H64104   4.825   1.949   8.113  0.7864  0.6745 -0.3930
  465MOL0     H64105   4.881   2.156   8.002 -1.8523  1.7869 -1.3932
  465MOL0     H64106   4.895   2.067   7.843 -1.0685 -1.1205  0.0903
  465MOL0     H64107   4.660   2.010   7.836 -2.2937  0.9372 -0.8394
  465MOL0     H64108   4.649   2.066   8.000 -1.3967 -3.4849 -1.0820
  465MOL0     H64109   4.673   2.298   7.908 -1.7597  0.2513  0.2832
  465MOL0     H64110   4.725   2.267   7.755  0.1009  0.4226  0.4953
  465MOL0     H64111   4.446   2.289   7.798 -0.5081 -2.4417  3.7429
  465MOL0     H64112   4.466   2.121   7.806 -0.5954  0.1995  0.7803
  465MOL0     H64113   4.417   2.164   7.579 -0.1866  0.3453  0.0786
  465MOL0     H64114   4.534   2.288   7.566  1.0354 -0.2462 -0.3016
  465MOL0     H64115   4.702   2.069   7.622 -1.7275 -2.1779  1.8031
  465MOL0     H64116   4.638   2.091   7.462 -0.5723 -1.8971 -1.2431
  465MOL0     H64117   4.599   1.859   7.576 -0.2764  0.3748  1.7140
  465MOL0     H64118   4.508   1.942   7.699  0.5225  0.2173  0.7695
  465MOL0     H64119   4.453   1.993   7.300 -2.2235  0.0841 -1.2034
  465MOL0     H64120   4.145   1.796   7.195  2.6792 -0.9680 -2.2866
  465MOL0     H64121   4.275   1.902   7.146 -0.0980  0.2193 -0.3175
  465MOL0     H64122   4.016   1.991   7.128  0.0313  1.4668 -0.8066
  465MOL0     H64123   4.028   2.023   7.296 -2.1275 -0.4444 -1.6477
  465MOL0     H64124   4.202   2.162   7.297 -2.3568 -0.9090  0.9251
  465MOL0     H64125   4.240   2.144   7.123 -0.5357 -0.3796 -1.5128
  465MOL0     H64126   3.985   2.284   7.245 -0.9314 -0.6490 -0.5202
  465MOL0     H64127   4.132   2.344   7.158  0.7936 -0.9302  0.7774
  465MOL0     H64128   3.767   2.130   7.111  2.6578 -1.0796 -0.7607
  465MOL0     H64129   3.444   2.277   7.147 -0.0801  2.0799 -1.6111
  465MOL0     H64130   3.522   2.123   7.083 -0.2124  0.2694 -0.8443
  465MOL0     H64131   3.434   2.232   6.988 -1.8986  1.1408  2.4099
  465MOL0     H64132   3.217   2.452   7.048 -0.3396 -0.6248  0.4776
  465MOL0     H64133   3.009   2.579   7.127  0.7433 -2.0391  1.1828
  465MOL0     H64134   2.918   2.629   7.315 -0.2112  0.0203  0.3945
  465MOL0     H64135   2.864   2.784   7.386  0.3687 -1.2684  1.1641
  465MOL0     H64136   2.842   2.781   7.079 -2.4617 -3.3693 -1.4239
  465MOL0     H64137   2.721   2.720   7.200  1.4172 -0.6846  1.9788
  465MOL0     H64138   2.730   2.981   7.141  1.5654  1.8823  0.5603
  465MOL0     H64139   2.842   2.975   7.275  0.1104 -1.2935  3.0589
  465MOL0     H64140   2.672   2.869   7.422 -0.2866  0.1309 -0.2292
  465MOL0     H64141   2.551   2.872   7.297 -1.1928  0.3495  2.1957
  465MOL0     H64142   2.682   3.110   7.429  0.7078 -1.3287  0.7448
  465MOL0     H64143   2.618   3.129   7.270 -0.2741 -0.3482  1.0853
  465MOL0     H64144   2.486   3.038   7.517 -1.1028 -0.4582  0.1681
  465MOL0     H64145   2.397   3.029   7.362 -2.8035  3.2653  0.6730
  465MOL0     H64146   2.301   3.211   7.460  0.0295  1.6055  1.8498
  465MOL0     H64147   2.414   3.278   7.339  2.6042  0.9706  1.1827
  465MOL0     H64148   2.469   3.396   7.529 -0.4063 -0.8045 -1.0496
  465MOL0     H64149   2.594   3.262   7.541  0.3957 -1.7677 -3.9347
  465MOL0     H64150   3.268   2.873   7.296  0.8038  0.8453 -0.5508
  465MOL0     H64151   3.458   2.757   7.219 -0.4534 -1.6446  2.7932
  465MOL0     H64152   3.763   2.590   6.940  0.6031 -0.2192 -0.3335
  465MOL0     H64153   3.965   2.477   6.960 -0.0141  1.0649 -0.6587
  465MOL0     H64154   5.087   1.890   7.853  0.3292 -1.2418  0.2176
  465MOL0     H64155   5.172   1.817   7.635  1.6407 -1.1321  3.5434
  465MOL0     H64156   5.153   1.448   7.400 -2.7971 -1.5164 -0.7716
  465MOL0     H64157   5.238   1.284   7.244  2.2810 -0.7530 -1.7524
  465MOL0     H64158   5.364   1.175   7.088  5.4197  2.8366 -2.9340
  465MOL0     H64159   5.197   1.205   7.022 -1.3810  2.0134 -0.9014
  465MOL0     H64160   5.438   1.150   6.854 -0.5964  1.6743  1.3471
  465MOL0     H64161   5.276   1.197   6.795  1.7801  3.2703 -0.0596
  465MOL0     H64162   5.208   0.989   6.939 -0.1327 -1.1828  0.3200
  465MOL0     H64163   5.303   0.960   6.790 -0.2403  2.0018 -0.7894
  465MOL0     H64164   5.367   0.860   7.047  2.3002 -0.4250  0.5679
  465MOL0     H64165   5.473   0.995   7.034 -2.7348  0.0799  2.2536
  465MOL0     H64166   5.652   0.753   6.748 -1.3783 -0.4930  0.0638
  465MOL0     H64167   5.332   1.609   6.969 -0.3316 -1.8201 -0.9197
  465MOL0     H64168   5.246   1.797   6.988 -2.1404 -0.9308 -0.7292
  465MOL0     H64169   5.120   1.834   7.096 -0.6272 -1.3052  3.2603
  465MOL0     H64170   5.281   1.861   7.161 -0.7384 -0.0629  0.8064
  466MOL0     O64171   0.036   6.834  10.965 -0.2452 -0.1328  0.3917
  466MOL0     C64172   0.155   6.846  10.996  0.6898 -0.3384 -0.0326
  466MOL0     O64173   0.200   6.916  11.101  0.2787 -0.0720  0.7884
  466MOL0     C64174   0.099   6.978  11.165 -0.0787  0.0102 -0.0286
  466MOL0     C64175   0.071   7.108  11.130  0.6406 -1.4328 -1.0382
  466MOL0     C64176  -0.035   7.177  11.184  0.5052  0.5679  0.4760
  466MOL0     C64177  -0.115   7.112  11.288 -0.1116 -1.0544  0.1898
  466MOL0     O64178  -0.226   7.158  11.354 -0.2408 -0.1107  0.0358
  466MOL0     C64179  -0.251   7.298  11.333  0.0460  0.2448 -0.3176
  466MOL0     C64180  -0.371   7.348  11.412 -0.2047  0.9287  0.6811
  466MOL0     C64181  -0.356   7.502  11.440  0.1974 -0.2610 -0.9698
  466MOL0     C64182  -0.462   7.559  11.524 -0.1538 -0.1497  0.2723
  466MOL0     C64183  -0.439   7.711  11.544  0.5563  0.4961 -0.5200
  466MOL0     C64184  -0.554   7.772  11.622  1.1590  0.2860 -0.4781
  466MOL0     C64185  -0.525   7.920  11.674  0.7870 -1.2467 -0.1509
  466MOL0     C64186  -0.619   8.032  11.619  0.0599  0.4331 -0.6105
  466MOL0     N64187  -0.648   8.023  11.479  0.0123 -0.5666 -0.9583
  466MOL0     C64188  -0.553   8.028  11.385 -0.3816 -0.0402  0.9777
  466MOL0     C64189  -0.606   7.970  11.273  0.4346  0.0238  0.7330
  466MOL0     C64190  -0.537   7.920  11.156 -0.7629 -0.8530 -0.0641
  466MOL0     C64191  -0.592   7.789  11.085 -0.1582 -0.1380 -0.1474
  466MOL0     C64192  -0.529   7.681  11.154 -0.7273  0.2132  0.2707
  466MOL0     C64193  -0.575   7.537  11.137 -0.6480 -0.1725  0.2079
  466MOL0     O64194  -0.502   7.478  11.027 -0.0204 -0.1612  0.6330
  466MOL0     C64195  -0.577   7.485  10.908  0.5491 -0.7007  0.2210
  466MOL0     C64196  -0.706   7.433  10.894  0.8689 -0.2088 -0.2602
  466MOL0     C64197  -0.774   7.441  10.770 -0.1070 -1.1326  0.2265
  466MOL0     C64198  -0.905   7.374  10.758  0.7211 -0.2085  0.4002
  466MOL0     C64199  -0.714   7.502  10.659 -0.5692 -0.6416  0.0681
  466MOL0     C64200  -0.768   7.501  10.516 -0.1697 -0.4070  0.1674
  466MOL0     O64201  -0.680   7.486  10.418 -0.3479  0.3175  0.4426
  466MOL0     C64202  -0.731   7.476  10.292 -0.3322 -0.2872  0.3544
  466MOL0     C64203  -0.797   7.360  10.251  0.4148  0.6032  0.5312
  466MOL0     C64204  -0.841   7.354  10.114  0.1027  0.2675 -0.9255
  466MOL0     C64205  -0.836   7.459  10.022  0.8064  0.1078 -0.1905
  466MOL0     O64206  -0.876   7.450   9.894 -0.1957  0.2053  0.5346
  466MOL0     C64207  -1.012   7.426   9.861  0.2288  0.2045 -0.5516
  466MOL0     C64208  -1.045   7.525   9.764  0.2391 -0.0639 -0.0402
  466MOL0     C64209  -1.191   7.523   9.721  0.8255  0.6046  0.0491
  466MOL0     C64210  -1.229   7.370   9.697  0.9763  0.7116 -0.7148
  466MOL0     C64211  -1.363   7.335   9.643  0.1500  0.4026 -0.4410
  466MOL0     C64212  -1.377   7.366   9.494 -0.6418 -0.5414  0.1140
  466MOL0     C64213  -1.511   7.312   9.456  0.5420  0.4668 -0.5128
  466MOL0     C64214  -1.529   7.329   9.300  0.0555 -1.0201 -0.2338
  466MOL0    Cl64215  -1.557   7.496   9.237  0.0122  0.3136  0.7708
  466MOL0     C64216  -0.764   7.579  10.069  0.5564  0.1879  0.2792
  466MOL0     C64217  -0.716   7.586  10.204  1.0181  0.3249  0.2761
  466MOL0     O64218  -0.895   7.520  10.495 -0.5914 -0.3221  0.7532
  466MOL0     C64219  -0.588   7.559  10.678  0.9355  0.3562  0.4374
  466MOL0     C64220  -0.520   7.555  10.796  1.0271 -0.3656 -0.5400
  466MOL0     N64221  -0.739   7.945  11.296 -0.1666 -1.2147 -0.9095
  466MOL0     N64222  -0.762   7.980  11.421  0.0873 -0.8572 -0.1848
  466MOL0     C64223  -0.079   6.979  11.324  0.2046  0.0960  0.0967
  466MOL0     C64224   0.020   6.911  11.263 -0.1044 -0.2050 -0.7906
  466MOL0     C64225   0.255   6.792  10.897 -0.6107  0.5872  0.4576
  466MOL0     C64226   0.384   6.786  10.943 -0.0485  0.7042  0.1232
  466MOL0     C64227   0.485   6.733  10.874  0.0908  0.9679 -0.3345
  466MOL0     C64228   0.459   6.690  10.743  0.3471  0.7909 -0.2665
  466MOL0     O64229   0.554   6.618  10.670  1.1582 -0.3087  0.1045
  466MOL0     C64230   0.571   6.481  10.728  0.0591  1.0225 -0.4311
  466MOL0     C64231   0.698   6.408  10.678  0.5198 -0.5655 -0.4960
  466MOL0     C64232   0.719   6.264  10.721  0.6691 -0.2950 -0.0990
  466MOL0     C64233   0.645   6.172  10.617 -0.4801  0.5931 -0.2783
  466MOL0     C64234   0.694   6.037  10.640  0.1513 -0.9408 -0.7116
  466MOL0     C64235   0.717   5.927  10.683 -0.5080  0.9655 -0.0513
  466MOL0     C64236   0.334   6.708  10.687 -0.2933 -0.4181  0.5010
  466MOL0     C64237   0.225   6.754  10.757 -0.5320 -0.6213 -0.1119
  466MOL0     C64238   0.100   6.804  10.682  1.0570 -0.3102 -0.5503
  466MOL0     H64239   0.133   7.165  11.061  1.6323 -1.1766  0.0358
  466MOL0     H64240  -0.063   7.276  11.150 -0.8843 -1.0220 -3.6720
  466MOL0     H64241  -0.284   7.311  11.230  0.8594  1.2835 -0.4656
  466MOL0     H64242  -0.154   7.349  11.333  1.8287 -2.8957  0.4381
  466MOL0     H64243  -0.464   7.337  11.355 -1.3928  0.8274  2.5590
  466MOL0     H64244  -0.376   7.287  11.503  0.3258  1.2087  0.8999
  466MOL0     H64245  -0.261   7.522  11.490 -1.2245  1.2656  1.2855
  466MOL0     H64246  -0.363   7.564  11.350 -1.2826  0.8936 -0.0914
  466MOL0     H64247  -0.548   7.544  11.458  2.1538  0.9882 -3.2932
  466MOL0     H64248  -0.460   7.514  11.624 -0.6031  3.0258  1.8206
  466MOL0     H64249  -0.438   7.756  11.445  0.2213  1.1737 -0.2260
  466MOL0     H64250  -0.347   7.732  11.599  0.6479 -0.0307 -0.4732
  466MOL0     H64251  -0.655   7.762  11.580  1.0861 -3.5391  0.3197
  466MOL0     H64252  -0.561   7.723  11.719 -0.7380 -0.6695 -1.0542
  466MOL0     H64253  -0.421   7.942  11.651  0.6645  0.9991  1.2196
  466MOL0     H64254  -0.531   7.944  11.780  3.5639  1.0703 -0.4206
  466MOL0     H64255  -0.716   8.022  11.670  0.3715  0.3800 -0.0106
  466MOL0     H64256  -0.585   8.135  11.629 -0.5807  0.7414 -1.4843
  466MOL0     H64257  -0.448   8.051  11.402  0.5822 -3.4964  0.4715
  466MOL0     H64258  -0.429   7.909  11.168 -0.4024  2.0829  0.1573
  466MOL0     H64259  -0.543   7.991  11.073  2.4318  2.1071  1.9826
  466MOL0     H64260  -0.701   7.783  11.091 -0.4643  1.6731 -2.4345
  466MOL0     H64261  -0.556   7.789  10.982  0.6250 -1.2772  0.1101
  466MOL0     H64262  -0.421   7.670  11.142 -0.8620 -1.8169  0.5237
  466MOL0     H64263  -0.548   7.701  11.260  0.1046  0.2601  0.4125
  466MOL0     H64264  -0.538   7.485  11.225 -0.8320  4.1923  3.2077
  466MOL0     H64265  -0.683   7.530  11.124 -0.7611  1.7331 -0.2596
  466MOL0     H64266  -0.749   7.383  10.980  2.1981 -1.9567 -0.5550
  466MOL0     H64267  -0.990   7.441  10.772  0.4223 -0.7821  1.4583
  466MOL0     H64268  -0.921   7.291  10.827 -0.6810 -2.4774 -2.4178
  466MOL0     H64269  -0.911   7.340  10.654  2.7940 -1.0591  0.5067
  466MOL0     H64270  -0.802   7.285  10.329  2.0813 -2.1702 -1.8216
  466MOL0     H64271  -0.893   7.266  10.079 -0.9050  0.1131  0.8051
  466MOL0     H64272  -1.021   7.319   9.843  0.3044 -0.0631  0.8632
  466MOL0     H64273  -1.076   7.446   9.948 -0.3080 -2.3544 -0.2830
  466MOL0     H64274  -1.024   7.626   9.801 -1.8932 -0.1260  1.4587
  466MOL0     H64275  -0.991   7.494   9.674  1.5385 -1.0096  1.0282
  466MOL0     H64276  -1.210   7.585   9.634 -2.3494  1.4780  1.2378
  466MOL0     H64277  -1.252   7.556   9.805  1.0911 -2.7006  1.7071
  466MOL0     H64278  -1.235   7.318   9.793 -1.9318 -0.1095 -1.2515
  466MOL0     H64279  -1.158   7.320   9.630  0.5543  2.5215 -2.6066
  466MOL0     H64280  -1.387   7.231   9.667  2.6352  0.2692  2.0549
  466MOL0     H64281  -1.433   7.387   9.709 -0.0408  1.2239 -1.2681
  466MOL0     H64282  -1.286   7.328   9.447  1.6523  0.6212  3.2065
  466MOL0     H64283  -1.379   7.475   9.482 -0.6356 -0.2072  2.5440
  466MOL0     H64284  -1.590   7.356   9.517 -1.1158 -2.0753 -0.6639
  466MOL0     H64285  -1.498   7.205   9.474  1.9889  0.5037 -1.1855
  466MOL0     H64286  -1.607   7.261   9.264 -0.6184 -2.9665  4.1922
  466MOL0     H64287  -1.443   7.286   9.248  0.2353  0.0868 -0.8789
  466MOL0     H64288  -0.745   7.656   9.996  0.0820 -1.9912 -2.3192
  466MOL0     H64289  -0.667   7.677  10.238 -3.8391  2.3260  2.7772
  466MOL0     H64290  -0.536   7.625  10.609  1.5498 -1.2326 -0.6898
  466MOL0     H64291  -0.425   7.607  10.808  1.9314 -1.6748 -1.6884
  466MOL0     H64292  -0.141   6.930  11.398 -0.9788  2.9060  1.0880
  466MOL0     H64293   0.037   6.808  11.291 -4.1184 -0.9616 -0.5722
  466MOL0     H64294   0.412   6.829  11.039  0.2560  2.7898 -0.8337
  466MOL0     H64295   0.582   6.739  10.923 -1.2297  2.7614  2.3514
  466MOL0     H64296   0.573   6.483  10.837  0.2271 -0.1767 -0.3976
  466MOL0     H64297   0.485   6.418  10.704  0.4428  0.2536  0.1672
  466MOL0     H64298   0.787   6.464  10.710 -0.4924  2.3563 -2.3702
  466MOL0     H64299   0.711   6.422  10.571  0.2710 -0.0947 -0.4651
  466MOL0     H64300   0.826   6.243  10.728  0.9823  0.2942 -2.3723
  466MOL0     H64301   0.677   6.244  10.821  0.5149  3.6326  0.7922
  466MOL0     H64302   0.668   6.200  10.514 -2.3084 -1.2035 -1.2465
  466MOL0     H64303   0.537   6.164  10.635 -0.1656 -0.4176  1.4110
  466MOL0     H64304   0.752   5.834  10.723  0.7150  1.7599  0.8183
  466MOL0     H64305   0.309   6.685  10.584 -0.1765 -0.3258  0.4508
  466MOL0     H64306   0.003   6.774  10.723  0.3330  0.6975 -1.4460
  466MOL0     H64307   0.094   6.912  10.662  0.7040 -0.7323 -3.0856
  466MOL0     H64308   0.105   6.771  10.578  4.4052 -2.4323  0.1290
  467MOL0     O64309   7.739   8.859   3.234 -0.3620 -0.6252 -1.0156
  467MOL0     C64310   7.682   8.904   3.138  0.0829  0.3859  0.1504
  467MOL0     O64311   7.560   8.952   3.134 -0.4459 -0.3111 -0.0499
  467MOL0     C64312   7.489   8.967   3.245 -0.2563  0.6067  0.5220
  467MOL0     C64313   7.488   9.082   3.317  0.1971 -1.3499 -0.4694
  467MOL0     C64314   7.428   9.094   3.440  0.4869 -0.2675 -0.7784
  467MOL0     C64315   7.340   8.985   3.480 -0.0111 -0.2083 -0.5549
  467MOL0     O64316   7.260   8.982   3.588  0.5337  0.5096  0.0693
  467MOL0     C64317   7.304   9.038   3.712 -0.1892 -0.3742 -0.3210
  467MOL0     C64318   7.180   9.064   3.800 -0.2036  0.3172  0.4554
  467MOL0     C64319   7.103   8.927   3.830  0.1577 -0.2885  0.1448
  467MOL0     C64320   7.008   8.952   3.951  0.2773  0.1965  1.3332
  467MOL0     C64321   7.092   8.944   4.083 -0.2039 -0.3839 -1.2943
  467MOL0     C64322   7.022   9.013   4.196  0.0665 -0.3773  0.2464
  467MOL0     C64323   7.096   9.010   4.326 -0.5113  0.5177 -0.6360
  467MOL0     C64324   7.213   9.114   4.334 -0.0477 -0.0756 -0.0641
  467MOL0     N64325   7.244   9.144   4.476 -1.1378  0.4051  1.0343
  467MOL0     C64326   7.344   9.086   4.547 -0.0071  1.3440 -0.8157
  467MOL0     C64327   7.321   9.118   4.674  0.1524 -0.1105 -0.0585
  467MOL0     C64328   7.409   9.086   4.787 -0.4757 -0.3582 -0.5368
  467MOL0     C64329   7.533   9.170   4.800  0.4518 -0.0831 -0.3192
  467MOL0     C64330   7.641   9.139   4.691 -0.2274 -0.4522  0.3537
  467MOL0     C64331   7.785   9.174   4.734  1.7279  0.1080  0.1588
  467MOL0     O64332   7.873   9.155   4.628  0.4068  1.0682 -0.6345
  467MOL0     C64333   7.898   9.021   4.588  0.3723 -1.6060 -0.1900
  467MOL0     C64334   7.916   8.918   4.675 -0.2413  0.7341 -0.2795
  467MOL0     C64335   7.932   8.784   4.635  0.6961  0.6324 -0.2233
  467MOL0     C64336   7.966   8.685   4.742 -0.3293  0.7915 -0.4064
  467MOL0     C64337   7.919   8.748   4.497 -0.8763  0.5720 -0.5696
  467MOL0     C64338   7.938   8.606   4.452 -0.0923 -0.5493 -0.8953
  467MOL0     O64339   7.878   8.509   4.518  0.5203 -0.2967 -0.0405
  467MOL0     C64340   7.877   8.384   4.463  0.8111  1.0048  1.0298
  467MOL0     C64341   7.749   8.334   4.418 -0.2601  0.1807  0.1360
  467MOL0     C64342   7.755   8.217   4.339  0.5095  0.2198 -0.1124
  467MOL0     C64343   7.866   8.137   4.315  0.4202 -0.4157  0.4535
  467MOL0     O64344   7.865   8.023   4.232 -0.6991  0.0682  0.3252
  467MOL0     C64345   7.795   8.029   4.106 -0.2133 -0.0650 -0.2730
  467MOL0     C64346   7.728   7.893   4.093 -0.7152 -0.0868 -0.3035
  467MOL0     C64347   7.617   7.878   3.995 -0.5474 -1.2906 -0.4056
  467MOL0     C64348   7.486   7.934   4.060 -1.3608  0.5429  0.1641
  467MOL0     C64349   7.358   7.912   3.980 -0.2548  0.0250 -0.0808
  467MOL0     C64350   7.367   7.971   3.840 -0.0411  0.3640  0.0099
  467MOL0     C64351   7.231   7.946   3.774  0.5765 -0.0732  0.6298
  467MOL0     C64352   7.229   7.805   3.709 -0.2163 -0.2887 -1.0494
  467MOL0    Cl64353   7.363   7.756   3.591  0.4435 -0.1403  0.2263
  467MOL0     C64354   7.991   8.183   4.373 -0.4946 -0.7498  0.9808
  467MOL0     C64355   7.990   8.305   4.444  0.2724 -0.4708  0.3811
  467MOL0     O64356   7.991   8.595   4.339 -0.9279  0.4804 -0.6193
  467MOL0     C64357   7.901   8.853   4.410 -0.1408  0.4175  0.7364
  467MOL0     C64358   7.889   8.982   4.453  0.5184 -0.0849 -0.5402
  467MOL0     N64359   7.210   9.192   4.679 -0.5037 -0.4070 -0.9701
  467MOL0     N64360   7.164   9.209   4.561 -0.2199  0.1923  0.1461
  467MOL0     C64361   7.335   8.869   3.408  0.1989 -0.2473  0.1413
  467MOL0     C64362   7.414   8.858   3.293  0.0287 -0.0335 -0.5127
  467MOL0     C64363   7.748   8.875   3.006 -1.3815 -0.1720 -0.3157
  467MOL0     C64364   7.859   8.788   3.002 -0.1873 -0.1614  0.4350
  467MOL0     C64365   7.940   8.765   2.888  0.2035 -0.3345 -0.8890
  467MOL0     C64366   7.920   8.850   2.789  0.0256 -0.0049 -0.1252
  467MOL0     O64367   8.017   8.854   2.694  0.6677 -0.3660 -0.6163
  467MOL0     C64368   8.059   8.989   2.667 -0.2204  0.4882 -0.7955
  467MOL0     C64369   8.172   8.977   2.565 -0.5304 -0.2821  1.4822
  467MOL0     C64370   8.283   8.872   2.612 -0.2916  0.0006 -0.6379
  467MOL0     C64371   8.416   8.908   2.539  0.4615 -0.0232 -0.1743
  467MOL0     C64372   8.515   8.805   2.549  0.5262 -0.3287  0.3984
  467MOL0     C64373   8.604   8.722   2.532 -0.6316 -0.1099  0.0832
  467MOL0     C64374   7.805   8.932   2.779 -0.2786 -0.3331  0.3999
  467MOL0     C64375   7.725   8.954   2.886  0.8623 -0.3605  0.2023
  467MOL0     C64376   7.620   9.070   2.880  0.1490  0.5642  0.8947
  467MOL0     H64377   7.546   9.168   3.287  0.3910 -1.3579 -0.1291
  467MOL0     H64378   7.428   9.190   3.492 -1.2760 -0.0538 -1.0961
  467MOL0     H64379   7.345   9.138   3.691  0.5669 -0.4256  0.8330
  467MOL0     H64380   7.382   8.980   3.762  0.2302  1.8661  1.8161
  467MOL0     H64381   7.198   9.118   3.894  2.0604  1.5194 -0.5798
  467MOL0     H64382   7.114   9.138   3.754  1.7024  1.9063  0.1064
  467MOL0     H64383   7.035   8.893   3.752  0.2588 -1.9631  0.7302
  467MOL0     H64384   7.169   8.841   3.846  3.9118  1.4477 -4.0496
  467MOL0     H64385   6.945   9.040   3.936 -1.5402 -1.3533 -0.8996
  467MOL0     H64386   6.934   8.872   3.952  1.2835 -0.9573 -2.2084
  467MOL0     H64387   7.196   8.979   4.086 -0.1873 -0.4500 -1.0200
  467MOL0     H64388   7.105   8.839   4.110  3.0702  0.2529  0.1890
  467MOL0     H64389   6.989   9.114   4.169 -3.8464 -1.2893  0.8666
  467MOL0     H64390   6.926   8.960   4.205 -1.7752  2.8409  1.3672
  467MOL0     H64391   7.144   8.914   4.348 -0.3236  0.4420 -1.3391
  467MOL0     H64392   7.029   9.006   4.412  1.7936 -6.5372  1.5230
  467MOL0     H64393   7.296   9.084   4.269 -0.6372  0.7550 -1.2404
  467MOL0     H64394   7.182   9.206   4.283 -2.3725 -0.9198 -0.3129
  467MOL0     H64395   7.429   9.027   4.514 -1.3771 -1.9353  1.0298
  467MOL0     H64396   7.434   8.979   4.788  0.1130 -0.2296  1.3726
  467MOL0     H64397   7.352   9.108   4.878  2.6298  1.3071  1.1612
  467MOL0     H64398   7.503   9.274   4.785 -1.5637 -0.3992  1.0327
  467MOL0     H64399   7.578   9.153   4.898  0.8340  2.6078  0.0366
  467MOL0     H64400   7.639   9.033   4.665  1.2223 -0.4872  0.3325
  467MOL0     H64401   7.613   9.198   4.604 -3.2923  1.2353  2.2848
  467MOL0     H64402   7.794   9.272   4.780 -0.2748 -1.1505  3.6304
  467MOL0     H64403   7.797   9.112   4.824  1.5902  0.4397  0.4071
  467MOL0     H64404   7.928   8.940   4.780 -0.5204 -0.3942  0.0031
  467MOL0     H64405   8.036   8.720   4.818  0.1056 -0.1077 -0.3816
  467MOL0     H64406   8.008   8.593   4.701 -0.3177 -0.0248  1.3876
  467MOL0     H64407   7.877   8.649   4.795  0.0547 -0.6816 -0.7255
  467MOL0     H64408   7.670   8.409   4.425  2.1526  3.1970 -1.8286
  467MOL0     H64409   7.663   8.177   4.295  0.7020  2.2743 -2.6196
  467MOL0     H64410   7.721   8.109   4.107  2.5830  2.8165 -2.3033
  467MOL0     H64411   7.866   8.048   4.024  2.1063  0.4860  1.7476
  467MOL0     H64412   7.808   7.828   4.054 -0.1826  0.7307 -0.5900
  467MOL0     H64413   7.699   7.859   4.193 -1.1050 -0.4831 -0.5443
  467MOL0     H64414   7.603   7.773   3.967 -2.3736 -1.3582  0.6178
  467MOL0     H64415   7.641   7.937   3.905  0.2640  0.7243  1.0629
  467MOL0     H64416   7.503   8.041   4.075  0.2241 -0.0990  4.1863
  467MOL0     H64417   7.465   7.894   4.159 -0.2146  2.7145  1.3400
  467MOL0     H64418   7.346   7.804   3.973 -0.9391  0.0127  1.1248
  467MOL0     H64419   7.271   7.949   4.034  0.9539 -0.3885  2.2615
  467MOL0     H64420   7.446   7.926   3.778  0.0194 -2.6709  2.0398
  467MOL0     H64421   7.395   8.076   3.846 -3.1640  1.2270  1.9332
  467MOL0     H64422   7.219   8.019   3.693 -2.8130  3.4466  3.8877
  467MOL0     H64423   7.145   7.958   3.839  0.3000 -3.8295  1.1554
  467MOL0     H64424   7.130   7.802   3.661 -0.5234 -2.2310 -0.3803
  467MOL0     H64425   7.225   7.718   3.775  2.8333 -1.7652 -2.6209
  467MOL0     H64426   8.084   8.131   4.354 -0.0865  0.9914 -2.5538
  467MOL0     H64427   8.085   8.345   4.478 -0.1275 -1.0301  2.2864
  467MOL0     H64428   7.898   8.847   4.302  1.0167  1.2110  0.6524
  467MOL0     H64429   7.880   9.062   4.380  0.6582  0.3523 -0.0822
  467MOL0     H64430   7.277   8.783   3.441 -1.2986  1.2318  1.5699
  467MOL0     H64431   7.416   8.766   3.237 -1.7535 -0.0131 -0.6620
  467MOL0     H64432   7.888   8.734   3.092 -1.1710  0.4937  1.1687
  467MOL0     H64433   8.036   8.714   2.895  0.8244  0.5752 -2.2311
  467MOL0     H64434   7.980   9.060   2.644 -2.0854 -2.1924 -3.4622
  467MOL0     H64435   8.112   9.019   2.758 -2.3660  0.3008  0.5659
  467MOL0     H64436   8.225   9.072   2.574 -2.6598  1.2192 -0.6825
  467MOL0     H64437   8.147   8.945   2.464  1.6199  0.1868  0.7411
  467MOL0     H64438   8.294   8.879   2.721 -0.2831  0.9945 -0.6932
  467MOL0     H64439   8.243   8.772   2.595  1.3265 -0.9928  1.0341
  467MOL0     H64440   8.457   8.999   2.584  0.1343  0.6889 -1.2603
  467MOL0     H64441   8.391   8.925   2.434 -1.1041 -0.2648  0.1375
  467MOL0     H64442   8.680   8.647   2.519  2.3969  2.2900  2.4769
  467MOL0     H64443   7.785   8.980   2.684 -3.4995  2.7965  2.3992
  467MOL0     H64444   7.644   9.155   2.944  1.5572  1.0076 -0.1782
  467MOL0     H64445   7.610   9.099   2.775 -0.3997 -1.1982  0.4268
  467MOL0     H64446   7.519   9.036   2.908 -1.1387  3.0278 -0.3906
  468MOL0     O64447  10.084   5.201  10.375 -0.9116 -0.2643  0.0899
  468MOL0     C64448  10.094   5.303  10.444  0.2204  0.8279  1.1601
  468MOL0     O64449  10.000   5.336  10.535  0.4469  0.2937 -0.6445
  468MOL0     C64450   9.907   5.246  10.572 -0.2510  0.0012 -0.1066
  468MOL0     C64451   9.813   5.209  10.476  0.2890  0.6876 -0.5110
  468MOL0     C64452   9.716   5.117  10.509  0.2177 -0.0604 -0.3431
  468MOL0     C64453   9.705   5.068  10.641  0.9110 -0.1794 -1.1240
  468MOL0     O64454   9.596   4.989  10.663 -0.0990  0.6742 -0.2818
  468MOL0     C64455   9.547   4.955  10.799  0.3698  0.3721 -0.4508
  468MOL0     C64456   9.570   4.817  10.849  0.2909  1.0447  0.0557
  468MOL0     C64457   9.519   4.710  10.756  0.6384  0.2557 -0.8125
  468MOL0     C64458   9.588   4.580  10.798 -0.4985 -0.5633 -0.0395
  468MOL0     C64459   9.526   4.463  10.736  0.7557  0.1349  0.0421
  468MOL0     C64460   9.613   4.335  10.766 -0.3034  0.3061  0.4873
  468MOL0     C64461   9.517   4.209  10.763 -0.7153  0.1314  0.2652
  468MOL0     C64462   9.522   4.133  10.633 -0.1286 -0.7093  0.3411
  468MOL0     N64463   9.491   4.229  10.521  0.0647 -0.2871 -0.3844
  468MOL0     C64464   9.367   4.274  10.487 -0.0463 -0.7745  0.1231
  468MOL0     C64465   9.393   4.344  10.373  0.7182 -0.3723  1.1377
  468MOL0     C64466   9.292   4.426  10.310 -0.6484  0.1666  0.5392
  468MOL0     C64467   9.218   4.530  10.394 -0.0267  0.1477 -0.1547
  468MOL0     C64468   9.307   4.616  10.491  1.3822 -0.3365 -0.7695
  468MOL0     C64469   9.220   4.715  10.579  0.5673  0.0009  1.2158
  468MOL0     O64470   9.164   4.802  10.484 -0.5087 -0.4091  0.0697
  468MOL0     C64471   9.227   4.896  10.403  0.1664  0.5871 -0.6274
  468MOL0     C64472   9.138   4.998  10.372  0.5241  0.7355 -0.1719
  468MOL0     C64473   9.173   5.106  10.285 -1.6460 -0.2259 -0.4042
  468MOL0     C64474   9.064   5.212  10.269 -1.2791  0.3582  0.4735
  468MOL0     C64475   9.305   5.111  10.237  0.0857  0.6192  0.9763
  468MOL0     C64476   9.367   5.219  10.156  0.2341 -0.4916 -0.4019
  468MOL0     O64477   9.283   5.314  10.113 -0.4081  0.6584 -0.2779
  468MOL0     C64478   9.334   5.432  10.079 -0.3129  0.2569  0.8412
  468MOL0     C64479   9.313   5.545  10.164 -0.0716  0.4655  0.2289
  468MOL0     C64480   9.337   5.676  10.115  0.5960  0.8326  0.5363
  468MOL0     C64481   9.415   5.684   9.998 -0.6838 -0.1654 -0.3112
  468MOL0     O64482   9.465   5.802   9.943 -0.3506 -0.2830 -1.0956
  468MOL0     C64483   9.439   5.920  10.008 -0.6366 -0.6546 -0.1362
  468MOL0     C64484   9.303   5.974   9.965 -0.3271 -0.5001  0.9284
  468MOL0     C64485   9.283   6.126  10.003  0.2493  0.5960 -0.4295
  468MOL0     C64486   9.266   6.139  10.156 -1.3017  0.6390  1.4361
  468MOL0     C64487   9.217   6.276  10.189 -0.3465  0.4326  0.6897
  468MOL0     C64488   9.216   6.311  10.342  0.5720  0.3601 -0.4633
  468MOL0     C64489   9.246   6.451  10.388  0.5496 -0.2917 -0.2889
  468MOL0     C64490   9.125   6.544  10.380  0.3053 -0.1894 -0.6375
  468MOL0    Cl64491   9.176   6.727  10.401  0.1650  0.0248  0.0122
  468MOL0     C64492   9.448   5.573   9.929 -0.1421 -0.1017  0.4442
  468MOL0     C64493   9.400   5.443   9.959 -0.0671 -0.4604 -0.1553
  468MOL0     O64494   9.487   5.211  10.126  0.2809  0.0664  0.1427
  468MOL0     C64495   9.390   4.999  10.268  0.1026 -0.0539 -1.1170
  468MOL0     C64496   9.360   4.912  10.369 -0.2322  0.1772  0.3696
  468MOL0     N64497   9.520   4.333  10.338  0.6914  0.0601 -0.4242
  468MOL0     N64498   9.577   4.267  10.428  0.4630 -0.4065 -1.0915
  468MOL0     C64499   9.799   5.098  10.745  0.3113  0.1016 -0.4167
  468MOL0     C64500   9.906   5.185  10.703  0.5666 -0.4454  0.7140
  468MOL0     C64501  10.204   5.401  10.422  0.4989 -1.5375  0.1111
  468MOL0     C64502  10.190   5.525  10.502 -0.2285 -0.7963 -0.1637
  468MOL0     C64503  10.296   5.618  10.492  0.5379  0.4607 -0.6896
  468MOL0     C64504  10.405   5.602  10.402  0.1523 -0.1425 -0.4160
  468MOL0     O64505  10.494   5.705  10.396 -0.6874  0.3001  0.9077
  468MOL0     C64506  10.632   5.686  10.370  0.8648 -0.1783 -0.6581
  468MOL0     C64507  10.691   5.794  10.289 -0.9651  0.0028 -0.5837
  468MOL0     C64508  10.662   5.802  10.134 -0.0725 -0.6073  0.8304
  468MOL0     C64509  10.737   5.903  10.056  0.6366 -0.4341  0.4805
  468MOL0     C64510  10.858   5.842  10.004  0.3007 -0.8525  0.1563
  468MOL0     C64511  10.956   5.772   9.967 -0.8659  0.7660 -0.0664
  468MOL0     C64512  10.411   5.495  10.314  0.7624 -0.6288  0.2941
  468MOL0     C64513  10.315   5.393  10.325  0.2286 -0.0567 -1.4798
  468MOL0     C64514  10.336   5.276  10.231 -0.7704 -0.0588 -1.1366
  468MOL0     H64515   9.812   5.243  10.373  0.0287 -0.3855 -0.8830
  468MOL0     H64516   9.651   5.084  10.428 -0.6503  0.5771  0.0764
  468MOL0     H64517   9.439   4.966  10.796  0.3363  0.9656  1.6016
  468MOL0     H64518   9.570   5.026  10.879  0.0403 -3.4918  3.4456
  468MOL0     H64519   9.676   4.801  10.871 -0.2289 -0.2628  1.8635
  468MOL0     H64520   9.519   4.812  10.946  3.9140  2.7730  2.3073
  468MOL0     H64521   9.411   4.704  10.775  0.6608  0.2154 -0.6949
  468MOL0     H64522   9.524   4.725  10.648 -1.4801  0.9859 -0.8655
  468MOL0     H64523   9.694   4.590  10.774  0.2179  0.8647  3.2106
  468MOL0     H64524   9.575   4.563  10.906  0.0863  2.0702  0.4955
  468MOL0     H64525   9.518   4.477  10.628 -0.7731  0.6033  0.1954
  468MOL0     H64526   9.422   4.462  10.767  0.1407  4.1305 -1.2762
  468MOL0     H64527   9.700   4.324  10.701 -1.2110  0.5655 -0.8064
  468MOL0     H64528   9.647   4.340  10.870  0.3363 -1.5869  0.4090
  468MOL0     H64529   9.414   4.246  10.768 -1.4524 -1.0245 -3.2144
  468MOL0     H64530   9.542   4.141  10.845  0.9570  0.2956 -0.0611
  468MOL0     H64531   9.624   4.092  10.630  0.0005 -0.6677  2.6165
  468MOL0     H64532   9.456   4.046  10.627  0.2161 -1.1439  2.2689
  468MOL0     H64533   9.276   4.287  10.544  1.5731  4.5419  2.1594
  468MOL0     H64534   9.220   4.357  10.266 -0.3630  1.8937 -3.0174
  468MOL0     H64535   9.346   4.473  10.227 -0.1422 -0.9553  0.2118
  468MOL0     H64536   9.177   4.606  10.328 -4.3064  0.0790  2.0661
  468MOL0     H64537   9.132   4.480  10.439 -0.4815  0.0517 -1.1161
  468MOL0     H64538   9.332   4.540  10.565 -2.6407 -0.8031  0.3539
  468MOL0     H64539   9.397   4.658  10.445  2.7446 -1.0955  1.0794
  468MOL0     H64540   9.139   4.663  10.632  1.4738 -0.2423  2.3865
  468MOL0     H64541   9.276   4.773  10.652 -0.4882 -0.0183  2.0658
  468MOL0     H64542   9.037   5.006  10.410 -0.1477 -1.5510 -1.2951
  468MOL0     H64543   8.968   5.191  10.317 -1.3313 -0.4763  0.0165
  468MOL0     H64544   9.038   5.227  10.164 -1.9186 -0.7217  0.4678
  468MOL0     H64545   9.116   5.300  10.308 -1.0128  0.5421 -0.2697
  468MOL0     H64546   9.255   5.521  10.253  0.8909  1.6040  1.1894
  468MOL0     H64547   9.284   5.755  10.167 -0.8846 -1.0091  1.9608
  468MOL0     H64548   9.435   5.904  10.116 -0.0502  0.1794  0.0239
  468MOL0     H64549   9.520   5.993   9.995 -0.2747 -0.5861  2.1879
  468MOL0     H64550   9.295   5.966   9.856  2.2568 -3.3179  0.8032
  468MOL0     H64551   9.228   5.899   9.993 -0.4979 -3.6831 -5.9069
  468MOL0     H64552   9.189   6.157   9.956  0.0172 -1.3496 -1.3378
  468MOL0     H64553   9.364   6.195   9.978 -0.6596  2.6058  1.8314
  468MOL0     H64554   9.357   6.116  10.213 -0.5644  0.3599  0.1699
  468MOL0     H64555   9.190   6.064  10.183  0.4064 -2.6283 -1.9460
  468MOL0     H64556   9.270   6.351  10.128  0.6987 -1.0155 -0.2452
  468MOL0     H64557   9.111   6.278  10.160  0.4291 -0.6197 -2.7021
  468MOL0     H64558   9.287   6.239  10.385 -0.8901  0.0944  1.6549
  468MOL0     H64559   9.113   6.287  10.371 -0.7515 -3.3680 -6.4023
  468MOL0     H64560   9.322   6.489  10.320  0.1299 -0.4867 -0.8722
  468MOL0     H64561   9.286   6.442  10.489 -0.3036 -1.6814 -0.0424
  468MOL0     H64562   9.052   6.520  10.458 -0.1530  0.1447 -0.9582
  468MOL0     H64563   9.071   6.530  10.286  1.4101 -4.4728 -0.8091
  468MOL0     H64564   9.502   5.600   9.839 -1.2338  0.7235  0.0099
  468MOL0     H64565   9.418   5.370   9.881  0.1144  0.0705 -0.6174
  468MOL0     H64566   9.496   4.997  10.243  0.9272 -0.5718  1.9634
  468MOL0     H64567   9.449   4.858  10.399 -0.5721  0.3272  1.7024
  468MOL0     H64568   9.795   5.059  10.846 -0.3974  1.1796 -0.0053
  468MOL0     H64569   9.984   5.221  10.770  2.3441  0.8405 -1.8646
  468MOL0     H64570  10.114   5.539  10.578  0.4037  0.5329  0.2544
  468MOL0     H64571  10.289   5.705  10.556 -0.3540 -1.2908  1.7587
  468MOL0     H64572  10.689   5.686  10.464 -3.1961 -0.7845  2.0731
  468MOL0     H64573  10.653   5.595  10.314  2.2279  1.4106 -2.9035
  468MOL0     H64574  10.799   5.778  10.291 -0.9119  0.3615  0.7926
  468MOL0     H64575  10.677   5.895  10.330  0.1658 -0.0123 -0.1224
  468MOL0     H64576  10.678   5.700  10.098  1.9475  0.0485 -0.2501
  468MOL0     H64577  10.555   5.824  10.132  0.0502  0.0151  0.8602
  468MOL0     H64578  10.761   5.984  10.125  0.0494  1.0153 -0.9534
  468MOL0     H64579  10.679   5.949   9.975  2.0643 -0.5795 -0.6590
  468MOL0     H64580  11.034   5.702   9.944 -0.7904  1.4899 -2.2285
  468MOL0     H64581  10.495   5.481  10.248  0.5079 -1.2953  0.1121
  468MOL0     H64582  10.396   5.296  10.143 -0.2893  0.1240 -0.7694
  468MOL0     H64583  10.392   5.195  10.279 -0.2443  0.8700 -0.1355
  468MOL0     H64584  10.239   5.249  10.187 -0.6360 -0.8247 -0.9803
  469MOL0     O64585  10.072   5.199   8.419  0.1959 -0.1038  0.3322
  469MOL0     C64586   9.991   5.215   8.509 -0.1896  0.0085  0.5648
  469MOL0     O64587   9.903   5.325   8.519  0.3163 -0.1419 -0.5487
  469MOL0     C64588   9.898   5.432   8.431 -0.2966 -0.5586 -0.1679
  469MOL0     C64589   9.902   5.415   8.292 -0.1822 -0.7632  0.3292
  469MOL0     C64590   9.876   5.529   8.216 -0.4393 -0.9187  0.5147
  469MOL0     C64591   9.837   5.654   8.271  0.8244 -0.6343 -0.1196
  469MOL0     O64592   9.800   5.770   8.211  0.0168  1.1474  0.6740
  469MOL0     C64593   9.804   5.779   8.068  0.1725 -0.2184  0.1071
  469MOL0     C64594   9.688   5.704   8.011  0.1979 -1.0609  0.5417
  469MOL0     C64595   9.705   5.708   7.859  0.3918 -0.4739 -0.5757
  469MOL0     C64596   9.589   5.631   7.797  0.2009 -0.1388  0.4985
  469MOL0     C64597   9.597   5.631   7.642 -0.8042  0.0180  1.4985
  469MOL0     C64598   9.503   5.540   7.564  0.5806 -0.4374  0.5636
  469MOL0     C64599   9.517   5.396   7.607  0.4685 -0.2695  1.0860
  469MOL0     C64600   9.457   5.279   7.513  1.5455 -0.9962 -0.1695
  469MOL0     N64601   9.505   5.142   7.545  0.0403  0.1736  0.0275
  469MOL0     C64602   9.556   5.095   7.660 -1.5150 -0.3609  0.1287
  469MOL0     C64603   9.586   4.958   7.639  0.0467  0.3969  0.1279
  469MOL0     C64604   9.645   4.879   7.757  0.5113  0.6716  0.6236
  469MOL0     C64605   9.537   4.822   7.848 -1.0826  0.2090  0.1443
  469MOL0     C64606   9.602   4.796   7.985 -0.0412 -0.8632  0.9281
  469MOL0     C64607   9.505   4.748   8.087  0.9061  1.3355 -0.1346
  469MOL0     O64608   9.450   4.616   8.049 -0.0763  0.1742 -1.0559
  469MOL0     C64609   9.519   4.508   8.098 -0.5381 -0.4003 -0.9818
  469MOL0     C64610   9.649   4.507   8.154 -0.4594 -0.1517  0.1418
  469MOL0     C64611   9.711   4.395   8.206 -1.1439 -0.0642 -0.3758
  469MOL0     C64612   9.851   4.411   8.269 -0.7277  0.2538 -0.7782
  469MOL0     C64613   9.644   4.276   8.219 -0.7258  0.1802 -0.0866
  469MOL0     C64614   9.704   4.142   8.265  0.4183 -0.0247  0.4923
  469MOL0     O64615   9.670   4.018   8.202 -0.7122 -0.3397 -0.1081
  469MOL0     C64616   9.756   3.912   8.200  0.7393 -0.9670  0.6136
  469MOL0     C64617   9.695   3.789   8.167 -0.3516 -0.0406 -0.3264
  469MOL0     C64618   9.770   3.670   8.148 -0.5271  0.1410 -0.6641
  469MOL0     C64619   9.907   3.671   8.198  0.4996  0.1010  0.1917
  469MOL0     O64620   9.981   3.562   8.193  1.0394 -0.6664 -0.1974
  469MOL0     C64621  10.040   3.510   8.304  0.3618 -0.5337  0.8679
  469MOL0     C64622  10.037   3.359   8.282 -0.2167  0.2967 -0.6707
  469MOL0     C64623  10.071   3.281   8.407 -0.0455  0.5551  0.2385
  469MOL0     C64624  10.216   3.252   8.410  0.1488  0.4763 -0.4517
  469MOL0     C64625  10.261   3.152   8.302 -0.7168 -0.8052  0.4003
  469MOL0     C64626  10.384   3.086   8.371  0.8932  0.1683 -0.2166
  469MOL0     C64627  10.349   2.966   8.459  0.2440  0.4476  0.5934
  469MOL0     C64628  10.298   2.847   8.376  0.8285 -0.0667 -0.2518
  469MOL0    Cl64629  10.318   2.711   8.480  0.4912  0.6179  0.0941
  469MOL0     C64630   9.961   3.794   8.237 -0.3130 -0.1147  0.8330
  469MOL0     C64631   9.894   3.916   8.226  0.0751 -0.1314 -0.5687
  469MOL0     O64632   9.756   4.149   8.374  0.1820 -0.1409  0.4804
  469MOL0     C64633   9.513   4.274   8.171  0.1416  0.0135 -0.2746
  469MOL0     C64634   9.451   4.388   8.115  0.7105  1.2275  0.3031
  469MOL0     N64635   9.554   4.919   7.508 -0.3035 -0.0246 -0.9510
  469MOL0     N64636   9.520   5.037   7.451  0.1417 -0.6626 -0.6381
  469MOL0     C64637   9.821   5.659   8.417 -0.4510 -0.8765  0.8108
  469MOL0     C64638   9.849   5.548   8.493 -0.0313 -0.4133  0.7671
  469MOL0     C64639   9.968   5.103   8.604 -0.9078  0.1532 -0.5330
  469MOL0     C64640   9.839   5.091   8.650  0.0870  0.2374  0.3017
  469MOL0     C64641   9.799   4.973   8.711 -0.1916  0.8060 -0.5912
  469MOL0     C64642   9.884   4.873   8.744 -0.2403 -1.0417 -0.5049
  469MOL0     O64643   9.829   4.776   8.823 -0.1688  0.2717 -0.0614
  469MOL0     C64644   9.888   4.643   8.803 -0.7130 -0.3308 -0.3643
  469MOL0     C64645   9.823   4.580   8.676 -0.0509  0.0947  0.2136
  469MOL0     C64646   9.672   4.563   8.691  0.7530 -0.5985  0.5054
  469MOL0     C64647   9.601   4.533   8.559  0.1550  0.7492  0.5859
  469MOL0     C64648   9.531   4.657   8.513 -0.7344  0.9099 -0.0320
  469MOL0     C64649   9.487   4.757   8.471 -0.1468 -0.5956  0.4223
  469MOL0     C64650  10.024   4.899   8.720 -0.0406  0.3691  0.4777
  469MOL0     C64651  10.067   5.003   8.641  0.3834 -1.0703 -0.0587
  469MOL0     C64652  10.210   4.992   8.592 -0.0248  0.3215 -0.2998
  469MOL0     H64653   9.938   5.322   8.248 -3.1033 -1.2853 -1.2081
  469MOL0     H64654   9.878   5.517   8.108 -1.6067  4.2657 -0.3675
  469MOL0     H64655   9.904   5.744   8.042  0.4296  0.0458  0.7231
  469MOL0     H64656   9.783   5.882   8.038 -1.5712 -1.1874 -2.3223
  469MOL0     H64657   9.679   5.602   8.051  0.0728 -0.4771  2.0561
  469MOL0     H64658   9.599   5.760   8.040 -0.5494 -2.3872  0.9220
  469MOL0     H64659   9.696   5.812   7.828  3.0850  0.6830  2.0234
  469MOL0     H64660   9.804   5.686   7.819  1.7452  4.6526 -0.6991
  469MOL0     H64661   9.588   5.526   7.828 -1.6295 -0.8398 -1.6371
  469MOL0     H64662   9.492   5.669   7.832 -0.5263 -1.2958 -0.1862
  469MOL0     H64663   9.698   5.597   7.620 -1.0478  0.3722 -0.2822
  469MOL0     H64664   9.587   5.735   7.609  3.3557  1.3513  3.7196
  469MOL0     H64665   9.399   5.565   7.588  0.3435 -0.3644 -0.4902
  469MOL0     H64666   9.509   5.558   7.456 -1.7892  0.7767  0.5642
  469MOL0     H64667   9.480   5.393   7.710  0.8119 -0.1995  1.2160
  469MOL0     H64668   9.625   5.376   7.607 -0.1158 -4.3221  0.4759
  469MOL0     H64669   9.354   5.286   7.549  1.5248 -0.3478 -0.3414
  469MOL0     H64670   9.464   5.319   7.411  1.6759  0.0261  0.2193
  469MOL0     H64671   9.576   5.150   7.752 -0.6124 -0.5302  0.0397
  469MOL0     H64672   9.704   4.947   7.819  0.2119  0.7723  0.8015
  469MOL0     H64673   9.708   4.798   7.721  0.0562 -0.0912  1.5051
  469MOL0     H64674   9.455   4.893   7.857  0.0332  1.4535  0.7706
  469MOL0     H64675   9.497   4.729   7.806 -1.0967  0.2545  0.0541
  469MOL0     H64676   9.672   4.713   7.969 -1.2890 -2.3717  2.8310
  469MOL0     H64677   9.644   4.889   8.024 -2.7446  0.2661  1.3612
  469MOL0     H64678   9.544   4.739   8.189 -2.8230 -2.6426  1.2703
  469MOL0     H64679   9.417   4.812   8.088 -1.4309 -1.6637  0.9339
  469MOL0     H64680   9.705   4.600   8.153 -0.2097 -0.2422 -2.9660
  469MOL0     H64681   9.876   4.514   8.296 -0.8850 -0.2762  1.6243
  469MOL0     H64682   9.941   4.373   8.219  1.4255  1.1325  2.1055
  469MOL0     H64683   9.853   4.360   8.366  1.9148 -0.6671 -1.2204
  469MOL0     H64684   9.589   3.801   8.148 -1.0289 -2.8013  1.1243
  469MOL0     H64685   9.737   3.576   8.105  3.2828 -1.9991  0.6030
  469MOL0     H64686  10.142   3.546   8.312 -0.0250  0.8046 -0.0122
  469MOL0     H64687   9.984   3.529   8.396 -4.1858 -3.0989 -1.0011
  469MOL0     H64688   9.934   3.333   8.258  0.4157 -2.6592 -0.5986
  469MOL0     H64689  10.097   3.322   8.198  0.0311  0.3697 -0.5259
  469MOL0     H64690  10.013   3.189   8.416  0.1017  0.5245  0.9339
  469MOL0     H64691  10.045   3.340   8.495  2.0530  4.1193 -1.3153
  469MOL0     H64692  10.223   3.204   8.508  3.5067 -2.9747 -2.0876
  469MOL0     H64693  10.286   3.336   8.405 -1.3636  1.9640  1.5269
  469MOL0     H64694  10.188   3.077   8.272  2.4267 -4.0038  0.0983
  469MOL0     H64695  10.297   3.199   8.210 -0.1435 -1.1548  0.4398
  469MOL0     H64696  10.446   3.156   8.429  1.8497 -0.0984 -0.8806
  469MOL0     H64697  10.446   3.046   8.290 -0.1506  0.0728 -0.9817
  469MOL0     H64698  10.264   2.997   8.521 -1.4066 -5.1463  1.7356
  469MOL0     H64699  10.433   2.928   8.518  1.3730 -3.2476 -2.9090
  469MOL0     H64700  10.358   2.840   8.286 -0.9310  0.4010 -1.5169
  469MOL0     H64701  10.195   2.851   8.340  0.6216  3.1658  0.3269
  469MOL0     H64702  10.070   3.798   8.240 -0.3265  2.2346  0.1764
  469MOL0     H64703   9.951   4.007   8.237 -0.8583  0.2914  1.0129
  469MOL0     H64704   9.448   4.188   8.186  0.9759 -0.6802 -0.5172
  469MOL0     H64705   9.344   4.390   8.096  0.8613 -1.9063 -1.5547
  469MOL0     H64706   9.789   5.748   8.470  0.4459 -0.5791  0.8602
  469MOL0     H64707   9.822   5.546   8.598 -0.7237 -2.2582  0.6042
  469MOL0     H64708   9.760   5.158   8.615 -1.8521 -0.1610  3.4960
  469MOL0     H64709   9.694   4.959   8.732 -0.2939 -1.3152 -2.2604
  469MOL0     H64710   9.996   4.647   8.789 -0.7593  2.8061 -0.5494
  469MOL0     H64711   9.882   4.579   8.891  0.9914  2.6394  2.1060
  469MOL0     H64712   9.860   4.477   8.669 -1.5855 -0.5067  0.4548
  469MOL0     H64713   9.829   4.647   8.590 -5.5986  0.2988 -0.3711
  469MOL0     H64714   9.663   4.477   8.758 -1.7568  0.5265  1.7387
  469MOL0     H64715   9.628   4.647   8.746  3.4923 -0.2102  2.3182
  469MOL0     H64716   9.530   4.456   8.590  2.5933 -0.9114  2.4286
  469MOL0     H64717   9.674   4.495   8.487 -0.1401  0.1384  0.6088
  469MOL0     H64718   9.473   4.854   8.426  0.9109 -0.9948 -0.8403
  469MOL0     H64719  10.095   4.827   8.758 -1.1674 -0.6679  0.6748
  469MOL0     H64720  10.271   5.069   8.640 -0.7182 -0.6512  2.3017
  469MOL0     H64721  10.245   4.893   8.622  1.2287  0.6430 -0.6500
  469MOL0     H64722  10.213   4.998   8.483  2.1233 -3.5598 -0.6396
  470MOL0     O64723   1.320   4.460   6.560 -0.5452 -0.0665  0.0003
  470MOL0     C64724   1.316   4.492   6.447  1.0027  0.1149  0.8313
  470MOL0     O64725   1.199   4.493   6.373 -0.2340  0.8288  0.2541
  470MOL0     C64726   1.090   4.431   6.420 -0.4920 -0.3616  0.2807
  470MOL0     C64727   1.003   4.509   6.497  0.4074 -0.1412  0.1055
  470MOL0     C64728   0.890   4.443   6.537 -0.4522  0.5662  0.8049
  470MOL0     C64729   0.842   4.321   6.483  0.2209  0.2957  0.2488
  470MOL0     O64730   0.719   4.267   6.495  0.3315 -0.3159 -0.4254
  470MOL0     C64731   0.609   4.354   6.523 -0.3312 -0.2398  0.2747
  470MOL0     C64732   0.486   4.267   6.519  0.4556  1.0863  1.3807
  470MOL0     C64733   0.468   4.167   6.395 -0.3410 -0.4829  0.8198
  470MOL0     C64734   0.442   4.246   6.256  0.0400  0.4038 -0.4629
  470MOL0     C64735   0.459   4.158   6.123  0.1114  0.0108  0.0936
  470MOL0     C64736   0.389   4.026   6.134 -0.2115  0.8885  0.2885
  470MOL0     C64737   0.244   4.048   6.150  0.4382 -0.3083 -0.2154
  470MOL0     C64738   0.153   3.919   6.115  0.1748  0.2843 -0.3853
  470MOL0     N64739   0.124   3.875   5.976 -0.5397  0.0266  1.5326
  470MOL0     C64740   0.048   3.766   5.957 -0.1367  0.6886  0.3195
  470MOL0     C64741   0.002   3.783   5.829  0.4054  0.7918  0.0297
  470MOL0     C64742  -0.073   3.673   5.749 -0.3285  0.0509 -0.7858
  470MOL0     C64743  -0.043   3.660   5.600 -0.8399  1.1972 -0.2335
  470MOL0     C64744   0.095   3.598   5.552  0.6949 -0.1745  0.3313
  470MOL0     C64745   0.079   3.444   5.547  0.1985  0.1662 -0.4899
  470MOL0     O64746   0.214   3.392   5.576 -0.0102  0.5754 -0.3169
  470MOL0     C64747   0.305   3.365   5.480 -0.4850  0.0307  0.6703
  470MOL0     C64748   0.278   3.392   5.349 -1.0762 -0.5616  0.2691
  470MOL0     C64749   0.372   3.366   5.249  0.0993  1.1945 -0.1018
  470MOL0     C64750   0.318   3.389   5.110  0.1642 -0.1385  0.2014
  470MOL0     C64751   0.503   3.323   5.286 -0.1725 -0.4215 -1.4277
  470MOL0     C64752   0.612   3.283   5.197 -0.2932 -0.6873  0.1029
  470MOL0     O64753   0.736   3.258   5.248  0.0498 -0.0246  0.1047
  470MOL0     C64754   0.834   3.187   5.188  0.0072  0.2826  0.1240
  470MOL0     C64755   0.945   3.182   5.274 -1.0100 -0.2216 -0.2798
  470MOL0     C64756   1.057   3.101   5.245  0.1740  0.2849  0.1445
  470MOL0     C64757   1.053   3.037   5.119  0.7146  0.5358 -0.0355
  470MOL0     O64758   1.167   2.955   5.092  0.3264 -0.8913  0.4726
  470MOL0     C64759   1.280   3.033   5.039  0.1883 -0.2599 -0.4786
  470MOL0     C64760   1.281   2.995   4.886  0.4454 -0.6230 -0.3466
  470MOL0     C64761   1.396   3.055   4.810  0.1763 -0.4389 -0.1067
  470MOL0     C64762   1.390   3.037   4.661 -0.7858  0.1829  1.1429
  470MOL0     C64763   1.517   3.086   4.587  0.3607  0.7775 -0.3169
  470MOL0     C64764   1.517   3.045   4.448  0.9125  1.1368  0.4703
  470MOL0     C64765   1.612   3.115   4.358 -0.5978 -0.8470  0.1884
  470MOL0     C64766   1.632   3.267   4.361  0.1447  0.5289 -0.1625
  470MOL0    Cl64767   1.482   3.356   4.310  0.1374  0.2097 -0.2819
  470MOL0     C64768   0.947   3.048   5.033 -0.3612  1.0997  0.3821
  470MOL0     C64769   0.834   3.125   5.062 -0.3318 -0.2842 -0.6664
  470MOL0     O64770   0.575   3.260   5.085 -0.4996  0.0877 -0.3521
  470MOL0     C64771   0.533   3.309   5.427 -0.1119  0.0398 -0.1464
  470MOL0     C64772   0.434   3.321   5.514  0.5308 -0.1336 -0.2201
  470MOL0     N64773   0.051   3.893   5.774 -0.6542 -1.6193  0.1298
  470MOL0     N64774   0.112   3.963   5.872  0.3197 -0.1050  0.8088
  470MOL0     C64775   0.934   4.246   6.402  0.7867 -0.1203 -0.6737
  470MOL0     C64776   1.063   4.297   6.381  0.0275  0.3882 -1.0775
  470MOL0     C64777   1.434   4.567   6.392  0.3109 -0.0894  0.1049
  470MOL0     C64778   1.502   4.661   6.462  0.2004 -0.3068 -0.3439
  470MOL0     C64779   1.613   4.734   6.411  0.5014 -0.9323  0.8791
  470MOL0     C64780   1.670   4.708   6.287 -0.4119 -0.3360 -0.4472
  470MOL0     O64781   1.772   4.768   6.228  0.3693 -0.6548 -0.2521
  470MOL0     C64782   1.887   4.796   6.314  0.1707  1.0357  0.2294
  470MOL0     C64783   2.009   4.743   6.237  0.4033 -0.2471  0.1231
  470MOL0     C64784   2.139   4.764   6.316 -0.2287  1.1683 -0.4294
  470MOL0     C64785   2.252   4.725   6.220  0.1347  0.0359  0.2124
  470MOL0     C64786   2.358   4.668   6.303 -0.0462 -0.3418 -0.7676
  470MOL0     C64787   2.434   4.619   6.380 -0.1643 -0.4579 -0.1579
  470MOL0     C64788   1.607   4.599   6.222 -0.3748 -0.5123  0.1696
  470MOL0     C64789   1.487   4.534   6.265  0.2272  0.4157 -0.1795
  470MOL0     C64790   1.423   4.438   6.168  0.6328 -0.5095  0.2949
  470MOL0     H64791   1.031   4.607   6.536  0.4028 -0.3540  0.6557
  470MOL0     H64792   0.823   4.498   6.602 -0.5059  1.3599  0.0874
  470MOL0     H64793   0.623   4.425   6.441 -1.8255  0.4875  0.6149
  470MOL0     H64794   0.625   4.398   6.622 -1.6132 -0.5494  0.6383
  470MOL0     H64795   0.481   4.191   6.597  1.0349 -0.5545 -0.1158
  470MOL0     H64796   0.407   4.343   6.522  1.1434  1.8227  1.1466
  470MOL0     H64797   0.560   4.110   6.378 -0.2646 -0.4271  1.0440
  470MOL0     H64798   0.390   4.096   6.423 -0.7777 -0.1714  0.4189
  470MOL0     H64799   0.340   4.284   6.253 -0.9880 -2.0996  0.2833
  470MOL0     H64800   0.513   4.329   6.248  0.1738  0.5290  1.6156
  470MOL0     H64801   0.565   4.134   6.113  0.0860 -0.9232  1.6569
  470MOL0     H64802   0.414   4.222   6.046  0.3823  0.2685  0.1472
  470MOL0     H64803   0.411   3.965   6.047  3.0300  0.5495  1.2092
  470MOL0     H64804   0.425   3.956   6.209 -1.5242  0.8572  0.9344
  470MOL0     H64805   0.198   4.134   6.100  1.4783  1.3370  1.5174
  470MOL0     H64806   0.226   4.066   6.257  0.2128  0.0986 -0.3181
  470MOL0     H64807   0.198   3.827   6.155  0.4536 -0.0952 -1.5176
  470MOL0     H64808   0.057   3.926   6.166 -0.7298 -0.5675 -1.9068
  470MOL0     H64809   0.016   3.699   6.036 -0.5351  0.5374  0.0355
  470MOL0     H64810  -0.178   3.703   5.752  0.9725  5.4229 -0.2826
  470MOL0     H64811  -0.085   3.579   5.804 -1.8775  1.3062  1.1376
  470MOL0     H64812  -0.120   3.599   5.551 -1.8124  0.1406  2.4002
  470MOL0     H64813  -0.051   3.760   5.557 -1.7035  1.1880 -0.1128
  470MOL0     H64814   0.101   3.626   5.447 -1.1943  0.6790  0.4024
  470MOL0     H64815   0.177   3.633   5.615 -0.2480 -0.1830  1.6174
  470MOL0     H64816   0.009   3.410   5.623  1.5944  2.0118  1.7816
  470MOL0     H64817   0.041   3.422   5.447  1.4252  3.9133 -1.9670
  470MOL0     H64818   0.184   3.435   5.314 -0.8111 -0.3724 -0.2162
  470MOL0     H64819   0.369   3.466   5.052 -1.8534  1.2230  0.1479
  470MOL0     H64820   0.220   3.434   5.127  0.3927  1.0758 -1.5558
  470MOL0     H64821   0.292   3.302   5.049 -0.2767 -0.4992  0.8903
  470MOL0     H64822   0.940   3.227   5.373  2.8372 -3.2497  1.5485
  470MOL0     H64823   1.149   3.094   5.303 -0.1679 -1.0575  0.5552
  470MOL0     H64824   1.267   3.140   5.057  3.3884  0.1549 -0.0107
  470MOL0     H64825   1.376   3.003   5.082 -0.3119  1.4099  2.0039
  470MOL0     H64826   1.278   2.886   4.876  2.4946 -1.1138  2.8234
  470MOL0     H64827   1.191   3.041   4.843 -1.2301 -1.8867  1.5723
  470MOL0     H64828   1.491   3.015   4.847  1.0368  1.1237 -0.5651
  470MOL0     H64829   1.387   3.162   4.830 -2.1277 -0.0608 -2.5668
  470MOL0     H64830   1.301   3.088   4.624 -1.3393 -1.8002 -0.4573
  470MOL0     H64831   1.376   2.930   4.640  2.0841  0.3005 -2.3301
  470MOL0     H64832   1.526   3.195   4.597 -0.3743  1.1267 -2.8039
  470MOL0     H64833   1.607   3.048   4.635  1.3242  1.0533 -1.8308
  470MOL0     H64834   1.412   3.059   4.418  0.7962  2.2959  1.3523
  470MOL0     H64835   1.532   2.937   4.439 -1.5715  0.8700 -1.8416
  470MOL0     H64836   1.576   3.097   4.256 -4.1482 -0.5473  1.2514
  470MOL0     H64837   1.709   3.074   4.385  0.0709  0.7656  0.3300
  470MOL0     H64838   1.713   3.310   4.302 -0.9092  1.8714 -0.6912
  470MOL0     H64839   1.651   3.289   4.467 -3.6826 -2.1337  1.3112
  470MOL0     H64840   0.959   2.992   4.941  2.1769  1.1143  0.6353
  470MOL0     H64841   0.747   3.125   4.997 -1.0137 -2.2927  0.1730
  470MOL0     H64842   0.630   3.271   5.457 -0.1115  1.3840  1.6665
  470MOL0     H64843   0.456   3.308   5.620  0.7985 -0.1895 -0.2821
  470MOL0     H64844   0.919   4.146   6.363 -1.4361  0.7196 -2.2288
  470MOL0     H64845   1.122   4.238   6.310  0.6607  2.2185 -2.1449
  470MOL0     H64846   1.464   4.697   6.557  2.3900 -3.2862  1.8479
  470MOL0     H64847   1.645   4.813   6.479 -0.4429  1.2800 -1.1202
  470MOL0     H64848   1.899   4.904   6.328 -1.5748  1.7174 -2.7167
  470MOL0     H64849   1.881   4.740   6.408  1.7456 -0.9339 -0.7713
  470MOL0     H64850   2.025   4.787   6.139  3.7872 -0.1078  0.6364
  470MOL0     H64851   1.991   4.638   6.213 -0.3757 -0.1882  0.4116
  470MOL0     H64852   2.142   4.862   6.365 -0.4665  1.3505 -0.7740
  470MOL0     H64853   2.136   4.696   6.402 -1.8091  1.2389 -0.4046
  470MOL0     H64854   2.276   4.824   6.180 -0.5997 -0.2905 -1.1216
  470MOL0     H64855   2.218   4.664   6.136 -0.1864 -0.3775  0.6347
  470MOL0     H64856   2.494   4.570   6.454 -1.5921 -0.8472  0.7906
  470MOL0     H64857   1.654   4.561   6.131  1.9028  2.1152  0.0884
  470MOL0     H64858   1.416   4.338   6.211  4.9918 -2.4742 -2.8436
  470MOL0     H64859   1.327   4.485   6.141  0.2419 -1.4675 -0.0294
  470MOL0     H64860   1.479   4.427   6.074  1.9056  1.3270  0.7807
  471MOL0     O64861   2.030   7.470   9.770  0.7237  0.4940 -1.0333
  471MOL0     C64862   2.035   7.429   9.654  0.5756 -0.2532 -0.8532
  471MOL0     O64863   2.098   7.312   9.613  0.4407  0.0545  0.0433
  471MOL0     C64864   2.199   7.253   9.680 -0.0345  0.6213 -0.2710
  471MOL0     C64865   2.273   7.318   9.777  0.3953 -0.1322  0.4798
  471MOL0     C64866   2.377   7.264   9.851  0.4435 -0.7643  0.2179
  471MOL0     C64867   2.432   7.148   9.799 -0.1688  0.2096  0.5246
  471MOL0     O64868   2.541   7.077   9.851  0.7463  0.4383 -0.7585
  471MOL0     C64869   2.547   7.056   9.996  0.0098 -0.4924  0.0426
  471MOL0     C64870   2.458   6.935  10.042  0.3320  0.3454 -0.6580
  471MOL0     C64871   2.529   6.796  10.028  0.4536  0.2713 -0.3982
  471MOL0     C64872   2.436   6.692  10.072  0.9985  0.5167  0.3529
  471MOL0     C64873   2.504   6.558  10.032  0.6839 -0.0226 -0.9659
  471MOL0     C64874   2.439   6.432  10.074  0.7393  1.0341  0.0479
  471MOL0     C64875   2.506   6.306  10.013  0.4774 -0.4065  0.7642
  471MOL0     C64876   2.634   6.267  10.076 -0.4288  0.3097  0.1240
  471MOL0     N64877   2.653   6.128  10.069 -0.3572 -0.4856  0.5294
  471MOL0     C64878   2.635   6.053   9.954  1.3805 -1.0072  0.1240
  471MOL0     C64879   2.660   5.927   9.997 -0.0452 -0.2782  0.0817
  471MOL0     C64880   2.672   5.805   9.908  0.3865 -0.2538  0.8339
  471MOL0     C64881   2.829   5.775   9.887  0.4272  0.5138  0.2701
  471MOL0     C64882   2.842   5.637   9.816  0.2384  0.1214  0.3739
  471MOL0     C64883   2.973   5.632   9.729 -0.2568  0.3769  0.0427
  471MOL0     O64884   2.997   5.750   9.647 -0.0705 -0.1985 -0.4405
  471MOL0     C64885   2.943   5.731   9.518 -0.3285 -1.1351  0.3034
  471MOL0     C64886   2.833   5.654   9.481 -0.1577  0.4813 -0.4369
  471MOL0     C64887   2.778   5.664   9.359 -0.4112  1.4479  0.2139
  471MOL0     C64888   2.666   5.555   9.348 -0.6584  0.2670 -0.5834
  471MOL0     C64889   2.825   5.741   9.260 -0.0030  0.2185  0.7661
  471MOL0     C64890   2.776   5.746   9.124 -0.2968  0.8929 -0.1674
  471MOL0     O64891   2.871   5.764   9.029  0.1250  0.3015  0.7570
  471MOL0     C64892   2.838   5.821   8.902  0.8544  0.1854  0.0580
  471MOL0     C64893   2.840   5.745   8.788  0.1254  0.1079 -0.3560
  471MOL0     C64894   2.806   5.806   8.665 -0.0510 -0.6588  0.2474
  471MOL0     C64895   2.759   5.938   8.663 -0.1702  0.0833  0.1412
  471MOL0     O64896   2.699   6.004   8.560 -0.5564 -0.3420  0.3878
  471MOL0     C64897   2.721   5.961   8.422  1.1820 -0.6965 -0.2152
  471MOL0     C64898   2.587   5.953   8.356 -0.1547  0.0926  0.3903
  471MOL0     C64899   2.522   6.089   8.336 -0.2257 -0.1680  0.6005
  471MOL0     C64900   2.386   6.064   8.275  0.7098 -0.5299  0.1417
  471MOL0     C64901   2.322   6.185   8.206 -0.3433  0.0816 -0.2723
  471MOL0     C64902   2.183   6.170   8.137  0.2990  0.5158  0.6122
  471MOL0     C64903   2.075   6.117   8.233  0.3921  0.6224 -0.0335
  471MOL0     C64904   1.933   6.135   8.171 -0.1565  0.0234 -0.3897
  471MOL0    Cl64905   1.887   6.312   8.182 -0.1068  0.1716 -0.5288
  471MOL0     C64906   2.757   6.014   8.782 -0.6158  0.6759  0.5101
  471MOL0     C64907   2.803   5.952   8.896 -0.3063 -0.2397  0.0967
  471MOL0     O64908   2.655   5.737   9.116  0.1936 -1.0077  0.2415
  471MOL0     C64909   2.933   5.825   9.295 -0.1973 -0.3345  0.5867
  471MOL0     C64910   2.982   5.817   9.419 -0.4201  0.5411 -0.2467
  471MOL0     N64911   2.689   5.926  10.127 -0.2074 -0.6325 -0.8100
  471MOL0     N64912   2.697   6.045  10.169  0.2652  0.2485  0.1161
  471MOL0     C64913   2.370   7.080   9.690  0.8328  0.3392 -0.4231
  471MOL0     C64914   2.250   7.127   9.635 -0.5646 -0.4433 -0.4105
  471MOL0     C64915   1.980   7.505   9.539  0.4999  0.6758 -0.2868
  471MOL0     C64916   2.052   7.620   9.500 -0.8381  0.1313  0.6092
  471MOL0     C64917   2.004   7.700   9.393 -0.3059  0.2019  0.4652
  471MOL0     C64918   1.887   7.660   9.326  0.2518 -0.5822 -0.8357
  471MOL0     O64919   1.833   7.746   9.232  0.0215  0.0081 -0.2728
  471MOL0     C64920   1.893   7.724   9.109  0.4310 -0.3022  0.1033
  471MOL0     C64921   1.797   7.795   9.029  1.0070 -0.2151 -0.2416
  471MOL0     C64922   1.798   7.765   8.884  0.4614  0.1351  0.6399
  471MOL0     C64923   1.920   7.832   8.814  0.9119 -0.0832 -0.1626
  471MOL0     C64924   2.009   7.726   8.760  1.2916  0.6378  0.0181
  471MOL0     C64925   2.089   7.631   8.743 -0.0122 -0.0292 -0.7490
  471MOL0     C64926   1.814   7.554   9.370 -0.1096 -0.1980 -0.5138
  471MOL0     C64927   1.854   7.478   9.475  0.3634  1.1420 -1.4710
  471MOL0     C64928   1.766   7.358   9.517  0.8750 -0.6865  0.3258
  471MOL0     H64929   2.239   7.410   9.824  2.6613  0.0825  1.8538
  471MOL0     H64930   2.415   7.327   9.930 -2.3489  0.9029  0.3999
  471MOL0     H64931   2.538   7.151  10.050  3.0261  1.6854 -2.8267
  471MOL0     H64932   2.644   7.019  10.032 -1.3091 -5.0044 -0.4358
  471MOL0     H64933   2.425   6.943  10.146 -1.8411  0.0176 -1.2769
  471MOL0     H64934   2.372   6.938   9.975 -0.0842 -1.3231 -0.2675
  471MOL0     H64935   2.555   6.789   9.922 -2.5034 -2.4745 -1.1206
  471MOL0     H64936   2.617   6.790  10.092  0.2810 -1.1635 -0.2447
  471MOL0     H64937   2.436   6.696  10.182 -0.1784  0.9492  0.3492
  471MOL0     H64938   2.337   6.698  10.028 -0.5591 -2.6787  3.0103
  471MOL0     H64939   2.605   6.558  10.074  1.4768  3.4932 -2.5285
  471MOL0     H64940   2.507   6.554   9.923 -1.6417  1.6252 -1.1586
  471MOL0     H64941   2.450   6.422  10.182 -0.7875 -1.8419  0.0349
  471MOL0     H64942   2.333   6.439  10.048  1.5491  0.7598 -4.0734
  471MOL0     H64943   2.515   6.321   9.905 -2.8970  1.3483  0.6028
  471MOL0     H64944   2.438   6.222  10.032 -0.8589  0.6193  0.6697
  471MOL0     H64945   2.718   6.321  10.030 -1.2449  1.6966  0.2142
  471MOL0     H64946   2.642   6.285  10.184 -1.3159 -1.3484  0.4944
  471MOL0     H64947   2.607   6.081   9.853 -1.1141  1.0298  1.2755
  471MOL0     H64948   2.615   5.802   9.815  1.4541 -0.1001  0.1492
  471MOL0     H64949   2.630   5.728   9.974 -3.8451  1.3543  0.2926
  471MOL0     H64950   2.877   5.851   9.825  4.2309 -0.5177  1.6792
  471MOL0     H64951   2.868   5.758   9.988  0.1191 -0.2323  0.2710
  471MOL0     H64952   2.835   5.558   9.891 -1.6061 -0.3913 -0.2815
  471MOL0     H64953   2.764   5.632   9.739  0.5182  1.8220 -0.0600
  471MOL0     H64954   3.068   5.618   9.782 -0.5129  3.0091  1.3526
  471MOL0     H64955   2.968   5.539   9.671 -2.0951  0.0364  0.6950
  471MOL0     H64956   2.805   5.572   9.546  0.1508  1.4271  0.9210
  471MOL0     H64957   2.621   5.535   9.446 -1.2908 -0.0177 -0.9309
  471MOL0     H64958   2.714   5.459   9.323 -1.3005 -0.4300  0.7599
  471MOL0     H64959   2.580   5.579   9.286  1.2335 -1.3327 -4.1528
  471MOL0     H64960   2.876   5.646   8.813 -0.2795  0.8918  3.9785
  471MOL0     H64961   2.809   5.749   8.573  1.1765 -0.6621  0.2681
  471MOL0     H64962   2.770   6.041   8.367  0.3285  1.1102  1.5451
  471MOL0     H64963   2.760   5.859   8.413  0.3996 -0.8559 -2.7853
  471MOL0     H64964   2.596   5.912   8.254  0.2983  0.2141  0.3763
  471MOL0     H64965   2.522   5.891   8.417 -0.5413  3.1167  3.3326
  471MOL0     H64966   2.584   6.146   8.266 -0.3613  0.8401  1.2924
  471MOL0     H64967   2.512   6.144   8.429 -0.8002 -0.2101  0.5718
  471MOL0     H64968   2.327   6.044   8.365  1.1844  0.6650  0.7310
  471MOL0     H64969   2.394   5.975   8.212  2.7941 -0.8193  0.7459
  471MOL0     H64970   2.327   6.264   8.281 -3.8752 -0.3199  0.5900
  471MOL0     H64971   2.383   6.221   8.123 -0.0263 -1.7814 -0.9029
  471MOL0     H64972   2.186   6.106   8.047 -0.8079  0.8744  0.3006
  471MOL0     H64973   2.146   6.270   8.113 -2.3129 -0.3210  0.8009
  471MOL0     H64974   2.067   6.157   8.334  0.4911  0.8433 -0.1119
  471MOL0     H64975   2.088   6.009   8.245  0.3946  0.6059 -0.1713
  471MOL0     H64976   1.853   6.078   8.219 -0.3837 -0.3724 -1.2202
  471MOL0     H64977   1.932   6.097   8.069 -0.0164 -0.7792 -0.0950
  471MOL0     H64978   2.705   6.109   8.780 -1.7408  0.1469  2.1569
  471MOL0     H64979   2.814   6.022   8.979  1.5633  0.4521 -0.6790
  471MOL0     H64980   2.950   5.910   9.228 -0.9413 -1.1593 -0.6846
  471MOL0     H64981   3.065   5.879   9.451 -0.1976 -0.5783  1.5000
  471MOL0     H64982   2.424   6.992   9.658  3.8232  0.6530  3.1087
  471MOL0     H64983   2.198   7.072   9.556  0.9349  1.7281 -3.0749
  471MOL0     H64984   2.140   7.643   9.560 -0.6330 -2.0683  1.2475
  471MOL0     H64985   2.063   7.781   9.353 -1.0673 -0.9537 -3.5328
  471MOL0     H64986   1.989   7.776   9.109 -1.4131  3.4707 -1.3901
  471MOL0     H64987   1.907   7.619   9.083  2.2012  0.0407 -0.4078
  471MOL0     H64988   1.803   7.904   9.040 -0.3566  0.0864 -1.9246
  471MOL0     H64989   1.696   7.763   9.059  1.1473 -0.4667 -0.0361
  471MOL0     H64990   1.800   7.656   8.881 -1.9412  0.0300  0.9353
  471MOL0     H64991   1.702   7.784   8.835  0.6468 -3.6074 -1.5505
  471MOL0     H64992   1.971   7.890   8.890  0.3793  0.2377 -0.0456
  471MOL0     H64993   1.896   7.903   8.735 -0.1770  0.4547  0.6232
  471MOL0     H64994   2.154   7.546   8.734 -0.4882 -0.6426  1.1762
  471MOL0     H64995   1.721   7.525   9.323  0.6816 -2.3916 -0.8523
  471MOL0     H64996   1.766   7.343   9.625 -1.0348 -0.4791  0.3880
  471MOL0     H64997   1.668   7.389   9.479  1.6032  0.1299 -0.9732
  471MOL0     H64998   1.788   7.262   9.470  1.2095 -1.3870  1.8588
  472MOL0     O64999   3.660   2.338   8.926 -0.2391  0.0311  0.1090
  472MOL0     C65000   3.726   2.434   8.884  0.6337 -0.0935 -0.9152
  472MOL0     O65001   3.714   2.499   8.761 -0.0147  0.6636 -0.7483
  472MOL0     C65002   3.615   2.467   8.673  0.6480  0.1383 -0.0565
  472MOL0     C65003   3.590   2.558   8.566 -0.2142  1.3996  0.6220
  472MOL0     C65004   3.491   2.526   8.470  0.1325  0.2821 -0.8073
  472MOL0     C65005   3.411   2.416   8.474 -0.2936 -0.6628  0.4835
  472MOL0     O65006   3.311   2.409   8.378 -0.2126 -0.2764 -0.4055
  472MOL0     C65007   3.258   2.287   8.341 -0.0626  0.1812 -0.8358
  472MOL0     C65008   3.204   2.294   8.202  0.1740 -0.4133  0.0130
  472MOL0     C65009   3.098   2.191   8.158  0.3404  0.3502  0.1540
  472MOL0     C65010   3.138   2.044   8.195 -0.0390  0.7132  0.1962
  472MOL0     C65011   3.026   1.944   8.179 -0.5545  0.4448  0.1976
  472MOL0     C65012   2.993   1.907   8.033  0.6111  0.2640 -0.8491
  472MOL0     C65013   2.853   1.847   8.014  0.4766  0.7103  1.2221
  472MOL0     C65014   2.822   1.841   7.865 -0.0912 -0.2583  0.5922
  472MOL0     N65015   2.699   1.761   7.831  0.3300 -0.4571  0.1026
  472MOL0     C65016   2.635   1.748   7.712 -0.1887 -0.4988  0.6181
  472MOL0     C65017   2.525   1.674   7.743 -0.4054  0.8172  0.0062
  472MOL0     C65018   2.395   1.656   7.657  1.0548 -0.3348  0.6838
  472MOL0     C65019   2.386   1.530   7.571  0.2085  0.2489  0.5616
  472MOL0     C65020   2.388   1.394   7.652 -0.0615 -0.9654  0.5279
  472MOL0     C65021   2.272   1.395   7.758  0.2002  0.1420  0.5521
  472MOL0     O65022   2.141   1.400   7.689 -0.4204  0.1548 -0.3310
  472MOL0     C65023   2.106   1.296   7.604  0.0560  0.3553 -0.1648
  472MOL0     C65024   2.148   1.160   7.599  0.3471  0.3637 -0.8377
  472MOL0     C65025   2.098   1.068   7.506 -0.2249  0.3733 -0.1817
  472MOL0     C65026   2.132   0.921   7.536  0.0928  0.2583  0.5256
  472MOL0     C65027   2.014   1.111   7.405  0.1917 -0.1254 -0.3647
  472MOL0     C65028   1.957   1.022   7.295  0.6042 -0.9490 -1.1835
  472MOL0     O65029   1.949   0.891   7.324  0.0553 -0.4759  0.5907
  472MOL0     C65030   1.916   0.801   7.226  0.0994 -0.5599 -0.3651
  472MOL0     C65031   1.988   0.683   7.229  0.3675 -0.0944 -0.3942
  472MOL0     C65032   1.957   0.581   7.145 -0.3359 -0.6627 -0.1302
  472MOL0     C65033   1.843   0.589   7.065  1.2126 -0.2958  0.3452
  472MOL0     O65034   1.806   0.475   6.991  0.2281  0.8639  0.6752
  472MOL0     C65035   1.901   0.418   6.897 -0.4214  0.4310  0.3831
  472MOL0     C65036   1.838   0.321   6.809  0.4589  0.6943  0.1846
  472MOL0     C65037   1.737   0.376   6.705  0.1975 -0.9400 -0.0800
  472MOL0     C65038   1.681   0.267   6.603  0.2168 -0.5159 -1.1624
  472MOL0     C65039   1.591   0.175   6.678 -0.8009  0.2650  0.0092
  472MOL0     C65040   1.437   0.179   6.659  0.1059  1.0473  0.7183
  472MOL0     C65041   1.361   0.065   6.736  0.2269 -0.3649 -0.1639
  472MOL0     C65042   1.211   0.092   6.743 -0.1350 -0.5802  0.1819
  472MOL0    Cl65043   1.146   0.213   6.845  0.1049  0.1448 -0.1190
  472MOL0     C65044   1.764   0.700   7.074 -0.2757 -0.5320 -0.9985
  472MOL0     C65045   1.804   0.808   7.153 -0.6146  1.6569 -0.4856
  472MOL0     O65046   1.937   1.075   7.189 -0.8128  0.5800  0.2706
  472MOL0     C65047   1.985   1.250   7.400  0.2662  0.0141  0.5784
  472MOL0     C65048   2.023   1.340   7.498 -1.2940 -0.2083 -0.1659
  472MOL0     N65049   2.535   1.630   7.872 -0.3881  0.1323  1.0628
  472MOL0     N65050   2.640   1.677   7.927 -0.1681 -0.0957  0.0028
  472MOL0     C65051   3.439   2.326   8.572 -0.2872  1.2790  0.8869
  472MOL0     C65052   3.546   2.344   8.664 -0.0389 -0.5261 -0.3190
  472MOL0     C65053   3.838   2.482   8.974 -0.6226 -0.1568  0.1880
  472MOL0     C65054   3.936   2.578   8.930  0.9533 -0.4162  0.2705
  472MOL0     C65055   4.052   2.601   9.000  0.5984  0.4214 -0.1121
  472MOL0     C65056   4.080   2.541   9.125 -0.6690 -0.2536  0.4960
  472MOL0     O65057   4.195   2.558   9.203 -0.1740  0.4520  0.0390
  472MOL0     C65058   4.314   2.609   9.137  1.5366  0.2483 -0.1376
  472MOL0     C65059   4.375   2.520   9.031  0.4089  0.2569 -0.3147
  472MOL0     C65060   4.451   2.406   9.100  0.4262 -0.3146 -0.5440
  472MOL0     C65061   4.601   2.394   9.057  0.5619  0.5312 -0.2486
  472MOL0     C65062   4.660   2.296   9.148 -0.7437  0.0895 -0.4456
  472MOL0     C65063   4.720   2.233   9.235 -0.8797  0.3666  0.6760
  472MOL0     C65064   3.977   2.453   9.174 -0.2105  0.2281 -0.0987
  472MOL0     C65065   3.861   2.419   9.105  0.0001 -0.4373 -0.0604
  472MOL0     C65066   3.757   2.347   9.187 -0.8457 -0.0770 -0.0063
  472MOL0     H65067   3.650   2.648   8.559  1.7630  0.0961 -0.3986
  472MOL0     H65068   3.478   2.589   8.383  3.8740 -0.1453 -1.8491
  472MOL0     H65069   3.187   2.266   8.421 -0.2917  2.5539 -0.3687
  472MOL0     H65070   3.333   2.206   8.338 -1.4846 -1.1679 -1.6608
  472MOL0     H65071   3.168   2.396   8.185  0.6810 -0.1479  0.5116
  472MOL0     H65072   3.286   2.299   8.129  1.0841  0.6456  1.0486
  472MOL0     H65073   3.000   2.219   8.199 -1.9818  3.1226 -5.9862
  472MOL0     H65074   3.076   2.212   8.053 -3.1808 -0.7902  0.5246
  472MOL0     H65075   3.220   2.024   8.126 -1.5297  1.6503 -1.9258
  472MOL0     H65076   3.172   2.039   8.299 -3.6861 -0.2424  1.4758
  472MOL0     H65077   2.931   1.964   8.230  0.3129 -1.4805  2.8193
  472MOL0     H65078   3.067   1.854   8.228 -0.1451  0.7256  0.3793
  472MOL0     H65079   2.984   2.000   7.976 -0.9555  2.4621  2.6491
  472MOL0     H65080   3.070   1.841   7.991 -0.0818 -0.5412 -0.8719
  472MOL0     H65081   2.775   1.917   8.046 -0.4589  0.6664 -0.8320
  472MOL0     H65082   2.843   1.753   8.069  0.5609  0.4077  0.7206
  472MOL0     H65083   2.804   1.945   7.839 -0.1536 -0.3165  0.4005
  472MOL0     H65084   2.903   1.811   7.798 -2.9812 -2.4337 -2.2282
  472MOL0     H65085   2.641   1.806   7.620 -0.6481 -0.3327  0.6899
  472MOL0     H65086   2.376   1.750   7.604  0.7745  0.2878  1.8542
  472MOL0     H65087   2.302   1.652   7.715  0.2610  2.0074 -0.2938
  472MOL0     H65088   2.300   1.528   7.502 -3.3451  3.1012  4.3814
  472MOL0     H65089   2.475   1.524   7.509  0.4414 -0.8815  0.9781
  472MOL0     H65090   2.383   1.308   7.585  1.5524  0.1014 -1.0369
  472MOL0     H65091   2.484   1.395   7.704  1.1290  4.2074 -1.2677
  472MOL0     H65092   2.301   1.301   7.806  2.1775 -0.2691 -1.2809
  472MOL0     H65093   2.287   1.481   7.825  1.2891  0.1857  0.2660
  472MOL0     H65094   2.200   1.124   7.687 -1.9067  0.6436  0.7040
  472MOL0     H65095   2.155   0.866   7.444 -0.0522  0.1817  0.5343
  472MOL0     H65096   2.052   0.868   7.588  0.5432 -0.6247  0.3419
  472MOL0     H65097   2.227   0.901   7.587  0.0935 -1.1883 -0.0029
  472MOL0     H65098   2.076   0.664   7.290 -1.2653  2.6027  3.2235
  472MOL0     H65099   2.019   0.492   7.148 -2.2079 -2.0995 -1.2519
  472MOL0     H65100   1.934   0.501   6.833 -0.4281 -0.4460 -0.7791
  472MOL0     H65101   1.976   0.358   6.949 -3.0711 -2.0298  1.6464
  472MOL0     H65102   1.901   0.253   6.751  0.6648 -2.1316  3.4103
  472MOL0     H65103   1.790   0.251   6.879  2.6815 -1.0836  0.0558
  472MOL0     H65104   1.786   0.445   6.636 -0.8538  0.2845  0.3725
  472MOL0     H65105   1.654   0.416   6.763 -1.9201 -0.4137 -3.2544
  472MOL0     H65106   1.763   0.207   6.563  1.0857 -0.4369  0.4264
  472MOL0     H65107   1.622   0.317   6.525  3.6108 -0.0046 -3.6269
  472MOL0     H65108   1.635   0.078   6.654  0.0276  0.6432 -0.0451
  472MOL0     H65109   1.610   0.184   6.785 -0.3329  0.1877 -0.0688
  472MOL0     H65110   1.417   0.188   6.552 -1.6798 -0.7580  0.8253
  472MOL0     H65111   1.404   0.270   6.710 -0.5816 -0.0949  2.4138
  472MOL0     H65112   1.400   0.060   6.838  0.5554  1.8775 -0.1359
  472MOL0     H65113   1.374  -0.032   6.686 -1.5530 -1.9947  2.3068
  472MOL0     H65114   1.167  -0.000   6.780 -2.6870  0.4437 -0.1008
  472MOL0     H65115   1.180   0.114   6.641 -0.0473  0.0081  0.2731
  472MOL0     H65116   1.672   0.714   7.018 -0.9182 -2.0245 -0.3709
  472MOL0     H65117   1.756   0.905   7.155  1.1038  2.5427  0.0218
  472MOL0     H65118   1.933   1.292   7.315 -1.2772 -1.2652  0.8421
  472MOL0     H65119   2.019   1.448   7.506  0.9509 -0.1868  2.4016
  472MOL0     H65120   3.398   2.225   8.580  0.1745  1.0085 -0.0409
  472MOL0     H65121   3.571   2.256   8.723 -3.5372 -1.1424  0.4967
  472MOL0     H65122   3.917   2.636   8.841 -1.1193  0.6538  1.3418
  472MOL0     H65123   4.133   2.660   8.959  2.6529 -2.3870 -0.4252
  472MOL0     H65124   4.282   2.708   9.102 -0.9436  0.1102  1.4782
  472MOL0     H65125   4.381   2.644   9.217 -0.8723  2.4959  1.0520
  472MOL0     H65126   4.441   2.571   8.960 -1.6715  0.6348 -2.0854
  472MOL0     H65127   4.306   2.474   8.960 -1.2589  0.5377  1.0641
  472MOL0     H65128   4.437   2.422   9.207 -2.1113 -1.6201 -0.5996
  472MOL0     H65129   4.401   2.315   9.066 -2.5186  1.1802 -0.5515
  472MOL0     H65130   4.643   2.496   9.059  1.1740  0.3571 -2.2604
  472MOL0     H65131   4.607   2.365   8.952 -1.7631 -0.4252 -0.1668
  472MOL0     H65132   4.778   2.208   9.321 -2.6461 -0.1885  1.7507
  472MOL0     H65133   3.989   2.422   9.277  0.4511  2.0298  0.3952
  472MOL0     H65134   3.738   2.249   9.142 -0.8728 -0.5250  0.9555
  472MOL0     H65135   3.801   2.347   9.287  0.8932 -1.1788 -0.7205
  472MOL0     H65136   3.663   2.401   9.204 -2.1364 -1.6186 -1.8637
  473MOL0     O65137   5.862  10.112   3.226  0.3185 -0.0173 -0.1057
  473MOL0     C65138   5.985  10.123   3.243  0.6607 -0.6822 -0.1225
  473MOL0     O65139   6.061  10.048   3.327  0.3551 -0.2977  0.6817
  473MOL0     C65140   6.007  10.008   3.447  0.0266 -0.0577  0.2116
  473MOL0     C65141   5.996  10.103   3.546  0.5447  0.1069  0.4829
  473MOL0     C65142   5.938  10.078   3.671  0.1462  0.7196 -0.0368
  473MOL0     C65143   5.914   9.951   3.710 -0.2837 -0.0397 -0.6787
  473MOL0     O65144   5.857   9.924   3.833 -0.4955  0.1850 -0.7879
  473MOL0     C65145   5.722   9.958   3.848  0.5158  0.4462 -0.0064
  473MOL0     C65146   5.691   9.996   3.997 -0.8111  0.1954  0.1906
  473MOL0     C65147   5.563  10.063   4.038  0.0993  0.1724  0.7081
  473MOL0     C65148   5.545  10.068   4.200  0.2551 -0.4327  0.0469
  473MOL0     C65149   5.410  10.141   4.241 -0.6700  0.2604  0.4541
  473MOL0     C65150   5.395  10.291   4.225  0.1124  0.1928  0.7897
  473MOL0     C65151   5.474  10.376   4.322 -0.2206  0.3443  0.7769
  473MOL0     C65152   5.398  10.375   4.458  0.8783 -0.1609 -0.4418
  473MOL0     N65153   5.443  10.485   4.542  1.0259 -0.2552 -0.2257
  473MOL0     C65154   5.571  10.509   4.573 -0.5622  0.1955 -0.0954
  473MOL0     C65155   5.575  10.611   4.653 -0.1518 -0.1668 -0.0752
  473MOL0     C65156   5.693  10.668   4.719 -0.2416  0.5964  0.6357
  473MOL0     C65157   5.790  10.741   4.615  0.0916 -0.0879  0.4702
  473MOL0     C65158   5.865  10.645   4.516  0.6079  0.3485  0.4556
  473MOL0     C65159   5.936  10.717   4.409  0.7150 -0.4178  0.3880
  473MOL0     O65160   5.844  10.799   4.330  0.5027  0.3751  0.4358
  473MOL0     C65161   5.895  10.899   4.244 -1.4424 -1.1447 -0.4719
  473MOL0     C65162   5.811  11.007   4.218 -0.0057 -1.4782 -1.0424
  473MOL0     C65163   5.849  11.112   4.136 -0.5672  0.7755  0.9909
  473MOL0     C65164   5.762  11.233   4.136  0.3802 -0.2310  0.7496
  473MOL0     C65165   5.987  11.114   4.084 -0.3838  0.5741  0.8880
  473MOL0     C65166   6.050  11.217   3.994 -0.4188  0.1495 -0.7173
  473MOL0     O65167   6.185  11.215   3.967 -0.2886  0.5224 -0.2376
  473MOL0     C65168   6.242  11.295   3.869 -0.3392  0.0874  0.1482
  473MOL0     C65169   6.193  11.400   3.783 -0.2367  0.5066  0.1103
  473MOL0     C65170   6.279  11.451   3.686  0.0661  0.6169 -0.8451
  473MOL0     C65171   6.409  11.406   3.669  0.5036  0.2321  0.2483
  473MOL0     O65172   6.484  11.444   3.569 -0.2170  0.8617  0.3632
  473MOL0     C65173   6.476  11.577   3.503 -0.2573  0.5598 -0.5924
  473MOL0     C65174   6.450  11.570   3.351  0.0908 -0.6034 -0.5357
  473MOL0     C65175   6.575  11.593   3.262  0.5127  1.0764  0.6000
  473MOL0     C65176   6.695  11.513   3.304  0.3344  0.7475  0.9551
  473MOL0     C65177   6.677  11.361   3.317 -0.2051  0.5759  0.2585
  473MOL0     C65178   6.660  11.295   3.179 -0.6658 -0.5880  0.3008
  473MOL0     C65179   6.688  11.149   3.189  0.0049 -0.3199 -0.1526
  473MOL0     C65180   6.674  11.070   3.060 -0.1645  0.8169 -0.2782
  473MOL0    Cl65181   6.773  11.130   2.921 -0.1141  0.0900 -0.0355
  473MOL0     C65182   6.457  11.312   3.752  0.0086  0.7008  0.4729
  473MOL0     C65183   6.378  11.263   3.856  0.3629  0.7941 -0.9308
  473MOL0     O65184   5.972  11.294   3.937 -0.1257  0.0632 -0.2561
  473MOL0     C65185   6.067  11.003   4.119 -0.4253 -0.5737 -0.4400
  473MOL0     C65186   6.021  10.892   4.187 -0.3357  0.1575 -0.9189
  473MOL0     N65187   5.447  10.651   4.673 -0.6246  0.2558 -0.0490
  473MOL0     N65188   5.367  10.574   4.614 -0.5503 -0.1378  0.9122
  473MOL0     C65189   5.932   9.847   3.619  0.7635  0.2177 -0.7644
  473MOL0     C65190   5.972   9.880   3.488 -0.0658 -0.1125 -0.1481
  473MOL0     C65191   6.046  10.231   3.158 -0.5711  0.0227 -0.0673
  473MOL0     C65192   6.156  10.295   3.215  0.1019  0.9222  0.4882
  473MOL0     C65193   6.210  10.405   3.153  0.7588 -0.8389  0.5396
  473MOL0     C65194   6.169  10.457   3.022  0.3313 -0.0907  0.2723
  473MOL0     O65195   6.243  10.540   2.948 -0.9663  0.0619 -0.1615
  473MOL0     C65196   6.369  10.481   2.905 -0.1088  0.0722  0.0056
  473MOL0     C65197   6.354  10.364   2.807 -0.8029 -0.6632  0.1349
  473MOL0     C65198   6.355  10.407   2.655 -0.6525  0.2371  1.1517
  473MOL0     C65199   6.211  10.437   2.609  0.2875  0.9336  0.9854
  473MOL0     C65200   6.126  10.319   2.596 -0.3815  0.0387  0.3633
  473MOL0     C65201   6.047  10.233   2.597  0.3569 -0.9570 -0.1773
  473MOL0     C65202   6.060  10.392   2.972 -0.0396  0.4973  0.6233
  473MOL0     C65203   5.990  10.287   3.046  0.0674 -0.1921  0.5428
  473MOL0     C65204   5.867  10.237   2.978 -0.2698 -0.3142  0.4041
  473MOL0     H65205   6.027  10.206   3.530  1.4299 -0.4077 -1.3509
  473MOL0     H65206   5.928  10.154   3.748 -2.6927 -1.5771  2.0822
  473MOL0     H65207   5.654   9.876   3.823 -0.2889  0.4045  2.1081
  473MOL0     H65208   5.704  10.044   3.783 -1.5848 -0.0096 -0.1066
  473MOL0     H65209   5.698   9.895   4.039  0.7128 -0.0399 -0.5546
  473MOL0     H65210   5.771  10.063   4.028 -0.4240  0.1065 -0.5905
  473MOL0     H65211   5.570  10.164   3.996 -1.9036 -0.5804 -1.7081
  473MOL0     H65212   5.491  10.004   3.981  0.9601  0.7209 -1.0148
  473MOL0     H65213   5.539   9.969   4.247 -1.3691  0.6651  2.2950
  473MOL0     H65214   5.633  10.116   4.243  0.3759 -0.9203  0.3542
  473MOL0     H65215   5.399  10.125   4.349  0.7761 -0.1529  0.5582
  473MOL0     H65216   5.330  10.084   4.193 -0.2067  1.1292 -1.4487
  473MOL0     H65217   5.419  10.314   4.121  3.2233 -3.7611  0.3955
  473MOL0     H65218   5.291  10.319   4.244 -0.3397 -0.8435 -0.1151
  473MOL0     H65219   5.488  10.477   4.282 -3.4719 -0.6434 -3.6749
  473MOL0     H65220   5.571  10.328   4.331 -0.8939 -1.3184 -0.2696
  473MOL0     H65221   5.290  10.384   4.443  0.7524 -0.1680  0.3937
  473MOL0     H65222   5.427  10.290   4.521  2.8389  1.6106  1.2234
  473MOL0     H65223   5.649  10.433   4.563 -0.4614  0.2921 -0.0426
  473MOL0     H65224   5.753  10.586   4.759  1.5305  0.1203 -2.6281
  473MOL0     H65225   5.674  10.743   4.796  0.9961  3.2728 -1.4668
  473MOL0     H65226   5.725  10.799   4.548  0.7380 -2.7784 -2.7696
  473MOL0     H65227   5.867  10.792   4.673 -1.1893 -0.0164  2.1556
  473MOL0     H65228   5.937  10.592   4.578  0.8771  2.2290  1.8506
  473MOL0     H65229   5.795  10.577   4.466  0.5510  1.6679 -1.3562
  473MOL0     H65230   6.013  10.782   4.453 -0.9753  0.5035  2.1894
  473MOL0     H65231   5.984  10.644   4.343  0.4862 -0.8265  0.6665
  473MOL0     H65232   5.719  11.009   4.275 -0.8650  0.3501 -2.3816
  473MOL0     H65233   5.789  11.309   4.210  0.6305  1.0740 -0.6425
  473MOL0     H65234   5.661  11.198   4.157  0.2076 -1.0914 -1.3108
  473MOL0     H65235   5.768  11.289   4.042  3.0068 -1.1078  0.2958
  473MOL0     H65236   6.092  11.438   3.787  0.1885  1.5924  0.7873
  473MOL0     H65237   6.241  11.525   3.618 -1.7642  2.9062  2.4211
  473MOL0     H65238   6.414  11.649   3.557 -0.0494  1.8891 -2.0553
  473MOL0     H65239   6.575  11.623   3.511  0.9279 -1.5084 -2.2550
  473MOL0     H65240   6.412  11.469   3.336 -0.3444 -1.0709  2.9053
  473MOL0     H65241   6.371  11.642   3.331 -1.5277 -2.5965 -1.6979
  473MOL0     H65242   6.589  11.701   3.249  0.3433  0.7682 -3.9195
  473MOL0     H65243   6.552  11.569   3.158  0.1182 -0.1420  0.9438
  473MOL0     H65244   6.732  11.559   3.396  0.2716 -2.9212  3.0140
  473MOL0     H65245   6.775  11.535   3.233  1.9959 -2.5161  1.6260
  473MOL0     H65246   6.768  11.328   3.369 -0.4569 -0.1091  0.2822
  473MOL0     H65247   6.595  11.321   3.378  1.4735  0.0446  2.2928
  473MOL0     H65248   6.725  11.334   3.101  0.3623 -1.7900  0.5298
  473MOL0     H65249   6.558  11.319   3.145  0.5418  2.1524 -1.7414
  473MOL0     H65250   6.622  11.108   3.266 -2.7335 -2.2412 -3.2492
  473MOL0     H65251   6.788  11.121   3.223 -0.7278 -1.2516  1.3379
  473MOL0     H65252   6.572  11.068   3.019  0.6215 -4.9522 -2.9956
  473MOL0     H65253   6.683  10.965   3.090  0.5733  1.4387  1.7805
  473MOL0     H65254   6.559  11.279   3.733 -0.1953 -0.5574  1.4662
  473MOL0     H65255   6.417  11.195   3.931 -1.4388  1.2032  0.4424
  473MOL0     H65256   6.166  10.998   4.076  0.1516  1.1109  0.5590
  473MOL0     H65257   6.090  10.812   4.213 -0.9945  0.0366  0.5487
  473MOL0     H65258   5.893   9.747   3.632  4.1597 -1.1994 -0.2592
  473MOL0     H65259   5.972   9.807   3.408 -0.4852 -0.0374 -0.2182
  473MOL0     H65260   6.188  10.272   3.316  3.9987  2.2231 -0.2943
  473MOL0     H65261   6.292  10.455   3.204  1.0844 -0.3435 -0.4383
  473MOL0     H65262   6.425  10.560   2.853  2.5038 -2.1407 -0.7760
  473MOL0     H65263   6.431  10.452   2.991 -0.8520 -0.0587  0.5021
  473MOL0     H65264   6.260  10.311   2.824 -1.5328  0.8820  1.1509
  473MOL0     H65265   6.429  10.287   2.827  1.1754  0.5390 -2.1307
  473MOL0     H65266   6.413  10.499   2.644  0.9465 -0.0992  5.0506
  473MOL0     H65267   6.405  10.336   2.588  0.9500  0.7111  1.7928
  473MOL0     H65268   6.213  10.482   2.509  1.1918 -2.1331 -0.5386
  473MOL0     H65269   6.171  10.509   2.680 -0.9292  0.8987  0.3570
  473MOL0     H65270   5.969  10.162   2.614  0.2139 -0.7275  0.1351
  473MOL0     H65271   6.025  10.419   2.873  1.0941 -0.3057 -0.0219
  473MOL0     H65272   5.851  10.276   2.878 -2.3153 -2.8539 -0.3652
  473MOL0     H65273   5.872  10.128   2.963 -1.7322  0.0216 -3.5374
  473MOL0     H65274   5.780  10.262   3.040 -0.4362 -1.2438  0.5638
  474MOL0     O65275   4.262   9.631   1.194  0.6890 -1.2670 -0.7994
  474MOL0     C65276   4.357   9.681   1.242 -0.9223 -0.3464 -0.4514
  474MOL0     O65277   4.489   9.671   1.195 -0.9281 -0.7088  0.1944
  474MOL0     C65278   4.533   9.598   1.081  0.3401 -0.8928 -0.3138
  474MOL0     C65279   4.651   9.643   1.025  0.2174 -1.0345  0.5811
  474MOL0     C65280   4.695   9.589   0.904  0.4785 -0.1681 -0.3245
  474MOL0     C65281   4.625   9.468   0.871 -0.6533  0.0824  0.7815
  474MOL0     O65282   4.696   9.403   0.771 -0.7375  0.4922  0.1092
  474MOL0     C65283   4.671   9.269   0.751 -0.5774 -0.1940  0.1826
  474MOL0     C65284   4.545   9.225   0.672  0.9167 -0.6294 -0.3890
  474MOL0     C65285   4.531   9.303   0.545 -0.0816 -0.9514  0.1684
  474MOL0     C65286   4.644   9.306   0.437  0.4159  0.0694  0.2709
  474MOL0     C65287   4.624   9.427   0.342  0.3592 -0.1145  1.0390
  474MOL0     C65288   4.489   9.418   0.264  0.4130  0.6939 -0.3568
  474MOL0     C65289   4.489   9.503   0.147 -0.9721 -0.0720 -0.3891
  474MOL0     C65290   4.450   9.649   0.177  0.1633 -0.8084  0.6917
  474MOL0     N65291   4.310   9.668   0.207  0.3805 -0.0888 -0.5754
  474MOL0     C65292   4.265   9.796   0.230 -0.0423  0.0404 -0.5239
  474MOL0     C65293   4.136   9.782   0.237  0.3039  0.7565 -0.4448
  474MOL0     C65294   4.036   9.901   0.274 -0.2793 -0.5024  0.4430
  474MOL0     C65295   3.894   9.863   0.217  0.1332  0.4221 -0.1318
  474MOL0     C65296   3.805   9.967   0.172  0.1477  0.5492 -0.1657
  474MOL0     C65297   3.723  10.029   0.292  1.1088 -0.2747  0.0605
  474MOL0     O65298   3.817  10.089   0.382 -0.2762 -0.2050 -0.4387
  474MOL0     C65299   3.778  10.161   0.495  0.4538  0.2565  1.0511
  474MOL0     C65300   3.636  10.187   0.520  0.2401 -0.4570 -1.1381
  474MOL0     C65301   3.593  10.251   0.642  0.1643 -0.1575 -1.1523
  474MOL0     C65302   3.441  10.265   0.650  0.6865  0.1110  0.1513
  474MOL0     C65303   3.690  10.291   0.733  0.3349 -0.9119  0.6823
  474MOL0     C65304   3.673  10.347   0.866  0.8504 -0.6895  0.3522
  474MOL0     O65305   3.781  10.415   0.920 -0.0478  0.6247 -1.0859
  474MOL0     C65306   3.764  10.470   1.043 -0.5508  0.0609  0.0432
  474MOL0     C65307   3.709  10.600   1.072 -0.1035 -0.0729  0.4115
  474MOL0     C65308   3.710  10.657   1.195  0.1297 -0.0856 -0.2886
  474MOL0     C65309   3.764  10.587   1.301 -0.2661 -0.9289 -0.6772
  474MOL0     O65310   3.748  10.657   1.414  0.9736 -0.2175  0.0298
  474MOL0     C65311   3.821  10.611   1.527 -0.1126 -0.4075  0.1729
  474MOL0     C65312   3.805  10.724   1.625  0.5763 -0.0111  0.2100
  474MOL0     C65313   3.880  10.854   1.586  0.6444  0.6937 -0.5743
  474MOL0     C65314   3.910  10.932   1.721  1.2577 -0.2586  0.5641
  474MOL0     C65315   3.971  11.073   1.690 -0.0757 -0.7265 -0.1397
  474MOL0     C65316   4.002  11.154   1.819 -0.3321  0.2605  1.0794
  474MOL0     C65317   3.880  11.206   1.887 -0.1912  0.0427 -0.1164
  474MOL0     C65318   3.917  11.282   2.014  1.3554 -0.0746  0.0679
  474MOL0    Cl65319   3.777  11.323   2.102 -0.3049  0.6106  0.5738
  474MOL0     C65320   3.817  10.459   1.283  1.1137  0.9240 -0.4638
  474MOL0     C65321   3.820  10.405   1.153 -0.7219  0.6107  0.0674
  474MOL0     O65322   3.558  10.336   0.916  0.0064  0.1420  0.2748
  474MOL0     C65323   3.827  10.268   0.698 -0.2405 -0.5206  0.2537
  474MOL0     C65324   3.873  10.206   0.588 -0.0793  1.6957  0.5888
  474MOL0     N65325   4.101   9.648   0.243 -0.4417  0.8421 -0.8270
  474MOL0     N65326   4.206   9.579   0.223  0.5810 -0.7725  0.0941
  474MOL0     C65327   4.509   9.421   0.929  0.0887  0.2291 -0.6255
  474MOL0     C65328   4.467   9.482   1.039  0.9110 -1.1050  0.2235
  474MOL0     C65329   4.352   9.740   1.368  0.0138  0.7514 -0.1207
  474MOL0     C65330   4.257   9.684   1.462 -0.2960  0.1891  0.2523
  474MOL0     C65331   4.241   9.733   1.587  0.1767 -0.3449 -0.7103
  474MOL0     C65332   4.303   9.852   1.626  0.2728  0.4179 -0.1266
  474MOL0     O65333   4.276   9.919   1.738 -0.4234  0.5922  0.4586
  474MOL0     C65334   4.226   9.858   1.856  0.1066  0.6982  0.5977
  474MOL0     C65335   4.301   9.921   1.978 -0.9250  0.2944 -1.0035
  474MOL0     C65336   4.338  10.074   1.955  0.2329  0.0403 -0.7241
  474MOL0     C65337   4.484  10.083   1.899 -0.3955  0.4397  0.2702
  474MOL0     C65338   4.528  10.225   1.933  1.2430 -0.4577  0.3985
  474MOL0     C65339   4.582  10.331   1.971 -0.2674 -0.1728 -0.7166
  474MOL0     C65340   4.385   9.908   1.533 -0.0354 -1.1461  0.6961
  474MOL0     C65341   4.412   9.858   1.408  0.0465  0.6862 -0.8051
  474MOL0     C65342   4.507   9.939   1.320  0.0503  0.4537  0.4845
  474MOL0     H65343   4.709   9.722   1.071  0.6622  0.2423 -2.0338
  474MOL0     H65344   4.788   9.618   0.856 -0.8581  1.3208 -2.1596
  474MOL0     H65345   4.684   9.226   0.851 -1.1363 -1.5523 -0.3079
  474MOL0     H65346   4.751   9.226   0.691 -1.0668  0.9112 -1.3264
  474MOL0     H65347   4.554   9.118   0.652 -1.0107 -0.7565 -0.7748
  474MOL0     H65348   4.451   9.247   0.724 -0.8939  1.5525 -4.1778
  474MOL0     H65349   4.442   9.255   0.504 -3.3067  3.2493  1.5865
  474MOL0     H65350   4.510   9.410   0.558 -1.2139 -1.0933 -0.4077
  474MOL0     H65351   4.744   9.313   0.480  0.1656 -0.0918  0.8981
  474MOL0     H65352   4.651   9.216   0.375 -2.6289 -1.7705  2.3090
  474MOL0     H65353   4.712   9.416   0.279  1.2348 -1.9239  2.4690
  474MOL0     H65354   4.624   9.520   0.401  0.2963  2.2155 -2.3610
  474MOL0     H65355   4.477   9.316   0.227  2.1416  1.7513 -4.3730
  474MOL0     H65356   4.406   9.444   0.331  1.5585  0.2966  1.2953
  474MOL0     H65357   4.431   9.467   0.061  1.9485  1.1562 -3.1011
  474MOL0     H65358   4.592   9.495   0.110 -0.7330 -0.3425  0.3235
  474MOL0     H65359   4.513   9.701   0.250  0.1395 -0.9688  0.8281
  474MOL0     H65360   4.472   9.703   0.085  0.0891 -0.5008  0.8506
  474MOL0     H65361   4.330   9.883   0.237  2.4367 -1.7450  0.3191
  474MOL0     H65362   4.078   9.995   0.239 -0.4994 -0.6159 -0.1362
  474MOL0     H65363   4.021   9.909   0.382 -0.9731 -0.3362  0.3406
  474MOL0     H65364   3.905   9.812   0.120 -1.1802 -1.1767  0.5156
  474MOL0     H65365   3.843   9.798   0.289  1.7306  1.3429  1.9215
  474MOL0     H65366   3.866  10.033   0.109  3.0953 -4.3121 -3.0148
  474MOL0     H65367   3.736   9.920   0.101  2.0164 -1.2754 -0.8773
  474MOL0     H65368   3.650  10.095   0.243  0.5316 -1.2486 -0.4211
  474MOL0     H65369   3.666   9.956   0.351  1.7145 -0.6107  0.2350
  474MOL0     H65370   3.557  10.166   0.448 -0.3530  0.0102 -0.6340
  474MOL0     H65371   3.404  10.233   0.747 -2.4799  0.8828 -0.6860
  474MOL0     H65372   3.382  10.210   0.576  1.0033 -2.1084  1.4720
  474MOL0     H65373   3.415  10.370   0.631  2.4097  0.9803  2.1665
  474MOL0     H65374   3.672  10.658   0.988 -0.2171 -2.2956 -1.1416
  474MOL0     H65375   3.676  10.759   1.204  1.4313  0.5542 -2.0693
  474MOL0     H65376   3.777  10.517   1.560 -0.1585 -0.8468 -1.0852
  474MOL0     H65377   3.922  10.592   1.489 -1.0674  1.2588 -3.7302
  474MOL0     H65378   3.697  10.739   1.639  0.3333  2.3920 -3.1195
  474MOL0     H65379   3.846  10.689   1.720  0.6261  1.2797  0.6906
  474MOL0     H65380   3.810  10.907   1.522  0.5498  0.8878 -0.3111
  474MOL0     H65381   3.964  10.830   1.520 -0.3767  0.5585 -1.8425
  474MOL0     H65382   3.978  10.882   1.792  1.5414  0.3325  0.7218
  474MOL0     H65383   3.808  10.937   1.759  0.7594 -0.6204 -0.6731
  474MOL0     H65384   4.069  11.052   1.647 -0.5444 -1.0344 -1.0726
  474MOL0     H65385   3.919  11.133   1.615 -0.8970 -0.7202  0.4194
  474MOL0     H65386   4.066  11.233   1.779 -0.2346  0.5441  1.7813
  474MOL0     H65387   4.062  11.094   1.888 -1.8646  1.2319  3.3985
  474MOL0     H65388   3.826  11.115   1.915  0.5912 -0.7845 -1.2070
  474MOL0     H65389   3.816  11.260   1.817 -0.0774  0.5295  0.1564
  474MOL0     H65390   3.960  11.377   1.983 -0.8215  0.2916 -2.1425
  474MOL0     H65391   3.978  11.221   2.081 -0.2904  0.8998  2.6103
  474MOL0     H65392   3.871  10.409   1.363  0.8634 -0.2140 -0.9871
  474MOL0     H65393   3.872  10.313   1.127 -1.6715 -0.1372  0.7397
  474MOL0     H65394   3.910  10.296   0.762 -0.8464  1.9060  0.0726
  474MOL0     H65395   3.971  10.159   0.593 -0.2426  1.4666  3.7789
  474MOL0     H65396   4.471   9.321   0.912  2.7409 -1.1019  0.5639
  474MOL0     H65397   4.381   9.445   1.094  0.1449 -0.7242 -0.6861
  474MOL0     H65398   4.206   9.592   1.433  1.4601 -0.1508 -1.9637
  474MOL0     H65399   4.168   9.690   1.656  0.1760  1.5625  0.5664
  474MOL0     H65400   4.118   9.876   1.866 -0.4467 -1.3396 -0.9982
  474MOL0     H65401   4.244   9.750   1.864  0.7594  0.7557 -0.0633
  474MOL0     H65402   4.391   9.862   1.999 -1.3596 -0.4550 -1.2016
  474MOL0     H65403   4.224   9.920   2.056 -1.5827  2.2581 -1.5560
  474MOL0     H65404   4.272  10.113   1.877 -3.0475 -3.0529  0.2610
  474MOL0     H65405   4.340  10.132   2.047  0.6233  3.4463 -2.7011
  474MOL0     H65406   4.486  10.077   1.790  1.0764 -0.0405  0.3009
  474MOL0     H65407   4.555  10.015   1.947 -1.3126 -0.9931 -0.3760
  474MOL0     H65408   4.636  10.410   2.020  0.2077 -0.4290 -0.8199
  474MOL0     H65409   4.424  10.006   1.559 -0.7263 -0.2510 -1.4221
  474MOL0     H65410   4.492   9.914   1.215  2.4446 -1.7185  0.5558
  474MOL0     H65411   4.496  10.043   1.354  0.6802  0.2648  1.3006
  474MOL0     H65412   4.609   9.910   1.345 -0.3543 -2.1240 -0.5495
  475MOL0     O65413   2.952   5.750   7.611 -0.2979 -0.3762 -0.5704
  475MOL0     C65414   2.995   5.831   7.695  0.4591  0.2038  0.2775
  475MOL0     O65415   2.940   5.952   7.724  0.1941 -0.1350 -0.7227
  475MOL0     C65416   2.805   5.952   7.727 -0.3640 -1.1207  0.3872
  475MOL0     C65417   2.741   6.002   7.841  0.8952 -0.6248  0.0530
  475MOL0     C65418   2.602   6.018   7.832  0.7660 -0.0080 -0.9676
  475MOL0     C65419   2.522   5.998   7.715 -0.1185  0.4344  0.6873
  475MOL0     O65420   2.386   6.012   7.733 -0.7724 -0.0911 -0.7024
  475MOL0     C65421   2.296   5.970   7.633 -0.0648 -0.0865 -0.6298
  475MOL0     C65422   2.148   5.973   7.669 -0.1215  0.3703 -1.1483
  475MOL0     C65423   2.053   5.916   7.563 -1.2285 -0.5185  0.5627
  475MOL0     C65424   1.902   5.967   7.575 -0.1651  0.3497  0.3354
  475MOL0     C65425   1.850   5.971   7.718 -0.2625  0.9629  0.3888
  475MOL0     C65426   1.710   5.942   7.712  0.1610 -0.7655  0.4835
  475MOL0     C65427   1.643   5.884   7.832  0.0356  0.2320  0.1192
  475MOL0     C65428   1.489   5.876   7.824  0.1170  0.2120  0.2646
  475MOL0     N65429   1.425   6.002   7.846  1.1911 -0.3977 -0.7791
  475MOL0     C65430   1.425   6.072   7.961  0.3581  0.0608 -0.5725
  475MOL0     C65431   1.350   6.188   7.944  0.4182  0.4318  0.3979
  475MOL0     C65432   1.330   6.296   8.038  0.7488 -0.1726 -0.2943
  475MOL0     C65433   1.324   6.434   7.972 -1.1852  0.4590 -0.2419
  475MOL0     C65434   1.449   6.459   7.888  0.0867 -0.3803  0.4044
  475MOL0     C65435   1.403   6.547   7.771 -0.1535  0.3884 -1.4788
  475MOL0     O65436   1.522   6.583   7.697 -0.5150  0.0842  0.3265
  475MOL0     C65437   1.566   6.498   7.595  0.6665  0.4627  0.0446
  475MOL0     C65438   1.524   6.360   7.573  0.1045 -0.5175  0.1844
  475MOL0     C65439   1.573   6.280   7.469 -0.0027  0.7208  0.3789
  475MOL0     C65440   1.489   6.156   7.420  0.0675 -0.0738 -0.1799
  475MOL0     C65441   1.666   6.337   7.377 -0.1054  1.1017  0.2376
  475MOL0     C65442   1.728   6.266   7.263 -0.8325 -0.3956 -0.0705
  475MOL0     O65443   1.701   6.124   7.250 -0.2647  0.3103  0.4898
  475MOL0     C65444   1.795   6.061   7.169 -0.2199 -0.5603 -0.2864
  475MOL0     C65445   1.930   6.046   7.212  0.4827  0.0636  0.7460
  475MOL0     C65446   2.022   5.988   7.122 -0.9184 -0.5885 -0.1925
  475MOL0     C65447   1.986   5.930   7.004 -0.7142  0.2015  0.9204
  475MOL0     O65448   2.069   5.835   6.935  0.3781  0.1248 -0.1826
  475MOL0     C65449   2.200   5.874   6.908 -0.1612  0.5335 -0.1236
  475MOL0     C65450   2.277   5.754   6.843 -0.2867  0.0796 -0.5079
  475MOL0     C65451   2.221   5.715   6.701  0.2016 -1.0993 -0.0442
  475MOL0     C65452   2.065   5.699   6.676  0.4108  0.5945  0.1572
  475MOL0     C65453   2.030   5.635   6.542 -0.6438 -0.0197 -0.6628
  475MOL0     C65454   2.103   5.507   6.531  0.1665  0.5213  0.2193
  475MOL0     C65455   2.017   5.398   6.458 -0.1710 -0.5887  0.2800
  475MOL0     C65456   2.107   5.287   6.416  0.6537  0.5597 -1.0368
  475MOL0    Cl65457   2.009   5.175   6.324 -0.0316  0.2734 -0.2949
  475MOL0     C65458   1.853   5.930   6.966 -0.3534 -0.4916 -0.1696
  475MOL0     C65459   1.756   6.002   7.047 -0.1486  0.2447 -0.5495
  475MOL0     O65460   1.790   6.330   7.176 -0.1786 -0.1681 -0.5666
  475MOL0     C65461   1.711   6.476   7.402  0.0744 -0.6975 -0.4752
  475MOL0     C65462   1.662   6.551   7.511 -1.1956  0.1923  1.0554
  475MOL0     N65463   1.293   6.179   7.814  0.7152 -0.1052  0.3019
  475MOL0     N65464   1.346   6.078   7.761  0.6131  0.2635  0.2006
  475MOL0     C65465   2.589   5.974   7.595 -0.7634  1.0944  0.4756
  475MOL0     C65466   2.722   5.946   7.609 -0.7976 -0.6479  0.0555
  475MOL0     C65467   3.146   5.816   7.743 -0.9239  0.6480 -0.3764
  475MOL0     C65468   3.229   5.937   7.753 -0.2884  0.3829  0.3153
  475MOL0     C65469   3.368   5.925   7.785  0.2672 -1.0736 -0.0044
  475MOL0     C65470   3.436   5.798   7.794  0.4474  0.0276 -0.8500
  475MOL0     O65471   3.566   5.766   7.831 -0.5449 -0.2830  1.0545
  475MOL0     C65472   3.652   5.876   7.869 -0.2963  0.4994 -0.1076
  475MOL0     C65473   3.767   5.892   7.771  0.3908  0.6321 -0.0562
  475MOL0     C65474   3.851   5.768   7.772 -0.6041  0.1304 -0.4649
  475MOL0     C65475   3.965   5.790   7.674  0.0030 -1.2793  0.1612
  475MOL0     C65476   4.066   5.886   7.716 -0.6210  0.3530  0.6651
  475MOL0     C65477   4.171   5.934   7.744 -0.1450 -0.0012  0.4246
  475MOL0     C65478   3.352   5.684   7.781 -0.2495  0.2438  0.4776
  475MOL0     C65479   3.214   5.695   7.762 -0.5373  0.8738  1.0766
  475MOL0     C65480   3.142   5.560   7.793 -0.5836 -0.3540 -0.2231
  475MOL0     H65481   2.797   6.033   7.929 -1.8747  0.5970  1.5382
  475MOL0     H65482   2.557   6.054   7.925  1.3939 -2.0543  0.1781
  475MOL0     H65483   2.326   5.866   7.613  0.4554 -0.3212  1.2100
  475MOL0     H65484   2.314   6.031   7.544 -1.1045  0.3913 -0.5249
  475MOL0     H65485   2.133   5.919   7.763  0.8908  0.8679 -0.6872
  475MOL0     H65486   2.130   6.079   7.690  1.4790  1.1530 -3.3532
  475MOL0     H65487   2.095   5.934   7.463 -1.5867  1.9539  0.8005
  475MOL0     H65488   2.053   5.808   7.581 -0.9345 -0.3550  1.6162
  475MOL0     H65489   1.884   6.070   7.543  0.3705  0.3139 -0.0991
  475MOL0     H65490   1.847   5.896   7.513 -2.3030  1.1767  1.2030
  475MOL0     H65491   1.867   6.063   7.774 -0.5987  1.6450 -0.6005
  475MOL0     H65492   1.912   5.903   7.777 -0.7702  1.5515  1.6530
  475MOL0     H65493   1.655   6.037   7.699 -0.6852 -1.4078 -0.9138
  475MOL0     H65494   1.692   5.875   7.627  2.9949 -3.9080  2.1613
  475MOL0     H65495   1.668   5.943   7.921 -2.5910  2.9838 -0.7815
  475MOL0     H65496   1.674   5.780   7.843 -3.0468 -0.9759 -1.4271
  475MOL0     H65497   1.466   5.843   7.723 -0.2597  2.6860 -0.5332
  475MOL0     H65498   1.449   5.805   7.897  1.4109  0.4258  1.2268
  475MOL0     H65499   1.471   6.043   8.055 -2.6292  0.7404  1.2337
  475MOL0     H65500   1.405   6.293   8.118 -0.4215 -0.0186  0.8304
  475MOL0     H65501   1.228   6.281   8.074  0.3024  2.4958 -0.2764
  475MOL0     H65502   1.228   6.450   7.922 -1.4643 -0.7888 -0.1373
  475MOL0     H65503   1.323   6.511   8.050 -4.0401  0.1697  0.1142
  475MOL0     H65504   1.528   6.499   7.952  0.7694 -1.2216  0.1080
  475MOL0     H65505   1.481   6.362   7.849 -2.4641 -0.6109 -1.4168
  475MOL0     H65506   1.328   6.490   7.716  0.6731 -0.5118 -1.7143
  475MOL0     H65507   1.361   6.640   7.810  1.6724  0.8657 -0.4814
  475MOL0     H65508   1.435   6.325   7.625 -1.5549  0.6602 -1.7033
  475MOL0     H65509   1.406   6.154   7.492 -0.6215  0.1753 -0.9504
  475MOL0     H65510   1.553   6.069   7.433  2.2359  1.5078  0.2643
  475MOL0     H65511   1.461   6.154   7.315  0.7880 -1.8224 -0.3676
  475MOL0     H65512   1.945   6.098   7.306 -2.0933  3.3522 -0.4720
  475MOL0     H65513   2.128   5.995   7.146 -1.3151  1.5025  1.2102
  475MOL0     H65514   2.193   5.952   6.832  0.1265  0.1510 -0.5504
  475MOL0     H65515   2.261   5.915   6.989  1.2121  0.2061 -0.9666
  475MOL0     H65516   2.383   5.781   6.835  0.5491 -2.5205  0.6646
  475MOL0     H65517   2.272   5.667   6.909  0.8705  2.0630  2.3626
  475MOL0     H65518   2.281   5.639   6.650 -0.0132 -0.4912 -1.2371
  475MOL0     H65519   2.237   5.805   6.641 -0.7907 -2.4224 -2.4358
  475MOL0     H65520   2.013   5.795   6.677 -3.1664 -1.0785 -2.4137
  475MOL0     H65521   2.023   5.646   6.762 -1.0394  0.5805 -0.5306
  475MOL0     H65522   1.923   5.614   6.536 -0.0554 -3.2121 -2.5301
  475MOL0     H65523   2.067   5.709   6.470  1.0523  0.3875  0.5562
  475MOL0     H65524   2.140   5.466   6.625 -0.4648 -0.6827 -0.0362
  475MOL0     H65525   2.186   5.533   6.463 -2.2381 -1.8204 -4.0755
  475MOL0     H65526   1.977   5.435   6.363 -2.1385 -4.8292 -0.7739
  475MOL0     H65527   1.945   5.363   6.532  0.5613  0.6001  1.6031
  475MOL0     H65528   2.137   5.233   6.506 -1.2802  0.8995 -0.1436
  475MOL0     H65529   2.192   5.321   6.356  0.8974 -0.7664 -1.4567
  475MOL0     H65530   1.814   5.874   6.882 -3.8149 -0.7514  1.4311
  475MOL0     H65531   1.651   6.012   7.022 -0.4700 -1.7972 -0.1661
  475MOL0     H65532   1.786   6.523   7.340  0.6373 -1.7976 -0.6446
  475MOL0     H65533   1.689   6.654   7.530 -1.1474  0.4510 -0.3138
  475MOL0     H65534   2.533   5.948   7.505 -0.4341 -3.4593  1.3342
  475MOL0     H65535   2.781   5.932   7.519 -0.7809  0.7471 -0.1729
  475MOL0     H65536   3.194   6.038   7.738 -0.4082  0.4754  1.1884
  475MOL0     H65537   3.416   6.022   7.792  0.2824 -0.9293 -1.6587
  475MOL0     H65538   3.607   5.975   7.880  0.1892  0.4844  3.0188
  475MOL0     H65539   3.679   5.847   7.971 -5.4062 -2.6960  0.7072
  475MOL0     H65540   3.825   5.971   7.820 -0.4503  0.7823  0.7368
  475MOL0     H65541   3.731   5.917   7.671  3.5720 -2.0149 -2.0431
  475MOL0     H65542   3.886   5.742   7.872 -2.0571  1.5374  0.4632
  475MOL0     H65543   3.800   5.676   7.741 -0.4808 -0.2223  0.3702
  475MOL0     H65544   3.917   5.828   7.584  0.8210 -2.6721 -0.8929
  475MOL0     H65545   4.015   5.697   7.647  0.4939 -0.7497 -0.8089
  475MOL0     H65546   4.262   5.989   7.750  1.3709 -2.5170  2.2348
  475MOL0     H65547   3.399   5.595   7.823  0.5152  0.6886  0.5734
  475MOL0     H65548   3.033   5.567   7.787 -0.6984 -2.4176 -3.0187
  475MOL0     H65549   3.177   5.486   7.720  0.3290  2.0600 -2.4156
  475MOL0     H65550   3.149   5.529   7.898 -0.2872  2.5224  0.6793
  476MOL0     O65551  10.577   1.354   4.923 -1.0840  0.2794  0.2327
  476MOL0     C65552  10.688   1.311   4.903 -0.2038  0.3035 -0.9451
  476MOL0     O65553  10.747   1.278   4.778 -0.7928 -1.2044 -0.7035
  476MOL0     C65554  10.675   1.289   4.666 -0.4144 -0.6394  0.3629
  476MOL0     C65555  10.740   1.363   4.563 -0.7784  0.1288 -0.4209
  476MOL0     C65556  10.690   1.340   4.434 -0.3756  0.7684  0.7521
  476MOL0     C65557  10.578   1.265   4.402  0.5319  0.0721 -0.8276
  476MOL0     O65558  10.523   1.222   4.284  0.2428 -0.3676 -0.4311
  476MOL0     C65559  10.592   1.252   4.172 -0.0191 -0.1262  1.0830
  476MOL0     C65560  10.472   1.276   4.066  0.2096  0.8240  0.2527
  476MOL0     C65561  10.502   1.331   3.924 -0.9434  0.0355  0.0411
  476MOL0     C65562  10.566   1.217   3.842 -0.2956 -0.1549 -0.3752
  476MOL0     C65563  10.569   1.275   3.700  0.8409 -0.1609  0.3778
  476MOL0     C65564  10.651   1.197   3.603  0.4415  0.6351 -0.1853
  476MOL0     C65565  10.621   1.234   3.457  0.0044 -0.5521 -0.3982
  476MOL0     C65566  10.537   1.139   3.374  0.7256  1.0125 -0.2464
  476MOL0     N65567  10.396   1.153   3.398  1.0859 -0.5885 -0.8444
  476MOL0     C65568  10.307   1.061   3.452 -0.2969  0.6443 -0.1716
  476MOL0     C65569  10.189   1.127   3.455  0.3388  0.0131 -0.3444
  476MOL0     C65570  10.050   1.068   3.488 -1.2081 -0.0277 -0.2674
  476MOL0     C65571   9.939   1.160   3.558 -0.7058  0.6440  0.0684
  476MOL0     C65572   9.984   1.227   3.687 -0.6723 -0.5383  0.3630
  476MOL0     C65573   9.868   1.321   3.721 -0.5590 -0.9567 -0.1207
  476MOL0     O65574   9.746   1.253   3.737  0.3449 -1.0455 -0.0473
  476MOL0     C65575   9.642   1.328   3.785  0.6509  1.5652  0.6140
  476MOL0     C65576   9.567   1.276   3.885  0.0875 -0.3162 -1.0325
  476MOL0     C65577   9.455   1.350   3.933  0.1237 -0.4215 -1.1615
  476MOL0     C65578   9.384   1.294   4.059 -0.1211 -0.5913  0.5476
  476MOL0     C65579   9.410   1.477   3.873 -0.6112  0.8459  0.5029
  476MOL0     C65580   9.299   1.569   3.916  0.3410  0.4867  0.8347
  476MOL0     O65581   9.274   1.677   3.840 -0.5469 -1.2284  0.6527
  476MOL0     C65582   9.216   1.789   3.885 -0.4240  0.0195 -0.2361
  476MOL0     C65583   9.286   1.859   3.989  0.6379 -0.1745  0.0537
  476MOL0     C65584   9.229   1.979   4.028  0.1262 -0.2395 -0.1577
  476MOL0     C65585   9.122   2.038   3.963  0.0395 -0.1613 -0.5319
  476MOL0     O65586   9.077   2.165   3.983  0.4648 -0.5004 -0.5549
  476MOL0     C65587   9.129   2.262   4.086 -0.5830 -1.1955  0.0819
  476MOL0     C65588   9.156   2.392   4.004  1.3371  0.4313  0.4697
  476MOL0     C65589   9.252   2.487   4.066 -0.1239  0.7167 -0.6919
  476MOL0     C65590   9.288   2.602   3.975  0.0821 -0.1669  0.0384
  476MOL0     C65591   9.329   2.738   4.052 -1.0651  0.2920 -0.0200
  476MOL0     C65592   9.475   2.737   4.113 -0.6356 -0.2702  0.7056
  476MOL0     C65593   9.484   2.846   4.220 -0.6886 -0.3348 -0.2573
  476MOL0     C65594   9.452   2.798   4.369 -0.8444  1.0599  0.3198
  476MOL0    Cl65595   9.286   2.726   4.399 -0.1253  0.1079  0.3176
  476MOL0     C65596   9.051   1.968   3.864  0.5301 -0.0022 -0.3050
  476MOL0     C65597   9.109   1.850   3.820  0.2533  1.1505 -0.0941
  476MOL0     O65598   9.247   1.548   4.026  0.3160  0.1245  0.4532
  476MOL0     C65599   9.482   1.511   3.756 -0.7456  0.0977 -0.0741
  476MOL0     C65600   9.597   1.442   3.713 -0.1421 -0.9968 -0.6497
  476MOL0     N65601  10.203   1.257   3.397 -0.4828 -0.9795  0.3302
  476MOL0     N65602  10.327   1.274   3.371 -0.6543  0.5418  0.8822
  476MOL0     C65603  10.508   1.208   4.512  0.8505 -1.0322  0.2009
  476MOL0     C65604  10.554   1.222   4.643 -0.1440  0.0433 -0.6980
  476MOL0     C65605  10.778   1.279   5.027 -1.0221 -0.0661 -0.2259
  476MOL0     C65606  10.920   1.273   4.999 -0.5929 -0.0999 -0.4086
  476MOL0     C65607  11.002   1.266   5.115  1.3040  0.1141 -1.1460
  476MOL0     C65608  10.952   1.258   5.242 -0.1956 -0.2472 -0.1799
  476MOL0     O65609  11.044   1.240   5.341 -0.5588 -0.4264  1.1312
  476MOL0     C65610  11.014   1.281   5.477  0.2827  0.3467  0.4005
  476MOL0     C65611  11.143   1.237   5.544 -0.0896  0.6605  0.0421
  476MOL0     C65612  11.156   1.258   5.699  0.1480 -0.7026 -0.0247
  476MOL0     C65613  11.289   1.226   5.766  0.9027 -0.1487 -1.0990
  476MOL0     C65614  11.337   1.095   5.721 -0.2759  0.2112 -0.1213
  476MOL0     C65615  11.390   0.987   5.678 -0.0311  0.5047  0.1883
  476MOL0     C65616  10.815   1.265   5.269 -0.2778  0.9315 -0.3632
  476MOL0     C65617  10.726   1.269   5.163 -0.6349  0.4922  0.3346
  476MOL0     C65618  10.579   1.279   5.205 -1.1014 -0.0218  0.0551
  476MOL0     H65619  10.823   1.432   4.577  0.4379 -1.6238  1.6094
  476MOL0     H65620  10.733   1.392   4.349  1.0834 -0.3067  0.8033
  476MOL0     H65621  10.652   1.171   4.129  0.4631  0.4126  0.7171
  476MOL0     H65622  10.657   1.340   4.174 -1.5941  1.0907  0.6930
  476MOL0     H65623  10.407   1.189   4.056  1.2470  0.0134  0.4427
  476MOL0     H65624  10.407   1.353   4.108  1.3230  0.9834  1.8055
  476MOL0     H65625  10.405   1.356   3.881 -0.3525  2.6136  0.0530
  476MOL0     H65626  10.573   1.415   3.929 -1.0797  0.2953 -1.8022
  476MOL0     H65627  10.669   1.202   3.877  0.2543  3.3379 -0.1517
  476MOL0     H65628  10.510   1.125   3.858  1.6197 -1.2135  0.5953
  476MOL0     H65629  10.600   1.379   3.710 -4.0472  1.3925  2.2761
  476MOL0     H65630  10.461   1.278   3.682  0.3666  1.4527  2.9759
  476MOL0     H65631  10.756   1.223   3.619  0.8653  1.0804 -3.1528
  476MOL0     H65632  10.659   1.089   3.617  5.3161  0.9569  1.5653
  476MOL0     H65633  10.718   1.247   3.408  0.2819  2.0533  0.6704
  476MOL0     H65634  10.572   1.332   3.449  0.7788 -0.2798 -2.2851
  476MOL0     H65635  10.554   1.153   3.267 -1.8093 -2.5539 -1.3180
  476MOL0     H65636  10.549   1.030   3.382 -0.8789  0.8280 -0.0818
  476MOL0     H65637  10.328   0.963   3.492 -1.7904 -1.5339 -4.1708
  476MOL0     H65638  10.069   0.981   3.552  0.4600 -0.4877 -1.3381
  476MOL0     H65639  10.009   1.013   3.403  1.7510 -3.6802  0.4049
  476MOL0     H65640   9.909   1.230   3.480  0.8319 -0.3762 -1.5321
  476MOL0     H65641   9.849   1.098   3.570 -1.0679  0.9045 -1.2179
  476MOL0     H65642  10.005   1.152   3.764 -2.0182 -1.2531  0.0696
  476MOL0     H65643  10.072   1.290   3.670 -2.5706  2.0242 -0.6473
  476MOL0     H65644   9.874   1.380   3.813 -3.6699 -1.0618  0.2494
  476MOL0     H65645   9.852   1.398   3.645 -1.5427 -1.9689 -0.9665
  476MOL0     H65646   9.608   1.190   3.938  1.8123  1.5247  0.8333
  476MOL0     H65647   9.416   1.191   4.079 -0.3285 -0.8435 -0.3951
  476MOL0     H65648   9.278   1.288   4.035 -0.5624 -0.0861  2.2273
  476MOL0     H65649   9.397   1.363   4.143 -3.7637  2.6454 -1.2452
  476MOL0     H65650   9.374   1.818   4.038  0.6462  0.7724  0.8575
  476MOL0     H65651   9.272   2.041   4.107  0.4537 -0.6000 -0.0450
  476MOL0     H65652   9.050   2.283   4.159 -0.7133 -0.7731 -0.1798
  476MOL0     H65653   9.229   2.245   4.128  0.5139  0.7690 -1.5229
  476MOL0     H65654   9.182   2.377   3.899 -0.1783  3.5539 -0.4732
  476MOL0     H65655   9.065   2.452   3.994  1.6231  0.8094  0.1004
  476MOL0     H65656   9.349   2.440   4.086 -1.1699 -1.0703  0.4872
  476MOL0     H65657   9.218   2.522   4.163  0.7222 -0.1944 -0.0410
  476MOL0     H65658   9.207   2.631   3.908 -1.1084 -0.7356  1.1971
  476MOL0     H65659   9.375   2.585   3.910  0.8413  5.4617 -1.0072
  476MOL0     H65660   9.322   2.831   3.995 -3.1712 -0.1380 -0.5637
  476MOL0     H65661   9.265   2.741   4.141  0.8940 -0.7475  1.5168
  476MOL0     H65662   9.544   2.759   4.031  1.9363 -0.0556  2.7905
  476MOL0     H65663   9.497   2.637   4.151 -1.5234 -0.9694 -0.5726
  476MOL0     H65664   9.418   2.929   4.192 -0.8614 -0.8117 -1.3331
  476MOL0     H65665   9.588   2.877   4.226 -0.7514 -0.3538  1.3283
  476MOL0     H65666   9.447   2.883   4.438 -3.0660  1.4928 -0.3053
  476MOL0     H65667   9.523   2.715   4.381  0.5910  2.2818  0.6761
  476MOL0     H65668   8.965   2.013   3.815 -0.2443 -0.6863  0.3938
  476MOL0     H65669   9.072   1.814   3.724  0.1447 -0.2916  0.4579
  476MOL0     H65670   9.463   1.610   3.715 -0.5849  0.9346  1.7576
  476MOL0     H65671   9.630   1.486   3.620 -2.9431 -1.6434 -2.0384
  476MOL0     H65672  10.424   1.146   4.482 -0.4085  1.5633 -2.1082
  476MOL0     H65673  10.487   1.185   4.720  0.1936  1.9062  0.5552
  476MOL0     H65674  10.964   1.298   4.903 -3.0127 -1.6171 -2.0191
  476MOL0     H65675  11.110   1.276   5.109  1.3520  0.0727 -0.3722
  476MOL0     H65676  10.996   1.388   5.480  2.8693  0.8426  0.8317
  476MOL0     H65677  10.938   1.219   5.525  1.1734 -1.1728 -0.0547
  476MOL0     H65678  11.226   1.288   5.494 -0.4736  1.0010 -0.2546
  476MOL0     H65679  11.170   1.136   5.512  2.6479  1.8563 -1.8710
  476MOL0     H65680  11.113   1.352   5.734 -1.5628 -1.7406  0.8216
  476MOL0     H65681  11.081   1.184   5.730  2.5965 -4.1483 -1.6232
  476MOL0     H65682  11.283   1.218   5.875  0.9212 -0.0273 -1.0896
  476MOL0     H65683  11.362   1.303   5.741 -1.5097  1.9997 -1.8940
  476MOL0     H65684  11.424   0.886   5.665  0.1296  0.6081 -0.1848
  476MOL0     H65685  10.772   1.278   5.368 -2.1594  1.1245 -1.1671
  476MOL0     H65686  10.531   1.366   5.159  1.0256  1.6619  0.8686
  476MOL0     H65687  10.532   1.188   5.166  0.4524 -0.2547 -1.4280
  476MOL0     H65688  10.559   1.288   5.312 -0.8796 -1.3969  0.2319
  477MOL0     O65689   7.824  11.342   1.544 -0.4454  0.6299 -0.0701
  477MOL0     C65690   7.699  11.327   1.563 -0.1318  1.0450  1.5422
  477MOL0     O65691   7.616  11.430   1.607  0.5887 -0.3476  0.7651
  477MOL0     C65692   7.650  11.558   1.570  0.3501 -0.0684 -0.3041
  477MOL0     C65693   7.747  11.627   1.645  1.1366 -0.4020  0.5365
  477MOL0     C65694   7.782  11.753   1.614  0.2505 -0.1568 -1.2227
  477MOL0     C65695   7.728  11.814   1.507 -0.1190  0.0673 -0.1577
  477MOL0     O65696   7.773  11.939   1.474  0.0064  1.2351 -0.6257
  477MOL0     C65697   7.868  11.952   1.374  1.5275  0.3538 -0.6050
  477MOL0     C65698   8.010  11.954   1.436  0.0768  0.1143 -0.5897
  477MOL0     C65699   8.031  12.064   1.545 -0.5220  0.2448 -0.1226
  477MOL0     C65700   8.055  12.202   1.480 -0.1302 -1.1819 -0.3356
  477MOL0     C65701   8.116  12.295   1.580  0.2010 -0.1123 -0.8493
  477MOL0     C65702   8.206  12.397   1.512  0.9988  0.1245 -0.2072
  477MOL0     C65703   8.344  12.348   1.470 -0.5659 -0.3774  0.3590
  477MOL0     C65704   8.442  12.361   1.592  0.4152  0.0764  0.7509
  477MOL0     N65705   8.574  12.320   1.550  0.3323 -0.9508  0.3314
  477MOL0     C65706   8.680  12.403   1.524  0.8366  0.3136 -1.1978
  477MOL0     C65707   8.785  12.324   1.518  0.4976  0.1324  0.6982
  477MOL0     C65708   8.927  12.366   1.512 -0.9394  0.6784 -0.4422
  477MOL0     C65709   8.977  12.446   1.631  0.3103  0.3517 -0.1657
  477MOL0     C65710   9.134  12.459   1.620 -0.8192 -0.1217  0.7299
  477MOL0     C65711   9.179  12.563   1.725 -1.2168  0.6632  0.1488
  477MOL0     O65712   9.146  12.524   1.863  0.2958 -0.2452  0.5832
  477MOL0     C65713   9.237  12.451   1.945 -0.7576 -0.7743  0.2618
  477MOL0     C65714   9.194  12.431   2.073 -0.2614 -1.0416  0.7568
  477MOL0     C65715   9.276  12.384   2.178  0.5020  0.5041 -0.0554
  477MOL0     C65716   9.230  12.395   2.322  1.0400  0.0529  0.2740
  477MOL0     C65717   9.403  12.332   2.138 -0.3051  0.1744  0.9815
  477MOL0     C65718   9.492  12.252   2.228  0.8165 -0.2065 -0.2970
  477MOL0     O65719   9.629  12.262   2.229  0.2461  0.7441 -0.5905
  477MOL0     C65720   9.702  12.226   2.338 -0.4611 -0.1156 -0.3947
  477MOL0     C65721   9.672  12.291   2.455  0.6799  0.4596  0.5686
  477MOL0     C65722   9.746  12.278   2.569 -0.9256  0.4756 -0.2401
  477MOL0     C65723   9.855  12.188   2.576  0.1808 -0.1957  0.1537
  477MOL0     O65724   9.932  12.173   2.687  0.0549  0.3559 -0.2328
  477MOL0     C65725  10.020  12.284   2.700  0.6277  0.1299 -0.9542
  477MOL0     C65726  10.109  12.250   2.821  0.1819  0.0605  1.1617
  477MOL0     C65727  10.037  12.270   2.954 -0.1476  0.1490  0.0804
  477MOL0     C65728  10.129  12.234   3.073  0.2522 -0.8478  0.9858
  477MOL0     C65729  10.074  12.243   3.215 -0.4590  0.5225 -0.6843
  477MOL0     C65730   9.962  12.144   3.260 -0.6978 -0.4230  0.3120
  477MOL0     C65731   9.983  11.990   3.249 -0.0176  0.6176 -0.5327
  477MOL0     C65732  10.116  11.944   3.302  1.1061  0.2082  0.2068
  477MOL0    Cl65733  10.156  11.779   3.239  0.1270 -0.1314 -0.6430
  477MOL0     C65734   9.881  12.114   2.465 -0.4236 -0.8923 -0.2615
  477MOL0     C65735   9.815  12.138   2.340  0.4909  0.0210 -0.1894
  477MOL0     O65736   9.433  12.186   2.314  0.1643  0.5557 -0.3179
  477MOL0     C65737   9.442  12.348   2.000 -0.1697  0.7631  0.8016
  477MOL0     C65738   9.363  12.406   1.909  0.0636  0.9405 -0.7470
  477MOL0     N65739   8.742  12.198   1.541 -0.5189  0.3250 -0.0947
  477MOL0     N65740   8.622  12.197   1.561  0.3462  0.2170  0.1203
  477MOL0     C65741   7.629  11.739   1.426  0.1895 -0.2274  0.1669
  477MOL0     C65742   7.590  11.611   1.459 -0.5597 -0.1277  0.6591
  477MOL0     C65743   7.629  11.200   1.523 -0.4064 -0.0685  0.2235
  477MOL0     C65744   7.493  11.186   1.554 -0.0236 -0.1572  0.4797
  477MOL0     C65745   7.433  11.063   1.554 -0.1894 -0.0155  0.5585
  477MOL0     C65746   7.497  10.944   1.502 -0.1560  0.6333 -0.9636
  477MOL0     O65747   7.415  10.834   1.483  0.2906  0.2112  0.6143
  477MOL0     C65748   7.472  10.721   1.429  1.0479  0.1572  0.7718
  477MOL0     C65749   7.500  10.637   1.556  0.3747  0.4937  0.0532
  477MOL0     C65750   7.551  10.493   1.522 -0.7204 -0.4158  0.3358
  477MOL0     C65751   7.686  10.505   1.444 -0.4668  0.2652  0.3449
  477MOL0     C65752   7.800  10.587   1.480 -0.2064  0.3246  0.4526
  477MOL0     C65753   7.884  10.677   1.508 -0.1432  0.3294 -0.1548
  477MOL0     C65754   7.631  10.960   1.451  0.3393 -0.4957 -0.3098
  477MOL0     C65755   7.695  11.087   1.461 -0.1848 -0.7391  0.2351
  477MOL0     C65756   7.825  11.109   1.400 -0.0626 -0.0142  0.1741
  477MOL0     H65757   7.778  11.584   1.739 -0.8828 -0.5318  1.1876
  477MOL0     H65758   7.869  11.801   1.657 -0.6591  1.4762 -1.1043
  477MOL0     H65759   7.847  12.045   1.320 -1.3743  1.2800  1.8202
  477MOL0     H65760   7.857  11.862   1.312 -0.3131 -1.2086  1.8092
  477MOL0     H65761   8.022  11.857   1.486 -0.9903  1.0868  1.7469
  477MOL0     H65762   8.092  11.960   1.364  0.4770  0.0600 -0.1513
  477MOL0     H65763   7.954  12.061   1.623  1.1311  0.4294  1.5865
  477MOL0     H65764   8.124  12.039   1.598 -0.9699 -1.1252  0.0527
  477MOL0     H65765   8.122  12.184   1.395 -0.6668 -0.8056 -0.8494
  477MOL0     H65766   7.960  12.241   1.443  1.0699  2.1660 -0.2585
  477MOL0     H65767   8.167  12.225   1.648 -0.5771  0.0328 -0.0928
  477MOL0     H65768   8.045  12.360   1.632 -0.2015 -1.2009  0.0219
  477MOL0     H65769   8.155  12.441   1.426 -1.0902 -0.3151  0.7297
  477MOL0     H65770   8.225  12.488   1.569 -0.5657  1.0860 -1.1470
  477MOL0     H65771   8.385  12.412   1.391 -1.8298  1.0914  0.8617
  477MOL0     H65772   8.341  12.244   1.435 -0.3403 -0.0547 -0.6597
  477MOL0     H65773   8.444  12.466   1.622 -0.6408 -0.1192  1.5533
  477MOL0     H65774   8.405  12.306   1.679  1.0948 -1.2362  0.2550
  477MOL0     H65775   8.682  12.512   1.522  0.6612  0.3714  0.5465
  477MOL0     H65776   8.945  12.434   1.428  0.9745  1.8722  0.8671
  477MOL0     H65777   8.983  12.275   1.488 -0.9710  0.0229  1.7206
  477MOL0     H65778   8.935  12.546   1.645  1.5988  1.2867 -2.3955
  477MOL0     H65779   8.960  12.399   1.728 -0.0411  3.2723  1.3133
  477MOL0     H65780   9.175  12.359   1.639 -2.2260 -1.3218 -2.0494
  477MOL0     H65781   9.177  12.497   1.527 -1.9468 -0.9364 -0.1551
  477MOL0     H65782   9.286  12.582   1.708 -1.2509  2.6302  1.7544
  477MOL0     H65783   9.127  12.657   1.704 -1.0924  0.5164 -0.8198
  477MOL0     H65784   9.096  12.473   2.092  0.0485 -0.8323  2.0209
  477MOL0     H65785   9.311  12.408   2.394 -0.0525 -1.1832  1.7707
  477MOL0     H65786   9.180  12.302   2.347  1.0627 -0.9483 -2.9926
  477MOL0     H65787   9.152  12.471   2.331  3.8541  3.3497 -0.6615
  477MOL0     H65788   9.585  12.356   2.450  1.4193  1.4000 -0.3236
  477MOL0     H65789   9.717  12.338   2.655 -0.1744 -0.5921  0.7937
  477MOL0     H65790  10.073  12.292   2.605  1.2640 -0.6849 -0.6818
  477MOL0     H65791   9.981  12.384   2.722  1.1625  0.5128 -1.6980
  477MOL0     H65792  10.149  12.149   2.810  1.4798  0.3873  2.6058
  477MOL0     H65793  10.187  12.326   2.819  1.4866 -1.1955  2.1883
  477MOL0     H65794   9.949  12.206   2.968  0.4544 -0.4854  1.1322
  477MOL0     H65795  10.003  12.373   2.958  3.4769  1.4738  0.1463
  477MOL0     H65796  10.214  12.300   3.056  0.0335 -0.6152  0.7844
  477MOL0     H65797  10.161  12.132   3.050 -0.4345 -0.6812 -0.9348
  477MOL0     H65798  10.151  12.219   3.288 -2.2507 -3.5777  0.1419
  477MOL0     H65799  10.034  12.342   3.241  2.3872  1.5705 -0.0144
  477MOL0     H65800   9.872  12.186   3.213  1.2740  3.5015 -0.3517
  477MOL0     H65801   9.957  12.160   3.368 -2.3159 -2.2447  0.5731
  477MOL0     H65802   9.981  11.975   3.141 -1.6224  1.7480 -0.6829
  477MOL0     H65803   9.895  11.946   3.296  1.3792 -1.5896  0.1778
  477MOL0     H65804  10.123  11.957   3.410 -0.0860 -1.6196  0.5447
  477MOL0     H65805  10.192  12.002   3.249 -0.6322  0.5619 -2.0693
  477MOL0     H65806   9.962  12.043   2.462 -0.2985 -0.7158 -2.2074
  477MOL0     H65807   9.837  12.073   2.256  1.0722  0.7072 -0.5818
  477MOL0     H65808   9.532  12.295   1.968 -0.6001  0.7911 -0.5028
  477MOL0     H65809   9.409  12.409   1.811 -0.4744 -3.2122 -1.3208
  477MOL0     H65810   7.579  11.790   1.344 -1.3357 -0.7182  0.7646
  477MOL0     H65811   7.502  11.564   1.415 -1.6112  1.1922  1.2568
  477MOL0     H65812   7.441  11.265   1.607 -4.5364 -0.8237 -2.4200
  477MOL0     H65813   7.330  11.063   1.589 -0.6448  3.3140 -0.3841
  477MOL0     H65814   7.399  10.681   1.358  0.2887  2.4244  0.2034
  477MOL0     H65815   7.563  10.736   1.370  0.0289  0.8027 -0.7205
  477MOL0     H65816   7.405  10.631   1.611 -0.2418  1.6363 -0.8369
  477MOL0     H65817   7.575  10.695   1.610  4.7100 -2.1126 -2.5635
  477MOL0     H65818   7.570  10.439   1.615 -2.9200  0.5147  1.4137
  477MOL0     H65819   7.476  10.440   1.462  0.8533  1.1382 -3.2618
  477MOL0     H65820   7.666  10.522   1.338 -1.1023  0.4776  0.4978
  477MOL0     H65821   7.720  10.401   1.443 -0.0224  0.4031  0.6709
  477MOL0     H65822   7.948  10.763   1.517 -2.8793  3.0065 -3.6221
  477MOL0     H65823   7.692  10.885   1.400 -0.0321  0.5588 -2.4416
  477MOL0     H65824   7.827  11.194   1.331 -1.1030 -1.7086 -2.0830
  477MOL0     H65825   7.910  11.102   1.469 -2.3134 -0.7015  3.0965
  477MOL0     H65826   7.834  11.023   1.332 -0.6672 -1.4247  1.8046
  478MOL0     O65827   7.802   7.543   9.402  0.4177 -0.1442  0.4649
  478MOL0     C65828   7.900   7.517   9.336  0.3062 -0.2911 -0.3388
  478MOL0     O65829   7.990   7.619   9.288  0.3198  0.0716 -0.2283
  478MOL0     C65830   7.978   7.753   9.304  0.4156  0.5776 -0.7294
  478MOL0     C65831   7.959   7.818   9.433 -0.3000  0.0621  0.2444
  478MOL0     C65832   7.941   7.956   9.437 -0.3537 -0.7734  0.0246
  478MOL0     C65833   7.942   8.037   9.324 -0.6211  0.9294  0.7127
  478MOL0     O65834   7.927   8.170   9.322  0.0078 -0.4777 -0.3483
  478MOL0     C65835   7.921   8.242   9.454 -0.0360  0.8136 -0.8383
  478MOL0     C65836   7.844   8.373   9.421  0.1950  0.0812 -0.1739
  478MOL0     C65837   7.692   8.353   9.390 -0.7078 -0.6430 -0.4598
  478MOL0     C65838   7.614   8.478   9.412  0.4701  0.3348 -0.1877
  478MOL0     C65839   7.456   8.470   9.386 -0.4281 -0.2277  0.5341
  478MOL0     C65840   7.384   8.395   9.506 -0.0021 -0.1440  1.1094
  478MOL0     C65841   7.241   8.387   9.464  0.1034  0.0168 -1.6857
  478MOL0     C65842   7.160   8.344   9.587  0.4714 -1.0129  0.3155
  478MOL0     N65843   7.017   8.343   9.559  0.2362  0.0775  0.6167
  478MOL0     C65844   6.916   8.385   9.641 -0.0956  0.6280  0.6480
  478MOL0     C65845   6.799   8.392   9.566  0.0821 -0.0856  0.3679
  478MOL0     C65846   6.672   8.452   9.609 -0.2334  0.3641 -0.3264
  478MOL0     C65847   6.640   8.407   9.752  0.1408 -1.0355  0.5886
  478MOL0     C65848   6.493   8.391   9.768 -0.1588  0.9364 -0.4884
  478MOL0     C65849   6.465   8.360   9.919  0.5083 -0.2984 -0.2922
  478MOL0     O65850   6.521   8.441  10.021  0.2274 -0.8199 -0.5528
  478MOL0     C65851   6.445   8.543  10.068 -0.0033  0.0678  0.0199
  478MOL0     C65852   6.410   8.543  10.201  0.2334  0.2418 -0.3596
  478MOL0     C65853   6.330   8.640  10.254  0.7647  0.4223  0.2528
  478MOL0     C65854   6.294   8.629  10.405 -0.3109 -0.1189  0.4117
  478MOL0     C65855   6.289   8.745  10.166 -0.4517 -0.6919  0.5827
  478MOL0     C65856   6.209   8.861  10.207 -0.2268  0.6379  0.2055
  478MOL0     O65857   6.195   8.976  10.131 -0.8534  0.8299  0.7457
  478MOL0     C65858   6.166   9.094  10.195 -0.3526  0.8566 -0.0272
  478MOL0     C65859   6.088   9.176  10.129  0.2721  0.0434  0.8154
  478MOL0     C65860   6.074   9.307  10.170  0.1162  0.4421 -0.6716
  478MOL0     C65861   6.110   9.347  10.293 -0.1052 -0.0336  0.3998
  478MOL0     O65862   6.089   9.465  10.354  0.1939  1.1154 -0.4306
  478MOL0     C65863   6.006   9.552  10.291 -0.8346  1.3804  0.0189
  478MOL0     C65864   5.920   9.620  10.396 -0.6540  0.0671 -0.0665
  478MOL0     C65865   5.806   9.541  10.438  0.3235 -0.5014 -1.2615
  478MOL0     C65866   5.708   9.615  10.531 -0.7394 -0.3297  0.3918
  478MOL0     C65867   5.628   9.500  10.612 -0.9498 -0.3940  0.8041
  478MOL0     C65868   5.547   9.577  10.714  0.2553 -0.5624  0.5404
  478MOL0     C65869   5.446   9.501  10.786  0.6541 -0.4769  0.0603
  478MOL0     C65870   5.505   9.430  10.906 -0.1198 -0.0002 -0.6417
  478MOL0    Cl65871   5.558   9.554  11.019 -0.1991  0.2455  0.1782
  478MOL0     C65872   6.183   9.256  10.371  0.3690  0.5847  0.2206
  478MOL0     C65873   6.216   9.132  10.319 -0.0809 -0.6678  0.4504
  478MOL0     O65874   6.146   8.850  10.313 -0.3070 -0.0445 -0.0597
  478MOL0     C65875   6.321   8.744  10.025  0.3103 -0.1460 -0.2685
  478MOL0     C65876   6.404   8.644   9.977 -0.9308  0.0548 -0.2616
  478MOL0     N65877   6.834   8.358   9.433 -0.8465  0.7271 -0.0544
  478MOL0     N65878   6.961   8.338   9.433  0.4175  0.4364 -0.3172
  478MOL0     C65879   7.952   7.973   9.199 -0.4740  0.1811  0.2961
  478MOL0     C65880   7.967   7.834   9.184 -0.3413  0.4300 -0.0992
  478MOL0     C65881   7.947   7.382   9.312 -0.3929 -0.3669 -0.3875
  478MOL0     C65882   8.083   7.366   9.271  0.1503 -0.9045 -1.3237
  478MOL0     C65883   8.142   7.240   9.268 -0.4156 -0.3057 -0.0781
  478MOL0     C65884   8.076   7.120   9.303 -0.1319 -0.7679 -0.0185
  478MOL0     O65885   8.122   6.985   9.292  0.2110  0.4380 -0.1355
  478MOL0     C65886   8.264   6.975   9.251  0.4750 -0.3684  0.5715
  478MOL0     C65887   8.318   6.837   9.249  0.1497 -0.4170  0.2989
  478MOL0     C65888   8.284   6.765   9.125  0.7293  0.7246  1.2862
  478MOL0     C65889   8.162   6.669   9.145 -1.6516  1.0880 -0.1858
  478MOL0     C65890   8.196   6.539   9.213  0.1802 -0.0230 -0.2108
  478MOL0     C65891   8.222   6.432   9.247 -0.1632  0.8262 -0.1129
  478MOL0     C65892   7.942   7.140   9.351  0.4708 -0.3867  0.2384
  478MOL0     C65893   7.874   7.264   9.349 -0.3385  0.5857 -0.1989
  478MOL0     C65894   7.734   7.265   9.405 -1.2304  0.4682  0.4657
  478MOL0     H65895   7.980   7.766   9.526  2.3328  1.5780  0.5695
  478MOL0     H65896   7.911   7.990   9.535  0.8263  2.8925 -0.7324
  478MOL0     H65897   8.020   8.267   9.492 -0.2373  2.4104 -1.2968
  478MOL0     H65898   7.862   8.189   9.530 -0.3084  2.2593  0.0011
  478MOL0     H65899   7.852   8.429   9.515 -1.9336 -2.9385  2.0394
  478MOL0     H65900   7.898   8.431   9.346  4.1253  1.0611  3.0638
  478MOL0     H65901   7.687   8.322   9.285  1.9299  3.1052 -1.8661
  478MOL0     H65902   7.653   8.272   9.454 -0.5352 -0.7978 -0.5490
  478MOL0     H65903   7.623   8.508   9.517 -2.9438 -0.6060  0.5184
  478MOL0     H65904   7.644   8.549   9.335 -1.1122 -1.3061 -2.4248
  478MOL0     H65905   7.438   8.432   9.285  1.3945  0.2441  0.0009
  478MOL0     H65906   7.422   8.574   9.382  1.8108  0.6176  1.6094
  478MOL0     H65907   7.426   8.295   9.507 -1.7964 -1.3207 -4.7021
  478MOL0     H65908   7.409   8.453   9.595  1.9311 -0.5141  0.8375
  478MOL0     H65909   7.248   8.316   9.381  0.2473 -2.0836  0.0340
  478MOL0     H65910   7.192   8.476   9.427  0.0429  1.5607  1.7368
  478MOL0     H65911   7.212   8.252   9.616 -1.2965 -1.6909  1.5393
  478MOL0     H65912   7.183   8.416   9.666 -0.1356  0.8012 -1.0955
  478MOL0     H65913   6.910   8.408   9.747 -1.9516 -0.7520  0.9133
  478MOL0     H65914   6.590   8.426   9.542  1.4153  0.4031 -2.4996
  478MOL0     H65915   6.696   8.559   9.602  1.5408  0.0934  0.8568
  478MOL0     H65916   6.677   8.307   9.776  1.7987 -1.9970 -4.7156
  478MOL0     H65917   6.685   8.482   9.819  1.3623 -2.2956  1.2285
  478MOL0     H65918   6.443   8.483   9.737 -1.2933  1.0677  1.5844
  478MOL0     H65919   6.453   8.301   9.719 -1.5157  0.2504  1.7364
  478MOL0     H65920   6.356   8.359   9.922  0.2989  0.2939 -3.4631
  478MOL0     H65921   6.504   8.263   9.950  2.6395  0.7280  0.4255
  478MOL0     H65922   6.462   8.479  10.271  0.8429  2.3866  1.2564
  478MOL0     H65923   6.350   8.697  10.469 -2.7505  0.7213  1.7945
  478MOL0     H65924   6.324   8.530  10.441 -0.0690 -1.0587 -2.1992
  478MOL0     H65925   6.188   8.624  10.432  0.6486 -2.4279  4.7534
  478MOL0     H65926   6.050   9.160  10.029  0.5064  1.0038  0.5646
  478MOL0     H65927   6.038   9.375  10.093  0.7870 -1.3293 -2.6326
  478MOL0     H65928   6.074   9.630  10.255  0.5016  0.6324  0.8426
  478MOL0     H65929   5.939   9.523  10.209 -1.9011  1.9423  0.6788
  478MOL0     H65930   5.975   9.662  10.481  2.0021 -1.7216 -0.7670
  478MOL0     H65931   5.880   9.711  10.351 -1.5714 -0.0943  0.3890
  478MOL0     H65932   5.844   9.447  10.480 -0.4250 -0.3218 -0.1384
  478MOL0     H65933   5.747   9.511  10.351 -0.3364 -1.3197 -0.5531
  478MOL0     H65934   5.642   9.683  10.477 -2.2060 -2.6438 -0.9163
  478MOL0     H65935   5.761   9.670  10.610 -1.5347 -0.2768  0.8971
  478MOL0     H65936   5.569   9.445  10.537  0.5449 -2.0562  0.7735
  478MOL0     H65937   5.692   9.424  10.658  0.4300  0.0193 -0.3632
  478MOL0     H65938   5.494   9.645  10.647  2.3840 -0.9198 -1.6257
  478MOL0     H65939   5.598   9.639  10.789 -2.0084  2.4575 -0.1901
  478MOL0     H65940   5.406   9.427  10.717 -1.9680  2.1207 -1.4277
  478MOL0     H65941   5.363   9.563  10.821 -2.0777 -3.5537 -0.5742
  478MOL0     H65942   5.587   9.359  10.892  2.5580  2.5033  1.0260
  478MOL0     H65943   5.424   9.361  10.930  1.5937 -2.0473 -0.4149
  478MOL0     H65944   6.219   9.291  10.468 -1.3432 -0.7967  1.4092
  478MOL0     H65945   6.274   9.068  10.385  0.2342 -0.3928  0.4414
  478MOL0     H65946   6.280   8.813   9.952  1.2805  0.4635 -0.2529
  478MOL0     H65947   6.429   8.648   9.871 -0.0175 -0.7113 -0.0917
  478MOL0     H65948   7.969   8.036   9.112 -0.2463  0.7383  0.7387
  478MOL0     H65949   7.969   7.789   9.086 -1.3742 -2.4120  1.0738
  478MOL0     H65950   8.133   7.460   9.249 -3.3063  1.9092  1.5917
  478MOL0     H65951   8.246   7.257   9.239 -0.8811  3.3050 -0.0893
  478MOL0     H65952   8.274   7.022   9.153  0.5369  1.1665  1.2913
  478MOL0     H65953   8.320   7.029   9.328 -1.0158 -3.4466  4.1414
  478MOL0     H65954   8.264   6.791   9.332 -1.2998  3.1576  1.5253
  478MOL0     H65955   8.427   6.821   9.256  0.3734  0.8782 -0.0948
  478MOL0     H65956   8.252   6.836   9.049 -0.2535 -0.1746  0.8336
  478MOL0     H65957   8.371   6.705   9.097  1.3771  1.6309  1.3042
  478MOL0     H65958   8.130   6.633   9.047  0.4169 -2.0727  0.1475
  478MOL0     H65959   8.074   6.716   9.191 -0.5432  1.4242  1.7063
  478MOL0     H65960   8.248   6.331   9.274  0.0573  0.8318 -0.3078
  478MOL0     H65961   7.890   7.049   9.379 -0.3669  0.1208  0.3718
  478MOL0     H65962   7.670   7.313   9.330 -1.6527  0.1528  0.6147
  478MOL0     H65963   7.706   7.164   9.437  3.1122 -1.3460 -0.6557
  478MOL0     H65964   7.729   7.327   9.494 -0.3995  0.0798  0.7886
  479MOL0     O65965   1.809   8.393   7.007  0.6092 -0.2162 -0.1830
  479MOL0     C65966   1.785   8.363   6.888 -1.0484  0.0700  0.0173
  479MOL0     O65967   1.871   8.295   6.803 -0.5643 -0.4092  0.1414
  479MOL0     C65968   2.003   8.287   6.841  1.1891 -0.3218 -0.2431
  479MOL0     C65969   2.102   8.379   6.804  0.2478  1.0101 -0.4742
  479MOL0     C65970   2.233   8.379   6.876 -0.1658  0.7882  0.7939
  479MOL0     C65971   2.263   8.281   6.970 -1.0367 -0.2813  0.1186
  479MOL0     O65972   2.393   8.275   7.023 -0.4245  0.2821  0.1921
  479MOL0     C65973   2.470   8.394   7.030  0.3584 -0.1937  0.1746
  479MOL0     C65974   2.575   8.401   6.912  0.2719 -0.0606  0.1203
  479MOL0     C65975   2.631   8.540   6.896  0.9406  0.2405  0.4929
  479MOL0     C65976   2.527   8.637   6.830  0.9237  0.4161  0.1767
  479MOL0     C65977   2.591   8.782   6.814 -0.6323  0.4816 -0.4113
  479MOL0     C65978   2.629   8.845   6.946  0.5676 -0.2244 -0.3218
  479MOL0     C65979   2.700   8.978   6.915  0.2602  0.1004  0.3579
  479MOL0     C65980   2.693   9.084   7.018  0.5007  0.6464  0.5818
  479MOL0     N65981   2.823   9.100   7.088 -0.2847  0.4114  0.4510
  479MOL0     C65982   2.950   9.092   7.030  0.5762  0.1174 -0.1490
  479MOL0     C65983   3.041   9.123   7.124  0.0053 -0.1217 -0.6697
  479MOL0     C65984   3.192   9.127   7.105 -0.0973 -0.2233 -0.9815
  479MOL0     C65985   3.262   9.262   7.132 -0.0406 -0.5050 -0.3416
  479MOL0     C65986   3.392   9.242   7.205  0.3530 -0.1611  0.1967
  479MOL0     C65987   3.368   9.227   7.352 -0.1051  0.0402  0.2197
  479MOL0     O65988   3.472   9.165   7.414  0.2426 -0.0010 -0.3960
  479MOL0     C65989   3.451   9.104   7.535 -0.4131  0.5994 -0.2595
  479MOL0     C65990   3.339   9.111   7.614 -0.9345 -1.0433  0.2561
  479MOL0     C65991   3.330   9.042   7.740  0.2213 -0.1204  0.3020
  479MOL0     C65992   3.201   9.052   7.824 -0.6844  0.0763 -0.2734
  479MOL0     C65993   3.441   8.966   7.787 -0.5351 -0.3036 -0.1571
  479MOL0     C65994   3.436   8.886   7.907 -0.2930 -0.4574  0.2985
  479MOL0     O65995   3.558   8.860   7.962  0.9431  0.3047  1.1494
  479MOL0     C65996   3.566   8.836   8.098 -0.6230  0.7393 -0.4493
  479MOL0     C65997   3.478   8.880   8.196  0.0937 -0.0995 -0.7736
  479MOL0     C65998   3.501   8.873   8.338  0.1812 -0.5325 -0.1129
  479MOL0     C65999   3.620   8.816   8.381  0.5241  0.4239 -0.2146
  479MOL0     O66000   3.638   8.806   8.511 -0.6105 -0.3757 -0.4516
  479MOL0     C66001   3.531   8.753   8.589 -0.3338  1.4141 -0.3165
  479MOL0     C66002   3.584   8.772   8.734 -0.6218 -0.1696  0.4452
  479MOL0     C66003   3.681   8.662   8.786 -0.0742 -0.6799  1.1607
  479MOL0     C66004   3.727   8.681   8.930  0.1149  0.0118 -0.3251
  479MOL0     C66005   3.815   8.566   8.976  0.1613 -0.4466 -0.0676
  479MOL0     C66006   3.959   8.590   8.940 -1.4737 -0.5811 -0.3556
  479MOL0     C66007   4.054   8.472   8.993 -0.2018 -0.6216  0.1061
  479MOL0     C66008   4.194   8.459   8.932 -0.2844 -0.4686 -0.1304
  479MOL0    Cl66009   4.307   8.382   9.039 -0.0877 -0.3132  0.2600
  479MOL0     C66010   3.712   8.768   8.286 -0.1923  0.6383  0.1652
  479MOL0     C66011   3.685   8.785   8.147 -0.2158 -0.2132 -0.4610
  479MOL0     O66012   3.337   8.825   7.931 -0.1781  0.1661  0.2229
  479MOL0     C66013   3.561   8.979   7.713  0.4695 -0.3087 -0.4679
  479MOL0     C66014   3.568   9.041   7.588  0.5302  0.3192 -1.2059
  479MOL0     N66015   2.964   9.163   7.239  0.0954 -0.5506  0.1990
  479MOL0     N66016   2.836   9.146   7.218  0.3136  0.1828 -0.2303
  479MOL0     C66017   2.164   8.194   6.994 -0.0150 -0.5538  0.5654
  479MOL0     C66018   2.037   8.196   6.936  0.0730 -0.8176  0.0141
  479MOL0     C66019   1.655   8.400   6.834  0.0682 -0.5584  0.2575
  479MOL0     C66020   1.564   8.444   6.930 -0.7178  0.2356  0.1714
  479MOL0     C66021   1.438   8.468   6.894  0.9832 -0.8171  0.0218
  479MOL0     C66022   1.395   8.478   6.759 -0.6328 -0.0658 -0.5543
  479MOL0     O66023   1.272   8.480   6.715 -0.0111 -0.3379  0.5625
  479MOL0     C66024   1.179   8.377   6.768 -0.2668 -0.0637  0.8224
  479MOL0     C66025   1.094   8.326   6.657  0.2878  0.1732  0.1380
  479MOL0     C66026   0.966   8.413   6.643  0.3690 -0.5268 -0.8308
  479MOL0     C66027   0.863   8.412   6.761 -0.0330 -1.0207  1.1102
  479MOL0     C66028   0.735   8.469   6.700 -0.1107 -0.8807 -0.1154
  479MOL0     C66029   0.627   8.479   6.655  0.0212  0.4113  0.2439
  479MOL0     C66030   1.497   8.455   6.663 -0.7105 -0.0518  0.1744
  479MOL0     C66031   1.629   8.423   6.698  1.0279 -0.3141  0.2255
  479MOL0     C66032   1.735   8.421   6.592 -0.2806 -0.6956  0.1338
  479MOL0     H66033   2.090   8.439   6.715 -1.3649 -1.0415 -1.7453
  479MOL0     H66034   2.309   8.452   6.850  3.4989 -1.7169  3.4591
  479MOL0     H66035   2.538   8.381   7.115  1.3261  0.0460 -0.5469
  479MOL0     H66036   2.406   8.482   7.046 -2.1140 -1.6386 -1.0986
  479MOL0     H66037   2.667   8.350   6.942  1.2258  0.8816 -1.0506
  479MOL0     H66038   2.534   8.372   6.815 -0.6937 -0.6266  0.6856
  479MOL0     H66039   2.661   8.582   6.992 -1.3779  2.1365  0.4886
  479MOL0     H66040   2.720   8.535   6.833  0.2160  0.3256 -0.5766
  479MOL0     H66041   2.497   8.596   6.733  1.1893 -1.0858  0.6917
  479MOL0     H66042   2.440   8.635   6.896  0.0188 -4.6647 -0.7513
  479MOL0     H66043   2.527   8.844   6.751 -1.8164 -0.3609 -0.0776
  479MOL0     H66044   2.678   8.761   6.751 -1.3040  0.1502 -1.2422
  479MOL0     H66045   2.534   8.859   6.998 -0.5581 -4.3719 -0.9252
  479MOL0     H66046   2.687   8.776   7.007 -0.4635 -1.0807 -0.2825
  479MOL0     H66047   2.654   9.014   6.822  1.6427  1.7323  0.2686
  479MOL0     H66048   2.805   8.960   6.890 -0.2632  0.8039 -2.8172
  479MOL0     H66049   2.656   9.180   6.982  0.9946  0.5759 -0.1340
  479MOL0     H66050   2.621   9.054   7.094 -1.4984 -0.0234 -1.4542
  479MOL0     H66051   2.976   9.079   6.926 -2.6970  2.7458 -1.4863
  479MOL0     H66052   3.222   9.102   7.003  1.7570 -0.2965 -0.4582
  479MOL0     H66053   3.238   9.057   7.174 -0.5073 -0.3171 -0.8000
  479MOL0     H66054   3.285   9.303   7.033  2.0718 -1.8369 -0.4507
  479MOL0     H66055   3.199   9.341   7.175 -1.0314 -0.1107 -2.3696
  479MOL0     H66056   3.445   9.157   7.162  0.4001 -0.3437  0.6113
  479MOL0     H66057   3.458   9.329   7.196  0.6482 -0.3318  0.6849
  479MOL0     H66058   3.353   9.318   7.409 -0.3014 -0.0444  0.3038
  479MOL0     H66059   3.276   9.171   7.372 -0.7241  1.7045  2.4323
  479MOL0     H66060   3.256   9.170   7.577 -0.0759  0.2859  0.3858
  479MOL0     H66061   3.151   8.957   7.844 -2.8321  1.9342  4.9798
  479MOL0     H66062   3.135   9.127   7.780  1.7359  2.7320  0.2962
  479MOL0     H66063   3.241   9.092   7.918  1.6080  1.3354 -1.6797
  479MOL0     H66064   3.378   8.914   8.170 -0.1621 -0.1921  0.0358
  479MOL0     H66065   3.427   8.921   8.401  1.5615  0.4725  0.8026
  479MOL0     H66066   3.431   8.797   8.579 -0.7511  0.4224 -0.5804
  479MOL0     H66067   3.515   8.647   8.567 -0.0016  0.8193  2.0592
  479MOL0     H66068   3.641   8.865   8.726  1.9059 -1.6598  0.2691
  479MOL0     H66069   3.496   8.791   8.797 -2.3922  3.4689 -2.7129
  479MOL0     H66070   3.775   8.685   8.735 -0.5052 -1.0596  0.1840
  479MOL0     H66071   3.644   8.560   8.774 -2.8954  0.2580  0.9477
  479MOL0     H66072   3.649   8.694   9.005 -0.0345  1.4055 -0.6898
  479MOL0     H66073   3.784   8.774   8.938  2.2178 -1.0010 -2.1857
  479MOL0     H66074   3.807   8.552   9.085 -2.3407  2.3207  0.2360
  479MOL0     H66075   3.780   8.476   8.924  3.4450 -0.7757 -1.9490
  479MOL0     H66076   3.985   8.681   8.994 -2.2677 -1.9118  2.4693
  479MOL0     H66077   3.977   8.626   8.838  1.4783  1.3748  0.7249
  479MOL0     H66078   3.991   8.383   8.977 -1.2143  0.4007 -1.8728
  479MOL0     H66079   4.060   8.479   9.102 -1.9534  0.7437  0.1469
  479MOL0     H66080   4.230   8.559   8.904  2.0240 -1.2689 -0.1979
  479MOL0     H66081   4.184   8.392   8.847  2.0450 -0.4317 -0.4910
  479MOL0     H66082   3.804   8.714   8.307  0.4812  2.3397  1.9254
  479MOL0     H66083   3.758   8.751   8.074 -0.9886  0.4035 -1.5474
  479MOL0     H66084   3.638   8.914   7.753 -0.6510 -0.9797  0.6940
  479MOL0     H66085   3.665   9.040   7.539  0.7378  1.9947 -0.8747
  479MOL0     H66086   2.192   8.113   7.061 -1.3713 -2.4086 -0.9966
  479MOL0     H66087   1.966   8.118   6.963  1.4941 -1.1483  3.1896
  479MOL0     H66088   1.592   8.447   7.035  3.8422 -1.9185 -0.7213
  479MOL0     H66089   1.355   8.484   6.961 -0.7411 -2.7035 -1.5115
  479MOL0     H66090   1.235   8.292   6.807  1.0224 -0.5938 -1.9497
  479MOL0     H66091   1.115   8.408   6.851 -0.1233 -1.6333  1.5528
  479MOL0     H66092   1.065   8.226   6.689 -0.8550  0.4855  0.1113
  479MOL0     H66093   1.142   8.305   6.560 -2.1706  0.5344 -1.2308
  479MOL0     H66094   0.994   8.519   6.640  1.6952 -0.8448 -0.6665
  479MOL0     H66095   0.913   8.373   6.556 -0.7391 -2.3444  0.6062
  479MOL0     H66096   0.890   8.472   6.849 -2.1180  1.7330  0.0021
  479MOL0     H66097   0.848   8.311   6.800  2.0332 -1.1864  1.5829
  479MOL0     H66098   0.532   8.483   6.607  0.2071  1.4251 -0.0709
  479MOL0     H66099   1.460   8.467   6.562 -1.5107  0.5531  0.5288
  479MOL0     H66100   1.781   8.322   6.581  3.3061  0.9401 -1.3600
  479MOL0     H66101   1.702   8.457   6.495 -1.2688  2.7270  1.5884
  479MOL0     H66102   1.813   8.492   6.622 -0.2689 -0.7223  0.1672
  480MOL0     O66103   0.700   4.049   9.159 -0.1107 -0.1390 -0.1466
  480MOL0     C66104   0.728   3.950   9.225 -0.4716  0.1688 -0.0075
  480MOL0     O66105   0.641   3.901   9.316 -0.4861 -0.4346 -0.5655
  480MOL0     C66106   0.511   3.958   9.345 -0.7174  0.3791 -1.6282
  480MOL0     C66107   0.401   3.871   9.328  0.6105 -0.2410 -0.2432
  480MOL0     C66108   0.267   3.917   9.371 -0.0697 -0.2121 -0.4475
  480MOL0     C66109   0.248   4.047   9.412  0.1911 -0.2183 -0.1394
  480MOL0     O66110   0.117   4.093   9.432 -0.4419 -0.4038  0.8720
  480MOL0     C66111   0.101   4.210   9.516 -1.1937  0.2315 -0.4154
  480MOL0     C66112  -0.051   4.214   9.552  0.2042 -0.0606  0.8634
  480MOL0     C66113  -0.125   4.263   9.430 -0.7567 -0.2247  0.1752
  480MOL0     C66114  -0.089   4.404   9.382 -0.2118  0.2560  1.4727
  480MOL0     C66115  -0.066   4.396   9.233  0.1009 -0.1283  1.6276
  480MOL0     C66116  -0.028   4.530   9.168  0.2593 -0.8345 -0.2842
  480MOL0     C66117  -0.059   4.519   9.016  0.0332  0.2990  0.2629
  480MOL0     C66118  -0.039   4.651   8.942 -0.2445  0.0523  0.1826
  480MOL0     N66119  -0.036   4.627   8.795 -0.7461 -0.3104 -0.6270
  480MOL0     C66120   0.058   4.555   8.729 -0.0035 -0.2985  0.1195
  480MOL0     C66121  -0.007   4.516   8.615 -0.5131 -0.8995  0.3009
  480MOL0     C66122   0.054   4.447   8.497 -0.8960  0.1392  0.8285
  480MOL0     C66123   0.092   4.550   8.390  0.0882  0.3319  0.0704
  480MOL0     C66124   0.139   4.502   8.256 -0.4167 -0.5367 -0.4670
  480MOL0     C66125   0.220   4.374   8.255 -0.8918  0.3619  0.5090
  480MOL0     O66126   0.332   4.390   8.356 -0.5435  0.1438  0.0041
  480MOL0     C66127   0.430   4.299   8.343 -0.4597 -0.2940 -0.6277
  480MOL0     C66128   0.439   4.194   8.425 -1.2243  0.2205  0.0292
  480MOL0     C66129   0.542   4.096   8.409  0.6718 -1.2332  0.6568
  480MOL0     C66130   0.550   3.982   8.508 -0.1953  0.7859  0.4031
  480MOL0     C66131   0.641   4.124   8.308  0.2292 -0.1823  0.3571
  480MOL0     C66132   0.738   4.019   8.255 -0.4978  0.3614 -0.0234
  480MOL0     O66133   0.811   4.056   8.151 -0.4898  0.2810  0.5112
  480MOL0     C66134   0.835   3.964   8.052 -0.1077  0.8865  0.8485
  480MOL0     C66135   0.774   3.985   7.928 -0.2626 -0.6819 -0.3347
  480MOL0     C66136   0.809   3.891   7.833  0.0281  0.4329 -0.2889
  480MOL0     C66137   0.885   3.772   7.853 -0.0725  0.4815 -1.1568
  480MOL0     O66138   0.885   3.683   7.750  0.1625 -0.6187  0.6161
  480MOL0     C66139   0.961   3.562   7.759  0.5916  1.3079  1.1103
  480MOL0     C66140   0.911   3.483   7.639  0.4390 -0.0765 -0.3480
  480MOL0     C66141   0.957   3.339   7.661 -0.3692 -0.9914 -0.8836
  480MOL0     C66142   0.978   3.275   7.525  0.3462  0.6144  0.5087
  480MOL0     C66143   1.041   3.137   7.541 -0.0912 -0.7656 -0.4315
  480MOL0     C66144   1.036   3.061   7.412  0.2781  0.1508  1.7813
  480MOL0     C66145   1.081   2.921   7.428  0.2947  0.0816  0.2172
  480MOL0     C66146   1.083   2.853   7.299 -0.0508  0.7035 -1.0245
  480MOL0    Cl66147   1.207   2.926   7.186 -0.4199  0.1434 -0.7679
  480MOL0     C66148   0.947   3.760   7.974  0.6110 -0.4602 -0.3072
  480MOL0     C66149   0.915   3.850   8.080  1.2611  0.8827  0.4934
  480MOL0     O66150   0.716   3.899   8.286  0.1643 -0.1874  0.2906
  480MOL0     C66151   0.623   4.234   8.228 -0.5072  0.4487 -0.8741
  480MOL0     C66152   0.517   4.324   8.240  0.2742  0.3202 -0.3324
  480MOL0     N66153  -0.124   4.570   8.610 -0.0808 -0.4806  0.0945
  480MOL0     N66154  -0.138   4.644   8.716  0.5590 -0.4001 -0.2506
  480MOL0     C66155   0.363   4.131   9.423 -0.9568 -1.2211  0.0253
  480MOL0     C66156   0.493   4.090   9.386 -0.1635 -0.1933  0.7403
  480MOL0     C66157   0.849   3.862   9.216 -0.3624 -0.1755  0.2813
  480MOL0     C66158   0.855   3.735   9.277  0.4806  0.5026 -0.4336
  480MOL0     C66159   0.962   3.651   9.259  1.1689  0.2085 -0.6528
  480MOL0     C66160   1.073   3.680   9.174 -0.2092 -0.7217 -0.3006
  480MOL0     O66161   1.184   3.599   9.142  0.6548 -0.5062 -0.9246
  480MOL0     C66162   1.214   3.492   9.230 -0.3103  0.0376  0.6749
  480MOL0     C66163   1.294   3.534   9.355  0.6707  0.3784  0.8331
  480MOL0     C66164   1.368   3.422   9.434 -0.7019  0.0448 -0.0575
  480MOL0     C66165   1.504   3.379   9.374  0.0766 -0.0567 -0.8761
  480MOL0     C66166   1.566   3.256   9.441 -0.4437  0.2463 -0.6635
  480MOL0     C66167   1.607   3.146   9.488 -0.2776 -0.5000  0.5904
  480MOL0     C66168   1.069   3.799   9.109  0.7674 -0.7283 -0.1994
  480MOL0     C66169   0.957   3.894   9.123 -0.3336 -0.0931 -0.9239
  480MOL0     C66170   0.951   3.999   9.011  0.3108 -0.5853  0.3269
  480MOL0     H66171   0.426   3.771   9.295 -1.8364 -1.3704  1.0170
  480MOL0     H66172   0.180   3.855   9.349 -1.6473  0.9809  2.0113
  480MOL0     H66173   0.144   4.302   9.476 -0.3511  0.7139  1.5049
  480MOL0     H66174   0.149   4.207   9.614 -0.8192 -1.3803 -0.6157
  480MOL0     H66175  -0.088   4.120   9.595 -2.8831  2.0746  3.2582
  480MOL0     H66176  -0.055   4.290   9.630  0.4330  1.2068 -0.3336
  480MOL0     H66177  -0.114   4.186   9.354  0.8845 -1.8610  1.9456
  480MOL0     H66178  -0.232   4.272   9.448 -0.9891 -2.0721 -0.0716
  480MOL0     H66179  -0.168   4.475   9.409 -1.2448  0.3585 -1.4095
  480MOL0     H66180   0.004   4.442   9.426 -1.6453  1.7801  3.3642
  480MOL0     H66181  -0.161   4.375   9.183 -0.7751  2.7368  1.9468
  480MOL0     H66182   0.018   4.329   9.211 -0.0900 -0.5838  2.2277
  480MOL0     H66183  -0.089   4.606   9.218 -0.4378 -1.1288 -0.6732
  480MOL0     H66184   0.078   4.549   9.187 -0.9344  3.2330  4.3521
  480MOL0     H66185  -0.157   4.478   8.991  0.1494 -0.0952  0.4474
  480MOL0     H66186   0.023   4.459   8.976  0.2340 -0.5899  1.9075
  480MOL0     H66187  -0.104   4.732   8.975 -0.0053 -0.0922  1.0444
  480MOL0     H66188   0.064   4.683   8.961 -0.7622  1.8923  0.0963
  480MOL0     H66189   0.160   4.527   8.751 -0.4421 -0.3793  2.3196
  480MOL0     H66190  -0.025   4.390   8.448  0.1855  0.7165 -1.7601
  480MOL0     H66191   0.140   4.386   8.525 -1.1477 -0.9962 -0.7499
  480MOL0     H66192   0.010   4.622   8.377  1.5720  1.9123 -0.9218
  480MOL0     H66193   0.184   4.594   8.429  1.0326 -2.1676  0.8757
  480MOL0     H66194   0.063   4.492   8.178 -0.7663  0.7805 -0.3139
  480MOL0     H66195   0.212   4.571   8.212  2.3682 -1.9090  1.6488
  480MOL0     H66196   0.160   4.285   8.277  0.7511 -0.5663  1.4101
  480MOL0     H66197   0.258   4.376   8.153  0.3158  1.7280  0.9430
  480MOL0     H66198   0.349   4.176   8.483 -1.6507  0.3640 -0.5793
  480MOL0     H66199   0.516   3.999   8.610 -3.9372 -1.2806 -0.3390
  480MOL0     H66200   0.652   3.942   8.516 -1.2119 -1.7940  1.7146
  480MOL0     H66201   0.482   3.905   8.471 -0.2038  1.7129 -1.6559
  480MOL0     H66202   0.717   4.077   7.921  0.5702  0.1857  2.7632
  480MOL0     H66203   0.783   3.888   7.727 -0.7346 -1.6568 -0.1057
  480MOL0     H66204   1.070   3.566   7.753  0.5035  2.8081 -1.4656
  480MOL0     H66205   0.927   3.513   7.850 -0.8735 -1.3767 -0.7218
  480MOL0     H66206   0.802   3.486   7.648  0.1420 -1.4894 -2.6955
  480MOL0     H66207   0.953   3.513   7.543  1.8569 -3.8322 -1.0635
  480MOL0     H66208   0.888   3.277   7.719  2.9837 -4.6393 -0.3713
  480MOL0     H66209   1.051   3.344   7.715 -1.0964  2.9114  0.2849
  480MOL0     H66210   1.036   3.339   7.458  1.3175 -2.8642 -2.3006
  480MOL0     H66211   0.880   3.257   7.480 -0.1902  0.0498  1.8503
  480MOL0     H66212   1.148   3.154   7.555  0.1416 -2.4175  0.0177
  480MOL0     H66213   0.988   3.079   7.617  0.3786  2.7714  2.9153
  480MOL0     H66214   1.100   3.117   7.343 -0.2636 -0.5972  0.6177
  480MOL0     H66215   0.936   3.064   7.367  0.1582 -0.6800  1.9791
  480MOL0     H66216   1.018   2.856   7.489  2.4194  0.0693  2.5521
  480MOL0     H66217   1.179   2.920   7.477 -0.2545  1.6622  1.4351
  480MOL0     H66218   0.988   2.861   7.247 -1.3054  3.2701  1.4021
  480MOL0     H66219   1.104   2.745   7.301 -2.5566  0.1485 -1.6005
  480MOL0     H66220   1.031   3.693   7.990  0.7729 -0.5000 -1.2691
  480MOL0     H66221   0.959   3.852   8.179  2.0183  2.2103  0.1545
  480MOL0     H66222   0.678   4.260   8.138 -0.2362  3.9953  0.1517
  480MOL0     H66223   0.503   4.409   8.174 -1.5216 -0.6566 -1.2893
  480MOL0     H66224   0.347   4.235   9.447 -2.9370 -1.0941 -1.5204
  480MOL0     H66225   0.575   4.162   9.381  1.4369 -1.8299  1.9496
  480MOL0     H66226   0.776   3.702   9.344  2.5416 -1.8478  1.0243
  480MOL0     H66227   0.964   3.555   9.310  1.5418  0.8843  0.6172
  480MOL0     H66228   1.125   3.436   9.262 -1.1076  0.2336 -1.0680
  480MOL0     H66229   1.287   3.428   9.178  0.4503  2.2300 -1.1127
  480MOL0     H66230   1.239   3.606   9.416 -2.1262  1.8590 -2.9618
  480MOL0     H66231   1.381   3.590   9.318  1.2815 -0.2704  1.2665
  480MOL0     H66232   1.388   3.459   9.535  1.6239 -1.7109  0.2180
  480MOL0     H66233   1.308   3.330   9.437  1.7582 -1.7275 -1.2561
  480MOL0     H66234   1.568   3.467   9.386 -0.3874  0.1921 -0.2004
  480MOL0     H66235   1.500   3.377   9.264  2.0567  1.9725 -1.0575
  480MOL0     H66236   1.636   3.058   9.542 -3.0236 -0.7493  1.8592
  480MOL0     H66237   1.136   3.830   9.029 -0.3150 -0.6869 -1.1268
  480MOL0     H66238   0.864   3.985   8.946  0.0504 -0.7877  0.7145
  480MOL0     H66239   0.960   4.102   9.048  1.0584 -1.9487  4.4981
  480MOL0     H66240   1.034   3.989   8.940  0.0835 -0.7260  0.0783
  481MOL0     O66241   3.583   7.149   1.234  0.8886  0.4849 -0.2598
  481MOL0     C66242   3.587   7.164   1.356  0.0256 -0.1177  0.7864
  481MOL0     O66243   3.640   7.074   1.438 -0.4118  0.5214  0.0058
  481MOL0     C66244   3.709   6.965   1.388  0.5082  1.4061 -0.1706
  481MOL0     C66245   3.816   6.992   1.319 -0.4090  0.3970 -0.1582
  481MOL0     C66246   3.891   6.894   1.255  0.1497  0.9243  0.7191
  481MOL0     C66247   3.861   6.754   1.263  0.5017 -0.6284 -0.6211
  481MOL0     O66248   3.935   6.659   1.195  0.5962 -0.3194  1.7695
  481MOL0     C66249   4.022   6.694   1.091 -0.3713  0.3884  0.2888
  481MOL0     C66250   4.023   6.584   0.979 -0.1412 -0.9773  0.7027
  481MOL0     C66251   3.893   6.519   0.963  0.5280  0.0703 -0.3202
  481MOL0     C66252   3.910   6.411   0.853  0.5917  0.0655 -0.0516
  481MOL0     C66253   3.772   6.337   0.841  0.3650 -1.1199  0.3531
  481MOL0     C66254   3.779   6.238   0.729 -0.1365  0.1274 -0.5290
  481MOL0     C66255   3.671   6.132   0.758 -0.0260  0.8664  0.3809
  481MOL0     C66256   3.640   6.032   0.637 -1.0972 -0.0893 -0.7711
  481MOL0     N66257   3.750   5.932   0.637  0.7835 -0.7854  0.2891
  481MOL0     C66258   3.884   5.942   0.602  1.0887 -0.1940 -0.2736
  481MOL0     C66259   3.938   5.813   0.623 -0.2032  1.0581  0.2490
  481MOL0     C66260   4.075   5.766   0.570  0.4025  0.6037 -0.1782
  481MOL0     C66261   4.180   5.754   0.684  0.1284  0.1458  0.5321
  481MOL0     C66262   4.222   5.895   0.710 -1.1411  0.0999  0.3452
  481MOL0     C66263   4.352   5.904   0.800 -0.9378 -0.0427 -0.4249
  481MOL0     O66264   4.320   5.905   0.935  0.5449 -0.0527  0.0720
  481MOL0     C66265   4.376   6.012   1.002  0.7654 -0.3004 -0.5453
  481MOL0     C66266   4.510   6.036   1.026  0.4311  0.2170 -0.8799
  481MOL0     C66267   4.553   6.155   1.089 -0.1130  0.2422 -0.0763
  481MOL0     C66268   4.709   6.169   1.108 -0.2141 -1.2002 -0.4916
  481MOL0     C66269   4.453   6.259   1.125 -0.6105 -0.1556 -1.0730
  481MOL0     C66270   4.492   6.392   1.188 -0.7726  0.9037 -0.0368
  481MOL0     O66271   4.384   6.473   1.214  0.0569  0.0490  0.0977
  481MOL0     C66272   4.409   6.596   1.259 -0.1555 -0.1877  0.8850
  481MOL0     C66273   4.507   6.685   1.201  1.0760 -0.1674  0.2498
  481MOL0     C66274   4.513   6.815   1.243 -0.3246  0.0872 -0.2600
  481MOL0     C66275   4.415   6.873   1.324  0.0066  0.1322 -0.5753
  481MOL0     O66276   4.418   7.007   1.356  0.3329 -0.4471 -0.2101
  481MOL0     C66277   4.303   7.066   1.398  0.5993  0.0765 -0.5336
  481MOL0     C66278   4.309   7.229   1.400 -0.0829  0.4113 -0.7967
  481MOL0     C66279   4.171   7.299   1.378  0.2285  0.7474  0.7452
  481MOL0     C66280   4.087   7.311   1.508  0.6783 -0.1820  0.7852
  481MOL0     C66281   3.929   7.336   1.485  0.3731  0.6771 -1.2425
  481MOL0     C66282   3.846   7.289   1.612  0.5453 -0.2102 -0.0122
  481MOL0     C66283   3.874   7.377   1.739  0.1103  0.2748 -0.5595
  481MOL0     C66284   3.782   7.504   1.749 -0.6570  1.3749  0.0088
  481MOL0    Cl66285   3.627   7.468   1.835 -0.1279 -0.1033 -0.4133
  481MOL0     C66286   4.314   6.784   1.374  0.6926 -0.0398 -1.5788
  481MOL0     C66287   4.318   6.644   1.344  0.6725 -0.5190 -0.8446
  481MOL0     O66288   4.601   6.391   1.242  0.3181  0.1727 -0.4172
  481MOL0     C66289   4.321   6.223   1.102 -0.9233  0.6532  0.8670
  481MOL0     C66290   4.275   6.111   1.032 -0.6426 -0.1507  0.0923
  481MOL0     N66291   3.833   5.726   0.650  0.1735 -0.4270 -0.4732
  481MOL0     N66292   3.720   5.801   0.660  0.5464  0.2565 -0.0237
  481MOL0     C66293   3.747   6.732   1.340  1.2573  0.8212  0.0438
  481MOL0     C66294   3.673   6.834   1.397  0.2261 -0.7447  0.2324
  481MOL0     C66295   3.505   7.271   1.421  0.5774  0.8708 -0.2573
  481MOL0     C66296   3.451   7.253   1.553  0.5640  0.3164 -0.7028
  481MOL0     C66297   3.361   7.345   1.607 -0.1208  0.8581 -0.3308
  481MOL0     C66298   3.315   7.457   1.539  0.1766  0.3622 -0.7906
  481MOL0     O66299   3.240   7.555   1.612 -1.2837  0.4301  0.5183
  481MOL0     C66300   3.229   7.688   1.556 -0.7256  0.5473 -0.2743
  481MOL0     C66301   3.359   7.772   1.588 -0.4770  0.2026 -0.5223
  481MOL0     C66302   3.382   7.771   1.744 -0.1125  0.1453  0.5975
  481MOL0     C66303   3.513   7.840   1.772  1.1291  0.1725 -0.7336
  481MOL0     C66304   3.507   7.984   1.715 -0.3334 -0.0734 -1.2093
  481MOL0     C66305   3.507   8.099   1.692 -0.5368 -0.3143 -1.3155
  481MOL0     C66306   3.377   7.478   1.410 -0.1957  0.4997 -0.5946
  481MOL0     C66307   3.473   7.391   1.351  0.1503  0.8878  0.4633
  481MOL0     C66308   3.526   7.424   1.211  0.9022  0.5187  0.1219
  481MOL0     H66309   3.842   7.097   1.322  1.3337  0.0075 -0.6190
  481MOL0     H66310   3.973   6.932   1.196 -0.3341  2.4821  1.0178
  481MOL0     H66311   4.123   6.716   1.127  0.0836 -1.3129  0.1586
  481MOL0     H66312   3.980   6.781   1.041  3.0831  2.4925  0.6974
  481MOL0     H66313   4.052   6.638   0.889  2.0718  1.1153  2.5143
  481MOL0     H66314   4.102   6.511   1.001 -0.1141 -0.8867  0.9061
  481MOL0     H66315   3.866   6.463   1.053  2.4546  0.0747  0.3191
  481MOL0     H66316   3.819   6.594   0.933  1.7838  2.3218  1.7173
  481MOL0     H66317   3.936   6.455   0.756 -0.0943 -1.0086 -0.7535
  481MOL0     H66318   3.986   6.343   0.895 -0.1095  0.2104  1.4816
  481MOL0     H66319   3.698   6.411   0.809 -0.6405 -2.3922 -0.3462
  481MOL0     H66320   3.743   6.298   0.939 -1.0188 -0.7757  0.1066
  481MOL0     H66321   3.767   6.291   0.635 -0.1227  0.9016 -0.1022
  481MOL0     H66322   3.877   6.190   0.726 -1.2973 -2.3870 -1.2234
  481MOL0     H66323   3.579   6.185   0.784  0.9997  2.1101  1.6312
  481MOL0     H66324   3.692   6.080   0.852 -0.5410  2.9994  1.7467
  481MOL0     H66325   3.547   5.984   0.670  0.9056 -2.1063  2.4750
  481MOL0     H66326   3.631   6.085   0.542 -0.6782  0.4495 -0.5158
  481MOL0     H66327   3.947   6.023   0.568  2.8327 -0.7629  1.4353
  481MOL0     H66328   4.110   5.819   0.481 -0.3764  2.0062  0.3267
  481MOL0     H66329   4.087   5.664   0.531 -0.9907 -0.2108  1.4023
  481MOL0     H66330   4.145   5.703   0.774 -1.7825 -0.6377 -0.5993
  481MOL0     H66331   4.258   5.690   0.641 -3.2956 -2.3247 -2.5922
  481MOL0     H66332   4.253   5.948   0.619 -0.8697  1.8953  1.4224
  481MOL0     H66333   4.139   5.952   0.751 -0.8012  4.1663 -3.7819
  481MOL0     H66334   4.419   5.820   0.783 -1.0269 -0.3140  0.4807
  481MOL0     H66335   4.390   6.003   0.772 -0.5627  0.7243  2.4773
  481MOL0     H66336   4.568   5.958   0.980  0.6487  0.2048 -0.5860
  481MOL0     H66337   4.753   6.267   1.089  2.3350 -2.5596 -2.1332
  481MOL0     H66338   4.764   6.100   1.044  0.1594  0.1824 -1.7026
  481MOL0     H66339   4.737   6.144   1.211  3.1372 -0.4518 -1.1079
  481MOL0     H66340   4.583   6.647   1.134  0.5407  0.5956 -0.8049
  481MOL0     H66341   4.580   6.886   1.195 -1.0296  0.7508 -0.2825
  481MOL0     H66342   4.224   7.044   1.325  0.3044 -0.1542 -0.1513
  481MOL0     H66343   4.275   7.036   1.500  0.2886 -0.1716 -0.6895
  481MOL0     H66344   4.343   7.256   1.500  1.6483 -1.2390 -0.8848
  481MOL0     H66345   4.382   7.251   1.322  1.1800 -0.5720  0.0603
  481MOL0     H66346   4.112   7.241   1.306 -1.3785  0.8564  1.9016
  481MOL0     H66347   4.181   7.399   1.335 -2.2766  0.0300 -1.8661
  481MOL0     H66348   4.130   7.396   1.561  1.8032 -0.0673 -0.2765
  481MOL0     H66349   4.116   7.227   1.572  0.2371 -0.9157  0.0400
  481MOL0     H66350   3.917   7.443   1.467 -1.6019  0.6328 -0.4482
  481MOL0     H66351   3.888   7.292   1.393 -1.4603 -0.7261  0.1630
  481MOL0     H66352   3.853   7.181   1.629  0.1151  0.0000  1.6923
  481MOL0     H66353   3.742   7.307   1.584  0.1508  1.0885  2.1154
  481MOL0     H66354   3.977   7.409   1.759  0.4211 -0.1857 -1.3500
  481MOL0     H66355   3.854   7.299   1.814 -1.0692 -0.5643 -1.7043
  481MOL0     H66356   3.754   7.525   1.645 -1.4477 -4.0336 -1.1486
  481MOL0     H66357   3.831   7.586   1.803  0.6180  1.0131 -0.5735
  481MOL0     H66358   4.235   6.822   1.439  1.3202 -0.7190 -0.3809
  481MOL0     H66359   4.244   6.579   1.387 -0.7730  1.9971  0.7253
  481MOL0     H66360   4.242   6.290   1.134 -1.0920  1.7899 -1.6993
  481MOL0     H66361   4.172   6.094   1.001 -0.5145  0.8481 -0.9756
  481MOL0     H66362   3.717   6.629   1.355  3.0088  0.2411 -0.2231
  481MOL0     H66363   3.583   6.806   1.451  1.8176 -2.2052  2.3183
  481MOL0     H66364   3.479   7.172   1.620  3.3800  0.5493 -1.4802
  481MOL0     H66365   3.319   7.336   1.706  0.5586  0.2223 -0.0916
  481MOL0     H66366   3.215   7.695   1.447 -2.3539  1.8471 -0.0218
  481MOL0     H66367   3.136   7.734   1.591 -1.2695 -0.2130 -0.6970
  481MOL0     H66368   3.349   7.876   1.557 -0.8629  0.0635 -0.8742
  481MOL0     H66369   3.436   7.736   1.519 -0.0729  0.5985 -0.2899
  481MOL0     H66370   3.297   7.817   1.794 -0.6526 -1.0544  0.8266
  481MOL0     H66371   3.399   7.670   1.782  1.6801 -0.7469 -2.2144
  481MOL0     H66372   3.580   7.795   1.699  2.5567 -1.1546  1.2713
  481MOL0     H66373   3.558   7.825   1.871  0.1041  1.0601 -0.1135
  481MOL0     H66374   3.501   8.205   1.705  0.2979 -0.3539 -0.5011
  481MOL0     H66375   3.340   7.554   1.341  1.2235  1.9275  0.1518
  481MOL0     H66376   3.501   7.345   1.140  1.8360  0.9783 -0.7553
  481MOL0     H66377   3.482   7.519   1.178  0.8657  1.8850  3.6537
  481MOL0     H66378   3.633   7.450   1.215  1.2106  0.2179 -3.4469
  482MOL0     O66379   8.953  11.007   0.957  0.1537  0.2439  0.1131
  482MOL0     C66380   8.883  11.021   1.057  0.5232  0.7755  0.5170
  482MOL0     O66381   8.920  11.043   1.187 -0.2832  0.3817  0.0437
  482MOL0     C66382   9.051  11.076   1.227 -0.4658 -0.4419 -0.1602
  482MOL0     C66383   9.070  11.171   1.326  0.1555  0.3893 -0.6163
  482MOL0     C66384   9.202  11.217   1.363 -1.2499  0.2959  0.3853
  482MOL0     C66385   9.311  11.151   1.300  0.3082  0.6422 -0.6576
  482MOL0     O66386   9.440  11.183   1.333 -0.6478  0.0355  0.1753
  482MOL0     C66387   9.472  11.151   1.466 -1.2318 -0.1581  0.4965
  482MOL0     C66388   9.627  11.166   1.489  0.0799 -0.2038 -0.3075
  482MOL0     C66389   9.678  11.319   1.477  0.5262 -0.0124  1.1585
  482MOL0     C66390   9.820  11.349   1.528 -0.5820  0.4148 -0.1790
  482MOL0     C66391   9.834  11.500   1.530 -0.2024  0.2054  0.2279
  482MOL0     C66392   9.894  11.560   1.415 -0.1922 -0.3614 -0.1200
  482MOL0     C66393   9.930  11.706   1.435  0.9098 -0.5913 -0.6091
  482MOL0     C66394   9.806  11.803   1.442 -0.3527 -0.1538  0.8720
  482MOL0     N66395   9.720  11.808   1.320 -0.3960  0.4583  0.4463
  482MOL0     C66396   9.765  11.861   1.198 -0.1107  0.0708  0.6482
  482MOL0     C66397   9.671  11.827   1.115  0.0508  0.9643  0.1103
  482MOL0     C66398   9.650  11.857   0.971 -0.5324 -1.6748  0.6775
  482MOL0     C66399   9.770  11.834   0.874 -0.5494 -0.2461 -0.3778
  482MOL0     C66400   9.762  11.925   0.746 -0.7007  0.3785 -0.4334
  482MOL0     C66401   9.658  11.869   0.659  1.1700  0.3344  0.3365
  482MOL0     O66402   9.707  11.859   0.522 -1.5527  0.3730 -0.8096
  482MOL0     C66403   9.673  11.753   0.450 -0.1925 -0.0473  0.5462
  482MOL0     C66404   9.772  11.687   0.377  0.6494 -0.0020  0.1485
  482MOL0     C66405   9.741  11.577   0.296  0.3884 -0.3205  1.3432
  482MOL0     C66406   9.853  11.522   0.209  0.1202  0.7005  0.6729
  482MOL0     C66407   9.604  11.530   0.296  0.0192 -0.4026  1.4284
  482MOL0     C66408   9.560  11.408   0.210 -0.3583  0.9493 -1.5307
  482MOL0     O66409   9.657  11.322   0.153 -0.3001  0.4536  0.6671
  482MOL0     C66410   9.613  11.207   0.086  0.2071 -0.5570 -0.5072
  482MOL0     C66411   9.611  11.079   0.149 -0.0220 -0.5910  0.2424
  482MOL0     C66412   9.580  10.971   0.064 -0.0680 -0.2149 -0.6176
  482MOL0     C66413   9.543  10.983  -0.068 -0.0865 -0.6713  0.4930
  482MOL0     O66414   9.499  10.887  -0.155 -0.2600 -0.1231  0.2021
  482MOL0     C66415   9.419  10.761  -0.120  0.2233 -0.3261  0.2406
  482MOL0     C66416   9.376  10.693  -0.244 -0.0999  0.5273  0.3390
  482MOL0     C66417   9.262  10.761  -0.321 -0.6321 -0.1896  0.1053
  482MOL0     C66418   9.135  10.790  -0.250  0.1476 -0.6359 -0.3116
  482MOL0     C66419   9.030  10.864  -0.349  1.1445 -0.4590  0.6080
  482MOL0     C66420   8.976  10.989  -0.284  0.9196 -0.0311 -0.5066
  482MOL0     C66421   8.843  10.956  -0.212 -0.2158 -0.2906 -0.3578
  482MOL0     C66422   8.726  11.058  -0.256 -0.6418  0.1002  0.3630
  482MOL0    Cl66423   8.702  11.045  -0.440 -0.2316 -0.3457  0.0935
  482MOL0     C66424   9.524  11.107  -0.120 -0.4103 -0.0372 -0.3487
  482MOL0     C66425   9.569  11.222  -0.048  0.2491  0.5863  0.3344
  482MOL0     O66426   9.439  11.389   0.200  0.5067  0.4221  0.0047
  482MOL0     C66427   9.501  11.602   0.352 -0.4144 -0.3738 -0.5109
  482MOL0     C66428   9.540  11.717   0.428  0.5140 -0.9456  0.0179
  482MOL0     N66429   9.567  11.760   1.179  1.0785 -0.4612  0.1649
  482MOL0     N66430   9.602  11.749   1.308  0.0255  0.7633  0.5407
  482MOL0     C66431   9.292  11.066   1.193  0.3081 -0.1738  0.3150
  482MOL0     C66432   9.162  11.030   1.152 -0.9115  0.3942  0.7412
  482MOL0     C66433   8.747  10.992   1.030  0.1249 -1.0550  0.1947
  482MOL0     C66434   8.645  11.089   1.055 -0.5571 -0.3961 -0.5093
  482MOL0     C66435   8.511  11.061   1.027  0.1450 -0.6630  0.2482
  482MOL0     C66436   8.487  10.931   0.976 -0.6294 -0.5480 -0.2402
  482MOL0     O66437   8.360  10.891   0.946  0.1722  0.6058  0.2603
  482MOL0     C66438   8.247  10.986   0.974  0.0655  0.5533 -1.2867
  482MOL0     C66439   8.107  10.930   0.938  0.5514 -0.1056 -0.4405
  482MOL0     C66440   8.067  10.795   0.998  0.5506  0.1449 -0.0322
  482MOL0     C66441   7.982  10.694   0.913 -0.3029  0.0940  0.1821
  482MOL0     C66442   8.067  10.587   0.856  0.6653 -0.5145  0.0214
  482MOL0     C66443   8.129  10.493   0.827 -0.4923  0.9044 -0.7921
  482MOL0     C66444   8.590  10.847   0.934  0.4610 -0.0923 -0.0969
  482MOL0     C66445   8.716  10.868   0.981 -0.8713  0.0415  0.7374
  482MOL0     C66446   8.823  10.762   0.951 -1.2303  0.2307 -0.5066
  482MOL0     H66447   8.977  11.216   1.360 -2.3020 -3.3355 -1.8398
  482MOL0     H66448   9.221  11.291   1.440  3.7108  0.6599 -0.8171
  482MOL0     H66449   9.439  11.051   1.496  0.4584 -1.6252 -2.0790
  482MOL0     H66450   9.420  11.226   1.526  0.5837  0.3770  1.4751
  482MOL0     H66451   9.671  11.111   1.573 -1.4127  0.0139  0.6688
  482MOL0     H66452   9.672  11.118   1.402  2.5749  0.9089  0.2758
  482MOL0     H66453   9.689  11.332   1.369  2.8652  0.2481  1.3845
  482MOL0     H66454   9.600  11.387   1.513 -0.4500 -0.0256 -0.7592
  482MOL0     H66455   9.809  11.309   1.629  2.8269  1.3488  0.6826
  482MOL0     H66456   9.888  11.290   1.465 -0.1488 -1.3531  1.8156
  482MOL0     H66457   9.878  11.524   1.627  0.3461  0.8777 -0.1795
  482MOL0     H66458   9.739  11.555   1.539  1.3904  3.1792  0.2245
  482MOL0     H66459   9.973  11.497   1.374  1.9392  0.7772  2.0150
  482MOL0     H66460   9.816  11.562   1.338  1.2988  0.8592 -1.6660
  482MOL0     H66461   9.992  11.746   1.355  3.7552 -3.6734 -0.1658
  482MOL0     H66462   9.989  11.715   1.527  0.2152 -3.1201  0.1778
  482MOL0     H66463   9.750  11.785   1.534 -0.1192  1.2475  1.3169
  482MOL0     H66464   9.858  11.900   1.449  0.2193  0.2693 -4.4798
  482MOL0     H66465   9.851  11.921   1.173  0.1362 -0.9730 -1.0912
  482MOL0     H66466   9.625  11.963   0.967  0.4528 -1.3614  2.1954
  482MOL0     H66467   9.570  11.796   0.928  0.1976 -1.6747 -0.7254
  482MOL0     H66468   9.863  11.859   0.926 -0.7827  2.7493 -1.2116
  482MOL0     H66469   9.781  11.730   0.840  0.1791  0.5178 -2.7397
  482MOL0     H66470   9.734  12.026   0.777 -0.1813  0.0832  1.0970
  482MOL0     H66471   9.856  11.930   0.690 -1.2106 -0.1358 -1.3603
  482MOL0     H66472   9.640  11.766   0.691  0.0541 -0.0993 -1.5713
  482MOL0     H66473   9.572  11.936   0.665  2.7909  2.6538 -0.8740
  482MOL0     H66474   9.873  11.726   0.386  0.2090  1.0996  0.3295
  482MOL0     H66475   9.838  11.546   0.103  0.9186  0.5626  0.5265
  482MOL0     H66476   9.860  11.413   0.218  1.6844  0.6217 -1.0232
  482MOL0     H66477   9.948  11.560   0.247 -0.6626  2.6653  0.7770
  482MOL0     H66478   9.623  11.066   0.256  1.8323  0.4511  0.2041
  482MOL0     H66479   9.566  10.868   0.094 -2.4851 -0.0950 -1.1695
  482MOL0     H66480   9.491  10.700  -0.065  0.3877 -2.2304 -1.9695
  482MOL0     H66481   9.338  10.787  -0.051 -3.1435  2.3798 -4.2069
  482MOL0     H66482   9.464  10.670  -0.304  0.6565  3.4098  0.1511
  482MOL0     H66483   9.325  10.600  -0.218 -2.0399  1.2013 -0.8595
  482MOL0     H66484   9.257  10.692  -0.406  1.6156  0.6278 -0.7588
  482MOL0     H66485   9.300  10.856  -0.361 -3.1316  0.1710 -1.7035
  482MOL0     H66486   9.155  10.861  -0.170  0.4220  0.3528 -1.2257
  482MOL0     H66487   9.094  10.703  -0.199  2.0708 -0.2110  2.1778
  482MOL0     H66488   9.084  10.904  -0.435  1.4740  1.8254  1.8009
  482MOL0     H66489   8.952  10.794  -0.381 -0.6952  1.0029  1.7062
  482MOL0     H66490   8.940  11.058  -0.361 -0.3804 -0.1809 -0.0691
  482MOL0     H66491   9.035  11.058  -0.224 -0.4254 -1.1337  2.2519
  482MOL0     H66492   8.853  10.965  -0.103  0.4556 -1.7383 -0.2757
  482MOL0     H66493   8.804  10.855  -0.223  1.0441 -0.6602 -1.7431
  482MOL0     H66494   8.770  11.153  -0.224  0.1958  0.5369 -1.8843
  482MOL0     H66495   8.624  11.049  -0.219 -0.2863  0.9844  1.6366
  482MOL0     H66496   9.487  11.118  -0.221  1.4620 -0.4852 -1.1225
  482MOL0     H66497   9.569  11.311  -0.110  2.1112 -0.2410 -0.9777
  482MOL0     H66498   9.399  11.566   0.345  0.5797 -4.0392  1.4095
  482MOL0     H66499   9.467  11.781   0.476  0.2815 -2.4801  1.8310
  482MOL0     H66500   9.383  11.016   1.162  0.7285 -0.2172  1.5758
  482MOL0     H66501   9.154  10.948   1.081 -0.4008  0.3745  0.7023
  482MOL0     H66502   8.679  11.186   1.090  0.2239  1.3196 -5.2614
  482MOL0     H66503   8.431  11.129   1.053 -1.2747 -0.6143 -3.6656
  482MOL0     H66504   8.231  11.012   1.079 -1.0934  1.6260 -1.7022
  482MOL0     H66505   8.263  11.068   0.903 -1.1035 -1.0769 -3.5697
  482MOL0     H66506   8.099  10.927   0.829 -0.5267 -2.1156 -0.3631
  482MOL0     H66507   8.030  11.003   0.964  0.3522 -0.3701 -0.2749
  482MOL0     H66508   8.163  10.749   1.025  1.3922 -0.4798 -3.6311
  482MOL0     H66509   8.017  10.823   1.091  1.0150  3.0217 -0.5487
  482MOL0     H66510   7.927  10.743   0.833 -0.6870 -1.6363 -0.6599
  482MOL0     H66511   7.901  10.666   0.981 -0.7356  1.8749  0.4491
  482MOL0     H66512   8.196  10.412   0.806 -1.0914 -0.0743  0.9276
  482MOL0     H66513   8.566  10.761   0.872 -2.2088  0.1644  0.4605
  482MOL0     H66514   8.774  10.664   0.962  0.6433 -0.7358 -0.4045
  482MOL0     H66515   8.877  10.770   0.856  3.2133 -0.4741  1.7166
  482MOL0     H66516   8.900  10.763   1.028 -0.5969 -0.2213 -1.1158
  483MOL0     O66517   1.494   9.796   1.358 -0.2588 -0.3413 -0.8386
  483MOL0     C66518   1.601   9.769   1.410  0.4061  0.5266 -0.1952
  483MOL0     O66519   1.625   9.663   1.498 -0.1448  0.0324 -0.6000
  483MOL0     C66520   1.538   9.559   1.513 -0.8608  0.3681 -0.2958
  483MOL0     C66521   1.398   9.568   1.514 -0.1878  0.0971  0.3062
  483MOL0     C66522   1.316   9.452   1.527  0.6123 -0.1636  0.4592
  483MOL0     C66523   1.370   9.328   1.547 -0.6572  0.5687 -0.0012
  483MOL0     O66524   1.292   9.218   1.586  0.9869 -0.0018 -0.7418
  483MOL0     C66525   1.345   9.120   1.679  0.7470  0.2477 -0.4928
  483MOL0     C66526   1.232   9.061   1.767 -0.1648  0.6026 -0.3198
  483MOL0     C66527   1.280   8.946   1.852 -0.2423  0.9701 -0.7927
  483MOL0     C66528   1.194   8.946   1.975 -0.2160  0.3170 -0.1456
  483MOL0     C66529   1.237   8.833   2.079  0.1581 -0.0807 -0.3434
  483MOL0     C66530   1.201   8.692   2.032 -0.6396  0.3684  0.3110
  483MOL0     C66531   1.240   8.577   2.132 -0.4703  1.1709  0.7791
  483MOL0     C66532   1.209   8.443   2.061  0.3956 -0.6611  0.0475
  483MOL0     N66533   1.069   8.397   2.070 -0.1515 -0.0385 -0.0058
  483MOL0     C66534   1.021   8.298   2.147  0.0652 -0.2245  1.0741
  483MOL0     C66535   0.898   8.270   2.081  0.8821  0.2993 -1.4338
  483MOL0     C66536   0.814   8.147   2.115  0.3298  0.0465 -0.0584
  483MOL0     C66537   0.898   8.037   2.177 -0.8168  0.1045  0.4802
  483MOL0     C66538   0.801   7.921   2.208  0.2083  0.7488 -0.3069
  483MOL0     C66539   0.876   7.795   2.269 -0.1855 -0.9718  0.8861
  483MOL0     O66540   0.816   7.667   2.251  0.1030 -0.0545  0.3248
  483MOL0     C66541   0.831   7.604   2.131 -0.2471  0.6499 -1.6575
  483MOL0     C66542   0.935   7.522   2.099 -0.3620  0.6306 -0.3557
  483MOL0     C66543   0.939   7.433   1.983  0.9114  0.0877  0.6362
  483MOL0     C66544   1.058   7.351   1.960 -1.1791  0.0724  0.3776
  483MOL0     C66545   0.830   7.424   1.906  0.2514  0.4996  0.8734
  483MOL0     C66546   0.810   7.333   1.779 -0.9277 -0.3542 -0.4424
  483MOL0     O66547   0.677   7.310   1.744  0.2677  0.0540 -0.8302
  483MOL0     C66548   0.658   7.221   1.643 -0.2063  0.7565  0.2920
  483MOL0     C66549   0.708   7.239   1.511 -0.7429 -0.7437 -0.7135
  483MOL0     C66550   0.660   7.158   1.407 -0.8490  0.4363 -0.5076
  483MOL0     C66551   0.556   7.064   1.441  0.1953 -1.0730 -0.0898
  483MOL0     O66552   0.500   6.978   1.348 -0.6069 -0.4358 -0.1376
  483MOL0     C66553   0.466   7.020   1.214  0.8746 -1.0203 -0.8299
  483MOL0     C66554   0.382   6.907   1.155 -1.2151  0.4896  0.6682
  483MOL0     C66555   0.319   6.950   1.020 -0.2916  0.2192  0.4260
  483MOL0     C66556   0.223   6.840   0.977  0.1138 -0.3911 -0.1589
  483MOL0     C66557   0.156   6.875   0.840  0.0976 -0.5174  0.3178
  483MOL0     C66558   0.099   6.760   0.774 -0.1446  0.5698 -0.3134
  483MOL0     C66559  -0.015   6.690   0.843  0.1565  0.9238 -0.9466
  483MOL0     C66560  -0.134   6.776   0.904  0.3038  0.6743  0.1558
  483MOL0    Cl66561  -0.181   6.899   0.792 -0.3586 -0.2272  0.4866
  483MOL0     C66562   0.495   7.054   1.562 -0.2796 -0.6382 -0.1287
  483MOL0     C66563   0.552   7.137   1.664  0.1156  0.9842 -0.2474
  483MOL0     O66564   0.910   7.301   1.710 -0.1022 -0.0962 -0.2519
  483MOL0     C66565   0.727   7.511   1.935  0.6463 -0.0677 -0.3482
  483MOL0     C66566   0.721   7.595   2.044 -0.3897 -0.1400 -0.0805
  483MOL0     N66567   0.879   8.365   1.988  0.1473 -0.2424 -0.1404
  483MOL0     N66568   0.985   8.432   1.970 -0.3080 -0.0438 -0.4316
  483MOL0     C66569   1.515   9.320   1.539 -0.3789  0.2279  0.8711
  483MOL0     C66570   1.593   9.439   1.532  0.2391 -0.5521 -0.0649
  483MOL0     C66571   1.724   9.837   1.360 -0.2549  0.3006  0.4053
  483MOL0     C66572   1.845   9.795   1.416  0.3594 -0.4425  0.6638
  483MOL0     C66573   1.961   9.831   1.351 -1.3822  0.6176  0.2910
  483MOL0     C66574   1.969   9.919   1.242  0.4686 -0.3682 -0.3888
  483MOL0     O66575   2.078   9.945   1.170 -0.3660  0.5062 -0.3030
  483MOL0     C66576   2.200   9.902   1.220  0.5721  0.3014  0.3793
  483MOL0     C66577   2.316   9.953   1.134  0.0387  0.6812  0.2030
  483MOL0     C66578   2.316  10.098   1.139  0.3148  0.2006 -0.2199
  483MOL0     C66579   2.438  10.153   1.065  0.0405 -0.4390  1.2580
  483MOL0     C66580   2.452  10.298   1.102  0.5020  0.0174 -0.5146
  483MOL0     C66581   2.458  10.414   1.136 -0.4808 -0.6882 -0.2123
  483MOL0     C66582   1.850   9.976   1.206  0.6503  0.6079 -0.4888
  483MOL0     C66583   1.726   9.931   1.253 -0.1151  0.1619 -0.8090
  483MOL0     C66584   1.603   9.997   1.198 -0.5324  0.2090 -1.8289
  483MOL0     H66585   1.352   9.662   1.488  2.1138  1.8321  2.0189
  483MOL0     H66586   1.208   9.456   1.517  0.6401  1.4455  0.6041
  483MOL0     H66587   1.419   9.150   1.753 -0.2415  0.7364  0.3325
  483MOL0     H66588   1.379   9.027   1.634  0.0221 -0.3890  0.2411
  483MOL0     H66589   1.208   9.144   1.835  0.9899  0.6164  0.0971
  483MOL0     H66590   1.147   9.022   1.711 -0.4550 -0.3435  0.7398
  483MOL0     H66591   1.267   8.853   1.796  0.8110 -1.4129  2.6131
  483MOL0     H66592   1.386   8.962   1.875 -0.6893 -0.0427  2.4134
  483MOL0     H66593   1.224   9.035   2.029  0.6808 -0.6461  0.9920
  483MOL0     H66594   1.085   8.948   1.959 -0.6056 -3.2140  1.1068
  483MOL0     H66595   1.184   8.859   2.171  1.5617 -1.0083  0.7779
  483MOL0     H66596   1.340   8.849   2.112  0.1820 -2.4986  0.9454
  483MOL0     H66597   1.097   8.682   2.000 -0.9886  1.2529  1.1300
  483MOL0     H66598   1.253   8.670   1.938 -2.4091  1.7353 -1.0875
  483MOL0     H66599   1.181   8.597   2.222  2.9086  1.4625  3.1240
  483MOL0     H66600   1.345   8.567   2.161 -0.4917 -2.7018  0.0140
  483MOL0     H66601   1.235   8.446   1.955 -0.4309 -0.6274 -0.1563
  483MOL0     H66602   1.273   8.365   2.104  1.6426  1.2749  1.9428
  483MOL0     H66603   1.069   8.240   2.225 -0.2184  1.6259  2.7173
  483MOL0     H66604   0.776   8.115   2.017  0.1995  1.5159 -0.5143
  483MOL0     H66605   0.738   8.175   2.188 -1.3974  1.4483 -2.2559
  483MOL0     H66606   0.959   7.987   2.102 -3.1940  0.3003 -1.6853
  483MOL0     H66607   0.961   8.066   2.262  2.2096 -3.8759 -0.1049
  483MOL0     H66608   0.728   7.953   2.282  1.4783  1.2504  0.7733
  483MOL0     H66609   0.761   7.887   2.112 -1.9860  1.0820  0.4288
  483MOL0     H66610   0.975   7.804   2.221 -2.3078  0.0855 -3.8990
  483MOL0     H66611   0.877   7.804   2.378 -2.2450 -0.2807  0.8858
  483MOL0     H66612   1.028   7.530   2.154  0.3345 -1.7465 -1.0772
  483MOL0     H66613   1.112   7.356   1.865  0.9142 -2.5356  1.3124
  483MOL0     H66614   1.035   7.247   1.983  2.3338 -0.2362  3.4012
  483MOL0     H66615   1.134   7.384   2.031  1.3695  2.2084 -3.0353
  483MOL0     H66616   0.782   7.312   1.478 -1.0937 -1.0252 -2.1737
  483MOL0     H66617   0.700   7.166   1.306  2.5969  1.9883  0.8072
  483MOL0     H66618   0.426   7.122   1.207  2.9377 -0.2476 -2.6790
  483MOL0     H66619   0.562   7.023   1.161  0.4958 -1.8943 -1.5968
  483MOL0     H66620   0.446   6.819   1.142 -1.9186  0.0136  0.3348
  483MOL0     H66621   0.305   6.877   1.227 -0.3641 -3.6087  0.0853
  483MOL0     H66622   0.392   6.979   0.944 -3.4970  0.2258 -2.9421
  483MOL0     H66623   0.251   7.034   1.040 -2.4979 -1.6753  1.3782
  483MOL0     H66624   0.144   6.830   1.052 -3.1929  1.2717 -3.1333
  483MOL0     H66625   0.280   6.747   0.966  0.6378 -0.0492 -0.3955
  483MOL0     H66626   0.086   6.956   0.866 -0.2448 -0.9652  0.8267
  483MOL0     H66627   0.229   6.917   0.771 -0.5325  2.1370  1.1180
  483MOL0     H66628   0.179   6.686   0.771 -0.0883  0.0794  4.8366
  483MOL0     H66629   0.060   6.781   0.673 -1.6327 -3.5417 -0.8128
  483MOL0     H66630   0.027   6.624   0.919 -1.5687  0.4023 -0.3851
  483MOL0     H66631  -0.065   6.626   0.769 -2.3126 -0.3963  1.6868
  483MOL0     H66632  -0.094   6.829   0.992 -0.4530 -1.5357  1.9207
  483MOL0     H66633  -0.209   6.700   0.926  2.3048 -1.0153  1.6368
  483MOL0     H66634   0.413   6.987   1.585 -0.7059 -0.4326 -0.9971
  483MOL0     H66635   0.499   7.139   1.758  1.6933  2.1334  0.6569
  483MOL0     H66636   0.630   7.513   1.886  0.6589  1.5814 -0.3826
  483MOL0     H66637   0.635   7.661   2.052  0.4315  0.8727  0.6210
  483MOL0     H66638   1.567   9.225   1.550 -1.3167 -0.4187 -0.1368
  483MOL0     H66639   1.701   9.442   1.542  0.1784 -3.0990  2.8447
  483MOL0     H66640   1.849   9.742   1.511  2.2930 -1.0141  0.3233
  483MOL0     H66641   2.050   9.788   1.395 -2.7183 -0.1536  2.3603
  483MOL0     H66642   2.220   9.939   1.321 -1.0769  0.6324  0.6119
  483MOL0     H66643   2.200   9.793   1.218  1.0156  0.2701  1.3876
  483MOL0     H66644   2.295   9.907   1.037 -3.1898  0.5258  0.8778
  483MOL0     H66645   2.412   9.912   1.166  0.5180  0.9639 -0.8248
  483MOL0     H66646   2.222  10.138   1.099  0.3219  0.1011 -0.3367
  483MOL0     H66647   2.316  10.141   1.240 -0.7240 -1.3675  0.4922
  483MOL0     H66648   2.422  10.142   0.958 -1.2380  0.0598  1.3703
  483MOL0     H66649   2.527  10.098   1.095  2.5298  1.9203 -1.2161
  483MOL0     H66650   2.460  10.517   1.166  0.4427 -0.4293 -1.0814
  483MOL0     H66651   1.847  10.046   1.123  3.3112  1.5958  0.1467
  483MOL0     H66652   1.538  10.050   1.268 -1.7350 -4.9792  1.5106
  483MOL0     H66653   1.639  10.046   1.107 -0.2172 -0.1173 -1.8817
  483MOL0     H66654   1.539   9.918   1.157  1.1039 -1.7078 -0.8501
  484MOL0     O66655   8.105   5.027   8.860 -0.4653 -0.2622  0.6412
  484MOL0     C66656   8.196   5.106   8.882  1.2050 -0.3546 -0.3243
  484MOL0     O66657   8.282   5.097   8.986  0.3329  0.3022  0.0852
  484MOL0     C66658   8.272   4.998   9.081 -0.4819  0.2689 -0.1369
  484MOL0     C66659   8.379   4.909   9.107 -0.5419 -0.8283  0.5210
  484MOL0     C66660   8.372   4.814   9.214  0.3048 -0.2023 -0.3766
  484MOL0     C66661   8.261   4.823   9.286  0.9051  0.1231 -0.4410
  484MOL0     O66662   8.256   4.711   9.373  0.6830  0.8721 -0.2726
  484MOL0     C66663   8.198   4.729   9.511 -0.3269  1.0552  0.5011
  484MOL0     C66664   8.294   4.667   9.613 -0.9643  1.3379 -0.2016
  484MOL0     C66665   8.223   4.645   9.749  0.7380 -0.0506  0.6852
  484MOL0     C66666   8.315   4.700   9.870 -0.4532 -1.4936 -0.5387
  484MOL0     C66667   8.257   4.644  10.005 -0.2853  0.3361  1.1206
  484MOL0     C66668   8.098   4.660  10.009 -0.1010  0.5018  0.6022
  484MOL0     C66669   8.036   4.650  10.138 -0.1247 -0.5298 -0.6292
  484MOL0     C66670   8.046   4.505  10.183  0.9103 -0.4900 -0.0817
  484MOL0     N66671   7.978   4.482  10.313  0.2665  0.0795 -0.4031
  484MOL0     C66672   7.839   4.475  10.332 -0.6124 -0.2446  0.1718
  484MOL0     C66673   7.823   4.468  10.464 -0.4470 -0.7087  0.0558
  484MOL0     C66674   7.689   4.433  10.518  0.4453 -1.4423 -0.5836
  484MOL0     C66675   7.581   4.533  10.471  0.2560  0.2837  0.0740
  484MOL0     C66676   7.456   4.482  10.524  0.3451 -0.3373 -1.2319
  484MOL0     C66677   7.339   4.576  10.499  0.1707 -0.2048 -0.5197
  484MOL0     O66678   7.301   4.589  10.362  0.1745 -0.2540  0.4983
  484MOL0     C66679   7.180   4.645  10.334  0.1246 -0.5312  0.0895
  484MOL0     C66680   7.108   4.719  10.420 -0.0642  0.1955 -0.4442
  484MOL0     C66681   6.988   4.777  10.399  0.7293 -0.1731 -0.8940
  484MOL0     C66682   6.941   4.855  10.506 -0.6902 -0.6529  0.8955
  484MOL0     C66683   6.923   4.755  10.278 -0.2472 -0.2130  0.3457
  484MOL0     C66684   6.785   4.802  10.250 -0.6376 -1.1177  0.1659
  484MOL0     O66685   6.740   4.775  10.127 -0.3053 -0.3602 -0.5469
  484MOL0     C66686   6.610   4.804  10.089  0.5467 -0.1389 -0.0893
  484MOL0     C66687   6.499   4.720  10.129 -0.9872  0.4907 -0.5537
  484MOL0     C66688   6.370   4.758  10.079 -0.1071 -0.3304 -0.0859
  484MOL0     C66689   6.353   4.882  10.018 -0.0474 -0.5982 -1.0347
  484MOL0     O66690   6.230   4.928   9.971 -0.4244  0.3334  0.0074
  484MOL0     C66691   6.228   4.956   9.832  0.6945  0.5739 -0.3142
  484MOL0     C66692   6.095   5.038   9.799 -0.2277 -0.2471 -0.4626
  484MOL0     C66693   5.987   4.939   9.762  0.4266  0.9583  0.2770
  484MOL0     C66694   5.909   4.880   9.877 -0.3019  0.1896 -0.4583
  484MOL0     C66695   5.962   4.750   9.943 -0.4254 -0.4247  0.6040
  484MOL0     C66696   5.889   4.721  10.070  0.6086 -0.1914 -0.9953
  484MOL0     C66697   5.742   4.691  10.062 -0.1741 -1.1222  0.5003
  484MOL0     C66698   5.683   4.677  10.205 -0.8861 -0.0387  0.3419
  484MOL0    Cl66699   5.500   4.684  10.173  0.2884 -0.0601 -0.0708
  484MOL0     C66700   6.467   4.968  10.011  0.0334  0.1512  0.7311
  484MOL0     C66701   6.597   4.923  10.032 -0.0585 -0.8169 -0.4499
  484MOL0     O66702   6.725   4.874  10.333  0.7564  0.2964  0.5142
  484MOL0     C66703   6.992   4.682  10.180 -0.4462 -0.2300  0.4171
  484MOL0     C66704   7.128   4.637  10.206 -0.1153 -0.3532 -0.1793
  484MOL0     N66705   7.951   4.491  10.521 -1.4569  0.8172 -0.0024
  484MOL0     N66706   8.042   4.503  10.427  0.0988  0.2308  0.7855
  484MOL0     C66707   8.159   4.915   9.270  0.2800  0.4132  0.2775
  484MOL0     C66708   8.163   5.002   9.166 -0.3704 -0.2516  0.3625
  484MOL0     C66709   8.229   5.197   8.771  0.6047 -1.4066  0.8401
  484MOL0     C66710   8.316   5.296   8.799 -0.5921 -0.2925 -0.0030
  484MOL0     C66711   8.351   5.401   8.698  0.6035 -0.1295  0.0778
  484MOL0     C66712   8.294   5.401   8.573  0.5102 -0.5014  0.8057
  484MOL0     O66713   8.299   5.510   8.486 -0.7014  0.1948  0.4259
  484MOL0     C66714   8.356   5.473   8.367 -0.5069 -0.7829  1.3822
  484MOL0     C66715   8.387   5.598   8.278 -0.6725 -0.7594  0.2165
  484MOL0     C66716   8.456   5.715   8.347  0.2979  0.1270 -0.0975
  484MOL0     C66717   8.518   5.823   8.252  0.5869  0.2878 -0.2543
  484MOL0     C66718   8.490   5.964   8.293  0.2834  0.5384 -0.5678
  484MOL0     C66719   8.446   6.080   8.289 -0.3001  0.6090  0.2086
  484MOL0     C66720   8.198   5.302   8.547 -0.3951 -0.8096  0.4276
  484MOL0     C66721   8.169   5.198   8.634 -0.6688 -0.5007  0.1049
  484MOL0     C66722   8.066   5.109   8.578  0.7141  0.6906  1.0221
  484MOL0     H66723   8.466   4.931   9.046 -1.2005 -0.4362 -0.2965
  484MOL0     H66724   8.455   4.745   9.226 -2.9907 -4.0279  3.0765
  484MOL0     H66725   8.112   4.661   9.518  0.0574  0.5591  0.4462
  484MOL0     H66726   8.150   4.826   9.525  0.1128  1.0875  1.8398
  484MOL0     H66727   8.329   4.569   9.581 -0.0185  0.9836  1.7611
  484MOL0     H66728   8.377   4.738   9.624  1.3380 -0.1670 -4.8189
  484MOL0     H66729   8.125   4.693   9.754  0.7348 -0.1001  1.1342
  484MOL0     H66730   8.201   4.539   9.765  1.0313 -0.1994  0.1214
  484MOL0     H66731   8.417   4.668   9.845 -0.5093 -2.1864  0.0843
  484MOL0     H66732   8.318   4.808   9.854 -1.9934 -1.6998 -2.5611
  484MOL0     H66733   8.302   4.709  10.081 -2.6329  3.3619  0.0817
  484MOL0     H66734   8.285   4.544  10.039 -0.6822 -0.0375  0.3657
  484MOL0     H66735   8.075   4.758   9.965 -1.4879  0.1547  0.5071
  484MOL0     H66736   8.050   4.586   9.944 -2.4984 -0.0209  2.8230
  484MOL0     H66737   7.929   4.674  10.141  0.1149  0.9550 -2.4573
  484MOL0     H66738   8.088   4.722  10.201  1.5898 -2.4829  0.3045
  484MOL0     H66739   7.988   4.445  10.112 -2.4162  0.2712  1.7948
  484MOL0     H66740   8.151   4.473  10.183  1.3454  0.4620 -3.7674
  484MOL0     H66741   7.764   4.464  10.254 -0.4903  2.2012 -0.3778
  484MOL0     H66742   7.696   4.429  10.627 -3.3807 -3.9645 -0.2364
  484MOL0     H66743   7.663   4.329  10.496 -1.1281 -1.3689  0.7414
  484MOL0     H66744   7.603   4.636  10.501  1.2888 -0.4040  1.8354
  484MOL0     H66745   7.567   4.537  10.362  1.7176  0.5811 -0.1202
  484MOL0     H66746   7.433   4.380  10.491  3.9211 -1.6841 -0.0465
  484MOL0     H66747   7.468   4.466  10.632 -1.1500  2.1718 -0.6231
  484MOL0     H66748   7.248   4.548  10.551 -0.0248 -2.4845 -1.9311
  484MOL0     H66749   7.370   4.673  10.539 -0.0558 -0.0976 -0.6007
  484MOL0     H66750   7.166   4.738  10.510  1.4679  2.6762 -1.8525
  484MOL0     H66751   6.844   4.828  10.550 -1.6269  1.3957  0.1800
  484MOL0     H66752   6.936   4.961  10.481 -0.6832 -1.1371 -1.3655
  484MOL0     H66753   7.009   4.845  10.591  1.1693  0.7618 -0.3458
  484MOL0     H66754   6.521   4.623  10.172  4.7434  2.1234  1.0693
  484MOL0     H66755   6.284   4.700  10.110  0.5257  0.8557  4.6473
  484MOL0     H66756   6.310   5.022   9.801 -0.1246  1.7723 -0.0008
  484MOL0     H66757   6.230   4.859   9.782  1.0180  1.4141 -2.0355
  484MOL0     H66758   6.055   5.088   9.888  3.0781 -1.7847  2.1248
  484MOL0     H66759   6.113   5.116   9.725 -1.8552  1.3051  0.6882
  484MOL0     H66760   6.034   4.863   9.699 -0.3309  0.7796 -0.0780
  484MOL0     H66761   5.907   4.983   9.703 -0.4967 -0.0280  0.7397
  484MOL0     H66762   5.805   4.862   9.846  1.0011 -2.8080 -3.7885
  484MOL0     H66763   5.909   4.969   9.940 -0.2650  0.2030 -0.4764
  484MOL0     H66764   5.950   4.664   9.876 -1.1734  0.4133 -0.3859
  484MOL0     H66765   6.068   4.751   9.968 -0.7062 -0.8890  1.8924
  484MOL0     H66766   5.892   4.818  10.120  0.0293 -0.7357  0.1382
  484MOL0     H66767   5.946   4.656  10.137 -0.4538 -1.2331 -1.0828
  484MOL0     H66768   5.720   4.604   9.999  0.2793  0.0116 -1.2803
  484MOL0     H66769   5.698   4.773  10.004  1.5742 -0.3654  0.1843
  484MOL0     H66770   5.714   4.773  10.246 -3.0576 -0.2713  2.7793
  484MOL0     H66771   5.727   4.590  10.254 -0.8654  0.5887  1.4557
  484MOL0     H66772   6.445   5.071   9.984 -2.4829 -1.1136 -2.7747
  484MOL0     H66773   6.682   4.991  10.027 -2.4840  2.5330  0.3976
  484MOL0     H66774   6.951   4.671  10.080  0.5273 -0.6396  0.0484
  484MOL0     H66775   7.175   4.570  10.133 -0.7813 -0.2560 -0.7088
  484MOL0     H66776   8.081   4.906   9.345 -0.5459 -1.0130 -0.7078
  484MOL0     H66777   8.079   5.070   9.157 -0.3844 -0.2123  0.7908
  484MOL0     H66778   8.366   5.295   8.895  2.0601 -0.2322 -1.2706
  484MOL0     H66779   8.417   5.479   8.734 -0.8855  1.5571 -0.7266
  484MOL0     H66780   8.456   5.437   8.392 -0.7875 -1.9712  0.8547
  484MOL0     H66781   8.302   5.399   8.307  0.9839 -0.8799  0.0911
  484MOL0     H66782   8.293   5.630   8.233 -0.0067  1.2681  0.1552
  484MOL0     H66783   8.447   5.567   8.191 -2.2710 -1.7456 -0.5779
  484MOL0     H66784   8.385   5.764   8.415  1.9159 -0.0717  1.8422
  484MOL0     H66785   8.533   5.683   8.418  1.1880 -1.1069 -1.5697
  484MOL0     H66786   8.476   5.816   8.152  0.5293  3.7411 -0.5902
  484MOL0     H66787   8.626   5.804   8.242  0.3675 -0.1448 -2.0408
  484MOL0     H66788   8.405   6.179   8.288  0.5360  0.9584  0.0134
  484MOL0     H66789   8.140   5.311   8.456  0.7546  0.0127 -0.2448
  484MOL0     H66790   7.969   5.158   8.589  2.5689  4.7236  1.2496
  484MOL0     H66791   8.093   5.078   8.476  0.2621 -2.3535  1.7313
  484MOL0     H66792   8.070   5.008   8.621 -0.4425  0.0635 -0.2405
  485MOL0     O66793   5.484   8.856   6.340 -0.3220  0.2374  0.0604
  485MOL0     C66794   5.562   8.801   6.260  0.4064  0.2284 -0.6229
  485MOL0     O66795   5.631   8.688   6.292 -0.0120  0.8056  0.4513
  485MOL0     C66796   5.601   8.631   6.417  0.4870  0.4480  0.2938
  485MOL0     C66797   5.666   8.669   6.526 -0.0073  0.0549  0.8961
  485MOL0     C66798   5.630   8.625   6.650 -0.3659  0.2586  0.5274
  485MOL0     C66799   5.538   8.522   6.659 -0.2128 -0.1989  0.4486
  485MOL0     O66800   5.496   8.466   6.780  0.2963  0.5282  0.2409
  485MOL0     C66801   5.461   8.549   6.893  0.7388 -0.4545  0.5251
  485MOL0     C66802   5.347   8.488   6.977 -0.5825  0.3012  0.4937
  485MOL0     C66803   5.394   8.343   7.019 -0.1528 -0.3496  0.4024
  485MOL0     C66804   5.289   8.267   7.093  0.2104  0.0628 -0.0809
  485MOL0     C66805   5.313   8.121   7.112 -0.0776  0.5883 -0.6406
  485MOL0     C66806   5.439   8.103   7.198 -0.5571  0.2355  0.2441
  485MOL0     C66807   5.412   7.989   7.302 -0.5807  0.4984 -0.3497
  485MOL0     C66808   5.409   7.857   7.231  0.9694  0.8816  1.0029
  485MOL0     N66809   5.356   7.750   7.311  0.7718 -0.5978 -0.0946
  485MOL0     C66810   5.408   7.716   7.434  0.2293 -0.0856  0.5121
  485MOL0     C66811   5.311   7.645   7.490 -0.8884 -0.4499 -0.1077
  485MOL0     C66812   5.324   7.579   7.629  1.1473 -0.2922  0.4802
  485MOL0     C66813   5.231   7.642   7.730  1.3009 -0.1059 -0.8281
  485MOL0     C66814   5.243   7.795   7.753  0.4452 -0.6736  0.5296
  485MOL0     C66815   5.183   7.892   7.646  0.4051 -0.3725 -0.3324
  485MOL0     O66816   5.187   8.025   7.709  0.3470  1.0087  0.1791
  485MOL0     C66817   5.162   8.133   7.618 -0.0035  0.2303 -0.3372
  485MOL0     C66818   5.217   8.256   7.646 -0.8472  0.2257 -0.9685
  485MOL0     C66819   5.213   8.366   7.553 -0.1502  0.7793  0.1691
  485MOL0     C66820   5.297   8.488   7.582  0.6333  0.7226 -0.8370
  485MOL0     C66821   5.125   8.357   7.433  0.5406  0.4205 -0.6272
  485MOL0     C66822   5.103   8.463   7.328 -1.3590 -0.3298 -0.6459
  485MOL0     O66823   5.010   8.435   7.234 -0.0432 -0.3346  0.2349
  485MOL0     C66824   4.977   8.530   7.143 -0.3466 -0.2963 -0.6833
  485MOL0     C66825   4.949   8.661   7.186  0.5536 -0.1238  0.8514
  485MOL0     C66826   4.920   8.756   7.088  0.6037 -0.3198 -0.5282
  485MOL0     C66827   4.910   8.725   6.949 -0.3633 -0.7058 -0.9358
  485MOL0     O66828   4.878   8.824   6.863  0.7409 -0.1984 -0.1998
  485MOL0     C66829   4.918   8.819   6.728  0.3187  0.0888  0.2843
  485MOL0     C66830   4.872   8.947   6.653 -0.2102  1.0589 -0.3566
  485MOL0     C66831   4.938   8.980   6.512  0.9538  0.0003 -0.1482
  485MOL0     C66832   4.963   9.122   6.486  1.3292 -0.4289  0.9589
  485MOL0     C66833   5.027   9.165   6.349 -0.3390 -0.5796  0.2749
  485MOL0     C66834   4.953   9.105   6.224  0.7277 -0.4200  0.2354
  485MOL0     C66835   4.810   9.168   6.201  0.1147 -0.4847  0.4143
  485MOL0     C66836   4.738   9.120   6.078  1.1315 -1.1070 -0.4314
  485MOL0    Cl66837   4.837   9.179   5.936 -0.2639  0.1630 -0.2125
  485MOL0     C66838   4.940   8.589   6.913  0.8975  0.2493  0.7842
  485MOL0     C66839   4.958   8.493   7.011 -1.1290 -0.0337  0.2560
  485MOL0     O66840   5.167   8.570   7.331 -1.0095  0.2405 -0.4418
  485MOL0     C66841   5.060   8.232   7.411  0.4117 -0.1458  0.3766
  485MOL0     C66842   5.085   8.118   7.495  0.0570 -0.7001 -0.3825
  485MOL0     N66843   5.198   7.649   7.404  0.1328  0.1721 -0.4562
  485MOL0     N66844   5.224   7.711   7.288 -0.8299  1.4347 -0.2941
  485MOL0     C66845   5.462   8.484   6.555 -0.2937  0.4795  0.7202
  485MOL0     C66846   5.499   8.537   6.436  0.0001 -0.5472  0.0654
  485MOL0     C66847   5.607   8.878   6.142 -1.4376 -0.9747 -0.1643
  485MOL0     C66848   5.729   8.831   6.074 -0.5582  0.2474  0.0895
  485MOL0     C66849   5.769   8.883   5.954 -0.5324 -0.0830 -0.4800
  485MOL0     C66850   5.697   8.993   5.895  0.5913 -0.0371 -0.1489
  485MOL0     O66851   5.742   9.050   5.785  0.4499 -0.2727 -0.4303
  485MOL0     C66852   5.821   8.978   5.701  0.1314  0.7935 -0.1236
  485MOL0     C66853   5.830   9.048   5.566  0.5196 -0.6636 -1.5088
  485MOL0     C66854   5.702   9.035   5.484 -0.4550 -0.2049  1.0226
  485MOL0     C66855   5.671   8.893   5.428  0.8616 -1.0201  0.6537
  485MOL0     C66856   5.774   8.850   5.339  0.7467  0.1615 -0.2973
  485MOL0     C66857   5.848   8.809   5.251 -0.0265 -0.5067  0.9888
  485MOL0     C66858   5.587   9.046   5.966 -0.1698 -0.3259  0.4006
  485MOL0     C66859   5.546   8.994   6.090  1.0745 -0.0723 -0.3571
  485MOL0     C66860   5.421   9.055   6.162 -0.2856  0.7402 -0.0149
  485MOL0     H66861   5.737   8.750   6.513 -1.2864  0.7616 -2.9931
  485MOL0     H66862   5.691   8.652   6.735 -1.9592  2.0106  1.1807
  485MOL0     H66863   5.413   8.633   6.840 -1.3931 -1.9536 -0.0473
  485MOL0     H66864   5.556   8.582   6.934  1.0634  0.6572 -0.9988
  485MOL0     H66865   5.335   8.557   7.061 -1.2394  1.0684 -0.2167
  485MOL0     H66866   5.252   8.482   6.925  1.0511 -0.2965 -2.6460
  485MOL0     H66867   5.426   8.286   6.931  1.3526 -1.9191  1.8939
  485MOL0     H66868   5.476   8.357   7.090  2.7626 -2.0429 -2.3553
  485MOL0     H66869   5.266   8.301   7.195 -1.4679  0.9872 -0.7273
  485MOL0     H66870   5.198   8.282   7.033 -0.4604 -0.3489  0.8025
  485MOL0     H66871   5.311   8.067   7.016 -5.0558  1.7677 -1.4832
  485MOL0     H66872   5.229   8.076   7.164  0.0109 -1.8787 -2.4462
  485MOL0     H66873   5.526   8.077   7.138  0.1957 -3.3629  2.6143
  485MOL0     H66874   5.454   8.190   7.263 -2.1737 -0.5883  1.8075
  485MOL0     H66875   5.317   8.001   7.356 -1.0668 -0.9850 -0.8424
  485MOL0     H66876   5.495   8.000   7.373 -1.0223  1.2758  0.0722
  485MOL0     H66877   5.356   7.859   7.135  0.1386 -0.7822  1.3955
  485MOL0     H66878   5.514   7.829   7.217  0.6225 -0.4428  0.9540
  485MOL0     H66879   5.508   7.740   7.467 -0.2525  3.7977 -0.3613
  485MOL0     H66880   5.428   7.590   7.662  1.7667  0.0481 -1.4592
  485MOL0     H66881   5.305   7.471   7.623  0.4765 -0.1937  0.7839
  485MOL0     H66882   5.125   7.616   7.722  0.2904  1.7399  3.5329
  485MOL0     H66883   5.264   7.595   7.823 -3.5016 -1.3134  0.5341
  485MOL0     H66884   5.192   7.826   7.845  2.0420 -0.8152  1.5007
  485MOL0     H66885   5.343   7.828   7.784  0.2224  1.3808 -0.7241
  485MOL0     H66886   5.243   7.884   7.555  0.0707 -1.5377 -0.4647
  485MOL0     H66887   5.081   7.866   7.616  1.2277 -5.0756  0.1992
  485MOL0     H66888   5.274   8.266   7.737  0.3820  1.3037 -1.8303
  485MOL0     H66889   5.229   8.572   7.598  0.2785 -0.0706  2.6210
  485MOL0     H66890   5.374   8.505   7.506  1.0200 -2.2366 -1.2134
  485MOL0     H66891   5.345   8.481   7.679 -0.1427  0.7049 -0.4438
  485MOL0     H66892   4.957   8.693   7.290  0.3861 -1.0115  1.1459
  485MOL0     H66893   4.910   8.853   7.135  0.9771  1.3311 -3.6015
  485MOL0     H66894   5.028   8.816   6.726  0.5764  2.3864  3.4968
  485MOL0     H66895   4.862   8.732   6.692 -3.4514  2.0949  0.7929
  485MOL0     H66896   4.764   8.949   6.636 -0.3979 -1.4468  0.1815
  485MOL0     H66897   4.914   9.035   6.701  0.1492 -0.4519  2.2942
  485MOL0     H66898   4.862   8.944   6.442 -0.7649 -0.1954  1.7336
  485MOL0     H66899   5.036   8.934   6.493  1.2851  0.7925 -0.3873
  485MOL0     H66900   5.024   9.166   6.565  0.8646  1.2533  0.4321
  485MOL0     H66901   4.861   9.163   6.495  2.0288  1.6007  0.2337
  485MOL0     H66902   5.035   9.273   6.340  3.3041 -0.8583 -2.0067
  485MOL0     H66903   5.135   9.147   6.339  0.0477  2.3155 -1.7415
  485MOL0     H66904   4.945   8.996   6.234  0.4712 -0.2284  2.5912
  485MOL0     H66905   5.008   9.134   6.134 -1.0826  1.1405 -0.4409
  485MOL0     H66906   4.825   9.275   6.190 -2.0658 -0.1017  0.6837
  485MOL0     H66907   4.756   9.161   6.296 -1.0870  3.3695  0.1575
  485MOL0     H66908   4.640   9.169   6.075  0.0131 -3.1742  0.4073
  485MOL0     H66909   4.735   9.011   6.083  1.5509 -1.0712  1.7253
  485MOL0     H66910   4.925   8.558   6.810  1.2557  2.6621 -0.0652
  485MOL0     H66911   4.972   8.387   6.995 -3.0987  0.0011 -2.3685
  485MOL0     H66912   5.006   8.215   7.319  1.2589  2.8963 -0.8059
  485MOL0     H66913   5.045   8.021   7.467 -3.0166  0.7707 -1.5325
  485MOL0     H66914   5.387   8.406   6.563  2.0178 -1.7545  1.8531
  485MOL0     H66915   5.468   8.494   6.341 -0.5376 -1.9453  0.8481
  485MOL0     H66916   5.792   8.749   6.106 -0.4129  0.4983  0.4487
  485MOL0     H66917   5.856   8.837   5.909 -1.4747 -1.1421 -1.2499
  485MOL0     H66918   5.920   8.951   5.738 -0.0196 -0.0279 -0.2890
  485MOL0     H66919   5.770   8.883   5.681 -2.7590  1.7732  1.9059
  485MOL0     H66920   5.915   9.002   5.516  0.1550 -2.2583 -0.7584
  485MOL0     H66921   5.845   9.153   5.592 -2.8033 -1.0656  3.6398
  485MOL0     H66922   5.616   9.070   5.542 -0.5234  0.4423  0.5413
  485MOL0     H66923   5.720   9.088   5.390  3.8393 -2.2577  0.4148
  485MOL0     H66924   5.589   8.918   5.359  1.9618  0.8441 -0.0849
  485MOL0     H66925   5.633   8.824   5.503  0.1740 -0.8200  0.4926
  485MOL0     H66926   5.913   8.759   5.183 -0.7496 -1.9285  1.2999
  485MOL0     H66927   5.541   9.128   5.914  1.7642  0.6126  0.0701
  485MOL0     H66928   5.473   9.088   6.253  3.9387  2.2545 -2.6660
  485MOL0     H66929   5.386   9.142   6.106  0.9305 -0.0148 -2.0621
  485MOL0     H66930   5.361   8.965   6.173  1.7517 -0.8860 -1.4748
  486MOL0     O66931   9.337   7.167   8.365  0.0137 -0.0099 -0.4446
  486MOL0     C66932   9.317   7.109   8.256  0.4867  0.8654 -0.5181
  486MOL0     O66933   9.339   6.978   8.236 -0.1104 -0.5649 -0.2603
  486MOL0     C66934   9.409   6.910   8.333  0.5395  0.2347  0.3246
  486MOL0     C66935   9.370   6.903   8.467  0.6668  0.5246 -0.3984
  486MOL0     C66936   9.439   6.827   8.558  0.3033  0.6827  0.3316
  486MOL0     C66937   9.563   6.766   8.519 -0.4498 -0.9608  0.7422
  486MOL0     O66938   9.651   6.698   8.597 -0.9259 -0.1146 -0.7348
  486MOL0     C66939   9.675   6.759   8.724  0.2321  0.0259 -0.7656
  486MOL0     C66940   9.730   6.900   8.726 -0.0402 -0.3591 -0.9000
  486MOL0     C66941   9.836   6.933   8.618 -0.3007  0.3957 -0.5353
  486MOL0     C66942   9.967   6.860   8.650  0.0811  1.4464  0.1395
  486MOL0     C66943  10.091   6.860   8.561 -0.2431  0.4233 -0.1101
  486MOL0     C66944  10.133   7.007   8.521  1.1977 -0.4644  0.1925
  486MOL0     C66945  10.173   7.093   8.637 -0.2795 -0.5106  0.2023
  486MOL0     C66946  10.178   7.241   8.614  0.1365  0.0848 -1.5223
  486MOL0     N66947  10.259   7.270   8.489 -0.6911 -1.3032 -0.6956
  486MOL0     C66948  10.226   7.375   8.409 -0.0023 -0.3319  0.0569
  486MOL0     C66949  10.329   7.397   8.332  0.2110 -0.6131  0.2683
  486MOL0     C66950  10.336   7.511   8.230 -0.1564  1.0373  0.1553
  486MOL0     C66951  10.370   7.643   8.292  0.2489  0.1090  0.0209
  486MOL0     C66952  10.276   7.744   8.225 -0.3566 -0.1137 -0.4467
  486MOL0     C66953  10.316   7.875   8.277  0.3178 -0.0027  0.2056
  486MOL0     O66954  10.455   7.915   8.261  0.3238  0.5505  0.1202
  486MOL0     C66955  10.474   8.046   8.230  0.1385  0.3361 -0.3164
  486MOL0     C66956  10.612   8.075   8.205  0.2125 -1.2636  0.5054
  486MOL0     C66957  10.650   8.210   8.194  0.3251 -0.8200 -0.2024
  486MOL0     C66958  10.798   8.223   8.181  0.4850 -0.5433  0.2352
  486MOL0     C66959  10.559   8.314   8.202  0.1964 -0.7348 -0.6129
  486MOL0     C66960  10.588   8.460   8.171  0.1569  0.1382 -1.3104
  486MOL0     O66961  10.482   8.553   8.182 -0.2350 -0.0185  0.1307
  486MOL0     C66962  10.495   8.693   8.184  0.4163 -0.9015 -0.3957
  486MOL0     C66963  10.375   8.761   8.163  0.9517 -0.9331  0.1284
  486MOL0     C66964  10.383   8.903   8.139  0.8139  0.4964 -0.4490
  486MOL0     C66965  10.511   8.970   8.158  1.4864  0.5392 -0.4335
  486MOL0     O66966  10.521   9.101   8.138 -0.0492  0.2362 -0.5005
  486MOL0     C66967  10.571   9.123   8.014  0.2657 -0.1548  0.8719
  486MOL0     C66968  10.650   9.258   8.044 -0.7613  0.5424 -0.4484
  486MOL0     C66969  10.568   9.381   8.059  0.2623  0.3933  0.1299
  486MOL0     C66970  10.648   9.498   8.111 -0.6221 -0.4790  1.1751
  486MOL0     C66971  10.555   9.608   8.161  0.9948 -0.7638  0.1962
  486MOL0     C66972  10.496   9.687   8.036  0.4410  0.0081 -0.7465
  486MOL0     C66973  10.378   9.779   8.053 -0.1747 -0.6895  0.1399
  486MOL0     C66974  10.331   9.816   8.194 -0.1396 -0.7104  0.1444
  486MOL0    Cl66975  10.257   9.982   8.203  0.0155  0.2552 -0.1003
  486MOL0     C66976  10.618   8.895   8.194 -0.2255  0.6928  0.1533
  486MOL0     C66977  10.614   8.756   8.211 -0.3801 -1.3313 -0.2227
  486MOL0     O66978  10.704   8.487   8.144  0.3527  0.5415 -0.3823
  486MOL0     C66979  10.427   8.283   8.232  1.0054 -0.1035  0.0805
  486MOL0     C66980  10.381   8.151   8.249 -0.4623  0.6322  0.5736
  486MOL0     N66981  10.423   7.307   8.366  0.4323  0.6616 -0.5519
  486MOL0     N66982  10.391   7.239   8.463  1.0935  0.2241 -1.0067
  486MOL0     C66983   9.587   6.763   8.383 -0.9539  0.1956 -0.0138
  486MOL0     C66984   9.513   6.829   8.285  0.4214 -0.1170  0.8947
  486MOL0     C66985   9.256   7.177   8.147 -0.5976 -0.9706  0.2900
  486MOL0     C66986   9.149   7.123   8.081 -0.2578 -0.0752 -0.4547
  486MOL0     C66987   9.076   7.189   7.976  0.1653  1.2396 -0.1436
  486MOL0     C66988   9.113   7.317   7.936  0.2204 -0.0774 -0.3453
  486MOL0     O66989   9.044   7.378   7.835 -0.0525 -0.9416 -0.6785
  486MOL0     C66990   9.100   7.497   7.769  0.3321 -0.0932  0.0183
  486MOL0     C66991   9.003   7.511   7.649 -0.2093  1.1356 -0.2546
  486MOL0     C66992   9.071   7.583   7.539 -0.0847 -0.1302  0.6052
  486MOL0     C66993   9.161   7.507   7.447 -0.6593 -0.7465  0.4522
  486MOL0     C66994   9.281   7.450   7.509  0.1768  0.8224  0.8512
  486MOL0     C66995   9.383   7.393   7.536  0.1396  0.0948 -0.2743
  486MOL0     C66996   9.231   7.369   7.993  0.3276  0.5185  0.6202
  486MOL0     C66997   9.302   7.303   8.088  0.9983  0.7980  0.1132
  486MOL0     C66998   9.416   7.364   8.154 -0.0414 -0.3653  1.0770
  486MOL0     H66999   9.275   6.950   8.488  0.6817  1.2013 -1.6987
  486MOL0     H67000   9.401   6.815   8.659 -1.4705  0.1030 -0.3558
  486MOL0     H67001   9.746   6.689   8.770  0.5289  0.2689 -0.8490
  486MOL0     H67002   9.582   6.771   8.781  0.4470  2.8141 -0.8762
  486MOL0     H67003   9.645   6.958   8.690  0.1285 -0.6333 -1.7500
  486MOL0     H67004   9.757   6.930   8.828  1.0156  0.5541 -1.4283
  486MOL0     H67005   9.807   6.897   8.519 -1.5039 -1.1609  0.3358
  486MOL0     H67006   9.867   7.038   8.623  0.9989 -0.0251  1.5326
  486MOL0     H67007  10.003   6.902   8.744  0.8895  3.4192 -0.9701
  486MOL0     H67008   9.941   6.756   8.668  0.1222  1.2872 -0.6931
  486MOL0     H67009  10.072   6.808   8.467 -3.2802 -0.2133  0.7568
  486MOL0     H67010  10.165   6.800   8.615  0.2317  1.7365  0.7617
  486MOL0     H67011  10.217   7.002   8.452  1.5056 -2.3849  0.6493
  486MOL0     H67012  10.042   7.047   8.475  0.2566  0.3992  2.6385
  486MOL0     H67013  10.272   7.058   8.666  0.6005 -1.5865 -3.5953
  486MOL0     H67014  10.108   7.065   8.721 -0.8445 -1.3481 -0.4911
  486MOL0     H67015  10.076   7.274   8.595  0.0264 -0.2503 -1.5317
  486MOL0     H67016  10.221   7.292   8.701  2.3275 -1.4778 -1.5775
  486MOL0     H67017  10.136   7.433   8.424 -0.0525 -0.7630  1.5659
  486MOL0     H67018  10.244   7.506   8.172 -0.0396  0.5155  0.0056
  486MOL0     H67019  10.416   7.469   8.169  0.3869  0.0790  1.4607
  486MOL0     H67020  10.348   7.625   8.397 -3.4434 -0.4920 -0.7003
  486MOL0     H67021  10.474   7.674   8.276 -0.6339  2.0280 -2.6874
  486MOL0     H67022  10.283   7.741   8.116  0.6447  2.3904 -0.5169
  486MOL0     H67023  10.171   7.726   8.250 -0.2208 -0.4067 -0.0736
  486MOL0     H67024  10.252   7.936   8.213 -0.7298  1.6328  2.6830
  486MOL0     H67025  10.286   7.885   8.381  1.0918 -0.1299  0.4510
  486MOL0     H67026  10.687   7.998   8.190  1.1950  0.0798 -2.1570
  486MOL0     H67027  10.849   8.146   8.239 -0.4608 -0.4381  1.2394
  486MOL0     H67028  10.834   8.317   8.225 -0.0692  0.8967 -2.2307
  486MOL0     H67029  10.836   8.209   8.080 -0.8532 -2.5109 -0.0364
  486MOL0     H67030  10.284   8.703   8.153 -1.3910  2.6421 -1.4906
  486MOL0     H67031  10.294   8.961   8.117  1.2202  1.9656  1.5057
  486MOL0     H67032  10.632   9.043   7.972 -0.9791 -0.1628 -1.0622
  486MOL0     H67033  10.493   9.128   7.937  1.3584 -1.2187 -0.3400
  486MOL0     H67034  10.718   9.238   8.128  0.6346 -1.5223 -1.9687
  486MOL0     H67035  10.712   9.278   7.957  1.5309 -1.3233  0.6129
  486MOL0     H67036  10.488   9.373   8.133  1.0702  3.1800  1.4688
  486MOL0     H67037  10.531   9.407   7.960  2.4528  2.9612 -0.1585
  486MOL0     H67038  10.719   9.537   8.038 -1.3768  3.5870  2.3884
  486MOL0     H67039  10.706   9.467   8.198 -1.3465  0.6319  2.0893
  486MOL0     H67040  10.469   9.566   8.214  1.6317 -2.2795  0.0712
  486MOL0     H67041  10.599   9.672   8.238  1.1990 -2.7192  1.7883
  486MOL0     H67042  10.471   9.608   7.964  3.5075 -3.2686  1.4025
  486MOL0     H67043  10.582   9.742   7.995  2.2001  0.0494  2.6440
  486MOL0     H67044  10.295   9.748   7.989 -0.4450  0.2200  0.0271
  486MOL0     H67045  10.416   9.871   8.008  0.0320 -1.3637 -1.0978
  486MOL0     H67046  10.412   9.823   8.267 -2.8672 -1.4033  3.5063
  486MOL0     H67047  10.264   9.745   8.243  1.1472 -1.8006  0.3692
  486MOL0     H67048  10.702   8.962   8.211  1.0139 -0.2543 -1.8290
  486MOL0     H67049  10.703   8.708   8.250  0.6204  1.1235  0.7878
  486MOL0     H67050  10.349   8.356   8.250  0.3175 -0.9544  0.6280
  486MOL0     H67051  10.274   8.139   8.263 -0.1404 -0.2252  2.6292
  486MOL0     H67052   9.667   6.699   8.348 -0.8370 -0.5486  1.5534
  486MOL0     H67053   9.532   6.824   8.178 -0.1777 -2.4926  0.8447
  486MOL0     H67054   9.126   7.022   8.113 -1.6545  0.8165  1.6295
  486MOL0     H67055   8.995   7.135   7.927  0.0214  1.5901 -0.2952
  486MOL0     H67056   9.093   7.582   7.838  0.2536 -0.9422  1.0715
  486MOL0     H67057   9.205   7.489   7.740 -0.0276  1.1873 -1.8353
  486MOL0     H67058   8.917   7.566   7.689  0.3005  2.5516 -1.0410
  486MOL0     H67059   8.969   7.414   7.611  2.4443  0.7094 -1.7495
  486MOL0     H67060   8.998   7.645   7.485  1.6580  2.4860  1.0843
  486MOL0     H67061   9.124   7.666   7.588 -2.0130  1.5958 -0.0612
  486MOL0     H67062   9.208   7.581   7.382 -0.2646  1.7649  3.3304
  486MOL0     H67063   9.095   7.436   7.397 -3.0034  1.3025  0.4869
  486MOL0     H67064   9.479   7.354   7.565  0.5990  1.8064  0.6534
  486MOL0     H67065   9.279   7.461   7.960  1.0126  0.4860  1.5037
  486MOL0     H67066   9.475   7.426   8.085  0.5827 -0.4640  1.5166
  486MOL0     H67067   9.389   7.412   8.248 -2.1162  2.3312 -0.7292
  486MOL0     H67068   9.494   7.291   8.176  1.0911  0.7253  0.8298
  487MOL0     O67069   2.632   4.747   1.340 -0.4724 -0.1885  0.2365
  487MOL0     C67070   2.602   4.854   1.299  0.2060  0.2841  0.1299
  487MOL0     O67071   2.687   4.941   1.236 -0.0990  0.3621 -0.0664
  487MOL0     C67072   2.790   4.880   1.177  0.0345  1.3179  0.4777
  487MOL0     C67073   2.897   4.957   1.203 -0.9805 -0.2942 -0.6818
  487MOL0     C67074   3.028   4.909   1.177 -0.5257  1.1097  0.7655
  487MOL0     C67075   3.039   4.785   1.128 -0.1843 -0.0639  0.3330
  487MOL0     O67076   3.162   4.733   1.110 -0.5832 -0.0710  0.3634
  487MOL0     C67077   3.285   4.798   1.146  0.4180  0.8655  1.3311
  487MOL0     C67078   3.395   4.727   1.074  0.8176 -0.5522  0.2539
  487MOL0     C67079   3.541   4.770   1.101 -0.2731 -0.4070  0.3530
  487MOL0     C67080   3.630   4.730   0.987 -0.1181  0.1456  0.2045
  487MOL0     C67081   3.763   4.787   1.020 -0.3738 -0.1347  0.7325
  487MOL0     C67082   3.878   4.691   0.989 -0.4315  0.5273  0.2731
  487MOL0     C67083   3.935   4.623   1.121  0.2409 -0.7222  0.5602
  487MOL0     C67084   3.876   4.488   1.142  0.6055 -0.6606 -0.2255
  487MOL0     N67085   3.894   4.393   1.028  0.2610  1.1659 -0.4682
  487MOL0     C67086   4.012   4.387   0.953  0.1807 -0.3121 -0.6398
  487MOL0     C67087   3.970   4.307   0.849 -0.3654  0.4648 -0.0084
  487MOL0     C67088   4.054   4.283   0.721  0.6297 -0.4531  0.1116
  487MOL0     C67089   4.060   4.133   0.696  0.0160  0.1111  0.0747
  487MOL0     C67090   4.068   4.099   0.550  0.6863  0.4232  0.4484
  487MOL0     C67091   4.204   4.046   0.512 -0.0208  0.5388  0.1099
  487MOL0     O67092   4.209   4.009   0.372  1.0724  0.1569  0.5550
  487MOL0     C67093   4.319   3.941   0.336  0.4740 -0.3315 -0.2783
  487MOL0     C67094   4.445   3.956   0.397  0.0061  0.4657  0.1427
  487MOL0     C67095   4.556   3.888   0.342  0.1821 -0.3162  0.3508
  487MOL0     C67096   4.693   3.933   0.398  0.1499 -0.0397  0.0092
  487MOL0     C67097   4.552   3.804   0.219 -0.2634  0.0853 -1.3758
  487MOL0     C67098   4.668   3.734   0.153 -0.9204 -0.1956  0.8777
  487MOL0     O67099   4.660   3.730   0.021 -0.1879  0.0606  0.0124
  487MOL0     C67100   4.770   3.673  -0.040  0.5014  0.1711  1.2293
  487MOL0     C67101   4.904   3.690  -0.013  0.0586  0.0099  0.6423
  487MOL0     C67102   5.000   3.623  -0.098 -0.3303  0.2417  0.0743
  487MOL0     C67103   4.955   3.531  -0.191  0.3223  1.2960  0.4830
  487MOL0     O67104   5.041   3.448  -0.262 -0.6411 -0.2903 -0.6812
  487MOL0     C67105   5.153   3.380  -0.203 -0.9870  0.1644  0.4959
  487MOL0     C67106   5.192   3.264  -0.281 -0.5650  2.1345 -0.2219
  487MOL0     C67107   5.094   3.144  -0.286 -0.6951 -0.0292  0.0110
  487MOL0     C67108   5.105   3.069  -0.423 -0.5713 -0.0119  0.5288
  487MOL0     C67109   4.981   2.996  -0.471 -0.4751 -0.3596 -0.9435
  487MOL0     C67110   5.020   2.893  -0.579 -0.9237  0.5269  0.4983
  487MOL0     C67111   5.038   2.970  -0.714 -1.3150  1.3660 -0.2434
  487MOL0     C67112   5.048   2.861  -0.828  0.9382 -0.0608  0.4896
  487MOL0    Cl67113   4.916   2.743  -0.849 -0.0190  0.0059  0.2216
  487MOL0     C67114   4.815   3.516  -0.212 -0.1443 -1.0470  0.6328
  487MOL0     C67115   4.723   3.592  -0.137 -0.1337  0.1684 -0.5734
  487MOL0     O67116   4.750   3.686   0.227 -0.6536 -0.2391 -0.0194
  487MOL0     C67117   4.422   3.799   0.163  0.6916  0.3734  0.3240
  487MOL0     C67118   4.310   3.863   0.220 -0.2369  0.6278  0.6707
  487MOL0     N67119   3.842   4.251   0.874  0.0858 -0.5981 -1.0359
  487MOL0     N67120   3.803   4.293   0.995  0.4776  0.3518  1.5533
  487MOL0     C67121   2.930   4.703   1.096 -0.1929 -0.2578  0.7185
  487MOL0     C67122   2.799   4.753   1.119 -0.2045 -0.5201 -0.0160
  487MOL0     C67123   2.466   4.905   1.336  0.1134 -0.1544  0.7464
  487MOL0     C67124   2.432   5.040   1.292 -0.0384 -0.1299 -0.2158
  487MOL0     C67125   2.311   5.101   1.340 -0.0382 -0.2827  0.0419
  487MOL0     C67126   2.220   5.031   1.416 -0.6359  0.6938 -0.0043
  487MOL0     O67127   2.108   5.100   1.459 -0.4531 -0.1207  0.4923
  487MOL0     C67128   1.997   5.033   1.521 -0.5202  0.6551 -0.2407
  487MOL0     C67129   1.876   5.126   1.525 -0.4660 -0.2342  0.4636
  487MOL0     C67130   1.819   5.149   1.387  0.4461 -0.2664  0.5398
  487MOL0     C67131   1.735   5.016   1.351 -0.8346 -0.3222  1.0449
  487MOL0     C67132   1.654   5.034   1.234  0.1230  0.6735  0.6409
  487MOL0     C67133   1.572   5.031   1.143  0.9431 -0.4709 -0.0017
  487MOL0     C67134   2.255   4.901   1.447 -0.2219 -0.5111 -0.6963
  487MOL0     C67135   2.369   4.831   1.399 -0.9193 -0.0777 -0.0044
  487MOL0     C67136   2.371   4.689   1.437 -0.1312  0.5197 -0.0532
  487MOL0     H67137   2.890   5.056   1.246  2.2984 -0.6232  0.9066
  487MOL0     H67138   3.107   4.984   1.187 -1.3782  2.4173 -1.3691
  487MOL0     H67139   3.301   4.790   1.254 -0.5266 -3.2934  1.3505
  487MOL0     H67140   3.284   4.899   1.105 -2.7917  0.5906  0.4253
  487MOL0     H67141   3.384   4.626   1.114  2.4268  0.2480  3.0328
  487MOL0     H67142   3.383   4.724   0.965  1.2468 -4.1153  0.1716
  487MOL0     H67143   3.547   4.879   1.095  0.3807 -0.4982 -0.9309
  487MOL0     H67144   3.570   4.718   1.193  0.9656 -1.5928 -0.6664
  487MOL0     H67145   3.630   4.624   0.958 -1.1886 -0.2201  1.4292
  487MOL0     H67146   3.588   4.777   0.897 -2.2396  0.7601  1.4448
  487MOL0     H67147   3.772   4.820   1.124  0.2624  1.5883  0.1729
  487MOL0     H67148   3.768   4.875   0.955 -0.3126 -0.2713  0.5540
  487MOL0     H67149   3.861   4.615   0.913  0.2638 -0.4844  1.1090
  487MOL0     H67150   3.953   4.764   0.958 -0.0459  0.4941  1.1000
  487MOL0     H67151   3.909   4.685   1.207  1.5981  0.9047 -0.1303
  487MOL0     H67152   4.044   4.619   1.112  0.1591 -1.1171 -0.4624
  487MOL0     H67153   3.914   4.448   1.236  2.2688  2.9129  0.7819
  487MOL0     H67154   3.770   4.498   1.168  0.7568  1.6834 -0.3357
  487MOL0     H67155   4.097   4.450   0.976  0.1923 -1.1927  2.2200
  487MOL0     H67156   4.153   4.327   0.736  0.6399 -0.6602  0.6844
  487MOL0     H67157   4.017   4.330   0.630  1.4866 -1.4659 -0.7900
  487MOL0     H67158   4.150   4.090   0.740  0.2066 -0.0561 -0.4689
  487MOL0     H67159   3.975   4.090   0.749  0.7318  0.5142  1.6071
  487MOL0     H67160   3.995   4.019   0.531 -1.0159  2.3169 -1.4613
  487MOL0     H67161   4.049   4.177   0.476 -0.1843 -2.9706 -3.2883
  487MOL0     H67162   4.280   4.118   0.543 -0.6997  1.1431  0.4051
  487MOL0     H67163   4.228   3.964   0.580  1.1837 -0.1357 -1.0985
  487MOL0     H67164   4.465   4.042   0.460  2.4497 -1.2025  1.7886
  487MOL0     H67165   4.744   3.840   0.424  0.7174 -0.3811 -2.0901
  487MOL0     H67166   4.674   3.985   0.492 -1.7083  0.9286 -0.8636
  487MOL0     H67167   4.746   3.999   0.329  0.4545  4.3670  3.9386
  487MOL0     H67168   4.939   3.748   0.071 -0.4985 -0.1872  1.0208
  487MOL0     H67169   5.107   3.625  -0.081 -0.0230 -0.9812 -1.4941
  487MOL0     H67170   5.240   3.447  -0.204 -0.1955 -0.7174 -3.0547
  487MOL0     H67171   5.125   3.335  -0.107  4.9805 -0.7632  2.2624
  487MOL0     H67172   5.210   3.302  -0.383  0.9407 -0.0970 -0.8513
  487MOL0     H67173   5.282   3.229  -0.231 -2.7833  0.3247  2.8236
  487MOL0     H67174   4.993   3.181  -0.263 -0.7799 -0.1528 -0.1656
  487MOL0     H67175   5.115   3.074  -0.204  1.9524 -0.2397 -0.7867
  487MOL0     H67176   5.195   3.006  -0.419  0.7473  1.8341  1.8898
  487MOL0     H67177   5.120   3.146  -0.500 -1.6782  3.2503  3.3466
  487MOL0     H67178   4.935   2.944  -0.386 -0.4481  1.3972  0.1970
  487MOL0     H67179   4.895   3.059  -0.498 -0.8049 -0.7024 -0.7150
  487MOL0     H67180   4.933   2.827  -0.579 -2.5742  2.5522  1.4320
  487MOL0     H67181   5.107   2.834  -0.549 -2.3865 -1.6038  0.7739
  487MOL0     H67182   5.132   3.027  -0.716  0.1743 -0.9092 -2.5037
  487MOL0     H67183   4.955   3.039  -0.731 -3.0701 -0.4969  0.4780
  487MOL0     H67184   5.134   2.796  -0.809  2.1648  0.9798 -1.1436
  487MOL0     H67185   5.061   2.917  -0.921  1.3506  0.0281  0.5952
  487MOL0     H67186   4.767   3.447  -0.280 -1.0157  1.0042 -0.9176
  487MOL0     H67187   4.615   3.583  -0.140 -0.4769  3.4713 -2.8080
  487MOL0     H67188   4.413   3.743   0.070  1.7415 -1.1335  1.0841
  487MOL0     H67189   4.211   3.839   0.182  0.9600 -0.3817 -2.0844
  487MOL0     H67190   2.967   4.609   1.055  2.9086  0.6532  1.1730
  487MOL0     H67191   2.704   4.706   1.094 -2.8688  4.3502 -0.2665
  487MOL0     H67192   2.489   5.098   1.220  0.1102  1.4489  1.1017
  487MOL0     H67193   2.281   5.203   1.317 -0.0445 -0.8510 -2.8829
  487MOL0     H67194   1.965   4.936   1.484  0.0532 -0.2052  1.4110
  487MOL0     H67195   2.049   5.012   1.615  0.1507  0.9037 -0.5474
  487MOL0     H67196   1.905   5.220   1.573  1.4923 -1.0157  0.9407
  487MOL0     H67197   1.816   5.059   1.588  1.2675 -2.3988 -0.0413
  487MOL0     H67198   1.756   5.238   1.388 -0.6579 -1.0213  1.2577
  487MOL0     H67199   1.898   5.153   1.312  1.4470 -3.2232  1.3023
  487MOL0     H67200   1.680   4.996   1.443 -1.5182  3.8693  1.7570
  487MOL0     H67201   1.799   4.930   1.329 -2.0555 -1.2827  1.1603
  487MOL0     H67202   1.509   5.043   1.057 -0.9825  1.2383  1.5377
  487MOL0     H67203   2.198   4.844   1.519  2.7864  1.0763  3.3172
  487MOL0     H67204   2.420   4.690   1.535  0.0930 -0.3832 -0.1462
  487MOL0     H67205   2.268   4.653   1.442  0.2925 -0.7110 -0.0068
  487MOL0     H67206   2.421   4.618   1.371  2.0194 -0.4372  2.4506
  488MOL0     O67207   5.702   1.914  10.397  0.1320  0.3127 -0.2391
  488MOL0     C67208   5.794   1.842  10.446  0.3292 -0.6660 -0.3958
  488MOL0     O67209   5.795   1.708  10.454  0.6034  0.3885  0.1326
  488MOL0     C67210   5.708   1.625  10.384 -0.1300 -0.8590  1.0999
  488MOL0     C67211   5.675   1.659  10.246  0.4847 -0.0940 -0.0678
  488MOL0     C67212   5.611   1.567  10.161  0.0308 -0.2072 -0.0104
  488MOL0     C67213   5.583   1.437  10.193  0.5187 -0.6400  0.2293
  488MOL0     O67214   5.522   1.361  10.094 -0.5808 -0.0763  0.3112
  488MOL0     C67215   5.489   1.224  10.125 -0.4871 -0.1647  0.1684
  488MOL0     C67216   5.608   1.118  10.131 -0.1482 -0.5703 -0.3007
  488MOL0     C67217   5.644   1.078   9.986 -0.1300 -0.6987 -0.1299
  488MOL0     C67218   5.765   0.989   9.969  0.0788 -0.2112  0.0223
  488MOL0     C67219   5.769   0.928   9.828  0.7381  0.7409 -0.3527
  488MOL0     C67220   5.894   0.840   9.807  0.1642  0.5921  0.4716
  488MOL0     C67221   5.997   0.933   9.750  0.0351 -0.1771 -0.3601
  488MOL0     C67222   5.977   0.974   9.606 -1.6162  0.3056 -0.3926
  488MOL0     N67223   6.106   1.027   9.553  0.1016 -0.1835 -0.3550
  488MOL0     C67224   6.176   1.148   9.583 -0.5859 -0.0287 -0.1694
  488MOL0     C67225   6.269   1.166   9.484 -0.7747  0.2216 -0.0216
  488MOL0     C67226   6.331   1.293   9.475  0.1714 -0.6240 -0.0861
  488MOL0     C67227   6.399   1.322   9.343  0.6234  0.6086  0.3844
  488MOL0     C67228   6.478   1.451   9.353 -0.1942  0.3945  0.3076
  488MOL0     C67229   6.481   1.522   9.222 -0.1307 -1.2471 -0.1679
  488MOL0     O67230   6.546   1.437   9.126  0.5968 -0.1770  0.3200
  488MOL0     C67231   6.567   1.489   9.000  0.6317  0.7604 -0.0284
  488MOL0     C67232   6.652   1.416   8.917  0.4313  0.0899 -0.5784
  488MOL0     C67233   6.705   1.480   8.804 -0.4733  1.4761 -0.4759
  488MOL0     C67234   6.829   1.408   8.744 -0.2626  0.7091 -0.3514
  488MOL0     C67235   6.657   1.603   8.751  0.0824  0.2405 -0.4170
  488MOL0     C67236   6.700   1.662   8.625 -1.4069 -0.7368  0.7226
  488MOL0     O67237   6.664   1.785   8.594  0.4038 -0.5921 -0.3890
  488MOL0     C67238   6.655   1.830   8.461 -0.1076  0.3706  0.2788
  488MOL0     C67239   6.535   1.893   8.429  0.0119 -0.2560 -0.5840
  488MOL0     C67240   6.526   1.974   8.314 -0.6109  1.1756 -0.6731
  488MOL0     C67241   6.633   1.981   8.226  0.3730 -0.6569 -0.1487
  488MOL0     O67242   6.638   2.075   8.128  0.7044  0.2362  1.4237
  488MOL0     C67243   6.729   2.066   8.015 -0.0010  0.8461 -0.3468
  488MOL0     C67244   6.672   2.170   7.922 -0.2851  0.3975 -0.5635
  488MOL0     C67245   6.747   2.160   7.787  0.9360  0.8607  0.3156
  488MOL0     C67246   6.747   2.299   7.710  0.5713 -0.8785 -0.5623
  488MOL0     C67247   6.796   2.294   7.567 -0.0510  0.4612  0.4920
  488MOL0     C67248   6.939   2.246   7.540  0.0881  0.2362 -0.4500
  488MOL0     C67249   7.037   2.333   7.619  0.4257  0.0577 -0.4170
  488MOL0     C67250   7.175   2.285   7.634 -0.1428  0.3585  0.3073
  488MOL0    Cl67251   7.195   2.117   7.698 -0.6531 -0.0449  0.1702
  488MOL0     C67252   6.751   1.916   8.267  0.3322  0.1690 -0.0264
  488MOL0     C67253   6.767   1.842   8.380 -0.4682  1.1223  0.4806
  488MOL0     O67254   6.762   1.590   8.545  0.0568  0.6245  0.1899
  488MOL0     C67255   6.556   1.666   8.826  0.8413  0.6455  0.0358
  488MOL0     C67256   6.518   1.610   8.953  0.7332  0.6598  1.0476
  488MOL0     N67257   6.277   1.039   9.423 -0.2023  0.0209  1.0556
  488MOL0     N67258   6.181   0.962   9.462  1.2711 -0.2226 -0.2455
  488MOL0     C67259   5.620   1.393  10.325 -0.4307 -0.0689 -0.2946
  488MOL0     C67260   5.684   1.481  10.409 -0.3431  0.1752 -0.2217
  488MOL0     C67261   5.897   1.905  10.529 -0.9827  0.4942 -0.3416
  488MOL0     C67262   5.908   1.877  10.661 -0.9196  0.5914  0.2192
  488MOL0     C67263   5.999   1.936  10.753  1.0396  0.3726  0.1626
  488MOL0     C67264   6.089   2.032  10.695  0.6430  0.4413 -0.4376
  488MOL0     O67265   6.191   2.089  10.765  0.3737  0.4854 -0.2956
  488MOL0     C67266   6.280   1.997  10.829  0.4414  0.7398 -0.5458
  488MOL0     C67267   6.418   2.060  10.842 -0.4257  0.1249  0.4314
  488MOL0     C67268   6.484   2.084  10.701 -0.1843  0.8558 -0.2133
  488MOL0     C67269   6.513   1.952  10.622 -0.2749 -0.1901 -0.6337
  488MOL0     C67270   6.584   1.856  10.709  1.0633  1.2554 -0.0301
  488MOL0     C67271   6.642   1.804  10.796  0.0656  0.2692  0.7881
  488MOL0     C67272   6.084   2.065  10.562 -0.2852  0.1397 -0.5284
  488MOL0     C67273   5.980   2.010  10.482 -0.5349  0.4957  0.4216
  488MOL0     C67274   5.967   2.047  10.335 -0.3319 -0.5445 -0.5195
  488MOL0     H67275   5.709   1.752  10.201  0.1936 -0.2101 -0.5456
  488MOL0     H67276   5.596   1.589  10.056  0.0093  0.1912  0.0740
  488MOL0     H67277   5.419   1.189  10.049 -0.0810 -1.0909  0.2062
  488MOL0     H67278   5.429   1.224  10.217  1.4501  0.4334  1.5017
  488MOL0     H67279   5.703   1.156  10.170 -1.0204 -0.4186  1.8451
  488MOL0     H67280   5.579   1.038  10.199 -1.5093  1.2689  1.3936
  488MOL0     H67281   5.565   1.014   9.945 -0.5438 -1.4599  1.7514
  488MOL0     H67282   5.656   1.170   9.928  1.4280  1.2993  3.0691
  488MOL0     H67283   5.860   1.040   9.988  1.3391 -2.1600 -0.7992
  488MOL0     H67284   5.756   0.910  10.044  0.5889 -0.7926 -0.5210
  488MOL0     H67285   5.754   1.014   9.763 -0.9340  0.9889  0.2869
  488MOL0     H67286   5.690   0.851   9.825  1.2275  0.2396 -0.4563
  488MOL0     H67287   5.929   0.790   9.897 -0.4593 -1.5854 -0.4200
  488MOL0     H67288   5.868   0.762   9.734  1.7427  2.3216 -2.0973
  488MOL0     H67289   6.098   0.893   9.764  0.9136  2.3217  1.0995
  488MOL0     H67290   5.995   1.020   9.816 -1.1662 -1.1216  0.9116
  488MOL0     H67291   5.959   0.891   9.537  0.5811 -0.2811 -0.3073
  488MOL0     H67292   5.900   1.052   9.593  0.2364  2.4279  0.7261
  488MOL0     H67293   6.143   1.231   9.645 -0.7078 -0.8518  0.8958
  488MOL0     H67294   6.404   1.306   9.556  0.8520 -0.9820 -0.6314
  488MOL0     H67295   6.252   1.366   9.497 -0.8982 -0.5554 -3.6115
  488MOL0     H67296   6.454   1.243   9.291 -1.3521  0.8009 -2.2107
  488MOL0     H67297   6.322   1.321   9.265  0.5838 -0.2547  0.4192
  488MOL0     H67298   6.426   1.516   9.425  2.7750  1.7878  1.3462
  488MOL0     H67299   6.578   1.427   9.389  0.1584 -2.4721 -2.1297
  488MOL0     H67300   6.378   1.551   9.199 -0.8399 -2.5571  1.1431
  488MOL0     H67301   6.538   1.615   9.230  0.6994 -1.9043  3.0980
  488MOL0     H67302   6.687   1.316   8.942  1.5277  0.2465 -1.3938
  488MOL0     H67303   6.874   1.329   8.804  0.4945  2.2057  1.1579
  488MOL0     H67304   6.909   1.480   8.725 -0.7549  0.9906 -1.4221
  488MOL0     H67305   6.804   1.363   8.648  0.4773 -1.3122  0.3613
  488MOL0     H67306   6.446   1.894   8.492  2.4121 -1.1781  3.1985
  488MOL0     H67307   6.446   2.043   8.291 -0.2996  1.2022 -1.6907
  488MOL0     H67308   6.825   2.102   8.052 -0.6236  1.0630  1.1093
  488MOL0     H67309   6.733   1.972   7.959  1.6720  2.1264 -2.5610
  488MOL0     H67310   6.564   2.168   7.905 -0.1775 -1.7463 -1.1760
  488MOL0     H67311   6.693   2.263   7.977 -1.5751  0.3137  0.1218
  488MOL0     H67312   6.712   2.073   7.730  2.6102  0.0280  0.5010
  488MOL0     H67313   6.854   2.153   7.810  1.7894 -2.5606 -3.5818
  488MOL0     H67314   6.808   2.373   7.763  0.4871  0.0254 -1.6695
  488MOL0     H67315   6.651   2.351   7.717  0.0338 -1.8900 -0.1630
  488MOL0     H67316   6.732   2.226   7.510  0.2733 -1.2558  2.0880
  488MOL0     H67317   6.770   2.388   7.518 -1.3130 -0.4559 -0.6772
  488MOL0     H67318   6.963   2.260   7.434  1.2118  0.6601 -0.1498
  488MOL0     H67319   6.964   2.140   7.554  3.6235  0.9899  0.0456
  488MOL0     H67320   7.002   2.356   7.721  0.8927  4.1112 -0.9809
  488MOL0     H67321   7.034   2.424   7.558 -1.0140  0.5016  0.2616
  488MOL0     H67322   7.223   2.359   7.699 -1.5467  2.9131 -1.3733
  488MOL0     H67323   7.226   2.288   7.537  0.4176 -0.2982  0.5686
  488MOL0     H67324   6.844   1.923   8.211  3.2481 -0.0619  4.3182
  488MOL0     H67325   6.855   1.782   8.404 -0.2251  1.8547  1.4882
  488MOL0     H67326   6.504   1.751   8.783  0.3281  2.0645  3.2165
  488MOL0     H67327   6.454   1.672   9.014 -2.1460 -1.8492  0.8125
  488MOL0     H67328   5.593   1.294  10.361 -0.9978 -0.8511 -2.6877
  488MOL0     H67329   5.729   1.439  10.499  3.4330  0.7782 -1.6346
  488MOL0     H67330   5.837   1.808  10.708  0.3482 -0.2033  1.0191
  488MOL0     H67331   6.005   1.921  10.860  1.4388  1.6767  0.3392
  488MOL0     H67332   6.237   1.976  10.927 -3.2591 -0.0458 -2.1680
  488MOL0     H67333   6.290   1.905  10.772  0.4947  0.9947 -0.9553
  488MOL0     H67334   6.484   2.011  10.914 -0.0463 -0.1701 -0.1147
  488MOL0     H67335   6.402   2.154  10.895  0.9632  0.0149  1.1017
  488MOL0     H67336   6.424   2.156  10.644  1.3733  1.5737 -0.9932
  488MOL0     H67337   6.574   2.137  10.735  1.8417 -3.4954  2.0613
  488MOL0     H67338   6.585   1.986  10.547 -0.1950 -1.7887 -1.3196
  488MOL0     H67339   6.425   1.913  10.571  2.5891 -1.4649 -5.1094
  488MOL0     H67340   6.676   1.767  10.891  0.9766 -3.0234 -0.7177
  488MOL0     H67341   6.158   2.138  10.530 -2.6214  1.5833 -3.1028
  488MOL0     H67342   5.915   1.976  10.271  0.1529 -0.0437 -1.4803
  488MOL0     H67343   5.910   2.140  10.328 -2.2005 -1.5852  0.2062
  488MOL0     H67344   6.071   2.050  10.301  0.1078  0.5266  0.7969
  489MOL0     O67345  11.036   4.133   8.861  0.4029 -0.2631 -0.1462
  489MOL0     C67346  10.922   4.171   8.899 -0.1091 -0.6724 -0.2868
  489MOL0     O67347  10.866   4.282   8.842 -1.2409 -0.3854 -0.6346
  489MOL0     C67348  10.924   4.352   8.743 -0.3394 -0.2981 -0.3684
  489MOL0     C67349  10.834   4.417   8.650  0.0923 -0.2073 -0.2026
  489MOL0     C67350  10.898   4.494   8.550 -0.3957  0.0418  0.1213
  489MOL0     C67351  11.043   4.519   8.543  0.1844 -0.2525 -0.3458
  489MOL0     O67352  11.081   4.609   8.445  0.3012 -0.1444  0.0096
  489MOL0     C67353  11.168   4.701   8.493  0.0139 -0.1144  0.4209
  489MOL0     C67354  11.245   4.786   8.387 -0.0417  1.1329  0.6516
  489MOL0     C67355  11.328   4.697   8.293 -0.1528  0.2592  0.6267
  489MOL0     C67356  11.382   4.776   8.170 -0.0601  0.4499  0.5628
  489MOL0     C67357  11.494   4.695   8.097  0.3152 -0.4856 -0.0079
  489MOL0     C67358  11.542   4.772   7.968 -0.1911 -0.1677 -0.5790
  489MOL0     C67359  11.676   4.721   7.913 -0.1415 -0.4859  0.2524
  489MOL0     C67360  11.795   4.803   7.972 -0.2431 -1.1040  0.1604
  489MOL0     N67361  11.928   4.748   7.936 -0.1507  0.2558 -0.0529
  489MOL0     C67362  11.997   4.781   7.818 -0.2049 -0.3880 -0.6518
  489MOL0     C67363  12.091   4.685   7.804  0.5104  0.4389 -0.6900
  489MOL0     C67364  12.188   4.675   7.696  0.2929 -0.2424  0.2797
  489MOL0     C67365  12.161   4.553   7.615 -0.3695  0.4277 -0.0720
  489MOL0     C67366  12.287   4.525   7.519  0.5598  0.0324 -0.3079
  489MOL0     C67367  12.264   4.422   7.419  0.4484  0.3779  0.4374
  489MOL0     O67368  12.271   4.284   7.477 -0.6665  0.5210 -0.4760
  489MOL0     C67369  12.348   4.199   7.406 -0.1954  0.7559  0.7252
  489MOL0     C67370  12.429   4.101   7.472  0.5620  1.0859 -0.3616
  489MOL0     C67371  12.492   3.999   7.400  0.2815 -0.0638  0.5893
  489MOL0     C67372  12.568   3.887   7.485 -0.9085 -0.8260  0.4681
  489MOL0     C67373  12.482   3.997   7.255 -0.3678 -0.3348  0.1510
  489MOL0     C67374  12.547   3.902   7.162  0.5115  0.7607  0.1013
  489MOL0     O67375  12.535   3.926   7.019  0.3347  0.2031 -0.5756
  489MOL0     C67376  12.609   3.849   6.926 -0.0503 -0.4585 -0.6421
  489MOL0     C67377  12.701   3.916   6.834  0.4820  0.7745  0.0205
  489MOL0     C67378  12.776   3.850   6.747  0.0729  0.3934  0.2884
  489MOL0     C67379  12.781   3.708   6.752 -0.3391 -0.0079 -0.6170
  489MOL0     O67380  12.884   3.646   6.686 -0.3034  0.2910 -0.5999
  489MOL0     C67381  12.925   3.520   6.733 -0.4078  0.6704 -0.9160
  489MOL0     C67382  13.036   3.473   6.638  0.2100  0.2689  0.5920
  489MOL0     C67383  13.155   3.574   6.624  0.0131  0.4588 -0.2264
  489MOL0     C67384  13.288   3.526   6.562 -0.1807 -0.1046 -1.0864
  489MOL0     C67385  13.369   3.420   6.631  0.4279  0.8420 -0.1457
  489MOL0     C67386  13.446   3.472   6.750  0.1185 -1.0246  0.1483
  489MOL0     C67387  13.524   3.355   6.823 -0.1689 -0.2858 -0.3514
  489MOL0     C67388  13.598   3.422   6.936 -0.2396 -0.6884  0.0094
  489MOL0    Cl67389  13.693   3.557   6.873 -0.2728  0.2784  0.1279
  489MOL0     C67390  12.696   3.641   6.849 -0.2032 -0.5694 -0.1945
  489MOL0     C67391  12.603   3.715   6.926  0.5365 -0.1626  0.0173
  489MOL0     O67392  12.589   3.798   7.212 -0.8593  0.6722  0.0111
  489MOL0     C67393  12.399   4.093   7.192 -0.1144  0.0744 -0.3074
  489MOL0     C67394  12.332   4.190   7.268 -0.5188 -1.0141  0.7175
  489MOL0     N67395  12.085   4.596   7.916  0.2363  0.2162 -0.0860
  489MOL0     N67396  11.993   4.636   7.992 -0.4391 -0.6646  0.1530
  489MOL0     C67397  11.122   4.460   8.642 -0.4465 -0.0834 -0.8327
  489MOL0     C67398  11.065   4.386   8.744 -0.0795  0.4366  0.2040
  489MOL0     C67399  10.852   4.102   9.000  0.9824  0.5886 -0.1968
  489MOL0     C67400  10.780   4.178   9.095  0.2370  0.1346  0.4463
  489MOL0     C67401  10.705   4.120   9.197 -0.5542  0.9410 -0.6756
  489MOL0     C67402  10.684   3.981   9.199  0.6551 -0.6706  0.4122
  489MOL0     O67403  10.600   3.918   9.283 -0.6230  0.6028  0.2915
  489MOL0     C67404  10.465   3.957   9.264  0.1043  0.9477  0.0388
  489MOL0     C67405  10.421   4.026   9.390 -0.6683  0.0664 -0.7935
  489MOL0     C67406  10.294   4.098   9.375  0.6452 -0.2830 -0.0551
  489MOL0     C67407  10.224   4.123   9.507  0.8157 -0.8208  0.2473
  489MOL0     C67408  10.156   4.004   9.572 -0.5220  0.6925  0.7099
  489MOL0     C67409  10.103   3.914   9.638  0.8701  0.3576  0.3076
  489MOL0     C67410  10.760   3.908   9.106  0.0041  0.3507 -0.6801
  489MOL0     C67411  10.845   3.960   9.010  0.3796  0.6408  0.0404
  489MOL0     C67412  10.904   3.869   8.910 -0.2163  0.6884 -0.1572
  489MOL0     H67413  10.730   4.389   8.632  0.9123 -3.1475 -0.9441
  489MOL0     H67414  10.838   4.552   8.481  0.3944  0.5051 -0.1948
  489MOL0     H67415  11.253   4.665   8.551  0.4826  0.6532  0.2251
  489MOL0     H67416  11.117   4.780   8.550 -3.0839 -0.4388 -1.6400
  489MOL0     H67417  11.171   4.847   8.334 -1.1046 -1.4091 -0.9830
  489MOL0     H67418  11.311   4.862   8.429 -1.5813  3.3090 -0.6139
  489MOL0     H67419  11.414   4.662   8.352  1.3511 -2.0497 -2.5883
  489MOL0     H67420  11.276   4.607   8.259  1.4351 -0.0431 -1.2311
  489MOL0     H67421  11.296   4.801   8.108 -0.1612  2.5044  1.4263
  489MOL0     H67422  11.432   4.869   8.198  1.6867 -0.4288  0.4541
  489MOL0     H67423  11.452   4.596   8.078  0.9007 -0.6228 -0.6098
  489MOL0     H67424  11.580   4.681   8.163 -0.3524 -0.1493  0.9579
  489MOL0     H67425  11.470   4.746   7.889  1.7468  0.3170 -2.6280
  489MOL0     H67426  11.549   4.879   7.988 -0.4250 -0.6929  2.9167
  489MOL0     H67427  11.682   4.737   7.805 -0.8773  0.0949  0.2844
  489MOL0     H67428  11.688   4.615   7.936 -2.4543 -0.7318  0.5859
  489MOL0     H67429  11.794   4.907   7.938 -2.9628 -1.3147 -0.6825
  489MOL0     H67430  11.783   4.815   8.080  0.8292  0.0531  0.1734
  489MOL0     H67431  11.989   4.856   7.740  2.6051  0.9300  0.2244
  489MOL0     H67432  12.289   4.676   7.738  0.5820  0.0874 -0.3973
  489MOL0     H67433  12.179   4.767   7.638 -1.3300  0.4356  1.5596
  489MOL0     H67434  12.143   4.465   7.677  3.4095 -2.1700 -2.2003
  489MOL0     H67435  12.075   4.566   7.549 -1.9671  1.7483  2.1289
  489MOL0     H67436  12.319   4.620   7.474  1.6912 -0.3600 -0.3453
  489MOL0     H67437  12.370   4.488   7.578 -0.2577 -0.8095  0.3347
  489MOL0     H67438  12.173   4.428   7.358  0.8802  0.0546 -0.2559
  489MOL0     H67439  12.351   4.424   7.352 -1.4383  1.2816 -2.1545
  489MOL0     H67440  12.445   4.118   7.578  3.5315 -0.2106 -0.5261
  489MOL0     H67441  12.643   3.832   7.427 -1.6891 -0.7992 -0.5754
  489MOL0     H67442  12.498   3.817   7.531 -0.0322  0.0673  3.4445
  489MOL0     H67443  12.616   3.932   7.573 -0.2590 -1.1579  0.2930
  489MOL0     H67444  12.706   4.024   6.822  1.3348  0.7094 -0.3260
  489MOL0     H67445  12.841   3.898   6.673 -2.2463 -2.5767 -4.1486
  489MOL0     H67446  12.952   3.524   6.839 -2.7116 -1.1654 -0.2057
  489MOL0     H67447  12.841   3.451   6.730 -1.1894  1.4655  0.9173
  489MOL0     H67448  13.062   3.369   6.659 -0.4433  0.2577  1.4359
  489MOL0     H67449  12.984   3.472   6.542 -4.0726  4.5193  2.4382
  489MOL0     H67450  13.171   3.626   6.720  0.3013 -0.6962  0.3615
  489MOL0     H67451  13.126   3.647   6.547  1.4578 -1.1638 -2.4287
  489MOL0     H67452  13.352   3.614   6.546 -2.5566  2.4496  2.0737
  489MOL0     H67453  13.259   3.489   6.463 -0.5561  0.9209 -1.3763
  489MOL0     H67454  13.306   3.333   6.649 -0.0890  0.8642 -1.6750
  489MOL0     H67455  13.439   3.377   6.558 -0.9303  0.8253 -1.4802
  489MOL0     H67456  13.387   3.523   6.827 -0.8047 -1.4694 -0.2450
  489MOL0     H67457  13.511   3.551   6.713  1.9654 -1.5677  2.0424
  489MOL0     H67458  13.594   3.302   6.759  0.2310  0.0366 -0.1834
  489MOL0     H67459  13.461   3.281   6.874  2.6894 -1.2717  2.0525
  489MOL0     H67460  13.666   3.352   6.986  2.4964  2.3177  0.7734
  489MOL0     H67461  13.537   3.453   7.022  0.4628 -2.1579  1.0941
  489MOL0     H67462  12.720   3.537   6.866  3.8258 -0.2067 -2.3834
  489MOL0     H67463  12.536   3.659   6.991  0.3722 -1.1878 -0.9955
  489MOL0     H67464  12.392   4.103   7.084  0.1361  4.2765 -0.1083
  489MOL0     H67465  12.273   4.266   7.218 -1.5076 -2.5758 -0.5465
  489MOL0     H67466  11.230   4.474   8.643 -0.4479  0.4908  2.4269
  489MOL0     H67467  11.121   4.354   8.832 -0.3116  0.3739  0.3307
  489MOL0     H67468  10.795   4.285   9.095  0.0942  0.1871  2.2139
  489MOL0     H67469  10.665   4.183   9.277  1.7327  1.2621  0.2919
  489MOL0     H67470  10.444   4.022   9.178 -3.0188  1.0336  0.7583
  489MOL0     H67471  10.407   3.865   9.264 -2.5689  1.9899  7.3761
  489MOL0     H67472  10.493   4.098   9.430 -1.0447  0.4388 -0.7695
  489MOL0     H67473  10.421   3.947   9.466  2.7640  0.5425 -0.1539
  489MOL0     H67474  10.315   4.195   9.329 -0.7136  0.6463  1.1811
  489MOL0     H67475  10.231   4.043   9.305  2.7005 -3.4328  0.3890
  489MOL0     H67476  10.143   4.193   9.482  1.5447 -0.5500 -1.5581
  489MOL0     H67477  10.296   4.155   9.582  1.5247 -2.0646  0.1220
  489MOL0     H67478  10.052   3.834   9.688  0.1847 -0.6220 -1.8395
  489MOL0     H67479  10.750   3.801   9.123  2.4276  0.1677 -0.1254
  489MOL0     H67480  10.889   3.763   8.932  1.6238  0.2323 -0.8889
  489MOL0     H67481  10.870   3.892   8.809  0.7513 -0.6799 -0.8353
  489MOL0     H67482  11.010   3.897   8.917 -0.4854  1.6491  0.3195
  490MOL0     O67483   4.089   5.325   5.629  0.0963 -0.5011  0.1807
  490MOL0     C67484   3.996   5.245   5.634  0.1329 -0.6519 -0.1116
  490MOL0     O67485   3.875   5.283   5.695 -0.8111  0.5742  0.4146
  490MOL0     C67486   3.852   5.396   5.778 -0.5725  0.1612  0.6283
  490MOL0     C67487   3.743   5.392   5.861 -0.6495  0.7077 -0.7546
  490MOL0     C67488   3.715   5.496   5.941 -1.1243 -0.1059 -0.5342
  490MOL0     C67489   3.803   5.602   5.958 -0.1266  0.8467 -0.3639
  490MOL0     O67490   3.761   5.705   6.027  0.1731 -0.4037  0.1819
  490MOL0     C67491   3.853   5.792   6.095 -0.2538 -0.7002  1.0855
  490MOL0     C67492   3.905   5.733   6.234 -0.4972  0.0723  1.2836
  490MOL0     C67493   3.795   5.700   6.333  0.3072  0.1035  0.3710
  490MOL0     C67494   3.728   5.566   6.316 -0.5978  0.0096 -0.0212
  490MOL0     C67495   3.585   5.544   6.366 -0.5009 -0.0821  0.3683
  490MOL0     C67496   3.487   5.664   6.317 -0.0022  0.4338  0.0164
  490MOL0     C67497   3.339   5.631   6.333 -0.2035  0.5838  0.3519
  490MOL0     C67498   3.282   5.504   6.268 -0.0681 -0.0378  0.3509
  490MOL0     N67499   3.136   5.505   6.293 -0.3902  0.3680 -0.7937
  490MOL0     C67500   3.049   5.607   6.266  0.0597 -0.3326  0.4792
  490MOL0     C67501   2.937   5.578   6.334 -1.0023 -0.2925  0.0703
  490MOL0     C67502   2.819   5.674   6.355 -1.4635  0.4172  1.6505
  490MOL0     C67503   2.836   5.740   6.492  0.4814 -0.4497  0.0297
  490MOL0     C67504   2.701   5.766   6.564 -0.5752  0.2840  0.4811
  490MOL0     C67505   2.588   5.815   6.469 -0.1611  0.0085 -0.1148
  490MOL0     O67506   2.474   5.847   6.540  0.1255 -0.6498  0.1077
  490MOL0     C67507   2.444   5.976   6.568  0.2032 -0.3206  0.8429
  490MOL0     C67508   2.342   6.023   6.496  0.8755  0.3377 -0.3303
  490MOL0     C67509   2.295   6.148   6.509  0.9158 -0.2372  0.0980
  490MOL0     C67510   2.202   6.197   6.395 -0.0911 -0.1762  0.5487
  490MOL0     C67511   2.341   6.230   6.615  1.3799  0.5107  1.1072
  490MOL0     C67512   2.293   6.362   6.640  0.1635  0.6677 -0.1874
  490MOL0     O67513   2.184   6.405   6.567 -0.1894  0.3689 -0.5832
  490MOL0     C67514   2.171   6.537   6.544 -0.2903 -0.9071 -0.3058
  490MOL0     C67515   2.072   6.613   6.610 -0.0177 -0.3125  0.1539
  490MOL0     C67516   2.058   6.751   6.585  0.3436  0.9525 -0.1649
  490MOL0     C67517   2.125   6.815   6.484 -0.1104 -0.7504 -0.5090
  490MOL0     O67518   2.109   6.944   6.450 -0.1301 -0.2309  0.2140
  490MOL0     C67519   1.976   7.008   6.479 -0.3764 -0.7045 -0.0811
  490MOL0     C67520   1.978   7.148   6.416 -0.1520  0.3792  0.8274
  490MOL0     C67521   1.960   7.127   6.261  0.1329  0.3581 -0.1303
  490MOL0     C67522   1.975   7.259   6.191 -0.4394  0.8827 -0.4515
  490MOL0     C67523   1.944   7.249   6.032 -1.0947  0.2035  0.1967
  490MOL0     C67524   1.900   7.379   5.962  0.4930 -0.5129  0.1000
  490MOL0     C67525   1.763   7.427   6.000  0.4960 -0.9245 -0.0451
  490MOL0     C67526   1.713   7.540   5.915  0.2338  0.1848 -1.5387
  490MOL0    Cl67527   1.845   7.616   5.827 -0.0470  0.0512  0.4830
  490MOL0     C67528   2.210   6.737   6.405  0.1828  0.9132  0.0345
  490MOL0     C67529   2.218   6.599   6.428  0.2724  0.3321  0.0419
  490MOL0     O67530   2.353   6.435   6.711  0.2558 -0.5058  0.1681
  490MOL0     C67531   2.441   6.177   6.699  0.7220 -0.3873  0.9919
  490MOL0     C67532   2.490   6.050   6.673  0.6013  0.2039  0.5763
  490MOL0     N67533   2.949   5.448   6.389  0.0155 -0.0470  0.9121
  490MOL0     N67534   3.074   5.402   6.355  0.3437 -0.6763 -0.3489
  490MOL0     C67535   3.925   5.604   5.879 -0.1361  0.5485 -0.2867
  490MOL0     C67536   3.945   5.504   5.783 -0.8774 -0.3727 -0.8882
  490MOL0     C67537   4.006   5.112   5.564  0.4700 -0.8602 -0.0537
  490MOL0     C67538   3.886   5.032   5.567  0.1314 -0.2695 -0.2511
  490MOL0     C67539   3.875   4.908   5.503 -0.5214 -0.1217  0.2714
  490MOL0     C67540   3.992   4.865   5.440 -0.6874  0.5354  0.7152
  490MOL0     O67541   3.992   4.745   5.377 -0.4306 -0.6100  0.3030
  490MOL0     C67542   4.018   4.747   5.235  0.7465 -0.7063  0.0415
  490MOL0     C67543   3.917   4.649   5.166  0.4862  1.6600 -0.0208
  490MOL0     C67544   3.773   4.674   5.209  0.4977 -0.1680  0.1443
  490MOL0     C67545   3.720   4.808   5.154  1.0581 -0.3020  0.3364
  490MOL0     C67546   3.715   4.801   5.006  0.0757  0.3029  0.1280
  490MOL0     C67547   3.749   4.783   4.888 -0.4938 -0.7522 -0.9691
  490MOL0     C67548   4.114   4.931   5.434  0.1416 -0.6899 -0.3885
  490MOL0     C67549   4.121   5.060   5.494 -0.2053 -0.4016  0.0644
  490MOL0     C67550   4.250   5.139   5.478  0.0413 -0.0232  0.8187
  490MOL0     H67551   3.670   5.311   5.865 -0.7362  0.8145  0.2882
  490MOL0     H67552   3.630   5.480   6.006 -1.1342  0.9208 -0.2788
  490MOL0     H67553   3.811   5.892   6.111  0.1631 -0.4976  0.9149
  490MOL0     H67554   3.943   5.806   6.034 -1.2880  1.9135  0.0507
  490MOL0     H67555   3.976   5.651   6.224  0.4301  0.7950  1.7714
  490MOL0     H67556   3.972   5.808   6.276  1.2501 -1.2332  0.9300
  490MOL0     H67557   3.825   5.709   6.438 -1.6111 -0.5344  1.0177
  490MOL0     H67558   3.721   5.779   6.313  0.1859  0.2706  1.4290
  490MOL0     H67559   3.717   5.553   6.208  2.9203  1.4376 -0.6697
  490MOL0     H67560   3.793   5.489   6.358 -0.5677  0.3455  0.5557
  490MOL0     H67561   3.579   5.542   6.476  0.6978 -0.2366  0.4414
  490MOL0     H67562   3.563   5.450   6.315  0.8884  1.8874 -4.4411
  490MOL0     H67563   3.519   5.762   6.353  1.6570 -0.1582  0.2278
  490MOL0     H67564   3.500   5.671   6.209 -2.5619 -2.0015 -0.5831
  490MOL0     H67565   3.287   5.714   6.285  0.8054  1.2431  0.3743
  490MOL0     H67566   3.322   5.622   6.441  0.4228 -0.3125  0.3849
  490MOL0     H67567   3.297   5.518   6.161 -1.8366  1.9110  0.2944
  490MOL0     H67568   3.333   5.413   6.298  0.9245  0.3837 -0.0002
  490MOL0     H67569   3.070   5.698   6.212  1.2725 -0.1975  1.1470
  490MOL0     H67570   2.727   5.615   6.344 -1.7798  1.0481  0.8392
  490MOL0     H67571   2.815   5.754   6.281  1.5013 -0.1482  0.7427
  490MOL0     H67572   2.899   5.675   6.554  3.5616  0.6730 -1.7145
  490MOL0     H67573   2.899   5.829   6.481 -0.5189  0.0202 -3.1401
  490MOL0     H67574   2.674   5.674   6.616  0.4503 -0.8674 -0.9513
  490MOL0     H67575   2.720   5.849   6.633  0.2161 -0.4565  1.1832
  490MOL0     H67576   2.619   5.888   6.394  0.7233 -0.9524 -0.7012
  490MOL0     H67577   2.556   5.728   6.411 -0.1615  0.7915 -1.3227
  490MOL0     H67578   2.302   5.969   6.411  1.6231 -1.8720  0.6439
  490MOL0     H67579   2.191   6.127   6.312 -4.3576  1.7937 -0.8120
  490MOL0     H67580   2.251   6.290   6.363  3.7112 -2.0860  0.2585
  490MOL0     H67581   2.101   6.222   6.427  0.6144  0.7813  2.1685
  490MOL0     H67582   2.029   6.553   6.690  1.5876 -1.7710 -0.0179
  490MOL0     H67583   1.990   6.804   6.651  1.2651  1.9310  0.0300
  490MOL0     H67584   1.895   6.949   6.433  0.6812 -1.4185 -1.0747
  490MOL0     H67585   1.967   7.017   6.587  3.3073 -0.1823  0.2838
  490MOL0     H67586   1.897   7.208   6.458  0.8360  2.2736  0.1790
  490MOL0     H67587   2.071   7.203   6.435  0.7427 -0.4445 -0.8941
  490MOL0     H67588   1.860   7.085   6.245  0.4085 -1.1103  1.8040
  490MOL0     H67589   2.029   7.057   6.214  0.8902  0.3212  0.9929
  490MOL0     H67590   2.080   7.284   6.205 -0.1332 -0.2317 -0.6871
  490MOL0     H67591   1.912   7.331   6.244 -0.8621 -1.3951  2.4187
  490MOL0     H67592   2.047   7.230   6.001  0.7502  3.8343  3.2747
  490MOL0     H67593   1.873   7.173   5.997 -1.8650  0.5032  1.0693
  490MOL0     H67594   1.900   7.353   5.856 -1.2617 -0.6821  0.1122
  490MOL0     H67595   1.969   7.460   5.988  0.0555 -0.1859  0.2403
  490MOL0     H67596   1.777   7.472   6.099 -0.8561  0.8422 -0.6178
  490MOL0     H67597   1.687   7.351   6.019  0.7177 -0.5896  2.5759
  490MOL0     H67598   1.656   7.611   5.976  1.9693 -1.4818  2.3917
  490MOL0     H67599   1.632   7.511   5.847 -2.6843 -1.1667  2.1800
  490MOL0     H67600   2.265   6.784   6.324 -0.1390  1.3314  0.0503
  490MOL0     H67601   2.285   6.539   6.366  0.7929  0.8576  0.0848
  490MOL0     H67602   2.480   6.233   6.783  2.4767 -0.7847  0.4870
  490MOL0     H67603   2.565   6.003   6.735  0.5724 -1.3661 -0.5377
  490MOL0     H67604   3.984   5.694   5.872  0.5871  0.3686  2.4513
  490MOL0     H67605   4.021   5.518   5.707  0.0069 -2.0819 -0.3727
  490MOL0     H67606   3.799   5.070   5.620 -1.3695 -2.8344 -0.6772
  490MOL0     H67607   3.787   4.850   5.528  1.1634 -2.4479  1.2201
  490MOL0     H67608   3.997   4.842   5.186 -1.4174 -0.9128  0.4717
  490MOL0     H67609   4.116   4.710   5.201  0.0166 -1.4974 -1.2979
  490MOL0     H67610   3.939   4.543   5.174 -0.6725  1.5308  2.2422
  490MOL0     H67611   3.924   4.681   5.061  0.4217  1.2362 -0.1560
  490MOL0     H67612   3.710   4.587   5.185 -1.1980  0.8644  0.6902
  490MOL0     H67613   3.760   4.695   5.315 -5.1938  0.0739 -0.2629
  490MOL0     H67614   3.782   4.887   5.197 -2.0931  2.9028 -0.4829
  490MOL0     H67615   3.618   4.827   5.188 -0.3078  0.6108 -3.7196
  490MOL0     H67616   3.800   4.759   4.796  2.7154  3.0231 -0.4377
  490MOL0     H67617   4.200   4.878   5.395  0.0597 -1.9682  1.0639
  490MOL0     H67618   4.300   5.144   5.575  0.2528  2.9492  0.6610
  490MOL0     H67619   4.297   5.090   5.392 -1.0651 -1.2946  0.8971
  490MOL0     H67620   4.243   5.243   5.444  0.0761 -0.3642 -0.2785
  491MOL0     O67621   4.577   0.912   8.938  1.0424  0.1949 -0.2350
  491MOL0     C67622   4.479   0.974   8.889 -0.3690  0.1718  0.3995
  491MOL0     O67623   4.486   1.104   8.852 -0.3611  0.5376  0.1792
  491MOL0     C67624   4.564   1.202   8.907  0.5181 -0.3352  0.3835
  491MOL0     C67625   4.678   1.192   8.997  0.8451 -0.5102 -0.7625
  491MOL0     C67626   4.737   1.309   9.043 -0.1567 -0.3460  0.2048
  491MOL0     C67627   4.711   1.426   8.977  0.6258  0.1605  0.4868
  491MOL0     O67628   4.783   1.541   9.016  0.6940 -0.4754  0.1390
  491MOL0     C67629   4.922   1.535   9.058 -0.0646 -0.9779  0.7916
  491MOL0     C67630   4.993   1.670   9.069 -0.0157 -0.7823 -0.9202
  491MOL0     C67631   4.893   1.779   9.129 -0.4725 -0.2972  0.0324
  491MOL0     C67632   4.966   1.915   9.153  0.6148  0.4324 -0.5911
  491MOL0     C67633   4.990   1.974   9.017 -0.0754 -0.5836  0.9761
  491MOL0     C67634   4.961   2.123   9.011 -0.0768 -0.7578  0.1536
  491MOL0     C67635   5.053   2.175   8.901 -0.3681 -0.2217  0.0990
  491MOL0     C67636   5.003   2.312   8.844 -0.0414  0.2934 -0.4978
  491MOL0     N67637   4.878   2.309   8.768 -0.0444 -0.4835 -0.2370
  491MOL0     C67638   4.812   2.208   8.696 -0.2240 -0.9608  0.0989
  491MOL0     C67639   4.714   2.272   8.628  0.3297 -0.5951  0.1914
  491MOL0     C67640   4.604   2.193   8.565  0.2156  0.2562 -0.0426
  491MOL0     C67641   4.481   2.267   8.530 -0.0008 -0.7024 -0.8558
  491MOL0     C67642   4.389   2.307   8.645  0.0925  0.1694  0.0661
  491MOL0     C67643   4.289   2.202   8.692  1.0090 -0.0334 -0.3126
  491MOL0     O67644   4.158   2.273   8.686 -0.1260  0.2850  0.3976
  491MOL0     C67645   4.046   2.190   8.700 -0.1485 -0.0535 -0.3350
  491MOL0     C67646   4.015   2.136   8.821  0.0547 -0.4075 -0.6942
  491MOL0     C67647   3.898   2.063   8.834 -0.4378  0.0931  0.0752
  491MOL0     C67648   3.866   2.017   8.971  0.7317  0.1469  0.1723
  491MOL0     C67649   3.806   2.039   8.723 -0.2490 -0.4979 -1.2971
  491MOL0     C67650   3.692   1.952   8.723  0.2686  0.0175  0.1847
  491MOL0     O67651   3.579   1.977   8.638 -0.2119  0.6732 -0.1937
  491MOL0     C67652   3.488   1.876   8.590  0.6761  0.5868 -0.0528
  491MOL0     C67653   3.443   1.761   8.666 -0.0434  0.5768  0.6502
  491MOL0     C67654   3.350   1.672   8.610 -0.1873  0.3795 -0.4978
  491MOL0     C67655   3.284   1.686   8.493  0.1321  0.5893 -0.9925
  491MOL0     O67656   3.194   1.585   8.447  0.4857 -0.0409 -0.1504
  491MOL0     C67657   3.098   1.628   8.344  0.9562 -0.7886  0.0481
  491MOL0     C67658   2.998   1.515   8.314  0.2483 -0.6169 -0.2940
  491MOL0     C67659   3.067   1.373   8.285  0.1536  0.2845 -0.9425
  491MOL0     C67660   2.991   1.304   8.174 -0.6453  0.2578 -0.5995
  491MOL0     C67661   3.001   1.147   8.165 -0.2978  0.5363 -0.1941
  491MOL0     C67662   3.018   1.108   8.021 -0.9880  0.1630  0.0483
  491MOL0     C67663   2.973   0.960   7.994 -0.7538 -0.0915 -0.1585
  491MOL0     C67664   2.971   0.938   7.846 -0.4317 -0.0937 -0.1292
  491MOL0    Cl67665   2.896   0.777   7.815 -0.2250  0.6000  0.4629
  491MOL0     C67666   3.328   1.799   8.420 -0.6121 -0.0326 -1.2919
  491MOL0     C67667   3.426   1.895   8.466 -0.0803  0.3622 -0.1122
  491MOL0     O67668   3.710   1.844   8.781  0.0429  0.1359 -0.2653
  491MOL0     C67669   3.839   2.107   8.603 -0.1128 -0.8338 -0.5089
  491MOL0     C67670   3.950   2.185   8.594  0.2848 -0.1249 -1.1346
  491MOL0     N67671   4.711   2.406   8.670 -0.0626  0.3286 -0.3430
  491MOL0     N67672   4.812   2.425   8.740 -0.1833  0.9841 -0.5173
  491MOL0     C67673   4.606   1.438   8.888 -0.0278  0.1449  0.0710
  491MOL0     C67674   4.541   1.323   8.842  0.4140  0.5281 -0.3906
  491MOL0     C67675   4.367   0.887   8.854  0.1524 -0.2625 -0.1497
  491MOL0     C67676   4.302   0.934   8.735 -0.5447 -0.0685  0.6479
  491MOL0     C67677   4.218   0.847   8.666  0.0805 -0.1751 -0.4691
  491MOL0     C67678   4.170   0.727   8.725 -0.6252 -0.0063 -0.1238
  491MOL0     O67679   4.057   0.652   8.692 -0.2354 -0.1017  0.2795
  491MOL0     C67680   3.974   0.692   8.584 -0.9880 -0.3416 -0.0775
  491MOL0     C67681   3.833   0.633   8.583  0.8167  0.3218 -1.1541
  491MOL0     C67682   3.750   0.690   8.710 -0.3040 -0.1918 -0.3759
  491MOL0     C67683   3.765   0.845   8.736  0.2661  0.7999 -0.4437
  491MOL0     C67684   3.746   0.943   8.626  0.8047  0.5668 -0.4579
  491MOL0     C67685   3.722   1.020   8.530  0.3980 -0.5374  0.6867
  491MOL0     C67686   4.221   0.694   8.852 -0.1687  0.0891  0.4739
  491MOL0     C67687   4.321   0.770   8.914 -0.2011 -0.9293 -0.8781
  491MOL0     C67688   4.363   0.728   9.050  0.0359 -0.0732  0.7165
  491MOL0     H67689   4.718   1.103   9.045  1.5136  0.6142  0.8792
  491MOL0     H67690   4.808   1.295   9.124  0.8258 -0.3675 -0.6352
  491MOL0     H67691   4.987   1.463   9.006  3.5046  2.0939  0.5567
  491MOL0     H67692   4.927   1.490   9.157  1.1359 -0.3185  1.0475
  491MOL0     H67693   5.086   1.662   9.126 -0.6658 -0.3688  0.2427
  491MOL0     H67694   5.028   1.707   8.972  2.0860  0.2573  0.1466
  491MOL0     H67695   4.811   1.798   9.059 -0.5617  1.3723  0.5563
  491MOL0     H67696   4.853   1.743   9.225  4.4230  1.8005  3.2764
  491MOL0     H67697   4.903   1.971   9.222  0.9442 -1.4935  1.3652
  491MOL0     H67698   5.068   1.906   9.191  0.6203 -0.5874 -0.8149
  491MOL0     H67699   4.940   1.917   8.938 -1.9349 -0.0966  1.7319
  491MOL0     H67700   5.093   1.946   8.993  0.2327 -0.0425  1.6318
  491MOL0     H67701   4.858   2.134   8.974  0.7761 -1.6831 -2.8437
  491MOL0     H67702   4.979   2.183   9.100  0.4030  0.8886 -1.0105
  491MOL0     H67703   5.031   2.105   8.820 -3.5932 -0.7161  1.2560
  491MOL0     H67704   5.155   2.185   8.939  0.0975  0.7590 -1.3365
  491MOL0     H67705   4.994   2.387   8.924  1.3612 -0.7998  0.7625
  491MOL0     H67706   5.082   2.349   8.778 -0.3180  2.0453  0.1047
  491MOL0     H67707   4.837   2.105   8.674  0.5187 -0.5929 -0.8726
  491MOL0     H67708   4.582   2.111   8.635 -1.9126  0.3342 -0.5504
  491MOL0     H67709   4.634   2.145   8.472 -1.0835 -2.6716  0.9156
  491MOL0     H67710   4.514   2.358   8.478 -2.3960  0.3314 -0.7036
  491MOL0     H67711   4.429   2.210   8.453  0.1474  0.2184 -1.6612
  491MOL0     H67712   4.459   2.343   8.721 -1.2993  2.6792  0.2608
  491MOL0     H67713   4.336   2.396   8.610  2.4970  1.8798  0.4807
  491MOL0     H67714   4.298   2.112   8.632 -1.4107  0.9041 -2.2605
  491MOL0     H67715   4.316   2.170   8.793  3.2067  0.2696 -0.7686
  491MOL0     H67716   4.079   2.180   8.897 -0.6348  0.9773 -0.8826
  491MOL0     H67717   3.919   1.922   8.985 -0.9593 -1.1545 -1.7433
  491MOL0     H67718   3.759   2.005   8.989  0.8208  1.7162  2.1568
  491MOL0     H67719   3.894   2.075   9.059  0.0400  1.6771 -0.5683
  491MOL0     H67720   3.481   1.737   8.765  0.4122  0.6975  0.5110
  491MOL0     H67721   3.340   1.586   8.676  2.3771  0.1247 -0.3666
  491MOL0     H67722   3.047   1.718   8.380 -3.3489 -2.7856 -0.4864
  491MOL0     H67723   3.149   1.644   8.248 -2.2295 -0.5433 -1.7139
  491MOL0     H67724   2.933   1.510   8.402 -0.4151  1.4368 -0.5955
  491MOL0     H67725   2.935   1.544   8.229  1.7190 -0.0285 -1.2308
  491MOL0     H67726   3.053   1.314   8.376 -2.0005  1.3017 -0.5660
  491MOL0     H67727   3.173   1.374   8.259 -0.1285 -5.4461 -3.9195
  491MOL0     H67728   3.023   1.353   8.081 -0.3169 -0.0759 -0.6641
  491MOL0     H67729   2.885   1.324   8.189 -0.8429 -0.3109 -1.1926
  491MOL0     H67730   3.088   1.122   8.226 -1.0899 -4.1956 -0.6218
  491MOL0     H67731   2.919   1.093   8.214 -0.6059  2.3527  1.4389
  491MOL0     H67732   3.123   1.131   8.002 -0.4325 -1.1392  1.2830
  491MOL0     H67733   2.955   1.170   7.956  2.1575  0.9606 -2.4919
  491MOL0     H67734   2.873   0.936   8.031 -0.9920  2.1237  0.7803
  491MOL0     H67735   3.052   0.897   8.038  0.4107 -0.1365 -2.1747
  491MOL0     H67736   3.075   0.953   7.816  0.5289 -0.3797  2.7187
  491MOL0     H67737   2.917   1.013   7.787 -0.3915 -0.0308 -0.0876
  491MOL0     H67738   3.289   1.808   8.319 -1.5990 -0.7590 -0.9890
  491MOL0     H67739   3.451   1.982   8.406  0.2446  1.0081  0.9344
  491MOL0     H67740   3.782   2.086   8.513  2.0772 -2.4307 -1.6052
  491MOL0     H67741   3.970   2.244   8.506  1.3407  5.4513  2.3130
  491MOL0     H67742   4.573   1.529   8.839 -1.1063 -1.8365 -3.2157
  491MOL0     H67743   4.460   1.312   8.771 -1.1613 -0.4865  1.4533
  491MOL0     H67744   4.326   1.025   8.682 -0.2482 -1.4453 -1.7477
  491MOL0     H67745   4.188   0.863   8.563 -0.8508 -0.2033 -0.2074
  491MOL0     H67746   3.973   0.801   8.576  0.5594 -0.3177 -0.2625
  491MOL0     H67747   4.033   0.662   8.497  3.4922  1.4629  2.0092
  491MOL0     H67748   3.845   0.525   8.598  1.7800 -0.3441 -5.4221
  491MOL0     H67749   3.767   0.644   8.497 -2.1976  2.2321  1.1699
  491MOL0     H67750   3.644   0.670   8.694 -0.2862  1.5475 -3.4891
  491MOL0     H67751   3.777   0.647   8.807  3.3326  4.1230  0.8824
  491MOL0     H67752   3.867   0.870   8.767  1.2187 -1.2077 -1.8225
  491MOL0     H67753   3.708   0.872   8.826  1.3706 -1.3567  0.9944
  491MOL0     H67754   3.700   1.072   8.439 -1.4794 -1.6367  0.4548
  491MOL0     H67755   4.172   0.611   8.903  0.5505  0.4074  1.7277
  491MOL0     H67756   4.298   0.657   9.101  1.3348 -1.2799  0.7636
  491MOL0     H67757   4.454   0.671   9.030 -0.8372 -0.2244 -3.9079
  491MOL0     H67758   4.377   0.809   9.123 -2.4135  0.8818  0.1967
  492MOL0     O67759   2.142   8.710   2.487 -0.0255 -0.4316 -0.6590
  492MOL0     C67760   2.104   8.829   2.482 -0.1941  0.0841 -0.2490
  492MOL0     O67761   1.982   8.867   2.441 -0.1089 -0.1272  0.3675
  492MOL0     C67762   1.894   8.763   2.408 -0.3146 -0.6022  0.1061
  492MOL0     C67763   1.875   8.711   2.281 -0.2606  0.6369 -0.0332
  492MOL0     C67764   1.767   8.620   2.257 -0.3773 -0.6056 -0.4704
  492MOL0     C67765   1.665   8.603   2.354  0.5697  0.9751  0.3506
  492MOL0     O67766   1.554   8.525   2.337 -0.0727 -0.3690  0.3924
  492MOL0     C67767   1.577   8.407   2.254 -0.3006 -1.4969 -0.0681
  492MOL0     C67768   1.505   8.293   2.325  1.0477 -0.0757  0.7464
  492MOL0     C67769   1.470   8.172   2.243 -0.0883 -0.3627 -0.0012
  492MOL0     C67770   1.580   8.065   2.234 -0.4649  0.5228 -0.0459
  492MOL0     C67771   1.513   7.940   2.171  0.3708  1.2252  0.0846
  492MOL0     C67772   1.607   7.822   2.162  0.6675 -0.3786  0.5477
  492MOL0     C67773   1.533   7.685   2.166  0.6230  0.2721  0.6842
  492MOL0     C67774   1.489   7.639   2.027  0.2543 -0.2822 -0.3425
  492MOL0     N67775   1.359   7.707   1.994 -0.7311  0.4428  0.6246
  492MOL0     C67776   1.347   7.813   1.901  0.2709 -0.7789 -0.2409
  492MOL0     C67777   1.214   7.834   1.902 -0.4310 -0.3506  0.1197
  492MOL0     C67778   1.130   7.936   1.821  0.5195  0.4663 -0.6353
  492MOL0     C67779   0.992   7.878   1.778  0.1189 -0.5096  0.8202
  492MOL0     C67780   0.995   7.758   1.686  0.3028  0.1823  1.0917
  492MOL0     C67781   0.858   7.711   1.645 -0.4850  0.2535  0.7027
  492MOL0     O67782   0.805   7.803   1.542  0.3765  0.1737 -0.1023
  492MOL0     C67783   0.711   7.768   1.455  0.4493 -0.7803  0.7789
  492MOL0     C67784   0.653   7.643   1.448 -0.3177  0.6393  0.1717
  492MOL0     C67785   0.551   7.619   1.356 -0.5065 -1.0660 -0.1426
  492MOL0     C67786   0.478   7.482   1.371 -0.8745 -0.8356  0.1471
  492MOL0     C67787   0.514   7.717   1.262  0.4210 -0.4706 -0.2241
  492MOL0     C67788   0.422   7.698   1.155 -0.1913  0.5528  0.2584
  492MOL0     O67789   0.401   7.801   1.072  0.0588  0.1000 -1.1015
  492MOL0     C67790   0.346   7.771   0.946  0.4616 -0.3642  0.3348
  492MOL0     C67791   0.206   7.796   0.919  0.1540 -0.0935  0.8973
  492MOL0     C67792   0.152   7.787   0.790  0.4497 -0.0481  0.8443
  492MOL0     C67793   0.230   7.736   0.685 -0.8225  0.6057  0.3157
  492MOL0     O67794   0.169   7.703   0.562  0.5336 -0.1078 -0.2801
  492MOL0     C67795   0.246   7.695   0.444 -0.2169  0.1721  0.8185
  492MOL0     C67796   0.305   7.841   0.409  0.5203  1.1129 -0.1854
  492MOL0     C67797   0.402   7.830   0.286 -0.8397  0.5048  0.6421
  492MOL0     C67798   0.402   7.951   0.194 -0.4678 -0.2062  0.0844
  492MOL0     C67799   0.516   7.938   0.093  0.2701  0.0798  0.1598
  492MOL0     C67800   0.527   8.071   0.013  0.0826  1.1401 -0.4615
  492MOL0     C67801   0.588   8.181   0.102  0.0515  0.6682  1.2010
  492MOL0     C67802   0.623   8.316   0.028  0.5090 -0.2689 -0.0273
  492MOL0    Cl67803   0.745   8.291  -0.096 -0.6663 -0.6125 -0.0989
  492MOL0     C67804   0.365   7.703   0.715  0.2129 -0.2728 -0.1511
  492MOL0     C67805   0.421   7.714   0.843 -0.2872 -0.3898  0.8298
  492MOL0     O67806   0.367   7.587   1.144 -0.1233  0.4901 -0.0452
  492MOL0     C67807   0.588   7.835   1.264  0.3480 -0.6130  0.7144
  492MOL0     C67808   0.673   7.866   1.365  0.3944 -0.8524  0.2471
  492MOL0     N67809   1.146   7.753   1.991 -0.1806  0.2380  0.7528
  492MOL0     N67810   1.236   7.676   2.050  0.4210  0.5533 -0.5493
  492MOL0     C67811   1.690   8.656   2.480 -0.8330 -0.7259 -1.1758
  492MOL0     C67812   1.797   8.738   2.506  0.5068 -0.1035  0.0001
  492MOL0     C67813   2.180   8.951   2.543  0.6407  0.2512  0.0640
  492MOL0     C67814   2.276   8.926   2.647  0.1129 -0.4152  0.4321
  492MOL0     C67815   2.366   9.028   2.687  0.0447  0.2281 -0.3366
  492MOL0     C67816   2.366   9.161   2.628 -0.3935  0.0472 -0.2291
  492MOL0     O67817   2.460   9.249   2.665  0.2154 -0.2799 -0.1253
  492MOL0     C67818   2.420   9.328   2.779  0.7148 -0.6094 -0.5416
  492MOL0     C67819   2.475   9.467   2.751  0.5888 -0.4274 -0.7832
  492MOL0     C67820   2.628   9.488   2.780 -0.1141 -0.1456  0.1573
  492MOL0     C67821   2.664   9.638   2.777 -0.3577 -0.7864 -0.4753
  492MOL0     C67822   2.809   9.666   2.775  0.3529 -0.0977  0.0226
  492MOL0     C67823   2.926   9.686   2.774  0.6896 -0.8994 -0.1884
  492MOL0     C67824   2.266   9.179   2.532  0.1572  0.0035 -0.4886
  492MOL0     C67825   2.174   9.080   2.481 -0.0714 -0.0108 -1.1374
  492MOL0     C67826   2.085   9.120   2.361  0.5595  0.1315 -0.6980
  492MOL0     H67827   1.936   8.722   2.192  3.4390  0.8740  2.2892
  492MOL0     H67828   1.751   8.580   2.157 -1.1488  0.1203 -0.6506
  492MOL0     H67829   1.682   8.395   2.224 -0.5059  0.7696 -1.9586
  492MOL0     H67830   1.519   8.424   2.162  2.1607 -1.1355 -1.6544
  492MOL0     H67831   1.542   8.260   2.423  2.1159  0.2808  0.4807
  492MOL0     H67832   1.406   8.336   2.341 -0.0735 -1.8786 -0.9928
  492MOL0     H67833   1.378   8.127   2.282 -0.3432  2.3250  2.8628
  492MOL0     H67834   1.441   8.204   2.142 -1.0658  0.4105  0.5090
  492MOL0     H67835   1.667   8.111   2.186 -0.8987  0.5461 -0.8309
  492MOL0     H67836   1.620   8.037   2.332 -0.9441 -3.4407 -0.8132
  492MOL0     H67837   1.461   7.972   2.080  0.6595 -1.5044 -1.1485
  492MOL0     H67838   1.435   7.911   2.242  0.5011  1.4488  0.3184
  492MOL0     H67839   1.663   7.828   2.068 -0.2165  2.2637  0.1161
  492MOL0     H67840   1.685   7.826   2.239  1.0207 -0.2859  0.1887
  492MOL0     H67841   1.449   7.679   2.235 -0.0003  0.4286 -0.0401
  492MOL0     H67842   1.610   7.616   2.200 -0.5993 -0.0472  2.9794
  492MOL0     H67843   1.567   7.658   1.953  2.1258 -3.7402  0.4988
  492MOL0     H67844   1.478   7.530   2.027  0.2654 -0.5359  5.0690
  492MOL0     H67845   1.420   7.860   1.836  1.7998  2.9579  3.6594
  492MOL0     H67846   1.204   7.955   1.744  0.4195 -0.3621 -0.9428
  492MOL0     H67847   1.114   8.027   1.880  2.0767 -0.0288  0.6305
  492MOL0     H67848   0.929   7.861   1.865 -0.1200 -2.0730  0.3802
  492MOL0     H67849   0.937   7.953   1.720  0.8368  1.3439  2.4204
  492MOL0     H67850   1.054   7.784   1.598 -2.3559  0.1863 -0.7717
  492MOL0     H67851   1.043   7.675   1.740  1.4623 -0.6066 -1.0339
  492MOL0     H67852   0.871   7.612   1.601 -1.8892  2.1134 -4.7297
  492MOL0     H67853   0.801   7.706   1.738  0.5776 -1.9021  1.2917
  492MOL0     H67854   0.691   7.560   1.507 -0.1671 -0.1880 -1.0406
  492MOL0     H67855   0.490   7.433   1.468 -2.4461 -2.5620 -0.4541
  492MOL0     H67856   0.526   7.417   1.297  0.3430  2.4037 -2.1299
  492MOL0     H67857   0.370   7.491   1.357 -0.8809 -0.0452  0.6504
  492MOL0     H67858   0.150   7.834   1.004  0.2347  1.9902  0.0706
  492MOL0     H67859   0.046   7.812   0.780  0.1570 -0.2471  2.9695
  492MOL0     H67860   0.309   7.607   0.455 -2.3625 -1.3915  1.1794
  492MOL0     H67861   0.186   7.671   0.355  0.1575 -0.3401  0.7052
  492MOL0     H67862   0.227   7.917   0.408  1.0637  1.7163 -2.5943
  492MOL0     H67863   0.365   7.886   0.490 -0.6933  1.1264  0.7301
  492MOL0     H67864   0.381   7.738   0.231  1.0254 -0.0639  0.7962
  492MOL0     H67865   0.506   7.815   0.319 -0.0261  0.9399 -1.5498
  492MOL0     H67866   0.412   8.037   0.261  0.9602 -0.4427  0.2112
  492MOL0     H67867   0.309   7.969   0.139  0.0620  1.0946 -0.4226
  492MOL0     H67868   0.608   7.932   0.152 -0.5681  0.4008  1.5240
  492MOL0     H67869   0.519   7.855   0.022  1.0077  0.0997  0.1562
  492MOL0     H67870   0.426   8.102  -0.015 -0.0433 -0.0376 -1.3875
  492MOL0     H67871   0.587   8.055  -0.077  2.6827  2.4127  0.9130
  492MOL0     H67872   0.678   8.142   0.151 -1.6634 -3.1162  1.7136
  492MOL0     H67873   0.508   8.202   0.174  0.0250  3.1397  0.5385
  492MOL0     H67874   0.662   8.386   0.103 -2.5511 -0.8438  2.3031
  492MOL0     H67875   0.526   8.349  -0.010  0.4928 -2.6627 -2.3079
  492MOL0     H67876   0.421   7.647   0.641  2.4767 -3.2671  3.4208
  492MOL0     H67877   0.526   7.685   0.854  0.5711  1.3015 -1.8663
  492MOL0     H67878   0.565   7.912   1.191  2.8084 -1.0122 -0.5819
  492MOL0     H67879   0.715   7.966   1.369  0.8189 -1.0423  0.6446
  492MOL0     H67880   1.639   8.622   2.569 -2.2686 -2.3281 -2.5267
  492MOL0     H67881   1.802   8.784   2.605  0.2569 -2.1305  1.0051
  492MOL0     H67882   2.292   8.823   2.680  1.3206 -1.1495 -2.1640
  492MOL0     H67883   2.443   8.998   2.757 -0.2610  0.8226  0.2604
  492MOL0     H67884   2.311   9.322   2.781  0.7800 -2.4033 -0.8840
  492MOL0     H67885   2.456   9.286   2.873  0.7413  0.3277 -0.1140
  492MOL0     H67886   2.425   9.543   2.812 -2.0273 -1.5450 -1.3860
  492MOL0     H67887   2.456   9.486   2.645  0.1428 -2.7563 -1.1772
  492MOL0     H67888   2.653   9.451   2.880 -1.2340  1.6553  1.1534
  492MOL0     H67889   2.685   9.437   2.701 -0.8272  0.7854 -0.9881
  492MOL0     H67890   2.617   9.690   2.861  2.3310 -0.8249  1.2016
  492MOL0     H67891   2.621   9.681   2.687 -0.3338 -2.9224 -1.5626
  492MOL0     H67892   3.029   9.713   2.768  0.4189  0.7820  1.7096
  492MOL0     H67893   2.256   9.276   2.484 -1.9574 -1.5118 -3.3664
  492MOL0     H67894   2.105   9.224   2.335  2.5101  0.4215  1.5796
  492MOL0     H67895   2.107   9.045   2.285 -1.1607 -0.9036 -0.2258
  492MOL0     H67896   1.977   9.107   2.374  0.4968  0.0780 -1.2441
  493MOL0     O67897   0.373  11.448   2.204 -0.1710  0.4209  0.3302
  493MOL0     C67898   0.474  11.404   2.271  0.0642  0.4880  2.0121
  493MOL0     O67899   0.510  11.447   2.397  0.6556  0.1190  0.5046
  493MOL0     C67900   0.392  11.461   2.471  0.2004  0.6143 -0.7741
  493MOL0     C67901   0.358  11.361   2.563 -0.1726 -0.2973  1.0651
  493MOL0     C67902   0.229  11.374   2.627  0.1922 -0.0836 -0.4822
  493MOL0     C67903   0.146  11.486   2.602  0.2080 -0.7557 -1.1998
  493MOL0     O67904   0.018  11.504   2.641  0.0190 -0.4344  0.2392
  493MOL0     C67905  -0.069  11.401   2.586 -0.2563 -0.4821 -0.4433
  493MOL0     C67906  -0.148  11.461   2.469 -0.4061  0.9331 -0.4928
  493MOL0     C67907  -0.285  11.388   2.465  0.2604 -0.5435  0.6458
  493MOL0     C67908  -0.367  11.434   2.346  0.0816 -0.1017  0.4986
  493MOL0     C67909  -0.483  11.321   2.323 -0.0830 -0.4612 -0.2507
  493MOL0     C67910  -0.566  11.360   2.195 -0.1315 -0.7604 -0.6842
  493MOL0     C67911  -0.644  11.496   2.218 -0.9719 -0.5655  0.0635
  493MOL0     C67912  -0.765  11.493   2.307  0.8080  0.3457 -0.1863
  493MOL0     N67913  -0.862  11.391   2.267  0.2283 -0.1070  0.3346
  493MOL0     C67914  -0.863  11.258   2.302  0.5972 -0.7281 -0.6305
  493MOL0     C67915  -0.966  11.198   2.243 -0.6171 -0.3619  0.1252
  493MOL0     C67916  -1.023  11.067   2.290 -0.3913 -0.0579  1.3490
  493MOL0     C67917  -1.181  11.047   2.284 -0.1401 -0.1247 -0.4299
  493MOL0     C67918  -1.247  11.129   2.402 -0.3180  0.7668  0.1934
  493MOL0     C67919  -1.390  11.098   2.408  1.0054  0.3395 -0.7582
  493MOL0     O67920  -1.447  11.179   2.510 -0.2569 -0.0042 -0.6066
  493MOL0     C67921  -1.582  11.169   2.525  0.7470 -0.2743  0.8101
  493MOL0     C67922  -1.676  11.239   2.444 -0.9603 -0.5468 -0.8936
  493MOL0     C67923  -1.815  11.225   2.457 -0.3292  0.9451  0.6838
  493MOL0     C67924  -1.913  11.294   2.359 -0.9337  0.7287  0.4867
  493MOL0     C67925  -1.866  11.127   2.552  0.5114 -0.7302 -0.0698
  493MOL0     C67926  -2.012  11.104   2.584 -0.6109  0.5211  0.4480
  493MOL0     O67927  -2.113  11.161   2.499  0.1207 -0.8919 -0.2465
  493MOL0     C67928  -2.245  11.117   2.506 -0.1385 -0.0673 -1.0350
  493MOL0     C67929  -2.341  11.201   2.565 -1.4729  0.4259 -1.2148
  493MOL0     C67930  -2.474  11.157   2.582 -0.6158 -0.5368 -0.6545
  493MOL0     C67931  -2.508  11.031   2.526  0.7312  0.2615  0.0264
  493MOL0     O67932  -2.643  10.986   2.527  0.1941 -0.7341 -0.0197
  493MOL0     C67933  -2.705  11.011   2.405  0.6399 -0.9003  0.8881
  493MOL0     C67934  -2.805  10.898   2.382  0.5274 -0.6873  0.4161
  493MOL0     C67935  -2.741  10.759   2.365 -0.5544  0.3018 -0.3669
  493MOL0     C67936  -2.854  10.663   2.336  0.2322  0.8138  0.0513
  493MOL0     C67937  -2.785  10.534   2.285  0.4543 -0.1644  0.8232
  493MOL0     C67938  -2.886  10.424   2.245  0.3385 -0.2655  0.6705
  493MOL0     C67939  -2.814  10.300   2.188 -0.3157 -0.1232  0.0226
  493MOL0     C67940  -2.887  10.166   2.193 -0.1386 -0.3502 -0.9245
  493MOL0    Cl67941  -2.951  10.099   2.046 -0.4375  0.0445  0.0679
  493MOL0     C67942  -2.407  10.952   2.460  1.0430  0.1725 -0.6118
  493MOL0     C67943  -2.274  10.995   2.456  0.6643  0.9804 -0.3628
  493MOL0     O67944  -2.040  11.032   2.683 -0.3802 -0.6741  0.1242
  493MOL0     C67945  -1.760  11.060   2.636  0.9247  0.5644  0.0254
  493MOL0     C67946  -1.623  11.082   2.623  0.0086  0.3398 -0.2921
  493MOL0     N67947  -1.034  11.278   2.168 -0.2889 -1.2162 -0.6554
  493MOL0     N67948  -0.974  11.399   2.183  0.6101 -0.6201  0.0603
  493MOL0     C67949   0.184  11.580   2.507 -1.0526 -0.1035  0.4288
  493MOL0     C67950   0.314  11.576   2.461  0.3718  0.5797  0.6471
  493MOL0     C67951   0.559  11.319   2.191  0.2918 -0.0198  0.2897
  493MOL0     C67952   0.696  11.335   2.198 -0.2005 -0.7614 -0.2934
  493MOL0     C67953   0.779  11.268   2.111 -0.3430  0.2287  0.2639
  493MOL0     C67954   0.732  11.167   2.028 -0.0839  0.3682 -0.1405
  493MOL0     O67955   0.820  11.098   1.954 -0.2449 -0.1271  0.0380
  493MOL0     C67956   0.796  11.127   1.815 -0.2888 -0.0501 -0.1042
  493MOL0     C67957   0.921  11.114   1.745  0.4309  0.0127  1.2347
  493MOL0     C67958   0.978  10.972   1.756 -0.3417 -0.0677 -0.4656
  493MOL0     C67959   1.121  10.980   1.816  0.0400  0.4440 -0.0260
  493MOL0     C67960   1.205  11.053   1.721 -1.0672  0.0641  0.2411
  493MOL0     C67961   1.287  11.115   1.650 -0.3260  0.4177  0.1346
  493MOL0     C67962   0.592  11.145   2.019 -0.8519 -1.2220  0.0576
  493MOL0     C67963   0.506  11.217   2.107 -0.3778  0.7989 -0.6760
  493MOL0     C67964   0.364  11.171   2.101  0.3120  0.4937  0.3976
  493MOL0     H67965   0.419  11.271   2.563  0.3116  0.0090 -0.0763
  493MOL0     H67966   0.200  11.290   2.688  0.6779 -0.5945 -0.9359
  493MOL0     H67967  -0.140  11.370   2.664 -0.4100  1.8682  0.4321
  493MOL0     H67968  -0.016  11.312   2.550  2.1634  0.2046  1.1440
  493MOL0     H67969  -0.165  11.568   2.486 -5.2420  0.5300 -1.3979
  493MOL0     H67970  -0.090  11.437   2.379  0.4699  0.8771  0.0788
  493MOL0     H67971  -0.284  11.278   2.460  1.7796 -0.7395  3.4154
  493MOL0     H67972  -0.339  11.415   2.556 -1.0957 -2.6473  0.5316
  493MOL0     H67973  -0.410  11.533   2.364  0.8662  0.3726 -0.1615
  493MOL0     H67974  -0.301  11.443   2.260 -1.3006  1.9631 -0.4267
  493MOL0     H67975  -0.561  11.334   2.399 -1.9089  0.2240 -2.1700
  493MOL0     H67976  -0.444  11.220   2.308 -1.8171 -1.4318  1.3639
  493MOL0     H67977  -0.493  11.387   2.118  1.3333 -0.4837  0.7590
  493MOL0     H67978  -0.635  11.284   2.157 -0.8353 -0.3899 -0.1708
  493MOL0     H67979  -0.678  11.525   2.118  0.2928  1.3364  0.1429
  493MOL0     H67980  -0.584  11.585   2.238 -2.3280  0.7294 -1.3547
  493MOL0     H67981  -0.731  11.472   2.408 -0.3124 -1.1683 -0.0775
  493MOL0     H67982  -0.819  11.588   2.306 -0.9280 -0.5659  0.8476
  493MOL0     H67983  -0.802  11.214   2.381 -2.7967 -2.6259  1.1520
  493MOL0     H67984  -0.979  11.029   2.382  2.0350  0.4780  0.4919
  493MOL0     H67985  -0.995  10.995   2.212 -3.1579  0.3943 -0.2021
  493MOL0     H67986  -1.223  11.080   2.188  2.1286  0.3745 -1.2923
  493MOL0     H67987  -1.200  10.942   2.309 -1.2120  0.6408  2.3179
  493MOL0     H67988  -1.198  11.102   2.497  0.1089 -0.0684 -0.2463
  493MOL0     H67989  -1.250  11.237   2.390 -4.9643  0.5709 -3.0981
  493MOL0     H67990  -1.443  11.110   2.313 -2.5691 -0.0368  1.0038
  493MOL0     H67991  -1.391  10.991   2.431 -1.0252  0.8619  2.1965
  493MOL0     H67992  -1.643  11.314   2.373 -0.9298 -0.7411 -1.0883
  493MOL0     H67993  -1.856  11.351   2.285 -1.0968  0.0585 -0.1639
  493MOL0     H67994  -1.978  11.368   2.408 -1.3389  1.0463 -0.5147
  493MOL0     H67995  -1.978  11.224   2.306  0.6089  1.4159 -2.5187
  493MOL0     H67996  -2.324  11.302   2.601 -3.3197 -0.8316  4.1156
  493MOL0     H67997  -2.551  11.225   2.616 -0.1255  0.1954 -0.9475
  493MOL0     H67998  -2.759  11.106   2.404  3.9226  1.1259  0.6942
  493MOL0     H67999  -2.629  11.030   2.329  0.0561  0.5225  0.6277
  493MOL0     H68000  -2.885  10.894   2.456 -0.3695  0.4970 -0.4633
  493MOL0     H68001  -2.850  10.928   2.287 -1.1746  1.1274  1.7085
  493MOL0     H68002  -2.685  10.725   2.453  0.0982  2.0274 -0.0830
  493MOL0     H68003  -2.665  10.769   2.287  1.3071  0.3093  1.3777
  493MOL0     H68004  -2.933  10.703   2.272 -2.2729 -4.3261 -0.6527
  493MOL0     H68005  -2.898  10.637   2.433  0.2643 -1.6991 -0.5242
  493MOL0     H68006  -2.723  10.551   2.197  0.5864 -3.8140  0.0373
  493MOL0     H68007  -2.720  10.506   2.369  1.5816 -0.3105 -0.0725
  493MOL0     H68008  -2.960  10.451   2.170 -0.8809 -2.4357  1.0185
  493MOL0     H68009  -2.939  10.416   2.340  0.6109 -1.0360  0.7703
  493MOL0     H68010  -2.719  10.295   2.242  1.1204 -1.2658 -2.4580
  493MOL0     H68011  -2.779  10.308   2.085 -0.1784 -2.4315 -0.1613
  493MOL0     H68012  -2.963  10.165   2.271  2.3154 -3.8789  1.7331
  493MOL0     H68013  -2.809  10.092   2.214 -2.2887 -1.9267  2.4200
  493MOL0     H68014  -2.433  10.853   2.424  1.3907 -0.3225  0.4384
  493MOL0     H68015  -2.195  10.948   2.398  0.3949  1.2279 -0.9441
  493MOL0     H68016  -1.773  10.999   2.725  3.1035  1.9102  1.3591
  493MOL0     H68017  -1.545  11.040   2.685 -1.1726  0.2445  1.2022
  493MOL0     H68018   0.123  11.661   2.469 -1.6787 -0.0343  1.5192
  493MOL0     H68019   0.343  11.664   2.405  0.9805  1.4570  2.2954
  493MOL0     H68020   0.735  11.415   2.260 -1.2381  0.5452 -1.2484
  493MOL0     H68021   0.883  11.297   2.125  0.0713 -1.1500  0.2197
  493MOL0     H68022   0.723  11.056   1.775  1.1784 -1.2731 -0.7298
  493MOL0     H68023   0.744  11.222   1.798 -1.3868 -0.8283 -1.3241
  493MOL0     H68024   0.991  11.190   1.782 -1.2445  0.5940  3.3613
  493MOL0     H68025   0.912  11.144   1.640 -1.4375  0.5382  1.5182
  493MOL0     H68026   0.913  10.903   1.810  3.7526 -1.6383  3.0328
  493MOL0     H68027   0.990  10.926   1.658  0.1644 -0.6424 -0.1488
  493MOL0     H68028   1.160  10.878   1.825  0.3191  0.4278 -1.1984
  493MOL0     H68029   1.122  11.030   1.913  0.4774  2.0461 -0.8219
  493MOL0     H68030   1.353  11.160   1.578  2.4827 -0.8785  1.7368
  493MOL0     H68031   0.555  11.088   1.934 -3.3778  1.5042 -0.8427
  493MOL0     H68032   0.308  11.195   2.192 -0.7729  1.4616 -0.4968
  493MOL0     H68033   0.313  11.212   2.014 -2.5093  2.2782  2.6862
  493MOL0     H68034   0.371  11.063   2.088 -0.0735  0.6805 -1.6118
  494MOL0     O68035   7.055  11.575   3.257 -0.1944 -0.8250 -0.0368
  494MOL0     C68036   7.066  11.507   3.360  0.0987 -0.4251 -0.0970
  494MOL0     O68037   7.143  11.388   3.358 -0.7352 -0.1685 -0.2745
  494MOL0     C68038   7.148  11.303   3.253  0.1144 -0.4516  0.6703
  494MOL0     C68039   7.240  11.200   3.260 -1.1484 -0.0034 -0.6935
  494MOL0     C68040   7.262  11.097   3.164 -0.8801 -0.7694 -0.9697
  494MOL0     C68041   7.191  11.098   3.054 -0.6361 -0.6308  1.0318
  494MOL0     O68042   7.228  10.996   2.973  0.6549 -0.1338 -0.3127
  494MOL0     C68043   7.138  10.971   2.866 -0.0485 -0.4274  0.2985
  494MOL0     C68044   7.221  10.888   2.754  0.5880 -1.0278 -0.2772
  494MOL0     C68045   7.127  10.854   2.632 -0.4580  0.5479 -0.6293
  494MOL0     C68046   7.191  10.756   2.534  0.8362  0.1268  0.5074
  494MOL0     C68047   7.099  10.728   2.415 -1.0994 -0.6284 -0.2776
  494MOL0     C68048   7.152  10.699   2.273  0.1068  0.1344  0.0174
  494MOL0     C68049   7.179  10.548   2.235  0.9735 -0.0503 -0.6074
  494MOL0     C68050   7.058  10.450   2.249 -0.3941  1.0359  0.0076
  494MOL0     N68051   6.951  10.469   2.148 -0.0876  0.0749 -0.4025
  494MOL0     C68052   6.948  10.413   2.020  0.2552  1.1368 -0.5844
  494MOL0     C68053   6.820  10.407   1.989 -0.8119 -0.7099  0.1905
  494MOL0     C68054   6.755  10.364   1.871 -0.3175  0.2200 -0.6863
  494MOL0     C68055   6.714  10.206   1.884  0.4231 -0.7308  0.4430
  494MOL0     C68056   6.654  10.147   1.759  0.1127  0.7511  0.4690
  494MOL0     C68057   6.549  10.236   1.689  0.0952  1.1344 -0.3861
  494MOL0     O68058   6.437  10.274   1.784 -0.8838 -0.2530  0.3617
  494MOL0     C68059   6.315  10.318   1.742  0.5903 -0.0540  0.3251
  494MOL0     C68060   6.291  10.326   1.609 -0.0880 -0.1832  0.5249
  494MOL0     C68061   6.163  10.371   1.565  0.1827 -0.7309 -0.4668
  494MOL0     C68062   6.136  10.386   1.411 -0.5994  0.2594  1.0726
  494MOL0     C68063   6.060  10.405   1.661 -0.1579  0.6430 -0.8695
  494MOL0     C68064   5.910  10.437   1.639  0.0409  0.3079 -0.0010
  494MOL0     O68065   5.824  10.383   1.543  0.6206  0.7582  0.0056
  494MOL0     C68066   5.693  10.379   1.580  0.7541 -0.2465 -0.0531
  494MOL0     C68067   5.594  10.445   1.503  0.2770  1.7610  0.3850
  494MOL0     C68068   5.460  10.438   1.548  0.6029 -0.2504 -0.1368
  494MOL0     C68069   5.423  10.371   1.657 -0.4762 -1.3811 -0.4722
  494MOL0     O68070   5.302  10.381   1.713 -0.0155 -1.0972 -0.5996
  494MOL0     C68071   5.209  10.500   1.704 -0.0730  1.2042  0.1599
  494MOL0     C68072   5.087  10.467   1.794  0.5241  0.2970 -0.2237
  494MOL0     C68073   5.127  10.428   1.936  0.4592  0.1521 -0.9563
  494MOL0     C68074   5.046  10.511   2.044  0.4391 -0.0959 -0.4454
  494MOL0     C68075   5.144  10.547   2.159  0.7476  0.5902  0.1194
  494MOL0     C68076   5.046  10.579   2.277 -0.3618 -0.8244 -0.2055
  494MOL0     C68077   5.118  10.624   2.399  0.1971  0.2668  0.2710
  494MOL0     C68078   5.212  10.515   2.452  0.1962  0.5567 -0.0785
  494MOL0    Cl68079   5.132  10.353   2.493  0.2338 -0.1792 -0.4628
  494MOL0     C68080   5.522  10.315   1.734 -0.2688  0.4085 -0.8159
  494MOL0     C68081   5.662  10.318   1.706  0.2503  0.6467  0.4896
  494MOL0     O68082   5.870  10.530   1.715  0.0388  0.6673 -0.0023
  494MOL0     C68083   6.094  10.380   1.797 -0.2859  0.0004 -0.0006
  494MOL0     C68084   6.224  10.332   1.837  0.7244 -0.8319  0.2971
  494MOL0     N68085   6.749  10.473   2.086  0.4188  0.0153 -1.0790
  494MOL0     N68086   6.827  10.508   2.177  0.7980 -0.1968 -0.3311
  494MOL0     C68087   7.099  11.206   3.035 -0.0067  0.3345  0.4281
  494MOL0     C68088   7.069  11.306   3.135 -0.0268  0.0807  0.2031
  494MOL0     C68089   7.003  11.557   3.485 -1.0189  0.7831 -0.1230
  494MOL0     C68090   7.004  11.473   3.595 -0.5647  0.2462 -0.0447
  494MOL0     C68091   6.934  11.498   3.718  0.0080  1.0623 -0.5613
  494MOL0     C68092   6.859  11.616   3.729  0.6938  0.4449 -0.0720
  494MOL0     O68093   6.799  11.644   3.847  0.5139 -1.0336 -0.0013
  494MOL0     C68094   6.666  11.587   3.841 -0.1903 -0.1281 -0.5311
  494MOL0     C68095   6.622  11.571   3.995  0.7615  0.1372  0.4293
  494MOL0     C68096   6.574  11.712   4.038 -0.7533  0.2618  0.7662
  494MOL0     C68097   6.497  11.710   4.168  0.4686 -0.7609 -0.0376
  494MOL0     C68098   6.377  11.626   4.143 -0.1359 -0.5047 -0.0253
  494MOL0     C68099   6.284  11.557   4.119 -0.0891  0.1402 -0.7159
  494MOL0     C68100   6.875  11.707   3.631  1.0654 -0.3307 -0.1391
  494MOL0     C68101   6.948  11.687   3.511  0.4975 -0.9615  0.1373
  494MOL0     C68102   6.964  11.803   3.414 -0.7036 -1.1326  0.5509
  494MOL0     H68103   7.304  11.208   3.347 -0.7055  1.6705 -1.1411
  494MOL0     H68104   7.349  11.038   3.189 -1.2189 -1.5313 -1.5390
  494MOL0     H68105   7.106  11.063   2.816  0.1023  0.3514  1.5821
  494MOL0     H68106   7.053  10.912   2.904 -0.0549 -1.6004 -1.4122
  494MOL0     H68107   7.313  10.944   2.733 -0.3154  0.9779  0.8860
  494MOL0     H68108   7.243  10.796   2.810  2.1359 -0.2981  0.3810
  494MOL0     H68109   7.037  10.822   2.684 -0.4002  2.3901  0.6947
  494MOL0     H68110   7.098  10.946   2.580  1.3886  1.2870 -0.4245
  494MOL0     H68111   7.285  10.803   2.502  1.7856 -1.6703  0.4805
  494MOL0     H68112   7.218  10.665   2.588  0.3120 -1.1763 -1.3381
  494MOL0     H68113   7.051  10.826   2.410 -2.4431 -1.0129  2.8929
  494MOL0     H68114   7.025  10.653   2.444 -1.2876 -1.0284 -1.7027
  494MOL0     H68115   7.071  10.734   2.209 -0.4269 -1.2501 -0.1000
  494MOL0     H68116   7.240  10.763   2.273 -0.2258  0.6060 -0.6302
  494MOL0     H68117   7.264  10.511   2.293  0.3278 -0.3246  0.1781
  494MOL0     H68118   7.202  10.553   2.128  2.0288  1.3542 -0.3469
  494MOL0     H68119   7.102  10.350   2.240 -2.8407  0.0381 -1.9352
  494MOL0     H68120   7.019  10.458   2.351  0.8216  3.3751  0.3495
  494MOL0     H68121   7.034  10.371   1.968  0.2470  1.5185 -0.9103
  494MOL0     H68122   6.819  10.387   1.784 -2.3865  1.9280 -1.8419
  494MOL0     H68123   6.666  10.424   1.856 -0.2125  0.4720 -0.3150
  494MOL0     H68124   6.802  10.152   1.919  2.7942  2.2248 -0.5405
  494MOL0     H68125   6.637  10.206   1.962 -2.1151  1.6532 -1.8487
  494MOL0     H68126   6.736  10.125   1.690 -0.2145 -1.1578  0.6309
  494MOL0     H68127   6.603  10.052   1.778  0.4640  0.4722  0.0355
  494MOL0     H68128   6.596  10.329   1.654  1.9091  0.7613  0.9033
  494MOL0     H68129   6.509  10.188   1.599  0.5191  1.3725 -0.7096
  494MOL0     H68130   6.351  10.282   1.530 -0.9348 -2.5631  1.0994
  494MOL0     H68131   6.188  10.474   1.374 -1.2120 -0.3645 -1.4223
  494MOL0     H68132   6.032  10.394   1.380 -1.0103 -2.7813  1.3096
  494MOL0     H68133   6.180  10.296   1.367 -0.5650 -0.7192  3.0026
  494MOL0     H68134   5.604  10.489   1.404 -1.7770 -1.2447 -1.3600
  494MOL0     H68135   5.376  10.482   1.496  1.5288  0.3622 -1.1400
  494MOL0     H68136   5.275  10.586   1.720  2.4228 -0.6217  0.3334
  494MOL0     H68137   5.174  10.511   1.601  0.7772  0.3750 -0.2391
  494MOL0     H68138   5.034  10.562   1.787 -1.3661 -0.7903 -1.5582
  494MOL0     H68139   5.028  10.395   1.737 -0.4545  1.2050 -0.3844
  494MOL0     H68140   5.230  10.461   1.952  0.4857 -0.4409  0.2115
  494MOL0     H68141   5.127  10.319   1.947  1.0902  0.4002  2.8288
  494MOL0     H68142   4.956  10.457   2.073  0.5458 -0.8243 -1.4149
  494MOL0     H68143   5.003  10.596   1.989  1.1996  2.0454  2.0825
  494MOL0     H68144   5.206  10.465   2.197 -0.2825  0.1992  1.0092
  494MOL0     H68145   5.208  10.633   2.138  0.8801  0.7150  0.9647
  494MOL0     H68146   4.981  10.493   2.297 -1.3705 -0.1687 -0.5655
  494MOL0     H68147   4.984  10.665   2.249 -0.2084 -0.9342 -0.9004
  494MOL0     H68148   5.037  10.649   2.468 -1.4626  3.1384 -2.4831
  494MOL0     H68149   5.174  10.717   2.393  1.7193 -0.7028 -1.9673
  494MOL0     H68150   5.238  10.556   2.550 -2.5014  0.6918  0.6717
  494MOL0     H68151   5.305  10.504   2.396 -1.3431  2.0692 -3.1386
  494MOL0     H68152   5.497  10.279   1.834 -1.2347  0.1130 -1.1551
  494MOL0     H68153   5.725  10.268   1.778 -0.3826 -0.5118  0.2611
  494MOL0     H68154   6.036  10.412   1.883  2.1622  2.5205  0.8920
  494MOL0     H68155   6.238  10.319   1.944 -1.3472 -1.2473  0.5563
  494MOL0     H68156   7.040  11.230   2.947  1.8116  3.3848 -0.1114
  494MOL0     H68157   7.004  11.389   3.109 -0.0941 -0.4308 -1.3804
  494MOL0     H68158   7.025  11.369   3.572 -0.9241 -0.0552  0.9357
  494MOL0     H68159   6.938  11.418   3.791  2.5718  3.3965  2.1508
  494MOL0     H68160   6.591  11.650   3.791 -2.0994  0.4685  2.7829
  494MOL0     H68161   6.660  11.490   3.792 -2.3748 -0.5875  0.5416
  494MOL0     H68162   6.707  11.535   4.054  1.8879 -0.1608 -1.3022
  494MOL0     H68163   6.543  11.497   4.011  0.1446  0.8399  0.7279
  494MOL0     H68164   6.666  11.769   4.057  0.5311 -1.2907 -0.5011
  494MOL0     H68165   6.518  11.765   3.960 -0.1098  1.3835  1.0499
  494MOL0     H68166   6.479  11.814   4.196  1.3013 -0.3878 -0.8155
  494MOL0     H68167   6.557  11.661   4.245  3.4219  2.1827 -0.2416
  494MOL0     H68168   6.202  11.489   4.103  0.0782 -0.5934  1.2720
  494MOL0     H68169   6.825  11.803   3.642  1.1221  0.0157 -2.4220
  494MOL0     H68170   6.935  11.895   3.466  1.3180 -1.5372  2.5550
  494MOL0     H68171   7.068  11.821   3.384 -1.2219 -0.5086 -0.9240
  494MOL0     H68172   6.903  11.785   3.325  3.4595 -0.4468 -2.7779
  495MOL0     O68173   7.589  11.339   8.350  0.1924 -0.3139  0.4678
  495MOL0     C68174   7.480  11.339   8.405  1.2231  0.7851 -0.0698
  495MOL0     O68175   7.452  11.269   8.516 -0.0891 -0.2270  0.1901
  495MOL0     C68176   7.552  11.197   8.581  0.2727  0.3360 -1.1078
  495MOL0     C68177   7.522  11.071   8.627  0.0081 -0.5546  0.0972
  495MOL0     C68178   7.607  10.995   8.710  0.8654 -0.6099  0.8345
  495MOL0     C68179   7.727  11.059   8.746 -0.1714  0.1279  0.2346
  495MOL0     O68180   7.800  10.974   8.816 -0.2590  0.5840 -0.6196
  495MOL0     C68181   7.909  11.017   8.892  0.6028 -0.6562  0.6041
  495MOL0     C68182   7.957  10.900   8.984  0.6171 -0.3024  0.3226
  495MOL0     C68183   7.874  10.880   9.107  0.7091 -0.0998 -0.3561
  495MOL0     C68184   7.900  10.750   9.168 -0.0560 -0.1580  0.3695
  495MOL0     C68185   8.039  10.751   9.242 -1.3285  0.8045 -0.1469
  495MOL0     C68186   8.118  10.623   9.273  0.1744 -0.8532 -0.8207
  495MOL0     C68187   8.025  10.518   9.331  0.5347 -0.5465  0.0899
  495MOL0     C68188   8.103  10.419   9.419  0.1142 -0.7260  0.1619
  495MOL0     N68189   8.070  10.282   9.389 -0.4809  0.0529  0.1115
  495MOL0     C68190   8.014  10.201   9.486 -0.1311  0.3503  0.4194
  495MOL0     C68191   7.980  10.090   9.426 -0.6319 -0.3038  0.4012
  495MOL0     C68192   7.911   9.963   9.479  0.2863  0.4456 -1.0057
  495MOL0     C68193   8.013   9.857   9.502  0.2484 -0.2704 -0.2692
  495MOL0     C68194   8.063   9.791   9.371 -1.2114  0.0840 -0.6782
  495MOL0     C68195   8.138   9.654   9.407 -0.2063  0.4574  0.3679
  495MOL0     O68196   8.202   9.586   9.298 -0.2041 -0.4839 -0.9569
  495MOL0     C68197   8.239   9.458   9.325  0.0589  1.0312 -0.3841
  495MOL0     C68198   8.270   9.382   9.216 -0.0308 -0.2917 -0.2585
  495MOL0     C68199   8.306   9.247   9.221  0.2030  0.3835  0.0395
  495MOL0     C68200   8.307   9.170   9.087 -0.1124 -0.5268  0.0611
  495MOL0     C68201   8.314   9.185   9.350  0.6782 -0.1167 -0.4579
  495MOL0     C68202   8.331   9.041   9.376 -0.4434  0.6682 -0.0624
  495MOL0     O68203   8.296   8.993   9.499  0.6366 -0.7835  1.4282
  495MOL0     C68204   8.302   8.865   9.515  0.4482  0.1794  0.3616
  495MOL0     C68205   8.400   8.834   9.613 -0.2012  1.2379  1.2264
  495MOL0     C68206   8.417   8.701   9.651 -0.9351 -0.3529  0.1200
  495MOL0     C68207   8.338   8.599   9.591  0.0111 -0.4701  0.4774
  495MOL0     O68208   8.346   8.459   9.622 -0.4660  0.3401 -0.0099
  495MOL0     C68209   8.481   8.407   9.645 -0.0817 -0.0280 -0.4149
  495MOL0     C68210   8.468   8.311   9.764  0.3324 -0.0892  0.1507
  495MOL0     C68211   8.472   8.375   9.903 -0.0594  0.2114  0.1878
  495MOL0     C68212   8.511   8.279  10.018 -0.4020 -0.0355  0.2335
  495MOL0     C68213   8.524   8.338  10.148 -0.7034 -0.7348 -0.5785
  495MOL0     C68214   8.391   8.331  10.229 -1.0414 -0.0950  0.0360
  495MOL0     C68215   8.364   8.191  10.280 -0.6046  0.8082 -0.9165
  495MOL0     C68216   8.424   8.171  10.425  0.1183  0.2213  0.4025
  495MOL0    Cl68217   8.312   8.244  10.547  0.4803  0.0630  1.0955
  495MOL0     C68218   8.231   8.638   9.506  0.7769  1.8079 -0.6025
  495MOL0     C68219   8.221   8.766   9.460  0.3891 -1.4333 -0.7686
  495MOL0     O68220   8.367   8.966   9.282 -0.5260 -0.2822  0.4051
  495MOL0     C68221   8.278   9.265   9.462 -0.2574 -0.2416  0.2724
  495MOL0     C68222   8.245   9.398   9.446 -0.0015  0.0984 -0.1737
  495MOL0     N68223   8.006  10.099   9.296  0.1254  0.1004  0.3867
  495MOL0     N68224   8.061  10.214   9.273  0.4748  0.0195  0.2177
  495MOL0     C68225   7.764  11.187   8.698 -0.2603  0.3346 -0.6992
  495MOL0     C68226   7.684  11.247   8.607  0.2634  0.5702 -0.0270
  495MOL0     C68227   7.372  11.428   8.349  0.4812  0.7230  0.0501
  495MOL0     C68228   7.267  11.478   8.430 -0.2642 -0.0111  1.3082
  495MOL0     C68229   7.152  11.540   8.386  0.2282  0.0979 -0.4620
  495MOL0     C68230   7.138  11.569   8.247  0.1832  0.1373 -0.3600
  495MOL0     O68231   7.038  11.633   8.177 -0.6133 -0.7695  0.0863
  495MOL0     C68232   6.919  11.670   8.233  0.9630 -0.1899  1.3041
  495MOL0     C68233   6.820  11.552   8.247 -0.6067 -0.5267  0.8116
  495MOL0     C68234   6.781  11.473   8.114 -0.2407  0.6111 -0.4972
  495MOL0     C68235   6.904  11.431   8.033 -0.4104  1.2046 -0.3037
  495MOL0     C68236   6.865  11.331   7.926 -0.0501 -0.2342 -0.0958
  495MOL0     C68237   6.828  11.243   7.852  0.9505 -0.6115 -0.1453
  495MOL0     C68238   7.245  11.530   8.166  0.6057  0.3473  0.4476
  495MOL0     C68239   7.353  11.459   8.209 -0.6954 -0.1929 -1.0258
  495MOL0     C68240   7.453  11.413   8.104 -0.3044 -0.8245 -0.0688
  495MOL0     H68241   7.422  11.051   8.590  0.3686 -1.1333 -0.5915
  495MOL0     H68242   7.575  10.896   8.739 -2.2294 -0.3146 -1.1078
  495MOL0     H68243   7.872  11.096   8.957 -2.1471 -2.6956  1.7275
  495MOL0     H68244   7.986  11.056   8.825 -0.3387  0.0293 -0.0994
  495MOL0     H68245   7.965  10.809   8.924 -1.7415 -1.2966  1.3890
  495MOL0     H68246   8.057  10.928   9.018  0.2872 -1.2043  2.1974
  495MOL0     H68247   7.892  10.955   9.184 -1.3073  0.9879 -0.8905
  495MOL0     H68248   7.768  10.880   9.082 -1.1543 -1.5687  5.8728
  495MOL0     H68249   7.814  10.744   9.236 -1.7221  3.4543 -1.1437
  495MOL0     H68250   7.910  10.665   9.100 -0.4194 -2.1077  2.6115
  495MOL0     H68251   8.025  10.808   9.335  1.5536  1.2532  0.1018
  495MOL0     H68252   8.104  10.812   9.178 -1.6790  1.4064  0.0630
  495MOL0     H68253   8.154  10.577   9.181  0.2029 -2.5598  0.0007
  495MOL0     H68254   8.203  10.649   9.337 -1.2699  1.4640  0.2622
  495MOL0     H68255   7.969  10.473   9.248  0.0833 -0.8785  0.5651
  495MOL0     H68256   7.950  10.561   9.398  0.3234  0.2029 -0.6139
  495MOL0     H68257   8.211  10.430   9.403  0.5090 -3.3279  0.7003
  495MOL0     H68258   8.081  10.453   9.520 -2.6353  1.5622 -1.0709
  495MOL0     H68259   8.001  10.231   9.589 -3.2271 -1.0734  0.5447
  495MOL0     H68260   7.828   9.925   9.419  0.0944  0.8521 -1.0049
  495MOL0     H68261   7.866   9.996   9.573 -2.0765 -1.1238 -1.5151
  495MOL0     H68262   8.095   9.899   9.560  0.7710  1.6908 -2.2891
  495MOL0     H68263   7.959   9.782   9.561  0.0434 -0.3100 -0.5061
  495MOL0     H68264   7.982   9.740   9.317 -1.1484 -0.8353  0.0710
  495MOL0     H68265   8.125   9.861   9.314  0.1889 -1.0208 -0.5447
  495MOL0     H68266   8.228   9.671   9.468  1.8568 -0.0579 -2.3289
  495MOL0     H68267   8.075   9.580   9.458 -0.7159 -3.3299 -4.9770
  495MOL0     H68268   8.275   9.426   9.117 -0.8208  2.8718  0.9831
  495MOL0     H68269   8.290   9.235   9.001  1.0338  0.9797  0.9133
  495MOL0     H68270   8.235   9.088   9.097 -2.0768  0.9937 -1.0106
  495MOL0     H68271   8.405   9.122   9.076  1.9994  2.2380  4.1045
  495MOL0     H68272   8.454   8.915   9.660 -2.6664  4.0056 -0.3968
  495MOL0     H68273   8.481   8.684   9.736 -0.8897 -1.8470 -0.1908
  495MOL0     H68274   8.509   8.343   9.561 -1.7259 -1.0634 -0.2265
  495MOL0     H68275   8.556   8.484   9.662  0.2471 -0.7460  1.7051
  495MOL0     H68276   8.378   8.252   9.749 -1.0088  1.9695 -0.2536
  495MOL0     H68277   8.547   8.236   9.754 -0.0336 -0.4622  0.0695
  495MOL0     H68278   8.375   8.418   9.931 -0.1721  0.6504 -0.8279
  495MOL0     H68279   8.549   8.452   9.895  0.6252 -0.6543 -2.5817
  495MOL0     H68280   8.611   8.242   9.993 -0.7522 -0.8918  0.0709
  495MOL0     H68281   8.457   8.184  10.023  0.7236 -0.6751  0.5985
  495MOL0     H68282   8.603   8.286  10.203  0.7382  0.3462 -1.5482
  495MOL0     H68283   8.562   8.440  10.132  0.5800 -0.8425  1.3868
  495MOL0     H68284   8.317   8.360  10.155 -0.1195  2.1118 -0.0930
  495MOL0     H68285   8.404   8.400  10.313 -1.9308 -2.0064  1.8458
  495MOL0     H68286   8.397   8.102  10.227 -0.1724 -1.2691  2.5262
  495MOL0     H68287   8.255   8.184  10.280 -0.7513  2.4907 -1.3560
  495MOL0     H68288   8.522   8.219  10.430  0.4723 -0.4179 -0.1896
  495MOL0     H68289   8.425   8.063  10.444 -0.9465  0.0671 -0.3587
  495MOL0     H68290   8.158   8.560   9.484 -0.4759  2.6183  0.4965
  495MOL0     H68291   8.158   8.799   9.378  0.5997 -0.6779 -0.6284
  495MOL0     H68292   8.295   9.211   9.555 -2.3248 -0.3215  0.6531
  495MOL0     H68293   8.229   9.449   9.540 -1.6025  0.5152 -0.6402
  495MOL0     H68294   7.860  11.232   8.721 -0.7508  0.1354  2.0027
  495MOL0     H68295   7.707  11.343   8.563  0.7497  0.2113 -0.5748
  495MOL0     H68296   7.250  11.438   8.529 -0.5677  1.4858  1.8962
  495MOL0     H68297   7.076  11.570   8.457  2.4406 -0.8617  2.5313
  495MOL0     H68298   6.941  11.716   8.330  1.9261 -1.0774  1.5298
  495MOL0     H68299   6.872  11.739   8.162 -0.7698  0.8502  3.3756
  495MOL0     H68300   6.724  11.585   8.287  1.1902  2.8162  2.8245
  495MOL0     H68301   6.855  11.482   8.324  1.7129 -1.2606 -0.8030
  495MOL0     H68302   6.719  11.386   8.136 -0.0431 -0.1263 -2.6190
  495MOL0     H68303   6.715  11.532   8.050  0.3801  0.4081 -1.3497
  495MOL0     H68304   6.984  11.395   8.098  0.7996  2.1224 -1.2327
  495MOL0     H68305   6.961  11.511   7.985  4.0371 -0.3202  1.8990
  495MOL0     H68306   6.803  11.156   7.795 -1.9508 -0.3980  0.6343
  495MOL0     H68307   7.226  11.535   8.059  3.0765 -2.0666 -0.2096
  495MOL0     H68308   7.398  11.420   8.010 -0.6769  3.4578  0.2878
  495MOL0     H68309   7.543  11.472   8.089 -0.9346  0.8709  2.2361
  495MOL0     H68310   7.486  11.310   8.119 -2.1235 -1.3415  0.7916
  496MOL0     O68311   7.978   2.424   4.909  0.1315 -0.7185  0.5908
  496MOL0     C68312   7.996   2.343   4.815 -0.0419  0.2035 -0.4076
  496MOL0     O68313   8.112   2.279   4.789  0.3118  0.0241 -0.2609
  496MOL0     C68314   8.216   2.316   4.867  0.0111 -2.0175  0.0269
  496MOL0     C68315   8.288   2.433   4.826 -0.6326 -0.6428  0.7468
  496MOL0     C68316   8.411   2.463   4.888  0.5376  0.2174  0.8387
  496MOL0     C68317   8.452   2.390   5.003 -0.3267 -0.1647 -0.0838
  496MOL0     O68318   8.565   2.437   5.078  0.6431 -0.7536  0.3340
  496MOL0     C68319   8.651   2.353   5.152  0.0391 -0.2404  0.0314
  496MOL0     C68320   8.699   2.235   5.072  0.0130 -0.3616 -1.2655
  496MOL0     C68321   8.814   2.165   5.151 -0.5508 -0.6518  0.2596
  496MOL0     C68322   8.881   2.040   5.070  0.0534 -0.2139 -0.5360
  496MOL0     C68323   8.986   1.987   5.171 -0.0781  0.0815  0.3998
  496MOL0     C68324   8.929   1.862   5.234 -0.1913  0.3179  0.0090
  496MOL0     C68325   9.020   1.805   5.345 -0.2800  1.1305 -0.1620
  496MOL0     C68326   8.951   1.685   5.411  0.5554 -0.3520  0.9939
  496MOL0     N68327   9.028   1.613   5.513 -0.0343  1.1409  0.6888
  496MOL0     C68328   9.163   1.569   5.521  0.0046 -0.2164 -0.2376
  496MOL0     C68329   9.165   1.488   5.626 -0.7097  1.0405 -0.0360
  496MOL0     C68330   9.298   1.430   5.690  0.0624 -0.0671  0.5826
  496MOL0     C68331   9.280   1.314   5.789 -0.0946  0.7618  0.4418
  496MOL0     C68332   9.266   1.355   5.938  0.3536  0.0996 -0.1413
  496MOL0     C68333   9.296   1.242   6.035  0.2554  0.1138 -1.0174
  496MOL0     O68334   9.437   1.227   6.056  0.0914  0.5934  0.1620
  496MOL0     C68335   9.494   1.296   6.161  0.3236 -0.7681  0.5149
  496MOL0     C68336   9.628   1.272   6.181  0.3165 -0.3689  0.1451
  496MOL0     C68337   9.705   1.329   6.280  0.1743 -0.1693 -0.2767
  496MOL0     C68338   9.861   1.276   6.293  0.5084 -0.0525  0.5763
  496MOL0     C68339   9.638   1.421   6.366 -0.2288 -0.4597  0.8719
  496MOL0     C68340   9.716   1.514   6.440  0.0087 -0.8159 -0.2800
  496MOL0     O68341   9.854   1.527   6.419 -0.0196  0.1914  0.5932
  496MOL0     C68342   9.925   1.606   6.507 -0.7038 -0.9162 -0.9076
  496MOL0     C68343   9.931   1.581   6.647  0.8309  0.3682 -0.3406
  496MOL0     C68344  10.006   1.671   6.719 -0.2431 -0.5240 -1.1849
  496MOL0     C68345  10.072   1.781   6.662 -0.4182 -0.0624 -0.0940
  496MOL0     O68346  10.124   1.878   6.744 -0.0999 -0.5346  1.7636
  496MOL0     C68347  10.243   1.847   6.814 -0.8229  0.5624  0.3463
  496MOL0     C68348  10.301   1.960   6.894 -0.9806 -0.6677  1.3940
  496MOL0     C68349  10.324   1.951   7.042 -0.3569 -0.7673  0.7215
  496MOL0     C68350  10.319   2.088   7.114 -0.1372  0.4624 -0.4209
  496MOL0     C68351  10.369   2.055   7.252 -0.3685  0.6532  0.0167
  496MOL0     C68352  10.373   2.182   7.340  0.1152  1.1263  0.7724
  496MOL0     C68353  10.399   2.141   7.484  0.6013 -1.3134  0.0678
  496MOL0     C68354  10.429   2.266   7.581 -0.2025 -0.1706  0.2498
  496MOL0    Cl68355  10.278   2.338   7.613 -0.0597  0.3108  0.2480
  496MOL0     C68356  10.089   1.795   6.526 -0.7261  0.4016  0.3811
  496MOL0     C68357  10.013   1.708   6.444  0.1104 -0.7229 -0.7936
  496MOL0     O68358   9.654   1.589   6.512 -0.3101  0.3823  0.2452
  496MOL0     C68359   9.508   1.447   6.357  0.8193  0.1678 -0.1212
  496MOL0     C68360   9.438   1.394   6.247 -0.4782 -0.3255 -0.7915
  496MOL0     N68361   9.038   1.494   5.688  0.6397 -0.3134 -0.4141
  496MOL0     N68362   8.956   1.562   5.614 -0.0199 -0.3499 -0.0821
  496MOL0     C68363   8.367   2.285   5.050 -1.0946 -1.3290  0.4180
  496MOL0     C68364   8.249   2.254   4.983  0.5787 -0.5468  0.3336
  496MOL0     C68365   7.883   2.326   4.725  1.5761 -0.2458  0.6807
  496MOL0     C68366   7.824   2.438   4.666  0.0608 -0.7533 -0.2043
  496MOL0     C68367   7.711   2.426   4.591 -0.3805 -0.4981 -1.1752
  496MOL0     C68368   7.636   2.315   4.592  0.0240 -1.3540 -0.9143
  496MOL0     O68369   7.519   2.320   4.521 -0.3931  0.6306  0.1036
  496MOL0     C68370   7.415   2.233   4.552  0.2554  0.8698  0.8311
  496MOL0     C68371   7.268   2.278   4.522  0.2708 -0.3791 -0.1984
  496MOL0     C68372   7.211   2.372   4.634  0.0964  0.4112  0.8370
  496MOL0     C68373   7.063   2.404   4.609  0.0733  0.3397  0.9449
  496MOL0     C68374   7.030   2.466   4.475 -0.8874 -0.1864 -0.0290
  496MOL0     C68375   6.997   2.505   4.366 -0.0757  0.0993 -0.1003
  496MOL0     C68376   7.684   2.202   4.656 -1.1642 -1.2287 -0.9794
  496MOL0     C68377   7.809   2.203   4.724 -0.2153 -0.8206  0.4975
  496MOL0     C68378   7.867   2.084   4.796 -0.5297 -1.1439  0.0072
  496MOL0     H68379   8.267   2.494   4.739 -0.1512  4.9129  4.0769
  496MOL0     H68380   8.476   2.547   4.865  3.6618 -1.2840  3.2949
  496MOL0     H68381   8.594   2.323   5.241 -1.8786  1.5605 -0.5256
  496MOL0     H68382   8.738   2.410   5.187  0.6750  0.3416 -2.3028
  496MOL0     H68383   8.614   2.167   5.061  0.0581 -1.8489  4.5280
  496MOL0     H68384   8.735   2.263   4.972  1.0394  0.6921 -0.6352
  496MOL0     H68385   8.881   2.248   5.176 -0.2302 -1.5730  2.7294
  496MOL0     H68386   8.768   2.125   5.242 -1.2975  0.7255  0.5178
  496MOL0     H68387   8.814   1.960   5.037 -1.4816  0.8703 -0.1129
  496MOL0     H68388   8.923   2.076   4.975 -0.2247  0.9289 -0.2343
  496MOL0     H68389   9.012   2.062   5.246  0.9274 -1.2979  1.4911
  496MOL0     H68390   9.075   1.976   5.109 -0.8965  0.6856 -0.9162
  496MOL0     H68391   8.837   1.885   5.288 -0.9699  0.1296 -1.1921
  496MOL0     H68392   8.914   1.788   5.154  1.0543  1.0979 -0.9800
  496MOL0     H68393   9.027   1.881   5.423 -1.9404 -1.6191  2.9313
  496MOL0     H68394   9.120   1.767   5.326  0.8973  1.8812  3.7823
  496MOL0     H68395   8.857   1.718   5.456 -0.1270 -1.9176  0.7655
  496MOL0     H68396   8.936   1.615   5.328  2.3731 -0.2497  0.5279
  496MOL0     H68397   9.239   1.595   5.449  0.8880 -0.3374  0.6242
  496MOL0     H68398   9.352   1.509   5.743 -1.6121  1.0009  0.7717
  496MOL0     H68399   9.354   1.395   5.603 -1.7705 -2.5455  0.3054
  496MOL0     H68400   9.205   1.238   5.766  2.1054 -2.5411  3.0930
  496MOL0     H68401   9.374   1.257   5.793 -1.7151 -2.0109  3.4185
  496MOL0     H68402   9.341   1.433   5.953  2.3094 -1.8749  1.1424
  496MOL0     H68403   9.171   1.405   5.958  0.3674  0.4750 -0.9998
  496MOL0     H68404   9.246   1.257   6.131  2.1705  0.4419 -0.0089
  496MOL0     H68405   9.258   1.148   5.993  1.4372 -2.1392  2.5247
  496MOL0     H68406   9.686   1.200   6.124 -2.0651 -0.8050 -1.9263
  496MOL0     H68407   9.881   1.189   6.229 -1.5222 -0.9315  1.0675
  496MOL0     H68408   9.874   1.249   6.398 -1.1226 -0.9839  0.5619
  496MOL0     H68409   9.929   1.355   6.258 -1.8779  1.7719 -0.2607
  496MOL0     H68410   9.870   1.501   6.689  0.0420  1.1210 -0.0278
  496MOL0     H68411  10.027   1.656   6.825  0.2060 -0.2358 -1.2293
  496MOL0     H68412  10.221   1.764   6.882  1.0200 -0.7527 -0.5644
  496MOL0     H68413  10.314   1.810   6.739 -2.1545 -0.1169 -0.6304
  496MOL0     H68414  10.398   1.992   6.856 -1.4150 -0.0079  0.8213
  496MOL0     H68415  10.245   2.050   6.867  3.8906  2.0319 -0.9735
  496MOL0     H68416  10.428   1.922   7.055  0.8328  1.3758 -2.6257
  496MOL0     H68417  10.248   1.894   7.095 -2.5106 -0.1388 -1.4894
  496MOL0     H68418  10.218   2.129   7.121 -1.2023 -2.1770  2.1163
  496MOL0     H68419  10.384   2.155   7.057 -0.3221 -0.1667 -1.3995
  496MOL0     H68420  10.303   1.979   7.297 -1.6416  1.0791 -1.0601
  496MOL0     H68421  10.469   2.012   7.245 -0.8333 -0.1335 -3.5636
  496MOL0     H68422  10.280   2.239   7.328 -1.7767 -1.7866  0.6310
  496MOL0     H68423  10.454   2.250   7.311  0.2550  1.2563  1.4333
  496MOL0     H68424  10.494   2.088   7.495  1.0622 -0.3235  1.1539
  496MOL0     H68425  10.310   2.087   7.518  1.1851 -1.9069  0.6737
  496MOL0     H68426  10.494   2.338   7.530  0.8954 -1.6114 -0.4552
  496MOL0     H68427  10.468   2.232   7.677 -2.6439 -3.7851  0.1523
  496MOL0     H68428  10.134   1.880   6.475 -3.7472  1.4400 -0.8036
  496MOL0     H68429  10.014   1.717   6.336 -0.5012  2.8317 -0.6086
  496MOL0     H68430   9.456   1.516   6.422  2.4969 -0.8871  2.4871
  496MOL0     H68431   9.334   1.423   6.237 -1.4987 -3.1940  0.3816
  496MOL0     H68432   8.388   2.217   5.132 -2.2741 -1.9033  0.2703
  496MOL0     H68433   8.181   2.178   5.021  0.2745 -0.6807 -0.4634
  496MOL0     H68434   7.872   2.533   4.649  1.5537 -1.7133 -1.6818
  496MOL0     H68435   7.679   2.512   4.533  0.9844  2.2815  1.8781
  496MOL0     H68436   7.430   2.135   4.506  0.3032  2.1065 -1.9541
  496MOL0     H68437   7.420   2.222   4.661 -0.7890  1.5275  0.9609
  496MOL0     H68438   7.194   2.199   4.514  0.1819 -0.2818 -0.3691
  496MOL0     H68439   7.268   2.327   4.424 -0.0675  0.1853  0.0766
  496MOL0     H68440   7.220   2.315   4.727 -1.8881  1.3254  1.6624
  496MOL0     H68441   7.266   2.465   4.650  1.3383 -0.6812  3.3911
  496MOL0     H68442   7.030   2.463   4.695 -1.1618 -0.9741  1.4100
  496MOL0     H68443   7.006   2.312   4.620 -2.3070  0.9859 -3.6930
  496MOL0     H68444   6.946   2.541   4.279 -0.7914  0.7520  0.5707
  496MOL0     H68445   7.630   2.108   4.668  1.4611 -2.8830 -1.2389
  496MOL0     H68446   7.922   2.104   4.889 -1.4120 -3.5102  1.1105
  496MOL0     H68447   7.784   2.017   4.820 -1.1934  0.0623  1.2420
  496MOL0     H68448   7.935   2.039   4.723 -2.9613 -0.9514 -2.5485
  497MOL0     O68449   3.315   1.253   7.333 -0.2841 -0.9127 -0.6399
  497MOL0     C68450   3.359   1.215   7.441 -0.4051  0.9165  0.8951
  497MOL0     O68451   3.297   1.128   7.517 -0.0810  0.7137 -0.0269
  497MOL0     C68452   3.214   1.032   7.478 -0.7762  1.6220  0.5156
  497MOL0     C68453   3.204   0.919   7.562  0.6471 -0.2127  0.5490
  497MOL0     C68454   3.097   0.827   7.547  0.4505 -0.5422  0.0016
  497MOL0     C68455   3.010   0.837   7.439  0.0654  1.0641  0.0336
  497MOL0     O68456   2.904   0.748   7.431  1.0822  1.0511  0.2631
  497MOL0     C68457   2.837   0.715   7.303 -0.7651 -0.9726  0.4272
  497MOL0     C68458   2.737   0.600   7.328 -0.2358 -0.9428 -0.3098
  497MOL0     C68459   2.800   0.458   7.329 -0.8787 -1.0348 -0.8313
  497MOL0     C68460   2.829   0.388   7.465  0.1065  0.1146  0.7208
  497MOL0     C68461   2.915   0.260   7.432 -0.4489  0.0227 -0.3636
  497MOL0     C68462   2.964   0.178   7.552  1.3494 -1.2498 -0.1695
  497MOL0     C68463   3.017   0.042   7.502 -0.6149 -0.1695 -0.3232
  497MOL0     C68464   3.067  -0.061   7.600 -0.0819  0.5172 -0.2069
  497MOL0     N68465   3.112  -0.179   7.532  0.0005  0.7852 -0.0984
  497MOL0     C68466   3.031  -0.284   7.489  0.9209  0.5307 -0.0496
  497MOL0     C68467   3.120  -0.387   7.451 -0.8473 -0.7329 -0.2680
  497MOL0     C68468   3.083  -0.518   7.418  1.0622  1.4938  0.5858
  497MOL0     C68469   2.976  -0.541   7.306 -1.4051 -0.8810  0.4349
  497MOL0     C68470   2.908  -0.670   7.321  0.5688 -0.8325  0.1731
  497MOL0     C68471   2.792  -0.663   7.226 -0.1456  1.2182 -0.4885
  497MOL0     O68472   2.819  -0.668   7.084 -1.0153 -0.3805  1.2360
  497MOL0     C68473   2.899  -0.778   7.040  0.6250 -0.9289  0.3741
  497MOL0     C68474   2.977  -0.751   6.931 -0.3300 -0.0329  0.6712
  497MOL0     C68475   3.060  -0.849   6.867  0.3379  0.4730 -0.6176
  497MOL0     C68476   3.111  -0.827   6.728 -0.7519  0.2304  0.5616
  497MOL0     C68477   3.061  -0.984   6.918  0.5144 -0.5906 -0.7979
  497MOL0     C68478   3.168  -1.084   6.878 -0.3178 -0.2641 -0.4149
  497MOL0     O68479   3.142  -1.209   6.938 -0.0466 -0.6692  0.7536
  497MOL0     C68480   3.242  -1.297   6.911  0.4194 -0.9465  0.6656
  497MOL0     C68481   3.354  -1.291   6.992  0.8428  0.8701  0.5699
  497MOL0     C68482   3.453  -1.376   6.959 -0.6642 -0.1717  0.0340
  497MOL0     C68483   3.440  -1.480   6.873 -1.2235 -0.3937  0.3214
  497MOL0     O68484   3.549  -1.565   6.863  1.0826  0.1442 -0.2906
  497MOL0     C68485   3.559  -1.648   6.748 -0.1968  0.2833 -0.2955
  497MOL0     C68486   3.703  -1.700   6.750  0.6259 -1.0309 -0.9221
  497MOL0     C68487   3.798  -1.582   6.746  0.0209 -1.5175  0.1041
  497MOL0     C68488   3.945  -1.621   6.783  0.0011  0.2693  0.8633
  497MOL0     C68489   4.041  -1.501   6.769 -0.0823 -0.5031  0.3586
  497MOL0     C68490   4.175  -1.543   6.823  0.4569  1.3352  0.5598
  497MOL0     C68491   4.287  -1.438   6.799 -0.1741  0.1288  0.2289
  497MOL0     C68492   4.396  -1.475   6.699 -0.5952  0.1554 -0.2107
  497MOL0    Cl68493   4.500  -1.334   6.650 -0.0110  0.1642  0.1644
  497MOL0     C68494   3.325  -1.478   6.794  0.0010  0.6000  0.3797
  497MOL0     C68495   3.223  -1.381   6.808 -1.1864  0.4303  0.3106
  497MOL0     O68496   3.264  -1.053   6.813 -1.1834 -0.4370 -0.8036
  497MOL0     C68497   2.986  -1.005   7.038 -0.5363  0.7965  0.8148
  497MOL0     C68498   2.905  -0.904   7.092 -0.4836 -0.5107  0.2900
  497MOL0     N68499   3.248  -0.343   7.459 -0.2648  0.9538  0.5662
  497MOL0     N68500   3.242  -0.219   7.507 -0.1990 -0.4603 -0.0219
  497MOL0     C68501   3.013   0.947   7.359 -0.0503 -1.3102 -0.0558
  497MOL0     C68502   3.114   1.045   7.380 -0.7003 -0.1046 -0.8586
  497MOL0     C68503   3.468   1.295   7.519  0.8094 -0.0967  1.4651
  497MOL0     C68504   3.472   1.271   7.651  0.1059 -0.1245 -0.5564
  497MOL0     C68505   3.563   1.337   7.729  0.3644  0.1255  0.1497
  497MOL0     C68506   3.663   1.414   7.671  0.0695  0.1168 -0.1565
  497MOL0     O68507   3.759   1.478   7.747 -0.1573  0.4851  0.7775
  497MOL0     C68508   3.726   1.510   7.880  0.5766  0.0097 -0.2533
  497MOL0     C68509   3.827   1.586   7.973  0.1870 -0.2462 -0.0111
  497MOL0     C68510   3.776   1.598   8.121  0.5035 -0.2063 -0.1558
  497MOL0     C68511   3.881   1.669   8.203  0.5775 -0.4870  1.5080
  497MOL0     C68512   3.828   1.686   8.334  0.4965  0.1883 -0.9366
  497MOL0     C68513   3.787   1.702   8.449 -0.6917 -0.2433 -0.3277
  497MOL0     C68514   3.664   1.427   7.529 -0.6185 -0.0525 -0.1938
  497MOL0     C68515   3.560   1.382   7.449  0.4415  0.2627 -0.2754
  497MOL0     C68516   3.555   1.411   7.308  0.6198  0.8331  0.0687
  497MOL0     H68517   3.267   0.902   7.648 -1.8537 -3.6311  1.9109
  497MOL0     H68518   3.084   0.740   7.612  0.8364  0.5022  1.5357
  497MOL0     H68519   2.912   0.687   7.228  0.7070  1.6308  0.8223
  497MOL0     H68520   2.784   0.795   7.252 -1.2184 -3.1027 -2.6989
  497MOL0     H68521   2.691   0.615   7.426 -0.5962 -2.3932 -0.2300
  497MOL0     H68522   2.674   0.598   7.239 -0.0878  0.2930 -0.4571
  497MOL0     H68523   2.743   0.396   7.259 -1.0237  1.7830 -3.4519
  497MOL0     H68524   2.899   0.477   7.286 -0.1731  1.4227  1.6163
  497MOL0     H68525   2.878   0.461   7.530 -0.1420  1.1436 -0.2337
  497MOL0     H68526   2.741   0.348   7.518 -1.6343  0.7092 -1.5329
  497MOL0     H68527   3.001   0.276   7.366  1.3226 -2.6588  1.0948
  497MOL0     H68528   2.844   0.191   7.386  0.4660 -0.3924 -1.1970
  497MOL0     H68529   3.033   0.239   7.611  1.4102 -3.6373  2.4285
  497MOL0     H68530   2.870   0.165   7.605  1.0677  3.4183  0.8573
  497MOL0     H68531   3.111   0.049   7.446  0.8635 -0.7362  1.9708
  497MOL0     H68532   2.945  -0.000   7.430  0.8754  0.0641 -2.0336
  497MOL0     H68533   3.136  -0.017   7.673 -0.1945  0.0554  0.1798
  497MOL0     H68534   2.981  -0.093   7.659 -0.8262  0.2978 -1.3717
  497MOL0     H68535   2.924  -0.290   7.507  1.3814 -0.4348  2.9718
  497MOL0     H68536   3.040  -0.566   7.506 -1.2059 -0.3873 -1.4081
  497MOL0     H68537   3.167  -0.583   7.392 -0.5647 -0.8741  0.9359
  497MOL0     H68538   2.913  -0.456   7.332  0.9559  0.1783  3.1999
  497MOL0     H68539   3.025  -0.520   7.211 -0.2439 -0.2729  1.1494
  497MOL0     H68540   2.983  -0.749   7.309  1.2141 -0.0655 -1.1168
  497MOL0     H68541   2.856  -0.687   7.415  0.1018 -0.1284  0.0544
  497MOL0     H68542   2.718  -0.742   7.239  0.6086  0.7223  1.0134
  497MOL0     H68543   2.737  -0.572   7.252 -0.3846  0.8012  0.5108
  497MOL0     H68544   2.962  -0.651   6.891 -0.9991 -0.0353  0.9112
  497MOL0     H68545   3.065  -0.737   6.685 -1.4127  0.1556  1.0887
  497MOL0     H68546   3.087  -0.906   6.656  2.8745 -0.4519 -0.0702
  497MOL0     H68547   3.219  -0.820   6.718 -0.5067 -2.5069  0.6979
  497MOL0     H68548   3.363  -1.220   7.074  3.4168  0.4002  0.7742
  497MOL0     H68549   3.548  -1.363   7.011 -0.2492  2.7281 -1.2566
  497MOL0     H68550   3.487  -1.730   6.755  0.3108 -0.4795 -2.8500
  497MOL0     H68551   3.539  -1.586   6.659  0.4565 -1.0989 -1.4417
  497MOL0     H68552   3.720  -1.775   6.828 -0.6174 -1.5101 -1.1048
  497MOL0     H68553   3.725  -1.762   6.662 -0.6613 -2.2009 -0.4454
  497MOL0     H68554   3.773  -1.509   6.823 -0.8694 -4.2060  2.4953
  497MOL0     H68555   3.792  -1.542   6.644  2.0820  0.4602  0.6814
  497MOL0     H68556   3.989  -1.700   6.721  1.1085  2.1470 -0.8685
  497MOL0     H68557   3.938  -1.651   6.888  1.0709 -1.1602  0.5542
  497MOL0     H68558   4.039  -1.458   6.668 -0.1196  0.1736  0.6426
  497MOL0     H68559   4.004  -1.425   6.840 -0.2615 -2.1753  2.1396
  497MOL0     H68560   4.206  -1.639   6.780  0.6180  0.9959  1.4170
  497MOL0     H68561   4.164  -1.563   6.930 -0.0732  0.8006  0.4129
  497MOL0     H68562   4.332  -1.422   6.898 -1.2066  2.9653  0.3295
  497MOL0     H68563   4.236  -1.348   6.765 -1.0894  0.3291  2.0060
  497MOL0     H68564   4.347  -1.519   6.612  2.2382 -1.0771 -1.3239
  497MOL0     H68565   4.460  -1.551   6.745 -2.1784 -1.7473 -1.0152
  497MOL0     H68566   3.301  -1.547   6.713  2.6542 -1.3618  1.1381
  497MOL0     H68567   3.139  -1.357   6.743  1.3494  0.1214 -3.4276
  497MOL0     H68568   2.979  -1.104   7.082  3.7020 -1.3587 -2.5731
  497MOL0     H68569   2.846  -0.932   7.179 -1.2505  1.2279  0.3586
  497MOL0     H68570   2.933   0.953   7.285  0.9521  2.1279 -1.0276
  497MOL0     H68571   3.117   1.130   7.313 -1.5417  0.2569 -0.4566
  497MOL0     H68572   3.403   1.202   7.698 -0.4886  0.6727 -0.2470
  497MOL0     H68573   3.554   1.328   7.837  0.4144 -2.6140 -0.0152
  497MOL0     H68574   3.640   1.577   7.871  0.3344 -0.3141 -0.3486
  497MOL0     H68575   3.683   1.426   7.936 -0.1322 -0.9777 -2.1944
  497MOL0     H68576   3.834   1.691   7.942 -0.7097 -0.4117 -0.8114
  497MOL0     H68577   3.923   1.534   7.965 -1.0436 -2.8593  0.9260
  497MOL0     H68578   3.685   1.657   8.124  0.7602  0.4953 -3.1517
  497MOL0     H68579   3.757   1.497   8.158 -0.5964 -0.0809 -0.3514
  497MOL0     H68580   3.896   1.772   8.170  2.6626 -0.8799  1.0948
  497MOL0     H68581   3.972   1.610   8.200  0.9667  0.0824  1.9108
  497MOL0     H68582   3.752   1.686   8.549  0.1907 -2.0681 -0.2876
  497MOL0     H68583   3.740   1.493   7.489  0.8346  0.6200  3.2850
  497MOL0     H68584   3.631   1.484   7.276 -0.0101  1.0327 -1.0067
  497MOL0     H68585   3.565   1.315   7.257 -0.6216 -0.5571  2.2859
  497MOL0     H68586   3.458   1.447   7.272  0.9971  1.1435 -0.6596
  498MOL0     O68587   0.760   5.092   5.790  0.3409  0.3945  0.1752
  498MOL0     C68588   0.854   5.074   5.720 -0.1989  0.5373  0.0007
  498MOL0     O68589   0.966   5.164   5.710 -0.2947  0.0425  0.4849
  498MOL0     C68590   1.004   5.231   5.821 -0.0866 -0.3515  0.6227
  498MOL0     C68591   0.976   5.365   5.825  0.1328 -0.3247 -0.1343
  498MOL0     C68592   1.025   5.446   5.928  0.0583  0.4406 -0.8588
  498MOL0     C68593   1.112   5.386   6.021 -0.6744 -0.1550  0.5784
  498MOL0     O68594   1.191   5.457   6.112  0.2167  0.5094 -0.0682
  498MOL0     C68595   1.159   5.592   6.173 -0.6091  0.6485  0.7337
  498MOL0     C68596   1.033   5.589   6.258  0.8549  0.2608 -0.9374
  498MOL0     C68597   1.014   5.467   6.346 -0.8372  1.2704 -0.9284
  498MOL0     C68598   0.880   5.476   6.423  0.8452 -0.2120  0.0203
  498MOL0     C68599   0.877   5.393   6.549  0.3488 -0.7178 -0.1676
  498MOL0     C68600   0.884   5.240   6.521  0.0105  0.5663  0.0850
  498MOL0     C68601   0.869   5.143   6.637 -0.1460  0.7177 -0.4024
  498MOL0     C68602   0.736   5.160   6.716 -0.5676 -0.3136 -0.0339
  498MOL0     N68603   0.617   5.133   6.642 -0.0243 -0.5229 -1.1429
  498MOL0     C68604   0.544   5.216   6.559 -0.2853 -0.2275  0.9363
  498MOL0     C68605   0.419   5.159   6.542 -0.7993  0.0296  0.2992
  498MOL0     C68606   0.297   5.220   6.480  0.5114 -0.6531  0.3588
  498MOL0     C68607   0.184   5.246   6.584  0.3283 -0.4152  0.7245
  498MOL0     C68608   0.050   5.282   6.505  0.2724 -0.7090  0.7503
  498MOL0     C68609   0.056   5.419   6.427 -1.1285 -0.8948 -0.7359
  498MOL0     O68610   0.064   5.530   6.517 -0.1830  0.0439  0.5214
  498MOL0     C68611   0.085   5.653   6.458 -0.2455 -0.6258  0.0061
  498MOL0     C68612   0.055   5.683   6.318  0.5583  0.9775 -0.1015
  498MOL0     C68613   0.084   5.806   6.266  0.2270  0.0119 -0.2681
  498MOL0     C68614   0.060   5.828   6.117 -0.5551 -0.0914 -0.5027
  498MOL0     C68615   0.138   5.906   6.350  0.3257 -0.3882  0.6920
  498MOL0     C68616   0.192   6.037   6.308  0.8725  0.9084 -1.2624
  498MOL0     O68617   0.133   6.154   6.354 -0.1325 -0.2329  0.0321
  498MOL0     C68618   0.187   6.276   6.314  1.1835 -0.1314  1.1401
  498MOL0     C68619   0.158   6.384   6.388 -0.1096 -0.2614  0.2820
  498MOL0     C68620   0.201   6.518   6.364 -1.0108  0.9047  0.0081
  498MOL0     C68621   0.257   6.537   6.233 -0.2788  0.2643 -0.5513
  498MOL0     O68622   0.300   6.647   6.172 -0.4641 -0.0626 -0.1291
  498MOL0     C68623   0.283   6.767   6.250  0.2668 -0.7963  0.4018
  498MOL0     C68624   0.327   6.889   6.161 -0.0047  1.2076  0.8190
  498MOL0     C68625   0.243   6.916   6.041 -0.5755 -0.5048 -0.4520
  498MOL0     C68626   0.288   7.045   5.964  0.2074  0.4190 -0.1428
  498MOL0     C68627   0.192   7.075   5.853  0.2695 -0.4085 -0.1063
  498MOL0     C68628   0.203   7.215   5.800 -0.2780  1.0290  0.4962
  498MOL0     C68629   0.095   7.252   5.697  0.2971  0.0763  0.3257
  498MOL0     C68630   0.098   7.392   5.645 -0.4244  0.0337  0.4903
  498MOL0    Cl68631  -0.056   7.444   5.571 -0.2376  0.2753 -0.1293
  498MOL0     C68632   0.292   6.432   6.153 -0.0782 -0.3154 -0.6291
  498MOL0     C68633   0.259   6.300   6.195  0.2059 -0.1742 -1.0138
  498MOL0     O68634   0.285   6.034   6.238  0.7667 -0.5609  0.8670
  498MOL0     C68635   0.134   5.884   6.493  0.2982 -0.7118  0.9648
  498MOL0     C68636   0.115   5.757   6.540  0.4542  0.6405  0.0652
  498MOL0     N68637   0.411   5.051   6.624  0.2112  0.3279 -0.3796
  498MOL0     N68638   0.521   5.046   6.692  0.0879  0.4988  1.0368
  498MOL0     C68639   1.152   5.250   6.007 -0.2699 -0.2002  0.2093
  498MOL0     C68640   1.090   5.175   5.905  0.8985  0.5880 -0.4150
  498MOL0     C68641   0.848   4.970   5.619 -0.2713 -0.3958  0.1116
  498MOL0     C68642   0.924   4.992   5.498 -0.2396  0.7454 -0.2285
  498MOL0     C68643   0.917   4.899   5.401  0.1744  0.8792 -0.2911
  498MOL0     C68644   0.847   4.780   5.404 -0.5177 -0.8356 -0.0610
  498MOL0     O68645   0.837   4.700   5.297  0.8404 -0.0753  0.0251
  498MOL0     C68646   0.917   4.583   5.299 -0.8085 -1.0869 -0.2105
  498MOL0     C68647   0.850   4.453   5.348  0.3274  0.1532 -1.1311
  498MOL0     C68648   0.802   4.333   5.251  0.0638  0.3103 -0.2698
  498MOL0     C68649   0.726   4.392   5.126 -0.3189  0.1793  0.1718
  498MOL0     C68650   0.707   4.304   5.011  1.3449 -0.2827  0.0385
  498MOL0     C68651   0.674   4.237   4.914  0.5875  0.2179 -0.9295
  498MOL0     C68652   0.772   4.760   5.514 -0.3971  0.1358  0.2458
  498MOL0     C68653   0.771   4.848   5.628 -0.0862 -0.7307  1.3881
  498MOL0     C68654   0.676   4.823   5.735 -0.2549  0.4186 -1.4569
  498MOL0     H68655   0.918   5.398   5.740  2.3479  0.1128 -1.5769
  498MOL0     H68656   1.005   5.552   5.940 -0.1862  0.1679  1.5999
  498MOL0     H68657   1.135   5.662   6.092  0.2598  0.6335  0.4549
  498MOL0     H68658   1.247   5.635   6.222  1.0654  1.2226 -2.4637
  498MOL0     H68659   1.039   5.682   6.316  1.0759  1.0925 -2.2250
  498MOL0     H68660   0.946   5.595   6.192 -0.2316 -0.5518  0.3847
  498MOL0     H68661   1.017   5.376   6.284 -0.1632  0.9466 -0.4396
  498MOL0     H68662   1.094   5.447   6.417 -0.9464  2.9429 -0.2999
  498MOL0     H68663   0.848   5.578   6.448 -4.0337 -1.4075 -0.2806
  498MOL0     H68664   0.797   5.454   6.355  0.0470  0.6514  0.6815
  498MOL0     H68665   0.781   5.420   6.593  1.1627  1.0331  0.6402
  498MOL0     H68666   0.946   5.424   6.628  0.1588  0.8612 -0.5792
  498MOL0     H68667   0.814   5.212   6.442 -3.0260 -0.6963  2.9832
  498MOL0     H68668   0.989   5.227   6.492 -0.4511  0.0078 -1.4202
  498MOL0     H68669   0.959   5.155   6.698 -0.4307  0.4800  0.0670
  498MOL0     H68670   0.868   5.041   6.597 -2.2196  1.0978 -1.4748
  498MOL0     H68671   0.731   5.109   6.813 -2.4752  1.1909  0.7372
  498MOL0     H68672   0.724   5.267   6.738 -0.0853 -0.4824  1.1216
  498MOL0     H68673   0.570   5.313   6.517  0.8557 -0.3523  1.3286
  498MOL0     H68674   0.247   5.151   6.412 -3.8633  1.4364  1.1636
  498MOL0     H68675   0.328   5.312   6.429 -4.4239  0.4784 -1.0551
  498MOL0     H68676   0.163   5.153   6.639 -0.7462 -0.8239 -0.3390
  498MOL0     H68677   0.209   5.318   6.663  1.0750 -0.4430  0.5266
  498MOL0     H68678   0.025   5.199   6.439 -2.1282  2.3236 -2.5308
  498MOL0     H68679  -0.031   5.294   6.577  0.2459 -2.9353  1.1631
  498MOL0     H68680   0.144   5.423   6.362  1.7329 -1.0936  2.7764
  498MOL0     H68681  -0.037   5.447   6.377  0.9376  1.5673 -3.5323
  498MOL0     H68682  -0.000   5.614   6.255  0.7752 -0.3608  1.1399
  498MOL0     H68683  -0.049   5.830   6.110 -1.0762 -3.3950  3.0358
  498MOL0     H68684   0.105   5.750   6.056  1.8081  0.8818 -0.1092
  498MOL0     H68685   0.112   5.914   6.075  0.3601  0.3668  1.4392
  498MOL0     H68686   0.078   6.378   6.461  1.4880 -3.5861  1.9671
  498MOL0     H68687   0.164   6.598   6.428 -0.9915  1.3156 -0.4900
  498MOL0     H68688   0.176   6.778   6.270 -0.2308  0.3679 -2.4056
  498MOL0     H68689   0.332   6.767   6.347 -1.9844  1.0417  1.6369
  498MOL0     H68690   0.317   6.971   6.233 -1.6894  0.4677  1.4902
  498MOL0     H68691   0.422   6.864   6.114 -0.8135  0.6256 -0.5539
  498MOL0     H68692   0.136   6.926   6.062  0.2456 -0.5897  5.2424
  498MOL0     H68693   0.263   6.839   5.967 -0.9859 -1.8989  0.8463
  498MOL0     H68694   0.384   7.036   5.911 -0.4286 -0.1778 -1.2248
  498MOL0     H68695   0.292   7.126   6.038 -1.1870  2.8133 -2.5465
  498MOL0     H68696   0.196   6.999   5.774  0.7564  0.9941 -1.4857
  498MOL0     H68697   0.090   7.071   5.891  0.5916  0.5187  0.8898
  498MOL0     H68698   0.301   7.226   5.754  0.4297 -1.0130  1.3900
  498MOL0     H68699   0.189   7.276   5.889  1.2721  1.6955  0.3001
  498MOL0     H68700  -0.005   7.232   5.736 -1.0213 -0.2958 -2.9911
  498MOL0     H68701   0.107   7.176   5.620  1.0019  1.0215 -0.5159
  498MOL0     H68702   0.182   7.399   5.575 -0.4380 -0.3625  0.4343
  498MOL0     H68703   0.126   7.459   5.728  0.0541  1.7553 -0.9895
  498MOL0     H68704   0.344   6.453   6.060 -0.9308 -0.6211 -1.1840
  498MOL0     H68705   0.289   6.226   6.121  1.5945  1.6963 -2.4349
  498MOL0     H68706   0.176   5.954   6.565  1.9719  1.0661 -1.5561
  498MOL0     H68707   0.129   5.729   6.644  1.6293  0.3554 -0.1556
  498MOL0     H68708   1.235   5.212   6.066 -0.0450 -4.0416 -2.2020
  498MOL0     H68709   1.107   5.068   5.900 -3.7245 -0.4191  1.0771
  498MOL0     H68710   0.986   5.079   5.484  1.5178  0.1444  3.0103
  498MOL0     H68711   0.962   4.917   5.304  1.0468  2.0729  0.3105
  498MOL0     H68712   0.963   4.558   5.203  0.2757  0.9311 -0.2714
  498MOL0     H68713   1.003   4.608   5.362 -0.0069 -0.5934 -1.4499
  498MOL0     H68714   0.761   4.480   5.406 -0.7337 -1.4739 -1.9570
  498MOL0     H68715   0.917   4.418   5.427  0.0490  1.0465 -0.4718
  498MOL0     H68716   0.897   4.294   5.214  4.4016  4.2856  5.0167
  498MOL0     H68717   0.742   4.249   5.289  3.5350 -2.3117 -0.1429
  498MOL0     H68718   0.786   4.477   5.092  1.5310 -1.1746 -0.0975
  498MOL0     H68719   0.627   4.434   5.142  0.2942  1.0430  2.0095
  498MOL0     H68720   0.636   4.189   4.826 -2.3439 -1.4206  1.0385
  498MOL0     H68721   0.705   4.674   5.520 -0.3527  0.1923  4.2941
  498MOL0     H68722   0.579   4.862   5.703 -1.0694 -2.0008 -2.0863
  498MOL0     H68723   0.677   4.716   5.753 -1.5230  0.7825  1.3367
  498MOL0     H68724   0.682   4.873   5.833 -2.9618  1.6305 -1.8121
  499MOL0     O68725   2.690   7.204   2.996  0.3883  0.4553 -0.0519
  499MOL0     C68726   2.723   7.085   2.970  0.4491  0.1422 -0.5273
  499MOL0     O68727   2.852   7.037   2.957  0.4323  0.3334 -0.1097
  499MOL0     C68728   2.942   7.132   2.978  0.3193 -0.2656  1.1312
  499MOL0     C68729   2.975   7.176   3.110  0.8626 -0.5568  1.1306
  499MOL0     C68730   3.076   7.273   3.126  0.0901  0.1523 -0.4781
  499MOL0     C68731   3.152   7.313   3.011  1.0809 -0.0375  0.4080
  499MOL0     O68732   3.248   7.410   3.034  0.1021 -0.4017  0.2307
  499MOL0     C68733   3.218   7.524   3.122 -0.8545  0.2547  0.5041
  499MOL0     C68734   3.306   7.644   3.099 -0.5132  0.0972  0.2510
  499MOL0     C68735   3.235   7.747   3.013 -0.8743  0.1946 -0.1484
  499MOL0     C68736   3.339   7.828   2.943  0.6818  0.0629  1.0976
  499MOL0     C68737   3.262   7.925   2.853 -0.7938 -0.1798  0.6170
  499MOL0     C68738   3.373   8.015   2.784  0.7400  0.0406  0.5888
  499MOL0     C68739   3.424   8.131   2.876 -0.0605 -0.7403  0.1461
  499MOL0     C68740   3.305   8.237   2.902  0.9561  0.0432  0.2616
  499MOL0     N68741   3.293   8.323   2.777  0.7330  0.1969 -0.4734
  499MOL0     C68742   3.379   8.427   2.751 -0.1434 -0.1759 -0.0738
  499MOL0     C68743   3.326   8.493   2.641  0.4451  0.4782  1.0500
  499MOL0     C68744   3.384   8.591   2.546  0.4811 -0.5545 -0.3937
  499MOL0     C68745   3.350   8.735   2.582 -0.4145  0.5885 -0.5863
  499MOL0     C68746   3.414   8.848   2.502 -0.5004  0.0778 -0.8768
  499MOL0     C68747   3.363   8.827   2.361  0.3997 -1.4993  0.0872
  499MOL0     O68748   3.350   8.955   2.299 -0.1709 -0.0097 -0.4930
  499MOL0     C68749   3.239   9.040   2.299 -0.1163 -0.0092  0.7599
  499MOL0     C68750   3.146   9.048   2.405  0.1025  0.7620  0.4106
  499MOL0     C68751   3.044   9.150   2.413 -0.2129 -0.2875 -0.0055
  499MOL0     C68752   2.963   9.168   2.532  0.2703  0.5962  0.1231
  499MOL0     C68753   3.032   9.245   2.304 -0.3291 -0.2605 -0.7708
  499MOL0     C68754   2.943   9.363   2.304  0.3825 -0.3061  0.5765
  499MOL0     O68755   2.995   9.477   2.234 -0.2936 -0.7279  0.0877
  499MOL0     C68756   2.932   9.594   2.207 -0.5263  0.1354 -0.7842
  499MOL0     C68757   2.990   9.687   2.119 -0.0953  0.2417  0.5351
  499MOL0     C68758   2.931   9.809   2.096 -0.0972  0.0180 -0.3679
  499MOL0     C68759   2.812   9.846   2.150 -0.4609 -1.0507  0.1340
  499MOL0     O68760   2.759   9.968   2.127  0.4363  0.1050 -0.1477
  499MOL0     C68761   2.778  10.012   1.991  0.0441  0.4163 -0.0837
  499MOL0     C68762   2.659  10.087   1.927  0.8709  0.2288  0.6558
  499MOL0     C68763   2.686  10.158   1.797 -1.0019  0.2357  0.7107
  499MOL0     C68764   2.565  10.193   1.724  0.4819  1.0042 -0.4028
  499MOL0     C68765   2.585  10.237   1.573  0.1702 -0.0479  0.3008
  499MOL0     C68766   2.617  10.392   1.574 -0.6090 -0.2957 -0.5779
  499MOL0     C68767   2.609  10.470   1.445 -0.1780  0.0437 -0.1757
  499MOL0     C68768   2.732  10.435   1.353  0.8377  0.2093  0.0024
  499MOL0    Cl68769   2.869  10.539   1.391  0.1808  0.1087 -0.8299
  499MOL0     C68770   2.758   9.768   2.253 -0.3419  0.0876  0.0720
  499MOL0     C68771   2.815   9.643   2.283 -0.4827 -0.0439 -0.0078
  499MOL0     O68772   2.835   9.350   2.356  0.0990 -0.3803 -0.2362
  499MOL0     C68773   3.121   9.233   2.192 -0.8416  0.7897 -0.7473
  499MOL0     C68774   3.225   9.126   2.187  0.7487  0.1515  0.1387
  499MOL0     N68775   3.206   8.426   2.599  0.0423  0.8079  1.2659
  499MOL0     N68776   3.194   8.321   2.677  0.4540  0.2259 -0.1174
  499MOL0     C68777   3.118   7.273   2.882 -0.3691 -0.6308 -0.1503
  499MOL0     C68778   3.014   7.187   2.866 -0.1635  0.1627 -0.1657
  499MOL0     C68779   2.623   6.971   2.968  0.2313 -0.8273 -0.7255
  499MOL0     C68780   2.657   6.841   2.941 -0.2109  0.7744 -0.5574
  499MOL0     C68781   2.564   6.742   2.949 -0.0450  0.4510 -0.3156
  499MOL0     C68782   2.431   6.765   2.970 -0.1802 -0.0202  0.5853
  499MOL0     O68783   2.334   6.667   2.983 -0.2787 -0.0234  1.0664
  499MOL0     C68784   2.347   6.523   2.962 -0.2145 -1.0055 -0.2984
  499MOL0     C68785   2.403   6.493   2.820  0.7842 -0.0921  0.1884
  499MOL0     C68786   2.368   6.589   2.700 -1.2938  0.0772 -0.2171
  499MOL0     C68787   2.211   6.590   2.696 -0.2253  0.1564 -0.3532
  499MOL0     C68788   2.154   6.453   2.680 -0.0682 -0.0298 -0.1321
  499MOL0     C68789   2.088   6.358   2.668  0.7419  1.9166  0.0633
  499MOL0     C68790   2.399   6.894   2.992 -0.0458 -0.2745  0.2339
  499MOL0     C68791   2.490   7.000   2.991 -0.2942 -0.0407 -0.3039
  499MOL0     C68792   2.433   7.141   3.005  0.4282 -0.5984  0.4940
  499MOL0     H68793   2.914   7.142   3.193 -0.7120 -0.7838 -0.0681
  499MOL0     H68794   3.115   7.296   3.224 -0.9200  1.2700 -0.3242
  499MOL0     H68795   3.244   7.497   3.225 -1.1450 -0.0261  0.5052
  499MOL0     H68796   3.114   7.558   3.126 -0.3800  1.7469  3.9717
  499MOL0     H68797   3.321   7.687   3.198  0.3760 -0.2912  0.2973
  499MOL0     H68798   3.394   7.599   3.052 -0.1878  0.0283  0.9215
  499MOL0     H68799   3.182   7.688   2.938 -0.5684 -2.7033  1.7671
  499MOL0     H68800   3.164   7.802   3.075 -1.6200 -1.8711  0.9249
  499MOL0     H68801   3.392   7.887   3.018  0.4891  0.1112  1.1954
  499MOL0     H68802   3.418   7.768   2.896 -0.0115 -0.1598  0.1881
  499MOL0     H68803   3.188   7.993   2.897  0.2434  2.6654 -1.6799
  499MOL0     H68804   3.218   7.864   2.774 -0.9951  0.3223  0.3352
  499MOL0     H68805   3.462   7.957   2.759 -0.3525 -0.3231 -3.0796
  499MOL0     H68806   3.334   8.057   2.691  0.8374  1.0741  0.9993
  499MOL0     H68807   3.507   8.183   2.829 -1.7543 -1.3541 -3.9288
  499MOL0     H68808   3.451   8.094   2.976  0.4686  0.4386  0.4470
  499MOL0     H68809   3.206   8.193   2.920  0.9801  0.4876  1.5483
  499MOL0     H68810   3.314   8.299   2.992 -0.1443 -0.9016  1.0610
  499MOL0     H68811   3.466   8.444   2.813 -0.5185 -1.6640  0.9292
  499MOL0     H68812   3.336   8.561   2.453 -1.6085 -2.9574  1.3269
  499MOL0     H68813   3.493   8.577   2.539  0.2903 -2.0749 -0.6373
  499MOL0     H68814   3.243   8.759   2.588 -0.9611 -1.5301 -0.9990
  499MOL0     H68815   3.401   8.747   2.678  1.0790  2.4168 -1.5474
  499MOL0     H68816   3.371   8.931   2.559 -1.3029 -3.3143  4.0133
  499MOL0     H68817   3.523   8.854   2.515 -0.5598  2.8225 -1.0540
  499MOL0     H68818   3.437   8.764   2.312 -3.4437 -3.6166 -3.5745
  499MOL0     H68819   3.272   8.773   2.334  0.3148 -0.5003 -1.7844
  499MOL0     H68820   3.162   8.982   2.490  1.4004  0.3463 -0.1440
  499MOL0     H68821   2.981   9.267   2.576 -1.4471  0.5625  0.9899
  499MOL0     H68822   2.971   9.090   2.609 -2.6498  2.0363  2.0768
  499MOL0     H68823   2.856   9.158   2.510 -0.2838 -1.4764  3.1374
  499MOL0     H68824   3.095   9.680   2.091 -0.2143 -0.6659  0.2780
  499MOL0     H68825   2.994   9.876   2.039  0.9968  1.9720  2.8665
  499MOL0     H68826   2.852  10.090   2.013  1.1051 -0.5038 -0.3582
  499MOL0     H68827   2.822   9.943   1.919  1.4108  1.3299 -0.1685
  499MOL0     H68828   2.578  10.013   1.921  1.3483 -0.2623  0.1200
  499MOL0     H68829   2.616  10.156   2.000 -1.5392 -0.8357  0.3576
  499MOL0     H68830   2.751  10.092   1.737  0.8287  1.2981  1.4364
  499MOL0     H68831   2.748  10.248   1.798 -2.2108  1.0842  2.2652
  499MOL0     H68832   2.519  10.275   1.780  0.9219  2.2815 -1.8327
  499MOL0     H68833   2.499  10.109   1.746  3.7768 -0.6640  5.1460
  499MOL0     H68834   2.649  10.174   1.511  1.0492 -0.3615  1.4852
  499MOL0     H68835   2.494  10.221   1.515  0.9098 -0.6035 -0.7393
  499MOL0     H68836   2.719  10.411   1.607  1.8551 -2.0952 -5.9638
  499MOL0     H68837   2.547  10.434   1.646  2.4038  0.0829  2.3614
  499MOL0     H68838   2.593  10.576   1.469 -1.7933 -0.5087  1.4267
  499MOL0     H68839   2.519  10.437   1.392 -0.4032 -2.7059  1.6881
  499MOL0     H68840   2.699  10.464   1.253  1.2502  0.5189 -0.0445
  499MOL0     H68841   2.765  10.330   1.358  1.7804  0.5274  0.6402
  499MOL0     H68842   2.679   9.819   2.307 -0.0413 -1.0294  1.6549
  499MOL0     H68843   2.771   9.586   2.364 -1.6970  2.1053  0.9435
  499MOL0     H68844   3.102   9.308   2.116 -3.0542  1.2674  0.2178
  499MOL0     H68845   3.278   9.103   2.095  3.0411 -1.0955  1.6753
  499MOL0     H68846   3.194   7.300   2.810 -0.6611  0.2911 -0.1298
  499MOL0     H68847   2.993   7.154   2.765  1.4725 -0.0910 -0.4501
  499MOL0     H68848   2.760   6.812   2.925 -1.3031 -2.1516 -3.3251
  499MOL0     H68849   2.590   6.637   2.941 -3.9383 -0.6753 -0.3435
  499MOL0     H68850   2.417   6.483   3.036 -0.2468 -1.4793 -0.5239
  499MOL0     H68851   2.252   6.472   2.978 -0.5372  0.2102  2.1718
  499MOL0     H68852   2.371   6.390   2.802 -0.1887  0.7061 -3.4815
  499MOL0     H68853   2.509   6.491   2.846  0.3910 -1.5865  1.9034
  499MOL0     H68854   2.411   6.690   2.704  1.6452 -0.9907 -1.7086
  499MOL0     H68855   2.406   6.540   2.610  0.5837 -3.6115  2.3501
  499MOL0     H68856   2.184   6.655   2.612 -1.2240 -1.6035 -1.4680
  499MOL0     H68857   2.167   6.642   2.781 -0.4882 -2.0179  0.9267
  499MOL0     H68858   2.022   6.274   2.658  0.2010  2.3754 -0.3305
  499MOL0     H68859   2.294   6.918   2.998 -0.0733 -0.4633  0.5428
  499MOL0     H68860   2.466   7.218   2.935 -2.4332  2.7116  2.4842
  499MOL0     H68861   2.324   7.136   2.991  0.7051 -2.7339 -1.4917
  499MOL0     H68862   2.452   7.186   3.103 -1.9025 -2.2938  1.8372
  500MOL0     O68863   1.102   8.246   2.476  0.1433 -0.1710 -0.3200
  500MOL0     C68864   1.019   8.238   2.570 -0.7341 -0.3083  0.7007
  500MOL0     O68865   0.992   8.129   2.638 -1.4849  0.0469 -0.6988
  500MOL0     C68866   1.069   8.009   2.633  0.2086 -0.3899  0.9088
  500MOL0     C68867   1.068   7.926   2.744  1.4042  0.9809 -0.0732
  500MOL0     C68868   1.136   7.806   2.745  0.1462  0.0589 -0.4955
  500MOL0     C68869   1.213   7.770   2.632 -0.3097 -0.0371  0.0551
  500MOL0     O68870   1.300   7.655   2.621  0.9221  0.0266  0.0515
  500MOL0     C68871   1.332   7.589   2.745  0.5013 -0.4473 -0.5588
  500MOL0     C68872   1.407   7.466   2.734 -0.4079  0.4938  0.5613
  500MOL0     C68873   1.539   7.504   2.668  0.1961  0.0053  0.2303
  500MOL0     C68874   1.552   7.408   2.548 -0.7411  0.6011  0.5907
  500MOL0     C68875   1.685   7.441   2.472  0.4954 -0.3573  0.2058
  500MOL0     C68876   1.812   7.388   2.540 -0.6410 -0.3041  0.5252
  500MOL0     C68877   1.944   7.421   2.470 -0.1870 -0.6068 -0.9259
  500MOL0     C68878   1.968   7.328   2.355  0.8266 -0.9255  0.8067
  500MOL0     N68879   1.911   7.385   2.231 -0.6753 -0.3985  0.0246
  500MOL0     C68880   1.902   7.313   2.114 -0.1325  0.1137  0.8728
  500MOL0     C68881   1.868   7.408   2.017  0.7902 -0.3581  0.2976
  500MOL0     C68882   1.869   7.379   1.873 -0.4744 -0.0984  1.0183
  500MOL0     C68883   1.721   7.386   1.836  0.3962  1.1722  0.0986
  500MOL0     C68884   1.702   7.349   1.692 -0.4701 -0.3132 -1.1453
  500MOL0     C68885   1.550   7.352   1.659 -0.1999  0.7558  1.3138
  500MOL0     O68886   1.509   7.254   1.559  0.8576 -0.0745  0.8279
  500MOL0     C68887   1.491   7.298   1.427 -0.9016 -0.6800 -0.4302
  500MOL0     C68888   1.566   7.393   1.354  0.3556 -0.6869 -1.1196
  500MOL0     C68889   1.540   7.409   1.221  0.1775  0.5727 -0.4868
  500MOL0     C68890   1.653   7.481   1.155 -0.2822 -0.6750 -0.5485
  500MOL0     C68891   1.423   7.348   1.153 -0.1477  0.4025 -0.7313
  500MOL0     C68892   1.374   7.374   1.020  0.6599 -0.6750 -0.1874
  500MOL0     O68893   1.253   7.301   0.978  0.3866  0.0570 -0.4609
  500MOL0     C68894   1.198   7.304   0.851  0.2006  0.1171  1.3399
  500MOL0     C68895   1.071   7.252   0.828  0.4890  0.6444  0.5064
  500MOL0     C68896   1.007   7.258   0.702 -1.7909 -0.3594  0.2918
  500MOL0     C68897   1.075   7.290   0.582  0.2245 -0.5589 -0.1951
  500MOL0     O68898   1.000   7.299   0.468 -0.0791 -0.2206 -0.0655
  500MOL0     C68899   0.969   7.169   0.417 -0.0156 -0.7317 -0.3921
  500MOL0     C68900   1.093   7.073   0.421  0.4940 -0.2973 -0.5088
  500MOL0     C68901   1.090   6.958   0.322  0.7773 -0.0479 -0.0156
  500MOL0     C68902   0.965   6.864   0.328  0.8565 -0.5198  0.3245
  500MOL0     C68903   0.987   6.758   0.233 -0.0914 -0.3544  0.0826
  500MOL0     C68904   0.883   6.739   0.122  0.4253  0.6467 -0.0755
  500MOL0     C68905   0.923   6.612   0.048  0.0946 -0.0968  1.0879
  500MOL0     C68906   0.840   6.599  -0.088 -0.9724  0.6661  0.0447
  500MOL0    Cl68907   0.900   6.468  -0.202 -0.2840  0.0643 -0.0179
  500MOL0     C68908   1.204   7.341   0.599 -0.3736  0.0451 -0.2554
  500MOL0     C68909   1.265   7.349   0.729 -0.2446 -0.6089  0.3149
  500MOL0     O68910   1.440   7.448   0.947  0.1701  1.2875 -0.2743
  500MOL0     C68911   1.352   7.259   1.234 -0.0992 -0.6149 -0.3757
  500MOL0     C68912   1.394   7.218   1.361 -0.1003  0.2076  0.6663
  500MOL0     N68913   1.859   7.533   2.073  0.5385  1.2713  0.2623
  500MOL0     N68914   1.884   7.519   2.199  0.2331  0.3503  0.7551
  500MOL0     C68915   1.207   7.847   2.515  0.8618  0.5676 -1.1151
  500MOL0     C68916   1.135   7.966   2.520 -0.5420 -0.0278  0.1490
  500MOL0     C68917   0.967   8.365   2.630 -0.3368 -0.4745 -0.4755
  500MOL0     C68918   0.953   8.367   2.773 -0.5963  0.4985  0.3583
  500MOL0     C68919   0.919   8.494   2.825 -0.7681 -0.2304 -0.8422
  500MOL0     C68920   0.875   8.606   2.745  0.6835 -0.0542 -0.1205
  500MOL0     O68921   0.823   8.723   2.793  0.3813  0.0212  0.2930
  500MOL0     C68922   0.929   8.802   2.865  0.5651  1.0810 -0.5192
  500MOL0     C68923   0.967   8.927   2.782  1.0102 -0.5903  0.5484
  500MOL0     C68924   0.841   9.013   2.754 -0.4219 -0.4806  0.0768
  500MOL0     C68925   0.878   9.157   2.738  0.2092  0.7407 -0.6911
  500MOL0     C68926   0.943   9.209   2.859  0.1594 -0.3030  0.3460
  500MOL0     C68927   0.982   9.274   2.953  0.6318  0.0767  0.2259
  500MOL0     C68928   0.892   8.592   2.614  0.1434  0.1431 -0.2400
  500MOL0     C68929   0.926   8.474   2.555 -0.3396  0.3676  0.6096
  500MOL0     C68930   0.927   8.463   2.408 -0.4669 -0.5037 -0.0761
  500MOL0     H68931   1.016   7.962   2.832  1.5035  1.3233 -0.1500
  500MOL0     H68932   1.129   7.744   2.833 -0.1162 -0.3815 -0.8185
  500MOL0     H68933   1.244   7.565   2.803  1.0659 -1.6852 -0.1890
  500MOL0     H68934   1.384   7.659   2.811  0.3005  0.1819 -1.0531
  500MOL0     H68935   1.443   7.422   2.828 -0.7068 -3.9704 -1.1582
  500MOL0     H68936   1.354   7.385   2.683  2.2469 -1.8830  1.2509
  500MOL0     H68937   1.537   7.609   2.639 -1.8776 -0.3602 -1.1593
  500MOL0     H68938   1.623   7.492   2.738 -1.2257 -0.8256  1.8689
  500MOL0     H68939   1.554   7.307   2.589 -0.1226  0.4591  0.2270
  500MOL0     H68940   1.464   7.394   2.484  2.6960 -2.9522 -4.0110
  500MOL0     H68941   1.676   7.550   2.459 -3.4798 -0.3176  1.7279
  500MOL0     H68942   1.691   7.384   2.379 -1.5248 -0.5336  0.1395
  500MOL0     H68943   1.815   7.436   2.638 -1.0863 -1.1826  0.9746
  500MOL0     H68944   1.814   7.280   2.554 -1.0948 -0.6131 -1.3998
  500MOL0     H68945   2.022   7.401   2.543  1.1728  1.3081 -1.7799
  500MOL0     H68946   1.947   7.526   2.439 -0.3161 -0.4917 -0.5443
  500MOL0     H68947   2.074   7.326   2.330  0.0575  1.2029 -3.9782
  500MOL0     H68948   1.914   7.234   2.368 -1.1868 -0.0138 -0.3187
  500MOL0     H68949   1.928   7.210   2.089  0.1723 -0.6655  3.9675
  500MOL0     H68950   1.924   7.285   1.857  0.0633  0.4669 -0.6626
  500MOL0     H68951   1.934   7.456   1.832  0.1147  0.0225  2.1331
  500MOL0     H68952   1.661   7.315   1.893  0.9545  1.4153  1.0037
  500MOL0     H68953   1.698   7.487   1.871  0.2294  1.4819 -0.8694
  500MOL0     H68954   1.768   7.403   1.623 -0.0118 -1.2037 -1.4243
  500MOL0     H68955   1.731   7.244   1.703  0.3096 -0.0562 -0.6686
  500MOL0     H68956   1.493   7.320   1.747 -0.0050 -3.7091  0.0616
  500MOL0     H68957   1.521   7.453   1.629  0.1077  0.3933 -0.2599
  500MOL0     H68958   1.653   7.444   1.394  0.2978  0.1830 -2.0343
  500MOL0     H68959   1.623   7.586   1.153 -0.5727 -0.7526 -0.4270
  500MOL0     H68960   1.666   7.452   1.050  3.0845  2.3434 -1.1430
  500MOL0     H68961   1.747   7.459   1.207 -0.2789 -1.4636 -0.8747
  500MOL0     H68962   1.018   7.213   0.914 -0.5508  1.2043  0.1416
  500MOL0     H68963   0.901   7.239   0.707 -2.2694  1.2537 -2.0500
  500MOL0     H68964   0.884   7.134   0.476  0.7260 -1.0890  0.4965
  500MOL0     H68965   0.938   7.189   0.314 -1.6060 -1.2298 -0.0380
  500MOL0     H68966   1.185   7.126   0.395  0.1600  1.2750  1.2893
  500MOL0     H68967   1.100   7.029   0.521  2.1567 -0.2919 -0.6015
  500MOL0     H68968   1.182   6.899   0.332 -0.1022 -1.6337 -1.0078
  500MOL0     H68969   1.088   6.998   0.220  3.0059 -1.2833 -0.6199
  500MOL0     H68970   0.885   6.918   0.278  2.0561 -1.5768 -3.0457
  500MOL0     H68971   0.944   6.835   0.431 -2.7740 -2.0844 -0.6943
  500MOL0     H68972   1.088   6.765   0.192 -0.7511 -0.3469 -1.6610
  500MOL0     H68973   0.980   6.671   0.298  0.3733  1.2046  2.3123
  500MOL0     H68974   0.853   6.818   0.054 -2.4073 -1.0986 -1.0329
  500MOL0     H68975   0.789   6.714   0.174  0.9464 -1.7878 -0.1594
  500MOL0     H68976   0.908   6.521   0.108 -2.1013 -1.5288 -1.4145
  500MOL0     H68977   1.028   6.623   0.018 -1.1364  0.5671 -3.7631
  500MOL0     H68978   0.830   6.696  -0.138  3.3676  1.4894  0.3810
  500MOL0     H68979   0.734   6.576  -0.071 -0.6315 -2.7250 -1.5093
  500MOL0     H68980   1.268   7.384   0.523 -0.0441 -0.4987 -0.2849
  500MOL0     H68981   1.369   7.379   0.726 -1.0338  2.3610 -1.5911
  500MOL0     H68982   1.263   7.206   1.204 -0.6783  1.2895 -2.2814
  500MOL0     H68983   1.367   7.126   1.412 -2.5686 -0.4034 -1.4973
  500MOL0     H68984   1.278   7.824   2.437 -1.1987  1.1816 -3.3003
  500MOL0     H68985   1.148   8.024   2.429 -1.0248  1.3236  0.9223
  500MOL0     H68986   0.970   8.283   2.839  0.1133  1.0640  0.9035
  500MOL0     H68987   0.922   8.505   2.933  0.1555  0.6033 -0.9332
  500MOL0     H68988   0.882   8.835   2.957 -2.7285 -2.2806 -0.7730
  500MOL0     H68989   1.021   8.749   2.892  0.4107 -0.5925 -2.9288
  500MOL0     H68990   1.015   8.901   2.687  0.7216  0.7098  0.0175
  500MOL0     H68991   1.046   8.973   2.842  0.0978 -0.2949  1.5525
  500MOL0     H68992   0.798   8.975   2.661  1.2100 -0.2313 -0.8044
  500MOL0     H68993   0.763   9.005   2.831  2.2280 -2.1046  2.8352
  500MOL0     H68994   0.786   9.212   2.719 -1.3962 -2.5067 -3.3991
  500MOL0     H68995   0.953   9.174   2.660  1.1733  2.7720  0.6139
  500MOL0     H68996   1.034   9.332   3.026  0.3631 -1.3862  1.6386
  500MOL0     H68997   0.856   8.672   2.550 -0.4900  0.6902  0.7728
  500MOL0     H68998   0.847   8.522   2.364 -0.7588 -0.8713 -0.0446
  500MOL0     H68999   1.024   8.502   2.375 -1.1254  1.5386  0.2798
  500MOL0     H69000   0.907   8.365   2.364 -3.4106  0.0603 -0.2193
  501MOL0     O69001   6.220  11.318   7.115 -0.0793  0.3796  0.5666
  501MOL0     C69002   6.199  11.430   7.163  0.3566  0.2491 -0.7203
  501MOL0     O69003   6.297  11.499   7.228  0.5111 -0.0547  0.1043
  501MOL0     C69004   6.257  11.592   7.324 -0.4724 -0.7092  0.6034
  501MOL0     C69005   6.236  11.728   7.299 -0.5357 -0.5421  0.3049
  501MOL0     C69006   6.206  11.814   7.406 -0.0026 -0.3554  0.9223
  501MOL0     C69007   6.190  11.765   7.540  0.8050 -0.4447  0.2750
  501MOL0     O69008   6.164  11.847   7.646  0.1941 -0.4973  0.2152
  501MOL0     C69009   6.229  11.815   7.774  0.3571 -0.3307 -0.7590
  501MOL0     C69010   6.343  11.907   7.800 -0.7009  0.7744 -0.4546
  501MOL0     C69011   6.461  11.853   7.725 -0.3776  0.3893  0.0720
  501MOL0     C69012   6.584  11.895   7.804 -0.6715  0.4602 -0.7596
  501MOL0     C69013   6.706  11.794   7.786 -0.0739 -0.9071 -0.4727
  501MOL0     C69014   6.824  11.830   7.866 -0.9718 -0.1677 -0.5379
  501MOL0     C69015   6.903  11.950   7.806 -0.3343 -0.3861  0.4622
  501MOL0     C69016   7.052  11.953   7.840 -0.2866 -0.4897 -0.3288
  501MOL0     N69017   7.122  11.832   7.796  0.3238  0.8243 -0.6390
  501MOL0     C69018   7.136  11.762   7.680  1.1731 -0.2306 -0.2712
  501MOL0     C69019   7.242  11.680   7.691  1.3207  0.4312  0.6332
  501MOL0     C69020   7.308  11.570   7.608  0.5762 -0.3368  0.9631
  501MOL0     C69021   7.283  11.437   7.658  0.0761  0.2816  0.2939
  501MOL0     C69022   7.138  11.396   7.693  1.0071 -0.1921  0.1859
  501MOL0     C69023   7.036  11.401   7.577  0.6205  0.4843 -0.0471
  501MOL0     O69024   7.077  11.351   7.451 -0.0765  0.3605  0.4727
  501MOL0     C69025   7.078  11.216   7.422 -0.3768 -0.3639  0.0576
  501MOL0     C69026   7.045  11.118   7.520 -0.4054  0.2778  0.4617
  501MOL0     C69027   7.059  10.982   7.494  0.4780  1.0101 -1.4518
  501MOL0     C69028   7.020  10.885   7.603  0.2965 -0.3802  0.3886
  501MOL0     C69029   7.094  10.941   7.371 -1.2253  0.9522 -0.3763
  501MOL0     C69030   7.093  10.790   7.323 -0.5058 -0.1550 -0.8920
  501MOL0     O69031   7.185  10.758   7.224 -0.4427  0.3009  0.7114
  501MOL0     C69032   7.190  10.629   7.178 -0.1280  0.2034  0.9311
  501MOL0     C69033   7.308  10.559   7.187  0.3129  0.2317 -0.2175
  501MOL0     C69034   7.320  10.432   7.118  1.0278 -0.1434  0.0576
  501MOL0     C69035   7.204  10.382   7.053 -0.4741  0.3016 -0.7584
  501MOL0     O69036   7.221  10.250   7.020 -0.2891 -0.3239  0.2065
  501MOL0     C69037   7.126  10.192   6.921  0.4091 -1.2036 -0.5547
  501MOL0     C69038   7.126  10.262   6.782  0.1391  0.2681  0.4242
  501MOL0     C69039   7.035  10.184   6.692 -0.0715  0.4382 -0.6371
  501MOL0     C69040   7.055  10.216   6.544 -0.6362 -0.1019 -0.2796
  501MOL0     C69041   6.947  10.136   6.457  0.1880 -0.4584  0.8707
  501MOL0     C69042   6.944   9.986   6.492 -0.0042 -0.5734 -0.8962
  501MOL0     C69043   7.081   9.926   6.442  0.8380  0.4735 -0.2639
  501MOL0     C69044   7.101   9.781   6.495 -0.4893  0.4114  0.1071
  501MOL0    Cl69045   6.968   9.674   6.443  0.0609  0.3855 -0.3369
  501MOL0     C69046   7.084  10.456   7.045  0.3477  0.1519  0.1204
  501MOL0     C69047   7.078  10.579   7.102  0.0993  0.2361 -0.3753
  501MOL0     O69048   7.007  10.714   7.370  0.4271 -0.1808  0.8331
  501MOL0     C69049   7.124  11.039   7.274 -0.2308  0.0657 -0.3406
  501MOL0     C69050   7.115  11.174   7.301  1.5766  0.3754 -0.4303
  501MOL0     N69051   7.290  11.707   7.823 -0.1734 -0.0675 -0.0439
  501MOL0     N69052   7.227  11.792   7.885  0.3366 -0.7378  0.1956
  501MOL0     C69053   6.191  11.626   7.556  0.0915  0.0461  0.6231
  501MOL0     C69054   6.233  11.544   7.450 -0.6528  0.4317 -0.1087
  501MOL0     C69055   6.062  11.478   7.137 -0.4238  1.8758 -1.6766
  501MOL0     C69056   5.963  11.419   7.210  0.0531  0.5601  0.6473
  501MOL0     C69057   5.827  11.448   7.181  0.4010  0.1572  0.4351
  501MOL0     C69058   5.796  11.547   7.092 -0.0275  0.1875  0.2849
  501MOL0     O69059   5.664  11.583   7.073 -0.1488 -0.0019  0.6264
  501MOL0     C69060   5.625  11.579   6.941  0.3519  0.2173 -0.7059
  501MOL0     C69061   5.632  11.442   6.892 -0.8098 -0.0239 -0.3952
  501MOL0     C69062   5.625  11.444   6.746  0.6365  0.7851  0.8708
  501MOL0     C69063   5.645  11.318   6.663  0.0876  0.6843 -0.3601
  501MOL0     C69064   5.546  11.216   6.709 -0.1145 -1.0094  0.3785
  501MOL0     C69065   5.467  11.128   6.740  0.4340  0.5740  0.1396
  501MOL0     C69066   5.900  11.610   7.020 -0.2339  0.3799 -0.1593
  501MOL0     C69067   6.030  11.567   7.036 -0.4768 -0.0469  0.0341
  501MOL0     C69068   6.136  11.636   6.951  0.0733  0.5572  0.2747
  501MOL0     H69069   6.251  11.764   7.197  0.4006 -1.0506  0.2503
  501MOL0     H69070   6.199  11.923   7.404  0.1504 -0.3445  1.0205
  501MOL0     H69071   6.272  11.715   7.782 -0.3147 -0.7197 -1.8281
  501MOL0     H69072   6.154  11.839   7.850 -0.8050 -3.6070 -0.7250
  501MOL0     H69073   6.310  12.003   7.758 -0.9460 -0.5459 -3.4953
  501MOL0     H69074   6.363  11.916   7.907 -0.0527 -1.4779 -0.3499
  501MOL0     H69075   6.455  11.745   7.738 -4.7757  0.5674  1.1579
  501MOL0     H69076   6.456  11.885   7.621 -2.5826  2.4413  0.7084
  501MOL0     H69077   6.618  11.998   7.788  0.4057  0.3214  0.4299
  501MOL0     H69078   6.561  11.880   7.910  0.8339 -3.4426 -0.7929
  501MOL0     H69079   6.729  11.791   7.680 -0.1917 -0.2164 -0.5203
  501MOL0     H69080   6.675  11.691   7.805 -0.8292 -1.3576 -3.7273
  501MOL0     H69081   6.795  11.848   7.970 -1.9688 -0.1955 -0.8014
  501MOL0     H69082   6.895  11.747   7.854 -2.0608 -1.2214  0.1595
  501MOL0     H69083   6.856  12.038   7.852  2.8135  1.0676  1.1509
  501MOL0     H69084   6.889  11.954   7.698 -3.7016 -1.1008  0.7594
  501MOL0     H69085   7.100  12.041   7.796 -0.7073 -0.2971 -0.4052
  501MOL0     H69086   7.061  11.969   7.948 -3.6336 -1.5577  0.2419
  501MOL0     H69087   7.074  11.763   7.591  0.1238  3.0113  0.3401
  501MOL0     H69088   7.416  11.584   7.599  0.2480  1.0785 -3.6406
  501MOL0     H69089   7.274  11.580   7.504 -0.6931 -1.9407  1.1906
  501MOL0     H69090   7.313  11.362   7.584  0.8894 -0.8933  1.7425
  501MOL0     H69091   7.354  11.426   7.741 -0.9624 -1.4133  1.0228
  501MOL0     H69092   7.149  11.289   7.714 -1.2735  0.1832  4.2460
  501MOL0     H69093   7.097  11.430   7.788  0.4005  1.8056 -0.7294
  501MOL0     H69094   6.947  11.348   7.613  0.8247  0.1311 -0.0610
  501MOL0     H69095   7.014  11.508   7.568 -0.3313  0.8267  4.0982
  501MOL0     H69096   6.996  11.147   7.612 -3.0970  1.6775 -1.3149
  501MOL0     H69097   6.920  10.846   7.587 -0.1593  1.2781 -1.1762
  501MOL0     H69098   7.019  10.930   7.703 -1.4693 -0.1718  0.3028
  501MOL0     H69099   7.094  10.805   7.593 -0.0020 -0.3870 -5.4377
  501MOL0     H69100   7.396  10.610   7.225 -1.0403  0.8823  2.2677
  501MOL0     H69101   7.402  10.361   7.117 -0.8332 -2.4214 -0.2906
  501MOL0     H69102   7.140  10.084   6.919 -1.6639 -1.5792  1.3422
  501MOL0     H69103   7.027  10.213   6.962 -0.6786 -2.2059 -2.5182
  501MOL0     H69104   7.085  10.362   6.797 -1.5707 -0.3680  0.1656
  501MOL0     H69105   7.230  10.265   6.748  0.0450  1.2616  0.2035
  501MOL0     H69106   6.932  10.194   6.726  0.4239 -0.0594  1.0965
  501MOL0     H69107   7.071  10.082   6.711  0.7574  0.0661 -3.6017
  501MOL0     H69108   7.157  10.188   6.516 -0.5994  1.2194 -1.6336
  501MOL0     H69109   7.047  10.322   6.515 -0.2328 -0.5489 -2.1731
  501MOL0     H69110   6.846  10.176   6.470  0.4355  1.6509 -2.4543
  501MOL0     H69111   6.967  10.136   6.350 -0.9945 -0.3860  0.6436
  501MOL0     H69112   6.859   9.933   6.449  1.5386 -2.7466 -1.4207
  501MOL0     H69113   6.940   9.970   6.600  0.7870 -0.4721 -0.8402
  501MOL0     H69114   7.166   9.979   6.485  1.3809 -2.0325  2.0474
  501MOL0     H69115   7.079   9.909   6.334 -3.5336  1.2003 -0.4849
  501MOL0     H69116   7.129   9.760   6.599  2.0974  0.2855 -0.5282
  501MOL0     H69117   7.186   9.744   6.436  1.6890  1.5193  2.3745
  501MOL0     H69118   7.003  10.424   6.980 -0.3426  1.8730  0.0710
  501MOL0     H69119   6.992  10.644   7.103  0.0968  0.3149 -2.1501
  501MOL0     H69120   7.125  11.009   7.170 -3.4027 -3.6347  0.4395
  501MOL0     H69121   7.107  11.241   7.215 -1.0849  1.1607  0.3312
  501MOL0     H69122   6.175  11.586   7.656 -1.9022  0.8390  0.6569
  501MOL0     H69123   6.229  11.438   7.472 -3.9524  0.8688  2.2625
  501MOL0     H69124   5.972  11.346   7.291 -3.0125 -3.4970 -2.2914
  501MOL0     H69125   5.754  11.387   7.234  2.2460 -3.7944 -1.2396
  501MOL0     H69126   5.524  11.618   6.923  1.0913  2.9191  0.4420
  501MOL0     H69127   5.682  11.637   6.868 -1.4407  0.0271 -2.3219
  501MOL0     H69128   5.555  11.380   6.939  0.4221 -1.9039 -0.7274
  501MOL0     H69129   5.730  11.394   6.908 -0.2972  1.0478 -0.2597
  501MOL0     H69130   5.535  11.486   6.699  0.1478 -0.3595  0.7292
  501MOL0     H69131   5.700  11.508   6.699 -0.3923 -0.5061 -2.8845
  501MOL0     H69132   5.745  11.279   6.684 -0.5020  0.5786  2.6151
  501MOL0     H69133   5.631  11.338   6.556  0.4483 -2.6080 -1.1366
  501MOL0     H69134   5.418  11.038   6.770  0.4899 -0.7723 -3.2669
  501MOL0     H69135   5.874  11.683   6.943 -1.2169  0.6558  0.4110
  501MOL0     H69136   6.114  11.729   6.897  3.5387  1.0208 -0.6140
  501MOL0     H69137   6.223  11.659   7.013  1.3115 -3.4350  0.2783
  501MOL0     H69138   6.163  11.557   6.880  1.0902  1.8328 -0.8180
  502MOL0     O69139   2.422   4.977  11.059  0.7126  0.0788  0.1211
  502MOL0     C69140   2.432   4.969  10.933 -0.6294  0.1899 -0.3114
  502MOL0     O69141   2.345   4.903  10.849 -0.4304  0.0911 -0.0844
  502MOL0     C69142   2.271   4.802  10.916  0.1645 -0.1239  0.1180
  502MOL0     C69143   2.143   4.787  10.868  0.0575  0.5621 -0.2142
  502MOL0     C69144   2.055   4.690  10.919  0.0771 -0.5820 -0.6558
  502MOL0     C69145   2.103   4.597  11.020  0.4276 -0.7093  0.6069
  502MOL0     O69146   2.005   4.509  11.050 -0.1203  0.4966  0.2261
  502MOL0     C69147   2.043   4.394  11.121 -0.1735  0.5619 -0.4978
  502MOL0     C69148   1.915   4.308  11.119  0.7309 -0.6772  0.9313
  502MOL0     C69149   1.921   4.195  11.217  1.1401 -0.9360 -0.6755
  502MOL0     C69150   1.806   4.202  11.325 -0.0745 -0.9616 -0.7190
  502MOL0     C69151   1.669   4.140  11.273  0.4645  0.2583 -0.0575
  502MOL0     C69152   1.562   4.158  11.379  0.6695 -0.0680 -0.2305
  502MOL0     C69153   1.436   4.069  11.368 -0.6884 -0.0552 -0.1365
  502MOL0     C69154   1.392   3.994  11.503 -0.2015 -0.2435 -1.2316
  502MOL0     N69155   1.495   3.902  11.570 -0.5325 -0.6529  0.2030
  502MOL0     C69156   1.542   3.791  11.511  0.5714  0.4135  0.6960
  502MOL0     C69157   1.664   3.770  11.569  0.2431  0.1608 -0.4090
  502MOL0     C69158   1.751   3.666  11.517  0.3892 -0.2896  0.1605
  502MOL0     C69159   1.887   3.715  11.478 -0.4019 -0.1820  0.0875
  502MOL0     C69160   1.981   3.748  11.593 -0.3196  0.5744  1.4843
  502MOL0     C69161   2.122   3.804  11.539 -0.5567 -0.1685 -0.3503
  502MOL0     O69162   2.097   3.934  11.482  0.5072 -0.2526  0.0326
  502MOL0     C69163   2.217   4.002  11.460  0.0831  0.8953 -0.7913
  502MOL0     C69164   2.340   3.949  11.435 -0.2385  0.3525  0.9202
  502MOL0     C69165   2.452   4.035  11.408  0.3871 -0.3273 -0.3151
  502MOL0     C69166   2.587   3.966  11.378 -0.8647 -0.0743 -0.8920
  502MOL0     C69167   2.434   4.178  11.399 -0.2273  0.9962 -0.6545
  502MOL0     C69168   2.537   4.282  11.373 -0.2992  0.2773  0.4560
  502MOL0     O69169   2.495   4.407  11.376 -0.4913  0.1126  0.4201
  502MOL0     C69170   2.581   4.508  11.345  0.2746 -0.5046  0.2321
  502MOL0     C69171   2.677   4.537  11.431 -0.3451 -1.0771  0.3518
  502MOL0     C69172   2.762   4.637  11.397 -0.6097 -0.1189  0.6200
  502MOL0     C69173   2.759   4.712  11.275 -0.0189  0.4228 -0.6654
  502MOL0     O69174   2.852   4.811  11.241  0.7221  0.2558 -0.3020
  502MOL0     C69175   2.969   4.845  11.308 -0.1385 -0.2693  0.1426
  502MOL0     C69176   3.057   4.917  11.216  0.2638  0.3242  0.6424
  502MOL0     C69177   3.213   4.883  11.228  0.1753  0.3880 -0.0737
  502MOL0     C69178   3.302   4.978  11.156 -0.1736  0.0453  0.1878
  502MOL0     C69179   3.457   4.949  11.177 -0.2154  0.0560 -0.5735
  502MOL0     C69180   3.493   4.855  11.062  0.3747 -0.0250 -0.4076
  502MOL0     C69181   3.638   4.838  11.055  0.8381 -0.2417  0.6068
  502MOL0     C69182   3.681   4.730  10.962 -0.2603  0.0364  0.6484
  502MOL0    Cl69183   3.860   4.740  10.958 -0.2991  0.2176 -0.4410
  502MOL0     C69184   2.657   4.687  11.191 -0.2103 -0.2604  0.4259
  502MOL0     C69185   2.569   4.575  11.219 -0.9771 -0.3220 -0.6447
  502MOL0     O69186   2.653   4.243  11.340  0.7346  0.5792 -0.2059
  502MOL0     C69187   2.303   4.222  11.412  0.9101 -0.1460  0.2019
  502MOL0     C69188   2.201   4.136  11.462 -0.3211  0.0476  1.0561
  502MOL0     N69189   1.681   3.863  11.668 -0.2719 -0.6286  0.4526
  502MOL0     N69190   1.580   3.949  11.662  0.0243 -0.5209 -0.1156
  502MOL0     C69191   2.228   4.616  11.077 -0.7082  0.3235 -0.1976
  502MOL0     C69192   2.312   4.718  11.018 -0.3679  0.1055 -0.2566
  502MOL0     C69193   2.545   5.044  10.867  0.4412 -0.8756  0.0852
  502MOL0     C69194   2.525   5.057  10.725  0.1556 -0.4557 -0.3320
  502MOL0     C69195   2.620   5.113  10.639 -0.1699 -0.4557 -0.6985
  502MOL0     C69196   2.747   5.148  10.691  0.1063  1.7355 -0.0630
  502MOL0     O69197   2.851   5.204  10.614  0.4767 -0.5930 -0.6331
  502MOL0     C69198   2.832   5.241  10.483 -1.4094  0.6458  0.5899
  502MOL0     C69199   2.894   5.140  10.388  0.6912 -0.6532  0.5655
  502MOL0     C69200   2.841   4.995  10.417  0.9057 -0.3062  0.4058
  502MOL0     C69201   2.904   4.883  10.347  0.2602  0.4550  0.6072
  502MOL0     C69202   3.049   4.887  10.341 -0.5927 -0.8961  0.0753
  502MOL0     C69203   3.164   4.872  10.324 -0.6216 -0.0686  0.9218
  502MOL0     C69204   2.764   5.144  10.827  0.4412 -0.2642 -0.5122
  502MOL0     C69205   2.665   5.102  10.919  0.7948  0.0624 -0.2691
  502MOL0     C69206   2.699   5.113  11.068  0.5746 -0.5525  0.3104
  502MOL0     H69207   2.125   4.855  10.785  0.7995  0.3656 -0.5440
  502MOL0     H69208   1.955   4.685  10.878 -0.2536 -4.1600  0.2755
  502MOL0     H69209   2.068   4.433  11.220 -0.5179  0.8263 -0.5162
  502MOL0     H69210   2.114   4.321  11.080 -0.3120  1.0260 -1.5869
  502MOL0     H69211   1.831   4.372  11.148 -0.3937 -2.4684  1.7887
  502MOL0     H69212   1.903   4.278  11.015 -0.1396  1.8078  0.2280
  502MOL0     H69213   1.906   4.102  11.162 -0.8754 -1.6903  0.9964
  502MOL0     H69214   2.020   4.187  11.261  0.7519  0.8633  0.6733
  502MOL0     H69215   1.826   4.147  11.417 -1.1305  0.8120  0.6285
  502MOL0     H69216   1.797   4.298  11.376  1.5129 -0.0868 -1.9994
  502MOL0     H69217   1.680   4.033  11.256  0.0115  0.4509 -1.7728
  502MOL0     H69218   1.646   4.199  11.183  2.7748  0.0189 -0.8732
  502MOL0     H69219   1.617   4.140  11.471  1.1640 -0.7931 -0.6567
  502MOL0     H69220   1.540   4.264  11.394  4.9990  1.0138 -0.3416
  502MOL0     H69221   1.441   3.997  11.286  0.5534 -1.0790  0.7827
  502MOL0     H69222   1.353   4.137  11.347 -1.4444 -0.7888  0.4062
  502MOL0     H69223   1.362   4.062  11.583  0.0258  0.9037 -2.0994
  502MOL0     H69224   1.307   3.928  11.482 -0.5132 -0.7467  1.3044
  502MOL0     H69225   1.487   3.737  11.434  0.3562  0.6676  0.6699
  502MOL0     H69226   1.695   3.632  11.430 -0.4899 -0.8228  0.9133
  502MOL0     H69227   1.746   3.582  11.588 -0.0251 -0.7269 -0.3802
  502MOL0     H69228   1.933   3.642  11.412 -0.2738 -0.1996  0.1943
  502MOL0     H69229   1.869   3.805  11.417  0.6588  1.0309  1.4882
  502MOL0     H69230   1.936   3.825  11.657 -4.4519  0.1889 -0.5816
  502MOL0     H69231   1.995   3.657  11.653  2.1286 -0.3606 -0.3219
  502MOL0     H69232   2.196   3.793  11.618 -1.2017 -0.7334  0.1829
  502MOL0     H69233   2.145   3.731  11.461 -2.4817  0.5748 -1.7115
  502MOL0     H69234   2.359   3.843  11.418  1.5574  0.5813  1.2442
  502MOL0     H69235   2.594   3.860  11.402 -2.8198 -1.0340 -4.0153
  502MOL0     H69236   2.662   4.032  11.423 -1.9448  0.0887  0.7152
  502MOL0     H69237   2.592   3.982  11.270 -2.6173  1.1387 -0.8362
  502MOL0     H69238   2.677   4.493  11.531  2.3881  0.4171  1.1028
  502MOL0     H69239   2.843   4.668  11.463  1.2877  0.6570 -1.8803
  502MOL0     H69240   2.954   4.920  11.386  0.2051  0.1006 -0.1428
  502MOL0     H69241   3.014   4.751  11.343  0.9512  0.1297 -0.1395
  502MOL0     H69242   3.033   4.892  11.113  0.4375 -0.8635  0.8776
  502MOL0     H69243   3.046   5.025  11.233  1.9239  0.7604 -0.7675
  502MOL0     H69244   3.231   4.784  11.185  0.2702 -0.2836  1.4521
  502MOL0     H69245   3.251   4.879  11.331 -1.9932 -1.6301  0.7518
  502MOL0     H69246   3.286   5.075  11.204  0.5937 -0.0778  0.7122
  502MOL0     H69247   3.292   4.984  11.048 -0.0394 -0.9558  0.1066
  502MOL0     H69248   3.508   5.045  11.163 -0.2164  0.2600  0.6706
  502MOL0     H69249   3.474   4.911  11.279 -1.0099 -0.1120 -0.4926
  502MOL0     H69250   3.469   4.904  10.966  3.8979  0.4991 -1.1330
  502MOL0     H69251   3.438   4.761  11.067 -1.2488  0.8936 -0.1452
  502MOL0     H69252   3.692   4.821  11.149  2.6423 -0.6822 -0.4443
  502MOL0     H69253   3.678   4.931  11.013  1.7833 -1.7807 -2.1939
  502MOL0     H69254   3.635   4.736  10.863 -3.7024  0.3669  2.1304
  502MOL0     H69255   3.667   4.631  11.005 -2.3632  0.6471  1.4842
  502MOL0     H69256   2.655   4.745  11.099  1.0390  1.3725  1.3873
  502MOL0     H69257   2.511   4.530  11.139 -1.5271 -1.0700  0.1450
  502MOL0     H69258   2.282   4.327  11.429 -2.7026 -0.9299  1.5449
  502MOL0     H69259   2.103   4.173  11.493 -1.8400 -4.2356  2.0682
  502MOL0     H69260   2.267   4.559  11.160 -0.0815  1.4197  0.2864
  502MOL0     H69261   2.412   4.718  11.062 -1.3105  1.1565  2.1046
  502MOL0     H69262   2.430   5.037  10.678  1.4290 -1.0268 -2.8563
  502MOL0     H69263   2.586   5.135  10.538 -1.4546  1.8918  0.1700
  502MOL0     H69264   2.724   5.252  10.470 -1.7936  1.2007  3.4696
  502MOL0     H69265   2.882   5.338  10.481 -1.4996  0.6782 -1.1488
  502MOL0     H69266   3.003   5.153  10.396  0.8051 -1.7966  1.0059
  502MOL0     H69267   2.881   5.178  10.286  1.7388 -0.1893  0.5871
  502MOL0     H69268   2.838   4.980  10.526 -4.4155  2.8768  1.0619
  502MOL0     H69269   2.733   4.997  10.399  1.1484 -1.0939 -1.3048
  502MOL0     H69270   2.860   4.879  10.247 -1.0830  2.8170  1.0347
  502MOL0     H69271   2.872   4.799  10.410 -0.6276 -0.5618 -1.0959
  502MOL0     H69272   3.267   4.842  10.328 -0.2572  1.1564  0.9186
  502MOL0     H69273   2.857   5.174  10.874  0.3555  0.1759 -0.6218
  502MOL0     H69274   2.628   5.184  11.110  0.7300  0.4016 -0.9694
  502MOL0     H69275   2.687   5.016  11.118 -2.8256 -1.2642 -1.5623
  502MOL0     H69276   2.803   5.144  11.083  0.5787 -0.8314  0.8806
  503MOL0     O69277   3.644   9.087   8.914  0.0887 -0.4883 -0.5066
  503MOL0     C69278   3.551   9.067   8.993 -0.2671 -0.5941  0.0196
  503MOL0     O69279   3.560   9.021   9.122 -0.0480  0.2702 -0.2529
  503MOL0     C69280   3.697   9.018   9.172  1.0890 -0.4132  0.1586
  503MOL0     C69281   3.750   8.888   9.204 -0.3112 -0.0043 -0.0765
  503MOL0     C69282   3.881   8.873   9.249  0.0858 -0.6259 -0.3036
  503MOL0     C69283   3.963   8.997   9.250  1.0186  1.0597 -0.0549
  503MOL0     O69284   4.093   8.994   9.284 -0.4220 -0.6438 -0.0579
  503MOL0     C69285   4.150   8.878   9.347  0.4405  0.3630 -0.5260
  503MOL0     C69286   4.298   8.878   9.317 -0.2513  0.5837 -0.0207
  503MOL0     C69287   4.334   8.860   9.170 -0.1549 -0.6277 -0.1923
  503MOL0     C69288   4.480   8.895   9.136 -0.3808 -0.8034 -0.1748
  503MOL0     C69289   4.579   8.784   9.123 -0.2072 -0.3573  0.4925
  503MOL0     C69290   4.605   8.705   9.254  0.6375 -0.2717  0.3317
  503MOL0     C69291   4.698   8.585   9.229  0.1261 -0.3440 -0.1822
  503MOL0     C69292   4.751   8.525   9.360 -0.1964  0.8020 -0.9534
  503MOL0     N69293   4.653   8.427   9.409 -0.1659 -0.9251  0.1010
  503MOL0     C69294   4.573   8.448   9.515  0.7081  0.1169 -0.5486
  503MOL0     C69295   4.499   8.332   9.534  1.3976 -0.0400 -0.3706
  503MOL0     C69296   4.378   8.312   9.631  0.3058  0.5506  0.1807
  503MOL0     C69297   4.257   8.289   9.546  0.3816  0.1221  0.4743
  503MOL0     C69298   4.222   8.405   9.461  0.8274  0.1025  0.6875
  503MOL0     C69299   4.075   8.407   9.418 -0.9115 -0.7817 -0.0105
  503MOL0     O69300   4.004   8.493   9.522  0.4468 -0.8454  0.1412
  503MOL0     C69301   3.877   8.548   9.493  0.1031  0.4990 -0.2111
  503MOL0     C69302   3.793   8.497   9.398  0.1335 -0.6360  0.9210
  503MOL0     C69303   3.668   8.553   9.386 -0.8803  0.0449 -0.3830
  503MOL0     C69304   3.563   8.472   9.307  0.2905 -0.5410  0.3193
  503MOL0     C69305   3.627   8.660   9.473 -0.5558 -0.6613 -0.1007
  503MOL0     C69306   3.486   8.715   9.470  0.5601 -0.1079 -0.2013
  503MOL0     O69307   3.449   8.786   9.584  0.4336 -0.4782 -0.2375
  503MOL0     C69308   3.337   8.867   9.577  0.4426  1.4594 -1.1018
  503MOL0     C69309   3.205   8.803   9.598 -0.0671 -0.1348 -0.1863
  503MOL0     C69310   3.088   8.886   9.606  0.0385  0.1673  1.2906
  503MOL0     C69311   3.095   9.021   9.574  0.4898 -0.1255 -1.1702
  503MOL0     O69312   2.986   9.101   9.576 -0.2053  0.6194 -0.3384
  503MOL0     C69313   2.924   9.111   9.700 -0.1770  0.0713  0.5914
  503MOL0     C69314   2.776   9.103   9.670 -0.0904 -0.2014  0.0832
  503MOL0     C69315   2.741   9.212   9.573  0.9027  0.5147 -0.0781
  503MOL0     C69316   2.586   9.251   9.583 -0.3471 -0.4887  0.8046
  503MOL0     C69317   2.546   9.351   9.469  0.8640 -0.0669  0.9856
  503MOL0     C69318   2.564   9.500   9.525  0.3534  0.9778  0.6802
  503MOL0     C69319   2.553   9.610   9.424  0.0883  0.4052  0.8104
  503MOL0     C69320   2.406   9.631   9.375 -0.6921 -0.4452  0.4281
  503MOL0    Cl69321   2.362   9.601   9.210  0.1539 -0.1301 -0.4524
  503MOL0     C69322   3.224   9.083   9.548  0.5017 -0.3772  0.2867
  503MOL0     C69323   3.341   9.002   9.546  0.8143 -0.3703 -0.0395
  503MOL0     O69324   3.422   8.712   9.366  0.9107 -0.0400 -0.2905
  503MOL0     C69325   3.720   8.720   9.562  0.0069  0.8328  0.5362
  503MOL0     C69326   3.839   8.648   9.585 -0.4500  0.0407  0.5138
  503MOL0     N69327   4.546   8.234   9.446  0.4884 -0.6079  1.3480
  503MOL0     N69328   4.627   8.291   9.365 -0.6771 -0.7139 -0.2408
  503MOL0     C69329   3.909   9.122   9.214  0.2090  0.4715 -0.1044
  503MOL0     C69330   3.775   9.138   9.185  0.5922  0.8643 -0.0489
  503MOL0     C69331   3.408   9.057   8.934 -0.2979  0.2352  0.4019
  503MOL0     C69332   3.313   9.021   9.027 -1.1708  0.3009  0.0121
  503MOL0     C69333   3.181   9.021   8.988 -0.6868  0.0706  0.3788
  503MOL0     C69334   3.139   9.057   8.859  0.6774 -0.3859 -0.1398
  503MOL0     O69335   3.004   9.040   8.832  0.5373  0.1742  0.8435
  503MOL0     C69336   2.946   9.096   8.718 -0.1185  0.3969 -0.1513
  503MOL0     C69337   2.918   9.242   8.751  0.0784 -1.3277  0.2656
  503MOL0     C69338   2.828   9.266   8.867  0.3838  0.0951 -0.3497
  503MOL0     C69339   2.688   9.328   8.828 -0.4476  0.9122  0.4302
  503MOL0     C69340   2.593   9.243   8.745  0.4421  0.8917 -0.6245
  503MOL0     C69341   2.508   9.162   8.704  0.1624  0.0996 -0.8617
  503MOL0     C69342   3.241   9.096   8.770 -0.4320  0.3316  0.9887
  503MOL0     C69343   3.377   9.091   8.801  0.4235 -0.1434 -0.6416
  503MOL0     C69344   3.477   9.147   8.697 -0.8471  0.2553  0.8362
  503MOL0     H69345   3.687   8.801   9.192  2.1803 -1.4628 -4.8852
  503MOL0     H69346   3.910   8.774   9.283  0.6213 -0.0987  0.8528
  503MOL0     H69347   4.102   8.787   9.310 -0.6259  0.3396  0.8363
  503MOL0     H69348   4.138   8.867   9.456 -2.0159 -4.3942 -1.0180
  503MOL0     H69349   4.312   8.979   9.356 -1.2299  0.1741  1.4799
  503MOL0     H69350   4.356   8.806   9.376  0.1699  1.2701  0.4165
  503MOL0     H69351   4.315   8.758   9.139  0.3051 -0.4689 -1.0354
  503MOL0     H69352   4.271   8.926   9.110  0.5817  1.1358  0.8893
  503MOL0     H69353   4.469   8.957   9.047 -1.2123  2.9827  2.3280
  503MOL0     H69354   4.513   8.977   9.200 -2.0947  1.3956 -1.9426
  503MOL0     H69355   4.670   8.825   9.080 -0.7183  0.2533 -0.0225
  503MOL0     H69356   4.535   8.712   9.053 -1.7855 -0.6205  1.7011
  503MOL0     H69357   4.646   8.774   9.328  1.4220 -1.3859  0.9664
  503MOL0     H69358   4.514   8.658   9.293 -0.3130 -0.4290 -1.9058
  503MOL0     H69359   4.780   8.614   9.163  0.1294  1.1789  0.4459
  503MOL0     H69360   4.639   8.505   9.182  1.9079 -3.1682  1.9919
  503MOL0     H69361   4.846   8.472   9.346 -0.7946 -0.1840 -1.4033
  503MOL0     H69362   4.766   8.600   9.438  1.8059 -1.2613  0.7799
  503MOL0     H69363   4.547   8.539   9.568 -1.2591 -2.3553  3.1483
  503MOL0     H69364   4.350   8.392   9.700 -0.5837  0.9560 -0.6186
  503MOL0     H69365   4.382   8.220   9.690  0.7487  0.8186  0.5733
  503MOL0     H69366   4.272   8.194   9.493  0.5017 -0.0620  0.8371
  503MOL0     H69367   4.174   8.277   9.616 -0.3827  1.0813 -0.2408
  503MOL0     H69368   4.238   8.503   9.507 -0.8257  1.2009 -0.9449
  503MOL0     H69369   4.282   8.391   9.371 -1.1944  0.4066 -0.7818
  503MOL0     H69370   4.072   8.462   9.324 -0.7892 -0.8313 -0.0434
  503MOL0     H69371   4.023   8.311   9.418 -1.7396 -0.4026  2.1396
  503MOL0     H69372   3.816   8.401   9.352  1.4285  1.0093 -2.1684
  503MOL0     H69373   3.476   8.459   9.372 -1.2348 -0.2194 -1.5736
  503MOL0     H69374   3.594   8.370   9.286  1.9155 -0.0245  0.0776
  503MOL0     H69375   3.526   8.523   9.217  0.7115  0.6635  0.8048
  503MOL0     H69376   3.195   8.695   9.606 -0.6502 -0.3321 -2.7671
  503MOL0     H69377   2.993   8.847   9.642 -1.7843 -1.2073 -3.9915
  503MOL0     H69378   2.937   9.030   9.773  0.3265  0.0493  0.4761
  503MOL0     H69379   2.953   9.207   9.743 -1.0406  0.2624  0.7741
  503MOL0     H69380   2.754   9.002   9.633  3.0999 -0.4788 -1.3849
  503MOL0     H69381   2.721   9.117   9.763  1.4695  3.1990  0.6438
  503MOL0     H69382   2.767   9.161   9.480  2.4067  1.1763 -0.0477
  503MOL0     H69383   2.796   9.305   9.592  2.3799 -0.7293  2.2027
  503MOL0     H69384   2.567   9.301   9.678 -3.9349  0.3016 -0.1746
  503MOL0     H69385   2.523   9.162   9.578 -1.3672  0.2717 -1.5637
  503MOL0     H69386   2.592   9.330   9.372  1.4176 -0.8784  1.4160
  503MOL0     H69387   2.438   9.345   9.454  1.1554  0.1629 -1.8693
  503MOL0     H69388   2.661   9.516   9.574  0.2940 -1.3415  1.6764
  503MOL0     H69389   2.495   9.527   9.605  2.4250  0.5213  2.7220
  503MOL0     H69390   2.628   9.590   9.346 -1.6343  3.4827 -1.8807
  503MOL0     H69391   2.586   9.695   9.484 -0.9381  0.0982  1.8255
  503MOL0     H69392   2.387   9.738   9.387  0.6008 -0.3884  2.3702
  503MOL0     H69393   2.332   9.573   9.431 -1.4557  1.6247  1.7005
  503MOL0     H69394   3.226   9.191   9.532  1.5460 -0.3361  0.6095
  503MOL0     H69395   3.442   9.034   9.521  1.1733 -1.0840  0.4744
  503MOL0     H69396   3.693   8.799   9.632 -4.6287 -1.6792  2.0326
  503MOL0     H69397   3.900   8.680   9.669 -0.5760  0.4510  0.4539
  503MOL0     H69398   3.970   9.211   9.208 -2.1667  2.1357 -0.9698
  503MOL0     H69399   3.740   9.235   9.152 -1.1391 -0.1125 -1.2369
  503MOL0     H69400   3.345   9.011   9.130  1.2290  1.9333 -0.4753
  503MOL0     H69401   3.112   9.000   9.069 -2.3733 -1.7870 -1.4476
  503MOL0     H69402   3.013   9.088   8.632  0.3621 -0.4887  0.2934
  503MOL0     H69403   2.852   9.047   8.693  2.1378 -3.4943 -1.8570
  503MOL0     H69404   2.870   9.284   8.662  1.3565 -0.4146 -0.0147
  503MOL0     H69405   3.011   9.298   8.750 -0.0042 -1.1334 -1.6053
  503MOL0     H69406   2.799   9.168   8.904 -4.2953  0.8921 -1.2875
  503MOL0     H69407   2.866   9.336   8.943  0.3794 -2.2616  1.9562
  503MOL0     H69408   2.706   9.419   8.771  1.0897  0.0610 -0.5368
  503MOL0     H69409   2.640   9.347   8.924  0.6815 -1.0530  1.4721
  503MOL0     H69410   2.435   9.087   8.681  0.6356 -0.6216 -0.0937
  503MOL0     H69411   3.230   9.141   8.672  2.0437  0.1609  0.5750
  503MOL0     H69412   3.432   9.188   8.606  1.4243  2.0164  0.3919
  503MOL0     H69413   3.529   9.231   8.745  0.2118  1.2025 -1.7749
  503MOL0     H69414   3.541   9.062   8.672 -2.9179 -1.4611  1.1076
  504MOL0     O69415   7.572   4.753   8.599  0.7811 -0.0129 -0.8032
  504MOL0     C69416   7.647   4.840   8.647  0.4405  0.1230 -0.1733
  504MOL0     O69417   7.740   4.826   8.740  0.0565 -0.9858 -0.7190
  504MOL0     C69418   7.763   4.704   8.791  0.0817  0.1847 -0.0705
  504MOL0     C69419   7.693   4.655   8.902 -0.0704  0.0270  0.0395
  504MOL0     C69420   7.727   4.534   8.970 -0.0574 -0.6754 -0.1748
  504MOL0     C69421   7.833   4.461   8.925  0.0759 -0.6397  0.8554
  504MOL0     O69422   7.882   4.354   8.992  0.3387  0.1385 -1.0451
  504MOL0     C69423   7.858   4.321   9.131 -0.1918  0.1191 -0.0699
  504MOL0     C69424   7.947   4.216   9.193  0.9096 -0.1160 -0.6034
  504MOL0     C69425   8.092   4.275   9.216  0.8719  0.1634  1.1655
  504MOL0     C69426   8.193   4.163   9.232 -0.6533  0.0953 -0.0830
  504MOL0     C69427   8.334   4.213   9.278 -0.1419  0.0007 -0.2731
  504MOL0     C69428   8.434   4.101   9.283 -0.0039  0.8334  0.0298
  504MOL0     C69429   8.580   4.146   9.283  0.3587 -0.3320  0.1111
  504MOL0     C69430   8.659   4.056   9.182 -0.0410 -1.0546  0.1807
  504MOL0     N69431   8.604   4.085   9.046 -1.6400 -0.7648  0.1657
  504MOL0     C69432   8.561   3.986   8.952 -0.1672 -0.3291 -0.7306
  504MOL0     C69433   8.554   4.057   8.834  1.1578 -0.5766 -0.5701
  504MOL0     C69434   8.525   3.983   8.700  1.0179  0.1777 -0.3640
  504MOL0     C69435   8.417   3.869   8.699  0.6952 -0.2822  0.5702
  504MOL0     C69436   8.398   3.846   8.544 -0.3385  0.3205 -0.0830
  504MOL0     C69437   8.271   3.771   8.515 -0.0850 -0.3636 -0.3081
  504MOL0     O69438   8.267   3.736   8.375  0.1825  0.6762 -0.0109
  504MOL0     C69439   8.218   3.827   8.279 -0.6908 -0.4344 -0.1981
  504MOL0     C69440   8.218   3.780   8.153 -1.3572 -0.2108  1.0121
  504MOL0     C69441   8.145   3.841   8.048 -0.7693 -0.1594 -0.4699
  504MOL0     C69442   8.143   3.773   7.911  0.0873 -0.1232 -0.8472
  504MOL0     C69443   8.092   3.962   8.065 -0.2728 -0.8796 -0.4165
  504MOL0     C69444   8.014   4.033   7.960 -0.7603 -0.4870 -0.0148
  504MOL0     O69445   8.096   4.093   7.868 -0.0781 -0.1647  0.4835
  504MOL0     C69446   8.031   4.141   7.755  0.4995  0.4030 -0.4794
  504MOL0     C69447   8.067   4.086   7.631 -0.9403  0.1523 -0.2271
  504MOL0     C69448   8.013   4.129   7.505  0.1371  1.1252 -0.3012
  504MOL0     C69449   7.915   4.225   7.505 -0.5664 -0.0137  0.7542
  504MOL0     O69450   7.859   4.269   7.385  0.3247  1.4017 -0.1058
  504MOL0     C69451   7.908   4.209   7.263 -0.0717 -1.1654 -0.6078
  504MOL0     C69452   7.872   4.300   7.145 -0.6043 -0.5926 -1.0359
  504MOL0     C69453   7.720   4.330   7.133  0.4755 -0.1776 -1.1708
  504MOL0     C69454   7.673   4.452   7.229 -0.7610  0.2868 -0.0359
  504MOL0     C69455   7.543   4.510   7.198  1.2775  0.3209 -0.4243
  504MOL0     C69456   7.553   4.606   7.081  0.8784 -0.2139  0.0294
  504MOL0     C69457   7.417   4.655   7.028  0.4564  0.6143 -0.1333
  504MOL0     C69458   7.409   4.722   6.889 -0.3966  0.1674  0.3269
  504MOL0    Cl69459   7.485   4.612   6.772 -0.4231  0.1476 -0.5230
  504MOL0     C69460   7.887   4.289   7.630  0.8006  0.6038  0.9693
  504MOL0     C69461   7.932   4.242   7.759 -1.7397 -0.4634 -0.1891
  504MOL0     O69462   7.893   4.013   7.962  0.1777 -0.5998 -0.1534
  504MOL0     C69463   8.077   4.003   8.197 -0.4905 -0.8487 -0.8875
  504MOL0     C69464   8.144   3.942   8.303  0.2772  0.4070  0.1787
  504MOL0     N69465   8.588   4.192   8.844 -0.6284  0.0595 -0.1234
  504MOL0     N69466   8.614   4.202   8.975 -0.3623  0.4475  0.3516
  504MOL0     C69467   7.917   4.518   8.827 -0.2013  1.0341 -0.5929
  504MOL0     C69468   7.881   4.636   8.754  0.1242 -0.1754  0.7700
  504MOL0     C69469   7.639   4.970   8.578 -0.3339 -0.8561  0.9061
  504MOL0     C69470   7.608   4.971   8.439 -0.9944  0.4835 -0.8296
  504MOL0     C69471   7.632   5.077   8.352 -0.8388 -0.9073 -0.1387
  504MOL0     C69472   7.702   5.192   8.397 -0.1782  0.6201  0.0137
  504MOL0     O69473   7.729   5.287   8.302  0.1222 -0.0986 -0.6684
  504MOL0     C69474   7.803   5.406   8.343  0.1840  1.0100 -0.5606
  504MOL0     C69475   7.935   5.392   8.280 -0.0835 -0.1391 -0.6658
  504MOL0     C69476   7.941   5.434   8.131  0.7643 -0.7129  0.4173
  504MOL0     C69477   8.072   5.405   8.063 -0.3390  0.3690 -0.8316
  504MOL0     C69478   8.123   5.272   8.097 -0.4222  0.0792  0.6002
  504MOL0     C69479   8.179   5.170   8.140 -0.0782 -0.5704 -0.2801
  504MOL0     C69480   7.715   5.203   8.532 -1.0838  0.6301 -0.5596
  504MOL0     C69481   7.692   5.098   8.619  0.8280  0.0872  0.0399
  504MOL0     C69482   7.730   5.121   8.762 -0.2755 -1.2255  0.0556
  504MOL0     H69483   7.590   4.686   8.915 -1.2958 -2.9913 -1.4900
  504MOL0     H69484   7.664   4.499   9.051  0.7149  0.4570  0.9601
  504MOL0     H69485   7.752   4.295   9.142 -1.0632  3.5763  0.9983
  504MOL0     H69486   7.869   4.412   9.190 -0.3145  0.8791 -1.1751
  504MOL0     H69487   7.909   4.166   9.282 -1.7326  1.0663 -0.9728
  504MOL0     H69488   7.954   4.135   9.120  2.1177 -1.5080  0.9934
  504MOL0     H69489   8.123   4.333   9.129  1.3431  2.3174  2.6872
  504MOL0     H69490   8.098   4.346   9.299  1.7447 -0.1715  1.3933
  504MOL0     H69491   8.162   4.091   9.308 -0.9002  0.4799  0.1848
  504MOL0     H69492   8.192   4.104   9.139 -1.4281 -1.5921  0.9537
  504MOL0     H69493   8.321   4.265   9.373 -1.2091  1.3107 -1.0985
  504MOL0     H69494   8.362   4.288   9.204  2.1076 -1.6599 -1.1902
  504MOL0     H69495   8.422   4.043   9.375  1.7294 -1.5199 -1.1399
  504MOL0     H69496   8.418   4.021   9.210  0.1918  0.8695 -0.0541
  504MOL0     H69497   8.618   4.129   9.384 -1.5902  0.8588  1.1190
  504MOL0     H69498   8.584   4.252   9.259  1.2141 -0.0782  1.2973
  504MOL0     H69499   8.765   4.083   9.194 -0.4778  1.9256 -1.5893
  504MOL0     H69500   8.646   3.949   9.200  2.3673 -1.5481 -0.6492
  504MOL0     H69501   8.541   3.881   8.972 -2.3652 -0.2612 -2.2024
  504MOL0     H69502   8.627   3.959   8.672  1.7843 -0.6103  2.7410
  504MOL0     H69503   8.484   4.070   8.647 -1.5440 -0.7271 -0.0373
  504MOL0     H69504   8.458   3.782   8.752  0.3130 -3.3988 -3.7611
  504MOL0     H69505   8.328   3.910   8.748  0.7313 -1.3362  1.5648
  504MOL0     H69506   8.397   3.937   8.484 -2.1746  0.6709  0.4067
  504MOL0     H69507   8.483   3.783   8.516  1.2445  1.0108  2.7843
  504MOL0     H69508   8.272   3.681   8.577  2.5321  0.9690  1.7991
  504MOL0     H69509   8.193   3.838   8.552  1.2604 -0.2428  2.5994
  504MOL0     H69510   8.265   3.687   8.126 -1.2312  0.4951 -1.4914
  504MOL0     H69511   8.042   3.737   7.891 -0.2008  1.0939 -1.7172
  504MOL0     H69512   8.198   3.679   7.919 -1.9887 -1.3756 -0.5056
  504MOL0     H69513   8.182   3.845   7.839 -0.3514  0.0398 -0.9226
  504MOL0     H69514   8.141   4.007   7.644 -1.6739 -0.5757 -0.3836
  504MOL0     H69515   8.039   4.076   7.414  0.9204  1.3749 -0.2275
  504MOL0     H69516   8.018   4.208   7.264  0.0607  2.1071  1.4317
  504MOL0     H69517   7.866   4.109   7.247  0.7787 -1.1866 -3.1769
  504MOL0     H69518   7.923   4.396   7.156  2.4215 -2.1849  0.1754
  504MOL0     H69519   7.898   4.256   7.048  3.3003 -1.5644  0.2725
  504MOL0     H69520   7.662   4.239   7.152  0.7292 -0.1579 -0.2383
  504MOL0     H69521   7.697   4.365   7.032 -0.3862  1.3381 -0.5005
  504MOL0     H69522   7.745   4.535   7.237 -3.5218  3.1432 -2.1291
  504MOL0     H69523   7.657   4.409   7.329 -2.9155 -0.9025 -0.8260
  504MOL0     H69524   7.468   4.431   7.191  1.9616 -0.2686 -1.5397
  504MOL0     H69525   7.518   4.560   7.292 -0.2180 -1.4051  0.1616
  504MOL0     H69526   7.583   4.547   6.994 -1.7837 -0.8657 -0.5517
  504MOL0     H69527   7.624   4.688   7.093  0.5182  0.1027  0.0224
  504MOL0     H69528   7.382   4.731   7.099  3.1353  3.4673 -1.6201
  504MOL0     H69529   7.355   4.564   7.035  0.9644  0.3483  1.3252
  504MOL0     H69530   7.466   4.815   6.875  2.6392 -1.8983 -2.3822
  504MOL0     H69531   7.301   4.730   6.875 -0.7388 -0.0918  2.4728
  504MOL0     H69532   7.823   4.376   7.623 -0.1337 -0.1053  0.5387
  504MOL0     H69533   7.897   4.291   7.850 -1.3784 -1.2529  0.3823
  504MOL0     H69534   8.025   4.093   8.229  3.9641  2.0996 -1.0362
  504MOL0     H69535   8.135   3.978   8.405 -0.6466  4.2034 -1.0581
  504MOL0     H69536   8.018   4.482   8.811  0.7885  4.2338 -2.5597
  504MOL0     H69537   7.952   4.667   8.678  0.0532 -3.0172 -0.6280
  504MOL0     H69538   7.565   4.879   8.401 -0.9498 -1.4717  3.3480
  504MOL0     H69539   7.623   5.069   8.245  2.3077  2.5422 -0.8732
  504MOL0     H69540   7.745   5.491   8.307 -3.6243 -0.8866  0.6138
  504MOL0     H69541   7.811   5.424   8.451 -0.4180 -3.2194  0.3855
  504MOL0     H69542   7.982   5.295   8.301  1.0980 -0.0544 -2.5945
  504MOL0     H69543   7.994   5.456   8.346  1.1351 -2.6856  0.8802
  504MOL0     H69544   7.869   5.377   8.071  1.9161  0.5776 -2.3524
  504MOL0     H69545   7.918   5.540   8.115  2.5255 -0.4755 -0.8629
  504MOL0     H69546   8.152   5.475   8.089  0.6300 -1.6687  2.2064
  504MOL0     H69547   8.054   5.394   7.955  0.7360 -0.4896 -0.9377
  504MOL0     H69548   8.226   5.080   8.174  0.1214 -0.6481 -0.7558
  504MOL0     H69549   7.744   5.297   8.577  0.8935  0.3126 -1.0786
  504MOL0     H69550   7.832   5.081   8.759 -0.3991 -2.0451  3.1757
  504MOL0     H69551   7.714   5.224   8.796  0.7507 -1.3260  0.9052
  504MOL0     H69552   7.675   5.061   8.835  0.6553 -0.5413  1.3665
  505MOL0     O69553   1.983   8.932  10.601  0.9127 -0.3950  0.8602
  505MOL0     C69554   2.025   9.046  10.628 -0.3482 -0.9951  0.2424
  505MOL0     O69555   2.007   9.161  10.555  0.0358 -0.2164  0.7398
  505MOL0     C69556   1.918   9.163  10.448  0.8714  0.2560  0.0409
  505MOL0     C69557   1.955   9.245  10.340  0.6555  0.6258 -0.2035
  505MOL0     C69558   1.892   9.223  10.219  0.0926  1.1093  0.1925
  505MOL0     C69559   1.786   9.135  10.207 -1.1638  0.1856  0.4132
  505MOL0     O69560   1.726   9.101  10.085  1.0600  0.0823 -0.7860
  505MOL0     C69561   1.802   9.104   9.962  0.0168  0.7592 -0.0382
  505MOL0     C69562   1.734   9.025   9.858  0.2376 -1.0897 -1.2911
  505MOL0     C69563   1.800   9.057   9.729 -1.0522 -0.0612  0.2928
  505MOL0     C69564   1.715   9.021   9.609 -0.5790  0.8619  0.0509
  505MOL0     C69565   1.808   9.003   9.486 -0.0810  0.8515  0.2771
  505MOL0     C69566   1.889   9.134   9.450  0.0958 -0.9111 -1.2920
  505MOL0     C69567   1.963   9.101   9.325 -0.0996 -0.1201 -0.0731
  505MOL0     C69568   2.066   8.986   9.340 -0.2315  0.2240  0.3139
  505MOL0     N69569   2.207   9.013   9.288 -0.3358  0.2895 -0.3308
  505MOL0     C69570   2.253   9.042   9.164 -0.2464 -0.2068  0.3157
  505MOL0     C69571   2.375   9.092   9.184 -0.9097  0.7273 -0.2612
  505MOL0     C69572   2.473   9.131   9.079 -0.2543  0.4377  0.6121
  505MOL0     C69573   2.572   9.015   9.052  0.4573 -0.2170  0.4519
  505MOL0     C69574   2.701   9.009   9.141  0.6525  0.6898 -0.1886
  505MOL0     C69575   2.766   8.870   9.127  0.0599 -0.6831 -0.8200
  505MOL0     O69576   2.889   8.868   9.197  0.4308  0.0264  0.6658
  505MOL0     C69577   2.877   8.765   9.286 -0.2190 -1.2367 -0.5045
  505MOL0     C69578   2.807   8.781   9.413  0.1505 -0.7499  0.4436
  505MOL0     C69579   2.815   8.678   9.504  0.5833  0.2127 -0.5438
  505MOL0     C69580   2.740   8.690   9.632  0.2167  0.9927  0.1764
  505MOL0     C69581   2.891   8.555   9.487  0.4878 -2.3557  0.4746
  505MOL0     C69582   2.920   8.461   9.596  0.6912 -0.5150  1.6674
  505MOL0     O69583   2.846   8.343   9.605  0.6705  0.3528 -0.2556
  505MOL0     C69584   2.861   8.259   9.715  0.1697 -0.5788 -0.2716
  505MOL0     C69585   2.771   8.271   9.823  0.3296 -0.8447  0.5703
  505MOL0     C69586   2.778   8.183   9.932 -0.4868 -0.1172 -0.2937
  505MOL0     C69587   2.882   8.077   9.934  0.4079  0.6677  0.5589
  505MOL0     O69588   2.890   7.989  10.039 -0.9151 -0.7595  1.1653
  505MOL0     C69589   2.881   8.047  10.170 -0.8575 -0.1647 -0.5002
  505MOL0     C69590   3.014   8.023  10.245  0.9850  0.5346  0.5434
  505MOL0     C69591   3.122   8.096  10.167  0.1494 -0.5453 -0.2711
  505MOL0     C69592   3.148   8.235  10.225  0.0365 -0.4755 -0.1759
  505MOL0     C69593   3.278   8.301  10.169 -0.7400 -0.0280  0.1338
  505MOL0     C69594   3.301   8.259  10.020  0.4340 -0.1518  0.3090
  505MOL0     C69595   3.399   8.352   9.947 -0.7092  0.0521 -0.5921
  505MOL0     C69596   3.369   8.360   9.800  0.8108 -1.1437 -0.6019
  505MOL0    Cl69597   3.494   8.445   9.706  0.4909 -0.1817  0.0010
  505MOL0     C69598   2.980   8.070   9.825  0.2776  0.6924  0.7008
  505MOL0     C69599   2.971   8.172   9.725 -0.4350 -0.4998 -0.6000
  505MOL0     O69600   3.022   8.481   9.661 -0.2333  0.0411 -0.2595
  505MOL0     C69601   2.947   8.539   9.358 -1.2984  0.6433  0.2192
  505MOL0     C69602   2.945   8.644   9.262 -0.3861  0.9217 -0.4305
  505MOL0     N69603   2.413   9.085   9.321  0.3234  0.3165 -0.0145
  505MOL0     N69604   2.303   9.044   9.383 -0.7964 -0.1920  0.0243
  505MOL0     C69605   1.737   9.073  10.323 -0.3273  0.0624  0.3947
  505MOL0     C69606   1.803   9.087  10.444  1.4622 -0.1765  1.0679
  505MOL0     C69607   2.109   9.074  10.752 -0.2336 -0.1651  0.1725
  505MOL0     C69608   2.197   8.972  10.794  0.6486  1.6104  0.3803
  505MOL0     C69609   2.279   8.996  10.898  0.3800 -0.2702  1.0803
  505MOL0     C69610   2.273   9.110  10.973 -0.7383 -0.6272  1.2315
  505MOL0     O69611   2.355   9.117  11.073 -0.2423 -0.0786  0.5847
  505MOL0     C69612   2.302   9.134  11.211 -0.6052 -0.6083  0.1364
  505MOL0     C69613   2.203   9.038  11.272  0.2599  0.8264  0.2853
  505MOL0     C69614   2.197   9.042  11.414 -0.3880 -0.0544  0.0369
  505MOL0     C69615   2.090   8.957  11.480 -0.3015 -0.4954 -0.0878
  505MOL0     C69616   2.147   8.880  11.599 -0.6047 -0.1463 -0.2030
  505MOL0     C69617   2.201   8.823  11.690 -0.3408 -1.0158 -0.7402
  505MOL0     C69618   2.191   9.218  10.924 -0.8787  0.2430 -0.1644
  505MOL0     C69619   2.103   9.193  10.824 -0.3113 -0.3152  0.4672
  505MOL0     C69620   2.001   9.297  10.808 -0.2070 -0.0147 -0.1003
  505MOL0     H69621   2.023   9.329  10.347  0.3391  1.1667 -2.6504
  505MOL0     H69622   1.927   9.285  10.137 -1.4791  4.0482  1.5990
  505MOL0     H69623   1.904   9.063   9.966  0.6222  2.0080 -1.5941
  505MOL0     H69624   1.813   9.208   9.929 -1.1122  0.3819 -1.6751
  505MOL0     H69625   1.725   8.919   9.883  0.3285 -1.2365 -1.8671
  505MOL0     H69626   1.636   9.073   9.850 -0.5085 -1.7810  2.1838
  505MOL0     H69627   1.815   9.164   9.712 -1.2323 -0.4648 -3.0842
  505MOL0     H69628   1.893   9.000   9.728 -1.2178 -0.3396  0.6260
  505MOL0     H69629   1.670   8.922   9.615  2.1424 -0.4334  0.8436
  505MOL0     H69630   1.647   9.104   9.587 -1.0672  0.5511  0.3649
  505MOL0     H69631   1.745   8.978   9.400  2.6091 -1.1935 -1.2397
  505MOL0     H69632   1.873   8.917   9.503 -1.5144 -0.5363 -0.9401
  505MOL0     H69633   1.818   9.215   9.431  1.2930  0.0983 -1.5627
  505MOL0     H69634   1.952   9.175   9.528 -0.3222  0.4671 -1.6496
  505MOL0     H69635   2.014   9.191   9.290 -2.9735  1.5420 -0.3187
  505MOL0     H69636   1.893   9.075   9.245  1.3152  0.5484 -1.5956
  505MOL0     H69637   2.079   8.953   9.443  1.7062 -0.9899 -0.2619
  505MOL0     H69638   2.026   8.903   9.281  1.2294  0.0958 -0.5456
  505MOL0     H69639   2.209   9.019   9.067  3.7280 -0.2307 -1.7043
  505MOL0     H69640   2.528   9.223   9.099 -0.4439  1.1870 -1.9216
  505MOL0     H69641   2.425   9.145   8.981  2.7707 -2.0148 -1.3994
  505MOL0     H69642   2.517   8.923   9.071 -1.0661  1.4214  5.9065
  505MOL0     H69643   2.606   9.023   8.949 -1.5328  2.1901 -0.1059
  505MOL0     H69644   2.773   9.087   9.117  1.2959  0.7856  1.8598
  505MOL0     H69645   2.677   9.001   9.248  2.5310 -2.3137  0.1435
  505MOL0     H69646   2.686   8.799   9.151 -0.1836 -0.4911 -1.0534
  505MOL0     H69647   2.786   8.865   9.020 -4.9155  0.9411 -2.1064
  505MOL0     H69648   2.731   8.858   9.417  2.1473  1.2769  1.8408
  505MOL0     H69649   2.815   8.699   9.712  1.4605 -0.2589 -0.7960
  505MOL0     H69650   2.685   8.597   9.649 -0.6753  1.4176 -0.3129
  505MOL0     H69651   2.661   8.766   9.635  1.4006  2.2390  2.6474
  505MOL0     H69652   2.691   8.344   9.815  4.2852  4.4721  3.3436
  505MOL0     H69653   2.700   8.185  10.007 -2.8533 -0.0372 -2.6070
  505MOL0     H69654   2.866   8.155  10.166  1.7520  0.2499 -0.7645
  505MOL0     H69655   2.810   7.992  10.234  0.0025 -2.2648 -1.2498
  505MOL0     H69656   3.005   8.071  10.343  1.1966  2.9199 -0.5400
  505MOL0     H69657   3.034   7.915  10.246  1.7017  0.6674  1.3401
  505MOL0     H69658   3.098   8.096  10.060 -0.9166 -1.3231 -0.0501
  505MOL0     H69659   3.217   8.043  10.174  1.1543  1.4306  2.3921
  505MOL0     H69660   3.163   8.234  10.333  0.4945 -1.5481 -0.2421
  505MOL0     H69661   3.060   8.295  10.198 -2.2977 -2.8875  1.5554
  505MOL0     H69662   3.285   8.410  10.180  0.3858 -0.2132  1.4745
  505MOL0     H69663   3.363   8.263  10.225  0.7956  0.0104 -2.0553
  505MOL0     H69664   3.202   8.269   9.977  1.5900  1.4581 -2.2129
  505MOL0     H69665   3.329   8.155   9.998  1.7475  1.2176 -6.6470
  505MOL0     H69666   3.501   8.316   9.961 -0.5473 -0.5945 -2.9904
  505MOL0     H69667   3.391   8.458   9.973  0.8042  0.2250 -0.7306
  505MOL0     H69668   3.273   8.411   9.786 -0.0759 -2.7549 -0.6323
  505MOL0     H69669   3.348   8.257   9.769 -1.7339 -0.8524 -0.0589
  505MOL0     H69670   3.066   8.004   9.824  0.8039  1.3740 -0.4947
  505MOL0     H69671   3.047   8.165   9.648 -0.7229 -0.3634 -0.8986
  505MOL0     H69672   2.997   8.447   9.330  1.6795  1.3465  2.6703
  505MOL0     H69673   2.983   8.614   9.164 -0.2599 -0.0414 -0.0913
  505MOL0     H69674   1.644   9.021  10.304  1.0230 -1.9456 -1.0811
  505MOL0     H69675   1.763   9.039  10.534 -2.4041  0.8259  0.0947
  505MOL0     H69676   2.193   8.872  10.751  1.2334 -0.2745  4.2427
  505MOL0     H69677   2.358   8.923  10.914  0.4694 -0.9875 -2.0410
  505MOL0     H69678   2.396   9.148  11.265  0.9444 -0.0923 -2.5174
  505MOL0     H69679   2.268   9.238  11.212  1.3438  0.0690  1.6928
  505MOL0     H69680   2.234   8.934  11.259  1.3776  0.8355  2.4763
  505MOL0     H69681   2.106   9.058  11.225 -1.0257 -1.6393  1.7089
  505MOL0     H69682   2.302   9.032  11.445  0.9913  2.6183 -3.1001
  505MOL0     H69683   2.164   9.141  11.449 -3.1524 -0.9338  0.1419
  505MOL0     H69684   2.042   8.890  11.409 -3.4636  0.5573  0.8934
  505MOL0     H69685   2.005   9.009  11.525 -1.5105 -3.4390  1.2537
  505MOL0     H69686   2.250   8.767  11.768  0.3826 -0.0147 -0.4605
  505MOL0     H69687   2.181   9.315  10.972 -0.9261 -0.7491  1.9285
  505MOL0     H69688   2.033   9.396  10.774  0.8916 -0.3870 -0.1764
  505MOL0     H69689   1.930   9.274  10.728  0.6842 -0.5339 -0.7619
  505MOL0     H69690   1.941   9.323  10.896 -0.5412 -2.5261  0.4792
  506MOL0     O69691   5.112  10.002   6.567 -0.5401 -0.0023  0.4165
  506MOL0     C69692   5.111   9.946   6.678 -0.0940  0.2634  0.8173
  506MOL0     O69693   5.217   9.933   6.761  0.7492 -1.0009  0.3654
  506MOL0     C69694   5.344   9.952   6.710 -0.0330 -0.4165  1.0803
  506MOL0     C69695   5.393   9.874   6.600  0.0920 -0.0569  1.2428
  506MOL0     C69696   5.515   9.912   6.549 -0.0324  0.2119  0.2338
  506MOL0     C69697   5.596  10.009   6.602  0.5598 -0.3105 -0.5381
  506MOL0     O69698   5.718  10.020   6.547 -0.7027 -0.8801  0.3154
  506MOL0     C69699   5.750  10.152   6.491  0.6690 -0.3081  0.0792
  506MOL0     C69700   5.680  10.180   6.356  0.9451  0.1372 -1.1312
  506MOL0     C69701   5.721  10.314   6.294  0.2050 -0.4803 -0.2145
  506MOL0     C69702   5.843  10.309   6.200 -0.0482 -0.6814  0.6451
  506MOL0     C69703   5.832  10.219   6.071 -0.4259 -0.1026  0.5134
  506MOL0     C69704   5.932  10.260   5.953 -0.3909  0.0667  0.9793
  506MOL0     C69705   5.931  10.410   5.914  1.0173  0.0150  1.7365
  506MOL0     C69706   6.024  10.433   5.800 -0.4059 -0.5622  0.8807
  506MOL0     N69707   6.037  10.579   5.790  0.0480  0.1285  0.4434
  506MOL0     C69708   5.956  10.653   5.715  0.3951  0.3940  0.0060
  506MOL0     C69709   5.975  10.782   5.755 -0.4509  0.1441  0.3794
  506MOL0     C69710   5.913  10.910   5.703  0.3391  0.3637 -0.5333
  506MOL0     C69711   5.960  10.951   5.558  0.2251 -0.0790 -1.0351
  506MOL0     C69712   6.114  10.963   5.531  0.3411  0.2777 -0.3700
  506MOL0     C69713   6.192  11.040   5.641  0.4352  1.4908 -0.6647
  506MOL0     O69714   6.328  11.054   5.616  0.2696 -0.1067 -0.0809
  506MOL0     C69715   6.399  10.943   5.604  0.6356 -0.4665  0.8850
  506MOL0     C69716   6.495  10.961   5.512 -0.2005  0.5545 -0.3654
  506MOL0     C69717   6.587  10.862   5.459  0.3507  0.5789  0.3476
  506MOL0     C69718   6.687  10.893   5.358 -0.0871  0.4593 -0.1233
  506MOL0     C69719   6.578  10.735   5.526  0.9315 -0.6558 -0.6060
  506MOL0     C69720   6.691  10.646   5.522 -0.2828  0.3272  0.5079
  506MOL0     O69721   6.809  10.701   5.567 -0.5387  0.7452  0.3298
  506MOL0     C69722   6.934  10.646   5.547  0.1399 -0.3708  0.4917
  506MOL0     C69723   7.026  10.665   5.640 -0.1926 -1.0340 -0.8990
  506MOL0     C69724   7.161  10.621   5.633  0.6659  0.0960 -0.0155
  506MOL0     C69725   7.205  10.544   5.522 -0.2303 -0.2231  0.2546
  506MOL0     O69726   7.322  10.484   5.495 -0.1581 -0.3691  0.5929
  506MOL0     C69727   7.433  10.541   5.558 -0.4366 -0.4265  0.0093
  506MOL0     C69728   7.549  10.496   5.478  0.9986 -0.8472  0.0882
  506MOL0     C69729   7.676  10.488   5.564  0.0765  0.9833 -0.4251
  506MOL0     C69730   7.724  10.621   5.614  0.2650 -0.5140  0.2272
  506MOL0     C69731   7.871  10.619   5.645 -0.4720 -0.3898  0.4664
  506MOL0     C69732   7.939  10.755   5.670 -0.2656 -0.5540 -1.0593
  506MOL0     C69733   7.917  10.859   5.563  0.0573 -0.2726  0.4624
  506MOL0     C69734   8.030  10.965   5.566  0.0079  1.4343 -0.0065
  506MOL0    Cl69735   8.172  10.877   5.477  0.2365 -0.4525 -0.2136
  506MOL0     C69736   7.097  10.507   5.437 -0.5334  0.2576 -1.2031
  506MOL0     C69737   6.968  10.570   5.439 -0.6555 -0.3465  0.1415
  506MOL0     O69738   6.669  10.524   5.502  0.3863  1.3323 -0.5687
  506MOL0     C69739   6.483  10.714   5.623 -0.8904  0.1359 -0.3709
  506MOL0     C69740   6.394  10.810   5.662 -0.5097 -0.5046 -0.3398
  506MOL0     N69741   6.076  10.782   5.852  0.0175  0.7189  0.3285
  506MOL0     N69742   6.115  10.658   5.868  0.4433  0.4569  0.1414
  506MOL0     C69743   5.551  10.086   6.714  0.3093 -0.3892 -0.1030
  506MOL0     C69744   5.423  10.050   6.769  0.2690 -0.7246  0.1406
  506MOL0     C69745   4.976   9.898   6.719  0.6145 -0.1682 -0.8085
  506MOL0     C69746   4.881   9.889   6.617  0.0672  0.0448 -0.6839
  506MOL0     C69747   4.754   9.848   6.647  0.2350 -0.7144  0.2073
  506MOL0     C69748   4.707   9.815   6.776 -0.1547 -0.4639  0.0027
  506MOL0     O69749   4.584   9.785   6.804  0.7492  0.0728  0.5551
  506MOL0     C69750   4.539   9.659   6.746 -0.0951  0.4817  1.1281
  506MOL0     C69751   4.442   9.689   6.630  0.3320  0.0437  0.1777
  506MOL0     C69752   4.295   9.652   6.654  0.1117 -0.9609  0.1592
  506MOL0     C69753   4.204   9.664   6.534  0.4339 -0.1070 -0.0651
  506MOL0     C69754   4.069   9.611   6.543  0.3431  0.7438  0.4065
  506MOL0     C69755   3.959   9.571   6.551  0.2640 -0.2042 -0.7140
  506MOL0     C69756   4.800   9.827   6.876  0.0502 -1.0838 -0.1440
  506MOL0     C69757   4.935   9.874   6.854  1.1509  0.1111  0.1632
  506MOL0     C69758   5.022   9.912   6.964  0.0762  0.8580  0.5024
  506MOL0     H69759   5.343   9.787   6.559 -0.6355  0.4393  1.0474
  506MOL0     H69760   5.554   9.855   6.466  1.4687  0.9087  0.4393
  506MOL0     H69761   5.856  10.154   6.465  0.4716 -2.4879 -1.0802
  506MOL0     H69762   5.727  10.231   6.563  1.4723  0.0854 -0.0893
  506MOL0     H69763   5.702  10.088   6.301  0.6546 -0.3478 -0.4423
  506MOL0     H69764   5.572  10.182   6.373  1.3067  0.0539  1.5870
  506MOL0     H69765   5.642  10.348   6.227 -0.8027 -1.3864  0.4930
  506MOL0     H69766   5.746  10.388   6.371  0.2396 -1.4350  0.7000
  506MOL0     H69767   5.848  10.414   6.168  0.2442 -0.5838  1.0089
  506MOL0     H69768   5.936  10.287   6.252  2.2540 -0.9002 -3.1830
  506MOL0     H69769   5.733  10.225   6.026  0.1122  5.7744 -0.6574
  506MOL0     H69770   5.851  10.113   6.094 -2.7955 -0.1311  2.8000
  506MOL0     H69771   6.031  10.235   5.991 -0.8533  0.4287  2.5083
  506MOL0     H69772   5.907  10.200   5.865 -1.5040  2.0934 -0.1568
  506MOL0     H69773   5.966  10.462   6.004 -0.3062 -1.8870  3.4658
  506MOL0     H69774   5.826  10.435   5.893  0.9271 -1.7986 -0.3719
  506MOL0     H69775   6.119  10.388   5.833 -0.1429 -0.4513  0.2855
  506MOL0     H69776   5.989  10.392   5.705  2.8413 -0.4285 -0.5027
  506MOL0     H69777   5.889  10.615   5.638  0.8003  0.8841 -0.6026
  506MOL0     H69778   5.938  10.989   5.774 -0.4177  0.7285 -0.6565
  506MOL0     H69779   5.805  10.909   5.721  0.8680 -2.2640  3.5685
  506MOL0     H69780   5.899  10.897   5.485 -3.3923  0.6990  1.1991
  506MOL0     H69781   5.933  11.056   5.552 -0.1148  0.0592  1.6428
  506MOL0     H69782   6.154  10.865   5.501 -1.6043 -0.5246 -0.4587
  506MOL0     H69783   6.112  11.017   5.436 -0.6036  0.2950 -0.3467
  506MOL0     H69784   6.149  11.140   5.649 -1.1600  0.6845  2.2039
  506MOL0     H69785   6.183  10.995   5.741 -1.2141  0.9384 -1.0302
  506MOL0     H69786   6.495  11.062   5.471 -2.0729  0.7218 -0.0278
  506MOL0     H69787   6.780  10.935   5.398  1.7749 -3.0883 -0.2748
  506MOL0     H69788   6.646  10.961   5.283  1.0361 -1.1630 -2.3490
  506MOL0     H69789   6.712  10.810   5.290  0.0195  0.9142 -0.6514
  506MOL0     H69790   7.001  10.716   5.733  1.7207 -1.7048  0.0333
  506MOL0     H69791   7.235  10.632   5.712 -0.3472  0.5217  0.9137
  506MOL0     H69792   7.424  10.649   5.546 -1.4693 -0.3647  1.1597
  506MOL0     H69793   7.443  10.520   5.665 -1.4587  1.3771  0.5132
  506MOL0     H69794   7.514  10.399   5.442 -2.3516  0.2442  0.0225
  506MOL0     H69795   7.563  10.554   5.386 -0.0113 -0.5060  0.1419
  506MOL0     H69796   7.750  10.444   5.497 -0.3544 -0.6508  0.1403
  506MOL0     H69797   7.657  10.417   5.645  4.5502  1.2562  1.1832
  506MOL0     H69798   7.670  10.655   5.704  1.5701  4.5614 -0.5851
  506MOL0     H69799   7.704  10.696   5.537 -0.6934  1.5092  2.3136
  506MOL0     H69800   7.895  10.558   5.733  0.4635  3.1754  2.9376
  506MOL0     H69801   7.917  10.564   5.563  1.0570  0.1436  0.9398
  506MOL0     H69802   8.045  10.733   5.682 -0.8734 -3.4330 -0.1058
  506MOL0     H69803   7.906  10.795   5.767  3.1688 -1.1721  0.4932
  506MOL0     H69804   7.830  10.918   5.593  0.8015  1.5264 -0.7162
  506MOL0     H69805   7.902  10.821   5.462 -2.2909  1.2594  0.1694
  506MOL0     H69806   8.059  10.990   5.668 -1.7367  2.5090  0.2649
  506MOL0     H69807   8.014  11.050   5.500  1.2631  1.5689 -0.1512
  506MOL0     H69808   7.109  10.442   5.350 -3.5812  1.1212 -2.4058
  506MOL0     H69809   6.886  10.546   5.373 -2.2249 -0.2130  1.9435
  506MOL0     H69810   6.491  10.629   5.690  3.1468  0.4073 -0.2942
  506MOL0     H69811   6.320  10.785   5.738  1.0292 -0.9831  1.0520
  506MOL0     H69812   5.610  10.166   6.757  0.0238 -1.4343  2.4309
  506MOL0     H69813   5.382  10.104   6.854 -1.0282 -2.9618  1.0020
  506MOL0     H69814   4.905   9.896   6.511  2.7325 -4.0197 -0.5534
  506MOL0     H69815   4.692   9.847   6.559 -0.3248 -0.9202  0.5994
  506MOL0     H69816   4.625   9.596   6.723 -0.4634 -0.8831  3.1473
  506MOL0     H69817   4.491   9.606   6.829 -2.0377  0.9122  0.3290
  506MOL0     H69818   4.486   9.629   6.550  1.7164  0.7338  0.3740
  506MOL0     H69819   4.449   9.798   6.622 -1.9200  0.4982  2.9946
  506MOL0     H69820   4.289   9.547   6.684  4.3050 -0.9310  1.6289
  506MOL0     H69821   4.254   9.721   6.728 -0.7872  2.2081 -2.9971
  506MOL0     H69822   4.243   9.623   6.441  0.0609 -3.7885  1.2476
  506MOL0     H69823   4.196   9.773   6.522  0.6268  0.1655  1.9497
  506MOL0     H69824   3.857   9.538   6.539  0.1637  0.1256 -0.7878
  506MOL0     H69825   4.764   9.814   6.977  0.6223 -1.9799 -0.0480
  506MOL0     H69826   5.107   9.843   6.966 -1.5084 -1.2737 -1.0906
  506MOL0     H69827   5.057  10.013   6.942 -0.0852  2.2779  5.5027
  506MOL0     H69828   4.974   9.924   7.062  2.9714  2.5750  1.8346
  507MOL0     O69829   6.123   0.109   1.731  0.4769  0.1464 -0.1365
  507MOL0     C69830   6.104   0.232   1.744  0.0125  0.0036 -0.1841
  507MOL0     O69831   6.200   0.327   1.774 -0.8674 -0.6559  0.3390
  507MOL0     C69832   6.280   0.288   1.881  0.4809  0.1217  0.2689
  507MOL0     C69833   6.228   0.241   2.005 -0.7642  0.1335  0.2365
  507MOL0     C69834   6.327   0.225   2.108 -0.3118  0.0271 -0.1588
  507MOL0     C69835   6.464   0.258   2.095  0.9560 -1.1687  0.7233
  507MOL0     O69836   6.556   0.226   2.196  0.5533 -0.7251 -0.3971
  507MOL0     C69837   6.694   0.253   2.180  0.5973  0.4983  0.6301
  507MOL0     C69838   6.761   0.197   2.308 -0.9318 -0.0836  1.2583
  507MOL0     C69839   6.908   0.251   2.305 -0.6602 -0.3734 -0.5608
  507MOL0     C69840   7.001   0.141   2.366  0.0264  0.2073 -0.7672
  507MOL0     C69841   6.956   0.117   2.511 -0.0070  0.0987  0.3412
  507MOL0     C69842   6.971   0.234   2.597 -0.8938 -0.1321 -0.0810
  507MOL0     C69843   6.985   0.198   2.749  0.7101  0.1336  0.6461
  507MOL0     C69844   7.121   0.187   2.811 -0.6611 -0.9699 -0.4145
  507MOL0     N69845   7.190   0.075   2.751 -0.2644 -0.8910 -0.4234
  507MOL0     C69846   7.182  -0.055   2.798 -0.5201  0.1484  0.2446
  507MOL0     C69847   7.259  -0.122   2.705  0.8430  0.2577  0.2861
  507MOL0     C69848   7.263  -0.278   2.693 -0.7078  0.7226  0.0601
  507MOL0     C69849   7.399  -0.347   2.713 -0.3351 -0.7621  0.4647
  507MOL0     C69850   7.453  -0.312   2.853  0.2031 -0.1690 -0.2261
  507MOL0     C69851   7.577  -0.389   2.910  0.1126 -0.3532  1.1224
  507MOL0     O69852   7.534  -0.448   3.026 -0.1199  0.1836 -0.1424
  507MOL0     C69853   7.584  -0.574   3.042 -0.1156 -0.0238 -1.0376
  507MOL0     C69854   7.562  -0.669   2.948 -0.0275  0.0733 -1.0333
  507MOL0     C69855   7.620  -0.795   2.957  0.1964 -0.2789 -0.8020
  507MOL0     C69856   7.587  -0.889   2.848 -0.4952 -0.1990 -0.2973
  507MOL0     C69857   7.696  -0.831   3.064  0.7488  0.2289  0.5741
  507MOL0     C69858   7.746  -0.973   3.103  0.6737  0.9232  0.3964
  507MOL0     O69859   7.865  -0.976   3.166  0.4757  0.3564 -0.9695
  507MOL0     C69860   7.890  -1.073   3.261  0.3419  0.2637  0.4995
  507MOL0     C69861   8.013  -1.132   3.266 -0.3118  0.9830 -0.3776
  507MOL0     C69862   8.053  -1.215   3.371 -0.1503 -0.2828 -0.0693
  507MOL0     C69863   7.957  -1.235   3.476 -0.8151 -0.1866 -0.6839
  507MOL0     O69864   7.976  -1.334   3.574 -0.5373 -0.3964 -0.0968
  507MOL0     C69865   8.100  -1.373   3.612 -0.7472  0.0217  1.0035
  507MOL0     C69866   8.100  -1.461   3.734  0.0724  0.4334 -0.7874
  507MOL0     C69867   8.072  -1.371   3.857  0.3468  0.8026 -0.5142
  507MOL0     C69868   8.084  -1.446   3.991 -0.4107 -0.3708  0.0664
  507MOL0     C69869   8.104  -1.337   4.105 -0.3210 -0.7295  0.3365
  507MOL0     C69870   8.138  -1.404   4.236  0.6156 -0.2557 -0.5225
  507MOL0     C69871   8.268  -1.491   4.241  1.1563  0.3300 -0.0517
  507MOL0     C69872   8.311  -1.516   4.385 -1.0065  0.1221  1.0642
  507MOL0    Cl69873   8.364  -1.366   4.457 -0.1253 -0.0297 -0.2233
  507MOL0     C69874   7.831  -1.180   3.466  0.0580  0.5953  1.2243
  507MOL0     C69875   7.802  -1.096   3.364  0.1155  0.4893  0.2672
  507MOL0     O69876   7.666  -1.060   3.100  0.7327 -0.2149  0.5618
  507MOL0     C69877   7.706  -0.736   3.166 -0.2479 -0.3552 -0.7006
  507MOL0     C69878   7.662  -0.607   3.148 -0.3470 -0.2604  0.2967
  507MOL0     N69879   7.327  -0.032   2.622  0.5541 -0.4367 -0.0057
  507MOL0     N69880   7.285   0.085   2.655  1.1714 -1.1513  0.0541
  507MOL0     C69881   6.507   0.321   1.971  0.6118 -0.2365 -0.4270
  507MOL0     C69882   6.418   0.323   1.865  0.1153 -1.6242  0.1913
  507MOL0     C69883   5.975   0.288   1.690 -0.0260 -0.2003 -0.3313
  507MOL0     C69884   5.898   0.224   1.605  0.1342  0.4770  0.5905
  507MOL0     C69885   5.791   0.263   1.531  0.6405 -0.1287  0.0590
  507MOL0     C69886   5.753   0.399   1.540 -0.0618 -0.3806 -0.3586
  507MOL0     O69887   5.647   0.445   1.467  0.0820  0.2047 -0.0666
  507MOL0     C69888   5.637   0.588   1.436  1.2453  0.5294 -0.9832
  507MOL0     C69889   5.509   0.606   1.348  0.0225  0.1602 -1.1203
  507MOL0     C69890   5.522   0.720   1.247 -0.6242 -0.5314 -0.2407
  507MOL0     C69891   5.434   0.684   1.139  1.7017 -0.5933 -0.6548
  507MOL0     C69892   5.496   0.596   1.042  0.1410 -0.2063  0.4550
  507MOL0     C69893   5.542   0.507   0.973  0.1599 -0.1767 -0.5317
  507MOL0     C69894   5.817   0.477   1.633  0.3351 -0.3092 -0.4104
  507MOL0     C69895   5.926   0.426   1.705 -1.2627 -0.7137  0.5253
  507MOL0     C69896   5.982   0.525   1.806 -0.4010 -1.0810  0.0567
  507MOL0     H69897   6.128   0.204   2.026 -0.0896 -0.2404  3.2233
  507MOL0     H69898   6.300   0.178   2.202  0.4081 -1.4638 -0.6738
  507MOL0     H69899   6.715   0.359   2.169  2.1283  0.0658 -1.2093
  507MOL0     H69900   6.742   0.201   2.096  2.3806 -0.8545  2.3804
  507MOL0     H69901   6.715   0.221   2.404  0.9195 -3.6949  3.3023
  507MOL0     H69902   6.746   0.089   2.299 -1.5254  0.1469 -1.3343
  507MOL0     H69903   6.932   0.268   2.199 -4.6901  3.0540 -1.2092
  507MOL0     H69904   6.907   0.345   2.361  2.7882  0.8832 -2.3304
  507MOL0     H69905   7.008   0.039   2.326  0.3366  1.1186 -3.1447
  507MOL0     H69906   7.097   0.192   2.363 -0.3562  1.0451  0.4219
  507MOL0     H69907   7.001   0.025   2.549  0.3415 -0.3842 -1.1641
  507MOL0     H69908   6.847   0.106   2.511  0.1296 -2.0242  2.4751
  507MOL0     H69909   7.064   0.281   2.566 -1.5176  0.4330 -1.1688
  507MOL0     H69910   6.889   0.306   2.590 -0.6515  0.1286 -0.2482
  507MOL0     H69911   6.933   0.104   2.769  3.0549 -1.6369 -0.9766
  507MOL0     H69912   6.930   0.280   2.796 -0.4218 -1.2586  1.8501
  507MOL0     H69913   7.170   0.283   2.790  1.2592 -1.3895  1.7605
  507MOL0     H69914   7.109   0.198   2.919  0.7502  1.5028 -0.4272
  507MOL0     H69915   7.129  -0.084   2.888  4.1093 -0.9915  2.9175
  507MOL0     H69916   7.226  -0.311   2.595 -0.4586  0.0875  0.1742
  507MOL0     H69917   7.200  -0.323   2.770 -1.6271  1.8578  0.0026
  507MOL0     H69918   7.390  -0.453   2.689 -1.5898 -1.7180  4.4003
  507MOL0     H69919   7.473  -0.310   2.641  1.1784 -1.8354  1.4196
  507MOL0     H69920   7.481  -0.207   2.861  0.3505 -0.2633  0.5248
  507MOL0     H69921   7.370  -0.330   2.922  0.4327 -0.3060  0.0169
  507MOL0     H69922   7.610  -0.458   2.831 -0.0170  0.3669  0.4224
  507MOL0     H69923   7.666  -0.327   2.926 -0.4897  0.8848 -0.0774
  507MOL0     H69924   7.486  -0.646   2.873 -0.1652 -0.2528 -0.9954
  507MOL0     H69925   7.653  -0.864   2.764 -0.0927 -0.6098 -0.1078
  507MOL0     H69926   7.480  -0.895   2.822 -1.1292 -2.7425  2.3469
  507MOL0     H69927   7.624  -0.987   2.879  1.2138  0.6534  0.4773
  507MOL0     H69928   8.091  -1.105   3.196 -2.3778  1.6777 -2.5321
  507MOL0     H69929   8.153  -1.257   3.375 -0.3017 -0.7529 -0.8852
  507MOL0     H69930   8.141  -1.425   3.525 -3.6554  0.3946 -0.7280
  507MOL0     H69931   8.164  -1.285   3.625  0.7844 -1.2975  3.0769
  507MOL0     H69932   8.025  -1.540   3.732  2.5611 -2.3587  2.9018
  507MOL0     H69933   8.196  -1.507   3.754  1.2225  3.4147  1.3994
  507MOL0     H69934   7.976  -1.320   3.849 -1.5507 -2.7036 -3.1856
  507MOL0     H69935   8.147  -1.293   3.842 -0.1174  0.8684 -2.7945
  507MOL0     H69936   8.164  -1.520   3.983  0.3341  0.2415  1.5471
  507MOL0     H69937   7.999  -1.513   4.009  1.3985 -2.2367  2.2570
  507MOL0     H69938   8.193  -1.277   4.082  1.4088 -3.2198  0.1492
  507MOL0     H69939   8.012  -1.278   4.108  0.3674  0.4801 -0.8457
  507MOL0     H69940   8.046  -1.451   4.271 -1.8790  0.9810 -4.7202
  507MOL0     H69941   8.162  -1.321   4.304 -2.0814 -1.2106  1.7978
  507MOL0     H69942   8.349  -1.445   4.183 -0.3045 -0.4332 -2.8985
  507MOL0     H69943   8.243  -1.591   4.204  0.2623  0.3590  0.4573
  507MOL0     H69944   8.398  -1.582   4.374 -0.5307  0.3397  3.0825
  507MOL0     H69945   8.242  -1.567   4.453 -1.7696 -2.7306 -1.6496
  507MOL0     H69946   7.754  -1.212   3.535 -1.8592  0.3429 -0.8852
  507MOL0     H69947   7.705  -1.050   3.350 -0.4452 -0.9873 -1.0476
  507MOL0     H69948   7.759  -0.754   3.259 -2.6050 -2.2511  0.4019
  507MOL0     H69949   7.678  -0.539   3.231 -0.4141 -1.6691  1.5091
  507MOL0     H69950   6.611   0.349   1.962  0.3144  2.1228  2.2451
  507MOL0     H69951   6.437   0.371   1.770  2.3568 -1.4409  0.6772
  507MOL0     H69952   5.926   0.121   1.590  3.8108  1.0837  2.2327
  507MOL0     H69953   5.725   0.196   1.477  1.1272  1.0885 -2.1702
  507MOL0     H69954   5.618   0.659   1.518  1.5183  0.2260 -0.6505
  507MOL0     H69955   5.730   0.622   1.389  0.5763  0.2408 -2.5550
  507MOL0     H69956   5.431   0.630   1.420 -0.4422 -1.8417 -0.9029
  507MOL0     H69957   5.487   0.511   1.299  2.1034 -1.5569  1.0590
  507MOL0     H69958   5.495   0.814   1.296  0.4813 -0.6802  0.7063
  507MOL0     H69959   5.627   0.730   1.219 -1.0396  0.4507 -1.5515
  507MOL0     H69960   5.402   0.782   1.102  2.1427  0.2814  1.2200
  507MOL0     H69961   5.337   0.647   1.173  1.5009 -1.8211 -2.3930
  507MOL0     H69962   5.576   0.428   0.910  0.0878  0.7612 -1.7793
  507MOL0     H69963   5.776   0.576   1.646 -0.7237 -0.7206 -0.5016
  507MOL0     H69964   5.994   0.472   1.900  0.7676 -2.3495 -0.7740
  507MOL0     H69965   6.073   0.573   1.768  1.8681 -4.6426  0.5902
  507MOL0     H69966   5.904   0.602   1.810  2.5800  2.3992 -1.7355
  508MOL0     O69967   7.015   8.797   0.128 -0.8197  0.4000 -0.5538
  508MOL0     C69968   7.026   8.782   0.009 -0.2595  0.6316 -0.2812
  508MOL0     O69969   6.933   8.731  -0.070 -0.1760 -0.1546 -0.0620
  508MOL0     C69970   6.794   8.729  -0.028 -0.3331  1.9006  0.2785
  508MOL0     C69971   6.706   8.820  -0.097 -0.0196 -0.1882 -0.3345
  508MOL0     C69972   6.566   8.831  -0.074  0.0242  0.0332 -0.0460
  508MOL0     C69973   6.509   8.749   0.026  0.9151  0.4730 -0.5158
  508MOL0     O69974   6.380   8.751   0.065 -1.1957  0.3538 -0.1362
  508MOL0     C69975   6.297   8.862   0.022  0.5839  0.3359  0.0669
  508MOL0     C69976   6.163   8.847   0.091  0.0184 -0.0375  1.0233
  508MOL0     C69977   6.048   8.923   0.022  0.2915 -0.1844  0.9396
  508MOL0     C69978   5.973   8.841  -0.084  0.4995 -0.5802  0.1062
  508MOL0     C69979   5.858   8.933  -0.135 -0.3487  0.5167  0.1258
  508MOL0     C69980   5.735   8.919  -0.050 -0.8787  0.1665 -1.0422
  508MOL0     C69981   5.617   8.986  -0.127  1.0423  0.5968 -0.4388
  508MOL0     C69982   5.527   8.873  -0.192 -0.0309  0.7497 -0.3155
  508MOL0     N69983   5.421   8.942  -0.269  0.4432 -0.0259  0.6139
  508MOL0     C69984   5.335   9.040  -0.218 -0.1596 -0.5346 -0.8178
  508MOL0     C69985   5.260   9.070  -0.326  0.9544 -0.4159 -0.3803
  508MOL0     C69986   5.185   9.205  -0.330  0.4183 -0.3043 -0.4535
  508MOL0     C69987   5.268   9.331  -0.312  0.2069 -0.5103 -0.2048
  508MOL0     C69988   5.199   9.472  -0.319  0.2779 -0.3476 -0.3139
  508MOL0     C69989   5.136   9.484  -0.457 -1.1895  0.8093  0.1410
  508MOL0     O69990   5.074   9.610  -0.486 -0.5307 -0.0765  0.0027
  508MOL0     C69991   4.996   9.658  -0.382  0.2283  0.1460  0.2453
  508MOL0     C69992   4.901   9.577  -0.318 -0.0989  0.3986 -0.0280
  508MOL0     C69993   4.809   9.627  -0.225 -0.2057 -0.1890 -0.0251
  508MOL0     C69994   4.702   9.542  -0.161 -0.2259 -0.4998 -0.9814
  508MOL0     C69995   4.827   9.756  -0.174 -0.6147 -0.4415 -0.5538
  508MOL0     C69996   4.755   9.813  -0.062  0.1408  0.4098  0.6723
  508MOL0     O69997   4.727   9.943  -0.086 -0.2956  0.9249  0.3804
  508MOL0     C69998   4.648  10.010   0.004 -0.3233  0.9561 -0.3908
  508MOL0     C69999   4.545  10.079  -0.055 -0.6925  0.1516 -0.5057
  508MOL0     C70000   4.451  10.143   0.021  0.9880  0.1973 -1.4710
  508MOL0     C70001   4.451  10.141   0.157 -0.3537  0.1157  1.0523
  508MOL0     O70002   4.365  10.231   0.222  1.2731  0.4447  1.0373
  508MOL0     C70003   4.363  10.234   0.366 -0.2024 -0.0167 -0.1090
  508MOL0     C70004   4.274  10.347   0.407  0.5886 -1.0796  0.1674
  508MOL0     C70005   4.295  10.361   0.559  0.1477 -0.0548 -0.4122
  508MOL0     C70006   4.207  10.466   0.616 -0.3775  0.1759 -0.7740
  508MOL0     C70007   4.259  10.508   0.741 -0.1811  0.5820  0.4336
  508MOL0     C70008   4.145  10.590   0.819 -0.3649  0.1574  0.1307
  508MOL0     C70009   4.198  10.667   0.944 -0.4372  0.1112 -0.0586
  508MOL0     C70010   4.129  10.633   1.078 -0.2896  0.0782  0.2551
  508MOL0    Cl70011   4.164  10.754   1.204  0.6476 -0.0990  0.1093
  508MOL0     C70012   4.561  10.075   0.224 -0.8040  0.0188  0.2344
  508MOL0     C70013   4.662  10.015   0.144 -0.5193  0.3983 -0.3131
  508MOL0     O70014   4.725   9.748   0.037 -0.6422  0.8877  0.9497
  508MOL0     C70015   4.922   9.836  -0.232  0.9287 -0.5586 -0.3547
  508MOL0     C70016   5.002   9.794  -0.336 -0.1471  0.6084  0.8973
  508MOL0     N70017   5.295   9.001  -0.437  0.0842 -0.2022 -0.5193
  508MOL0     N70018   5.400   8.932  -0.404  0.1264 -0.4277  0.5179
  508MOL0     C70019   6.601   8.660   0.100 -0.1213 -0.2304  0.3004
  508MOL0     C70020   6.739   8.662   0.079  0.1510  0.4491  0.3545
  508MOL0     C70021   7.159   8.808  -0.061  0.1926  0.7172 -0.2636
  508MOL0     C70022   7.200   8.730  -0.164  0.3073  0.0565  0.1676
  508MOL0     C70023   7.313   8.752  -0.245  0.3687  0.6577 -0.2071
  508MOL0     C70024   7.394   8.865  -0.227  1.5966 -0.4067 -1.3288
  508MOL0     O70025   7.496   8.885  -0.316  0.8771 -0.6395 -0.8858
  508MOL0     C70026   7.546   9.023  -0.316  0.0522  0.3864 -0.0735
  508MOL0     C70027   7.627   9.041  -0.443 -0.4253  0.1725 -0.0034
  508MOL0     C70028   7.536   9.070  -0.562 -0.3480 -0.1331  0.1839
  508MOL0     C70029   7.463   8.940  -0.617  0.2682  0.6093 -0.5053
  508MOL0     C70030   7.327   8.917  -0.575 -0.2790  0.1305  0.7592
  508MOL0     C70031   7.217   8.897  -0.537  0.1621  0.3501  0.1993
  508MOL0     C70032   7.355   8.939  -0.111  0.2608 -0.1148  0.5433
  508MOL0     C70033   7.249   8.909  -0.032 -0.6878 -2.0277  0.6058
  508MOL0     C70034   7.235   9.012   0.083  0.8674  0.2389 -0.7664
  508MOL0     H70035   6.755   8.890  -0.163  1.8581  0.9715  2.1034
  508MOL0     H70036   6.503   8.899  -0.130 -0.6336  0.3716  1.0885
  508MOL0     H70037   6.292   8.844  -0.085 -0.7632 -3.0453  0.5713
  508MOL0     H70038   6.336   8.954   0.067 -0.6522  0.2986  1.3067
  508MOL0     H70039   6.124   8.747   0.111 -1.6611  0.2089 -0.6821
  508MOL0     H70040   6.180   8.877   0.195  2.5378 -0.4827  0.7995
  508MOL0     H70041   5.982   8.946   0.106 -2.7238 -0.8609 -1.0810
  508MOL0     H70042   6.071   9.015  -0.031 -2.5792  0.8408  1.2759
  508MOL0     H70043   6.036   8.809  -0.167  1.8911  3.5355 -0.6757
  508MOL0     H70044   5.938   8.753  -0.029  2.8653 -0.6866  1.5720
  508MOL0     H70045   5.822   8.895  -0.231 -1.8285  2.2251 -0.0540
  508MOL0     H70046   5.885   9.039  -0.144 -0.9102  0.8749  2.2274
  508MOL0     H70047   5.698   8.817  -0.037 -1.1190  0.0909 -2.2796
  508MOL0     H70048   5.757   8.954   0.052 -1.4468  0.3502 -0.9801
  508MOL0     H70049   5.653   9.057  -0.203  2.0640 -2.6205 -3.2295
  508MOL0     H70050   5.562   9.045  -0.054 -0.5438 -1.2053 -0.0973
  508MOL0     H70051   5.595   8.807  -0.248 -0.4236 -2.9642  3.1051
  508MOL0     H70052   5.490   8.809  -0.112  0.6165 -0.8005 -1.2066
  508MOL0     H70053   5.327   9.071  -0.114 -4.2963 -0.3759 -1.0081
  508MOL0     H70054   5.116   9.209  -0.246  1.6856 -2.3691  0.7838
  508MOL0     H70055   5.130   9.222  -0.423 -0.9473  1.0295  0.5408
  508MOL0     H70056   5.329   9.327  -0.221 -0.3195 -0.5150  0.1494
  508MOL0     H70057   5.350   9.326  -0.385  2.2454  0.0758  1.9335
  508MOL0     H70058   5.130   9.468  -0.235  1.7450 -0.2614  0.9306
  508MOL0     H70059   5.276   9.547  -0.301  2.7923 -2.8466  0.0121
  508MOL0     H70060   5.209   9.465  -0.537  0.0417 -0.5001  1.5156
  508MOL0     H70061   5.058   9.407  -0.455 -1.1963  0.7568  3.3356
  508MOL0     H70062   4.880   9.474  -0.343  1.4744 -0.0483  0.3859
  508MOL0     H70063   4.616   9.602  -0.129 -0.7039 -1.0952 -1.1347
  508MOL0     H70064   4.744   9.506  -0.067  1.5616  1.8211 -0.7951
  508MOL0     H70065   4.673   9.451  -0.215  0.2525 -2.4491  1.8468
  508MOL0     H70066   4.549  10.090  -0.163 -6.3972  1.8095 -0.8974
  508MOL0     H70067   4.383  10.216  -0.023 -1.4934 -0.5259  0.8821
  508MOL0     H70068   4.348  10.137   0.415  0.3818 -1.1051 -1.9669
  508MOL0     H70069   4.463  10.266   0.397 -0.2273  3.2627 -2.7738
  508MOL0     H70070   4.314  10.437   0.359  0.5319 -1.9730 -1.6299
  508MOL0     H70071   4.168  10.329   0.383  0.3636 -1.5109  1.4181
  508MOL0     H70072   4.402  10.378   0.577  0.0918  0.2137 -0.3247
  508MOL0     H70073   4.270  10.266   0.607  3.8012  0.1299  2.3198
  508MOL0     H70074   4.116  10.409   0.637 -0.0074 -0.4875 -0.9298
  508MOL0     H70075   4.181  10.552   0.554  1.0040  0.2240 -1.3178
  508MOL0     H70076   4.289  10.428   0.809 -2.5178  2.3883  3.8631
  508MOL0     H70077   4.353  10.561   0.725 -0.1791  2.1054  4.3112
  508MOL0     H70078   4.072  10.516   0.852 -0.3835  0.5577  1.0257
  508MOL0     H70079   4.100  10.657   0.745 -1.2181  0.7330  1.1427
  508MOL0     H70080   4.178  10.774   0.934  1.5230  0.3037 -3.6251
  508MOL0     H70081   4.304  10.641   0.950 -1.2422 -3.6445  0.2743
  508MOL0     H70082   4.143  10.532   1.117 -3.1846 -0.4423  0.1044
  508MOL0     H70083   4.021  10.640   1.064 -0.3410  0.0830  0.6603
  508MOL0     H70084   4.554  10.052   0.329  0.3434 -0.9021  0.1336
  508MOL0     H70085   4.753   9.964   0.177  0.2740  1.8652 -0.1399
  508MOL0     H70086   4.935   9.941  -0.204 -1.4448  0.0956 -1.5212
  508MOL0     H70087   5.061   9.867  -0.389 -2.2421  2.5487  1.0778
  508MOL0     H70088   6.558   8.595   0.176 -0.6819  0.8836  0.9559
  508MOL0     H70089   6.803   8.597   0.139  0.1360  1.0252  1.0132
  508MOL0     H70090   7.150   8.634  -0.180  2.3168 -0.9169 -0.6930
  508MOL0     H70091   7.351   8.690  -0.325  3.2683 -0.6792  2.0276
  508MOL0     H70092   7.466   9.093  -0.289  0.4731  0.7405  0.2642
  508MOL0     H70093   7.617   9.029  -0.233 -1.3337  0.7306  1.1464
  508MOL0     H70094   7.693   8.954  -0.447 -1.0014 -0.4155  2.2439
  508MOL0     H70095   7.691   9.130  -0.447  0.9932 -0.8516 -1.0561
  508MOL0     H70096   7.482   9.159  -0.531  1.2121  0.6506  0.7935
  508MOL0     H70097   7.601   9.100  -0.645 -0.2493 -0.7162  0.0432
  508MOL0     H70098   7.513   8.846  -0.592 -3.4134 -0.7328  2.7900
  508MOL0     H70099   7.460   8.928  -0.726  0.3781 -0.1173 -0.4377
  508MOL0     H70100   7.116   8.881  -0.504  1.1134 -3.5188  1.8378
  508MOL0     H70101   7.423   9.014  -0.072  1.4652 -0.6108 -0.5085
  508MOL0     H70102   7.289   8.972   0.169 -0.9184  0.7590  0.6657
  508MOL0     H70103   7.274   9.107   0.046  0.5078 -0.4756 -3.0995
  508MOL0     H70104   7.133   9.011   0.121  1.2521  0.1369  0.2933
  509MOL0     O70105   5.447   2.685  10.399 -0.1075  1.3334  0.5783
  509MOL0     C70106   5.411   2.583  10.337 -0.3808 -0.1577 -0.3128
  509MOL0     O70107   5.288   2.522  10.343 -0.4210 -0.1412 -0.4549
  509MOL0     C70108   5.176   2.596  10.381 -0.8884  1.4230 -0.0461
  509MOL0     C70109   5.155   2.740  10.375 -0.6917  1.5631  0.5932
  509MOL0     C70110   5.031   2.787  10.407 -0.1113 -0.2380 -0.4669
  509MOL0     C70111   4.926   2.694  10.436  1.0014 -0.0765 -0.1923
  509MOL0     O70112   4.791   2.724  10.466 -0.1213 -0.7916  0.0102
  509MOL0     C70113   4.728   2.833  10.394 -0.7875  0.0249 -0.4146
  509MOL0     C70114   4.576   2.814  10.395  0.2486  0.3204  0.7589
  509MOL0     C70115   4.527   2.683  10.339 -0.2553  0.9087 -0.2266
  509MOL0     C70116   4.539   2.668  10.192  0.1670  0.1117  1.4525
  509MOL0     C70117   4.468   2.547  10.126 -1.0546 -0.7777 -0.2036
  509MOL0     C70118   4.486   2.537   9.972 -0.0350 -0.2572 -0.2887
  509MOL0     C70119   4.629   2.521   9.920  1.0256 -1.2015 -0.3966
  509MOL0     C70120   4.684   2.386   9.959 -0.5006 -0.7664 -0.1299
  509MOL0     N70121   4.812   2.341   9.904 -0.2936 -0.0763 -0.2608
  509MOL0     C70122   4.929   2.363   9.973 -0.9758  1.2049  0.2583
  509MOL0     C70123   5.024   2.301   9.907  0.1140 -0.6056 -1.0007
  509MOL0     C70124   5.165   2.290   9.958 -0.3290 -0.8989  0.0997
  509MOL0     C70125   5.159   2.178  10.074 -0.4810  0.7377 -0.1185
  509MOL0     C70126   5.311   2.146  10.136 -0.7248 -0.8147  0.2156
  509MOL0     C70127   5.412   2.077  10.053 -0.9857  0.7174 -0.4653
  509MOL0     O70128   5.352   1.970   9.983  0.6953  0.8497 -0.4384
  509MOL0     C70129   5.304   1.861  10.053 -0.8593  0.0802 -0.5671
  509MOL0     C70130   5.327   1.825  10.191 -0.1602 -0.1143 -0.0989
  509MOL0     C70131   5.291   1.701  10.246  0.0346  0.6718  0.9965
  509MOL0     C70132   5.330   1.675  10.391  0.5311  0.0378 -0.0662
  509MOL0     C70133   5.215   1.610  10.166  0.7991  0.2484 -0.2658
  509MOL0     C70134   5.160   1.485  10.225 -0.2891 -0.1591 -0.6281
  509MOL0     O70135   5.060   1.418  10.164 -0.5614 -0.1737 -0.0844
  509MOL0     C70136   4.988   1.325  10.234  0.8100  1.6356 -0.5533
  509MOL0     C70137   4.863   1.377  10.274  1.1220  0.1070 -0.5642
  509MOL0     C70138   4.766   1.287  10.325 -0.2541 -0.4552 -0.8747
  509MOL0     C70139   4.802   1.156  10.346 -0.0795  0.2965  0.7552
  509MOL0     O70140   4.697   1.086  10.402  0.1408 -0.1552 -0.0076
  509MOL0     C70141   4.741   0.988  10.490  0.1896 -0.3986 -0.6485
  509MOL0     C70142   4.614   0.923  10.535  0.5516 -0.7008 -0.1788
  509MOL0     C70143   4.520   1.006  10.617 -0.5497 -0.1855 -0.1850
  509MOL0     C70144   4.386   0.925  10.643 -0.5560 -0.3671 -0.0955
  509MOL0     C70145   4.316   0.981  10.763  0.4452  0.1723 -1.3010
  509MOL0     C70146   4.192   0.893  10.811 -0.3496 -0.8517  0.6841
  509MOL0     C70147   4.215   0.757  10.878  0.3854 -0.4774 -0.1319
  509MOL0     C70148   4.092   0.688  10.944 -0.1116  0.6441  0.4377
  509MOL0    Cl70149   4.064   0.784  11.093 -0.2328 -0.0420  0.2603
  509MOL0     C70150   4.918   1.095  10.287  0.5827 -0.1352 -0.7894
  509MOL0     C70151   5.020   1.184  10.240  0.0123  0.0778  0.0230
  509MOL0     O70152   5.228   1.425  10.311  0.4322  0.3965 -0.0160
  509MOL0     C70153   5.195   1.641  10.030 -0.4260 -0.5024 -0.1970
  509MOL0     C70154   5.239   1.763   9.978  0.4319 -0.3487 -0.8312
  509MOL0     N70155   4.968   2.257   9.793  0.2461  0.4527  0.2008
  509MOL0     N70156   4.838   2.275   9.788  0.4627 -0.0718  0.2816
  509MOL0     C70157   4.941   2.557  10.443 -0.5529 -1.0916 -0.1687
  509MOL0     C70158   5.068   2.514  10.410  0.6985  0.7040  0.3541
  509MOL0     C70159   5.498   2.515  10.242  0.4801 -1.1273 -0.4393
  509MOL0     C70160   5.474   2.538  10.100 -0.0019  0.3828  0.3556
  509MOL0     C70161   5.559   2.490  10.002 -0.4852  0.4366 -0.7136
  509MOL0     C70162   5.678   2.412  10.038  0.2878  0.6807 -0.1798
  509MOL0     O70163   5.768   2.370   9.952 -0.1280 -0.5482  0.7246
  509MOL0     C70164   5.822   2.243   9.974  0.1086  0.1252  1.1925
  509MOL0     C70165   5.899   2.205   9.849 -0.3565  0.8995  0.2978
  509MOL0     C70166   6.029   2.130   9.879 -0.2914  0.6378  0.3619
  509MOL0     C70167   6.088   2.094   9.741  0.2139 -0.5836 -0.3277
  509MOL0     C70168   6.041   1.974   9.680  0.1189  0.8665  0.1831
  509MOL0     C70169   6.003   1.862   9.637 -0.6536 -0.2965  0.2067
  509MOL0     C70170   5.693   2.389  10.178 -0.6946 -0.4878 -0.1797
  509MOL0     C70171   5.603   2.428  10.279  0.6548  0.4122  0.1895
  509MOL0     C70172   5.623   2.388  10.415 -0.7168 -0.6939  0.1258
  509MOL0     H70173   5.236   2.802  10.338  2.6392 -1.6305  1.9240
  509MOL0     H70174   5.002   2.892  10.412  1.2507  0.1099  0.6616
  509MOL0     H70175   4.761   2.851  10.291 -1.1880  2.4867 -0.1838
  509MOL0     H70176   4.748   2.930  10.440  2.2533 -0.8517  0.3221
  509MOL0     H70177   4.524   2.831  10.489 -2.3617  0.9082 -0.6915
  509MOL0     H70178   4.546   2.889  10.322  0.1954  0.2800  0.7389
  509MOL0     H70179   4.572   2.593  10.381 -3.2532 -0.8877 -0.5185
  509MOL0     H70180   4.421   2.666  10.362  0.0279 -1.0867 -0.2345
  509MOL0     H70181   4.499   2.757  10.141  0.8262 -0.1871  0.3712
  509MOL0     H70182   4.642   2.659  10.154 -0.2693 -1.5545  0.5782
  509MOL0     H70183   4.361   2.563  10.139 -1.4231 -0.8448 -2.6650
  509MOL0     H70184   4.502   2.459  10.181  2.2559  0.2868 -0.2932
  509MOL0     H70185   4.423   2.456   9.935 -1.0683  0.3583  0.0840
  509MOL0     H70186   4.442   2.629   9.933 -2.9185 -0.0035  3.0814
  509MOL0     H70187   4.701   2.601   9.944  1.9354 -2.7030  2.3613
  509MOL0     H70188   4.613   2.518   9.812 -0.4076 -2.1290 -0.1795
  509MOL0     H70189   4.706   2.394  10.066  0.1387  0.2936 -0.3223
  509MOL0     H70190   4.611   2.307   9.942  1.4635 -3.5322  3.1309
  509MOL0     H70191   4.948   2.401  10.073  1.8303 -0.9447  0.6742
  509MOL0     H70192   5.197   2.388   9.996 -1.4787 -1.1113  1.7635
  509MOL0     H70193   5.226   2.254   9.875  2.3654  1.1769  1.0154
  509MOL0     H70194   5.090   2.203  10.155 -1.2486  0.8262 -0.7921
  509MOL0     H70195   5.108   2.087  10.042  1.7100 -0.2897 -0.8604
  509MOL0     H70196   5.350   2.247  10.150 -1.7679  0.0525 -2.4615
  509MOL0     H70197   5.305   2.084  10.226  2.2607  1.6987  2.3578
  509MOL0     H70198   5.465   2.134   9.976  3.1168 -2.1821 -0.1082
  509MOL0     H70199   5.493   2.058  10.123 -1.3482  3.2216  0.7718
  509MOL0     H70200   5.384   1.897  10.250 -0.8453  0.3913 -0.0413
  509MOL0     H70201   5.413   1.604  10.395 -1.5357 -2.5058  0.6224
  509MOL0     H70202   5.245   1.640  10.451  2.3570  0.1873  2.8063
  509MOL0     H70203   5.374   1.758  10.446  1.7059 -1.4662  1.3939
  509MOL0     H70204   4.844   1.484  10.275  0.8234  0.0586 -0.9194
  509MOL0     H70205   4.672   1.329  10.360 -0.2878  1.9173 -3.4743
  509MOL0     H70206   4.791   0.902  10.443 -3.2552 -1.2132 -3.2672
  509MOL0     H70207   4.789   1.033  10.577 -0.6405  1.4643 -1.1175
  509MOL0     H70208   4.558   0.898  10.444 -2.1481 -2.8739  1.9092
  509MOL0     H70209   4.630   0.840  10.604  0.8114 -1.2920 -0.9386
  509MOL0     H70210   4.491   1.102  10.573 -0.1343  0.6186  1.2170
  509MOL0     H70211   4.579   1.035  10.705  0.6578 -0.9209 -0.7251
  509MOL0     H70212   4.408   0.820  10.662 -0.4147 -0.2664  0.3044
  509MOL0     H70213   4.325   0.926  10.552 -0.7266  0.6894  0.0216
  509MOL0     H70214   4.389   0.981  10.844  0.4507  1.5418 -1.2752
  509MOL0     H70215   4.279   1.080  10.734  0.4048 -0.0585 -2.0667
  509MOL0     H70216   4.123   0.893  10.726  2.5715  2.8154 -1.9793
  509MOL0     H70217   4.150   0.961  10.886 -1.6823 -0.9762  0.0675
  509MOL0     H70218   4.301   0.775  10.944  0.3373  0.1626 -0.2390
  509MOL0     H70219   4.262   0.706  10.794  1.0816  1.0629 -0.7345
  509MOL0     H70220   4.119   0.587  10.974  0.1170  0.2115 -1.1267
  509MOL0     H70221   4.000   0.687  10.885  1.0032 -0.4029 -1.3625
  509MOL0     H70222   4.931   0.987  10.287 -3.9142 -0.8970 -0.0122
  509MOL0     H70223   5.118   1.148  10.212 -0.5839 -3.0606  1.5527
  509MOL0     H70224   5.131   1.587   9.961 -1.9652  2.2637 -1.0878
  509MOL0     H70225   5.217   1.783   9.874  2.1079 -0.6687 -1.2897
  509MOL0     H70226   4.858   2.494  10.471 -1.2205  0.9366  2.9755
  509MOL0     H70227   5.093   2.408  10.416 -3.9346 -0.4921  3.9043
  509MOL0     H70228   5.381   2.585  10.071 -0.2868 -1.1718 -1.4754
  509MOL0     H70229   5.537   2.508   9.898  1.0972  0.0761 -1.1379
  509MOL0     H70230   5.896   2.244  10.054  2.2213  2.0173 -0.6676
  509MOL0     H70231   5.742   2.171   9.996 -0.4986 -0.1358 -1.5249
  509MOL0     H70232   5.934   2.290   9.790  1.7501 -2.2685 -3.5250
  509MOL0     H70233   5.842   2.142   9.781  0.3408 -0.1867  0.6993
  509MOL0     H70234   6.086   2.196   9.944  1.4212  0.2961 -0.7383
  509MOL0     H70235   6.013   2.030   9.921 -1.8954 -0.1162 -1.8201
  509MOL0     H70236   6.195   2.095   9.761 -0.4781  0.8195  4.8475
  509MOL0     H70237   6.067   2.175   9.671  3.3225 -0.3031 -1.0651
  509MOL0     H70238   5.990   1.762   9.602 -1.8946  0.4201 -1.5035
  509MOL0     H70239   5.775   2.333  10.221  0.1413 -1.0287 -2.3490
  509MOL0     H70240   5.676   2.294  10.434  0.0257  0.0671  2.0271
  509MOL0     H70241   5.672   2.467  10.472 -2.7865  0.2078  0.7313
  509MOL0     H70242   5.527   2.376  10.466 -0.7236 -0.2124  0.2334
  510MOL0     O70243   3.563   4.426  11.104  1.0395 -0.0791  0.1147
  510MOL0     C70244   3.630   4.445  11.202  0.3974  0.2955 -0.7100
  510MOL0     O70245   3.758   4.401  11.219 -0.3600 -0.0987  0.3651
  510MOL0     C70246   3.806   4.310  11.127  0.4401  0.3276  0.4659
  510MOL0     C70247   3.816   4.326  10.989  0.1238  0.1480  0.0183
  510MOL0     C70248   3.857   4.225  10.900 -0.1365  0.8026 -0.2705
  510MOL0     C70249   3.880   4.097  10.956  0.6007  0.0185  0.3857
  510MOL0     O70250   3.918   3.998  10.870  0.5308 -0.7697 -0.1397
  510MOL0     C70251   4.053   3.979  10.894 -0.3678 -0.5303 -0.2315
  510MOL0     C70252   4.107   3.859  10.807 -0.3171  0.4067 -0.0699
  510MOL0     C70253   4.088   3.894  10.663 -0.1607 -0.2506 -0.2203
  510MOL0     C70254   4.140   4.016  10.602 -0.0629 -0.4809  1.3098
  510MOL0     C70255   4.090   4.040  10.450  0.4914 -0.2788  0.1658
  510MOL0     C70256   4.165   3.960  10.344 -0.1586  1.1817 -0.1564
  510MOL0     C70257   4.106   3.996  10.205 -0.4246  0.6692 -0.8347
  510MOL0     C70258   4.152   3.903  10.090  0.4532  0.2932  0.0356
  510MOL0     N70259   4.301   3.891  10.093 -0.7202 -0.1999  0.1070
  510MOL0     C70260   4.396   3.993  10.102 -0.7032  0.2957 -0.4974
  510MOL0     C70261   4.515   3.930  10.132  1.0290 -0.0555  0.0295
  510MOL0     C70262   4.648   3.997  10.165  0.5999  0.2454 -0.5658
  510MOL0     C70263   4.644   4.042  10.308  0.0180 -0.2327  1.0062
  510MOL0     C70264   4.774   4.106  10.358  1.5388 -0.6054  1.1060
  510MOL0     C70265   4.758   4.124  10.513 -0.0758  0.4619  0.8929
  510MOL0     O70266   4.638   4.190  10.539  0.2702 -0.5083  0.2538
  510MOL0     C70267   4.599   4.217  10.667  0.7554 -0.1052 -0.0911
  510MOL0     C70268   4.672   4.208  10.782 -0.2398  0.0308 -0.3374
  510MOL0     C70269   4.622   4.273  10.902  0.9103  0.5234  0.2122
  510MOL0     C70270   4.718   4.277  11.015  0.2054 -0.7157  1.0471
  510MOL0     C70271   4.500   4.328  10.901  0.2794  0.4288 -0.0166
  510MOL0     C70272   4.440   4.408  11.015  0.0144  0.7489  1.1914
  510MOL0     O70273   4.312   4.445  11.006 -0.2065 -0.0012 -1.0193
  510MOL0     C70274   4.236   4.509  11.093 -0.3162 -0.2918 -0.1907
  510MOL0     C70275   4.149   4.447  11.188 -0.0622  0.0679  0.2109
  510MOL0     C70276   4.083   4.535  11.276  1.0591  0.2832 -0.0225
  510MOL0     C70277   4.102   4.677  11.280  0.4349  1.1402  0.2330
  510MOL0     O70278   4.030   4.751  11.374  0.0180  0.2766  0.0240
  510MOL0     C70279   3.986   4.882  11.327 -0.3478 -0.7395  1.2277
  510MOL0     C70280   3.888   4.969  11.409  0.0635  0.3977  0.7725
  510MOL0     C70281   3.858   5.103  11.343 -0.0228  0.1718  0.0286
  510MOL0     C70282   3.761   5.196  11.428  0.4831 -0.4017 -0.2083
  510MOL0     C70283   3.635   5.136  11.483 -0.4922  0.5941  0.8001
  510MOL0     C70284   3.546   5.248  11.528  0.4222 -0.0992  0.3454
  510MOL0     C70285   3.402   5.200  11.570  0.7753 -0.4345 -0.5281
  510MOL0     C70286   3.300   5.294  11.494 -0.4134  1.2180 -0.1196
  510MOL0    Cl70287   3.332   5.458  11.549  0.6835 -0.5100  0.2691
  510MOL0     C70288   4.185   4.741  11.181  0.4117  0.3615 -0.4728
  510MOL0     C70289   4.247   4.648  11.093  0.0052 -0.0399  0.1537
  510MOL0     O70290   4.512   4.422  11.115 -0.2386 -0.4574  0.1850
  510MOL0     C70291   4.417   4.314  10.786  0.6606  0.1801 -0.3043
  510MOL0     C70292   4.469   4.254  10.670  0.3339 -0.1579 -0.5398
  510MOL0     N70293   4.494   3.801  10.164  0.7609 -0.2773  0.6696
  510MOL0     N70294   4.369   3.779  10.139 -1.2740  0.8082 -0.2512
  510MOL0     C70295   3.867   4.079  11.097  1.2664 -0.1186  0.5746
  510MOL0     C70296   3.830   4.186  11.184 -0.0953  0.1631  0.3774
  510MOL0     C70297   3.550   4.513  11.313  0.2013  0.2347 -0.7484
  510MOL0     C70298   3.409   4.511  11.307  0.4662  1.2691 -0.2719
  510MOL0     C70299   3.333   4.582  11.406 -0.0272  0.6025 -0.0833
  510MOL0     C70300   3.392   4.651  11.513  0.3614  0.4466  0.1260
  510MOL0     O70301   3.309   4.715  11.587  1.1814 -0.1698 -0.8159
  510MOL0     C70302   3.368   4.794  11.690  0.7180  1.0322 -0.7750
  510MOL0     C70303   3.245   4.842  11.779  0.2935 -0.7685  0.4239
  510MOL0     C70304   3.130   4.905  11.700 -1.4881 -1.0777 -0.0396
  510MOL0     C70305   3.015   4.943  11.793 -0.2041  0.5889  0.1791
  510MOL0     C70306   2.902   4.992  11.720  0.2867  0.1195 -0.3904
  510MOL0     C70307   2.813   5.046  11.657 -0.3543 -0.1597 -0.3729
  510MOL0     C70308   3.534   4.636  11.529  0.1655  0.1627  0.0068
  510MOL0     C70309   3.614   4.565  11.437 -0.3720  0.1149  0.3616
  510MOL0     C70310   3.755   4.562  11.467  0.2863 -0.1153 -0.1319
  510MOL0     H70311   3.793   4.420  10.942 -0.1728 -0.3415 -0.8361
  510MOL0     H70312   3.889   4.250  10.799 -2.1594 -0.0694 -1.1777
  510MOL0     H70313   4.078   3.960  10.999 -0.1211 -0.6901 -0.3198
  510MOL0     H70314   4.115   4.065  10.868 -0.8171 -0.4999 -1.2277
  510MOL0     H70315   4.214   3.841  10.818 -0.0622  2.2590  0.7299
  510MOL0     H70316   4.053   3.772  10.845  1.3780  0.2108  2.0667
  510MOL0     H70317   4.133   3.809  10.611  1.8737 -0.0596  1.1117
  510MOL0     H70318   3.979   3.891  10.652 -0.0118  1.4714 -3.5499
  510MOL0     H70319   4.087   4.094  10.658 -1.3590  0.5021 -1.0995
  510MOL0     H70320   4.245   4.026  10.630 -0.6059  0.5852  3.1256
  510MOL0     H70321   4.085   4.147  10.430 -0.2757 -0.4121 -0.4122
  510MOL0     H70322   3.983   4.018  10.442  0.0415  0.6302  2.8135
  510MOL0     H70323   4.273   3.979  10.341  0.2635 -0.9943 -0.1382
  510MOL0     H70324   4.159   3.852  10.358 -2.8728  1.1237 -1.1556
  510MOL0     H70325   4.126   4.096  10.167  1.1424  0.4959 -0.5046
  510MOL0     H70326   3.996   3.997  10.208 -0.5478 -1.9017 -2.0247
  510MOL0     H70327   4.119   3.799  10.095 -0.9026  0.5946 -1.7062
  510MOL0     H70328   4.127   3.945   9.992  2.1352  1.8765  0.2318
  510MOL0     H70329   4.384   4.097  10.074  0.1410  0.9519  1.4265
  510MOL0     H70330   4.658   4.084  10.099 -0.7960  1.2708  0.5062
  510MOL0     H70331   4.732   3.928  10.153  2.4990  2.2518  0.3565
  510MOL0     H70332   4.560   4.106  10.335 -0.9202 -1.7273  1.7474
  510MOL0     H70333   4.632   3.954  10.371  0.0753 -0.3721  0.8237
  510MOL0     H70334   4.864   4.051  10.328  1.8064  1.2699 -1.8678
  510MOL0     H70335   4.781   4.207  10.318 -1.4837 -1.1204 -1.0604
  510MOL0     H70336   4.757   4.025  10.560  3.1291 -0.6563 -1.0714
  510MOL0     H70337   4.853   4.170  10.543 -0.8713  2.4123  0.5975
  510MOL0     H70338   4.776   4.177  10.769 -0.3957 -0.0009 -1.6248
  510MOL0     H70339   4.686   4.222  11.104 -2.1788  2.2629  2.2075
  510MOL0     H70340   4.738   4.383  11.035  0.2033 -0.5989  0.4496
  510MOL0     H70341   4.810   4.233  10.976  1.0605  0.8797  1.2014
  510MOL0     H70342   4.146   4.339  11.191  1.4859  0.0204  0.7973
  510MOL0     H70343   4.009   4.487  11.338 -1.1383  0.8884 -2.0169
  510MOL0     H70344   4.071   4.948  11.308 -0.3395 -1.3499 -1.2451
  510MOL0     H70345   3.927   4.864  11.236  0.3567 -1.1181  0.8349
  510MOL0     H70346   3.807   4.900  11.433  0.3804 -0.5722 -0.8102
  510MOL0     H70347   3.932   5.005  11.503  1.8376  1.4324 -0.3978
  510MOL0     H70348   3.791   5.073  11.262 -0.5309 -0.7245  0.7633
  510MOL0     H70349   3.949   5.149  11.301  1.3299 -2.8965 -0.6822
  510MOL0     H70350   3.734   5.290  11.377 -0.1318  0.1196  1.0481
  510MOL0     H70351   3.830   5.233  11.505  0.5001 -1.3368  0.2344
  510MOL0     H70352   3.604   5.083  11.392  3.8141 -0.2494 -0.4368
  510MOL0     H70353   3.657   5.063  11.562 -1.1066  1.2027  1.5441
  510MOL0     H70354   3.533   5.315  11.443 -0.5122 -0.3493  0.2784
  510MOL0     H70355   3.593   5.310  11.604 -4.1565  4.2467  0.1320
  510MOL0     H70356   3.377   5.200  11.676 -0.1682 -1.0509 -0.7422
  510MOL0     H70357   3.374   5.102  11.531  0.3822 -0.7586  0.5357
  510MOL0     H70358   3.198   5.266  11.523 -0.7751  1.5718 -1.0250
  510MOL0     H70359   3.310   5.291  11.385 -2.6267  3.3790 -0.4683
  510MOL0     H70360   4.217   4.845  11.179  1.6878  0.0624  1.4686
  510MOL0     H70361   4.326   4.694  11.034  0.9310 -1.0431  0.5613
  510MOL0     H70362   4.313   4.344  10.795  0.4327 -0.1449 -1.7112
  510MOL0     H70363   4.409   4.240  10.581 -1.3326  1.1665  0.3160
  510MOL0     H70364   3.878   3.979  11.138 -0.7891  0.0383  1.5655
  510MOL0     H70365   3.801   4.167  11.286  1.8158 -0.8675  0.7707
  510MOL0     H70366   3.351   4.467  11.226 -0.9838  1.7279  0.4730
  510MOL0     H70367   3.225   4.588  11.410 -0.0630  1.9908 -1.6526
  510MOL0     H70368   3.428   4.740  11.765 -0.3869  1.2501  0.2897
  510MOL0     H70369   3.421   4.882  11.653  1.3161  1.0795  0.1510
  510MOL0     H70370   3.278   4.920  11.848 -2.5947  0.3650  0.6714
  510MOL0     H70371   3.200   4.754  11.827 -3.6757 -0.1609 -1.7346
  510MOL0     H70372   3.164   4.999  11.655 -0.0569 -3.1731 -3.7852
  510MOL0     H70373   3.086   4.842  11.623 -2.3596  0.6846 -1.0490
  510MOL0     H70374   3.035   5.020  11.868 -3.2147  1.3200  0.3647
  510MOL0     H70375   2.979   4.846  11.829 -0.4291  0.4901 -0.3043
  510MOL0     H70376   2.734   5.094  11.603 -1.5491 -1.9564 -0.3068
  510MOL0     H70377   3.586   4.675  11.616  1.4333  0.0768 -0.6943
  510MOL0     H70378   3.772   4.600  11.568 -1.5599 -1.2938  0.6790
  510MOL0     H70379   3.803   4.464  11.457  1.2340  0.5425 -2.6786
  510MOL0     H70380   3.817   4.624  11.402  1.5610  0.4264  1.5167
  511MOL0     O70381   4.877   1.694   6.928  0.5055  0.1255 -0.3359
  511MOL0     C70382   4.839   1.637   7.028  1.1666  0.4854 -0.1030
  511MOL0     O70383   4.775   1.688   7.130  0.5767 -0.7679 -0.4845
  511MOL0     C70384   4.697   1.801   7.104  0.5138 -0.2989  0.1696
  511MOL0     C70385   4.755   1.925   7.141  0.2045  0.1551  0.3110
  511MOL0     C70386   4.695   2.042   7.113 -0.4656 -0.4304  0.6861
  511MOL0     C70387   4.578   2.047   7.035 -1.1324 -0.1410  0.6454
  511MOL0     O70388   4.533   2.170   7.009 -0.2282 -0.9459 -0.0254
  511MOL0     C70389   4.493   2.206   6.874  0.1097 -0.8387 -0.0677
  511MOL0     C70390   4.332   2.192   6.855  0.3773  0.5097  1.0394
  511MOL0     C70391   4.297   2.174   6.708  0.2001 -0.5721  0.9072
  511MOL0     C70392   4.146   2.170   6.691 -1.1378  1.0578 -0.9040
  511MOL0     C70393   4.087   2.124   6.554  0.0787 -0.1068  0.3962
  511MOL0     C70394   4.082   2.230   6.431 -0.1061  0.3540 -1.0083
  511MOL0     C70395   4.020   2.164   6.304 -0.1921 -0.3062  0.6525
  511MOL0     C70396   4.002   2.265   6.188  0.1417 -0.6941  0.5351
  511MOL0     N70397   3.987   2.199   6.060 -1.3364  0.0716 -0.3418
  511MOL0     C70398   4.064   2.228   5.947 -0.8507  0.7539 -0.2213
  511MOL0     C70399   4.007   2.159   5.843  0.5636  1.1041 -0.4379
  511MOL0     C70400   4.031   2.138   5.701 -0.3607 -0.3134  0.0510
  511MOL0     C70401   4.079   2.262   5.626  0.0308  0.2353 -0.1947
  511MOL0     C70402   4.128   2.235   5.477  0.1105 -0.2593 -0.2824
  511MOL0     C70403   4.026   2.194   5.370  0.0000 -0.0044 -0.7580
  511MOL0     O70404   3.921   2.284   5.354 -0.1137  0.2719  0.8580
  511MOL0     C70405   3.946   2.403   5.297  0.0105 -0.0730 -0.1922
  511MOL0     C70406   3.845   2.496   5.301  0.0651  0.0913  0.0845
  511MOL0     C70407   3.832   2.621   5.243 -0.1144 -0.0650  0.0642
  511MOL0     C70408   3.706   2.704   5.268  0.3958 -0.2208  0.2747
  511MOL0     C70409   3.947   2.659   5.174 -0.2342 -0.0819 -0.5411
  511MOL0     C70410   3.962   2.799   5.133  0.6918  0.1263  0.4321
  511MOL0     O70411   3.944   2.899   5.229  0.0738  0.2026  0.6327
  511MOL0     C70412   3.923   3.033   5.190 -0.5276  0.1126  0.4638
  511MOL0     C70413   3.828   3.069   5.090  0.1332 -0.3012 -0.1486
  511MOL0     C70414   3.787   3.196   5.081  0.4145 -0.4547 -0.8316
  511MOL0     C70415   3.819   3.295   5.175 -0.4593 -0.4321 -0.1456
  511MOL0     O70416   3.760   3.423   5.174  0.6226 -0.1537 -1.4445
  511MOL0     C70417   3.621   3.446   5.140  0.0393 -0.8458  0.5156
  511MOL0     C70418   3.612   3.530   5.009 -0.1143  0.5396 -0.0818
  511MOL0     C70419   3.466   3.534   4.963  0.9620 -0.2349 -0.5245
  511MOL0     C70420   3.448   3.570   4.815 -0.3594 -0.7825  0.0554
  511MOL0     C70421   3.316   3.641   4.794  0.2420  0.3412 -0.7613
  511MOL0     C70422   3.301   3.706   4.659 -0.1344  0.9155  0.3689
  511MOL0     C70423   3.151   3.753   4.634  0.4427  0.1581 -0.6180
  511MOL0     C70424   3.099   3.846   4.741 -0.0700 -0.1635  0.0039
  511MOL0    Cl70425   2.952   3.939   4.690 -0.1488  0.6411  0.0625
  511MOL0     C70426   3.913   3.260   5.276  0.2314  0.4426 -0.1902
  511MOL0     C70427   3.968   3.128   5.290 -0.2289 -0.0134  0.2306
  511MOL0     O70428   3.968   2.806   5.008 -0.5249  0.4570 -0.5051
  511MOL0     C70429   4.058   2.575   5.156  0.3997  0.6315 -0.1006
  511MOL0     C70430   4.053   2.445   5.209 -0.2823 -0.8760 -0.4035
  511MOL0     N70431   3.901   2.087   5.905 -0.0222 -0.0985  0.2817
  511MOL0     N70432   3.888   2.116   6.032 -0.4920 -0.7917 -0.2828
  511MOL0     C70433   4.521   1.927   6.999  0.7709  0.5503  0.1376
  511MOL0     C70434   4.575   1.804   7.033 -0.4357 -0.7744 -0.1367
  511MOL0     C70435   4.881   1.498   7.051 -1.2082  1.2778  0.0731
  511MOL0     C70436   4.861   1.429   7.176  0.0743 -1.1691 -0.2252
  511MOL0     C70437   4.877   1.291   7.193 -0.9901  0.7332 -0.5867
  511MOL0     C70438   4.935   1.211   7.103 -0.2474 -0.1721  0.1067
  511MOL0     O70439   4.975   1.073   7.111  0.0543 -0.5061 -0.2210
  511MOL0     C70440   4.931   1.011   7.234 -0.7638 -0.3867  0.0311
  511MOL0     C70441   5.011   0.888   7.273 -0.7570 -0.5587  0.9205
  511MOL0     C70442   5.158   0.923   7.310 -0.4867  0.4180 -0.2158
  511MOL0     C70443   5.236   0.800   7.368 -0.0811 -0.7982  0.0397
  511MOL0     C70444   5.373   0.852   7.372 -0.3030  0.6595 -0.9426
  511MOL0     C70445   5.482   0.903   7.391 -0.0524 -0.7627 -0.1751
  511MOL0     C70446   4.966   1.271   6.979 -0.6488 -0.0760 -0.1535
  511MOL0     C70447   4.949   1.411   6.952 -0.1878 -0.2488  0.1196
  511MOL0     C70448   4.991   1.449   6.816  0.7125 -0.0452  0.8571
  511MOL0     H70449   4.852   1.927   7.188 -0.8198  5.5128  3.0192
  511MOL0     H70450   4.761   2.123   7.140 -0.8565 -0.5871  2.2200
  511MOL0     H70451   4.547   2.152   6.795  2.1826  2.2336 -0.9220
  511MOL0     H70452   4.516   2.311   6.856  0.6982 -0.1608  3.6591
  511MOL0     H70453   4.305   2.098   6.903  2.2649 -1.0308 -0.7102
  511MOL0     H70454   4.282   2.278   6.900 -1.9008  0.5874 -1.3920
  511MOL0     H70455   4.329   2.258   6.645  1.6849 -3.0567 -1.9036
  511MOL0     H70456   4.330   2.075   6.675 -4.1386 -1.4270 -1.5879
  511MOL0     H70457   4.090   2.112   6.764  1.1880 -1.4725 -0.9694
  511MOL0     H70458   4.119   2.274   6.710  0.4769  1.5053 -0.9376
  511MOL0     H70459   3.985   2.095   6.579 -0.0665  1.6316  2.0032
  511MOL0     H70460   4.134   2.031   6.521 -2.0913 -2.2043  2.7352
  511MOL0     H70461   4.016   2.309   6.468  3.5373  1.4901  4.2461
  511MOL0     H70462   4.179   2.269   6.399 -0.8050  0.8042 -2.6870
  511MOL0     H70463   3.927   2.106   6.308  0.0859 -0.6901  1.9969
  511MOL0     H70464   4.095   2.099   6.257  1.1154  1.6428 -0.0623
  511MOL0     H70465   3.909   2.321   6.203  0.6657 -0.5359  4.0056
  511MOL0     H70466   4.085   2.334   6.175 -1.3201  0.9991 -0.2679
  511MOL0     H70467   4.148   2.297   5.943 -0.3647  0.3831  1.9581
  511MOL0     H70468   3.934   2.110   5.658  0.2690 -4.4468  0.9751
  511MOL0     H70469   4.103   2.056   5.704  0.2551  0.2228  0.2111
  511MOL0     H70470   4.001   2.336   5.608 -1.4336 -1.0317  0.6447
  511MOL0     H70471   4.152   2.310   5.691  0.8901  0.2441 -1.1429
  511MOL0     H70472   4.171   2.332   5.453 -1.2437  1.2805  2.8761
  511MOL0     H70473   4.212   2.166   5.480  1.0739  0.7570  4.3665
  511MOL0     H70474   4.073   2.177   5.273  0.4172 -0.5353 -0.4715
  511MOL0     H70475   3.977   2.101   5.400  3.2741 -1.2495  1.3259
  511MOL0     H70476   3.769   2.459   5.368 -0.7360  1.8549  0.2006
  511MOL0     H70477   3.624   2.645   5.227 -0.0024  1.0302 -0.7844
  511MOL0     H70478   3.710   2.801   5.218  2.7270 -0.7054 -0.6115
  511MOL0     H70479   3.680   2.713   5.374 -0.1593  0.5053  0.0871
  511MOL0     H70480   3.792   3.006   5.009  0.8719 -0.3050 -0.4841
  511MOL0     H70481   3.719   3.226   5.002  0.7719 -1.2459 -1.4445
  511MOL0     H70482   3.567   3.350   5.141 -1.5077 -0.0424 -0.6999
  511MOL0     H70483   3.584   3.501   5.227  0.5784 -3.8079  2.7803
  511MOL0     H70484   3.642   3.631   5.040 -0.0175  0.1973  0.9826
  511MOL0     H70485   3.674   3.487   4.930  0.9712 -1.6564  1.8418
  511MOL0     H70486   3.425   3.623   5.012 -0.7473 -0.5534 -1.2822
  511MOL0     H70487   3.407   3.446   4.990  3.8441 -2.5009 -1.0854
  511MOL0     H70488   3.456   3.479   4.755 -0.0796  0.2482 -1.5287
  511MOL0     H70489   3.522   3.648   4.795 -1.2957  0.4508  1.1561
  511MOL0     H70490   3.243   3.561   4.806 -0.2093  0.7795 -0.5659
  511MOL0     H70491   3.298   3.711   4.875  0.4124  0.0761 -0.4919
  511MOL0     H70492   3.324   3.630   4.583  4.0181 -1.9601  3.9690
  511MOL0     H70493   3.370   3.788   4.635  0.7614  0.2381  0.5704
  511MOL0     H70494   3.086   3.665   4.638  1.2489 -0.5691 -2.3245
  511MOL0     H70495   3.130   3.790   4.533  0.2748  1.4224 -0.1388
  511MOL0     H70496   3.180   3.915   4.767  1.0866 -1.2050 -0.6991
  511MOL0     H70497   3.081   3.792   4.835 -1.6046  0.9727  0.4108
  511MOL0     H70498   3.938   3.329   5.356  0.6081 -0.1713  0.2302
  511MOL0     H70499   4.035   3.105   5.372 -2.1070  1.4704  2.3212
  511MOL0     H70500   4.147   2.620   5.113 -0.1149  1.2241 -0.5588
  511MOL0     H70501   4.133   2.374   5.191  0.1176 -0.0708 -2.0032
  511MOL0     H70502   4.445   1.931   6.922  0.8046  1.2214  0.1345
  511MOL0     H70503   4.537   1.709   6.996 -2.8476  0.0601 -0.0021
  511MOL0     H70504   4.826   1.487   7.261  0.9094 -0.0537 -0.6292
  511MOL0     H70505   4.857   1.255   7.293  2.5475  0.5111  0.1828
  511MOL0     H70506   4.922   1.083   7.316  0.0122  1.7933 -1.7073
  511MOL0     H70507   4.828   0.981   7.215  0.0723 -4.0050  0.5687
  511MOL0     H70508   5.009   0.805   7.202 -0.7316  1.1740 -1.2078
  511MOL0     H70509   4.953   0.846   7.356  0.8893 -3.1621  0.8744
  511MOL0     H70510   5.202   0.964   7.219 -1.2355  4.3572  1.0322
  511MOL0     H70511   5.161   1.000   7.387  1.3955  1.1392 -0.9418
  511MOL0     H70512   5.226   0.726   7.288 -3.7571  0.0042 -0.4244
  511MOL0     H70513   5.201   0.761   7.463 -1.6571 -1.1693 -0.6613
  511MOL0     H70514   5.585   0.931   7.393  1.5940 -5.5794 -1.6122
  511MOL0     H70515   5.015   1.211   6.903 -1.3951 -2.8553  1.4152
  511MOL0     H70516   4.917   1.510   6.763  0.9647  1.0270  1.6934
  511MOL0     H70517   5.077   1.515   6.829 -1.4963  3.5995 -1.1970
  511MOL0     H70518   5.009   1.363   6.751 -3.0003 -0.6407  0.3765
  512MOL0     O70519   7.708   6.912   2.904  0.0229 -1.1220  0.1518
  512MOL0     C70520   7.707   6.954   3.021 -0.5811  0.3327  0.9685
  512MOL0     O70521   7.798   7.040   3.069  0.2721 -0.0905 -0.1032
  512MOL0     C70522   7.928   7.053   3.032  0.0741 -0.5316 -0.9059
  512MOL0     C70523   8.010   7.157   3.086  0.2931  0.2375  0.0289
  512MOL0     C70524   8.140   7.184   3.037  0.4424  0.6316  0.2918
  512MOL0     C70525   8.197   7.104   2.941  0.4131  0.3068  0.4066
  512MOL0     O70526   8.318   7.134   2.879  0.0757  0.1870 -0.3233
  512MOL0     C70527   8.419   7.204   2.950  0.2731  0.2403  0.0450
  512MOL0     C70528   8.563   7.157   2.908 -0.2926  0.0301 -0.0933
  512MOL0     C70529   8.602   7.035   2.981 -0.7447 -0.1842  0.5179
  512MOL0     C70530   8.545   6.910   2.903  0.2188 -0.6622  1.1023
  512MOL0     C70531   8.598   6.770   2.944  0.3902  0.1086  0.2683
  512MOL0     C70532   8.702   6.775   3.057  0.5915 -0.3401  0.0916
  512MOL0     C70533   8.757   6.631   3.066 -0.2550  0.4868  0.0407
  512MOL0     C70534   8.653   6.525   3.122 -0.3666  0.0203  0.0444
  512MOL0     N70535   8.654   6.516   3.266  0.9692  0.1794  0.3818
  512MOL0     C70536   8.727   6.434   3.338  1.1108 -0.6169 -0.4342
  512MOL0     C70537   8.693   6.461   3.458  0.4871  0.1334  0.1364
  512MOL0     C70538   8.745   6.401   3.592 -0.1536  0.3220 -0.0689
  512MOL0     C70539   8.854   6.471   3.669 -0.2314  0.0990 -0.3289
  512MOL0     C70540   8.916   6.392   3.791 -0.1638  0.6427  0.1899
  512MOL0     C70541   8.922   6.457   3.933  0.0716 -0.3174 -0.1498
  512MOL0     O70542   8.784   6.466   3.979  0.1522 -0.0237 -0.0516
  512MOL0     C70543   8.752   6.368   4.071 -1.3049  0.0790  0.1407
  512MOL0     C70544   8.673   6.263   4.039  0.4121 -0.3187  0.2340
  512MOL0     C70545   8.639   6.160   4.129 -0.6784 -1.1767 -0.4638
  512MOL0     C70546   8.565   6.040   4.079  0.2831 -0.2692 -0.5217
  512MOL0     C70547   8.677   6.178   4.261  0.6573 -0.6520  0.1290
  512MOL0     C70548   8.627   6.090   4.366 -0.0986  0.2598  0.1839
  512MOL0     O70549   8.603   6.141   4.491  0.2366 -0.0105  0.3343
  512MOL0     C70550   8.593   6.062   4.609 -0.5147  0.1624  0.6992
  512MOL0     C70551   8.683   5.964   4.647 -0.1305  0.1788 -0.7441
  512MOL0     C70552   8.689   5.908   4.769  0.1524 -0.0581 -0.2028
  512MOL0     C70553   8.583   5.927   4.853  0.3584  0.7518  0.6581
  512MOL0     O70554   8.605   5.878   4.977  0.0509  0.9729 -0.0749
  512MOL0     C70555   8.577   5.961   5.084 -0.1443 -0.4765 -0.6970
  512MOL0     C70556   8.551   5.875   5.195 -0.5707 -0.0009  0.0234
  512MOL0     C70557   8.507   5.951   5.320 -1.0788  0.1129  0.2093
  512MOL0     C70558   8.522   5.860   5.448  0.6803 -0.5191 -0.1262
  512MOL0     C70559   8.476   5.938   5.571 -0.7881  0.0386 -0.0922
  512MOL0     C70560   8.600   6.019   5.643  0.0262 -0.2445  0.2001
  512MOL0     C70561   8.548   6.151   5.704 -0.7275  0.7499  0.1641
  512MOL0     C70562   8.676   6.225   5.761  0.5613  0.0858  0.1440
  512MOL0    Cl70563   8.624   6.375   5.847  0.0972 -0.5042 -0.1881
  512MOL0     C70564   8.474   6.018   4.813 -0.2452 -0.3455 -0.3416
  512MOL0     C70565   8.479   6.087   4.688  0.2283  0.3226  0.1728
  512MOL0     O70566   8.632   5.968   4.340  0.0828 -0.8914 -1.0686
  512MOL0     C70567   8.756   6.289   4.298  0.0488  0.9538 -0.1741
  512MOL0     C70568   8.788   6.382   4.199  0.3079 -0.1829  0.2783
  512MOL0     N70569   8.593   6.553   3.457  0.4526  0.7542  0.4504
  512MOL0     N70570   8.563   6.586   3.336 -0.0365 -0.1567 -0.3743
  512MOL0     C70571   8.120   6.988   2.906 -1.2075  0.7333 -1.4460
  512MOL0     C70572   7.993   6.958   2.950  0.6272 -0.1325  0.1593
  512MOL0     C70573   7.581   6.919   3.100 -0.3959 -0.4809  0.4395
  512MOL0     C70574   7.501   6.809   3.053  0.0475  0.4852 -0.6020
  512MOL0     C70575   7.387   6.768   3.111  0.3976  0.1683  0.9016
  512MOL0     C70576   7.335   6.834   3.221 -1.0167  0.3848  0.7255
  512MOL0     O70577   7.222   6.788   3.289 -0.1830  0.1481  0.3321
  512MOL0     C70578   7.102   6.816   3.218 -0.5629  0.7146  0.9134
  512MOL0     C70579   7.040   6.956   3.239 -0.1018  0.2458  0.7734
  512MOL0     C70580   6.886   6.975   3.233 -0.2039 -1.2311 -0.8676
  512MOL0     C70581   6.834   7.114   3.276 -0.5857  0.1375 -0.3989
  512MOL0     C70582   6.854   7.145   3.420  0.4770  0.8475 -0.8142
  512MOL0     C70583   6.860   7.157   3.547 -0.6500 -0.0704  0.2596
  512MOL0     C70584   7.407   6.942   3.278 -0.0582  0.8237 -0.3161
  512MOL0     C70585   7.526   6.983   3.214  0.4168 -0.5848 -0.8665
  512MOL0     C70586   7.590   7.104   3.275  0.4573  0.6902 -0.3602
  512MOL0     H70587   7.967   7.229   3.155 -0.0960 -0.4394  0.4962
  512MOL0     H70588   8.181   7.280   3.065 -0.0650  1.9578 -3.0817
  512MOL0     H70589   8.405   7.201   3.058  0.9042 -1.8813  0.1214
  512MOL0     H70590   8.399   7.302   2.906 -0.6069 -0.8092 -2.0496
  512MOL0     H70591   8.581   7.157   2.800  3.2828  1.9229  0.3819
  512MOL0     H70592   8.636   7.227   2.949 -0.9038  1.7611 -1.8319
  512MOL0     H70593   8.711   7.032   2.990 -0.6977 -0.0234  0.0497
  512MOL0     H70594   8.566   7.035   3.084 -0.3186  2.0750  0.7212
  512MOL0     H70595   8.435   6.910   2.904  0.2033 -2.0732  1.3442
  512MOL0     H70596   8.579   6.919   2.799 -1.3173 -1.4488  0.4962
  512MOL0     H70597   8.629   6.718   2.853 -2.0763 -1.2898  0.1615
  512MOL0     H70598   8.506   6.723   2.978  1.1146 -3.4045 -2.1641
  512MOL0     H70599   8.785   6.841   3.028  1.6148 -0.1660  3.0582
  512MOL0     H70600   8.657   6.812   3.149 -0.0688  0.3485 -0.5019
  512MOL0     H70601   8.844   6.625   3.133 -2.7669  0.4776  3.5665
  512MOL0     H70602   8.780   6.588   2.968  0.0345 -0.8260  0.6654
  512MOL0     H70603   8.551   6.552   3.091 -0.6339 -0.3543  0.5721
  512MOL0     H70604   8.679   6.428   3.078 -0.2638 -0.1511  0.4712
  512MOL0     H70605   8.798   6.355   3.315 -0.5805 -2.4342  0.4114
  512MOL0     H70606   8.763   6.296   3.568 -2.2055  0.3615 -2.1555
  512MOL0     H70607   8.661   6.396   3.662  0.7669 -0.1285  1.0218
  512MOL0     H70608   8.941   6.495   3.607  2.3591 -2.1399  2.1527
  512MOL0     H70609   8.822   6.572   3.695 -0.5279  0.3657 -1.6189
  512MOL0     H70610   8.863   6.297   3.801  1.7491 -0.5098  0.0880
  512MOL0     H70611   9.018   6.360   3.769  0.2465  0.3650  2.2650
  512MOL0     H70612   8.992   6.395   3.990  1.0297 -0.4257 -1.4038
  512MOL0     H70613   8.954   6.562   3.933 -2.8511  0.7149 -1.5238
  512MOL0     H70614   8.659   6.249   3.933 -1.0978 -4.8969  0.8093
  512MOL0     H70615   8.632   5.955   4.066  1.6021  0.6357  0.1452
  512MOL0     H70616   8.539   6.069   3.976  4.3575  0.2622 -1.5761
  512MOL0     H70617   8.480   6.013   4.142  0.9311 -3.4843 -0.8622
  512MOL0     H70618   8.740   5.929   4.561  0.4698  2.4944 -1.3655
  512MOL0     H70619   8.763   5.832   4.794 -1.7747 -1.3567  1.9484
  512MOL0     H70620   8.663   6.025   5.106 -0.3255  0.2586 -2.0017
  512MOL0     H70621   8.488   6.024   5.072  0.2543  0.2136 -0.1226
  512MOL0     H70622   8.466   5.819   5.156 -1.2693  0.7157  0.4798
  512MOL0     H70623   8.634   5.808   5.217 -4.3207 -5.0037  0.5978
  512MOL0     H70624   8.404   5.985   5.302 -0.5252  1.4173 -0.7336
  512MOL0     H70625   8.566   6.042   5.336  1.6591 -2.0855  4.5213
  512MOL0     H70626   8.620   5.813   5.458  0.4692 -1.3466 -1.6900
  512MOL0     H70627   8.445   5.785   5.425 -0.7250  1.7651 -3.7881
  512MOL0     H70628   8.400   6.013   5.546 -1.0954 -0.1501  0.2631
  512MOL0     H70629   8.434   5.861   5.637  2.6868 -2.1275 -0.1802
  512MOL0     H70630   8.659   6.049   5.555  0.2676 -0.0117  0.4394
  512MOL0     H70631   8.658   5.960   5.715  2.1201  1.2122 -0.1791
  512MOL0     H70632   8.474   6.136   5.782 -1.1148  0.2857 -0.2858
  512MOL0     H70633   8.505   6.213   5.625 -1.6185 -3.1572 -2.7610
  512MOL0     H70634   8.749   6.252   5.683 -1.6614  2.3080 -1.3050
  512MOL0     H70635   8.724   6.167   5.840  0.9546  0.1635 -0.0355
  512MOL0     H70636   8.393   6.043   4.880  2.6257 -0.1576  3.3323
  512MOL0     H70637   8.403   6.155   4.652 -1.4054 -2.6140 -2.4004
  512MOL0     H70638   8.781   6.305   4.402 -1.1623  1.7360  0.0169
  512MOL0     H70639   8.844   6.468   4.234  1.6099 -0.7470 -0.3222
  512MOL0     H70640   8.162   6.911   2.843 -2.5893 -2.6219  1.3878
  512MOL0     H70641   7.945   6.865   2.919  1.4815  0.0078 -1.7341
  512MOL0     H70642   7.529   6.749   2.967  2.2716  3.0488 -1.8303
  512MOL0     H70643   7.344   6.681   3.061  2.7231  0.7635 -2.4597
  512MOL0     H70644   7.108   6.802   3.110 -0.6605 -2.3876  1.2145
  512MOL0     H70645   7.019   6.749   3.243  0.1719 -2.0475 -3.0812
  512MOL0     H70646   7.076   7.028   3.164  0.5835 -0.5914  0.2842
  512MOL0     H70647   7.079   6.992   3.335 -0.3415 -2.0760  1.8095
  512MOL0     H70648   6.860   6.963   3.128 -0.6603  3.0240 -1.4159
  512MOL0     H70649   6.842   6.897   3.296 -0.1699 -0.3522  0.2750
  512MOL0     H70650   6.726   7.103   3.268 -0.5527 -1.0428  0.4540
  512MOL0     H70651   6.856   7.198   3.211  0.9999  0.1096  0.0603
  512MOL0     H70652   6.863   7.176   3.652 -3.0952 -2.6689  0.9355
  512MOL0     H70653   7.371   6.994   3.367  0.7512 -0.3944  0.7602
  512MOL0     H70654   7.519   7.156   3.340 -0.4645 -1.8984  0.8142
  512MOL0     H70655   7.679   7.078   3.331 -0.0498 -3.5638 -1.1530
  512MOL0     H70656   7.619   7.178   3.199 -2.1846  0.5519 -1.6348
  513MOL0     O70657  11.132   3.897   6.277  0.5372  0.6615 -0.1489
  513MOL0     C70658  11.117   4.011   6.278  0.0287 -0.3063 -0.4497
  513MOL0     O70659  11.005   4.083   6.317 -0.7169 -0.5926  0.6705
  513MOL0     C70660  10.891   4.008   6.335 -0.3708 -0.0476 -0.6127
  513MOL0     C70661  10.854   3.974   6.467  0.1116 -0.8449  1.0183
  513MOL0     C70662  10.728   3.921   6.493  0.1365  0.2271  0.3367
  513MOL0     C70663  10.634   3.891   6.395 -0.0925 -0.7032  0.5005
  513MOL0     O70664  10.513   3.835   6.432 -0.4088 -0.7170 -0.0816
  513MOL0     C70665  10.423   3.828   6.324  1.0780 -0.0309  0.2784
  513MOL0     C70666  10.282   3.773   6.374  0.1680 -0.2822 -0.4626
  513MOL0     C70667  10.279   3.622   6.385  0.0633  0.4380  0.0855
  513MOL0     C70668  10.290   3.559   6.246 -0.3010  0.2847 -0.6104
  513MOL0     C70669  10.162   3.473   6.216  0.5465 -0.3736  0.0874
  513MOL0     C70670  10.169   3.396   6.080 -0.0769  0.4895 -0.4326
  513MOL0     C70671  10.228   3.248   6.099  0.1880  0.1427 -0.6127
  513MOL0     C70672  10.135   3.149   6.166  0.3605  0.1475 -0.0858
  513MOL0     N70673  10.026   3.100   6.069  0.1452  0.6447 -0.6023
  513MOL0     C70674  10.043   3.046   5.938  0.0632  0.3775 -0.5273
  513MOL0     C70675   9.906   3.037   5.899 -0.1916 -0.7567  0.3225
  513MOL0     C70676   9.852   2.991   5.764 -0.1694 -0.0646 -0.2034
  513MOL0     C70677   9.715   2.915   5.780  0.5613 -0.5931 -0.2238
  513MOL0     C70678   9.681   2.866   5.634 -0.1452 -0.0206  0.7219
  513MOL0     C70679   9.542   2.822   5.629  1.1139  0.6878 -0.1515
  513MOL0     O70680   9.517   2.738   5.510 -0.3328 -0.5162 -0.6020
  513MOL0     C70681   9.394   2.681   5.503  0.8570  0.2236 -0.3863
  513MOL0     C70682   9.370   2.577   5.417 -0.0100 -0.3826  0.0053
  513MOL0     C70683   9.254   2.500   5.412 -0.9263 -0.1261 -0.3234
  513MOL0     C70684   9.253   2.398   5.294  1.3437  0.1443  0.4911
  513MOL0     C70685   9.154   2.528   5.517 -0.0808  0.4087  0.4960
  513MOL0     C70686   9.041   2.436   5.547 -0.5199  0.9219 -0.1661
  513MOL0     O70687   8.997   2.335   5.460  0.6087  0.0874  0.7440
  513MOL0     C70688   8.906   2.253   5.517 -0.0035  0.5775 -0.2481
  513MOL0     C70689   8.922   2.122   5.532 -0.2348  0.5483 -0.1329
  513MOL0     C70690   8.825   2.036   5.582  0.8429  0.1464  0.9736
  513MOL0     C70691   8.699   2.075   5.615 -0.8972 -0.1283 -0.2634
  513MOL0     O70692   8.609   1.982   5.651 -0.0607 -0.4199  0.9245
  513MOL0     C70693   8.625   1.909   5.772  0.2729 -0.5682  0.8915
  513MOL0     C70694   8.488   1.899   5.838 -0.3393 -0.3435 -0.2456
  513MOL0     C70695   8.411   2.044   5.858 -0.2171  0.4223 -0.5281
  513MOL0     C70696   8.460   2.138   5.964  0.3354 -0.2324 -0.0818
  513MOL0     C70697   8.425   2.287   5.931  0.5842  0.2174 -0.3169
  513MOL0     C70698   8.455   2.384   6.047  0.0814 -0.8390  0.8182
  513MOL0     C70699   8.583   2.469   6.020  1.3488  0.0031  0.5962
  513MOL0     C70700   8.718   2.388   6.007 -0.3530  0.1077  0.2871
  513MOL0    Cl70701   8.772   2.340   6.160 -0.0052 -0.3317  0.0329
  513MOL0     C70702   8.663   2.209   5.600 -0.7936 -0.4607 -0.4329
  513MOL0     C70703   8.766   2.302   5.549 -0.4545  0.1737 -0.4381
  513MOL0     O70704   8.976   2.464   5.654 -0.2957 -0.6403  1.3087
  513MOL0     C70705   9.167   2.651   5.583  0.6425  0.7286  0.3733
  513MOL0     C70706   9.280   2.729   5.575 -0.0030 -0.5273 -0.3565
  513MOL0     N70707   9.829   3.096   5.993  0.4492  0.0303  0.2385
  513MOL0     N70708   9.899   3.142   6.092  0.3814  0.2350 -0.3007
  513MOL0     C70709  10.677   3.935   6.262  0.0142 -0.1845  0.0389
  513MOL0     C70710  10.801   3.990   6.238  0.1683 -0.0892  0.3432
  513MOL0     C70711  11.228   4.083   6.230 -0.6032  0.1967  0.1293
  513MOL0     C70712  11.278   4.195   6.304  0.7935 -0.3407 -0.1144
  513MOL0     C70713  11.387   4.272   6.260 -0.6570 -0.1095  0.1342
  513MOL0     C70714  11.440   4.253   6.131 -0.0780  1.1175  0.1644
  513MOL0     O70715  11.529   4.342   6.074 -0.4613 -0.0302 -1.3413
  513MOL0     C70716  11.570   4.332   5.943 -0.6569 -0.0014  0.4629
  513MOL0     C70717  11.691   4.418   5.899  0.2201 -1.0740  1.0348
  513MOL0     C70718  11.633   4.560   5.869  0.5096  0.5498  0.2772
  513MOL0     C70719  11.743   4.658   5.822  0.6110  0.4154 -0.0993
  513MOL0     C70720  11.864   4.656   5.912  0.7675 -0.9903 -0.4078
  513MOL0     C70721  11.953   4.682   5.988 -1.4341  0.1512 -0.0795
  513MOL0     C70722  11.388   4.142   6.066 -0.4340  0.5765  0.2688
  513MOL0     C70723  11.290   4.054   6.102  0.1387  1.3323  0.5598
  513MOL0     C70724  11.245   3.948   6.000  0.8009  0.8197  0.2346
  513MOL0     H70725  10.930   3.980   6.544  3.4328 -1.1553 -1.9477
  513MOL0     H70726  10.700   3.871   6.585  2.5685 -3.5564 -0.7326
  513MOL0     H70727  10.463   3.760   6.249  2.7127 -1.0518  1.9936
  513MOL0     H70728  10.411   3.933   6.298 -1.3443 -0.1760  0.5263
  513MOL0     H70729  10.276   3.810   6.477 -1.6373  2.8226 -1.5438
  513MOL0     H70730  10.196   3.823   6.329 -0.2180  0.7884  1.3575
  513MOL0     H70731  10.367   3.574   6.430 -0.1284 -1.5111 -1.4429
  513MOL0     H70732  10.189   3.594   6.440 -0.3292  0.6603 -0.4386
  513MOL0     H70733  10.306   3.643   6.179  1.8423  2.9511  2.8828
  513MOL0     H70734  10.375   3.490   6.247 -0.0986  0.5200  0.8432
  513MOL0     H70735  10.075   3.538   6.205 -1.8045 -3.3187  0.1894
  513MOL0     H70736  10.139   3.409   6.302 -1.7573  3.2613  2.4361
  513MOL0     H70737  10.068   3.399   6.037 -0.5335 -2.6204  0.2298
  513MOL0     H70738  10.232   3.455   6.012 -2.4285  0.6502 -2.6260
  513MOL0     H70739  10.317   3.256   6.163  0.6494 -0.4633 -1.1690
  513MOL0     H70740  10.243   3.201   6.002  1.5853  0.2543 -0.4656
  513MOL0     H70741  10.187   3.060   6.203  0.7732 -0.4090 -1.8945
  513MOL0     H70742  10.088   3.195   6.253  2.6433  0.6705  0.9415
  513MOL0     H70743  10.138   3.012   5.897  0.1823 -0.5815  0.4977
  513MOL0     H70744   9.930   2.917   5.746  0.6861  0.7816 -0.0292
  513MOL0     H70745   9.853   3.075   5.694 -1.2242  0.1856  0.0496
  513MOL0     H70746   9.727   2.824   5.840 -0.7804 -0.3275  0.5009
  513MOL0     H70747   9.637   2.981   5.820 -0.2823 -1.6925 -0.0061
  513MOL0     H70748   9.683   2.945   5.559  3.4363 -1.2472 -0.6660
  513MOL0     H70749   9.746   2.780   5.615 -2.5484 -1.3193 -2.4441
  513MOL0     H70750   9.522   2.757   5.715  2.0218 -1.0338 -1.1944
  513MOL0     H70751   9.470   2.904   5.621 -4.2257 -3.6180 -2.8200
  513MOL0     H70752   9.446   2.535   5.352 -2.3169 -1.1250 -2.3509
  513MOL0     H70753   9.235   2.292   5.313  1.0712  0.0918 -0.0357
  513MOL0     H70754   9.342   2.400   5.231  1.0106 -3.6425 -0.3358
  513MOL0     H70755   9.174   2.419   5.222  1.1329  1.4773  1.0813
  513MOL0     H70756   9.014   2.084   5.488  0.8915 -1.1651  3.3523
  513MOL0     H70757   8.852   1.930   5.584  0.5058 -0.1155 -2.4264
  513MOL0     H70758   8.666   1.810   5.747  0.0064 -0.7665  1.2342
  513MOL0     H70759   8.698   1.963   5.833 -0.1203  0.9145  0.1022
  513MOL0     H70760   8.431   1.828   5.777 -0.3086  1.1749 -2.1275
  513MOL0     H70761   8.507   1.859   5.938 -2.4954  1.7736  1.1445
  513MOL0     H70762   8.306   2.021   5.875 -0.0537  2.0140  3.9338
  513MOL0     H70763   8.417   2.100   5.764  0.1843  0.4367 -0.4996
  513MOL0     H70764   8.569   2.141   5.960  0.3189 -0.5868 -0.9480
  513MOL0     H70765   8.420   2.106   6.060 -0.2320 -0.2705 -0.3265
  513MOL0     H70766   8.472   2.316   5.836 -0.7103 -4.1655 -2.5754
  513MOL0     H70767   8.316   2.281   5.919  0.6074 -2.2894  0.1285
  513MOL0     H70768   8.476   2.331   6.140  1.3099  0.7040  1.4572
  513MOL0     H70769   8.365   2.446   6.058  1.9433  2.2550 -0.0718
  513MOL0     H70770   8.607   2.537   6.102 -0.3725  0.1388  1.0143
  513MOL0     H70771   8.562   2.525   5.929 -2.0029  0.6990  1.6622
  513MOL0     H70772   8.792   2.457   5.964  1.5690 -0.6325  2.2274
  513MOL0     H70773   8.711   2.312   5.928  1.1977 -0.8975  1.0684
  513MOL0     H70774   8.562   2.240   5.624 -2.6615 -3.2504 -3.7632
  513MOL0     H70775   8.739   2.406   5.534 -3.1941 -0.2695  0.8125
  513MOL0     H70776   9.081   2.685   5.641 -0.9457 -0.9556 -0.8884
  513MOL0     H70777   9.276   2.828   5.620 -2.6024 -0.8218  0.2605
  513MOL0     H70778  10.606   3.931   6.180  0.2208  0.0161 -0.1485
  513MOL0     H70779  10.815   4.036   6.141 -2.9707 -0.9719 -0.6601
  513MOL0     H70780  11.235   4.224   6.399  2.6581 -1.2164  1.0397
  513MOL0     H70781  11.429   4.353   6.319  1.3048 -0.5366 -0.5845
  513MOL0     H70782  11.598   4.229   5.918  1.1225  0.6123 -0.1858
  513MOL0     H70783  11.481   4.359   5.886 -0.1221  0.6280 -0.0851
  513MOL0     H70784  11.730   4.382   5.803 -1.1768  1.8197 -0.7558
  513MOL0     H70785  11.779   4.406   5.964  0.3696 -2.8868  0.5540
  513MOL0     H70786  11.560   4.545   5.789 -1.7909  1.6505  2.0488
  513MOL0     H70787  11.584   4.600   5.958 -2.1639 -3.4877  0.8647
  513MOL0     H70788  11.701   4.758   5.836  2.1544  0.9694  0.9021
  513MOL0     H70789  11.775   4.627   5.722  1.6282  0.2264  0.2690
  513MOL0     H70790  12.028   4.704   6.060 -2.7431  0.3978  1.2542
  513MOL0     H70791  11.422   4.121   5.965  0.8488 -0.5833  0.9186
  513MOL0     H70792  11.330   3.884   5.974  0.1562  0.8720 -2.1476
  513MOL0     H70793  11.163   3.881   6.029  0.3303  0.9248 -0.8223
  513MOL0     H70794  11.204   3.992   5.909  1.9739  1.0564 -0.2018
  514MOL0     O70795   4.918   8.674   3.634  0.8618  0.7873  0.2523
  514MOL0     C70796   5.032   8.721   3.629 -1.0096 -0.1367 -0.5400
  514MOL0     O70797   5.151   8.687   3.696 -0.3496 -0.6445  0.5759
  514MOL0     C70798   5.155   8.574   3.764  0.0209 -0.3496 -0.3984
  514MOL0     C70799   5.123   8.442   3.713  0.4838  0.7610  0.6528
  514MOL0     C70800   5.141   8.325   3.787 -0.4234 -0.4611 -0.9875
  514MOL0     C70801   5.183   8.341   3.920  0.2759  0.2022 -0.0555
  514MOL0     O70802   5.200   8.226   3.996  0.0667  0.0469  0.1711
  514MOL0     C70803   5.211   8.236   4.138 -0.6520  0.3514  0.3435
  514MOL0     C70804   5.171   8.105   4.209  0.6504  0.8434 -0.4864
  514MOL0     C70805   5.023   8.076   4.178  1.0009 -0.0321 -0.3013
  514MOL0     C70806   4.946   8.018   4.302 -0.0698 -0.2414 -0.6397
  514MOL0     C70807   4.806   7.974   4.282 -0.1053 -0.2039  0.0102
  514MOL0     C70808   4.786   7.866   4.170  0.6376 -0.7712 -1.1029
  514MOL0     C70809   4.771   7.901   4.024  1.1206  0.9285 -0.3675
  514MOL0     C70810   4.718   7.786   3.929 -0.2011 -0.9575 -0.3385
  514MOL0     N70811   4.811   7.676   3.929  0.2031  1.7895  0.8301
  514MOL0     C70812   4.940   7.679   3.876 -0.7762  0.2940  1.1719
  514MOL0     C70813   4.985   7.558   3.900 -0.8693  0.3576  0.5134
  514MOL0     C70814   5.119   7.500   3.881  0.2261  0.0143 -0.6350
  514MOL0     C70815   5.128   7.407   3.759 -0.0228 -0.7879 -0.8100
  514MOL0     C70816   5.266   7.329   3.768 -0.6072 -0.7550 -1.3826
  514MOL0     C70817   5.372   7.422   3.719  0.3064  0.8004  0.4651
  514MOL0     O70818   5.350   7.458   3.585 -0.6188 -0.3638 -0.4967
  514MOL0     C70819   5.446   7.444   3.485  0.2559  0.4436  0.1760
  514MOL0     C70820   5.457   7.538   3.381 -0.0783  0.5240 -1.1891
  514MOL0     C70821   5.553   7.535   3.286 -0.8885  0.1488  0.6967
  514MOL0     C70822   5.560   7.651   3.192 -0.0507 -0.0497 -0.2044
  514MOL0     C70823   5.638   7.419   3.277 -0.5142 -0.9468 -0.3867
  514MOL0     C70824   5.743   7.400   3.171  0.9564  0.0813  1.0251
  514MOL0     O70825   5.741   7.266   3.123 -0.9704  0.8568  0.4829
  514MOL0     C70826   5.840   7.232   3.029 -0.1121 -0.3347 -0.7761
  514MOL0     C70827   5.972   7.249   3.076  0.5014 -0.3518  0.0213
  514MOL0     C70828   6.073   7.217   2.991 -0.4602  0.8081  0.0996
  514MOL0     C70829   6.051   7.158   2.874  0.8132 -0.4917 -0.0401
  514MOL0     O70830   6.158   7.127   2.794  0.2755 -0.1445 -0.3833
  514MOL0     C70831   6.273   7.220   2.782  0.4558 -1.0790 -0.1520
  514MOL0     C70832   6.388   7.139   2.717 -0.5206  0.5509 -0.3401
  514MOL0     C70833   6.423   7.007   2.777 -0.2042  0.4178 -0.5288
  514MOL0     C70834   6.443   7.002   2.934 -0.3781 -0.0049  0.3571
  514MOL0     C70835   6.478   6.867   2.995 -0.2258  1.0692  0.2906
  514MOL0     C70836   6.502   6.865   3.146 -0.2127 -0.6368  0.6502
  514MOL0     C70837   6.514   6.724   3.193 -0.4597  0.6385  0.4005
  514MOL0     C70838   6.535   6.738   3.347 -0.5964 -0.4616  0.2594
  514MOL0    Cl70839   6.560   6.582   3.438 -0.1817 -0.6488 -0.2853
  514MOL0     C70840   5.921   7.151   2.827 -0.2000 -0.4930 -0.2666
  514MOL0     C70841   5.809   7.193   2.897 -0.7279 -0.1229 -1.0263
  514MOL0     O70842   5.801   7.498   3.125  0.0619 -0.4071  0.6453
  514MOL0     C70843   5.615   7.305   3.372  0.4164 -1.0533  0.7222
  514MOL0     C70844   5.526   7.327   3.480  0.8737  0.2275 -1.1733
  514MOL0     N70845   4.892   7.492   3.979  0.6654 -0.2025  0.2192
  514MOL0     N70846   4.782   7.559   3.995  0.1230  0.7600  0.0133
  514MOL0     C70847   5.221   8.464   3.971 -1.1831 -0.1405  0.4584
  514MOL0     C70848   5.209   8.575   3.893  0.4153 -0.0867 -0.7389
  514MOL0     C70849   5.050   8.835   3.534 -0.6426  0.0115  1.0057
  514MOL0     C70850   4.935   8.919   3.507  0.1677  0.0429  0.6414
  514MOL0     C70851   4.937   9.007   3.402 -0.6677  0.2591  0.4316
  514MOL0     C70852   5.041   9.019   3.307 -0.0047 -0.8731  0.0571
  514MOL0     O70853   5.017   9.122   3.218  0.2401  0.4502 -0.4336
  514MOL0     C70854   5.019   9.084   3.085 -0.1289  0.3238 -0.0258
  514MOL0     C70855   5.023   9.213   2.993 -1.0988  0.3055  0.5647
  514MOL0     C70856   5.017   9.176   2.840 -0.8321 -0.3332 -0.0068
  514MOL0     C70857   5.092   9.284   2.757 -0.2277 -0.3880 -1.1336
  514MOL0     C70858   5.007   9.405   2.737  0.1680  0.1989 -0.2731
  514MOL0     C70859   4.926   9.497   2.720 -0.3029  0.0184 -0.8561
  514MOL0     C70860   5.150   8.944   3.331 -0.7731  0.3657 -0.2240
  514MOL0     C70861   5.159   8.846   3.437 -0.8681  0.0705 -0.7041
  514MOL0     C70862   5.289   8.764   3.436  1.3772  0.5981  1.1085
  514MOL0     H70863   5.089   8.436   3.611 -0.2901 -0.1427  0.9461
  514MOL0     H70864   5.131   8.228   3.738  3.8339 -0.2642 -2.6639
  514MOL0     H70865   5.140   8.313   4.169 -0.9347  1.2530 -2.3511
  514MOL0     H70866   5.318   8.256   4.151  0.0398  0.8740 -4.5733
  514MOL0     H70867   5.242   8.031   4.170  1.3903  0.2674  1.8001
  514MOL0     H70868   5.193   8.113   4.316 -0.6713 -1.5870  0.0471
  514MOL0     H70869   4.963   8.162   4.147 -1.1481 -0.8827  1.2074
  514MOL0     H70870   5.016   7.993   4.107  0.3797 -1.7660  1.6736
  514MOL0     H70871   4.995   7.931   4.346 -2.4689 -2.1852 -1.6060
  514MOL0     H70872   4.943   8.103   4.371  1.1999 -0.0544 -0.7880
  514MOL0     H70873   4.748   8.058   4.243  1.3269 -0.6509 -3.4280
  514MOL0     H70874   4.765   7.948   4.380  0.0330 -0.0051  0.1214
  514MOL0     H70875   4.876   7.805   4.184  2.3603  1.8625 -0.0541
  514MOL0     H70876   4.694   7.809   4.189  3.1418 -3.9206  3.4246
  514MOL0     H70877   4.870   7.930   3.989  1.1883 -0.9926 -1.9730
  514MOL0     H70878   4.709   7.991   4.020 -1.9053 -1.0050 -1.4420
  514MOL0     H70879   4.616   7.758   3.957 -1.9570  4.0342 -0.7330
  514MOL0     H70880   4.707   7.827   3.829 -0.8022 -2.8616 -1.0949
  514MOL0     H70881   5.006   7.753   3.830  1.6221 -2.9753 -1.1386
  514MOL0     H70882   5.164   7.458   3.971  0.4183 -1.1215 -1.2399
  514MOL0     H70883   5.172   7.594   3.857 -3.9642  2.8581  0.2355
  514MOL0     H70884   5.033   7.352   3.755 -1.4880  1.5352  0.0430
  514MOL0     H70885   5.127   7.468   3.667 -3.1768  2.1880  0.9441
  514MOL0     H70886   5.283   7.302   3.873 -3.7600 -3.7203 -1.4754
  514MOL0     H70887   5.275   7.238   3.709  1.3894 -0.6872 -1.2254
  514MOL0     H70888   5.381   7.515   3.776 -2.0540 -0.3313  2.9022
  514MOL0     H70889   5.464   7.367   3.737 -0.4230 -0.1608  1.4072
  514MOL0     H70890   5.393   7.626   3.384 -1.7505 -0.6189  2.8926
  514MOL0     H70891   5.489   7.725   3.229 -4.6324 -2.5774 -3.0303
  514MOL0     H70892   5.538   7.625   3.088  1.5699  2.1707 -1.1878
  514MOL0     H70893   5.662   7.692   3.183 -0.3606  1.5454  2.4709
  514MOL0     H70894   5.991   7.296   3.171  2.7679  0.8257 -0.9305
  514MOL0     H70895   6.171   7.236   3.034 -0.4661  0.7642  0.1330
  514MOL0     H70896   6.257   7.317   2.733  1.4895 -0.7394  0.1578
  514MOL0     H70897   6.307   7.260   2.878  1.2436  2.0689 -1.6077
  514MOL0     H70898   6.375   7.122   2.610  2.5725  0.3963 -0.7672
  514MOL0     H70899   6.475   7.205   2.729  0.9466 -1.4097  0.2295
  514MOL0     H70900   6.502   6.964   2.716 -1.4011 -1.2736 -0.9753
  514MOL0     H70901   6.344   6.941   2.740 -0.2450  0.4753 -0.5455
  514MOL0     H70902   6.348   7.034   2.978 -0.1959 -0.4793  1.1107
  514MOL0     H70903   6.522   7.070   2.966  0.7033 -0.8891 -0.3367
  514MOL0     H70904   6.400   6.794   2.975  1.1964 -1.7035  3.7457
  514MOL0     H70905   6.565   6.820   2.948  0.1623  1.6145  0.4477
  514MOL0     H70906   6.422   6.926   3.190  1.3041  0.0721  2.5837
  514MOL0     H70907   6.596   6.920   3.159 -1.9224  2.2052  2.0611
  514MOL0     H70908   6.601   6.679   3.144  0.5685  1.7520  1.1716
  514MOL0     H70909   6.426   6.660   3.176  0.2230 -0.7110  1.6798
  514MOL0     H70910   6.439   6.778   3.381 -1.1237  0.4447 -2.1053
  514MOL0     H70911   6.616   6.811   3.359  0.6022 -0.1291 -6.3150
  514MOL0     H70912   5.899   7.124   2.724  1.5577  0.1262 -0.8372
  514MOL0     H70913   5.708   7.188   2.858 -1.7924  1.3772  1.2872
  514MOL0     H70914   5.672   7.214   3.356 -3.4918 -3.8562  1.2337
  514MOL0     H70915   5.508   7.253   3.557 -1.7901  2.6022  0.7052
  514MOL0     H70916   5.281   8.491   4.057  2.0564  1.5673 -2.0672
  514MOL0     H70917   5.261   8.666   3.922  2.6913 -2.0304  1.7826
  514MOL0     H70918   4.853   8.910   3.578 -0.4166 -2.7096 -0.2600
  514MOL0     H70919   4.851   9.072   3.388 -0.7353  0.3339  1.1513
  514MOL0     H70920   5.118   9.043   3.064  1.5258  4.0181 -0.1466
  514MOL0     H70921   4.952   9.004   3.054  1.8779 -1.8629  0.9200
  514MOL0     H70922   5.121   9.260   3.004  0.9444 -1.9901 -4.6089
  514MOL0     H70923   4.949   9.292   3.013  0.5141  1.0051  4.8583
  514MOL0     H70924   5.069   9.085   2.809  1.0532  0.2022  1.3538
  514MOL0     H70925   4.917   9.167   2.799 -1.1288  3.2061 -0.3852
  514MOL0     H70926   5.106   9.255   2.652  0.8001 -2.1048 -0.5604
  514MOL0     H70927   5.192   9.299   2.797  0.5042 -2.9150 -1.8684
  514MOL0     H70928   4.862   9.581   2.699  0.1918 -0.2987 -4.2827
  514MOL0     H70929   5.236   8.953   3.265 -0.1464  0.9342  0.6484
  514MOL0     H70930   5.270   8.657   3.450  1.9109  0.3484 -0.0580
  514MOL0     H70931   5.341   8.776   3.341 -2.4091  0.6307 -1.1692
  514MOL0     H70932   5.357   8.793   3.516  2.8326 -1.4255  0.6894
  515MOL0     O70933   4.130  11.577   7.427 -0.0316  0.0686 -0.1855
  515MOL0     C70934   4.058  11.642   7.504 -0.0950  0.2395 -0.8602
  515MOL0     O70935   3.933  11.688   7.477  0.3049  0.1742 -0.7417
  515MOL0     C70936   3.861  11.629   7.375  0.3001  0.5424 -0.3520
  515MOL0     C70937   3.885  11.656   7.242  0.8075 -0.1032 -0.3582
  515MOL0     C70938   3.803  11.599   7.143  0.3161  0.7480  0.7902
  515MOL0     C70939   3.674  11.536   7.179 -1.5329 -0.1983  0.5925
  515MOL0     O70940   3.583  11.487   7.089 -0.6083  0.4335 -0.8166
  515MOL0     C70941   3.654  11.394   7.001 -0.2627  0.4653 -0.2126
  515MOL0     C70942   3.733  11.275   7.062 -0.3013  0.2417 -0.3032
  515MOL0     C70943   3.652  11.193   7.169  0.1175  0.5290 -0.1121
  515MOL0     C70944   3.694  11.043   7.180  0.1488 -0.6635 -0.1606
  515MOL0     C70945   3.623  10.957   7.279 -0.1486  0.4624  0.6834
  515MOL0     C70946   3.630  11.001   7.428 -0.6683 -0.8226  0.4926
  515MOL0     C70947   3.551  10.908   7.519  0.1475  0.0675  1.1349
  515MOL0     C70948   3.570  10.934   7.669 -0.5568  0.1262  0.6811
  515MOL0     N70949   3.519  11.057   7.724 -1.2467 -0.6703  1.3293
  515MOL0     C70950   3.395  11.079   7.772  0.6855 -0.3420  0.3476
  515MOL0     C70951   3.396  11.178   7.864  0.5197 -0.4345  0.5041
  515MOL0     C70952   3.283  11.230   7.948  0.6211 -0.8716 -0.5937
  515MOL0     C70953   3.245  11.367   7.890 -0.9110 -0.9737  0.3661
  515MOL0     C70954   3.318  11.470   7.979  0.6174 -0.2257  0.4659
  515MOL0     C70955   3.310  11.608   7.915 -0.1880  0.3713 -0.4120
  515MOL0     O70956   3.399  11.607   7.802 -0.1515  0.3567 -0.1697
  515MOL0     C70957   3.377  11.698   7.709 -0.3741 -0.8232  0.0786
  515MOL0     C70958   3.308  11.820   7.728 -0.0795  1.3664 -0.2843
  515MOL0     C70959   3.284  11.913   7.623  0.8275 -0.5415 -0.1289
  515MOL0     C70960   3.223  12.043   7.670 -0.4992 -0.7692  0.5287
  515MOL0     C70961   3.344  11.885   7.495 -0.0864  0.4599 -0.6189
  515MOL0     C70962   3.328  11.974   7.378 -0.0817 -0.1333 -0.2622
  515MOL0     O70963   3.221  12.064   7.380 -0.3233  0.3957 -0.3022
  515MOL0     C70964   3.204  12.132   7.260  0.2970  0.5288  0.2484
  515MOL0     C70965   3.153  12.065   7.153  0.6289 -0.2205  0.0238
  515MOL0     C70966   3.106  12.130   7.039 -1.2115  0.6593  0.5672
  515MOL0     C70967   3.140  12.268   7.028  0.0978  0.0905  0.4987
  515MOL0     O70968   3.097  12.329   6.910 -1.0209  0.6637 -0.0677
  515MOL0     C70969   3.055  12.465   6.922  0.0279  0.3081 -0.7173
  515MOL0     C70970   2.944  12.495   6.818 -0.8017  0.2495  0.8293
  515MOL0     C70971   2.803  12.421   6.858 -0.3617  0.2709 -0.3822
  515MOL0     C70972   2.681  12.494   6.811  0.0088 -1.1844  0.2494
  515MOL0     C70973   2.555  12.426   6.867  0.2604  0.7957 -1.0473
  515MOL0     C70974   2.543  12.456   7.021  0.2884 -0.4255  0.8530
  515MOL0     C70975   2.438  12.362   7.083 -0.1153  0.2341  0.2197
  515MOL0     C70976   2.360  12.418   7.199 -0.6179  0.8650  0.6590
  515MOL0    Cl70977   2.473  12.501   7.311 -0.4390 -0.0068 -0.5680
  515MOL0     C70978   3.180  12.340   7.137  1.4348  0.1840 -1.2906
  515MOL0     C70979   3.218  12.273   7.250 -0.0275 -0.5880  0.0248
  515MOL0     O70980   3.404  11.958   7.289  0.0251 -0.2201 -0.2766
  515MOL0     C70981   3.416  11.762   7.475  0.3900 -0.1878 -0.4003
  515MOL0     C70982   3.421  11.670   7.587  0.0688  0.3957  0.3514
  515MOL0     N70983   3.529  11.210   7.872 -0.1442  1.0599 -0.3682
  515MOL0     N70984   3.599  11.136   7.794  0.1724  0.1775  0.5355
  515MOL0     C70985   3.648  11.519   7.313 -0.1118  0.6247  0.1523
  515MOL0     C70986   3.740  11.573   7.411  1.5344  0.4458  0.1343
  515MOL0     C70987   4.115  11.679   7.638  0.0263  0.9170  0.9874
  515MOL0     C70988   4.076  11.799   7.689  0.1755 -0.2635  0.4571
  515MOL0     C70989   4.136  11.843   7.804  0.6889  0.1473  0.8084
  515MOL0     C70990   4.213  11.760   7.878  0.5881  0.0617  0.0768
  515MOL0     O70991   4.251  11.776   8.007 -0.0425  0.7613  0.6397
  515MOL0     C70992   4.268  11.900   8.060  0.3089  0.2757  0.1506
  515MOL0     C70993   4.144  11.927   8.132  0.2158  0.0204  0.5367
  515MOL0     C70994   4.095  11.816   8.240  0.0882 -0.4610  0.3447
  515MOL0     C70995   3.978  11.851   8.315  1.3633 -0.3384  0.6282
  515MOL0     C70996   3.916  11.741   8.400 -1.1232 -1.1160 -0.0242
  515MOL0     C70997   3.880  11.653   8.466  0.1100  0.2062 -0.2546
  515MOL0     C70998   4.255  11.644   7.834 -0.4726  0.1229  0.0005
  515MOL0     C70999   4.205  11.594   7.712 -0.4210  0.9105  0.0779
  515MOL0     C71000   4.261  11.463   7.659 -0.5479  0.4872  1.1293
  515MOL0     H71001   3.976  11.715   7.239  1.2320 -0.3853  3.1146
  515MOL0     H71002   3.829  11.616   7.039 -3.1251 -0.3040 -0.3865
  515MOL0     H71003   3.713  11.463   6.940 -4.6638  3.9845 -1.0595
  515MOL0     H71004   3.581  11.345   6.935  0.7020 -0.0779 -0.8952
  515MOL0     H71005   3.737  11.209   6.975  2.0864  0.3552 -0.3491
  515MOL0     H71006   3.835  11.302   7.090 -0.9484  3.6763 -0.8432
  515MOL0     H71007   3.674  11.237   7.267  1.0564  1.0230 -0.5272
  515MOL0     H71008   3.546  11.206   7.146  0.6824  2.0397 -2.1652
  515MOL0     H71009   3.696  10.996   7.082  1.9377  2.9172 -2.0340
  515MOL0     H71010   3.800  11.025   7.200  0.0000  1.0032  2.8160
  515MOL0     H71011   3.657  10.854   7.261 -2.8324 -0.0195 -2.6200
  515MOL0     H71012   3.518  10.955   7.248 -0.8978 -0.1426  2.9995
  515MOL0     H71013   3.738  11.007   7.443 -0.5011 -1.0719 -0.5380
  515MOL0     H71014   3.576  11.095   7.440 -2.2250 -1.7644  1.1509
  515MOL0     H71015   3.583  10.807   7.492 -1.7929 -0.2351 -0.2780
  515MOL0     H71016   3.445  10.894   7.495  0.4896 -2.0778  0.5939
  515MOL0     H71017   3.539  10.853   7.735 -0.7518  0.1804  0.6558
  515MOL0     H71018   3.678  10.927   7.684 -0.3404 -1.8082 -1.2217
  515MOL0     H71019   3.302  11.037   7.733  1.0121 -1.1605  0.4370
  515MOL0     H71020   3.289  11.228   8.057 -0.4519 -0.7921 -0.5264
  515MOL0     H71021   3.198  11.166   7.924 -0.8241  1.2565 -1.4210
  515MOL0     H71022   3.280  11.373   7.786  0.1796 -1.1721  0.7117
  515MOL0     H71023   3.138  11.392   7.894 -0.3364  1.5246  1.5426
  515MOL0     H71024   3.277  11.471   8.081  0.0852  0.7254  0.2642
  515MOL0     H71025   3.425  11.451   7.984  0.6199 -0.6929 -0.8945
  515MOL0     H71026   3.204  11.625   7.896 -0.7604 -1.7973  0.5820
  515MOL0     H71027   3.351  11.684   7.982  3.2789  0.4895 -2.3609
  515MOL0     H71028   3.278  11.837   7.831 -1.5992 -2.7507  0.1423
  515MOL0     H71029   3.179  12.030   7.769  1.9258  0.2855  1.8436
  515MOL0     H71030   3.143  12.074   7.603 -0.1580 -2.9250 -0.9958
  515MOL0     H71031   3.295  12.125   7.676 -1.5566  0.2764 -0.6274
  515MOL0     H71032   3.130  11.960   7.172 -0.3552  0.2665  1.7388
  515MOL0     H71033   3.048  12.077   6.964  0.3682 -0.9626  0.4207
  515MOL0     H71034   3.025  12.500   7.022 -1.7721 -0.7645 -0.8491
  515MOL0     H71035   3.141  12.528   6.896  1.1773  0.4260  2.7709
  515MOL0     H71036   2.931  12.604   6.808  2.0036  0.6092  0.3520
  515MOL0     H71037   2.986  12.470   6.721  0.9360  1.6650  1.1464
  515MOL0     H71038   2.805  12.417   6.967 -1.1065 -0.9648 -0.4024
  515MOL0     H71039   2.803  12.325   6.806  1.0086  0.5729 -0.9903
  515MOL0     H71040   2.669  12.490   6.702 -3.8476 -2.0796  0.5568
  515MOL0     H71041   2.699  12.591   6.858  1.0537  0.7903 -3.7827
  515MOL0     H71042   2.468  12.463   6.812  0.4251  1.8697 -0.6139
  515MOL0     H71043   2.556  12.318   6.851 -0.9835  0.6263 -0.1076
  515MOL0     H71044   2.518  12.562   7.017  0.9406 -0.3007 -0.2487
  515MOL0     H71045   2.632  12.444   7.083 -0.6978  1.6896  2.8156
  515MOL0     H71046   2.486  12.267   7.110  0.7381  0.3154 -0.9434
  515MOL0     H71047   2.366  12.323   7.011  2.4475 -1.2587 -1.7386
  515MOL0     H71048   2.309  12.337   7.252  0.1414  0.7309  1.2066
  515MOL0     H71049   2.277  12.482   7.166 -0.4611  2.3636  2.9430
  515MOL0     H71050   3.205  12.446   7.131 -0.1419  0.7950  1.2973
  515MOL0     H71051   3.266  12.325   7.332 -0.7107 -1.3684  0.9543
  515MOL0     H71052   3.446  11.732   7.375 -1.0049 -0.0107 -0.8874
  515MOL0     H71053   3.462  11.572   7.563 -0.5971  0.2405 -0.1755
  515MOL0     H71054   3.559  11.460   7.331 -0.0281  0.8912  1.5586
  515MOL0     H71055   3.713  11.559   7.515  4.3631  0.0271  0.9145
  515MOL0     H71056   4.019  11.871   7.631 -0.0545 -1.5620 -1.0360
  515MOL0     H71057   4.133  11.948   7.833  4.2210  0.0855  1.9006
  515MOL0     H71058   4.359  11.905   8.120  0.1841  0.9440  0.2993
  515MOL0     H71059   4.289  11.974   7.981 -2.5423  1.5093  0.4260
  515MOL0     H71060   4.072  11.944   8.052  2.0612  4.2671 -0.5294
  515MOL0     H71061   4.150  12.023   8.184 -0.0821  1.7654 -2.4254
  515MOL0     H71062   4.065  11.726   8.186  0.2527 -0.8935  0.9510
  515MOL0     H71063   4.178  11.784   8.305 -0.3028 -3.6350 -0.5524
  515MOL0     H71064   3.892  11.860   8.247  1.8341 -1.2264 -0.1065
  515MOL0     H71065   3.993  11.949   8.362 -4.1740  0.3476  1.6277
  515MOL0     H71066   3.849  11.573   8.530  1.2464 -0.6362 -0.7097
  515MOL0     H71067   4.330  11.585   7.886 -0.3789  1.0644  0.9631
  515MOL0     H71068   4.325  11.483   7.573 -1.0175 -2.0403  0.1262
  515MOL0     H71069   4.319  11.417   7.739 -0.9431 -1.3869  0.3937
  515MOL0     H71070   4.188  11.397   7.611  2.2046 -1.6649 -0.3426
  516MOL0     O71071   0.064   2.286   4.857  0.4557 -1.0742 -0.2470
  516MOL0     C71072   0.176   2.285   4.811 -0.4044 -0.5453  0.2919
  516MOL0     O71073   0.293   2.321   4.887  1.1353 -0.3446 -0.2184
  516MOL0     C71074   0.301   2.312   5.022 -0.6203 -0.1078 -0.5037
  516MOL0     C71075   0.222   2.227   5.109 -0.0989  0.9100  0.3260
  516MOL0     C71076   0.230   2.231   5.245 -0.2758 -0.9045 -0.4094
  516MOL0     C71077   0.312   2.325   5.309  0.2525  0.2539  0.6632
  516MOL0     O71078   0.331   2.328   5.445 -0.2784  0.2941 -0.0703
  516MOL0     C71079   0.291   2.210   5.516  0.0045 -0.2237  0.9752
  516MOL0     C71080   0.353   2.200   5.654 -0.5764 -1.1007 -1.0174
  516MOL0     C71081   0.507   2.213   5.640 -0.2661  0.6475 -0.8035
  516MOL0     C71082   0.578   2.083   5.608  0.0917  0.0597  0.4239
  516MOL0     C71083   0.568   1.977   5.716 -0.8699 -0.6946  0.0955
  516MOL0     C71084   0.686   1.879   5.714 -0.7024 -0.4075 -0.0781
  516MOL0     C71085   0.655   1.756   5.619  0.1472  0.4218 -0.4659
  516MOL0     C71086   0.749   1.636   5.642  0.0022 -0.7758 -0.8212
  516MOL0     N71087   0.885   1.664   5.613  0.1069 -0.5974  0.3033
  516MOL0     C71088   0.982   1.692   5.703 -0.8087  0.5868  0.5173
  516MOL0     C71089   1.099   1.720   5.638  0.6586  0.3430 -0.1997
  516MOL0     C71090   1.230   1.730   5.701  0.6151 -0.5512 -0.4306
  516MOL0     C71091   1.321   1.625   5.633  0.4380 -0.2956  0.2812
  516MOL0     C71092   1.439   1.606   5.732  0.9567 -0.3830  0.6510
  516MOL0     C71093   1.535   1.504   5.689  0.3392  0.3942  0.2727
  516MOL0     O71094   1.611   1.473   5.807 -0.0216  0.0686  0.2188
  516MOL0     C71095   1.646   1.347   5.841  0.4935 -1.0193  0.4125
  516MOL0     C71096   1.694   1.351   5.979  0.2993 -0.3775  0.2477
  516MOL0     C71097   1.746   1.238   6.038  0.1935 -0.0886  0.0300
  516MOL0     C71098   1.784   1.251   6.177 -0.2674  0.4425 -0.6237
  516MOL0     C71099   1.727   1.113   5.971  0.0523  0.3951 -0.4781
  516MOL0     C71100   1.755   0.974   6.023  0.4857 -1.8260  0.7925
  516MOL0     O71101   1.677   0.875   5.975 -0.2017 -0.6395 -1.0998
  516MOL0     C71102   1.699   0.750   6.030 -1.0645 -0.5899 -0.4235
  516MOL0     C71103   1.687   0.725   6.171  0.3686 -0.5541  0.1718
  516MOL0     C71104   1.702   0.602   6.225 -0.5416  0.3254 -0.7761
  516MOL0     C71105   1.750   0.504   6.144  0.1458 -0.3006  0.1234
  516MOL0     O71106   1.768   0.380   6.201 -0.5183  0.3441  0.6659
  516MOL0     C71107   1.895   0.307   6.179  0.7772 -0.2769  0.0388
  516MOL0     C71108   1.933   0.247   6.310  0.3401  0.4741  0.0961
  516MOL0     C71109   2.044   0.139   6.296 -0.5905 -0.6438 -0.7037
  516MOL0     C71110   2.071   0.088   6.447 -0.1973  0.1830  0.4032
  516MOL0     C71111   2.182  -0.025   6.462 -0.8060 -0.6773  0.3128
  516MOL0     C71112   2.308  -0.025   6.364 -0.4944 -0.5469  0.1418
  516MOL0     C71113   2.397   0.097   6.366  0.1833 -0.3843 -0.1868
  516MOL0     C71114   2.477   0.132   6.497 -0.3556  0.1289 -0.2749
  516MOL0    Cl71115   2.576   0.281   6.472  0.1970  0.0856  0.0750
  516MOL0     C71116   1.797   0.533   6.015  0.4404  0.6297 -0.0312
  516MOL0     C71117   1.756   0.656   5.950 -0.5408 -0.0946  0.2804
  516MOL0     O71118   1.838   0.964   6.106 -0.1655 -0.0996 -0.4680
  516MOL0     C71119   1.681   1.114   5.837  0.5750  0.8893 -0.2618
  516MOL0     C71120   1.635   1.225   5.768  0.1812 -0.7981  0.3412
  516MOL0     N71121   1.072   1.702   5.503  0.8542  0.5416  0.9216
  516MOL0     N71122   0.950   1.663   5.497 -0.7947 -0.0839  0.6481
  516MOL0     C71123   0.394   2.401   5.230  0.7890 -0.2575  0.8848
  516MOL0     C71124   0.386   2.404   5.089  0.2227  0.4103 -0.0094
  516MOL0     C71125   0.203   2.221   4.684  0.9175 -0.6382  0.3826
  516MOL0     C71126   0.339   2.218   4.631  0.2155 -0.2108 -0.0441
  516MOL0     C71127   0.370   2.173   4.500  0.8776 -0.7660 -0.5784
  516MOL0     C71128   0.269   2.131   4.417 -0.9435  0.4779  0.5537
  516MOL0     O71129   0.287   2.069   4.290  0.5074  0.3489 -0.2560
  516MOL0     C71130   0.380   1.953   4.283  0.0924 -0.5550  0.1482
  516MOL0     C71131   0.328   1.831   4.365 -0.3455  0.2588 -0.1058
  516MOL0     C71132   0.429   1.726   4.362 -0.3163  1.1303  0.1323
  516MOL0     C71133   0.447   1.669   4.217  0.5338  0.6781 -1.0427
  516MOL0     C71134   0.326   1.606   4.176 -0.0864 -0.2041  0.1039
  516MOL0     C71135   0.221   1.561   4.137  0.0178  0.1210  0.1667
  516MOL0     C71136   0.136   2.125   4.464 -0.1980 -0.6594  0.6017
  516MOL0     C71137   0.093   2.170   4.592 -0.7024 -1.1618 -0.8318
  516MOL0     C71138  -0.055   2.182   4.624 -0.1939  0.2995  0.3646
  516MOL0     H71139   0.142   2.163   5.073  0.0288  0.9753 -0.0700
  516MOL0     H71140   0.156   2.171   5.297 -1.6742 -0.9091 -2.2979
  516MOL0     H71141   0.321   2.129   5.448  3.3263  2.4299 -1.0653
  516MOL0     H71142   0.184   2.219   5.536  0.4526  2.6914  2.5961
  516MOL0     H71143   0.328   2.288   5.714 -2.3639  0.3727 -3.6688
  516MOL0     H71144   0.319   2.106   5.697  1.0776 -0.9042  0.8478
  516MOL0     H71145   0.536   2.288   5.565  1.0159  2.0342  0.9629
  516MOL0     H71146   0.539   2.254   5.737  0.3480 -0.0005 -0.7236
  516MOL0     H71147   0.535   2.047   5.514  0.8733  0.1001  0.0488
  516MOL0     H71148   0.685   2.104   5.598  0.8964 -3.9620 -2.0495
  516MOL0     H71149   0.468   1.932   5.709 -0.2211 -2.5968  1.8799
  516MOL0     H71150   0.578   2.042   5.804 -0.1147  1.8496 -1.7576
  516MOL0     H71151   0.782   1.910   5.673 -0.8334 -0.8374 -0.7298
  516MOL0     H71152   0.694   1.831   5.812 -1.1587  1.0657  0.7038
  516MOL0     H71153   0.670   1.789   5.516  0.1829  1.6824 -0.0779
  516MOL0     H71154   0.551   1.732   5.641  0.3129  1.1912  1.3813
  516MOL0     H71155   0.743   1.609   5.748  4.2856 -2.3769 -0.7939
  516MOL0     H71156   0.718   1.554   5.576 -4.0301  0.5428 -0.8443
  516MOL0     H71157   0.979   1.684   5.811  4.6276 -2.0113  0.8417
  516MOL0     H71158   1.213   1.713   5.807 -1.2134  2.1531 -0.1818
  516MOL0     H71159   1.272   1.831   5.702 -2.0990  0.8875  4.7323
  516MOL0     H71160   1.266   1.531   5.623 -0.2032  0.2294 -1.7563
  516MOL0     H71161   1.348   1.643   5.528  0.1619 -3.6100 -0.4488
  516MOL0     H71162   1.496   1.699   5.737 -2.8118  2.1308  3.9795
  516MOL0     H71163   1.401   1.587   5.833 -1.0348  1.6064  0.3797
  516MOL0     H71164   1.484   1.426   5.633 -1.0893  0.9840  0.7197
  516MOL0     H71165   1.600   1.550   5.614  0.5472  0.0342  0.2314
  516MOL0     H71166   1.693   1.450   6.023 -0.5349 -1.2328  2.2553
  516MOL0     H71167   1.807   1.354   6.207  1.2491 -0.1268  0.3354
  516MOL0     H71168   1.869   1.188   6.207 -1.1738 -0.2693  0.5482
  516MOL0     H71169   1.714   1.212   6.251  1.7924  0.5485  1.5067
  516MOL0     H71170   1.652   0.797   6.245  0.4561  1.2749 -1.4722
  516MOL0     H71171   1.671   0.563   6.322  1.1380 -1.0093 -0.7302
  516MOL0     H71172   1.871   0.232   6.103  1.1611 -1.5451  1.1289
  516MOL0     H71173   1.965   0.376   6.132  0.9441 -0.5964 -0.1852
  516MOL0     H71174   1.952   0.327   6.382 -0.2891  0.5617  0.1720
  516MOL0     H71175   1.848   0.184   6.336  0.1545 -0.5398 -2.6016
  516MOL0     H71176   2.139   0.165   6.248 -1.2719 -3.1040 -3.6907
  516MOL0     H71177   2.010   0.057   6.232 -2.0314 -3.2619  3.0822
  516MOL0     H71178   1.985   0.043   6.497 -0.3004  0.5551  0.5586
  516MOL0     H71179   2.108   0.173   6.504  1.1810 -1.2340  1.7474
  516MOL0     H71180   2.225  -0.016   6.562  1.4104  1.1167 -0.7142
  516MOL0     H71181   2.132  -0.121   6.451 -1.4929 -0.2503 -0.3717
  516MOL0     H71182   2.281  -0.040   6.259 -0.8787 -1.0460  0.3099
  516MOL0     H71183   2.366  -0.111   6.399 -1.6549 -0.8177  1.5111
  516MOL0     H71184   2.339   0.183   6.331  1.9158  0.7642 -0.3455
  516MOL0     H71185   2.479   0.082   6.295 -0.2862 -1.8145 -0.4651
  516MOL0     H71186   2.543   0.048   6.521 -0.6371 -0.5760 -1.8896
  516MOL0     H71187   2.402   0.148   6.575  0.5230  0.5155  0.5188
  516MOL0     H71188   1.837   0.455   5.952  0.5252  2.0543 -1.8179
  516MOL0     H71189   1.779   0.680   5.846  0.0420  2.4235  0.9185
  516MOL0     H71190   1.672   1.021   5.781 -4.3633  1.3397 -0.6914
  516MOL0     H71191   1.595   1.210   5.668  2.4088 -3.1945 -0.3002
  516MOL0     H71192   0.464   2.463   5.285  2.3153 -1.4176  0.3179
  516MOL0     H71193   0.451   2.465   5.028 -1.7598  1.3918 -1.2030
  516MOL0     H71194   0.424   2.253   4.689  0.1622  0.8794 -0.5980
  516MOL0     H71195   0.473   2.171   4.465  1.3673 -0.6867  0.8056
  516MOL0     H71196   0.373   1.927   4.177 -2.7689 -1.2408  0.4235
  516MOL0     H71197   0.483   1.988   4.299 -0.3173  1.8623 -1.8403
  516MOL0     H71198   0.234   1.800   4.320  0.2459  3.5280 -4.1761
  516MOL0     H71199   0.323   1.865   4.470  1.5197 -3.5827  1.4021
  516MOL0     H71200   0.518   1.753   4.420 -0.2732 -0.8529  1.0737
  516MOL0     H71201   0.389   1.642   4.419  1.3056 -0.5308 -1.0344
  516MOL0     H71202   0.530   1.598   4.211 -0.0083  0.1261 -2.5493
  516MOL0     H71203   0.466   1.756   4.152 -3.1918  4.0124  1.8091
  516MOL0     H71204   0.128   1.522   4.101 -0.0921 -1.2693  1.8253
  516MOL0     H71205   0.064   2.073   4.403  2.8625 -2.9883 -1.3185
  516MOL0     H71206  -0.119   2.145   4.544 -2.8183 -0.8704  2.7891
  516MOL0     H71207  -0.069   2.122   4.715 -1.9175  1.5799  1.0149
  516MOL0     H71208  -0.089   2.282   4.653  1.2955  0.6860  0.8679
  517MOL0     O71209   7.316   5.590  11.219 -0.2366 -0.2331  0.9986
  517MOL0     C71210   7.371   5.563  11.110  0.8401 -0.1332 -0.7297
  517MOL0     O71211   7.302   5.562  10.991 -0.1523 -0.6917  0.1660
  517MOL0     C71212   7.180   5.616  10.997  1.2961  0.1820  0.4157
  517MOL0     C71213   7.069   5.543  11.034 -0.2076  0.7039 -0.5931
  517MOL0     C71214   6.942   5.595  11.021  0.5306  0.8311  0.4728
  517MOL0     C71215   6.915   5.725  10.965 -0.9761  0.2883  0.1267
  517MOL0     O71216   6.792   5.776  10.971  0.3611  0.6441 -0.3902
  517MOL0     C71217   6.704   5.690  10.902 -0.5617  0.0283  1.1188
  517MOL0     C71218   6.716   5.704  10.748 -1.3239 -0.8548  0.8800
  517MOL0     C71219   6.612   5.622  10.670  0.3124 -0.3839 -0.6801
  517MOL0     C71220   6.653   5.595  10.525  0.5663 -0.2510 -0.8940
  517MOL0     C71221   6.591   5.472  10.461  0.0854 -0.6116 -0.0379
  517MOL0     C71222   6.619   5.464  10.309  0.6245 -1.0269  0.2344
  517MOL0     C71223   6.557   5.336  10.258  0.1649 -0.2081  0.6148
  517MOL0     C71224   6.630   5.208  10.304  1.2707  0.3619  0.2960
  517MOL0     N71225   6.774   5.208  10.278  0.0385  0.0603  0.9902
  517MOL0     C71226   6.885   5.227  10.365  0.9660  0.7985  0.3574
  517MOL0     C71227   6.996   5.188  10.292  0.6837  0.0665  0.2551
  517MOL0     C71228   7.133   5.187  10.332 -0.7865  0.2998 -0.5150
  517MOL0     C71229   7.190   5.049  10.363 -0.2245  1.1823  0.9035
  517MOL0     C71230   7.344   5.049  10.389 -0.8037 -0.4935  0.4374
  517MOL0     C71231   7.380   5.095  10.534  0.4851  0.6998  1.0976
  517MOL0     O71232   7.318   5.009  10.627  0.0714  0.3364 -0.7239
  517MOL0     C71233   7.381   4.922  10.716 -0.0807  0.4591 -0.4032
  517MOL0     C71234   7.521   4.890  10.709 -0.7901  0.0613 -0.6335
  517MOL0     C71235   7.585   4.802  10.796 -0.3919 -0.0975  0.6372
  517MOL0     C71236   7.733   4.776  10.778  0.1838  0.0774 -0.7631
  517MOL0     C71237   7.511   4.752  10.904  0.5547 -0.3829  0.2587
  517MOL0     C71238   7.567   4.657  11.004 -0.5112  0.6316 -0.3925
  517MOL0     O71239   7.674   4.571  10.959  0.3568 -0.2299 -0.1254
  517MOL0     C71240   7.734   4.494  11.056 -0.5767  1.0949  0.8070
  517MOL0     C71241   7.867   4.496  11.053 -0.4118  0.7852  0.2582
  517MOL0     C71242   7.949   4.413  11.126 -0.0765  0.1706  0.5396
  517MOL0     C71243   7.894   4.327  11.214  0.6563  0.3227 -1.1329
  517MOL0     O71244   7.962   4.243  11.298 -0.4276  0.1687  0.1503
  517MOL0     C71245   8.105   4.209  11.268 -0.4200 -0.0419 -0.0869
  517MOL0     C71246   8.199   4.322  11.320  1.3066  0.4740  0.1686
  517MOL0     C71247   8.204   4.313  11.471 -0.4958  0.1311 -0.7523
  517MOL0     C71248   8.243   4.450  11.540 -0.3687 -0.4739  0.4807
  517MOL0     C71249   8.397   4.474  11.534  1.5661  0.0070 -0.6655
  517MOL0     C71250   8.447   4.607  11.576 -1.1875  0.8030  0.5709
  517MOL0     C71251   8.597   4.620  11.553  0.2154  0.5289  0.6218
  517MOL0     C71252   8.670   4.726  11.632  0.0644 -0.3456  0.8147
  517MOL0    Cl71253   8.676   4.705  11.805 -0.4442 -0.2250  0.3476
  517MOL0     C71254   7.749   4.319  11.228  0.1617  0.6029  0.0177
  517MOL0     C71255   7.674   4.404  11.140  1.0099  0.5893 -0.1995
  517MOL0     O71256   7.529   4.662  11.121  0.4397 -0.1703 -0.3580
  517MOL0     C71257   7.379   4.793  10.918  0.9521  0.2690  0.4850
  517MOL0     C71258   7.311   4.876  10.823 -0.1446  0.6893 -1.2745
  517MOL0     N71259   6.943   5.164  10.158 -0.6761 -0.0519  0.1723
  517MOL0     N71260   6.820   5.176  10.156  0.8947  0.2480 -0.7304
  517MOL0     C71261   7.030   5.805  10.936  1.0886  0.5365 -0.0146
  517MOL0     C71262   7.160   5.744  10.947  0.5370 -0.0028 -0.6522
  517MOL0     C71263   7.510   5.511  11.125 -0.9522 -0.6408  1.2553
  517MOL0     C71264   7.551   5.429  11.231  0.3681  0.4786  0.0570
  517MOL0     C71265   7.680   5.395  11.249 -0.1718  0.2329 -0.3327
  517MOL0     C71266   7.775   5.422  11.155 -0.4257  0.7088  0.4897
  517MOL0     O71267   7.899   5.362  11.186  0.0216  0.4806  0.5165
  517MOL0     C71268   8.012   5.456  11.197  0.0938 -0.2772 -0.4542
  517MOL0     C71269   8.128   5.376  11.255 -0.5464 -0.1652  0.0415
  517MOL0     C71270   8.105   5.359  11.406 -0.1714  0.2060 -0.7043
  517MOL0     C71271   8.228   5.297  11.492 -0.0336  0.0655  0.6404
  517MOL0     C71272   8.287   5.177  11.432 -0.1119  0.2302 -0.4316
  517MOL0     C71273   8.331   5.075  11.385  0.2678  0.3687 -0.6473
  517MOL0     C71274   7.736   5.494  11.045  0.1676 -0.3877 -0.2185
  517MOL0     C71275   7.604   5.548  11.029 -0.4316  0.0837 -0.1318
  517MOL0     C71276   7.584   5.640  10.916 -1.7210 -0.7970  0.6983
  517MOL0     H71277   7.082   5.446  11.080  1.5603 -0.2373 -2.8674
  517MOL0     H71278   6.863   5.529  11.057 -0.8094  0.1054 -3.2956
  517MOL0     H71279   6.600   5.713  10.924 -0.0923  2.2753  1.2122
  517MOL0     H71280   6.714   5.582  10.921 -1.0796 -0.5385 -1.4524
  517MOL0     H71281   6.711   5.805  10.707 -3.0762 -1.7711 -1.3561
  517MOL0     H71282   6.820   5.673  10.734 -1.6425 -1.6743  0.2772
  517MOL0     H71283   6.617   5.523  10.715 -0.5736  0.5675  1.6739
  517MOL0     H71284   6.509   5.653  10.690  0.3071 -0.6054 -0.3543
  517MOL0     H71285   6.639   5.686  10.465  0.6599  0.2359 -0.1978
  517MOL0     H71286   6.761   5.577  10.525  0.5481 -0.4643 -2.3769
  517MOL0     H71287   6.485   5.469  10.489 -0.2165  1.6714 -0.6638
  517MOL0     H71288   6.634   5.386  10.514  0.1015  1.3054  3.3798
  517MOL0     H71289   6.565   5.544  10.258 -0.4178 -2.1143 -0.4224
  517MOL0     H71290   6.726   5.470  10.288  0.7882 -2.5774  0.4523
  517MOL0     H71291   6.558   5.351  10.150  1.8724  1.5080  0.8076
  517MOL0     H71292   6.454   5.331  10.294 -0.5155 -1.2403 -1.3755
  517MOL0     H71293   6.606   5.193  10.410  0.4122  1.2320  0.2343
  517MOL0     H71294   6.600   5.121  10.245  0.5170  2.3265 -2.4184
  517MOL0     H71295   6.873   5.259  10.468 -0.6595  1.2078  0.0693
  517MOL0     H71296   7.144   5.242  10.426  2.2723  1.2027 -1.2838
  517MOL0     H71297   7.199   5.231  10.258 -1.0326 -1.7945 -2.0693
  517MOL0     H71298   7.137   5.030  10.456 -2.4452 -0.2230 -0.5517
  517MOL0     H71299   7.168   4.968  10.293  4.8679  1.1195 -1.0914
  517MOL0     H71300   7.385   4.949  10.376  2.9853  1.1504 -2.0866
  517MOL0     H71301   7.409   5.103  10.319 -0.3384 -0.1964  1.0780
  517MOL0     H71302   7.489   5.103  10.538  0.4052  1.2570  2.7395
  517MOL0     H71303   7.363   5.201  10.558  1.9942  0.5968  2.8120
  517MOL0     H71304   7.579   4.931  10.627 -2.3963  2.3739 -0.7512
  517MOL0     H71305   7.790   4.788  10.871 -0.0896 -0.7664 -0.4724
  517MOL0     H71306   7.777   4.853  10.715  0.2209  0.5896 -0.1235
  517MOL0     H71307   7.762   4.681  10.733 -1.3390 -1.3361  1.0405
  517MOL0     H71308   7.909   4.556  10.972 -1.5768 -0.8638 -1.6823
  517MOL0     H71309   8.049   4.406  11.085 -1.0608  0.3574 -2.0963
  517MOL0     H71310   8.139   4.114  11.310 -1.4219 -0.4340 -0.1561
  517MOL0     H71311   8.109   4.190  11.160  1.0259 -0.3256 -0.0069
  517MOL0     H71312   8.302   4.325  11.285  1.4715  1.6644  0.6999
  517MOL0     H71313   8.144   4.415  11.302  1.6582  0.7196  0.3490
  517MOL0     H71314   8.281   4.248  11.514 -3.7423 -4.0453 -0.5882
  517MOL0     H71315   8.111   4.284  11.520  0.7081  1.5437  2.7199
  517MOL0     H71316   8.197   4.452  11.640 -2.7524 -1.0062 -0.5406
  517MOL0     H71317   8.179   4.527  11.498 -0.9979 -0.1896  1.9130
  517MOL0     H71318   8.445   4.402  11.600 -0.0976 -0.7284 -0.2232
  517MOL0     H71319   8.436   4.456  11.433  1.4587  3.6962 -1.5069
  517MOL0     H71320   8.423   4.618  11.682  1.8785  1.6002  1.2649
  517MOL0     H71321   8.392   4.686  11.524 -1.7315  1.4049  1.9992
  517MOL0     H71322   8.625   4.631  11.448 -2.4051 -0.6775 -0.2953
  517MOL0     H71323   8.643   4.530  11.594  1.7082  0.5418 -0.9675
  517MOL0     H71324   8.622   4.816  11.593 -0.0533 -1.7945 -2.7869
  517MOL0     H71325   8.775   4.737  11.603 -0.9238  0.9285 -2.8108
  517MOL0     H71326   7.691   4.246  11.283  0.7165 -0.1961 -0.4484
  517MOL0     H71327   7.570   4.375  11.136  0.1859  2.5081  3.2065
  517MOL0     H71328   7.322   4.762  11.005 -1.7828  3.2572 -0.0658
  517MOL0     H71329   7.207   4.906  10.834 -0.0172  0.5343  0.7083
  517MOL0     H71330   7.010   5.903  10.894 -2.0896  0.5144  1.1470
  517MOL0     H71331   7.248   5.795  10.909 -0.1128  2.3334  0.7467
  517MOL0     H71332   7.471   5.404  11.301 -1.0823 -2.8092 -2.5098
  517MOL0     H71333   7.711   5.332  11.331  0.9697  0.7789 -0.3233
  517MOL0     H71334   8.024   5.512  11.103 -0.2653  0.8366  0.1530
  517MOL0     H71335   7.986   5.536  11.267  2.7809  0.4843 -0.2057
  517MOL0     H71336   8.227   5.421  11.243 -0.5605 -0.5358 -1.7617
  517MOL0     H71337   8.155   5.281  11.209  0.1583 -0.1229  0.3632
  517MOL0     H71338   8.097   5.457  11.453 -2.0762 -0.3182  0.1569
  517MOL0     H71339   8.012   5.309  11.433  0.8124 -2.8469 -2.4328
  517MOL0     H71340   8.194   5.272  11.593 -0.7143  3.2873  1.3332
  517MOL0     H71341   8.313   5.365  11.505  0.1997  0.5534 -2.6263
  517MOL0     H71342   8.376   4.989  11.339 -0.4794 -0.5656  0.3212
  517MOL0     H71343   7.808   5.510  10.965  1.6761 -1.5722  0.8648
  517MOL0     H71344   7.540   5.737  10.941  1.9392  1.1771  0.0760
  517MOL0     H71345   7.684   5.663  10.880 -1.7384 -1.8072 -0.0214
  517MOL0     H71346   7.526   5.593  10.836  0.8999 -1.1789 -1.0820
  518MOL0     O71347  10.800   7.306   1.337 -0.5013 -0.0885 -0.1008
  518MOL0     C71348  10.863   7.398   1.285 -0.7041  0.3787 -0.6379
  518MOL0     O71349  10.853   7.433   1.148 -0.3100  0.2100  0.0207
  518MOL0     C71350  10.768   7.355   1.076 -0.6724 -1.1725 -0.5950
  518MOL0     C71351  10.801   7.227   1.023 -0.2471 -0.9405 -0.7131
  518MOL0     C71352  10.707   7.149   0.957 -0.9091  0.1194  0.0828
  518MOL0     C71353  10.572   7.194   0.935 -0.9689  0.0791 -0.9518
  518MOL0     O71354  10.485   7.122   0.858  1.0394 -0.6481  0.5973
  518MOL0     C71355  10.454   7.182   0.732  0.5596 -0.3710  0.9500
  518MOL0     C71356  10.360   7.079   0.660  1.0910 -0.9036 -0.1523
  518MOL0     C71357  10.387   7.030   0.520  0.2315 -0.2267  0.2481
  518MOL0     C71358  10.270   6.965   0.458 -0.5947  0.3486 -0.7397
  518MOL0     C71359  10.308   6.892   0.331 -0.0134 -0.4779  0.8703
  518MOL0     C71360  10.204   6.789   0.297 -0.5871  0.4815 -0.2720
  518MOL0     C71361  10.063   6.849   0.270  1.0120  0.6386 -0.2938
  518MOL0     C71362  10.046   6.988   0.204 -0.1631  0.3714 -0.2317
  518MOL0     N71363   9.900   7.008   0.172  0.5515 -0.2163  0.1686
  518MOL0     C71364   9.835   6.964   0.053 -0.2797  0.6361 -0.2908
  518MOL0     C71365   9.717   7.029   0.050  0.8077  0.3670  0.0522
  518MOL0     C71366   9.611   7.031  -0.054 -0.2673 -0.6831 -0.4260
  518MOL0     C71367   9.472   7.038   0.004  0.3025  0.3618  0.5148
  518MOL0     C71368   9.375   6.941  -0.065  0.3856 -0.1936 -0.1639
  518MOL0     C71369   9.268   6.898   0.034  0.7173 -0.3597  0.0753
  518MOL0     O71370   9.160   6.833  -0.041 -0.0515  0.8897  0.7710
  518MOL0     C71371   9.192   6.720  -0.103 -0.1805  1.1960 -0.3184
  518MOL0     C71372   9.254   6.707  -0.227 -0.9581 -0.2504 -0.1790
  518MOL0     C71373   9.301   6.579  -0.282 -0.6666 -0.0009 -0.2782
  518MOL0     C71374   9.380   6.588  -0.417  0.4742  0.3141  0.2564
  518MOL0     C71375   9.282   6.455  -0.209  1.1613 -1.2601 -0.0426
  518MOL0     C71376   9.336   6.323  -0.268 -0.0710  0.1389  0.8251
  518MOL0     O71377   9.463   6.299  -0.238  0.2636  0.3972 -0.4587
  518MOL0     C71378   9.539   6.197  -0.293  1.0912  0.2503 -0.1827
  518MOL0     C71379   9.642   6.149  -0.211 -0.2879 -0.5041  0.0062
  518MOL0     C71380   9.747   6.073  -0.265 -0.0365 -0.8802 -0.2329
  518MOL0     C71381   9.750   6.040  -0.401  0.0407 -0.4324  0.0750
  518MOL0     O71382   9.854   5.988  -0.478  0.0510  0.3240  0.6809
  518MOL0     C71383   9.949   5.915  -0.418 -0.0696  1.1056 -0.8009
  518MOL0     C71384  10.061   5.878  -0.514  0.0352 -0.0511  0.4282
  518MOL0     C71385  10.166   5.984  -0.537  0.0471 -0.7176  0.3835
  518MOL0     C71386  10.112   6.128  -0.539  0.5652  0.5212 -0.2646
  518MOL0     C71387  10.199   6.235  -0.600 -0.0715  0.4940 -0.7010
  518MOL0     C71388  10.140   6.361  -0.648  1.8244 -0.1449  0.5411
  518MOL0     C71389  10.231   6.429  -0.741 -0.2101  0.1976  0.4293
  518MOL0     C71390  10.327   6.529  -0.678  0.7848 -1.3774 -0.3578
  518MOL0    Cl71391  10.227   6.660  -0.628 -0.1679  0.0071 -0.0843
  518MOL0     C71392   9.652   6.084  -0.477 -0.0550 -0.8793 -0.5126
  518MOL0     C71393   9.541   6.159  -0.432 -0.1640  0.5486 -0.2983
  518MOL0     O71394   9.261   6.245  -0.319  0.2079  0.3113  0.4797
  518MOL0     C71395   9.229   6.470  -0.076 -0.3960  0.1910 -0.6944
  518MOL0     C71396   9.173   6.598  -0.042 -0.3380  0.4736  0.0218
  518MOL0     N71397   9.710   7.109   0.165 -0.1914  0.6149  0.2482
  518MOL0     N71398   9.817   7.089   0.238  0.8367 -0.8746  0.9531
  518MOL0     C71399  10.541   7.320   0.995 -0.4086 -0.2930 -0.1775
  518MOL0     C71400  10.635   7.404   1.054 -1.1984 -0.3789 -0.1981
  518MOL0     C71401  10.956   7.471   1.373  0.5636  0.6497  0.1127
  518MOL0     C71402  10.946   7.612   1.382 -0.1552 -0.1911  0.8256
  518MOL0     C71403  11.035   7.689   1.464 -0.3136  0.4280 -1.1090
  518MOL0     C71404  11.128   7.621   1.543 -0.6935 -0.1924  0.2733
  518MOL0     O71405  11.222   7.676   1.630  0.5017  0.3389 -0.2720
  518MOL0     C71406  11.234   7.818   1.637 -0.2009  0.7021  0.0650
  518MOL0     C71407  11.350   7.842   1.732 -0.0130  0.2865  0.1068
  518MOL0     C71408  11.330   7.780   1.875  0.2464 -0.5191 -0.4288
  518MOL0     C71409  11.294   7.890   1.981 -0.5568 -0.2088  0.4463
  518MOL0     C71410  11.419   7.948   2.024 -0.5734  0.7793 -0.2826
  518MOL0     C71411  11.519   8.000   2.073  0.1280 -0.8561 -0.7797
  518MOL0     C71412  11.143   7.483   1.529 -0.5630  0.5291 -0.3089
  518MOL0     C71413  11.061   7.405   1.447 -0.6737  0.4041  0.8041
  518MOL0     C71414  11.090   7.249   1.439 -0.8158 -1.5435 -0.3014
  518MOL0     H71415  10.901   7.204   1.058  0.1142  3.0930  1.6206
  518MOL0     H71416  10.760   7.059   0.930  3.7534  2.5133  0.2328
  518MOL0     H71417  10.549   7.192   0.678 -0.7008  1.8523 -1.0398
  518MOL0     H71418  10.417   7.284   0.744 -1.0845 -1.1069  2.4818
  518MOL0     H71419  10.348   6.996   0.729 -1.0689  1.5137  2.6406
  518MOL0     H71420  10.273   7.145   0.657  1.9045  0.1803 -1.6831
  518MOL0     H71421  10.424   7.113   0.460 -1.5730 -0.8060 -1.7854
  518MOL0     H71422  10.470   6.958   0.526  1.3037  1.0448  1.2221
  518MOL0     H71423  10.220   6.894   0.525  1.6720  0.1680  0.8578
  518MOL0     H71424  10.213   7.056   0.437  3.3682  3.1395 -0.2545
  518MOL0     H71425  10.402   6.837   0.339  0.8326  0.1799 -2.7421
  518MOL0     H71426  10.317   6.975   0.260  2.5256 -0.9927  0.4833
  518MOL0     H71427  10.231   6.739   0.204  0.5844  2.8263 -1.2764
  518MOL0     H71428  10.205   6.716   0.378 -0.4539 -1.8454 -2.2709
  518MOL0     H71429  10.013   6.840   0.367 -0.6044 -4.2090 -1.3162
  518MOL0     H71430  10.010   6.773   0.212 -0.2096  1.6697 -0.5975
  518MOL0     H71431  10.083   7.067   0.270  4.4970 -1.6722 -0.0841
  518MOL0     H71432  10.111   7.000   0.116  0.6533  0.7694  0.4194
  518MOL0     H71433   9.870   6.888  -0.016 -0.5240  2.0266 -2.0134
  518MOL0     H71434   9.632   6.948  -0.122  1.7953  0.5266 -1.3636
  518MOL0     H71435   9.627   7.109  -0.128  0.6439 -2.1817 -1.8782
  518MOL0     H71436   9.466   7.023   0.112  0.1659 -1.8427  0.2485
  518MOL0     H71437   9.435   7.141  -0.005 -0.7466 -0.1413 -2.1486
  518MOL0     H71438   9.339   6.993  -0.154 -0.4600 -0.0714  0.2372
  518MOL0     H71439   9.434   6.855  -0.098 -0.1594 -1.6114  2.3386
  518MOL0     H71440   9.301   6.830   0.113 -0.7554 -0.0885  0.9706
  518MOL0     H71441   9.229   6.982   0.092  3.1543 -1.6891  4.0130
  518MOL0     H71442   9.267   6.802  -0.278  3.2549 -0.6446 -0.1251
  518MOL0     H71443   9.300   6.603  -0.490 -2.0574  0.3219  2.8785
  518MOL0     H71444   9.424   6.495  -0.455  0.1732  1.5521 -3.6048
  518MOL0     H71445   9.456   6.667  -0.419 -1.8337  2.6815  0.7308
  518MOL0     H71446   9.646   6.165  -0.104  1.6499 -2.2394  0.2591
  518MOL0     H71447   9.839   6.040  -0.217  1.3474  1.3988 -1.1484
  518MOL0     H71448   9.993   5.968  -0.333 -0.8276  0.2306  0.1747
  518MOL0     H71449   9.903   5.824  -0.379  1.1507  1.7786  2.5462
  518MOL0     H71450  10.115   5.792  -0.476  2.0089  0.7545 -0.4344
  518MOL0     H71451  10.020   5.849  -0.611 -3.6096  0.7338  1.5641
  518MOL0     H71452  10.205   5.965  -0.637 -1.2554  0.7793 -0.4701
  518MOL0     H71453  10.243   5.988  -0.460  2.3539  0.2409 -1.8581
  518MOL0     H71454  10.091   6.156  -0.435 -2.8265 -1.5502 -0.2272
  518MOL0     H71455  10.017   6.136  -0.593 -0.7715  1.2371  2.0480
  518MOL0     H71456  10.269   6.257  -0.519  1.2611 -1.2010 -1.3222
  518MOL0     H71457  10.247   6.175  -0.678 -0.0726  0.4359 -0.6577
  518MOL0     H71458  10.123   6.421  -0.559 -0.5492 -0.8395  0.6359
  518MOL0     H71459  10.043   6.346  -0.696  1.4555 -0.9094  1.5026
  518MOL0     H71460  10.162   6.484  -0.805  0.8212  2.1743  0.9182
  518MOL0     H71461  10.285   6.359  -0.805 -1.3444  0.9431 -1.4134
  518MOL0     H71462  10.391   6.561  -0.761  2.0649 -2.0614  0.3206
  518MOL0     H71463  10.391   6.510  -0.591 -0.1027  1.0775  0.9412
  518MOL0     H71464   9.668   6.072  -0.583 -2.1197 -2.6367 -0.6926
  518MOL0     H71465   9.474   6.212  -0.499 -0.2980  1.4932  0.5490
  518MOL0     H71466   9.201   6.386  -0.014  0.5768  0.7392  0.5386
  518MOL0     H71467   9.117   6.607   0.050  1.7837 -1.1715  1.5836
  518MOL0     H71468  10.440   7.360   0.985 -0.0350  0.7653  0.1164
  518MOL0     H71469  10.615   7.502   1.098  3.4902 -0.1656  2.0756
  518MOL0     H71470  10.871   7.664   1.323  3.6111  3.9182 -0.9477
  518MOL0     H71471  11.022   7.796   1.457  0.5509  0.8359  2.0725
  518MOL0     H71472  11.252   7.864   1.539  1.6053 -1.1502 -0.5505
  518MOL0     H71473  11.141   7.850   1.684 -0.0318  1.7833 -0.3139
  518MOL0     H71474  11.366   7.950   1.734  0.1331  0.2720 -0.2304
  518MOL0     H71475  11.445   7.807   1.690 -1.1190  0.0992 -2.4108
  518MOL0     H71476  11.247   7.708   1.874  0.5149 -0.8610  0.5327
  518MOL0     H71477  11.419   7.726   1.909  1.8515  2.8088  1.0362
  518MOL0     H71478  11.226   7.849   2.056 -0.4918 -0.3093  0.4499
  518MOL0     H71479  11.238   7.974   1.938  0.9962  1.9286  2.3105
  518MOL0     H71480  11.593   8.056   2.127 -0.0861  0.7288 -2.0553
  518MOL0     H71481  11.229   7.436   1.575 -0.1891  1.1824 -0.3213
  518MOL0     H71482  11.147   7.222   1.350 -0.4237 -0.7895 -0.2881
  518MOL0     H71483  11.158   7.212   1.516 -0.1975 -2.3493 -1.2066
  518MOL0     H71484  10.993   7.198   1.442 -0.7540 -1.6419  0.1046
  519MOL0     O71485   4.977   0.635   2.045  0.6115  0.1680 -0.4322
  519MOL0     C71486   4.935   0.738   1.991 -0.0886  0.7495  0.4562
  519MOL0     O71487   4.980   0.871   2.010  0.0284 -0.5169 -0.5059
  519MOL0     C71488   5.082   0.903   2.086 -0.9108  0.5289 -0.2353
  519MOL0     C71489   5.172   0.815   2.147 -0.2137  0.3318 -0.0720
  519MOL0     C71490   5.277   0.870   2.228 -0.2849  0.7499  0.5370
  519MOL0     C71491   5.289   1.006   2.263  0.1418 -0.5271  0.7390
  519MOL0     O71492   5.385   1.055   2.351 -0.2664  0.0167 -0.3252
  519MOL0     C71493   5.352   1.153   2.450 -1.4069 -0.3508 -0.9316
  519MOL0     C71494   5.451   1.271   2.434  0.6174  0.1777 -0.6198
  519MOL0     C71495   5.417   1.371   2.322  0.2454  0.2541  0.1951
  519MOL0     C71496   5.310   1.478   2.375 -0.6180  0.5227  0.9615
  519MOL0     C71497   5.363   1.591   2.461  0.5068 -0.0229  1.2688
  519MOL0     C71498   5.257   1.705   2.478 -0.5273 -0.4517  0.1882
  519MOL0     C71499   5.120   1.671   2.539 -0.3863 -1.1415 -0.1857
  519MOL0     C71500   5.119   1.638   2.691 -1.4531 -0.9050 -0.0317
  519MOL0     N71501   5.139   1.753   2.776 -0.0979 -0.1508 -0.3369
  519MOL0     C71502   5.111   1.886   2.747 -0.0460  0.2378  0.1770
  519MOL0     C71503   5.109   1.944   2.872 -0.0012  0.5616  0.8788
  519MOL0     C71504   5.098   2.087   2.908  0.6095 -1.6141 -0.0036
  519MOL0     C71505   4.957   2.139   2.929  0.1750  0.6139  0.3944
  519MOL0     C71506   4.906   2.125   3.073 -0.1313  0.0621 -0.2813
  519MOL0     C71507   4.929   2.248   3.159  0.2870 -0.7528 -0.7362
  519MOL0     O71508   5.073   2.261   3.185  0.8345 -0.0306 -0.2130
  519MOL0     C71509   5.095   2.202   3.312  0.1824 -0.1798 -0.1040
  519MOL0     C71510   5.092   2.282   3.423 -0.1894 -0.5442 -0.0867
  519MOL0     C71511   5.105   2.223   3.551 -0.0649  0.1142  0.6310
  519MOL0     C71512   5.080   2.311   3.670 -0.0786  0.8663 -0.8284
  519MOL0     C71513   5.134   2.086   3.561 -0.9612 -0.2693  0.3483
  519MOL0     C71514   5.131   2.004   3.689  0.2675  0.9499  0.1564
  519MOL0     O71515   5.216   1.903   3.715  0.6427  0.8101 -0.3324
  519MOL0     C71516   5.241   1.831   3.827 -0.6229  0.8114 -0.1480
  519MOL0     C71517   5.166   1.842   3.947 -0.7862 -0.3290 -0.3442
  519MOL0     C71518   5.201   1.756   4.057  0.9837 -0.0906 -0.2395
  519MOL0     C71519   5.310   1.677   4.055 -0.9134  0.2055  0.3441
  519MOL0     O71520   5.330   1.571   4.140  0.1075 -0.1296 -0.5268
  519MOL0     C71521   5.458   1.556   4.192 -1.5995 -0.5521  1.1028
  519MOL0     C71522   5.538   1.686   4.240  0.2736  0.4828  0.1915
  519MOL0     C71523   5.468   1.750   4.355 -0.5014  0.1975 -0.2074
  519MOL0     C71524   5.551   1.866   4.424  0.7328  0.1331  0.2049
  519MOL0     C71525   5.472   1.929   4.535  0.1581 -0.5186  1.2858
  519MOL0     C71526   5.558   2.028   4.617  0.3749  0.4988  0.6151
  519MOL0     C71527   5.633   2.116   4.526  0.8314 -0.0542  0.5522
  519MOL0     C71528   5.714   2.225   4.598 -0.4611 -0.1292 -0.9341
  519MOL0    Cl71529   5.607   2.347   4.679 -0.1897 -0.1531 -0.1677
  519MOL0     C71530   5.393   1.684   3.943 -0.4619  0.6838 -0.2206
  519MOL0     C71531   5.362   1.747   3.826  0.5796 -0.1208 -0.7338
  519MOL0     O71532   5.040   2.044   3.760 -0.2305  0.0895 -0.7531
  519MOL0     C71533   5.165   2.015   3.443 -0.6028 -0.1604 -0.1237
  519MOL0     C71534   5.142   2.076   3.329  0.4754 -0.0798  1.4360
  519MOL0     N71535   5.148   1.864   2.972  0.6261 -0.3550  0.1786
  519MOL0     N71536   5.157   1.751   2.912 -0.5177 -0.0824 -0.4735
  519MOL0     C71537   5.186   1.091   2.199  0.8818 -0.3336  0.5994
  519MOL0     C71538   5.086   1.039   2.115 -0.1903  0.4263 -0.4605
  519MOL0     C71539   4.857   0.697   1.862  0.6494  0.3051 -0.0253
  519MOL0     C71540   4.880   0.777   1.750 -0.1234  0.1223  0.4276
  519MOL0     C71541   4.818   0.756   1.627  1.4299 -0.0537 -0.1020
  519MOL0     C71542   4.721   0.656   1.615 -0.2762  0.0517  0.4890
  519MOL0     O71543   4.628   0.632   1.507 -0.4188 -0.5515 -0.3855
  519MOL0     C71544   4.607   0.746   1.422 -0.3158 -0.1716 -0.2815
  519MOL0     C71545   4.702   0.732   1.298 -0.2377  0.3508  0.5668
  519MOL0     C71546   4.668   0.815   1.176  0.7042 -1.6003  0.6024
  519MOL0     C71547   4.779   0.788   1.066 -0.8644  1.2015 -0.4872
  519MOL0     C71548   4.747   0.862   0.940 -0.7673  0.1490 -0.3607
  519MOL0     C71549   4.735   0.916   0.834 -0.0704 -0.8658 -0.3296
  519MOL0     C71550   4.699   0.574   1.726 -0.1012  0.5562 -0.3906
  519MOL0     C71551   4.764   0.593   1.855  0.4209 -0.4441 -1.5709
  519MOL0     C71552   4.739   0.481   1.952 -0.5668 -0.3406 -0.1214
  519MOL0     H71553   5.180   0.708   2.131  0.2891  0.0272  1.9625
  519MOL0     H71554   5.356   0.807   2.269  2.1350  2.0395 -1.8318
  519MOL0     H71555   5.374   1.102   2.544 -0.3504  3.0378  0.8117
  519MOL0     H71556   5.254   1.194   2.425 -0.0699  1.6576 -3.3492
  519MOL0     H71557   5.472   1.329   2.524  2.1146 -1.5529  0.2144
  519MOL0     H71558   5.545   1.232   2.394 -1.3849 -3.2490 -2.5181
  519MOL0     H71559   5.501   1.421   2.273  1.8625 -0.8340  1.7312
  519MOL0     H71560   5.357   1.323   2.244 -1.0080  1.3515  0.4431
  519MOL0     H71561   5.257   1.525   2.291  0.6986  1.4136  0.6017
  519MOL0     H71562   5.235   1.420   2.431 -2.3447  0.8479 -0.8799
  519MOL0     H71563   5.443   1.629   2.398  2.6997 -2.9188  2.0784
  519MOL0     H71564   5.400   1.553   2.556 -0.8128 -3.6519  0.4948
  519MOL0     H71565   5.308   1.787   2.529  0.4026  0.5299 -2.1861
  519MOL0     H71566   5.241   1.746   2.378  3.7118  2.4405  0.4272
  519MOL0     H71567   5.078   1.588   2.483 -0.0832 -0.7083 -1.0705
  519MOL0     H71568   5.057   1.759   2.519  0.8160 -1.1491 -5.4195
  519MOL0     H71569   5.017   1.617   2.726 -3.5135  0.5570 -4.3798
  519MOL0     H71570   5.187   1.557   2.715 -0.9133 -1.2459 -2.4840
  519MOL0     H71571   5.105   1.933   2.649 -0.3811 -0.2436 -0.0456
  519MOL0     H71572   5.158   2.138   2.832 -0.7792 -3.0276 -2.1353
  519MOL0     H71573   5.152   2.105   3.002 -0.4939  1.4837  0.1276
  519MOL0     H71574   4.959   2.247   2.909  0.7133  0.1660 -2.3194
  519MOL0     H71575   4.893   2.091   2.854 -0.0722 -2.8768  2.5913
  519MOL0     H71576   4.798   2.104   3.070 -0.3006  0.8754 -0.0043
  519MOL0     H71577   4.960   2.044   3.122  3.4510  2.0847 -0.5418
  519MOL0     H71578   4.901   2.338   3.103 -1.4182 -1.6694 -1.4502
  519MOL0     H71579   4.865   2.259   3.247 -0.6188  0.5541 -1.5235
  519MOL0     H71580   5.063   2.386   3.412  1.2705 -0.0789  0.2920
  519MOL0     H71581   5.142   2.401   3.674  0.6077  0.3612  0.5271
  519MOL0     H71582   5.112   2.255   3.758  1.0817  0.7583 -1.3042
  519MOL0     H71583   4.972   2.328   3.675 -0.1633  0.2723 -0.5167
  519MOL0     H71584   5.084   1.913   3.952  2.2602  3.5755 -0.7100
  519MOL0     H71585   5.133   1.759   4.141 -2.3733 -0.3849 -2.7089
  519MOL0     H71586   5.456   1.496   4.283 -3.1257 -0.9492  0.8402
  519MOL0     H71587   5.526   1.514   4.117 -0.5723  0.4500  1.4577
  519MOL0     H71588   5.638   1.661   4.277  0.0506  0.0567  0.5174
  519MOL0     H71589   5.557   1.755   4.158 -2.1881 -0.3382 -1.1640
  519MOL0     H71590   5.446   1.671   4.427  3.5336 -0.6018  0.4118
  519MOL0     H71591   5.375   1.781   4.307  0.4024 -0.7832 -2.8323
  519MOL0     H71592   5.568   1.934   4.341 -0.2967  0.7105  0.4523
  519MOL0     H71593   5.647   1.835   4.467  1.8766  2.2003 -0.7037
  519MOL0     H71594   5.396   1.981   4.477 -1.3665 -1.6388  2.1859
  519MOL0     H71595   5.424   1.851   4.595  1.0419 -2.7771 -0.7396
  519MOL0     H71596   5.614   1.961   4.683  0.8119  1.0865  0.8481
  519MOL0     H71597   5.492   2.082   4.686  1.3678 -0.0331  2.0310
  519MOL0     H71598   5.562   2.153   4.451  0.2862 -0.9585  0.6059
  519MOL0     H71599   5.714   2.062   4.476  0.1554 -0.6380  0.0563
  519MOL0     H71600   5.790   2.269   4.532  0.3490 -1.1824 -0.7272
  519MOL0     H71601   5.770   2.182   4.681 -2.2902 -0.3006  0.2637
  519MOL0     H71602   5.483   1.624   3.947  0.1479  1.5336 -0.9439
  519MOL0     H71603   5.418   1.743   3.734  0.3532  1.1752 -0.9599
  519MOL0     H71604   5.199   1.913   3.434 -2.3369 -0.6763 -1.3817
  519MOL0     H71605   5.145   2.012   3.242  1.3546  0.7923  0.7998
  519MOL0     H71606   5.177   1.198   2.212 -0.1962 -0.4466  0.8122
  519MOL0     H71607   5.014   1.117   2.094 -0.3001  0.7580  1.0213
  519MOL0     H71608   4.942   0.864   1.769 -0.3318  0.4227 -0.2700
  519MOL0     H71609   4.835   0.827   1.547 -0.4068 -1.2735 -1.6702
  519MOL0     H71610   4.505   0.737   1.384 -1.6802  0.3956  2.9664
  519MOL0     H71611   4.625   0.843   1.468 -0.9249  0.4870 -1.3933
  519MOL0     H71612   4.700   0.626   1.272  1.0495  1.2417 -4.0836
  519MOL0     H71613   4.798   0.759   1.342 -2.2694 -0.3048  6.3070
  519MOL0     H71614   4.577   0.791   1.121  0.4241  1.0082 -0.2025
  519MOL0     H71615   4.653   0.922   1.191 -1.6987 -1.8706  0.4455
  519MOL0     H71616   4.790   0.681   1.049 -3.4118  0.3562  2.2756
  519MOL0     H71617   4.878   0.814   1.103 -0.1173 -2.8009  0.8115
  519MOL0     H71618   4.720   0.959   0.737 -4.2020  2.5607  1.4523
  519MOL0     H71619   4.642   0.482   1.726  0.1439  0.3348  2.1626
  519MOL0     H71620   4.804   0.398   1.923  1.1320  0.1437  2.0375
  519MOL0     H71621   4.762   0.519   2.052  0.6375  0.2585 -0.6048
  519MOL0     H71622   4.630   0.471   1.949 -0.7440  0.4235  1.8879
  520MOL0     O71623   6.278  10.025   6.023 -0.0489 -0.4094  0.2234
  520MOL0     C71624   6.166   9.985   6.051 -0.2178 -0.7974  0.1462
  520MOL0     O71625   6.086   9.936   5.963 -0.2060 -0.3338 -0.2066
  520MOL0     C71626   6.103   9.956   5.829  0.1444 -0.5038  0.0906
  520MOL0     C71627   6.155  10.073   5.772 -0.2939  0.3351 -0.3771
  520MOL0     C71628   6.176  10.079   5.634  0.6176 -0.1960 -0.6331
  520MOL0     C71629   6.140   9.972   5.551 -0.5262 -0.9111  0.3138
  520MOL0     O71630   6.167   9.976   5.409  0.2415  0.5233 -0.5779
  520MOL0     C71631   6.115   9.864   5.326 -0.0697 -1.6099 -0.5024
  520MOL0     C71632   6.180   9.874   5.187 -0.2551 -0.2463 -0.1510
  520MOL0     C71633   6.147  10.009   5.115 -0.3846  1.0050 -0.1958
  520MOL0     C71634   6.231  10.009   4.983 -0.1483 -0.0096  0.6133
  520MOL0     C71635   6.384  10.023   5.008  0.5456  0.1613  0.3504
  520MOL0     C71636   6.460  10.076   4.886 -0.4213  1.0954 -0.2858
  520MOL0     C71637   6.610  10.048   4.884 -0.8006  0.2715  0.0793
  520MOL0     C71638   6.679  10.087   4.759  0.1422  0.2550  0.6759
  520MOL0     N71639   6.670  10.236   4.740 -0.3174  1.6417  0.6456
  520MOL0     C71640   6.770  10.321   4.770  0.5132  0.5284 -0.7278
  520MOL0     C71641   6.720  10.440   4.722  0.9373 -0.0488 -0.3372
  520MOL0     C71642   6.784  10.585   4.709 -0.3465 -0.0984  0.0851
  520MOL0     C71643   6.815  10.624   4.561 -0.2400 -0.1669  0.0054
  520MOL0     C71644   6.828  10.763   4.526  0.1196 -0.8039 -0.1549
  520MOL0     C71645   6.901  10.788   4.390  0.0011 -0.2031  0.6046
  520MOL0     O71646   7.032  10.726   4.394  0.5994 -0.4572 -0.3869
  520MOL0     C71647   7.112  10.757   4.288 -0.5603 -0.1694 -0.0359
  520MOL0     C71648   7.254  10.731   4.322  0.5537  0.3003  0.1140
  520MOL0     C71649   7.357  10.739   4.229 -0.1181  0.3603 -0.5686
  520MOL0     C71650   7.498  10.702   4.260 -0.3100 -0.7538 -0.3862
  520MOL0     C71651   7.318  10.769   4.089  0.7849  0.1917  0.5267
  520MOL0     C71652   7.409  10.781   3.966  0.7375 -0.5940 -0.2519
  520MOL0     O71653   7.530  10.824   3.994 -0.3786 -0.7468 -0.1015
  520MOL0     C71654   7.637  10.840   3.906  0.4784 -0.1073  0.0600
  520MOL0     C71655   7.649  10.759   3.789 -0.5501  0.2638  0.9377
  520MOL0     C71656   7.760  10.784   3.697  0.4624  0.3077 -0.3159
  520MOL0     C71657   7.857  10.880   3.723 -0.8149 -0.7791 -0.0102
  520MOL0     O71658   7.950  10.915   3.627  0.0934 -0.0394 -0.0263
  520MOL0     C71659   7.922  11.036   3.552 -0.6785  0.0902 -0.2689
  520MOL0     C71660   8.043  11.074   3.481 -0.2477 -1.0979 -0.0669
  520MOL0     C71661   8.130  11.174   3.564  0.4273 -0.3781  0.9666
  520MOL0     C71662   8.202  11.119   3.684  0.9040  0.7038  0.6992
  520MOL0     C71663   8.347  11.160   3.689 -0.2905 -0.4770 -0.6134
  520MOL0     C71664   8.439  11.053   3.736  0.5603 -0.3301 -0.5748
  520MOL0     C71665   8.442  10.936   3.639  0.1222 -0.1065  0.5052
  520MOL0     C71666   8.527  10.981   3.513  0.1974  0.2792  0.0179
  520MOL0    Cl71667   8.426  11.049   3.389 -0.0256 -0.6571 -0.1658
  520MOL0     C71668   7.853  10.950   3.843  0.7384 -1.6480  1.2649
  520MOL0     C71669   7.751  10.922   3.932  0.3893  0.4288 -0.5247
  520MOL0     O71670   7.363  10.765   3.848  0.3009 -0.3565  0.8230
  520MOL0     C71671   7.177  10.785   4.060  0.1013  0.4965 -1.0733
  520MOL0     C71672   7.079  10.791   4.158  0.0153  0.5714 -0.8620
  520MOL0     N71673   6.603  10.413   4.653  0.2122  0.1712 -0.1147
  520MOL0     N71674   6.582  10.295   4.658  1.0771  2.2062  0.2956
  520MOL0     C71675   6.081   9.869   5.611  0.4504 -0.6146  0.7602
  520MOL0     C71676   6.056   9.855   5.745  0.6459  0.8108 -1.3922
  520MOL0     C71677   6.132   9.950   6.191  0.3910 -0.2226  0.3956
  520MOL0     C71678   6.046   9.837   6.213 -1.0082  0.3783 -0.0305
  520MOL0     C71679   6.008   9.799   6.343 -0.8077 -0.7369  0.3745
  520MOL0     C71680   6.040   9.879   6.456 -0.7811  0.4237  0.8218
  520MOL0     O71681   6.020   9.852   6.593  0.0428 -0.1944 -0.2841
  520MOL0     C71682   5.926   9.747   6.636 -0.0191 -1.4814  0.2694
  520MOL0     C71683   5.869   9.788   6.768  1.3052 -0.3182  0.2744
  520MOL0     C71684   5.737   9.719   6.795  0.7810 -0.6116  0.0215
  520MOL0     C71685   5.684   9.740   6.946 -0.4095 -0.7660 -0.7479
  520MOL0     C71686   5.760   9.664   7.045 -0.5425  0.7200 -0.7726
  520MOL0     C71687   5.830   9.604   7.120 -0.6755  0.1150  0.6077
  520MOL0     C71688   6.126   9.984   6.436  0.2034  0.0813 -0.4462
  520MOL0     C71689   6.165  10.024   6.301  0.2971  0.4140 -0.2323
  520MOL0     C71690   6.237  10.157   6.300  0.1187  0.0824 -0.3106
  520MOL0     H71691   6.183  10.158   5.833  1.9697 -1.6877  1.5983
  520MOL0     H71692   6.235  10.162   5.597 -0.6409  2.3951  2.7156
  520MOL0     H71693   6.007   9.880   5.318  0.2463  0.3389 -1.6820
  520MOL0     H71694   6.123   9.765   5.371  0.7296 -1.8347 -1.0986
  520MOL0     H71695   6.288   9.866   5.196 -0.1502 -1.0461 -1.7404
  520MOL0     H71696   6.138   9.793   5.127 -3.5731 -0.4904  2.2178
  520MOL0     H71697   6.041  10.030   5.102 -0.6343  0.8145  1.4043
  520MOL0     H71698   6.179  10.090   5.182 -4.3650  2.6440 -0.0396
  520MOL0     H71699   6.214   9.916   4.928  2.6199  0.8382 -1.9170
  520MOL0     H71700   6.199  10.099   4.929 -1.5813 -0.5419  0.5287
  520MOL0     H71701   6.422   9.925   5.037  2.0511  0.5923 -0.0610
  520MOL0     H71702   6.406  10.095   5.088 -0.2800 -1.4134  2.0695
  520MOL0     H71703   6.433  10.034   4.788  1.7258  0.4657 -0.6512
  520MOL0     H71704   6.435  10.182   4.887 -1.8085  0.7932 -0.2655
  520MOL0     H71705   6.627   9.941   4.898 -1.2977  0.0839 -0.6332
  520MOL0     H71706   6.658  10.103   4.965  1.4747 -1.4876  0.0264
  520MOL0     H71707   6.785  10.060   4.759  0.7050  2.1392 -1.8188
  520MOL0     H71708   6.630  10.020   4.688  0.5037 -3.3283  3.4795
  520MOL0     H71709   6.869  10.290   4.803  1.2119  2.6374 -0.7010
  520MOL0     H71710   6.872  10.582   4.774  0.1417 -0.5930 -0.5827
  520MOL0     H71711   6.712  10.659   4.745 -0.1854  0.8821 -1.5378
  520MOL0     H71712   6.903  10.563   4.538  0.3501  0.6725 -0.0297
  520MOL0     H71713   6.736  10.584   4.497 -2.0158  1.3859  1.1020
  520MOL0     H71714   6.728  10.807   4.525  0.0187 -0.7920  2.7702
  520MOL0     H71715   6.883  10.825   4.597  1.0563  0.8986 -2.2487
  520MOL0     H71716   6.841  10.753   4.305 -2.3053 -0.2647  2.1818
  520MOL0     H71717   6.910  10.897   4.386 -3.9144  0.2779  1.2562
  520MOL0     H71718   7.285  10.709   4.423  1.9829 -0.9389 -0.5499
  520MOL0     H71719   7.542  10.634   4.187 -1.3837 -0.2200 -1.5538
  520MOL0     H71720   7.518  10.673   4.364 -1.7543  2.9823  1.1109
  520MOL0     H71721   7.551  10.797   4.269 -0.8261 -0.2458 -2.2741
  520MOL0     H71722   7.588  10.669   3.787  2.0417 -1.6073  0.9692
  520MOL0     H71723   7.780  10.715   3.615  0.2679  1.1231 -1.0603
  520MOL0     H71724   7.839  11.006   3.488 -2.3736 -0.4184  2.0210
  520MOL0     H71725   7.889  11.114   3.621  0.1821  0.7620 -0.6105
  520MOL0     H71726   8.099  10.985   3.453  0.5253 -0.9139  0.8340
  520MOL0     H71727   8.023  11.129   3.388  0.4405 -3.2634 -1.5580
  520MOL0     H71728   8.068  11.263   3.576  0.0752 -0.3040 -1.0377
  520MOL0     H71729   8.208  11.215   3.499  1.2558 -0.9073  1.6085
  520MOL0     H71730   8.196  11.010   3.690  1.2272  0.7471  2.3882
  520MOL0     H71731   8.143  11.150   3.771 -0.5719  3.3347 -1.1126
  520MOL0     H71732   8.376  11.194   3.589 -1.5259 -1.9279 -1.5069
  520MOL0     H71733   8.353  11.249   3.752 -1.5890 -0.0883 -1.0174
  520MOL0     H71734   8.409  11.022   3.837  1.9039 -1.0939 -0.3799
  520MOL0     H71735   8.540  11.096   3.742  2.6749 -4.5346 -1.9840
  520MOL0     H71736   8.346  10.898   3.603  0.9148 -1.2275 -0.5587
  520MOL0     H71737   8.494  10.862   3.701  1.6995 -0.0015 -0.6197
  520MOL0     H71738   8.561  10.884   3.477  0.7630  0.1577  0.8498
  520MOL0     H71739   8.616  11.044   3.524 -0.8690  2.0941 -1.2515
  520MOL0     H71740   7.915  11.036   3.865 -1.0044 -0.1318  0.3973
  520MOL0     H71741   7.739  10.978   4.024 -0.8943 -0.2668 -0.2382
  520MOL0     H71742   7.148  10.826   3.964  0.3640  1.4100 -0.7758
  520MOL0     H71743   6.976  10.815   4.133 -0.5640 -0.3462  0.5207
  520MOL0     H71744   6.033   9.788   5.557 -0.9938 -0.0625  1.1626
  520MOL0     H71745   6.019   9.761   5.785  0.0579  0.7846 -1.9776
  520MOL0     H71746   6.006   9.773   6.135 -1.0253 -3.1461  2.5953
  520MOL0     H71747   5.934   9.719   6.348 -0.4066 -1.2763 -1.4168
  520MOL0     H71748   5.845   9.735   6.564 -0.3433 -0.7923  0.5040
  520MOL0     H71749   5.980   9.652   6.638  0.4774 -1.2001  0.3362
  520MOL0     H71750   5.852   9.895   6.754  0.2552 -0.2494  1.8360
  520MOL0     H71751   5.938   9.784   6.853  1.5628 -0.6559  0.0514
  520MOL0     H71752   5.666   9.755   6.720  1.4514  1.4024  0.2971
  520MOL0     H71753   5.749   9.610   6.786  2.7774 -0.4248 -0.0227
  520MOL0     H71754   5.579   9.710   6.943 -0.4382 -1.6474  3.0994
  520MOL0     H71755   5.683   9.843   6.984  1.3696  0.0195 -2.6511
  520MOL0     H71756   5.906   9.554   7.177  0.8995  1.2890 -0.3844
  520MOL0     H71757   6.156  10.044   6.522  5.3518 -2.6470  0.0433
  520MOL0     H71758   6.243  10.198   6.199 -1.5247 -2.2200 -1.4261
  520MOL0     H71759   6.193  10.237   6.361  0.3713  0.1482 -0.2128
  520MOL0     H71760   6.340  10.137   6.333  1.5847  3.2267 -2.4820
  521MOL0     O71761  10.194   0.159   0.174 -0.3521  0.6272  0.2490
  521MOL0     C71762  10.278   0.217   0.113  0.6896 -0.3277  0.4606
  521MOL0     O71763  10.363   0.310   0.172 -0.3814 -0.5444  0.3977
  521MOL0     C71764  10.395   0.295   0.304  0.6506 -0.0241  0.4257
  521MOL0     C71765  10.441   0.408   0.361  0.0900  0.5377  0.6118
  521MOL0     C71766  10.470   0.429   0.501  0.2771  0.4695  0.1863
  521MOL0     C71767  10.478   0.307   0.583 -0.0991 -0.1765  0.4316
  521MOL0     O71768  10.506   0.299   0.718 -0.5320 -0.2669  0.2032
  521MOL0     C71769  10.526   0.416   0.800 -1.6439 -0.8347  0.2851
  521MOL0     C71770  10.397   0.487   0.844 -0.1828  0.5079  0.3786
  521MOL0     C71771  10.399   0.631   0.886  0.2525 -0.2193 -0.7488
  521MOL0     C71772  10.540   0.647   0.961  0.0699  0.0145 -0.0686
  521MOL0     C71773  10.570   0.770   1.043  0.5451  0.5814 -0.2182
  521MOL0     C71774  10.461   0.803   1.147 -0.3226 -0.8983 -0.6146
  521MOL0     C71775  10.515   0.887   1.258 -0.3242  0.5988  1.1587
  521MOL0     C71776  10.507   1.037   1.216  0.7173 -0.4197  0.2719
  521MOL0     N71777  10.375   1.096   1.195 -0.1269  0.1327  0.0076
  521MOL0     C71778  10.272   1.065   1.268  0.1503 -0.9534 -0.1544
  521MOL0     C71779  10.171   1.150   1.242 -0.4860 -0.2557  0.1594
  521MOL0     C71780  10.048   1.168   1.328 -0.1392  0.4936  0.4190
  521MOL0     C71781   9.924   1.126   1.253 -0.0206 -0.3420 -0.6075
  521MOL0     C71782   9.948   0.992   1.182  1.1216 -0.0204 -0.6209
  521MOL0     C71783   9.826   0.925   1.136 -0.8627 -0.2265 -0.1785
  521MOL0     O71784   9.865   0.812   1.065  0.2099  1.0541  0.2088
  521MOL0     C71785   9.783   0.770   0.968 -0.2757  0.6324 -0.1619
  521MOL0     C71786   9.643   0.761   0.992 -0.4163  0.4866  0.1297
  521MOL0     C71787   9.554   0.725   0.888 -0.2129 -0.3958  0.9812
  521MOL0     C71788   9.408   0.708   0.929 -1.0905 -0.6257 -0.7461
  521MOL0     C71789   9.613   0.704   0.763  0.0365 -0.3844  0.5563
  521MOL0     C71790   9.523   0.660   0.653  0.0711  0.6276  0.4549
  521MOL0     O71791   9.589   0.629   0.535  0.3642 -0.4723 -0.3929
  521MOL0     C71792   9.521   0.618   0.421 -0.2793 -0.1183  0.8103
  521MOL0     C71793   9.465   0.725   0.362 -0.2537  0.2465 -0.3644
  521MOL0     C71794   9.430   0.714   0.224  0.3637  0.2989  0.0221
  521MOL0     C71795   9.444   0.585   0.161 -0.9242  0.2360  0.4741
  521MOL0     O71796   9.406   0.577   0.028  0.2028  0.2098  0.3435
  521MOL0     C71797   9.438   0.458  -0.045  0.0563 -0.5557 -0.4084
  521MOL0     C71798   9.457   0.488  -0.195 -0.1757  0.2529 -0.5280
  521MOL0     C71799   9.538   0.610  -0.231  0.8244  0.0224  0.2250
  521MOL0     C71800   9.516   0.637  -0.375 -0.4248 -0.1486  0.5650
  521MOL0     C71801   9.598   0.765  -0.410 -1.1353 -0.0819 -0.2456
  521MOL0     C71802   9.513   0.874  -0.458  0.3233 -0.0132  0.3186
  521MOL0     C71803   9.608   0.989  -0.480  0.0827  0.3016  0.5332
  521MOL0     C71804   9.547   1.109  -0.540  0.3061  0.1747 -0.5196
  521MOL0    Cl71805   9.677   1.223  -0.597  0.1298 -0.1478 -0.0430
  521MOL0     C71806   9.503   0.468   0.225 -0.4158 -0.1118 -0.5045
  521MOL0     C71807   9.536   0.494   0.356  0.1074  0.3837  0.2072
  521MOL0     O71808   9.403   0.645   0.671  0.3092  0.9749 -0.0732
  521MOL0     C71809   9.757   0.704   0.740  1.3292 -0.9436  1.1198
  521MOL0     C71810   9.836   0.736   0.847  0.5717 -0.1942  0.6307
  521MOL0     N71811  10.208   1.214   1.135  0.6484 -0.0857  0.1039
  521MOL0     N71812  10.330   1.189   1.108 -0.1955  0.1549  0.3635
  521MOL0     C71813  10.441   0.188   0.516 -0.8020 -0.5653 -0.1349
  521MOL0     C71814  10.398   0.180   0.383  0.1066 -0.8073 -1.1489
  521MOL0     C71815  10.264   0.219  -0.039 -0.1686 -0.1648  0.2907
  521MOL0     C71816  10.280   0.340  -0.102 -0.7940  0.0913  0.7979
  521MOL0     C71817  10.212   0.368  -0.216  0.3173 -0.0971 -0.3223
  521MOL0     C71818  10.156   0.259  -0.291 -0.3206 -0.0621  0.0389
  521MOL0     O71819  10.109   0.253  -0.428 -0.3690 -0.0337  0.5189
  521MOL0     C71820  10.072   0.381  -0.477 -0.3355 -0.0474  0.2908
  521MOL0     C71821  10.017   0.361  -0.612 -0.6800  0.0118  0.2747
  521MOL0     C71822   9.915   0.251  -0.647  0.2856 -1.2676 -0.0503
  521MOL0     C71823   9.791   0.256  -0.554  0.0410 -0.7892  0.6330
  521MOL0     C71824   9.681   0.338  -0.616  0.8759  0.5210 -0.6143
  521MOL0     C71825   9.589   0.397  -0.665 -0.0686 -0.0204 -0.1364
  521MOL0     C71826  10.159   0.127  -0.234 -0.5754 -0.3032  0.5572
  521MOL0     C71827  10.206   0.107  -0.111 -0.2011 -1.1865  0.3081
  521MOL0     C71828  10.186  -0.027  -0.054 -0.1359 -0.0977  0.8692
  521MOL0     H71829  10.463   0.492   0.296  0.4335  0.1560  0.2324
  521MOL0     H71830  10.485   0.531   0.535  0.3188  2.2772 -4.4941
  521MOL0     H71831  10.593   0.486   0.750 -4.2022  2.1704  0.7135
  521MOL0     H71832  10.584   0.397   0.891  1.2868 -3.1270 -1.8634
  521MOL0     H71833  10.341   0.478   0.750  0.2837 -1.3840  0.2464
  521MOL0     H71834  10.342   0.429   0.919 -1.6401  2.9935  1.3470
  521MOL0     H71835  10.388   0.686   0.792 -0.3315  1.6243  0.3452
  521MOL0     H71836  10.325   0.654   0.963  2.2013 -0.6861  1.3774
  521MOL0     H71837  10.552   0.553   1.017  1.0535 -0.4966 -1.0946
  521MOL0     H71838  10.616   0.644   0.883  3.5465 -0.0263  3.0476
  521MOL0     H71839  10.563   0.857   0.977 -1.7632 -0.0772 -0.9323
  521MOL0     H71840  10.675   0.767   1.073  1.1494 -1.8165 -2.2200
  521MOL0     H71841  10.376   0.850   1.096 -1.1087 -1.8997 -0.2804
  521MOL0     H71842  10.416   0.712   1.188  1.5379 -1.3045  0.6537
  521MOL0     H71843  10.618   0.855   1.271 -1.2683 -3.6102 -0.0580
  521MOL0     H71844  10.465   0.864   1.353 -0.1189  1.7222  1.5527
  521MOL0     H71845  10.552   1.103   1.290  3.0830  0.5522 -1.8873
  521MOL0     H71846  10.572   1.049   1.130 -1.9243  1.7787 -1.5704
  521MOL0     H71847  10.280   0.987   1.342  3.6547  1.0000  1.8171
  521MOL0     H71848  10.026   1.273   1.348 -2.9801  0.6233 -2.6151
  521MOL0     H71849  10.074   1.112   1.419  0.0242  2.1224  1.4119
  521MOL0     H71850   9.832   1.113   1.311  0.6519 -5.2890 -0.1592
  521MOL0     H71851   9.904   1.197   1.173 -0.1032  0.2776 -0.0461
  521MOL0     H71852  10.006   1.006   1.090  0.6121  0.3987 -0.8782
  521MOL0     H71853  10.006   0.924   1.245  2.2661  1.0446 -0.4839
  521MOL0     H71854   9.761   0.896   1.220  2.5776 -0.5127  2.6472
  521MOL0     H71855   9.772   1.004   1.083  2.0444  2.6709  0.8772
  521MOL0     H71856   9.613   0.781   1.095  2.3098  0.3079  1.0435
  521MOL0     H71857   9.405   0.707   1.038 -1.9423  0.4746 -0.7438
  521MOL0     H71858   9.369   0.610   0.904  1.3308 -1.2347 -2.5520
  521MOL0     H71859   9.340   0.786   0.893 -2.0439 -1.1174 -0.0312
  521MOL0     H71860   9.461   0.825   0.406 -1.3217  0.8149 -1.6814
  521MOL0     H71861   9.396   0.805   0.176  0.7502  1.3041  1.5673
  521MOL0     H71862   9.539   0.419  -0.028  1.7935  2.0406 -3.7870
  521MOL0     H71863   9.369   0.375  -0.026 -1.8952  0.8439 -1.1487
  521MOL0     H71864   9.491   0.403  -0.255 -1.4465  0.5015 -1.6592
  521MOL0     H71865   9.354   0.484  -0.233 -0.3501 -2.8300  0.0467
  521MOL0     H71866   9.646   0.599  -0.216  0.7031  0.9620  2.0377
  521MOL0     H71867   9.495   0.697  -0.181 -2.2304 -1.3359  0.2337
  521MOL0     H71868   9.414   0.664  -0.403  0.6718  2.6953 -1.1500
  521MOL0     H71869   9.555   0.550  -0.428 -0.3626  0.0713  0.2455
  521MOL0     H71870   9.655   0.794  -0.322  1.8633 -0.3071 -2.0061
  521MOL0     H71871   9.684   0.736  -0.471  0.9449  1.9846  1.5480
  521MOL0     H71872   9.432   0.901  -0.390 -0.3234  0.7425 -0.7401
  521MOL0     H71873   9.463   0.840  -0.549 -1.7212 -1.0313  1.7440
  521MOL0     H71874   9.693   0.957  -0.541  1.7405 -1.3482  3.5144
  521MOL0     H71875   9.642   1.019  -0.381  1.4708  1.5148 -0.2633
  521MOL0     H71876   9.468   1.142  -0.472 -0.6362 -2.1844 -0.3652
  521MOL0     H71877   9.490   1.089  -0.632  2.5261  0.1978 -1.9858
  521MOL0     H71878   9.504   0.367   0.184  0.1078 -0.2993 -0.0349
  521MOL0     H71879   9.603   0.429   0.410  3.0998  1.8714 -1.4219
  521MOL0     H71880   9.802   0.680   0.644  0.3558  1.9271 -0.1676
  521MOL0     H71881   9.944   0.738   0.837  0.5578  2.7336  0.0103
  521MOL0     H71882  10.458   0.093   0.566  3.5950 -0.6916 -1.4725
  521MOL0     H71883  10.356   0.087   0.346  3.7393 -3.5396  0.9058
  521MOL0     H71884  10.316   0.429  -0.049  0.1976 -0.9766  1.9958
  521MOL0     H71885  10.207   0.467  -0.262  0.5980  0.0324 -0.0768
  521MOL0     H71886   9.997   0.430  -0.415 -0.9015  0.5916 -0.8744
  521MOL0     H71887  10.161   0.443  -0.490  0.4014 -1.1595 -0.1624
  521MOL0     H71888  10.107   0.351  -0.674 -0.0947  0.6875  0.9920
  521MOL0     H71889   9.974   0.457  -0.639  1.9867  0.7439 -1.7985
  521MOL0     H71890   9.884   0.257  -0.752 -2.7188  1.0480  0.8158
  521MOL0     H71891   9.975   0.160  -0.638 -0.4792 -1.7428  0.3105
  521MOL0     H71892   9.811   0.287  -0.451 -1.9860 -0.0618  0.8659
  521MOL0     H71893   9.762   0.151  -0.546  1.7881 -1.3851 -0.2569
  521MOL0     H71894   9.514   0.466  -0.700  3.6653  5.5735  1.6537
  521MOL0     H71895  10.107   0.052  -0.292 -3.3543  1.8061  0.1122
  521MOL0     H71896  10.234  -0.094  -0.126 -0.8785  1.7559 -1.4975
  521MOL0     H71897  10.237  -0.039   0.042  2.3020 -1.0546 -0.4499
  521MOL0     H71898  10.081  -0.058  -0.045 -0.4333  1.1704  2.0968
  522MOL0     O71899   3.562   7.087   2.679  0.2239 -0.8580  1.1189
  522MOL0     C71900   3.589   6.995   2.606 -0.9163  0.4547  0.8734
  522MOL0     O71901   3.507   6.924   2.533  0.3885 -0.5582  0.0135
  522MOL0     C71902   3.373   6.902   2.572  0.0137  1.8758  0.3752
  522MOL0     C71903   3.274   6.886   2.470 -0.0039  0.1920 -0.3741
  522MOL0     C71904   3.143   6.859   2.507 -1.4178 -0.8550  0.0323
  522MOL0     C71905   3.101   6.862   2.640  0.5279  0.8604  0.1043
  522MOL0     O71906   2.969   6.847   2.677  0.5242 -0.4950 -0.3992
  522MOL0     C71907   2.871   6.936   2.620  0.1270 -0.0851  0.6157
  522MOL0     C71908   2.782   6.861   2.525  0.4315  0.7593 -1.0697
  522MOL0     C71909   2.673   6.957   2.461  0.2330  0.3356  0.1747
  522MOL0     C71910   2.608   6.878   2.345 -0.5805 -0.0992 -0.6056
  522MOL0     C71911   2.514   6.767   2.390 -0.2032  1.7829  0.2912
  522MOL0     C71912   2.443   6.688   2.274  0.4078 -0.7035  0.3718
  522MOL0     C71913   2.473   6.540   2.265 -0.0206 -0.7090 -0.1706
  522MOL0     C71914   2.367   6.458   2.196  0.3374 -0.1354 -0.0062
  522MOL0     N71915   2.387   6.317   2.228 -0.8113 -0.2937 -0.6414
  522MOL0     C71916   2.513   6.258   2.205  0.0800 -0.5016 -1.2331
  522MOL0     C71917   2.507   6.128   2.233 -0.6460 -0.4278  0.7521
  522MOL0     C71918   2.607   6.024   2.204 -0.0732  0.0248  0.8307
  522MOL0     C71919   2.650   6.016   2.057 -0.1004  0.0295  0.6131
  522MOL0     C71920   2.766   5.917   2.049 -0.4179  0.5125 -0.1223
  522MOL0     C71921   2.764   5.856   1.906 -0.0153 -0.4568 -0.5559
  522MOL0     O71922   2.758   5.961   1.810  0.2678 -0.8235  1.0019
  522MOL0     C71923   2.805   5.934   1.689 -0.0986 -0.4770  1.1927
  522MOL0     C71924   2.913   6.006   1.632 -0.2218  0.1142 -0.3112
  522MOL0     C71925   2.963   5.991   1.505 -0.5341 -0.0376 -0.4256
  522MOL0     C71926   3.077   6.087   1.457 -0.1257 -0.6145  0.6467
  522MOL0     C71927   2.904   5.908   1.422 -0.4386  0.5771 -0.0058
  522MOL0     C71928   2.919   5.897   1.280 -0.3201  0.3306 -0.3662
  522MOL0     O71929   2.816   5.830   1.214  0.4122 -0.5156  0.8426
  522MOL0     C71930   2.817   5.794   1.082 -0.3127 -1.3247  0.2122
  522MOL0     C71931   2.930   5.738   1.021 -0.3210 -0.3015  0.1922
  522MOL0     C71932   2.938   5.724   0.881  0.5397 -0.5347  0.0198
  522MOL0     C71933   2.823   5.743   0.802  0.3617 -0.1679  0.3205
  522MOL0     O71934   2.801   5.722   0.664 -0.0540 -0.4862 -0.4393
  522MOL0     C71935   2.926   5.714   0.590  0.3870  0.7305 -0.7356
  522MOL0     C71936   2.894   5.695   0.439 -0.3979 -1.0433 -0.0194
  522MOL0     C71937   2.819   5.817   0.380  0.1873 -0.4716  0.7852
  522MOL0     C71938   2.909   5.949   0.374 -0.3399 -0.0795  0.0508
  522MOL0     C71939   2.829   6.068   0.322 -0.6067  0.8400 -0.0927
  522MOL0     C71940   2.897   6.205   0.313 -0.3574 -0.6643 -0.8878
  522MOL0     C71941   3.044   6.207   0.257 -0.1409 -0.3949 -0.0921
  522MOL0     C71942   3.052   6.178   0.107  0.5968 -0.2117 -0.6172
  522MOL0    Cl71943   2.952   6.290   0.003 -0.3212  0.4105 -0.0986
  522MOL0     C71944   2.704   5.782   0.870 -0.4119 -0.1077  0.3148
  522MOL0     C71945   2.697   5.817   1.007  0.3374  0.9411 -0.2691
  522MOL0     O71946   3.016   5.949   1.221 -0.2962 -0.3414  0.1924
  522MOL0     C71947   2.802   5.824   1.476  0.8909 -1.0060  0.0731
  522MOL0     C71948   2.756   5.832   1.609  0.3657 -0.2584  0.0963
  522MOL0     N71949   2.378   6.101   2.279 -0.5751 -0.9868 -0.1101
  522MOL0     N71950   2.309   6.217   2.285 -1.0565  0.0958  1.2037
  522MOL0     C71951   3.197   6.883   2.743  0.5377  0.1940  0.4208
  522MOL0     C71952   3.336   6.897   2.712  0.0627 -0.6033  0.5663
  522MOL0     C71953   3.731   6.958   2.596 -0.3662  0.0837  0.2133
  522MOL0     C71954   3.760   6.853   2.506  0.3008  0.0209 -0.8302
  522MOL0     C71955   3.893   6.816   2.471 -0.3891  0.1086  0.8952
  522MOL0     C71956   4.000   6.870   2.547  0.4600 -0.5057 -0.0277
  522MOL0     O71957   4.120   6.819   2.573 -0.5018 -0.2020 -0.1109
  522MOL0     C71958   4.220   6.799   2.474 -0.5947  0.6769 -0.0552
  522MOL0     C71959   4.267   6.930   2.401 -0.2291  0.0424 -0.2300
  522MOL0     C71960   4.314   7.041   2.483 -0.1606  0.2792  0.0904
  522MOL0     C71961   4.359   7.164   2.394  0.1410 -0.1000  0.5496
  522MOL0     C71962   4.451   7.131   2.283 -0.7696 -0.4717  0.1201
  522MOL0     C71963   4.532   7.095   2.196 -0.7483  0.6468 -0.1975
  522MOL0     C71964   3.965   6.969   2.639 -0.5224 -0.8308  0.4693
  522MOL0     C71965   3.838   7.014   2.661  0.2728 -0.3073  0.2136
  522MOL0     C71966   3.838   7.121   2.774  0.1650 -0.6177  0.4674
  522MOL0     H71967   3.301   6.867   2.367  0.5182 -0.3991 -0.1369
  522MOL0     H71968   3.079   6.826   2.425  2.2157 -1.2039 -2.9102
  522MOL0     H71969   2.922   7.025   2.584  2.5880 -1.2658  0.9524
  522MOL0     H71970   2.803   6.978   2.694  1.1793  5.7456 -1.2574
  522MOL0     H71971   2.852   6.815   2.455  1.9407  1.6794 -0.2244
  522MOL0     H71972   2.742   6.780   2.585  3.8821  0.5343  1.1902
  522MOL0     H71973   2.611   6.996   2.542 -0.2767  1.2321 -0.6256
  522MOL0     H71974   2.717   7.045   2.414  0.1559 -1.8346 -4.4774
  522MOL0     H71975   2.548   6.948   2.286  1.6566  1.1985 -1.4244
  522MOL0     H71976   2.685   6.837   2.279  2.1634  2.3314  0.8664
  522MOL0     H71977   2.446   6.807   2.466  0.0254  2.7252  0.0088
  522MOL0     H71978   2.575   6.691   2.441 -1.8855  1.0093  1.2424
  522MOL0     H71979   2.335   6.703   2.280  0.2954  0.3891 -2.8989
  522MOL0     H71980   2.487   6.719   2.179 -0.9730  0.0909 -0.0287
  522MOL0     H71981   2.488   6.502   2.367  0.7856  4.2353  1.8492
  522MOL0     H71982   2.574   6.520   2.227 -0.2074  1.9563 -2.4349
  522MOL0     H71983   2.270   6.482   2.239  1.2331  3.1583  0.4908
  522MOL0     H71984   2.367   6.473   2.087  1.2471 -0.5298 -0.0769
  522MOL0     H71985   2.600   6.302   2.156  3.5052 -2.9859  2.0622
  522MOL0     H71986   2.558   5.932   2.236  1.1822 -0.8988  0.1945
  522MOL0     H71987   2.696   6.043   2.265  0.9839  1.9498 -1.1713
  522MOL0     H71988   2.561   5.979   2.006 -1.9206  2.6616  1.6397
  522MOL0     H71989   2.671   6.116   2.020  2.0085 -0.3275  0.7223
  522MOL0     H71990   2.861   5.971   2.048  0.7249 -1.3223  1.4737
  522MOL0     H71991   2.766   5.843   2.130 -3.3642  2.2078  1.6021
  522MOL0     H71992   2.841   5.780   1.892  1.3013  0.4066  1.5470
  522MOL0     H71993   2.673   5.795   1.898 -1.4490  0.9595  2.8045
  522MOL0     H71994   2.954   6.078   1.702  2.3869 -0.8468 -0.7391
  522MOL0     H71995   3.139   6.105   1.546 -1.3040 -1.2943  1.6503
  522MOL0     H71996   3.039   6.182   1.420  0.9473 -0.8383 -1.1474
  522MOL0     H71997   3.152   6.039   1.394  0.8907 -0.5506  1.7539
  522MOL0     H71998   3.018   5.735   1.085 -0.3728  1.8887  0.4371
  522MOL0     H71999   3.029   5.704   0.825  0.8599 -1.1533  0.7482
  522MOL0     H72000   3.002   5.790   0.610  1.7685 -1.3901  3.0585
  522MOL0     H72001   2.969   5.614   0.602 -0.8144  0.1970 -0.7169
  522MOL0     H72002   2.979   5.676   0.372  1.3671 -0.8234  2.0628
  522MOL0     H72003   2.818   5.616   0.432 -2.5649  0.4998  3.4930
  522MOL0     H72004   2.737   5.838   0.449  1.7423  0.6218  2.3757
  522MOL0     H72005   2.775   5.806   0.281  1.4328  3.0952 -0.3358
  522MOL0     H72006   2.999   5.938   0.314 -0.3444 -0.0063  0.0300
  522MOL0     H72007   2.938   5.977   0.476  0.9809 -1.7721  0.1663
  522MOL0     H72008   2.797   6.036   0.222  1.9551  2.0079 -1.3866
  522MOL0     H72009   2.736   6.085   0.377 -0.4749  0.1081  0.3711
  522MOL0     H72010   2.900   6.252   0.412  2.6069 -0.5908 -0.9188
  522MOL0     H72011   2.827   6.266   0.256 -2.5647 -2.1046  0.1351
  522MOL0     H72012   3.117   6.145   0.311  0.4978  0.0739 -0.4034
  522MOL0     H72013   3.076   6.311   0.266  0.8153 -0.7325  0.6391
  522MOL0     H72014   3.017   6.077   0.088 -0.3356  0.1872 -1.0888
  522MOL0     H72015   3.154   6.197   0.073 -0.2710  1.2583 -2.5874
  522MOL0     H72016   2.613   5.787   0.811 -0.0814 -1.4217 -0.3489
  522MOL0     H72017   2.605   5.855   1.051 -0.3972  0.4179 -1.3193
  522MOL0     H72018   2.745   5.750   1.420  2.6970 -1.7125 -0.8952
  522MOL0     H72019   2.678   5.768   1.648 -2.6575  1.9432 -1.8185
  522MOL0     H72020   3.165   6.890   2.846  0.0348  0.4511  0.2482
  522MOL0     H72021   3.409   6.927   2.786  0.5124  0.3704 -0.2443
  522MOL0     H72022   3.680   6.794   2.463 -1.7291  2.8014 -1.1273
  522MOL0     H72023   3.923   6.721   2.428 -2.6262 -0.6966  0.9954
  522MOL0     H72024   4.308   6.751   2.519 -0.8873  0.3146  0.1345
  522MOL0     H72025   4.178   6.722   2.409 -0.6829 -0.8484  1.7241
  522MOL0     H72026   4.174   6.970   2.359  0.3238  1.3272 -0.2937
  522MOL0     H72027   4.349   6.903   2.334  1.2979 -2.4201  2.3831
  522MOL0     H72028   4.241   7.068   2.559 -1.9846  1.0475 -1.8162
  522MOL0     H72029   4.399   7.003   2.540 -1.0301  0.2253  1.4019
  522MOL0     H72030   4.400   7.235   2.466 -1.4764  3.6154 -1.8832
  522MOL0     H72031   4.266   7.209   2.357 -0.1331 -0.6913  0.4971
  522MOL0     H72032   4.607   7.047   2.137  1.8245  1.7216  2.0005
  522MOL0     H72033   4.041   6.999   2.711  1.4178 -2.3521 -0.8206
  522MOL0     H72034   3.770   7.204   2.755  1.0099  0.0402  0.2687
  522MOL0     H72035   3.793   7.075   2.863 -2.9614  0.0576 -0.6350
  522MOL0     H72036   3.935   7.161   2.806  1.5935  0.5650 -4.5377
  523MOL0     O72037   5.554   0.147   6.085  0.8581  0.0466  0.1041
  523MOL0     C72038   5.605   0.053   6.019 -0.8020 -0.5603  0.8404
  523MOL0     O72039   5.643   0.059   5.890  0.2345  0.3011  0.4116
  523MOL0     C72040   5.600   0.153   5.803 -0.3109  0.4916  0.6369
  523MOL0     C72041   5.500   0.133   5.708 -0.8957 -0.1852 -0.2859
  523MOL0     C72042   5.456   0.241   5.635  0.0312 -0.4688 -0.1622
  523MOL0     C72043   5.519   0.364   5.647  0.2588 -0.9942 -0.4975
  523MOL0     O72044   5.493   0.458   5.550  0.5186  0.5145 -0.8499
  523MOL0     C72045   5.428   0.570   5.604  0.7864 -0.1722 -0.8025
  523MOL0     C72046   5.278   0.565   5.586  0.3556 -0.5917 -0.0709
  523MOL0     C72047   5.183   0.626   5.698 -0.3112  0.3505 -0.1812
  523MOL0     C72048   5.180   0.541   5.823 -0.5192 -0.7434  0.8543
  523MOL0     C72049   5.145   0.397   5.800  0.0983  0.1600 -0.5026
  523MOL0     C72050   5.126   0.314   5.937  0.1531 -0.8164  0.3292
  523MOL0     C72051   5.067   0.163   5.931  0.4004 -0.1662 -0.3915
  523MOL0     C72052   5.189   0.068   5.919 -0.9079 -1.0136 -0.4205
  523MOL0     N72053   5.159  -0.070   5.955 -0.2691  0.1347  0.0941
  523MOL0     C72054   5.257  -0.162   5.978  0.0415  0.4849  1.0202
  523MOL0     C72055   5.186  -0.270   6.002  0.2796  0.2862 -0.0058
  523MOL0     C72056   5.268  -0.401   6.047  0.9508 -0.2945 -0.1819
  523MOL0     C72057   5.180  -0.505   6.101  0.2576 -0.4388 -0.1572
  523MOL0     C72058   5.241  -0.564   6.230  0.1667 -0.4441 -0.2747
  523MOL0     C72059   5.250  -0.468   6.349 -1.5056 -0.8180  0.5581
  523MOL0     O72060   5.124  -0.404   6.378  0.9903 -0.1966  0.7313
  523MOL0     C72061   5.135  -0.294   6.450 -0.4789 -0.2086  0.1408
  523MOL0     C72062   5.150  -0.168   6.390  0.4497 -0.7349  0.7146
  523MOL0     C72063   5.177  -0.057   6.470 -0.2641 -0.0652  0.1281
  523MOL0     C72064   5.178   0.070   6.395 -0.0370 -1.0424  1.3613
  523MOL0     C72065   5.214  -0.075   6.613 -0.4688  0.3748  0.4050
  523MOL0     C72066   5.245   0.032   6.717  0.0195 -0.0844 -0.9841
  523MOL0     O72067   5.274  -0.007   6.846 -0.2868 -0.4607  0.3126
  523MOL0     C72068   5.208   0.063   6.945 -0.2716 -0.3361 -0.9318
  523MOL0     C72069   5.261   0.046   7.072 -0.2704  0.7167  0.0155
  523MOL0     C72070   5.214   0.117   7.175 -0.1101 -0.5731 -0.7666
  523MOL0     C72071   5.110   0.203   7.151 -0.7796  0.1008  0.1025
  523MOL0     O72072   5.065   0.272   7.254  0.0783  0.3358  0.0168
  523MOL0     C72073   5.051   0.418   7.242 -0.6577  1.1780 -0.1487
  523MOL0     C72074   4.921   0.460   7.307 -0.0989 -0.0309 -0.2037
  523MOL0     C72075   4.814   0.493   7.203  0.0377  0.8038 -0.6227
  523MOL0     C72076   4.721   0.590   7.267  0.2235 -0.5014 -0.6125
  523MOL0     C72077   4.605   0.605   7.173 -0.8170  0.2603 -0.3687
  523MOL0     C72078   4.526   0.736   7.183  0.2150 -0.0482  0.1011
  523MOL0     C72079   4.414   0.729   7.281  0.2900 -0.5284 -0.3664
  523MOL0     C72080   4.353   0.869   7.305  0.3783  0.3501 -0.7354
  523MOL0    Cl72081   4.466   0.956   7.403  0.0828 -0.1380  0.1734
  523MOL0     C72082   5.044   0.219   7.032 -0.1975  0.5473  0.6515
  523MOL0     C72083   5.095   0.149   6.925  0.5437 -0.2356 -0.3700
  523MOL0     O72084   5.265   0.147   6.668  0.5940  0.5451  0.5521
  523MOL0     C72085   5.206  -0.203   6.669 -0.0817  0.4047 -1.0214
  523MOL0     C72086   5.165  -0.305   6.585  0.7164 -0.4183 -0.1001
  523MOL0     N72087   5.050  -0.253   5.987 -0.1900 -0.4733  0.6149
  523MOL0     N72088   5.036  -0.131   5.942  0.5466  0.0575 -1.0299
  523MOL0     C72089   5.615   0.392   5.749 -0.2691  0.3954  0.1921
  523MOL0     C72090   5.655   0.278   5.814 -0.2343  0.3786 -0.4580
  523MOL0     C72091   5.668  -0.058   6.093  0.8962 -1.1849 -0.6079
  523MOL0     C72092   5.787  -0.109   6.045 -1.0696 -0.4908  0.3791
  523MOL0     C72093   5.843  -0.222   6.102 -0.7314 -0.0771 -0.4800
  523MOL0     C72094   5.784  -0.288   6.217 -0.4156 -0.1418 -0.3345
  523MOL0     O72095   5.857  -0.398   6.265 -0.5715  0.0643 -0.1865
  523MOL0     C72096   5.769  -0.497   6.337 -0.6277 -0.3257  0.1687
  523MOL0     C72097   5.660  -0.579   6.258  0.4198  0.1618 -0.2025
  523MOL0     C72098   5.731  -0.687   6.175  0.0074 -0.4762  0.5453
  523MOL0     C72099   5.773  -0.629   6.029 -0.0490 -0.3595 -0.4975
  523MOL0     C72100   5.654  -0.622   5.942 -0.1502 -0.4827 -0.7458
  523MOL0     C72101   5.549  -0.604   5.883 -0.4623  0.1042  0.1713
  523MOL0     C72102   5.666  -0.232   6.263 -0.0563  0.3931  0.4001
  523MOL0     C72103   5.606  -0.112   6.215  0.5725 -0.0636  0.1716
  523MOL0     C72104   5.488  -0.058   6.296  0.0285 -0.2757  0.9487
  523MOL0     H72105   5.464   0.031   5.715 -1.7107  0.2283  3.6794
  523MOL0     H72106   5.383   0.222   5.558 -0.8243 -5.5194  1.4761
  523MOL0     H72107   5.472   0.667   5.577 -1.9430  1.3248 -0.2339
  523MOL0     H72108   5.443   0.577   5.712 -0.5328 -1.8162 -0.4743
  523MOL0     H72109   5.263   0.614   5.489  1.4383 -1.0018 -0.4562
  523MOL0     H72110   5.246   0.461   5.575 -0.3048 -0.4990  0.8695
  523MOL0     H72111   5.222   0.728   5.713  0.8446  0.2679 -2.2175
  523MOL0     H72112   5.081   0.635   5.660 -0.3772  0.6843  0.0700
  523MOL0     H72113   5.274   0.552   5.877  0.2765 -0.0302 -0.6228
  523MOL0     H72114   5.099   0.574   5.889  0.1185 -2.7699  2.7605
  523MOL0     H72115   5.224   0.345   5.746  1.4628 -1.3310  2.6862
  523MOL0     H72116   5.053   0.389   5.741 -1.3957 -1.0167  1.8124
  523MOL0     H72117   5.231   0.306   5.966  1.2428 -3.3260 -3.5334
  523MOL0     H72118   5.065   0.380   5.999  1.4138  2.8859 -2.0310
  523MOL0     H72119   4.996   0.141   5.851 -1.7059  0.5063  1.1798
  523MOL0     H72120   5.008   0.147   6.022 -0.0841 -1.7037 -0.9516
  523MOL0     H72121   5.230   0.082   5.818 -0.7234  1.2364 -0.1003
  523MOL0     H72122   5.276   0.094   5.980  0.1768  1.5665 -2.8061
  523MOL0     H72123   5.363  -0.145   5.995  0.7147 -1.7171 -0.4559
  523MOL0     H72124   5.347  -0.367   6.114 -0.5195 -0.0390  1.4875
  523MOL0     H72125   5.308  -0.445   5.955  4.4124 -2.1829  2.0169
  523MOL0     H72126   5.079  -0.464   6.110  0.5525  1.9135 -4.5685
  523MOL0     H72127   5.178  -0.579   6.020  0.7857 -1.4050  0.6902
  523MOL0     H72128   5.169  -0.643   6.253 -2.1626  1.4497 -0.6355
  523MOL0     H72129   5.341  -0.598   6.204 -0.2820 -0.0014 -2.7824
  523MOL0     H72130   5.280  -0.523   6.438  0.1690  1.0107  1.2144
  523MOL0     H72131   5.329  -0.394   6.334 -1.1036 -0.6244  3.1663
  523MOL0     H72132   5.141  -0.158   6.282  0.4287 -1.0239  0.6889
  523MOL0     H72133   5.167   0.055   6.288  1.1121  0.3466  1.0164
  523MOL0     H72134   5.273   0.124   6.406 -0.3559 -0.2648  0.3496
  523MOL0     H72135   5.093   0.137   6.412  0.3514  0.4070 -1.8003
  523MOL0     H72136   5.358  -0.004   7.081  0.6291  1.0287 -5.1869
  523MOL0     H72137   5.255   0.132   7.274 -1.4913  0.6035 -0.3412
  523MOL0     H72138   5.145   0.462   7.278  0.7152 -0.9475 -0.9330
  523MOL0     H72139   5.062   0.460   7.142  2.1729  0.7335 -0.1050
  523MOL0     H72140   4.880   0.371   7.356 -1.9645 -0.5239 -2.5351
  523MOL0     H72141   4.958   0.542   7.369  1.2667 -1.6616  1.2749
  523MOL0     H72142   4.753   0.405   7.181  0.7020 -1.1696  4.1749
  523MOL0     H72143   4.850   0.526   7.105  1.0188 -0.9317 -0.8863
  523MOL0     H72144   4.782   0.679   7.282 -0.6335 -0.1018  0.6466
  523MOL0     H72145   4.684   0.537   7.356  2.5519 -1.3160 -0.0660
  523MOL0     H72146   4.634   0.576   7.072  1.1290  1.4974 -0.2110
  523MOL0     H72147   4.537   0.531   7.217 -1.6870  1.0498 -0.3416
  523MOL0     H72148   4.485   0.744   7.082  0.5239 -3.1643 -0.3507
  523MOL0     H72149   4.601   0.814   7.201  2.0110 -1.5885 -0.4664
  523MOL0     H72150   4.457   0.689   7.373 -0.7668 -0.3070  0.2324
  523MOL0     H72151   4.342   0.659   7.238  0.2722 -0.6410 -0.1535
  523MOL0     H72152   4.256   0.850   7.352  0.8115 -0.7918 -0.2732
  523MOL0     H72153   4.329   0.926   7.214 -0.5308  4.4345  1.8170
  523MOL0     H72154   4.965   0.287   7.003  0.4274  0.7497 -0.6465
  523MOL0     H72155   5.056   0.160   6.825 -0.7647 -1.2291  0.0001
  523MOL0     H72156   5.221  -0.230   6.773  0.9111  0.8718 -1.0421
  523MOL0     H72157   5.157  -0.409   6.617  0.1060 -1.2044 -2.5884
  523MOL0     H72158   5.674   0.482   5.760  1.3759 -0.6350  0.1086
  523MOL0     H72159   5.738   0.291   5.883  1.4453  3.6617 -2.8151
  523MOL0     H72160   5.848  -0.075   5.962 -0.0422 -0.8774  0.9659
  523MOL0     H72161   5.941  -0.263   6.077 -1.1481 -2.5503  1.5650
  523MOL0     H72162   5.835  -0.570   6.383 -0.3674  1.8638  3.6521
  523MOL0     H72163   5.731  -0.447   6.427 -4.5734 -0.8334 -1.0210
  523MOL0     H72164   5.596  -0.513   6.198  0.4063 -2.5625 -3.5292
  523MOL0     H72165   5.603  -0.631   6.335 -2.1418 -2.0539 -3.2954
  523MOL0     H72166   5.809  -0.737   6.233 -0.5971 -1.7340  0.3109
  523MOL0     H72167   5.649  -0.757   6.158 -1.7688  1.7913 -1.0355
  523MOL0     H72168   5.853  -0.695   5.994 -0.0444 -0.0118 -1.1522
  523MOL0     H72169   5.827  -0.534   6.037 -0.9443  0.8270 -5.4637
  523MOL0     H72170   5.481  -0.556   5.815 -1.0768  0.3125  0.9129
  523MOL0     H72171   5.636  -0.266   6.362  0.0387 -3.2571 -0.7034
  523MOL0     H72172   5.434  -0.140   6.345 -2.4889 -0.5840 -2.0461
  523MOL0     H72173   5.521   0.009   6.377 -0.0813  1.8567 -0.6877
  523MOL0     H72174   5.419   0.008   6.243  2.4156  4.4992  3.1569
  524MOL0     O72175   9.051   8.601   5.753 -0.1683  0.5312 -0.3760
  524MOL0     C72176   9.132   8.579   5.849  0.8275  0.3064 -0.1556
  524MOL0     O72177   9.214   8.676   5.893  0.2326 -0.7106 -0.3672
  524MOL0     C72178   9.294   8.750   5.809  0.8339  0.0899  0.2269
  524MOL0     C72179   9.266   8.876   5.770  0.3176  0.2478 -0.0659
  524MOL0     C72180   9.350   8.953   5.687 -0.3572  0.0338 -0.0299
  524MOL0     C72181   9.473   8.899   5.646  0.1509  0.2632 -1.1444
  524MOL0     O72182   9.560   8.990   5.593  0.1805  0.1900 -0.0899
  524MOL0     C72183   9.644   8.941   5.481  0.2155  0.2250 -0.1097
  524MOL0     C72184   9.791   8.921   5.525  0.6974  0.1075 -0.0951
  524MOL0     C72185   9.872   8.832   5.429 -0.6823  0.5863 -0.1518
  524MOL0     C72186  10.030   8.870   5.417  1.5157 -0.3226 -0.2825
  524MOL0     C72187  10.096   8.763   5.329 -0.9588 -0.4153  0.3956
  524MOL0     C72188  10.246   8.766   5.338  0.1413 -0.3274 -0.3839
  524MOL0     C72189  10.307   8.896   5.288 -0.0546  0.0856  0.0619
  524MOL0     C72190  10.456   8.913   5.316 -0.3425 -0.0263  0.2878
  524MOL0     N72191  10.507   8.832   5.429 -0.5061 -1.0576 -0.2334
  524MOL0     C72192  10.577   8.720   5.411  0.7736  0.2882  0.0926
  524MOL0     C72193  10.597   8.689   5.544 -0.3817 -0.0772  0.6674
  524MOL0     C72194  10.641   8.553   5.583  0.1927  0.3581  0.3605
  524MOL0     C72195  10.770   8.520   5.507  1.0033 -0.1408 -0.0695
  524MOL0     C72196  10.814   8.382   5.537  0.2431  0.9748  0.4031
  524MOL0     C72197  10.948   8.363   5.471 -0.1698 -0.0162  0.3732
  524MOL0     O72198  10.987   8.227   5.488  0.1405 -0.0067  0.1537
  524MOL0     C72199  11.066   8.201   5.590 -0.2548  0.0741  0.9095
  524MOL0     C72200  11.205   8.185   5.562  0.0318 -0.0145 -0.0558
  524MOL0     C72201  11.296   8.146   5.668 -0.2639 -0.1497  0.1723
  524MOL0     C72202  11.440   8.124   5.623 -0.1885 -0.2360 -0.0522
  524MOL0     C72203  11.243   8.145   5.802 -0.5669 -0.4602 -0.2602
  524MOL0     C72204  11.326   8.125   5.932 -0.5134  0.2845  0.5024
  524MOL0     O72205  11.255   8.089   6.048 -0.5855 -0.0801 -0.3624
  524MOL0     C72206  11.324   8.005   6.138  0.8657 -0.0219  0.3317
  524MOL0     C72207  11.271   7.878   6.151 -0.8141 -0.1292  0.4124
  524MOL0     C72208  11.335   7.781   6.228  0.3860  0.1226 -0.1646
  524MOL0     C72209  11.455   7.808   6.298 -0.0875 -0.4132  0.2376
  524MOL0     O72210  11.521   7.708   6.361  0.4741 -0.1687  0.4091
  524MOL0     C72211  11.446   7.622   6.446 -0.4610  0.5424  1.0867
  524MOL0     C72212  11.534   7.588   6.564  0.3707  0.2325 -0.0529
  524MOL0     C72213  11.568   7.699   6.662 -0.9569 -0.4270  0.8744
  524MOL0     C72214  11.657   7.661   6.781  0.0974  0.0814 -0.2208
  524MOL0     C72215  11.724   7.785   6.855 -0.5044 -0.5249  0.4000
  524MOL0     C72216  11.869   7.811   6.824  0.2704  0.0900  0.8833
  524MOL0     C72217  11.933   7.903   6.927  1.2617 -0.1111 -0.2343
  524MOL0     C72218  12.087   7.932   6.894 -0.2366  0.7985 -0.1561
  524MOL0    Cl72219  12.149   8.038   7.019  0.3861 -0.1374 -0.2572
  524MOL0     C72220  11.513   7.939   6.284 -1.1916 -0.1815 -0.3565
  524MOL0     C72221  11.451   8.033   6.204  0.3703 -0.9210 -0.1491
  524MOL0     O72222  11.448   8.144   5.925  0.1577  1.0870  0.5062
  524MOL0     C72223  11.107   8.164   5.822  0.3867  0.8149 -0.5616
  524MOL0     C72224  11.019   8.193   5.717 -0.4885 -1.6802 -0.5733
  524MOL0     N72225  10.560   8.786   5.630  0.3167  0.5022  1.1750
  524MOL0     N72226  10.510   8.883   5.552 -0.0619 -0.1730  0.8156
  524MOL0     C72227   9.503   8.764   5.696 -0.4201 -0.0807 -0.0234
  524MOL0     C72228   9.415   8.692   5.774 -0.9494 -0.4679  1.3034
  524MOL0     C72229   9.121   8.451   5.935  0.2638  0.2222 -0.3930
  524MOL0     C72230   9.223   8.420   6.031  0.3333 -0.5743  1.9014
  524MOL0     C72231   9.220   8.297   6.094  0.4388  0.4687 -0.2292
  524MOL0     C72232   9.120   8.200   6.065 -1.8032  1.0449 -0.4340
  524MOL0     O72233   9.136   8.090   6.140 -0.0133  0.6829  0.1421
  524MOL0     C72234   9.090   7.964   6.084 -1.1949 -0.1109 -0.6931
  524MOL0     C72235   9.186   7.914   5.974 -0.6936  0.4988  0.2129
  524MOL0     C72236   9.113   7.800   5.896  0.9243  0.1613  0.7953
  524MOL0     C72237   9.193   7.751   5.782  0.3628  0.2188  0.4679
  524MOL0     C72238   9.281   7.645   5.819  0.4422  0.3453  0.5397
  524MOL0     C72239   9.359   7.560   5.842 -0.5498 -0.8854  0.1549
  524MOL0     C72240   9.033   8.225   5.965  0.3480  0.2854  0.0888
  524MOL0     C72241   9.021   8.355   5.909  0.8557 -0.0242  0.6535
  524MOL0     C72242   8.893   8.397   5.834 -0.1145  0.1308  0.5618
  524MOL0     H72243   9.172   8.921   5.803  0.9909  0.8001  1.1951
  524MOL0     H72244   9.315   9.051   5.655 -0.9359 -1.2104 -3.8482
  524MOL0     H72245   9.644   9.004   5.391 -1.4739  0.9768  0.3841
  524MOL0     H72246   9.610   8.841   5.453  2.0788 -0.9909  1.6661
  524MOL0     H72247   9.832   9.022   5.532  0.3395  0.4884 -2.5710
  524MOL0     H72248   9.797   8.866   5.619 -0.0708  0.3428  0.0962
  524MOL0     H72249   9.870   8.730   5.469 -1.5766  0.5243 -0.3158
  524MOL0     H72250   9.813   8.836   5.337 -0.8858 -0.1413 -0.0552
  524MOL0     H72251  10.040   8.970   5.374 -2.3881  1.7567  2.8728
  524MOL0     H72252  10.072   8.863   5.518 -1.0155 -0.0324  0.8762
  524MOL0     H72253  10.072   8.807   5.232 -1.0487 -0.0607  0.5768
  524MOL0     H72254  10.064   8.659   5.339 -0.5951 -0.8497 -2.2285
  524MOL0     H72255  10.267   8.749   5.444 -0.5246  1.7400  0.1256
  524MOL0     H72256  10.294   8.680   5.290 -2.1843 -2.9309  1.5874
  524MOL0     H72257  10.267   8.977   5.351 -1.3474  0.1557 -0.8023
  524MOL0     H72258  10.281   8.915   5.183  0.1184 -0.7244 -0.1338
  524MOL0     H72259  10.498   8.881   5.221 -1.0940 -0.7486  0.1871
  524MOL0     H72260  10.474   9.018   5.340  0.9725 -0.3023  0.5758
  524MOL0     H72261  10.600   8.663   5.321  2.3733  0.4011  0.3961
  524MOL0     H72262  10.561   8.483   5.561  0.6469 -0.2222  0.5126
  524MOL0     H72263  10.660   8.549   5.691 -0.2817  1.9369  0.5297
  524MOL0     H72264  10.749   8.524   5.399  4.3834  1.9390 -0.8471
  524MOL0     H72265  10.849   8.592   5.530  0.3417  0.5271  0.1535
  524MOL0     H72266  10.820   8.362   5.645 -1.4807  3.7822  1.1266
  524MOL0     H72267  10.744   8.311   5.493  0.6030  2.1379 -2.1937
  524MOL0     H72268  10.926   8.377   5.365 -0.9149  3.4946  0.8762
  524MOL0     H72269  11.026   8.429   5.509 -1.4710  0.8233  1.6923
  524MOL0     H72270  11.236   8.190   5.458 -0.3260  1.0174 -0.1197
  524MOL0     H72271  11.484   8.218   5.590  0.7586 -1.9162 -4.1895
  524MOL0     H72272  11.433   8.053   5.540 -0.9540 -1.1141  0.7425
  524MOL0     H72273  11.489   8.081   5.712 -1.0986 -1.0546  0.0710
  524MOL0     H72274  11.203   7.854   6.070  3.8077  1.6830 -4.5168
  524MOL0     H72275  11.293   7.681   6.238 -1.8474  1.0250  0.3395
  524MOL0     H72276  11.348   7.662   6.475 -0.3104  0.3746  1.8477
  524MOL0     H72277  11.426   7.532   6.387  0.7237  0.5887  0.5873
  524MOL0     H72278  11.491   7.506   6.622 -0.8846 -1.4714 -3.1763
  524MOL0     H72279  11.625   7.548   6.518 -0.0554 -1.0499  0.1740
  524MOL0     H72280  11.473   7.741   6.697 -1.3873 -1.2773  0.7373
  524MOL0     H72281  11.617   7.781   6.608  2.0303 -1.4537  1.8309
  524MOL0     H72282  11.740   7.594   6.755 -0.9371 -1.3694  0.0631
  524MOL0     H72283  11.594   7.607   6.853  1.9089 -0.6895  0.8792
  524MOL0     H72284  11.668   7.877   6.840  1.0957  0.0660 -2.7488
  524MOL0     H72285  11.733   7.768   6.963  3.6265 -0.0469  0.2752
  524MOL0     H72286  11.876   7.842   6.720 -0.3892 -2.8165 -0.1305
  524MOL0     H72287  11.930   7.720   6.822 -2.3214 -1.9216 -3.8497
  524MOL0     H72288  11.930   7.859   7.027 -1.6844 -1.4452 -0.8051
  524MOL0     H72289  11.882   7.999   6.937  0.5324 -0.0768 -3.3039
  524MOL0     H72290  12.117   7.971   6.796 -0.5590 -0.1038 -0.6333
  524MOL0     H72291  12.147   7.842   6.912 -4.4577 -1.5937  4.3363
  524MOL0     H72292  11.606   7.964   6.332 -1.2400 -1.1191  0.2411
  524MOL0     H72293  11.501   8.128   6.191  1.2267 -1.0294  1.9924
  524MOL0     H72294  11.062   8.157   5.921 -1.2486  4.3959 -0.8921
  524MOL0     H72295  10.912   8.204   5.735 -0.7413  0.4747 -2.8343
  524MOL0     H72296   9.594   8.709   5.671  0.1241  1.3500 -1.3330
  524MOL0     H72297   9.439   8.590   5.801  2.4492 -0.1891 -0.2768
  524MOL0     H72298   9.301   8.496   6.037  1.3694 -0.8500 -3.2451
  524MOL0     H72299   9.297   8.279   6.168  1.0027 -0.7995 -1.1046
  524MOL0     H72300   9.091   7.883   6.158  0.0559  0.0711 -0.4905
  524MOL0     H72301   8.988   7.963   6.045 -0.8696 -2.2152 -1.6018
  524MOL0     H72302   9.275   7.866   6.017 -0.5066  1.4638  0.9336
  524MOL0     H72303   9.204   7.986   5.894  0.9860 -2.6675 -2.5310
  524MOL0     H72304   9.064   7.727   5.960 -1.8466  1.3018  0.1219
  524MOL0     H72305   9.022   7.847   5.857 -0.2856 -2.4119  0.3086
  524MOL0     H72306   9.243   7.830   5.725  0.3846 -0.3188 -0.2708
  524MOL0     H72307   9.121   7.699   5.717 -0.3645 -0.1064  1.5103
  524MOL0     H72308   9.419   7.479   5.877  3.0404  2.1830  1.7772
  524MOL0     H72309   8.964   8.148   5.931  0.2323  1.0332 -1.4449
  524MOL0     H72310   8.815   8.327   5.864 -0.7897  1.3023  1.6389
  524MOL0     H72311   8.858   8.498   5.859  2.4217  1.2833 -0.2320
  524MOL0     H72312   8.920   8.380   5.729 -3.1162 -0.0076 -0.2946
  525MOL0     O72313   6.674   0.505   0.359  0.1292  0.5932  0.6034
  525MOL0     C72314   6.640   0.588   0.444 -0.6263 -0.0829  0.3306
  525MOL0     O72315   6.627   0.725   0.422 -0.6222  0.6806  0.0968
  525MOL0     C72316   6.627   0.774   0.295 -0.0142 -0.5758  0.6245
  525MOL0     C72317   6.745   0.819   0.231  0.4191  0.3989 -0.4387
  525MOL0     C72318   6.747   0.879   0.100 -0.0921  0.6171 -0.2293
  525MOL0     C72319   6.629   0.896   0.028 -0.0022  0.4347 -0.4397
  525MOL0     O72320   6.638   0.969  -0.094  0.3328  0.6746 -0.2836
  525MOL0     C72321   6.526   0.979  -0.187 -1.3254  0.1462 -0.0736
  525MOL0     C72322   6.587   0.996  -0.321  0.4239 -0.1879 -0.2192
  525MOL0     C72323   6.494   1.078  -0.413 -1.1703  0.5244 -0.4627
  525MOL0     C72324   6.361   1.027  -0.431  1.2044  0.5706  0.3930
  525MOL0     C72325   6.273   1.116  -0.523 -0.0395  0.2256  0.7948
  525MOL0     C72326   6.129   1.052  -0.557 -0.6615  0.5561  0.2312
  525MOL0     C72327   6.055   0.995  -0.443  0.3042  0.4229  0.3469
  525MOL0     C72328   5.918   0.939  -0.479  0.1319  0.2591  0.6211
  525MOL0     N72329   5.819   1.041  -0.495  0.1074 -0.7202  0.7277
  525MOL0     C72330   5.760   1.112  -0.392  0.8328  0.0254  0.3750
  525MOL0     C72331   5.651   1.167  -0.451 -0.3905 -0.1209 -0.8623
  525MOL0     C72332   5.540   1.249  -0.382  0.1865 -0.3841  0.2686
  525MOL0     C72333   5.410   1.170  -0.399  0.2995  0.1813  0.3801
  525MOL0     C72334   5.403   1.038  -0.311 -1.0278  0.9838 -0.0879
  525MOL0     C72335   5.305   0.941  -0.363 -1.0653 -0.1219 -0.1923
  525MOL0     O72336   5.166   0.989  -0.362 -0.0738  0.1482 -0.1743
  525MOL0     C72337   5.095   0.973  -0.244  0.2337 -0.4376 -0.5330
  525MOL0     C72338   5.123   1.051  -0.133  0.0517  0.1570  0.9637
  525MOL0     C72339   5.036   1.052  -0.021 -1.0386 -0.1794  0.1622
  525MOL0     C72340   5.088   1.126   0.092 -0.5826  0.0340 -0.2013
  525MOL0     C72341   4.923   0.961  -0.009  0.2426 -0.1154 -0.3223
  525MOL0     C72342   4.842   0.942   0.117 -0.4694 -0.4646 -0.9810
  525MOL0     O72343   4.726   0.879   0.104 -0.0192 -0.5364  0.7633
  525MOL0     C72344   4.653   0.838   0.220 -0.5726  0.3220  0.2172
  525MOL0     C72345   4.520   0.812   0.186  0.7165  0.3676  0.8690
  525MOL0     C72346   4.429   0.779   0.287  0.2677  0.0496  0.0714
  525MOL0     C72347   4.472   0.753   0.420 -0.2497 -0.4193  0.5391
  525MOL0     O72348   4.389   0.699   0.513 -0.1891  0.4522  0.3555
  525MOL0     C72349   4.246   0.683   0.483  0.1369 -0.0390 -0.0115
  525MOL0     C72350   4.180   0.610   0.605 -0.5707  0.1299  0.0122
  525MOL0     C72351   4.228   0.458   0.621 -0.3850  0.5402  0.6874
  525MOL0     C72352   4.129   0.364   0.539 -1.3228 -1.0280 -0.1624
  525MOL0     C72353   4.025   0.284   0.631 -0.2382  0.0179 -0.4803
  525MOL0     C72354   3.896   0.359   0.664 -0.1124 -0.2612  0.1125
  525MOL0     C72355   3.911   0.434   0.789  0.5054  0.2058  0.6311
  525MOL0     C72356   3.771   0.492   0.823  0.1937 -0.1874 -0.3789
  525MOL0    Cl72357   3.788   0.597   0.961 -0.0840  0.0573  0.2755
  525MOL0     C72358   4.604   0.763   0.451 -0.1355 -0.5404 -0.8566
  525MOL0     C72359   4.693   0.800   0.349 -0.3604  0.4680 -0.6906
  525MOL0     O72360   4.880   0.989   0.225  0.0417 -0.0290  0.2657
  525MOL0     C72361   4.905   0.879  -0.125 -0.3392  0.3092  0.2168
  525MOL0     C72362   4.988   0.888  -0.239 -0.0034  0.1377  0.3149
  525MOL0     N72363   5.665   1.149  -0.589 -1.0730  0.3559  0.3696
  525MOL0     N72364   5.755   1.062  -0.613 -0.9320 -0.4268  0.1996
  525MOL0     C72365   6.515   0.839   0.083 -0.1237 -0.8209 -0.1209
  525MOL0     C72366   6.514   0.771   0.208  0.6051 -0.8136 -0.2415
  525MOL0     C72367   6.608   0.548   0.589  0.6025  0.2979 -0.9386
  525MOL0     C72368   6.603   0.658   0.677  0.1044  0.6999 -0.5286
  525MOL0     C72369   6.607   0.636   0.814  0.2379  1.1629 -0.5293
  525MOL0     C72370   6.603   0.506   0.873 -0.8284 -0.2652 -0.2710
  525MOL0     O72371   6.621   0.471   1.005 -0.5253  0.3204  0.1204
  525MOL0     C72372   6.664   0.582   1.088 -0.1165 -1.0612  0.1001
  525MOL0     C72373   6.660   0.555   1.237 -0.3888  0.0862 -0.3020
  525MOL0     C72374   6.519   0.513   1.282 -0.2979 -0.3864  0.0125
  525MOL0     C72375   6.517   0.467   1.430 -1.0853  0.2407  0.0259
  525MOL0     C72376   6.495   0.578   1.529 -0.3979  0.0679  0.7267
  525MOL0     C72377   6.476   0.670   1.606  0.4576  0.2086  0.6017
  525MOL0     C72378   6.575   0.408   0.789 -0.4040  0.6233  0.0601
  525MOL0     C72379   6.589   0.421   0.646  0.4255 -0.6690  0.0394
  525MOL0     C72380   6.592   0.298   0.559  0.8381 -0.7715  0.4351
  525MOL0     H72381   6.836   0.814   0.291 -0.0692  1.9334  0.4996
  525MOL0     H72382   6.848   0.894   0.064  0.6373 -2.5810  0.1959
  525MOL0     H72383   6.466   1.068  -0.166 -3.3538 -0.9493 -0.9116
  525MOL0     H72384   6.462   0.891  -0.183 -2.3329  0.8590 -0.2246
  525MOL0     H72385   6.676   1.058  -0.308 -0.7665  1.2665  1.5603
  525MOL0     H72386   6.612   0.905  -0.377  1.5342 -0.9829  1.4675
  525MOL0     H72387   6.482   1.177  -0.366 -0.2420 -1.0147  3.4241
  525MOL0     H72388   6.547   1.093  -0.508  1.9090 -1.0454  0.8651
  525MOL0     H72389   6.368   0.930  -0.481 -0.2188  1.8036 -2.4141
  525MOL0     H72390   6.301   1.009  -0.341 -0.4211 -2.9983 -1.2024
  525MOL0     H72391   6.326   1.139  -0.615  0.3673 -2.2905  0.3220
  525MOL0     H72392   6.254   1.204  -0.461  1.5192 -0.7020  2.7143
  525MOL0     H72393   6.069   1.115  -0.624 -3.2569 -0.4758  1.4538
  525MOL0     H72394   6.150   0.980  -0.637 -0.3918  5.0220 -4.2617
  525MOL0     H72395   6.045   1.059  -0.355  2.2106 -1.0790  1.7573
  525MOL0     H72396   6.115   0.911  -0.408  1.8776  1.9055  1.3859
  525MOL0     H72397   5.925   0.886  -0.574 -2.6793  1.2213 -0.2051
  525MOL0     H72398   5.900   0.863  -0.402 -0.5503 -0.3492 -0.1290
  525MOL0     H72399   5.796   1.109  -0.290  0.0617 -0.9643  0.6377
  525MOL0     H72400   5.536   1.347  -0.429 -1.7310 -1.6353 -2.4477
  525MOL0     H72401   5.556   1.259  -0.274 -1.1630  1.1953  0.3577
  525MOL0     H72402   5.327   1.230  -0.361 -1.9573 -1.0132 -2.2094
  525MOL0     H72403   5.378   1.167  -0.504 -5.2917  3.1788  1.6065
  525MOL0     H72404   5.499   0.989  -0.332 -1.2666  2.3486 -6.2050
  525MOL0     H72405   5.388   1.050  -0.203 -0.5908  0.0034  0.1019
  525MOL0     H72406   5.335   0.929  -0.468 -1.0540  0.4588 -0.2555
  525MOL0     H72407   5.319   0.840  -0.322  0.7941 -1.0200 -2.7513
  525MOL0     H72408   5.210   1.115  -0.125 -1.4589  2.6723 -0.9027
  525MOL0     H72409   5.114   1.059   0.174  0.4316 -0.4727 -0.9109
  525MOL0     H72410   5.008   1.196   0.119 -0.2238 -0.5230  2.5671
  525MOL0     H72411   5.177   1.188   0.076 -0.1286 -0.4425  0.4480
  525MOL0     H72412   4.486   0.817   0.083 -0.6031  0.7594  1.2918
  525MOL0     H72413   4.331   0.744   0.256  1.8063 -3.5466 -1.3113
  525MOL0     H72414   4.197   0.781   0.476  0.2855 -0.0208 -0.8133
  525MOL0     H72415   4.234   0.639   0.384  1.9253  1.1171 -0.7984
  525MOL0     H72416   4.201   0.655   0.703 -2.4778  1.0824  0.0358
  525MOL0     H72417   4.072   0.614   0.588 -0.1701  1.3401 -2.8580
  525MOL0     H72418   4.218   0.430   0.727 -1.2163 -0.3893  0.3863
  525MOL0     H72419   4.332   0.439   0.594 -0.8439 -1.9127  0.3999
  525MOL0     H72420   4.177   0.285   0.482 -1.8997 -2.2893  1.0520
  525MOL0     H72421   4.072   0.431   0.474 -0.2421  1.9426  1.6930
  525MOL0     H72422   3.983   0.220   0.553 -0.4131 -0.2270 -0.1872
  525MOL0     H72423   4.063   0.222   0.713 -0.0189  0.7309 -0.0405
  525MOL0     H72424   3.820   0.280   0.671 -0.3070  0.0546  2.0649
  525MOL0     H72425   3.873   0.433   0.587  1.7753  0.0340 -0.2197
  525MOL0     H72426   3.992   0.506   0.773 -0.6038  1.0447 -1.6364
  525MOL0     H72427   3.940   0.371   0.873 -1.5345  0.4022  1.5371
  525MOL0     H72428   3.706   0.409   0.851  0.5652  0.5424  3.1124
  525MOL0     H72429   3.738   0.550   0.736  1.4798  2.7104  0.9097
  525MOL0     H72430   4.635   0.720   0.546 -2.6993  0.2074  0.4079
  525MOL0     H72431   4.797   0.812   0.375 -0.6389  0.4815  0.4834
  525MOL0     H72432   4.829   0.802  -0.120 -0.9621  0.9211  0.4681
  525MOL0     H72433   4.966   0.836  -0.331  0.8350  0.7816 -0.2604
  525MOL0     H72434   6.428   0.838   0.018  1.0899  1.4037 -1.9328
  525MOL0     H72435   6.426   0.720   0.248  0.9604  0.8114  2.9254
  525MOL0     H72436   6.613   0.758   0.638 -2.9381  1.2849 -0.0770
  525MOL0     H72437   6.629   0.720   0.880  0.8584  1.7803 -1.4910
  525MOL0     H72438   6.761   0.628   1.067  0.5026 -0.7470  3.1692
  525MOL0     H72439   6.587   0.660   1.090  1.1093  0.2981 -2.3559
  525MOL0     H72440   6.697   0.639   1.297  1.8181  0.1007 -1.5745
  525MOL0     H72441   6.733   0.482   1.273 -1.3513  0.0724  1.7417
  525MOL0     H72442   6.447   0.595   1.275  0.8087  0.6117  0.1212
  525MOL0     H72443   6.479   0.432   1.220 -0.9701 -1.9578  2.3414
  525MOL0     H72444   6.603   0.407   1.461 -0.8707  0.5663  0.0716
  525MOL0     H72445   6.425   0.409   1.436 -0.3168 -1.0216 -0.0493
  525MOL0     H72446   6.474   0.757   1.669  0.1279 -0.5049  1.6068
  525MOL0     H72447   6.564   0.306   0.825 -0.8833  0.1746 -1.3003
  525MOL0     H72448   6.558   0.211   0.616  2.3386 -1.3472  0.4957
  525MOL0     H72449   6.544   0.309   0.461 -0.7237 -2.4856  0.9342
  525MOL0     H72450   6.695   0.279   0.526  0.6695  2.3516 -2.4467
  526MOL0     O72451  10.179   6.176  11.579  0.5662 -0.3913  0.4256
  526MOL0     C72452  10.276   6.109  11.543  0.9188 -0.5453  0.1059
  526MOL0     O72453  10.307   5.978  11.589  0.3625  0.9387  0.0033
  526MOL0     C72454  10.208   5.901  11.662 -0.0029  0.0693 -0.2062
  526MOL0     C72455  10.144   5.949  11.775  0.3315  0.2680  0.0980
  526MOL0     C72456  10.074   5.859  11.862 -0.6575 -0.6568 -0.2484
  526MOL0     C72457  10.055   5.731  11.825  0.5657 -0.4057  0.7927
  526MOL0     O72458   9.980   5.660  11.915 -0.5005  0.3452  0.3293
  526MOL0     C72459   9.975   5.524  11.934  0.3751 -0.1926  0.5205
  526MOL0     C72460   9.837   5.493  11.998 -0.7400 -0.6576 -0.8345
  526MOL0     C72461   9.815   5.349  12.017 -0.9232 -0.2009 -0.0253
  526MOL0     C72462   9.702   5.285  11.941  1.0162 -0.6382 -0.3968
  526MOL0     C72463   9.626   5.185  12.027 -0.3626 -0.9508  0.1267
  526MOL0     C72464   9.496   5.124  11.966 -0.3731  0.2619 -0.2261
  526MOL0     C72465   9.390   5.220  11.923  1.4520  0.5952 -0.7481
  526MOL0     C72466   9.265   5.145  11.873 -0.6180  0.4337  1.3483
  526MOL0     N72467   9.188   5.239  11.792  0.1177 -0.2702  0.2376
  526MOL0     C72468   9.229   5.302  11.676  0.5054  0.1934 -0.7177
  526MOL0     C72469   9.112   5.353  11.627 -1.2652  0.4218 -0.8173
  526MOL0     C72470   9.089   5.434  11.502 -0.0954  0.4446 -0.6290
  526MOL0     C72471   9.069   5.360  11.365  0.0309  0.4416 -0.2986
  526MOL0     C72472   9.009   5.445  11.256  0.4992  0.3535 -0.3416
  526MOL0     C72473   9.008   5.378  11.112 -0.7519  0.3582  0.4204
  526MOL0     O72474   8.944   5.480  11.032 -0.2041  0.1854  0.2563
  526MOL0     C72475   8.866   5.444  10.923 -0.4307  0.5157  0.9983
  526MOL0     C72476   8.836   5.318  10.864 -1.3016 -1.2359 -0.4085
  526MOL0     C72477   8.743   5.305  10.763 -0.2341 -0.5106  0.3984
  526MOL0     C72478   8.734   5.167  10.712 -0.4310  0.0695  0.2276
  526MOL0     C72479   8.663   5.418  10.707 -0.2603  0.6566  0.0249
  526MOL0     C72480   8.573   5.409  10.588  1.4827 -0.3951  0.5461
  526MOL0     O72481   8.534   5.517  10.531 -0.4014 -0.6805  0.0138
  526MOL0     C72482   8.492   5.517  10.404 -0.9551  0.0377 -0.0295
  526MOL0     C72483   8.378   5.593  10.381 -0.5900 -0.2344 -0.1242
  526MOL0     C72484   8.340   5.627  10.254 -0.2597 -1.8762  0.1597
  526MOL0     C72485   8.411   5.585  10.145 -1.0286 -0.3557  0.1965
  526MOL0     O72486   8.366   5.615  10.024  0.6558  0.4292 -0.7925
  526MOL0     C72487   8.292   5.498   9.973  0.2693 -0.4277  0.6061
  526MOL0     C72488   8.144   5.473  10.027 -0.3316 -0.0432 -0.0818
  526MOL0     C72489   8.091   5.341   9.974 -1.1023  0.3026 -0.7330
  526MOL0     C72490   7.991   5.280  10.082 -0.0880 -0.7621  0.3969
  526MOL0     C72491   7.916   5.154  10.030  0.1684 -0.0325  0.3002
  526MOL0     C72492   7.879   5.052  10.143  0.5502 -0.4796  0.6916
  526MOL0     C72493   7.781   5.115  10.240  1.5826 -0.3754 -0.2572
  526MOL0     C72494   7.758   5.043  10.375  0.3841  1.0067 -0.5409
  526MOL0    Cl72495   7.681   4.887  10.365 -0.3241 -0.3225  0.1124
  526MOL0     C72496   8.528   5.504  10.163  0.5708 -0.5612 -0.2580
  526MOL0     C72497   8.567   5.463  10.293  0.3013 -1.0714 -0.2057
  526MOL0     O72498   8.532   5.299  10.551 -0.2518  0.1403 -0.5530
  526MOL0     C72499   8.700   5.542  10.762  0.4647  0.7413  0.8126
  526MOL0     C72500   8.801   5.554  10.864  0.1178 -0.0248  0.7701
  526MOL0     N72501   9.002   5.332  11.708 -0.0738 -0.2899  0.1787
  526MOL0     N72502   9.051   5.270  11.811  0.4070  0.0682  0.4409
  526MOL0     C72503  10.120   5.684  11.714  0.1510  0.5144  0.8532
  526MOL0     C72504  10.192   5.760  11.633 -0.6671  0.1891  0.0028
  526MOL0     C72505  10.372   6.164  11.444  0.1902 -1.2010  0.0932
  526MOL0     C72506  10.365   6.301  11.412 -0.2369  0.5268 -0.1954
  526MOL0     C72507  10.460   6.375  11.341 -0.3025  0.0591  0.4748
  526MOL0     C72508  10.572   6.302  11.294 -0.8539 -0.2445  0.3949
  526MOL0     O72509  10.680   6.367  11.225 -0.3446  0.1336 -0.2283
  526MOL0     C72510  10.691   6.510  11.201  0.4222 -0.6248  0.4893
  526MOL0     C72511  10.730   6.574  11.338 -1.4563  0.7311 -0.1368
  526MOL0     C72512  10.781   6.726  11.343  0.3017  0.4365 -0.6301
  526MOL0     C72513  10.803   6.766  11.487  0.0292  1.1651 -0.5402
  526MOL0     C72514  10.693   6.735  11.581 -0.4373 -0.8333  1.0271
  526MOL0     C72515  10.614   6.735  11.670 -0.6302 -0.5131  0.4558
  526MOL0     C72516  10.566   6.168  11.306  1.0836 -0.1062 -0.7382
  526MOL0     C72517  10.478   6.098  11.388  0.4085 -0.1891 -0.0549
  526MOL0     C72518  10.496   5.947  11.365 -0.1904 -0.6277 -0.5772
  526MOL0     H72519  10.145   6.055  11.798  2.8622 -0.2516  2.8935
  526MOL0     H72520  10.033   5.888  11.959 -0.5151  1.8635 -0.8536
  526MOL0     H72521  10.057   5.496  12.000  0.8736 -0.7614 -0.3214
  526MOL0     H72522   9.984   5.462  11.845 -1.2118  0.5459 -0.1864
  526MOL0     H72523   9.826   5.548  12.092 -3.0052 -1.5885 -0.4838
  526MOL0     H72524   9.756   5.534  11.938 -2.5864 -0.3107  1.7280
  526MOL0     H72525   9.901   5.292  11.980  1.2956  2.5474  0.5592
  526MOL0     H72526   9.822   5.339  12.126 -0.2385  1.9665  0.1726
  526MOL0     H72527   9.642   5.361  11.890  1.9061 -0.2285 -0.8597
  526MOL0     H72528   9.758   5.223  11.870  1.2343 -2.5018  1.3049
  526MOL0     H72529   9.604   5.245  12.116 -1.9362  0.2570 -1.0211
  526MOL0     H72530   9.696   5.107  12.060  0.9934  1.1347  2.5610
  526MOL0     H72531   9.530   5.054  11.889 -1.7042 -2.7846  1.7457
  526MOL0     H72532   9.464   5.052  12.043  4.9093  0.6934  2.8745
  526MOL0     H72533   9.433   5.294  11.854  0.1990  0.8974 -1.2280
  526MOL0     H72534   9.354   5.276  12.010  3.4445  1.7144 -0.5575
  526MOL0     H72535   9.294   5.054  11.820  0.3221  0.5115  1.7045
  526MOL0     H72536   9.214   5.105  11.961 -1.3751  1.9130  1.6108
  526MOL0     H72537   9.325   5.305  11.624 -0.0936 -0.0365 -1.8583
  526MOL0     H72538   9.166   5.509  11.483  0.0614  0.9742  1.8742
  526MOL0     H72539   8.996   5.487  11.521 -0.4866 -0.0827 -1.0262
  526MOL0     H72540   9.164   5.322  11.327 -0.4145  0.0300 -1.0262
  526MOL0     H72541   8.996   5.281  11.386 -0.7333  1.5132  1.3199
  526MOL0     H72542   8.907   5.470  11.287 -0.3008 -1.2902 -1.5113
  526MOL0     H72543   9.058   5.543  11.251 -1.6746  1.6134  1.2868
  526MOL0     H72544   9.108   5.349  11.080 -0.4717  0.7625  0.8966
  526MOL0     H72545   8.946   5.288  11.107  0.2368 -0.2490 -2.0550
  526MOL0     H72546   8.899   5.235  10.893 -0.7333 -0.2364  1.3977
  526MOL0     H72547   8.630   5.134  10.714 -0.0359 -1.4035  3.5586
  526MOL0     H72548   8.799   5.106  10.776  0.0172  1.7966  1.4859
  526MOL0     H72549   8.782   5.159  10.614  3.5581  3.2799  1.6023
  526MOL0     H72550   8.324   5.627  10.468  3.2937  1.3105  1.9392
  526MOL0     H72551   8.243   5.675  10.244 -0.1816 -1.6011  0.7034
  526MOL0     H72552   8.283   5.511   9.865  2.8172  0.2328  0.4093
  526MOL0     H72553   8.347   5.407   9.999 -2.5108 -2.3264  0.3219
  526MOL0     H72554   8.152   5.464  10.136  1.0094 -1.8478 -0.2817
  526MOL0     H72555   8.077   5.554   9.995  0.1118  0.8685  1.2270
  526MOL0     H72556   8.183   5.282   9.977 -3.3915 -3.8556  5.0014
  526MOL0     H72557   8.047   5.341   9.873 -3.2472 -1.8633  0.1179
  526MOL0     H72558   7.918   5.358  10.107 -1.1879 -1.8457  0.6199
  526MOL0     H72559   8.048   5.258  10.173  0.1108 -0.3367  0.3817
  526MOL0     H72560   7.828   5.181   9.971  0.0833  3.0815  1.6555
  526MOL0     H72561   7.990   5.098   9.974  0.3906 -2.1886  2.5852
  526MOL0     H72562   7.966   5.002  10.186  1.9469  0.5270 -0.8432
  526MOL0     H72563   7.836   4.966  10.091  1.6345  0.1504 -1.3245
  526MOL0     H72564   7.682   5.126  10.193  3.0485 -1.3886 -3.9611
  526MOL0     H72565   7.817   5.213  10.272  2.2392 -0.2390 -1.3510
  526MOL0     H72566   7.692   5.107  10.434 -1.0880  0.3140 -1.3902
  526MOL0     H72567   7.853   5.029  10.428 -1.6296 -0.2838  3.0911
  526MOL0     H72568   8.577   5.454  10.081 -0.2045 -1.0945 -0.4114
  526MOL0     H72569   8.658   5.412  10.321 -0.7694 -1.5720  2.7935
  526MOL0     H72570   8.667   5.635  10.717 -0.9135 -1.3153 -2.8733
  526MOL0     H72571   8.806   5.651  10.913 -1.5491  0.7866 -0.5670
  526MOL0     H72572  10.104   5.580  11.688 -1.0567  0.8295  0.2825
  526MOL0     H72573  10.239   5.716  11.545  1.9807  1.9761  0.3809
  526MOL0     H72574  10.290   6.360  11.463  2.2187  2.5194  1.3680
  526MOL0     H72575  10.447   6.482  11.329 -1.6008 -0.1266 -0.0383
  526MOL0     H72576  10.761   6.544  11.124  0.5139 -1.0200  0.3948
  526MOL0     H72577  10.595   6.547  11.164  0.1195 -0.3631  1.4977
  526MOL0     H72578  10.812   6.512  11.372  0.1833  1.2195 -2.8449
  526MOL0     H72579  10.641   6.566  11.401 -1.2638  1.3547  0.2165
  526MOL0     H72580  10.873   6.741  11.286 -0.1167 -0.4156 -1.5741
  526MOL0     H72581  10.708   6.787  11.289  0.0335  1.4890  0.8743
  526MOL0     H72582  10.822   6.873  11.497 -1.4499  1.7961 -3.4129
  526MOL0     H72583  10.898   6.718  11.510 -1.9833 -0.9754  5.2392
  526MOL0     H72584  10.549   6.733  11.756  0.6636 -0.6748  1.4698
  526MOL0     H72585  10.638   6.111  11.248 -1.2443 -2.8265 -1.1632
  526MOL0     H72586  10.395   5.904  11.365 -0.1312 -0.7898  0.2892
  526MOL0     H72587  10.545   5.914  11.274  1.9854 -3.0899  1.3366
  526MOL0     H72588  10.555   5.908  11.448 -0.0046 -0.0788 -0.4428
  527MOL0     O72589   7.692   1.757   1.036  0.6885 -0.0033 -0.1847
  527MOL0     C72590   7.716   1.691   0.938 -0.8434 -0.6461 -0.4861
  527MOL0     O72591   7.775   1.752   0.823  0.0867 -0.3560  0.3495
  527MOL0     C72592   7.794   1.890   0.820 -0.3829  0.0939 -0.4397
  527MOL0     C72593   7.731   1.958   0.717  0.3910 -0.9608  0.0429
  527MOL0     C72594   7.749   2.091   0.694  0.1447 -0.0424 -0.1485
  527MOL0     C72595   7.823   2.176   0.786  0.6286 -0.6622  0.4529
  527MOL0     O72596   7.845   2.313   0.766 -0.3515 -0.7782 -0.2293
  527MOL0     C72597   7.838   2.374   0.637 -0.2356 -0.8614  0.1146
  527MOL0     C72598   7.971   2.452   0.621  0.3870  0.2743 -0.3332
  527MOL0     C72599   7.986   2.566   0.719  0.0140  0.7165  0.5407
  527MOL0     C72600   8.117   2.629   0.699 -0.1556  0.2646 -0.2882
  527MOL0     C72601   8.123   2.716   0.567  0.6874  0.0094  0.1093
  527MOL0     C72602   8.204   2.843   0.594  0.0641 -1.1641 -0.2276
  527MOL0     C72603   8.352   2.826   0.635 -0.2816 -0.0410  0.7685
  527MOL0     C72604   8.419   2.957   0.615 -0.5570  1.2567 -0.4487
  527MOL0     N72605   8.457   2.977   0.475  0.6714  0.5465 -0.3590
  527MOL0     C72606   8.556   2.911   0.407  0.9432  0.0709  1.0929
  527MOL0     C72607   8.549   2.964   0.289 -0.0490 -0.6591  1.1384
  527MOL0     C72608   8.643   2.949   0.170 -0.4764  0.4789  0.3986
  527MOL0     C72609   8.598   2.866   0.051  0.2587  0.4277 -0.7070
  527MOL0     C72610   8.706   2.863  -0.062  0.7271 -0.3646  0.1472
  527MOL0     C72611   8.686   2.752  -0.170  0.8525 -0.2374  0.2193
  527MOL0     O72612   8.548   2.764  -0.212 -1.1991  0.6176 -0.4623
  527MOL0     C72613   8.468   2.661  -0.225  0.1290 -0.5250 -0.5441
  527MOL0     C72614   8.475   2.529  -0.164 -0.0241 -0.4897  0.5437
  527MOL0     C72615   8.366   2.443  -0.174 -0.5713 -0.6203  0.9356
  527MOL0     C72616   8.375   2.324  -0.090 -0.9573 -0.2975 -0.1439
  527MOL0     C72617   8.249   2.479  -0.246 -0.4081  0.7840 -0.5476
  527MOL0     C72618   8.123   2.400  -0.257  0.7418  0.8407  0.2173
  527MOL0     O72619   8.076   2.357  -0.135 -0.5567  0.3866 -0.7067
  527MOL0     C72620   7.967   2.278  -0.132 -0.0976 -0.0933 -0.0170
  527MOL0     C72621   7.979   2.141  -0.111  0.3097  0.0829 -1.9064
  527MOL0     C72622   7.874   2.059  -0.089  0.4341  0.4902  0.1138
  527MOL0     C72623   7.742   2.099  -0.097 -0.5475 -1.2384  0.3016
  527MOL0     O72624   7.628   2.021  -0.095  0.0285  0.2518 -0.2839
  527MOL0     C72625   7.639   1.901  -0.168  0.7337  0.6494  0.1157
  527MOL0     C72626   7.508   1.816  -0.165 -0.0843 -0.4243  0.4491
  527MOL0     C72627   7.486   1.769  -0.018 -0.4455 -0.1525  0.9789
  527MOL0     C72628   7.340   1.743   0.010 -0.1127  0.4148 -0.7043
  527MOL0     C72629   7.313   1.686   0.152 -1.1549 -0.2394 -0.8292
  527MOL0     C72630   7.164   1.664   0.180 -0.0893  0.3005  1.1032
  527MOL0     C72631   7.154   1.585   0.315  0.9606 -0.0856 -0.1974
  527MOL0     C72632   7.006   1.576   0.373 -1.4627  0.0904 -0.5498
  527MOL0    Cl72633   6.946   1.740   0.406  0.0912 -0.2641  0.0688
  527MOL0     C72634   7.731   2.236  -0.123  0.7292  0.6559  0.2028
  527MOL0     C72635   7.838   2.327  -0.138  0.4388 -1.1211 -0.3442
  527MOL0     O72636   8.065   2.381  -0.365 -0.5530 -0.3204 -0.0440
  527MOL0     C72637   8.250   2.602  -0.307 -0.0995  0.1571 -0.6992
  527MOL0     C72638   8.356   2.692  -0.296 -0.1956 -0.0361  0.0260
  527MOL0     N72639   8.458   3.062   0.273  0.5538 -0.5898 -0.5173
  527MOL0     N72640   8.403   3.072   0.396  0.9619 -0.0533  0.0135
  527MOL0     C72641   7.866   2.107   0.903 -0.8747 -0.9711 -0.0378
  527MOL0     C72642   7.859   1.965   0.920 -0.1527 -0.9967 -1.1064
  527MOL0     C72643   7.703   1.544   0.941 -0.2589 -0.4941  0.3048
  527MOL0     C72644   7.570   1.502   0.978 -0.7271  0.1896  0.2023
  527MOL0     C72645   7.555   1.364   0.990  0.6381  0.3918  1.6238
  527MOL0     C72646   7.653   1.269   0.951  0.0059  0.9220  0.5179
  527MOL0     O72647   7.616   1.134   0.966  0.2539 -0.0321  0.0489
  527MOL0     C72648   7.709   1.031   0.946  1.2633 -0.4708 -0.8942
  527MOL0     C72649   7.643   0.899   0.995  0.8575 -0.3014 -0.3494
  527MOL0     C72650   7.633   0.909   1.156  0.4037  0.0250  0.5299
  527MOL0     C72651   7.701   0.795   1.232 -0.5176  0.5033 -0.2922
  527MOL0     C72652   7.647   0.663   1.203 -0.0724 -1.0717  0.0008
  527MOL0     C72653   7.596   0.555   1.190 -0.1636 -0.0106  0.1673
  527MOL0     C72654   7.777   1.314   0.918 -0.6920  0.9841 -0.4251
  527MOL0     C72655   7.804   1.449   0.911 -0.0964 -0.6129 -0.0648
  527MOL0     C72656   7.943   1.494   0.884  0.1598 -0.4132  0.3694
  527MOL0     H72657   7.659   1.906   0.655 -0.4918  0.6212 -0.3331
  527MOL0     H72658   7.702   2.133   0.605  2.2525  0.4725 -1.0831
  527MOL0     H72659   7.756   2.447   0.638 -0.9411 -1.6216 -0.3102
  527MOL0     H72660   7.815   2.309   0.552  0.0792  2.7462 -3.0030
  527MOL0     H72661   8.057   2.386   0.633  1.3161  1.6761  1.1343
  527MOL0     H72662   7.984   2.482   0.517 -1.1788 -0.7828 -0.8823
  527MOL0     H72663   7.895   2.625   0.703  0.3318  1.6853  2.0482
  527MOL0     H72664   7.989   2.531   0.823  0.7484 -0.6327  0.0810
  527MOL0     H72665   8.134   2.702   0.778 -0.6437 -1.7150  1.7513
  527MOL0     H72666   8.202   2.561   0.708  1.7070  2.5871  0.8305
  527MOL0     H72667   8.020   2.739   0.537  1.1556 -0.9614 -2.4044
  527MOL0     H72668   8.171   2.664   0.484 -1.3001  1.9541 -2.4194
  527MOL0     H72669   8.197   2.913   0.511  0.3806 -1.3417 -0.4102
  527MOL0     H72670   8.153   2.893   0.676  0.7035  0.1229 -0.5850
  527MOL0     H72671   8.402   2.748   0.577  2.1533  1.3341  0.8781
  527MOL0     H72672   8.350   2.797   0.741 -4.1674  2.4583  1.5916
  527MOL0     H72673   8.364   3.047   0.646  0.3675  1.2247  1.4331
  527MOL0     H72674   8.511   2.964   0.674 -1.1435  2.7054  0.3546
  527MOL0     H72675   8.612   2.828   0.450 -0.4150 -2.3346 -1.4188
  527MOL0     H72676   8.737   2.910   0.211  0.3776  0.2240 -1.6897
  527MOL0     H72677   8.671   3.049   0.136 -0.5385  0.9843  1.7784
  527MOL0     H72678   8.578   2.765   0.089 -2.6579  1.0158 -0.4874
  527MOL0     H72679   8.501   2.908   0.025  0.9941  1.7742 -1.3922
  527MOL0     H72680   8.706   2.962  -0.108  2.2899 -1.0070 -1.3878
  527MOL0     H72681   8.807   2.845  -0.024  0.8196 -3.1093 -1.0971
  527MOL0     H72682   8.744   2.767  -0.261  0.8005 -1.4893 -0.0350
  527MOL0     H72683   8.708   2.659  -0.117  1.6101  1.1518  2.5060
  527MOL0     H72684   8.552   2.505  -0.092  0.0520 -0.3275  0.5164
  527MOL0     H72685   8.338   2.241  -0.151  1.2635 -2.2300  0.9823
  527MOL0     H72686   8.301   2.317  -0.009 -0.1416  1.9972  0.9019
  527MOL0     H72687   8.479   2.299  -0.070 -0.1545  2.6045 -0.1773
  527MOL0     H72688   8.084   2.111  -0.106  0.0127 -0.9479  2.4437
  527MOL0     H72689   7.908   1.956  -0.083  1.2640  0.8350  2.7939
  527MOL0     H72690   7.673   1.929  -0.268  1.0712 -1.2919 -0.3531
  527MOL0     H72691   7.709   1.838  -0.111  0.5376 -2.2509 -2.5561
  527MOL0     H72692   7.421   1.866  -0.206  1.5101 -0.1452 -2.9198
  527MOL0     H72693   7.524   1.728  -0.227  1.3955  0.0751  0.0753
  527MOL0     H72694   7.517   1.853   0.045  1.7023  1.7733 -2.3436
  527MOL0     H72695   7.549   1.685   0.013  1.8376  1.0279 -0.2251
  527MOL0     H72696   7.305   1.658  -0.050  2.0506 -1.8679  1.0295
  527MOL0     H72697   7.290   1.837  -0.014 -2.2547 -0.6934 -0.7617
  527MOL0     H72698   7.370   1.592   0.158 -1.1363 -0.2165 -0.6186
  527MOL0     H72699   7.352   1.754   0.229 -2.4772  0.1615 -0.4921
  527MOL0     H72700   7.118   1.602   0.102  3.0979 -1.7192  0.6342
  527MOL0     H72701   7.111   1.759   0.192 -0.9753 -0.3753  3.0231
  527MOL0     H72702   7.222   1.632   0.385 -0.1831 -1.9219  2.2949
  527MOL0     H72703   7.179   1.481   0.292  0.3491 -1.1758  3.4827
  527MOL0     H72704   7.011   1.519   0.466 -1.0699 -1.4690 -1.4873
  527MOL0     H72705   6.937   1.520   0.308 -2.6322 -0.5315  1.1535
  527MOL0     H72706   7.629   2.271  -0.131 -0.0799 -1.5703  0.1418
  527MOL0     H72707   7.814   2.427  -0.171  0.8562 -0.8799  0.0786
  527MOL0     H72708   8.152   2.631  -0.344 -0.6861 -1.0626 -0.1307
  527MOL0     H72709   8.326   2.793  -0.323 -4.6764 -1.8553 -2.9960
  527MOL0     H72710   7.899   2.152   0.996  0.0404 -2.6524  0.5094
  527MOL0     H72711   7.893   1.925   1.015 -3.6829 -0.5091  0.5165
  527MOL0     H72712   7.500   1.577   1.015 -2.1029 -1.2188  0.5605
  527MOL0     H72713   7.458   1.326   1.020  0.9289 -2.2504 -0.4094
  527MOL0     H72714   7.728   1.031   0.838  0.1086  2.1140 -1.1685
  527MOL0     H72715   7.796   1.046   1.009 -0.8442  0.7850  1.9433
  527MOL0     H72716   7.695   0.809   0.962  0.2305  0.2902 -3.2326
  527MOL0     H72717   7.540   0.891   0.960 -0.6447  5.4266  1.5976
  527MOL0     H72718   7.689   0.996   1.188  0.7455 -0.2511  0.6909
  527MOL0     H72719   7.528   0.913   1.188  0.1217 -1.9667  0.0239
  527MOL0     H72720   7.684   0.814   1.338 -1.2296 -1.3764 -0.0318
  527MOL0     H72721   7.809   0.801   1.220  0.6179 -4.5570  3.8804
  527MOL0     H72722   7.556   0.456   1.193  0.4593 -0.7125 -4.7374
  527MOL0     H72723   7.860   1.252   0.884 -1.2735  0.1155 -0.2787
  527MOL0     H72724   7.964   1.576   0.953 -2.4899 -1.1161  2.1930
  527MOL0     H72725   8.023   1.424   0.910 -0.7991 -1.2599  1.1303
  527MOL0     H72726   7.954   1.522   0.779  0.0040 -2.6167 -0.2768
  528MOL0     O72727   8.449  11.441   0.757  0.0928 -0.5336 -0.2081
  528MOL0     C72728   8.538  11.358   0.750  0.2064  0.3357  0.4850
  528MOL0     O72729   8.526  11.242   0.669 -0.1262  0.4999 -0.0137
  528MOL0     C72730   8.412  11.215   0.605  1.1620 -0.0795  0.5012
  528MOL0     C72731   8.338  11.103   0.643 -0.0201  0.1051  0.3068
  528MOL0     C72732   8.213  11.078   0.581 -0.4817  0.1394 -0.2717
  528MOL0     C72733   8.163  11.164   0.481 -0.0779 -0.5589  0.1909
  528MOL0     O72734   8.048  11.136   0.412  0.4010 -0.7442  0.4150
  528MOL0     C72735   7.954  11.082   0.503  0.1092  0.5771  0.5470
  528MOL0     C72736   7.806  11.089   0.439 -0.8789 -0.1266 -1.0060
  528MOL0     C72737   7.707  11.042   0.543  0.4831  0.8881  0.7568
  528MOL0     C72738   7.565  11.089   0.525  1.0592  0.1443 -0.0182
  528MOL0     C72739   7.479  11.055   0.657 -0.1717  0.0599  0.7119
  528MOL0     C72740   7.339  11.083   0.614  0.5150  0.5555 -0.0460
  528MOL0     C72741   7.258  11.083   0.747  0.3420 -0.0078  0.9077
  528MOL0     C72742   7.222  10.945   0.809 -0.0927 -0.0241  0.1849
  528MOL0     N72743   7.128  10.861   0.734  0.2000 -0.5938 -0.7938
  528MOL0     C72744   7.179  10.772   0.640  0.2403 -0.2831  0.4208
  528MOL0     C72745   7.077  10.698   0.608 -0.0361  0.4621 -0.1279
  528MOL0     C72746   7.089  10.583   0.511  0.8374  0.5019  0.5870
  528MOL0     C72747   7.042  10.616   0.367  0.3177 -0.0924 -0.2584
  528MOL0     C72748   7.036  10.490   0.270  0.0931  0.0898  0.2449
  528MOL0     C72749   6.983  10.529   0.126  0.4475  0.3615 -0.1185
  528MOL0     O72750   6.946  10.418   0.038  0.5248 -0.0427 -0.3426
  528MOL0     C72751   7.034  10.320   0.030 -0.9034  1.0323  0.8904
  528MOL0     C72752   6.985  10.183   0.004 -0.2769  0.4379 -1.1239
  528MOL0     C72753   7.078  10.076  -0.029  0.8424 -0.5682 -0.0063
  528MOL0     C72754   7.011   9.942  -0.037 -0.2041 -0.6115  0.6689
  528MOL0     C72755   7.218  10.098  -0.029  0.5858  0.6732 -0.0135
  528MOL0     C72756   7.320   9.990  -0.037  0.2257  0.1723  0.3453
  528MOL0     O72757   7.456  10.039  -0.035 -0.1656 -0.4141 -0.2181
  528MOL0     C72758   7.550   9.936  -0.039  0.2624 -0.1639  0.1351
  528MOL0     C72759   7.637   9.930  -0.154 -0.7704 -0.1283  0.8805
  528MOL0     C72760   7.739   9.835  -0.157 -0.4893 -0.9164  0.1735
  528MOL0     C72761   7.755   9.750  -0.054  0.5170 -1.2215 -0.8268
  528MOL0     O72762   7.846   9.640  -0.041 -0.2160 -0.0708  0.3458
  528MOL0     C72763   7.934   9.606  -0.142  0.2944 -0.5744  0.2952
  528MOL0     C72764   8.003   9.472  -0.122  0.1309  0.2709  1.0238
  528MOL0     C72765   8.145   9.487  -0.175 -0.6293 -0.1919  0.4441
  528MOL0     C72766   8.190   9.352  -0.240 -0.2528  0.6778 -0.5404
  528MOL0     C72767   8.320   9.363  -0.313 -0.4094 -1.0432  0.5059
  528MOL0     C72768   8.322   9.301  -0.449 -0.0465  0.2039 -0.5937
  528MOL0     C72769   8.435   9.346  -0.536 -0.3183 -0.2023 -0.6138
  528MOL0     C72770   8.422   9.249  -0.659 -0.1268  0.3197 -0.3359
  528MOL0    Cl72771   8.552   9.273  -0.777  0.2479  0.1110 -0.1728
  528MOL0     C72772   7.673   9.751   0.061  0.8321  0.5120  0.4178
  528MOL0     C72773   7.568   9.833   0.064  0.4037 -1.1372  0.6441
  528MOL0     O72774   7.289   9.878  -0.068  0.7110 -0.2779  0.2827
  528MOL0     C72775   7.268  10.236  -0.008  0.4510  0.8399 -0.8179
  528MOL0     C72776   7.176  10.336   0.020  0.9241 -0.5396  0.4089
  528MOL0     N72777   6.959  10.736   0.684 -0.4943  0.5465 -0.1587
  528MOL0     N72778   6.993  10.836   0.755  0.6955 -0.0018  0.4277
  528MOL0     C72779   8.233  11.276   0.445  0.1129 -0.1554  0.3336
  528MOL0     C72780   8.360  11.307   0.502  0.9690  0.2386 -0.1805
  528MOL0     C72781   8.665  11.375   0.829 -0.2216  0.9872 -1.0660
  528MOL0     C72782   8.674  11.483   0.920  0.6747  0.3538  0.4495
  528MOL0     C72783   8.796  11.523   0.979 -0.4918  0.4691  1.0126
  528MOL0     C72784   8.913  11.448   0.966  0.1637  0.6221  0.2601
  528MOL0     O72785   9.024  11.509   1.014  0.4388 -0.3939 -0.3170
  528MOL0     C72786   9.141  11.424   1.023 -0.5239  0.0885  0.1952
  528MOL0     C72787   9.272  11.498   1.067  0.5211  0.6175  0.4434
  528MOL0     C72788   9.294  11.623   0.983 -0.4783 -0.6814 -0.5068
  528MOL0     C72789   9.232  11.752   1.034  0.0954 -0.0888 -0.2570
  528MOL0     C72790   9.254  11.855   0.933 -0.0671 -0.7239  0.2264
  528MOL0     C72791   9.279  11.926   0.839  0.2792  0.7647  0.9996
  528MOL0     C72792   8.899  11.332   0.891 -0.4335 -0.5515 -0.6807
  528MOL0     C72793   8.782  11.291   0.826  0.1994  0.9591  0.0169
  528MOL0     C72794   8.805  11.177   0.730 -0.0973  0.3551 -0.2798
  528MOL0     H72795   8.379  11.027   0.708 -1.2570 -1.2716 -0.4699
  528MOL0     H72796   8.176  10.979   0.604 -1.4860  0.6830  0.5456
  528MOL0     H72797   7.952  11.122   0.605 -0.8810 -1.9117  1.5990
  528MOL0     H72798   7.980  10.975   0.507 -1.4035  0.1639  0.1639
  528MOL0     H72799   7.782  11.193   0.412  1.8148  0.9800  0.4743
  528MOL0     H72800   7.797  11.024   0.352 -0.2214 -0.0475 -1.1363
  528MOL0     H72801   7.715  10.933   0.545 -1.1869  0.7278  3.0124
  528MOL0     H72802   7.736  11.070   0.645 -0.2953  1.0438  0.9440
  528MOL0     H72803   7.564  11.196   0.506 -0.0427  0.8340  3.3720
  528MOL0     H72804   7.525  11.030   0.441 -2.4717 -1.8576  2.7658
  528MOL0     H72805   7.509  11.118   0.741  2.1344  0.7684 -0.5573
  528MOL0     H72806   7.495  10.953   0.694 -2.6230 -0.8649 -0.5372
  528MOL0     H72807   7.335  11.185   0.575 -0.0750 -0.4524 -2.8829
  528MOL0     H72808   7.294  11.011   0.544 -2.3268  2.6900 -0.5745
  528MOL0     H72809   7.163  11.136   0.732  0.5250 -0.5728 -3.1988
  528MOL0     H72810   7.300  11.138   0.832  0.2689  1.7330 -0.1340
  528MOL0     H72811   7.320  10.896   0.817  0.9171  1.5003 -1.8736
  528MOL0     H72812   7.172  10.971   0.903 -3.5663 -0.5120 -1.3962
  528MOL0     H72813   7.281  10.754   0.609  0.2181 -0.7833  0.6254
  528MOL0     H72814   7.037  10.493   0.545  2.2258 -1.2999 -1.7193
  528MOL0     H72815   7.197  10.571   0.495  0.7034  1.9469 -2.0358
  528MOL0     H72816   6.941  10.658   0.362  0.3965  0.2369  0.7371
  528MOL0     H72817   7.109  10.687   0.317 -1.6414  2.4438  0.4546
  528MOL0     H72818   7.136  10.446   0.268  0.2119  0.3828 -1.3427
  528MOL0     H72819   6.968  10.416   0.314 -0.5757  0.0695 -0.8045
  528MOL0     H72820   6.895  10.594   0.127 -1.0391 -1.5068 -1.1703
  528MOL0     H72821   7.064  10.589   0.083 -0.6938  2.0781  0.0277
  528MOL0     H72822   6.880  10.155   0.004  0.2271 -1.6486  0.3363
  528MOL0     H72823   7.039   9.894   0.057  1.0299  0.6004  0.9541
  528MOL0     H72824   7.049   9.880  -0.119  3.4313  0.5131  1.3645
  528MOL0     H72825   6.902   9.956  -0.030 -0.1354  0.6233 -0.3006
  528MOL0     H72826   7.623  10.009  -0.228 -0.8207 -1.9979 -1.1935
  528MOL0     H72827   7.818   9.825  -0.232  0.2100 -3.0116  1.1227
  528MOL0     H72828   7.888   9.599  -0.241  0.8719  0.5978 -0.0705
  528MOL0     H72829   8.001   9.692  -0.147  0.0878 -0.4789 -1.8640
  528MOL0     H72830   8.004   9.447  -0.016 -0.8932  3.1402  1.8020
  528MOL0     H72831   7.933   9.405  -0.172 -0.3498  0.9647  0.7453
  528MOL0     H72832   8.211   9.521  -0.095 -0.7989 -1.9878  1.4117
  528MOL0     H72833   8.147   9.553  -0.263  0.1443 -1.5638 -0.6274
  528MOL0     H72834   8.118   9.331  -0.320  0.8109 -1.5870 -0.9801
  528MOL0     H72835   8.187   9.264  -0.176 -3.6932 -0.3240 -1.8945
  528MOL0     H72836   8.345   9.469  -0.324  0.2662 -1.0557  1.7094
  528MOL0     H72837   8.385   9.308  -0.244  0.8531  0.9028  0.9662
  528MOL0     H72838   8.234   9.337  -0.504  1.8394  2.2617 -2.4597
  528MOL0     H72839   8.325   9.192  -0.436  1.9763  0.1207 -1.3977
  528MOL0     H72840   8.534   9.321  -0.499  0.2082 -1.3376 -2.6221
  528MOL0     H72841   8.426   9.446  -0.578  1.9869  0.4493  0.3529
  528MOL0     H72842   8.327   9.250  -0.712 -0.0166  0.1348 -0.5388
  528MOL0     H72843   8.433   9.146  -0.624 -1.4676  0.1323 -0.3983
  528MOL0     H72844   7.685   9.673   0.135 -1.4555 -1.3651 -1.0734
  528MOL0     H72845   7.504   9.821   0.151  0.4345  2.9476  1.4320
  528MOL0     H72846   7.371  10.271  -0.002  0.5168  0.3995  1.0625
  528MOL0     H72847   7.225  10.433   0.025  0.7518 -0.0500 -3.9872
  528MOL0     H72848   8.185  11.341   0.372  1.4252  0.1057 -0.3261
  528MOL0     H72849   8.423  11.390   0.471  0.9416  0.6557  0.8494
  528MOL0     H72850   8.584  11.543   0.930 -1.2816 -1.8495 -2.4294
  528MOL0     H72851   8.796  11.618   1.032 -2.8189  0.6520  0.8092
  528MOL0     H72852   9.122  11.341   1.091  1.0993 -1.6062 -1.2878
  528MOL0     H72853   9.163  11.380   0.925  0.7739 -0.8000  0.8519
  528MOL0     H72854   9.360  11.433   1.058  1.5990  1.2966  4.4796
  528MOL0     H72855   9.270  11.529   1.171 -0.7431 -1.1991  1.0082
  528MOL0     H72856   9.402  11.642   0.987 -0.8447  1.8480 -0.6987
  528MOL0     H72857   9.263  11.604   0.880 -2.2772 -1.5228  0.1384
  528MOL0     H72858   9.282  11.778   1.127  0.5500 -0.2053 -0.4648
  528MOL0     H72859   9.126  11.733   1.053  0.5529 -2.6892  0.0885
  528MOL0     H72860   9.331  11.967   0.755 -1.0023 -1.9531 -1.3050
  528MOL0     H72861   8.991  11.275   0.880  0.8959  1.3279 -0.0085
  528MOL0     H72862   8.781  11.194   0.624  1.3532  0.8872 -0.5458
  528MOL0     H72863   8.913  11.162   0.723  0.1510  1.4280  1.0405
  528MOL0     H72864   8.763  11.082   0.765 -1.7746 -0.9054 -4.9532
  529MOL0     O72865   0.908   0.439   6.048 -0.7950  0.3735 -0.1105
  529MOL0     C72866   0.890   0.376   6.146 -0.2241 -0.1033 -0.7099
  529MOL0     O72867   0.813   0.261   6.150 -1.1716  0.0117 -0.3221
  529MOL0     C72868   0.791   0.198   6.026 -0.1947 -1.1605 -0.0033
  529MOL0     C72869   0.692   0.251   5.937  0.1943 -0.5999 -0.3672
  529MOL0     C72870   0.665   0.191   5.813  1.0104  0.1500 -0.4335
  529MOL0     C72871   0.709   0.060   5.789  0.5570 -0.3429 -0.4144
  529MOL0     O72872   0.659  -0.003   5.679  0.7850 -1.0203 -0.6451
  529MOL0     C72873   0.758  -0.069   5.592 -0.2456  0.2019  1.1026
  529MOL0     C72874   0.689  -0.112   5.456 -0.7465  0.0149 -0.6744
  529MOL0     C72875   0.557  -0.179   5.490 -0.1468  0.5380  0.2967
  529MOL0     C72876   0.494  -0.246   5.366 -0.3746 -0.6153  0.6140
  529MOL0     C72877   0.420  -0.132   5.277  0.9373  0.8847 -0.5366
  529MOL0     C72878   0.364  -0.192   5.147 -0.6463  0.9063  1.0837
  529MOL0     C72879   0.355  -0.081   5.055 -0.1948 -0.2693 -0.2699
  529MOL0     C72880   0.276  -0.129   4.920  0.5591  0.0379  0.1115
  529MOL0     N72881   0.137  -0.151   4.948  0.1436  0.6535  0.4522
  529MOL0     C72882   0.048  -0.058   5.004 -0.6084  0.2961  0.3131
  529MOL0     C72883  -0.065  -0.124   5.011 -0.3644  0.7688 -0.5259
  529MOL0     C72884  -0.195  -0.088   5.071  0.8968  0.7799  0.1680
  529MOL0     C72885  -0.245   0.046   5.027 -0.6047 -0.6572  0.3671
  529MOL0     C72886  -0.371   0.068   5.108  1.2248  0.8406  0.2468
  529MOL0     C72887  -0.487  -0.017   5.054  0.4088 -0.0165 -0.4306
  529MOL0     O72888  -0.603   0.009   5.138  0.5524 -0.1082  0.6333
  529MOL0     C72889  -0.718  -0.067   5.111 -0.4213 -0.3512  0.1912
  529MOL0     C72890  -0.821  -0.080   5.214 -0.4292  0.0677 -0.8312
  529MOL0     C72891  -0.912  -0.182   5.206 -0.7738 -1.1053  0.4395
  529MOL0     C72892  -0.988  -0.190   5.324 -0.1988 -0.6499  0.6189
  529MOL0     C72893  -0.930  -0.239   5.084 -0.0095 -0.0845 -0.4409
  529MOL0     C72894  -1.029  -0.344   5.060 -0.0693 -0.0587  0.7229
  529MOL0     O72895  -1.079  -0.344   4.929  0.8221  0.4593  0.4973
  529MOL0     C72896  -1.192  -0.420   4.897  0.0740 -0.3370 -0.5855
  529MOL0     C72897  -1.305  -0.441   4.979 -0.8671  0.3076 -0.3747
  529MOL0     C72898  -1.398  -0.539   4.944 -0.2124 -1.1109  0.5558
  529MOL0     C72899  -1.398  -0.608   4.825 -0.2593 -0.1705  0.7007
  529MOL0     O72900  -1.501  -0.682   4.778 -0.5124 -0.9573 -0.5754
  529MOL0     C72901  -1.529  -0.801   4.865 -0.3881 -0.7716 -0.8494
  529MOL0     C72902  -1.676  -0.834   4.872 -0.0441  0.0691 -0.0202
  529MOL0     C72903  -1.754  -0.742   4.961 -0.8770 -0.0294 -0.9456
  529MOL0     C72904  -1.913  -0.762   4.954 -0.5848  0.1219  0.7665
  529MOL0     C72905  -1.992  -0.659   5.042 -0.7050  0.3327 -1.2588
  529MOL0     C72906  -2.134  -0.679   5.063 -0.1766  0.2805  0.1314
  529MOL0     C72907  -2.175  -0.784   5.170  0.6532 -0.7237 -0.0430
  529MOL0     C72908  -2.310  -0.847   5.135 -0.8604 -1.8153  0.3739
  529MOL0    Cl72909  -2.386  -0.929   5.273  0.6293 -0.4300  0.4545
  529MOL0     C72910  -1.295  -0.566   4.739  0.2632 -0.3511 -0.3064
  529MOL0     C72911  -1.190  -0.483   4.775  0.9643 -0.5033 -0.6316
  529MOL0     O72912  -1.049  -0.433   5.151  0.9837  0.2562  0.7689
  529MOL0     C72913  -0.852  -0.213   4.975  0.7251 -0.0697  0.3423
  529MOL0     C72914  -0.744  -0.132   4.991 -0.5029  0.3352 -0.5755
  529MOL0     N72915  -0.052  -0.251   4.963  0.2261 -0.6418  0.9218
  529MOL0     N72916   0.067  -0.271   4.927 -0.9901 -0.5737 -0.0383
  529MOL0     C72917   0.790  -0.003   5.886 -0.1941  0.1437 -0.1326
  529MOL0     C72918   0.833   0.069   6.003 -0.4078  0.5331  0.4299
  529MOL0     C72919   0.960   0.426   6.269  0.0740 -1.1906  0.2974
  529MOL0     C72920   1.035   0.331   6.340 -0.3534 -0.1768  0.8165
  529MOL0     C72921   1.127   0.368   6.443  1.1719 -0.2733  0.0502
  529MOL0     C72922   1.142   0.498   6.483 -0.2173 -0.1427  0.4985
  529MOL0     O72923   1.231   0.523   6.584  0.7357 -0.4680  0.2792
  529MOL0     C72924   1.243   0.654   6.641 -0.0092 -0.1558  0.4868
  529MOL0     C72925   1.351   0.726   6.564  0.8979 -0.1795 -1.0519
  529MOL0     C72926   1.492   0.692   6.611 -0.0431 -0.3667  0.0176
  529MOL0     C72927   1.596   0.801   6.599  0.1634  0.5841 -0.9986
  529MOL0     C72928   1.574   0.920   6.513 -1.0155 -0.5300 -1.3339
  529MOL0     C72929   1.556   1.000   6.429  0.5575 -0.2697 -0.1879
  529MOL0     C72930   1.072   0.595   6.414  0.2011  0.2688 -0.4572
  529MOL0     C72931   0.980   0.562   6.321 -0.0801 -0.6892 -0.6637
  529MOL0     C72932   0.880   0.651   6.261  0.4965 -0.1017  0.2509
  529MOL0     H72933   0.650   0.349   5.960  2.1682 -0.4787  3.5231
  529MOL0     H72934   0.613   0.247   5.736 -0.9627 -1.1161 -0.0970
  529MOL0     H72935   0.801  -0.161   5.632  1.7882  0.5288 -0.2051
  529MOL0     H72936   0.841   0.002   5.583 -1.4908  2.2808  4.0694
  529MOL0     H72937   0.689  -0.026   5.387 -0.7536 -0.5207 -1.3509
  529MOL0     H72938   0.762  -0.173   5.403  0.3901  0.5013  0.2715
  529MOL0     H72939   0.572  -0.261   5.560  0.0539 -2.6371 -3.1671
  529MOL0     H72940   0.478  -0.115   5.530 -1.2447 -0.1005 -0.7511
  529MOL0     H72941   0.574  -0.295   5.310  1.2246  0.7869  1.5987
  529MOL0     H72942   0.409  -0.306   5.399 -2.1175 -0.0763 -2.4245
  529MOL0     H72943   0.487  -0.048   5.257 -1.7249  3.4080  0.5041
  529MOL0     H72944   0.338  -0.092   5.337  1.0843  0.2989  0.0663
  529MOL0     H72945   0.429  -0.266   5.100 -0.8284  0.0976  2.0591
  529MOL0     H72946   0.268  -0.239   5.174  0.8998 -1.1515  3.4899
  529MOL0     H72947   0.459  -0.056   5.029  0.1892  0.1753  1.5635
  529MOL0     H72948   0.311   0.010   5.098  0.4642 -0.0920  0.0480
  529MOL0     H72949   0.289  -0.046   4.850  1.5812 -1.1572 -1.1668
  529MOL0     H72950   0.314  -0.217   4.867  0.9854 -0.3423  1.0222
  529MOL0     H72951   0.071   0.044   5.033  2.7191  0.1465 -1.2809
  529MOL0     H72952  -0.199  -0.100   5.179  1.9522  0.0517  0.1423
  529MOL0     H72953  -0.255  -0.169   5.027  1.6327 -0.2786  1.0473
  529MOL0     H72954  -0.191   0.136   5.057 -2.7234  0.9299 -0.2724
  529MOL0     H72955  -0.270   0.047   4.920 -0.3190 -2.6588  0.2437
  529MOL0     H72956  -0.352   0.076   5.215  1.7051 -4.0128  0.7272
  529MOL0     H72957  -0.407   0.169   5.084 -2.0952 -0.3889 -0.5684
  529MOL0     H72958  -0.501   0.001   4.947 -0.2198 -1.5836 -0.6487
  529MOL0     H72959  -0.473  -0.126   5.057 -1.3806 -0.2678  0.5017
  529MOL0     H72960  -0.810  -0.017   5.302  0.6093  0.1223 -0.9863
  529MOL0     H72961  -1.080  -0.136   5.300 -1.9487 -3.1782  1.1139
  529MOL0     H72962  -0.946  -0.147   5.415  3.4441 -2.0112 -0.2541
  529MOL0     H72963  -1.007  -0.296   5.345 -2.1471 -0.2658  1.0068
  529MOL0     H72964  -1.313  -0.387   5.072  1.1040  1.4708 -0.8134
  529MOL0     H72965  -1.484  -0.549   5.009 -1.0669  1.8360  0.0447
  529MOL0     H72966  -1.468  -0.882   4.825  1.5579 -2.0897  4.0572
  529MOL0     H72967  -1.492  -0.791   4.967 -3.2513 -0.8041  0.2806
  529MOL0     H72968  -1.717  -0.812   4.773 -2.8110  2.6837  1.5125
  529MOL0     H72969  -1.698  -0.936   4.902 -1.7262  0.7020  1.0458
  529MOL0     H72970  -1.733  -0.639   4.933  1.8481 -0.5663 -1.1696
  529MOL0     H72971  -1.711  -0.754   5.061 -3.1749 -1.8269 -0.0720
  529MOL0     H72972  -1.933  -0.868   4.974  2.0647 -0.7850 -0.8438
  529MOL0     H72973  -1.940  -0.748   4.849 -1.7382 -0.9886  0.8969
  529MOL0     H72974  -1.956  -0.660   5.146 -0.6021  0.1973 -1.2954
  529MOL0     H72975  -1.965  -0.567   4.989 -2.6591  0.0531 -2.8277
  529MOL0     H72976  -2.169  -0.715   4.966 -0.4774 -0.0205  0.3500
  529MOL0     H72977  -2.189  -0.587   5.085  2.4009  1.6007  1.5412
  529MOL0     H72978  -2.189  -0.719   5.256  3.6613  0.8974 -0.6653
  529MOL0     H72979  -2.100  -0.862   5.184  2.2269  0.3940 -1.7963
  529MOL0     H72980  -2.292  -0.928   5.063 -2.1270 -2.2139  0.4857
  529MOL0     H72981  -2.380  -0.779   5.086  1.0417 -1.0120 -1.3917
  529MOL0     H72982  -1.311  -0.606   4.639 -0.3281 -0.3301 -0.2214
  529MOL0     H72983  -1.125  -0.454   4.693 -0.2733 -0.9494 -1.8086
  529MOL0     H72984  -0.867  -0.240   4.872 -0.6178  1.7109  0.0321
  529MOL0     H72985  -0.682  -0.110   4.905  0.5893  3.3418  0.8332
  529MOL0     H72986   0.824  -0.103   5.863  1.6684  1.1790 -2.2809
  529MOL0     H72987   0.896   0.037   6.085  1.0001  2.1559  0.0504
  529MOL0     H72988   1.032   0.233   6.293  0.8398 -0.5321  1.4194
  529MOL0     H72989   1.174   0.286   6.497 -0.5105 -1.9421 -0.8906
  529MOL0     H72990   1.152   0.715   6.635 -0.7622 -1.3527 -3.6069
  529MOL0     H72991   1.260   0.648   6.749 -4.3428 -1.6965  1.2826
  529MOL0     H72992   1.341   0.832   6.587 -1.3131 -0.5965  0.1465
  529MOL0     H72993   1.320   0.727   6.459  2.3724 -2.4045 -1.5817
  529MOL0     H72994   1.496   0.639   6.707  0.9871  0.4783  0.4586
  529MOL0     H72995   1.535   0.622   6.538  0.3589 -0.2091  0.0994
  529MOL0     H72996   1.690   0.748   6.581 -0.7626 -1.5488  0.0719
  529MOL0     H72997   1.600   0.841   6.700  0.5277  0.7701 -1.0854
  529MOL0     H72998   1.548   1.056   6.338  4.5620  1.7248  0.4537
  529MOL0     H72999   1.078   0.700   6.441 -0.0624  0.4936 -1.2459
  529MOL0     H73000   0.788   0.606   6.224 -1.1665  1.7454  1.9131
  529MOL0     H73001   0.836   0.706   6.345  1.3714 -2.1063  2.1459
  529MOL0     H73002   0.920   0.711   6.179 -0.3595  1.0722  0.6587
  530MOL0     O73003   1.959  10.174   5.641 -0.3507  0.4384  1.1999
  530MOL0     C73004   2.009  10.093   5.566 -0.4500 -0.0968 -0.9063
  530MOL0     O73005   1.968   9.968   5.578 -0.1318  0.4773  0.5776
  530MOL0     C73006   1.906   9.908   5.688 -0.2996 -0.1414 -0.9717
  530MOL0     C73007   1.852   9.783   5.681 -0.5196  0.6153 -0.4399
  530MOL0     C73008   1.799   9.723   5.796  0.5178  0.3695  0.2808
  530MOL0     C73009   1.790   9.782   5.924  0.3384 -0.5136  0.5425
  530MOL0     O73010   1.737   9.722   6.029  0.2264  0.6434 -0.2829
  530MOL0     C73011   1.815   9.607   6.076 -0.0218  0.4287  0.0905
  530MOL0     C73012   1.808   9.596   6.231  0.3565  0.6682  0.2911
  530MOL0     C73013   1.788   9.451   6.270 -0.4033 -0.7881 -0.6458
  530MOL0     C73014   1.724   9.417   6.409  0.2307 -0.2637  0.4204
  530MOL0     C73015   1.709   9.270   6.455  0.2581  0.5385  0.2546
  530MOL0     C73016   1.847   9.208   6.502  1.1541  0.2983  0.2297
  530MOL0     C73017   1.885   9.238   6.645  0.5431  1.1926 -0.6941
  530MOL0     C73018   2.021   9.298   6.665  0.2706 -0.4038 -1.1503
  530MOL0     N73019   2.037   9.435   6.625 -0.0395 -0.7173 -0.5341
  530MOL0     C73020   1.989   9.558   6.682  0.8982  0.3495  0.3806
  530MOL0     C73021   2.033   9.655   6.601 -0.6028 -0.7723  1.4302
  530MOL0     C73022   2.013   9.812   6.592  0.4297 -0.5616  0.1555
  530MOL0     C73023   1.905   9.842   6.487 -0.2052  0.2862 -0.7238
  530MOL0     C73024   1.830   9.966   6.501  0.1584 -0.6565  0.2021
  530MOL0     C73025   1.714   9.973   6.388 -0.1215  0.4559 -1.0282
  530MOL0     O73026   1.622   9.852   6.391  0.3987 -0.6355  0.3691
  530MOL0     C73027   1.519   9.833   6.486 -0.2151  0.6447  0.3143
  530MOL0     C73028   1.490   9.925   6.582  0.1821  0.0353  0.6103
  530MOL0     C73029   1.404   9.891   6.690  0.8555 -0.8976  0.2294
  530MOL0     C73030   1.379  10.002   6.796 -0.9291 -0.4155  0.2129
  530MOL0     C73031   1.342   9.767   6.694 -0.3301  0.4794  0.4821
  530MOL0     C73032   1.251   9.718   6.786  0.2865  0.3698  0.5532
  530MOL0     O73033   1.152   9.799   6.839 -0.3659 -0.5487  0.3290
  530MOL0     C73034   1.052   9.754   6.924  0.1313  0.4331  0.3489
  530MOL0     C73035   0.939   9.839   6.927  0.2506 -0.6619  0.2492
  530MOL0     C73036   0.827   9.807   7.001 -0.0197 -0.0640 -0.1890
  530MOL0     C73037   0.822   9.687   7.066  0.9637 -0.1229  0.6421
  530MOL0     O73038   0.710   9.645   7.135 -0.2879  0.3721 -0.1191
  530MOL0     C73039   0.576   9.671   7.074  0.2943 -0.1763  0.0124
  530MOL0     C73040   0.482   9.550   7.123 -1.0266 -0.6170 -0.6590
  530MOL0     C73041   0.452   9.577   7.274 -0.4424  0.7705 -0.2429
  530MOL0     C73042   0.374   9.461   7.321  0.0602 -0.9970 -0.1748
  530MOL0     C73043   0.293   9.503   7.442  0.1514 -0.5400 -0.4402
  530MOL0     C73044   0.265   9.390   7.538 -0.3739 -0.4889 -0.0235
  530MOL0     C73045   0.210   9.263   7.467 -0.3130 -0.1440 -0.7469
  530MOL0     C73046   0.175   9.167   7.583 -0.6325 -0.6503  0.8797
  530MOL0    Cl73047   0.137   9.001   7.525  0.1835 -0.0995  0.0848
  530MOL0     C73048   0.937   9.608   7.074 -0.9502 -0.3125 -0.2370
  530MOL0     C73049   1.053   9.638   7.004 -0.3306  0.5672 -0.0935
  530MOL0     O73050   1.252   9.600   6.808  0.8547 -0.0841 -0.0073
  530MOL0     C73051   1.380   9.678   6.588 -0.4477 -0.0074 -0.1066
  530MOL0     C73052   1.460   9.713   6.486 -0.5171 -0.1593  0.6834
  530MOL0     N73053   2.103   9.594   6.501 -0.2168 -0.7555 -0.1939
  530MOL0     N73054   2.102   9.464   6.512  0.2814 -0.0179  0.3143
  530MOL0     C73055   1.861   9.905   5.937  0.5634 -0.3459 -0.2246
  530MOL0     C73056   1.922   9.958   5.818  0.8686  0.3041  0.0918
  530MOL0     C73057   2.101  10.127   5.456 -0.3114 -0.8026 -0.9609
  530MOL0     C73058   2.148  10.260   5.452 -0.4589 -0.8816 -0.0948
  530MOL0     C73059   2.237  10.296   5.356 -0.6433 -0.8228 -0.4767
  530MOL0     C73060   2.262  10.222   5.249  0.2874  0.6002 -0.1311
  530MOL0     O73061   2.337  10.257   5.141  0.2761 -0.4419  0.1506
  530MOL0     C73062   2.408  10.378   5.145  0.2353 -0.5097 -0.4107
  530MOL0     C73063   2.552  10.343   5.153  0.2812  0.7685  0.3050
  530MOL0     C73064   2.599  10.310   5.297 -0.3104 -0.2441  0.0396
  530MOL0     C73065   2.745  10.264   5.281 -0.7028 -0.7995  0.0386
  530MOL0     C73066   2.804  10.233   5.409  0.1856 -0.5923  0.2025
  530MOL0     C73067   2.847  10.218   5.519 -0.8731  0.1206 -0.5254
  530MOL0     C73068   2.209  10.089   5.251 -0.8924 -0.3259  0.0225
  530MOL0     C73069   2.136  10.038   5.352 -0.3202  0.5677  0.1306
  530MOL0     C73070   2.086   9.905   5.326 -0.4935  0.7780  0.8419
  530MOL0     H73071   1.846   9.722   5.592 -3.5475  1.4798 -0.9317
  530MOL0     H73072   1.758   9.622   5.789 -0.1653  0.6992 -0.8528
  530MOL0     H73073   1.921   9.628   6.061  1.0966 -3.0881  2.0205
  530MOL0     H73074   1.800   9.511   6.026 -0.7725  0.3162  0.5132
  530MOL0     H73075   1.901   9.634   6.273  1.6818  0.8278 -2.5490
  530MOL0     H73076   1.727   9.659   6.270 -0.5704 -0.0190 -0.4614
  530MOL0     H73077   1.719   9.403   6.202 -1.8377  0.1168  0.1224
  530MOL0     H73078   1.883   9.395   6.268 -1.3552 -2.6640  1.6373
  530MOL0     H73079   1.765   9.475   6.492  0.9213 -0.3816  0.1639
  530MOL0     H73080   1.627   9.464   6.389  1.6408  2.0372 -1.5909
  530MOL0     H73081   1.676   9.219   6.364  1.2236 -1.0610  0.7484
  530MOL0     H73082   1.621   9.264   6.519 -2.8033  1.3747 -3.4978
  530MOL0     H73083   1.836   9.100   6.488 -0.4910  0.6950 -2.0033
  530MOL0     H73084   1.922   9.243   6.432 -0.2657 -2.5519 -3.0119
  530MOL0     H73085   1.885   9.144   6.701 -0.3404  1.7765  0.3233
  530MOL0     H73086   1.811   9.303   6.694 -2.0041 -1.7186 -0.3916
  530MOL0     H73087   2.055   9.293   6.769  1.4756 -0.4324 -1.5289
  530MOL0     H73088   2.090   9.231   6.614  1.9024 -1.2258  1.8852
  530MOL0     H73089   1.910   9.581   6.752 -2.2175 -2.2013 -2.0147
  530MOL0     H73090   2.108   9.865   6.585 -0.3535  1.5540  3.4488
  530MOL0     H73091   1.978   9.833   6.693 -2.0007  2.4970 -1.1592
  530MOL0     H73092   1.941   9.849   6.384  0.8330 -0.1199 -0.3953
  530MOL0     H73093   1.835   9.759   6.502 -1.6035  1.7964  1.9395
  530MOL0     H73094   1.780   9.958   6.598 -1.0050 -0.5562 -0.3784
  530MOL0     H73095   1.897  10.052   6.491 -0.7034 -0.2755 -3.4968
  530MOL0     H73096   1.656  10.065   6.400 -2.1345 -0.6365 -1.9392
  530MOL0     H73097   1.762   9.986   6.291 -0.3119  3.3162 -0.8219
  530MOL0     H73098   1.552  10.014   6.584  0.2339 -0.0052  0.8486
  530MOL0     H73099   1.343   9.967   6.893 -1.3001 -1.7028 -0.3557
  530MOL0     H73100   1.303  10.077   6.772 -2.4317 -0.8477  3.1746
  530MOL0     H73101   1.479  10.043   6.811  1.1217 -5.0199  0.6274
  530MOL0     H73102   0.933   9.924   6.860  0.3025 -0.2476  0.7559
  530MOL0     H73103   0.737   9.865   6.979  1.1817  1.5699 -0.9904
  530MOL0     H73104   0.525   9.758   7.117 -0.1529 -1.4158  2.1272
  530MOL0     H73105   0.589   9.664   6.966  1.0206 -0.1855  0.0950
  530MOL0     H73106   0.395   9.548   7.056 -2.3721  1.4753  0.8971
  530MOL0     H73107   0.534   9.456   7.105 -2.7014 -1.1414 -3.3337
  530MOL0     H73108   0.387   9.666   7.271  1.1787  1.9846 -3.1238
  530MOL0     H73109   0.538   9.590   7.340  1.4433  4.0498 -3.0243
  530MOL0     H73110   0.452   9.389   7.346  2.4031  1.5353  0.3219
  530MOL0     H73111   0.304   9.417   7.249  0.4584 -0.4688 -0.9022
  530MOL0     H73112   0.342   9.579   7.504 -1.3207  1.3189 -1.4566
  530MOL0     H73113   0.202   9.557   7.416 -0.4348 -1.5891 -0.6060
  530MOL0     H73114   0.183   9.424   7.602 -0.7809 -1.5681  0.0593
  530MOL0     H73115   0.349   9.361   7.601  2.1973 -0.8572 -3.3590
  530MOL0     H73116   0.286   9.213   7.406 -1.5221  0.0195 -2.4618
  530MOL0     H73117   0.121   9.289   7.410 -1.0651  0.1482  0.5126
  530MOL0     H73118   0.083   9.207   7.629 -3.1073  1.7460 -5.1031
  530MOL0     H73119   0.253   9.155   7.659 -1.6147 -1.8992  1.7489
  530MOL0     H73120   0.935   9.524   7.142 -0.3082  1.9276  2.7418
  530MOL0     H73121   1.137   9.571   7.012 -1.7548 -1.0607  2.4150
  530MOL0     H73122   1.331   9.581   6.581  0.9165 -0.8102  0.9162
  530MOL0     H73123   1.500   9.640   6.417  1.1634 -0.2514  1.7097
  530MOL0     H73124   1.866   9.948   6.036 -2.1506 -0.8338  0.2222
  530MOL0     H73125   1.980  10.048   5.837  0.9621  0.1353  0.6331
  530MOL0     H73126   2.123  10.322   5.538 -2.9982  1.6483 -2.4503
  530MOL0     H73127   2.277  10.396   5.368  1.4858 -1.8461  2.1169
  530MOL0     H73128   2.389  10.424   5.048  3.1734 -1.8557 -1.7398
  530MOL0     H73129   2.374  10.461   5.206  0.1440 -1.0748  0.3215
  530MOL0     H73130   2.616  10.423   5.114  3.5658 -1.9086 -0.2332
  530MOL0     H73131   2.559  10.255   5.089  0.4674  0.4939  0.7028
  530MOL0     H73132   2.595  10.398   5.362  2.6613  0.0404 -0.0550
  530MOL0     H73133   2.543  10.223   5.334 -2.3097  1.4268  1.1766
  530MOL0     H73134   2.798  10.345   5.230  0.4495 -2.2169 -1.1313
  530MOL0     H73135   2.746  10.170   5.224 -2.9604 -1.0576  0.3127
  530MOL0     H73136   2.889  10.223   5.617 -0.3678  3.6632 -0.7872
  530MOL0     H73137   2.241  10.035   5.162 -1.5291 -0.6522 -0.0202
  530MOL0     H73138   2.146   9.852   5.251 -2.3195 -0.4026  0.1333
  530MOL0     H73139   2.110   9.848   5.416  0.1574  0.7307  0.6454
  530MOL0     H73140   1.981   9.889   5.301 -0.1414 -5.4674  1.8702
  531MOL0     O73141  10.567   2.983  11.424  0.5732 -0.2161  0.1628
  531MOL0     C73142  10.630   3.054  11.347  0.3663  0.0501 -0.3419
  531MOL0     O73143  10.741   3.131  11.392 -0.3707  0.0643  0.1837
  531MOL0     C73144  10.739   3.174  11.522 -0.1928 -0.0593  0.2498
  531MOL0     C73145  10.624   3.239  11.581 -0.1396 -1.1675  0.0264
  531MOL0     C73146  10.621   3.274  11.718 -1.0924  0.0587 -0.0905
  531MOL0     C73147  10.745   3.260  11.795 -0.0776  0.5407 -0.9963
  531MOL0     O73148  10.743   3.320  11.914 -0.7912  0.4169 -0.1755
  531MOL0     C73149  10.859   3.296  11.993  0.2293  0.1965 -0.2829
  531MOL0     C73150  10.828   3.355  12.134  0.1653  0.2509 -0.2018
  531MOL0     C73151  10.762   3.242  12.218  0.0046  1.3173  0.4798
  531MOL0     C73152  10.680   3.302  12.344  1.0257  0.5462 -0.0959
  531MOL0     C73153  10.586   3.199  12.418 -1.2292 -0.1626  0.3802
  531MOL0     C73154  10.451   3.176  12.352  0.0278  0.6758 -0.5098
  531MOL0     C73155  10.346   3.136  12.452 -0.6465  0.1798  0.7711
  531MOL0     C73156  10.215   3.094  12.396 -0.1970  0.8267 -0.6525
  531MOL0     N73157  10.138   3.009  12.480  0.7986  0.0377 -0.3518
  531MOL0     C73158  10.045   3.048  12.581 -0.5894 -0.3143  0.0320
  531MOL0     C73159  10.002   2.936  12.631  0.6228 -0.2262  0.3427
  531MOL0     C73160   9.888   2.949  12.729 -0.2366  0.1855  0.3138
  531MOL0     C73161   9.838   2.812  12.770 -0.5202  0.6906  0.5895
  531MOL0     C73162   9.937   2.732  12.852 -1.0174  0.1910  0.2806
  531MOL0     C73163   9.867   2.617  12.919 -0.0997  0.2884  0.6402
  531MOL0     O73164   9.957   2.557  13.012  0.2908 -0.5824 -0.2425
  531MOL0     C73165   9.904   2.490  13.118  0.5082 -0.0612  0.6677
  531MOL0     C73166   9.780   2.428  13.119  1.5224  0.8519  0.6372
  531MOL0     C73167   9.739   2.350  13.228  0.2419 -0.6447  1.3043
  531MOL0     C73168   9.592   2.305  13.230 -0.6965  0.1158 -0.1466
  531MOL0     C73169   9.832   2.347  13.342 -0.6020  0.4496  1.0114
  531MOL0     C73170   9.784   2.303  13.466  0.4795 -0.2679  0.3173
  531MOL0     O73171   9.766   2.396  13.561  0.0766  0.0478 -0.6184
  531MOL0     C73172   9.680   2.361  13.668 -0.0732 -0.3786 -0.3262
  531MOL0     C73173   9.737   2.339  13.793 -0.4877  0.0351  0.9259
  531MOL0     C73174   9.658   2.306  13.903  0.7642 -0.9502  0.0814
  531MOL0     C73175   9.517   2.296  13.882 -0.6612  0.4198 -0.7439
  531MOL0     O73176   9.432   2.234  13.972  0.2769 -0.1107 -0.6124
  531MOL0     C73177   9.412   2.296  14.099 -0.2402  0.3036 -0.5513
  531MOL0     C73178   9.314   2.217  14.191 -0.5653 -1.2635 -0.0126
  531MOL0     C73179   9.364   2.072  14.219 -0.8317 -0.4051  0.1641
  531MOL0     C73180   9.489   2.082  14.318 -1.0229 -1.1260  0.3599
  531MOL0     C73181   9.550   1.945  14.359  0.0289  0.5114 -0.2239
  531MOL0     C73182   9.529   1.892  14.509 -0.1817  0.4154  0.4598
  531MOL0     C73183   9.588   1.742  14.509  0.6117 -0.3653 -0.1293
  531MOL0     C73184   9.554   1.681  14.646  0.3444 -1.2314 -0.6397
  531MOL0    Cl73185   9.626   1.800  14.764  0.2700 -0.1815 -0.0359
  531MOL0     C73186   9.461   2.316  13.755 -0.9737  0.0552 -0.0299
  531MOL0     C73187   9.544   2.361  13.651  0.2498 -0.1395 -0.1058
  531MOL0     O73188   9.758   2.182  13.477  0.4537 -0.6124 -0.5692
  531MOL0     C73189   9.961   2.402  13.343  0.0211  0.8132  0.5369
  531MOL0     C73190   9.989   2.472  13.227 -0.8856 -0.1825  0.2592
  531MOL0     N73191  10.056   2.831  12.560 -0.9708  0.0022 -1.1508
  531MOL0     N73192  10.135   2.875  12.470  0.2020  0.1327  0.0473
  531MOL0     C73193  10.859   3.200  11.735 -0.4576  0.5712  1.1268
  531MOL0     C73194  10.855   3.155  11.605 -0.4223  0.6945  0.0821
  531MOL0     C73195  10.599   3.057  11.195  0.2914 -1.5901 -0.5348
  531MOL0     C73196  10.662   3.160  11.117  0.9330 -0.1271  0.2330
  531MOL0     C73197  10.621   3.194  10.987  0.2357 -0.3122 -0.1015
  531MOL0     C73198  10.510   3.122  10.934  0.1487 -0.0769  0.1786
  531MOL0     O73199  10.484   3.160  10.803  0.6019  0.7872  0.6908
  531MOL0     C73200  10.350   3.136  10.755 -0.2981 -0.4870 -1.3045
  531MOL0     C73201  10.311   3.209  10.630 -0.3474  0.1368 -0.0898
  531MOL0     C73202  10.351   3.354  10.630  0.6050 -0.0352  1.0994
  531MOL0     C73203  10.309   3.412  10.498  0.7461  0.5503  0.2587
  531MOL0     C73204  10.383   3.378  10.387 -0.1583  0.4032  0.7732
  531MOL0     C73205  10.450   3.359  10.290 -0.4519  0.4556 -0.2201
  531MOL0     C73206  10.446   3.010  11.004 -1.0974 -0.5087 -0.2922
  531MOL0     C73207  10.492   2.987  11.135  0.6713 -1.0577  0.7018
  531MOL0     C73208  10.417   2.872  11.208 -0.1376 -0.4788  0.0877
  531MOL0     H73209  10.528   3.248  11.532 -0.6010 -0.8387  0.9667
  531MOL0     H73210  10.533   3.311  11.770  0.4263  1.4927  1.5787
  531MOL0     H73211  10.947   3.338  11.944  0.9529  2.3329  2.6179
  531MOL0     H73212  10.867   3.188  12.004 -0.1522  0.1721 -0.2235
  531MOL0     H73213  10.922   3.395  12.174 -1.0222  2.3038  0.7450
  531MOL0     H73214  10.767   3.444  12.117  0.3845  0.4144 -0.1286
  531MOL0     H73215  10.688   3.194  12.153  2.0954  0.0122 -1.0461
  531MOL0     H73216  10.834   3.168  12.252 -0.3544  0.5498 -0.3948
  531MOL0     H73217  10.747   3.359  12.410  2.2644 -0.1062 -0.7522
  531MOL0     H73218  10.611   3.382  12.314 -1.1495  0.0518  3.0919
  531MOL0     H73219  10.568   3.243  12.516 -1.2942 -0.4733  0.5076
  531MOL0     H73220  10.631   3.100  12.425 -1.1073 -0.0695  0.9281
  531MOL0     H73221  10.417   3.267  12.301 -1.2565  2.3557  3.0202
  531MOL0     H73222  10.456   3.096  12.278 -0.0928 -0.4246  0.6292
  531MOL0     H73223  10.326   3.231  12.501 -0.1894  1.7483 -1.9042
  531MOL0     H73224  10.380   3.056  12.519 -3.5419 -2.3444 -0.5166
  531MOL0     H73225  10.145   3.170  12.359 -2.1478  0.2835  1.6472
  531MOL0     H73226  10.237   3.038  12.304 -3.3880  0.7481 -1.4930
  531MOL0     H73227  10.009   3.149  12.598 -0.8838 -0.3654 -0.2618
  531MOL0     H73228   9.815   3.021  12.690  2.1407  2.2393 -0.5726
  531MOL0     H73229   9.917   2.999  12.822 -0.7074  1.6197 -0.2862
  531MOL0     H73230   9.752   2.820  12.838 -1.2068 -0.2292 -0.1436
  531MOL0     H73231   9.812   2.751  12.683  2.0794 -0.8688  0.8126
  531MOL0     H73232  10.027   2.708  12.795 -0.5692  0.0879  1.0103
  531MOL0     H73233   9.981   2.800  12.926  2.5033 -0.8701 -0.6587
  531MOL0     H73234   9.783   2.665  12.970  1.1194  3.4993 -0.1794
  531MOL0     H73235   9.832   2.541  12.848 -1.1928 -0.7691  2.2299
  531MOL0     H73236   9.715   2.426  13.032  1.0872  1.9162  0.9185
  531MOL0     H73237   9.590   2.196  13.233 -2.0437  0.1447  0.6361
  531MOL0     H73238   9.532   2.345  13.147 -0.9130 -1.0549 -0.5767
  531MOL0     H73239   9.544   2.334  13.324 -2.4473  2.3391 -1.6078
  531MOL0     H73240   9.844   2.340  13.815 -0.3652  1.8880  0.4194
  531MOL0     H73241   9.680   2.288  14.008 -1.5007 -1.7071  0.4906
  531MOL0     H73242   9.503   2.302  14.160  0.2199 -4.7465 -0.3204
  531MOL0     H73243   9.383   2.400  14.083  1.8166  1.3541  1.7607
  531MOL0     H73244   9.301   2.263  14.289  2.6145 -2.7114  1.2462
  531MOL0     H73245   9.213   2.216  14.150  0.0084  0.6827 -1.6698
  531MOL0     H73246   9.397   2.021  14.128  1.2535  3.4390 -1.5127
  531MOL0     H73247   9.284   2.014  14.265 -0.4381 -2.1699 -1.2771
  531MOL0     H73248   9.466   2.146  14.404  0.7721  1.4703 -0.9620
  531MOL0     H73249   9.571   2.128  14.264 -1.2681 -0.1539  0.7920
  531MOL0     H73250   9.507   1.868  14.294  0.3367  1.7021 -1.9193
  531MOL0     H73251   9.658   1.956  14.348  0.1485  2.3355  2.0168
  531MOL0     H73252   9.426   1.904  14.541 -0.3187  1.3518 -0.3151
  531MOL0     H73253   9.598   1.949  14.572  1.9368  1.5198 -2.6232
  531MOL0     H73254   9.696   1.727  14.498  0.7277  1.1359 -1.4897
  531MOL0     H73255   9.541   1.686  14.428 -2.2315 -1.1140  1.8765
  531MOL0     H73256   9.605   1.585  14.664  0.9907 -0.3671  2.7296
  531MOL0     H73257   9.448   1.661  14.661 -0.7090  2.7084 -1.7197
  531MOL0     H73258   9.357   2.291  13.739 -0.4667 -2.9861  0.9416
  531MOL0     H73259   9.510   2.375  13.549 -0.7375 -0.9751  0.0924
  531MOL0     H73260  10.030   2.426  13.424  1.8259  3.1627 -1.5181
  531MOL0     H73261  10.086   2.520  13.216  0.4564 -2.7403 -0.0185
  531MOL0     H73262  10.953   3.196  11.790 -0.3127  3.4898  1.2779
  531MOL0     H73263  10.941   3.101  11.567  0.4316  2.9789 -1.3916
  531MOL0     H73264  10.734   3.229  11.159  0.4970  1.2647 -1.2291
  531MOL0     H73265  10.665   3.271  10.925 -0.8718  0.7855  0.4253
  531MOL0     H73266  10.335   3.030  10.735 -4.2406  0.0396 -2.1291
  531MOL0     H73267  10.273   3.157  10.830 -0.5676 -0.4635 -1.5839
  531MOL0     H73268  10.202   3.212  10.617 -0.5211 -0.7486  1.0152
  531MOL0     H73269  10.357   3.162  10.542 -0.2609 -0.1426  0.1038
  531MOL0     H73270  10.307   3.411  10.712  0.1431  2.6158 -0.8872
  531MOL0     H73271  10.460   3.361  10.638  0.8623  0.8258 -1.9054
  531MOL0     H73272  10.312   3.521  10.505 -0.5376  0.5823  0.6824
  531MOL0     H73273  10.203   3.387  10.485  0.9795  0.5649 -2.0462
  531MOL0     H73274  10.518   3.319  10.217  1.2625  1.1066  0.9579
  531MOL0     H73275  10.363   2.945  10.978 -0.2703 -2.4689  1.5618
  531MOL0     H73276  10.361   2.804  11.143  0.5459 -0.3236 -0.6859
  531MOL0     H73277  10.490   2.808  11.258  1.7314  1.1519 -0.3791
  531MOL0     H73278  10.357   2.932  11.277  1.7625  1.1957  0.4116
  532MOL0     O73279   5.931   5.349   2.515  0.1365 -0.2557 -0.3554
  532MOL0     C73280   5.818   5.404   2.515 -0.7258 -1.1719 -0.0922
  532MOL0     O73281   5.716   5.375   2.607  0.8487  0.3564  0.3137
  532MOL0     C73282   5.728   5.263   2.691  0.4891 -0.5761  0.8437
  532MOL0     C73283   5.675   5.146   2.636 -0.4173  0.9027  0.0700
  532MOL0     C73284   5.669   5.026   2.705  0.2798 -0.1392 -0.8257
  532MOL0     C73285   5.719   5.000   2.826  0.6585  0.2312 -0.6335
  532MOL0     O73286   5.732   4.873   2.887  0.3120  0.3228 -0.0205
  532MOL0     C73287   5.650   4.764   2.823 -1.1119 -0.3121 -0.2905
  532MOL0     C73288   5.746   4.695   2.731 -0.9082  0.6510  0.7180
  532MOL0     C73289   5.689   4.554   2.687  0.3167 -1.0420  0.3016
  532MOL0     C73290   5.767   4.434   2.747  0.6405  0.5105  0.1618
  532MOL0     C73291   5.886   4.387   2.664 -0.0101  0.2832  0.0692
  532MOL0     C73292   5.975   4.276   2.729 -0.1318 -1.1327  0.3033
  532MOL0     C73293   5.893   4.160   2.777  0.0089 -0.6698  0.2708
  532MOL0     C73294   5.962   4.073   2.879  0.1578  0.0335 -0.0289
  532MOL0     N73295   5.917   3.932   2.863 -0.2339  0.7092  0.2342
  532MOL0     C73296   5.788   3.891   2.844 -0.4186 -0.0328  0.7899
  532MOL0     C73297   5.802   3.759   2.833 -0.7113  1.5877 -1.8278
  532MOL0     C73298   5.694   3.660   2.823 -0.0921  0.9157 -0.0310
  532MOL0     C73299   5.604   3.680   2.946  0.9667 -0.0991  0.4514
  532MOL0     C73300   5.502   3.565   2.941  0.1281 -0.2321 -0.3393
  532MOL0     C73301   5.437   3.534   2.804  0.4320 -0.2837 -0.5174
  532MOL0     O73302   5.508   3.422   2.744 -0.2285  1.0425 -0.4125
  532MOL0     C73303   5.497   3.416   2.606  0.3020 -0.0137  0.6690
  532MOL0     C73304   5.582   3.329   2.545 -0.0863  0.0399  0.7053
  532MOL0     C73305   5.592   3.321   2.408 -0.6759  0.9614 -0.1019
  532MOL0     C73306   5.704   3.230   2.358  0.1385 -0.8406  0.3496
  532MOL0     C73307   5.507   3.398   2.326  1.2157 -0.6161 -0.5954
  532MOL0     C73308   5.501   3.389   2.176  0.0036 -0.5182  0.5007
  532MOL0     O73309   5.391   3.412   2.105  0.3097  0.0322 -0.6841
  532MOL0     C73310   5.371   3.382   1.983  0.2866  0.3441  1.6420
  532MOL0     C73311   5.444   3.292   1.901 -0.2500 -0.5148 -0.1394
  532MOL0     C73312   5.419   3.286   1.766 -0.3622  0.0233  0.4253
  532MOL0     C73313   5.304   3.350   1.712 -0.1103 -0.1335  0.3090
  532MOL0     O73314   5.262   3.331   1.581  0.1787 -0.2806  0.0616
  532MOL0     C73315   5.352   3.297   1.472  0.5625 -0.3569 -0.1829
  532MOL0     C73316   5.445   3.415   1.447 -0.4195  0.3025 -0.0156
  532MOL0     C73317   5.538   3.400   1.331  0.2861 -0.3058  0.8492
  532MOL0     C73318   5.582   3.541   1.290  0.0911 -0.5574  0.5729
  532MOL0     C73319   5.646   3.519   1.157  0.0949 -0.0966  0.2658
  532MOL0     C73320   5.702   3.659   1.089 -0.1728  0.4545 -0.3414
  532MOL0     C73321   5.783   3.738   1.191  1.0728  0.3207  0.4115
  532MOL0     C73322   5.908   3.660   1.248  0.2390  0.8190  0.6785
  532MOL0    Cl73323   5.983   3.564   1.112  0.5915 -0.4033  0.1575
  532MOL0     C73324   5.219   3.431   1.790  0.4820  0.3660  0.1411
  532MOL0     C73325   5.252   3.436   1.930  0.3622  0.5008 -0.1515
  532MOL0     O73326   5.609   3.385   2.119  0.4408  0.6352  0.1221
  532MOL0     C73327   5.404   3.476   2.387 -0.6146 -0.1730  0.0453
  532MOL0     C73328   5.404   3.489   2.526 -1.1858 -1.2487 -0.1610
  532MOL0     N73329   5.936   3.723   2.843  0.7700 -0.4708  0.3089
  532MOL0     N73330   6.003   3.827   2.865 -0.0705 -0.1018 -0.0055
  532MOL0     C73331   5.781   5.118   2.881  0.1792 -0.4589  0.5341
  532MOL0     C73332   5.779   5.250   2.821  0.2260 -0.2038  2.0572
  532MOL0     C73333   5.794   5.509   2.421  0.7070  0.5107  0.3791
  532MOL0     C73334   5.912   5.559   2.358  0.3207  0.0376  0.6183
  532MOL0     C73335   5.913   5.663   2.265  0.3882 -1.1139 -1.1971
  532MOL0     C73336   5.790   5.713   2.221  0.0739 -0.0902 -0.3962
  532MOL0     O73337   5.776   5.828   2.145 -0.3900 -0.4926  0.6430
  532MOL0     C73338   5.878   5.933   2.154  0.3581 -0.1686  0.1445
  532MOL0     C73339   5.821   6.050   2.079  0.0131 -0.6020  0.2775
  532MOL0     C73340   5.885   6.180   2.128  0.4263  0.4114 -0.6207
  532MOL0     C73341   5.823   6.224   2.262 -0.3503 -0.4951  0.5279
  532MOL0     C73342   5.921   6.325   2.313  0.5259 -0.6602  0.1218
  532MOL0     C73343   5.981   6.422   2.359  0.8252 -0.9736  0.8580
  532MOL0     C73344   5.675   5.646   2.265  0.1430 -1.6428  0.2694
  532MOL0     C73345   5.676   5.546   2.365  0.6877 -0.0145 -0.9371
  532MOL0     C73346   5.543   5.478   2.398  0.4900 -0.8699 -0.4603
  532MOL0     H73347   5.662   5.156   2.528  2.0031  0.1034 -0.3666
  532MOL0     H73348   5.632   4.946   2.642 -1.1334  0.9241 -1.4096
  532MOL0     H73349   5.566   4.809   2.769  0.1574  1.5215 -0.8435
  532MOL0     H73350   5.604   4.690   2.890 -3.3783 -0.8080 -2.2428
  532MOL0     H73351   5.769   4.754   2.642 -0.4196 -0.0005  0.4047
  532MOL0     H73352   5.843   4.674   2.779 -0.1131  4.4830  1.0603
  532MOL0     H73353   5.584   4.548   2.715 -0.3507 -0.6576 -1.9216
  532MOL0     H73354   5.695   4.544   2.578  1.8078 -0.3337  0.2916
  532MOL0     H73355   5.789   4.458   2.851  1.8719 -0.5048  0.1529
  532MOL0     H73356   5.694   4.353   2.752  0.9448  0.2419  0.2795
  532MOL0     H73357   5.955   4.467   2.636  2.1887 -1.5270  0.0369
  532MOL0     H73358   5.843   4.340   2.575  0.5438  1.8233 -1.0490
  532MOL0     H73359   6.047   4.250   2.651  1.0406 -0.2286  1.0523
  532MOL0     H73360   6.031   4.312   2.815 -0.5672  0.3711 -0.0190
  532MOL0     H73361   5.884   4.108   2.681 -0.4256 -0.2437  0.0748
  532MOL0     H73362   5.793   4.185   2.814 -0.8237 -2.7887 -0.4282
  532MOL0     H73363   6.069   4.085   2.864 -0.0399  2.4012  0.1712
  532MOL0     H73364   5.949   4.104   2.983 -0.0541  2.6047 -0.7696
  532MOL0     H73365   5.691   3.940   2.839 -0.6276 -0.5279 -0.5513
  532MOL0     H73366   5.719   3.554   2.813  1.7528  1.4024 -0.9326
  532MOL0     H73367   5.643   3.663   2.726 -0.0945 -0.1733 -0.0734
  532MOL0     H73368   5.674   3.681   3.030  0.1961  2.2531  1.1404
  532MOL0     H73369   5.552   3.775   2.932  2.4822  0.9146  1.4779
  532MOL0     H73370   5.544   3.471   2.976  1.2886 -0.2187 -1.6080
  532MOL0     H73371   5.430   3.591   3.018  2.9368 -0.5964  2.6389
  532MOL0     H73372   5.333   3.500   2.814  0.8812 -1.0589  2.5477
  532MOL0     H73373   5.446   3.626   2.746 -2.4401  2.7552  3.2982
  532MOL0     H73374   5.652   3.271   2.604 -2.8380 -4.1560  0.2504
  532MOL0     H73375   5.781   3.221   2.436  1.2485 -0.0394 -0.6234
  532MOL0     H73376   5.747   3.274   2.268  0.8235  0.5672  1.3280
  532MOL0     H73377   5.676   3.127   2.334  0.3695 -0.9963  0.7406
  532MOL0     H73378   5.524   3.231   1.942  0.4417 -0.2550 -1.0542
  532MOL0     H73379   5.486   3.236   1.697 -1.3404 -1.3063  0.4177
  532MOL0     H73380   5.410   3.211   1.509 -0.5160 -1.7272 -1.5333
  532MOL0     H73381   5.290   3.257   1.391  1.3741 -0.5956 -0.6966
  532MOL0     H73382   5.386   3.506   1.440  0.1522  0.5639 -2.0896
  532MOL0     H73383   5.513   3.424   1.532 -0.6753 -1.0359  0.3430
  532MOL0     H73384   5.489   3.338   1.256  1.0954  0.2340 -0.1433
  532MOL0     H73385   5.623   3.341   1.367  0.3559 -1.6238 -1.3630
  532MOL0     H73386   5.654   3.566   1.369  0.1233 -0.5989  0.5570
  532MOL0     H73387   5.497   3.608   1.279  0.0882 -0.4714  1.0757
  532MOL0     H73388   5.727   3.449   1.182 -0.1395  0.4998  3.0709
  532MOL0     H73389   5.569   3.467   1.099 -0.9089  1.0398  0.5391
  532MOL0     H73390   5.619   3.721   1.055 -0.8010  0.6218  1.3942
  532MOL0     H73391   5.768   3.636   1.004  3.6247 -2.5038  3.0112
  532MOL0     H73392   5.715   3.768   1.272 -1.4189 -1.8704 -0.7108
  532MOL0     H73393   5.824   3.827   1.144  0.9368  0.3681  0.3831
  532MOL0     H73394   5.889   3.578   1.317  0.8506  1.4812  1.6475
  532MOL0     H73395   5.983   3.735   1.276  1.7097  1.1872 -3.4817
  532MOL0     H73396   5.135   3.472   1.736  0.5646 -2.7774 -2.7102
  532MOL0     H73397   5.185   3.505   1.981  0.2366 -0.0012  0.3794
  532MOL0     H73398   5.327   3.518   2.323 -1.0163 -1.7688 -0.5505
  532MOL0     H73399   5.333   3.551   2.579  0.9003  1.1287  0.0512
  532MOL0     H73400   5.839   5.119   2.973 -2.7729  1.2191  2.5499
  532MOL0     H73401   5.831   5.335   2.864  0.4393  1.9552 -1.9590
  532MOL0     H73402   6.007   5.525   2.397  0.3308 -0.4867  0.1411
  532MOL0     H73403   6.013   5.688   2.233  0.4993 -3.5451 -3.0119
  532MOL0     H73404   5.898   5.969   2.255  0.0050 -1.3140  0.6463
  532MOL0     H73405   5.970   5.894   2.108 -0.3958 -1.2134 -0.5245
  532MOL0     H73406   5.713   6.057   2.094 -0.5317  5.0103 -3.0990
  532MOL0     H73407   5.851   6.042   1.974  0.6040  2.5003  0.1193
  532MOL0     H73408   5.994   6.178   2.137  0.6203  3.1111 -1.3127
  532MOL0     H73409   5.863   6.257   2.053  0.6845  2.5736  1.4152
  532MOL0     H73410   5.815   6.137   2.328 -1.5810 -0.7584  0.0618
  532MOL0     H73411   5.724   6.268   2.247  0.4528  0.9864 -0.6172
  532MOL0     H73412   6.038   6.498   2.407 -1.6276  0.3735  1.8077
  532MOL0     H73413   5.576   5.668   2.225  0.6628 -0.0607 -0.2284
  532MOL0     H73414   5.501   5.510   2.494  0.1277  1.6300 -1.3624
  532MOL0     H73415   5.467   5.496   2.321 -1.4093 -3.2549  0.7503
  532MOL0     H73416   5.549   5.370   2.383 -1.1994 -1.0182 -0.1983
  533MOL0     O73417   3.924   9.783   8.677 -0.0043 -0.1763 -0.5071
  533MOL0     C73418   3.843   9.735   8.756 -0.1065  0.4532  0.0453
  533MOL0     O73419   3.721   9.680   8.717  0.6318 -0.2250  0.5417
  533MOL0     C73420   3.685   9.704   8.587  1.0375  0.3587  0.0140
  533MOL0     C73421   3.688   9.601   8.487  0.5262 -0.1692  0.4812
  533MOL0     C73422   3.623   9.620   8.360  0.3094 -0.5247 -0.1640
  533MOL0     C73423   3.569   9.747   8.326 -0.3623  1.1378  0.2841
  533MOL0     O73424   3.505   9.773   8.199  0.2157 -0.7908  0.1095
  533MOL0     C73425   3.432   9.669   8.136 -0.6880  0.6838  1.9946
  533MOL0     C73426   3.306   9.626   8.205 -0.3706  0.6823  0.0152
  533MOL0     C73427   3.187   9.719   8.167 -0.0905  0.1191  1.3236
  533MOL0     C73428   3.203   9.852   8.228  0.0693  0.2964 -0.3087
  533MOL0     C73429   3.092   9.951   8.182  0.3938  0.1756 -0.3893
  533MOL0     C73430   3.150  10.040   8.067 -0.3768  0.0987  0.8840
  533MOL0     C73431   3.053  10.143   8.016  0.6424 -0.0620  1.1049
  533MOL0     C73432   2.936  10.077   7.947  0.0464  0.2754 -0.2228
  533MOL0     N73433   2.834  10.171   7.931 -0.1752 -0.0715  1.0039
  533MOL0     C73434   2.737  10.208   8.024 -0.0095 -1.0193 -0.8464
  533MOL0     C73435   2.634  10.269   7.954  1.5597 -0.3979 -0.9845
  533MOL0     C73436   2.506  10.338   8.012 -0.0873 -0.3264  0.4371
  533MOL0     C73437   2.524  10.487   8.016 -0.5177  0.1698  1.3019
  533MOL0     C73438   2.614  10.533   8.134  0.9519  0.0687 -0.1813
  533MOL0     C73439   2.533  10.496   8.257 -0.8849  0.3758  0.2837
  533MOL0     O73440   2.404  10.561   8.261 -0.2929 -0.6820 -1.1532
  533MOL0     C73441   2.362  10.588   8.389 -0.1258  0.0924 -0.2373
  533MOL0     C73442   2.225  10.559   8.410  0.1396 -0.0636 -0.4590
  533MOL0     C73443   2.157  10.577   8.530 -0.0926  0.7646  0.5949
  533MOL0     C73444   2.005  10.539   8.534 -0.4290  0.2050 -0.3381
  533MOL0     C73445   2.229  10.626   8.642 -1.2624 -0.4730  0.1169
  533MOL0     C73446   2.164  10.643   8.768 -1.5212 -0.5066  0.0255
  533MOL0     O73447   2.241  10.724   8.847  0.3745  0.9324 -0.0330
  533MOL0     C73448   2.188  10.741   8.969 -0.7799 -0.5273  0.6023
  533MOL0     C73449   2.062  10.790   9.007 -0.3029 -0.7148 -0.2849
  533MOL0     C73450   2.025  10.819   9.136  1.1634  0.5532 -0.1152
  533MOL0     C73451   2.117  10.794   9.232 -0.0557 -0.8904  0.0626
  533MOL0     O73452   2.079  10.817   9.361 -0.3857  1.3551 -0.1836
  533MOL0     C73453   2.164  10.918   9.421 -0.8955  0.8645  0.6515
  533MOL0     C73454   2.169  10.915   9.576 -0.1735 -0.2534 -0.3741
  533MOL0     C73455   2.229  10.782   9.624  0.5275  0.1960 -0.5774
  533MOL0     C73456   2.141  10.722   9.732  0.4387 -0.2645 -0.2737
  533MOL0     C73457   2.211  10.600   9.798 -0.2462 -0.1718 -0.4249
  533MOL0     C73458   2.097  10.548   9.892 -0.1291 -0.7517  0.1737
  533MOL0     C73459   2.124  10.428   9.978  0.6998  0.1221 -0.4181
  533MOL0     C73460   2.002  10.412  10.064 -1.2548  0.2626  0.6088
  533MOL0    Cl73461   1.871  10.330   9.988 -0.2313 -0.1626  0.0030
  533MOL0     C73462   2.243  10.749   9.206 -0.5425  0.1738  1.3433
  533MOL0     C73463   2.283  10.726   9.072  0.5454  0.2416 -0.0475
  533MOL0     O73464   2.062  10.576   8.803 -0.3682  0.6033  0.1337
  533MOL0     C73465   2.369  10.662   8.622 -0.2980 -0.2477 -0.2787
  533MOL0     C73466   2.426  10.646   8.494 -0.6550 -0.3211 -0.8634
  533MOL0     N73467   2.671  10.254   7.820 -0.1787 -0.4972  0.7137
  533MOL0     N73468   2.780  10.192   7.805 -1.2050  0.6992 -0.6085
  533MOL0     C73469   3.572   9.840   8.426 -0.0698  0.0950  0.6291
  533MOL0     C73470   3.621   9.821   8.553 -0.2198 -0.2102  0.9000
  533MOL0     C73471   3.887   9.717   8.897 -0.1016  1.0045 -0.9052
  533MOL0     C73472   3.805   9.636   8.974  0.3128 -0.5571 -0.3152
  533MOL0     C73473   3.826   9.623   9.118 -0.5737 -0.0152 -0.9570
  533MOL0     C73474   3.936   9.679   9.175  1.2335 -0.5482 -0.0621
  533MOL0     O73475   3.931   9.687   9.316  0.2741  0.2135 -0.2034
  533MOL0     C73476   4.043   9.764   9.382  0.5931  0.1621  0.2602
  533MOL0     C73477   4.013   9.798   9.528  0.0724  0.2846 -0.0545
  533MOL0     C73478   4.148   9.831   9.607 -0.9450 -0.0536 -0.5373
  533MOL0     C73479   4.126   9.898   9.743  0.3612 -0.5124 -0.2398
  533MOL0     C73480   4.201   9.824   9.845  0.0499 -0.5519  1.2522
  533MOL0     C73481   4.254   9.770   9.935  0.3358  0.9650  0.4362
  533MOL0     C73482   4.036   9.738   9.097 -0.4310 -1.2195  1.0063
  533MOL0     C73483   4.010   9.765   8.958 -0.5713 -0.4737 -0.6671
  533MOL0     C73484   4.121   9.852   8.887  0.9466  0.3341 -0.5044
  533MOL0     H73485   3.734   9.504   8.507  2.2786  0.0586 -1.9712
  533MOL0     H73486   3.631   9.545   8.282 -3.2672 -1.0440 -0.2012
  533MOL0     H73487   3.492   9.578   8.120 -2.1696  0.2121 -2.1980
  533MOL0     H73488   3.406   9.705   8.036 -0.1800 -0.7293  1.3206
  533MOL0     H73489   3.283   9.524   8.175  1.4541  0.0149  0.7812
  533MOL0     H73490   3.313   9.622   8.314  3.0008  2.6595 -0.0065
  533MOL0     H73491   3.187   9.734   8.058  0.8757 -3.7466  0.6171
  533MOL0     H73492   3.096   9.669   8.202 -0.2209 -0.3266  0.3908
  533MOL0     H73493   3.189   9.832   8.335 -3.1451 -1.4420 -0.9280
  533MOL0     H73494   3.301   9.898   8.211  0.4606 -0.6949 -0.7851
  533MOL0     H73495   3.060  10.029   8.252  0.5515  3.0136 -3.2322
  533MOL0     H73496   2.998   9.901   8.158  0.5477  0.5943 -1.9948
  533MOL0     H73497   3.237  10.096   8.102 -1.6497  3.0970 -0.3208
  533MOL0     H73498   3.176   9.972   7.986 -3.8794  1.6327 -1.8340
  533MOL0     H73499   3.102  10.201   7.937  0.3246 -0.0170  0.9366
  533MOL0     H73500   3.014  10.211   8.093 -1.8175 -0.5409  0.3646
  533MOL0     H73501   2.956  10.012   7.862  0.9602 -1.1042  1.0116
  533MOL0     H73502   2.898  10.004   8.019  2.5727 -0.7265  0.2054
  533MOL0     H73503   2.741  10.194   8.131 -0.1877 -0.2855 -0.7368
  533MOL0     H73504   2.467  10.296   8.106  0.4962  0.1543  0.9048
  533MOL0     H73505   2.437  10.321   7.929  1.3033 -1.6795 -0.4935
  533MOL0     H73506   2.573  10.512   7.921  0.7565 -1.5952  1.4446
  533MOL0     H73507   2.434  10.549   8.008  0.5891  1.6698 -0.5276
  533MOL0     H73508   2.715  10.489   8.137 -0.1616 -2.6070  1.5886
  533MOL0     H73509   2.622  10.641   8.116 -1.9952  0.2631 -0.7444
  533MOL0     H73510   2.514  10.391   8.281 -0.9682  0.7863  2.1709
  533MOL0     H73511   2.591  10.537   8.340 -1.9821  3.2577 -0.2823
  533MOL0     H73512   2.167  10.520   8.327 -0.8897 -0.6837  0.5295
  533MOL0     H73513   1.989  10.457   8.603 -0.1381  2.0063  1.9842
  533MOL0     H73514   1.969  10.516   8.433  0.8952 -0.9636 -0.5713
  533MOL0     H73515   1.948  10.617   8.584  1.0957  2.0055 -1.2604
  533MOL0     H73516   1.984  10.803   8.932 -1.7129 -1.9868  0.8865
  533MOL0     H73517   1.921  10.849   9.149  0.1487 -0.7549 -3.6994
  533MOL0     H73518   2.264  10.902   9.381 -1.9061  1.0444 -2.1682
  533MOL0     H73519   2.129  11.017   9.391  0.8023  0.3048 -3.9160
  533MOL0     H73520   2.236  10.983   9.630  1.3054 -3.7883  2.6415
  533MOL0     H73521   2.068  10.926   9.616 -1.4807 -0.5669 -3.3004
  533MOL0     H73522   2.329  10.798   9.666  1.3815 -1.1635 -1.9875
  533MOL0     H73523   2.227  10.706   9.545  2.1921  1.4734 -1.9365
  533MOL0     H73524   2.047  10.693   9.685  0.8112 -0.8607 -0.6685
  533MOL0     H73525   2.131  10.795   9.813  1.5929 -1.8500  1.3675
  533MOL0     H73526   2.243  10.528   9.723  2.4175  0.9948 -0.5352
  533MOL0     H73527   2.297  10.621   9.863  1.5013 -0.9692 -2.3739
  533MOL0     H73528   2.011  10.545   9.825 -1.7957  1.4935  2.0049
  533MOL0     H73529   2.062  10.637   9.946  0.0408  1.3412 -2.9233
  533MOL0     H73530   2.213  10.453  10.037  2.7956 -1.2349 -2.8279
  533MOL0     H73531   2.143  10.337   9.921 -0.9757  0.8622 -2.2654
  533MOL0     H73532   1.970  10.513  10.093 -2.3260  0.3146 -0.6867
  533MOL0     H73533   2.033  10.354  10.152  0.9107 -0.8486 -0.8040
  533MOL0     H73534   2.323  10.730   9.277  1.2572 -0.0060 -0.6370
  533MOL0     H73535   2.383  10.689   9.053  0.3036 -1.9171  2.3049
  533MOL0     H73536   2.431  10.694   8.705  1.4239 -1.6270 -0.9796
  533MOL0     H73537   2.528  10.680   8.477 -0.0155 -1.2716  0.8593
  533MOL0     H73538   3.523   9.935   8.408  0.9520 -0.0368 -4.1896
  533MOL0     H73539   3.610   9.898   8.629  2.4187  1.7093 -0.5111
  533MOL0     H73540   3.710   9.592   8.946 -1.4163 -0.3914  4.4060
  533MOL0     H73541   3.756   9.565   9.178  1.6035  0.1687  2.0119
  533MOL0     H73542   4.121   9.688   9.377 -0.5513 -1.1220  1.1560
  533MOL0     H73543   4.066   9.854   9.325 -1.8957 -1.0548 -2.9831
  533MOL0     H73544   3.963   9.709   9.568 -3.7384  1.4328 -1.7353
  533MOL0     H73545   3.950   9.887   9.536  2.3513  1.9404  0.6064
  533MOL0     H73546   4.199   9.735   9.610  0.6486  0.6998 -2.0197
  533MOL0     H73547   4.213   9.902   9.555 -1.2215  1.9771  1.6717
  533MOL0     H73548   4.018   9.910   9.756  0.3328  5.2798 -2.8104
  533MOL0     H73549   4.152  10.004   9.735 -3.0609  0.2906 -3.7158
  533MOL0     H73550   4.287   9.723  10.026  0.3123 -0.7229 -0.3949
  533MOL0     H73551   4.128   9.767   9.147 -0.5012 -2.4552  1.9102
  533MOL0     H73552   4.217   9.848   8.939  0.4440  1.3325  0.5522
  533MOL0     H73553   4.133   9.810   8.786  1.9922 -2.7184  0.7667
  533MOL0     H73554   4.093   9.957   8.878 -0.2172  0.0794  0.0184
  534MOL0     O73555   5.912   5.311   6.088 -0.0452 -0.7878  0.2831
  534MOL0     C73556   6.022   5.253   6.091 -0.3993 -0.0510 -0.3978
  534MOL0     O73557   6.134   5.279   6.009 -0.6869  1.3384  0.1812
  534MOL0     C73558   6.106   5.360   5.908 -0.0062 -0.8849 -0.9006
  534MOL0     C73559   6.085   5.313   5.779 -0.1579  0.6062  0.3625
  534MOL0     C73560   6.061   5.396   5.674  0.4441 -0.0574 -0.1862
  534MOL0     C73561   6.048   5.535   5.697  0.3773 -0.0313  0.1091
  534MOL0     O73562   6.012   5.618   5.598 -0.2942  0.5938 -0.6200
  534MOL0     C73563   6.081   5.608   5.474 -0.8991  0.4415  0.6539
  534MOL0     C73564   6.025   5.671   5.340  0.8303 -0.1925  0.1272
  534MOL0     C73565   5.879   5.636   5.289 -0.0450  0.4977  0.8402
  534MOL0     C73566   5.864   5.484   5.235  0.1581  0.1945 -0.5553
  534MOL0     C73567   5.723   5.427   5.244  0.1058  0.0527 -0.2783
  534MOL0     C73568   5.640   5.443   5.110 -0.2005 -0.3256 -0.6187
  534MOL0     C73569   5.569   5.313   5.081  0.9440 -0.9481 -0.7588
  534MOL0     C73570   5.659   5.214   5.008 -0.9099 -0.0865  0.0362
  534MOL0     N73571   5.603   5.080   5.002  0.9195 -0.3107  1.1189
  534MOL0     C73572   5.548   5.031   4.886  0.2805 -0.8726 -0.2509
  534MOL0     C73573   5.536   4.899   4.905  0.4411  0.6582 -0.0643
  534MOL0     C73574   5.471   4.817   4.799 -1.1271  0.1635  0.6149
  534MOL0     C73575   5.329   4.861   4.773  1.0670  1.5200  0.9297
  534MOL0     C73576   5.245   4.858   4.892 -0.1127 -0.6959 -0.5075
  534MOL0     C73577   5.097   4.907   4.861 -0.3982  0.4352 -0.3056
  534MOL0     O73578   5.035   4.930   4.986  1.0748  0.3728 -0.3414
  534MOL0     C73579   4.905   4.980   4.991  0.2076  0.1999 -1.0273
  534MOL0     C73580   4.842   4.969   5.115  0.2703  0.1653 -0.1673
  534MOL0     C73581   4.702   5.009   5.139 -0.6970  0.6642  0.5245
  534MOL0     C73582   4.636   4.974   5.275  0.2981 -0.0544  0.5865
  534MOL0     C73583   4.634   5.075   5.029 -1.1114  0.2624  0.2310
  534MOL0     C73584   4.495   5.116   5.029  0.5579 -0.2524  0.6901
  534MOL0     O73585   4.411   5.056   5.121  0.2022  0.2860  0.2474
  534MOL0     C73586   4.287   5.122   5.119 -0.1675  0.3757  0.3482
  534MOL0     C73587   4.178   5.060   5.061 -0.0030 -0.3804  0.0112
  534MOL0     C73588   4.048   5.110   5.056 -0.3765 -0.0303 -0.0100
  534MOL0     C73589   4.029   5.245   5.094  0.1531 -0.1516  0.2807
  534MOL0     O73590   3.908   5.307   5.056 -0.1156  0.2792  0.0943
  534MOL0     C73591   3.888   5.322   4.915 -0.4946 -0.2162 -0.3089
  534MOL0     C73592   3.753   5.251   4.878  0.5780  0.1509 -0.3573
  534MOL0     C73593   3.615   5.310   4.948  1.0676  0.1730  0.7264
  534MOL0     C73594   3.477   5.292   4.869 -0.2657 -1.1224  0.1910
  534MOL0     C73595   3.469   5.359   4.733  0.1453  0.3734  0.1437
  534MOL0     C73596   3.348   5.315   4.645 -0.8834 -0.0556 -0.2107
  534MOL0     C73597   3.343   5.377   4.507 -0.2645 -0.3012  0.0313
  534MOL0     C73598   3.241   5.297   4.427  0.2194 -0.4027  0.4726
  534MOL0    Cl73599   3.270   5.337   4.253 -0.4344  0.4670  0.5361
  534MOL0     C73600   4.135   5.314   5.155  0.6423 -0.4138  1.1517
  534MOL0     C73601   4.266   5.251   5.174  0.7386  0.5212 -0.2418
  534MOL0     O73602   4.459   5.204   4.951  0.0340 -0.5069 -0.2480
  534MOL0     C73603   4.701   5.080   4.900 -0.4878 -0.5350  0.3566
  534MOL0     C73604   4.836   5.030   4.887  0.2867  0.4265  0.2422
  534MOL0     N73605   5.572   4.869   5.028  0.0680  0.0530  0.3760
  534MOL0     N73606   5.612   4.982   5.090 -0.3265 -1.3238  0.4286
  534MOL0     C73607   6.063   5.585   5.829  1.3168  0.5049  0.1727
  534MOL0     C73608   6.097   5.492   5.934 -0.2151 -0.2848 -0.7101
  534MOL0     C73609   6.037   5.135   6.172  0.6413  0.3848 -0.9609
  534MOL0     C73610   6.171   5.090   6.197 -0.4399  0.0702  0.0194
  534MOL0     C73611   6.198   4.971   6.278 -0.0300 -0.0585  0.1075
  534MOL0     C73612   6.087   4.893   6.311 -0.0293  0.8098  0.5386
  534MOL0     O73613   6.124   4.771   6.364 -0.2762 -0.2670 -0.4905
  534MOL0     C73614   6.029   4.707   6.442  0.9910  0.2438  0.4468
  534MOL0     C73615   5.964   4.584   6.362  0.6119 -0.4943  0.2557
  534MOL0     C73616   5.857   4.514   6.447  0.0214 -0.3772  0.3526
  534MOL0     C73617   5.737   4.608   6.488 -0.0384 -0.2029 -0.1186
  534MOL0     C73618   5.689   4.692   6.373 -0.0491 -0.1746 -0.0729
  534MOL0     C73619   5.627   4.745   6.283 -0.5794  0.0912  0.4353
  534MOL0     C73620   5.953   4.929   6.292 -0.0800 -0.1447  1.3880
  534MOL0     C73621   5.931   5.047   6.220 -1.2386  0.3601 -0.4062
  534MOL0     C73622   5.793   5.070   6.192 -0.1448  1.1375 -0.4240
  534MOL0     H73623   6.091   5.207   5.756 -1.4179 -0.2616  3.4380
  534MOL0     H73624   6.025   5.358   5.578 -1.7220 -0.8647  0.8749
  534MOL0     H73625   6.096   5.501   5.456 -2.1510  0.0077  2.0017
  534MOL0     H73626   6.171   5.669   5.483  0.2679 -0.6865 -2.0143
  534MOL0     H73627   6.026   5.781   5.347 -1.2006 -0.2136  1.7634
  534MOL0     H73628   6.099   5.641   5.266 -0.4150 -0.1113 -1.1901
  534MOL0     H73629   5.814   5.654   5.376  0.8596  1.9410  1.2562
  534MOL0     H73630   5.858   5.690   5.197  2.2852 -1.3174 -0.8772
  534MOL0     H73631   5.921   5.479   5.142 -2.0244  0.8334 -1.9897
  534MOL0     H73632   5.923   5.423   5.304  0.1901 -1.1525 -1.7373
  534MOL0     H73633   5.660   5.460   5.327 -1.1518  0.1337 -1.2242
  534MOL0     H73634   5.714   5.320   5.268 -0.4858 -0.0114 -0.7566
  534MOL0     H73635   5.577   5.532   5.122 -0.1329 -0.3311 -0.1980
  534MOL0     H73636   5.703   5.449   5.022  0.2205  0.6629 -0.2663
  534MOL0     H73637   5.487   5.336   5.012  1.4463  1.5864 -0.6419
  534MOL0     H73638   5.524   5.277   5.174  3.0347 -2.4681 -0.2840
  534MOL0     H73639   5.672   5.241   4.903 -1.7918 -0.8314 -0.2836
  534MOL0     H73640   5.759   5.216   5.052 -0.4138  0.0072 -1.0474
  534MOL0     H73641   5.535   5.082   4.791 -2.4200  0.4535  0.7184
  534MOL0     H73642   5.489   4.713   4.828 -1.6046 -1.1160 -3.1801
  534MOL0     H73643   5.531   4.828   4.708 -0.0693  1.5082  1.4306
  534MOL0     H73644   5.325   4.959   4.724  1.1573  0.5487 -1.1485
  534MOL0     H73645   5.296   4.786   4.701  1.8372  2.7289 -0.7621
  534MOL0     H73646   5.252   4.760   4.940  0.1615 -0.1559  0.6150
  534MOL0     H73647   5.297   4.921   4.966 -0.5456  0.1909 -0.9421
  534MOL0     H73648   5.096   4.997   4.798 -1.2173 -2.0711 -4.2319
  534MOL0     H73649   5.046   4.842   4.789 -0.6356  1.4824 -1.1099
  534MOL0     H73650   4.896   4.909   5.188 -0.6102 -2.4865 -1.5557
  534MOL0     H73651   4.568   5.050   5.315  1.6657 -0.0335  3.0644
  534MOL0     H73652   4.704   4.937   5.351 -2.0602 -3.4465  1.2300
  534MOL0     H73653   4.573   4.888   5.251 -1.2914  0.4094  2.8256
  534MOL0     H73654   4.194   4.956   5.034  1.7434 -0.1500 -0.0023
  534MOL0     H73655   3.974   5.044   5.012  1.6219 -0.7168 -2.6533
  534MOL0     H73656   3.875   5.428   4.891 -0.5307 -0.2449 -0.4170
  534MOL0     H73657   3.970   5.271   4.865 -0.9526 -1.7294  0.4147
  534MOL0     H73658   3.747   5.254   4.769  2.2187  2.2480 -0.4360
  534MOL0     H73659   3.760   5.143   4.896 -0.0509  0.0351 -0.7920
  534MOL0     H73660   3.636   5.414   4.974  2.0841  0.5414 -1.3497
  534MOL0     H73661   3.600   5.269   5.048  1.1657  1.2690  1.2039
  534MOL0     H73662   3.404   5.323   4.945 -0.5952  0.1835 -0.6367
  534MOL0     H73663   3.471   5.184   4.848 -2.5337 -1.4588  2.0111
  534MOL0     H73664   3.459   5.467   4.748 -1.6600  0.8446 -3.4736
  534MOL0     H73665   3.557   5.340   4.671 -0.9866  2.8377 -2.4460
  534MOL0     H73666   3.259   5.340   4.704  1.1681 -0.7100  3.5060
  534MOL0     H73667   3.353   5.206   4.638 -1.7190 -0.2911  2.0623
  534MOL0     H73668   3.442   5.364   4.464 -0.5038 -4.7166  0.3336
  534MOL0     H73669   3.318   5.483   4.515  2.1860  0.2413  1.5150
  534MOL0     H73670   3.136   5.309   4.453  0.4380  0.5353  0.9707
  534MOL0     H73671   3.258   5.191   4.447 -0.3209 -0.5934 -0.0489
  534MOL0     H73672   4.112   5.419   5.169  3.2431  0.3267  0.3724
  534MOL0     H73673   4.353   5.300   5.215  0.6656  2.2695 -2.0061
  534MOL0     H73674   4.655   5.120   4.810 -1.7885 -3.4645 -0.4105
  534MOL0     H73675   4.883   5.025   4.789  2.6603 -3.8681  1.3204
  534MOL0     H73676   6.057   5.689   5.857  0.2109  0.3370  0.5952
  534MOL0     H73677   6.117   5.532   6.033  1.5006 -0.0920 -1.0959
  534MOL0     H73678   6.257   5.148   6.163 -1.2783  0.9309 -0.6638
  534MOL0     H73679   6.297   4.930   6.296 -1.6268 -5.5250 -1.7190
  534MOL0     H73680   6.077   4.686   6.538 -2.3654 -1.6145  1.8914
  534MOL0     H73681   5.955   4.777   6.482 -0.2144  0.4179 -1.9143
  534MOL0     H73682   6.042   4.514   6.331  2.1886  1.6366 -0.8789
  534MOL0     H73683   5.916   4.620   6.270  1.0601 -3.3794 -1.2286
  534MOL0     H73684   5.835   4.426   6.385 -1.9433  3.1736 -4.6850
  534MOL0     H73685   5.898   4.479   6.542  1.5214 -0.5510 -0.3320
  534MOL0     H73686   5.773   4.674   6.567  0.6422  0.3780 -0.8935
  534MOL0     H73687   5.665   4.532   6.519  0.1176 -1.7023 -3.1002
  534MOL0     H73688   5.583   4.806   6.207  1.4116  2.0594  0.7699
  534MOL0     H73689   5.876   4.855   6.315 -2.4345  1.5498 -0.4398
  534MOL0     H73690   5.774   5.065   6.084  1.2915 -4.3900 -0.7214
  534MOL0     H73691   5.726   4.990   6.224  0.1340  0.8661 -0.5231
  534MOL0     H73692   5.750   5.154   6.249  1.1116  1.3604  0.2296
  535MOL0     O73693   0.215   4.831   4.811  0.1345 -0.4873 -0.6071
  535MOL0     C73694   0.256   4.716   4.813 -1.0903 -1.0243  0.6422
  535MOL0     O73695   0.333   4.658   4.911 -0.2390 -0.0786 -0.5497
  535MOL0     C73696   0.347   4.724   5.027 -0.0488 -0.1336 -0.6066
  535MOL0     C73697   0.234   4.740   5.113  0.1068  2.0011 -0.7191
  535MOL0     C73698   0.254   4.816   5.227  0.0658 -0.1457 -0.2315
  535MOL0     C73699   0.383   4.857   5.261 -0.2975 -0.2613 -0.2484
  535MOL0     O73700   0.417   4.923   5.374 -0.3149  0.1306 -0.3635
  535MOL0     C73701   0.343   4.904   5.495  0.2872  0.7001  0.3436
  535MOL0     C73702   0.259   5.038   5.541 -1.5665 -0.6777  0.2910
  535MOL0     C73703   0.129   5.002   5.628  0.4137  0.0455 -0.6581
  535MOL0     C73704   0.024   4.925   5.542 -0.8358 -0.4643 -0.4388
  535MOL0     C73705  -0.100   4.885   5.610  1.1223 -0.6562  0.0384
  535MOL0     C73706  -0.202   4.999   5.610  0.7224 -0.0085 -0.1768
  535MOL0     C73707  -0.333   4.946   5.673 -0.3522 -0.2441 -0.1827
  535MOL0     C73708  -0.444   5.050   5.710  0.1891 -0.5165 -0.0180
  535MOL0     N73709  -0.524   5.085   5.587  0.3965 -0.9035 -0.3632
  535MOL0     C73710  -0.475   5.156   5.475 -0.7777 -0.6921  0.0275
  535MOL0     C73711  -0.581   5.170   5.395 -0.1761  0.0607  0.4298
  535MOL0     C73712  -0.598   5.238   5.263  0.0315 -0.8340 -0.1171
  535MOL0     C73713  -0.634   5.385   5.277  0.7846 -0.1464  1.8251
  535MOL0     C73714  -0.784   5.408   5.290 -0.4665  0.5368  0.1287
  535MOL0     C73715  -0.858   5.498   5.183  0.2101  0.9089 -0.3252
  535MOL0     O73716  -0.790   5.623   5.145 -0.4272  0.7313  0.1400
  535MOL0     C73717  -0.778   5.732   5.219 -0.1576  0.3600 -0.8549
  535MOL0     C73718  -0.834   5.764   5.349 -0.4472 -0.5672  1.4484
  535MOL0     C73719  -0.811   5.894   5.404 -0.2691 -0.6842  0.2729
  535MOL0     C73720  -0.866   5.913   5.544  0.0943  0.0064 -0.5051
  535MOL0     C73721  -0.741   6.004   5.330  0.2635  0.3605  0.0065
  535MOL0     C73722  -0.728   6.139   5.389 -0.5097 -0.4903 -0.3491
  535MOL0     O73723  -0.702   6.136   5.518  0.0170  0.4642  0.8940
  535MOL0     C73724  -0.692   6.254   5.579 -0.1591 -0.7548 -0.0839
  535MOL0     C73725  -0.814   6.297   5.625  0.0182 -0.8449 -0.4211
  535MOL0     C73726  -0.816   6.412   5.708  0.2715 -0.2337 -0.5791
  535MOL0     C73727  -0.696   6.469   5.743 -0.4387  1.0194 -0.2909
  535MOL0     O73728  -0.692   6.566   5.844  0.3217  0.0310 -0.3147
  535MOL0     C73729  -0.588   6.665   5.839 -0.3063 -0.2660 -0.2874
  535MOL0     C73730  -0.631   6.760   5.954 -0.5211 -0.0527  0.9017
  535MOL0     C73731  -0.558   6.891   5.943  0.1481  0.0274 -1.2148
  535MOL0     C73732  -0.547   6.946   6.083 -0.6054 -0.9954 -0.0506
  535MOL0     C73733  -0.509   7.095   6.083 -0.0323 -0.4925  0.4972
  535MOL0     C73734  -0.516   7.153   6.227 -0.3411 -0.9046 -0.3550
  535MOL0     C73735  -0.523   7.306   6.221 -0.4720  0.6459  0.7463
  535MOL0     C73736  -0.488   7.369   6.357 -0.2445 -0.3461  0.2447
  535MOL0    Cl73737  -0.592   7.308   6.505 -0.3660 -0.6782  0.2091
  535MOL0     C73738  -0.580   6.418   5.698 -1.1352 -0.5510  0.0399
  535MOL0     C73739  -0.569   6.310   5.617  0.1961 -0.3849  0.8237
  535MOL0     O73740  -0.743   6.239   5.324 -0.1983 -0.1682  0.4981
  535MOL0     C73741  -0.695   5.966   5.199 -0.3743  0.2222 -0.2337
  535MOL0     C73742  -0.712   5.835   5.154 -0.2606  0.5392 -0.4584
  535MOL0     N73743  -0.693   5.136   5.473 -1.1429  0.2665 -0.0185
  535MOL0     N73744  -0.659   5.094   5.592  0.0957 -0.0441 -0.1285
  535MOL0     C73745   0.493   4.832   5.174 -0.1782  0.1127  0.4073
  535MOL0     C73746   0.480   4.772   5.054 -0.5563  0.2435 -0.4766
  535MOL0     C73747   0.227   4.633   4.700 -0.9597 -0.0481 -0.8380
  535MOL0     C73748   0.225   4.493   4.730  0.0760 -0.1037  0.1677
  535MOL0     C73749   0.205   4.395   4.628  0.2969 -0.2928 -0.3955
  535MOL0     C73750   0.203   4.435   4.500  0.2361  0.2595 -0.1571
  535MOL0     O73751   0.194   4.342   4.403  0.2195  0.2210 -0.4601
  535MOL0     C73752   0.080   4.362   4.319  0.3220  0.0852 -0.6815
  535MOL0     C73753   0.024   4.228   4.298  0.4357 -0.8889 -0.2682
  535MOL0     C73754  -0.103   4.226   4.216  0.7441  0.2516  0.1553
  535MOL0     C73755  -0.081   4.251   4.066  0.1678 -0.2485 -0.3582
  535MOL0     C73756  -0.078   4.399   4.024  0.5612  0.8797 -0.5098
  535MOL0     C73757  -0.090   4.513   3.979  0.4692 -0.3210 -0.1658
  535MOL0     C73758   0.202   4.570   4.463 -0.0192 -0.0901  0.5359
  535MOL0     C73759   0.223   4.672   4.564 -0.1422 -0.2074 -0.2737
  535MOL0     C73760   0.258   4.813   4.514  0.4094  0.7640  0.6937
  535MOL0     H73761   0.147   4.677   5.100  1.4497 -0.8342  2.5826
  535MOL0     H73762   0.174   4.852   5.290 -0.1816  1.4000 -1.3729
  535MOL0     H73763   0.416   4.874   5.571 -0.7598 -5.0635 -0.4717
  535MOL0     H73764   0.272   4.822   5.484 -2.7910  2.8136  2.6188
  535MOL0     H73765   0.326   5.110   5.588  1.5239 -2.3755 -1.1721
  535MOL0     H73766   0.211   5.083   5.453 -1.9296 -1.0037  0.3226
  535MOL0     H73767   0.171   4.944   5.711 -0.6479  0.5861  0.2793
  535MOL0     H73768   0.079   5.094   5.660 -0.7575 -1.0666  0.8898
  535MOL0     H73769   0.013   4.982   5.449  0.7552 -0.8546 -0.8939
  535MOL0     H73770   0.064   4.826   5.518  0.9823 -0.1494  1.0380
  535MOL0     H73771  -0.065   4.855   5.709  1.8141  1.6866  0.5676
  535MOL0     H73772  -0.154   4.808   5.555 -1.5349  0.2190  1.2603
  535MOL0     H73773  -0.172   5.085   5.671 -1.8874  0.6202  0.3700
  535MOL0     H73774  -0.221   5.025   5.505  0.9972 -5.5013 -1.8901
  535MOL0     H73775  -0.289   4.915   5.768  0.8040  0.0401 -0.6137
  535MOL0     H73776  -0.371   4.856   5.624 -1.8980 -1.2138  2.5684
  535MOL0     H73777  -0.521   5.003   5.772  1.1201  1.5030  2.8421
  535MOL0     H73778  -0.387   5.132   5.754  0.8406 -1.6042  1.2270
  535MOL0     H73779  -0.374   5.185   5.446 -1.8642  0.8179 -2.6004
  535MOL0     H73780  -0.664   5.180   5.198  0.1924  0.2600 -1.2972
  535MOL0     H73781  -0.508   5.234   5.200 -1.1233 -1.6783 -1.7917
  535MOL0     H73782  -0.582   5.435   5.358  0.4771  2.5792  0.4492
  535MOL0     H73783  -0.585   5.441   5.197  3.4671 -0.7797  2.9361
  535MOL0     H73784  -0.837   5.313   5.303  0.5866  0.1474  1.8498
  535MOL0     H73785  -0.803   5.460   5.384  2.2666  1.4770  0.2368
  535MOL0     H73786  -0.863   5.438   5.092  0.5666  0.4566 -0.0517
  535MOL0     H73787  -0.956   5.524   5.224  1.7964 -0.7498  5.6000
  535MOL0     H73788  -0.875   5.687   5.413 -1.4032  0.6732  2.3670
  535MOL0     H73789  -0.934   5.835   5.577 -0.7290  0.2400 -1.6121
  535MOL0     H73790  -0.904   6.016   5.554  3.3857  1.3630 -0.5636
  535MOL0     H73791  -0.782   5.905   5.613 -0.1670  0.9299 -0.0529
  535MOL0     H73792  -0.907   6.245   5.606 -2.4174  2.4743  1.3938
  535MOL0     H73793  -0.911   6.443   5.751  0.8456 -0.7309  1.1284
  535MOL0     H73794  -0.486   6.627   5.847 -0.6056 -0.9000  0.6663
  535MOL0     H73795  -0.583   6.714   5.742  2.0458 -0.8259 -0.5094
  535MOL0     H73796  -0.737   6.781   5.939  0.2778  2.3960 -2.6737
  535MOL0     H73797  -0.607   6.707   6.047  2.3482  1.7171  1.3009
  535MOL0     H73798  -0.616   6.957   5.878  0.0197 -1.0668 -2.2518
  535MOL0     H73799  -0.461   6.880   5.894  0.7039 -3.1962  0.3349
  535MOL0     H73800  -0.470   6.889   6.135  1.6310  0.4199 -1.6599
  535MOL0     H73801  -0.635   6.941   6.148  0.6452 -1.2648  1.6963
  535MOL0     H73802  -0.408   7.116   6.045 -0.2104 -0.8008 -0.1629
  535MOL0     H73803  -0.577   7.142   6.012  0.0037  1.2979  1.5861
  535MOL0     H73804  -0.428   7.117   6.282  0.9129  1.6165 -0.5726
  535MOL0     H73805  -0.614   7.129   6.269 -0.0054  0.4792  1.3424
  535MOL0     H73806  -0.624   7.342   6.200  0.1899  0.4186 -3.7057
  535MOL0     H73807  -0.453   7.345   6.146  1.1474 -0.4760  1.6205
  535MOL0     H73808  -0.499   7.478   6.365 -3.3036 -0.5221 -0.3056
  535MOL0     H73809  -0.380   7.360   6.374  0.1713  1.5474 -1.0605
  535MOL0     H73810  -0.487   6.459   5.737 -1.5204  3.1830 -2.4181
  535MOL0     H73811  -0.473   6.267   5.590  0.9632  1.5304  0.3840
  535MOL0     H73812  -0.653   6.046   5.139  4.1646 -1.4317  0.3192
  535MOL0     H73813  -0.667   5.806   5.059  0.4528 -2.7674  0.7830
  535MOL0     H73814   0.591   4.857   5.212 -0.5436  0.5752  1.0721
  535MOL0     H73815   0.571   4.748   5.000  1.7339  1.1886  2.7037
  535MOL0     H73816   0.241   4.454   4.830  0.3928 -2.1503 -0.6384
  535MOL0     H73817   0.184   4.293   4.661 -1.4262  0.4627  1.0654
  535MOL0     H73818   0.003   4.414   4.376  0.6307 -1.7110  1.5333
  535MOL0     H73819   0.105   4.412   4.225 -2.3896  0.7314 -1.1538
  535MOL0     H73820  -0.008   4.191   4.395 -2.0406  0.6806 -0.3994
  535MOL0     H73821   0.104   4.159   4.270  1.3026 -1.0956  2.4080
  535MOL0     H73822  -0.128   4.119   4.215  1.5927  0.0342  0.7499
  535MOL0     H73823  -0.186   4.279   4.265 -2.3690 -3.6923 -0.2883
  535MOL0     H73824  -0.174   4.216   4.019 -1.9919 -0.0030  3.3346
  535MOL0     H73825   0.008   4.196   4.034 -0.2767 -2.4093  1.8576
  535MOL0     H73826  -0.096   4.613   3.942  2.6181 -1.4060 -3.9406
  535MOL0     H73827   0.203   4.597   4.358  3.9360 -0.5398  0.3073
  535MOL0     H73828   0.221   4.882   4.590 -0.7654  2.3062 -1.1834
  535MOL0     H73829   0.363   4.832   4.491  0.4236  0.3669  0.4119
  535MOL0     H73830   0.207   4.823   4.418  3.4593  0.7129 -1.0447
  536MOL0     O73831   1.483   5.080   2.382  0.3222 -0.3784 -0.3177
  536MOL0     C73832   1.397   5.012   2.440 -0.0944 -0.1336  0.7304
  536MOL0     O73833   1.280   4.974   2.384 -0.7161  0.2919 -0.6753
  536MOL0     C73834   1.243   5.019   2.263 -0.4248  0.3779 -0.9577
  536MOL0     C73835   1.223   4.920   2.165  0.2703 -0.3062  0.0438
  536MOL0     C73836   1.197   4.965   2.030  0.1954 -0.6434 -0.8319
  536MOL0     C73837   1.179   5.096   1.998  0.4262  1.1657  0.1549
  536MOL0     O73838   1.161   5.121   1.866 -0.3996 -0.2203 -0.0922
  536MOL0     C73839   1.173   5.255   1.811  0.1892  1.3565  0.3895
  536MOL0     C73840   1.029   5.321   1.803 -0.4392  0.2292 -0.6449
  536MOL0     C73841   0.991   5.382   1.663 -0.4097  0.3211  0.6343
  536MOL0     C73842   0.934   5.270   1.569  0.3960 -0.5186 -1.2278
  536MOL0     C73843   0.893   5.337   1.436 -0.3051 -0.6188 -1.0136
  536MOL0     C73844   0.864   5.228   1.340 -0.0787  0.1870  0.5288
  536MOL0     C73845   0.790   5.298   1.220  0.1606 -0.3346 -0.3771
  536MOL0     C73846   0.788   5.201   1.106  0.5682 -0.0450 -0.7248
  536MOL0     N73847   0.723   5.067   1.118 -0.0906 -0.0326 -0.9120
  536MOL0     C73848   0.781   4.943   1.144  0.0096 -0.7482 -0.1864
  536MOL0     C73849   0.685   4.850   1.131 -0.6717  0.7159  0.7042
  536MOL0     C73850   0.710   4.701   1.118 -0.4707  0.2603 -0.1390
  536MOL0     C73851   0.715   4.626   1.246 -0.6030  0.2903  1.0245
  536MOL0     C73852   0.831   4.655   1.332  0.4754 -0.0144  0.1486
  536MOL0     C73853   0.816   4.568   1.461 -0.2535  0.3009 -0.4117
  536MOL0     O73854   0.941   4.582   1.528  0.5500  0.1654  0.1523
  536MOL0     C73855   0.972   4.491   1.633 -0.2607  0.0874 -0.4887
  536MOL0     C73856   1.033   4.553   1.745 -0.1735 -0.0340 -0.1429
  536MOL0     C73857   1.056   4.484   1.866 -0.5020 -0.3844 -0.6137
  536MOL0     C73858   1.110   4.573   1.985 -0.3127  0.4383 -0.8947
  536MOL0     C73859   1.016   4.348   1.878  1.1958  0.0903 -0.5900
  536MOL0     C73860   1.040   4.255   1.991  0.3512 -0.6643 -0.3447
  536MOL0     O73861   1.029   4.127   1.976  0.3861  0.6481  0.4672
  536MOL0     C73862   1.064   4.020   2.063  0.4598  0.2059  0.3531
  536MOL0     C73863   1.091   3.895   2.011 -0.0541 -0.2895  0.9552
  536MOL0     C73864   1.141   3.798   2.102 -0.0277  0.0560  0.1227
  536MOL0     C73865   1.142   3.806   2.241 -0.0111 -0.1588  0.9147
  536MOL0     O73866   1.189   3.714   2.327 -0.3655 -0.2495  0.5998
  536MOL0     C73867   1.286   3.767   2.423 -0.4355 -0.5141 -0.3205
  536MOL0     C73868   1.377   3.656   2.458 -1.0926 -0.4138 -0.1255
  536MOL0     C73869   1.432   3.577   2.334 -0.4589 -1.0587  0.3983
  536MOL0     C73870   1.352   3.445   2.317 -0.2271  0.1780 -0.0461
  536MOL0     C73871   1.338   3.408   2.169 -0.7518  0.3471  0.3179
  536MOL0     C73872   1.473   3.341   2.109 -0.3300  0.0341 -0.8876
  536MOL0     C73873   1.494   3.366   1.958 -0.1964 -0.4211  0.0173
  536MOL0     C73874   1.629   3.316   1.906 -0.0560  0.3037 -0.2222
  536MOL0    Cl73875   1.776   3.410   1.966 -0.3652  0.3008  0.3315
  536MOL0     C73876   1.086   3.921   2.285 -0.7279  0.1390 -0.6506
  536MOL0     C73877   1.050   4.028   2.205 -0.0766  0.2700  1.2593
  536MOL0     O73878   1.068   4.307   2.096  0.0178  0.1527  0.6519
  536MOL0     C73879   0.966   4.275   1.764  0.1866 -0.6513  0.8774
  536MOL0     C73880   0.948   4.352   1.645 -0.4736 -0.5049  0.7091
  536MOL0     N73881   0.566   4.912   1.109 -0.4707  0.4089 -0.5639
  536MOL0     N73882   0.588   5.044   1.103  0.8977 -0.3629 -0.1926
  536MOL0     C73883   1.159   5.189   2.097  0.4679 -0.5181 -0.6772
  536MOL0     C73884   1.188   5.153   2.237 -0.8274  0.4399 -0.1439
  536MOL0     C73885   1.423   4.955   2.571 -0.4366 -0.1849 -0.0990
  536MOL0     C73886   1.311   4.911   2.642 -0.4485 -0.1569  0.1958
  536MOL0     C73887   1.320   4.866   2.773 -0.2652  0.0004  0.7369
  536MOL0     C73888   1.445   4.848   2.830 -0.1587 -0.7737 -0.1840
  536MOL0     O73889   1.460   4.779   2.948 -0.2161 -0.1251 -0.0836
  536MOL0     C73890   1.481   4.860   3.066  0.9655 -0.2636  0.2137
  536MOL0     C73891   1.336   4.871   3.136 -0.3400 -0.4669  0.7983
  536MOL0     C73892   1.339   4.942   3.279 -0.4020  0.9134  0.6697
  536MOL0     C73893   1.198   4.969   3.328 -0.1303 -0.3008  0.4323
  536MOL0     C73894   1.126   4.852   3.374 -0.0329  0.2461  0.7819
  536MOL0     C73895   1.076   4.751   3.406 -0.0546  0.6771 -0.4684
  536MOL0     C73896   1.558   4.882   2.757 -0.4775 -0.3649 -0.2743
  536MOL0     C73897   1.546   4.944   2.632 -0.2070 -0.3423 -0.2463
  536MOL0     C73898   1.680   4.988   2.568  0.6812  0.9100  0.1686
  536MOL0     H73899   1.252   4.815   2.169  1.5214  0.0537  1.1022
  536MOL0     H73900   1.191   4.898   1.945  0.7564 -1.8841  0.0601
  536MOL0     H73901   1.216   5.246   1.711 -0.6727  2.6379 -0.1202
  536MOL0     H73902   1.235   5.318   1.875  2.5687  0.3610 -0.8264
  536MOL0     H73903   0.957   5.248   1.838  0.0769 -0.7836 -1.6297
  536MOL0     H73904   1.035   5.401   1.878 -1.6016 -1.5508  1.4409
  536MOL0     H73905   0.922   5.466   1.678  0.0175  1.3788 -2.6269
  536MOL0     H73906   1.076   5.435   1.618  1.0025 -1.6924  0.8028
  536MOL0     H73907   1.020   5.209   1.541  1.2680 -0.2897  0.8138
  536MOL0     H73908   0.843   5.224   1.611 -2.3888  2.7119 -3.1583
  536MOL0     H73909   0.974   5.400   1.397 -0.5033  2.0183  2.3161
  536MOL0     H73910   0.805   5.398   1.457  0.1911 -0.6733  1.6283
  536MOL0     H73911   0.958   5.184   1.307 -1.1663 -3.3533  1.7421
  536MOL0     H73912   0.801   5.151   1.385 -0.9674 -0.5789 -1.9027
  536MOL0     H73913   0.845   5.388   1.190  1.0406 -0.8778 -0.4276
  536MOL0     H73914   0.687   5.321   1.250  1.3033  1.0933  2.9347
  536MOL0     H73915   0.751   5.254   1.018 -0.1014  1.8638  0.6623
  536MOL0     H73916   0.895   5.189   1.086  1.0595 -0.3118  1.8107
  536MOL0     H73917   0.883   4.915   1.169 -0.0018 -0.5733  0.0626
  536MOL0     H73918   0.797   4.681   1.054  0.4531  0.4139  1.0394
  536MOL0     H73919   0.631   4.668   1.049  1.3587 -1.9680 -1.3197
  536MOL0     H73920   0.624   4.644   1.303 -0.7565  0.1703  0.8222
  536MOL0     H73921   0.724   4.518   1.226 -0.3402  0.5035 -0.0749
  536MOL0     H73922   0.923   4.643   1.275  0.2452  3.8019 -1.2997
  536MOL0     H73923   0.824   4.761   1.356 -0.2465  1.0642 -4.0722
  536MOL0     H73924   0.730   4.603   1.520 -0.8442  1.7652 -2.0340
  536MOL0     H73925   0.785   4.467   1.435 -1.0618  0.3257  0.3926
  536MOL0     H73926   1.058   4.658   1.735 -3.6501  1.0352  1.1100
  536MOL0     H73927   1.198   4.522   2.026 -0.2965 -1.8770 -3.5072
  536MOL0     H73928   1.042   4.587   2.070 -1.2750  0.2635 -1.6166
  536MOL0     H73929   1.132   4.670   1.939  0.4181  0.2193 -1.0245
  536MOL0     H73930   1.085   3.868   1.906  0.2036 -0.7663  1.0601
  536MOL0     H73931   1.185   3.702   2.074 -0.6341 -1.0281  2.6447
  536MOL0     H73932   1.351   3.835   2.367 -1.4380  0.0080 -0.8803
  536MOL0     H73933   1.236   3.813   2.509 -0.1726 -1.0614  0.1306
  536MOL0     H73934   1.455   3.708   2.514  1.4782 -1.6755 -2.3569
  536MOL0     H73935   1.331   3.584   2.527 -2.9748  0.9054  0.0984
  536MOL0     H73936   1.532   3.551   2.369 -0.7329 -2.5439  0.1538
  536MOL0     H73937   1.446   3.633   2.241 -3.8145  0.5744  0.7306
  536MOL0     H73938   1.250   3.463   2.352 -0.3908  2.5075 -1.5007
  536MOL0     H73939   1.384   3.365   2.384 -0.5284 -0.3749 -0.5455
  536MOL0     H73940   1.263   3.333   2.142  4.0332 -3.8422 -3.0354
  536MOL0     H73941   1.319   3.503   2.120  2.3480  0.4218 -0.9487
  536MOL0     H73942   1.465   3.233   2.121  0.5616  0.3235  4.5564
  536MOL0     H73943   1.557   3.370   2.172 -0.7747 -1.7576  0.6142
  536MOL0     H73944   1.483   3.475   1.956  0.6351 -0.2479  2.2972
  536MOL0     H73945   1.412   3.327   1.897 -1.6348  1.2019  0.7866
  536MOL0     H73946   1.631   3.324   1.797  2.0566  0.0463 -0.2436
  536MOL0     H73947   1.638   3.209   1.929 -1.6143  0.2191  0.0848
  536MOL0     H73948   1.081   3.928   2.393 -0.7718 -0.9885 -0.5662
  536MOL0     H73949   1.006   4.117   2.248 -0.9847  0.3348  0.2431
  536MOL0     H73950   0.925   4.175   1.762 -1.2544 -0.1143 -1.8324
  536MOL0     H73951   0.893   4.318   1.558 -0.1575  2.5033 -0.7906
  536MOL0     H73952   1.135   5.294   2.081 -0.1876 -0.8230 -1.8108
  536MOL0     H73953   1.192   5.219   2.323 -2.6379  2.4202 -1.4723
  536MOL0     H73954   1.215   4.913   2.591  0.8096  1.8756 -2.3542
  536MOL0     H73955   1.227   4.826   2.811 -0.3966  0.2825  0.7167
  536MOL0     H73956   1.552   4.813   3.134  0.4906 -0.2678  0.7132
  536MOL0     H73957   1.500   4.966   3.051 -1.9524  0.2132 -0.8611
  536MOL0     H73958   1.299   4.770   3.158 -2.3444 -0.1112 -0.6230
  536MOL0     H73959   1.259   4.917   3.074 -0.1670 -1.4918 -0.2268
  536MOL0     H73960   1.397   4.887   3.353  2.0781  0.8327 -1.2030
  536MOL0     H73961   1.400   5.033   3.275  2.1918 -0.7843 -0.8766
  536MOL0     H73962   1.147   5.013   3.242  1.1368 -2.1651 -1.3823
  536MOL0     H73963   1.205   5.047   3.405  2.2293  0.7212 -0.7015
  536MOL0     H73964   1.021   4.661   3.422  0.0072  1.0556  2.3627
  536MOL0     H73965   1.660   4.867   2.788 -0.9517  0.1897  1.6751
  536MOL0     H73966   1.763   4.936   2.618  1.6018  2.5347  0.4102
  536MOL0     H73967   1.678   4.939   2.470 -0.1916 -0.7174  0.9454
  536MOL0     H73968   1.690   5.096   2.559 -2.5331  1.1429 -2.2016
  537MOL0     O73969   1.979   7.777   1.287 -0.0833 -0.1343  0.2144
  537MOL0     C73970   2.071   7.710   1.328 -0.2031  0.0113  0.5077
  537MOL0     O73971   2.081   7.572   1.318 -0.0446  0.2597  0.5081
  537MOL0     C73972   2.044   7.507   1.197  0.3495  0.0483  0.0486
  537MOL0     C73973   2.030   7.567   1.068 -0.1900  0.0097  0.0558
  537MOL0     C73974   1.994   7.505   0.947 -1.8941  0.0662  0.4229
  537MOL0     C73975   1.993   7.361   0.954  0.3313 -0.8197  0.2889
  537MOL0     O73976   1.982   7.272   0.846  0.0615 -0.5881 -0.2119
  537MOL0     C73977   1.897   7.307   0.738 -0.5757 -0.3713  0.5932
  537MOL0     C73978   1.879   7.192   0.653  0.2507  0.0952  0.5535
  537MOL0     C73979   1.998   7.130   0.578  0.2567  0.8006 -0.3991
  537MOL0     C73980   1.961   7.027   0.473  0.2278  0.2690  0.1260
  537MOL0     C73981   2.076   6.951   0.400 -0.1461  0.1145 -0.0930
  537MOL0     C73982   2.033   6.880   0.270  0.7144 -0.4346 -1.0493
  537MOL0     C73983   1.909   6.793   0.265  0.9648  0.1614 -0.5233
  537MOL0     C73984   1.796   6.852   0.184 -0.4553 -0.8084 -0.1888
  537MOL0     N73985   1.684   6.771   0.180 -0.0322 -0.4601 -0.4497
  537MOL0     C73986   1.675   6.649   0.120  0.5142 -0.4083  0.3147
  537MOL0     C73987   1.541   6.621   0.136 -0.5776  0.7522 -0.3179
  537MOL0     C73988   1.491   6.504   0.051  0.5629  0.0870 -0.1062
  537MOL0     C73989   1.344   6.535   0.019 -0.4558  0.3685  0.2871
  537MOL0     C73990   1.263   6.400  -0.003 -0.4750  0.6204 -0.1004
  537MOL0     C73991   1.267   6.357  -0.160 -0.6637 -0.0039  0.0079
  537MOL0     O73992   1.402   6.355  -0.203  1.4529  0.9905  0.5989
  537MOL0     C73993   1.477   6.252  -0.177 -0.8287  0.1662  0.7682
  537MOL0     C73994   1.615   6.258  -0.221 -0.1772  0.5986 -0.1007
  537MOL0     C73995   1.700   6.143  -0.204 -0.7485  0.0735 -0.5710
  537MOL0     C73996   1.822   6.142  -0.284  0.7431 -0.2817 -0.7679
  537MOL0     C73997   1.655   6.038  -0.116  0.3463 -0.2017  0.0361
  537MOL0     C73998   1.742   5.922  -0.078 -0.0367 -0.0314  0.0625
  537MOL0     O73999   1.702   5.844   0.027 -0.1862 -0.4582 -0.2061
  537MOL0     C74000   1.764   5.726   0.064 -1.0355  0.3216  0.6414
  537MOL0     C74001   1.897   5.686   0.046  0.5130 -0.3213  0.2513
  537MOL0     C74002   1.944   5.560   0.083 -0.5333  0.1387  0.2105
  537MOL0     C74003   1.864   5.469   0.137 -0.1922  0.4073 -0.4651
  537MOL0     O74004   1.913   5.350   0.181 -1.0330  0.4831  0.0991
  537MOL0     C74005   2.010   5.364   0.287 -0.2527 -0.4952 -0.3650
  537MOL0     C74006   2.018   5.226   0.343 -0.3160  0.5765  0.0613
  537MOL0     C74007   2.144   5.203   0.423 -0.6040  0.4728 -0.9508
  537MOL0     C74008   2.158   5.289   0.560 -0.0539 -0.1773 -0.1279
  537MOL0     C74009   2.283   5.259   0.646 -0.0210 -0.6192  0.6440
  537MOL0     C74010   2.419   5.271   0.565  0.9481 -0.0419 -0.1483
  537MOL0     C74011   2.529   5.224   0.665 -0.0666  0.2776  1.1119
  537MOL0     C74012   2.673   5.246   0.611 -0.0535  0.1041 -0.5758
  537MOL0    Cl74013   2.700   5.209   0.440 -0.5189 -0.0303  0.0386
  537MOL0     C74014   1.733   5.507   0.167 -0.0840  0.4018 -0.2902
  537MOL0     C74015   1.686   5.638   0.137 -0.2417  0.3489 -0.1988
  537MOL0     O74016   1.852   5.910  -0.139  0.5006  0.1289  0.2197
  537MOL0     C74017   1.531   6.043  -0.057  0.7676  0.1470  0.0906
  537MOL0     C74018   1.436   6.145  -0.096  0.6320 -0.5493  0.0775
  537MOL0     N74019   1.480   6.713   0.212 -0.0577 -0.3040  0.7362
  537MOL0     N74020   1.564   6.808   0.228 -0.1996  0.0975 -0.0627
  537MOL0     C74021   2.015   7.297   1.079  0.2823 -0.2522  0.0856
  537MOL0     C74022   2.034   7.364   1.201 -0.2869  0.6857 -1.3015
  537MOL0     C74023   2.162   7.775   1.423 -1.1190 -0.5109 -0.6314
  537MOL0     C74024   2.210   7.692   1.536  0.3593 -0.3094 -0.5498
  537MOL0     C74025   2.274   7.758   1.632  0.6024 -1.1825  0.2522
  537MOL0     C74026   2.315   7.889   1.635  0.5071  0.3803  0.4831
  537MOL0     O74027   2.383   7.936   1.741  0.0414  0.7336 -1.0976
  537MOL0     C74028   2.460   8.054   1.730 -0.2884  0.2855 -0.2041
  537MOL0     C74029   2.389   8.185   1.772 -0.1580 -0.3611 -0.2059
  537MOL0     C74030   2.500   8.294   1.760 -0.3527  0.5343 -0.8361
  537MOL0     C74031   2.572   8.316   1.905 -0.5087 -0.4660  0.4582
  537MOL0     C74032   2.641   8.445   1.899 -0.2342 -0.9659  1.3364
  537MOL0     C74033   2.699   8.552   1.892 -0.3082 -0.8565  0.3005
  537MOL0     C74034   2.279   7.967   1.528 -1.4201 -0.2212 -0.1884
  537MOL0     C74035   2.199   7.910   1.425  0.0922 -0.3795 -0.8651
  537MOL0     C74036   2.137   8.004   1.324 -0.0520  0.2348 -0.3834
  537MOL0     H74037   2.044   7.675   1.061 -0.9745  0.4856  3.6916
  537MOL0     H74038   1.993   7.562   0.854  4.0596 -0.0568 -0.1049
  537MOL0     H74039   1.942   7.389   0.681 -1.9026 -0.8216 -1.2154
  537MOL0     H74040   1.796   7.337   0.768 -1.4173 -0.3513 -1.9545
  537MOL0     H74041   1.840   7.117   0.722  0.3331  0.5546  1.1045
  537MOL0     H74042   1.800   7.218   0.583  0.6867 -2.5940 -1.0971
  537MOL0     H74043   2.057   7.209   0.531 -0.1023  0.9348 -0.6239
  537MOL0     H74044   2.064   7.081   0.650  1.0307  0.8455 -1.0649
  537MOL0     H74045   1.904   6.947   0.520 -0.9766  0.3067 -1.2156
  537MOL0     H74046   1.895   7.077   0.401 -2.0736 -2.1307  0.4250
  537MOL0     H74047   2.103   6.872   0.470  1.2555 -2.1343 -2.9713
  537MOL0     H74048   2.161   7.020   0.401 -0.1728  0.2538  3.0454
  537MOL0     H74049   2.022   6.963   0.200  0.1769  0.5164  0.1179
  537MOL0     H74050   2.114   6.814   0.238  0.4824 -1.3106  0.1057
  537MOL0     H74051   1.875   6.773   0.367 -0.4879  1.3963 -0.7331
  537MOL0     H74052   1.932   6.700   0.211  2.1361  1.0908 -1.6775
  537MOL0     H74053   1.769   6.946   0.234  3.0492  0.2774 -0.0893
  537MOL0     H74054   1.825   6.871   0.080 -0.3727  3.4696  0.4097
  537MOL0     H74055   1.749   6.588   0.070 -0.5072 -2.1544  0.8339
  537MOL0     H74056   1.501   6.414   0.111  0.5761 -0.1846 -0.5077
  537MOL0     H74057   1.540   6.494  -0.047  1.9202 -0.6467  0.6261
  537MOL0     H74058   1.308   6.583   0.111 -0.2232 -2.1446  1.7510
  537MOL0     H74059   1.324   6.591  -0.073 -0.1120 -0.6882 -0.4370
  537MOL0     H74060   1.297   6.319   0.062 -0.4797  0.9776  0.3548
  537MOL0     H74061   1.165   6.433   0.034 -0.0761  5.1138 -2.3152
  537MOL0     H74062   1.217   6.261  -0.177 -1.8508  0.3271  1.4734
  537MOL0     H74063   1.216   6.437  -0.214 -2.3899  1.0973  3.0512
  537MOL0     H74064   1.640   6.336  -0.291  2.0138  0.3775  0.3729
  537MOL0     H74065   1.812   6.218  -0.363 -2.2256  1.4453  1.0817
  537MOL0     H74066   1.851   6.049  -0.334  2.2294  0.0232 -0.5312
  537MOL0     H74067   1.897   6.158  -0.206 -1.2904 -1.7192  1.6111
  537MOL0     H74068   1.969   5.757   0.006  1.1009 -1.6739 -1.1902
  537MOL0     H74069   2.050   5.539   0.068 -0.7470  0.5408 -2.4494
  537MOL0     H74070   2.100   5.413   0.251 -0.3106  2.6981  3.1211
  537MOL0     H74071   1.978   5.435   0.365 -1.7516  0.5913 -1.8752
  537MOL0     H74072   1.936   5.211   0.414  0.7273  2.7956  1.8803
  537MOL0     H74073   2.023   5.160   0.257 -1.0156  1.5349 -0.7294
  537MOL0     H74074   2.236   5.224   0.369 -0.4993 -0.3371 -1.1093
  537MOL0     H74075   2.146   5.095   0.443 -1.3562  0.6240  0.0277
  537MOL0     H74076   2.069   5.284   0.623  0.4482 -0.1731  0.5981
  537MOL0     H74077   2.165   5.389   0.517  2.1413 -0.7897 -1.3683
  537MOL0     H74078   2.288   5.331   0.729  1.5339 -1.3578  1.2344
  537MOL0     H74079   2.280   5.159   0.690 -0.5258 -1.1028 -0.4641
  537MOL0     H74080   2.421   5.377   0.535 -2.6874  1.4529  3.8635
  537MOL0     H74081   2.422   5.205   0.479  2.6421 -0.3060  0.0716
  537MOL0     H74082   2.525   5.115   0.662  2.2484  0.0976 -3.3408
  537MOL0     H74083   2.520   5.256   0.769  1.3561 -0.3219  1.4379
  537MOL0     H74084   2.739   5.172   0.659  0.7817  1.5749  0.6372
  537MOL0     H74085   2.705   5.348   0.633  2.6645 -0.5496 -1.0778
  537MOL0     H74086   1.655   5.456   0.223 -0.7467  2.4032  0.6859
  537MOL0     H74087   1.590   5.681   0.164  0.6067  0.0785  3.9327
  537MOL0     H74088   1.489   5.972   0.014 -0.5368  0.3100 -0.4818
  537MOL0     H74089   1.333   6.145  -0.062 -0.4889  2.7178 -2.7157
  537MOL0     H74090   2.017   7.188   1.081  1.5782 -0.3017 -1.5185
  537MOL0     H74091   2.054   7.307   1.291 -0.8529  2.3969 -0.0432
  537MOL0     H74092   2.184   7.587   1.544 -2.3721  0.3997  1.4600
  537MOL0     H74093   2.305   7.713   1.726 -1.2159  0.2991  1.6672
  537MOL0     H74094   2.550   8.053   1.791 -2.4864 -0.0770  3.2840
  537MOL0     H74095   2.497   8.052   1.627 -0.0049  0.3576 -0.1041
  537MOL0     H74096   2.347   8.179   1.873 -0.3642  1.3058 -0.1577
  537MOL0     H74097   2.307   8.216   1.706  1.2658 -0.2971 -2.0192
  537MOL0     H74098   2.566   8.247   1.687 -2.6259 -0.7196 -2.1956
  537MOL0     H74099   2.464   8.386   1.714  0.4443  0.3421 -1.8654
  537MOL0     H74100   2.645   8.235   1.916  0.1257  0.1562  0.9052
  537MOL0     H74101   2.502   8.308   1.988 -3.1017  3.6869 -0.9746
  537MOL0     H74102   2.725   8.656   1.886 -0.9673 -0.7149 -0.2508
  537MOL0     H74103   2.304   8.072   1.516  2.5745 -0.7644  1.7873
  537MOL0     H74104   2.030   8.013   1.344  0.3499  1.9021  1.2643
  537MOL0     H74105   2.161   8.110   1.334 -4.8407  1.7094 -1.7750
  537MOL0     H74106   2.154   7.968   1.222  0.8283  2.3944 -1.0631
  538MOL0     O74107   4.610   2.764   4.982  0.1075 -0.4882 -0.7660
  538MOL0     C74108   4.485   2.797   4.978 -0.3323  0.1829  0.1193
  538MOL0     O74109   4.384   2.706   4.977 -0.3702 -0.5818 -0.1081
  538MOL0     C74110   4.407   2.566   5.001  0.3008 -0.2409 -0.1077
  538MOL0     C74111   4.314   2.487   4.940  0.5805  0.3300 -0.1654
  538MOL0     C74112   4.315   2.350   4.949  0.5509 -0.7373 -0.0057
  538MOL0     C74113   4.403   2.297   5.046  0.8496 -0.0417 -0.3583
  538MOL0     O74114   4.390   2.165   5.085 -0.8197 -0.3773  0.0038
  538MOL0     C74115   4.400   2.137   5.228  0.1327 -0.1971 -0.8725
  538MOL0     C74116   4.325   2.004   5.248  0.3628  0.2564  0.1198
  538MOL0     C74117   4.376   1.922   5.370  0.6881 -1.0020 -0.1104
  538MOL0     C74118   4.306   1.785   5.381 -0.1109  0.3360 -0.1901
  538MOL0     C74119   4.167   1.808   5.455  0.2003  0.0301  1.4759
  538MOL0     C74120   4.080   1.676   5.469 -0.1536 -0.3200  0.7377
  538MOL0     C74121   3.939   1.691   5.538  0.0590 -1.5733  0.9088
  538MOL0     C74122   3.865   1.557   5.537  0.6139 -0.5486 -0.3111
  538MOL0     N74123   3.905   1.458   5.633 -0.5916  0.0482  0.4021
  538MOL0     C74124   3.867   1.467   5.765 -0.9105  0.4008  0.4228
  538MOL0     C74125   3.903   1.350   5.823 -0.3353  0.1808  0.0617
  538MOL0     C74126   3.907   1.289   5.962 -0.5535  0.5686 -0.9354
  538MOL0     C74127   3.792   1.339   6.056 -0.5251 -0.6145 -1.6041
  538MOL0     C74128   3.666   1.250   6.051  0.2412 -0.3517  0.4559
  538MOL0     C74129   3.561   1.292   6.159  0.0547  0.3219 -0.7569
  538MOL0     O74130   3.432   1.239   6.128 -0.3400  0.6845 -0.4284
  538MOL0     C74131   3.360   1.294   6.023 -0.5871  0.1763  0.1886
  538MOL0     C74132   3.237   1.232   5.994  0.2333 -0.3841  0.1165
  538MOL0     C74133   3.140   1.280   5.905 -0.2715  0.2312  0.5459
  538MOL0     C74134   3.003   1.214   5.903  0.0845 -0.7868  0.1092
  538MOL0     C74135   3.164   1.382   5.815  0.9950  0.5080 -0.1745
  538MOL0     C74136   3.067   1.445   5.721  0.7926  0.0573 -0.3829
  538MOL0     O74137   3.104   1.572   5.681 -0.1281  0.4758 -0.3687
  538MOL0     C74138   3.023   1.645   5.597 -0.6351  0.1745  0.2407
  538MOL0     C74139   3.084   1.693   5.477 -1.2311  0.0007  0.3785
  538MOL0     C74140   3.010   1.756   5.385  0.2970 -0.4479  0.8372
  538MOL0     C74141   2.882   1.788   5.407 -0.2846  0.5493 -0.3415
  538MOL0     O74142   2.826   1.853   5.310 -0.3820  0.1701  0.4764
  538MOL0     C74143   2.693   1.903   5.326  0.3263  0.9882 -0.0662
  538MOL0     C74144   2.654   1.983   5.198  0.5498 -1.2411  0.9311
  538MOL0     C74145   2.503   1.979   5.170 -0.0185 -0.2162 -0.0429
  538MOL0     C74146   2.447   2.039   5.032 -0.5931  0.4728 -0.4559
  538MOL0     C74147   2.495   1.975   4.898 -0.2456 -0.3917 -0.3672
  538MOL0     C74148   2.419   1.849   4.853 -0.7980 -0.8957 -0.4923
  538MOL0     C74149   2.461   1.786   4.724 -0.6596  0.5853  0.7206
  538MOL0     C74150   2.609   1.765   4.696 -0.0237 -0.0998 -0.6869
  538MOL0    Cl74151   2.611   1.695   4.531 -0.1731  0.4475 -0.4745
  538MOL0     C74152   2.827   1.750   5.531  0.3228  0.3339  0.8253
  538MOL0     C74153   2.900   1.688   5.628  0.1746  0.1225 -0.7921
  538MOL0     O74154   2.963   1.395   5.695 -0.2909 -0.6985 -0.4926
  538MOL0     C74155   3.291   1.441   5.840 -0.4116 -0.3870  0.3054
  538MOL0     C74156   3.385   1.402   5.940  0.4452  0.3122 -0.0322
  538MOL0     N74157   3.986   1.284   5.736  1.2497  0.7650  1.1565
  538MOL0     N74158   3.984   1.346   5.618 -0.8801  0.0839 -0.3836
  538MOL0     C74159   4.487   2.381   5.116 -0.2074  0.7165  0.6031
  538MOL0     C74160   4.491   2.509   5.085 -0.5312  0.7783 -0.1458
  538MOL0     C74161   4.446   2.940   4.964 -0.5113 -0.1194  0.8945
  538MOL0     C74162   4.312   2.972   4.979 -0.3896 -1.2031 -0.8113
  538MOL0     C74163   4.270   3.097   4.979  0.4303 -0.9195  0.3627
  538MOL0     C74164   4.349   3.208   4.964 -0.7400  0.2269 -0.0539
  538MOL0     O74165   4.299   3.336   4.969 -0.4636  0.3257  0.6730
  538MOL0     C74166   4.385   3.436   5.018 -0.1066  0.1530 -0.6086
  538MOL0     C74167   4.295   3.562   5.026 -0.6683 -0.0114 -0.4941
  538MOL0     C74168   4.174   3.544   5.127 -0.3392 -0.0181 -0.5127
  538MOL0     C74169   4.065   3.645   5.105  0.0730  0.3689  0.0351
  538MOL0     C74170   4.121   3.770   5.142  0.0121 -0.3502  0.1215
  538MOL0     C74171   4.160   3.877   5.177 -0.0616 -0.2341  0.0839
  538MOL0     C74172   4.478   3.177   4.929 -0.9024 -0.8237 -0.5139
  538MOL0     C74173   4.538   3.046   4.940 -0.3016 -0.2184  0.5616
  538MOL0     C74174   4.688   3.049   4.928  0.2347  0.7548 -0.2332
  538MOL0     H74175   4.255   2.539   4.865  3.3720 -0.8774 -3.4286
  538MOL0     H74176   4.240   2.285   4.907 -2.9069  2.8495  0.0622
  538MOL0     H74177   4.345   2.216   5.280  0.9240  0.7210 -1.4005
  538MOL0     H74178   4.503   2.129   5.264 -0.4763 -0.9204  0.7971
  538MOL0     H74179   4.217   2.019   5.237  0.3620  0.9651  0.9954
  538MOL0     H74180   4.350   1.935   5.167  1.3996  0.6206  0.1054
  538MOL0     H74181   4.485   1.911   5.364  0.9312  0.2783  1.2826
  538MOL0     H74182   4.358   1.983   5.459 -0.2111 -0.7983 -0.4160
  538MOL0     H74183   4.282   1.747   5.282 -0.2252  0.5085 -0.2287
  538MOL0     H74184   4.376   1.711   5.421 -0.3102 -1.5036 -2.9682
  538MOL0     H74185   4.109   1.892   5.418  0.6153  0.5934  2.0793
  538MOL0     H74186   4.196   1.845   5.554  2.0944 -0.7699  1.2754
  538MOL0     H74187   4.080   1.623   5.373  0.4579  2.6492 -1.0476
  538MOL0     H74188   4.147   1.629   5.541  1.4822  0.7842  0.0086
  538MOL0     H74189   3.869   1.767   5.501 -0.5782 -1.2737  2.6287
  538MOL0     H74190   3.961   1.711   5.643 -1.5363  2.5763  0.6192
  538MOL0     H74191   3.758   1.570   5.555  0.8199 -1.1631  1.6131
  538MOL0     H74192   3.876   1.517   5.435 -1.7239 -0.5499 -0.6048
  538MOL0     H74193   3.819   1.552   5.813 -0.2410  1.1539 -0.2014
  538MOL0     H74194   4.006   1.309   6.004 -1.4875  1.4313  0.9609
  538MOL0     H74195   3.910   1.179   5.961  0.5738  0.5517  0.4265
  538MOL0     H74196   3.829   1.339   6.159 -2.0836 -1.1421 -1.0189
  538MOL0     H74197   3.766   1.445   6.044  0.5695  0.3975  3.0411
  538MOL0     H74198   3.624   1.250   5.950  1.2654  1.9566 -0.0182
  538MOL0     H74199   3.698   1.146   6.065  2.0697 -0.0304 -1.0060
  538MOL0     H74200   3.586   1.246   6.254  0.6358 -1.3025 -1.6623
  538MOL0     H74201   3.539   1.398   6.179 -1.8476 -0.0774 -0.5397
  538MOL0     H74202   3.217   1.169   6.080 -2.7651 -1.2790 -1.1011
  538MOL0     H74203   2.966   1.168   5.811 -1.9405 -1.3091  1.1242
  538MOL0     H74204   2.926   1.283   5.938  0.2221 -0.5128 -0.1230
  538MOL0     H74205   2.998   1.137   5.980 -0.4486 -1.3767 -0.5050
  538MOL0     H74206   3.190   1.675   5.462 -1.6539 -0.9262 -1.8984
  538MOL0     H74207   3.060   1.768   5.289 -1.3613 -0.9792 -0.1323
  538MOL0     H74208   2.623   1.819   5.332 -0.8793  1.9629 -0.0583
  538MOL0     H74209   2.693   1.957   5.422 -0.3233 -0.7682  0.9805
  538MOL0     H74210   2.690   2.086   5.199  0.3403 -1.1575  0.4469
  538MOL0     H74211   2.703   1.922   5.122 -0.2641  0.8156 -1.3652
  538MOL0     H74212   2.468   2.034   5.258  0.4567 -2.2151  1.4688
  538MOL0     H74213   2.482   1.875   5.196  0.0223  0.3287  2.4147
  538MOL0     H74214   2.478   2.143   5.019 -1.1942  0.8304  0.7717
  538MOL0     H74215   2.338   2.047   5.032 -0.6232  1.4952  2.6844
  538MOL0     H74216   2.469   2.041   4.814 -0.2385 -0.3622 -0.3465
  538MOL0     H74217   2.604   1.966   4.906 -0.4944 -1.9376  2.5048
  538MOL0     H74218   2.312   1.872   4.855 -1.4980 -3.6984  1.1757
  538MOL0     H74219   2.436   1.779   4.936 -0.2932 -3.1191 -2.3319
  538MOL0     H74220   2.427   1.846   4.639 -0.7812 -1.0541 -0.4346
  538MOL0     H74221   2.426   1.682   4.725  1.2099 -0.2518 -3.2167
  538MOL0     H74222   2.639   1.681   4.759 -3.6557 -0.4068  0.8544
  538MOL0     H74223   2.682   1.844   4.718  0.4695  0.1608 -2.9312
  538MOL0     H74224   2.729   1.785   5.562 -0.6396 -1.9606  0.5672
  538MOL0     H74225   2.858   1.654   5.723 -0.3964 -0.3207 -1.2013
  538MOL0     H74226   3.316   1.535   5.792 -0.0400 -0.9696 -0.6737
  538MOL0     H74227   3.482   1.450   5.942  1.4676 -1.1593 -4.0569
  538MOL0     H74228   4.551   2.343   5.195  0.4873  0.1396 -0.2091
  538MOL0     H74229   4.571   2.554   5.142 -0.7647 -1.7437  2.3916
  538MOL0     H74230   4.232   2.899   4.990  0.5007 -2.2848 -1.3065
  538MOL0     H74231   4.165   3.123   4.991  0.0974 -0.8767 -2.0233
  538MOL0     H74232   4.413   3.405   5.120  0.4440 -0.7421 -1.0199
  538MOL0     H74233   4.479   3.433   4.961  1.8963 -5.8480  2.1942
  538MOL0     H74234   4.254   3.578   4.925 -3.5399 -1.1172  0.3840
  538MOL0     H74235   4.349   3.648   5.064 -3.1815  1.8167 -0.7620
  538MOL0     H74236   4.134   3.444   5.105  2.0754 -0.6543 -2.4560
  538MOL0     H74237   4.213   3.553   5.228 -2.3156  0.3396  0.2564
  538MOL0     H74238   3.990   3.621   5.182 -0.4803  1.4839 -0.1267
  538MOL0     H74239   4.029   3.641   5.002 -2.4640  1.5765  0.7930
  538MOL0     H74240   4.204   3.971   5.205 -1.2913  0.5088 -0.3849
  538MOL0     H74241   4.553   3.254   4.913 -1.5052 -0.6544 -2.9678
  538MOL0     H74242   4.711   2.997   4.835 -0.9692  0.0908 -0.1769
  538MOL0     H74243   4.723   3.153   4.926 -0.6153  1.0422 -0.3066
  538MOL0     H74244   4.724   2.996   5.017 -3.9412 -2.9891 -0.4477
  539MOL0     O74245   7.766   7.872   4.872 -0.4370  0.7098  0.2434
  539MOL0     C74246   7.715   7.954   4.794  0.0698  0.0266  0.8930
  539MOL0     O74247   7.777   8.043   4.709  0.0301 -0.6664  0.6410
  539MOL0     C74248   7.914   8.030   4.718  0.4239 -0.8448 -0.5707
  539MOL0     C74249   7.981   7.965   4.618  0.4465 -0.7897 -0.1922
  539MOL0     C74250   8.121   7.938   4.632 -0.1573  0.5712  0.8838
  539MOL0     C74251   8.194   8.004   4.732 -0.8106  0.7149 -0.0219
  539MOL0     O74252   8.329   7.978   4.747  0.9636 -0.0415 -0.3465
  539MOL0     C74253   8.415   7.968   4.636 -0.5906  0.0817 -0.2689
  539MOL0     C74254   8.555   7.957   4.710 -0.3751 -1.1381  0.2733
  539MOL0     C74255   8.619   8.099   4.717 -0.2605  0.6838 -0.0844
  539MOL0     C74256   8.641   8.119   4.872 -0.2918  1.5748 -0.0895
  539MOL0     C74257   8.729   8.237   4.890  0.3559 -0.0101  0.6529
  539MOL0     C74258   8.780   8.227   5.029  0.6851 -0.4257 -0.1235
  539MOL0     C74259   8.922   8.263   5.045 -0.9210 -0.8117 -0.3597
  539MOL0     C74260   9.016   8.159   4.980 -0.3361 -0.2895 -0.2118
  539MOL0     N74261   9.047   8.060   5.095 -0.1728 -0.2773  0.6588
  539MOL0     C74262   9.148   8.090   5.186 -0.2290  0.4266  0.3618
  539MOL0     C74263   9.139   7.988   5.281  0.6858  0.7200 -0.4979
  539MOL0     C74264   9.234   7.976   5.401  0.1348  0.3315  1.1712
  539MOL0     C74265   9.164   8.008   5.534  0.3302 -0.5390  0.4184
  539MOL0     C74266   9.077   8.136   5.539  0.6383  0.0167  0.5778
  539MOL0     C74267   9.168   8.256   5.531  0.4010  0.6782 -0.1582
  539MOL0     O74268   9.194   8.312   5.404  0.2625 -0.5307  0.7268
  539MOL0     C74269   9.123   8.418   5.359  0.6383  1.3666  0.3042
  539MOL0     C74270   9.155   8.455   5.230 -0.3859  0.3504 -0.4032
  539MOL0     C74271   9.105   8.578   5.171  0.5986  0.2559  0.0286
  539MOL0     C74272   9.161   8.625   5.034 -0.0218 -1.1067  0.4656
  539MOL0     C74273   8.992   8.635   5.241  0.0164  0.2290 -0.1219
  539MOL0     C74274   8.913   8.743   5.182  0.5896  0.5763 -0.6718
  539MOL0     O74275   8.794   8.769   5.255  0.5446  0.0949 -0.5411
  539MOL0     C74276   8.715   8.861   5.206  0.4621 -0.1090 -0.1805
  539MOL0     C74277   8.594   8.815   5.160  0.5245  0.2867 -0.4537
  539MOL0     C74278   8.497   8.899   5.108 -0.0987  0.2692  0.1785
  539MOL0     C74279   8.532   9.030   5.083  0.1230 -0.3500  0.8211
  539MOL0     O74280   8.444   9.118   5.025  0.2771  0.3455  1.0321
  539MOL0     C74281   8.306   9.119   5.059 -0.9128  1.2826 -0.6148
  539MOL0     C74282   8.263   9.269   5.045 -0.5080  0.3370  0.4603
  539MOL0     C74283   8.284   9.314   4.900  0.4877  0.5741 -0.6201
  539MOL0     C74284   8.166   9.269   4.811  0.1280  0.4180 -0.1056
  539MOL0     C74285   8.216   9.284   4.669  0.4089 -0.5650  0.2733
  539MOL0     C74286   8.257   9.429   4.627 -0.2459 -0.5296  0.1786
  539MOL0     C74287   8.137   9.529   4.639 -0.4889  0.2409  1.1504
  539MOL0     C74288   8.146   9.657   4.560 -0.3868  0.9131 -0.3333
  539MOL0    Cl74289   8.317   9.715   4.584  0.3392  0.3426  0.0911
  539MOL0     C74290   8.659   9.078   5.122  0.5920  0.3333  1.0328
  539MOL0     C74291   8.744   8.992   5.188  0.5694 -0.7440  0.3790
  539MOL0     O74292   8.965   8.817   5.100 -0.6774  0.3827  0.5786
  539MOL0     C74293   8.952   8.580   5.371  0.0840 -0.2368 -0.3201
  539MOL0     C74294   9.015   8.474   5.429  0.2213  0.5567 -0.3691
  539MOL0     N74295   9.022   7.916   5.246  0.6154 -0.5066  0.4691
  539MOL0     N74296   8.971   7.962   5.138  0.0396 -0.4256  0.2660
  539MOL0     C74297   8.120   8.067   4.824 -0.6185 -0.3768 -0.7718
  539MOL0     C74298   7.982   8.082   4.823  0.1831  0.4733 -0.2736
  539MOL0     C74299   7.566   7.948   4.801 -0.4856 -0.3623  0.0528
  539MOL0     C74300   7.503   7.917   4.919  0.5993 -0.1663 -0.1641
  539MOL0     C74301   7.366   7.884   4.928  0.4951 -1.0475  1.0662
  539MOL0     C74302   7.292   7.891   4.812 -0.9456 -0.4813 -0.6187
  539MOL0     O74303   7.152   7.874   4.807  0.4808 -0.8514  0.6702
  539MOL0     C74304   7.080   7.983   4.760  0.3286  0.0870 -0.0220
  539MOL0     C74305   6.939   8.002   4.832 -0.6360 -0.1480  1.0554
  539MOL0     C74306   6.971   8.068   4.964 -1.0942  0.0829 -0.4210
  539MOL0     C74307   6.853   8.107   5.051 -0.8879 -0.0193  0.4135
  539MOL0     C74308   6.903   8.179   5.168  0.0511  0.9810  0.2969
  539MOL0     C74309   6.920   8.227   5.278  0.0894  0.6586 -0.0101
  539MOL0     C74310   7.353   7.935   4.695 -0.0587 -0.6153  0.0537
  539MOL0     C74311   7.487   7.963   4.687 -0.3446  0.4978  0.5875
  539MOL0     C74312   7.557   7.973   4.553  0.2953  0.7622 -0.4919
  539MOL0     H74313   7.919   7.913   4.546 -1.0010 -1.4805  1.4832
  539MOL0     H74314   8.171   7.868   4.566  4.2640  4.5920 -0.5996
  539MOL0     H74315   8.413   8.059   4.575  1.2839 -0.1320 -0.7218
  539MOL0     H74316   8.397   7.883   4.569 -1.9107  2.4536 -3.1469
  539MOL0     H74317   8.543   7.917   4.811  0.6016 -0.6587  0.5980
  539MOL0     H74318   8.617   7.886   4.655 -2.2283 -3.2942  0.8131
  539MOL0     H74319   8.710   8.098   4.657 -1.3446 -1.3606 -1.8239
  539MOL0     H74320   8.551   8.179   4.686  0.1005  1.3728  0.8558
  539MOL0     H74321   8.549   8.128   4.931 -1.4345 -1.3307 -1.2752
  539MOL0     H74322   8.707   8.044   4.917  2.5126  2.5225 -2.3283
  539MOL0     H74323   8.660   8.321   4.879 -0.0955 -0.5820 -1.3856
  539MOL0     H74324   8.804   8.236   4.811  0.4177  2.8828  0.5911
  539MOL0     H74325   8.708   8.284   5.088  0.0317  1.1746 -2.3049
  539MOL0     H74326   8.769   8.128   5.075 -0.3955  0.0442  0.6486
  539MOL0     H74327   8.951   8.269   5.150  2.0561  1.2226 -1.1727
  539MOL0     H74328   8.942   8.360   5.000 -0.9646 -1.7696 -2.5487
  539MOL0     H74329   8.966   8.106   4.899  2.8124 -0.1466 -2.4146
  539MOL0     H74330   9.099   8.217   4.940  0.6478 -0.9109  0.8811
  539MOL0     H74331   9.221   8.170   5.190  0.9897 -0.6917  1.5923
  539MOL0     H74332   9.318   8.046   5.391  0.7123 -0.6809 -3.3073
  539MOL0     H74333   9.281   7.878   5.411 -0.6851 -0.1284  0.6728
  539MOL0     H74334   9.103   7.921   5.559 -0.1376  0.1392  1.6791
  539MOL0     H74335   9.245   8.003   5.608  0.3904  0.5473  0.4314
  539MOL0     H74336   9.013   8.154   5.452 -0.7227  4.5206  2.1828
  539MOL0     H74337   9.018   8.139   5.632 -2.5179 -1.8507 -1.1942
  539MOL0     H74338   9.145   8.331   5.607  1.4405 -2.6632  3.8587
  539MOL0     H74339   9.264   8.223   5.572 -0.3992  0.9881  2.1301
  539MOL0     H74340   9.240   8.402   5.188 -0.2722 -0.6276  1.0010
  539MOL0     H74341   9.185   8.732   5.041  3.8433 -1.8470  0.6862
  539MOL0     H74342   9.094   8.611   4.949  1.7910 -0.9796 -1.0459
  539MOL0     H74343   9.251   8.573   5.002 -2.1252 -3.9611 -1.2888
  539MOL0     H74344   8.555   8.714   5.163 -2.0796  1.1350 -1.9412
  539MOL0     H74345   8.395   8.875   5.079 -1.2034  4.1589  0.3344
  539MOL0     H74346   8.252   9.063   4.983 -0.7726 -0.8974  0.8223
  539MOL0     H74347   8.284   9.084   5.160  0.4512  1.5155 -0.2170
  539MOL0     H74348   8.162   9.286   5.085 -0.4467  3.9974 -0.6560
  539MOL0     H74349   8.320   9.338   5.108 -1.7850  0.5037  1.4813
  539MOL0     H74350   8.387   9.300   4.864  0.6609  1.6785 -0.5956
  539MOL0     H74351   8.278   9.423   4.907  0.0318  0.5055  0.2596
  539MOL0     H74352   8.081   9.336   4.826 -1.2544 -0.7154 -2.2745
  539MOL0     H74353   8.127   9.170   4.838 -4.7198  2.4782  1.5878
  539MOL0     H74354   8.296   9.211   4.661  2.1112  1.1289  0.9458
  539MOL0     H74355   8.134   9.255   4.604 -2.1444  1.6645  2.2447
  539MOL0     H74356   8.294   9.437   4.525 -1.9330  0.8444 -0.3685
  539MOL0     H74357   8.335   9.465   4.696  1.7635 -1.6578 -1.3995
  539MOL0     H74358   8.138   9.560   4.744 -1.7963  0.1625  1.2008
  539MOL0     H74359   8.043   9.476   4.626 -0.0099 -0.7461  1.6387
  539MOL0     H74360   8.067   9.724   4.595 -1.4932 -0.4393 -0.1530
  539MOL0     H74361   8.137   9.652   4.451 -0.8864  2.0602 -0.3594
  539MOL0     H74362   8.678   9.180   5.091  0.6491 -0.2767 -1.1029
  539MOL0     H74363   8.839   9.020   5.234  2.2798 -2.3890 -1.9226
  539MOL0     H74364   8.868   8.610   5.432 -2.0943 -3.1609 -1.6335
  539MOL0     H74365   8.989   8.439   5.528 -2.0615  0.3994 -0.9733
  539MOL0     H74366   8.184   8.111   4.899  0.7412 -0.5734 -1.7786
  539MOL0     H74367   7.942   8.113   4.919  0.3558 -2.4565  0.8535
  539MOL0     H74368   7.568   7.898   5.004 -0.0825  0.4394  0.5089
  539MOL0     H74369   7.314   7.861   5.021 -0.2369  2.1473  1.5847
  539MOL0     H74370   7.142   8.071   4.776  1.4210  0.2963 -4.3786
  539MOL0     H74371   7.067   7.962   4.654  0.0000 -0.1497  0.0619
  539MOL0     H74372   6.908   7.898   4.844 -0.6780  0.0251  2.5244
  539MOL0     H74373   6.871   8.060   4.768 -1.2885 -1.5823  0.3994
  539MOL0     H74374   7.049   8.012   5.017  1.8999  2.6973 -1.6595
  539MOL0     H74375   7.020   8.165   4.951  0.6924 -0.6387  0.5048
  539MOL0     H74376   6.830   8.008   5.093 -0.2890 -0.2222  0.2726
  539MOL0     H74377   6.768   8.145   4.994 -1.5802 -2.4656 -0.3373
  539MOL0     H74378   6.947   8.267   5.373 -1.7197 -1.4662  1.5280
  539MOL0     H74379   7.293   7.964   4.609 -0.4957  0.5697  0.7440
  539MOL0     H74380   7.495   7.933   4.472 -0.5017  1.0557 -0.0305
  539MOL0     H74381   7.582   8.078   4.538  0.4673  0.9738  1.1280
  539MOL0     H74382   7.649   7.914   4.559  0.6469  1.2688 -0.8088
  540MOL0     O74383  10.170   4.581  10.475 -0.0381  0.0243  0.0089
  540MOL0     C74384  10.101   4.535  10.564  0.8458 -0.7340  0.1969
  540MOL0     O74385   9.960   4.542  10.572  0.2347  1.8006  0.1263
  540MOL0     C74386   9.897   4.629  10.486  0.0017  0.4585  0.4766
  540MOL0     C74387   9.945   4.762  10.462 -0.6513  0.4498 -0.3084
  540MOL0     C74388   9.890   4.823  10.345  0.7625 -0.6843 -0.5941
  540MOL0     C74389   9.782   4.758  10.269  1.3771  0.5463  0.0708
  540MOL0     O74390   9.726   4.805  10.157 -0.0726 -0.2285  0.4626
  540MOL0     C74391   9.807   4.909  10.090 -0.2491 -0.9048 -0.3858
  540MOL0     C74392   9.759   4.919   9.954  0.1238  0.2294  0.0210
  540MOL0     C74393   9.779   4.797   9.870  0.0649  0.5753 -0.0631
  540MOL0     C74394   9.691   4.805   9.739  0.5561 -0.1013 -0.2489
  540MOL0     C74395   9.731   4.674   9.651  0.4343 -0.3889 -0.0854
  540MOL0     C74396   9.618   4.651   9.553  0.5637 -0.2919  0.8784
  540MOL0     C74397   9.631   4.534   9.453  0.2135  0.2352 -1.3585
  540MOL0     C74398   9.515   4.516   9.352 -1.0638  0.2082 -0.6281
  540MOL0     N74399   9.377   4.499   9.400  1.2617 -0.8178  0.1920
  540MOL0     C74400   9.260   4.569   9.374  0.7835 -1.3200 -0.5130
  540MOL0     C74401   9.165   4.512   9.443  0.7149 -0.9900  1.0328
  540MOL0     C74402   9.018   4.545   9.460 -0.7853 -0.4823 -1.2346
  540MOL0     C74403   8.931   4.479   9.343 -0.7271  0.4016  0.0989
  540MOL0     C74404   8.788   4.535   9.318  0.0734 -0.5602  1.0364
  540MOL0     C74405   8.704   4.517   9.443  0.8709  0.1813 -0.1900
  540MOL0     O74406   8.678   4.380   9.481  0.4952 -0.6510  0.6011
  540MOL0     C74407   8.726   4.340   9.599 -0.7641  0.3145 -0.0255
  540MOL0     C74408   8.830   4.246   9.588  0.4338 -0.1123 -1.1604
  540MOL0     C74409   8.898   4.215   9.707  0.4131  0.7004 -0.0045
  540MOL0     C74410   9.002   4.115   9.705  0.2239 -0.4743 -0.5038
  540MOL0     C74411   8.864   4.275   9.831  0.4819 -0.1758  0.4279
  540MOL0     C74412   8.921   4.236   9.971 -0.2388  0.1858  0.7654
  540MOL0     O74413   8.895   4.321  10.074  0.3106  0.8642  0.1848
  540MOL0     C74414   8.920   4.281  10.209  0.0326 -0.5039 -0.1457
  540MOL0     C74415   9.024   4.187  10.251  0.4457  0.6414 -0.1875
  540MOL0     C74416   9.044   4.169  10.389 -0.6882 -0.6470 -0.7720
  540MOL0     C74417   8.971   4.239  10.488 -0.3081 -0.5188  1.1922
  540MOL0     O74418   9.010   4.226  10.616 -0.1155 -0.4981 -0.0476
  540MOL0     C74419   8.896   4.227  10.710 -0.5571 -0.3679  1.3886
  540MOL0     C74420   8.943   4.179  10.850  0.5229 -0.2428  0.7285
  540MOL0     C74421   8.996   4.033  10.851 -0.0252 -0.5271  0.7188
  540MOL0     C74422   9.149   4.032  10.874 -0.2384 -0.4752  1.8697
  540MOL0     C74423   9.190   3.888  10.904  0.0604 -0.2908 -0.0607
  540MOL0     C74424   9.342   3.872  10.937  0.7505 -0.3768 -0.4193
  540MOL0     C74425   9.365   3.942  11.067  0.1084  0.4385  0.1593
  540MOL0     C74426   9.482   3.897  11.144  0.4992  0.3536 -0.7636
  540MOL0    Cl74427   9.635   3.941  11.068  0.2370  0.6199  0.2979
  540MOL0     C74428   8.876   4.327  10.440 -0.3891 -0.3972  0.5712
  540MOL0     C74429   8.850   4.347  10.302 -0.0358 -0.1048 -0.8852
  540MOL0     O74430   8.962   4.119   9.979 -0.7342  0.3566 -0.5610
  540MOL0     C74431   8.750   4.363   9.835  0.2041  0.3560  0.5116
  540MOL0     C74432   8.683   4.396   9.717  0.0053  0.2600  0.1638
  540MOL0     N74433   9.230   4.426   9.528 -0.4140 -0.2257  0.0674
  540MOL0     N74434   9.356   4.405   9.493  0.7131 -0.5643  1.1023
  540MOL0     C74435   9.730   4.629  10.308 -0.9601 -0.3696 -0.4238
  540MOL0     C74436   9.791   4.569  10.415 -0.1883 -0.7341  0.3193
  540MOL0     C74437  10.165   4.473  10.678 -0.3897  0.9579  0.2008
  540MOL0     C74438  10.084   4.430  10.793  0.5002  0.4680 -0.7776
  540MOL0     C74439  10.140   4.360  10.902  0.2614  0.0817  0.0691
  540MOL0     C74440  10.275   4.328  10.905 -0.5041 -0.2890  0.0120
  540MOL0     O74441  10.350   4.257  10.991 -0.5067  0.4908 -0.3009
  540MOL0     C74442  10.297   4.203  11.114  0.1967 -1.0301  0.3271
  540MOL0     C74443  10.210   4.077  11.085  0.3729  0.5078  0.4682
  540MOL0     C74444  10.283   3.957  11.026 -0.3896  0.4574 -0.1382
  540MOL0     C74445  10.251   3.830  11.100 -1.6022 -0.3597  0.5718
  540MOL0     C74446  10.308   3.720  11.027  0.7087  0.2902 -0.2981
  540MOL0     C74447  10.358   3.615  10.980 -0.0984  0.1788 -0.4443
  540MOL0     C74448  10.352   4.374  10.795  0.2130 -0.4499  0.6768
  540MOL0     C74449  10.297   4.433  10.679 -1.1427  1.1668  1.2394
  540MOL0     C74450  10.391   4.444  10.564 -0.3124  0.0880  0.1522
  540MOL0     H74451  10.035   4.793  10.513 -0.6233 -1.3935  0.8571
  540MOL0     H74452   9.946   4.909  10.308  2.1905 -1.9280 -1.4465
  540MOL0     H74453   9.914   4.887  10.094  0.9613  3.2783 -3.8253
  540MOL0     H74454   9.795   5.006  10.139 -0.0503 -1.1086  0.0765
  540MOL0     H74455   9.654   4.949   9.956 -0.8571 -2.8148 -0.1489
  540MOL0     H74456   9.809   5.003   9.905 -1.4623  1.3145  0.2132
  540MOL0     H74457   9.885   4.775   9.852 -0.1619 -1.4482  0.8124
  540MOL0     H74458   9.744   4.700   9.908  2.6610 -1.1069 -1.6254
  540MOL0     H74459   9.585   4.796   9.762  0.9228  0.6937  2.0120
  540MOL0     H74460   9.715   4.895   9.683 -0.5506  2.1115  2.6177
  540MOL0     H74461   9.734   4.590   9.721 -0.2597 -2.1085 -2.0164
  540MOL0     H74462   9.830   4.687   9.607  1.2940  0.3464  1.9199
  540MOL0     H74463   9.526   4.644   9.611  0.4793  2.6718  1.2615
  540MOL0     H74464   9.589   4.733   9.486 -2.6901 -1.7668  0.2820
  540MOL0     H74465   9.627   4.442   9.511  1.0584  1.1103  0.1524
  540MOL0     H74466   9.728   4.552   9.405  0.2100  1.2180 -1.0341
  540MOL0     H74467   9.505   4.594   9.276  1.2312 -1.0547 -2.3291
  540MOL0     H74468   9.533   4.426   9.294 -0.1685 -0.8795  1.2416
  540MOL0     H74469   9.253   4.666   9.327  1.7402 -0.9449  0.0933
  540MOL0     H74470   8.995   4.650   9.476 -2.4016 -0.7870 -1.3469
  540MOL0     H74471   8.992   4.505   9.558  2.0219  1.5190  0.4586
  540MOL0     H74472   8.990   4.496   9.252 -1.0261 -1.0393 -0.3856
  540MOL0     H74473   8.932   4.371   9.359 -0.7694  0.5536  1.1889
  540MOL0     H74474   8.799   4.641   9.294  1.1311 -1.4138 -2.9899
  540MOL0     H74475   8.737   4.493   9.231  0.1763 -2.2969  1.7621
  540MOL0     H74476   8.740   4.573   9.530 -1.6700 -0.7775  1.5825
  540MOL0     H74477   8.609   4.561   9.411  2.7105  4.8037 -0.1460
  540MOL0     H74478   8.866   4.204   9.494 -0.4924 -4.0030  0.0541
  540MOL0     H74479   9.088   4.164   9.753  0.2517 -1.0676  0.0842
  540MOL0     H74480   9.030   4.100   9.600 -1.0214  1.7826 -1.2086
  540MOL0     H74481   8.999   4.016   9.752  1.8140 -0.9090 -1.2198
  540MOL0     H74482   9.075   4.127  10.176 -0.9764  0.1982 -0.8349
  540MOL0     H74483   9.113   4.094  10.424  1.7455  1.2220 -1.2758
  540MOL0     H74484   8.866   4.332  10.720  3.3150  0.8160  2.3069
  540MOL0     H74485   8.821   4.169  10.657  0.5263 -1.9770  1.5449
  540MOL0     H74486   9.031   4.239  10.875  1.9113 -1.5520 -0.8228
  540MOL0     H74487   8.867   4.204  10.925  0.7132  4.5892 -0.3671
  540MOL0     H74488   8.977   3.986  10.754 -1.7381 -1.2434  1.3616
  540MOL0     H74489   8.957   3.967  10.930 -1.3472 -0.6951 -0.0600
  540MOL0     H74490   9.171   4.087  10.966 -0.3132 -1.6642  2.6200
  540MOL0     H74491   9.201   4.078  10.789  1.1043 -1.7537  1.9470
  540MOL0     H74492   9.118   3.843  10.973 -1.5663  3.3675  0.8876
  540MOL0     H74493   9.179   3.834  10.810 -0.3979 -0.2921 -0.0091
  540MOL0     H74494   9.391   3.937  10.864  0.8294  1.5270  1.2335
  540MOL0     H74495   9.380   3.770  10.938  2.7029  0.3037 -0.6813
  540MOL0     H74496   9.281   3.906  11.127 -1.1414  0.9967 -1.1919
  540MOL0     H74497   9.366   4.051  11.053 -1.6388  0.3302 -1.2463
  540MOL0     H74498   9.477   3.790  11.165  0.2648  1.0168  3.2767
  540MOL0     H74499   9.479   3.933  11.247 -2.5632 -0.0588 -0.6271
  540MOL0     H74500   8.810   4.386  10.504 -0.6604  0.5669 -0.5503
  540MOL0     H74501   8.776   4.420  10.269  0.6516 -0.1567 -2.6718
  540MOL0     H74502   8.729   4.406   9.933  0.6526  0.2525  0.6552
  540MOL0     H74503   8.616   4.481   9.721  0.5165  0.7076 -0.6659
  540MOL0     H74504   9.666   4.568  10.245  0.3889 -2.7830  0.4309
  540MOL0     H74505   9.751   4.474  10.450  0.2963  0.1653  3.6980
  540MOL0     H74506   9.975   4.435  10.788  0.4629 -0.5322 -1.2270
  540MOL0     H74507  10.060   4.319  10.962 -0.2282 -0.1343 -0.7159
  540MOL0     H74508  10.381   4.175  11.179  0.7246 -4.5852 -1.6306
  540MOL0     H74509  10.233   4.263  11.179  2.1786 -1.0869  2.4909
  540MOL0     H74510  10.133   4.104  11.012  0.5619 -0.8743 -0.2952
  540MOL0     H74511  10.160   4.046  11.177  0.1209  3.1715  1.2925
  540MOL0     H74512  10.240   3.938  10.927  0.4053 -0.4176 -0.3313
  540MOL0     H74513  10.390   3.980  11.018 -0.1108 -0.8792 -0.5947
  540MOL0     H74514  10.144   3.817  11.118 -1.6517 -3.2312 -1.2824
  540MOL0     H74515  10.298   3.840  11.198 -0.7243 -1.2392  0.2541
  540MOL0     H74516  10.403   3.533  10.928  1.2059  1.1867 -0.9594
  540MOL0     H74517  10.460   4.369  10.799  0.6624  4.5573  1.9941
  540MOL0     H74518  10.339   4.407  10.475  2.5718  0.3278 -1.7730
  540MOL0     H74519  10.433   4.543  10.545  0.9147 -0.6974 -1.5404
  540MOL0     H74520  10.476   4.376  10.572 -1.4213 -1.3068  0.4856
  541MOL0     O74521   5.533   0.087   9.326 -0.1534  0.8608 -0.2646
  541MOL0     C74522   5.452   0.113   9.239  0.3613 -0.2015 -0.0092
  541MOL0     O74523   5.407   0.027   9.140  0.4368 -0.2059 -0.3255
  541MOL0     C74524   5.474  -0.090   9.114 -0.5618 -0.4585  0.0767
  541MOL0     C74525   5.396  -0.184   9.055 -0.6393 -0.9276  0.6247
  541MOL0     C74526   5.458  -0.316   9.016 -0.0199 -1.1603  0.3988
  541MOL0     C74527   5.593  -0.334   9.017 -0.9059  0.1323 -0.0767
  541MOL0     O74528   5.649  -0.460   8.988  0.0076  0.4579 -0.3968
  541MOL0     C74529   5.763  -0.432   8.909  0.4932 -0.3442  0.9588
  541MOL0     C74530   5.809  -0.562   8.863  0.1375  0.1638 -1.5918
  541MOL0     C74531   5.852  -0.655   8.986 -0.0154  0.5156 -0.7027
  541MOL0     C74532   5.909  -0.790   8.933 -0.3485  0.1372  0.2009
  541MOL0     C74533   5.995  -0.857   9.050 -0.0665  0.5037 -1.0456
  541MOL0     C74534   6.141  -0.809   9.053 -1.0623  0.0120  0.5819
  541MOL0     C74535   6.235  -0.903   9.104 -0.0896 -0.7137 -0.4432
  541MOL0     C74536   6.380  -0.849   9.117  0.0788  0.3254 -0.1341
  541MOL0     N74537   6.474  -0.954   9.158  1.1078  0.4112 -0.3871
  541MOL0     C74538   6.433  -1.062   9.243 -0.9386  0.1086 -0.0956
  541MOL0     C74539   6.542  -1.114   9.288  0.6475 -0.0776 -0.2420
  541MOL0     C74540   6.543  -1.220   9.391  0.0263  0.4290 -0.1564
  541MOL0     C74541   6.676  -1.244   9.455 -0.4430 -0.3634 -0.4845
  541MOL0     C74542   6.775  -1.313   9.359  0.2459 -0.5301  0.2029
  541MOL0     C74543   6.780  -1.465   9.379 -0.3098 -0.0394  1.0625
  541MOL0     O74544   6.890  -1.529   9.311  0.0912 -0.2438  0.1388
  541MOL0     C74545   6.965  -1.625   9.359 -0.6482 -0.6640  0.8436
  541MOL0     C74546   7.020  -1.712   9.263 -0.0528  0.5975 -0.1227
  541MOL0     C74547   7.109  -1.816   9.303  1.0207 -0.2203  0.3119
  541MOL0     C74548   7.142  -1.919   9.198  1.6887  0.0627  0.5741
  541MOL0     C74549   7.160  -1.812   9.433  0.5296 -0.7390  0.1056
  541MOL0     C74550   7.234  -1.917   9.502 -0.1854 -0.0661 -0.0465
  541MOL0     O74551   7.205  -1.939   9.634  0.0081 -0.4938 -1.1022
  541MOL0     C74552   7.272  -2.047   9.691  0.7144 -0.1702  0.5068
  541MOL0     C74553   7.237  -2.181   9.658  0.0431 -0.7512 -0.2638
  541MOL0     C74554   7.307  -2.278   9.722  0.2904  0.4144  0.1552
  541MOL0     C74555   7.404  -2.247   9.825  0.1589 -0.0039 -0.0351
  541MOL0     O74556   7.455  -2.346   9.892 -0.6462 -0.2734  0.0045
  541MOL0     C74557   7.596  -2.370   9.866  0.3627  0.6377 -0.5417
  541MOL0     C74558   7.646  -2.515   9.913 -0.3705 -0.1950  0.4012
  541MOL0     C74559   7.632  -2.529  10.062  0.2404 -0.7353  0.2955
  541MOL0     C74560   7.617  -2.675  10.116 -0.3554 -0.0105 -0.0505
  541MOL0     C74561   7.545  -2.677  10.249 -0.5660 -0.7140  0.0450
  541MOL0     C74562   7.501  -2.820  10.279 -0.6018  0.6246  0.1384
  541MOL0     C74563   7.617  -2.922  10.338  0.3410  0.3244  0.5612
  541MOL0     C74564   7.584  -3.065  10.286 -0.1884 -1.9189  0.0718
  541MOL0    Cl74565   7.581  -3.042  10.097  0.0200  0.2930  0.4781
  541MOL0     C74566   7.440  -2.119   9.857  0.5712  0.0648  1.0190
  541MOL0     C74567   7.370  -2.017   9.787  0.1202  0.3232 -0.0553
  541MOL0     O74568   7.306  -1.991   9.432  0.1387 -0.3610 -0.1116
  541MOL0     C74569   7.116  -1.712   9.522 -0.2492  0.1229 -0.0362
  541MOL0     C74570   7.017  -1.623   9.490  0.7415  0.3343 -0.5781
  541MOL0     N74571   6.650  -1.046   9.232 -0.8600  0.8104 -0.6976
  541MOL0     N74572   6.610  -0.964   9.144  0.0950  0.6251 -0.1391
  541MOL0     C74573   5.664  -0.236   9.085 -0.3009  0.0340  0.1444
  541MOL0     C74574   5.609  -0.116   9.124 -0.2816 -0.5195 -0.7521
  541MOL0     C74575   5.400   0.253   9.222 -0.4330 -1.4369 -0.4365
  541MOL0     C74576   5.269   0.273   9.168 -0.2738 -0.3438 -0.3750
  541MOL0     C74577   5.219   0.402   9.140  0.5012 -1.0601 -0.2032
  541MOL0     C74578   5.289   0.516   9.177  0.5128  0.1056  0.5101
  541MOL0     O74579   5.245   0.635   9.131  1.2104 -0.2386  0.2438
  541MOL0     C74580   5.334   0.731   9.080  0.5571  0.0887  0.8854
  541MOL0     C74581   5.259   0.826   8.986 -0.0397  0.8499  0.1476
  541MOL0     C74582   5.351   0.920   8.900 -0.1420  0.3121 -0.7402
  541MOL0     C74583   5.373   1.049   8.970  0.3126 -0.5973 -0.2382
  541MOL0     C74584   5.248   1.121   8.951 -0.2009  0.3783 -0.0113
  541MOL0     C74585   5.139   1.166   8.939  0.1658 -0.0188 -0.0697
  541MOL0     C74586   5.413   0.503   9.235  0.3435  0.3698  0.1223
  541MOL0     C74587   5.468   0.374   9.259 -0.3928  0.1589 -0.2432
  541MOL0     C74588   5.602   0.376   9.317 -0.1182  1.0730  0.5404
  541MOL0     H74589   5.292  -0.161   9.034  0.0261  3.2116  0.8527
  541MOL0     H74590   5.390  -0.383   8.965 -1.9271  0.4047  0.7583
  541MOL0     H74591   5.838  -0.388   8.975 -0.7069 -1.5471  3.2535
  541MOL0     H74592   5.746  -0.362   8.827  1.2758  0.4844  1.5024
  541MOL0     H74593   5.733  -0.615   8.805  0.2073 -2.7683  0.7836
  541MOL0     H74594   5.900  -0.540   8.806  0.0954  1.9407 -1.0175
  541MOL0     H74595   5.930  -0.612   9.049  1.6637 -1.5987 -1.2264
  541MOL0     H74596   5.769  -0.676   9.054  0.6082  1.6159  0.4329
  541MOL0     H74597   5.833  -0.857   8.891  2.1682 -0.8949 -3.0808
  541MOL0     H74598   5.988  -0.787   8.858 -0.6186  0.1382 -0.0849
  541MOL0     H74599   5.985  -0.963   9.026  0.5670 -0.4203  2.2015
  541MOL0     H74600   5.944  -0.848   9.147  2.2245  0.5222  0.2262
  541MOL0     H74601   6.185  -0.793   8.954 -0.0996  1.6704  1.2413
  541MOL0     H74602   6.142  -0.708   9.093 -0.8982  0.3583 -0.2784
  541MOL0     H74603   6.253  -0.994   9.045 -4.1360 -1.3851 -0.9158
  541MOL0     H74604   6.189  -0.924   9.201 -0.2608 -1.3529 -0.6570
  541MOL0     H74605   6.421  -0.826   9.018  0.2846 -1.9656 -0.6252
  541MOL0     H74606   6.385  -0.761   9.181  1.0203  0.1043  0.1220
  541MOL0     H74607   6.329  -1.087   9.261 -0.4627 -2.0789 -0.1585
  541MOL0     H74608   6.503  -1.307   9.337  0.7968 -1.1227  1.6638
  541MOL0     H74609   6.478  -1.193   9.475 -2.3017  0.3645 -1.8201
  541MOL0     H74610   6.711  -1.145   9.486  0.0668 -0.1287 -1.7298
  541MOL0     H74611   6.672  -1.296   9.550  0.6833 -0.0847 -0.2686
  541MOL0     H74612   6.761  -1.279   9.256  1.6386 -0.5750 -0.0253
  541MOL0     H74613   6.876  -1.276   9.378 -0.1180 -0.5863  2.4205
  541MOL0     H74614   6.805  -1.469   9.486  1.6061  1.9842  0.7511
  541MOL0     H74615   6.680  -1.503   9.359 -1.8901  4.2864 -0.4760
  541MOL0     H74616   6.978  -1.716   9.163 -2.0776 -1.4630  0.7188
  541MOL0     H74617   7.245  -1.906   9.164  2.5427 -2.4159  1.9338
  541MOL0     H74618   7.079  -1.903   9.110  0.0715 -4.0063  0.7599
  541MOL0     H74619   7.122  -2.021   9.234 -2.0739  0.6726  0.5819
  541MOL0     H74620   7.145  -2.214   9.610 -3.9078  0.4284  5.4450
  541MOL0     H74621   7.287  -2.383   9.703  2.7025  0.2254 -1.7720
  541MOL0     H74622   7.614  -2.368   9.759  3.4368 -1.8965 -0.2210
  541MOL0     H74623   7.651  -2.284   9.903  1.7465  0.4844 -2.1490
  541MOL0     H74624   7.589  -2.590   9.858 -1.8654  2.0610 -1.3164
  541MOL0     H74625   7.748  -2.538   9.880 -0.7221 -2.9456  0.9973
  541MOL0     H74626   7.546  -2.472  10.098  1.7808  1.8433  0.1367
  541MOL0     H74627   7.713  -2.486  10.122 -0.2767  0.9393 -0.1456
  541MOL0     H74628   7.716  -2.720  10.122 -1.0625 -2.6454 -3.8953
  541MOL0     H74629   7.556  -2.733  10.046  0.6286 -0.0227 -0.9126
  541MOL0     H74630   7.599  -2.626  10.329 -1.2716 -2.0144  1.3947
  541MOL0     H74631   7.457  -2.613  10.233 -1.0888 -0.4919  3.2615
  541MOL0     H74632   7.464  -2.859  10.184  1.1042 -0.9553  0.0638
  541MOL0     H74633   7.419  -2.814  10.350  0.2270  3.8840  0.9818
  541MOL0     H74634   7.633  -2.929  10.446 -0.8371  0.7892  0.7830
  541MOL0     H74635   7.714  -2.883  10.304  0.9009  0.8794  2.6377
  541MOL0     H74636   7.479  -3.081  10.313 -0.1113 -0.4484  1.3671
  541MOL0     H74637   7.649  -3.146  10.321  1.1649 -1.8545 -2.1059
  541MOL0     H74638   7.514  -2.107   9.935  1.6712 -1.5666  0.3033
  541MOL0     H74639   7.392  -1.918   9.826  1.4215 -0.9199  2.6327
  541MOL0     H74640   7.154  -1.710   9.624  1.0311  0.3323 -0.5030
  541MOL0     H74641   6.996  -1.558   9.574 -2.4712 -2.3149  0.8737
  541MOL0     H74642   5.764  -0.236   9.128 -1.5120  4.9778  3.7266
  541MOL0     H74643   5.675  -0.052   9.181 -1.0021  1.4759 -2.0597
  541MOL0     H74644   5.202   0.193   9.138  0.4747 -0.0948 -2.9576
  541MOL0     H74645   5.120   0.408   9.095  0.2867 -2.0867  0.1133
  541MOL0     H74646   5.377   0.783   9.167  0.4396  1.1018  0.3488
  541MOL0     H74647   5.414   0.677   9.029  1.2636 -0.0979  2.1429
  541MOL0     H74648   5.185   0.884   9.042 -0.9439  0.0368 -0.1966
  541MOL0     H74649   5.193   0.761   8.929 -2.4486  0.7646  2.8289
  541MOL0     H74650   5.449   0.875   8.885 -0.4619 -1.0161  0.8708
  541MOL0     H74651   5.314   0.939   8.798  1.0723  3.4736 -0.7257
  541MOL0     H74652   5.461   1.099   8.927  0.5180 -0.1264  0.7066
  541MOL0     H74653   5.388   1.032   9.077  6.9344 -2.9309 -1.0453
  541MOL0     H74654   5.035   1.191   8.942 -0.2258 -1.4728  2.6838
  541MOL0     H74655   5.460   0.598   9.257  3.7471 -1.4738  1.6388
  541MOL0     H74656   5.664   0.305   9.262  0.2532 -0.0271  2.3083
  541MOL0     H74657   5.662   0.468   9.321  0.3777  0.7317  1.1092
  541MOL0     H74658   5.606   0.327   9.415  2.1211  1.6332  0.7980
  542MOL0     O74659   9.953  10.086   9.950 -0.1086  0.1041 -0.4450
  542MOL0     C74660  10.059  10.029   9.983 -0.5325 -0.1279 -0.2510
  542MOL0     O74661  10.068   9.901  10.018 -0.4880 -0.2339 -0.0874
  542MOL0     C74662   9.966   9.804  10.009  0.0803  0.6194 -0.1035
  542MOL0     C74663   9.846   9.815   9.941  0.0127  0.3828 -0.2567
  542MOL0     C74664   9.750   9.706   9.949  0.5146 -0.8640  0.8367
  542MOL0     C74665   9.776   9.599  10.032 -0.6960 -0.5875 -0.4732
  542MOL0     O74666   9.677   9.500  10.038  0.1779 -0.4235  0.0440
  542MOL0     C74667   9.706   9.367  10.089  0.7060  0.0274 -0.5940
  542MOL0     C74668   9.586   9.282  10.076  0.2697  0.3722 -0.2463
  542MOL0     C74669   9.478   9.326  10.171 -0.9254 -0.4474  0.3074
  542MOL0     C74670   9.350   9.263  10.138 -0.7775 -0.4363  0.7305
  542MOL0     C74671   9.338   9.120  10.183  0.2790  0.3371 -0.3635
  542MOL0     C74672   9.216   9.053  10.107  0.4745 -0.0615 -0.0647
  542MOL0     C74673   9.258   8.899  10.092  0.5955  0.1997 -0.1636
  542MOL0     C74674   9.143   8.828  10.021 -0.5185 -0.3841 -0.5331
  542MOL0     N74675   9.023   8.815  10.108 -0.7047  0.6488  0.1152
  542MOL0     C74676   8.905   8.885  10.114  0.4415  0.1568  0.3397
  542MOL0     C74677   8.835   8.822  10.210  0.7892 -0.7629  0.0617
  542MOL0     C74678   8.689   8.860  10.254 -0.7923  0.0779 -1.0978
  542MOL0     C74679   8.609   8.734  10.264 -0.6910 -0.3262 -0.5315
  542MOL0     C74680   8.475   8.759  10.328 -0.3205  0.2308  0.3867
  542MOL0     C74681   8.396   8.885  10.276 -0.3584 -0.1077  0.9077
  542MOL0     O74682   8.375   8.870  10.139  0.3593  0.3063 -0.4317
  542MOL0     C74683   8.327   8.972  10.055  0.2284  0.7154 -0.2111
  542MOL0     C74684   8.320   9.110  10.092 -1.0080 -0.1301  0.3524
  542MOL0     C74685   8.245   9.204  10.007 -0.1849  0.9844  0.6033
  542MOL0     C74686   8.252   9.351  10.054  0.0796 -0.0859  0.0764
  542MOL0     C74687   8.184   9.153   9.885 -0.4995  0.5095 -0.5229
  542MOL0     C74688   8.111   9.233   9.787  0.3835  0.0654 -0.2663
  542MOL0     O74689   8.007   9.182   9.726  0.4469 -0.7052  0.5790
  542MOL0     C74690   7.932   9.266   9.642 -0.2310  0.8078 -0.6645
  542MOL0     C74691   7.851   9.364   9.691 -1.2496  0.2522 -0.0576
  542MOL0     C74692   7.777   9.440   9.602  1.5347 -0.9288  0.1399
  542MOL0     C74693   7.776   9.413   9.462 -0.5386  0.4855 -0.5305
  542MOL0     O74694   7.704   9.504   9.391 -0.2868 -0.2628 -0.6238
  542MOL0     C74695   7.694   9.495   9.253 -0.3249 -0.0762 -0.8980
  542MOL0     C74696   7.577   9.587   9.212 -0.0240  0.4503  0.2190
  542MOL0     C74697   7.573   9.595   9.056  0.0563 -0.2457 -0.1873
  542MOL0     C74698   7.694   9.666   8.994 -0.0054  0.6396 -0.1775
  542MOL0     C74699   7.659   9.813   8.983  1.3104 -0.2284  0.1584
  542MOL0     C74700   7.786   9.896   8.958  0.5370 -0.0216  0.0154
  542MOL0     C74701   7.772  10.041   9.004 -0.0723  0.2627 -0.1655
  542MOL0     C74702   7.885  10.145   8.962 -0.0383  0.4253 -0.4470
  542MOL0    Cl74703   7.885  10.167   8.782 -0.0307 -0.0133  0.6187
  542MOL0     C74704   7.858   9.307   9.420  0.3291 -0.2976 -0.2868
  542MOL0     C74705   7.936   9.236   9.509  0.5968 -0.5261  1.0373
  542MOL0     O74706   8.150   9.348   9.781  0.1737 -0.2933 -0.9871
  542MOL0     C74707   8.199   9.016   9.856 -1.2030  0.2853 -0.2240
  542MOL0     C74708   8.260   8.933   9.939  0.6604 -0.5722  0.3571
  542MOL0     N74709   8.915   8.724  10.268  0.6938 -0.1760  0.3960
  542MOL0     N74710   9.015   8.717  10.191  0.0137  0.2140 -0.3651
  542MOL0     C74711   9.901   9.587  10.096 -0.2655  1.0055 -0.4958
  542MOL0     C74712   9.995   9.687  10.083 -0.6040 -0.7756  0.1859
  542MOL0     C74713  10.188  10.103   9.967 -0.3844 -0.4554  0.0466
  542MOL0     C74714  10.198  10.219   9.892 -0.5079  0.2166 -0.1686
  542MOL0     C74715  10.294  10.322   9.888 -1.3960  0.4919  0.7693
  542MOL0     C74716  10.409  10.295   9.960  0.1617  0.5042 -0.5633
  542MOL0     O74717  10.521  10.364   9.968 -0.3804 -0.0642 -0.9784
  542MOL0     C74718  10.542  10.464   9.866  0.4491 -0.1834 -0.5267
  542MOL0     C74719  10.578  10.392   9.731 -0.3428  0.6113 -0.2364
  542MOL0     C74720  10.716  10.321   9.759  0.2678  0.1768  0.5524
  542MOL0     C74721  10.778  10.259   9.634 -0.1043  0.2314 -0.8622
  542MOL0     C74722  10.913  10.201   9.666 -0.2265 -1.8727  0.7796
  542MOL0     C74723  11.013  10.150   9.715 -0.8933 -0.2267 -0.0736
  542MOL0     C74724  10.410  10.172  10.030 -1.3127  0.5324 -0.1133
  542MOL0     C74725  10.315  10.071  10.029  0.5783 -0.4298 -1.0796
  542MOL0     C74726  10.340   9.945  10.110  0.6850 -0.0095  0.1012
  542MOL0     H74727   9.817   9.899   9.878 -2.0887 -0.6553 -0.7849
  542MOL0     H74728   9.658   9.709   9.893  1.6217  2.6214 -1.0411
  542MOL0     H74729   9.729   9.373  10.196 -1.3908  0.8387 -0.1410
  542MOL0     H74730   9.778   9.316  10.025 -1.8344 -5.7913  0.5369
  542MOL0     H74731   9.555   9.290   9.971 -1.7339 -0.9711  0.1863
  542MOL0     H74732   9.617   9.180  10.100 -1.7466 -1.2479 -3.6923
  542MOL0     H74733   9.507   9.320  10.276  5.0661 -2.2952 -1.0530
  542MOL0     H74734   9.469   9.432  10.148  0.6873 -1.0614 -4.3397
  542MOL0     H74735   9.262   9.318  10.173 -1.9843 -0.1375 -2.5015
  542MOL0     H74736   9.350   9.264  10.029 -0.1746 -0.2766  0.7312
  542MOL0     H74737   9.310   9.129  10.288  0.5706  0.5144 -0.3012
  542MOL0     H74738   9.430   9.062  10.182 -0.3998 -0.7752 -0.3723
  542MOL0     H74739   9.124   9.062  10.166 -0.2666 -4.1892 -0.2795
  542MOL0     H74740   9.197   9.096  10.008 -1.4482 -2.5289 -0.8963
  542MOL0     H74741   9.276   8.858  10.191 -0.0320  1.8820  0.6873
  542MOL0     H74742   9.354   8.898  10.038  0.6168 -3.7219 -0.3561
  542MOL0     H74743   9.118   8.882   9.929  0.8514 -0.8395 -1.2089
  542MOL0     H74744   9.166   8.725   9.991 -0.5167  0.0458 -2.0711
  542MOL0     H74745   8.874   8.974  10.060  1.8697  0.9465  0.7906
  542MOL0     H74746   8.646   8.934  10.186  2.3714  0.8450 -2.4516
  542MOL0     H74747   8.700   8.883  10.361 -0.9265 -1.7736 -0.6609
  542MOL0     H74748   8.611   8.681  10.169  0.8802 -1.1251 -0.0863
  542MOL0     H74749   8.669   8.663  10.322 -1.6069  0.4443  1.4626
  542MOL0     H74750   8.409   8.672  10.319 -0.2100  0.2653 -1.0394
  542MOL0     H74751   8.485   8.781  10.434  0.7707  0.0855  0.3260
  542MOL0     H74752   8.295   8.894  10.317  0.3978  3.4491  2.4053
  542MOL0     H74753   8.445   8.979  10.304  0.9870 -0.4827 -0.0962
  542MOL0     H74754   8.376   9.131  10.182  0.3190 -1.2262 -0.1842
  542MOL0     H74755   8.177   9.414  10.005  0.3258 -1.0138 -1.5626
  542MOL0     H74756   8.352   9.385  10.026 -0.2413  2.2909  1.5625
  542MOL0     H74757   8.255   9.361  10.163  0.7107  3.5159 -0.1492
  542MOL0     H74758   7.844   9.380   9.798 -3.1601 -0.6845 -0.0086
  542MOL0     H74759   7.715   9.521   9.639  0.7239 -1.1602 -0.6958
  542MOL0     H74760   7.789   9.515   9.201  0.2439 -3.5091 -1.4238
  542MOL0     H74761   7.669   9.390   9.236 -0.6627 -0.3412  1.0372
  542MOL0     H74762   7.492   9.529   9.250  2.1814 -0.5897  4.1695
  542MOL0     H74763   7.576   9.686   9.259  0.5343  1.0152 -0.9338
  542MOL0     H74764   7.476   9.633   9.022 -1.0471 -1.0949  1.8517
  542MOL0     H74765   7.569   9.492   9.020  0.7531 -0.0724 -0.7890
  542MOL0     H74766   7.720   9.618   8.899  2.0697  2.7057 -0.7400
  542MOL0     H74767   7.787   9.664   9.052 -0.0517  1.8783 -0.0369
  542MOL0     H74768   7.571   9.824   8.919  0.7542  0.6362  1.0429
  542MOL0     H74769   7.632   9.838   9.087  1.1435  1.5297 -0.2745
  542MOL0     H74770   7.808   9.898   8.851 -2.6577 -3.6428 -0.9399
  542MOL0     H74771   7.864   9.849   9.019 -1.9164 -3.8319  0.5601
  542MOL0     H74772   7.755  10.042   9.112 -2.5729 -0.2247 -0.5049
  542MOL0     H74773   7.683  10.077   8.953  0.0177  0.7359  0.0009
  542MOL0     H74774   7.984  10.130   9.007 -0.9682  2.0764  2.3734
  542MOL0     H74775   7.867  10.238   9.016 -1.7586 -0.3505  0.3615
  542MOL0     H74776   7.880   9.273   9.319  2.8988 -3.9117  1.2366
  542MOL0     H74777   7.991   9.145   9.487  2.8913  0.5056  2.1789
  542MOL0     H74778   8.150   8.976   9.767 -1.3384  1.4444 -0.6862
  542MOL0     H74779   8.281   8.836   9.896 -0.9021 -0.4937 -0.6379
  542MOL0     H74780   9.917   9.515  10.175 -0.1820  2.7210  1.1333
  542MOL0     H74781  10.082   9.677  10.147  0.1794 -4.3664 -1.2182
  542MOL0     H74782  10.107  10.258   9.847  0.6690  1.8626 -1.2532
  542MOL0     H74783  10.283  10.406   9.820  2.2268 -1.1861 -2.2855
  542MOL0     H74784  10.461  10.536   9.855  0.8846  0.4969  0.5611
  542MOL0     H74785  10.629  10.523   9.895 -1.0447  2.6988 -1.5904
  542MOL0     H74786  10.601  10.469   9.657  0.7567  1.1190  0.6161
  542MOL0     H74787  10.496  10.329   9.697 -3.2712  3.8540  0.1986
  542MOL0     H74788  10.792  10.392   9.795 -0.0339  2.1790 -2.3583
  542MOL0     H74789  10.703  10.248   9.839  1.1474  0.8662  1.3491
  542MOL0     H74790  10.779  10.345   9.566 -0.7629  1.6671  0.8768
  542MOL0     H74791  10.708  10.180   9.605 -0.3841  0.2777 -0.3007
  542MOL0     H74792  11.101  10.099   9.747 -1.7343 -1.8363 -0.2042
  542MOL0     H74793  10.503  10.156  10.084  0.6281  1.4473 -2.9337
  542MOL0     H74794  10.296   9.862  10.053 -1.9425  1.6241 -0.4351
  542MOL0     H74795  10.446   9.927  10.126  0.7668 -1.3467 -1.5743
  542MOL0     H74796  10.293   9.956  10.208  1.0260 -1.8260  0.5007
  543MOL0     O74797   9.998  11.121   3.205 -0.3797 -0.6595  0.3365
  543MOL0     C74798   9.913  11.138   3.118 -0.2679 -0.9924  0.2027
  543MOL0     O74799   9.851  11.041   3.049 -0.1384  0.1038 -0.0794
  543MOL0     C74800   9.840  10.924   3.110 -1.1857 -0.4187 -0.6700
  543MOL0     C74801   9.881  10.808   3.047 -0.2921  0.6152 -0.0181
  543MOL0     C74802   9.880  10.683   3.110  0.2299  0.4602  0.0752
  543MOL0     C74803   9.831  10.670   3.241 -0.9601 -0.9447 -0.0483
  543MOL0     O74804   9.808  10.557   3.310  0.3485  0.2508  0.1584
  543MOL0     C74805   9.838  10.433   3.252 -0.0247  0.3052  0.9274
  543MOL0     C74806   9.795  10.309   3.333 -0.1373 -0.7952 -0.7463
  543MOL0     C74807   9.824  10.188   3.245 -0.7231 -0.1246  0.7689
  543MOL0     C74808   9.781  10.065   3.308  0.0721 -0.3069  0.6692
  543MOL0     C74809   9.802   9.949   3.216  0.4962  0.9913  0.1597
  543MOL0     C74810   9.678   9.842   3.239 -0.9971  0.4713  0.2674
  543MOL0     C74811   9.692   9.721   3.152  0.6359  0.3570  0.7082
  543MOL0     C74812   9.578   9.626   3.164 -0.4719  0.0872 -0.2544
  543MOL0     N74813   9.596   9.498   3.089 -0.3772  0.3313 -0.3213
  543MOL0     C74814   9.495   9.444   3.010 -0.8413  0.0634  0.3929
  543MOL0     C74815   9.529   9.309   2.996  0.0527 -0.5517  0.3420
  543MOL0     C74816   9.454   9.201   2.920 -0.5351 -0.6770  0.5113
  543MOL0     C74817   9.516   9.155   2.779  0.3243  0.2384 -0.7926
  543MOL0     C74818   9.458   9.012   2.761  0.1385  0.8070 -0.6468
  543MOL0     C74819   9.480   8.946   2.622  0.2906 -0.1030 -0.2733
  543MOL0     O74820   9.427   9.020   2.515 -0.1821  0.1031 -0.2924
  543MOL0     C74821   9.303   9.034   2.483  1.3970  0.5429 -0.3224
  543MOL0     C74822   9.263   9.139   2.398 -0.2876  0.9737 -0.3948
  543MOL0     C74823   9.127   9.159   2.366  1.1681  0.7015  0.4627
  543MOL0     C74824   9.083   9.292   2.301 -0.4495 -0.3233 -0.0290
  543MOL0     C74825   9.025   9.069   2.420 -0.4157 -0.5852  0.0361
  543MOL0     C74826   8.877   9.080   2.395 -1.2520 -1.2390 -1.0634
  543MOL0     O74827   8.828   9.177   2.313  0.5322 -0.1021  0.4826
  543MOL0     C74828   8.686   9.210   2.330 -0.4115  0.1802  0.6463
  543MOL0     C74829   8.607   9.232   2.215  0.8543 -0.2680 -0.0892
  543MOL0     C74830   8.485   9.291   2.233  0.0779 -0.2224  0.2448
  543MOL0     C74831   8.438   9.335   2.359  0.1715 -0.6083 -0.7340
  543MOL0     O74832   8.313   9.399   2.371  0.1534  0.1098  0.2469
  543MOL0     C74833   8.244   9.399   2.497  1.1897 -0.2628  0.2252
  543MOL0     C74834   8.099   9.420   2.481  0.3005 -0.2483  0.3749
  543MOL0     C74835   8.034   9.327   2.386  0.1734  0.4365 -0.4910
  543MOL0     C74836   7.883   9.349   2.354 -0.7053 -1.4844 -0.8748
  543MOL0     C74837   7.840   9.274   2.236 -0.2963  0.2369  0.6166
  543MOL0     C74838   7.890   9.359   2.118 -0.6415 -1.0829  1.4770
  543MOL0     C74839   7.856   9.310   1.975 -0.2123  0.6591 -0.8478
  543MOL0     C74840   7.826   9.417   1.861 -0.1276  0.4650 -0.2709
  543MOL0    Cl74841   7.971   9.505   1.831 -0.0828  0.3041 -0.7199
  543MOL0     C74842   8.527   9.334   2.469 -0.1310 -0.3144 -0.1830
  543MOL0     C74843   8.646   9.260   2.450  0.0727  0.6034 -0.2005
  543MOL0     O74844   8.810   9.001   2.465  0.4717 -1.0676  0.1764
  543MOL0     C74845   9.073   8.965   2.504 -0.1799 -0.0591  0.3303
  543MOL0     C74846   9.207   8.941   2.528 -0.5572 -0.7290  0.5059
  543MOL0     N74847   9.647   9.294   3.067 -0.4643  0.1616 -0.8186
  543MOL0     N74848   9.694   9.400   3.111 -0.9442 -0.5153 -0.0875
  543MOL0     C74849   9.786  10.793   3.306  0.1194 -0.6109  1.4414
  543MOL0     C74850   9.792  10.916   3.237  0.6556  0.0191 -1.0255
  543MOL0     C74851   9.889  11.280   3.068 -1.3413 -0.4648  0.0313
  543MOL0     C74852   9.800  11.302   2.964 -0.4409  0.8658 -0.9086
  543MOL0     C74853   9.800  11.426   2.905  0.1090  0.4801 -0.0148
  543MOL0     C74854   9.870  11.542   2.952  0.4855  0.7652  0.6215
  543MOL0     O74855   9.845  11.667   2.899 -0.0762 -0.2557  0.4434
  543MOL0     C74856   9.877  11.785   2.975  0.1280  0.8345  0.1305
  543MOL0     C74857   9.813  11.905   2.896  0.2980 -0.9410  0.3485
  543MOL0     C74858   9.658  11.883   2.874  0.1968 -0.5595  0.5553
  543MOL0     C74859   9.574  11.833   2.993 -0.4403 -0.0313  1.4064
  543MOL0     C74860   9.581  11.935   3.101  0.0286  0.2945  0.5298
  543MOL0     C74861   9.595  12.024   3.181  0.3576  0.5113  0.5496
  543MOL0     C74862   9.944  11.523   3.064 -0.5459 -0.4223 -0.1343
  543MOL0     C74863   9.958  11.392   3.121 -0.8300  0.5133  0.4211
  543MOL0     C74864  10.054  11.387   3.234  0.3016 -0.5733 -0.1182
  543MOL0     H74865   9.889  10.816   2.939 -0.3181 -0.7147 -0.1272
  543MOL0     H74866   9.897  10.594   3.050 -1.9364 -0.1887  0.3311
  543MOL0     H74867   9.945  10.423   3.233  0.0736  1.2039  0.9286
  543MOL0     H74868   9.789  10.420   3.155  0.1409 -5.5646  1.2917
  543MOL0     H74869   9.860  10.306   3.421 -0.3913  0.4355 -0.5035
  543MOL0     H74870   9.689  10.318   3.361  0.2349  0.1990  0.4768
  543MOL0     H74871   9.760  10.200   3.157  1.5258 -1.0978 -1.1210
  543MOL0     H74872   9.931  10.186   3.222 -0.5701 -3.9182  1.2357
  543MOL0     H74873   9.825  10.048   3.407 -0.6642 -2.5610  0.6785
  543MOL0     H74874   9.674  10.076   3.325 -0.2453  1.6526 -1.9030
  543MOL0     H74875   9.890   9.896   3.254 -0.3020 -1.7437 -1.4855
  543MOL0     H74876   9.813   9.975   3.110 -0.1935  0.3828 -0.0665
  543MOL0     H74877   9.680   9.810   3.344 -1.4888 -1.5941 -0.2927
  543MOL0     H74878   9.592   9.906   3.219 -0.7707  2.0235  3.5942
  543MOL0     H74879   9.780   9.662   3.179  0.6263 -0.7981 -1.6108
  543MOL0     H74880   9.702   9.758   3.050  2.6999  1.8386  1.3770
  543MOL0     H74881   9.563   9.602   3.269 -4.4428  1.1815 -0.4141
  543MOL0     H74882   9.492   9.676   3.118  1.2840  0.1629 -3.7715
  543MOL0     H74883   9.405   9.498   2.985 -0.3181 -0.3703 -2.8946
  543MOL0     H74884   9.348   9.225   2.918 -0.5733 -0.8503 -1.4207
  543MOL0     H74885   9.462   9.117   2.989 -3.1362 -2.7275 -1.4992
  543MOL0     H74886   9.476   9.224   2.704  0.2864 -1.4046 -2.3617
  543MOL0     H74887   9.623   9.162   2.801 -0.5136  2.6142  3.8433
  543MOL0     H74888   9.517   8.954   2.833  2.4965  1.7465 -1.7290
  543MOL0     H74889   9.356   9.010   2.801  1.4002  1.2196  3.0296
  543MOL0     H74890   9.587   8.950   2.603  0.1455  0.0987 -1.1027
  543MOL0     H74891   9.458   8.839   2.627 -2.4767  0.4220  0.8665
  543MOL0     H74892   9.347   9.207   2.382 -0.0436  1.6578  2.9851
  543MOL0     H74893   9.175   9.350   2.287 -1.5155  1.1611 -1.2182
  543MOL0     H74894   9.024   9.355   2.367 -0.9185  1.4418 -2.0297
  543MOL0     H74895   9.038   9.268   2.204  1.4440 -2.3646 -0.5079
  543MOL0     H74896   8.640   9.191   2.120  2.4701  0.3179  0.1853
  543MOL0     H74897   8.403   9.302   2.163 -0.3242 -0.6960  0.6408
  543MOL0     H74898   8.260   9.308   2.556  2.4412 -0.6503 -0.6701
  543MOL0     H74899   8.290   9.482   2.550 -1.3714  0.8624  0.8619
  543MOL0     H74900   8.052   9.401   2.578 -0.6109  0.2956  0.0473
  543MOL0     H74901   8.082   9.521   2.445 -1.0228  0.5646  2.9669
  543MOL0     H74902   8.046   9.233   2.439  5.0465  0.6652 -0.7268
  543MOL0     H74903   8.084   9.311   2.290  0.0535  0.2086 -0.5136
  543MOL0     H74904   7.849   9.452   2.347  0.8418 -0.9164 -0.4387
  543MOL0     H74905   7.824   9.311   2.438 -3.7897 -0.4867 -2.4626
  543MOL0     H74906   7.868   9.168   2.240 -2.5855 -0.4751 -0.3655
  543MOL0     H74907   7.731   9.281   2.239 -0.1807  2.5230  3.2258
  543MOL0     H74908   7.996   9.384   2.130 -0.6815 -1.6945  3.4763
  543MOL0     H74909   7.848   9.460   2.116  2.4890  0.3405  0.5341
  543MOL0     H74910   7.764   9.253   1.988  1.8834 -3.1114 -1.0795
  543MOL0     H74911   7.932   9.250   1.925  0.7080  0.4645  0.7298
  543MOL0     H74912   7.736   9.473   1.890 -0.3737  1.9133 -3.4066
  543MOL0     H74913   7.803   9.369   1.765  0.8892  0.9494 -0.7752
  543MOL0     H74914   8.514   9.377   2.568 -1.9232 -2.7252  0.7351
  543MOL0     H74915   8.733   9.252   2.514  2.7661  2.9279 -3.2343
  543MOL0     H74916   9.001   8.898   2.549 -0.6279  1.7543  2.5410
  543MOL0     H74917   9.215   8.863   2.603 -1.4716  1.3353  2.8742
  543MOL0     H74918   9.750  10.766   3.404 -0.4837 -1.3059  1.0407
  543MOL0     H74919   9.749  10.999   3.292 -1.7845 -1.7185 -0.1724
  543MOL0     H74920   9.722  11.236   2.928 -1.0422  0.9253  0.2507
  543MOL0     H74921   9.733  11.439   2.821  1.7063 -0.3114 -1.4825
  543MOL0     H74922   9.837  11.787   3.077 -0.0147  1.0771  0.0698
  543MOL0     H74923   9.985  11.794   2.990  0.3751 -1.3819  0.1285
  543MOL0     H74924   9.859  11.937   2.802 -0.0243 -1.1874  0.1028
  543MOL0     H74925   9.828  11.992   2.960  0.0236 -2.1023  2.0464
  543MOL0     H74926   9.619  11.981   2.845 -0.3991 -1.4968 -2.1252
  543MOL0     H74927   9.642  11.815   2.789  1.5766  2.5581 -2.4096
  543MOL0     H74928   9.611  11.741   3.040  0.6668  0.2684  1.1278
  543MOL0     H74929   9.478  11.816   2.944  0.2330 -0.5559  0.2280
  543MOL0     H74930   9.596  12.096   3.260 -1.3639  1.0740  0.1065
  543MOL0     H74931   9.991  11.608   3.112 -0.9397 -0.9703  1.2732
  543MOL0     H74932  10.148  11.338   3.209  0.9203  0.8182 -0.5981
  543MOL0     H74933  10.078  11.486   3.276 -3.1138  0.0287  0.7720
  543MOL0     H74934  10.010  11.335   3.320  0.3304  1.3597  1.1330
  544MOL0     O74935   9.142   8.359   7.653 -0.7925  0.2824  0.1578
  544MOL0     C74936   9.091   8.313   7.548 -0.4992 -1.2378  0.4237
  544MOL0     O74937   8.994   8.225   7.543 -0.1118  0.8327  0.7091
  544MOL0     C74938   8.978   8.126   7.648 -0.0800  0.5865 -0.0077
  544MOL0     C74939   8.955   7.992   7.612 -0.7481 -0.8526 -0.8122
  544MOL0     C74940   8.926   7.895   7.708 -0.2859  0.6101 -0.2675
  544MOL0     C74941   8.923   7.929   7.851  0.6854  0.3829  0.0499
  544MOL0     O74942   8.885   7.828   7.936  0.2359 -0.0506 -0.1523
  544MOL0     C74943   8.918   7.849   8.074 -0.1977  0.4541 -0.1330
  544MOL0     C74944   8.948   7.710   8.136  1.0841  0.2754 -0.1387
  544MOL0     C74945   9.018   7.730   8.274 -0.2797 -0.8081  0.3637
  544MOL0     C74946   9.063   7.587   8.328 -0.0665 -0.4064  0.7520
  544MOL0     C74947   9.151   7.609   8.450  0.0080  0.6770  0.0636
  544MOL0     C74948   9.194   7.480   8.508  0.4286  0.1938 -0.0885
  544MOL0     C74949   9.310   7.505   8.606  0.1150  0.4034  0.2482
  544MOL0     C74950   9.331   7.364   8.683 -0.2285 -0.7757  0.3573
  544MOL0     N74951   9.475   7.352   8.722  0.5436  0.3409 -1.6976
  544MOL0     C74952   9.530   7.442   8.813 -0.1654 -0.6254  0.2498
  544MOL0     C74953   9.652   7.376   8.829 -0.6414 -0.2948 -0.1599
  544MOL0     C74954   9.763   7.421   8.912  0.1949 -0.0869 -1.1979
  544MOL0     C74955   9.859   7.510   8.834 -0.1512 -0.0487 -0.5965
  544MOL0     C74956   9.954   7.591   8.923 -0.3653  0.2742  0.7151
  544MOL0     C74957  10.032   7.690   8.840 -0.0008 -1.1875 -0.7702
  544MOL0     O74958  10.151   7.632   8.768  0.2832 -0.0587 -0.3167
  544MOL0     C74959  10.247   7.715   8.715 -0.1539 -0.1873  1.1592
  544MOL0     C74960  10.248   7.850   8.724  0.4929 -0.3333  0.0775
  544MOL0     C74961  10.360   7.930   8.682  0.7491  0.6516  0.0678
  544MOL0     C74962  10.354   8.076   8.694  0.1605 -0.3990  0.3570
  544MOL0     C74963  10.486   7.862   8.636  0.2876 -1.2271  1.0682
  544MOL0     C74964  10.609   7.928   8.576 -0.1262  1.2491 -0.0762
  544MOL0     O74965  10.712   7.841   8.536  0.0936 -0.7209  0.4944
  544MOL0     C74966  10.831   7.892   8.492  0.0819 -0.2594 -0.3831
  544MOL0     C74967  10.889   7.999   8.546 -0.5228 -0.1219 -0.2579
  544MOL0     C74968  11.018   8.040   8.503 -0.4173  0.5774 -0.2932
  544MOL0     C74969  11.084   7.956   8.418 -0.3217  0.4499 -0.1292
  544MOL0     O74970  11.217   7.975   8.385  0.5821 -0.1368 -0.5666
  544MOL0     C74971  11.308   8.005   8.490 -0.0826 -0.4253 -1.1746
  544MOL0     C74972  11.329   7.903   8.609 -0.0515  0.6527 -1.0798
  544MOL0     C74973  11.319   7.759   8.563 -0.6902  0.3127  0.4070
  544MOL0     C74974  11.435   7.679   8.621  0.3655  0.6373  0.0769
  544MOL0     C74975  11.436   7.529   8.580 -0.6583  0.8090  0.7016
  544MOL0     C74976  11.549   7.459   8.647  0.5838  0.9800 -1.7811
  544MOL0     C74977  11.550   7.308   8.615  0.7084  0.1407  0.3686
  544MOL0     C74978  11.681   7.255   8.665  0.5589  0.3927 -0.6692
  544MOL0    Cl74979  11.666   7.087   8.692 -0.1601 -0.4576  0.0208
  544MOL0     C74980  11.028   7.842   8.361 -0.2936 -0.2710  0.3594
  544MOL0     C74981  10.894   7.815   8.386  0.2140 -0.1932  0.0665
  544MOL0     O74982  10.600   8.043   8.542 -0.4098  0.2609  0.0071
  544MOL0     C74983  10.484   7.724   8.618  0.5901 -0.8887 -0.7262
  544MOL0     C74984  10.365   7.653   8.671 -0.0794  0.1188  0.2115
  544MOL0     N74985   9.657   7.258   8.765  0.1766  0.8034 -0.9439
  544MOL0     N74986   9.541   7.237   8.703  0.4719 -0.0471  0.5477
  544MOL0     C74987   8.928   8.068   7.883 -0.0334  0.5875  0.6318
  544MOL0     C74988   8.953   8.157   7.780 -0.3326 -0.1185 -0.0802
  544MOL0     C74989   9.114   8.389   7.423 -0.4051  0.2381 -0.0843
  544MOL0     C74990   9.038   8.368   7.313  0.0913  0.4582  0.0087
  544MOL0     C74991   9.066   8.440   7.189 -0.8292  0.0982  0.0976
  544MOL0     C74992   9.143   8.546   7.188 -0.4727 -0.1031 -0.1901
  544MOL0     O74993   9.154   8.623   7.077 -0.0231 -0.0557  1.1732
  544MOL0     C74994   9.104   8.758   7.075 -0.2901 -0.3785  0.1441
  544MOL0     C74995   9.196   8.851   7.002  0.3852  1.1614 -0.2216
  544MOL0     C74996   9.109   8.956   6.925 -0.3982 -0.4745  0.1002
  544MOL0     C74997   9.193   9.068   6.854 -0.3202  0.2191  0.0059
  544MOL0     C74998   9.296   9.015   6.771 -0.8907 -0.2187 -0.3128
  544MOL0     C74999   9.396   8.985   6.701 -0.0582 -0.2590  0.2023
  544MOL0     C75000   9.216   8.576   7.302  0.9072  0.1937 -0.0920
  544MOL0     C75001   9.209   8.492   7.416 -0.4674 -0.4012  1.0319
  544MOL0     C75002   9.307   8.537   7.520  0.4791  0.1197  0.3870
  544MOL0     H75003   8.964   7.966   7.507 -1.6070 -0.0192 -1.1045
  544MOL0     H75004   8.935   7.789   7.688  3.1857  0.7723 -0.1463
  544MOL0     H75005   8.830   7.894   8.121 -1.3229 -0.5311 -1.2461
  544MOL0     H75006   9.002   7.919   8.085 -0.1064  0.1764  1.1001
  544MOL0     H75007   8.859   7.652   8.161  0.1057  1.1345 -1.4908
  544MOL0     H75008   9.017   7.662   8.066  0.5530  2.3103 -2.1515
  544MOL0     H75009   9.107   7.787   8.245  0.4228 -2.8583 -1.7921
  544MOL0     H75010   8.958   7.782   8.349 -2.5556 -1.5484 -0.8794
  544MOL0     H75011   8.968   7.535   8.343 -1.6424  1.8648 -0.6053
  544MOL0     H75012   9.111   7.525   8.252 -0.7636  0.0220 -0.0581
  544MOL0     H75013   9.116   7.681   8.525  1.3688  5.0185 -3.0793
  544MOL0     H75014   9.244   7.653   8.413  0.0219  0.9615  0.4342
  544MOL0     H75015   9.111   7.453   8.574 -1.4187  0.9662 -1.9860
  544MOL0     H75016   9.215   7.399   8.437  3.0095  0.5991  0.1062
  544MOL0     H75017   9.280   7.578   8.682 -1.2207 -2.8794  3.1543
  544MOL0     H75018   9.401   7.538   8.555  1.4682 -2.0170  0.9505
  544MOL0     H75019   9.256   7.360   8.762 -1.7498 -1.7408 -1.0501
  544MOL0     H75020   9.304   7.281   8.617  2.3807  0.0715 -1.9742
  544MOL0     H75021   9.492   7.532   8.861  1.7370  0.0631  0.5714
  544MOL0     H75022   9.831   7.340   8.938  0.5359  0.2214 -1.1280
  544MOL0     H75023   9.722   7.456   9.007  1.9688 -2.5026  0.5865
  544MOL0     H75024   9.917   7.452   8.762 -0.3651  0.3471 -1.0956
  544MOL0     H75025   9.795   7.580   8.780 -1.5731 -0.9033 -0.0788
  544MOL0     H75026   9.896   7.652   8.993 -0.7447  1.6044 -0.7009
  544MOL0     H75027  10.019   7.527   8.983  2.0535  2.8858  1.1315
  544MOL0     H75028   9.963   7.743   8.773 -1.9400  0.3127  2.2013
  544MOL0     H75029  10.070   7.762   8.913  0.5327 -1.4228 -0.8069
  544MOL0     H75030  10.160   7.902   8.762 -0.4110 -1.6877 -0.1052
  544MOL0     H75031  10.334   8.121   8.597  1.2664  0.0217  0.3150
  544MOL0     H75032  10.444   8.121   8.735 -0.8039 -1.1943  3.6869
  544MOL0     H75033  10.272   8.110   8.758  0.9140  2.4943 -0.1065
  544MOL0     H75034  10.838   8.061   8.619 -0.4471  1.1352 -1.2555
  544MOL0     H75035  11.066   8.125   8.550  0.5545 -0.2885  0.3208
  544MOL0     H75036  11.405   8.010   8.440  1.3226  0.6311  1.4350
  544MOL0     H75037  11.294   8.105   8.533  2.8839 -0.4766  0.1968
  544MOL0     H75038  11.424   7.927   8.658 -1.2336  0.0290  1.7143
  544MOL0     H75039  11.255   7.912   8.689  0.5545 -1.4569 -0.2022
  544MOL0     H75040  11.334   7.750   8.455  0.4806  1.6425  0.4320
  544MOL0     H75041  11.225   7.720   8.601  0.5790 -2.0264  1.3329
  544MOL0     H75042  11.429   7.688   8.730  2.0615 -0.4664  0.2943
  544MOL0     H75043  11.538   7.714   8.609  0.8048 -0.9056 -0.8043
  544MOL0     H75044  11.336   7.495   8.608  0.0718 -0.0925  2.3750
  544MOL0     H75045  11.456   7.510   8.474 -0.9591  0.0503  0.7684
  544MOL0     H75046  11.542   7.463   8.756  1.4456  0.8246 -1.7119
  544MOL0     H75047  11.649   7.496   8.624  1.6921 -0.3673  0.4671
  544MOL0     H75048  11.531   7.288   8.510 -2.5250  0.8407  0.7391
  544MOL0     H75049  11.465   7.276   8.677 -0.5271  1.2387 -0.7222
  544MOL0     H75050  11.718   7.310   8.752  0.6336 -1.9975  0.9290
  544MOL0     H75051  11.755   7.265   8.584  3.8580 -4.5525  1.2017
  544MOL0     H75052  11.089   7.798   8.283  0.7672  1.2337  0.3005
  544MOL0     H75053  10.835   7.745   8.328 -1.0907  0.5397  0.4755
  544MOL0     H75054  10.561   7.669   8.565  0.8123 -1.4178  0.1090
  544MOL0     H75055  10.372   7.544   8.665  0.8198  0.2312 -2.2800
  544MOL0     H75056   8.893   8.096   7.982 -1.3732  0.1348  0.3119
  544MOL0     H75057   8.966   8.261   7.809  1.1221 -0.2872 -0.0378
  544MOL0     H75058   8.961   8.292   7.307  0.4893  0.0281  0.2610
  544MOL0     H75059   9.018   8.421   7.094  0.1676 -2.7422  0.0567
  544MOL0     H75060   9.010   8.746   7.021 -1.3417  0.8594  1.6296
  544MOL0     H75061   9.073   8.796   7.172 -1.4632  0.8042 -0.6628
  544MOL0     H75062   9.246   8.789   6.927 -0.7743  0.5671 -0.5383
  544MOL0     H75063   9.277   8.884   7.066  1.0596  2.0438 -1.4892
  544MOL0     H75064   9.061   8.895   6.848  3.1310 -2.7862 -0.5049
  544MOL0     H75065   9.033   9.002   6.988 -2.2504 -2.5119 -0.5390
  544MOL0     H75066   9.239   9.137   6.925 -0.1791 -1.4555  1.5950
  544MOL0     H75067   9.122   9.129   6.797 -1.9556  0.7187  2.4258
  544MOL0     H75068   9.480   8.973   6.636  0.0485 -0.1666  0.3227
  544MOL0     H75069   9.287   8.657   7.288  2.7156 -1.0876  1.1502
  544MOL0     H75070   9.248   8.570   7.606  2.5313  0.4480  1.7450
  544MOL0     H75071   9.372   8.456   7.555  1.7649  1.4694  1.2332
  544MOL0     H75072   9.365   8.624   7.489 -1.2798  1.3802  0.4776
  545MOL0     O75073  11.246   1.409   1.553 -0.1173 -0.0914 -0.1979
  545MOL0     C75074  11.290   1.509   1.499 -0.3605  0.5782  0.0076
  545MOL0     O75075  11.416   1.561   1.523 -0.4383 -0.3138  0.7493
  545MOL0     C75076  11.478   1.501   1.624  0.6320  0.1852  0.8408
  545MOL0     C75077  11.570   1.399   1.613 -0.4689 -0.1995 -0.6585
  545MOL0     C75078  11.635   1.357   1.730  0.3248  0.1136  0.1614
  545MOL0     C75079  11.602   1.408   1.861 -0.2500 -0.6306  1.3610
  545MOL0     O75080  11.673   1.359   1.966  0.2973 -0.0252  0.1954
  545MOL0     C75081  11.693   1.428   2.088  0.4790 -0.1696 -0.0473
  545MOL0     C75082  11.840   1.462   2.094  0.2457 -0.4424 -0.2500
  545MOL0     C75083  11.871   1.559   1.972  0.2942 -0.6126  0.0121
  545MOL0     C75084  11.799   1.700   1.975  0.6830  0.8088 -0.3825
  545MOL0     C75085  11.820   1.780   1.847  0.1881  0.3367 -0.2509
  545MOL0     C75086  11.723   1.746   1.740 -0.1562 -0.8521  0.7848
  545MOL0     C75087  11.765   1.820   1.615  0.9189  0.1439  0.2512
  545MOL0     C75088  11.666   1.806   1.502  0.9101 -0.5429  0.5466
  545MOL0     N75089  11.549   1.899   1.532  0.2723 -0.2534 -0.8886
  545MOL0     C75090  11.553   2.030   1.523  0.1801 -0.2384  0.5601
  545MOL0     C75091  11.438   2.079   1.558  0.8536 -1.2573 -1.2516
  545MOL0     C75092  11.415   2.228   1.531 -0.3501  0.9820 -0.6042
  545MOL0     C75093  11.327   2.243   1.410  0.4882  0.3041  0.3957
  545MOL0     C75094  11.310   2.388   1.358 -0.0662  0.8460 -0.7046
  545MOL0     C75095  11.248   2.382   1.222  0.2314  0.6682  0.4422
  545MOL0     O75096  11.216   2.510   1.163 -0.6532  0.0041 -0.1260
  545MOL0     C75097  11.317   2.569   1.090  1.1531 -0.4329 -0.9552
  545MOL0     C75098  11.448   2.515   1.074  0.8538 -0.0022 -0.1673
  545MOL0     C75099  11.551   2.566   0.995 -0.5838  0.7658  0.1754
  545MOL0     C75100  11.681   2.490   1.008 -0.5230 -0.4747  0.4637
  545MOL0     C75101  11.517   2.684   0.913 -0.7198 -0.3320 -0.0020
  545MOL0     C75102  11.616   2.749   0.821  0.5434 -0.2719 -0.3235
  545MOL0     O75103  11.743   2.705   0.812  0.2538 -0.1476  0.0505
  545MOL0     C75104  11.821   2.773   0.720  0.0069 -0.1637  0.2699
  545MOL0     C75105  11.924   2.854   0.775 -0.2405  0.7933 -0.1442
  545MOL0     C75106  12.023   2.905   0.689  0.3135  0.6031 -0.3538
  545MOL0     C75107  12.004   2.890   0.547 -0.0137 -0.3642 -0.2687
  545MOL0     O75108  12.110   2.943   0.464 -0.6471  0.2588  0.1577
  545MOL0     C75109  12.115   2.915   0.323  0.0649  0.0336  0.3215
  545MOL0     C75110  12.269   2.899   0.294 -0.2996 -0.9658 -0.0022
  545MOL0     C75111  12.305   2.940   0.148 -0.2846 -0.3870  0.5952
  545MOL0     C75112  12.302   3.103   0.119  0.5003  0.2488 -0.1248
  545MOL0     C75113  12.324   3.126  -0.028 -0.0315 -0.4981 -0.1282
  545MOL0     C75114  12.454   3.092  -0.084  0.1618  0.0489 -0.3403
  545MOL0     C75115  12.480   3.160  -0.214 -0.1137  0.1391  0.5856
  545MOL0     C75116  12.622   3.139  -0.270  0.3633 -0.0635  0.5015
  545MOL0    Cl75117  12.649   2.967  -0.308  0.1530  0.0934  0.1098
  545MOL0     C75118  11.894   2.816   0.490 -0.5564  0.6186 -0.7667
  545MOL0     C75119  11.805   2.762   0.582  0.9541  0.6353  0.0597
  545MOL0     O75120  11.567   2.842   0.755 -0.1006 -0.1318  0.0396
  545MOL0     C75121  11.386   2.732   0.918  0.9202 -0.3423 -0.3480
  545MOL0     C75122  11.296   2.679   1.012  0.1789  0.4771  0.1632
  545MOL0     N75123  11.364   1.972   1.612  0.6580 -0.1035  0.6050
  545MOL0     N75124  11.436   1.860   1.593  1.0435 -0.2313  0.3118
  545MOL0     C75125  11.512   1.508   1.866 -0.0397 -0.5114  0.2641
  545MOL0     C75126  11.445   1.550   1.752  0.1508 -0.2176 -0.9443
  545MOL0     C75127  11.200   1.572   1.395  0.3498 -0.1092  0.1134
  545MOL0     C75128  11.219   1.709   1.359  0.2141  0.2379 -0.8452
  545MOL0     C75129  11.137   1.770   1.261 -0.0306 -0.2528  0.1159
  545MOL0     C75130  11.021   1.699   1.212 -0.3257 -0.4094  0.2186
  545MOL0     O75131  10.932   1.776   1.131 -0.0314  0.0228  0.2586
  545MOL0     C75132  10.808   1.738   1.087  0.6914 -0.0598  0.4938
  545MOL0     C75133  10.800   1.683   0.948  0.6348 -0.2045 -0.7680
  545MOL0     C75134  10.861   1.531   0.948 -0.5829 -0.4359  0.4556
  545MOL0     C75135  10.755   1.438   1.009 -0.4300 -0.0844 -0.3162
  545MOL0     C75136  10.765   1.301   0.962 -0.1046 -0.0971 -0.5543
  545MOL0     C75137  10.747   1.199   0.906 -0.7398 -0.0313  0.6045
  545MOL0     C75138  10.997   1.570   1.270  0.5037 -0.1918 -0.1501
  545MOL0     C75139  11.087   1.501   1.345 -0.8840  0.0054  0.0000
  545MOL0     C75140  11.074   1.352   1.348 -0.1909  0.5898 -0.2149
  545MOL0     H75141  11.589   1.352   1.517 -2.1325 -1.4764 -0.4237
  545MOL0     H75142  11.719   1.289   1.725  2.1946  2.3729 -0.4322
  545MOL0     H75143  11.659   1.362   2.168 -2.0367  1.2829  0.2032
  545MOL0     H75144  11.639   1.523   2.098  1.7942  0.4065  2.6177
  545MOL0     H75145  11.869   1.513   2.187  2.4670 -1.6234 -0.2149
  545MOL0     H75146  11.908   1.376   2.098 -1.2680 -1.6932 -0.4437
  545MOL0     H75147  11.980   1.570   1.971  0.3638 -1.2113 -2.0059
  545MOL0     H75148  11.847   1.511   1.877 -1.7969 -4.7490  2.3459
  545MOL0     H75149  11.692   1.701   1.998 -0.1948  3.3042 -3.7643
  545MOL0     H75150  11.857   1.749   2.053  2.0132 -0.1127 -0.7457
  545MOL0     H75151  11.916   1.741   1.813  0.0176 -2.2114  1.8511
  545MOL0     H75152  11.823   1.888   1.858 -1.7012  0.2797  1.5234
  545MOL0     H75153  11.714   1.639   1.720  0.7112 -0.7985  0.0424
  545MOL0     H75154  11.626   1.772   1.784  0.4850 -1.2032  2.4677
  545MOL0     H75155  11.865   1.780   1.595  1.2726 -0.1994  2.4985
  545MOL0     H75156  11.771   1.928   1.633 -1.8450  0.3672  0.1648
  545MOL0     H75157  11.711   1.843   1.409 -3.2355  3.1827 -0.3353
  545MOL0     H75158  11.635   1.703   1.485  1.2618 -0.1577 -3.4789
  545MOL0     H75159  11.624   2.096   1.474 -1.3240  0.8956 -0.1777
  545MOL0     H75160  11.508   2.277   1.501 -0.1610  2.4156  2.0405
  545MOL0     H75161  11.383   2.290   1.615  0.5410  0.6700 -0.0243
  545MOL0     H75162  11.363   2.189   1.322  0.8374  2.6924 -1.0164
  545MOL0     H75163  11.227   2.209   1.439  0.0816  0.9148 -0.2572
  545MOL0     H75164  11.249   2.451   1.424 -2.3633 -2.2114  0.3856
  545MOL0     H75165  11.410   2.430   1.349  0.4692 -0.6433 -2.2250
  545MOL0     H75166  11.306   2.312   1.161  0.4063  1.0835  0.1272
  545MOL0     H75167  11.150   2.343   1.251  0.3507  1.3029  1.8369
  545MOL0     H75168  11.481   2.432   1.135 -0.0415 -2.0024 -2.2551
  545MOL0     H75169  11.727   2.492   1.107 -1.5008 -2.7490  1.0308
  545MOL0     H75170  11.758   2.509   0.932  0.0827  2.7450  1.7418
  545MOL0     H75171  11.660   2.382   1.006  0.7548 -0.9271  4.2795
  545MOL0     H75172  11.925   2.864   0.883 -0.3426  0.5901 -0.1225
  545MOL0     H75173  12.110   2.965   0.717  1.2038  1.7000 -4.7206
  545MOL0     H75174  12.076   2.815   0.304  1.6292 -0.2158 -1.9465
  545MOL0     H75175  12.062   3.001   0.280 -4.9833 -1.7260  2.2580
  545MOL0     H75176  12.327   2.962   0.362 -1.6762  1.3436 -0.8437
  545MOL0     H75177  12.284   2.792   0.311 -1.1790 -1.3651 -1.5389
  545MOL0     H75178  12.235   2.893   0.079 -0.7033  0.3329  0.5257
  545MOL0     H75179  12.405   2.900   0.126  0.0882  0.5979  0.4313
  545MOL0     H75180  12.375   3.155   0.182  0.7871 -1.2916  0.8718
  545MOL0     H75181  12.205   3.149   0.138  1.2386  1.3090  1.1470
  545MOL0     H75182  12.254   3.076  -0.096 -0.7127  1.3649 -0.8852
  545MOL0     H75183  12.301   3.232  -0.046  0.3703 -0.6369 -1.5851
  545MOL0     H75184  12.453   2.985  -0.106  1.9186 -0.0452 -0.0982
  545MOL0     H75185  12.530   3.112  -0.009  0.2884 -2.1335  0.1655
  545MOL0     H75186  12.475   3.269  -0.201  1.5664  0.3215 -0.0214
  545MOL0     H75187  12.411   3.124  -0.291  1.6487  1.7148 -1.9148
  545MOL0     H75188  12.693   3.174  -0.195  3.9602 -7.0093  1.1190
  545MOL0     H75189  12.631   3.204  -0.358  3.4747 -2.7991 -1.4557
  545MOL0     H75190  11.868   2.827   0.385  1.1027  1.8629 -1.0866
  545MOL0     H75191  11.725   2.698   0.543  2.0933  1.0335 -3.2976
  545MOL0     H75192  11.354   2.822   0.866 -0.9823  0.1389  1.5144
  545MOL0     H75193  11.204   2.733   1.034 -1.4252 -2.2199  0.5711
  545MOL0     H75194  11.487   1.540   1.967  1.4941  1.8336 -0.0260
  545MOL0     H75195  11.380   1.635   1.769  0.2540 -0.3790  0.3171
  545MOL0     H75196  11.304   1.762   1.400  1.3390 -2.4626  0.6191
  545MOL0     H75197  11.151   1.872   1.228  1.0563 -0.7685 -1.0748
  545MOL0     H75198  10.752   1.679   1.160  2.2997 -0.4623  1.4607
  545MOL0     H75199  10.752   1.832   1.095 -0.1278 -0.5577  0.7122
  545MOL0     H75200  10.860   1.739   0.877 -1.5074  1.5300 -1.3135
  545MOL0     H75201  10.697   1.682   0.911  0.5325  0.3030 -0.5048
  545MOL0     H75202  10.882   1.490   0.849 -1.0320 -0.1940  0.2610
  545MOL0     H75203  10.946   1.533   1.017 -1.0306  0.1424  1.0036
  545MOL0     H75204  10.653   1.470   0.989 -0.3167  1.4500  1.3132
  545MOL0     H75205  10.755   1.443   1.118 -2.3006  0.8185 -0.3237
  545MOL0     H75206  10.743   1.125   0.829  5.1787  0.2456 -0.4254
  545MOL0     H75207  10.906   1.532   1.226 -1.3011  0.6429  2.6053
  545MOL0     H75208  11.166   1.295   1.328  1.3597  1.2819  3.8644
  545MOL0     H75209  11.046   1.320   1.449 -0.1644 -1.3069 -0.7704
  545MOL0     H75210  10.998   1.330   1.273 -2.1548  2.7622  1.0384
  546MOL0     O75211   5.027   2.030   8.521 -0.3722 -0.5807 -0.1338
  546MOL0     C75212   5.101   2.130   8.531 -0.2861  0.4158  0.2760
  546MOL0     O75213   5.094   2.249   8.473 -0.9575  0.1952  0.0826
  546MOL0     C75214   4.983   2.274   8.397  0.1262 -0.7924  0.0739
  546MOL0     C75215   4.937   2.412   8.399  0.1322  0.2638 -0.0827
  546MOL0     C75216   4.824   2.468   8.336  1.2478 -0.1182 -0.3912
  546MOL0     C75217   4.738   2.371   8.274  0.0395  0.7081  1.1337
  546MOL0     O75218   4.629   2.399   8.187  0.2707  0.2670 -0.2881
  546MOL0     C75219   4.602   2.542   8.158  0.1952 -0.4190  0.0923
  546MOL0     C75220   4.512   2.608   8.271 -0.1331  0.2324  0.0541
  546MOL0     C75221   4.370   2.562   8.280  0.3964  0.4182  0.1910
  546MOL0     C75222   4.288   2.658   8.372 -0.3056  0.1717  0.0714
  546MOL0     C75223   4.159   2.608   8.439 -0.3313 -0.5460 -0.2906
  546MOL0     C75224   4.049   2.583   8.335 -0.0003 -0.0522 -1.1310
  546MOL0     C75225   3.918   2.562   8.414 -1.0471  0.0192  0.6773
  546MOL0     C75226   3.819   2.529   8.299 -0.9838  0.6988 -0.9055
  546MOL0     N75227   3.826   2.387   8.256  0.0623 -0.8429 -0.1565
  546MOL0     C75228   3.724   2.292   8.281 -0.1877  0.0766 -0.2836
  546MOL0     C75229   3.782   2.181   8.240  0.3434 -0.2591  0.2790
  546MOL0     C75230   3.705   2.049   8.268 -0.6982 -0.2367  0.4691
  546MOL0     C75231   3.636   1.990   8.147 -0.3412  0.2511  0.1088
  546MOL0     C75232   3.522   2.076   8.090  0.1419 -0.4534  0.1622
  546MOL0     C75233   3.468   1.989   7.973  0.4601  0.7156 -0.6980
  546MOL0     O75234   3.359   2.063   7.899 -0.9937  0.1458 -0.5020
  546MOL0     C75235   3.298   1.991   7.799 -0.0044 -0.0632 -0.3989
  546MOL0     C75236   3.345   1.870   7.739  0.7438 -0.6837 -0.0604
  546MOL0     C75237   3.280   1.807   7.637 -0.2470  0.4716 -1.0006
  546MOL0     C75238   3.330   1.667   7.595 -0.1568  1.2238 -0.0414
  546MOL0     C75239   3.168   1.872   7.579  0.4122  0.7479 -0.7101
  546MOL0     C75240   3.078   1.813   7.478  0.1378  0.0129  0.6523
  546MOL0     O75241   3.130   1.724   7.387 -0.1275  0.5976  0.2024
  546MOL0     C75242   3.052   1.631   7.314 -1.6950  0.5822  0.1269
  546MOL0     C75243   3.134   1.520   7.278  0.5968 -1.1638 -0.0179
  546MOL0     C75244   3.069   1.412   7.210  0.2840  0.3762  1.3937
  546MOL0     C75245   2.937   1.416   7.160 -0.6836  0.4504  0.3954
  546MOL0     O75246   2.911   1.318   7.074 -0.1819 -0.2569  0.3177
  546MOL0     C75247   2.768   1.282   7.039  1.3156 -1.3973  0.2966
  546MOL0     C75248   2.705   1.212   7.160 -0.1052  0.3736  0.2686
  546MOL0     C75249   2.558   1.235   7.158  0.5497  1.6170 -0.0281
  546MOL0     C75250   2.521   1.369   7.227 -0.5411  0.5338  0.0239
  546MOL0     C75251   2.383   1.416   7.218  0.8922  0.3747 -0.7014
  546MOL0     C75252   2.308   1.371   7.093 -0.8864  0.6912 -0.2863
  546MOL0     C75253   2.176   1.451   7.084  0.4757  0.6992 -0.0438
  546MOL0     C75254   2.069   1.415   6.980  0.0461 -0.4286  0.2856
  546MOL0    Cl75255   2.110   1.487   6.821  0.1188 -0.3333 -0.0490
  546MOL0     C75256   2.865   1.531   7.202 -0.2431  0.4333  0.3757
  546MOL0     C75257   2.921   1.638   7.277  0.6288 -0.4518 -0.0457
  546MOL0     O75258   2.962   1.835   7.503 -0.4845  0.5980  0.5344
  546MOL0     C75259   3.119   1.997   7.631 -0.6677  1.0706  0.2564
  546MOL0     C75260   3.178   2.057   7.745  0.7434 -0.0839  0.9922
  546MOL0     N75261   3.908   2.207   8.194 -0.0706 -0.7081 -0.3587
  546MOL0     N75262   3.924   2.335   8.189  0.3685  0.7521 -0.1405
  546MOL0     C75263   4.785   2.232   8.258  0.1001 -0.6209 -0.1931
  546MOL0     C75264   4.908   2.187   8.308 -0.0046  0.0316 -0.3411
  546MOL0     C75265   5.227   2.119   8.611  0.2801  0.1506  0.0669
  546MOL0     C75266   5.320   2.223   8.602 -0.8629 -0.2998 -0.5314
  546MOL0     C75267   5.435   2.227   8.683 -0.0959 -0.1551 -0.9491
  546MOL0     C75268   5.487   2.115   8.754  0.3309  0.1854  1.4235
  546MOL0     O75269   5.614   2.124   8.813  0.7759  0.7461 -0.0899
  546MOL0     C75270   5.675   1.997   8.850  0.1489 -0.7515  0.8585
  546MOL0     C75271   5.796   2.010   8.945 -1.0091  0.5279 -0.2800
  546MOL0     C75272   5.886   2.130   8.948  1.1981  0.9940  0.0768
  546MOL0     C75273   5.983   2.137   8.832 -0.6603 -0.4363 -1.2270
  546MOL0     C75274   6.095   2.037   8.836  0.7721 -0.3094 -0.4773
  546MOL0     C75275   6.178   1.954   8.817  0.4043 -0.1327 -0.6531
  546MOL0     C75276   5.393   2.000   8.753 -0.4963 -0.5269 -0.5140
  546MOL0     C75277   5.273   2.005   8.689  1.2977  1.3427  0.2625
  546MOL0     C75278   5.194   1.884   8.728 -0.3494  0.5512  0.4340
  546MOL0     H75279   4.999   2.488   8.447 -0.4324 -0.4547  1.8488
  546MOL0     H75280   4.805   2.575   8.346 -0.1049 -0.5989  4.6022
  546MOL0     H75281   4.538   2.548   8.069  0.1506 -1.2014  0.0642
  546MOL0     H75282   4.701   2.585   8.140 -0.2878 -0.1793 -2.3913
  546MOL0     H75283   4.556   2.590   8.369  0.3668 -0.4229 -0.2816
  546MOL0     H75284   4.517   2.716   8.249  3.4946  0.0370 -0.6491
  546MOL0     H75285   4.327   2.568   8.180 -1.7660 -0.1768  1.0387
  546MOL0     H75286   4.364   2.461   8.320 -4.5535  0.0012 -0.9945
  546MOL0     H75287   4.341   2.694   8.460 -0.9013  0.0158  0.4985
  546MOL0     H75288   4.267   2.746   8.311 -0.0114  0.3025  0.1548
  546MOL0     H75289   4.129   2.686   8.509 -3.2601  0.6032 -2.6158
  546MOL0     H75290   4.190   2.514   8.485 -0.3999 -1.0976 -1.3273
  546MOL0     H75291   4.030   2.671   8.273 -0.7897  1.6473  1.3582
  546MOL0     H75292   4.079   2.504   8.265 -1.7907  0.5806 -2.6833
  546MOL0     H75293   3.889   2.645   8.479  3.4577  0.7376  2.1373
  546MOL0     H75294   3.936   2.472   8.472 -0.5426  0.3846  1.0990
  546MOL0     H75295   3.718   2.552   8.333 -0.4422 -0.5362  1.8141
  546MOL0     H75296   3.840   2.586   8.208  0.5597  0.2059 -0.8846
  546MOL0     H75297   3.626   2.300   8.326 -0.6829  0.0854 -1.3436
  546MOL0     H75298   3.635   2.055   8.352 -0.8663  1.4466  0.2552
  546MOL0     H75299   3.791   1.987   8.295  0.0536  0.7810  0.4608
  546MOL0     H75300   3.709   1.988   8.065 -1.1225  0.8442 -0.6246
  546MOL0     H75301   3.604   1.887   8.162  2.8916 -0.5043  3.4683
  546MOL0     H75302   3.443   2.097   8.163  1.1518  1.9548  0.6495
  546MOL0     H75303   3.557   2.172   8.052  1.3105 -0.6832  0.6261
  546MOL0     H75304   3.553   1.958   7.911  2.4486  2.3239  1.0336
  546MOL0     H75305   3.438   1.892   8.013  0.8033  0.8266 -0.1387
  546MOL0     H75306   3.436   1.826   7.779  0.4487 -2.1407 -0.9231
  546MOL0     H75307   3.409   1.643   7.667  1.0876  3.5892 -0.5198
  546MOL0     H75308   3.367   1.673   7.492 -3.4366 -1.0553 -1.5466
  546MOL0     H75309   3.255   1.588   7.604  1.3104 -0.6701 -2.9474
  546MOL0     H75310   3.240   1.507   7.293  0.5610 -1.4320  0.0161
  546MOL0     H75311   3.127   1.323   7.188 -2.1086 -1.1065  0.7691
  546MOL0     H75312   2.714   1.373   7.013 -0.1175 -2.0566  0.8626
  546MOL0     H75313   2.765   1.218   6.950  1.9999 -1.3381  0.2295
  546MOL0     H75314   2.724   1.104   7.154  5.4169  1.1029 -0.8189
  546MOL0     H75315   2.758   1.253   7.246  2.5835 -0.8565 -0.6871
  546MOL0     H75316   2.516   1.152   7.216  2.5912  0.6504  0.1568
  546MOL0     H75317   2.527   1.228   7.054  0.1839 -0.7850  0.1944
  546MOL0     H75318   2.569   1.446   7.165  0.8294  1.1464  1.7556
  546MOL0     H75319   2.553   1.368   7.331 -2.1704 -2.1400  0.5724
  546MOL0     H75320   2.332   1.360   7.297  2.9550  1.1496  1.3109
  546MOL0     H75321   2.380   1.524   7.237  0.5931  0.5478 -1.6864
  546MOL0     H75322   2.297   1.263   7.108 -0.4461  0.5685 -0.8168
  546MOL0     H75323   2.366   1.380   7.001 -0.7541 -1.4110 -0.4522
  546MOL0     H75324   2.186   1.559   7.078 -1.7373  1.0066  0.8485
  546MOL0     H75325   2.124   1.445   7.180 -2.2360  0.1195 -1.4523
  546MOL0     H75326   1.968   1.451   7.000 -0.0540 -0.5172 -0.0496
  546MOL0     H75327   2.055   1.307   6.963 -2.0101 -0.1657 -0.0264
  546MOL0     H75328   2.763   1.535   7.165 -0.4305  4.5662  0.8991
  546MOL0     H75329   2.866   1.724   7.311  1.6351  0.6511 -1.0929
  546MOL0     H75330   3.026   2.046   7.602 -0.5340  1.7365  0.8959
  546MOL0     H75331   3.143   2.149   7.789 -1.7677  0.1761 -1.3166
  546MOL0     H75332   4.728   2.156   8.204 -1.7603  0.8337 -0.3812
  546MOL0     H75333   4.927   2.081   8.300 -4.0805 -0.7376 -1.9356
  546MOL0     H75334   5.299   2.312   8.543  1.8032  2.1656  1.9098
  546MOL0     H75335   5.490   2.320   8.682  2.9359 -1.7064  2.0197
  546MOL0     H75336   5.599   1.951   8.913  1.1870 -2.7246  0.7331
  546MOL0     H75337   5.690   1.927   8.767 -4.1455  0.8366 -1.5988
  546MOL0     H75338   5.869   1.929   8.935  0.6842  1.9521  0.0687
  546MOL0     H75339   5.758   2.002   9.048 -2.0404  2.4090 -0.4762
  546MOL0     H75340   5.825   2.220   8.959 -0.8227 -0.1050 -1.4139
  546MOL0     H75341   5.946   2.121   9.040  1.3250 -2.3739 -0.1964
  546MOL0     H75342   6.025   2.238   8.829  2.1019 -1.4250  0.3855
  546MOL0     H75343   5.927   2.119   8.740 -3.4668  0.5614  0.1413
  546MOL0     H75344   6.249   1.881   8.784  0.6232  1.0023 -2.9284
  546MOL0     H75345   5.435   1.912   8.799  0.3086  0.1553  0.1003
  546MOL0     H75346   5.218   1.840   8.826 -0.2962  0.9761  0.6166
  546MOL0     H75347   5.089   1.909   8.740  0.0003  1.6178  1.5374
  546MOL0     H75348   5.197   1.804   8.654  4.9045 -1.0015  1.8661
  547MOL0     O75349  10.130  10.301   3.403  0.2448  0.3800 -0.1688
  547MOL0     C75350  10.253  10.313   3.427 -0.0733  0.1685  0.2642
  547MOL0     O75351  10.331  10.203   3.449 -0.1667  0.5006  0.3202
  547MOL0     C75352  10.266  10.079   3.455 -1.2255  0.4361  0.2875
  547MOL0     C75353  10.273   9.984   3.347 -0.2356  0.0511 -0.1816
  547MOL0     C75354  10.202   9.867   3.366  0.0435 -0.3446 -0.1663
  547MOL0     C75355  10.134   9.833   3.480  0.4441  0.2870  0.0694
  547MOL0     O75356  10.086   9.714   3.521 -0.5266  0.6206 -0.3298
  547MOL0     C75357  10.109   9.592   3.460 -0.0435 -0.3697  0.4028
  547MOL0     C75358  10.028   9.483   3.533  0.8334  0.0885  0.2297
  547MOL0     C75359   9.860   9.521   3.532 -0.3146  0.0316 -0.4441
  547MOL0     C75360   9.830   9.599   3.659  0.1812 -0.1612 -0.8274
  547MOL0     C75361   9.690   9.668   3.672 -0.7914 -0.0255 -1.6351
  547MOL0     C75362   9.685   9.746   3.804 -0.0221  0.9820 -0.7038
  547MOL0     C75363   9.766   9.873   3.813  0.3096  0.4529 -0.5416
  547MOL0     C75364   9.739   9.993   3.722 -1.2908 -0.9661 -0.4559
  547MOL0     N75365   9.672  10.091   3.814  0.8804  0.2517  0.4393
  547MOL0     C75366   9.728  10.211   3.879  0.1854  0.9979  1.1551
  547MOL0     C75367   9.615  10.276   3.922  0.4066  0.3385 -0.3021
  547MOL0     C75368   9.593  10.414   3.983 -0.2102 -0.1285  0.2168
  547MOL0     C75369   9.585  10.431   4.131 -0.0740  0.2039 -0.5110
  547MOL0     C75370   9.456  10.362   4.193 -0.7193  0.5876  0.0416
  547MOL0     C75371   9.469  10.351   4.344 -0.6076 -0.3115  0.3852
  547MOL0     O75372   9.573  10.263   4.359  0.6906 -0.3258  0.3661
  547MOL0     C75373   9.584  10.210   4.485 -0.4715 -0.3786  0.4006
  547MOL0     C75374   9.689  10.122   4.485 -0.3435 -0.1694 -0.4587
  547MOL0     C75375   9.727  10.044   4.594 -0.5315 -0.6613  0.0044
  547MOL0     C75376   9.831   9.948   4.568  0.2058 -0.0206 -0.4593
  547MOL0     C75377   9.646  10.041   4.710 -1.5288  0.8354  0.7225
  547MOL0     C75378   9.678   9.966   4.834 -1.4277  0.4641 -0.4767
  547MOL0     O75379   9.599   9.984   4.939 -0.4770 -1.7374 -0.8680
  547MOL0     C75380   9.633   9.970   5.070 -0.5627 -0.0804 -1.0490
  547MOL0     C75381   9.532   9.934   5.158  0.4177 -0.0957 -0.0688
  547MOL0     C75382   9.548   9.889   5.288 -0.6953 -0.3638 -0.6731
  547MOL0     C75383   9.681   9.876   5.333 -1.1791  0.9459  0.1589
  547MOL0     O75384   9.714   9.839   5.456  0.2695  0.2712  0.9392
  547MOL0     C75385   9.634   9.893   5.563 -0.5836 -0.0871 -0.8405
  547MOL0     C75386   9.733   9.930   5.664 -0.2283 -0.1428 -0.1368
  547MOL0     C75387   9.791   9.808   5.747  0.2352  0.4183  0.5582
  547MOL0     C75388   9.909   9.845   5.836 -0.0293  0.2210 -0.3368
  547MOL0     C75389   9.957   9.724   5.909  0.3009 -1.0352  0.1232
  547MOL0     C75390   9.847   9.683   6.004  0.2751 -1.0216  0.4018
  547MOL0     C75391   9.896   9.598   6.119 -0.4246  0.5656  0.4357
  547MOL0     C75392   9.977   9.472   6.078  0.7722 -0.0049  0.8653
  547MOL0    Cl75393  10.146   9.512   6.037  0.7577 -0.5775  0.0120
  547MOL0     C75394   9.787   9.914   5.246 -0.4110  0.1562  0.2143
  547MOL0     C75395   9.765   9.966   5.113  0.6747 -0.3956 -0.9278
  547MOL0     O75396   9.766   9.877   4.832 -0.0160 -0.2063 -0.2338
  547MOL0     C75397   9.543  10.135   4.709 -0.7654  0.1118  0.1599
  547MOL0     C75398   9.506  10.216   4.599  1.1994 -0.4793 -0.7596
  547MOL0     N75399   9.505  10.200   3.894 -0.3872 -0.6974 -0.2700
  547MOL0     N75400   9.535  10.091   3.832 -0.2623  0.3413 -0.0536
  547MOL0     C75401  10.122   9.929   3.576  0.3523 -0.2784  0.2813
  547MOL0     C75402  10.190  10.053   3.568  1.2615  0.2041 -0.2549
  547MOL0     C75403  10.313  10.449   3.444  0.8787  0.4108  0.2320
  547MOL0     C75404  10.215  10.548   3.414  0.7374  0.8310  0.1670
  547MOL0     C75405  10.238  10.685   3.404 -0.2945 -0.4171 -0.2979
  547MOL0     C75406  10.371  10.724   3.389  0.3115  0.1630 -0.4581
  547MOL0     O75407  10.409  10.852   3.347  0.5531  0.5790 -0.1031
  547MOL0     C75408  10.317  10.926   3.267  0.1625  0.2153 -0.2329
  547MOL0     C75409  10.306  10.866   3.126  0.0814 -0.5314  0.8544
  547MOL0     C75410  10.345  10.969   3.027 -0.2057  0.0705  0.3779
  547MOL0     C75411  10.232  11.071   2.992 -0.8295  0.7133 -0.2003
  547MOL0     C75412  10.258  11.165   2.888 -0.2868  0.3362  0.0776
  547MOL0     C75413  10.276  11.247   2.813  0.0719 -0.2937  0.7192
  547MOL0     C75414  10.470  10.622   3.390  0.2646 -0.2909 -0.2856
  547MOL0     C75415  10.443  10.486   3.424 -0.3927  0.1395  0.3475
  547MOL0     C75416  10.566  10.397   3.446  0.6307 -0.2978  0.7464
  547MOL0     H75417  10.317   9.998   3.249 -4.4954  0.1300 -2.3300
  547MOL0     H75418  10.203   9.787   3.293  0.9823  0.0346 -0.5860
  547MOL0     H75419  10.214   9.563   3.451 -0.0909 -0.5653  0.4577
  547MOL0     H75420  10.067   9.597   3.359  2.4018  2.2054 -0.6143
  547MOL0     H75421  10.059   9.386   3.493  0.6124  0.1654 -0.1336
  547MOL0     H75422  10.061   9.482   3.638  1.7054  0.3455 -0.0321
  547MOL0     H75423   9.839   9.580   3.442  1.1497  2.1109  0.4832
  547MOL0     H75424   9.797   9.432   3.525 -0.2323 -0.3099  2.1656
  547MOL0     H75425   9.836   9.527   3.741  1.9679  0.8771  0.0225
  547MOL0     H75426   9.908   9.676   3.665 -0.0772  0.0410  0.1547
  547MOL0     H75427   9.613   9.589   3.672 -0.6579 -0.1602 -0.9010
  547MOL0     H75428   9.677   9.744   3.595  0.5845  3.8007  1.5756
  547MOL0     H75429   9.577   9.761   3.820 -0.4845  4.3835 -4.9033
  547MOL0     H75430   9.721   9.697   3.894  0.6224 -0.1068 -1.5356
  547MOL0     H75431   9.866   9.835   3.787  0.1550 -0.6218  0.3755
  547MOL0     H75432   9.767   9.891   3.921 -0.3004 -3.7744  0.3662
  547MOL0     H75433   9.836  10.034   3.692  1.1300 -3.6987  2.7998
  547MOL0     H75434   9.677   9.963   3.638  1.3807  0.5822 -3.1979
  547MOL0     H75435   9.828  10.252   3.876  0.6877 -0.1314  1.8003
  547MOL0     H75436   9.499  10.450   3.940 -0.5037 -1.3927 -0.2402
  547MOL0     H75437   9.676  10.472   3.942 -0.1260 -1.3742 -1.4346
  547MOL0     H75438   9.672  10.371   4.157  1.7362  2.1068 -1.8374
  547MOL0     H75439   9.601  10.538   4.146  1.8988  0.2623 -2.5051
  547MOL0     H75440   9.364  10.420   4.187 -0.0311  1.8678  1.1205
  547MOL0     H75441   9.438  10.262   4.153 -0.4411  0.3301  0.5404
  547MOL0     H75442   9.487  10.447   4.394 -1.9999 -1.4484  3.2902
  547MOL0     H75443   9.378  10.311   4.388 -1.3323  0.6123 -0.2270
  547MOL0     H75444   9.752  10.099   4.399  0.3116  2.9170 -0.9024
  547MOL0     H75445   9.791   9.846   4.577  0.7721 -0.1964  0.1501
  547MOL0     H75446   9.915   9.942   4.638  0.2986 -0.2843 -0.5884
  547MOL0     H75447   9.880   9.950   4.470  3.0702  0.4552  0.8713
  547MOL0     H75448   9.437   9.944   5.107  0.5782  0.9845 -0.1905
  547MOL0     H75449   9.465   9.848   5.345  2.3146 -2.6823  2.4835
  547MOL0     H75450   9.579   9.985   5.538  1.0179  0.0259 -4.7191
  547MOL0     H75451   9.558   9.820   5.593 -2.8913  0.9182 -3.6630
  547MOL0     H75452   9.816   9.998   5.642  1.7281 -2.6783 -1.0477
  547MOL0     H75453   9.674   9.998   5.727 -2.3549 -3.0800  1.2788
  547MOL0     H75454   9.825   9.732   5.676 -3.7709 -0.8255 -0.2886
  547MOL0     H75455   9.706   9.770   5.803  1.4605  0.4481  2.5402
  547MOL0     H75456   9.869   9.919   5.905 -2.4522  1.1446 -2.5506
  547MOL0     H75457   9.989   9.889   5.777  0.6460  0.3914  0.6907
  547MOL0     H75458   9.990   9.645   5.841  1.6039 -0.0969 -0.3620
  547MOL0     H75459  10.041   9.753   5.972 -1.4966 -1.2074  2.7692
  547MOL0     H75460   9.764   9.624   5.962 -2.0050  2.5057 -0.4857
  547MOL0     H75461   9.802   9.773   6.046  0.9026 -0.6833  0.3460
  547MOL0     H75462   9.806   9.554   6.163 -0.6090  2.7713  2.4101
  547MOL0     H75463   9.944   9.643   6.206 -0.6575 -0.2837  1.0149
  547MOL0     H75464   9.942   9.425   5.985  3.8305 -3.8753  1.4164
  547MOL0     H75465   9.974   9.398   6.158 -2.0878 -1.1428 -0.1776
  547MOL0     H75466   9.885   9.908   5.293 -2.0677  1.5053  4.3727
  547MOL0     H75467   9.861   9.991   5.069  0.2812  0.1039 -1.5304
  547MOL0     H75468   9.468  10.138   4.788 -0.1067  0.2690  0.7831
  547MOL0     H75469   9.416  10.276   4.609  0.6492 -1.5022  0.7275
  547MOL0     H75470  10.066   9.919   3.669 -0.3276  1.3232  0.0704
  547MOL0     H75471  10.191  10.137   3.637 -1.0978 -1.1220  1.5346
  547MOL0     H75472  10.107  10.538   3.419  0.7817 -0.2976 -0.8277
  547MOL0     H75473  10.155  10.754   3.396 -0.6246 -0.6422  0.9500
  547MOL0     H75474  10.212  10.934   3.299 -1.0869 -1.3636 -3.4999
  547MOL0     H75475  10.348  11.029   3.254 -1.9865  0.5738 -3.8266
  547MOL0     H75476  10.213  10.814   3.103  0.8921 -1.0687 -1.4048
  547MOL0     H75477  10.383  10.790   3.113 -0.1588 -0.4301 -1.6194
  547MOL0     H75478  10.434  11.021   3.064 -0.9020  1.6630 -0.0755
  547MOL0     H75479  10.377  10.917   2.936 -3.0665 -1.3434  0.0811
  547MOL0     H75480  10.219  11.145   3.072 -3.0033  0.0425  0.1290
  547MOL0     H75481  10.133  11.024   2.992  0.2463 -1.6760 -0.7284
  547MOL0     H75482  10.272  11.318   2.733 -2.7685  2.1421  2.7868
  547MOL0     H75483  10.572  10.644   3.360  2.4898 -4.0864  3.4234
  547MOL0     H75484  10.608  10.384   3.345 -0.4040  0.2306  0.2396
  547MOL0     H75485  10.637  10.449   3.512  0.9643  1.8436 -1.1571
  547MOL0     H75486  10.551  10.292   3.471  0.2980  0.3033  3.3548
  548MOL0     O75487  10.966  10.156   3.243  0.0307  0.6085  0.0843
  548MOL0     C75488  11.001  10.263   3.204 -0.6211  0.5553 -0.0911
  548MOL0     O75489  10.919  10.348   3.148 -0.1663 -0.4240  0.5624
  548MOL0     C75490  10.784  10.343   3.133 -0.2036  0.6348  0.4774
  548MOL0     C75491  10.699  10.235   3.166 -0.0491 -0.0721 -0.3931
  548MOL0     C75492  10.563  10.222   3.122 -0.4586  0.0963 -0.4757
  548MOL0     C75493  10.506  10.337   3.063  0.9219 -0.8332  0.5069
  548MOL0     O75494  10.370  10.321   3.010 -0.0308 -0.8139 -0.0154
  548MOL0     C75495  10.268  10.406   3.059  0.3050 -0.4804  0.0041
  548MOL0     C75496  10.193  10.445   2.931 -0.4932  0.6365 -0.0279
  548MOL0     C75497  10.073  10.345   2.913 -0.8216 -0.2678 -0.8109
  548MOL0     C75498   9.994  10.361   2.792  0.3781  0.4456  0.3483
  548MOL0     C75499   9.885  10.259   2.767  0.6163 -0.4130 -0.6418
  548MOL0     C75500   9.787  10.244   2.875 -0.2323  0.1177 -0.7902
  548MOL0     C75501   9.690  10.123   2.849  0.2533  1.1654  0.3082
  548MOL0     C75502   9.550  10.128   2.910 -1.0828 -0.1098  0.2690
  548MOL0     N75503   9.473  10.010   2.883 -0.2948  0.8275 -0.0501
  548MOL0     C75504   9.404   9.985   2.765 -0.4925  0.4781 -0.4635
  548MOL0     C75505   9.336   9.868   2.783  0.4287 -0.2376 -0.3175
  548MOL0     C75506   9.255   9.782   2.684 -0.4857 -0.6370 -0.4052
  548MOL0     C75507   9.218   9.651   2.752  1.4007  0.2388  0.4204
  548MOL0     C75508   9.135   9.572   2.658  0.8572  0.7321  0.0331
  548MOL0     C75509   9.051   9.470   2.729  0.2044 -0.8107 -0.5052
  548MOL0     O75510   8.941   9.543   2.795 -0.7663 -0.3806  0.0867
  548MOL0     C75511   8.825   9.485   2.823  0.1188 -0.4317  0.8160
  548MOL0     C75512   8.812   9.343   2.810 -0.1889 -0.2647 -0.0837
  548MOL0     C75513   8.685   9.271   2.833 -0.7663 -1.3262 -0.4148
  548MOL0     C75514   8.692   9.124   2.815  0.0536  0.2201 -0.0489
  548MOL0     C75515   8.574   9.350   2.880 -0.6488  0.0218  0.2865
  548MOL0     C75516   8.425   9.302   2.903  0.0189  0.6616  0.5650
  548MOL0     O75517   8.419   9.160   2.928 -0.2228 -1.4819  0.5927
  548MOL0     C75518   8.316   9.117   3.011 -0.0683 -0.0624 -0.0050
  548MOL0     C75519   8.263   8.987   3.010 -1.4008 -0.2097  0.5079
  548MOL0     C75520   8.171   8.950   3.108 -0.4263  0.5437  0.1299
  548MOL0     C75521   8.142   9.028   3.221  0.2207  1.0001  0.5754
  548MOL0     O75522   8.056   8.998   3.320 -0.0371  0.3997 -0.2505
  548MOL0     C75523   8.047   8.854   3.360 -0.3572  0.4683 -0.2468
  548MOL0     C75524   7.961   8.849   3.490  0.9606 -0.1844 -0.3191
  548MOL0     C75525   7.982   8.730   3.569 -0.6069 -0.3690 -1.1697
  548MOL0     C75526   7.943   8.587   3.515 -0.9150 -0.6884 -0.8217
  548MOL0     C75527   7.990   8.491   3.617  0.3098  0.2755 -0.7760
  548MOL0     C75528   7.913   8.366   3.613  0.9994  0.4542  0.2826
  548MOL0     C75529   7.982   8.260   3.700  0.5317 -0.5883  0.4311
  548MOL0     C75530   7.914   8.235   3.837 -0.0234  0.7796  0.0735
  548MOL0    Cl75531   7.764   8.152   3.798 -0.1171  0.2328 -0.0575
  548MOL0     C75532   8.209   9.149   3.231  0.3501  0.3553 -0.6030
  548MOL0     C75533   8.288   9.195   3.122  0.3081  0.2737 -1.3694
  548MOL0     O75534   8.322   9.373   2.888 -0.3110 -0.3734  0.2353
  548MOL0     C75535   8.599   9.490   2.911  0.7701 -0.9683 -0.7144
  548MOL0     C75536   8.723   9.553   2.879  0.3061  0.3478  0.0034
  548MOL0     N75537   9.386   9.819   2.904 -0.3243 -0.5584 -0.7562
  548MOL0     N75538   9.453   9.907   2.970 -0.7904  0.0838  0.6440
  548MOL0     C75539  10.575  10.456   3.042 -0.8022  0.0082  0.2480
  548MOL0     C75540  10.723  10.461   3.071  0.4954  0.5076  0.4889
  548MOL0     C75541  11.135  10.317   3.245 -0.7687  0.7381 -0.6455
  548MOL0     C75542  11.214  10.231   3.308 -1.1815  0.2619  0.0069
  548MOL0     C75543  11.343  10.265   3.355  0.3211  0.5025  0.2029
  548MOL0     C75544  11.390  10.387   3.329  0.7741  0.3140 -0.0925
  548MOL0     O75545  11.505  10.425   3.375 -0.4765 -0.9639  0.2483
  548MOL0     C75546  11.467  10.500   3.496 -0.0438 -0.2174  0.7818
  548MOL0     C75547  11.578  10.518   3.598  0.2539  0.3629 -1.2031
  548MOL0     C75548  11.570  10.663   3.680 -0.5798  1.0503  0.0670
  548MOL0     C75549  11.683  10.671   3.782  0.2610 -0.4853  0.6988
  548MOL0     C75550  11.670  10.802   3.864  0.1779 -0.3528  0.1987
  548MOL0     C75551  11.653  10.896   3.946 -0.0589  1.1963 -1.0496
  548MOL0     C75552  11.311  10.480   3.262 -0.1104  0.3103 -0.3383
  548MOL0     C75553  11.179  10.449   3.217 -0.0208 -0.2147 -0.5143
  548MOL0     C75554  11.092  10.562   3.175  0.4662  0.7332 -0.7475
  548MOL0     H75555  10.744  10.151   3.219 -1.8528 -1.5440 -1.0720
  548MOL0     H75556  10.491  10.146   3.153 -1.4442  0.0225 -2.7615
  548MOL0     H75557  10.306  10.492   3.114 -0.7250  0.4356 -0.6659
  548MOL0     H75558  10.201  10.364   3.135 -1.9711 -0.1229 -1.6871
  548MOL0     H75559  10.159  10.549   2.934  0.3420  1.0155 -1.9531
  548MOL0     H75560  10.243  10.428   2.835  2.8342 -0.4148  1.7440
  548MOL0     H75561  10.110  10.243   2.924  1.8208  0.7004  0.2423
  548MOL0     H75562  10.009  10.370   2.998 -0.1193 -0.4200 -0.2266
  548MOL0     H75563   9.938  10.454   2.795 -0.2814  0.1266 -1.1067
  548MOL0     H75564  10.063  10.361   2.707 -2.1434 -2.1523 -1.9085
  548MOL0     H75565   9.930  10.163   2.738 -2.3993 -1.7133 -1.3661
  548MOL0     H75566   9.845  10.300   2.674  0.8048  4.2841  1.1169
  548MOL0     H75567   9.845  10.214   2.964  3.5638 -0.5008 -3.2322
  548MOL0     H75568   9.723  10.331   2.889 -3.2510 -2.1414  0.5312
  548MOL0     H75569   9.746  10.033   2.877 -2.2862 -0.5965 -0.0226
  548MOL0     H75570   9.669  10.104   2.744  0.5870 -2.8387  0.8242
  548MOL0     H75571   9.562  10.138   3.018  1.5194  0.5596 -0.0005
  548MOL0     H75572   9.501  10.220   2.878  0.2896  0.1864 -1.1108
  548MOL0     H75573   9.394  10.028   2.666 -0.7535 -3.3047 -2.2907
  548MOL0     H75574   9.316   9.763   2.595 -1.0522 -0.4469 -0.8380
  548MOL0     H75575   9.165   9.840   2.659  1.0854  3.0621  1.6192
  548MOL0     H75576   9.304   9.592   2.787  2.3970  0.4930 -1.4750
  548MOL0     H75577   9.161   9.666   2.844  0.4713 -0.5980 -0.0081
  548MOL0     H75578   9.059   9.635   2.610  0.1133  1.4398  2.0344
  548MOL0     H75579   9.198   9.513   2.591 -1.7568 -1.1832 -0.9277
  548MOL0     H75580   9.029   9.403   2.645  2.3675  0.2732 -2.0140
  548MOL0     H75581   9.093   9.401   2.803  1.1526 -0.8310 -1.0451
  548MOL0     H75582   8.900   9.290   2.776  0.0836  1.7364 -2.8501
  548MOL0     H75583   8.620   9.094   2.738  0.1419 -2.2676  0.7570
  548MOL0     H75584   8.677   9.070   2.909  1.0152 -2.3505 -1.2673
  548MOL0     H75585   8.795   9.097   2.790  0.3072  0.7234  0.4444
  548MOL0     H75586   8.302   8.917   2.936 -0.4108  0.2857  0.5534
  548MOL0     H75587   8.100   8.869   3.095 -1.1284  0.8201  1.9450
  548MOL0     H75588   7.999   8.792   3.283  2.5877 -0.4415 -1.4741
  548MOL0     H75589   8.145   8.814   3.387 -1.0392 -1.3560 -0.3248
  548MOL0     H75590   7.992   8.934   3.551 -1.7123 -0.4466  1.5683
  548MOL0     H75591   7.854   8.850   3.468  1.0565 -0.1518 -0.8011
  548MOL0     H75592   7.931   8.744   3.665  2.2125 -2.0501  0.7609
  548MOL0     H75593   8.089   8.741   3.590 -1.1975  1.7260  1.1564
  548MOL0     H75594   7.987   8.577   3.416  1.2921  3.0828 -0.3789
  548MOL0     H75595   7.835   8.584   3.494 -1.5131  0.9350  1.5395
  548MOL0     H75596   8.093   8.461   3.596  0.7151  1.0425  0.0788
  548MOL0     H75597   7.991   8.535   3.716 -1.9815 -0.6546 -0.2734
  548MOL0     H75598   7.894   8.326   3.513  0.0817  4.1225 -1.1585
  548MOL0     H75599   7.812   8.395   3.643 -0.7109 -2.8553 -1.6880
  548MOL0     H75600   8.083   8.292   3.726  0.5031 -0.5256  0.4667
  548MOL0     H75601   7.996   8.167   3.644 -0.5751 -0.4615 -0.0835
  548MOL0     H75602   7.907   8.324   3.900 -2.2090  2.0213 -1.7889
  548MOL0     H75603   7.970   8.154   3.885 -1.0228 -1.4364 -2.2657
  548MOL0     H75604   8.189   9.220   3.310  3.0047  0.4756  0.0519
  548MOL0     H75605   8.338   9.290   3.142 -1.3359  0.5423  2.4304
  548MOL0     H75606   8.520   9.552   2.953  1.5643 -1.0108  0.9003
  548MOL0     H75607   8.728   9.661   2.884 -1.0526  0.3859  0.9528
  548MOL0     H75608  10.540  10.543   2.988 -2.3613 -1.4822 -1.2504
  548MOL0     H75609  10.793  10.543   3.066  0.6554  0.3082 -0.7152
  548MOL0     H75610  11.188  10.130   3.340  1.6930 -0.1856  1.2151
  548MOL0     H75611  11.396  10.185   3.405  1.0618 -0.4875 -2.0469
  548MOL0     H75612  11.436  10.596   3.453  0.1227 -1.3682 -2.1832
  548MOL0     H75613  11.383  10.449   3.543  0.3758  0.1660  1.9751
  548MOL0     H75614  11.669  10.502   3.540  0.2578  0.6407 -1.2731
  548MOL0     H75615  11.566  10.433   3.666 -0.9224  0.0053 -1.8396
  548MOL0     H75616  11.581  10.731   3.595  1.5298  2.1020  1.1035
  548MOL0     H75617  11.473  10.685   3.726 -0.1426  2.7242  0.2522
  548MOL0     H75618  11.779  10.672   3.730 -0.3007 -3.0955 -0.5553
  548MOL0     H75619  11.681  10.593   3.858  3.0207 -0.2081  1.1626
  548MOL0     H75620  11.634  10.977   4.014 -2.3347  1.3551 -1.8080
  548MOL0     H75621  11.358  10.578   3.261  4.2258 -1.5610 -1.2238
  548MOL0     H75622  11.150  10.652   3.193 -0.4435  0.5831  4.5224
  548MOL0     H75623  11.057  10.546   3.072 -0.5876  3.4419 -0.8860
  548MOL0     H75624  11.008  10.574   3.243  0.9148 -0.5793  0.0841
  549MOL0     O75625   7.779   3.323   4.822 -0.7565 -0.0103  0.6668
  549MOL0     C75626   7.769   3.220   4.759 -0.9116  0.2002  0.1574
  549MOL0     O75627   7.701   3.113   4.805  0.3944 -0.0600 -0.4839
  549MOL0     C75628   7.633   3.124   4.922  0.7126  0.1896 -0.4882
  549MOL0     C75629   7.697   3.153   5.039  0.3617 -0.2662 -0.5257
  549MOL0     C75630   7.622   3.157   5.159 -0.0554  0.2013  0.0696
  549MOL0     C75631   7.478   3.137   5.163  0.3196  0.4787  0.5477
  549MOL0     O75632   7.391   3.158   5.269 -0.7385  0.5903 -0.1351
  549MOL0     C75633   7.436   3.224   5.388  0.3823  0.5215 -0.8503
  549MOL0     C75634   7.444   3.117   5.494 -0.5653  0.2527 -0.3706
  549MOL0     C75635   7.581   3.066   5.514  0.0472 -0.1538 -0.9980
  549MOL0     C75636   7.659   3.165   5.600  0.2409  0.4122 -0.1035
  549MOL0     C75637   7.762   3.246   5.520  0.9805 -0.5730  0.2790
  549MOL0     C75638   7.877   3.172   5.461  0.5019 -0.5325 -0.3844
  549MOL0     C75639   7.964   3.254   5.356  0.4217  0.4794 -0.9705
  549MOL0     C75640   8.029   3.160   5.254 -0.8177  0.2831 -0.1936
  549MOL0     N75641   8.106   3.238   5.161 -0.0917  0.8348 -0.3599
  549MOL0     C75642   8.237   3.268   5.174 -0.0579  0.1505  0.3493
  549MOL0     C75643   8.281   3.312   5.053  0.8979 -0.6023 -0.0256
  549MOL0     C75644   8.421   3.359   5.029  0.4504  0.3152 -0.3233
  549MOL0     C75645   8.447   3.507   5.091 -0.5479  0.3072 -0.4419
  549MOL0     C75646   8.591   3.538   5.074 -0.5710 -0.2745 -0.8972
  549MOL0     C75647   8.629   3.688   5.083 -0.2783 -0.2405  0.1851
  549MOL0     O75648   8.583   3.752   5.204 -0.1064 -0.2685  0.2502
  549MOL0     C75649   8.586   3.893   5.211  0.5765 -0.8864  0.5798
  549MOL0     C75650   8.618   3.989   5.118  0.3306  0.4804  0.4664
  549MOL0     C75651   8.655   4.118   5.147 -0.1984 -0.2780  0.1505
  549MOL0     C75652   8.737   4.191   5.040 -0.5761  0.1912  0.1088
  549MOL0     C75653   8.635   4.173   5.278 -0.3712 -0.5532  0.4582
  549MOL0     C75654   8.676   4.308   5.326 -0.0976  0.0077 -0.6945
  549MOL0     O75655   8.691   4.319   5.469 -0.3995 -0.0686  0.4851
  549MOL0     C75656   8.779   4.415   5.507 -0.1207  0.3008  0.1993
  549MOL0     C75657   8.903   4.448   5.448 -0.5857 -0.1435  0.3968
  549MOL0     C75658   8.973   4.570   5.478  0.2533  0.5958  0.1206
  549MOL0     C75659   8.926   4.650   5.585 -0.5252 -0.2063  0.2143
  549MOL0     O75660   9.002   4.766   5.612 -0.3749  0.5931  0.5505
  549MOL0     C75661   8.973   4.841   5.729 -0.2183  0.0552  0.5215
  549MOL0     C75662   9.112   4.857   5.791  0.9720  0.1472  0.7512
  549MOL0     C75663   9.203   4.937   5.695  0.3899 -0.2617  0.0303
  549MOL0     C75664   9.350   4.889   5.722 -0.9206  0.1024 -0.7752
  549MOL0     C75665   9.454   4.942   5.633  0.2604  0.2377  0.7702
  549MOL0     C75666   9.591   4.906   5.659 -0.2744  0.0169  0.5031
  549MOL0     C75667   9.682   4.968   5.553  0.0893 -0.6796  0.7868
  549MOL0     C75668   9.829   4.927   5.557  0.0461  0.6024  0.2256
  549MOL0    Cl75669   9.867   4.773   5.647  0.8997  0.1998 -0.1969
  549MOL0     C75670   8.802   4.608   5.647 -0.3523 -0.6776  0.2667
  549MOL0     C75671   8.727   4.494   5.595 -1.3469 -0.2653 -0.3319
  549MOL0     O75672   8.698   4.386   5.241 -0.7773  0.2150  0.2935
  549MOL0     C75673   8.569   4.083   5.364 -0.1961 -0.8091  0.6878
  549MOL0     C75674   8.542   3.957   5.328 -0.3905 -0.2532 -0.2556
  549MOL0     N75675   8.171   3.319   4.965  0.2790  0.2801  0.4823
  549MOL0     N75676   8.074   3.261   5.027  0.9347 -0.6177 -0.5412
  549MOL0     C75677   7.420   3.104   5.035 -1.6537 -0.0704 -0.8047
  549MOL0     C75678   7.493   3.102   4.920 -0.0472 -0.2279  0.4697
  549MOL0     C75679   7.803   3.210   4.612  0.5424  0.6348  0.3660
  549MOL0     C75680   7.709   3.134   4.524 -0.0330  0.3444 -1.0809
  549MOL0     C75681   7.736   3.126   4.394  0.2499 -0.5441 -0.0052
  549MOL0     C75682   7.853   3.159   4.339 -0.5912 -0.1845 -0.7085
  549MOL0     O75683   7.871   3.138   4.201 -0.4506 -0.2271  0.0999
  549MOL0     C75684   7.966   3.036   4.165  0.2671 -0.1588 -0.1316
  549MOL0     C75685   7.903   2.899   4.176  0.1171 -0.2211 -0.3903
  549MOL0     C75686   8.003   2.786   4.195 -0.1140  0.3245  0.3417
  549MOL0     C75687   7.946   2.652   4.220 -0.5445  0.1201 -0.2036
  549MOL0     C75688   8.037   2.552   4.163  0.8243 -0.3830 -0.0554
  549MOL0     C75689   8.119   2.471   4.135  0.4449  0.3116  0.0246
  549MOL0     C75690   7.938   3.227   4.417 -0.0199 -0.6022  0.2656
  549MOL0     C75691   7.924   3.257   4.553  0.1743 -0.3325 -0.1726
  549MOL0     C75692   8.018   3.334   4.636 -0.2472  0.6589  0.0257
  549MOL0     H75693   7.797   3.195   5.042 -0.6268  2.4693 -1.8298
  549MOL0     H75694   7.668   3.207   5.244 -1.7246  0.6604  0.7401
  549MOL0     H75695   7.361   3.299   5.415  1.2717  1.2656 -0.4102
  549MOL0     H75696   7.524   3.286   5.370  0.8076  0.5348  1.0659
  549MOL0     H75697   7.403   3.164   5.584  0.5147  0.9289 -0.2200
  549MOL0     H75698   7.379   3.037   5.456 -0.1525  1.4809 -3.9685
  549MOL0     H75699   7.582   2.968   5.562  1.4063  0.4054  0.2196
  549MOL0     H75700   7.626   3.038   5.418 -1.6099 -0.3543 -1.7397
  549MOL0     H75701   7.585   3.217   5.661  0.9816  2.9256 -1.2317
  549MOL0     H75702   7.725   3.112   5.671  2.2070  2.3321 -0.3935
  549MOL0     H75703   7.808   3.325   5.580 -2.1914 -0.5341  2.9375
  549MOL0     H75704   7.707   3.292   5.437 -0.4670  0.4868  1.7578
  549MOL0     H75705   7.939   3.143   5.546 -0.5878  3.5420  2.0812
  549MOL0     H75706   7.844   3.084   5.405  1.9420  0.3945 -2.8934
  549MOL0     H75707   8.053   3.300   5.402  0.8296 -1.5972  0.4408
  549MOL0     H75708   7.908   3.328   5.298  1.3324  2.7690  0.8934
  549MOL0     H75709   8.092   3.091   5.311  0.6873  1.0254 -0.9009
  549MOL0     H75710   7.956   3.096   5.203 -2.2466  1.9146 -0.2975
  549MOL0     H75711   8.298   3.257   5.263  2.3383 -0.0266 -1.2065
  549MOL0     H75712   8.446   3.345   4.924 -1.1307 -2.0573 -0.4734
  549MOL0     H75713   8.491   3.286   5.073 -0.8227 -0.7740 -0.0416
  549MOL0     H75714   8.395   3.584   5.032  1.5087  3.3574  1.4339
  549MOL0     H75715   8.419   3.505   5.196 -0.1982 -1.9820 -0.3361
  549MOL0     H75716   8.654   3.486   5.147 -0.9057  2.0988  1.2388
  549MOL0     H75717   8.610   3.512   4.970 -1.9985  2.6400 -1.9890
  549MOL0     H75718   8.738   3.688   5.073 -0.0582 -3.5297  1.2511
  549MOL0     H75719   8.573   3.730   4.999 -0.7067 -2.3366 -0.6390
  549MOL0     H75720   8.640   3.939   5.024 -1.9769 -2.4844  1.3411
  549MOL0     H75721   8.797   4.133   4.969 -0.3502  0.2546  0.2494
  549MOL0     H75722   8.810   4.259   5.085 -2.9787  2.1552  1.3189
  549MOL0     H75723   8.671   4.254   4.979 -0.6239 -0.7818 -0.8794
  549MOL0     H75724   8.944   4.389   5.366 -0.5331  0.6271 -0.1376
  549MOL0     H75725   9.066   4.593   5.426 -0.1556  0.0978 -0.8564
  549MOL0     H75726   8.933   4.943   5.725  1.5499  0.9181  2.5958
  549MOL0     H75727   8.892   4.798   5.789 -1.9142  0.6142 -1.2748
  549MOL0     H75728   9.119   4.907   5.888  2.0708  0.5374  0.4963
  549MOL0     H75729   9.149   4.754   5.797 -2.8758 -1.3253  1.7215
  549MOL0     H75730   9.190   5.045   5.705  1.5040 -0.0695 -0.3810
  549MOL0     H75731   9.184   4.901   5.593 -1.8749 -2.0969  1.0078
  549MOL0     H75732   9.345   4.781   5.706  0.8951 -0.1440  0.0865
  549MOL0     H75733   9.379   4.904   5.827  2.6999  0.1807 -1.6440
  549MOL0     H75734   9.431   4.898   5.536  0.2014  0.6263  0.6091
  549MOL0     H75735   9.456   5.051   5.635 -1.3433  0.2886  0.5794
  549MOL0     H75736   9.598   4.797   5.658  2.5821  0.1025  1.3344
  549MOL0     H75737   9.623   4.933   5.760  1.8380  1.0947 -0.3874
  549MOL0     H75738   9.664   5.075   5.538  1.0507 -0.9431 -3.2539
  549MOL0     H75739   9.648   4.932   5.456 -1.0131  0.7994  0.5855
  549MOL0     H75740   9.882   5.005   5.613 -1.1637  0.4948  1.5860
  549MOL0     H75741   9.874   4.937   5.458  1.0809 -0.2783  0.5889
  549MOL0     H75742   8.746   4.667   5.719 -0.5222 -0.9832  0.3838
  549MOL0     H75743   8.626   4.481   5.633 -2.1133 -0.2436 -2.2635
  549MOL0     H75744   8.530   4.104   5.463  0.7101  2.1694  0.4899
  549MOL0     H75745   8.470   3.898   5.384 -1.3010 -2.2565 -3.2635
  549MOL0     H75746   7.317   3.072   5.040 -0.9296 -2.6855 -1.3217
  549MOL0     H75747   7.441   3.075   4.829 -1.3256 -0.3203  1.2017
  549MOL0     H75748   7.611   3.098   4.553  1.6546 -2.8139  1.2935
  549MOL0     H75749   7.657   3.081   4.336 -1.9002  1.3620  1.3030
  549MOL0     H75750   8.005   3.044   4.064 -1.2941 -0.6623 -0.8098
  549MOL0     H75751   8.059   3.041   4.222 -0.7602  1.2879  1.5278
  549MOL0     H75752   7.849   2.871   4.085 -1.4515 -0.3987  0.5674
  549MOL0     H75753   7.829   2.902   4.257 -2.2340 -1.1868 -2.3570
  549MOL0     H75754   8.048   2.784   4.096  0.1713  3.2747  0.3214
  549MOL0     H75755   8.066   2.814   4.280  0.6947  2.4721 -0.8661
  549MOL0     H75756   7.843   2.660   4.184 -0.0034 -0.7849 -2.0117
  549MOL0     H75757   7.944   2.635   4.328  2.9408  0.3670 -0.0015
  549MOL0     H75758   8.196   2.398   4.119 -0.8215 -0.8895 -0.7113
  549MOL0     H75759   8.032   3.264   4.377  0.3477  1.0591  2.4659
  549MOL0     H75760   8.062   3.265   4.709  4.3923  2.4051 -0.8093
  549MOL0     H75761   8.099   3.363   4.569 -0.1327 -0.5100 -0.3734
  549MOL0     H75762   7.972   3.422   4.681 -0.8957  0.9655 -1.2035
  550MOL0     O75763   6.253   9.888   4.598  0.5076  0.8072  0.0333
  550MOL0     C75764   6.327   9.971   4.552  0.8550 -0.7096  0.3187
  550MOL0     O75765   6.315  10.106   4.569  0.0949 -0.0516 -0.3932
  550MOL0     C75766   6.203  10.153   4.639  1.3250  0.3620 -0.1562
  550MOL0     C75767   6.215  10.264   4.717  0.4924 -0.6801 -0.0705
  550MOL0     C75768   6.119  10.323   4.796  0.6416  0.3989 -0.4373
  550MOL0     C75769   5.986  10.276   4.781 -0.0687 -0.6801  0.6838
  550MOL0     O75770   5.882  10.334   4.848 -0.1716  0.3746  0.6000
  550MOL0     C75771   5.870  10.295   4.993  0.5600  0.7078 -0.4609
  550MOL0     C75772   5.727  10.322   5.044  1.1825  0.3136  0.0180
  550MOL0     C75773   5.703  10.465   5.086  0.1194 -1.4591 -0.2536
  550MOL0     C75774   5.558  10.506   5.116 -0.5547 -0.2215 -0.0550
  550MOL0     C75775   5.505  10.619   5.034 -0.0272 -0.4025 -1.3244
  550MOL0     C75776   5.563  10.764   5.069 -0.3509  0.2570 -0.3436
  550MOL0     C75777   5.506  10.878   4.989  0.5164  0.7347  0.2980
  550MOL0     C75778   5.356  10.903   5.018 -0.2841  0.2386  1.0237
  550MOL0     N75779   5.300  11.009   4.935  0.6282 -1.1330  0.5700
  550MOL0     C75780   5.252  10.991   4.806 -0.4441  0.2766  0.6601
  550MOL0     C75781   5.161  11.089   4.788  0.1232  0.5147 -1.1371
  550MOL0     C75782   5.091  11.133   4.663 -0.0458 -0.3481  0.4125
  550MOL0     C75783   4.943  11.181   4.684  0.0737 -0.3812  1.0541
  550MOL0     C75784   4.829  11.078   4.650  0.1340  0.2526  0.5955
  550MOL0     C75785   4.794  10.972   4.758 -0.5361  1.1869 -0.4461
  550MOL0     O75786   4.914  10.920   4.816  0.1473  0.5401 -0.3039
  550MOL0     C75787   4.938  10.787   4.795  0.8023 -0.2182  0.1456
  550MOL0     C75788   4.849  10.697   4.859 -1.1959  0.3256 -0.0683
  550MOL0     C75789   4.858  10.562   4.828  0.0879 -0.5719  0.2990
  550MOL0     C75790   4.760  10.470   4.903 -0.2265 -0.1192  0.0976
  550MOL0     C75791   4.948  10.519   4.725 -0.1195 -0.0412 -0.5270
  550MOL0     C75792   4.977  10.373   4.678  0.9496 -0.2368 -0.4558
  550MOL0     O75793   5.077  10.350   4.595  0.1624 -0.7307  0.1656
  550MOL0     C75794   5.099  10.223   4.547 -0.5036 -0.0535  0.6905
  550MOL0     C75795   5.034  10.191   4.429 -0.1369 -0.1206 -0.1322
  550MOL0     C75796   5.070  10.077   4.359  0.5709 -0.4552  0.1852
  550MOL0     C75797   5.157   9.983   4.399 -0.4515 -0.5076  0.6382
  550MOL0     O75798   5.190   9.882   4.313  0.0400 -0.0195 -0.1400
  550MOL0     C75799   5.287   9.780   4.354  0.8139  0.1151  0.0779
  550MOL0     C75800   5.310   9.683   4.242 -0.6239  0.4220  0.0156
  550MOL0     C75801   5.358   9.735   4.101  0.4001 -0.4181 -0.5261
  550MOL0     C75802   5.318   9.648   3.977 -0.8377  0.1454 -0.5311
  550MOL0     C75803   5.376   9.703   3.848  0.1895  0.5606  0.6336
  550MOL0     C75804   5.294   9.644   3.729 -0.0074  0.9864 -0.0450
  550MOL0     C75805   5.306   9.495   3.701 -0.3423  0.2720 -0.0161
  550MOL0     C75806   5.189   9.424   3.753  0.6352 -0.1860 -0.6690
  550MOL0    Cl75807   5.180   9.259   3.692  0.3585  0.0536  0.1736
  550MOL0     C75808   5.221  10.011   4.531  0.2544  0.4540  1.5835
  550MOL0     C75809   5.199  10.136   4.594  0.8557 -1.1842  0.9239
  550MOL0     O75810   4.917  10.288   4.739 -0.9574 -0.1254  0.2243
  550MOL0     C75811   5.038  10.613   4.679  0.7558  0.6630  0.3050
  550MOL0     C75812   5.029  10.752   4.698 -0.7786  0.0907 -0.2296
  550MOL0     N75813   5.168  11.167   4.902 -0.5125 -0.0817  0.1530
  550MOL0     N75814   5.243  11.113   4.991  1.3095  0.4945 -0.1314
  550MOL0     C75815   5.964  10.164   4.693  0.8506  0.1632 -0.4732
  550MOL0     C75816   6.068  10.108   4.623 -0.8996  0.4838 -0.4893
  550MOL0     C75817   6.450   9.926   4.489 -0.1241 -0.9878  0.1361
  550MOL0     C75818   6.522   9.814   4.532  0.4952  0.1612 -1.1338
  550MOL0     C75819   6.646   9.781   4.479 -0.6497 -0.6246  0.0198
  550MOL0     C75820   6.710   9.857   4.378 -0.4571  0.4821  0.6596
  550MOL0     O75821   6.830   9.824   4.324  0.1623 -0.2376  0.2739
  550MOL0     C75822   6.941   9.891   4.386  1.0482  0.1088  0.3622
  550MOL0     C75823   7.051   9.940   4.289  0.3463 -0.6137  0.6188
  550MOL0     C75824   6.988  10.024   4.186  0.4031  0.3147 -1.3140
  550MOL0     C75825   6.999  10.178   4.204  0.3294  1.0040  0.4737
  550MOL0     C75826   6.947  10.237   4.324 -0.3398 -0.0260 -0.7522
  550MOL0     C75827   6.920  10.274   4.438  0.0938  0.2879  0.0256
  550MOL0     C75828   6.638   9.965   4.334  0.4842  0.0932 -0.9455
  550MOL0     C75829   6.507   9.995   4.384 -0.2648 -0.4332 -0.0447
  550MOL0     C75830   6.433  10.101   4.315  0.0729 -0.3715  0.2950
  550MOL0     H75831   6.312  10.312   4.709 -0.6507  1.4723 -1.7483
  550MOL0     H75832   6.142  10.409   4.858  0.6336  1.6574 -2.1178
  550MOL0     H75833   5.945  10.351   5.050  2.2912 -2.2058  0.3261
  550MOL0     H75834   5.901  10.190   4.989  1.2020  0.9236 -1.8122
  550MOL0     H75835   5.654  10.287   4.970 -0.3911  1.3743  1.0153
  550MOL0     H75836   5.718  10.247   5.123  1.4809 -2.5856 -2.4884
  550MOL0     H75837   5.774  10.495   5.164  3.5335 -0.8647 -3.3365
  550MOL0     H75838   5.737  10.528   5.003 -3.5487 -1.6226 -2.0889
  550MOL0     H75839   5.494  10.418   5.113  0.3826 -0.8891 -1.6422
  550MOL0     H75840   5.560  10.550   5.216 -0.4629  3.8244 -1.6178
  550MOL0     H75841   5.396  10.635   5.034  0.1295  1.1753  0.9825
  550MOL0     H75842   5.515  10.584   4.931  2.1991  1.3869 -1.7948
  550MOL0     H75843   5.545  10.771   5.177 -0.1132 -1.7034 -0.1423
  550MOL0     H75844   5.670  10.763   5.049 -0.7183 -1.4102 -2.5921
  550MOL0     H75845   5.516  10.840   4.887  1.9526 -3.1414  1.7114
  550MOL0     H75846   5.558  10.971   5.015 -2.3891  1.9816  2.0936
  550MOL0     H75847   5.303  10.814   4.985 -0.4808  0.8329 -0.3230
  550MOL0     H75848   5.342  10.928   5.124  3.5315 -1.0831  2.0185
  550MOL0     H75849   5.296  10.918   4.738 -0.9238  2.3015 -1.9701
  550MOL0     H75850   5.081  11.054   4.587 -0.7748 -0.4327  0.5914
  550MOL0     H75851   5.156  11.207   4.615  0.3841 -0.9903 -0.0157
  550MOL0     H75852   4.931  11.229   4.782  1.5499  2.1423  0.0985
  550MOL0     H75853   4.930  11.255   4.604 -0.6456 -2.7331 -1.1333
  550MOL0     H75854   4.751  11.146   4.614  1.6845  2.4312  1.1859
  550MOL0     H75855   4.870  11.037   4.557 -1.5826  1.8660 -0.9727
  550MOL0     H75856   4.739  11.012   4.844 -1.0444 -3.9030  2.0004
  550MOL0     H75857   4.739  10.886   4.718  1.2222 -1.5772  2.5866
  550MOL0     H75858   4.777  10.733   4.931  0.3395 -1.0240  2.2601
  550MOL0     H75859   4.687  10.433   4.831 -1.6718  3.2816 -0.3645
  550MOL0     H75860   4.710  10.534   4.977 -0.4657  3.1903 -2.6941
  550MOL0     H75861   4.813  10.383   4.944  0.1060 -0.6615 -1.4236
  550MOL0     H75862   4.951  10.252   4.394  0.3985  0.8020  0.1817
  550MOL0     H75863   5.037  10.065   4.256 -3.3768  0.5738  1.1481
  550MOL0     H75864   5.379   9.832   4.382  0.3114  1.3563 -0.5180
  550MOL0     H75865   5.242   9.718   4.432  0.3058 -1.0013 -1.0762
  550MOL0     H75866   5.387   9.614   4.275 -0.3949  0.5332 -0.2768
  550MOL0     H75867   5.215   9.629   4.242  0.0215 -0.7390 -0.2240
  550MOL0     H75868   5.465   9.758   4.103  0.7873 -2.0132 -1.5779
  550MOL0     H75869   5.300   9.827   4.087  4.0513  2.2938  0.4390
  550MOL0     H75870   5.208   9.649   3.983 -0.8839 -0.3774 -1.1243
  550MOL0     H75871   5.358   9.549   4.002 -1.4384  0.2651  0.9605
  550MOL0     H75872   5.368   9.812   3.841 -0.1188  0.4333 -1.9442
  550MOL0     H75873   5.483   9.679   3.847  0.2648  0.8820  0.7287
  550MOL0     H75874   5.303   9.686   3.629  1.3830  1.2090  0.1525
  550MOL0     H75875   5.195   9.677   3.760 -0.1581 -0.0555  0.6596
  550MOL0     H75876   5.395   9.443   3.737  0.0517  1.2708  0.4965
  550MOL0     H75877   5.306   9.476   3.593 -2.2026 -0.4879  0.0878
  550MOL0     H75878   5.099   9.474   3.718  1.6594  0.9252 -1.8014
  550MOL0     H75879   5.198   9.425   3.862  0.4472 -0.3089 -0.6527
  550MOL0     H75880   5.299   9.948   4.572 -1.3918 -3.3000 -0.4532
  550MOL0     H75881   5.248  10.170   4.685 -1.2047  3.5433  0.5707
  550MOL0     H75882   5.114  10.571   4.613 -0.3273 -1.0531  0.0881
  550MOL0     H75883   5.086  10.815   4.631 -0.6675 -2.5776 -2.8177
  550MOL0     H75884   5.870  10.111   4.685  0.7610  0.3413 -0.6275
  550MOL0     H75885   6.051  10.025   4.555 -2.6081  1.6097 -1.5270
  550MOL0     H75886   6.479   9.749   4.608  0.1690 -0.5272 -1.8920
  550MOL0     H75887   6.700   9.693   4.513 -1.8189 -1.2910  0.2041
  550MOL0     H75888   6.915   9.976   4.450  1.6456  1.7069 -1.4012
  550MOL0     H75889   6.996   9.833   4.460  0.5204 -1.1328 -0.2007
  550MOL0     H75890   7.102   9.853   4.245  0.4678 -1.1378  1.7483
  550MOL0     H75891   7.117   9.998   4.354 -1.8039  0.5211  1.8863
  550MOL0     H75892   7.026   9.997   4.087 -0.1301 -1.3999 -1.0949
  550MOL0     H75893   6.881  10.008   4.168  0.0749  0.6912  0.1849
  550MOL0     H75894   6.948  10.229   4.121  3.0478  2.2479 -0.5486
  550MOL0     H75895   7.104  10.208   4.200  0.7828 -0.1134  2.6582
  550MOL0     H75896   6.901  10.318   4.534 -0.7328  0.3231 -0.1470
  550MOL0     H75897   6.690  10.037   4.271  0.5577  0.8606 -0.0297
  550MOL0     H75898   6.324  10.094   4.318 -0.0822  0.9356 -0.8186
  550MOL0     H75899   6.462  10.192   4.368 -2.2865  0.4758  0.2644
  550MOL0     H75900   6.460  10.105   4.209 -0.9162  2.5177  0.0559
  551MOL0     O75901   7.518   3.444   1.869 -0.4702 -0.5890  0.6456
  551MOL0     C75902   7.591   3.350   1.902 -0.2160 -0.5190  0.2879
  551MOL0     O75903   7.715   3.325   1.852 -0.0646 -0.4879  0.1535
  551MOL0     C75904   7.770   3.385   1.740 -1.4248  0.2749  0.3043
  551MOL0     C75905   7.908   3.405   1.739  0.3944 -0.1600 -0.1056
  551MOL0     C75906   7.962   3.476   1.636 -0.0950  0.6635  0.3047
  551MOL0     C75907   7.897   3.511   1.516 -0.2041  0.0065 -0.5932
  551MOL0     O75908   7.962   3.587   1.419  0.0601 -0.1536 -0.1677
  551MOL0     C75909   7.883   3.620   1.300 -0.3457 -0.2516 -0.1891
  551MOL0     C75910   7.966   3.693   1.199  0.8914  0.5401 -0.4365
  551MOL0     C75911   8.087   3.619   1.136  0.9250 -0.1856 -0.6444
  551MOL0     C75912   8.100   3.466   1.134 -0.2269  0.2455 -0.6271
  551MOL0     C75913   8.234   3.433   1.081  0.4943 -0.1390 -0.9571
  551MOL0     C75914   8.233   3.411   0.922  0.9928  0.1551  0.2613
  551MOL0     C75915   8.374   3.394   0.862 -0.1053  0.2797 -0.4415
  551MOL0     C75916   8.470   3.286   0.916 -0.0827 -0.4414  0.1151
  551MOL0     N75917   8.592   3.304   0.841  0.0256 -0.0729  0.0150
  551MOL0     C75918   8.603   3.229   0.731  0.2527 -0.9327  0.5747
  551MOL0     C75919   8.719   3.274   0.679  0.5446  0.2308 -0.2219
  551MOL0     C75920   8.784   3.204   0.566  0.1892 -1.0485  1.1504
  551MOL0     C75921   8.867   3.288   0.468  0.2512 -0.2847  0.1036
  551MOL0     C75922   8.780   3.341   0.351  0.6744  0.2460 -0.3655
  551MOL0     C75923   8.674   3.440   0.392  0.4808 -0.5366  0.2104
  551MOL0     O75924   8.555   3.378   0.442 -0.1171 -0.1710  0.3443
  551MOL0     C75925   8.448   3.457   0.473  0.2146 -1.2154 -0.5075
  551MOL0     C75926   8.322   3.396   0.472  0.3808  0.9572  0.5538
  551MOL0     C75927   8.214   3.449   0.537 -0.3178 -1.4098  0.4882
  551MOL0     C75928   8.090   3.365   0.550 -1.1231  0.2997 -0.0712
  551MOL0     C75929   8.220   3.585   0.578  0.8929 -0.2316 -0.2914
  551MOL0     C75930   8.092   3.650   0.626  0.4250  0.1625 -0.2227
  551MOL0     O75931   8.113   3.758   0.707  0.1549 -0.0731 -0.2389
  551MOL0     C75932   8.028   3.869   0.699 -0.3534  0.3731 -0.1364
  551MOL0     C75933   7.968   3.918   0.812  0.0030  0.1741 -0.4381
  551MOL0     C75934   7.890   4.033   0.808 -0.6893 -0.4256  0.1255
  551MOL0     C75935   7.877   4.102   0.690  0.4939  0.1237  0.3726
  551MOL0     O75936   7.806   4.225   0.691  0.0280  0.6462  0.0861
  551MOL0     C75937   7.857   4.347   0.639  0.6713  0.1458  1.3036
  551MOL0     C75938   7.853   4.466   0.730 -0.5879 -0.7283  0.1064
  551MOL0     C75939   7.925   4.445   0.859  0.6503  0.4651  0.4070
  551MOL0     C75940   7.890   4.563   0.947 -0.0317  0.5895  0.7896
  551MOL0     C75941   7.892   4.535   1.090 -0.2730 -0.0545 -0.3244
  551MOL0     C75942   7.761   4.469   1.124 -0.2320  0.2194 -0.0167
  551MOL0     C75943   7.791   4.398   1.262 -0.2674 -0.2696  0.3221
  551MOL0     C75944   7.671   4.373   1.344  0.1192 -0.6916  0.1003
  551MOL0    Cl75945   7.736   4.280   1.489 -0.0026 -0.4385  0.1454
  551MOL0     C75946   7.928   4.044   0.568  0.5800 -0.2228 -0.3793
  551MOL0     C75947   8.006   3.929   0.567 -0.9188  0.0794 -0.1373
  551MOL0     O75948   7.983   3.626   0.571 -0.3842 -0.2774 -0.7941
  551MOL0     C75949   8.339   3.659   0.574 -0.6986  0.2746  0.3784
  551MOL0     C75950   8.453   3.586   0.526  1.0520 -0.0676 -0.3728
  551MOL0     N75951   8.774   3.384   0.754 -0.4353  0.4919  0.2186
  551MOL0     N75952   8.698   3.398   0.857  0.4206 -0.1012 -0.3457
  551MOL0     C75953   7.762   3.474   1.511  1.1219 -0.3512 -0.2967
  551MOL0     C75954   7.695   3.417   1.630 -0.2693  0.3986  0.8140
  551MOL0     C75955   7.541   3.264   2.015 -0.3283 -0.4878 -0.3442
  551MOL0     C75956   7.645   3.178   2.066 -0.6405  0.6855 -0.2610
  551MOL0     C75957   7.627   3.104   2.188 -0.2625 -0.6127  1.4344
  551MOL0     C75958   7.510   3.115   2.254 -0.2811  0.3251 -0.4786
  551MOL0     O75959   7.488   3.051   2.371 -0.1953 -0.6471 -0.1852
  551MOL0     C75960   7.368   2.984   2.387 -0.2521 -0.0316 -0.6156
  551MOL0     C75961   7.333   2.884   2.266  0.5584 -0.2044  0.0478
  551MOL0     C75962   7.230   2.767   2.305 -0.3260 -0.0927  0.4155
  551MOL0     C75963   7.286   2.669   2.404 -0.2059  0.1488  0.2549
  551MOL0     C75964   7.180   2.579   2.448 -0.4300  0.4120  0.2473
  551MOL0     C75965   7.084   2.512   2.477 -1.1636 -0.4507  0.0866
  551MOL0     C75966   7.407   3.197   2.197 -0.5679  0.9389 -0.3942
  551MOL0     C75967   7.419   3.272   2.083 -0.2849  0.8276  0.1508
  551MOL0     C75968   7.312   3.365   2.047 -0.2775  0.7263 -0.8523
  551MOL0     H75969   7.973   3.377   1.821  2.0136 -3.5798 -2.3067
  551MOL0     H75970   8.065   3.508   1.638 -0.1762  1.1188 -1.4644
  551MOL0     H75971   7.797   3.680   1.333  0.8010  0.1088  2.3700
  551MOL0     H75972   7.852   3.527   1.251 -2.7111  0.1530  0.4020
  551MOL0     H75973   7.914   3.712   1.105  1.3791 -4.1727 -1.8845
  551MOL0     H75974   8.002   3.789   1.238 -1.0028  1.1148  0.0025
  551MOL0     H75975   8.097   3.659   1.035 -0.3626  0.4440 -0.5366
  551MOL0     H75976   8.175   3.661   1.187  0.5406  0.8855 -0.8255
  551MOL0     H75977   8.104   3.431   1.238 -2.5621  0.6615 -0.3337
  551MOL0     H75978   8.014   3.425   1.081 -1.0807  1.1863 -0.0176
  551MOL0     H75979   8.241   3.336   1.132 -4.9440  0.0879  0.8564
  551MOL0     H75980   8.316   3.498   1.113 -0.3919  0.7084 -0.3545
  551MOL0     H75981   8.174   3.319   0.911 -0.1659  0.6132  2.1039
  551MOL0     H75982   8.175   3.494   0.882  0.8634  0.9084  1.8973
  551MOL0     H75983   8.430   3.487   0.870  2.0996 -1.0890  1.3883
  551MOL0     H75984   8.354   3.376   0.756  0.5165 -4.0026 -0.0214
  551MOL0     H75985   8.474   3.294   1.025 -0.7468 -0.3670  0.1367
  551MOL0     H75986   8.427   3.188   0.893 -2.0780  0.5731 -0.6788
  551MOL0     H75987   8.535   3.158   0.686  0.4363 -2.0460  1.9779
  551MOL0     H75988   8.708   3.152   0.506 -0.0944  2.8932 -2.4130
  551MOL0     H75989   8.841   3.129   0.621 -3.0811 -3.3770  1.6669
  551MOL0     H75990   8.912   3.373   0.520  0.9254  0.1629 -1.1773
  551MOL0     H75991   8.941   3.214   0.437 -0.6987 -1.2173 -0.0161
  551MOL0     H75992   8.842   3.402   0.285  2.2158  0.6231  1.3533
  551MOL0     H75993   8.732   3.259   0.297 -2.5152 -3.6282  6.9285
  551MOL0     H75994   8.715   3.500   0.474 -1.5528  3.2638 -1.3199
  551MOL0     H75995   8.651   3.513   0.314  0.0597 -3.0240 -2.1350
  551MOL0     H75996   8.312   3.294   0.436  1.9913  0.8915  0.2530
  551MOL0     H75997   8.090   3.272   0.492 -2.7769  2.1089 -3.2514
  551MOL0     H75998   8.001   3.414   0.510 -0.3582  2.0332  0.2444
  551MOL0     H75999   8.071   3.332   0.653  1.7880 -3.0708 -0.4191
  551MOL0     H76000   7.964   3.861   0.904 -1.3662 -0.1375 -0.6742
  551MOL0     H76001   7.840   4.080   0.892 -0.2186  1.5213 -0.6390
  551MOL0     H76002   7.957   4.340   0.596 -0.0420 -0.2533 -0.3764
  551MOL0     H76003   7.794   4.381   0.556  1.7899  0.8521  0.7192
  551MOL0     H76004   7.879   4.565   0.691  0.8286  0.7936  4.3988
  551MOL0     H76005   7.748   4.482   0.755 -0.2330  3.3193 -0.3087
  551MOL0     H76006   8.034   4.451   0.850  0.4556  1.3199 -2.8368
  551MOL0     H76007   7.895   4.353   0.911  0.9930 -0.7301 -1.3939
  551MOL0     H76008   7.792   4.606   0.925 -0.6221 -0.5359  1.1682
  551MOL0     H76009   7.970   4.634   0.923  1.6626 -1.0727  1.2584
  551MOL0     H76010   7.978   4.474   1.119  0.4844  0.3178 -1.7391
  551MOL0     H76011   7.893   4.625   1.152 -0.4884 -0.9661  1.0675
  551MOL0     H76012   7.730   4.388   1.057 -0.2604  0.9943 -0.9585
  551MOL0     H76013   7.679   4.542   1.127  0.9432  1.5765  2.1248
  551MOL0     H76014   7.844   4.473   1.322  1.0884  0.4244 -1.6277
  551MOL0     H76015   7.845   4.304   1.255 -0.5306 -0.4128  0.1974
  551MOL0     H76016   7.602   4.322   1.278 -1.0224 -1.3276  1.7317
  551MOL0     H76017   7.629   4.470   1.374  0.7156 -0.0796 -0.9833
  551MOL0     H76018   7.904   4.090   0.472 -2.7652 -0.2326  0.3289
  551MOL0     H76019   8.048   3.888   0.476 -0.0312 -1.1250  0.7739
  551MOL0     H76020   8.337   3.763   0.606  3.0127  1.1240 -1.5868
  551MOL0     H76021   8.541   3.647   0.547 -0.5448  2.6465 -1.0650
  551MOL0     H76022   7.708   3.492   1.419  1.2238 -0.9640 -0.4847
  551MOL0     H76023   7.587   3.407   1.643 -0.5381  2.8516  0.8701
  551MOL0     H76024   7.749   3.170   2.035  0.5165 -2.5793  3.5037
  551MOL0     H76025   7.713   3.055   2.232  2.6109  2.4104 -0.2965
  551MOL0     H76026   7.374   2.935   2.485 -0.8286  0.1937 -0.4648
  551MOL0     H76027   7.290   3.060   2.399  1.5900  1.5731  2.4618
  551MOL0     H76028   7.421   2.825   2.238  1.2806  1.1744 -0.7046
  551MOL0     H76029   7.292   2.945   2.185 -2.0940 -2.5329 -0.5245
  551MOL0     H76030   7.137   2.816   2.334 -0.6865  0.2438 -1.2306
  551MOL0     H76031   7.214   2.708   2.214  0.4315 -1.1006  0.9100
  551MOL0     H76032   7.320   2.732   2.486  3.8218  0.9123 -1.7382
  551MOL0     H76033   7.370   2.618   2.356  0.2694 -0.7575  1.9640
  551MOL0     H76034   7.004   2.443   2.496 -2.4904  1.0321  0.0913
  551MOL0     H76035   7.313   3.217   2.247 -0.2548  2.2973 -0.3167
  551MOL0     H76036   7.231   3.370   2.120 -0.6026 -0.5858 -1.0880
  551MOL0     H76037   7.357   3.465   2.048 -2.1056  1.5794 -0.0374
  551MOL0     H76038   7.259   3.355   1.952 -2.9872  0.1481  0.6402
  552MOL0     O76039   0.756  11.496   9.521  0.4880  1.1805 -0.2750
  552MOL0     C76040   0.672  11.587   9.542  0.0469 -0.7398  0.5817
  552MOL0     O76041   0.545  11.567   9.573  0.4657 -0.2222  0.2325
  552MOL0     C76042   0.500  11.440   9.548 -0.1166 -0.0379 -0.3475
  552MOL0     C76043   0.524  11.328   9.629 -0.5770  0.2853  0.1795
  552MOL0     C76044   0.475  11.199   9.605  1.0555  0.4176  0.5577
  552MOL0     C76045   0.374  11.174   9.505 -0.9512 -0.6236 -0.5943
  552MOL0     O76046   0.310  11.053   9.502 -0.7033 -0.0702  0.0067
  552MOL0     C76047   0.305  10.976   9.628  1.2862 -1.2419 -0.5253
  552MOL0     C76048   0.341  10.831   9.615 -0.0812 -0.2615 -1.1305
  552MOL0     C76049   0.486  10.818   9.581  0.0313 -0.5002 -0.1416
  552MOL0     C76050   0.536  10.670   9.564 -1.5470  0.4846  0.5983
  552MOL0     C76051   0.691  10.674   9.572 -0.8216 -0.0773 -0.2214
  552MOL0     C76052   0.740  10.531   9.577  0.2626 -0.8184  0.1984
  552MOL0     C76053   0.895  10.522   9.563 -0.0811 -0.4805  0.3069
  552MOL0     C76054   0.964  10.578   9.687 -0.5822  0.9342  0.0485
  552MOL0     N76055   1.108  10.603   9.681 -0.0738 -0.5083  1.1040
  552MOL0     C76056   1.170  10.693   9.759 -0.3707 -0.2784  0.3342
  552MOL0     C76057   1.292  10.643   9.769 -0.3404  0.0534 -1.0879
  552MOL0     C76058   1.411  10.683   9.841 -0.1091  0.1970  0.0803
  552MOL0     C76059   1.481  10.801   9.773  1.3926  0.9083 -0.5672
  552MOL0     C76060   1.551  10.900   9.870 -0.3450  0.1440  0.4327
  552MOL0     C76061   1.632  11.001   9.788 -0.0787  0.8773 -0.1486
  552MOL0     O76062   1.722  11.072   9.876 -0.3710  0.1231 -0.3129
  552MOL0     C76063   1.703  11.207   9.897 -0.3067 -0.6454 -0.0210
  552MOL0     C76064   1.678  11.294   9.791 -0.2952  0.4904 -0.3004
  552MOL0     C76065   1.648  11.427   9.817  0.0137  0.6097 -0.5435
  552MOL0     C76066   1.584  11.499   9.707  0.6474 -0.3398  0.3576
  552MOL0     C76067   1.673  11.484   9.940 -0.0739  0.2605 -0.4061
  552MOL0     C76068   1.657  11.626   9.986  0.1630  0.6947 -0.4749
  552MOL0     O76069   1.636  11.651  10.122  0.5227  0.0998  0.1926
  552MOL0     C76070   1.601  11.773  10.166  0.9757 -1.2991  0.3979
  552MOL0     C76071   1.686  11.884  10.169 -0.5900  0.6825 -0.1544
  552MOL0     C76072   1.641  12.017  10.191 -1.4064  0.4470 -1.1937
  552MOL0     C76073   1.506  12.051  10.189 -0.4583 -0.2044  0.2216
  552MOL0     O76074   1.463  12.177  10.161  0.8654 -0.4717  0.4869
  552MOL0     C76075   1.323  12.193  10.136  0.3441 -0.3291 -0.4376
  552MOL0     C76076   1.296  12.342  10.111 -0.4790 -0.8168  0.2746
  552MOL0     C76077   1.156  12.388  10.069 -0.4013 -0.3128 -0.1075
  552MOL0     C76078   1.055  12.356  10.181 -0.7957 -0.3413  0.9036
  552MOL0     C76079   0.953  12.245  10.150 -0.5499 -0.3262  1.3846
  552MOL0     C76080   0.869  12.206  10.274  0.3439  0.9617 -0.0122
  552MOL0     C76081   0.788  12.314  10.339  0.6239 -0.3341  0.2920
  552MOL0     C76082   0.654  12.327  10.276  0.7263 -0.0834 -0.2005
  552MOL0    Cl76083   0.527  12.195  10.315  0.2852  0.0057  0.3147
  552MOL0     C76084   1.424  11.939  10.216  1.4075 -0.3123 -0.3971
  552MOL0     C76085   1.465  11.802  10.191  0.0111  0.3057 -0.9397
  552MOL0     O76086   1.654  11.712   9.893 -0.4966 -0.2087 -0.7939
  552MOL0     C76087   1.729  11.401  10.034 -1.0655  0.3475  0.4465
  552MOL0     C76088   1.731  11.261  10.019 -0.6233  0.1269 -0.4173
  552MOL0     N76089   1.318  10.540   9.680 -0.9014 -0.5515  0.7260
  552MOL0     N76090   1.201  10.524   9.615 -0.7655  0.6171  0.1202
  552MOL0     C76091   0.358  11.281   9.421  0.5103 -0.1019  0.6036
  552MOL0     C76092   0.413  11.414   9.445 -0.5543 -0.0296  1.4772
  552MOL0     C76093   0.719  11.730   9.545 -0.7330 -0.2283  0.5558
  552MOL0     C76094   0.809  11.764   9.433  0.0412 -0.4698 -0.2879
  552MOL0     C76095   0.865  11.886   9.418 -0.1123  1.0780  0.6043
  552MOL0     C76096   0.828  11.987   9.502 -0.1867  0.8521 -0.2752
  552MOL0     O76097   0.883  12.107   9.486 -0.0079 -0.7673 -0.2975
  552MOL0     C76098   0.964  12.145   9.600  0.3950 -0.5853  0.7473
  552MOL0     C76099   1.117  12.164   9.562  1.1288  0.1983  0.2444
  552MOL0     C76100   1.197  12.035   9.605  0.5341 -0.0601  0.3785
  552MOL0     C76101   1.236  12.016   9.758 -0.1038  0.5384  0.3584
  552MOL0     C76102   1.129  11.968   9.848  0.2686  0.8041  0.1955
  552MOL0     C76103   1.045  11.924   9.925 -0.7337 -0.1501  0.2162
  552MOL0     C76104   0.747  11.959   9.618  0.9575  0.4078  0.0797
  552MOL0     C76105   0.695  11.823   9.640  0.7433  0.0048  0.1055
  552MOL0     C76106   0.610  11.796   9.758  0.2234  0.4366 -1.3424
  552MOL0     H76107   0.609  11.346   9.694  1.1982 -0.5794 -1.7658
  552MOL0     H76108   0.522  11.127   9.671  2.9163  2.1873  1.2429
  552MOL0     H76109   0.199  10.981   9.652  1.5798 -1.1925  0.8242
  552MOL0     H76110   0.349  11.027   9.715 -1.9738 -1.2013  1.2600
  552MOL0     H76111   0.319  10.785   9.712 -2.9071 -0.9007 -1.9562
  552MOL0     H76112   0.279  10.774   9.545 -0.9376  1.5226 -1.8921
  552MOL0     H76113   0.519  10.870   9.491  1.2606  3.6533  2.4205
  552MOL0     H76114   0.555  10.862   9.653  1.4482 -0.5809 -1.4005
  552MOL0     H76115   0.490  10.608   9.641 -2.5366  1.4712  0.8312
  552MOL0     H76116   0.511  10.633   9.464  4.2074  0.8800 -1.3961
  552MOL0     H76117   0.717  10.728   9.663  0.0226  0.6717 -0.8885
  552MOL0     H76118   0.720  10.727   9.481 -1.5028 -0.7301 -0.8327
  552MOL0     H76119   0.714  10.502   9.679 -0.7158  1.7137  0.7470
  552MOL0     H76120   0.694  10.468   9.500 -1.9405 -0.4915  1.1805
  552MOL0     H76121   0.942  10.575   9.480  0.3599  0.5599  1.2047
  552MOL0     H76122   0.926  10.417   9.559 -1.0553 -0.7383 -2.3933
  552MOL0     H76123   0.904  10.663   9.722  2.9943  3.0156  1.6824
  552MOL0     H76124   0.953  10.501   9.764 -2.9670  1.1602  0.0260
  552MOL0     H76125   1.122  10.768   9.821 -0.9475  0.8726 -1.4187
  552MOL0     H76126   1.493  10.612   9.854  1.2237  2.1496  3.9045
  552MOL0     H76127   1.385  10.718   9.941  1.3899  2.2462 -0.1883
  552MOL0     H76128   1.553  10.771   9.696  0.9725  1.6708 -1.2773
  552MOL0     H76129   1.403  10.861   9.725  1.5209  0.0142 -1.9470
  552MOL0     H76130   1.475  10.934   9.940  0.7598  1.2795  1.1188
  552MOL0     H76131   1.620  10.845   9.934  0.9761  2.6602  1.3092
  552MOL0     H76132   1.698  10.946   9.720  1.6037  1.8771  0.6135
  552MOL0     H76133   1.563  11.062   9.729 -1.2575  0.6459  0.9564
  552MOL0     H76134   1.673  11.254   9.690 -0.8747  0.9786 -0.4698
  552MOL0     H76135   1.521  11.438   9.642 -1.3510  1.7529  0.1868
  552MOL0     H76136   1.660  11.553   9.650 -1.1710 -0.1269 -1.9884
  552MOL0     H76137   1.513  11.578   9.736 -1.3925 -1.7485 -0.5789
  552MOL0     H76138   1.790  11.866  10.145 -1.5695 -1.2154 -3.6360
  552MOL0     H76139   1.713  12.098  10.178 -1.4935  0.4696 -1.5394
  552MOL0     H76140   1.290  12.142  10.045 -0.5689 -2.8401  1.1886
  552MOL0     H76141   1.255  12.161  10.215  0.7484 -0.9729 -0.3473
  552MOL0     H76142   1.339  12.392  10.199 -2.0836 -0.7794  1.0643
  552MOL0     H76143   1.367  12.363  10.030  1.6275 -2.0546  1.6758
  552MOL0     H76144   1.132  12.339   9.974 -0.4828  0.1417 -0.3261
  552MOL0     H76145   1.146  12.495  10.046 -1.0620 -0.7658 -2.2099
  552MOL0     H76146   1.015  12.452  10.215  4.5747  2.8333 -0.3939
  552MOL0     H76147   1.115  12.335  10.270 -1.3577  1.4744  1.7566
  552MOL0     H76148   0.877  12.276  10.078  0.1561 -0.6135  0.5114
  552MOL0     H76149   0.992  12.148  10.119 -2.7964 -0.8390 -0.0333
  552MOL0     H76150   0.944  12.170  10.345  0.8515 -0.5067 -1.2243
  552MOL0     H76151   0.805  12.121  10.248  0.3391  1.2094 -0.8421
  552MOL0     H76152   0.838  12.412  10.337  0.9546 -0.3781  2.8742
  552MOL0     H76153   0.762  12.291  10.443 -0.1575 -2.6848 -0.3653
  552MOL0     H76154   0.669  12.339  10.168  4.6131 -1.5633  0.0307
  552MOL0     H76155   0.613  12.426  10.297 -1.6575 -0.8569 -0.9003
  552MOL0     H76156   1.316  11.947  10.220  1.4600  0.7143 -0.5685
  552MOL0     H76157   1.385  11.731  10.173  0.2214 -1.5898  4.1659
  552MOL0     H76158   1.774  11.439  10.126  2.2739  1.0108 -1.3114
  552MOL0     H76159   1.762  11.206  10.108 -0.9192  2.0858  0.9437
  552MOL0     H76160   0.302  11.255   9.332 -0.3479  1.7809  0.5381
  552MOL0     H76161   0.381  11.497   9.382 -0.1773 -0.9221  0.0577
  552MOL0     H76162   0.826  11.681   9.366 -0.0752 -0.9720  0.2988
  552MOL0     H76163   0.933  11.905   9.335  0.5855 -4.1323 -0.3622
  552MOL0     H76164   0.921  12.237   9.642 -4.4359 -2.7235  1.1294
  552MOL0     H76165   0.969  12.073   9.682  4.5401  1.7713  2.8907
  552MOL0     H76166   1.163  12.247   9.616  0.4396  0.6188  0.2058
  552MOL0     H76167   1.132  12.176   9.454 -2.7286 -1.0935 -0.5990
  552MOL0     H76168   1.155  11.943   9.563  0.0581 -0.2662  1.2807
  552MOL0     H76169   1.292  12.046   9.553  1.8920 -0.4619  2.6313
  552MOL0     H76170   1.267  12.112   9.801 -1.9828  1.9845 -1.2790
  552MOL0     H76171   1.318  11.944   9.758 -2.2692 -2.0923 -0.0760
  552MOL0     H76172   0.981  11.887  10.003  0.2053 -1.7980  0.2423
  552MOL0     H76173   0.737  12.019   9.707  1.7239  1.2285 -0.3747
  552MOL0     H76174   0.657  11.843   9.845  2.4345 -1.3929 -1.4748
  552MOL0     H76175   0.505  11.827   9.749  0.5071  0.8816 -3.8908
  552MOL0     H76176   0.605  11.687   9.765 -0.7889  0.5174 -0.4425
  553MOL0     O76177   8.860   7.108   8.760  0.2297 -0.5651  0.6870
  553MOL0     C76178   8.798   7.015   8.709 -0.2572  0.6943 -0.6466
  553MOL0     O76179   8.683   6.965   8.764  0.1449  0.2725  0.1086
  553MOL0     C76180   8.658   6.995   8.892  0.8500 -0.0914  0.1782
  553MOL0     C76181   8.722   6.941   9.004  0.8072  0.0450 -0.6788
  553MOL0     C76182   8.685   6.984   9.140  0.3195  0.2164 -0.8642
  553MOL0     C76183   8.583   7.072   9.160  0.9533  0.2220  0.2636
  553MOL0     O76184   8.554   7.108   9.283 -0.0995 -0.2521  0.0431
  553MOL0     C76185   8.559   7.251   9.299 -0.8137 -0.2938 -0.2535
  553MOL0     C76186   8.583   7.302   9.445 -0.3279  0.4493 -0.4257
  553MOL0     C76187   8.465   7.310   9.541  0.5091  0.5308 -0.1092
  553MOL0     C76188   8.507   7.342   9.687  0.4587  0.8676  0.2089
  553MOL0     C76189   8.593   7.230   9.749  0.2573 -0.1372 -0.3096
  553MOL0     C76190   8.630   7.245   9.897  0.2762  0.4414  0.1887
  553MOL0     C76191   8.512   7.197   9.989  0.1040 -0.0125 -0.1909
  553MOL0     C76192   8.500   7.247  10.136 -0.3512 -0.1123 -1.1314
  553MOL0     N76193   8.483   7.392  10.144 -0.2238 -0.7002 -0.5108
  553MOL0     C76194   8.372   7.470  10.104  0.3937 -0.2707 -0.1913
  553MOL0     C76195   8.422   7.601  10.123  1.1167 -0.5486 -0.7799
  553MOL0     C76196   8.343   7.735  10.097  0.3143 -0.1472  0.0235
  553MOL0     C76197   8.240   7.763  10.210 -1.1858  0.2474  0.8322
  553MOL0     C76198   8.124   7.650  10.207 -0.4764  0.2769 -0.2201
  553MOL0     C76199   7.987   7.697  10.265  0.1812  0.2910 -0.3592
  553MOL0     O76200   7.901   7.581  10.260  0.1975 -0.3349  0.5489
  553MOL0     C76201   7.770   7.605  10.300 -0.7922  1.4180 -0.2444
  553MOL0     C76202   7.673   7.643  10.211  0.5696  0.0867  0.2346
  553MOL0     C76203   7.533   7.667  10.238 -0.0775  0.0802  0.2262
  553MOL0     C76204   7.451   7.736  10.122 -0.1586 -0.6740 -0.0048
  553MOL0     C76205   7.492   7.635  10.365 -0.5953  0.5948 -1.3602
  553MOL0     C76206   7.349   7.662  10.405 -0.5947  1.2600  0.4685
  553MOL0     O76207   7.328   7.678  10.540  0.7837  0.0158 -0.2275
  553MOL0     C76208   7.207   7.637  10.595 -0.3353  0.5269 -0.3528
  553MOL0     C76209   7.080   7.696  10.558 -1.6315  0.9348 -0.7921
  553MOL0     C76210   6.962   7.665  10.622 -0.5914  0.2266  0.1612
  553MOL0     C76211   6.963   7.590  10.732  0.3573  0.0890  0.5436
  553MOL0     O76212   6.848   7.557  10.805 -0.0662  1.0412  1.0837
  553MOL0     C76213   6.729   7.609  10.773  0.9683 -0.4593 -0.9345
  553MOL0     C76214   6.665   7.563  10.645  0.5041 -0.3147 -0.3520
  553MOL0     C76215   6.525   7.506  10.653  0.2849 -0.6319 -0.2181
  553MOL0     C76216   6.476   7.450  10.528  0.2906  0.4872  0.5512
  553MOL0     C76217   6.356   7.364  10.545 -0.2418  0.8086  0.4027
  553MOL0     C76218   6.228   7.440  10.562  0.0528  1.3892 -1.0822
  553MOL0     C76219   6.104   7.334  10.565 -0.0001  0.1743 -0.6765
  553MOL0     C76220   6.073   7.255  10.691  0.1292  0.3215  0.3796
  553MOL0    Cl76221   6.024   7.087  10.652  0.2847  0.2795  0.1040
  553MOL0     C76222   7.078   7.526  10.769 -0.3709 -0.9316 -0.2204
  553MOL0     C76223   7.203   7.549  10.710  0.0741 -1.3155 -0.1699
  553MOL0     O76224   7.265   7.660  10.319  0.6296  0.0583  0.2959
  553MOL0     C76225   7.593   7.597  10.465  0.4526 -0.5446  0.5472
  553MOL0     C76226   7.725   7.574  10.424  0.1342  0.3240  0.2364
  553MOL0     N76227   8.558   7.596  10.162 -0.4969  0.4394 -0.5301
  553MOL0     N76228   8.592   7.471  10.167 -0.5363 -0.1889 -0.6688
  553MOL0     C76229   8.506   7.119   9.044 -1.7776 -0.0370  1.4506
  553MOL0     C76230   8.545   7.076   8.910  0.9792  0.1443  0.4509
  553MOL0     C76231   8.851   6.950   8.588 -0.2684 -0.7835 -0.1543
  553MOL0     C76232   8.797   6.830   8.533 -0.1374  1.0288 -0.0305
  553MOL0     C76233   8.856   6.765   8.415 -0.0445  0.0287  0.2409
  553MOL0     C76234   8.976   6.808   8.361  0.0289  0.3765 -0.2649
  553MOL0     O76235   9.035   6.762   8.248  0.2443  0.1540  0.0395
  553MOL0     C76236   8.974   6.643   8.185  1.0990 -0.2565  0.2342
  553MOL0     C76237   9.048   6.595   8.070  0.6226 -0.5603 -0.9461
  553MOL0     C76238   9.174   6.517   8.098 -0.9427 -0.5259 -0.3241
  553MOL0     C76239   9.284   6.612   8.143  0.3654 -0.2044  0.3557
  553MOL0     C76240   9.413   6.542   8.102 -0.8576 -0.4085  0.8169
  553MOL0     C76241   9.522   6.503   8.054  0.2675 -0.0283 -1.3319
  553MOL0     C76242   9.015   6.928   8.414  0.2583  0.3409  0.4937
  553MOL0     C76243   8.971   6.995   8.521  0.7929  0.1231  1.5075
  553MOL0     C76244   9.058   7.117   8.563 -0.4344 -1.3958 -0.3618
  553MOL0     H76245   8.801   6.867   9.007 -1.3056 -2.3575  1.5442
  553MOL0     H76246   8.745   6.942   9.221 -1.7370 -0.7308  0.2431
  553MOL0     H76247   8.465   7.292   9.262 -2.2353 -1.8404  1.4389
  553MOL0     H76248   8.631   7.296   9.231  0.3034  0.1958  1.2026
  553MOL0     H76249   8.643   7.219   9.481 -0.7606 -0.0411 -0.8143
  553MOL0     H76250   8.638   7.397   9.439  1.0408 -0.1155  1.8400
  553MOL0     H76251   8.399   7.388   9.502 -0.2504 -0.9163 -1.9168
  553MOL0     H76252   8.400   7.222   9.535 -2.3761  2.1824  3.1474
  553MOL0     H76253   8.572   7.430   9.691  0.4376  0.9425 -0.8361
  553MOL0     H76254   8.412   7.358   9.741  0.9581  1.1043  1.0383
  553MOL0     H76255   8.689   7.244   9.699  0.3107  0.5081 -0.0423
  553MOL0     H76256   8.569   7.128   9.719 -1.1593  0.0850  0.0103
  553MOL0     H76257   8.715   7.182   9.926 -2.3474 -2.7132  1.6691
  553MOL0     H76258   8.665   7.346   9.917  3.6106 -0.1610 -1.7027
  553MOL0     H76259   8.486   7.091   9.992 -2.3913  0.5463  1.5266
  553MOL0     H76260   8.430   7.243   9.933  0.6917 -2.3323 -3.2194
  553MOL0     H76261   8.411   7.202  10.181 -1.2645  1.1656 -1.6051
  553MOL0     H76262   8.588   7.216  10.193 -2.4084  1.9958  3.8815
  553MOL0     H76263   8.274   7.444  10.067 -1.1009  5.0287 -0.8112
  553MOL0     H76264   8.305   7.719   9.996  3.9271 -1.0513 -1.3521
  553MOL0     H76265   8.410   7.821  10.089  0.0916  0.8187  5.1316
  553MOL0     H76266   8.290   7.776  10.306  0.0700  2.0152  0.0060
  553MOL0     H76267   8.208   7.865  10.186 -0.6568  0.4237  0.8782
  553MOL0     H76268   8.110   7.623  10.102  0.6883 -0.4050 -0.2151
  553MOL0     H76269   8.160   7.558  10.254 -0.8644  0.5791  0.6988
  553MOL0     H76270   8.001   7.726  10.370 -1.1329  0.9584 -0.3509
  553MOL0     H76271   7.953   7.785  10.210 -0.7935 -0.2416 -0.6322
  553MOL0     H76272   7.705   7.670  10.111 -2.1262  2.6300 -0.0850
  553MOL0     H76273   7.362   7.680  10.093 -1.4768  0.9118  0.8055
  553MOL0     H76274   7.516   7.750  10.035  1.1233  0.6051  1.1070
  553MOL0     H76275   7.416   7.836  10.150  0.4988 -0.4196 -0.0884
  553MOL0     H76276   7.090   7.756  10.469  0.3922 -0.5490 -1.6342
  553MOL0     H76277   6.871   7.712  10.585 -1.5388 -1.9358 -0.4471
  553MOL0     H76278   6.652   7.585  10.847  2.6608  3.8544  2.6917
  553MOL0     H76279   6.746   7.716  10.785 -0.7052 -0.4584  3.3963
  553MOL0     H76280   6.670   7.639  10.567  1.2153  2.9776  2.6653
  553MOL0     H76281   6.730   7.486  10.604  0.1822 -0.9398  0.2831
  553MOL0     H76282   6.454   7.587  10.673 -1.9059 -1.8772 -2.3594
  553MOL0     H76283   6.523   7.430  10.731  1.4494 -3.5315 -2.8393
  553MOL0     H76284   6.550   7.382  10.485 -1.5030 -1.5014  0.4668
  553MOL0     H76285   6.458   7.532  10.457  2.1866 -1.0168 -1.8104
  553MOL0     H76286   6.343   7.300  10.457  1.0865  3.4155 -1.8381
  553MOL0     H76287   6.364   7.312  10.641 -0.9787 -0.6013 -0.2696
  553MOL0     H76288   6.205   7.506  10.478 -1.0813  0.3433 -1.6314
  553MOL0     H76289   6.233   7.491  10.659  0.7385  0.4096 -0.5804
  553MOL0     H76290   6.119   7.264  10.482 -0.0135  2.0937 -2.3664
  553MOL0     H76291   6.004   7.371  10.544 -0.9150 -2.1532 -0.6559
  553MOL0     H76292   6.006   7.312  10.756 -0.0909  0.4399  0.0523
  553MOL0     H76293   6.162   7.242  10.754 -0.4406 -2.2254  0.7792
  553MOL0     H76294   7.083   7.446  10.842  2.9469 -1.0557 -0.4112
  553MOL0     H76295   7.291   7.497  10.745  0.6572 -0.1252  0.1914
  553MOL0     H76296   7.553   7.587  10.565  0.0370  2.1332  0.7242
  553MOL0     H76297   7.798   7.546  10.500  1.0448  2.7442  0.3248
  553MOL0     H76298   8.426   7.192   9.044  0.0667  2.2269 -1.7562
  553MOL0     H76299   8.484   7.114   8.829 -0.6997 -2.4283  0.3995
  553MOL0     H76300   8.709   6.775   8.564 -0.7562  1.1039 -1.5566
  553MOL0     H76301   8.799   6.679   8.382 -2.0743  0.2316  2.9461
  553MOL0     H76302   8.965   6.554   8.248 -2.5994 -2.6850 -3.2824
  553MOL0     H76303   8.871   6.669   8.156  1.1940 -2.6267 -2.7257
  553MOL0     H76304   9.061   6.684   8.009 -4.5320  1.4352  0.3380
  553MOL0     H76305   8.973   6.537   8.015  0.5532 -0.3945 -1.0276
  553MOL0     H76306   9.163   6.444   8.179  1.2445  2.5287  3.0878
  553MOL0     H76307   9.194   6.475   7.999 -0.6288  2.0497 -1.4285
  553MOL0     H76308   9.284   6.627   8.251  1.9325  0.6162  0.2732
  553MOL0     H76309   9.276   6.704   8.083  0.9207 -0.0578  0.5053
  553MOL0     H76310   9.615   6.482   8.006  0.4629  2.5289 -2.2357
  553MOL0     H76311   9.095   6.975   8.357 -0.0834 -3.0597 -3.2464
  553MOL0     H76312   9.098   7.091   8.661 -0.1483 -0.1205 -0.1243
  553MOL0     H76313   9.132   7.152   8.490  0.2628 -0.4896  0.7367
  553MOL0     H76314   9.001   7.209   8.577 -1.1429 -1.5991 -1.7730
  554MOL0     O76315  10.130   0.095   2.400 -0.2956  0.4877  0.6801
  554MOL0     C76316  10.019   0.078   2.449 -1.0210 -0.1414  0.0664
  554MOL0     O76317   9.994   0.065   2.580 -0.1087 -0.0642 -0.3209
  554MOL0     C76318  10.098   0.083   2.673 -0.9646  0.0695 -0.2973
  554MOL0     C76319  10.143  -0.014   2.758 -0.2431 -0.3692  0.7260
  554MOL0     C76320  10.231   0.008   2.857 -0.5964 -0.6332 -0.0185
  554MOL0     C76321  10.294   0.137   2.869 -0.3470  0.6772 -0.0482
  554MOL0     O76322  10.387   0.177   2.961  0.5356  1.0518  0.0874
  554MOL0     C76323  10.437   0.066   3.041  0.1802 -0.1049  0.3647
  554MOL0     C76324  10.551  -0.012   2.970  0.3141 -0.4685  0.2484
  554MOL0     C76325  10.587  -0.138   3.045 -0.4597 -0.2590 -0.0428
  554MOL0     C76326  10.623  -0.099   3.185  1.1616  0.3354 -1.0866
  554MOL0     C76327  10.695  -0.212   3.270 -0.6226 -0.2077 -0.0881
  554MOL0     C76328  10.624  -0.352   3.283 -0.1423  0.2394  0.0621
  554MOL0     C76329  10.701  -0.448   3.372 -0.3865 -0.2920  0.0379
  554MOL0     C76330  10.642  -0.589   3.355 -0.2363  0.8103 -1.1617
  554MOL0     N76331  10.706  -0.666   3.246  0.4025 -0.2812 -0.0448
  554MOL0     C76332  10.704  -0.644   3.112 -0.1003 -1.0089  0.0259
  554MOL0     C76333  10.765  -0.747   3.063  0.7771  1.6942  0.0875
  554MOL0     C76334  10.791  -0.780   2.914 -0.9840  0.1885  0.7935
  554MOL0     C76335  10.661  -0.834   2.851 -1.0676 -1.1360  0.5276
  554MOL0     C76336  10.637  -0.764   2.718 -0.0894 -0.3263  0.1002
  554MOL0     C76337  10.527  -0.836   2.640 -0.2270  1.0361 -0.0217
  554MOL0     O76338  10.406  -0.827   2.706  0.0873 -0.1452 -0.4406
  554MOL0     C76339  10.298  -0.868   2.633  0.3143  0.1081  0.4520
  554MOL0     C76340  10.292  -0.911   2.507 -0.7835 -0.2134 -0.3385
  554MOL0     C76341  10.171  -0.959   2.452  0.6877 -0.3473  0.5729
  554MOL0     C76342  10.165  -0.999   2.308 -0.6643  0.0177  0.0415
  554MOL0     C76343  10.052  -0.946   2.524  1.2984 -0.5981 -0.6963
  554MOL0     C76344   9.919  -0.966   2.467 -0.8168 -0.6956 -0.5005
  554MOL0     O76345   9.816  -0.983   2.558  0.2126  0.8013 -0.0754
  554MOL0     C76346   9.688  -1.020   2.508 -0.1515  0.0827 -0.5741
  554MOL0     C76347   9.672  -1.153   2.446  0.9111  0.4587 -0.9763
  554MOL0     C76348   9.554  -1.189   2.397 -1.1645  0.8180  0.4164
  554MOL0     C76349   9.448  -1.100   2.391 -0.2108 -0.2472 -0.1946
  554MOL0     O76350   9.318  -1.132   2.357  0.3286 -0.6652  0.2876
  554MOL0     C76351   9.288  -1.268   2.390  0.1847  0.0745 -0.3094
  554MOL0     C76352   9.152  -1.271   2.461 -0.4218 -0.1178 -0.1822
  554MOL0     C76353   9.154  -1.169   2.566  0.5354 -0.2421 -1.3220
  554MOL0     C76354   9.039  -1.189   2.659  0.5496  0.3173 -0.5303
  554MOL0     C76355   8.966  -1.054   2.692 -0.0986 -0.0420  0.4385
  554MOL0     C76356   8.863  -1.076   2.806  1.6148 -0.3190 -0.4173
  554MOL0     C76357   8.756  -1.177   2.779  0.5576  0.4580  0.9458
  554MOL0     C76358   8.620  -1.161   2.841 -0.3088  0.1325 -0.4168
  554MOL0    Cl76359   8.655  -1.169   3.019  0.0213  0.0504  0.0565
  554MOL0     C76360   9.458  -0.968   2.433 -0.0850 -1.5390  0.0868
  554MOL0     C76361   9.580  -0.923   2.492 -0.0007  0.5240 -0.1016
  554MOL0     O76362   9.905  -0.954   2.346  0.6531  0.5840  0.1024
  554MOL0     C76363  10.060  -0.922   2.659 -0.8505  0.2320 -0.4519
  554MOL0     C76364  10.179  -0.867   2.707  0.0261  0.2890 -0.3509
  554MOL0     N76365  10.802  -0.832   3.164 -0.0117 -0.3471  0.1292
  554MOL0     N76366  10.768  -0.780   3.273  0.7916 -0.1517  0.1651
  554MOL0     C76367  10.237   0.236   2.795  0.5831 -0.9658 -0.0510
  554MOL0     C76368  10.141   0.214   2.703 -0.8929 -0.7207  0.8228
  554MOL0     C76369   9.909   0.059   2.350 -0.1267  0.9789  0.4224
  554MOL0     C76370   9.938   0.026   2.215  1.0400  0.7305 -0.8221
  554MOL0     C76371   9.837   0.005   2.119  0.9266 -0.4047 -0.0713
  554MOL0     C76372   9.710   0.018   2.153 -0.6482  0.2827  0.0390
  554MOL0     O76373   9.615  -0.026   2.060 -0.5734 -0.4579  0.2897
  554MOL0     C76374   9.488   0.039   2.046 -0.3515 -0.0456 -0.7053
  554MOL0     C76375   9.427   0.008   1.906 -0.7623 -0.0645 -0.3141
  554MOL0     C76376   9.468  -0.122   1.845  0.9883 -0.0630  0.4971
  554MOL0     C76377   9.352  -0.175   1.743 -0.2698 -0.7061 -0.9747
  554MOL0     C76378   9.345  -0.096   1.617  0.2630 -0.6486  0.6581
  554MOL0     C76379   9.342  -0.039   1.510  0.0861  1.4041 -0.0512
  554MOL0     C76380   9.672   0.039   2.287  0.3675 -0.3429 -0.5054
  554MOL0     C76381   9.773   0.075   2.384  0.1792  0.9904  0.0843
  554MOL0     C76382   9.724   0.144   2.510 -0.1039 -0.0234  0.1906
  554MOL0     H76383  10.116  -0.115   2.728 -3.7689  0.8908 -0.9259
  554MOL0     H76384  10.246  -0.081   2.918  2.5661 -1.3032 -1.5433
  554MOL0     H76385  10.350   0.006   3.068 -2.9746  3.6766 -0.4579
  554MOL0     H76386  10.474   0.099   3.138 -1.4745 -1.4849  1.5213
  554MOL0     H76387  10.528  -0.036   2.866 -1.2600  0.0432  0.4513
  554MOL0     H76388  10.632   0.060   2.957 -0.9977  1.3358  1.4651
  554MOL0     H76389  10.508  -0.214   3.055  1.5300 -2.8845 -2.4675
  554MOL0     H76390  10.673  -0.180   2.991  0.4762  1.0410  0.3999
  554MOL0     H76391  10.685  -0.008   3.187  2.8689 -0.6860  2.9168
  554MOL0     H76392  10.529  -0.073   3.235  1.8322  0.2056  0.2941
  554MOL0     H76393  10.712  -0.163   3.366  0.4499  0.0489 -0.4028
  554MOL0     H76394  10.800  -0.231   3.249  1.0134  4.4738  2.5643
  554MOL0     H76395  10.520  -0.350   3.318  0.0684 -2.2539  1.0464
  554MOL0     H76396  10.635  -0.405   3.187  1.7087  2.2319 -0.9074
  554MOL0     H76397  10.708  -0.401   3.470 -0.8985 -0.3730  0.1171
  554MOL0     H76398  10.804  -0.456   3.338 -0.4413  3.6209 -1.6627
  554MOL0     H76399  10.654  -0.646   3.447 -4.0432  0.5417 -0.6828
  554MOL0     H76400  10.535  -0.573   3.337 -0.6412  0.2396  0.6204
  554MOL0     H76401  10.655  -0.560   3.065 -2.0640 -0.9117  2.0744
  554MOL0     H76402  10.876  -0.848   2.901 -0.4369  0.5478  2.3078
  554MOL0     H76403  10.822  -0.683   2.875 -0.7577  0.9760  2.8135
  554MOL0     H76404  10.684  -0.939   2.832  0.0217 -0.8642  0.2483
  554MOL0     H76405  10.563  -0.827   2.898 -0.9569 -3.6383  1.2386
  554MOL0     H76406  10.620  -0.656   2.726  0.2628 -0.2541 -0.1135
  554MOL0     H76407  10.721  -0.768   2.648 -0.1319  0.4074 -0.0075
  554MOL0     H76408  10.526  -0.800   2.537  0.3438  2.1494  0.3511
  554MOL0     H76409  10.550  -0.942   2.627  0.2882  0.6372  3.1766
  554MOL0     H76410  10.384  -0.918   2.450  1.1963 -1.5471  2.7885
  554MOL0     H76411  10.129  -0.914   2.249 -1.5996  0.9727  1.8757
  554MOL0     H76412  10.116  -1.094   2.285  0.8463 -0.6799 -0.4396
  554MOL0     H76413  10.270  -0.997   2.280 -0.3474  0.3741  1.1817
  554MOL0     H76414   9.760  -1.216   2.458  1.5276  1.8121  3.1710
  554MOL0     H76415   9.549  -1.290   2.357 -0.9258  2.1799 -3.4525
  554MOL0     H76416   9.287  -1.322   2.295  2.9319  1.3026 -1.1390
  554MOL0     H76417   9.372  -1.319   2.439 -0.3019 -2.7172 -2.1687
  554MOL0     H76418   9.062  -1.269   2.399  0.0506 -1.8362 -0.9717
  554MOL0     H76419   9.137  -1.370   2.505 -0.2063 -0.8620 -1.7114
  554MOL0     H76420   9.144  -1.074   2.513  2.0293  0.1070 -1.0262
  554MOL0     H76421   9.252  -1.184   2.611  0.4524 -3.1075 -1.8777
  554MOL0     H76422   9.071  -1.237   2.752 -1.8652  0.5533  0.4941
  554MOL0     H76423   8.966  -1.255   2.612  0.1776  0.5355 -0.2617
  554MOL0     H76424   9.042  -0.978   2.714 -0.1031  0.6704 -1.8002
  554MOL0     H76425   8.905  -1.020   2.608  1.7758  2.8056  0.1190
  554MOL0     H76426   8.820  -0.976   2.814  2.2706  0.2829 -3.3046
  554MOL0     H76427   8.921  -1.106   2.894  3.3823  1.1776 -1.0127
  554MOL0     H76428   8.787  -1.280   2.798  0.0628 -0.0080 -0.6820
  554MOL0     H76429   8.740  -1.168   2.671  1.4698  4.0814  0.9675
  554MOL0     H76430   8.548  -1.241   2.820 -0.7640 -0.0773  1.7387
  554MOL0     H76431   8.568  -1.068   2.818 -2.7892 -0.8804  0.6834
  554MOL0     H76432   9.373  -0.902   2.417  1.2773  0.3897  0.4129
  554MOL0     H76433   9.591  -0.821   2.526 -0.1983  0.2417  0.8486
  554MOL0     H76434   9.969  -0.925   2.718 -0.1652  3.2270  0.9681
  554MOL0     H76435  10.198  -0.829   2.807  2.4943 -0.5123 -0.4657
  554MOL0     H76436  10.285   0.333   2.805  1.0005 -0.9588 -1.8505
  554MOL0     H76437  10.114   0.297   2.638  2.2039  0.9235  1.4441
  554MOL0     H76438  10.044   0.024   2.192  1.4240  1.0976  0.8085
  554MOL0     H76439   9.875   0.002   2.017 -0.2509 -0.5738 -0.5126
  554MOL0     H76440   9.421   0.014   2.129  1.4693  0.0963  0.8587
  554MOL0     H76441   9.501   0.147   2.060  0.8229 -0.4311  1.4709
  554MOL0     H76442   9.467   0.086   1.840 -2.3967  1.4903  0.4365
  554MOL0     H76443   9.326   0.049   1.897  0.3577  3.4728  1.4325
  554MOL0     H76444   9.569  -0.116   1.803  0.3387  4.4340 -0.9267
  554MOL0     H76445   9.476  -0.197   1.924  0.9967  0.7651  1.2982
  554MOL0     H76446   9.256  -0.167   1.793  0.5446  1.3133  0.3772
  554MOL0     H76447   9.375  -0.281   1.727  0.4802 -1.5391  4.0701
  554MOL0     H76448   9.351   0.010   1.416 -3.3852  1.1876 -0.6332
  554MOL0     H76449   9.566   0.047   2.309  0.5938  1.7685  0.0292
  554MOL0     H76450   9.618   0.170   2.510  0.3962  2.2050  1.2404
  554MOL0     H76451   9.759   0.093   2.600  3.1846  2.3113  0.4124
  554MOL0     H76452   9.780   0.237   2.524  0.4413 -0.4579  0.9454
  555MOL0     O76453   3.347   3.383   4.236 -0.1435 -0.1850  0.3825
  555MOL0     C76454   3.344   3.434   4.129  0.2684 -1.0530  0.0446
  555MOL0     O76455   3.235   3.446   4.043  0.0288  0.3716  0.2625
  555MOL0     C76456   3.136   3.364   4.102 -0.5791 -1.0303 -0.1515
  555MOL0     C76457   3.141   3.221   4.072  0.2637 -1.5008 -0.3154
  555MOL0     C76458   3.025   3.151   4.116 -0.5754  0.4106  0.4016
  555MOL0     C76459   2.922   3.209   4.197 -0.5681  0.0120  0.3548
  555MOL0     O76460   2.817   3.137   4.252 -0.3820  0.1480 -0.2271
  555MOL0     C76461   2.859   3.055   4.365  0.7838 -0.4164  0.1483
  555MOL0     C76462   2.786   3.090   4.505  1.0464  0.7696  0.3509
  555MOL0     C76463   2.641   3.027   4.506  0.0979 -0.5167 -0.0096
  555MOL0     C76464   2.561   3.037   4.637  0.6762  0.4519  0.6310
  555MOL0     C76465   2.619   2.933   4.738  0.3943  0.3144 -0.1556
  555MOL0     C76466   2.741   2.969   4.833 -0.1904  0.3860  0.4360
  555MOL0     C76467   2.767   2.869   4.954  0.3631 -1.0111  0.3165
  555MOL0     C76468   2.909   2.886   5.008 -0.6379  0.3188 -0.7512
  555MOL0     N76469   3.002   2.766   4.996  0.1645  0.9600 -0.0700
  555MOL0     C76470   3.075   2.713   5.106  0.1075 -0.5766 -0.3928
  555MOL0     C76471   3.141   2.605   5.059  0.1913  0.3587  0.1029
  555MOL0     C76472   3.224   2.502   5.146  0.5512 -0.1515 -0.6805
  555MOL0     C76473   3.140   2.427   5.247  0.2167 -0.1309 -0.1174
  555MOL0     C76474   3.174   2.279   5.272 -0.4100 -0.1122 -0.5828
  555MOL0     C76475   3.072   2.210   5.366  0.6254  0.4815 -0.0916
  555MOL0     O76476   3.040   2.295   5.479 -0.3358 -0.0034 -0.3805
  555MOL0     C76477   3.079   2.247   5.603 -1.3309  0.2183  0.6761
  555MOL0     C76478   3.004   2.286   5.710  0.5032 -0.4784  0.0799
  555MOL0     C76479   3.046   2.258   5.835  0.1581  0.3237 -0.0665
  555MOL0     C76480   2.956   2.300   5.951  0.3408 -0.0147 -1.2958
  555MOL0     C76481   3.168   2.189   5.862  0.1111 -0.9415 -1.1161
  555MOL0     C76482   3.230   2.176   5.993 -0.2282 -1.0266 -1.2393
  555MOL0     O76483   3.362   2.201   6.014 -0.1854  0.0093 -0.0614
  555MOL0     C76484   3.418   2.203   6.140  0.3660 -0.9943 -0.3882
  555MOL0     C76485   3.543   2.160   6.161 -0.0349 -0.3267 -0.7824
  555MOL0     C76486   3.613   2.140   6.290  0.6196  0.2340  0.9321
  555MOL0     C76487   3.548   2.197   6.396  0.5939 -0.2405 -0.3352
  555MOL0     O76488   3.618   2.195   6.511 -0.5222 -0.4966  0.3017
  555MOL0     C76489   3.554   2.140   6.625  0.5354 -1.4894 -0.1608
  555MOL0     C76490   3.659   2.085   6.716  0.7502 -0.4289 -0.8791
  555MOL0     C76491   3.730   1.959   6.650 -0.2115  0.1970  0.4997
  555MOL0     C76492   3.837   1.901   6.746 -0.3087 -0.0568  0.3955
  555MOL0     C76493   3.885   1.765   6.700  0.3676 -0.5074  0.6986
  555MOL0     C76494   3.970   1.694   6.805 -0.6680 -0.5956  0.8795
  555MOL0     C76495   4.008   1.557   6.757 -0.7485 -0.0734 -1.2088
  555MOL0     C76496   4.120   1.492   6.845 -0.1567 -0.0860  0.7615
  555MOL0    Cl76497   4.159   1.321   6.787 -0.0021 -0.4059  0.2538
  555MOL0     C76498   3.416   2.258   6.383  0.2796 -0.6334 -0.5375
  555MOL0     C76499   3.361   2.269   6.254  0.2375  1.3458 -1.3308
  555MOL0     O76500   3.156   2.151   6.088 -0.0070  0.0266  0.6006
  555MOL0     C76501   3.243   2.151   5.755 -0.0624 -0.5696 -0.0296
  555MOL0     C76502   3.201   2.177   5.622  0.3691  0.0743 -0.5596
  555MOL0     N76503   3.109   2.589   4.922 -0.4482  0.4324 -0.3039
  555MOL0     N76504   3.029   2.689   4.888 -0.4458  0.6088  0.5966
  555MOL0     C76505   2.931   3.342   4.230 -0.7911 -1.1411 -0.2645
  555MOL0     C76506   3.038   3.420   4.175  0.5463  0.3237 -0.1160
  555MOL0     C76507   3.482   3.474   4.062  0.5652 -0.0125 -0.0864
  555MOL0     C76508   3.483   3.513   3.927 -0.8470 -0.0691  0.4743
  555MOL0     C76509   3.604   3.549   3.858  0.5006  0.3461  0.7800
  555MOL0     C76510   3.726   3.550   3.930  0.6111 -0.0447  0.6356
  555MOL0     O76511   3.845   3.590   3.861  0.4808  0.3905 -0.3226
  555MOL0     C76512   3.971   3.543   3.917  0.3265 -0.1491 -0.8160
  555MOL0     C76513   4.073   3.522   3.809 -1.0436  0.5290  0.5016
  555MOL0     C76514   4.217   3.500   3.854 -0.1595 -0.3097 -0.0061
  555MOL0     C76515   4.320   3.617   3.829  0.0005 -0.7769 -0.2237
  555MOL0     C76516   4.276   3.760   3.850 -0.3292 -0.1177 -0.8549
  555MOL0     C76517   4.227   3.865   3.884 -0.3996  1.1312  0.7443
  555MOL0     C76518   3.723   3.528   4.064  0.9506  0.4201  0.0344
  555MOL0     C76519   3.602   3.492   4.133  0.1504 -0.2197 -0.3820
  555MOL0     C76520   3.601   3.491   4.279 -1.0008  0.3761  1.2367
  555MOL0     H76521   3.215   3.181   4.004 -1.2142  2.3892 -4.7115
  555MOL0     H76522   3.023   3.043   4.104  3.0473  0.2263  0.3268
  555MOL0     H76523   2.966   3.076   4.372  1.1346 -0.7652 -2.8325
  555MOL0     H76524   2.844   2.950   4.339 -1.0634  0.2433 -1.7039
  555MOL0     H76525   2.843   3.059   4.593 -0.1134  0.7117  1.0971
  555MOL0     H76526   2.762   3.193   4.529  1.7311  0.7670  1.0704
  555MOL0     H76527   2.577   3.073   4.431  1.3445  1.4551  0.0488
  555MOL0     H76528   2.648   2.920   4.484  1.6681 -0.4797  0.1416
  555MOL0     H76529   2.566   3.140   4.674 -1.4921  1.6311 -1.9685
  555MOL0     H76530   2.458   3.014   4.610  0.6700  2.4521 -1.4311
  555MOL0     H76531   2.624   2.840   4.680 -1.4333  0.8370 -1.2423
  555MOL0     H76532   2.535   2.918   4.807 -0.7435  2.6515 -0.9123
  555MOL0     H76533   2.833   2.968   4.774 -1.1911 -1.0082 -1.2020
  555MOL0     H76534   2.721   3.068   4.874  2.2775  2.0011 -1.9393
  555MOL0     H76535   2.764   2.763   4.927  0.5909 -0.7596 -0.7708
  555MOL0     H76536   2.689   2.875   5.030  1.2377  0.1262  1.1620
  555MOL0     H76537   2.959   2.968   4.956  0.5026  0.8712  1.1295
  555MOL0     H76538   2.909   2.938   5.104 -1.8733 -0.2440 -0.4210
  555MOL0     H76539   3.067   2.748   5.209  2.8646  0.5308 -0.4715
  555MOL0     H76540   3.295   2.557   5.210  0.9503 -0.6988 -0.6477
  555MOL0     H76541   3.279   2.427   5.089  0.6345 -1.3323  0.8887
  555MOL0     H76542   3.146   2.480   5.342 -1.1589 -0.1414 -0.0032
  555MOL0     H76543   3.038   2.436   5.206  0.3979 -2.1065 -1.1437
  555MOL0     H76544   3.164   2.223   5.178 -0.1530 -1.9943  0.4692
  555MOL0     H76545   3.279   2.268   5.301  0.0375 -0.6274 -2.2532
  555MOL0     H76546   2.987   2.182   5.303 -0.1187 -1.0479  1.5247
  555MOL0     H76547   3.113   2.114   5.399 -1.3542 -0.6236 -0.7030
  555MOL0     H76548   2.900   2.315   5.697  1.3403  2.5954 -0.5381
  555MOL0     H76549   2.980   2.307   6.057 -2.9634  0.4980 -0.5037
  555MOL0     H76550   2.878   2.223   5.948 -0.8473  1.1802 -2.2806
  555MOL0     H76551   2.910   2.398   5.938  0.8135  0.5349  0.8654
  555MOL0     H76552   3.599   2.130   6.073  1.5922  0.8603 -0.2060
  555MOL0     H76553   3.714   2.102   6.296  0.6709  0.3862  1.0717
  555MOL0     H76554   3.512   2.225   6.679  2.7149 -0.6299  0.2935
  555MOL0     H76555   3.473   2.069   6.605 -1.1944  0.8409 -1.9815
  555MOL0     H76556   3.738   2.159   6.734  1.0766 -1.4300  2.3300
  555MOL0     H76557   3.617   2.060   6.814  1.1686  0.4439 -0.4653
  555MOL0     H76558   3.779   1.973   6.553 -0.5498 -1.5444  0.0475
  555MOL0     H76559   3.659   1.877   6.634  2.7115 -2.4940  0.3909
  555MOL0     H76560   3.793   1.890   6.846 -0.4658 -0.1012  0.3210
  555MOL0     H76561   3.916   1.974   6.762  0.2111 -0.0184 -1.9790
  555MOL0     H76562   3.787   1.719   6.682 -1.7729  4.3953 -2.2922
  555MOL0     H76563   3.933   1.776   6.603  1.5989  1.2473  1.4561
  555MOL0     H76564   3.923   1.697   6.904  0.3788 -2.0333  1.4495
  555MOL0     H76565   4.062   1.751   6.822  0.5807 -1.4640 -2.2341
  555MOL0     H76566   4.032   1.573   6.651 -1.0951  1.4410 -1.0778
  555MOL0     H76567   3.919   1.494   6.773 -0.8032  0.3088  0.0474
  555MOL0     H76568   4.080   1.494   6.947 -1.8213  3.5727  0.2120
  555MOL0     H76569   4.213   1.549   6.839  1.6212 -2.9288 -3.2192
  555MOL0     H76570   3.373   2.299   6.474  2.3831  1.6664 -0.4651
  555MOL0     H76571   3.266   2.322   6.243 -1.8900 -1.9121 -0.0993
  555MOL0     H76572   3.336   2.106   5.789  0.9643  0.6720 -1.0680
  555MOL0     H76573   3.264   2.140   5.542 -1.7564  0.9274 -2.7366
  555MOL0     H76574   2.856   3.389   4.293  1.7466  2.0627  0.6421
  555MOL0     H76575   3.049   3.521   4.214  1.8633 -0.6012  2.1484
  555MOL0     H76576   3.390   3.506   3.871  0.0243  1.1181 -1.2223
  555MOL0     H76577   3.605   3.573   3.752  0.4050  3.8868  1.4343
  555MOL0     H76578   4.028   3.613   3.979 -3.7706  0.7802  2.3476
  555MOL0     H76579   3.956   3.446   3.965 -0.8663 -0.5615 -1.9878
  555MOL0     H76580   4.079   3.600   3.732 -1.8094  1.2274  1.1387
  555MOL0     H76581   4.046   3.430   3.757 -1.0495  0.3754  0.7776
  555MOL0     H76582   4.217   3.483   3.962  3.0557 -1.0029  0.0088
  555MOL0     H76583   4.252   3.407   3.809  1.2056 -0.0929  0.5495
  555MOL0     H76584   4.348   3.614   3.723  0.5669 -4.1043 -0.0805
  555MOL0     H76585   4.412   3.603   3.885 -1.2087 -0.7648  1.8723
  555MOL0     H76586   4.171   3.948   3.921 -2.0715  0.1575  0.5337
  555MOL0     H76587   3.818   3.543   4.116  0.9202  2.6698 -0.4684
  555MOL0     H76588   3.587   3.391   4.321  0.4161  0.0218  0.9249
  555MOL0     H76589   3.693   3.534   4.319  0.1204 -1.4174  0.7192
  555MOL0     H76590   3.518   3.553   4.314 -3.9059 -1.6883 -1.3763
  556MOL0     O76591   9.885   3.635   8.739  0.0293  0.3756  0.2120
  556MOL0     C76592   9.811   3.655   8.835 -0.3265 -1.3144  0.6921
  556MOL0     O76593   9.823   3.583   8.946  0.1245 -0.3387 -0.0314
  556MOL0     C76594   9.912   3.478   8.955 -0.6320 -0.4153 -0.1628
  556MOL0     C76595   9.998   3.459   9.070  0.4527 -0.7426 -0.3143
  556MOL0     C76596  10.085   3.353   9.088  0.4654 -0.5074  0.3274
  556MOL0     C76597  10.088   3.257   8.983 -0.8134  0.6645 -0.3414
  556MOL0     O76598  10.177   3.155   9.005 -0.1037 -0.5704 -0.3974
  556MOL0     C76599  10.133   3.016   9.015  0.8377  0.2203 -0.1991
  556MOL0     C76600  10.194   2.920   8.909 -0.0698  0.7262  0.4694
  556MOL0     C76601  10.194   2.776   8.957  0.1519  0.7953  1.3864
  556MOL0     C76602  10.255   2.685   8.845 -0.4975  1.0220  0.8070
  556MOL0     C76603  10.240   2.540   8.878 -0.7664  0.6352 -0.4953
  556MOL0     C76604  10.273   2.462   8.758  0.4913  0.0268 -0.3641
  556MOL0     C76605  10.247   2.311   8.782 -0.7237 -0.3091  0.1913
  556MOL0     C76606  10.314   2.228   8.666  0.4026  0.0949  0.4189
  556MOL0     N76607  10.263   2.243   8.529 -0.7804 -0.3434 -0.1064
  556MOL0     C76608  10.276   2.359   8.451 -0.5323 -0.0130  0.4011
  556MOL0     C76609  10.204   2.358   8.342 -0.2111  0.1334  0.4702
  556MOL0     C76610  10.195   2.465   8.231 -0.8937 -0.3083  0.0551
  556MOL0     C76611  10.325   2.463   8.138 -0.6775 -0.3738  0.3016
  556MOL0     C76612  10.331   2.570   8.033  0.0072  0.0872 -0.3587
  556MOL0     C76613  10.229   2.568   7.924 -0.5353 -0.6133  0.5945
  556MOL0     O76614  10.106   2.626   7.977 -0.7091 -0.5648 -0.0596
  556MOL0     C76615   9.998   2.646   7.900  0.2768 -0.1315  0.2120
  556MOL0     C76616   9.964   2.577   7.785  0.4633  0.1879  0.0031
  556MOL0     C76617   9.840   2.602   7.725 -0.0268  0.3621  0.3385
  556MOL0     C76618   9.799   2.512   7.602  0.1280  0.1424 -0.2739
  556MOL0     C76619   9.750   2.701   7.776 -1.5280 -0.2022  0.5259
  556MOL0     C76620   9.624   2.749   7.705  0.2673 -0.6854  0.9774
  556MOL0     O76621   9.535   2.819   7.788  0.7089 -0.3331 -0.3851
  556MOL0     C76622   9.428   2.894   7.739  0.1860  0.2941 -0.9271
  556MOL0     C76623   9.307   2.836   7.692 -0.8345  0.1119 -0.9441
  556MOL0     C76624   9.223   2.926   7.620  0.8165  0.7140 -0.6052
  556MOL0     C76625   9.235   3.066   7.616  0.3845 -0.0887 -0.3909
  556MOL0     O76626   9.135   3.136   7.546 -0.3887 -1.6891  0.5868
  556MOL0     C76627   9.131   3.097   7.405 -0.0029 -0.3048 -0.6360
  556MOL0     C76628   9.079   3.214   7.327 -0.3052 -0.5302 -1.0681
  556MOL0     C76629   9.048   3.170   7.191 -0.1573  0.0178  1.4339
  556MOL0     C76630   8.982   3.291   7.114 -0.2709  0.2272 -0.8063
  556MOL0     C76631   8.920   3.246   6.981 -1.0212  0.6550  0.6733
  556MOL0     C76632   8.807   3.329   6.940  0.2648 -0.3154  0.4792
  556MOL0     C76633   8.742   3.273   6.804 -0.2990 -0.1410  0.7818
  556MOL0     C76634   8.605   3.336   6.782  0.6644 -0.1573 -0.2838
  556MOL0    Cl76635   8.570   3.350   6.612 -0.0114 -0.2086  0.3736
  556MOL0     C76636   9.352   3.116   7.676  0.1936 -0.4470 -0.5264
  556MOL0     C76637   9.449   3.036   7.731 -1.3109  0.6749 -0.3033
  556MOL0     O76638   9.607   2.735   7.582  0.3137  1.0841  0.2438
  556MOL0     C76639   9.782   2.751   7.902  0.3307 -0.1488  0.9262
  556MOL0     C76640   9.909   2.734   7.951  0.4509  0.3150  0.3124
  556MOL0     N76641  10.156   2.225   8.336  0.4096  0.0910 -0.7170
  556MOL0     N76642  10.195   2.158   8.448  0.3696 -0.0353 -0.5845
  556MOL0     C76643  10.006   3.271   8.869 -0.5361  0.5561 -0.1148
  556MOL0     C76644   9.921   3.381   8.853  0.1008  0.5334  0.6380
  556MOL0     C76645   9.700   3.765   8.822  0.0516 -0.2478  0.0328
  556MOL0     C76646   9.621   3.791   8.936 -0.8054 -0.3105  0.8650
  556MOL0     C76647   9.540   3.906   8.948 -0.0669  0.0540 -0.5368
  556MOL0     C76648   9.527   3.987   8.840 -0.4982  0.2538  0.0678
  556MOL0     O76649   9.444   4.095   8.860 -0.0965 -0.2143  0.0947
  556MOL0     C76650   9.444   4.206   8.774  0.8238  0.3198  0.0002
  556MOL0     C76651   9.391   4.334   8.838  1.2091  0.0955  0.0693
  556MOL0     C76652   9.242   4.324   8.850 -0.5076 -0.2660 -0.2871
  556MOL0     C76653   9.169   4.447   8.912 -0.5630 -0.5331 -0.7291
  556MOL0     C76654   9.025   4.439   8.883 -1.0745  0.5788 -0.2295
  556MOL0     C76655   8.910   4.430   8.880 -0.1269  0.1074  0.1733
  556MOL0     C76656   9.585   3.952   8.725 -0.6963  1.2892  0.3298
  556MOL0     C76657   9.671   3.836   8.701 -0.1710 -0.7297  0.2655
  556MOL0     C76658   9.736   3.816   8.554  0.0659  0.2862 -1.4885
  556MOL0     H76659   9.991   3.528   9.153 -4.7689 -2.2606  0.8999
  556MOL0     H76660  10.149   3.338   9.174 -0.8946  0.3269  1.5242
  556MOL0     H76661  10.025   3.002   9.005  0.1052  4.2959  0.1237
  556MOL0     H76662  10.153   2.983   9.117 -4.7781 -1.4308  0.6714
  556MOL0     H76663  10.132   2.918   8.819  0.3487 -0.7708  0.1828
  556MOL0     H76664  10.293   2.956   8.879 -0.1521  1.5874  1.1720
  556MOL0     H76665  10.244   2.762   9.053 -0.7186  0.5705  1.8149
  556MOL0     H76666  10.092   2.740   8.968  1.5912 -3.6261  1.9967
  556MOL0     H76667  10.196   2.706   8.755 -2.4406 -0.8909  1.5390
  556MOL0     H76668  10.363   2.694   8.837  0.2435 -1.5654  4.9194
  556MOL0     H76669  10.136   2.514   8.900 -0.1847 -0.1907  1.5787
  556MOL0     H76670  10.300   2.506   8.963 -1.4366  0.0299 -0.2508
  556MOL0     H76671  10.209   2.509   8.682 -0.1434  2.9794  1.8265
  556MOL0     H76672  10.373   2.499   8.735  0.7275  0.9350  1.8557
  556MOL0     H76673  10.143   2.278   8.787 -1.5576  2.2554  2.4151
  556MOL0     H76674  10.302   2.280   8.871  1.7999  1.2429 -0.7397
  556MOL0     H76675  10.420   2.254   8.672 -0.0205  1.6333  3.5988
  556MOL0     H76676  10.310   2.121   8.686  4.3281 -0.2002  0.2928
  556MOL0     H76677  10.318   2.452   8.488  1.8644 -0.9947  0.2759
  556MOL0     H76678  10.181   2.562   8.280  1.5189 -2.0100  4.7124
  556MOL0     H76679  10.119   2.438   8.157 -1.2297 -1.4268  0.7837
  556MOL0     H76680  10.416   2.464   8.199 -0.0465 -0.3575 -0.6200
  556MOL0     H76681  10.335   2.375   8.073 -0.9542 -1.3072  1.4953
  556MOL0     H76682  10.324   2.661   8.093 -2.0695  1.2045 -2.1505
  556MOL0     H76683  10.431   2.570   7.988  0.9912  0.1412  1.6980
  556MOL0     H76684  10.267   2.616   7.833  3.1573 -1.6354  1.4318
  556MOL0     H76685  10.215   2.461   7.909  3.9850 -1.6982  2.6230
  556MOL0     H76686  10.033   2.499   7.754 -0.7662 -0.5430 -0.9854
  556MOL0     H76687   9.758   2.572   7.521  0.7506  3.4110  1.6541
  556MOL0     H76688   9.720   2.447   7.641 -2.2617  1.8215 -2.0056
  556MOL0     H76689   9.883   2.446   7.582 -0.6141 -1.7083  2.1984
  556MOL0     H76690   9.282   2.732   7.707  0.3873 -0.2518 -1.3170
  556MOL0     H76691   9.124   2.896   7.588  1.3292  0.6888 -2.2709
  556MOL0     H76692   9.228   3.073   7.359 -0.0531  0.9524 -1.4412
  556MOL0     H76693   9.053   3.021   7.407 -1.0810  0.6710  3.9396
  556MOL0     H76694   8.982   3.251   7.362 -0.1269  1.4249 -2.5034
  556MOL0     H76695   9.155   3.290   7.345 -0.6730 -0.4124  0.0776
  556MOL0     H76696   8.979   3.086   7.195 -2.3471  1.5861 -0.4959
  556MOL0     H76697   9.133   3.128   7.137 -0.1740  2.9127 -1.1409
  556MOL0     H76698   9.054   3.371   7.096  1.1677 -0.8298  0.0467
  556MOL0     H76699   8.899   3.325   7.178  0.4157 -2.1999  1.5729
  556MOL0     H76700   8.997   3.248   6.904  0.5662  1.3702  2.2225
  556MOL0     H76701   8.880   3.144   6.984  1.0393 -0.3638 -2.3656
  556MOL0     H76702   8.831   3.432   6.912 -0.1025  0.2958  2.2507
  556MOL0     H76703   8.731   3.326   7.019 -0.3647 -1.0665 -0.1316
  556MOL0     H76704   8.724   3.165   6.812  1.4724 -0.5969 -0.6461
  556MOL0     H76705   8.813   3.291   6.722  1.9632 -1.0997  2.4345
  556MOL0     H76706   8.604   3.440   6.815 -1.4590 -0.1337 -0.3113
  556MOL0     H76707   8.538   3.279   6.846 -0.5826  2.3828  0.7901
  556MOL0     H76708   9.364   3.224   7.682 -0.7797 -0.4202  2.3104
  556MOL0     H76709   9.534   3.082   7.780  1.8241  0.7431 -5.1718
  556MOL0     H76710   9.734   2.839   7.944 -1.3024 -0.5079 -0.0889
  556MOL0     H76711   9.941   2.801   8.031  0.8544  1.3638 -0.6904
  556MOL0     H76712  10.018   3.191   8.797 -0.1485  1.7488 -1.4258
  556MOL0     H76713   9.857   3.387   8.766 -1.7057 -3.2922  1.4727
  556MOL0     H76714   9.651   3.726   9.018 -0.2246 -0.5182  0.4994
  556MOL0     H76715   9.491   3.928   9.042 -1.4790 -0.0102 -1.2417
  556MOL0     H76716   9.549   4.227   8.753  2.1108 -1.8257  3.4043
  556MOL0     H76717   9.388   4.180   8.684  2.1609 -1.0256 -0.4849
  556MOL0     H76718   9.415   4.419   8.773  0.7481 -0.5498 -0.9897
  556MOL0     H76719   9.439   4.348   8.935  2.9537 -2.0909 -0.3752
  556MOL0     H76720   9.201   4.306   8.751 -1.2211 -0.0205 -0.0411
  556MOL0     H76721   9.216   4.237   8.912 -0.7536 -0.8125 -1.1358
  556MOL0     H76722   9.215   4.536   8.869 -1.2329  0.5394  0.7122
  556MOL0     H76723   9.177   4.451   9.021  2.4900  3.6708 -0.8721
  556MOL0     H76724   8.805   4.414   8.865 -0.6537  2.9531  0.1598
  556MOL0     H76725   9.544   4.000   8.637 -2.7001  1.8219  1.4964
  556MOL0     H76726   9.845   3.819   8.563  0.0329  1.4484 -1.3083
  556MOL0     H76727   9.722   3.724   8.497  0.9820 -1.7226  1.2967
  556MOL0     H76728   9.708   3.901   8.491  0.1304 -0.0402 -1.9625
  557MOL0     O76729   4.927   6.389   2.901  0.4381  0.4054 -0.6618
  557MOL0     C76730   5.034   6.430   2.950 -0.7854  0.3234  0.7072
  557MOL0     O76731   5.124   6.500   2.879 -0.4196 -0.0073  0.2745
  557MOL0     C76732   5.095   6.542   2.751 -0.7712 -0.2671  0.1760
  557MOL0     C76733   5.124   6.676   2.716 -0.4814 -0.9803 -0.1098
  557MOL0     C76734   5.103   6.730   2.585  0.6093 -0.4178 -0.0301
  557MOL0     C76735   5.053   6.640   2.491  0.5179  0.8094 -0.3401
  557MOL0     O76736   5.035   6.664   2.357  0.7382  0.5412 -0.7771
  557MOL0     C76737   5.065   6.790   2.294 -0.5811 -1.3742  0.0505
  557MOL0     C76738   4.950   6.882   2.323 -0.0868 -0.2646  0.0684
  557MOL0     C76739   4.805   6.833   2.280  0.5147 -0.3315  0.0635
  557MOL0     C76740   4.795   6.794   2.133  0.3719  0.1379 -0.2523
  557MOL0     C76741   4.664   6.716   2.117  0.1919 -0.9587  0.1078
  557MOL0     C76742   4.658   6.628   1.988  0.1115  0.5109 -0.2187
  557MOL0     C76743   4.513   6.578   1.992 -0.2625  0.9085 -0.7229
  557MOL0     C76744   4.497   6.448   2.075 -0.4331  0.4529  0.4260
  557MOL0     N76745   4.349   6.408   2.091 -1.0589  0.2985  0.9649
  557MOL0     C76746   4.305   6.304   2.020  0.3145 -0.3900  1.0209
  557MOL0     C76747   4.179   6.291   2.069  0.1998  0.9045  0.3807
  557MOL0     C76748   4.082   6.199   1.994 -0.4675 -1.3674 -0.1603
  557MOL0     C76749   4.138   6.056   1.996 -0.3012  0.7625  0.5048
  557MOL0     C76750   4.032   5.958   1.942  0.1197  0.4621  0.6037
  557MOL0     C76751   4.082   5.802   1.937 -0.4536 -0.4335 -1.1515
  557MOL0     O76752   4.218   5.811   1.890 -0.1923  0.2296 -0.0614
  557MOL0     C76753   4.271   5.701   1.834 -0.7018  0.5210 -0.4281
  557MOL0     C76754   4.204   5.582   1.818 -1.1975 -0.3259  0.0362
  557MOL0     C76755   4.248   5.482   1.731  0.2537 -0.7232 -0.4346
  557MOL0     C76756   4.175   5.353   1.729  0.2788 -0.6631 -0.7003
  557MOL0     C76757   4.369   5.514   1.655 -0.2597  0.5009  0.6746
  557MOL0     C76758   4.430   5.417   1.571 -0.0640 -0.4553  0.7580
  557MOL0     O76759   4.564   5.417   1.555 -0.5233  0.0624 -0.0181
  557MOL0     C76760   4.629   5.305   1.513  0.4335 -0.6615 -0.0983
  557MOL0     C76761   4.736   5.333   1.430 -0.3802  0.3868 -0.2199
  557MOL0     C76762   4.810   5.229   1.366 -0.5165  0.1782 -0.5531
  557MOL0     C76763   4.778   5.092   1.397 -0.0123 -0.9225  0.1547
  557MOL0     O76764   4.843   5.002   1.331 -0.1914 -0.9932  0.3471
  557MOL0     C76765   4.914   4.921   1.412 -0.1059 -0.4017 -0.3775
  557MOL0     C76766   4.956   4.803   1.328 -0.6179  0.2211  0.5533
  557MOL0     C76767   5.085   4.824   1.245 -0.0475  0.3096 -0.1303
  557MOL0     C76768   5.152   4.694   1.180  0.5004 -0.5132  0.4395
  557MOL0     C76769   5.249   4.640   1.291  0.2174 -0.5973 -0.7778
  557MOL0     C76770   5.305   4.499   1.274  1.1897  0.0268 -0.2015
  557MOL0     C76771   5.344   4.463   1.126 -0.1482  1.0552  0.1636
  557MOL0     C76772   5.358   4.313   1.093 -0.7363 -0.9304  0.3519
  557MOL0    Cl76773   5.371   4.313   0.914 -0.2938 -0.1075 -0.4577
  557MOL0     C76774   4.666   5.073   1.483  0.8887 -0.3878  0.3095
  557MOL0     C76775   4.590   5.177   1.540 -0.3265 -0.4693 -0.4835
  557MOL0     O76776   4.354   5.353   1.494 -0.3947 -0.5157 -0.9606
  557MOL0     C76777   4.436   5.630   1.683 -0.4632  0.3335 -0.2618
  557MOL0     C76778   4.390   5.722   1.774 -0.4684 -0.4909 -0.5246
  557MOL0     N76779   4.154   6.395   2.163 -0.6112  0.4241 -0.0577
  557MOL0     N76780   4.262   6.460   2.177 -0.4697 -0.4962 -0.4142
  557MOL0     C76781   5.026   6.508   2.518  1.1283  0.4664 -0.9627
  557MOL0     C76782   5.052   6.449   2.644 -0.0781 -0.5784 -0.6820
  557MOL0     C76783   5.070   6.418   3.094 -0.2592 -0.4292 -0.3767
  557MOL0     C76784   5.188   6.478   3.137  0.5351 -0.1768  0.8810
  557MOL0     C76785   5.232   6.473   3.266  0.5133 -0.2464 -0.5119
  557MOL0     C76786   5.157   6.400   3.358 -0.1367  0.1528  0.1842
  557MOL0     O76787   5.178   6.390   3.500  0.2752 -0.2990  0.4460
  557MOL0     C76788   5.305   6.434   3.552 -0.1519 -0.8333  0.6615
  557MOL0     C76789   5.299   6.449   3.709  0.0318 -1.3840  0.1581
  557MOL0     C76790   5.235   6.330   3.790 -0.7519 -0.5327 -0.1364
  557MOL0     C76791   5.264   6.352   3.942  0.3433 -0.0341  0.6128
  557MOL0     C76792   5.199   6.477   3.983 -0.7779  0.7192  0.0869
  557MOL0     C76793   5.141   6.582   3.991  0.2893  0.2741  0.8852
  557MOL0     C76794   5.041   6.331   3.320  0.1416 -0.2178 -0.4415
  557MOL0     C76795   4.994   6.345   3.187 -0.2874  0.0481  0.0432
  557MOL0     C76796   4.873   6.260   3.144  0.2101 -0.3053 -0.4672
  557MOL0     H76797   5.168   6.738   2.793 -2.3162 -0.1940  0.3636
  557MOL0     H76798   5.122   6.833   2.560  0.2460 -0.1285  0.8436
  557MOL0     H76799   5.089   6.798   2.187 -0.7100  2.1890  0.1663
  557MOL0     H76800   5.159   6.818   2.343  0.0153 -2.7306 -0.2491
  557MOL0     H76801   4.939   6.893   2.431 -2.6219  1.7694 -0.3067
  557MOL0     H76802   4.977   6.979   2.279 -1.7000 -0.2407 -0.9611
  557MOL0     H76803   4.774   6.745   2.338 -2.8008  0.6426 -0.0163
  557MOL0     H76804   4.729   6.910   2.296 -0.7139 -1.5610  0.3168
  557MOL0     H76805   4.796   6.877   2.062 -0.9836 -2.5955 -3.7425
  557MOL0     H76806   4.886   6.739   2.106  0.6231  0.9513 -1.0943
  557MOL0     H76807   4.586   6.792   2.119 -0.2837 -1.4564  1.4102
  557MOL0     H76808   4.645   6.654   2.205 -0.6644 -1.8033 -0.6534
  557MOL0     H76809   4.646   6.685   1.895 -2.2757  0.8694  0.2517
  557MOL0     H76810   4.727   6.543   1.983 -1.2919 -0.9906  3.2718
  557MOL0     H76811   4.487   6.549   1.890  2.2475 -1.1256 -0.8954
  557MOL0     H76812   4.444   6.652   2.033 -0.0740 -0.1019  1.5490
  557MOL0     H76813   4.543   6.361   2.029 -2.0370 -0.7967  1.0616
  557MOL0     H76814   4.529   6.467   2.178 -0.4365  2.2380  0.1341
  557MOL0     H76815   4.355   6.250   1.941  1.1668  1.4620  0.2195
  557MOL0     H76816   4.068   6.243   1.894  2.3861  1.3719  0.4792
  557MOL0     H76817   3.980   6.204   2.033 -1.2727 -1.8771 -2.0529
  557MOL0     H76818   4.230   6.050   1.936 -0.0968  0.7980  0.8121
  557MOL0     H76819   4.161   6.030   2.099 -1.3339 -1.9430  0.1131
  557MOL0     H76820   3.940   5.944   2.000  0.2570 -0.1423  0.6813
  557MOL0     H76821   4.006   5.980   1.838  2.0679  0.3074  0.0527
  557MOL0     H76822   4.084   5.747   2.032 -2.2655 -1.6892 -1.7936
  557MOL0     H76823   4.006   5.757   1.873 -0.6502 -0.7276 -0.7150
  557MOL0     H76824   4.104   5.574   1.861 -0.9958  3.7433  1.6877
  557MOL0     H76825   4.106   5.338   1.813 -1.3963 -0.0607 -1.9203
  557MOL0     H76826   4.245   5.272   1.705  2.7378  0.7402  1.1850
  557MOL0     H76827   4.112   5.358   1.640 -0.0223  0.9292 -0.4374
  557MOL0     H76828   4.763   5.435   1.406 -1.0668  0.7158  0.3597
  557MOL0     H76829   4.885   5.254   1.292 -2.9194  0.0318 -3.2247
  557MOL0     H76830   5.003   4.969   1.454 -0.0174 -0.4700 -0.4869
  557MOL0     H76831   4.859   4.888   1.501  3.6865  1.8894  3.2082
  557MOL0     H76832   4.974   4.719   1.395  1.4436  0.3210  0.1791
  557MOL0     H76833   4.870   4.784   1.263 -1.1786  3.5718  0.1060
  557MOL0     H76834   5.162   4.874   1.305  1.5195 -0.6116 -1.2924
  557MOL0     H76835   5.059   4.891   1.162  1.5385 -2.3512 -3.0391
  557MOL0     H76836   5.208   4.725   1.091  3.7017  1.7668  2.9964
  557MOL0     H76837   5.083   4.613   1.157  0.5289 -1.2586  2.7022
  557MOL0     H76838   5.326   4.715   1.310 -1.6792  0.8930  1.5158
  557MOL0     H76839   5.197   4.643   1.387  0.8413  1.6255 -0.4571
  557MOL0     H76840   5.226   4.432   1.309  1.0362 -1.1359 -2.5410
  557MOL0     H76841   5.390   4.499   1.343  2.4894  0.2480 -1.7444
  557MOL0     H76842   5.438   4.510   1.097  1.4998 -1.6692  0.7220
  557MOL0     H76843   5.267   4.500   1.057 -0.1739  2.0875  0.7253
  557MOL0     H76844   5.283   4.244   1.132  0.2726 -3.5615 -2.0372
  557MOL0     H76845   5.452   4.273   1.133 -0.5944 -0.9858 -0.0319
  557MOL0     H76846   4.644   4.970   1.513  0.7710 -1.8022 -3.9277
  557MOL0     H76847   4.510   5.147   1.607 -2.0209  1.8726 -1.3087
  557MOL0     H76848   4.529   5.648   1.630 -0.0036 -1.4399 -0.1225
  557MOL0     H76849   4.443   5.817   1.773 -1.0802 -0.1440 -2.0405
  557MOL0     H76850   4.990   6.448   2.435 -3.4377  2.2554 -0.5141
  557MOL0     H76851   5.052   6.341   2.638  4.2542 -0.7151 -1.1409
  557MOL0     H76852   5.233   6.546   3.065  0.5136  1.9848  2.8162
  557MOL0     H76853   5.317   6.532   3.300 -0.5391  0.7790  0.4187
  557MOL0     H76854   5.385   6.365   3.523 -2.2933 -1.8334 -3.7117
  557MOL0     H76855   5.335   6.529   3.507 -3.1734  0.2016  0.6081
  557MOL0     H76856   5.247   6.544   3.723  1.4067 -0.8878  2.3438
  557MOL0     H76857   5.403   6.471   3.732 -0.0288  0.0997 -0.8619
  557MOL0     H76858   5.128   6.319   3.771 -0.7357  0.1354 -0.6347
  557MOL0     H76859   5.282   6.235   3.764 -0.2750 -0.3546  0.0676
  557MOL0     H76860   5.373   6.354   3.946  0.3477 -0.1345  0.5638
  557MOL0     H76861   5.220   6.273   4.003 -3.5098  1.5543  0.1747
  557MOL0     H76862   5.095   6.673   4.023  1.3388  0.9205  0.6103
  557MOL0     H76863   4.978   6.285   3.396  1.8500 -2.5225 -0.3147
  557MOL0     H76864   4.786   6.322   3.121 -1.1476 -2.2969 -1.0141
  557MOL0     H76865   4.888   6.198   3.056  1.1602  0.7016 -1.0387
  557MOL0     H76866   4.850   6.196   3.230 -0.1184  0.0672 -0.2726
  558MOL0     O76867   3.530   4.793   1.552  0.6852  0.0993  0.3617
  558MOL0     C76868   3.417   4.820   1.513  0.3906  0.0582 -1.1995
  558MOL0     O76869   3.382   4.932   1.426  0.4297  0.0697 -0.3479
  558MOL0     C76870   3.468   5.042   1.407  0.4861 -1.0472 -0.4977
  558MOL0     C76871   3.584   5.076   1.471 -0.1984  0.6853 -0.2078
  558MOL0     C76872   3.658   5.178   1.423  0.1438 -0.4496  0.4343
  558MOL0     C76873   3.620   5.239   1.298 -1.3699 -1.4438 -0.8167
  558MOL0     O76874   3.699   5.336   1.237 -0.3633 -0.0688  0.3014
  558MOL0     C76875   3.806   5.395   1.310  0.2305  0.2737 -0.6643
  558MOL0     C76876   3.899   5.487   1.228  0.6436 -0.0866 -0.0955
  558MOL0     C76877   4.032   5.429   1.174  0.3306 -0.5763  0.2793
  558MOL0     C76878   4.110   5.541   1.110  0.5310  0.3670 -0.0298
  558MOL0     C76879   4.250   5.534   1.045 -0.0817 -1.2307 -0.2194
  558MOL0     C76880   4.354   5.518   1.145 -0.7886  0.4993 -0.6248
  558MOL0     C76881   4.493   5.517   1.068 -0.9649 -0.7048  0.0729
  558MOL0     C76882   4.536   5.641   0.988 -0.0779  0.2436  0.7231
  558MOL0     N76883   4.686   5.669   1.000  0.1615 -0.2534  0.3790
  558MOL0     C76884   4.777   5.574   0.982  0.4385  1.4939 -0.0127
  558MOL0     C76885   4.887   5.629   1.034  0.1141  0.5114  1.4829
  558MOL0     C76886   5.032   5.577   1.035  0.2657 -0.1153 -0.1651
  558MOL0     C76887   5.063   5.454   1.125 -1.0585  0.7241  0.2197
  558MOL0     C76888   5.044   5.313   1.063  0.0370  0.0421 -1.0065
  558MOL0     C76889   5.119   5.287   0.933  0.3739  0.2822 -0.5433
  558MOL0     O76890   5.044   5.357   0.833  0.6142 -0.2026  0.4491
  558MOL0     C76891   5.069   5.337   0.699  1.0204 -0.0461 -0.7503
  558MOL0     C76892   5.182   5.281   0.644 -0.3848  0.2300 -0.6725
  558MOL0     C76893   5.216   5.289   0.511 -0.0943  0.2381 -0.1571
  558MOL0     C76894   5.342   5.219   0.470  0.1494  0.3033  0.1038
  558MOL0     C76895   5.120   5.346   0.419 -0.7070 -0.8521  0.5871
  558MOL0     C76896   5.169   5.363   0.276  0.1317  0.7820  0.5272
  558MOL0     O76897   5.302   5.382   0.243  0.3209 -0.0160  0.0219
  558MOL0     C76898   5.334   5.416   0.115  0.0967  0.0249  0.3088
  558MOL0     C76899   5.311   5.541   0.067  0.3709 -0.4484 -0.5898
  558MOL0     C76900   5.355   5.567  -0.069 -0.5589  0.2571  0.0246
  558MOL0     C76901   5.439   5.470  -0.143  0.5953  0.0098 -0.3739
  558MOL0     O76902   5.498   5.509  -0.261  0.4461 -0.2634 -0.2441
  558MOL0     C76903   5.474   5.433  -0.375 -0.5846 -0.5015  0.3311
  558MOL0     C76904   5.596   5.386  -0.454  0.5994  0.1618 -0.1173
  558MOL0     C76905   5.665   5.500  -0.533  0.3722  0.4041  0.1742
  558MOL0     C76906   5.732   5.439  -0.663  0.1701 -0.5982  0.4662
  558MOL0     C76907   5.856   5.369  -0.622  0.4324  0.1694 -0.0933
  558MOL0     C76908   5.926   5.290  -0.737  0.8944 -1.9116 -0.3960
  558MOL0     C76909   5.896   5.148  -0.748 -0.1470 -0.0339 -0.7680
  558MOL0     C76910   5.755   5.119  -0.783  0.0933 -0.1911  0.4979
  558MOL0    Cl76911   5.708   5.162  -0.958 -0.0595  0.1344 -0.2953
  558MOL0     C76912   5.441   5.342  -0.092  0.3173 -0.4526 -0.3087
  558MOL0     C76913   5.386   5.315   0.034  0.3922 -0.2779 -0.3150
  558MOL0     O76914   5.074   5.377   0.198 -0.5443  0.0018 -0.1749
  558MOL0     C76915   4.998   5.391   0.471  0.0094  0.1339  0.4723
  558MOL0     C76916   4.968   5.391   0.610 -0.0735  0.0917  0.0681
  558MOL0     N76917   4.859   5.754   1.075 -0.4720  0.5013 -0.2619
  558MOL0     N76918   4.741   5.785   1.048 -0.0695  0.5975  1.2436
  558MOL0     C76919   3.513   5.203   1.235 -0.5155  0.3676 -0.0120
  558MOL0     C76920   3.429   5.106   1.289 -0.1552 -0.1827 -0.3112
  558MOL0     C76921   3.300   4.726   1.541  0.4068 -0.5344  0.3768
  558MOL0     C76922   3.176   4.764   1.491  0.9846 -0.9833 -0.9286
  558MOL0     C76923   3.070   4.672   1.517  0.2046 -1.1171  0.2997
  558MOL0     C76924   3.076   4.550   1.578  0.0195 -0.0559  0.4732
  558MOL0     O76925   2.957   4.484   1.611  0.5370  0.1435 -0.2160
  558MOL0     C76926   2.885   4.423   1.505 -0.1790  0.3673 -0.2321
  558MOL0     C76927   2.726   4.438   1.514  0.1278 -0.3766  0.4979
  558MOL0     C76928   2.673   4.383   1.649  0.5505  0.6266 -0.4281
  558MOL0     C76929   2.534   4.436   1.673  0.5321 -0.2017 -0.1297
  558MOL0     C76930   2.467   4.377   1.792 -0.8560  0.8716  1.0789
  558MOL0     C76931   2.408   4.353   1.900 -0.6441 -1.2378  0.0174
  558MOL0     C76932   3.199   4.507   1.621 -0.5203  0.3490  0.0107
  558MOL0     C76933   3.312   4.593   1.601  0.0389  0.7244  0.0163
  558MOL0     C76934   3.440   4.529   1.647 -0.1671  0.7725 -0.3433
  558MOL0     H76935   3.613   5.030   1.565  1.8262  0.1467 -1.0286
  558MOL0     H76936   3.751   5.192   1.476  1.3050 -4.1744 -0.2928
  558MOL0     H76937   3.865   5.315   1.353 -0.7840 -0.5424 -0.7500
  558MOL0     H76938   3.773   5.452   1.397  1.8131  1.0558 -0.5330
  558MOL0     H76939   3.837   5.540   1.155  0.2341  1.1398  1.1195
  558MOL0     H76940   3.924   5.560   1.305 -0.7789 -0.5166  0.8176
  558MOL0     H76941   4.096   5.388   1.252  0.2618  4.8594  3.7258
  558MOL0     H76942   4.011   5.350   1.101  1.9773  1.6439 -2.8128
  558MOL0     H76943   4.042   5.569   1.028 -0.6424 -1.0717  0.4016
  558MOL0     H76944   4.125   5.618   1.185  2.4430 -2.2986  2.5283
  558MOL0     H76945   4.261   5.627   0.989 -0.9012 -0.0436  1.4895
  558MOL0     H76946   4.258   5.460   0.965 -5.3580  1.7418 -4.2414
  558MOL0     H76947   4.358   5.594   1.223 -2.1499  1.0274 -1.0335
  558MOL0     H76948   4.346   5.422   1.197  1.3646  1.1018  0.9249
  558MOL0     H76949   4.477   5.430   1.004 -1.0244  0.3211 -1.3641
  558MOL0     H76950   4.560   5.499   1.152 -0.4126  1.1892  0.0741
  558MOL0     H76951   4.503   5.620   0.886  1.2292 -1.0004  0.5206
  558MOL0     H76952   4.478   5.725   1.028 -1.5122  0.2955 -1.3100
  558MOL0     H76953   4.752   5.475   0.947  2.7486 -0.8774  4.1635
  558MOL0     H76954   5.095   5.659   1.074 -2.4988  1.7774  0.6333
  558MOL0     H76955   5.073   5.554   0.937 -0.8756 -0.9755 -0.4597
  558MOL0     H76956   5.168   5.461   1.157 -1.1787 -1.5041  1.2634
  558MOL0     H76957   5.008   5.465   1.219  0.0432 -1.5823  1.2346
  558MOL0     H76958   5.092   5.245   1.133  2.3714  2.4523 -0.1148
  558MOL0     H76959   4.937   5.290   1.051 -0.6244  0.6274  2.6085
  558MOL0     H76960   5.216   5.336   0.935  0.2035  0.9900 -3.7541
  558MOL0     H76961   5.123   5.179   0.913  1.2098  0.1660  0.2092
  558MOL0     H76962   5.252   5.234   0.712  1.1109  2.4978 -0.5336
  558MOL0     H76963   5.381   5.150   0.545 -0.3878  0.2359  0.3257
  558MOL0     H76964   5.415   5.293   0.437 -1.9799  1.8877 -1.3709
  558MOL0     H76965   5.311   5.164   0.380 -0.4227  1.5594 -0.4896
  558MOL0     H76966   5.244   5.608   0.121  1.1250 -1.7071  2.0959
  558MOL0     H76967   5.338   5.659  -0.125 -2.0626  0.1330  0.2409
  558MOL0     H76968   5.424   5.338  -0.355  2.1470 -2.4012 -1.1605
  558MOL0     H76969   5.399   5.489  -0.431 -0.9404  0.4211  1.6651
  558MOL0     H76970   5.653   5.343  -0.370 -3.5009 -1.7861  1.9418
  558MOL0     H76971   5.566   5.302  -0.517 -0.0293  0.3652 -0.0919
  558MOL0     H76972   5.740   5.542  -0.466  0.6841 -0.8030  0.6001
  558MOL0     H76973   5.596   5.582  -0.556  0.0842  0.4615  1.2167
  558MOL0     H76974   5.753   5.513  -0.742  0.1406 -2.4336 -1.3348
  558MOL0     H76975   5.668   5.359  -0.700  0.2374 -0.4106 -0.0637
  558MOL0     H76976   5.919   5.454  -0.594  0.6551  1.2286 -3.3919
  558MOL0     H76977   5.846   5.315  -0.527  1.7278  3.9155  2.3849
  558MOL0     H76978   6.025   5.289  -0.690 -0.3287 -0.5759  2.4747
  558MOL0     H76979   5.944   5.328  -0.838  1.5949 -1.6204 -0.1703
  558MOL0     H76980   5.914   5.101  -0.651 -2.8204  0.4354  0.0365
  558MOL0     H76981   5.964   5.114  -0.827  0.8043  0.7821 -0.3389
  558MOL0     H76982   5.680   5.143  -0.707 -2.1389 -3.2568 -0.5311
  558MOL0     H76983   5.743   5.011  -0.798  0.3914  0.1031 -2.4084
  558MOL0     H76984   5.483   5.263  -0.154  4.5131  0.6261  0.8017
  558MOL0     H76985   5.387   5.222   0.090 -4.7057 -0.4638 -0.0883
  558MOL0     H76986   4.919   5.425   0.405  0.0820 -1.4048 -0.4474
  558MOL0     H76987   4.871   5.422   0.647 -1.7385 -0.5626 -3.3445
  558MOL0     H76988   3.488   5.241   1.137  2.7066 -0.6250 -1.3518
  558MOL0     H76989   3.338   5.085   1.235 -0.5662  1.1044 -0.1563
  558MOL0     H76990   3.154   4.859   1.445  1.4645  1.5082  3.4572
  558MOL0     H76991   2.970   4.697   1.484  1.0088 -0.2763 -1.6754
  558MOL0     H76992   2.927   4.466   1.414  3.7062 -0.2766  1.0542
  558MOL0     H76993   2.921   4.320   1.508  1.0218  0.7506 -0.8637
  558MOL0     H76994   2.665   4.390   1.437  0.0395 -0.1533  0.4275
  558MOL0     H76995   2.718   4.547   1.509  1.1138 -0.2233  1.6944
  558MOL0     H76996   2.667   4.274   1.654 -0.1107  0.7300  2.4141
  558MOL0     H76997   2.743   4.415   1.726 -1.8595  0.9191  1.7611
  558MOL0     H76998   2.460   4.439   1.593  0.8998  1.6619 -0.4514
  558MOL0     H76999   2.548   4.543   1.691  0.0011  0.3525 -2.6875
  558MOL0     H77000   2.356   4.341   1.992 -1.4449  1.8915  0.0942
  558MOL0     H77001   3.191   4.421   1.686 -1.7241  0.6877  0.3381
  558MOL0     H77002   3.520   4.538   1.572  0.5858 -1.9235  0.0160
  558MOL0     H77003   3.471   4.577   1.740 -0.9759  1.7346 -0.5632
  558MOL0     H77004   3.417   4.422   1.657 -2.6918  1.1482 -1.4205
  559MOL0     O77005   5.410   8.935  10.147 -0.4954  0.2675 -0.1459
  559MOL0     C77006   5.504   8.922  10.061  0.6800 -0.1874 -0.3496
  559MOL0     O77007   5.608   8.837  10.068 -0.2809 -0.0454 -0.3134
  559MOL0     C77008   5.619   8.782  10.195  0.5842  0.1556  0.3547
  559MOL0     C77009   5.700   8.837  10.299 -1.1885 -0.2516  0.2743
  559MOL0     C77010   5.735   8.769  10.415 -0.2737 -0.8448  0.0562
  559MOL0     C77011   5.702   8.634  10.426 -0.1012  0.6218  0.2736
  559MOL0     O77012   5.757   8.546  10.525  0.6149 -0.4238 -1.0708
  559MOL0     C77013   5.894   8.571  10.554 -0.0877  0.0196  0.1093
  559MOL0     C77014   5.970   8.451  10.625 -0.1369 -0.1633 -0.1041
  559MOL0     C77015   5.986   8.335  10.524  0.6292 -0.8640 -0.1547
  559MOL0     C77016   6.008   8.199  10.585 -0.1053 -0.4946 -0.8973
  559MOL0     C77017   6.156   8.170  10.606  0.7486 -0.3946 -0.1836
  559MOL0     C77018   6.190   8.084  10.737 -0.2435  0.4017 -0.2455
  559MOL0     C77019   6.344   8.082  10.763  0.7250  0.0184 -0.0196
  559MOL0     C77020   6.434   8.022  10.653  0.2722  1.0422 -0.3300
  559MOL0     N77021   6.571   8.017  10.694  0.2644 -0.0950  0.3348
  559MOL0     C77022   6.640   8.126  10.751  0.0392  0.9560 -0.0680
  559MOL0     C77023   6.771   8.097  10.741  1.0087  0.1237  0.0804
  559MOL0     C77024   6.875   8.191  10.794 -0.1623 -0.4072  0.0167
  559MOL0     C77025   6.889   8.157  10.946  0.1410  0.0121 -0.2868
  559MOL0     C77026   6.952   8.017  10.985  0.2313  0.1284 -0.1935
  559MOL0     C77027   7.077   7.968  10.913  0.4724 -0.7164 -0.2174
  559MOL0     O77028   7.188   8.038  10.984 -0.9262 -0.1816 -0.0907
  559MOL0     C77029   7.314   7.989  10.957  0.6142 -0.3213 -1.0460
  559MOL0     C77030   7.419   8.068  10.996 -0.9906  0.1444  0.1821
  559MOL0     C77031   7.550   8.032  10.986 -0.8395  0.1373 -0.8428
  559MOL0     C77032   7.649   8.135  11.034 -0.7495 -0.2155 -0.0724
  559MOL0     C77033   7.592   7.903  10.945  0.8604 -0.3267 -0.3832
  559MOL0     C77034   7.728   7.856  10.925  0.0450  0.2419  1.0729
  559MOL0     O77035   7.746   7.737  10.845  0.1113  0.0666  0.6737
  559MOL0     C77036   7.865   7.717  10.789  0.3747 -0.1570 -0.7347
  559MOL0     C77037   7.946   7.817  10.731  0.4409 -0.5263  0.1055
  559MOL0     C77038   8.067   7.790  10.673 -0.1352 -0.3064  0.6021
  559MOL0     C77039   8.110   7.661  10.662  0.0118  0.0286 -0.3505
  559MOL0     O77040   8.248   7.643  10.620  0.0548 -0.1741 -0.5220
  559MOL0     C77041   8.333   7.540  10.673 -0.1611  0.7828  0.4144
  559MOL0     C77042   8.418   7.473  10.579 -0.1361  1.2787 -0.0347
  559MOL0     C77043   8.520   7.567  10.515  0.3845 -0.5976  0.2807
  559MOL0     C77044   8.597   7.655  10.615  0.4700 -0.2440  0.6460
  559MOL0     C77045   8.699   7.755  10.545 -1.0612 -0.4274  0.0907
  559MOL0     C77046   8.659   7.794  10.410  0.9629  0.5436  0.1923
  559MOL0     C77047   8.727   7.916  10.347  0.4078  0.3228 -0.5170
  559MOL0     C77048   8.719   7.933  10.201 -0.7961 -0.9325  0.4446
  559MOL0    Cl77049   8.853   8.051  10.153  0.2307 -0.2407  0.3924
  559MOL0     C77050   8.039   7.561  10.723  0.2823  1.1093  0.5205
  559MOL0     C77051   7.907   7.586  10.761  0.0750 -0.7897 -0.5807
  559MOL0     O77052   7.813   7.898  11.007  0.1885  0.7023 -0.0212
  559MOL0     C77053   7.479   7.828  10.901  0.5314  0.4854 -0.1929
  559MOL0     C77054   7.344   7.864  10.918  0.1263 -0.4931  0.5608
  559MOL0     N77055   6.784   7.976  10.678 -0.7850  0.2265 -0.1555
  559MOL0     N77056   6.666   7.926  10.653 -0.4250 -0.0803 -1.0864
  559MOL0     C77057   5.611   8.581  10.333 -0.1255  1.3720  0.8122
  559MOL0     C77058   5.571   8.654  10.212 -0.6094  0.6543 -0.3434
  559MOL0     C77059   5.483   9.003   9.936  0.3459 -1.2370 -0.5489
  559MOL0     C77060   5.357   9.059   9.915 -0.0455 -0.3194 -1.0744
  559MOL0     C77061   5.314   9.127   9.799 -0.6672  0.1050 -0.4218
  559MOL0     C77062   5.397   9.134   9.690 -0.0933 -0.7031 -0.1787
  559MOL0     O77063   5.352   9.190   9.573  1.4764  0.2455 -0.2271
  559MOL0     C77064   5.442   9.288   9.522 -0.9117 -0.5866  0.5128
  559MOL0     C77065   5.454   9.423   9.608  0.8846  0.3648  0.0487
  559MOL0     C77066   5.343   9.520   9.573 -1.2306 -0.4846 -0.8120
  559MOL0     C77067   5.196   9.467   9.612  0.0948  0.3148  0.2742
  559MOL0     C77068   5.111   9.592   9.629 -0.8647  0.8563 -0.1587
  559MOL0     C77069   5.035   9.682   9.635 -0.3357 -0.6809 -0.2577
  559MOL0     C77070   5.532   9.087   9.712 -0.4209 -0.2745  0.0656
  559MOL0     C77071   5.566   9.027   9.835 -0.2995  0.8761 -0.1640
  559MOL0     C77072   5.710   8.984   9.833  0.9080  0.2062  0.0395
  559MOL0     H77073   5.749   8.934  10.302  4.7155 -2.8435  1.9989
  559MOL0     H77074   5.806   8.808  10.488  1.7322 -2.6664 -0.8018
  559MOL0     H77075   5.907   8.653  10.625 -0.3999 -0.0712  0.2697
  559MOL0     H77076   5.949   8.587  10.461 -1.3119 -1.1442 -0.8571
  559MOL0     H77077   6.073   8.482  10.647 -0.6882 -0.3811  3.3568
  559MOL0     H77078   5.929   8.422  10.723 -0.7085 -0.6673 -0.4884
  559MOL0     H77079   5.889   8.321  10.474  1.7172 -2.0569 -2.0626
  559MOL0     H77080   6.058   8.371  10.450  0.0097 -3.0509 -1.9711
  559MOL0     H77081   5.952   8.176  10.676  3.4043  1.4027  2.0067
  559MOL0     H77082   5.975   8.116  10.522  0.1838 -1.8675  0.6926
  559MOL0     H77083   6.213   8.261  10.628 -1.2020  0.7084  0.5966
  559MOL0     H77084   6.187   8.134  10.508 -2.1085  0.9715 -1.7461
  559MOL0     H77085   6.137   8.124  10.824  0.9727 -0.0724  0.7318
  559MOL0     H77086   6.147   7.984  10.726 -0.9288  0.5561  0.8679
  559MOL0     H77087   6.362   8.032  10.859 -4.4245 -0.1898  1.1225
  559MOL0     H77088   6.371   8.186  10.785 -2.5196  0.8792  0.3106
  559MOL0     H77089   6.389   7.925  10.633 -1.7208  2.2694 -2.2375
  559MOL0     H77090   6.422   8.070  10.556  2.1211  3.2116  0.4187
  559MOL0     H77091   6.609   8.220  10.795  0.0611  0.3436  1.3164
  559MOL0     H77092   6.860   8.299  10.784  0.5674 -0.1964  0.9472
  559MOL0     H77093   6.970   8.162  10.748 -0.2949  0.2143 -0.6608
  559MOL0     H77094   6.949   8.236  10.993  0.8275 -0.0739 -1.0005
  559MOL0     H77095   6.793   8.165  10.997  0.0938  0.2043 -0.4035
  559MOL0     H77096   6.967   8.020  11.093  0.7228  0.7265 -0.2684
  559MOL0     H77097   6.879   7.938  10.970  0.3203  0.1017 -0.5077
  559MOL0     H77098   7.078   7.860  10.931  0.4560 -1.5565 -4.3369
  559MOL0     H77099   7.070   7.987  10.806  0.6683  0.6047 -0.0118
  559MOL0     H77100   7.388   8.165  11.033 -0.9888  1.4306 -2.8866
  559MOL0     H77101   7.663   8.190  10.940 -0.3491  0.5107  0.3978
  559MOL0     H77102   7.748   8.106  11.071 -0.7079  3.2523  3.2188
  559MOL0     H77103   7.609   8.196  11.116 -1.0307  0.1225 -0.4569
  559MOL0     H77104   7.924   7.923  10.742 -0.8553 -0.0175 -4.9310
  559MOL0     H77105   8.133   7.862  10.625  2.1114 -2.5749  0.1032
  559MOL0     H77106   8.395   7.582  10.752 -0.7964  1.8237  0.3742
  559MOL0     H77107   8.270   7.456  10.703 -3.2400  2.3451 -1.2149
  559MOL0     H77108   8.474   7.385  10.610 -1.2840  0.1003 -1.1681
  559MOL0     H77109   8.356   7.429  10.500  2.2349 -1.1412 -0.6761
  559MOL0     H77110   8.464   7.625  10.442 -0.3623  0.2350  1.4827
  559MOL0     H77111   8.602   7.517  10.462  0.6594 -3.6876  3.2582
  559MOL0     H77112   8.639   7.592  10.694 -1.0893 -1.3707  0.6257
  559MOL0     H77113   8.527   7.729  10.654 -0.0753 -1.8566  2.9264
  559MOL0     H77114   8.712   7.847  10.602  0.2641  0.7611 -1.9876
  559MOL0     H77115   8.799   7.712  10.543 -1.6195 -2.0633  2.8123
  559MOL0     H77116   8.554   7.824  10.412  1.6422  3.1108  0.3818
  559MOL0     H77117   8.679   7.712  10.341  1.4402  2.8100 -2.5437
  559MOL0     H77118   8.829   7.928  10.384  0.0018 -0.5462  1.0248
  559MOL0     H77119   8.670   7.998  10.392  1.7609 -0.1666  2.3306
  559MOL0     H77120   8.618   7.969  10.179  0.6403  1.3359 -3.5349
  559MOL0     H77121   8.731   7.840  10.143 -0.7101 -0.2288 -0.6975
  559MOL0     H77122   8.069   7.457  10.714 -1.6467  0.6831 -2.0570
  559MOL0     H77123   7.840   7.507  10.794  0.3217 -0.2337  1.4145
  559MOL0     H77124   7.502   7.729  10.861  2.1009  0.2289  1.1977
  559MOL0     H77125   7.271   7.791  10.882 -2.0619  1.2087  1.3482
  559MOL0     H77126   5.590   8.474  10.336  2.2674  0.6513 -2.5837
  559MOL0     H77127   5.511   8.603  10.136  2.1180 -1.3357 -1.3163
  559MOL0     H77128   5.287   9.055   9.999  2.5872 -1.4960  1.2108
  559MOL0     H77129   5.215   9.171   9.793  0.1179  2.5268  1.8831
  559MOL0     H77130   5.542   9.247   9.514 -0.3201  1.0566 -1.1769
  559MOL0     H77131   5.417   9.314   9.419  0.5894  0.5231  0.3866
  559MOL0     H77132   5.537   9.484   9.571  0.7111  2.4338  2.7295
  559MOL0     H77133   5.461   9.403   9.716  0.0577  0.7658  0.1843
  559MOL0     H77134   5.366   9.609   9.631  1.7128  0.7793 -3.6085
  559MOL0     H77135   5.340   9.550   9.468 -2.6025  1.1535 -0.3287
  559MOL0     H77136   5.193   9.414   9.708  4.2865 -0.9650 -0.1061
  559MOL0     H77137   5.169   9.396   9.533 -0.6356 -1.7372  2.2476
  559MOL0     H77138   4.950   9.742   9.663  0.1851  0.7081 -1.5098
  559MOL0     H77139   5.606   9.103   9.634  2.5128  0.2553  2.7362
  559MOL0     H77140   5.774   9.033   9.908  1.3259 -1.7072  0.9982
  559MOL0     H77141   5.703   8.876   9.846 -1.5588 -0.2785 -3.8259
  559MOL0     H77142   5.760   8.995   9.736  3.7433 -1.8390  1.1090
  560MOL0     O77143   1.022   7.163   2.289  0.0281 -1.2542 -0.2236
  560MOL0     C77144   0.916   7.194   2.335 -0.3520 -0.3146  1.1376
  560MOL0     O77145   0.795   7.168   2.277 -0.1095 -0.1606 -1.0629
  560MOL0     C77146   0.778   7.066   2.192  0.6694 -0.4030 -0.3954
  560MOL0     C77147   0.739   7.090   2.060  1.1354  0.2550 -0.2837
  560MOL0     C77148   0.701   6.994   1.966 -0.2934  0.2168  0.0544
  560MOL0     C77149   0.684   6.863   2.008 -0.7428 -0.5433  0.3568
  560MOL0     O77150   0.643   6.765   1.924 -0.5689  0.1213 -0.0409
  560MOL0     C77151   0.544   6.788   1.814 -0.7278 -0.0443  0.5618
  560MOL0     C77152   0.490   6.655   1.768 -0.9708 -0.9556 -0.1758
  560MOL0     C77153   0.392   6.607   1.890  0.3990 -0.0290  0.2139
  560MOL0     C77154   0.330   6.468   1.856  0.3597 -0.2881 -0.3008
  560MOL0     C77155   0.223   6.422   1.959  0.9930  0.8501 -0.1550
  560MOL0     C77156   0.148   6.297   1.906  0.2952  0.4418 -0.3405
  560MOL0     C77157   0.046   6.332   1.801  0.3163 -0.8819 -0.0492
  560MOL0     C77158  -0.066   6.233   1.775 -0.0093  0.3434 -0.0800
  560MOL0     N77159  -0.019   6.105   1.715  0.3632 -0.8771 -0.0785
  560MOL0     C77160   0.061   6.010   1.778  0.5149  0.3892 -0.4097
  560MOL0     C77161   0.059   5.905   1.692  0.4783  0.1967 -0.2687
  560MOL0     C77162   0.111   5.766   1.700  0.0162 -0.0346  0.2889
  560MOL0     C77163   0.261   5.737   1.665  0.4436  0.8984 -0.7510
  560MOL0     C77164   0.275   5.747   1.515 -0.0138  0.3877 -0.1018
  560MOL0     C77165   0.425   5.747   1.492 -0.0021 -0.4217  0.3100
  560MOL0     O77166   0.445   5.797   1.362 -0.6057 -0.4942 -0.1150
  560MOL0     C77167   0.569   5.785   1.306  0.6338 -0.2577  0.5436
  560MOL0     C77168   0.684   5.741   1.365  0.3505  0.4345 -0.6991
  560MOL0     C77169   0.813   5.745   1.304 -1.0375 -0.4191 -0.3124
  560MOL0     C77170   0.927   5.710   1.391  0.5908  0.3826 -0.5696
  560MOL0     C77171   0.825   5.816   1.176 -0.8279  0.8805  1.7200
  560MOL0     C77172   0.959   5.860   1.112 -0.4082 -0.0634 -0.4445
  560MOL0     O77173   0.967   5.922   0.992  0.0022 -0.2002  1.0077
  560MOL0     C77174   1.097   5.954   0.953 -0.8028 -0.3384 -0.0044
  560MOL0     C77175   1.164   5.874   0.866 -0.3020  0.4197 -0.2856
  560MOL0     C77176   1.284   5.916   0.825  0.1182  0.6467  0.0855
  560MOL0     C77177   1.324   6.048   0.829 -0.3213 -0.1322 -0.3821
  560MOL0     O77178   1.438   6.077   0.740  0.4531  0.0769  0.1490
  560MOL0     C77179   1.515   6.185   0.768 -0.1176 -1.0276 -0.7884
  560MOL0     C77180   1.610   6.174   0.885  0.5919  0.3573  0.1047
  560MOL0     C77181   1.715   6.058   0.846 -0.7381  0.2445  0.5351
  560MOL0     C77182   1.791   5.997   0.967  0.3753  0.2423 -0.1853
  560MOL0     C77183   1.886   5.881   0.948 -0.2286 -0.3340  0.9027
  560MOL0     C77184   2.007   5.912   0.846 -0.3275 -1.0744 -0.7035
  560MOL0     C77185   2.132   5.824   0.870  0.1633 -0.0390  0.5768
  560MOL0     C77186   2.124   5.684   0.828 -0.1063 -0.4246  0.1001
  560MOL0    Cl77187   2.293   5.620   0.806 -0.2506  0.7734  0.1075
  560MOL0     C77188   1.252   6.134   0.914  0.5959  0.2537 -0.2199
  560MOL0     C77189   1.139   6.080   0.989  0.3635  0.5525 -0.0756
  560MOL0     O77190   1.048   5.801   1.166  0.0577  0.0169 -0.2679
  560MOL0     C77191   0.708   5.844   1.112  0.4710  0.6881  0.5180
  560MOL0     C77192   0.579   5.844   1.178 -0.2163  1.0270 -0.2767
  560MOL0     N77193  -0.011   5.938   1.578 -0.3584 -0.7257  0.1898
  560MOL0     N77194  -0.060   6.052   1.592  0.5954 -0.0153 -0.1054
  560MOL0     C77195   0.703   6.841   2.145 -0.9486  0.1629 -0.0936
  560MOL0     C77196   0.744   6.942   2.242  0.3408  0.6686 -0.4186
  560MOL0     C77197   0.908   7.273   2.464 -0.9895  0.2744 -0.2253
  560MOL0     C77198   0.788   7.284   2.531 -0.1838  0.0877  0.0749
  560MOL0     C77199   0.771   7.352   2.647  0.7936  0.4301  0.3871
  560MOL0     C77200   0.874   7.424   2.706  1.1144 -1.1851 -0.0979
  560MOL0     O77201   0.850   7.488   2.825 -0.2235 -0.2794 -0.5437
  560MOL0     C77202   0.914   7.439   2.941  1.2304 -0.1890  0.6536
  560MOL0     C77203   0.972   7.550   3.039  1.5528  0.7185  0.6058
  560MOL0     C77204   1.040   7.490   3.168 -0.6294  0.4588 -0.8241
  560MOL0     C77205   0.971   7.492   3.306 -0.5565 -0.0519  0.5950
  560MOL0     C77206   0.883   7.378   3.329 -0.1398 -0.5039  0.4408
  560MOL0     C77207   0.816   7.282   3.350  0.1069 -0.1609  0.4282
  560MOL0     C77208   0.989   7.433   2.636 -0.5611 -0.0295  0.7370
  560MOL0     C77209   1.010   7.352   2.516  0.6978  0.3640 -0.2761
  560MOL0     C77210   1.132   7.384   2.439  0.2393  0.1438 -1.2101
  560MOL0     H77211   0.751   7.195   2.034  0.6697  0.6671  1.0481
  560MOL0     H77212   0.693   7.017   1.860 -0.1757 -1.4049 -0.3370
  560MOL0     H77213   0.589   6.833   1.725 -3.1318  0.6163 -0.3886
  560MOL0     H77214   0.473   6.859   1.857  1.3465  1.2797  2.0395
  560MOL0     H77215   0.429   6.673   1.679  0.2761  0.2383 -0.8411
  560MOL0     H77216   0.568   6.580   1.750 -0.6455 -1.3146  2.3709
  560MOL0     H77217   0.450   6.589   1.981  1.0669  1.0170  0.0082
  560MOL0     H77218   0.321   6.689   1.905  0.9143  1.1046 -2.8226
  560MOL0     H77219   0.278   6.495   1.764 -0.8241 -1.2568  0.0708
  560MOL0     H77220   0.406   6.393   1.832  1.5711 -0.6137  3.8090
  560MOL0     H77221   0.156   6.503   1.989  1.2706  1.5120 -1.2797
  560MOL0     H77222   0.268   6.389   2.053 -0.1763  2.6642  1.1159
  560MOL0     H77223   0.220   6.230   1.858 -2.1807 -2.6975 -0.0422
  560MOL0     H77224   0.100   6.240   1.986  0.2910  1.2507  0.2440
  560MOL0     H77225   0.095   6.353   1.706  0.5290 -0.4248  0.1593
  560MOL0     H77226   0.006   6.429   1.831  1.4873 -0.4429  0.1318
  560MOL0     H77227  -0.128   6.203   1.860 -2.0641 -1.5118 -2.0946
  560MOL0     H77228  -0.144   6.280   1.714 -1.3081  1.6706  2.4500
  560MOL0     H77229   0.107   6.010   1.877  4.1971  3.4089 -1.8652
  560MOL0     H77230   0.049   5.696   1.645  0.9809 -2.6289  2.2976
  560MOL0     H77231   0.088   5.732   1.801 -0.9821 -2.0788 -0.5666
  560MOL0     H77232   0.319   5.807   1.726 -3.8168  0.8849  3.9791
  560MOL0     H77233   0.277   5.632   1.690  1.4714  1.3085  0.4219
  560MOL0     H77234   0.229   5.663   1.463  0.1065 -0.1491  0.6484
  560MOL0     H77235   0.233   5.843   1.484 -3.9695 -0.9724  0.4489
  560MOL0     H77236   0.468   5.825   1.555  2.6031 -0.7337 -0.9696
  560MOL0     H77237   0.459   5.644   1.507 -3.1269 -1.2606  2.7750
  560MOL0     H77238   0.661   5.701   1.463 -3.4300 -0.6551 -1.8536
  560MOL0     H77239   0.994   5.637   1.343 -0.8158 -2.0003  0.9211
  560MOL0     H77240   0.900   5.677   1.491  3.2861 -1.1995 -0.2706
  560MOL0     H77241   0.973   5.808   1.406 -1.4315  1.3992 -0.6814
  560MOL0     H77242   1.111   5.786   0.831  2.1231 -0.6595 -1.4741
  560MOL0     H77243   1.336   5.841   0.765  0.1625  1.3522 -0.7843
  560MOL0     H77244   1.576   6.217   0.683  0.7674  2.1738  0.8501
  560MOL0     H77245   1.443   6.268   0.774  2.1894  0.9986  3.2119
  560MOL0     H77246   1.658   6.269   0.910  2.0279 -0.1999 -0.4699
  560MOL0     H77247   1.559   6.140   0.976  2.9596 -0.2268  1.2754
  560MOL0     H77248   1.790   6.091   0.774  0.9303 -1.7072  1.2765
  560MOL0     H77249   1.662   5.974   0.798  1.9991  0.3789 -3.1672
  560MOL0     H77250   1.726   5.950   1.041  2.7142  1.2766  2.7223
  560MOL0     H77251   1.831   6.072   1.035  1.0284 -1.0509  0.9116
  560MOL0     H77252   1.934   5.844   1.039  2.3657 -0.8115 -0.5379
  560MOL0     H77253   1.825   5.798   0.910  1.0301 -1.8295  2.0186
  560MOL0     H77254   2.039   6.015   0.865 -2.1851 -0.8150  1.4466
  560MOL0     H77255   1.960   5.901   0.748 -0.9140 -2.0921 -0.3175
  560MOL0     H77256   2.171   5.828   0.972 -0.4909 -2.4652  0.9721
  560MOL0     H77257   2.209   5.872   0.809 -1.3641  4.0166  1.4967
  560MOL0     H77258   2.077   5.666   0.731 -0.9024 -1.3926  0.6393
  560MOL0     H77259   2.073   5.622   0.902  0.7204 -1.2960 -0.0523
  560MOL0     H77260   1.282   6.238   0.909 -0.9812  0.7168 -0.5146
  560MOL0     H77261   1.072   6.129   1.059 -1.5679 -0.4360 -1.1341
  560MOL0     H77262   0.696   5.907   1.025  0.4834 -0.5344 -0.3914
  560MOL0     H77263   0.496   5.898   1.133 -0.5157 -1.9968 -3.9116
  560MOL0     H77264   0.705   6.739   2.183 -2.5178  0.5405  1.1225
  560MOL0     H77265   0.763   6.925   2.347 -0.3800  0.7362 -0.2743
  560MOL0     H77266   0.710   7.215   2.502  1.1602 -2.7527  2.6803
  560MOL0     H77267   0.678   7.351   2.704 -0.1350  3.0800 -0.8807
  560MOL0     H77268   0.844   7.378   2.999  0.8453  0.6549  1.0865
  560MOL0     H77269   0.998   7.375   2.910  0.0052 -2.0885  1.0623
  560MOL0     H77270   0.893   7.620   3.067 -0.8112 -0.0653 -3.2979
  560MOL0     H77271   1.050   7.604   2.985  2.3439 -1.9415 -1.1279
  560MOL0     H77272   1.053   7.384   3.144 -4.7269 -0.3380 -0.2713
  560MOL0     H77273   1.127   7.551   3.195 -0.8817 -0.3335  2.0131
  560MOL0     H77274   0.913   7.584   3.308  0.6695  0.7669 -0.1337
  560MOL0     H77275   1.042   7.501   3.389 -2.1620  0.3138  1.9834
  560MOL0     H77276   0.772   7.184   3.355  3.7215 -2.1167 -1.8579
  560MOL0     H77277   1.066   7.504   2.663  2.6052 -2.3886 -1.4389
  560MOL0     H77278   1.202   7.455   2.484 -2.5095  1.7382  0.7972
  560MOL0     H77279   1.186   7.292   2.416 -0.4571 -1.2543  2.1697
  560MOL0     H77280   1.111   7.425   2.339  0.7025  0.7620 -1.0602
  561MOL0     O77281   1.722   1.087   2.638 -0.4122 -0.4065  0.2547
  561MOL0     C77282   1.634   1.162   2.677 -0.3720  0.5618  1.5411
  561MOL0     O77283   1.502   1.125   2.669  0.1001 -0.3472 -0.1359
  561MOL0     C77284   1.471   1.006   2.600 -0.7633  0.8008  0.6820
  561MOL0     C77285   1.408   1.005   2.475 -0.1195 -0.0629  0.0368
  561MOL0     C77286   1.367   0.885   2.423  0.6160  0.6347 -0.1636
  561MOL0     C77287   1.384   0.763   2.493 -0.2274 -0.2612 -0.8263
  561MOL0     O77288   1.328   0.643   2.453  0.2513 -0.8672  0.7673
  561MOL0     C77289   1.203   0.669   2.376  0.2336 -0.8439 -0.0733
  561MOL0     C77290   1.119   0.533   2.402 -0.3314 -0.0994 -0.0818
  561MOL0     C77291   0.969   0.552   2.370 -0.3577 -0.1731  0.2227
  561MOL0     C77292   0.893   0.635   2.472 -0.7479  0.1847  0.2380
  561MOL0     C77293   0.745   0.656   2.444 -0.2681 -0.3432 -0.4774
  561MOL0     C77294   0.667   0.723   2.564  0.1122  0.3690 -0.5103
  561MOL0     C77295   0.671   0.641   2.697 -0.3079  0.2049 -0.0814
  561MOL0     C77296   0.586   0.704   2.804 -0.8422 -0.5628  0.5646
  561MOL0     N77297   0.638   0.842   2.838 -1.2484 -0.0285 -1.3535
  561MOL0     C77298   0.747   0.864   2.918 -1.0876 -0.3449 -1.4260
  561MOL0     C77299   0.774   0.996   2.916  0.4330  0.6611 -0.2448
  561MOL0     C77300   0.882   1.081   2.984 -1.3234  0.2046  0.5059
  561MOL0     C77301   0.967   1.173   2.889  0.0881 -0.0493  0.2917
  561MOL0     C77302   1.016   1.084   2.767  0.1546  1.5930 -0.5174
  561MOL0     C77303   1.119   1.160   2.676 -0.7716 -0.4290  0.0642
  561MOL0     O77304   1.065   1.280   2.613 -0.1122 -0.3503 -0.9575
  561MOL0     C77305   0.994   1.276   2.497 -0.4901 -0.4165  0.2707
  561MOL0     C77306   0.942   1.162   2.443 -0.7793  0.2345  0.8638
  561MOL0     C77307   0.870   1.170   2.319  0.3987 -0.2831  0.2593
  561MOL0     C77308   0.791   1.048   2.275  0.1643  0.6089  0.7499
  561MOL0     C77309   0.855   1.289   2.246  0.0741 -1.0872  0.2403
  561MOL0     C77310   0.792   1.297   2.112  0.3138 -0.6517  0.2009
  561MOL0     O77311   0.717   1.417   2.088 -0.3249 -0.3059  0.6472
  561MOL0     C77312   0.653   1.431   1.970  0.8402 -0.9235 -0.0438
  561MOL0     C77313   0.544   1.350   1.949  0.2771  0.1903 -0.1834
  561MOL0     C77314   0.478   1.342   1.818  0.0135 -1.5188 -0.3930
  561MOL0     C77315   0.521   1.433   1.716  0.1589  0.5665 -1.0100
  561MOL0     O77316   0.466   1.430   1.588  0.9361 -1.0608  0.3022
  561MOL0     C77317   0.366   1.528   1.566  0.5603 -0.5686 -0.1039
  561MOL0     C77318   0.306   1.540   1.423 -0.5550 -0.2793 -0.2481
  561MOL0     C77319   0.407   1.548   1.319 -0.7015  0.8810 -0.1231
  561MOL0     C77320   0.474   1.689   1.302  0.9338 -0.0182  1.4169
  561MOL0     C77321   0.575   1.685   1.184 -0.1535 -0.1687 -0.2831
  561MOL0     C77322   0.507   1.694   1.044  0.0738  0.1039  0.2476
  561MOL0     C77323   0.538   1.824   0.970  0.5970  0.2047  0.1192
  561MOL0     C77324   0.516   1.802   0.825  0.0250  0.7031 -1.0123
  561MOL0    Cl77325   0.579   1.942   0.750  0.0730  0.0160  0.2685
  561MOL0     C77326   0.619   1.525   1.749 -0.4866  0.5861  0.1918
  561MOL0     C77327   0.686   1.523   1.871 -0.5145 -0.3246  0.0843
  561MOL0     O77328   0.806   1.199   2.039  0.0946 -0.3770  0.1702
  561MOL0     C77329   0.905   1.400   2.309  0.0142  0.1227 -0.6244
  561MOL0     C77330   0.962   1.398   2.436  0.0256  0.3052 -0.6657
  561MOL0     N77331   0.668   1.043   2.837  0.0386 -0.2411  0.6484
  561MOL0     N77332   0.578   0.951   2.798 -0.9009 -0.2165 -0.0883
  561MOL0     C77333   1.450   0.763   2.615  0.5628 -0.5769 -0.4290
  561MOL0     C77334   1.488   0.884   2.676 -1.0371  0.1097 -0.2773
  561MOL0     C77335   1.655   1.295   2.723  0.7805  0.1659  0.4800
  561MOL0     C77336   1.553   1.353   2.797  0.2232  0.6240 -0.7087
  561MOL0     C77337   1.568   1.469   2.867  0.1525  0.6988  0.6466
  561MOL0     C77338   1.679   1.545   2.848 -0.3139  0.1701  0.2055
  561MOL0     O77339   1.691   1.676   2.894 -0.7707  0.0930 -0.5386
  561MOL0     C77340   1.612   1.721   3.005  0.8729  0.3037  0.7793
  561MOL0     C77341   1.641   1.862   3.045 -0.1330  0.6009  0.0438
  561MOL0     C77342   1.534   1.916   3.145  0.3729 -0.5020 -0.7182
  561MOL0     C77343   1.550   2.068   3.186 -0.2771  1.4317 -0.7406
  561MOL0     C77344   1.455   2.157   3.129  0.3177  0.2639 -0.4515
  561MOL0     C77345   1.379   2.237   3.075  1.1247  0.0465  1.1843
  561MOL0     C77346   1.778   1.495   2.755 -0.1746  1.0469 -0.3662
  561MOL0     C77347   1.771   1.367   2.694 -0.0220  0.1454 -0.8283
  561MOL0     C77348   1.880   1.338   2.597 -0.1377  1.4258 -0.1453
  561MOL0     H77349   1.400   1.099   2.422  1.9119 -0.9849 -2.0639
  561MOL0     H77350   1.306   0.890   2.333 -0.4487  3.2407  0.6165
  561MOL0     H77351   1.223   0.696   2.272  0.5839  2.3745  0.7253
  561MOL0     H77352   1.155   0.756   2.422 -1.9046 -0.8352 -2.0998
  561MOL0     H77353   1.166   0.454   2.342  3.0909  1.6451  0.0297
  561MOL0     H77354   1.122   0.506   2.508  0.9017  3.6022  0.9758
  561MOL0     H77355   0.966   0.589   2.268  3.9946 -4.4795 -1.8857
  561MOL0     H77356   0.916   0.457   2.357 -1.8301  0.9000 -2.2674
  561MOL0     H77357   0.903   0.563   2.555  0.5391 -0.6708 -0.6210
  561MOL0     H77358   0.949   0.727   2.488  1.9741 -1.1497 -0.9330
  561MOL0     H77359   0.710   0.553   2.431 -0.0849 -0.1191 -3.5349
  561MOL0     H77360   0.732   0.708   2.349  2.3722  1.1948 -0.1000
  561MOL0     H77361   0.720   0.815   2.591  0.3796  0.1967 -0.4451
  561MOL0     H77362   0.562   0.743   2.538  0.6623  3.1017 -1.0002
  561MOL0     H77363   0.771   0.663   2.737 -1.2192  4.9015  0.1814
  561MOL0     H77364   0.660   0.533   2.684 -3.5522  0.7100 -3.4422
  561MOL0     H77365   0.486   0.708   2.759 -0.3086  0.9998 -0.5347
  561MOL0     H77366   0.586   0.645   2.896 -0.2979 -2.2011 -0.4434
  561MOL0     H77367   0.797   0.789   2.979  0.3133  1.3384 -0.4326
  561MOL0     H77368   0.950   1.014   3.038  0.5708 -0.6360 -2.6822
  561MOL0     H77369   0.840   1.152   3.057 -0.4055  0.6582  0.6084
  561MOL0     H77370   0.911   1.254   2.844  1.4166  2.1816  2.3950
  561MOL0     H77371   1.049   1.228   2.936 -1.5172  0.5915  2.5045
  561MOL0     H77372   1.051   0.988   2.807 -1.9308  1.5580  1.4159
  561MOL0     H77373   0.923   1.060   2.716 -1.8166  0.5643  3.2329
  561MOL0     H77374   1.207   1.182   2.736  0.0082  1.0821 -1.5424
  561MOL0     H77375   1.160   1.091   2.602  1.6885  1.7022 -0.6980
  561MOL0     H77376   0.957   1.065   2.491  4.5704 -1.0606 -2.5272
  561MOL0     H77377   0.761   0.983   2.358 -1.1831 -1.5788 -1.3232
  561MOL0     H77378   0.846   0.995   2.196 -5.6932 -0.7524 -3.0560
  561MOL0     H77379   0.700   1.081   2.225 -1.1341 -0.7430  2.1191
  561MOL0     H77380   0.522   1.268   2.017  4.1452 -1.2993 -0.4827
  561MOL0     H77381   0.412   1.260   1.792 -1.3914 -0.2885 -0.8427
  561MOL0     H77382   0.285   1.501   1.635 -1.9304  2.1535 -1.7615
  561MOL0     H77383   0.416   1.624   1.582  0.4517 -0.0533 -2.5501
  561MOL0     H77384   0.240   1.454   1.405 -1.8794  0.7598 -0.5558
  561MOL0     H77385   0.229   1.617   1.430 -1.2999 -0.9519 -0.8498
  561MOL0     H77386   0.367   1.515   1.223  3.3543  2.0146 -2.4494
  561MOL0     H77387   0.489   1.482   1.349 -0.3134  0.1843 -2.5033
  561MOL0     H77388   0.524   1.709   1.397  0.7892 -2.9394  2.2059
  561MOL0     H77389   0.394   1.757   1.271 -1.0693 -1.0926  3.8885
  561MOL0     H77390   0.622   1.782   1.201 -2.1078  0.7466  0.1615
  561MOL0     H77391   0.650   1.605   1.180  0.8826  0.8201 -2.9427
  561MOL0     H77392   0.398   1.692   1.058  0.2018 -0.7568  1.3656
  561MOL0     H77393   0.521   1.605   0.982  0.1880  0.4592 -0.2350
  561MOL0     H77394   0.636   1.861   1.001  0.1817  0.6772  0.9057
  561MOL0     H77395   0.471   1.909   0.984 -0.2781 -0.2967 -0.8802
  561MOL0     H77396   0.415   1.787   0.787 -0.7322  3.8208 -0.5084
  561MOL0     H77397   0.574   1.719   0.785 -1.4917 -1.2065  0.5367
  561MOL0     H77398   0.656   1.586   1.668  0.2511 -1.3519 -1.0109
  561MOL0     H77399   0.761   1.600   1.884 -2.5675  1.3509  3.2228
  561MOL0     H77400   0.874   1.496   2.269 -1.2033  0.6483  1.4188
  561MOL0     H77401   0.989   1.489   2.489 -0.7702 -0.7127  1.6235
  561MOL0     H77402   1.455   0.669   2.669 -2.5333 -1.7734 -1.9781
  561MOL0     H77403   1.545   0.886   2.769  0.8752  1.8060 -1.3889
  561MOL0     H77404   1.453   1.311   2.805 -0.1807  1.2905 -2.0016
  561MOL0     H77405   1.492   1.507   2.935  0.6727  1.0412  1.0441
  561MOL0     H77406   1.506   1.727   2.977  0.7811  1.9603  1.3673
  561MOL0     H77407   1.613   1.657   3.094 -4.2658 -0.7277  0.4072
  561MOL0     H77408   1.631   1.934   2.963 -0.5136 -2.0898 -2.4360
  561MOL0     H77409   1.743   1.868   3.084  2.1920  0.9281 -5.2549
  561MOL0     H77410   1.432   1.899   3.109 -0.2850 -0.8021  1.1649
  561MOL0     H77411   1.548   1.868   3.242  0.7322  3.7159  1.5251
  561MOL0     H77412   1.638   2.111   3.137 -1.2237  2.8685 -1.2592
  561MOL0     H77413   1.545   2.080   3.295 -1.9683 -0.2782 -0.5907
  561MOL0     H77414   1.311   2.306   3.029 -2.5837 -2.7636  1.9957
  561MOL0     H77415   1.872   1.547   2.739  0.9523  0.0028  2.3115
  561MOL0     H77416   1.958   1.284   2.651  0.7331  2.4101 -0.3740
  561MOL0     H77417   1.867   1.272   2.511 -0.9560  2.3981 -0.7809
  561MOL0     H77418   1.928   1.431   2.563 -0.1496  0.7884 -2.0464
  562MOL0     O77419   2.220  11.504   0.129 -0.0632  0.1979  0.1069
  562MOL0     C77420   2.202  11.436   0.033 -0.6143  0.9293 -0.3634
  562MOL0     O77421   2.229  11.305   0.021 -0.2529  0.6439  0.7563
  562MOL0     C77422   2.251  11.217   0.124  0.5659 -0.7167 -0.7203
  562MOL0     C77423   2.224  11.244   0.262 -0.2224 -0.3683  0.1237
  562MOL0     C77424   2.240  11.143   0.361 -1.0961 -1.6391  0.5482
  562MOL0     C77425   2.272  11.009   0.325  0.1421  0.2559  1.1665
  562MOL0     O77426   2.282  10.917   0.432  0.0316  0.4860 -0.6810
  562MOL0     C77427   2.265  10.777   0.413 -0.0836 -0.1850 -0.0305
  562MOL0     C77428   2.120  10.734   0.359  0.5305  0.5259 -1.0221
  562MOL0     C77429   2.011  10.760   0.458 -0.0614  0.8255 -0.2333
  562MOL0     C77430   1.884  10.743   0.376  0.0220 -0.6074  0.2875
  562MOL0     C77431   1.761  10.736   0.468 -0.2148 -0.0784 -0.6778
  562MOL0     C77432   1.642  10.681   0.393  0.1141  0.2721 -0.3886
  562MOL0     C77433   1.650  10.540   0.322 -0.2213  1.1065  0.1486
  562MOL0     C77434   1.516  10.488   0.288  0.5645 -1.1554 -0.1256
  562MOL0     N77435   1.516  10.357   0.236  0.7411 -0.6009 -1.0471
  562MOL0     C77436   1.597  10.286   0.150  0.3645  0.9115  0.3086
  562MOL0     C77437   1.552  10.162   0.137 -0.4864  0.3515  0.4784
  562MOL0     C77438   1.629  10.054   0.064  0.5532 -0.5206 -0.4020
  562MOL0     C77439   1.691   9.949   0.163 -0.2308  0.6380  0.1739
  562MOL0     C77440   1.721   9.809   0.105 -0.7946 -0.0593 -0.8862
  562MOL0     C77441   1.801   9.814  -0.027 -0.1547  0.3522 -0.9313
  562MOL0     O77442   1.933   9.882  -0.008 -0.9834 -0.2819 -0.4680
  562MOL0     C77443   2.043   9.795  -0.003  0.2883 -0.2542 -0.0521
  562MOL0     C77444   2.165   9.832  -0.062 -0.3011  0.6409 -0.3380
  562MOL0     C77445   2.273   9.750  -0.086 -0.1818  0.6402  0.0520
  562MOL0     C77446   2.392   9.811  -0.164 -0.1362 -0.1312  0.2236
  562MOL0     C77447   2.255   9.622  -0.053 -0.0776 -0.1981  0.2604
  562MOL0     C77448   2.355   9.513  -0.077 -0.6852  0.6494  0.6380
  562MOL0     O77449   2.319   9.386  -0.042 -0.5348 -0.5739  0.0134
  562MOL0     C77450   2.419   9.293  -0.024  0.5499 -0.4882  0.8087
  562MOL0     C77451   2.408   9.218   0.091 -0.7930 -0.3005 -0.4850
  562MOL0     C77452   2.497   9.115   0.111 -0.2945  0.4782 -0.0210
  562MOL0     C77453   2.585   9.078   0.014 -0.3417 -0.7429 -1.3254
  562MOL0     O77454   2.683   8.984   0.053 -0.7401  0.3435  0.0792
  562MOL0     C77455   2.796   8.963  -0.034  1.1991  0.1208  0.5167
  562MOL0     C77456   2.875   8.842   0.033 -0.7694  0.3620  0.2767
  562MOL0     C77457   3.004   8.829  -0.058  0.5490  1.0057  0.4030
  562MOL0     C77458   3.071   8.689  -0.061 -0.2084  0.3443 -0.4197
  562MOL0     C77459   3.134   8.653   0.074 -0.5754 -0.4013 -0.6933
  562MOL0     C77460   3.207   8.516   0.070  1.1693  0.4402  0.0413
  562MOL0     C77461   3.288   8.504   0.204 -1.4285  0.3683  0.2340
  562MOL0     C77462   3.293   8.351   0.219  0.1808 -0.5103 -0.4613
  562MOL0    Cl77463   3.379   8.251   0.105 -0.0465 -0.0868  0.1809
  562MOL0     C77464   2.597   9.145  -0.103  0.0210 -0.2758  0.3238
  562MOL0     C77465   2.506   9.252  -0.127 -0.2257 -0.1533  0.4972
  562MOL0     O77466   2.452   9.538  -0.142  0.6822 -0.5800  0.7477
  562MOL0     C77467   2.142   9.581   0.010  0.4821  0.0469  0.9990
  562MOL0     C77468   2.036   9.662   0.033  0.2405  0.3803 -0.8406
  562MOL0     N77469   1.444  10.144   0.215 -0.3475  0.0864 -0.8430
  562MOL0     N77470   1.423  10.259   0.274 -0.3458  0.2530 -0.9120
  562MOL0     C77471   2.302  10.986   0.190  0.3379  0.2117  0.7906
  562MOL0     C77472   2.298  11.088   0.095  0.5692 -0.1115  0.0694
  562MOL0     C77473   2.138  11.518  -0.079  1.4171  0.3939  1.4493
  562MOL0     C77474   2.081  11.645  -0.054 -0.3851 -0.1539 -1.3061
  562MOL0     C77475   2.019  11.721  -0.158 -0.8537  0.5191 -0.5436
  562MOL0     C77476   2.005  11.668  -0.280  0.0943 -0.3157  0.5093
  562MOL0     O77477   1.923  11.730  -0.385  0.4490 -0.0692  0.2763
  562MOL0     C77478   1.866  11.860  -0.353 -0.3223 -0.1813 -0.5386
  562MOL0     C77479   1.781  11.913  -0.472  0.0547 -1.0341  0.3502
  562MOL0     C77480   1.776  12.070  -0.473 -0.9209  1.1093 -0.8576
  562MOL0     C77481   1.720  12.128  -0.600  1.3728  0.1384 -0.1649
  562MOL0     C77482   1.583  12.081  -0.620  0.2256  0.6021 -0.7809
  562MOL0     C77483   1.467  12.054  -0.635 -0.5880  0.3901 -0.7702
  562MOL0     C77484   2.053  11.542  -0.309 -0.0448 -1.0065  0.0927
  562MOL0     C77485   2.113  11.467  -0.208  0.4103  0.6298 -0.2992
  562MOL0     C77486   2.155  11.327  -0.254  0.8265  0.7783  0.0849
  562MOL0     H77487   2.208  11.343   0.304  2.1083 -0.5485  1.6341
  562MOL0     H77488   2.217  11.158   0.466 -4.6452 -0.8839 -0.2058
  562MOL0     H77489   2.300  10.726   0.503  1.5647 -0.2663 -0.6809
  562MOL0     H77490   2.341  10.759   0.336 -0.3149 -1.9444  0.1187
  562MOL0     H77491   2.108  10.788   0.265 -2.1489  1.8272 -0.0381
  562MOL0     H77492   2.130  10.628   0.337  3.4905  0.4699  0.0245
  562MOL0     H77493   2.014  10.683   0.535  0.7126  2.6885  1.7211
  562MOL0     H77494   2.027  10.861   0.497 -1.4433  0.2333  2.0649
  562MOL0     H77495   1.865  10.838   0.324  3.2368  0.5517  0.9522
  562MOL0     H77496   1.891  10.656   0.310  3.3905 -0.0385 -0.2827
  562MOL0     H77497   1.736  10.833   0.513 -2.2753 -0.5023 -0.8173
  562MOL0     H77498   1.783  10.664   0.547 -2.5940  0.6675  0.7422
  562MOL0     H77499   1.563  10.668   0.469  0.4268 -2.3659 -0.3995
  562MOL0     H77500   1.606  10.757   0.324  1.1231  1.8195  0.7359
  562MOL0     H77501   1.696  10.472   0.395 -0.2693 -1.1602 -1.8369
  562MOL0     H77502   1.716  10.542   0.235  1.8615 -3.1624  1.3115
  562MOL0     H77503   1.452  10.485   0.376  2.8393 -1.3066  1.6199
  562MOL0     H77504   1.471  10.555   0.213  0.1133 -1.7916 -0.4279
  562MOL0     H77505   1.687  10.329   0.106  1.8969 -0.4083  2.0324
  562MOL0     H77506   1.714  10.104   0.016  2.7746 -3.3472  0.2914
  562MOL0     H77507   1.566  10.010  -0.014 -0.5747  0.6211 -0.1747
  562MOL0     H77508   1.790   9.977   0.201 -0.0464  0.2363  0.0033
  562MOL0     H77509   1.626   9.926   0.249 -0.3477 -0.8317 -0.2748
  562MOL0     H77510   1.782   9.765   0.184 -2.3001  2.2719  1.7113
  562MOL0     H77511   1.629   9.751   0.098  0.8967 -3.1388  0.3890
  562MOL0     H77512   1.812   9.710  -0.060  2.8181  0.7702 -1.5280
  562MOL0     H77513   1.742   9.856  -0.108 -1.6017  0.0135 -0.0939
  562MOL0     H77514   2.162   9.938  -0.089 -0.7450  0.6702 -0.1783
  562MOL0     H77515   2.491   9.780  -0.129 -0.3657  0.3121  1.3121
  562MOL0     H77516   2.391   9.918  -0.186 -2.1662 -0.3539 -1.0907
  562MOL0     H77517   2.382   9.784  -0.269 -1.6316  4.1666 -0.9658
  562MOL0     H77518   2.342   9.255   0.170 -3.1463 -1.0895 -1.9832
  562MOL0     H77519   2.487   9.054   0.199  0.1105 -0.1629 -0.4128
  562MOL0     H77520   2.764   8.930  -0.134  2.7230  3.0665 -1.0739
  562MOL0     H77521   2.861   9.047  -0.058  0.9253 -0.1429 -1.3440
  562MOL0     H77522   2.899   8.865   0.137 -0.3739  0.2985  0.2017
  562MOL0     H77523   2.817   8.750   0.034 -2.3396  1.3202  0.0679
  562MOL0     H77524   3.084   8.900  -0.033  1.5469 -0.8478  2.8333
  562MOL0     H77525   2.963   8.843  -0.159 -0.8963 -0.8611  0.6699
  562MOL0     H77526   3.150   8.688  -0.137  0.9542  0.9125  0.7570
  562MOL0     H77527   3.000   8.607  -0.078 -0.7918  0.4218  1.5017
  562MOL0     H77528   3.210   8.731   0.089 -2.5146  1.2595  1.1670
  562MOL0     H77529   3.065   8.657   0.159  0.4309 -0.3932  0.1500
  562MOL0     H77530   3.261   8.506  -0.025  0.1522  1.1197 -0.6251
  562MOL0     H77531   3.128   8.441   0.060  0.6807  0.9926 -0.3237
  562MOL0     H77532   3.247   8.556   0.291  3.7840  1.3486  2.4442
  562MOL0     H77533   3.386   8.546   0.182 -1.9147  1.5785  0.3125
  562MOL0     H77534   3.190   8.319   0.238  1.7168 -4.2021  3.3499
  562MOL0     H77535   3.349   8.340   0.313 -0.5995 -0.4699  0.0202
  562MOL0     H77536   2.677   9.127  -0.174  0.9788  0.4911  1.1764
  562MOL0     H77537   2.516   9.314  -0.215  1.5860  0.4670  1.0860
  562MOL0     H77538   2.128   9.484   0.056 -0.2060 -0.3677 -0.0437
  562MOL0     H77539   1.945   9.630   0.082  1.1374 -1.3129 -0.1667
  562MOL0     H77540   2.320  10.886   0.154  0.4291  0.7558 -0.7208
  562MOL0     H77541   2.316  11.065  -0.010  1.9137  4.4287 -0.9026
  562MOL0     H77542   2.097  11.700   0.039 -1.0035 -1.9263 -0.0901
  562MOL0     H77543   1.980  11.820  -0.133  1.0643  1.2138 -0.1598
  562MOL0     H77544   1.798  11.853  -0.268 -0.2417  2.3943 -0.1906
  562MOL0     H77545   1.944  11.933  -0.328 -0.9695 -0.1179  1.5240
  562MOL0     H77546   1.679  11.875  -0.468 -1.9838  3.1612 -3.2782
  562MOL0     H77547   1.829  11.885  -0.566 -0.7185  0.0862 -0.3875
  562MOL0     H77548   1.739  12.111  -0.378  1.5807 -0.5391  0.9744
  562MOL0     H77549   1.879  12.108  -0.469 -0.7153  0.6035  2.8321
  562MOL0     H77550   1.782  12.108  -0.688 -2.6021  1.6728 -3.6804
  562MOL0     H77551   1.708  12.237  -0.604 -2.5707 -0.1155  0.8249
  562MOL0     H77552   1.362  12.033  -0.645 -0.1619 -2.7439  0.1181
  562MOL0     H77553   2.055  11.519  -0.415 -0.7757 -3.6215  0.5850
  562MOL0     H77554   2.139  11.320  -0.362 -2.3572 -0.8617  0.5384
  562MOL0     H77555   2.262  11.323  -0.234  0.9588  1.7814 -0.3726
  562MOL0     H77556   2.101  11.252  -0.196  0.4688 -1.1746 -2.6205
  563MOL0     O77557  11.581   1.914   2.154  0.6063  0.4170 -0.4844
  563MOL0     C77558  11.659   2.005   2.194  0.4162  0.3868  0.0563
  563MOL0     O77559  11.742   1.997   2.309  0.4838  0.7033  0.1685
  563MOL0     C77560  11.767   1.882   2.378 -0.7913 -0.4651  0.3100
  563MOL0     C77561  11.720   1.750   2.354  0.4517 -0.7680  0.8639
  563MOL0     C77562  11.785   1.637   2.415  0.4616 -0.4658 -0.3226
  563MOL0     C77563  11.881   1.648   2.506 -0.5644  0.0185  0.8809
  563MOL0     O77564  11.940   1.535   2.552  0.5713 -1.3616  0.0779
  563MOL0     C77565  12.081   1.522   2.522 -0.0591  0.6012 -0.2524
  563MOL0     C77566  12.162   1.389   2.560 -0.3834 -0.9720  0.7490
  563MOL0     C77567  12.138   1.267   2.464 -0.0516 -0.1737 -0.0238
  563MOL0     C77568  12.001   1.200   2.473  0.0163  0.5357  0.3385
  563MOL0     C77569  12.002   1.067   2.391  1.0254  0.6649  0.5655
  563MOL0     C77570  11.971   1.100   2.239 -0.3869  0.2024 -0.7231
  563MOL0     C77571  11.975   0.970   2.163  0.1923 -0.0081  0.5425
  563MOL0     C77572  12.113   0.918   2.132  1.0418 -0.0018 -0.7643
  563MOL0     N77573  12.115   0.778   2.089  0.3281  0.4760 -0.4086
  563MOL0     C77574  12.070   0.730   1.970  0.4783 -0.4473  0.0644
  563MOL0     C77575  12.105   0.601   1.966  0.0565 -0.8300  0.4410
  563MOL0     C77576  12.093   0.507   1.848 -0.5916 -0.6176 -0.0476
  563MOL0     C77577  12.194   0.530   1.732  0.3327 -0.1692 -0.2035
  563MOL0     C77578  12.156   0.651   1.634  0.1979 -0.7437  0.3822
  563MOL0     C77579  12.045   0.618   1.533  0.6695 -0.1958 -0.3101
  563MOL0     O77580  12.067   0.492   1.465  0.0224  0.4488 -0.0119
  563MOL0     C77581  11.970   0.441   1.389  0.5608  0.3671 -0.6240
  563MOL0     C77582  11.876   0.521   1.328  0.0430 -0.4862 -0.0118
  563MOL0     C77583  11.766   0.465   1.259 -1.0077 -0.2412  0.9279
  563MOL0     C77584  11.679   0.561   1.176  1.2560  0.7158  0.2817
  563MOL0     C77585  11.751   0.323   1.264  0.2360  0.1663 -0.3505
  563MOL0     C77586  11.656   0.234   1.192 -0.4932  0.2558 -0.1024
  563MOL0     O77587  11.645   0.098   1.237  0.8927  0.5765 -0.3631
  563MOL0     C77588  11.554   0.014   1.178 -0.0142  0.1133 -0.4292
  563MOL0     C77589  11.606  -0.105   1.125 -0.0952  0.1784  0.2050
  563MOL0     C77590  11.516  -0.181   1.050  0.6764  0.2998 -0.4122
  563MOL0     C77591  11.381  -0.155   1.041 -0.4656  0.0518  0.8978
  563MOL0     O77592  11.309  -0.242   0.962 -0.5575 -0.1785  0.3194
  563MOL0     C77593  11.176  -0.251   0.981  0.9387  0.1190 -0.5287
  563MOL0     C77594  11.104  -0.163   0.878 -0.5573 -0.4894  0.1563
  563MOL0     C77595  11.159  -0.172   0.730 -0.2961 -0.5628 -1.0371
  563MOL0     C77596  11.048  -0.126   0.641  0.0595 -0.5310  0.4891
  563MOL0     C77597  11.077  -0.141   0.491  0.4555 -0.1139  0.3729
  563MOL0     C77598  11.176  -0.029   0.457  0.5289  0.0061 -0.2718
  563MOL0     C77599  11.208  -0.047   0.310 -0.4341 -0.4870  0.3281
  563MOL0     C77600  11.082  -0.013   0.223 -0.1633 -0.4770 -0.4004
  563MOL0    Cl77601  11.132   0.043   0.065  0.0000 -0.2473 -0.5447
  563MOL0     C77602  11.328  -0.042   1.106 -0.1267 -0.0596  0.1977
  563MOL0     C77603  11.421   0.038   1.179  0.3633  0.0090 -1.0179
  563MOL0     O77604  11.585   0.282   1.108 -0.2568 -0.4572 -1.4525
  563MOL0     C77605  11.841   0.246   1.342 -0.7755  0.1141 -0.6657
  563MOL0     C77606  11.955   0.310   1.404  0.2553  0.0542  1.2956
  563MOL0     N77607  12.196   0.580   2.068 -0.1120  0.7553  0.1464
  563MOL0     N77608  12.196   0.683   2.139  0.5760 -0.1183  0.1270
  563MOL0     C77609  11.923   1.778   2.529 -0.3780  0.0683  0.3493
  563MOL0     C77610  11.871   1.893   2.473  0.1264 -0.5858 -0.6728
  563MOL0     C77611  11.627   2.141   2.148 -0.2995 -1.0095 -0.1164
  563MOL0     C77612  11.630   2.244   2.244  0.8444  0.1177 -0.2968
  563MOL0     C77613  11.564   2.368   2.215  1.1175 -0.5254 -0.2415
  563MOL0     C77614  11.522   2.402   2.088  0.1614 -0.4139  0.6318
  563MOL0     O77615  11.482   2.531   2.067 -1.0664 -0.0004 -0.5107
  563MOL0     C77616  11.398   2.557   1.951 -0.4077  0.1645  0.5758
  563MOL0     C77617  11.487   2.609   1.834  0.1967 -0.2594  0.0316
  563MOL0     C77618  11.416   2.713   1.739  0.5724  0.0896 -0.3976
  563MOL0     C77619  11.329   2.660   1.618 -0.5074  1.1167  0.7323
  563MOL0     C77620  11.250   2.758   1.554 -1.2456 -0.0420  0.9159
  563MOL0     C77621  11.187   2.846   1.496  0.0446 -0.3717  0.1859
  563MOL0     C77622  11.517   2.301   1.992 -0.1324 -0.2145  0.7040
  563MOL0     C77623  11.569   2.175   2.025 -0.0042  0.6065 -0.0645
  563MOL0     C77624  11.586   2.074   1.915  0.5056  0.5159 -0.0301
  563MOL0     H77625  11.641   1.736   2.281 -0.7352  1.2042  1.6943
  563MOL0     H77626  11.747   1.536   2.405  3.1777 -1.6165  0.1907
  563MOL0     H77627  12.122   1.598   2.589  3.1781 -1.9217  0.9087
  563MOL0     H77628  12.111   1.557   2.423 -0.0313 -0.2938 -0.5669
  563MOL0     H77629  12.271   1.399   2.556 -0.4554 -0.5758 -0.3887
  563MOL0     H77630  12.145   1.361   2.665 -0.2624 -1.2994  0.6811
  563MOL0     H77631  12.157   1.292   2.359 -1.3938 -3.6129 -1.2319
  563MOL0     H77632  12.220   1.196   2.476  1.1417  1.1057 -0.3321
  563MOL0     H77633  11.964   1.178   2.574  0.4600 -0.7692  0.2391
  563MOL0     H77634  11.925   1.270   2.437 -1.6442 -0.7483  1.1598
  563MOL0     H77635  11.916   1.017   2.436 -1.1862  2.7608 -1.0868
  563MOL0     H77636  12.095   1.009   2.401  0.4760 -1.3416 -3.7307
  563MOL0     H77637  11.868   1.138   2.238 -1.9632 -3.3635 -4.2268
  563MOL0     H77638  12.038   1.174   2.195 -0.6609 -0.3384 -2.1128
  563MOL0     H77639  11.926   0.993   2.068 -2.1348 -0.3262  1.5961
  563MOL0     H77640  11.910   0.901   2.217  1.2739 -1.2510  0.3106
  563MOL0     H77641  12.168   0.980   2.061 -0.6279  1.1321 -1.1229
  563MOL0     H77642  12.170   0.922   2.225  1.9268  1.8857 -1.3307
  563MOL0     H77643  12.042   0.798   1.890  0.9374 -1.7069 -1.2204
  563MOL0     H77644  11.987   0.508   1.819 -0.3889 -2.8137 -1.0658
  563MOL0     H77645  12.101   0.408   1.894 -0.6697 -0.6026 -0.0016
  563MOL0     H77646  12.288   0.561   1.779  0.5513 -3.5188  1.8903
  563MOL0     H77647  12.230   0.439   1.683  0.4471 -0.4899  0.4793
  563MOL0     H77648  12.130   0.743   1.686 -1.9773 -0.1599 -1.5316
  563MOL0     H77649  12.244   0.672   1.572 -1.3806 -0.2928 -1.8210
  563MOL0     H77650  11.943   0.631   1.571  0.4123 -0.5821 -0.8670
  563MOL0     H77651  12.051   0.694   1.455 -0.2149  0.5496  0.3230
  563MOL0     H77652  11.900   0.626   1.310  1.8314 -1.3552 -3.5522
  563MOL0     H77653  11.664   0.531   1.072  0.2401  2.1595 -0.0219
  563MOL0     H77654  11.707   0.667   1.178  0.3308  1.0095 -0.9746
  563MOL0     H77655  11.580   0.561   1.222  0.9356 -2.3056 -0.1752
  563MOL0     H77656  11.714  -0.115   1.118 -0.0837  0.3565  0.1127
  563MOL0     H77657  11.541  -0.271   0.994 -1.6840 -0.4951 -0.3225
  563MOL0     H77658  11.139  -0.353   0.968 -3.2086  1.4323 -0.5349
  563MOL0     H77659  11.144  -0.234   1.084 -0.1851  0.4952 -0.9252
  563MOL0     H77660  11.003  -0.205   0.882 -0.8016 -0.0522 -1.0121
  563MOL0     H77661  11.103  -0.059   0.913 -0.9650 -0.1795 -0.7683
  563MOL0     H77662  11.175  -0.275   0.699  2.6775 -0.5784  0.2163
  563MOL0     H77663  11.253  -0.116   0.723 -1.1510  1.3170  1.2255
  563MOL0     H77664  11.015  -0.023   0.656 -6.8359 -1.7426 -2.4696
  563MOL0     H77665  10.956  -0.182   0.660 -0.3287 -0.0675 -0.0265
  563MOL0     H77666  11.107  -0.245   0.472 -1.5108 -0.5688 -0.5082
  563MOL0     H77667  10.979  -0.125   0.446 -0.7462  0.5709  3.0373
  563MOL0     H77668  11.261  -0.030   0.526  0.7906 -1.4012 -0.5866
  563MOL0     H77669  11.118   0.063   0.470 -1.6774 -1.2333 -0.7750
  563MOL0     H77670  11.250  -0.145   0.288 -1.4627 -0.6039 -1.2017
  563MOL0     H77671  11.291   0.023   0.293 -0.7807 -0.1593 -0.0383
  563MOL0     H77672  11.026   0.072   0.264  0.1258 -1.5108  2.3285
  563MOL0     H77673  11.013  -0.098   0.219 -0.6438 -0.0841 -0.5647
  563MOL0     H77674  11.227  -0.005   1.098  0.8840  3.1243  0.4276
  563MOL0     H77675  11.387   0.133   1.220 -1.8687 -0.6688 -1.1854
  563MOL0     H77676  11.835   0.139   1.356 -0.6911 -0.0196 -1.5448
  563MOL0     H77677  12.030   0.243   1.444  1.0095  0.1863  0.1381
  563MOL0     H77678  11.999   1.793   2.605  0.5978  1.2127 -0.7851
  563MOL0     H77679  11.928   1.983   2.494  2.1706 -2.1939  1.0823
  563MOL0     H77680  11.655   2.227   2.348  1.1000  1.6805 -0.0728
  563MOL0     H77681  11.555   2.449   2.287  1.3510  0.2386 -1.0434
  563MOL0     H77682  11.324   2.483   1.921 -0.2739  0.4701 -0.5308
  563MOL0     H77683  11.344   2.645   1.987  2.4334  1.4897  1.9813
  563MOL0     H77684  11.536   2.532   1.774  1.4554  1.9886 -1.9683
  563MOL0     H77685  11.571   2.664   1.878 -0.4005  0.1396  0.7000
  563MOL0     H77686  11.351   2.764   1.810  0.5439  0.6487 -0.8237
  563MOL0     H77687  11.497   2.777   1.702  1.1651  0.7789  1.9316
  563MOL0     H77688  11.266   2.575   1.645  0.1287  0.1985 -0.5884
  563MOL0     H77689  11.383   2.621   1.532 -3.7953 -1.2953 -0.4298
  563MOL0     H77690  11.136   2.936   1.466  1.0839 -0.1060 -0.8427
  563MOL0     H77691  11.473   2.323   1.895 -1.8961 -2.2460  0.9703
  563MOL0     H77692  11.673   2.013   1.942 -0.2312  0.0572  1.4062
  563MOL0     H77693  11.496   2.012   1.911  0.5205  0.5174 -0.3557
  563MOL0     H77694  11.593   2.130   1.822 -0.3694 -0.5681 -0.7744
  564MOL0     O77695   1.713   3.055   2.664 -0.3748 -0.3561 -0.2897
  564MOL0     C77696   1.630   3.139   2.689  0.2278 -0.9973 -0.6700
  564MOL0     O77697   1.593   3.244   2.614  0.7379 -0.3304  0.3456
  564MOL0     C77698   1.681   3.281   2.514 -0.1025  0.9540 -0.1469
  564MOL0     C77699   1.765   3.392   2.516 -0.0641 -0.5372  0.0315
  564MOL0     C77700   1.879   3.403   2.433  0.0369 -0.1180  0.5632
  564MOL0     C77701   1.894   3.309   2.328  0.1430  0.7919 -0.4114
  564MOL0     O77702   1.998   3.323   2.241 -0.6403 -0.4899 -0.3967
  564MOL0     C77703   2.070   3.211   2.207  0.1663 -0.4984 -0.1917
  564MOL0     C77704   2.174   3.267   2.112  0.3440 -1.3643  0.5473
  564MOL0     C77705   2.269   3.165   2.036 -0.0039  0.4820 -1.0449
  564MOL0     C77706   2.345   3.069   2.124 -0.6912 -0.2512 -0.4905
  564MOL0     C77707   2.476   3.018   2.054 -0.3348  0.0371  0.9362
  564MOL0     C77708   2.462   2.966   1.905  0.5955 -0.6496 -0.6008
  564MOL0     C77709   2.390   2.829   1.892 -0.0974 -0.3739  0.4174
  564MOL0     C77710   2.427   2.754   1.752 -0.2603  0.5723 -0.2856
  564MOL0     N77711   2.401   2.847   1.641  0.2718 -0.1148 -0.8060
  564MOL0     C77712   2.488   2.950   1.601  0.2110  0.4195  0.3241
  564MOL0     C77713   2.427   3.014   1.493  0.4072 -0.5919  0.7280
  564MOL0     C77714   2.490   3.126   1.409 -0.1817 -0.0842 -0.2729
  564MOL0     C77715   2.519   3.092   1.261  0.4212  0.2419 -1.0459
  564MOL0     C77716   2.393   3.091   1.169 -0.3171  0.2347 -0.2714
  564MOL0     C77717   2.402   3.204   1.066 -0.5148 -0.3302  0.1476
  564MOL0     O77718   2.428   3.335   1.128  0.0813 -0.2236 -0.2221
  564MOL0     C77719   2.318   3.415   1.165 -0.5930 -0.3801  0.1872
  564MOL0     C77720   2.336   3.557   1.172 -0.7194 -0.3218  0.2612
  564MOL0     C77721   2.222   3.641   1.184 -0.6388 -0.1917 -0.5805
  564MOL0     C77722   2.253   3.787   1.199  0.3779  0.9989  0.2280
  564MOL0     C77723   2.089   3.600   1.186 -0.5335 -0.4633 -0.5874
  564MOL0     C77724   1.973   3.684   1.212 -0.6434 -0.0234  0.2977
  564MOL0     O77725   1.861   3.626   1.168  0.0208 -0.1934 -0.4268
  564MOL0     C77726   1.750   3.657   1.236 -0.4146  0.8724  0.1832
  564MOL0     C77727   1.665   3.765   1.210  0.6095  0.0089 -0.4727
  564MOL0     C77728   1.547   3.785   1.283 -0.1074 -0.1405 -0.2081
  564MOL0     C77729   1.523   3.704   1.396  0.8099  0.3535 -0.0471
  564MOL0     O77730   1.422   3.717   1.488  0.4679 -0.5923  0.6301
  564MOL0     C77731   1.308   3.813   1.453 -0.6273  0.1364  0.4787
  564MOL0     C77732   1.187   3.759   1.537  0.5139 -0.1430  0.1865
  564MOL0     C77733   1.069   3.859   1.523 -1.2384 -0.2370 -0.1641
  564MOL0     C77734   0.949   3.799   1.594  0.1790  0.0742  0.7934
  564MOL0     C77735   0.863   3.920   1.612 -1.1369 -0.3705 -0.0385
  564MOL0     C77736   0.732   3.878   1.675 -0.7990 -0.0891 -0.5224
  564MOL0     C77737   0.634   3.990   1.687  0.8745  0.5218 -1.0381
  564MOL0     C77738   0.492   3.963   1.747  0.5180 -0.7398  0.5769
  564MOL0    Cl77739   0.371   3.888   1.636  0.4225 -0.0546 -0.2119
  564MOL0     C77740   1.615   3.605   1.427  0.4064  0.5023 -1.0432
  564MOL0     C77741   1.727   3.578   1.345  0.4367  1.0105 -0.2393
  564MOL0     O77742   1.986   3.785   1.283  0.5943 -0.1373 -0.1559
  564MOL0     C77743   2.084   3.461   1.197 -1.0161 -0.2012 -0.0531
  564MOL0     C77744   2.191   3.369   1.184 -0.3471 -0.1901  1.0379
  564MOL0     N77745   2.305   2.955   1.477 -0.2410 -0.4326 -0.1403
  564MOL0     N77746   2.290   2.857   1.563 -0.7233 -0.1074 -0.7595
  564MOL0     C77747   1.798   3.211   2.306 -0.5394  0.0206  0.1331
  564MOL0     C77748   1.695   3.191   2.397 -0.6391 -0.1113 -0.6390
  564MOL0     C77749   1.580   3.128   2.825  0.2435  0.8692 -0.5133
  564MOL0     C77750   1.628   3.020   2.908  0.5084  0.4406 -0.2540
  564MOL0     C77751   1.578   2.997   3.045 -0.3262  0.4357  0.4269
  564MOL0     C77752   1.495   3.090   3.103  0.0832 -0.0564 -1.7175
  564MOL0     O77753   1.433   3.057   3.220  0.0781 -0.9345  0.9895
  564MOL0     C77754   1.380   3.161   3.304  0.2197  1.3821  0.6548
  564MOL0     C77755   1.303   3.107   3.419  0.9647 -0.0535  0.0354
  564MOL0     C77756   1.379   2.973   3.473 -0.0746  0.2889 -1.0942
  564MOL0     C77757   1.294   2.923   3.593 -0.7964  0.7010 -0.2978
  564MOL0     C77758   1.184   2.834   3.557  0.1700 -0.6079 -0.0282
  564MOL0     C77759   1.086   2.772   3.545  0.1722  0.5529  0.0432
  564MOL0     C77760   1.452   3.195   3.020 -0.1192 -0.6614 -0.1792
  564MOL0     C77761   1.498   3.222   2.888  0.4274 -0.3807  0.3698
  564MOL0     C77762   1.453   3.355   2.822  0.0749 -0.3982 -0.2567
  564MOL0     H77763   1.736   3.462   2.593 -1.3180 -1.2862  0.2720
  564MOL0     H77764   1.953   3.483   2.430 -0.8553  0.7188  0.0434
  564MOL0     H77765   2.010   3.140   2.150  0.0970 -0.5752 -0.0237
  564MOL0     H77766   2.129   3.166   2.287  1.1153 -1.0506 -1.1832
  564MOL0     H77767   2.119   3.309   2.027  1.3829  0.7346  0.8291
  564MOL0     H77768   2.235   3.347   2.156  0.4655 -0.6522 -0.8692
  564MOL0     H77769   2.209   3.099   1.972 -1.9050  0.8500  0.2709
  564MOL0     H77770   2.344   3.223   1.981 -0.3686  0.9936 -1.0175
  564MOL0     H77771   2.366   3.104   2.226 -3.0822  0.9379 -0.3365
  564MOL0     H77772   2.286   2.977   2.134  0.7435 -1.3043 -1.3858
  564MOL0     H77773   2.520   2.937   2.113 -0.7410  1.1826  2.9103
  564MOL0     H77774   2.549   3.099   2.064  1.5052 -1.7669  3.7498
  564MOL0     H77775   2.399   3.033   1.846  1.5105 -0.9817 -2.0118
  564MOL0     H77776   2.565   2.965   1.868  0.6757 -0.7606 -0.3829
  564MOL0     H77777   2.282   2.848   1.900  0.4584  2.5199  2.8503
  564MOL0     H77778   2.413   2.760   1.974 -2.1973  0.8702  2.1612
  564MOL0     H77779   2.532   2.724   1.759 -0.1516  0.6884 -1.1866
  564MOL0     H77780   2.374   2.661   1.729 -2.9025  1.9083 -0.0253
  564MOL0     H77781   2.590   2.968   1.634 -0.0855  0.2140  1.4065
  564MOL0     H77782   2.593   3.145   1.442  0.1129  1.2291 -1.7772
  564MOL0     H77783   2.431   3.215   1.430 -1.4164 -1.3544  1.9066
  564MOL0     H77784   2.590   3.163   1.218 -0.4694  1.2306 -0.9574
  564MOL0     H77785   2.570   2.996   1.263 -0.7114 -0.3916 -1.3111
  564MOL0     H77786   2.398   3.000   1.109 -2.1610 -0.4860  0.5959
  564MOL0     H77787   2.298   3.084   1.222  0.9369 -1.3565  1.9266
  564MOL0     H77788   2.479   3.185   0.991  0.5281 -1.8620  1.5317
  564MOL0     H77789   2.302   3.196   1.023 -1.8590 -0.5302  3.0771
  564MOL0     H77790   2.438   3.592   1.166 -0.1913 -2.0081 -1.6437
  564MOL0     H77791   2.186   3.838   1.129 -1.7633 -1.4732  0.3078
  564MOL0     H77792   2.360   3.801   1.185  0.5593  1.3398  1.7899
  564MOL0     H77793   2.234   3.826   1.300  0.2721  1.3231  0.0823
  564MOL0     H77794   1.692   3.818   1.119 -0.8808  1.6556 -0.0177
  564MOL0     H77795   1.472   3.862   1.267 -1.9513 -1.7887  0.0597
  564MOL0     H77796   1.333   3.920   1.458 -0.7568  0.1345  3.5282
  564MOL0     H77797   1.281   3.807   1.347 -1.3415  3.7874  0.2912
  564MOL0     H77798   1.161   3.660   1.499  0.8224 -0.1481 -0.0196
  564MOL0     H77799   1.225   3.737   1.637  0.8491 -0.3174  0.0244
  564MOL0     H77800   1.050   3.863   1.415  0.1298 -0.4137 -0.4372
  564MOL0     H77801   1.101   3.955   1.565 -0.5835 -1.5245  2.5281
  564MOL0     H77802   0.975   3.752   1.689  0.8146 -1.7004 -0.2053
  564MOL0     H77803   0.884   3.728   1.542 -1.6075  3.3011 -1.7638
  564MOL0     H77804   0.916   3.979   1.688 -1.5197 -2.5571  2.0430
  564MOL0     H77805   0.839   3.978   1.522  0.1653 -0.5994 -0.5560
  564MOL0     H77806   0.753   3.833   1.773 -0.2268 -1.0710 -1.0748
  564MOL0     H77807   0.692   3.789   1.625  2.1773 -1.4053 -0.7692
  564MOL0     H77808   0.629   4.039   1.590  0.8107  1.5378 -0.5328
  564MOL0     H77809   0.678   4.061   1.757 -2.7122  0.1136  1.9566
  564MOL0     H77810   0.453   4.062   1.773  0.1092 -0.7619  0.0675
  564MOL0     H77811   0.502   3.897   1.834 -0.5154 -0.2265  1.1042
  564MOL0     H77812   1.605   3.541   1.515  3.0923 -1.3752 -1.9930
  564MOL0     H77813   1.802   3.502   1.367  0.5927  1.1368 -0.3346
  564MOL0     H77814   1.987   3.416   1.180 -1.1900  1.5599 -5.7655
  564MOL0     H77815   2.180   3.261   1.183 -0.6857 -0.3645 -4.5530
  564MOL0     H77816   1.809   3.150   2.217  0.5655  0.5189 -0.0753
  564MOL0     H77817   1.634   3.102   2.383  0.9786 -1.7173  1.8288
  564MOL0     H77818   1.707   2.953   2.876  0.8120  0.5293  0.2969
  564MOL0     H77819   1.604   2.901   3.087 -2.0902 -0.7230 -0.9776
  564MOL0     H77820   1.473   3.206   3.341  1.3982 -2.0187  2.2448
  564MOL0     H77821   1.317   3.224   3.241 -0.4810 -0.4877 -0.6093
  564MOL0     H77822   1.200   3.081   3.396  0.7890  0.1835  0.5339
  564MOL0     H77823   1.292   3.176   3.503 -2.6020  1.6419 -1.6155
  564MOL0     H77824   1.383   2.888   3.405 -3.0767 -0.6493 -0.2482
  564MOL0     H77825   1.473   2.998   3.523 -0.5497  0.1460 -0.1001
  564MOL0     H77826   1.283   3.006   3.664 -2.2625  1.0310 -0.8639
  564MOL0     H77827   1.362   2.854   3.643 -0.2104  1.2347 -0.3472
  564MOL0     H77828   1.001   2.706   3.545 -1.0764  2.1122  0.1770
  564MOL0     H77829   1.378   3.266   3.055  0.2528 -1.2765  2.0244
  564MOL0     H77830   1.401   3.420   2.893  1.7053 -0.0327  0.6449
  564MOL0     H77831   1.535   3.419   2.787 -0.1268 -1.3641 -2.7273
  564MOL0     H77832   1.382   3.348   2.739  0.7939  0.5249 -0.9807
  565MOL0     O77833   7.509   3.213   8.431 -0.4750 -0.2563  0.4953
  565MOL0     C77834   7.422   3.199   8.346 -1.3570 -0.1344 -0.1549
  565MOL0     O77835   7.307   3.281   8.350 -0.6933  0.1041  0.0028
  565MOL0     C77836   7.290   3.350   8.465  0.9361 -1.0019  0.2413
  565MOL0     C77837   7.346   3.475   8.482 -0.4576 -0.7145 -0.5451
  565MOL0     C77838   7.324   3.538   8.599 -0.8828 -0.3015 -0.6819
  565MOL0     C77839   7.244   3.486   8.705 -1.0182  0.3900  0.3642
  565MOL0     O77840   7.224   3.544   8.829 -0.0872 -0.5167 -0.1761
  565MOL0     C77841   7.256   3.685   8.852  0.5207 -0.5576 -0.1911
  565MOL0     C77842   7.163   3.726   8.965  0.0646  0.2744  0.0422
  565MOL0     C77843   7.154   3.875   8.982 -1.1388 -0.5179 -0.7794
  565MOL0     C77844   7.082   3.907   9.119 -0.4639 -0.0909 -0.4792
  565MOL0     C77845   7.034   4.051   9.110  0.4502  0.0084  0.5792
  565MOL0     C77846   6.934   4.081   9.227 -0.4044 -0.2805  0.0367
  565MOL0     C77847   7.003   4.121   9.363 -1.0314 -0.4560 -0.3465
  565MOL0     C77848   6.899   4.144   9.476 -0.3549  0.2156 -0.0877
  565MOL0     N77849   6.824   4.275   9.458 -0.0554  0.0048  0.4818
  565MOL0     C77850   6.682   4.280   9.419 -0.6530 -0.2926  0.0926
  565MOL0     C77851   6.640   4.401   9.442 -0.4238  0.1683  0.3639
  565MOL0     C77852   6.511   4.442   9.389  0.4565  0.9504  0.0193
  565MOL0     C77853   6.521   4.533   9.271  0.5754 -0.8739  0.1720
  565MOL0     C77854   6.408   4.617   9.229 -0.9966 -0.1760  0.6793
  565MOL0     C77855   6.436   4.697   9.108 -0.7175 -0.6953  0.3032
  565MOL0     O77856   6.312   4.763   9.080 -0.2450  0.6988  0.7708
  565MOL0     C77857   6.327   4.847   8.974  0.8777  0.0249  0.7589
  565MOL0     C77858   6.216   4.929   8.956  0.5343  0.8453 -0.7335
  565MOL0     C77859   6.211   5.022   8.850 -0.0866  1.1927 -0.5770
  565MOL0     C77860   6.071   5.085   8.838  0.3015 -0.0114 -0.2889
  565MOL0     C77861   6.323   5.045   8.766 -0.0473 -0.0132 -0.7240
  565MOL0     C77862   6.317   5.127   8.637  0.3117 -0.2007 -1.4282
  565MOL0     O77863   6.443   5.184   8.608  0.0141  0.8029 -0.6981
  565MOL0     C77864   6.457   5.263   8.490  0.4150 -0.7577 -0.3767
  565MOL0     C77865   6.582   5.251   8.431 -0.3228  0.0932  0.3661
  565MOL0     C77866   6.610   5.319   8.314 -0.6517 -0.5316  0.2829
  565MOL0     C77867   6.513   5.404   8.252 -1.3945  0.5085 -1.0867
  565MOL0     O77868   6.543   5.476   8.142 -0.3000  0.5367  0.2544
  565MOL0     C77869   6.675   5.473   8.099  0.7956  0.2937 -0.4077
  565MOL0     C77870   6.681   5.569   7.977 -0.1963  0.5704 -0.1055
  565MOL0     C77871   6.829   5.618   7.961 -0.1070  0.4857 -0.1162
  565MOL0     C77872   6.860   5.670   7.805  0.3808  0.6479  0.3592
  565MOL0     C77873   7.007   5.690   7.763  0.3598 -0.8238  0.7853
  565MOL0     C77874   7.002   5.742   7.621  0.0286 -0.2604 -0.2164
  565MOL0     C77875   7.141   5.756   7.556 -0.6226 -0.2440  0.0955
  565MOL0     C77876   7.258   5.820   7.647 -0.7810  0.2560  0.2490
  565MOL0    Cl77877   7.384   5.833   7.526  0.0232  0.0436 -0.2224
  565MOL0     C77878   6.384   5.415   8.307 -0.3523 -0.0108  0.1231
  565MOL0     C77879   6.357   5.347   8.434 -0.3796  0.0700 -1.6364
  565MOL0     O77880   6.210   5.148   8.579  0.7699 -0.1018  0.1513
  565MOL0     C77881   6.443   4.962   8.787 -0.4713  0.0145 -0.3895
  565MOL0     C77882   6.443   4.870   8.893 -1.0216  0.3194  0.3473
  565MOL0     N77883   6.751   4.471   9.481 -0.7136  0.6200 -0.2486
  565MOL0     N77884   6.862   4.402   9.469  0.2438  0.6199  0.2717
  565MOL0     C77885   7.172   3.370   8.678  1.4930 -0.6714  0.1879
  565MOL0     C77886   7.196   3.299   8.558 -0.3186 -0.5692  0.2262
  565MOL0     C77887   7.442   3.094   8.241 -0.1108 -0.7710  1.0052
  565MOL0     C77888   7.380   2.971   8.259  0.4996 -0.5371 -0.2959
  565MOL0     C77889   7.366   2.882   8.156 -0.4053 -0.3318 -0.2254
  565MOL0     C77890   7.419   2.911   8.031  0.7555  0.9241 -0.5303
  565MOL0     O77891   7.440   2.828   7.923  0.1063 -0.5244 -0.7112
  565MOL0     C77892   7.393   2.693   7.944  0.4342 -0.2411  0.2393
  565MOL0     C77893   7.386   2.616   7.812 -1.2967 -0.2547 -1.2097
  565MOL0     C77894   7.534   2.588   7.770 -0.2905 -0.8936 -0.6771
  565MOL0     C77895   7.559   2.503   7.646 -0.0892  0.1194  0.3922
  565MOL0     C77896   7.478   2.559   7.538  0.3667  0.3015  0.1918
  565MOL0     C77897   7.409   2.589   7.447  0.6351  0.6586 -0.2376
  565MOL0     C77898   7.466   3.036   8.011 -0.6111 -1.1909  0.0618
  565MOL0     C77899   7.480   3.133   8.115 -0.0505 -0.0488  0.3503
  565MOL0     C77900   7.526   3.265   8.082 -0.9388  0.1379  0.4213
  565MOL0     H77901   7.413   3.521   8.410 -0.8247  1.4537  0.4377
  565MOL0     H77902   7.361   3.640   8.599 -1.4355 -0.0860 -1.6363
  565MOL0     H77903   7.228   3.743   8.763 -0.8150 -0.9558 -0.0612
  565MOL0     H77904   7.359   3.695   8.885  0.4218 -1.4193  0.4037
  565MOL0     H77905   7.064   3.692   8.933  0.6533  0.6120 -2.2724
  565MOL0     H77906   7.188   3.685   9.063 -2.9382  0.3135  0.9308
  565MOL0     H77907   7.242   3.938   8.971 -1.6568 -0.0519 -2.5809
  565MOL0     H77908   7.089   3.901   8.897  0.7006  1.0343 -1.7714
  565MOL0     H77909   6.998   3.840   9.142 -1.1630  0.9112 -0.0311
  565MOL0     H77910   7.145   3.903   9.209 -1.5940  0.8338  0.3883
  565MOL0     H77911   6.967   4.041   9.025 -1.0480  3.1668  1.2246
  565MOL0     H77912   7.106   4.131   9.087 -2.1080  2.4430  0.5148
  565MOL0     H77913   6.866   4.162   9.199 -0.3735 -1.1002 -2.6693
  565MOL0     H77914   6.871   3.995   9.252 -1.2914  0.7602  1.6100
  565MOL0     H77915   7.055   4.215   9.345 -5.0079  2.0145  0.0637
  565MOL0     H77916   7.063   4.037   9.401 -2.2050 -0.2565  2.1282
  565MOL0     H77917   6.833   4.057   9.481  0.7384 -0.7241 -1.1818
  565MOL0     H77918   6.961   4.145   9.566  0.9491  4.3646 -0.8268
  565MOL0     H77919   6.618   4.195   9.401  0.2120 -1.2789  1.4603
  565MOL0     H77920   6.456   4.494   9.468  2.9058  2.9435  0.5094
  565MOL0     H77921   6.445   4.362   9.352 -0.6360  3.0878 -3.1576
  565MOL0     H77922   6.590   4.613   9.301 -0.1538  0.0890 -0.6593
  565MOL0     H77923   6.573   4.485   9.187  3.1276  0.5861  0.8029
  565MOL0     H77924   6.325   4.550   9.201  2.5733 -3.4951 -3.5927
  565MOL0     H77925   6.378   4.693   9.301 -1.9645  0.0263  0.0786
  565MOL0     H77926   6.516   4.772   9.104 -2.3134  1.0285 -1.1263
  565MOL0     H77927   6.447   4.630   9.022 -1.8174  2.9091 -2.8995
  565MOL0     H77928   6.130   4.917   9.020  0.3765  2.7965 -0.5309
  565MOL0     H77929   6.064   5.194   8.837 -2.7301 -0.0604  1.9782
  565MOL0     H77930   6.014   5.057   8.927  1.5332  1.2485  0.9565
  565MOL0     H77931   6.014   5.050   8.751  0.6555  1.0765 -0.9785
  565MOL0     H77932   6.650   5.176   8.470 -0.3648 -1.9016 -2.9668
  565MOL0     H77933   6.708   5.305   8.271  0.4101 -2.0117  2.9619
  565MOL0     H77934   6.739   5.522   8.173 -2.4560  3.4078  0.6358
  565MOL0     H77935   6.717   5.376   8.073 -0.0371  0.5668 -3.0945
  565MOL0     H77936   6.660   5.500   7.896 -2.5441  0.1040  0.8431
  565MOL0     H77937   6.608   5.650   7.983 -0.6642  0.1717 -0.4869
  565MOL0     H77938   6.891   5.529   7.973  0.9436  0.7769 -2.6451
  565MOL0     H77939   6.849   5.679   8.050  1.5415 -2.0347  1.3518
  565MOL0     H77940   6.810   5.767   7.805  2.6225  1.9062 -1.1778
  565MOL0     H77941   6.820   5.605   7.726 -1.0261 -1.2698  2.5251
  565MOL0     H77942   7.054   5.759   7.833 -0.6140  0.9918 -0.2675
  565MOL0     H77943   7.065   5.597   7.754  0.4505 -0.5746 -1.7653
  565MOL0     H77944   6.947   5.836   7.616 -4.4357 -2.4703  1.3973
  565MOL0     H77945   6.938   5.685   7.552  0.0021  1.6914 -1.9089
  565MOL0     H77946   7.139   5.828   7.474  3.0380  1.4911  1.3430
  565MOL0     H77947   7.162   5.655   7.518 -0.4938 -0.5739  1.0228
  565MOL0     H77948   7.286   5.746   7.723  2.7910  1.6444  0.4905
  565MOL0     H77949   7.228   5.911   7.699 -2.1988 -1.0566  1.8482
  565MOL0     H77950   6.314   5.485   8.261  2.9894  1.8208 -2.7407
  565MOL0     H77951   6.264   5.351   8.489 -1.1945 -1.9613 -2.7810
  565MOL0     H77952   6.532   4.977   8.727 -0.5657 -1.8306 -1.0613
  565MOL0     H77953   6.536   4.815   8.897 -0.3567  0.8043 -3.9847
  565MOL0     H77954   7.102   3.326   8.748  0.2750  0.3100 -0.3779
  565MOL0     H77955   7.137   3.209   8.546 -0.8078 -0.5307  2.1070
  565MOL0     H77956   7.330   2.950   8.353 -1.0348  1.5132 -0.5834
  565MOL0     H77957   7.331   2.783   8.183  0.2151 -0.1323  1.4000
  565MOL0     H77958   7.449   2.641   8.023  1.0879 -1.2169 -0.8427
  565MOL0     H77959   7.288   2.696   7.976 -0.5887 -3.3467 -2.2660
  565MOL0     H77960   7.322   2.672   7.744  1.2241  2.4100 -1.6096
  565MOL0     H77961   7.343   2.516   7.818 -0.5005 -0.5317  0.2323
  565MOL0     H77962   7.574   2.688   7.752 -3.0341  0.1521 -1.3105
  565MOL0     H77963   7.579   2.536   7.855 -0.0471  0.0185 -0.2432
  565MOL0     H77964   7.544   2.397   7.667  3.4955 -0.4728  0.5918
  565MOL0     H77965   7.665   2.500   7.620 -0.4830  0.4724 -1.3169
  565MOL0     H77966   7.343   2.602   7.364 -0.3440  2.7846  0.7947
  565MOL0     H77967   7.499   3.051   7.909 -0.4491  2.1396  0.5018
  565MOL0     H77968   7.441   3.332   8.062 -0.5323  0.2442 -1.1394
  565MOL0     H77969   7.590   3.326   8.146  0.3028  0.7420 -1.2943
  565MOL0     H77970   7.587   3.251   7.992 -0.0773 -0.4164  1.0815
  566MOL0     O77971   4.264   7.320   7.771  0.7092  1.0563  0.7596
  566MOL0     C77972   4.146   7.305   7.814 -0.4059 -0.7265  0.1089
  566MOL0     O77973   4.025   7.307   7.741 -0.4242  1.0173  0.6596
  566MOL0     C77974   4.056   7.308   7.602  0.6512  0.8061  0.0436
  566MOL0     C77975   4.004   7.426   7.542 -0.9776 -0.6192  0.5172
  566MOL0     C77976   4.028   7.425   7.401  0.3974 -0.1433 -1.3191
  566MOL0     C77977   4.121   7.346   7.340  0.9754  0.4266 -0.1425
  566MOL0     O77978   4.156   7.352   7.206 -0.2371 -0.0135  0.3611
  566MOL0     C77979   4.294   7.383   7.175  0.6093  0.1756 -0.0081
  566MOL0     C77980   4.305   7.432   7.031 -0.0094  0.1176  0.8802
  566MOL0     C77981   4.367   7.565   7.017 -0.7746  0.2929 -0.3176
  566MOL0     C77982   4.351   7.627   6.880  0.8317  0.2049 -1.3060
  566MOL0     C77983   4.433   7.763   6.872  0.1404  0.8430  0.0386
  566MOL0     C77984   4.419   7.834   6.737  0.2957 -0.1326  0.1388
  566MOL0     C77985   4.553   7.921   6.715  0.0193 -0.0052  0.3757
  566MOL0     C77986   4.570   7.988   6.585 -0.2514  0.2552 -0.7233
  566MOL0     N77987   4.514   7.910   6.477 -0.0731 -0.7105 -0.0015
  566MOL0     C77988   4.583   7.822   6.397 -0.1292 -0.6427  0.1516
  566MOL0     C77989   4.503   7.803   6.294  0.4701 -0.0455 -0.2631
  566MOL0     C77990   4.519   7.699   6.187 -0.3378 -0.1639  0.1851
  566MOL0     C77991   4.459   7.559   6.228 -0.1485  0.4362 -0.4582
  566MOL0     C77992   4.307   7.566   6.219  0.1937  0.2598 -0.0589
  566MOL0     C77993   4.227   7.436   6.238  1.5835  0.6392 -0.1493
  566MOL0     O77994   4.311   7.317   6.228  0.0927  0.5657 -0.1494
  566MOL0     C77995   4.338   7.236   6.329  0.3599 -0.3241  0.2864
  566MOL0     C77996   4.404   7.117   6.300  0.1231 -0.1288  0.5283
  566MOL0     C77997   4.455   7.027   6.400 -0.7398  0.0247  0.4292
  566MOL0     C77998   4.521   6.903   6.342  0.8452  0.3774 -0.1876
  566MOL0     C77999   4.437   7.065   6.539  0.1210 -0.0582 -0.3080
  566MOL0     C78000   4.498   6.991   6.647  0.1242  1.0006 -0.2895
  566MOL0     O78001   4.432   6.998   6.769 -1.3440 -0.3240 -0.2448
  566MOL0     C78002   4.497   6.938   6.876  0.0264 -0.5227 -0.1007
  566MOL0     C78003   4.532   6.801   6.885  0.1497 -0.1545  0.7162
  566MOL0     C78004   4.605   6.757   6.996  0.2025  1.4426  0.6874
  566MOL0     C78005   4.660   6.845   7.085  0.8720 -0.2611  0.4277
  566MOL0     O78006   4.740   6.817   7.191  0.3484 -0.3789  0.6314
  566MOL0     C78007   4.691   6.728   7.291  0.6342 -0.6186 -0.5550
  566MOL0     C78008   4.807   6.731   7.400 -0.5498  0.3442  0.1330
  566MOL0     C78009   4.777   6.680   7.539  0.0166 -0.1935  0.2798
  566MOL0     C78010   4.754   6.527   7.528 -0.2584 -0.3809  0.7373
  566MOL0     C78011   4.683   6.474   7.655  0.3988  0.1569  0.5419
  566MOL0     C78012   4.776   6.483   7.781 -1.2803  0.5172  1.2710
  566MOL0     C78013   4.924   6.436   7.763 -0.0906  0.1631  0.8744
  566MOL0     C78014   5.012   6.408   7.886  0.8382  0.4723 -0.4356
  566MOL0    Cl78015   5.184   6.409   7.832  0.2788 -0.0043 -0.2184
  566MOL0     C78016   4.628   6.982   7.072  0.6798  0.4092  0.5259
  566MOL0     C78017   4.541   7.020   6.971 -0.0862  0.1309 -0.6710
  566MOL0     O78018   4.603   6.929   6.631 -0.5836 -0.6589 -0.5504
  566MOL0     C78019   4.348   7.170   6.570 -0.4178  0.3436  0.1394
  566MOL0     C78020   4.301   7.254   6.465  0.6618  0.1012 -0.5227
  566MOL0     N78021   4.391   7.872   6.311  0.0542 -0.0147  0.4560
  566MOL0     N78022   4.392   7.937   6.420 -0.0567  0.4379  0.1408
  566MOL0     C78023   4.162   7.224   7.406 -0.0698  0.6008 -0.0699
  566MOL0     C78024   4.132   7.209   7.537 -1.3206  0.4014 -0.0614
  566MOL0     C78025   4.131   7.287   7.960 -0.4562  0.1983  0.1352
  566MOL0     C78026   4.129   7.392   8.052 -0.3130 -0.0753  0.0811
  566MOL0     C78027   4.118   7.377   8.186  0.5659 -0.3499 -0.3000
  566MOL0     C78028   4.104   7.251   8.236 -0.3464  0.5664  0.0369
  566MOL0     O78029   4.090   7.243   8.376 -0.9892  0.4042  0.0536
  566MOL0     C78030   4.032   7.123   8.431  0.1302 -0.2030  0.1456
  566MOL0     C78031   4.013   7.141   8.580  0.7638  0.1357  0.0363
  566MOL0     C78032   3.934   7.272   8.642  1.1901  0.9479  0.4732
  566MOL0     C78033   3.815   7.308   8.544  1.6999 -1.1448 -0.7250
  566MOL0     C78034   3.726   7.197   8.522 -0.0118  1.1600  0.1282
  566MOL0     C78035   3.648   7.107   8.519  1.2671  0.6668 -0.0429
  566MOL0     C78036   4.102   7.142   8.151 -0.0675  0.5694 -0.3505
  566MOL0     C78037   4.107   7.164   8.014 -0.4936  0.3993 -0.1836
  566MOL0     C78038   4.079   7.045   7.927  0.3735 -0.4578  1.0873
  566MOL0     H78039   3.935   7.495   7.590  0.3623  2.3192 -1.5119
  566MOL0     H78040   3.982   7.504   7.342  1.7825  0.5606 -1.4942
  566MOL0     H78041   4.356   7.293   7.181 -0.3981 -0.4709  1.4362
  566MOL0     H78042   4.331   7.459   7.245 -1.8520 -0.4717  2.1702
  566MOL0     H78043   4.370   7.357   6.986  2.5459  1.2097  2.4983
  566MOL0     H78044   4.215   7.439   6.970  2.4721 -3.0477 -3.7467
  566MOL0     H78045   4.328   7.637   7.090  0.1538  2.5808 -1.9770
  566MOL0     H78046   4.472   7.541   7.035 -0.1344  1.1075 -2.6491
  566MOL0     H78047   4.383   7.564   6.796  2.8800  2.1762 -2.0840
  566MOL0     H78048   4.248   7.660   6.861  0.2693 -0.8876 -0.3016
  566MOL0     H78049   4.535   7.731   6.893 -1.3693 -2.4985  3.3418
  566MOL0     H78050   4.398   7.818   6.960 -2.4262 -0.8595  0.1878
  566MOL0     H78051   4.405   7.758   6.659 -2.7604 -0.3623  0.7927
  566MOL0     H78052   4.327   7.894   6.736  0.6436  0.4149 -0.5075
  566MOL0     H78053   4.633   7.847   6.720 -1.7344 -1.9242  2.5990
  566MOL0     H78054   4.559   7.991   6.799  3.2737  2.6144 -1.8350
  566MOL0     H78055   4.534   8.090   6.600 -1.0916 -0.1441  0.1196
  566MOL0     H78056   4.675   8.003   6.562 -0.6392  0.8973 -2.1658
  566MOL0     H78057   4.684   7.783   6.413  0.4225  1.3887  2.1013
  566MOL0     H78058   4.626   7.691   6.165 -0.2591 -2.2087  1.0816
  566MOL0     H78059   4.479   7.730   6.090  0.8358 -1.7183 -0.8402
  566MOL0     H78060   4.500   7.481   6.164 -0.9379 -0.9565  0.6878
  566MOL0     H78061   4.487   7.525   6.329 -0.2623 -2.0816 -1.2142
  566MOL0     H78062   4.266   7.645   6.282 -0.9615  0.8495 -1.4860
  566MOL0     H78063   4.288   7.589   6.114  0.4035 -2.3166 -0.7476
  566MOL0     H78064   4.172   7.427   6.332  4.8063  0.4003  1.8467
  566MOL0     H78065   4.152   7.421   6.160 -1.0996  2.1088  1.9776
  566MOL0     H78066   4.411   7.088   6.195  1.3512 -0.3290  0.6503
  566MOL0     H78067   4.479   6.813   6.388 -2.3644  0.7901 -2.0729
  566MOL0     H78068   4.624   6.908   6.379 -0.0849  0.7376  2.6455
  566MOL0     H78069   4.509   6.885   6.235  0.5249  0.4103 -0.1575
  566MOL0     H78070   4.509   6.745   6.795  1.6525  2.1945 -1.2619
  566MOL0     H78071   4.616   6.651   7.020 -0.5089  1.3443  0.6130
  566MOL0     H78072   4.610   6.781   7.341  1.6782  0.2042  0.3123
  566MOL0     H78073   4.662   6.629   7.255 -0.9299  0.4064 -2.3052
  566MOL0     H78074   4.877   6.655   7.364  0.7992  0.1238  2.9701
  566MOL0     H78075   4.852   6.831   7.405  0.4433 -0.1606  2.6607
  566MOL0     H78076   4.689   6.727   7.585 -0.1783 -0.2434 -0.0324
  566MOL0     H78077   4.858   6.695   7.610 -0.3975  1.4506  0.4485
  566MOL0     H78078   4.848   6.477   7.502 -1.2279 -0.4488 -3.3340
  566MOL0     H78079   4.688   6.516   7.441  0.3433 -2.9182  0.5296
  566MOL0     H78080   4.590   6.526   7.679 -1.0393 -2.5293  1.1642
  566MOL0     H78081   4.657   6.368   7.650  0.9915  0.0001  0.5991
  566MOL0     H78082   4.733   6.407   7.846  2.7882 -3.0009  0.3011
  566MOL0     H78083   4.765   6.580   7.831  0.5352  0.1763  2.4234
  566MOL0     H78084   4.982   6.498   7.695 -0.2966 -1.2237 -0.6405
  566MOL0     H78085   4.925   6.342   7.707  2.2168  1.4780 -1.5082
  566MOL0     H78086   4.998   6.309   7.930  0.2825 -1.5576 -4.6674
  566MOL0     H78087   4.999   6.482   7.966 -0.6805  0.0178 -0.2304
  566MOL0     H78088   4.678   7.063   7.124 -1.2688  1.0706  1.4844
  566MOL0     H78089   4.523   7.126   6.952  2.9597  0.7969 -0.3066
  566MOL0     H78090   4.340   7.204   6.673 -1.0280  1.5631 -0.2913
  566MOL0     H78091   4.231   7.332   6.490 -1.8234 -1.9181 -0.7486
  566MOL0     H78092   4.222   7.159   7.344 -0.4813 -2.5755  2.5742
  566MOL0     H78093   4.159   7.120   7.594 -3.3871  0.2694  0.8123
  566MOL0     H78094   4.148   7.490   8.011  1.7358  0.0004  1.0669
  566MOL0     H78095   4.117   7.460   8.256  1.1643  1.7280 -2.6207
  566MOL0     H78096   3.944   7.102   8.370  0.2233 -3.1402  0.8916
  566MOL0     H78097   4.101   7.040   8.419  0.5240  0.1562 -0.1114
  566MOL0     H78098   4.110   7.123   8.628  1.2796 -1.0642 -1.4138
  566MOL0     H78099   3.949   7.055   8.600  0.5375 -0.0106 -1.2731
  566MOL0     H78100   3.908   7.276   8.748 -0.6572 -0.3483  0.1220
  566MOL0     H78101   4.003   7.356   8.633  1.9521  0.1607 -1.6012
  566MOL0     H78102   3.856   7.340   8.447 -1.7607  5.6941 -0.5504
  566MOL0     H78103   3.758   7.397   8.572  1.1029 -1.9952  0.8986
  566MOL0     H78104   3.572   7.032   8.528  0.3515  1.5369 -0.2703
  566MOL0     H78105   4.087   7.045   8.198  2.1625  0.3267 -0.0281
  566MOL0     H78106   3.996   6.986   7.967 -0.4335  1.1184  1.8339
  566MOL0     H78107   4.041   7.074   7.829  3.0741  2.0520  0.6613
  566MOL0     H78108   4.168   6.983   7.910 -0.6685 -0.8811 -5.2811
  567MOL0     O78109  10.770   6.020   7.008  0.0333 -0.9611 -0.0467
  567MOL0     C78110  10.805   6.027   7.123  0.4936  0.3337 -0.4781
  567MOL0     O78111  10.715   6.029   7.231 -0.0981  0.1630 -0.1960
  567MOL0     C78112  10.578   6.014   7.213 -0.4537  0.3453  0.2871
  567MOL0     C78113  10.502   6.122   7.243 -0.0458 -0.7090  0.6676
  567MOL0     C78114  10.367   6.108   7.242 -0.0641  1.0041  1.0862
  567MOL0     C78115  10.307   5.983   7.204 -0.0496 -0.0833 -0.0443
  567MOL0     O78116  10.170   5.965   7.237  0.6859  0.1208 -0.6360
  567MOL0     C78117  10.084   5.903   7.143 -1.1291  0.4124  0.4730
  567MOL0     C78118  10.049   5.989   7.020  0.9334 -0.1375 -0.2063
  567MOL0     C78119   9.902   5.993   6.982 -0.4286 -0.1989 -0.0460
  567MOL0     C78120   9.866   6.053   6.845 -0.2188  0.0826 -0.3522
  567MOL0     C78121   9.711   6.096   6.819 -0.1590 -0.6316  0.9783
  567MOL0     C78122   9.608   6.005   6.877  0.4769  0.5418 -0.0833
  567MOL0     C78123   9.461   6.054   6.835 -0.6654 -0.1131 -0.0406
  567MOL0     C78124   9.444   6.024   6.685 -0.3936  1.0050 -0.3484
  567MOL0     N78125   9.421   6.151   6.614  0.1817 -0.2069  0.9327
  567MOL0     C78126   9.298   6.211   6.611  0.2793 -0.1841  0.0005
  567MOL0     C78127   9.295   6.278   6.494 -0.0842 -0.2136  0.1430
  567MOL0     C78128   9.181   6.347   6.421 -0.9324  0.2519 -1.0462
  567MOL0     C78129   9.175   6.498   6.445  0.0531 -0.8284  1.0034
  567MOL0     C78130   9.259   6.588   6.349 -0.0113  0.0801 -0.3303
  567MOL0     C78131   9.194   6.612   6.207  0.0633  0.0239  0.2291
  567MOL0     O78132   9.286   6.704   6.135  0.5038  0.0813  0.0190
  567MOL0     C78133   9.354   6.640   6.032  0.2562  0.6500  0.3921
  567MOL0     C78134   9.462   6.556   6.061 -0.2322  0.5767 -0.0118
  567MOL0     C78135   9.523   6.486   5.962  0.0017 -0.0164 -0.0741
  567MOL0     C78136   9.645   6.403   5.994  0.3068  0.6332  0.4927
  567MOL0     C78137   9.473   6.482   5.824 -0.4412 -1.0623 -0.6229
  567MOL0     C78138   9.528   6.392   5.719  0.0356  0.3921  1.2166
  567MOL0     O78139   9.660   6.397   5.683 -0.6495 -0.1950 -0.1953
  567MOL0     C78140   9.709   6.310   5.591  0.3313  0.8065  0.2774
  567MOL0     C78141   9.791   6.204   5.645 -0.2460  0.3554 -1.5917
  567MOL0     C78142   9.853   6.112   5.564  0.2839 -0.5584  0.3910
  567MOL0     C78143   9.828   6.114   5.427  0.8507  0.0097 -0.7523
  567MOL0     O78144   9.890   6.033   5.330  0.0138  0.2508 -0.1831
  567MOL0     C78145   9.990   5.933   5.370 -0.5261  0.1165 -0.1869
  567MOL0     C78146   9.913   5.807   5.424 -0.0415 -0.7928 -0.2149
  567MOL0     C78147   9.838   5.737   5.310 -1.1115 -0.4565  0.1900
  567MOL0     C78148   9.759   5.618   5.359 -0.0334 -0.0187  0.8323
  567MOL0     C78149   9.647   5.574   5.259 -0.2763 -0.1812 -0.0612
  567MOL0     C78150   9.712   5.516   5.124  1.2311 -0.4557 -0.6609
  567MOL0     C78151   9.593   5.462   5.039  0.7033 -0.0969 -0.3327
  567MOL0     C78152   9.627   5.406   4.913  0.3680 -0.0808  0.0158
  567MOL0    Cl78153   9.473   5.367   4.832 -0.2763  0.0972  0.1164
  567MOL0     C78154   9.761   6.229   5.379 -1.0638 -0.2472 -0.0715
  567MOL0     C78155   9.698   6.321   5.456 -0.6444  0.1191 -0.6541
  567MOL0     O78156   9.457   6.302   5.669 -0.4612 -0.0297  0.5606
  567MOL0     C78157   9.364   6.572   5.797  0.5490  0.5795 -0.1476
  567MOL0     C78158   9.311   6.646   5.896 -1.2690 -0.5035 -0.1677
  567MOL0     N78159   9.424   6.271   6.438  0.0339 -0.0871 -0.4929
  567MOL0     N78160   9.496   6.191   6.510 -1.0346  0.1948  0.8713
  567MOL0     C78161  10.387   5.890   7.152  0.7668  0.4669 -0.0076
  567MOL0     C78162  10.521   5.896   7.151 -0.5463 -0.0774  0.2839
  567MOL0     C78163  10.950   6.028   7.154  0.2005  0.0604  0.0344
  567MOL0     C78164  10.986   5.950   7.262  0.7670 -0.3077 -0.7643
  567MOL0     C78165  11.121   5.942   7.301 -0.5095 -0.9357 -0.4816
  567MOL0     C78166  11.219   6.020   7.233  0.5906  0.2312  0.5082
  567MOL0     O78167  11.350   5.999   7.257  0.2572 -0.5978 -0.0845
  567MOL0     C78168  11.460   6.088   7.232  0.2041 -0.2759 -0.7137
  567MOL0     C78169  11.553   6.030   7.118 -0.1746 -0.5756 -0.1945
  567MOL0     C78170  11.639   5.906   7.169 -0.1427 -0.3601 -0.6890
  567MOL0     C78171  11.672   5.816   7.053  0.4543  0.2064  0.3506
  567MOL0     C78172  11.763   5.878   6.951  0.3866 -0.0127  0.3246
  567MOL0     C78173  11.841   5.921   6.869 -0.1070 -0.2602  1.2793
  567MOL0     C78174  11.184   6.098   7.121 -0.6121  0.0913  0.4777
  567MOL0     C78175  11.044   6.106   7.081 -0.8033  0.1655 -0.5814
  567MOL0     C78176  10.993   6.198   6.967  0.4246  0.5254 -0.5950
  567MOL0     H78177  10.553   6.207   7.287 -1.3671 -1.7662  4.6911
  567MOL0     H78178  10.300   6.190   7.267  1.7156  2.9428 -0.1554
  567MOL0     H78179   9.994   5.877   7.200 -0.7312 -0.3518  0.7659
  567MOL0     H78180  10.126   5.810   7.104 -1.4823  0.1584  0.6961
  567MOL0     H78181  10.086   6.091   7.037  2.4291 -0.7813  0.6147
  567MOL0     H78182  10.113   5.961   6.936  0.9925 -0.0745 -0.1825
  567MOL0     H78183   9.858   5.894   6.997 -0.8982 -0.0481 -0.4276
  567MOL0     H78184   9.852   6.062   7.050  0.8159  0.3994  0.2908
  567MOL0     H78185   9.936   6.136   6.838  2.6445 -1.7296  3.6087
  567MOL0     H78186   9.894   5.984   6.765 -1.7392  0.1329 -0.9754
  567MOL0     H78187   9.699   6.103   6.711 -2.3351 -2.8899  1.0011
  567MOL0     H78188   9.691   6.189   6.875 -0.3098  0.4993 -0.8862
  567MOL0     H78189   9.629   5.898   6.867  6.6127  1.1130  2.2061
  567MOL0     H78190   9.611   6.019   6.985  1.4381 -2.9718  0.4678
  567MOL0     H78191   9.472   6.161   6.854  1.7380 -0.0535 -1.3506
  567MOL0     H78192   9.388   6.007   6.902  1.0022 -1.4411  0.9521
  567MOL0     H78193   9.524   5.965   6.639 -1.7138 -1.2965  0.1213
  567MOL0     H78194   9.351   5.966   6.673  0.0586 -0.7684  3.2614
  567MOL0     H78195   9.217   6.192   6.679  0.1507  0.2913 -0.0183
  567MOL0     H78196   9.093   6.292   6.457 -0.7272  1.7585  2.0847
  567MOL0     H78197   9.186   6.348   6.312  0.9318  2.0997 -0.9915
  567MOL0     H78198   9.069   6.528   6.444  0.2177 -0.0597  2.6212
  567MOL0     H78199   9.208   6.512   6.549  1.0730  2.9685  0.3050
  567MOL0     H78200   9.292   6.681   6.396  1.0838 -1.3137  1.8429
  567MOL0     H78201   9.350   6.527   6.340 -0.5748 -0.4208 -4.5663
  567MOL0     H78202   9.174   6.520   6.152 -1.2565  1.0356 -1.0436
  567MOL0     H78203   9.096   6.657   6.225  0.0754 -0.4653  1.6536
  567MOL0     H78204   9.494   6.539   6.163  1.0863 -3.4475 -0.9389
  567MOL0     H78205   9.624   6.303   5.955 -1.1169  0.5726  1.3466
  567MOL0     H78206   9.650   6.398   6.103 -0.7678  0.9338  0.5605
  567MOL0     H78207   9.737   6.445   5.951  0.1119 -1.3269 -2.0598
  567MOL0     H78208   9.808   6.213   5.752 -1.4217 -0.3870 -1.3213
  567MOL0     H78209   9.906   6.036   5.621 -4.6022 -1.2196  4.7476
  567MOL0     H78210  10.049   5.900   5.284 -0.7880 -0.5333 -0.1241
  567MOL0     H78211  10.052   5.972   5.452 -1.1124 -2.3492  1.5285
  567MOL0     H78212   9.996   5.740   5.450  1.0841 -0.7863 -3.4414
  567MOL0     H78213   9.844   5.825   5.507  0.4413 -0.2930  0.0962
  567MOL0     H78214   9.910   5.711   5.231  0.0300  0.2647  0.9605
  567MOL0     H78215   9.777   5.805   5.250 -0.9613  0.7435  1.3622
  567MOL0     H78216   9.707   5.644   5.452 -0.5438  1.9955  0.0434
  567MOL0     H78217   9.836   5.544   5.383  1.2661  2.1038  3.9969
  567MOL0     H78218   9.584   5.498   5.304  1.3164 -0.5197  1.7003
  567MOL0     H78219   9.579   5.653   5.226  1.8263  1.4628 -0.7252
  567MOL0     H78220   9.782   5.436   5.150  0.5928 -1.1646 -1.0521
  567MOL0     H78221   9.772   5.598   5.087  1.1437 -0.7240 -1.4024
  567MOL0     H78222   9.514   5.538   5.034  0.1894 -0.5700  0.3283
  567MOL0     H78223   9.543   5.383   5.096  1.8495 -0.5448  0.0772
  567MOL0     H78224   9.687   5.315   4.917 -0.2013 -0.5104 -0.8470
  567MOL0     H78225   9.683   5.478   4.852  1.0994 -0.2837  0.4329
  567MOL0     H78226   9.763   6.238   5.271  1.2604 -1.9496 -0.2446
  567MOL0     H78227   9.652   6.410   5.414 -0.7195  0.8531  0.9276
  567MOL0     H78228   9.327   6.577   5.695 -2.4825  0.9099  0.8590
  567MOL0     H78229   9.232   6.716   5.869 -1.7037 -1.1870 -0.6865
  567MOL0     H78230  10.347   5.796   7.116  1.0008 -0.4566  2.0301
  567MOL0     H78231  10.579   5.814   7.110 -1.1125  0.4757 -1.7536
  567MOL0     H78232  10.904   5.907   7.318  0.5918  0.7876 -0.1669
  567MOL0     H78233  11.159   5.875   7.378  0.6047 -0.0394 -0.2291
  567MOL0     H78234  11.412   6.185   7.231 -0.5884 -0.6517 -0.1140
  567MOL0     H78235  11.524   6.092   7.321 -1.4679  0.2736  0.4942
  567MOL0     H78236  11.620   6.101   7.068  0.6149  1.1090  2.9796
  567MOL0     H78237  11.483   6.004   7.038  1.4568 -0.9256 -1.5595
  567MOL0     H78238  11.734   5.927   7.220  2.6685 -2.8014 -4.3760
  567MOL0     H78239  11.568   5.844   7.224 -1.5930  0.1997 -1.8652
  567MOL0     H78240  11.575   5.794   7.006 -0.6929  1.8619  1.7734
  567MOL0     H78241  11.706   5.727   7.106 -1.9454 -0.5858  0.7081
  567MOL0     H78242  11.904   5.962   6.793 -0.7271  0.8812  1.3488
  567MOL0     H78243  11.269   6.148   7.077  1.9186 -2.6042  1.8972
  567MOL0     H78244  10.965   6.148   6.874  0.9974  0.2777 -0.6357
  567MOL0     H78245  10.907   6.263   6.991  0.4390 -0.2022  1.6500
  567MOL0     H78246  11.071   6.274   6.956 -1.8561  3.0538 -0.6242
  568MOL0     O78247   4.179   0.960   8.307  0.1119  0.1110 -0.3719
  568MOL0     C78248   4.257   0.975   8.216  0.0061 -0.7331 -1.5120
  568MOL0     O78249   4.370   1.046   8.223 -0.3083  0.1858 -0.1305
  568MOL0     C78250   4.403   1.127   8.333 -0.2360  0.3380  0.1541
  568MOL0     C78251   4.486   1.079   8.434 -0.1839  0.5526  0.7171
  568MOL0     C78252   4.564   1.171   8.502 -0.9243  0.4952  1.5807
  568MOL0     C78253   4.540   1.311   8.492 -0.7499 -0.1652 -0.2492
  568MOL0     O78254   4.620   1.391   8.570 -1.0148 -0.1036 -0.1229
  568MOL0     C78255   4.607   1.540   8.561 -0.1361 -0.8058  0.8401
  568MOL0     C78256   4.725   1.592   8.483  0.7273 -0.3876 -0.1476
  568MOL0     C78257   4.855   1.579   8.553 -0.6180 -0.6230 -0.4580
  568MOL0     C78258   4.961   1.670   8.490  0.2800  0.0731  0.2722
  568MOL0     C78259   4.999   1.639   8.346 -0.3295  0.6634 -0.0331
  568MOL0     C78260   5.084   1.760   8.283 -0.3594  0.6814 -0.3565
  568MOL0     C78261   5.133   1.721   8.135 -0.2295  0.4831 -0.4051
  568MOL0     C78262   5.245   1.816   8.101  0.0837 -0.3062  0.6048
  568MOL0     N78263   5.284   1.804   7.960 -0.4699 -0.5927  0.4444
  568MOL0     C78264   5.389   1.881   7.905  0.8315 -0.6659  0.0257
  568MOL0     C78265   5.422   1.816   7.786  0.3300  0.0531 -0.3660
  568MOL0     C78266   5.503   1.860   7.669 -1.0542  0.4504 -0.6318
  568MOL0     C78267   5.421   1.909   7.547 -0.6145  0.2809  0.1829
  568MOL0     C78268   5.508   1.962   7.432  1.2892 -0.7852  0.8946
  568MOL0     C78269   5.613   1.863   7.388  0.8262 -0.6919 -0.0723
  568MOL0     O78270   5.728   1.897   7.467 -0.3469 -0.5482  0.2500
  568MOL0     C78271   5.836   1.831   7.462 -0.1664 -0.1870  1.0266
  568MOL0     C78272   5.917   1.803   7.353 -0.0399 -0.5380  0.2803
  568MOL0     C78273   6.031   1.722   7.349  0.5063 -0.0364 -0.9599
  568MOL0     C78274   6.098   1.709   7.212  0.4365 -0.3582  0.3697
  568MOL0     C78275   6.078   1.667   7.470  0.7983 -0.4956 -1.1162
  568MOL0     C78276   6.196   1.597   7.479 -0.3344  0.3145 -0.1301
  568MOL0     O78277   6.206   1.489   7.568 -0.7254 -0.4876 -0.2669
  568MOL0     C78278   6.314   1.413   7.555 -0.1095 -0.6766 -0.7057
  568MOL0     C78279   6.442   1.445   7.595 -0.2227 -0.1082 -0.6736
  568MOL0     C78280   6.545   1.354   7.568 -0.1620  1.0365  0.4473
  568MOL0     C78281   6.517   1.230   7.516 -0.2233 -0.1959 -0.3271
  568MOL0     O78282   6.627   1.148   7.505  0.2439 -0.3413  0.6637
  568MOL0     C78283   6.620   1.001   7.512 -0.3554  0.3151  0.7990
  568MOL0     C78284   6.752   0.948   7.456  0.0789  0.3706  0.0362
  568MOL0     C78285   6.874   0.983   7.550 -0.4283 -0.7432  0.2154
  568MOL0     C78286   7.012   0.931   7.495  0.1339 -0.2784 -0.2435
  568MOL0     C78287   6.997   0.772   7.485 -0.4856  0.8816  0.2274
  568MOL0     C78288   7.129   0.719   7.414  0.3788  0.1926  1.4449
  568MOL0     C78289   7.122   0.565   7.415 -0.3121  0.4521  0.1112
  568MOL0     C78290   7.264   0.496   7.399 -0.5464  0.1830  0.3052
  568MOL0    Cl78291   7.358   0.556   7.267  0.3506 -0.4894  0.0507
  568MOL0     C78292   6.388   1.203   7.473  0.3894  0.1242  0.3456
  568MOL0     C78293   6.283   1.287   7.499  0.6085 -0.6376  0.2581
  568MOL0     O78294   6.292   1.640   7.412 -0.7290  0.7889 -0.1621
  568MOL0     C78295   5.996   1.692   7.581 -0.1877  0.1521  0.2536
  568MOL0     C78296   5.877   1.767   7.577 -0.7902  0.2335 -0.0513
  568MOL0     N78297   5.364   1.695   7.783  0.1673  0.5056  1.0951
  568MOL0     N78298   5.288   1.689   7.880  0.4617 -0.0122 -1.3463
  568MOL0     C78299   4.443   1.350   8.404 -0.9816 -0.8168  0.7147
  568MOL0     C78300   4.377   1.259   8.318 -0.1121 -0.7930  0.5896
  568MOL0     C78301   4.232   0.919   8.082 -0.2781  0.0256 -0.2228
  568MOL0     C78302   4.285   0.984   7.968 -0.6494 -0.1558  0.0595
  568MOL0     C78303   4.245   0.948   7.835  0.1546  0.2848 -0.0846
  568MOL0     C78304   4.139   0.851   7.820 -1.3176 -0.5049 -0.4908
  568MOL0     O78305   4.103   0.820   7.687 -0.0028 -0.8684 -0.0398
  568MOL0     C78306   4.044   0.694   7.656  0.5505 -0.1709 -0.3184
  568MOL0     C78307   4.139   0.577   7.669  0.3989  0.4384  1.4838
  568MOL0     C78308   4.259   0.589   7.577  0.3983 -0.3582  0.0820
  568MOL0     C78309   4.348   0.466   7.555 -0.1841  0.5340  0.0665
  568MOL0     C78310   4.295   0.355   7.474  0.2751 -0.5279  0.0846
  568MOL0     C78311   4.266   0.248   7.413  0.4546 -0.3378 -0.0642
  568MOL0     C78312   4.099   0.778   7.928  0.2057 -0.4857 -1.2414
  568MOL0     C78313   4.148   0.805   8.055  0.3515  0.5058  0.5876
  568MOL0     C78314   4.085   0.722   8.167  0.3047 -0.4477  1.1820
  568MOL0     H78315   4.508   0.972   8.437 -2.4546  0.0401  1.0172
  568MOL0     H78316   4.649   1.129   8.556  1.7023 -1.6305 -3.4573
  568MOL0     H78317   4.618   1.594   8.656  2.5128  2.6841 -1.2397
  568MOL0     H78318   4.510   1.573   8.523  0.6053  3.3600  2.1049
  568MOL0     H78319   4.731   1.522   8.399  2.7929  0.7303 -1.0134
  568MOL0     H78320   4.718   1.697   8.453  3.7064  0.6767  2.2888
  568MOL0     H78321   4.846   1.613   8.657  1.8921  0.1666 -0.4292
  568MOL0     H78322   4.889   1.476   8.540  0.0266 -0.3913 -0.6492
  568MOL0     H78323   4.923   1.772   8.505 -2.0036 -1.0404  3.0280
  568MOL0     H78324   5.043   1.653   8.560 -1.7894 -0.3106  2.7478
  568MOL0     H78325   4.920   1.609   8.277 -0.3553 -1.7872  0.9396
  568MOL0     H78326   5.056   1.545   8.342 -1.9356 -0.3019 -1.2255
  568MOL0     H78327   5.027   1.853   8.275 -0.1279  0.6789 -3.3080
  568MOL0     H78328   5.167   1.788   8.348 -1.5556  0.0409  1.5069
  568MOL0     H78329   5.051   1.714   8.064  2.1209  1.7069 -3.4903
  568MOL0     H78330   5.167   1.617   8.136 -2.9567 -0.4825  1.2645
  568MOL0     H78331   5.211   1.918   8.120 -1.4135 -0.5326 -0.6278
  568MOL0     H78332   5.336   1.800   8.160 -0.6311  1.0334  2.1365
  568MOL0     H78333   5.425   1.977   7.940  0.6274 -0.8437  0.7264
  568MOL0     H78334   5.576   1.789   7.630  3.0495  4.6306 -1.4461
  568MOL0     H78335   5.556   1.947   7.709 -2.3535  0.4561  1.2489
  568MOL0     H78336   5.355   1.828   7.514  0.5321 -0.8427  0.5705
  568MOL0     H78337   5.349   1.989   7.568 -1.9008 -0.6916 -0.4076
  568MOL0     H78338   5.438   1.974   7.349  0.3691  0.9845  1.8598
  568MOL0     H78339   5.536   2.065   7.454 -0.1550  0.5823 -2.8814
  568MOL0     H78340   5.595   1.757   7.411  0.9686 -1.1359 -1.8571
  568MOL0     H78341   5.612   1.873   7.279 -0.5195  4.4936  0.1578
  568MOL0     H78342   5.885   1.846   7.259 -0.7695  1.2934  1.3278
  568MOL0     H78343   6.173   1.789   7.208 -1.3627  1.3528 -1.7467
  568MOL0     H78344   6.031   1.719   7.127  1.4652 -1.4412 -0.6184
  568MOL0     H78345   6.145   1.610   7.211  4.0836  1.1860  1.2525
  568MOL0     H78346   6.465   1.539   7.643  0.5420 -1.2279  1.2946
  568MOL0     H78347   6.650   1.378   7.580 -0.6420  4.1573 -0.5784
  568MOL0     H78348   6.605   0.962   7.613 -0.5110  4.6969  2.7073
  568MOL0     H78349   6.540   0.964   7.447 -0.2703  3.2781 -1.1997
  568MOL0     H78350   6.726   0.842   7.463 -3.8863  1.2617  2.5640
  568MOL0     H78351   6.779   0.976   7.354 -1.7573 -1.6736 -1.0876
  568MOL0     H78352   6.855   0.945   7.651 -2.3982  0.9960  0.5708
  568MOL0     H78353   6.886   1.091   7.543 -0.3338 -0.8749 -4.0369
  568MOL0     H78354   7.090   0.956   7.567 -0.2410 -1.4605  0.5937
  568MOL0     H78355   7.040   0.976   7.399  0.9170  0.8076  0.4790
  568MOL0     H78356   6.976   0.730   7.584 -1.7730 -2.1437 -1.1834
  568MOL0     H78357   6.910   0.732   7.433 -1.2866  1.7086  0.9025
  568MOL0     H78358   7.206   0.755   7.483  0.3946 -0.5726  1.8390
  568MOL0     H78359   7.127   0.772   7.318  2.1241 -0.1643  1.1658
  568MOL0     H78360   7.051   0.532   7.340 -1.1251  1.7807  0.2735
  568MOL0     H78361   7.086   0.533   7.513  0.2250  0.8753  0.4559
  568MOL0     H78362   7.255   0.388   7.388  2.5761 -0.1209 -0.3507
  568MOL0     H78363   7.310   0.508   7.498 -2.1903 -0.9795  1.2498
  568MOL0     H78364   6.362   1.107   7.431 -3.1906  0.7939  0.7234
  568MOL0     H78365   6.183   1.249   7.480  1.5238 -1.4807 -3.7611
  568MOL0     H78366   6.020   1.642   7.675 -0.9705 -1.7966 -0.5227
  568MOL0     H78367   5.805   1.781   7.657 -2.8771  1.5664 -2.0330
  568MOL0     H78368   4.419   1.455   8.391  0.9362 -0.3149  0.8681
  568MOL0     H78369   4.318   1.301   8.237  0.5160  1.4313  1.2130
  568MOL0     H78370   4.347   1.072   7.981  0.7890 -1.1264  0.0132
  568MOL0     H78371   4.283   1.010   7.754  4.3601 -1.2791  0.4585
  568MOL0     H78372   3.955   0.683   7.719  0.6036 -0.4276 -0.2897
  568MOL0     H78373   4.013   0.695   7.551 -1.1675  0.0880  0.1669
  568MOL0     H78374   4.081   0.494   7.629  1.4268  0.3974 -0.0069
  568MOL0     H78375   4.164   0.572   7.775  1.3042 -0.8014  1.2370
  568MOL0     H78376   4.219   0.627   7.483  2.0191  0.8825 -0.1545
  568MOL0     H78377   4.319   0.675   7.608 -0.1914  1.3720 -3.1187
  568MOL0     H78378   4.368   0.431   7.657 -0.6564 -1.5092 -0.4866
  568MOL0     H78379   4.441   0.500   7.508 -0.7567  1.3911 -0.4715
  568MOL0     H78380   4.253   0.157   7.358  4.1910 -0.1192 -1.5771
  568MOL0     H78381   4.040   0.691   7.901 -0.3198  0.3649 -2.9639
  568MOL0     H78382   4.044   0.626   8.134 -0.2812 -1.5366  4.6694
  568MOL0     H78383   4.157   0.693   8.244  3.5651  0.5348 -1.2712
  568MOL0     H78384   4.009   0.785   8.213  3.4163  3.6626  1.2100
  569MOL0     O78385   4.675   3.893   5.964 -0.3278 -0.3709  0.2154
  569MOL0     C78386   4.594   3.903   5.871  0.5385  0.7706 -0.2370
  569MOL0     O78387   4.468   3.955   5.867 -0.0389  0.5563 -0.6131
  569MOL0     C78388   4.421   3.994   5.986 -0.3973 -0.1702 -0.1197
  569MOL0     C78389   4.296   3.942   6.020 -0.2754 -0.7424  0.2591
  569MOL0     C78390   4.239   3.997   6.133 -0.1601  0.5745  0.8049
  569MOL0     C78391   4.302   4.084   6.221 -0.4556  0.0469 -0.3371
  569MOL0     O78392   4.253   4.137   6.344 -0.7638  0.6163 -0.3894
  569MOL0     C78393   4.137   4.216   6.331  0.1875 -0.3405  0.8360
  569MOL0     C78394   4.064   4.247   6.461 -0.3471  1.0339 -0.2926
  569MOL0     C78395   4.166   4.262   6.572 -0.2920 -0.1462 -0.9704
  569MOL0     C78396   4.275   4.357   6.552 -0.9900 -1.1901  0.4221
  569MOL0     C78397   4.330   4.429   6.676  0.4674 -0.0895 -1.2405
  569MOL0     C78398   4.433   4.351   6.765  0.5988 -0.6461  0.1704
  569MOL0     C78399   4.489   4.434   6.879 -0.4048 -0.2003 -0.1624
  569MOL0     C78400   4.559   4.361   6.998 -0.3078 -0.4181 -0.0232
  569MOL0     N78401   4.619   4.231   6.974 -0.5178 -0.6081  0.6180
  569MOL0     C78402   4.729   4.206   6.883 -0.0030 -0.4435  0.0446
  569MOL0     C78403   4.757   4.079   6.895 -0.3252  0.8378  1.1801
  569MOL0     C78404   4.863   4.003   6.824 -0.1836  0.7607 -0.4925
  569MOL0     C78405   4.813   3.867   6.768 -0.1187 -0.7385  0.0050
  569MOL0     C78406   4.936   3.800   6.698  1.0922 -0.3062 -0.1988
  569MOL0     C78407   4.888   3.665   6.651  0.4628  0.6508  0.5003
  569MOL0     O78408   5.001   3.595   6.596  0.1198 -0.3774  0.2473
  569MOL0     C78409   4.995   3.469   6.538  0.5314  0.1396  0.3126
  569MOL0     C78410   4.883   3.393   6.534  0.0175  0.6558  0.9540
  569MOL0     C78411   4.887   3.263   6.488  0.9289 -0.2411  0.0571
  569MOL0     C78412   4.758   3.190   6.508  0.5349 -0.6050 -0.4240
  569MOL0     C78413   5.002   3.212   6.417  0.0661 -0.2439  0.7020
  569MOL0     C78414   5.004   3.075   6.356  0.2347 -0.1111  0.0752
  569MOL0     O78415   5.088   3.061   6.247 -0.4661  0.7869  0.4843
  569MOL0     C78416   5.129   2.943   6.184  0.8356 -0.0361 -0.7904
  569MOL0     C78417   5.163   2.953   6.047 -0.7366  0.0779 -0.2596
  569MOL0     C78418   5.191   2.842   5.978 -0.0970 -0.1511 -0.0909
  569MOL0     C78419   5.208   2.719   6.038 -0.3871  0.4320 -0.0122
  569MOL0     O78420   5.246   2.611   5.955  0.2800 -0.3051  0.0493
  569MOL0     C78421   5.305   2.497   6.021 -0.2174  0.3323  1.7067
  569MOL0     C78422   5.201   2.387   6.049  0.0361  0.4163  0.6199
  569MOL0     C78423   5.272   2.255   6.089 -0.5254 -0.0991  0.3035
  569MOL0     C78424   5.171   2.142   6.099 -0.1877  0.2112 -0.3455
  569MOL0     C78425   5.255   2.009   6.110  0.5941  0.4842  0.8384
  569MOL0     C78426   5.162   1.885   6.151 -0.1723  0.3814  0.5331
  569MOL0     C78427   5.036   1.866   6.064 -0.2416  0.3228  0.2024
  569MOL0     C78428   4.962   1.735   6.082 -0.4398  0.3529  0.1361
  569MOL0    Cl78429   5.059   1.591   6.045 -0.5981 -0.2205 -0.6152
  569MOL0     C78430   5.194   2.707   6.180  0.5119 -0.4432 -0.6162
  569MOL0     C78431   5.150   2.817   6.254  0.6885  0.3328  0.4652
  569MOL0     O78432   4.924   2.991   6.392  0.4991  0.0195 -0.5963
  569MOL0     C78433   5.112   3.304   6.402 -0.6725  0.2207 -0.1150
  569MOL0     C78434   5.111   3.425   6.470  0.5053 -0.5747 -0.5482
  569MOL0     N78435   4.663   4.025   6.987 -0.1257  0.3964  0.1230
  569MOL0     N78436   4.585   4.116   7.034  0.1534 -0.2997 -0.4032
  569MOL0     C78437   4.422   4.148   6.180  0.3981  1.1567  0.8334
  569MOL0     C78438   4.481   4.105   6.061  0.5686  0.6495 -0.4175
  569MOL0     C78439   4.635   3.843   5.740 -0.3028  0.4069  0.5374
  569MOL0     C78440   4.545   3.852   5.624 -0.1394 -0.3677 -0.5306
  569MOL0     C78441   4.581   3.793   5.502  1.2270 -0.4565  1.0250
  569MOL0     C78442   4.690   3.715   5.483 -0.3641  0.0997 -0.2217
  569MOL0     O78443   4.709   3.650   5.359  0.2295 -0.1891 -0.2958
  569MOL0     C78444   4.761   3.510   5.365 -0.5753 -0.6987 -0.3034
  569MOL0     C78445   4.730   3.416   5.249  0.1273  0.6346 -0.5898
  569MOL0     C78446   4.762   3.483   5.123 -0.3492 -0.3398  0.8442
  569MOL0     C78447   4.701   3.624   5.083 -1.2103  0.0472  0.1927
  569MOL0     C78448   4.730   3.637   4.945 -0.3045  0.4155 -0.6262
  569MOL0     C78449   4.779   3.641   4.834  0.8116 -0.6389  0.1887
  569MOL0     C78450   4.777   3.699   5.596 -1.5089 -0.1079  0.1700
  569MOL0     C78451   4.758   3.765   5.713 -0.9669  0.3036 -0.2076
  569MOL0     C78452   4.868   3.745   5.827  0.0912 -0.6371 -0.4612
  569MOL0     H78453   4.239   3.877   5.955  1.2980 -1.2714 -0.6485
  569MOL0     H78454   4.139   3.962   6.155  0.5929 -1.8291  0.7137
  569MOL0     H78455   4.067   4.162   6.266 -2.6148 -0.6326  3.8512
  569MOL0     H78456   4.162   4.310   6.281 -3.5485  1.4305  1.9206
  569MOL0     H78457   4.008   4.340   6.446 -0.6486  1.5324  3.0052
  569MOL0     H78458   3.999   4.162   6.481  1.5409 -0.4011 -0.0130
  569MOL0     H78459   4.112   4.308   6.655  0.2270  0.1255 -0.7842
  569MOL0     H78460   4.195   4.167   6.618 -0.6183 -1.2116 -2.8593
  569MOL0     H78461   4.357   4.314   6.494 -1.8809 -0.1562 -1.7506
  569MOL0     H78462   4.241   4.436   6.483  2.8737 -0.5491 -0.9539
  569MOL0     H78463   4.247   4.467   6.736  0.2884  1.0255 -2.1478
  569MOL0     H78464   4.377   4.518   6.634 -1.2207  1.2827 -0.3794
  569MOL0     H78465   4.403   4.248   6.789  0.3703 -0.7352 -0.4801
  569MOL0     H78466   4.513   4.337   6.692 -1.8412  1.3728 -3.1735
  569MOL0     H78467   4.394   4.468   6.923 -0.4170  2.2615 -1.9131
  569MOL0     H78468   4.544   4.521   6.842  1.0027 -1.3352 -0.8500
  569MOL0     H78469   4.632   4.431   7.039 -3.5397  5.4537 -2.9802
  569MOL0     H78470   4.482   4.335   7.071 -1.7206  0.5768 -1.0879
  569MOL0     H78471   4.787   4.277   6.825  1.7698 -2.2458 -0.4997
  569MOL0     H78472   4.945   3.991   6.895  0.8936 -1.0769 -1.9569
  569MOL0     H78473   4.917   4.059   6.747  1.4492 -0.0736  0.0065
  569MOL0     H78474   4.770   3.808   6.850 -2.2936 -2.1529 -1.9964
  569MOL0     H78475   4.729   3.901   6.706 -2.5092 -0.3458  3.1859
  569MOL0     H78476   4.989   3.843   6.613  2.5783 -2.0416 -0.2373
  569MOL0     H78477   5.019   3.788   6.769  1.3392  0.2111 -0.4007
  569MOL0     H78478   4.849   3.595   6.726 -1.1957  0.6740 -0.2842
  569MOL0     H78479   4.814   3.676   6.571  0.7419 -1.6039 -0.1541
  569MOL0     H78480   4.794   3.434   6.581  0.5702 -1.1137  3.7928
  569MOL0     H78481   4.731   3.147   6.411  0.5275  1.7517 -1.5423
  569MOL0     H78482   4.677   3.262   6.519 -2.6545 -3.8270 -1.0739
  569MOL0     H78483   4.761   3.112   6.585 -2.3309 -0.7767 -0.3931
  569MOL0     H78484   5.146   3.046   5.993 -1.7172  0.0482 -0.0284
  569MOL0     H78485   5.212   2.848   5.872  0.1339  0.3308 -0.0215
  569MOL0     H78486   5.379   2.447   5.957 -0.8544 -1.5131  2.3669
  569MOL0     H78487   5.371   2.515   6.106  1.7644  0.1914  0.2763
  569MOL0     H78488   5.136   2.436   6.122 -0.2438  1.3351 -0.2203
  569MOL0     H78489   5.146   2.363   5.957 -0.4465  2.1583  0.4206
  569MOL0     H78490   5.323   2.281   6.182  0.2571 -2.9938  0.7879
  569MOL0     H78491   5.357   2.230   6.025 -1.0700  0.3585 -0.6245
  569MOL0     H78492   5.117   2.137   6.004 -0.7400 -0.5164 -0.0052
  569MOL0     H78493   5.098   2.154   6.180 -0.4939 -2.2520 -0.1829
  569MOL0     H78494   5.301   1.985   6.014  0.8197  0.4315  0.9590
  569MOL0     H78495   5.339   2.014   6.180  2.6015 -2.2015 -1.1670
  569MOL0     H78496   5.146   1.900   6.258  1.0616  3.6978  0.3766
  569MOL0     H78497   5.230   1.804   6.124  0.5630  0.6791  1.4062
  569MOL0     H78498   5.056   1.867   5.957 -3.0902  2.9393 -0.4508
  569MOL0     H78499   4.964   1.944   6.091 -2.7842 -1.9904  0.5671
  569MOL0     H78500   4.884   1.735   6.006 -1.0151  1.9414  0.6847
  569MOL0     H78501   4.922   1.727   6.184  1.6147  0.3722  1.0002
  569MOL0     H78502   5.205   2.615   6.237 -0.0670  0.1456  0.4839
  569MOL0     H78503   5.120   2.807   6.358 -1.9981  0.6512 -0.2016
  569MOL0     H78504   5.197   3.248   6.366 -1.4092 -0.4254 -0.8634
  569MOL0     H78505   5.198   3.490   6.476 -1.6477  2.3523  1.4702
  569MOL0     H78506   4.475   4.215   6.246 -0.7785  1.6539  1.3001
  569MOL0     H78507   4.581   4.135   6.034  0.2548  1.0771 -1.1215
  569MOL0     H78508   4.461   3.920   5.625  1.1730  1.3128 -0.1811
  569MOL0     H78509   4.512   3.796   5.419  1.0816 -1.9531  1.0550
  569MOL0     H78510   4.869   3.520   5.374 -0.2567 -3.3322 -0.5404
  569MOL0     H78511   4.736   3.463   5.461 -0.6176 -0.6855 -0.3080
  569MOL0     H78512   4.623   3.396   5.250  0.6140 -2.9919  2.0126
  569MOL0     H78513   4.770   3.314   5.245 -4.4064 -1.5727  2.2716
  569MOL0     H78514   4.871   3.491   5.110 -0.5727 -1.8948 -4.2335
  569MOL0     H78515   4.746   3.416   5.038  0.3883  3.6739 -2.8551
  569MOL0     H78516   4.725   3.724   5.120 -4.3479  1.3798 -0.9845
  569MOL0     H78517   4.591   3.622   5.082 -1.2021 -0.4965  0.1029
  569MOL0     H78518   4.817   3.647   4.734 -1.5555  1.2131 -0.7040
  569MOL0     H78519   4.872   3.650   5.578 -0.2744  3.0270 -3.3596
  569MOL0     H78520   4.827   3.699   5.917 -1.3446  2.3561  0.5598
  569MOL0     H78521   4.949   3.680   5.791 -1.4921 -1.3335 -3.0520
  569MOL0     H78522   4.903   3.848   5.842 -3.1890  1.5729 -5.1615
  570MOL0     O78523   6.337   2.998   0.960  0.7065 -0.2488  0.6748
  570MOL0     C78524   6.351   3.037   1.077 -0.7678  0.4694  0.4622
  570MOL0     O78525   6.259   3.103   1.143 -0.8154 -0.1996 -0.3870
  570MOL0     C78526   6.129   3.096   1.112 -0.2080 -0.4687 -0.5951
  570MOL0     C78527   6.051   3.204   1.151 -0.6536  1.0973  0.2711
  570MOL0     C78528   5.918   3.202   1.123 -0.2056 -0.1491  0.1809
  570MOL0     C78529   5.851   3.095   1.052  0.2952  0.2529  0.1198
  570MOL0     O78530   5.718   3.102   1.036 -0.3022 -0.6393 -0.3408
  570MOL0     C78531   5.677   3.208   0.951  0.4475 -0.5676 -0.9422
  570MOL0     C78532   5.659   3.157   0.807  0.2914  1.0097 -0.2798
  570MOL0     C78533   5.575   3.258   0.731  0.5807 -0.3908 -0.0842
  570MOL0     C78534   5.492   3.189   0.618 -0.7391  0.2624 -0.2946
  570MOL0     C78535   5.375   3.277   0.549  0.2393  0.3202  0.4102
  570MOL0     C78536   5.379   3.265   0.400 -0.0884 -0.8715  0.5200
  570MOL0     C78537   5.306   3.374   0.317  0.4391  0.6190 -0.3521
  570MOL0     C78538   5.303   3.353   0.167 -0.5551  0.0960 -0.3810
  570MOL0     N78539   5.262   3.219   0.117  0.6757 -0.1353 -0.3432
  570MOL0     C78540   5.143   3.147   0.132  1.0533  0.0704 -0.2689
  570MOL0     C78541   5.174   3.033   0.063 -0.5354 -0.6644  0.5326
  570MOL0     C78542   5.078   2.931   0.037  0.0371 -0.5915 -0.4297
  570MOL0     C78543   5.063   2.849   0.167  0.2852  0.7101  0.6894
  570MOL0     C78544   5.051   2.697   0.139 -0.1003  0.2512 -0.5306
  570MOL0     C78545   4.998   2.620   0.258  0.4760 -0.4273 -1.2671
  570MOL0     O78546   4.857   2.650   0.267  0.3914  0.3122 -0.1661
  570MOL0     C78547   4.788   2.564   0.349  0.5118 -0.8518  0.7709
  570MOL0     C78548   4.673   2.500   0.299  0.1013  0.3737 -0.2722
  570MOL0     C78549   4.600   2.409   0.381  0.3081 -0.6681  0.5209
  570MOL0     C78550   4.498   2.335   0.310 -0.5796  0.3427  0.6496
  570MOL0     C78551   4.635   2.398   0.518 -0.0103 -0.0655 -0.4142
  570MOL0     C78552   4.571   2.298   0.622 -0.0624 -0.2381 -0.7767
  570MOL0     O78553   4.609   2.314   0.757 -1.0498 -0.4845 -0.3900
  570MOL0     C78554   4.544   2.235   0.848  0.5462  0.1587  0.4069
  570MOL0     C78555   4.436   2.286   0.914 -0.4320  0.2714  0.4462
  570MOL0     C78556   4.374   2.196   0.994 -0.2333  0.3737 -0.1439
  570MOL0     C78557   4.402   2.057   0.998  2.1040  0.1531  0.7825
  570MOL0     O78558   4.338   1.966   1.083 -1.0211  0.2041 -0.1538
  570MOL0     C78559   4.197   1.952   1.081  1.0731  0.9382  0.1073
  570MOL0     C78560   4.157   1.850   0.973 -0.7820  0.0670 -0.1577
  570MOL0     C78561   4.048   1.908   0.871 -0.4616  0.2989 -0.3261
  570MOL0     C78562   4.117   1.917   0.737  0.3740 -0.0866 -0.1793
  570MOL0     C78563   4.033   1.975   0.627  0.3001  0.4912  0.1371
  570MOL0     C78564   4.104   1.994   0.489  0.1550 -0.2326  0.0085
  570MOL0     C78565   4.013   2.058   0.398  0.1782  0.3400  0.1973
  570MOL0     C78566   4.088   2.097   0.270  0.3575 -0.4969  0.5143
  570MOL0    Cl78567   4.003   2.059   0.120  0.1035  0.0182  0.4272
  570MOL0     C78568   4.507   2.006   0.920  0.0774 -0.1608  0.5915
  570MOL0     C78569   4.581   2.097   0.850  0.5499 -0.7575 -0.8199
  570MOL0     O78570   4.485   2.222   0.586 -0.7419  0.4989 -0.2978
  570MOL0     C78571   4.731   2.493   0.563 -0.1751  0.4147 -0.7191
  570MOL0     C78572   4.806   2.574   0.478  0.6431 -0.5425 -0.4408
  570MOL0     N78573   5.301   3.039  -0.006  0.7600  1.3927  0.1248
  570MOL0     N78574   5.341   3.146   0.041  0.1711  0.2331 -0.0702
  570MOL0     C78575   5.922   2.978   1.017 -0.1461 -0.3231  0.3988
  570MOL0     C78576   6.064   2.988   1.037 -0.4046  0.1115  1.3904
  570MOL0     C78577   6.494   3.000   1.124 -0.3095 -0.0664 -0.0200
  570MOL0     C78578   6.596   3.063   1.040  0.0042 -0.6949  1.0014
  570MOL0     C78579   6.729   3.060   1.073 -0.5481 -0.1447 -0.0912
  570MOL0     C78580   6.770   2.991   1.183  0.4591  0.6745  0.5626
  570MOL0     O78581   6.898   2.964   1.204  0.0104  0.1175 -0.6281
  570MOL0     C78582   6.955   2.841   1.142  0.4456 -0.4375 -0.5708
  570MOL0     C78583   6.987   2.865   0.995 -0.4514 -0.1012 -0.6883
  570MOL0     C78584   7.133   2.925   0.978 -0.6952  0.5312  0.0370
  570MOL0     C78585   7.171   2.955   0.839  0.1917 -0.2293  0.2471
  570MOL0     C78586   7.085   3.045   0.765  0.1948 -0.7225 -0.5700
  570MOL0     C78587   7.009   3.129   0.722  0.1037 -0.0915 -0.8107
  570MOL0     C78588   6.676   2.937   1.277  0.6153  0.0835  0.3140
  570MOL0     C78589   6.538   2.935   1.251  0.9170 -0.4406  0.2037
  570MOL0     C78590   6.431   2.878   1.346  0.1100 -0.0413  0.4840
  570MOL0     H78591   6.085   3.293   1.204 -1.0251  1.3890  0.0288
  570MOL0     H78592   5.857   3.284   1.161  0.3181  1.6198 -2.5008
  570MOL0     H78593   5.736   3.300   0.960 -0.8272  0.1464  0.7962
  570MOL0     H78594   5.580   3.246   0.985  1.2882 -0.9973  2.1814
  570MOL0     H78595   5.756   3.154   0.756  0.2376  2.9403 -0.5889
  570MOL0     H78596   5.602   3.064   0.805 -4.1293  3.2458  3.6526
  570MOL0     H78597   5.515   3.322   0.797  2.2739  3.6806 -2.1324
  570MOL0     H78598   5.648   3.327   0.689  0.3602  0.4046  0.7827
  570MOL0     H78599   5.555   3.153   0.535  1.9408 -2.3795  2.6420
  570MOL0     H78600   5.442   3.098   0.652  0.0911  0.2286  0.8911
  570MOL0     H78601   5.386   3.382   0.576 -2.3854  0.9466 -0.6574
  570MOL0     H78602   5.279   3.255   0.597  0.8871  2.1292  2.7095
  570MOL0     H78603   5.485   3.259   0.374  0.2991  0.6036  1.6354
  570MOL0     H78604   5.331   3.167   0.387  0.1639 -0.7445 -1.7227
  570MOL0     H78605   5.352   3.472   0.330  1.3444  0.1832 -0.1662
  570MOL0     H78606   5.200   3.386   0.341  0.3192 -2.2275  0.9288
  570MOL0     H78607   5.261   3.438   0.111  1.5447  0.2838 -1.7805
  570MOL0     H78608   5.407   3.362   0.133  0.4254 -1.2317  2.0126
  570MOL0     H78609   5.054   3.169   0.190 -0.5923 -1.8255 -1.9350
  570MOL0     H78610   5.103   2.864  -0.045 -2.5696  0.4979 -2.2418
  570MOL0     H78611   4.979   2.973   0.016  0.4283  0.2876 -0.5436
  570MOL0     H78612   5.144   2.873   0.237  0.8192 -1.1093  0.7458
  570MOL0     H78613   4.966   2.885   0.202 -0.0624  1.3845 -0.8735
  570MOL0     H78614   4.986   2.683   0.052 -0.4552  0.3984 -0.2919
  570MOL0     H78615   5.149   2.655   0.115 -1.3951 -2.5174 -1.3793
  570MOL0     H78616   5.022   2.514   0.247  0.6712 -0.8426  1.9494
  570MOL0     H78617   5.046   2.646   0.353 -0.2837 -0.0900 -0.9663
  570MOL0     H78618   4.650   2.514   0.194 -1.0214 -2.4358 -0.4901
  570MOL0     H78619   4.399   2.347   0.357 -1.3172 -2.1869 -0.1147
  570MOL0     H78620   4.525   2.230   0.311 -1.5130  0.0022 -1.8333
  570MOL0     H78621   4.486   2.366   0.205  0.3108  0.2205  0.5070
  570MOL0     H78622   4.408   2.391   0.906 -3.1956 -0.1865  2.3454
  570MOL0     H78623   4.298   2.228   1.065 -0.9432 -3.2297  0.9289
  570MOL0     H78624   4.166   1.921   1.182 -2.3660  1.2259 -0.7245
  570MOL0     H78625   4.153   2.051   1.072 -0.7441  0.0995 -0.6549
  570MOL0     H78626   4.245   1.809   0.923 -0.1980 -0.5014  1.3029
  570MOL0     H78627   4.107   1.768   1.026 -0.4889 -0.1268 -0.1826
  570MOL0     H78628   4.013   2.007   0.904  1.3873  0.7018  0.5304
  570MOL0     H78629   3.961   1.841   0.868  0.1043 -0.4084 -2.4196
  570MOL0     H78630   4.141   1.817   0.700  0.3880 -0.8772  1.8683
  570MOL0     H78631   4.209   1.975   0.751  1.8109 -2.4284  0.6726
  570MOL0     H78632   3.940   1.917   0.629  0.5243 -0.4008 -4.2431
  570MOL0     H78633   4.018   2.074   0.670  0.5899  0.2307  0.8509
  570MOL0     H78634   4.130   1.897   0.446 -5.0766 -2.0947  0.2938
  570MOL0     H78635   4.193   2.056   0.501 -0.3628  0.0947  3.1292
  570MOL0     H78636   3.967   2.141   0.452  0.2106  0.5492 -0.0891
  570MOL0     H78637   3.934   1.989   0.369 -1.6519  1.0745  3.1375
  570MOL0     H78638   4.185   2.048   0.257 -0.7673 -2.7316 -0.0272
  570MOL0     H78639   4.122   2.201   0.270 -0.9944 -0.0303 -0.4358
  570MOL0     H78640   4.535   1.901   0.923 -1.4192 -0.6215 -0.3087
  570MOL0     H78641   4.662   2.054   0.792 -0.6353 -2.3380 -1.3994
  570MOL0     H78642   4.756   2.490   0.668 -3.0078 -0.7377  0.0065
  570MOL0     H78643   4.868   2.651   0.523 -1.0075  0.5617  0.0406
  570MOL0     H78644   5.864   2.907   0.958 -3.9601  3.0230 -0.3686
  570MOL0     H78645   6.129   2.906   1.007 -0.9702 -0.7484  2.4580
  570MOL0     H78646   6.561   3.112   0.950  4.1322  2.6480  0.9349
  570MOL0     H78647   6.797   3.098   0.997 -0.1030 -0.9827 -0.1321
  570MOL0     H78648   7.042   2.809   1.199  0.9972 -0.1245 -1.2252
  570MOL0     H78649   6.885   2.758   1.153  1.0495 -0.7095  1.6299
  570MOL0     H78650   6.920   2.933   0.942  1.6668  1.4580 -1.5208
  570MOL0     H78651   6.988   2.778   0.930  0.9754 -0.1761 -0.6084
  570MOL0     H78652   7.144   3.023   1.024 -1.9832  0.8531 -0.2958
  570MOL0     H78653   7.201   2.852   1.023 -0.3891  0.3619 -0.6889
  570MOL0     H78654   7.177   2.857   0.789 -1.6816 -1.6638  2.5960
  570MOL0     H78655   7.272   2.995   0.848 -0.1706  0.6005  0.6404
  570MOL0     H78656   6.959   3.212   0.675  1.5062 -0.0552 -2.3319
  570MOL0     H78657   6.709   2.889   1.368 -0.2506 -2.8760 -0.8337
  570MOL0     H78658   6.352   2.951   1.362  0.5871  0.4742  0.5214
  570MOL0     H78659   6.383   2.792   1.298  1.6407 -0.5084 -0.3106
  570MOL0     H78660   6.471   2.838   1.439  0.7050 -0.8227 -0.0829
  571MOL0     O78661   3.124   6.896   7.221 -0.1537 -0.1854  0.0452
  571MOL0     C78662   3.091   7.012   7.256 -0.2010  0.2173 -0.6063
  571MOL0     O78663   3.143   7.128   7.223 -0.1039  0.4337  0.0366
  571MOL0     C78664   3.231   7.128   7.119 -0.5049 -0.5651 -0.4535
  571MOL0     C78665   3.368   7.160   7.120 -0.3868  0.3077 -0.9921
  571MOL0     C78666   3.444   7.141   7.003  0.3252  0.8578  0.0689
  571MOL0     C78667   3.389   7.094   6.883 -0.5669  0.6303 -0.6523
  571MOL0     O78668   3.460   7.104   6.764 -0.5298  0.6029  0.2305
  571MOL0     C78669   3.599   7.086   6.771 -0.6148  0.4781  0.4761
  571MOL0     C78670   3.641   7.086   6.626  0.4018  0.3133 -0.5309
  571MOL0     C78671   3.780   7.015   6.620  1.0804 -0.2597 -0.3259
  571MOL0     C78672   3.855   7.034   6.493 -0.0930 -0.4350  0.0050
  571MOL0     C78673   3.989   6.953   6.480 -0.3597 -0.4940 -0.4718
  571MOL0     C78674   4.043   6.963   6.328 -1.0654 -0.6173 -0.8961
  571MOL0     C78675   3.972   6.869   6.243 -0.3755 -0.3816  1.0973
  571MOL0     C78676   4.057   6.864   6.109  0.1499 -1.1468  0.0890
  571MOL0     N78677   4.112   6.989   6.056 -0.0599  0.1088  0.0245
  571MOL0     C78678   4.229   7.003   5.981 -0.4343  0.0699 -0.4611
  571MOL0     C78679   4.225   7.122   5.925  0.8443  0.2587  0.0643
  571MOL0     C78680   4.323   7.178   5.824  0.9849 -0.6491  0.6596
  571MOL0     C78681   4.289   7.312   5.754 -0.3471  0.6549  0.2313
  571MOL0     C78682   4.296   7.435   5.855 -0.6972  0.2773  1.1912
  571MOL0     C78683   4.242   7.560   5.797 -0.2743 -0.2638 -0.2393
  571MOL0     O78684   4.282   7.684   5.861  0.1835  0.4981 -0.5099
  571MOL0     C78685   4.259   7.797   5.787  0.7796 -0.1158 -0.4608
  571MOL0     C78686   4.201   7.804   5.658 -0.3421 -0.4418  0.4269
  571MOL0     C78687   4.203   7.925   5.584  1.0195 -0.1198  1.3540
  571MOL0     C78688   4.133   7.926   5.447 -0.2130  0.3111  0.4666
  571MOL0     C78689   4.258   8.045   5.639 -0.0595  0.0116  0.0578
  571MOL0     C78690   4.248   8.184   5.585  0.5774 -0.1005  0.7946
  571MOL0     O78691   4.331   8.272   5.646  0.3814 -1.0036  0.3451
  571MOL0     C78692   4.333   8.406   5.607 -0.4979 -0.9675  0.0360
  571MOL0     C78693   4.238   8.484   5.544  0.0854  0.1339  0.8633
  571MOL0     C78694   4.284   8.608   5.504 -0.5735 -1.4408  0.5030
  571MOL0     C78695   4.399   8.680   5.539  0.4753 -0.1838  0.5221
  571MOL0     O78696   4.386   8.811   5.492  0.5236 -0.0297 -0.3089
  571MOL0     C78697   4.499   8.888   5.497 -1.2468 -0.5630 -0.4001
  571MOL0     C78698   4.546   8.937   5.641 -0.1542  0.1226 -0.2932
  571MOL0     C78699   4.654   9.048   5.628  0.2465  0.5288 -0.9115
  571MOL0     C78700   4.601   9.182   5.568  0.4444 -0.2819 -1.3207
  571MOL0     C78701   4.704   9.303   5.586 -0.0586  0.8923 -0.6346
  571MOL0     C78702   4.682   9.422   5.500 -0.3019 -1.3082  0.0217
  571MOL0     C78703   4.554   9.503   5.524  0.1152 -0.0998  1.0755
  571MOL0     C78704   4.591   9.645   5.572  0.6719  0.7466 -0.7851
  571MOL0    Cl78705   4.630   9.632   5.745  0.1236 -0.0452  0.1790
  571MOL0     C78706   4.495   8.604   5.606 -0.0793 -0.4854 -0.3356
  571MOL0     C78707   4.457   8.474   5.650 -0.5922 -0.3226  0.4924
  571MOL0     O78708   4.170   8.205   5.485 -0.3001  0.5751 -0.4788
  571MOL0     C78709   4.312   8.034   5.769  0.4767 -0.2901  1.0003
  571MOL0     C78710   4.320   7.910   5.837 -0.6343 -0.0961  0.6446
  571MOL0     N78711   4.101   7.177   5.953 -0.2168  0.4562  0.1966
  571MOL0     N78712   4.039   7.092   6.019  0.4884 -1.1241  1.0469
  571MOL0     C78713   3.247   7.059   6.885  0.9341  0.3849 -0.3811
  571MOL0     C78714   3.175   7.072   7.003  0.1592  0.0797 -0.8820
  571MOL0     C78715   3.012   7.023   7.379  0.5034  0.6162  0.5213
  571MOL0     C78716   2.971   7.150   7.431  1.3454 -0.4456  0.7446
  571MOL0     C78717   2.877   7.162   7.538  0.1630 -0.2120 -0.4431
  571MOL0     C78718   2.825   7.052   7.608 -0.5965  0.5392 -0.3601
  571MOL0     O78719   2.735   7.043   7.706 -0.0042 -0.7351  0.3333
  571MOL0     C78720   2.751   7.108   7.831 -1.4601  0.1428  0.7281
  571MOL0     C78721   2.656   7.026   7.915  0.9963  0.1738 -0.0723
  571MOL0     C78722   2.621   7.078   8.063 -0.2193 -0.2997 -0.0518
  571MOL0     C78723   2.491   7.017   8.116  0.7487  0.5909 -0.1828
  571MOL0     C78724   2.489   6.963   8.251  0.0152 -0.5365  0.1824
  571MOL0     C78725   2.499   6.918   8.365  0.7178 -0.5740  0.4108
  571MOL0     C78726   2.863   6.930   7.551 -0.5839  1.1083  0.2926
  571MOL0     C78727   2.950   6.912   7.441 -1.1893  0.2732 -0.8540
  571MOL0     C78728   2.972   6.758   7.410  0.6846  0.4209  0.8047
  571MOL0     H78729   3.411   7.212   7.205  1.2169  0.4748 -1.8587
  571MOL0     H78730   3.542   7.186   6.990  1.8819 -2.6910 -1.7394
  571MOL0     H78731   3.619   6.987   6.812  0.8315 -0.4737 -2.2431
  571MOL0     H78732   3.657   7.165   6.819  2.1998 -2.7658  2.8568
  571MOL0     H78733   3.567   7.029   6.569 -1.9984 -1.1910  3.6740
  571MOL0     H78734   3.650   7.189   6.590  0.0704 -0.0536 -1.7001
  571MOL0     H78735   3.842   7.071   6.691 -3.7732  2.5935  2.2478
  571MOL0     H78736   3.777   6.909   6.648  0.3326 -0.5960 -1.6434
  571MOL0     H78737   3.794   7.009   6.406  4.2793 -0.7768 -3.3698
  571MOL0     H78738   3.877   7.141   6.485 -0.6606 -0.3619 -0.6011
  571MOL0     H78739   3.986   6.852   6.523  4.0793 -1.5184 -2.0231
  571MOL0     H78740   4.058   7.000   6.550 -2.3650  1.4728  0.3076
  571MOL0     H78741   4.034   7.066   6.293  2.3868 -0.4371 -1.6978
  571MOL0     H78742   4.152   6.951   6.330 -0.8558  1.1611 -0.0081
  571MOL0     H78743   3.868   6.902   6.233 -1.0795 -2.3841  1.3342
  571MOL0     H78744   3.980   6.769   6.287  1.3816 -1.1400 -0.8037
  571MOL0     H78745   4.145   6.807   6.139  1.2874  0.0365 -0.8851
  571MOL0     H78746   3.996   6.814   6.034  0.9675 -3.3058  0.7832
  571MOL0     H78747   4.316   6.941   5.962  0.2042  1.4573 -2.4966
  571MOL0     H78748   4.312   7.102   5.746 -4.4279 -1.4746  1.7771
  571MOL0     H78749   4.423   7.186   5.867  0.5909  0.7251  1.3677
  571MOL0     H78750   4.337   7.328   5.657 -1.1729  1.8793  0.0111
  571MOL0     H78751   4.182   7.307   5.732 -0.4186 -1.9215  0.7972
  571MOL0     H78752   4.232   7.412   5.941 -1.9160 -1.8698 -0.2030
  571MOL0     H78753   4.399   7.452   5.888 -0.4325 -2.5750  2.1545
  571MOL0     H78754   4.285   7.564   5.696  0.6839 -0.6797  0.1358
  571MOL0     H78755   4.133   7.562   5.791 -0.3836  0.3673  1.5526
  571MOL0     H78756   4.157   7.718   5.609 -0.5303  1.0651 -2.2545
  571MOL0     H78757   4.046   7.991   5.432  0.2506  0.8924  0.2428
  571MOL0     H78758   4.104   7.825   5.419  1.7244 -0.9452  2.6910
  571MOL0     H78759   4.202   7.966   5.372 -2.3620  1.4991 -0.9968
  571MOL0     H78760   4.144   8.449   5.502 -0.3659  3.6951 -1.4624
  571MOL0     H78761   4.209   8.639   5.432 -0.6942 -4.0488 -0.6303
  571MOL0     H78762   4.579   8.832   5.448 -0.8633  0.0982 -0.5390
  571MOL0     H78763   4.485   8.983   5.446 -0.2435  1.5384  2.9546
  571MOL0     H78764   4.464   8.974   5.703  1.8888  3.1842  0.8550
  571MOL0     H78765   4.580   8.845   5.690  0.0157 -0.6519 -1.8193
  571MOL0     H78766   4.743   9.009   5.579 -0.2935  0.8264 -2.1597
  571MOL0     H78767   4.692   9.088   5.723  0.8738  3.3294 -2.2273
  571MOL0     H78768   4.513   9.208   5.627  1.8061 -1.6409  1.5244
  571MOL0     H78769   4.572   9.177   5.463  2.2773  1.7958 -2.0027
  571MOL0     H78770   4.707   9.342   5.689  2.8618  0.0775 -0.3236
  571MOL0     H78771   4.796   9.251   5.561 -1.4566 -0.6893 -2.8597
  571MOL0     H78772   4.690   9.390   5.396 -1.3903 -0.4515 -0.3438
  571MOL0     H78773   4.762   9.495   5.521 -0.1090 -1.9505  1.6410
  571MOL0     H78774   4.498   9.440   5.593  0.6640 -2.1354 -0.2746
  571MOL0     H78775   4.511   9.513   5.423  0.4045  5.0363  1.1878
  571MOL0     H78776   4.500   9.706   5.559  1.8958  3.1847  1.2063
  571MOL0     H78777   4.669   9.683   5.505  1.0498  1.3263 -0.0404
  571MOL0     H78778   4.581   8.647   5.656  1.0595 -2.8353 -0.1506
  571MOL0     H78779   4.534   8.420   5.704  1.1365  2.5588  1.1122
  571MOL0     H78780   4.355   8.118   5.823 -3.2996  1.9507  0.9079
  571MOL0     H78781   4.384   7.895   5.923  1.0018  0.0075 -0.5179
  571MOL0     H78782   3.213   7.013   6.793  2.7792 -3.4339  0.6039
  571MOL0     H78783   3.072   7.038   6.997  0.5807 -1.6341  0.6571
  571MOL0     H78784   3.003   7.245   7.390 -0.8829 -0.4126 -1.1750
  571MOL0     H78785   2.839   7.262   7.558  0.0890 -0.3813  0.2785
  571MOL0     H78786   2.853   7.116   7.870 -0.7509 -0.5500 -0.9023
  571MOL0     H78787   2.724   7.214   7.823 -1.6847 -0.0405 -2.4129
  571MOL0     H78788   2.693   6.923   7.917 -1.7879 -0.9129  0.6207
  571MOL0     H78789   2.561   7.030   7.862  2.4898 -0.0166 -2.9140
  571MOL0     H78790   2.703   7.053   8.131  0.3892  3.6102  0.9018
  571MOL0     H78791   2.624   7.187   8.054 -0.2581 -0.4687 -3.6138
  571MOL0     H78792   2.474   6.932   8.050  0.0896  1.0809 -0.6633
  571MOL0     H78793   2.410   7.090   8.109  1.6886  2.2503  3.6580
  571MOL0     H78794   2.502   6.858   8.454 -0.6702 -0.7350  0.3742
  571MOL0     H78795   2.814   6.840   7.586 -1.8667  0.9305 -1.7721
  571MOL0     H78796   3.079   6.739   7.399 -0.0525 -2.8666 -4.2642
  571MOL0     H78797   2.929   6.678   7.471  1.5175 -0.9148 -0.2805
  571MOL0     H78798   2.946   6.749   7.304  2.6798  3.8242 -0.1291
  572MOL0     O78799   2.223   7.858   4.726 -0.0890 -0.4412 -0.4532
  572MOL0     C78800   2.113   7.891   4.684  0.3699  0.0235  0.3026
  572MOL0     O78801   2.088   7.900   4.550  0.3531 -0.0319 -0.6407
  572MOL0     C78802   2.185   7.866   4.461  0.4414  1.0505 -0.8177
  572MOL0     C78803   2.267   7.969   4.412  1.4287  0.0350 -0.2750
  572MOL0     C78804   2.371   7.934   4.330 -0.3535  0.5392  0.2829
  572MOL0     C78805   2.386   7.801   4.279  0.3523 -0.5118  0.0495
  572MOL0     O78806   2.504   7.779   4.208 -0.3430 -0.4580  0.2546
  572MOL0     C78807   2.572   7.649   4.224 -0.6600  0.3054 -0.0495
  572MOL0     C78808   2.695   7.655   4.131 -0.2327  0.4493  1.0214
  572MOL0     C78809   2.644   7.617   3.993  0.5587  0.3444 -0.5920
  572MOL0     C78810   2.743   7.665   3.889 -0.3984  0.6173 -0.2532
  572MOL0     C78811   2.883   7.592   3.903  0.0527  0.3854 -0.1525
  572MOL0     C78812   2.930   7.550   3.763 -0.3310  0.0975 -0.6632
  572MOL0     C78813   3.062   7.479   3.764  0.1315  0.7215  0.2904
  572MOL0     C78814   3.175   7.590   3.777 -1.1658  0.2948  0.9336
  572MOL0     N78815   3.204   7.648   3.643 -0.5318  0.0326 -0.2137
  572MOL0     C78816   3.183   7.778   3.609 -0.5075  0.6168  0.3038
  572MOL0     C78817   3.253   7.803   3.493 -0.4994  0.9404 -0.6324
  572MOL0     C78818   3.255   7.924   3.399  0.2383 -0.6261  0.1877
  572MOL0     C78819   3.343   8.030   3.466  0.2188  0.6812 -0.0703
  572MOL0     C78820   3.487   7.977   3.489 -0.9583 -0.8441 -0.2663
  572MOL0     C78821   3.562   7.970   3.356 -0.0283 -0.3845 -0.8677
  572MOL0     O78822   3.555   8.070   3.258 -0.2056 -0.7973  0.1154
  572MOL0     C78823   3.589   8.197   3.288  0.0887  0.4750 -0.0953
  572MOL0     C78824   3.541   8.308   3.212 -0.8953 -0.1056 -0.2238
  572MOL0     C78825   3.587   8.436   3.234  0.0936  0.3590 -0.1861
  572MOL0     C78826   3.516   8.545   3.151  1.1169  0.8299 -0.5974
  572MOL0     C78827   3.661   8.459   3.355 -0.2207 -0.9119  1.5776
  572MOL0     C78828   3.690   8.594   3.415 -0.7474  1.0687 -0.4858
  572MOL0     O78829   3.801   8.606   3.489 -0.0770 -1.4633  0.1412
  572MOL0     C78830   3.820   8.726   3.547 -0.2543 -0.7430  0.9011
  572MOL0     C78831   3.750   8.781   3.656  0.1117 -0.2263  0.1778
  572MOL0     C78832   3.777   8.908   3.715  1.0246  0.6478  0.6718
  572MOL0     C78833   3.883   8.985   3.664 -0.5087  0.0542 -0.6770
  572MOL0     O78834   3.920   9.102   3.723  0.7078 -0.0444  0.0030
  572MOL0     C78835   4.012   9.185   3.655  0.5098 -0.7580 -0.0868
  572MOL0     C78836   4.008   9.324   3.707  0.8206  0.1366 -0.6286
  572MOL0     C78837   4.095   9.424   3.622 -0.9173  0.2358 -0.0423
  572MOL0     C78838   4.020   9.501   3.521  0.4206  0.7293  0.3132
  572MOL0     C78839   3.946   9.635   3.570 -0.1929  0.8327 -0.3076
  572MOL0     C78840   3.859   9.684   3.463 -0.7676  0.4729 -0.3949
  572MOL0     C78841   3.785   9.817   3.480 -1.0700  0.7109 -0.5857
  572MOL0     C78842   3.657   9.797   3.564 -0.3054  0.4814  1.0185
  572MOL0    Cl78843   3.688   9.786   3.730 -0.2573 -0.0218  0.0092
  572MOL0     C78844   3.948   8.937   3.548  0.4339  0.9004 -1.0676
  572MOL0     C78845   3.927   8.804   3.504 -0.0900  0.5123  0.6163
  572MOL0     O78846   3.601   8.679   3.399 -0.0219  0.1372 -0.8895
  572MOL0     C78847   3.710   8.352   3.432  0.4490  0.5603  1.1133
  572MOL0     C78848   3.681   8.218   3.398 -0.5304 -0.2387  0.1578
  572MOL0     N78849   3.340   7.685   3.480  0.6492  0.4661 -0.2327
  572MOL0     N78850   3.310   7.599   3.574 -0.0334 -0.0824 -0.4745
  572MOL0     C78851   2.288   7.709   4.319  0.0434  0.4579 -0.1448
  572MOL0     C78852   2.200   7.730   4.421 -0.5840 -0.0253 -0.4976
  572MOL0     C78853   2.008   7.931   4.772 -0.5482  0.0675  0.4450
  572MOL0     C78854   2.050   7.979   4.893  0.8496 -0.0315  0.6017
  572MOL0     C78855   1.964   8.022   4.989 -0.3513 -0.1973  0.5056
  572MOL0     C78856   1.824   8.015   4.968  0.3079  0.5603 -0.2802
  572MOL0     O78857   1.735   8.066   5.058 -0.3365 -0.9121 -0.2410
  572MOL0     C78858   1.771   8.085   5.198  0.1332 -0.1416  0.6089
  572MOL0     C78859   1.643   8.089   5.288  0.3645  0.7080 -0.0016
  572MOL0     C78860   1.658   8.064   5.432 -0.1311  0.6827  0.0230
  572MOL0     C78861   1.689   8.183   5.523 -0.3626 -0.8995 -0.5202
  572MOL0     C78862   1.834   8.208   5.522 -0.6660  0.2777 -1.3506
  572MOL0     C78863   1.955   8.243   5.513 -1.0046  0.7230  0.3372
  572MOL0     C78864   1.777   7.959   4.853 -0.2650  0.3715  0.6210
  572MOL0     C78865   1.867   7.916   4.755  0.9045 -0.4478 -0.5943
  572MOL0     C78866   1.798   7.848   4.641 -0.0135  0.5746 -0.7464
  572MOL0     H78867   2.267   8.073   4.443  0.6403 -0.5998  2.0351
  572MOL0     H78868   2.452   8.003   4.309 -0.3297  0.3349 -0.3210
  572MOL0     H78869   2.508   7.560   4.225  1.8372 -1.6267  1.7325
  572MOL0     H78870   2.609   7.653   4.327  2.3312  0.6917 -1.0476
  572MOL0     H78871   2.727   7.760   4.130  0.6042  0.2027  0.3118
  572MOL0     H78872   2.767   7.579   4.165  0.1278 -0.6864 -1.9836
  572MOL0     H78873   2.619   7.511   3.993 -2.9227  1.0479 -0.0741
  572MOL0     H78874   2.553   7.671   3.967  0.7221  0.5083 -0.8374
  572MOL0     H78875   2.690   7.646   3.795  0.8739 -1.5965 -0.5944
  572MOL0     H78876   2.758   7.772   3.907  2.5581  0.1737  0.3428
  572MOL0     H78877   2.875   7.495   3.952 -0.6314 -0.8045 -2.4890
  572MOL0     H78878   2.954   7.661   3.950 -2.3501  2.8503  0.1179
  572MOL0     H78879   2.857   7.493   3.706  0.7298  0.5493 -2.5745
  572MOL0     H78880   2.934   7.648   3.713 -3.2559  0.1762 -0.9006
  572MOL0     H78881   3.074   7.445   3.660  2.4300  0.8712  0.4544
  572MOL0     H78882   3.067   7.401   3.840 -2.5492 -0.1055 -0.2783
  572MOL0     H78883   3.148   7.650   3.864  1.9469  1.5911  1.1284
  572MOL0     H78884   3.270   7.541   3.800 -0.7748  1.2439  1.3959
  572MOL0     H78885   3.108   7.840   3.658 -1.8009 -1.0815  0.5415
  572MOL0     H78886   3.152   7.959   3.382  0.1863  0.4908  2.3889
  572MOL0     H78887   3.290   7.896   3.300 -0.9754 -1.4507 -0.0400
  572MOL0     H78888   3.332   8.125   3.413  0.1129  0.3446 -0.6643
  572MOL0     H78889   3.306   8.049   3.567  0.8665  2.5280 -0.1436
  572MOL0     H78890   3.534   8.044   3.561 -2.7390  0.5196 -0.3120
  572MOL0     H78891   3.510   7.880   3.533  0.9985 -1.2013 -1.8936
  572MOL0     H78892   3.665   7.947   3.386 -0.8638 -0.9511  1.8923
  572MOL0     H78893   3.523   7.879   3.309  1.1847 -1.1203 -0.5015
  572MOL0     H78894   3.483   8.291   3.122  3.0423 -2.7674 -2.5757
  572MOL0     H78895   3.471   8.512   3.057 -2.5817  1.4587  0.7831
  572MOL0     H78896   3.592   8.620   3.126 -0.0540  1.0560 -4.0023
  572MOL0     H78897   3.426   8.588   3.197 -0.7547 -0.5118 -2.7892
  572MOL0     H78898   3.679   8.720   3.711 -0.4480 -1.7826 -2.1121
  572MOL0     H78899   3.727   8.954   3.800  0.9617 -1.1231  1.6403
  572MOL0     H78900   4.115   9.147   3.660  0.0910 -1.9752 -0.3816
  572MOL0     H78901   3.981   9.183   3.550  0.3490 -1.9809 -0.0372
  572MOL0     H78902   3.906   9.361   3.715 -0.3005 -2.7633 -0.3217
  572MOL0     H78903   4.047   9.326   3.810  2.4994  0.3966 -1.2450
  572MOL0     H78904   4.167   9.360   3.569 -0.8891 -0.3492  0.6945
  572MOL0     H78905   4.142   9.495   3.690  0.5335  1.5769 -2.3174
  572MOL0     H78906   3.952   9.431   3.471  1.2104  1.6859 -2.2252
  572MOL0     H78907   4.081   9.547   3.443 -0.8749  2.7165  0.4070
  572MOL0     H78908   3.885   9.603   3.655  0.3174  2.5369  0.7445
  572MOL0     H78909   4.021   9.708   3.601 -0.0972  1.5729 -2.1557
  572MOL0     H78910   3.784   9.605   3.448  0.3107 -0.8316  0.8413
  572MOL0     H78911   3.918   9.686   3.371 -1.2210 -1.9859 -0.8073
  572MOL0     H78912   3.757   9.871   3.389  0.5987  0.0455 -1.5224
  572MOL0     H78913   3.856   9.891   3.520 -0.2610 -0.8958  1.1119
  572MOL0     H78914   3.611   9.706   3.523  2.9799 -0.3555 -1.2521
  572MOL0     H78915   3.585   9.878   3.547 -0.9877 -0.3725 -0.4025
  572MOL0     H78916   4.042   8.981   3.514  1.3683  1.2743  1.6961
  572MOL0     H78917   3.992   8.766   3.427 -0.9929  0.1064  0.0351
  572MOL0     H78918   3.760   8.357   3.528  2.0193 -1.4665  0.4599
  572MOL0     H78919   3.721   8.133   3.452 -0.9151 -1.7057 -1.7341
  572MOL0     H78920   2.275   7.607   4.282 -0.3733  0.6736 -0.6035
  572MOL0     H78921   2.131   7.651   4.446  0.6202 -1.8956 -2.7012
  572MOL0     H78922   2.154   8.001   4.915 -0.0138  0.2040  5.4757
  572MOL0     H78923   1.996   8.081   5.075 -2.4390 -0.2283  1.3518
  572MOL0     H78924   1.829   7.996   5.225  2.2713  0.9564 -0.0736
  572MOL0     H78925   1.845   8.166   5.209  0.5227  0.2613 -3.3656
  572MOL0     H78926   1.583   8.002   5.261  0.9661  0.3766 -0.2964
  572MOL0     H78927   1.579   8.177   5.275 -3.7306 -1.9997  0.1392
  572MOL0     H78928   1.573   8.013   5.477 -0.0046  2.3309  2.3527
  572MOL0     H78929   1.743   7.998   5.450  0.0647  1.4673  2.3660
  572MOL0     H78930   1.656   8.155   5.624 -1.7775  0.8176 -0.4529
  572MOL0     H78931   1.636   8.275   5.497  1.4780  0.8428  1.4587
  572MOL0     H78932   2.053   8.280   5.492 -0.2572 -2.1561 -1.7806
  572MOL0     H78933   1.675   7.937   4.822 -0.0760 -2.4800  1.6719
  572MOL0     H78934   1.732   7.918   4.590  1.2878  3.0270  0.7453
  572MOL0     H78935   1.872   7.816   4.566  1.9814 -0.4116  1.5168
  572MOL0     H78936   1.740   7.759   4.667 -1.7556  0.2642 -4.9072
  573MOL0     O78937  10.547   9.061   2.300  0.6434  0.4269  0.2646
  573MOL0     C78938  10.512   9.120   2.402  0.6957 -0.6852 -0.5717
  573MOL0     O78939  10.591   9.217   2.461 -0.4982  0.1249 -0.2154
  573MOL0     C78940  10.714   9.236   2.408 -0.7545 -0.4369  0.0968
  573MOL0     C78941  10.738   9.335   2.310 -0.0527 -0.1724  0.0095
  573MOL0     C78942  10.869   9.358   2.265  0.1125  0.2780  0.1676
  573MOL0     C78943  10.975   9.276   2.309  0.6511 -0.4006 -0.3763
  573MOL0     O78944  11.091   9.319   2.261 -0.2570  0.0524 -0.1688
  573MOL0     C78945  11.212   9.242   2.299 -0.6348  1.5410  0.1406
  573MOL0     C78946  11.335   9.329   2.249  0.6535  0.3154 -0.6448
  573MOL0     C78947  11.463   9.250   2.224  0.0682  0.2089  0.1592
  573MOL0     C78948  11.570   9.332   2.150 -0.0911  0.7233 -0.2288
  573MOL0     C78949  11.669   9.394   2.241 -0.5513  0.4163 -0.2845
  573MOL0     C78950  11.764   9.475   2.153 -0.3645  0.7128  0.3307
  573MOL0     C78951  11.902   9.472   2.213 -0.2577 -0.0910 -0.2770
  573MOL0     C78952  11.985   9.344   2.184  0.3512  0.0620 -0.5816
  573MOL0     N78953  12.119   9.353   2.240  0.5960 -0.2323 -0.1581
  573MOL0     C78954  12.227   9.384   2.170 -0.1139 -0.1116  0.0555
  573MOL0     C78955  12.334   9.390   2.251 -0.7594  0.8301 -1.1412
  573MOL0     C78956  12.477   9.431   2.215 -0.4088  0.5987 -0.5025
  573MOL0     C78957  12.550   9.298   2.170 -0.1114  0.2110  0.9888
  573MOL0     C78958  12.614   9.217   2.286  0.5345 -0.7456 -0.7141
  573MOL0     C78959  12.621   9.063   2.289 -0.9299 -1.1294 -0.7949
  573MOL0     O78960  12.547   9.008   2.400 -0.4525 -0.6040 -0.1367
  573MOL0     C78961  12.430   8.960   2.347  0.0193  0.2276 -0.0361
  573MOL0     C78962  12.415   8.846   2.264 -0.3816 -0.0604 -0.5140
  573MOL0     C78963  12.296   8.791   2.208  0.5840  0.3466 -0.6059
  573MOL0     C78964  12.318   8.690   2.090  0.4221 -0.4054  0.0583
  573MOL0     C78965  12.175   8.847   2.251  0.5628  0.5066 -0.4804
  573MOL0     C78966  12.040   8.819   2.189  1.0984 -0.4987 -0.4298
  573MOL0     O78967  11.967   8.940   2.165  0.9448  0.0516 -0.8786
  573MOL0     C78968  11.851   8.933   2.091  0.0921 -0.7902 -0.4073
  573MOL0     C78969  11.829   9.042   2.009 -0.3907  0.0515  1.0391
  573MOL0     C78970  11.707   9.054   1.936 -0.5878 -0.5473  0.8195
  573MOL0     C78971  11.610   8.951   1.938  0.8622 -0.7823  1.1219
  573MOL0     O78972  11.493   8.972   1.862 -0.6081  0.2104 -0.3389
  573MOL0     C78973  11.374   8.913   1.913 -0.3509 -0.3977 -0.6704
  573MOL0     C78974  11.248   8.923   1.828 -0.4956 -0.2314  1.1253
  573MOL0     C78975  11.293   8.873   1.692 -0.2524 -0.9412  0.1824
  573MOL0     C78976  11.177   8.833   1.612  0.3210 -0.5740  0.6098
  573MOL0     C78977  11.213   8.810   1.463  0.5769 -0.4799 -0.4914
  573MOL0     C78978  11.289   8.695   1.429  0.5927 -0.1697  0.2506
  573MOL0     C78979  11.310   8.703   1.273  0.1020  0.6308  0.0209
  573MOL0     C78980  11.377   8.572   1.227 -0.1511  0.8416 -0.1966
  573MOL0    Cl78981  11.435   8.591   1.054 -0.3732 -0.2770 -0.0846
  573MOL0     C78982  11.632   8.842   2.019  0.8497  0.3941 -0.2122
  573MOL0     C78983  11.752   8.836   2.100  0.5737  0.4965  0.7235
  573MOL0     O78984  12.012   8.708   2.147 -0.3893  0.5407  0.3768
  573MOL0     C78985  12.189   8.967   2.337 -0.2909  0.4571  0.5598
  573MOL0     C78986  12.309   9.007   2.383  0.7089 -0.5809 -0.0372
  573MOL0     N78987  12.286   9.352   2.376  0.7494  0.9753 -0.0763
  573MOL0     N78988  12.156   9.335   2.372 -0.3438 -0.6452 -0.2842
  573MOL0     C78989  10.948   9.167   2.391  0.1209 -0.0308 -0.4251
  573MOL0     C78990  10.821   9.142   2.428  1.6518 -1.3987  0.0024
  573MOL0     C78991  10.379   9.106   2.456  0.9981 -0.8530  0.1925
  573MOL0     C78992  10.367   9.021   2.570  0.1495  0.3440  1.0232
  573MOL0     C78993  10.250   8.984   2.626 -0.2783 -1.2298  0.1885
  573MOL0     C78994  10.129   9.028   2.574  0.0167 -0.0296 -0.1390
  573MOL0     O78995  10.023   9.007   2.657  0.0534  0.5176  0.6595
  573MOL0     C78996   9.897   9.066   2.617 -1.2376  0.0770 -0.7570
  573MOL0     C78997   9.895   9.207   2.658 -0.1582 -0.0751  0.3353
  573MOL0     C78998   9.930   9.229   2.807 -0.3461  0.7808 -0.1039
  573MOL0     C78999   9.990   9.373   2.824 -0.6404 -0.0737  0.1962
  573MOL0     C79000   9.890   9.477   2.798 -0.1447  0.9006 -0.0137
  573MOL0     C79001   9.792   9.544   2.791 -0.0237 -0.0176  0.1672
  573MOL0     C79002  10.135   9.107   2.453 -0.2864 -0.6539  0.3307
  573MOL0     C79003  10.261   9.166   2.409  0.7093  0.7239  0.5174
  573MOL0     C79004  10.260   9.270   2.298  0.1314  0.1706 -0.0369
  573MOL0     H79005  10.660   9.405   2.283 -0.6669 -0.0654  1.9042
  573MOL0     H79006  10.879   9.427   2.182 -1.7076  0.1269 -0.2041
  573MOL0     H79007  11.220   9.139   2.261 -1.4574  0.9247  1.5328
  573MOL0     H79008  11.237   9.229   2.405  3.3346 -3.2225 -0.9531
  573MOL0     H79009  11.319   9.372   2.150  0.1550  0.5853 -0.4550
  573MOL0     H79010  11.358   9.415   2.314 -2.4467  1.6968 -1.1947
  573MOL0     H79011  11.514   9.213   2.314  1.2223 -1.5876 -1.1584
  573MOL0     H79012  11.447   9.160   2.165 -0.6634 -1.2683  2.4807
  573MOL0     H79013  11.618   9.271   2.073  1.4822  0.3929  0.9656
  573MOL0     H79014  11.524   9.415   2.096  0.8872  1.0055 -0.6335
  573MOL0     H79015  11.722   9.312   2.292 -1.2403  1.0155  1.4818
  573MOL0     H79016  11.626   9.455   2.321  2.4668  2.9774 -0.3954
  573MOL0     H79017  11.777   9.435   2.052  1.4469 -0.9836  1.1684
  573MOL0     H79018  11.712   9.571   2.149 -2.4228 -0.1756  2.8002
  573MOL0     H79019  11.894   9.472   2.322 -1.3331 -1.9288 -0.3177
  573MOL0     H79020  11.948   9.566   2.179  0.3868 -1.4166 -3.4255
  573MOL0     H79021  11.940   9.254   2.227  0.5550 -0.4567 -1.4252
  573MOL0     H79022  12.002   9.321   2.078 -2.0008 -2.7264 -0.4914
  573MOL0     H79023  12.228   9.418   2.067 -1.1389  1.1821  0.4442
  573MOL0     H79024  12.530   9.467   2.304 -3.5635  1.1808  1.2791
  573MOL0     H79025  12.476   9.495   2.126 -2.1133  1.1904 -0.0828
  573MOL0     H79026  12.475   9.238   2.118 -0.6853  1.0339  0.8544
  573MOL0     H79027  12.642   9.315   2.113  1.5998  0.7249  3.6761
  573MOL0     H79028  12.716   9.255   2.300  0.4585  0.1905 -2.4378
  573MOL0     H79029  12.559   9.258   2.372  0.1777  3.5095 -2.7023
  573MOL0     H79030  12.588   9.028   2.191 -0.3027 -1.2700 -0.9604
  573MOL0     H79031  12.725   9.029   2.298 -1.3569 -2.4577 -0.5658
  573MOL0     H79032  12.509   8.801   2.232 -0.1093 -0.9563  1.3817
  573MOL0     H79033  12.274   8.717   1.994  0.7945 -3.8230 -1.2132
  573MOL0     H79034  12.285   8.588   2.111  3.7069 -0.9895  3.8076
  573MOL0     H79035  12.426   8.691   2.069  0.6163 -0.2949  1.0007
  573MOL0     H79036  11.904   9.120   2.010  1.6506 -1.5242 -3.5490
  573MOL0     H79037  11.679   9.144   1.883  0.8956 -1.4370 -1.6848
  573MOL0     H79038  11.394   8.805   1.917 -0.2155 -0.4917 -2.8214
  573MOL0     H79039  11.354   8.960   2.009 -1.3340 -0.1505 -0.9911
  573MOL0     H79040  11.171   8.851   1.856 -1.8998  0.7739 -0.0080
  573MOL0     H79041  11.199   9.021   1.835 -3.2080 -1.5143  1.1123
  573MOL0     H79042  11.370   8.796   1.702  0.0611 -0.5129  1.2141
  573MOL0     H79043  11.337   8.960   1.642 -1.5276 -0.5464 -0.3007
  573MOL0     H79044  11.099   8.909   1.620  2.6537  2.3942 -1.9643
  573MOL0     H79045  11.140   8.736   1.646  3.5024 -1.8156  0.9047
  573MOL0     H79046  11.114   8.809   1.416 -0.7189  1.6748  1.9523
  573MOL0     H79047  11.259   8.904   1.430  0.8270 -0.3172  0.3027
  573MOL0     H79048  11.219   8.616   1.457 -0.4730  0.9842  0.9903
  573MOL0     H79049  11.376   8.684   1.494 -0.9617 -1.9193  2.1561
  573MOL0     H79050  11.375   8.785   1.240  1.8216 -0.7307 -0.0545
  573MOL0     H79051  11.213   8.720   1.224 -0.6874 -0.5829  1.0849
  573MOL0     H79052  11.310   8.485   1.227  1.5156 -0.5391 -1.7863
  573MOL0     H79053  11.452   8.547   1.303 -0.3085 -1.0672 -0.6157
  573MOL0     H79054  11.560   8.762   2.029  1.2835  0.0826  0.6248
  573MOL0     H79055  11.764   8.757   2.174 -0.8879 -0.8420 -0.4063
  573MOL0     H79056  12.099   9.021   2.365  0.5651  1.5308  1.3311
  573MOL0     H79057  12.302   9.098   2.442 -2.5416  1.4607 -3.1548
  573MOL0     H79058  11.028   9.098   2.415 -0.4890 -0.9825 -1.0591
  573MOL0     H79059  10.792   9.053   2.481 -0.8171  0.2016  1.5307
  573MOL0     H79060  10.465   9.000   2.612  2.4057  1.6798 -3.0611
  573MOL0     H79061  10.249   8.923   2.716  2.4152  0.7554  1.6968
  573MOL0     H79062   9.874   9.066   2.510 -0.9631  3.6860 -0.9419
  573MOL0     H79063   9.813   9.016   2.665 -1.9519  2.0451  0.1231
  573MOL0     H79064   9.796   9.248   2.637 -0.0278 -0.2100 -0.5811
  573MOL0     H79065   9.970   9.255   2.593  0.6995 -2.2110 -0.3312
  573MOL0     H79066   9.839   9.204   2.861  0.0366 -2.8018 -0.9140
  573MOL0     H79067  10.006   9.156   2.836 -1.2606 -0.1186  0.0702
  573MOL0     H79068  10.075   9.383   2.757 -1.1689 -0.7612 -0.6023
  573MOL0     H79069  10.029   9.381   2.926 -0.0892 -2.9895  0.2984
  573MOL0     H79070   9.696   9.590   2.798 -1.6136 -3.2607  2.3400
  573MOL0     H79071  10.049   9.145   2.398  0.9718  1.0717 -0.5637
  573MOL0     H79072  10.319   9.238   2.211 -1.7513 -3.0437 -0.2881
  573MOL0     H79073  10.161   9.298   2.262  0.4854 -0.4156 -1.5624
  573MOL0     H79074  10.311   9.359   2.336  4.7280 -0.3204 -4.0860
  574MOL0     O79075   5.817   6.506   0.727 -0.1803 -0.0596 -0.4112
  574MOL0     C79076   5.843   6.619   0.721  0.2026  0.8815  0.0522
  574MOL0     O79077   5.860   6.694   0.834 -0.4769 -0.4621  0.3990
  574MOL0     C79078   5.844   6.627   0.949 -0.5446  0.3275  0.0616
  574MOL0     C79079   5.919   6.515   0.991 -0.7665 -0.2485 -0.6330
  574MOL0     C79080   5.889   6.437   1.102 -0.7261 -0.2814 -0.2601
  574MOL0     C79081   5.768   6.475   1.172 -0.1847 -0.0944 -0.3206
  574MOL0     O79082   5.710   6.394   1.269  1.3075 -0.2028 -0.0579
  574MOL0     C79083   5.782   6.293   1.335 -0.3004 -0.6426 -0.6181
  574MOL0     C79084   5.735   6.281   1.481  0.1441  0.0886  0.5302
  574MOL0     C79085   5.586   6.239   1.488 -0.0537 -0.3154  0.4051
  574MOL0     C79086   5.545   6.181   1.625 -0.8547  0.4133  0.1752
  574MOL0     C79087   5.601   6.036   1.651  0.1995 -0.0499 -0.2105
  574MOL0     C79088   5.549   5.984   1.789  0.2617  0.5825 -0.7469
  574MOL0     C79089   5.581   5.830   1.805  0.0364 -0.7281 -0.2370
  574MOL0     C79090   5.725   5.781   1.815  0.9945  0.0659 -0.7113
  574MOL0     N79091   5.776   5.741   1.678  0.3509 -0.6715 -0.1515
  574MOL0     C79092   5.803   5.613   1.634  0.6172 -0.3796  0.1272
  574MOL0     C79093   5.832   5.627   1.510  0.0404 -0.0612  0.5949
  574MOL0     C79094   5.828   5.516   1.408 -0.9660  0.2213  0.5289
  574MOL0     C79095   5.878   5.570   1.262 -0.3633 -0.5278 -0.4608
  574MOL0     C79096   6.036   5.581   1.257 -0.4210 -0.0645 -0.2409
  574MOL0     C79097   6.108   5.604   1.127  0.0342  0.4157 -1.0717
  574MOL0     O79098   6.045   5.717   1.054  0.6393  0.5949  0.7417
  574MOL0     C79099   6.057   5.712   0.923 -1.0786  0.9894  0.6973
  574MOL0     C79100   5.965   5.784   0.847 -0.3220 -0.6171  0.4153
  574MOL0     C79101   5.963   5.797   0.710  0.2861 -0.4723 -0.9534
  574MOL0     C79102   5.850   5.879   0.656  0.2072 -0.2688  0.6508
  574MOL0     C79103   6.050   5.719   0.642 -0.3665 -0.2054  0.8801
  574MOL0     C79104   6.041   5.705   0.493 -0.0218  0.0529  0.6900
  574MOL0     O79105   6.151   5.714   0.425 -0.5342  0.4513 -0.0384
  574MOL0     C79106   6.153   5.734   0.289  0.2469  1.2638 -0.1665
  574MOL0     C79107   6.071   5.828   0.224  0.0196  1.3599  0.6462
  574MOL0     C79108   6.090   5.858   0.085  0.0239  0.2412 -1.9458
  574MOL0     C79109   6.189   5.791   0.022 -0.3209 -1.0793  0.4142
  574MOL0     O79110   6.204   5.829  -0.109 -0.0622 -0.1060  0.0856
  574MOL0     C79111   6.183   5.715  -0.197  0.2644 -0.5323  0.6114
  574MOL0     C79112   6.221   5.780  -0.337 -0.5210 -0.1800 -0.8069
  574MOL0     C79113   6.183   5.682  -0.452 -0.3070  0.0631  1.1328
  574MOL0     C79114   6.172   5.756  -0.591  0.5830  0.4455 -0.2869
  574MOL0     C79115   6.086   5.676  -0.688 -0.0645 -0.2046  0.2013
  574MOL0     C79116   6.108   5.736  -0.832 -0.5217 -0.3600  0.3556
  574MOL0     C79117   6.051   5.628  -0.930  0.0446 -0.3947 -0.5016
  574MOL0     C79118   6.061   5.681  -1.067 -0.5491  0.2163 -0.3561
  574MOL0    Cl79119   6.243   5.690  -1.102  0.2462  0.1698 -0.4652
  574MOL0     C79120   6.269   5.693   0.082 -1.1502 -0.0320 -0.5949
  574MOL0     C79121   6.247   5.665   0.218 -0.0062 -0.5183 -0.4818
  574MOL0     O79122   5.927   5.687   0.442 -0.2573 -0.0202 -0.3081
  574MOL0     C79123   6.158   5.652   0.710 -0.3261  0.0758 -0.8315
  574MOL0     C79124   6.154   5.640   0.847 -0.5730  0.0627  0.9676
  574MOL0     N79125   5.849   5.763   1.480 -0.4245 -0.0950  0.0022
  574MOL0     N79126   5.816   5.830   1.582 -1.2763 -0.8424 -0.7579
  574MOL0     C79127   5.689   6.578   1.133  0.2634  0.0571  0.8084
  574MOL0     C79128   5.730   6.656   1.023  0.1377 -0.3621  0.6544
  574MOL0     C79129   5.851   6.680   0.590  0.3588  0.0028  0.1928
  574MOL0     C79130   5.814   6.817   0.592 -0.6722  0.5737 -0.1304
  574MOL0     C79131   5.820   6.886   0.466 -0.4674 -0.4598  0.2035
  574MOL0     C79132   5.849   6.812   0.348  0.3855 -0.0839  0.3500
  574MOL0     O79133   5.831   6.879   0.226  0.7599 -0.1855 -0.0111
  574MOL0     C79134   5.953   6.891   0.146 -0.2470 -0.9843 -0.2899
  574MOL0     C79135   5.929   6.823   0.004 -0.1571  1.0688  0.3268
  574MOL0     C79136   6.035   6.717  -0.033 -0.6433  0.4471 -0.0850
  574MOL0     C79137   6.194   6.753  -0.024 -0.0283 -0.0766 -0.2358
  574MOL0     C79138   6.270   6.619  -0.044 -0.6500 -1.1270 -0.0232
  574MOL0     C79139   6.340   6.524  -0.074  1.2514 -0.2133 -0.0348
  574MOL0     C79140   5.903   6.690   0.348  0.8900  1.2821  0.4095
  574MOL0     C79141   5.903   6.621   0.470  1.2002  0.6442 -0.9659
  574MOL0     C79142   5.972   6.486   0.474 -0.1967  0.1923  0.1722
  574MOL0     H79143   6.000   6.481   0.928 -0.1768  1.9915 -1.1581
  574MOL0     H79144   5.953   6.355   1.130  2.5624  1.3619 -2.4139
  574MOL0     H79145   5.891   6.300   1.341 -0.3052 -1.3757  0.6272
  574MOL0     H79146   5.762   6.196   1.288  1.0664 -1.9433  1.3342
  574MOL0     H79147   5.807   6.202   1.504  3.2337  1.8020 -2.3860
  574MOL0     H79148   5.763   6.369   1.540  2.6216 -0.3854  0.1856
  574MOL0     H79149   5.517   6.320   1.462 -1.3949 -1.2896  0.7593
  574MOL0     H79150   5.568   6.166   1.409  4.4617  1.2784 -2.4659
  574MOL0     H79151   5.590   6.239   1.706  1.2902  0.5500 -1.0213
  574MOL0     H79152   5.437   6.170   1.641 -0.3135 -2.1808  3.0594
  574MOL0     H79153   5.711   6.036   1.657  0.1694 -2.9159  2.1490
  574MOL0     H79154   5.563   5.971   1.572 -4.1870 -0.9488  2.3552
  574MOL0     H79155   5.597   6.035   1.874  2.6054 -1.7420 -0.5353
  574MOL0     H79156   5.444   6.001   1.812  0.5319  1.6351 -0.2125
  574MOL0     H79157   5.531   5.770   1.729  0.5580 -3.7744  1.6565
  574MOL0     H79158   5.532   5.802   1.898  1.9205  0.9832  1.3834
  574MOL0     H79159   5.784   5.858   1.865  0.1847  0.8362 -0.9056
  574MOL0     H79160   5.720   5.688   1.873 -2.7141  0.2453 -0.4745
  574MOL0     H79161   5.793   5.518   1.685 -0.0766 -0.5711 -0.3505
  574MOL0     H79162   5.728   5.472   1.403 -0.9656  0.2522 -4.1035
  574MOL0     H79163   5.903   5.443   1.441  1.1645  1.3257 -1.5096
  574MOL0     H79164   5.830   5.509   1.185 -2.8392 -1.7918  1.8800
  574MOL0     H79165   5.843   5.673   1.249  1.8157  0.2596 -0.5173
  574MOL0     H79166   6.064   5.661   1.326 -1.6841  1.2555 -1.1950
  574MOL0     H79167   6.061   5.481   1.294 -3.4845 -1.2239 -0.9848
  574MOL0     H79168   6.214   5.628   1.142  0.3612 -1.3621 -0.2838
  574MOL0     H79169   6.105   5.512   1.068  0.3406 -0.8948  0.8489
  574MOL0     H79170   5.897   5.839   0.911 -0.1962 -0.1028  0.1188
  574MOL0     H79171   5.837   5.972   0.712 -3.6523 -1.4517  2.0537
  574MOL0     H79172   5.766   5.811   0.670  1.5120 -2.0189  0.3684
  574MOL0     H79173   5.855   5.892   0.547  0.9519 -0.6686  0.6334
  574MOL0     H79174   5.996   5.869   0.291 -0.4506 -0.9948  1.6768
  574MOL0     H79175   6.015   5.928   0.049  2.1273  4.0309  0.3366
  574MOL0     H79176   6.245   5.627  -0.176 -0.7906 -1.2383  0.8318
  574MOL0     H79177   6.079   5.683  -0.188  0.2876 -0.1011  3.3125
  574MOL0     H79178   6.156   5.867  -0.350  0.1645  0.4227 -0.2652
  574MOL0     H79179   6.324   5.816  -0.346  0.7086 -2.5598  2.1741
  574MOL0     H79180   6.093   5.623  -0.434 -0.6175  0.3559  0.5639
  574MOL0     H79181   6.261   5.608  -0.473  1.3851  3.0090 -5.2634
  574MOL0     H79182   6.273   5.784  -0.623  0.9052  0.8865  1.0381
  574MOL0     H79183   6.123   5.853  -0.578  0.0173  0.4229 -2.0100
  574MOL0     H79184   6.128   5.575  -0.696  2.0620  0.6685 -0.0416
  574MOL0     H79185   5.979   5.662  -0.665  0.6172 -1.9858  2.8350
  574MOL0     H79186   6.216   5.748  -0.843 -0.4188  0.6246  2.1751
  574MOL0     H79187   6.061   5.832  -0.852  3.0316  1.7108  1.1862
  574MOL0     H79188   5.951   5.596  -0.899  1.4194 -0.4766  4.8930
  574MOL0     H79189   6.120   5.543  -0.926  0.9522  0.3619  1.0458
  574MOL0     H79190   6.013   5.780  -1.070 -1.5948 -0.2777 -3.6421
  574MOL0     H79191   6.010   5.609  -1.132 -1.0067  0.3282 -0.1305
  574MOL0     H79192   6.344   5.637   0.027 -0.4904 -0.0439  0.2940
  574MOL0     H79193   6.320   5.600   0.264  0.6991  1.2694  1.0728
  574MOL0     H79194   6.235   5.600   0.654  1.8299  0.5384  1.4743
  574MOL0     H79195   6.228   5.570   0.886  0.7781 -0.7735 -2.6641
  574MOL0     H79196   5.597   6.597   1.187  1.7262  0.4167  3.3464
  574MOL0     H79197   5.676   6.744   0.990  1.6429  0.8512  1.2919
  574MOL0     H79198   5.788   6.868   0.684 -2.5842 -0.1882 -0.2071
  574MOL0     H79199   5.791   6.989   0.454 -0.6694 -0.7864 -3.2089
  574MOL0     H79200   5.977   6.997   0.135 -1.3804 -0.6421  0.4096
  574MOL0     H79201   6.032   6.842   0.204 -3.2493 -1.5066  3.7930
  574MOL0     H79202   5.921   6.898  -0.076  2.2006  0.7564 -0.2742
  574MOL0     H79203   5.836   6.768   0.020 -0.0470  1.2690  1.8579
  574MOL0     H79204   6.013   6.618   0.009 -3.5684  0.0281 -2.2545
  574MOL0     H79205   6.030   6.695  -0.140  1.6661 -4.4257  0.5439
  574MOL0     H79206   6.211   6.791   0.077  4.3220  0.0840 -0.8418
  574MOL0     H79207   6.225   6.826  -0.099  0.1749  0.1733  0.0858
  574MOL0     H79208   6.390   6.430  -0.083  2.9091  0.5306  1.0628
  574MOL0     H79209   5.937   6.638   0.259 -2.4043  0.9836 -0.8196
  574MOL0     H79210   6.061   6.478   0.538  2.4640  2.5725 -2.9136
  574MOL0     H79211   5.900   6.409   0.504 -0.3735  0.5263  0.6120
  574MOL0     H79212   6.012   6.465   0.375 -1.7606  2.8315 -1.1179
  575MOL0     O79213   1.037   3.145   1.449 -0.8310  0.0766  0.6145
  575MOL0     C79214   1.104   3.240   1.415  0.6574 -0.3149 -0.6474
  575MOL0     O79215   1.141   3.343   1.502 -0.8941  0.0923  0.0111
  575MOL0     C79216   1.088   3.348   1.627 -0.0233 -0.1212 -1.2361
  575MOL0     C79217   0.960   3.404   1.650  0.0393 -0.3647  0.2058
  575MOL0     C79218   0.902   3.399   1.778 -0.0429 -0.9010 -0.4093
  575MOL0     C79219   0.973   3.344   1.885  0.9081  0.1943  1.0701
  575MOL0     O79220   0.893   3.316   2.000 -0.5531  0.0107 -0.2009
  575MOL0     C79221   0.972   3.310   2.124 -0.3778 -0.9609  0.6337
  575MOL0     C79222   0.874   3.287   2.244 -0.4655 -0.1599 -0.0503
  575MOL0     C79223   0.931   3.252   2.380 -0.4177 -0.0365  0.1552
  575MOL0     C79224   0.830   3.228   2.495  0.2343  0.7790  0.4816
  575MOL0     C79225   0.908   3.225   2.632  0.4465  0.2665  0.4137
  575MOL0     C79226   0.812   3.237   2.749  0.3412  0.4190  0.3566
  575MOL0     C79227   0.714   3.109   2.753  0.5856 -0.3242 -0.3270
  575MOL0     C79228   0.619   3.115   2.875 -0.2154 -1.2801  0.4324
  575MOL0     N79229   0.555   2.993   2.892  0.0036  1.3759  0.4191
  575MOL0     C79230   0.613   2.870   2.931  0.8569 -0.5964 -0.3562
  575MOL0     C79231   0.511   2.781   2.920 -0.7836 -0.2877 -0.1286
  575MOL0     C79232   0.510   2.637   2.963  0.8054  0.2981  0.0303
  575MOL0     C79233   0.578   2.543   2.866  0.4882  0.5048 -0.3753
  575MOL0     C79234   0.732   2.575   2.850 -0.4598  0.3597 -0.2814
  575MOL0     C79235   0.814   2.588   2.976 -0.7294 -0.5745  0.3075
  575MOL0     O79236   0.955   2.623   2.947  0.0268  0.4052  0.5958
  575MOL0     C79237   1.045   2.592   3.044  0.3257  0.1761  0.1130
  575MOL0     C79238   1.023   2.528   3.168  0.2935 -0.2447  1.0268
  575MOL0     C79239   1.129   2.511   3.262 -0.0673  0.1061  0.6710
  575MOL0     C79240   1.100   2.457   3.397 -0.3502 -0.3693 -0.4803
  575MOL0     C79241   1.263   2.556   3.222  0.5460  0.0300 -0.1511
  575MOL0     C79242   1.382   2.559   3.311  1.1011 -1.0502 -0.2555
  575MOL0     O79243   1.375   2.488   3.428  0.0210  0.2216 -0.1113
  575MOL0     C79244   1.490   2.483   3.503  0.0253  0.1137 -0.4881
  575MOL0     C79245   1.614   2.444   3.448  0.2259  0.4935 -0.6481
  575MOL0     C79246   1.718   2.408   3.532 -0.7869  0.6331 -1.4602
  575MOL0     C79247   1.700   2.427   3.672 -1.0359  0.0218  0.7015
  575MOL0     O79248   1.797   2.408   3.768  0.8658  0.2208 -0.7704
  575MOL0     C79249   1.887   2.518   3.783 -0.0833 -0.4743 -0.6735
  575MOL0     C79250   2.002   2.482   3.883  1.0402 -0.4560 -0.4363
  575MOL0     C79251   2.068   2.359   3.842 -0.2852  0.1214  0.2861
  575MOL0     C79252   2.185   2.305   3.934  0.4107  0.1205  0.1583
  575MOL0     C79253   2.139   2.259   4.078  0.4905  0.0712 -0.3492
  575MOL0     C79254   2.236   2.172   4.158 -0.4099 -0.2767  0.1808
  575MOL0     C79255   2.244   2.190   4.312  0.2372  0.0377  0.3197
  575MOL0     C79256   2.380   2.162   4.381  0.6443 -0.7692  0.3099
  575MOL0    Cl79257   2.401   1.986   4.378  0.3269  0.0009  0.5783
  575MOL0     C79258   1.586   2.478   3.723  0.4011  0.6150 -0.5953
  575MOL0     C79259   1.479   2.503   3.641  1.3150  0.2416  0.5891
  575MOL0     O79260   1.466   2.652   3.282  0.2432 -0.5069  0.4496
  575MOL0     C79261   1.280   2.614   3.088  0.3805  0.5742  0.4033
  575MOL0     C79262   1.164   2.636   3.011  0.2924 -0.2485 -0.9108
  575MOL0     N79263   0.397   2.858   2.905 -0.0983  0.0376  0.8016
  575MOL0     N79264   0.427   2.979   2.890  1.1851 -0.3458 -0.0832
  575MOL0     C79265   1.102   3.291   1.868 -0.4107  0.4469 -0.1916
  575MOL0     C79266   1.159   3.288   1.738 -0.3536 -0.0300  0.4434
  575MOL0     C79267   1.120   3.252   1.266  1.5085 -0.3498 -0.6824
  575MOL0     C79268   1.026   3.184   1.178 -0.3344  0.5641  0.7850
  575MOL0     C79269   1.028   3.204   1.036 -0.7279 -0.3375  0.6931
  575MOL0     C79270   1.132   3.281   0.979  0.8998  0.8558 -0.0927
  575MOL0     O79271   1.130   3.294   0.844 -0.5995  0.3397  0.2217
  575MOL0     C79272   1.153   3.426   0.793  0.7242  0.1989  0.3149
  575MOL0     C79273   1.288   3.429   0.720  0.2441  0.8242  0.4621
  575MOL0     C79274   1.313   3.557   0.654  0.3226 -1.4723  0.0415
  575MOL0     C79275   1.467   3.580   0.629  0.1408  0.2022  1.1418
  575MOL0     C79276   1.537   3.634   0.745  0.3461 -0.8414 -0.5152
  575MOL0     C79277   1.610   3.664   0.837 -0.1887  0.7139 -0.5326
  575MOL0     C79278   1.224   3.351   1.062 -0.2529 -0.1988 -1.5234
  575MOL0     C79279   1.209   3.340   1.203  0.1742  0.1334  0.3878
  575MOL0     C79280   1.314   3.419   1.283  1.0121 -0.3508  0.5016
  575MOL0     H79281   0.914   3.442   1.560 -0.4138 -5.4467 -2.0623
  575MOL0     H79282   0.796   3.424   1.783 -0.1783 -0.3956 -3.8032
  575MOL0     H79283   1.034   3.399   2.131 -2.7522  1.1033 -2.1034
  575MOL0     H79284   1.026   3.215   2.127  1.3362 -0.0498 -0.2116
  575MOL0     H79285   0.806   3.372   2.237 -1.2489 -0.6613  0.9798
  575MOL0     H79286   0.814   3.199   2.218 -2.3972  0.4373  2.0060
  575MOL0     H79287   0.993   3.162   2.371 -0.2136  0.2573 -1.7372
  575MOL0     H79288   1.001   3.328   2.417  4.3116 -4.4543  1.5162
  575MOL0     H79289   0.753   3.305   2.496  1.8768  2.5080  2.2560
  575MOL0     H79290   0.787   3.127   2.490  4.2129 -1.0445 -1.6183
  575MOL0     H79291   0.987   3.301   2.637 -1.1123  2.4353 -3.4725
  575MOL0     H79292   0.967   3.134   2.649 -0.2422 -0.0878  0.9686
  575MOL0     H79293   0.846   3.232   2.853 -1.1607 -3.8495  0.8406
  575MOL0     H79294   0.769   3.338   2.746 -0.3363  0.1324  0.2570
  575MOL0     H79295   0.777   3.020   2.761  1.8615  0.6242  0.5953
  575MOL0     H79296   0.646   3.103   2.668 -2.1907 -0.7644  1.7898
  575MOL0     H79297   0.671   3.133   2.970  0.4721  2.3225 -0.4574
  575MOL0     H79298   0.544   3.194   2.867  0.5950 -0.5833 -0.8187
  575MOL0     H79299   0.717   2.857   2.959  1.8517  2.7634 -1.9480
  575MOL0     H79300   0.406   2.612   2.988 -0.0731  1.6963 -1.9987
  575MOL0     H79301   0.557   2.624   3.061 -1.5821  4.5180  1.9908
  575MOL0     H79302   0.569   2.441   2.904 -2.9840  0.8962  0.1134
  575MOL0     H79303   0.526   2.550   2.771  0.7534  3.4477 -0.3901
  575MOL0     H79304   0.790   2.506   2.789  0.5397  0.5485  0.4396
  575MOL0     H79305   0.729   2.668   2.793  0.0231  1.4135  1.3298
  575MOL0     H79306   0.778   2.664   3.047 -0.2685  0.0301 -0.0999
  575MOL0     H79307   0.817   2.489   3.022  0.3190 -1.3135 -1.2888
  575MOL0     H79308   0.920   2.508   3.196 -0.9199  1.9448 -1.4160
  575MOL0     H79309   1.147   2.512   3.479  1.6676 -0.2123 -1.6727
  575MOL0     H79310   1.129   2.351   3.407 -1.5960 -0.6636  0.1290
  575MOL0     H79311   0.993   2.472   3.409 -0.9410 -1.3656 -3.6223
  575MOL0     H79312   1.615   2.421   3.342 -0.2217  2.5294 -1.1373
  575MOL0     H79313   1.808   2.359   3.496  1.2802  3.3240 -0.2099
  575MOL0     H79314   1.927   2.542   3.684  1.6767 -1.3230 -0.2033
  575MOL0     H79315   1.832   2.608   3.814 -0.6912 -0.3916 -1.9298
  575MOL0     H79316   2.083   2.555   3.880  2.7786 -2.2353  0.9075
  575MOL0     H79317   1.967   2.471   3.986  1.3053  5.0959  0.5609
  575MOL0     H79318   2.094   2.360   3.736 -0.9704 -1.6691  0.0782
  575MOL0     H79319   1.991   2.282   3.847  0.1972 -0.6095 -2.1841
  575MOL0     H79320   2.255   2.388   3.949 -0.9876  1.3482  0.1273
  575MOL0     H79321   2.234   2.214   3.899  0.4710 -0.3431  1.4023
  575MOL0     H79322   2.110   2.351   4.130  0.1165 -0.5444  0.5446
  575MOL0     H79323   2.048   2.199   4.066  1.3268 -0.8879 -2.5179
  575MOL0     H79324   2.337   2.196   4.124 -0.5106 -0.2235 -0.0793
  575MOL0     H79325   2.205   2.073   4.122 -3.9149  1.4086 -2.0184
  575MOL0     H79326   2.162   2.142   4.365  0.1323 -3.0730 -2.3718
  575MOL0     H79327   2.218   2.296   4.323  2.2394  0.5479  0.4115
  575MOL0     H79328   2.397   2.206   4.479 -2.5757 -0.4188  0.8228
  575MOL0     H79329   2.451   2.214   4.315 -3.5155  3.6637 -1.3258
  575MOL0     H79330   1.581   2.488   3.831  2.5860 -0.9269 -0.2865
  575MOL0     H79331   1.388   2.536   3.691  0.9528  0.1708 -0.0144
  575MOL0     H79332   1.375   2.643   3.044  0.6869 -2.1649 -0.9191
  575MOL0     H79333   1.165   2.694   2.919 -2.9741  0.8851 -0.3653
  575MOL0     H79334   1.156   3.247   1.951  1.2881  1.3563 -0.7633
  575MOL0     H79335   1.250   3.236   1.712  0.1136  1.6566 -1.5783
  575MOL0     H79336   0.948   3.115   1.206 -0.5693  0.5007 -0.0027
  575MOL0     H79337   0.951   3.158   0.975  0.5167 -0.9354 -0.4932
  575MOL0     H79338   1.071   3.450   0.725  0.2655 -4.2234 -1.0286
  575MOL0     H79339   1.149   3.504   0.869 -3.4670 -0.6816  1.2300
  575MOL0     H79340   1.281   3.361   0.635  2.8446 -0.1298  0.9139
  575MOL0     H79341   1.367   3.398   0.790  0.1413 -1.5660 -0.3967
  575MOL0     H79342   1.264   3.545   0.557 -2.2873 -1.8939  1.3334
  575MOL0     H79343   1.265   3.643   0.702  1.3166 -1.7317  1.5723
  575MOL0     H79344   1.478   3.635   0.535 -2.8418  2.1515  1.7734
  575MOL0     H79345   1.502   3.477   0.616 -4.2440 -1.1324 -2.7695
  575MOL0     H79346   1.667   3.704   0.918  0.6594 -0.6378 -0.4281
  575MOL0     H79347   1.312   3.406   1.033  1.6498 -2.7101 -0.8964
  575MOL0     H79348   1.360   3.347   1.352  0.8905 -0.7136  0.2096
  575MOL0     H79349   1.404   3.442   1.225  1.4104 -4.6872 -1.0359
  575MOL0     H79350   1.267   3.495   1.346 -0.8367  1.6087 -2.9252
  576MOL0     O79351  11.150  10.513   5.937 -0.0275 -0.7623  0.2967
  576MOL0     C79352  11.238  10.587   5.891 -0.0011 -0.3719 -0.0435
  576MOL0     O79353  11.305  10.566   5.773 -0.3530  0.1790  0.0469
  576MOL0     C79354  11.261  10.459   5.700  0.3591  0.3617 -0.2365
  576MOL0     C79355  11.169  10.484   5.597 -0.0425 -0.5095 -0.6257
  576MOL0     C79356  11.123  10.384   5.517 -0.3823 -0.5999  0.0641
  576MOL0     C79357  11.149  10.250   5.554  0.2055  0.4967 -0.8088
  576MOL0     O79358  11.079  10.147   5.498 -0.6165  0.3054 -0.3302
  576MOL0     C79359  11.073  10.015   5.537 -0.4277 -0.0755  0.2634
  576MOL0     C79360  10.965   9.921   5.456 -0.0271 -0.2142  0.0217
  576MOL0     C79361  10.828   9.980   5.471 -0.4229  0.4522 -0.2769
  576MOL0     C79362  10.735   9.904   5.381  0.4456  1.1503  0.1962
  576MOL0     C79363  10.590   9.954   5.395  0.4451  1.2786  0.1790
  576MOL0     C79364  10.539  10.066   5.307  0.9807 -0.9195 -0.5541
  576MOL0     C79365  10.396  10.100   5.341  0.0604  0.1785  0.3753
  576MOL0     C79366  10.350  10.200   5.237  0.3384 -1.0800 -0.4959
  576MOL0     N79367  10.200  10.216   5.246 -1.1238  0.5744  0.1764
  576MOL0     C79368  10.128  10.280   5.341 -0.4500 -0.0722 -0.0512
  576MOL0     C79369   9.997  10.232   5.333 -0.0752  0.3112 -0.3798
  576MOL0     C79370   9.882  10.300   5.415  0.5536  0.1770 -0.3280
  576MOL0     C79371   9.790  10.377   5.320  0.3914 -0.3029 -0.3477
  576MOL0     C79372   9.837  10.498   5.237 -0.0039 -0.0868 -0.0151
  576MOL0     C79373   9.793  10.631   5.296  0.3894 -0.1256 -0.0264
  576MOL0     O79374   9.914  10.710   5.306  0.3535 -0.9123 -0.2983
  576MOL0     C79375   9.886  10.847   5.330  0.5909 -0.2246 -0.6687
  576MOL0     C79376  10.003  10.937   5.326  0.3480 -0.7106 -0.5529
  576MOL0     C79377   9.989  11.071   5.371  0.4660  0.2663 -0.2485
  576MOL0     C79378  10.117  11.159   5.375  0.5714  0.1222 -0.4144
  576MOL0     C79379   9.872  11.126   5.423 -0.5438 -0.5050 -0.4813
  576MOL0     C79380   9.857  11.264   5.486  0.1187 -0.5700  0.4499
  576MOL0     O79381   9.926  11.369   5.435  0.1500 -0.1918  0.1712
  576MOL0     C79382   9.850  11.487   5.458  0.0399  0.4922  0.6038
  576MOL0     C79383   9.733  11.513   5.385 -0.8931  0.5526  0.0830
  576MOL0     C79384   9.680  11.642   5.390  0.4382  0.2438 -0.6162
  576MOL0     C79385   9.730  11.744   5.466  0.0593  0.8547  0.6388
  576MOL0     O79386   9.665  11.863   5.477 -0.0022  0.1000 -0.5764
  576MOL0     C79387   9.638  11.919   5.611  0.2657 -0.4142  0.8679
  576MOL0     C79388   9.615  12.067   5.587  1.5582 -0.0090  0.1804
  576MOL0     C79389   9.583  12.158   5.709  0.2681  0.2052  0.0758
  576MOL0     C79390   9.711  12.185   5.794 -0.0445  0.5918 -0.0718
  576MOL0     C79391   9.681  12.272   5.916  0.2688  0.5068  0.5917
  576MOL0     C79392   9.805  12.339   5.967 -1.2442  0.0429  0.5289
  576MOL0     C79393   9.776  12.399   6.110  0.7612 -0.4119  0.6087
  576MOL0     C79394   9.908  12.455   6.170  0.9737  0.1516  0.4530
  576MOL0    Cl79395   9.964  12.614   6.079  0.0735 -0.4495  0.1420
  576MOL0     C79396   9.844  11.715   5.545 -0.0448  0.2216  0.1242
  576MOL0     C79397   9.891  11.581   5.557 -0.2676  0.1686 -0.0132
  576MOL0     O79398   9.796  11.260   5.587  0.0419  0.0253 -0.5066
  576MOL0     C79399   9.759  11.049   5.414 -0.1910  0.0712 -0.5974
  576MOL0     C79400   9.757  10.908   5.377 -0.8003  0.6574 -0.4970
  576MOL0     N79401   9.998  10.132   5.230  0.6636 -0.1267  0.3064
  576MOL0     N79402  10.114  10.135   5.176  0.0607 -0.3850 -0.8319
  576MOL0     C79403  11.237  10.225   5.662 -0.5633  0.5874  0.1904
  576MOL0     C79404  11.298  10.327   5.735 -0.0098 -0.5949  0.4214
  576MOL0     C79405  11.274  10.717   5.960  0.6280 -0.0532 -0.6008
  576MOL0     C79406  11.402  10.773   5.946 -0.3159  0.3688 -0.5999
  576MOL0     C79407  11.450  10.880   6.017  0.6547 -0.6717 -0.2564
  576MOL0     C79408  11.368  10.947   6.111 -0.4956  0.7633  0.7368
  576MOL0     O79409  11.419  11.055   6.171 -0.0053 -0.1261 -0.2458
  576MOL0     C79410  11.332  11.148   6.237 -0.0395 -0.5310 -1.3233
  576MOL0     C79411  11.324  11.122   6.386 -0.1300  0.2743  0.5838
  576MOL0     C79412  11.239  11.238   6.461 -0.7629 -0.6422  1.4066
  576MOL0     C79413  11.230  11.207   6.618  0.9317  0.6474  1.0445
  576MOL0     C79414  11.333  11.270   6.695 -0.2156 -0.4989  0.0260
  576MOL0     C79415  11.419  11.322   6.764 -0.4294 -1.0724  0.7565
  576MOL0     C79416  11.237  10.898   6.110  0.2143 -0.6471 -0.1523
  576MOL0     C79417  11.185  10.784   6.046 -0.3714 -1.1049  0.1956
  576MOL0     C79418  11.043  10.737   6.075 -0.3208  0.1736 -0.3794
  576MOL0     H79419  11.141  10.586   5.570 -0.9084 -0.5651  0.0116
  576MOL0     H79420  11.065  10.414   5.430  2.0763  2.2733 -0.7676
  576MOL0     H79421  11.052  10.010   5.644  0.9151 -2.2293  0.4961
  576MOL0     H79422  11.171   9.967   5.537  1.6960  3.3498  5.6684
  576MOL0     H79423  10.996   9.922   5.351 -0.5027 -0.5401 -0.1250
  576MOL0     H79424  10.978   9.823   5.503  0.5812  0.0210  0.3607
  576MOL0     H79425  10.789   9.994   5.572 -1.3650  2.6197 -0.8849
  576MOL0     H79426  10.830  10.083   5.435 -4.0223  1.9299  3.0178
  576MOL0     H79427  10.757   9.885   5.275 -2.2854 -0.3859 -0.2003
  576MOL0     H79428  10.721   9.805   5.426 -0.1017 -0.5309 -3.2603
  576MOL0     H79429  10.577   9.980   5.500  1.7265  0.3876  0.5830
  576MOL0     H79430  10.531   9.865   5.373  4.2024 -1.5627  0.4996
  576MOL0     H79431  10.615  10.145   5.314 -1.8446  1.9781  0.0230
  576MOL0     H79432  10.540  10.031   5.204  1.3605 -0.5298 -0.6847
  576MOL0     H79433  10.395  10.143   5.441  0.7540 -1.5337  1.1508
  576MOL0     H79434  10.333  10.011   5.333  0.0485 -0.0140  2.3145
  576MOL0     H79435  10.394  10.299   5.245 -0.9941 -0.4169 -1.0892
  576MOL0     H79436  10.367  10.151   5.140  1.7493 -1.4920 -0.0627
  576MOL0     H79437  10.157  10.359   5.409  0.7842 -0.2563 -0.3548
  576MOL0     H79438   9.930  10.370   5.484  0.9768 -0.4733  0.0596
  576MOL0     H79439   9.825  10.230   5.477 -2.3966  0.3673 -2.6318
  576MOL0     H79440   9.755  10.296   5.255  0.6131 -1.6294  1.1138
  576MOL0     H79441   9.697  10.408   5.369 -1.6813 -1.1641 -3.4709
  576MOL0     H79442   9.946  10.490   5.229  0.2680  3.3909 -2.4644
  576MOL0     H79443   9.792  10.491   5.137  0.2021 -4.0068  0.0305
  576MOL0     H79444   9.724  10.671   5.221  0.4872 -0.4749 -0.3055
  576MOL0     H79445   9.732  10.616   5.385 -3.0220 -1.8141 -2.4457
  576MOL0     H79446  10.100  10.906   5.290 -0.0503 -2.1190 -0.4740
  576MOL0     H79447  10.122  11.212   5.279  0.1335 -0.0987 -0.5615
  576MOL0     H79448  10.208  11.099   5.378  0.4730 -0.0078  3.0653
  576MOL0     H79449  10.124  11.236   5.452 -0.1404  1.2853 -1.4643
  576MOL0     H79450   9.699  11.445   5.308 -0.1343 -0.6055  0.7500
  576MOL0     H79451   9.594  11.668   5.329 -1.7357 -0.2416  2.0336
  576MOL0     H79452   9.546  11.866   5.637  1.8168 -2.0008  3.5779
  576MOL0     H79453   9.707  11.891   5.692  0.8283 -1.1213  0.1595
  576MOL0     H79454   9.694  12.112   5.526 -0.3150  2.1992 -0.7780
  576MOL0     H79455   9.537  12.077   5.511  1.7882 -1.4701 -0.2706
  576MOL0     H79456   9.518  12.114   5.785 -0.5379  3.3657  1.3740
  576MOL0     H79457   9.538  12.253   5.676 -0.6035 -0.2249 -0.0026
  576MOL0     H79458   9.774  12.230   5.717 -0.2041  1.3325  0.2237
  576MOL0     H79459   9.739  12.083   5.823  0.0244  0.9312  1.0872
  576MOL0     H79460   9.603  12.347   5.900 -1.0942 -0.5319  2.0625
  576MOL0     H79461   9.635  12.206   5.991  3.1010  0.7088  2.6832
  576MOL0     H79462   9.831  12.425   5.904 -0.6366  0.6542  1.5939
  576MOL0     H79463   9.884  12.265   5.976  0.2862  1.1326 -2.4405
  576MOL0     H79464   9.737  12.317   6.173 -1.2914  0.7785  0.9903
  576MOL0     H79465   9.697  12.474   6.099  1.5885  0.8903  2.9158
  576MOL0     H79466   9.991  12.384   6.163  2.0227  1.3479  0.3571
  576MOL0     H79467   9.894  12.484   6.274 -1.5871  3.1080 -0.5324
  576MOL0     H79468   9.891  11.800   5.593  0.4681 -0.1827  0.3482
  576MOL0     H79469   9.978  11.555   5.617 -0.1676 -2.4177 -1.1347
  576MOL0     H79470   9.663  11.091   5.444 -0.0513 -1.3184  2.1022
  576MOL0     H79471   9.665  10.851   5.385 -0.9674  0.6288 -2.2269
  576MOL0     H79472  11.252  10.126   5.704 -0.7794 -0.7476 -2.6495
  576MOL0     H79473  11.349  10.299   5.827 -2.3221 -2.1682  1.3326
  576MOL0     H79474  11.471  10.722   5.880  0.1364  0.6062 -0.3179
  576MOL0     H79475  11.552  10.912   5.998  0.3896  0.6311  0.4187
  576MOL0     H79476  11.365  11.248   6.208  0.3442  0.1076  1.0613
  576MOL0     H79477  11.227  11.148   6.205 -1.3659 -1.3624  2.4415
  576MOL0     H79478  11.428  11.107   6.418  1.0262 -0.5787 -3.1139
  576MOL0     H79479  11.277  11.024   6.397 -0.9883  0.6299  0.1619
  576MOL0     H79480  11.288  11.332   6.436 -0.6485 -1.5577 -2.4031
  576MOL0     H79481  11.135  11.231   6.428  0.4874  0.5589 -3.5271
  576MOL0     H79482  11.237  11.098   6.632  2.1461  0.4196 -0.9906
  576MOL0     H79483  11.129  11.238   6.644  0.6437  0.0880  0.6266
  576MOL0     H79484  11.504  11.354   6.821 -0.8384  2.5782 -0.4266
  576MOL0     H79485  11.164  10.945   6.176  1.9169 -0.7634  1.9279
  576MOL0     H79486  10.981  10.824   6.096  1.2154  0.5546  3.3506
  576MOL0     H79487  10.998  10.682   5.991  2.0302  0.2002 -1.7538
  576MOL0     H79488  11.042  10.680   6.168  1.5072  0.7539  0.0390
  577MOL0     O79489   0.903   5.021   3.802  0.4027 -0.1595  0.5086
  577MOL0     C79490   0.892   5.021   3.680 -0.2273  0.6838  1.0900
  577MOL0     O79491   0.911   5.121   3.593  0.7291  0.2290  0.3187
  577MOL0     C79492   0.989   5.230   3.613  0.3900 -0.7664 -0.1305
  577MOL0     C79493   0.950   5.353   3.545 -0.5460 -0.3307 -0.5433
  577MOL0     C79494   1.030   5.469   3.556  0.3600 -0.1054 -0.5811
  577MOL0     C79495   1.157   5.464   3.626 -0.1281  0.5142 -0.4333
  577MOL0     O79496   1.248   5.570   3.651  0.4892  0.7014 -0.1213
  577MOL0     C79497   1.203   5.689   3.616  0.0307 -0.6262  0.8536
  577MOL0     C79498   1.286   5.810   3.660  0.3636  0.4257 -0.8930
  577MOL0     C79499   1.395   5.845   3.566  0.1271 -0.1613  0.2058
  577MOL0     C79500   1.495   5.949   3.629  0.1392  0.3887  0.4310
  577MOL0     C79501   1.597   6.003   3.528  0.1841  0.4717 -0.2087
  577MOL0     C79502   1.727   6.048   3.603  0.3392 -0.1130 -0.0309
  577MOL0     C79503   1.818   6.107   3.492  0.3657  0.1570  0.4767
  577MOL0     C79504   1.765   6.249   3.462  0.0520 -0.9150 -0.0248
  577MOL0     N79505   1.855   6.317   3.362  1.0149  0.5311 -0.6291
  577MOL0     C79506   1.831   6.333   3.232 -0.0326  0.0189  0.1181
  577MOL0     C79507   1.933   6.404   3.188  0.1491  0.5929 -0.7920
  577MOL0     C79508   1.976   6.421   3.049  0.6648  0.0787  0.9266
  577MOL0     C79509   1.856   6.473   2.962 -0.1579  0.3610  0.4719
  577MOL0     C79510   1.828   6.629   2.972 -0.7552  0.0395 -0.8126
  577MOL0     C79511   1.940   6.726   2.934 -0.6826  0.1725 -0.1944
  577MOL0     O79512   1.898   6.862   2.951 -0.1436  0.0109 -0.3326
  577MOL0     C79513   1.976   6.969   2.922 -0.2545 -1.0013  0.7260
  577MOL0     C79514   2.098   6.957   2.851  0.1310  0.1803 -0.9978
  577MOL0     C79515   2.154   7.075   2.797 -0.1501  0.3719  0.3709
  577MOL0     C79516   2.272   7.036   2.705  0.1837 -0.7105 -0.9682
  577MOL0     C79517   2.118   7.199   2.820  0.2344  0.1570 -0.1211
  577MOL0     C79518   2.169   7.328   2.764  0.6970 -0.7912  0.9351
  577MOL0     O79519   2.279   7.323   2.697  0.4419  0.2144  0.4646
  577MOL0     C79520   2.341   7.436   2.650  0.8585  0.5917 -1.1400
  577MOL0     C79521   2.439   7.502   2.723 -0.1537  0.7334  0.1574
  577MOL0     C79522   2.500   7.612   2.682 -0.3389 -0.5164  0.2159
  577MOL0     C79523   2.458   7.678   2.564 -0.5245  0.2318 -1.1466
  577MOL0     O79524   2.513   7.804   2.525 -0.4962 -0.3702 -0.1766
  577MOL0     C79525   2.577   7.891   2.616 -0.5737  0.3209 -0.1904
  577MOL0     C79526   2.624   8.008   2.538 -0.3155  0.9491 -0.0747
  577MOL0     C79527   2.653   8.125   2.644 -0.2555 -0.0045 -0.5314
  577MOL0     C79528   2.687   8.249   2.573  0.4936 -0.5509 -0.5747
  577MOL0     C79529   2.742   8.352   2.671  0.9008 -0.6690  0.0269
  577MOL0     C79530   2.791   8.483   2.596  0.7864 -0.9622 -0.0184
  577MOL0     C79531   2.867   8.577   2.702 -0.3088 -0.5928 -0.2324
  577MOL0     C79532   2.936   8.687   2.615  0.4835 -0.1930  0.4607
  577MOL0    Cl79533   2.806   8.764   2.518 -0.1602  0.3861  0.4832
  577MOL0     C79534   2.357   7.625   2.484  0.3369 -0.2435 -1.0788
  577MOL0     C79535   2.299   7.508   2.532 -0.3735  1.7861 -0.6117
  577MOL0     O79536   2.105   7.437   2.781  0.2618 -0.8008 -0.2574
  577MOL0     C79537   2.003   7.213   2.907 -0.7690 -0.4165 -0.6700
  577MOL0     C79538   1.934   7.101   2.950 -0.7228 -0.0623 -1.1066
  577MOL0     N79539   2.007   6.443   3.288  0.9651  1.1180  0.8355
  577MOL0     N79540   1.961   6.390   3.397  0.1195 -0.1207 -0.0392
  577MOL0     C79541   1.187   5.351   3.695 -0.5315  0.8013 -0.1847
  577MOL0     C79542   1.109   5.230   3.685 -0.4439  0.3669  0.3310
  577MOL0     C79543   0.809   4.911   3.633  0.8100  0.8700  0.9386
  577MOL0     C79544   0.742   4.942   3.509  0.3793 -0.6002 -0.6441
  577MOL0     C79545   0.662   4.846   3.447 -0.6287 -0.3818  0.0262
  577MOL0     C79546   0.653   4.709   3.493  0.3771 -0.2089  0.6272
  577MOL0     O79547   0.574   4.622   3.424  0.9253  0.4432  0.6317
  577MOL0     C79548   0.466   4.562   3.500  0.0101  0.3182  0.0432
  577MOL0     C79549   0.349   4.674   3.520 -0.5374  0.5404 -1.0373
  577MOL0     C79550   0.240   4.619   3.605  0.1410 -0.0143  0.0170
  577MOL0     C79551   0.129   4.710   3.628  0.2217  0.2808 -0.2820
  577MOL0     C79552   0.158   4.824   3.714 -0.2648  0.3575  0.2019
  577MOL0     C79553   0.190   4.913   3.784 -0.1356 -0.7223 -0.0794
  577MOL0     C79554   0.723   4.680   3.610 -0.3261  0.9920  0.7958
  577MOL0     C79555   0.801   4.779   3.680  0.0262  0.4940  0.8700
  577MOL0     C79556   0.883   4.740   3.809 -0.7001  0.2521  0.3989
  577MOL0     H79557   0.853   5.365   3.498 -0.8439 -1.3873 -0.2082
  577MOL0     H79558   0.998   5.561   3.507  1.3017 -0.1334 -1.2612
  577MOL0     H79559   1.103   5.704   3.659 -0.7221 -1.2202 -0.6191
  577MOL0     H79560   1.194   5.701   3.508  0.7285 -0.2128  0.8347
  577MOL0     H79561   1.219   5.895   3.666  0.4106  0.3611  1.0174
  577MOL0     H79562   1.327   5.799   3.761 -0.0802  1.7559 -0.5500
  577MOL0     H79563   1.451   5.754   3.544 -1.8546 -0.8688 -2.4389
  577MOL0     H79564   1.364   5.872   3.465  3.6960  2.5552 -0.3963
  577MOL0     H79565   1.446   6.036   3.673  1.8597 -0.4034  4.3819
  577MOL0     H79566   1.560   5.904   3.705 -2.1241  0.1663  2.3323
  577MOL0     H79567   1.555   6.087   3.472  1.8721  0.7676 -1.0968
  577MOL0     H79568   1.630   5.927   3.457  0.8496  0.4328  0.1323
  577MOL0     H79569   1.696   6.128   3.671 -0.3948  1.1171 -1.7304
  577MOL0     H79570   1.766   5.962   3.659 -4.2420 -1.1402  2.1087
  577MOL0     H79571   1.823   6.037   3.408 -0.5414  0.3371  0.2556
  577MOL0     H79572   1.912   6.121   3.545 -0.4226  0.6700  1.8055
  577MOL0     H79573   1.672   6.259   3.404  0.7968  3.5091 -0.8569
  577MOL0     H79574   1.767   6.324   3.541  1.0145 -0.5705 -0.3610
  577MOL0     H79575   1.757   6.287   3.166  0.9438 -1.0630 -0.2580
  577MOL0     H79576   2.014   6.324   3.015  1.3330 -0.5133  3.1494
  577MOL0     H79577   2.066   6.483   3.056 -0.3061  1.5621  0.7106
  577MOL0     H79578   1.865   6.445   2.857 -1.0313 -0.5863  0.6316
  577MOL0     H79579   1.760   6.430   2.993  0.5063 -1.5083  0.0582
  577MOL0     H79580   1.742   6.666   2.916 -3.2561  0.2157  2.7615
  577MOL0     H79581   1.807   6.627   3.079 -4.8971 -1.0908 -1.4544
  577MOL0     H79582   2.028   6.706   2.997 -1.4689 -1.5000  0.4431
  577MOL0     H79583   1.970   6.714   2.830  0.0820  0.6625 -0.0418
  577MOL0     H79584   2.149   6.863   2.831  0.7039  1.0122 -3.8405
  577MOL0     H79585   2.361   7.091   2.738 -2.0583  1.8273  1.4314
  577MOL0     H79586   2.262   7.077   2.605 -2.7676 -0.7425 -0.7784
  577MOL0     H79587   2.293   6.929   2.715 -2.2204 -1.0470  1.9203
  577MOL0     H79588   2.490   7.450   2.803 -0.5777 -2.8609 -1.7424
  577MOL0     H79589   2.586   7.650   2.736  1.4289 -2.2333 -1.2292
  577MOL0     H79590   2.521   7.920   2.705  1.5035  1.6904  0.7300
  577MOL0     H79591   2.662   7.847   2.668 -1.0342 -0.8816 -0.4185
  577MOL0     H79592   2.717   7.982   2.486  0.5021 -2.1237  2.5934
  577MOL0     H79593   2.543   8.035   2.468 -1.0873 -1.3849 -0.1763
  577MOL0     H79594   2.732   8.099   2.714  0.8484  0.6576 -1.5031
  577MOL0     H79595   2.564   8.141   2.707  0.5787 -4.3186  2.1508
  577MOL0     H79596   2.595   8.280   2.522  0.0245 -1.0364 -0.0351
  577MOL0     H79597   2.757   8.227   2.492  0.5396 -2.2976 -0.0868
  577MOL0     H79598   2.666   8.398   2.736  1.3711  0.7687 -0.4122
  577MOL0     H79599   2.823   8.316   2.735  0.9091  0.6050  0.7775
  577MOL0     H79600   2.699   8.531   2.562  1.2056 -0.6672 -0.7464
  577MOL0     H79601   2.853   8.458   2.509 -0.8090 -0.4538 -1.3465
  577MOL0     H79602   2.941   8.525   2.764 -0.2529  0.9782  1.0947
  577MOL0     H79603   2.797   8.635   2.764 -1.6387 -0.4312 -1.8206
  577MOL0     H79604   3.018   8.648   2.554  1.8337 -2.0784  3.2676
  577MOL0     H79605   2.983   8.761   2.681 -0.5775  1.8354 -0.9694
  577MOL0     H79606   2.327   7.667   2.389  1.2254 -0.9258 -1.6772
  577MOL0     H79607   2.228   7.460   2.466 -1.7274  0.4196  1.7129
  577MOL0     H79608   1.972   7.312   2.938  1.3924  0.5557 -1.4426
  577MOL0     H79609   1.837   7.124   2.994 -0.3697 -0.5456 -0.0354
  577MOL0     H79610   1.287   5.343   3.735 -0.6416 -1.1112 -0.1977
  577MOL0     H79611   1.143   5.129   3.706 -2.1726  0.0090  1.6917
  577MOL0     H79612   0.741   5.045   3.473  1.9364  0.0980  1.1473
  577MOL0     H79613   0.604   4.885   3.364 -1.8120  0.2727  1.1269
  577MOL0     H79614   0.426   4.479   3.441 -0.7727 -0.0226  1.0093
  577MOL0     H79615   0.508   4.521   3.593  0.1014  3.1331  1.3565
  577MOL0     H79616   0.307   4.702   3.423  0.5471  0.5846 -1.5052
  577MOL0     H79617   0.398   4.765   3.558  1.0327  1.2886 -4.4456
  577MOL0     H79618   0.201   4.528   3.559  2.5845  0.6703 -3.9347
  577MOL0     H79619   0.287   4.603   3.703 -0.5704  1.5828  0.6570
  577MOL0     H79620   0.047   4.652   3.671 -0.2785  2.6386  2.1706
  577MOL0     H79621   0.080   4.761   3.545 -1.3226  0.0740  0.4583
  577MOL0     H79622   0.223   4.984   3.857  0.9284 -1.2024 -0.0807
  577MOL0     H79623   0.721   4.574   3.636  2.2988  0.5855 -0.3025
  577MOL0     H79624   0.843   4.787   3.899 -0.9221 -0.0603  0.4651
  577MOL0     H79625   0.885   4.631   3.820 -2.2780  0.3484  2.1905
  577MOL0     H79626   0.980   4.786   3.791 -0.7523  0.3070  0.2576
  578MOL0     O79627   4.499   7.087   1.739 -0.2785  0.7948  0.0259
  578MOL0     C79628   4.559   7.004   1.671 -0.2581 -0.0486  0.0938
  578MOL0     O79629   4.685   7.022   1.623  0.9193 -1.1575  0.4908
  578MOL0     C79630   4.723   7.155   1.617  0.5760  0.8368  0.2609
  578MOL0     C79631   4.658   7.248   1.532  0.9172  0.2273  0.7330
  578MOL0     C79632   4.711   7.375   1.531  0.0072  0.0183  1.0815
  578MOL0     C79633   4.818   7.417   1.606  0.3866 -0.7226 -0.1525
  578MOL0     O79634   4.866   7.548   1.577  0.2671 -0.4677 -0.3859
  578MOL0     C79635   4.957   7.607   1.676 -0.3829  0.2461  0.3367
  578MOL0     C79636   5.016   7.732   1.612  0.4755 -1.1348  0.5088
  578MOL0     C79637   4.926   7.855   1.637  1.0967  0.2052 -0.1066
  578MOL0     C79638   4.997   7.982   1.584  0.7660  0.2476  0.1967
  578MOL0     C79639   4.921   8.099   1.647  0.2484 -0.9022 -0.9655
  578MOL0     C79640   4.952   8.228   1.568 -0.2598  0.0269 -0.0952
  578MOL0     C79641   5.098   8.258   1.532  0.6215 -0.1947  0.2082
  578MOL0     C79642   5.169   8.330   1.655  0.0207  0.3220  0.1279
  578MOL0     N79643   5.153   8.475   1.644 -0.6824 -0.1885 -0.0459
  578MOL0     C79644   5.217   8.556   1.557  0.4012  0.4253  0.5066
  578MOL0     C79645   5.177   8.680   1.590 -0.0550 -0.2551 -0.2214
  578MOL0     C79646   5.236   8.804   1.525 -0.2077  0.1810 -0.0211
  578MOL0     C79647   5.365   8.860   1.592  0.0742  0.2701 -0.5317
  578MOL0     C79648   5.464   8.757   1.638  0.6052 -0.1862  0.0698
  578MOL0     C79649   5.603   8.814   1.683 -0.3971 -0.1698  0.0979
  578MOL0     O79650   5.696   8.710   1.701 -0.9534  0.0113  0.1420
  578MOL0     C79651   5.831   8.743   1.702  0.8160 -0.7142  0.7331
  578MOL0     C79652   5.878   8.860   1.759  0.2178 -0.4327  0.2001
  578MOL0     C79653   6.019   8.880   1.775  0.2945 -0.5205 -0.2234
  578MOL0     C79654   6.054   9.015   1.830  0.2241 -0.8399  0.7992
  578MOL0     C79655   6.113   8.777   1.742 -0.4940 -0.8662 -0.1057
  578MOL0     C79656   6.262   8.793   1.736  0.3381  0.5922 -0.4518
  578MOL0     O79657   6.325   8.679   1.705 -0.4440  0.6227  0.0447
  578MOL0     C79658   6.458   8.666   1.722 -0.0332 -1.0189  0.2695
  578MOL0     C79659   6.536   8.727   1.824  0.6063  0.7916 -0.1477
  578MOL0     C79660   6.675   8.696   1.814  0.2180 -0.2797  0.4464
  578MOL0     C79661   6.723   8.591   1.733 -1.7365  0.0354  0.8661
  578MOL0     O79662   6.862   8.559   1.740  0.1756  0.1000 -1.0207
  578MOL0     C79663   6.924   8.561   1.875 -0.1642 -0.0130  0.2161
  578MOL0     C79664   7.075   8.543   1.861  0.7965  0.7730 -0.2235
  578MOL0     C79665   7.155   8.543   1.990 -0.2489  0.1460 -0.5535
  578MOL0     C79666   7.299   8.534   1.957  0.4923 -1.0392  0.0827
  578MOL0     C79667   7.352   8.676   1.939  1.1914  0.7503 -0.4027
  578MOL0     C79668   7.499   8.682   1.965  0.7237  0.4930 -0.2239
  578MOL0     C79669   7.553   8.819   1.943  0.4862 -0.3886  0.6368
  578MOL0     C79670   7.566   8.871   1.799  0.0752 -0.1932 -0.3137
  578MOL0    Cl79671   7.655   9.041   1.798 -0.2190 -0.0180  0.0571
  578MOL0     C79672   6.641   8.520   1.643  0.1673 -0.6434 -0.7586
  578MOL0     C79673   6.507   8.557   1.643 -0.4230 -0.1928  0.9819
  578MOL0     O79674   6.311   8.901   1.737  0.3137 -0.2192 -0.9338
  578MOL0     C79675   6.060   8.659   1.687  0.3807 -0.3377 -0.1486
  578MOL0     C79676   5.925   8.644   1.671 -0.5533 -1.4607 -0.3852
  578MOL0     N79677   5.089   8.666   1.696  0.6395  0.8105  0.6512
  578MOL0     N79678   5.072   8.536   1.730  0.2782 -0.7561  0.2920
  578MOL0     C79679   4.873   7.329   1.700 -0.6059  0.0066 -0.1645
  578MOL0     C79680   4.825   7.196   1.714  0.8645 -0.0996 -0.3188
  578MOL0     C79681   4.503   6.867   1.659  0.1174 -0.7379 -0.3956
  578MOL0     C79682   4.579   6.774   1.594 -0.5477 -0.1777  0.1488
  578MOL0     C79683   4.537   6.640   1.581 -0.4513 -0.1326 -0.1472
  578MOL0     C79684   4.414   6.598   1.639 -0.1811 -0.1731 -0.4984
  578MOL0     O79685   4.367   6.472   1.640  0.0593 -0.9450  0.2818
  578MOL0     C79686   4.458   6.365   1.599  0.7566  0.8922  0.2809
  578MOL0     C79687   4.380   6.245   1.539  0.5410 -0.0439 -0.4798
  578MOL0     C79688   4.473   6.142   1.469 -0.2432  0.1643 -0.4572
  578MOL0     C79689   4.381   6.029   1.420 -0.1729 -0.1121  0.3641
  578MOL0     C79690   4.466   5.909   1.389  0.1870 -1.1192 -0.5230
  578MOL0     C79691   4.541   5.813   1.361 -0.6214  0.2761  0.4050
  578MOL0     C79692   4.334   6.692   1.701  1.0961 -0.1430 -0.1452
  578MOL0     C79693   4.374   6.826   1.719 -0.6055 -0.2681 -1.1488
  578MOL0     C79694   4.283   6.910   1.817 -0.2695 -0.3202  1.1168
  578MOL0     H79695   4.582   7.216   1.461  1.4213 -0.9284  0.6899
  578MOL0     H79696   4.669   7.447   1.460  3.0908  1.3866  0.5046
  578MOL0     H79697   5.036   7.539   1.709 -0.4428  0.6909  1.4281
  578MOL0     H79698   4.903   7.646   1.762 -1.3558  0.6829 -0.4470
  578MOL0     H79699   5.111   7.761   1.658  0.2981 -0.4355  0.4498
  578MOL0     H79700   5.029   7.715   1.505 -1.2738 -1.1210  0.2705
  578MOL0     H79701   4.831   7.834   1.587  1.2204  0.0103 -0.2603
  578MOL0     H79702   4.912   7.869   1.744  0.8202 -0.0753 -0.1037
  578MOL0     H79703   5.101   7.984   1.618  1.7438  3.5708 -2.3209
  578MOL0     H79704   4.990   7.986   1.474 -1.3087 -0.3584  0.2607
  578MOL0     H79705   4.963   8.107   1.748  0.4413 -0.6643 -1.0634
  578MOL0     H79706   4.815   8.074   1.649 -0.6047  2.2058  1.6784
  578MOL0     H79707   4.909   8.211   1.469  1.5169 -0.6238 -0.7861
  578MOL0     H79708   4.908   8.322   1.603  1.3321  1.3896 -1.6285
  578MOL0     H79709   5.096   8.312   1.437 -1.6708 -3.6623 -1.9153
  578MOL0     H79710   5.162   8.172   1.510  0.4328 -0.3645  0.3268
  578MOL0     H79711   5.141   8.294   1.754  1.0380  0.0668  0.3329
  578MOL0     H79712   5.274   8.299   1.655 -0.0548  0.0015 -0.9424
  578MOL0     H79713   5.292   8.529   1.482  1.3295  0.5826  1.3572
  578MOL0     H79714   5.162   8.883   1.521 -0.7922 -0.4155 -2.3497
  578MOL0     H79715   5.265   8.781   1.422 -0.7458  1.1258 -0.3910
  578MOL0     H79716   5.410   8.923   1.515 -2.6718 -0.5647 -2.9577
  578MOL0     H79717   5.333   8.919   1.678 -3.0871 -0.0081 -1.4107
  578MOL0     H79718   5.412   8.693   1.710  1.1384 -1.8631 -0.9793
  578MOL0     H79719   5.488   8.703   1.546  2.9495  2.3351 -0.9331
  578MOL0     H79720   5.634   8.883   1.604 -0.8045  1.8290  1.5996
  578MOL0     H79721   5.598   8.875   1.773  0.2761 -1.8320  1.3164
  578MOL0     H79722   5.823   8.946   1.798  1.0685  1.4862 -2.5111
  578MOL0     H79723   6.100   9.067   1.745 -3.5096  2.0593  0.2639
  578MOL0     H79724   6.128   8.993   1.908 -0.1145 -1.7171  0.8792
  578MOL0     H79725   5.980   9.080   1.879  1.0288 -1.5995  3.1879
  578MOL0     H79726   6.498   8.805   1.890  0.5029  0.2441  0.4464
  578MOL0     H79727   6.746   8.752   1.875  1.9381 -2.5517  0.6545
  578MOL0     H79728   6.899   8.648   1.937 -1.6688  1.8973 -2.7767
  578MOL0     H79729   6.880   8.472   1.920 -0.9336  0.6718  0.8596
  578MOL0     H79730   7.099   8.442   1.827  3.7347  1.1667  0.3414
  578MOL0     H79731   7.101   8.617   1.785  3.2392  1.2599  0.9431
  578MOL0     H79732   7.134   8.464   2.062 -2.6514  0.7744 -0.4840
  578MOL0     H79733   7.138   8.634   2.048  2.0633 -1.8576  3.7632
  578MOL0     H79734   7.320   8.476   1.866  2.1484  0.4027 -0.5062
  578MOL0     H79735   7.365   8.488   2.031  1.8733  0.6355 -0.0338
  578MOL0     H79736   7.328   8.714   1.839  1.6010 -1.7105 -1.5091
  578MOL0     H79737   7.310   8.736   2.019 -0.7990  0.3023 -1.0599
  578MOL0     H79738   7.554   8.601   1.916 -0.1629 -1.3469  1.6465
  578MOL0     H79739   7.501   8.669   2.074 -0.2360 -3.5538 -0.5471
  578MOL0     H79740   7.655   8.820   1.984  2.3707  2.3621 -3.4219
  578MOL0     H79741   7.497   8.893   1.999 -1.0957 -1.0214 -0.0604
  578MOL0     H79742   7.467   8.900   1.763  0.4467  1.3562 -0.1544
  578MOL0     H79743   7.608   8.806   1.721  0.5808  0.8127 -0.8936
  578MOL0     H79744   6.680   8.434   1.589 -0.6118 -2.1689  0.9684
  578MOL0     H79745   6.428   8.524   1.575 -0.0709 -0.7997  0.8600
  578MOL0     H79746   6.118   8.582   1.638  1.1253 -0.1623  0.4381
  578MOL0     H79747   5.891   8.555   1.619 -0.4607 -1.4306 -0.4957
  578MOL0     H79748   4.953   7.365   1.765  0.1066  3.8134 -2.8149
  578MOL0     H79749   4.863   7.121   1.782  4.2449  2.4553  0.9151
  578MOL0     H79750   4.672   6.798   1.545 -0.6331  0.2224  0.1781
  578MOL0     H79751   4.591   6.573   1.515  0.9093 -1.4247  2.1262
  578MOL0     H79752   4.529   6.397   1.521  2.0938  1.0624  1.5167
  578MOL0     H79753   4.522   6.342   1.685 -0.8678  3.8395  2.4379
  578MOL0     H79754   4.305   6.273   1.465  0.0589  1.8733  0.6643
  578MOL0     H79755   4.340   6.201   1.631 -2.8045  3.0185 -0.2686
  578MOL0     H79756   4.537   6.190   1.394  1.9351  0.7635  1.6682
  578MOL0     H79757   4.542   6.090   1.536  0.6389  0.8195 -0.8291
  578MOL0     H79758   4.323   6.052   1.330 -1.9975  0.5491  1.6487
  578MOL0     H79759   4.301   6.010   1.492  0.0002  1.6000  1.0678
  578MOL0     H79760   4.597   5.723   1.342  0.7444  1.3859 -1.0109
  578MOL0     H79761   4.240   6.646   1.729  0.3352  0.1933 -2.0076
  578MOL0     H79762   4.274   7.012   1.779  2.0284  0.3171  2.1145
  578MOL0     H79763   4.193   6.852   1.837  1.0196 -3.4605 -1.3730
  578MOL0     H79764   4.346   6.918   1.907  0.8253 -0.4967  0.3750
  579MOL0     O79765   3.419   4.679   4.050  0.4393  0.2990  0.1803
  579MOL0     C79766   3.379   4.568   4.088  0.3907 -0.2785  0.9025
  579MOL0     O79767   3.452   4.487   4.167 -0.0514  0.3470  0.3029
  579MOL0     C79768   3.584   4.527   4.205 -0.1128 -0.6088 -0.0556
  579MOL0     C79769   3.597   4.636   4.293  0.6300  0.4438 -0.2519
  579MOL0     C79770   3.717   4.693   4.327 -0.5527  0.4359 -0.5156
  579MOL0     C79771   3.831   4.644   4.266  0.1994 -0.3206 -0.5086
  579MOL0     O79772   3.946   4.725   4.298  0.2617  0.9371  0.3645
  579MOL0     C79773   4.075   4.689   4.249 -0.1525  0.2651 -0.6657
  579MOL0     C79774   4.195   4.758   4.332  0.8964 -0.2495 -0.3584
  579MOL0     C79775   4.326   4.692   4.336  0.1557  0.4232  0.5859
  579MOL0     C79776   4.390   4.677   4.195 -0.4284 -0.1663  0.5273
  579MOL0     C79777   4.534   4.632   4.214 -0.0301 -0.1736  1.0106
  579MOL0     C79778   4.593   4.601   4.066  0.2017 -0.5211 -0.8381
  579MOL0     C79779   4.697   4.480   4.064  1.2250  0.2131 -0.6177
  579MOL0     C79780   4.757   4.465   3.928 -0.3663  0.0529 -0.3163
  579MOL0     N79781   4.840   4.342   3.912 -0.0825  1.8416  0.4284
  579MOL0     C79782   4.963   4.309   3.958 -0.7303  1.4495 -0.7008
  579MOL0     C79783   4.964   4.173   3.943  0.0233 -0.0971  0.3393
  579MOL0     C79784   5.085   4.077   3.945  0.1862  0.2340 -0.6553
  579MOL0     C79785   5.179   4.120   3.827 -0.7159  0.4123  0.4637
  579MOL0     C79786   5.258   4.000   3.778  0.1049 -0.3313  0.1354
  579MOL0     C79787   5.368   4.021   3.673 -0.2701 -0.3294 -0.2987
  579MOL0     O79788   5.310   4.050   3.550 -0.1775 -0.2576  0.2570
  579MOL0     C79789   5.412   4.103   3.466  0.4581  0.2940 -0.6805
  579MOL0     C79790   5.488   4.023   3.390 -0.2465  0.2442 -0.5343
  579MOL0     C79791   5.576   4.075   3.293 -0.0697  0.9175  1.2010
  579MOL0     C79792   5.642   3.984   3.201 -0.7518 -0.2516 -0.1797
  579MOL0     C79793   5.595   4.215   3.285 -0.5013 -0.0367  0.3093
  579MOL0     C79794   5.675   4.273   3.176  0.4523  0.2349  0.5275
  579MOL0     O79795   5.690   4.416   3.184  0.5855  0.1024  0.3178
  579MOL0     C79796   5.814   4.466   3.142  0.4363 -0.4429 -0.1917
  579MOL0     C79797   5.816   4.599   3.091  0.3422  1.4924 -0.7349
  579MOL0     C79798   5.939   4.645   3.052 -1.4410 -0.1574  0.3003
  579MOL0     C79799   6.053   4.559   3.042  0.1790 -0.3520  1.0213
  579MOL0     O79800   6.176   4.594   2.989  1.0446 -0.4179  0.7939
  579MOL0     C79801   6.290   4.577   3.067 -0.0907  0.2761 -0.3963
  579MOL0     C79802   6.291   4.686   3.175 -0.1072  0.2390  0.4611
  579MOL0     C79803   6.338   4.825   3.108  0.1281 -0.1485 -0.1180
  579MOL0     C79804   6.349   4.931   3.222 -0.3284 -0.4643 -0.1436
  579MOL0     C79805   6.355   5.080   3.189 -0.7642  0.2186 -0.3149
  579MOL0     C79806   6.428   5.176   3.290 -0.4071 -0.2539 -0.6197
  579MOL0     C79807   6.565   5.131   3.336  0.0939  0.5101  0.0416
  579MOL0     C79808   6.661   5.138   3.212 -0.0542 -0.0226  0.3293
  579MOL0    Cl79809   6.819   5.052   3.265  0.8406  0.0089  0.0755
  579MOL0     C79810   6.045   4.429   3.095  0.0915 -0.0244 -0.3047
  579MOL0     C79811   5.923   4.387   3.144 -0.5154  0.3308 -0.1061
  579MOL0     O79812   5.694   4.217   3.071  0.2343  0.8236 -0.5567
  579MOL0     C79813   5.518   4.303   3.366 -0.1747  0.1045  0.2212
  579MOL0     C79814   5.426   4.239   3.452  0.5744 -0.2663 -0.1002
  579MOL0     N79815   4.846   4.130   3.893  0.7488 -0.4573  0.0266
  579MOL0     N79816   4.774   4.231   3.875  0.3773  0.7633 -0.6826
  579MOL0     C79817   3.822   4.535   4.183  0.1607  0.9008  0.1340
  579MOL0     C79818   3.699   4.470   4.155 -0.1922 -0.4220  0.5844
  579MOL0     C79819   3.248   4.512   4.029  0.4422 -0.5933 -0.1818
  579MOL0     C79820   3.189   4.408   4.098  1.5604  0.8898 -0.9889
  579MOL0     C79821   3.064   4.361   4.056  0.0462  0.3705  0.4350
  579MOL0     C79822   2.990   4.406   3.945  0.4440  0.6705 -0.4554
  579MOL0     O79823   2.880   4.332   3.910  0.3094 -0.1052 -1.3427
  579MOL0     C79824   2.851   4.333   3.769 -0.6163  0.4683 -0.3224
  579MOL0     C79825   2.759   4.214   3.731  0.0351  0.3756 -0.0197
  579MOL0     C79826   2.825   4.081   3.756 -0.3206  0.3441  0.0923
  579MOL0     C79827   2.798   3.991   3.634  0.5607 -0.1034  0.4497
  579MOL0     C79828   2.660   4.001   3.576 -0.5051  0.0369  0.6635
  579MOL0     C79829   2.548   4.036   3.530 -0.1272  0.6508 -0.8299
  579MOL0     C79830   3.054   4.515   3.877 -0.1838  0.1704  0.4122
  579MOL0     C79831   3.172   4.571   3.926 -0.8069 -0.2443 -0.3772
  579MOL0     C79832   3.224   4.679   3.844 -0.3508 -0.2423 -0.2569
  579MOL0     H79833   3.505   4.667   4.340  2.0814  2.3117  1.5549
  579MOL0     H79834   3.724   4.775   4.397 -1.0103 -1.9491  2.5096
  579MOL0     H79835   4.079   4.724   4.145  1.2726 -1.0156 -1.0870
  579MOL0     H79836   4.091   4.582   4.269  1.7081  0.7385  0.6749
  579MOL0     H79837   4.222   4.851   4.280  2.7743 -1.2367 -1.2164
  579MOL0     H79838   4.153   4.774   4.433  0.9715  3.4991 -0.7575
  579MOL0     H79839   4.393   4.738   4.410  2.6082  0.7340 -1.6964
  579MOL0     H79840   4.303   4.592   4.373  0.6689  0.0211 -0.1721
  579MOL0     H79841   4.335   4.613   4.125  2.8034 -4.6625  1.6397
  579MOL0     H79842   4.380   4.774   4.147 -2.5036 -1.1033 -1.1278
  579MOL0     H79843   4.538   4.539   4.271 -1.8779 -1.2024 -0.4320
  579MOL0     H79844   4.599   4.714   4.248 -0.7127  0.3390  1.1055
  579MOL0     H79845   4.513   4.581   3.994 -2.4861  3.8872  0.4827
  579MOL0     H79846   4.647   4.693   4.042  0.4436 -0.0755  1.2164
  579MOL0     H79847   4.636   4.391   4.084  0.4859 -0.2281 -4.2446
  579MOL0     H79848   4.779   4.487   4.136 -0.6138 -0.7895  1.7068
  579MOL0     H79849   4.671   4.467   3.860 -1.7321 -0.0382  1.3152
  579MOL0     H79850   4.824   4.545   3.895 -0.5085  1.5081  2.5989
  579MOL0     H79851   5.042   4.382   3.976 -0.6501  1.4921 -1.2218
  579MOL0     H79852   5.042   3.982   3.913 -2.4576  1.4229 -0.9210
  579MOL0     H79853   5.124   4.068   4.046 -1.0325  0.0794 -0.1878
  579MOL0     H79854   5.114   4.152   3.745 -0.0589 -1.7310 -0.9665
  579MOL0     H79855   5.242   4.204   3.858 -1.6682  1.6976 -0.9541
  579MOL0     H79856   5.313   3.958   3.863  0.6644  2.0137  1.0150
  579MOL0     H79857   5.186   3.928   3.737  0.4360  0.4650 -2.0066
  579MOL0     H79858   5.441   4.094   3.711  0.8671 -0.6453 -1.7762
  579MOL0     H79859   5.424   3.927   3.668  1.1986  0.5370 -0.9682
  579MOL0     H79860   5.475   3.915   3.387 -0.5750  0.2944 -3.0012
  579MOL0     H79861   5.595   3.979   3.102 -1.2519 -1.7010  0.1098
  579MOL0     H79862   5.648   3.880   3.234  2.3828  0.9726  3.9248
  579MOL0     H79863   5.747   4.012   3.198 -0.9365  0.9505  2.3217
  579MOL0     H79864   5.734   4.669   3.105 -2.8967 -2.4427  2.5651
  579MOL0     H79865   5.945   4.751   3.030  0.5798 -0.1603  0.6039
  579MOL0     H79866   6.302   4.480   3.117  0.9018 -0.4057 -1.8868
  579MOL0     H79867   6.376   4.587   2.999 -0.8714  1.1549 -1.2782
  579MOL0     H79868   6.198   4.687   3.232  0.2230  0.6904  0.9913
  579MOL0     H79869   6.371   4.653   3.241  0.0423 -3.1831 -1.1844
  579MOL0     H79870   6.262   4.862   3.038  1.1466  2.5472  0.0705
  579MOL0     H79871   6.437   4.816   3.063  0.3466 -3.7669  0.7797
  579MOL0     H79872   6.436   4.895   3.278 -0.1288 -2.8832 -1.8569
  579MOL0     H79873   6.263   4.927   3.288  1.1104  0.4261  1.8938
  579MOL0     H79874   6.387   5.092   3.085 -0.0013 -3.7086 -0.6850
  579MOL0     H79875   6.250   5.112   3.184 -0.2980  1.6509 -1.5988
  579MOL0     H79876   6.364   5.187   3.379 -1.1725  0.6936 -1.2660
  579MOL0     H79877   6.422   5.278   3.251 -1.5255  0.3604  1.0451
  579MOL0     H79878   6.562   5.035   3.389  1.3221  0.6151  0.3217
  579MOL0     H79879   6.605   5.193   3.416 -0.6620  1.5438 -0.3634
  579MOL0     H79880   6.673   5.238   3.169  2.1903 -1.2362 -2.1609
  579MOL0     H79881   6.617   5.083   3.128  2.5451 -0.8329 -0.6231
  579MOL0     H79882   6.119   4.350   3.090 -0.3524 -0.5641  1.1348
  579MOL0     H79883   5.934   4.280   3.159 -1.7571  0.5483  3.2387
  579MOL0     H79884   5.517   4.411   3.356  0.3593  0.1534  0.6588
  579MOL0     H79885   5.363   4.296   3.520 -1.1896 -0.0979 -1.7809
  579MOL0     H79886   3.912   4.500   4.134  1.0188  3.1904 -0.0636
  579MOL0     H79887   3.698   4.390   4.081  0.1725  1.4736 -1.6132
  579MOL0     H79888   3.231   4.356   4.184 -0.8518  2.8940  1.5526
  579MOL0     H79889   3.031   4.280   4.119  1.6323 -2.0964 -1.6997
  579MOL0     H79890   2.802   4.422   3.728 -2.1222  0.0164  0.4161
  579MOL0     H79891   2.939   4.324   3.705 -0.3850  0.0881  0.0393
  579MOL0     H79892   2.726   4.239   3.630 -0.1696 -2.4811 -0.7263
  579MOL0     H79893   2.666   4.223   3.788  0.4439  4.2791  0.2845
  579MOL0     H79894   2.932   4.097   3.775 -0.7456  0.6569  2.4341
  579MOL0     H79895   2.787   4.040   3.850  2.8087  0.1432  1.4037
  579MOL0     H79896   2.817   3.887   3.661 -1.6633 -0.0992  2.3089
  579MOL0     H79897   2.870   4.022   3.557 -0.7095  1.2723 -0.2309
  579MOL0     H79898   2.463   4.072   3.476  0.4556  0.7372 -1.7162
  579MOL0     H79899   3.005   4.542   3.783 -1.0432 -4.2120 -0.6152
  579MOL0     H79900   3.214   4.653   3.738  1.0762 -0.0803 -0.4533
  579MOL0     H79901   3.161   4.768   3.848  2.0045  1.6097 -1.4800
  579MOL0     H79902   3.329   4.710   3.846 -1.2638  3.9344 -3.1350
  580MOL0     O79903   2.448   7.755   7.744  0.2970 -0.5523  0.9962
  580MOL0     C79904   2.395   7.854   7.790  1.1142  0.6175 -0.1558
  580MOL0     O79905   2.460   7.963   7.841 -0.1556  0.7684  0.4440
  580MOL0     C79906   2.603   7.960   7.852 -0.2754 -0.0968 -0.5933
  580MOL0     C79907   2.692   7.848   7.852  0.6401  1.0323  0.3757
  580MOL0     C79908   2.827   7.859   7.874  0.1196  0.1743 -0.5240
  580MOL0     C79909   2.890   7.985   7.903  1.0123  0.4804  1.2987
  580MOL0     O79910   3.026   7.997   7.933  0.4608 -0.2990  0.0534
  580MOL0     C79911   3.077   7.907   8.030 -0.3073  0.1813 -0.2028
  580MOL0     C79912   3.210   7.859   7.979 -0.2534  1.0086 -0.1681
  580MOL0     C79913   3.288   7.759   8.072  0.3402  1.1051 -0.4723
  580MOL0     C79914   3.434   7.744   8.028  0.5518  0.4740  0.9761
  580MOL0     C79915   3.519   7.645   8.110 -0.2083 -0.8130 -0.8646
  580MOL0     C79916   3.635   7.604   8.025 -1.3032 -0.3551  0.2893
  580MOL0     C79917   3.755   7.532   8.091  0.3971  0.6549  0.0699
  580MOL0     C79918   3.715   7.395   8.148 -0.1633 -0.7978 -0.4774
  580MOL0     N79919   3.674   7.311   8.045  0.5230  0.2302  0.1120
  580MOL0     C79920   3.758   7.269   7.941  0.3241  0.8073 -0.1873
  580MOL0     C79921   3.661   7.211   7.854 -0.7772 -1.3471  0.7797
  580MOL0     C79922   3.688   7.136   7.730 -0.9668  0.5174  1.3236
  580MOL0     C79923   3.689   7.203   7.593  0.8202 -0.6407 -0.6811
  580MOL0     C79924   3.749   7.117   7.479  0.0803 -0.2893  0.0582
  580MOL0     C79925   3.726   7.178   7.340 -0.3814  0.7555 -0.1044
  580MOL0     O79926   3.807   7.098   7.248  0.8347 -0.4792  0.1744
  580MOL0     C79927   3.856   7.165   7.135 -0.4777 -0.8533  0.8071
  580MOL0     C79928   3.980   7.130   7.083  0.6266  0.7670  0.0076
  580MOL0     C79929   4.029   7.186   6.960 -1.1938  0.2129 -0.1231
  580MOL0     C79930   4.165   7.128   6.911 -0.0801 -0.9595 -0.4135
  580MOL0     C79931   3.964   7.297   6.906  1.1231 -0.7788  0.9018
  580MOL0     C79932   4.003   7.350   6.773 -0.5450  0.1010 -0.1512
  580MOL0     O79933   3.928   7.464   6.745 -0.1581  0.1283  0.5336
  580MOL0     C79934   3.957   7.525   6.623  0.0961 -0.9820  0.2288
  580MOL0     C79935   4.058   7.632   6.608 -0.9512 -0.4030  0.0036
  580MOL0     C79936   4.073   7.694   6.479 -0.2713  0.5420 -0.2955
  580MOL0     C79937   3.984   7.665   6.376  0.5916  0.5378 -0.6346
  580MOL0     O79938   4.008   7.720   6.255  0.0529 -0.1911  0.6605
  580MOL0     C79939   3.907   7.698   6.152  0.2832  0.4219  0.3949
  580MOL0     C79940   3.939   7.765   6.014 -0.1673 -0.6547 -0.4371
  580MOL0     C79941   3.919   7.925   6.020  0.5963  0.2637  0.4056
  580MOL0     C79942   3.928   7.991   5.891  0.0674 -0.9175  0.6140
  580MOL0     C79943   3.901   8.150   5.895  0.0424  0.2985 -0.4522
  580MOL0     C79944   3.942   8.210   5.759  0.2714 -0.5068 -0.1468
  580MOL0     C79945   3.875   8.164   5.637  1.4771 -0.1811 -0.4926
  580MOL0     C79946   3.721   8.181   5.649  0.4060 -0.2788 -0.2500
  580MOL0    Cl79947   3.628   8.047   5.739 -0.0574  0.2148  0.2080
  580MOL0     C79948   3.881   7.576   6.399 -0.6321 -0.6794  0.3835
  580MOL0     C79949   3.869   7.503   6.518 -0.6056 -0.6344  0.3058
  580MOL0     O79950   4.063   7.280   6.688  0.0407 -0.0739 -1.2311
  580MOL0     C79951   3.858   7.356   6.978 -0.3180 -1.1600 -0.8320
  580MOL0     C79952   3.804   7.279   7.082  0.5920 -1.0935 -0.6270
  580MOL0     N79953   3.532   7.223   7.911 -0.1093  0.5059 -0.8663
  580MOL0     N79954   3.539   7.282   8.026 -0.2507  0.0959 -0.0900
  580MOL0     C79955   2.803   8.099   7.909  0.4624 -0.6904  0.9669
  580MOL0     C79956   2.665   8.079   7.894 -0.4505 -0.9628 -0.0324
  580MOL0     C79957   2.253   7.828   7.816  0.5709  0.7625  0.6390
  580MOL0     C79958   2.175   7.761   7.707 -1.0785  0.7688 -0.2985
  580MOL0     C79959   2.036   7.762   7.722  0.0997 -0.0303 -0.2293
  580MOL0     C79960   1.972   7.797   7.838 -0.0638 -0.6392  0.0240
  580MOL0     O79961   1.830   7.782   7.848 -0.7214  0.1908 -0.2513
  580MOL0     C79962   1.752   7.803   7.732 -0.5718 -0.1509  0.1374
  580MOL0     C79963   1.604   7.814   7.747 -0.3832  0.4473 -0.8435
  580MOL0     C79964   1.551   7.934   7.830 -1.0034 -0.7827  0.4155
  580MOL0     C79965   1.545   8.078   7.773  1.1259 -0.5158 -0.5758
  580MOL0     C79966   1.650   8.160   7.820  0.0849 -0.2884  0.1068
  580MOL0     C79967   1.723   8.221   7.894 -0.5825 -0.2086 -0.5152
  580MOL0     C79968   2.045   7.843   7.945  0.3210 -0.1839  0.4321
  580MOL0     C79969   2.183   7.867   7.930 -0.2794 -0.9725 -0.8941
  580MOL0     C79970   2.254   7.950   8.040  0.3936 -0.1392 -0.5972
  580MOL0     H79971   2.655   7.748   7.833 -0.9680  1.4587  1.0643
  580MOL0     H79972   2.889   7.770   7.872 -1.3085 -0.9235  0.9559
  580MOL0     H79973   3.016   7.818   8.048  1.3273 -0.6446  1.4851
  580MOL0     H79974   3.079   7.963   8.124 -3.1957 -0.2710  0.2372
  580MOL0     H79975   3.182   7.806   7.888  3.5304  0.0391 -0.9306
  580MOL0     H79976   3.273   7.946   7.961  0.4703  0.9155  1.7166
  580MOL0     H79977   3.283   7.795   8.175  0.1853  1.6401 -0.6645
  580MOL0     H79978   3.246   7.658   8.066  0.3226  1.0537  0.4752
  580MOL0     H79979   3.424   7.681   7.939  2.4056 -0.3497  1.3167
  580MOL0     H79980   3.480   7.841   8.008  1.2212  0.0748  0.5567
  580MOL0     H79981   3.465   7.552   8.129 -0.1863 -0.3162  2.2080
  580MOL0     H79982   3.535   7.690   8.208 -0.1473 -1.1030 -0.7413
  580MOL0     H79983   3.597   7.550   7.937 -1.0983  2.8591 -1.9647
  580MOL0     H79984   3.686   7.693   7.989 -0.1645 -0.6528  1.1032
  580MOL0     H79985   3.787   7.594   8.174 -0.0249  2.0080 -0.7542
  580MOL0     H79986   3.837   7.511   8.021 -2.9917 -7.6260 -2.7683
  580MOL0     H79987   3.792   7.344   8.207 -0.2380 -2.5933 -1.8498
  580MOL0     H79988   3.636   7.416   8.221 -0.4491 -1.7730 -0.5002
  580MOL0     H79989   3.865   7.248   7.934  0.3218  0.4189  0.7866
  580MOL0     H79990   3.610   7.060   7.735 -0.7855  0.0501 -1.4077
  580MOL0     H79991   3.789   7.098   7.743 -1.7898 -2.9454 -1.0206
  580MOL0     H79992   3.581   7.218   7.580  0.2189 -3.3718  0.3878
  580MOL0     H79993   3.752   7.292   7.597 -0.2547  0.3044 -3.1633
  580MOL0     H79994   3.856   7.108   7.497  0.0460  1.8600  1.7605
  580MOL0     H79995   3.722   7.012   7.494  1.3195 -0.5019  1.0416
  580MOL0     H79996   3.621   7.170   7.312 -0.1450 -0.2095 -0.7440
  580MOL0     H79997   3.745   7.286   7.335  1.0675  0.6699  2.1064
  580MOL0     H79998   4.014   7.039   7.133 -1.7657  0.6950  1.6545
  580MOL0     H79999   4.154   7.072   6.818 -1.2643 -3.0506  0.9072
  580MOL0     H80000   4.212   7.059   6.982  2.4002 -0.6845 -1.6895
  580MOL0     H80001   4.241   7.205   6.897 -0.5328 -0.7680 -2.0943
  580MOL0     H80002   4.135   7.643   6.683 -2.5310 -1.8416  1.9320
  580MOL0     H80003   4.160   7.758   6.466  0.5284 -0.6206 -0.8488
  580MOL0     H80004   3.907   7.589   6.143  0.3059  0.5529 -1.5476
  580MOL0     H80005   3.813   7.735   6.193  1.4004 -0.7574  4.5461
  580MOL0     H80006   4.037   7.736   5.975  1.0227  2.1416  0.1954
  580MOL0     H80007   3.850   7.733   5.959 -3.4631  1.2648  3.2634
  580MOL0     H80008   3.994   7.988   6.070 -3.1302  4.6936  1.0801
  580MOL0     H80009   3.815   7.944   6.047  0.2154 -1.8096  0.5736
  580MOL0     H80010   3.864   7.944   5.817 -0.7074 -0.2502  0.8502
  580MOL0     H80011   4.034   7.977   5.866  0.3967 -0.2427  1.5378
  580MOL0     H80012   3.805   8.187   5.932  1.0451  1.4173  1.1557
  580MOL0     H80013   3.971   8.195   5.966 -0.4507  0.7225 -0.2316
  580MOL0     H80014   4.050   8.207   5.745 -0.1056 -1.5050 -3.8379
  580MOL0     H80015   3.916   8.317   5.767  0.1122 -0.6134  0.9122
  580MOL0     H80016   3.899   8.057   5.631  0.3316 -0.6228  1.6997
  580MOL0     H80017   3.909   8.224   5.553  0.3223 -0.3560 -1.1074
  580MOL0     H80018   3.686   8.177   5.546  2.2646 -0.7868 -0.8906
  580MOL0     H80019   3.706   8.279   5.695  1.2905  0.1205 -0.7834
  580MOL0     H80020   3.798   7.565   6.330 -1.1829  0.9197  0.7476
  580MOL0     H80021   3.784   7.437   6.525 -2.1069  1.3146  1.5383
  580MOL0     H80022   3.816   7.453   6.954 -0.5811 -0.0222  3.4407
  580MOL0     H80023   3.718   7.326   7.130 -0.0494  1.4247 -3.8720
  580MOL0     H80024   2.844   8.184   7.961 -0.7438 -0.7146  2.0134
  580MOL0     H80025   2.597   8.162   7.911  0.2691  0.0910 -1.9850
  580MOL0     H80026   2.220   7.732   7.613 -1.0437  0.5132 -0.2017
  580MOL0     H80027   1.983   7.717   7.639  0.3539  1.0001 -0.9594
  580MOL0     H80028   1.804   7.891   7.694  2.5116 -1.5063  0.8675
  580MOL0     H80029   1.756   7.714   7.669  1.4438  0.4404 -0.6400
  580MOL0     H80030   1.575   7.720   7.793 -1.2735  1.3132  0.4252
  580MOL0     H80031   1.562   7.807   7.646 -2.3570 -0.5499  0.0114
  580MOL0     H80032   1.445   7.917   7.850 -1.1058  0.9740  1.5852
  580MOL0     H80033   1.591   7.938   7.931  0.2175  0.2437 -0.0786
  580MOL0     H80034   1.461   8.134   7.815  1.3526 -1.0651  0.6602
  580MOL0     H80035   1.533   8.081   7.664 -2.1078  1.7242 -0.2878
  580MOL0     H80036   1.802   8.262   7.953 -0.8488  0.6597 -0.7333
  580MOL0     H80037   1.996   7.875   8.036 -2.4685 -0.3882 -0.8614
  580MOL0     H80038   2.209   7.918   8.134 -1.1793  1.5453 -0.7233
  580MOL0     H80039   2.363   7.943   8.045  0.5456  1.7296 -0.3765
  580MOL0     H80040   2.228   8.056   8.031 -1.5644 -0.5687 -0.3208
  581MOL0     O80041   6.472   9.962   2.461 -1.2791 -0.1042 -0.0924
  581MOL0     C80042   6.452  10.060   2.377 -0.2691 -0.1932  0.4309
  581MOL0     O80043   6.542  10.154   2.335  0.4471  0.1770  0.4318
  581MOL0     C80044   6.670  10.149   2.382  0.0858 -0.3053 -1.1799
  581MOL0     C80045   6.773  10.160   2.286 -0.0424  0.6672  0.0624
  581MOL0     C80046   6.908  10.157   2.321 -0.0142  0.3193  0.0623
  581MOL0     C80047   6.937  10.148   2.463  0.2968  0.1699  0.0063
  581MOL0     O80048   7.066  10.140   2.510  0.3301 -0.1272  0.0334
  581MOL0     C80049   7.125  10.004   2.497  0.4313  0.3237  0.1682
  581MOL0     C80050   7.268   9.993   2.547 -0.1792  0.9251 -0.7226
  581MOL0     C80051   7.370  10.112   2.509 -0.2065  0.1331  0.1797
  581MOL0     C80052   7.500  10.131   2.591  0.5964 -0.0115  0.6611
  581MOL0     C80053   7.479  10.188   2.734 -0.6667 -0.5379 -0.4866
  581MOL0     C80054   7.629  10.200   2.780 -0.1452  0.0047 -0.3651
  581MOL0     C80055   7.656  10.268   2.918  0.9913  0.9074  0.3733
  581MOL0     C80056   7.800  10.299   2.941  0.7460 -0.0198 -0.1051
  581MOL0     N80057   7.881  10.195   2.999  0.5458 -0.3258  0.2796
  581MOL0     C80058   7.873  10.161   3.133  0.4669 -0.2833  0.1531
  581MOL0     C80059   7.973  10.077   3.148 -0.7768 -0.1005 -0.4490
  581MOL0     C80060   8.019  10.020   3.274 -0.6075  0.5067  0.4625
  581MOL0     C80061   7.950   9.883   3.298  0.4885  0.9052 -0.4290
  581MOL0     C80062   7.802   9.884   3.329  0.0550 -0.2928  0.2082
  581MOL0     C80063   7.765   9.965   3.451  0.4215 -1.0682 -0.1234
  581MOL0     O80064   7.804   9.907   3.577  0.3175  0.8402 -0.4816
  581MOL0     C80065   7.744   9.787   3.624 -0.6517 -0.3169  0.6167
  581MOL0     C80066   7.625   9.736   3.570  0.2097 -0.1828  0.1009
  581MOL0     C80067   7.569   9.617   3.611  0.1572 -0.7634 -0.0542
  581MOL0     C80068   7.437   9.581   3.551 -0.6995  0.6510  0.1934
  581MOL0     C80069   7.623   9.552   3.721 -0.8529  0.4173  0.5286
  581MOL0     C80070   7.553   9.443   3.800 -0.7542  0.9172 -0.0158
  581MOL0     O80071   7.611   9.409   3.925 -0.6216  0.7047 -0.1118
  581MOL0     C80072   7.597   9.277   3.976 -0.8158 -0.5250 -0.3610
  581MOL0     C80073   7.581   9.167   3.897 -0.4405  0.3658  0.6215
  581MOL0     C80074   7.543   9.049   3.962  0.2986  0.2239 -0.8983
  581MOL0     C80075   7.536   9.035   4.111  0.4120 -1.9393  0.0275
  581MOL0     O80076   7.489   8.937   4.186  0.2558  0.2147 -0.4816
  581MOL0     C80077   7.497   8.799   4.144  0.3218  0.2691 -0.3853
  581MOL0     C80078   7.387   8.712   4.221  0.3385  0.0715  0.2903
  581MOL0     C80079   7.440   8.658   4.360  1.4004 -0.9951 -0.4905
  581MOL0     C80080   7.359   8.558   4.433 -0.3163  0.0286 -0.1991
  581MOL0     C80081   7.361   8.575   4.583  0.0840  0.3458  0.0776
  581MOL0     C80082   7.504   8.551   4.648  0.5102  0.2050 -1.1829
  581MOL0     C80083   7.507   8.568   4.803 -0.7696 -0.4496  0.8998
  581MOL0     C80084   7.423   8.680   4.849 -0.8215  0.1243 -0.2123
  581MOL0    Cl80085   7.473   8.740   5.018  0.2676  0.1490  0.7725
  581MOL0     C80086   7.556   9.156   4.178 -0.8729  0.4441  0.0325
  581MOL0     C80087   7.590   9.274   4.116  0.8102 -0.6634 -0.4393
  581MOL0     O80088   7.450   9.392   3.755 -0.7013 -0.1220 -0.1805
  581MOL0     C80089   7.743   9.610   3.770  0.3007 -0.1454 -0.9873
  581MOL0     C80090   7.806   9.720   3.719  0.6908  0.0428 -1.9156
  581MOL0     N80091   8.024  10.040   3.028  0.8410 -0.1033 -0.3386
  581MOL0     N80092   7.971  10.113   2.935 -0.3440 -0.0992  0.4630
  581MOL0     C80093   6.841  10.156   2.559  0.1969  0.5342  0.8279
  581MOL0     C80094   6.701  10.163   2.516  0.5327  0.0174  0.4235
  581MOL0     C80095   6.309  10.073   2.331 -0.5502  0.0788 -0.0451
  581MOL0     C80096   6.263  10.201   2.307 -0.2610 -0.1729  0.4573
  581MOL0     C80097   6.136  10.236   2.274  0.6168  0.7419  0.5032
  581MOL0     C80098   6.042  10.135   2.260 -0.9079  0.0046  0.6407
  581MOL0     O80099   5.916  10.157   2.218  0.4883  0.0001 -0.8382
  581MOL0     C80100   5.879  10.299   2.194 -0.1373 -0.4875 -0.9706
  581MOL0     C80101   5.726  10.307   2.205 -0.5654  0.1593  0.0219
  581MOL0     C80102   5.656  10.245   2.089  0.0426  0.5451 -0.4106
  581MOL0     C80103   5.503  10.235   2.109  0.2268 -0.7890  0.5099
  581MOL0     C80104   5.463  10.377   2.098 -0.4482  0.2176  0.3579
  581MOL0     C80105   5.458  10.502   2.105 -0.4034  0.8415  0.5755
  581MOL0     C80106   6.087  10.004   2.284  0.4792 -0.0158  0.1605
  581MOL0     C80107   6.215   9.970   2.327 -0.4450 -0.6070  0.0403
  581MOL0     C80108   6.252   9.825   2.334  0.5990 -0.2900  0.6540
  581MOL0     H80109   6.740  10.186   2.186 -1.3968  2.3099  0.9088
  581MOL0     H80110   6.992  10.157   2.252  0.7934  0.9210  1.0199
  581MOL0     H80111   7.120   9.983   2.389  0.5454  4.1910 -0.7163
  581MOL0     H80112   7.067   9.927   2.550  0.9614 -0.0526  0.2073
  581MOL0     H80113   7.261   9.983   2.655 -1.3965 -0.9175 -0.9119
  581MOL0     H80114   7.310   9.893   2.530  0.9267  0.9370  1.5809
  581MOL0     H80115   7.404  10.083   2.410  1.5949  0.8682  0.5380
  581MOL0     H80116   7.306  10.201   2.505 -0.4295 -0.0634 -1.4753
  581MOL0     H80117   7.560  10.040   2.587  0.6250  0.0247  0.0767
  581MOL0     H80118   7.561  10.205   2.538  0.6690 -2.0271 -2.3345
  581MOL0     H80119   7.415  10.128   2.798 -1.3711  1.9735  1.3317
  581MOL0     H80120   7.434  10.287   2.746  0.0544 -0.4984  2.5444
  581MOL0     H80121   7.682  10.106   2.790  2.0965  1.3572  1.5620
  581MOL0     H80122   7.686  10.257   2.707 -4.2507  1.0188 -3.1110
  581MOL0     H80123   7.610  10.197   2.987  0.5748 -0.5354 -1.3249
  581MOL0     H80124   7.598  10.360   2.906 -0.2808  0.0640 -0.1152
  581MOL0     H80125   7.849  10.316   2.845 -1.0505  0.7654 -0.9198
  581MOL0     H80126   7.801  10.389   3.003  1.1124 -0.4536  0.5382
  581MOL0     H80127   7.814  10.208   3.212 -1.2709 -0.9603 -0.6880
  581MOL0     H80128   8.002  10.085   3.360 -4.3868  0.5729 -0.1352
  581MOL0     H80129   8.122   9.990   3.257 -1.2846 -0.8915 -1.5931
  581MOL0     H80130   7.970   9.805   3.224  0.6495 -1.4585  1.9545
  581MOL0     H80131   7.999   9.836   3.384  0.7181  1.9491  0.0337
  581MOL0     H80132   7.753   9.925   3.240 -0.4077 -0.0269  0.5772
  581MOL0     H80133   7.773   9.779   3.341  0.4418 -0.4410 -0.1340
  581MOL0     H80134   7.803  10.067   3.442 -0.2449 -0.8415 -0.4054
  581MOL0     H80135   7.656   9.970   3.444  0.4769 -1.0756 -1.2051
  581MOL0     H80136   7.587   9.785   3.480  2.7568  0.4601 -0.7040
  581MOL0     H80137   7.452   9.482   3.509 -1.3511  0.1964  1.0092
  581MOL0     H80138   7.406   9.638   3.463  0.8814 -1.1668 -1.6330
  581MOL0     H80139   7.353   9.581   3.622 -1.1089  0.0333 -0.2858
  581MOL0     H80140   7.590   9.166   3.789 -1.3561 -0.8711  0.5315
  581MOL0     H80141   7.537   8.957   3.905  0.9152 -0.0192 -0.5739
  581MOL0     H80142   7.475   8.780   4.039 -2.2835  0.3003  0.0653
  581MOL0     H80143   7.594   8.750   4.158  0.9466  0.8160 -2.5100
  581MOL0     H80144   7.297   8.768   4.248 -3.4069 -6.0893  2.6926
  581MOL0     H80145   7.353   8.629   4.158  0.8502  0.1830 -0.1367
  581MOL0     H80146   7.435   8.749   4.420  0.9618  0.1593 -2.2163
  581MOL0     H80147   7.540   8.615   4.356  1.8300 -0.2367  1.2949
  581MOL0     H80148   7.395   8.462   4.396 -1.0261  0.2219 -1.4555
  581MOL0     H80149   7.258   8.574   4.393  0.5995  0.7382 -2.3826
  581MOL0     H80150   7.313   8.670   4.609 -3.7881 -2.2239  3.6860
  581MOL0     H80151   7.293   8.496   4.615 -1.6266  0.8466 -2.1287
  581MOL0     H80152   7.578   8.618   4.603  0.4845  2.4856  1.8772
  581MOL0     H80153   7.537   8.449   4.625  0.3543 -0.1305  0.0312
  581MOL0     H80154   7.609   8.585   4.839 -1.7736  1.6755  2.9289
  581MOL0     H80155   7.473   8.474   4.849 -0.3923 -2.4841 -2.5885
  581MOL0     H80156   7.318   8.649   4.848 -0.4966 -1.2615 -2.8556
  581MOL0     H80157   7.441   8.765   4.782  0.4382  1.5274  1.7973
  581MOL0     H80158   7.546   9.145   4.285 -2.0746  0.3057 -0.0847
  581MOL0     H80159   7.600   9.368   4.170 -0.3955 -0.4453 -0.5613
  581MOL0     H80160   7.791   9.578   3.862  2.1602  2.0370 -1.1129
  581MOL0     H80161   7.900   9.757   3.759  0.4669  0.7986 -2.0737
  581MOL0     H80162   6.850  10.166   2.667  1.0995 -0.4600  0.8625
  581MOL0     H80163   6.631  10.182   2.596 -1.3929 -2.2191 -0.6180
  581MOL0     H80164   6.331  10.284   2.326 -2.1408  2.5575 -3.2603
  581MOL0     H80165   6.123  10.343   2.286 -0.3238  0.4321  2.7358
  581MOL0     H80166   5.917  10.365   2.272 -1.7496 -2.8146  1.9800
  581MOL0     H80167   5.908  10.334   2.094 -0.3085  1.1585 -0.4661
  581MOL0     H80168   5.699  10.412   2.220  2.1686  0.8552  0.5962
  581MOL0     H80169   5.696  10.250   2.293  0.7100 -0.0854  0.3265
  581MOL0     H80170   5.672  10.306   2.000  1.3928  2.3691  0.9975
  581MOL0     H80171   5.714  10.157   2.057 -1.1758 -0.2428 -0.4998
  581MOL0     H80172   5.483  10.194   2.208  2.2176 -1.6178  0.6219
  581MOL0     H80173   5.466  10.166   2.033  1.1900 -1.4654  0.6295
  581MOL0     H80174   5.434  10.606   2.119  0.6266  0.9654  1.6007
  581MOL0     H80175   6.011   9.929   2.267 -0.3276  0.3320  2.0009
  581MOL0     H80176   6.198   9.759   2.265  2.2017  0.9166 -1.9157
  581MOL0     H80177   6.356   9.810   2.306  0.7507  0.9228  0.5104
  581MOL0     H80178   6.234   9.802   2.439 -0.6536  2.1027  1.0377
  582MOL0     O80179   6.040   5.319  10.052 -0.3981  0.4385  0.3726
  582MOL0     C80180   5.982   5.228  10.111 -1.0518  0.6574 -0.0940
  582MOL0     O80181   5.853   5.191  10.083  0.2907 -0.2140 -0.0297
  582MOL0     C80182   5.780   5.234   9.966  0.8607  0.3683  0.3126
  582MOL0     C80183   5.836   5.268   9.849  0.0571 -0.1094  0.4507
  582MOL0     C80184   5.767   5.278   9.732 -1.1922  0.2813  0.5307
  582MOL0     C80185   5.627   5.248   9.731 -0.1170  0.1653  0.0235
  582MOL0     O80186   5.562   5.278   9.616 -0.1113 -0.5573  0.6223
  582MOL0     C80187   5.425   5.262   9.607  0.4017 -0.5355  1.4373
  582MOL0     C80188   5.340   5.379   9.659  0.5232 -0.4644 -0.5494
  582MOL0     C80189   5.419   5.516   9.640 -0.5860  1.4682 -0.7848
  582MOL0     C80190   5.334   5.637   9.622 -0.1080  0.7682 -0.3102
  582MOL0     C80191   5.404   5.762   9.596  0.8060  0.4205 -0.2464
  582MOL0     C80192   5.303   5.866   9.542  0.4599  0.1917 -0.7791
  582MOL0     C80193   5.352   6.014   9.553 -0.5385 -0.0249 -0.0826
  582MOL0     C80194   5.237   6.091   9.507 -0.1961 -0.6922 -0.2315
  582MOL0     N80195   5.282   6.237   9.500  0.1594  0.6505 -0.5384
  582MOL0     C80196   5.361   6.283   9.399 -0.1974  0.1819  0.5062
  582MOL0     C80197   5.371   6.418   9.415 -0.0722  0.5466  0.4690
  582MOL0     C80198   5.466   6.516   9.358 -0.5970 -0.5763  0.4275
  582MOL0     C80199   5.604   6.503   9.423 -0.3240  0.1232  0.6044
  582MOL0     C80200   5.704   6.588   9.338  1.1197 -0.7757  0.4229
  582MOL0     C80201   5.746   6.517   9.206 -0.0925  0.5026  0.6602
  582MOL0     O80202   5.862   6.572   9.157  0.4452 -0.2473 -0.0854
  582MOL0     C80203   5.916   6.523   9.040  0.8417 -0.1955  0.1485
  582MOL0     C80204   5.978   6.624   8.958 -0.2619 -0.5157 -0.6563
  582MOL0     C80205   6.016   6.598   8.827  0.1851  0.4007  0.5439
  582MOL0     C80206   6.094   6.699   8.750  0.1848  0.0692 -0.0047
  582MOL0     C80207   5.980   6.473   8.772 -0.2949 -0.5743 -0.5030
  582MOL0     C80208   5.953   6.453   8.628 -0.2432 -0.8220  0.2010
  582MOL0     O80209   5.914   6.328   8.591  0.1993 -0.5888 -0.4342
  582MOL0     C80210   5.919   6.282   8.453 -0.0836 -0.1719  0.1324
  582MOL0     C80211   5.891   6.149   8.443  0.8697  0.1064  0.1301
  582MOL0     C80212   5.859   6.095   8.319  0.6497 -0.4483 -0.0488
  582MOL0     C80213   5.871   6.175   8.204  0.6548  1.1832  0.2531
  582MOL0     O80214   5.852   6.132   8.078  0.0054  0.6972 -0.0390
  582MOL0     C80215   5.819   5.994   8.050  0.0728  0.4449 -0.3315
  582MOL0     C80216   5.853   5.966   7.911 -0.7608 -0.2906  0.3025
  582MOL0     C80217   5.751   6.016   7.809  0.0736 -0.5108  0.2996
  582MOL0     C80218   5.651   5.906   7.742 -0.2416 -0.7399 -0.6727
  582MOL0     C80219   5.520   5.872   7.824 -1.3835 -0.6633  0.2782
  582MOL0     C80220   5.425   5.791   7.743  0.0188  0.5072  0.7754
  582MOL0     C80221   5.483   5.666   7.667  0.2399 -0.0180 -0.4619
  582MOL0     C80222   5.401   5.638   7.546  0.0660  0.2238  0.2749
  582MOL0    Cl80223   5.450   5.489   7.451 -0.0124 -0.1902 -0.1434
  582MOL0     C80224   5.896   6.308   8.222 -0.0174  0.0851  0.6338
  582MOL0     C80225   5.941   6.356   8.344 -0.8223  0.2303  0.0476
  582MOL0     O80226   5.933   6.551   8.568  0.5476  0.1694 -0.4369
  582MOL0     C80227   5.942   6.372   8.865 -0.2371 -0.1854  1.4974
  582MOL0     C80228   5.900   6.394   8.989  0.5704 -0.3333 -0.6824
  582MOL0     N80229   5.281   6.445   9.516  0.9671 -0.0707 -0.4181
  582MOL0     N80230   5.225   6.335   9.561 -0.5836 -0.6211 -0.7982
  582MOL0     C80231   5.564   5.198   9.848  0.3169 -0.7456 -0.0119
  582MOL0     C80232   5.640   5.200   9.965 -1.1187  0.7205  0.3493
  582MOL0     C80233   6.063   5.138  10.199 -1.0659  0.3371 -0.5661
  582MOL0     C80234   6.206   5.138  10.201 -0.5261 -0.2675 -0.4058
  582MOL0     C80235   6.282   5.059  10.290 -0.3100 -1.0054 -0.9652
  582MOL0     C80236   6.224   4.992  10.396 -0.0086  0.6802 -0.3808
  582MOL0     O80237   6.297   4.905  10.490  0.8151 -0.6533  0.3236
  582MOL0     C80238   6.431   4.885  10.468 -0.2484  0.6336 -0.6282
  582MOL0     C80239   6.488   4.785  10.571 -0.5005 -0.1444 -0.5476
  582MOL0     C80240   6.457   4.648  10.537 -0.4449 -0.1013  0.0286
  582MOL0     C80241   6.315   4.584  10.570 -0.3816 -0.2440  0.8011
  582MOL0     C80242   6.245   4.577  10.441  0.2577 -0.9454 -0.1655
  582MOL0     C80243   6.191   4.572  10.336  0.8783 -0.2231  0.7212
  582MOL0     C80244   6.082   4.985  10.392  0.1057  0.1687  0.4425
  582MOL0     C80245   6.008   5.054  10.301  0.8959  0.6505  0.2193
  582MOL0     C80246   5.864   5.058  10.332 -0.7830  0.6654 -0.8279
  582MOL0     H80247   5.939   5.301   9.840 -0.0381 -0.1679 -1.1754
  582MOL0     H80248   5.818   5.311   9.641 -3.9490  0.8993 -0.9137
  582MOL0     H80249   5.394   5.168   9.653  1.6151 -0.9816  1.3885
  582MOL0     H80250   5.397   5.243   9.503  3.4012 -2.0370  0.7677
  582MOL0     H80251   5.247   5.396   9.604  0.5315  0.2958 -0.3486
  582MOL0     H80252   5.310   5.357   9.762  1.8070 -1.4363 -0.3667
  582MOL0     H80253   5.482   5.531   9.729 -1.5632 -5.0937  1.5439
  582MOL0     H80254   5.468   5.493   9.545 -1.7099  0.7023 -1.1966
  582MOL0     H80255   5.256   5.614   9.549 -2.5803  2.2762  1.7137
  582MOL0     H80256   5.279   5.643   9.717  1.7113  1.9553  0.7250
  582MOL0     H80257   5.489   5.746   9.529  0.9980 -3.6313  0.7253
  582MOL0     H80258   5.435   5.792   9.697  0.9718 -2.1154  0.5256
  582MOL0     H80259   5.289   5.843   9.436  0.9821 -0.3828 -0.7314
  582MOL0     H80260   5.203   5.855   9.584  0.7259  2.2046  0.5077
  582MOL0     H80261   5.437   6.024   9.484  0.0122 -2.3863  0.1696
  582MOL0     H80262   5.391   6.042   9.651  1.5918  0.0020 -0.8692
  582MOL0     H80263   5.215   6.069   9.402  2.6357  0.1532 -1.1079
  582MOL0     H80264   5.152   6.073   9.573  0.4838 -3.8901 -0.1029
  582MOL0     H80265   5.437   6.237   9.337  0.5915  1.3796  0.5360
  582MOL0     H80266   5.424   6.617   9.363 -1.5977 -0.8707 -1.2264
  582MOL0     H80267   5.464   6.480   9.255 -0.7410 -1.6132  0.7874
  582MOL0     H80268   5.580   6.546   9.521 -0.1921 -0.6088  0.9617
  582MOL0     H80269   5.640   6.400   9.422  1.9490  0.8035  2.7783
  582MOL0     H80270   5.668   6.685   9.304 -0.8316 -1.1345  1.3332
  582MOL0     H80271   5.791   6.613   9.400 -0.4268 -0.4449  2.5842
  582MOL0     H80272   5.762   6.410   9.221  1.1544  0.9047  2.7222
  582MOL0     H80273   5.665   6.525   9.133  0.8452 -1.0368 -0.6050
  582MOL0     H80274   5.993   6.728   8.983 -3.5618  0.3022 -1.5980
  582MOL0     H80275   6.046   6.764   8.677 -2.2991  0.2811  1.7056
  582MOL0     H80276   6.171   6.637   8.703  0.3457 -0.2244  0.6307
  582MOL0     H80277   6.144   6.772   8.814  2.6398  0.1055 -1.7999
  582MOL0     H80278   5.870   6.093   8.534 -0.5231 -1.5267 -1.1204
  582MOL0     H80279   5.826   5.992   8.316  1.2949 -0.6945  0.9268
  582MOL0     H80280   5.868   5.919   8.113 -2.4279 -1.0838 -0.0782
  582MOL0     H80281   5.715   5.974   8.077  0.4059 -4.4594 -1.7325
  582MOL0     H80282   5.952   6.004   7.886 -0.3119 -2.1397 -0.8780
  582MOL0     H80283   5.867   5.858   7.900 -0.4640 -0.0177 -3.2866
  582MOL0     H80284   5.825   6.047   7.734  0.8965 -1.0114  0.8865
  582MOL0     H80285   5.697   6.105   7.842 -1.5086 -1.7509  1.1768
  582MOL0     H80286   5.702   5.810   7.737  2.4639  0.5592  0.3479
  582MOL0     H80287   5.621   5.944   7.643 -2.9786  0.4212  0.4935
  582MOL0     H80288   5.549   5.820   7.916 -3.2379  0.8204  1.7830
  582MOL0     H80289   5.478   5.971   7.847 -0.0706 -0.4868  2.1356
  582MOL0     H80290   5.392   5.851   7.658 -2.6291  0.3460  1.6051
  582MOL0     H80291   5.342   5.764   7.810 -1.5125  3.4181  0.2173
  582MOL0     H80292   5.486   5.570   7.720 -1.9372 -1.5997 -2.9398
  582MOL0     H80293   5.586   5.684   7.635  0.5814  1.2723  1.2726
  582MOL0     H80294   5.400   5.723   7.477 -1.0116  2.8020  3.2108
  582MOL0     H80295   5.298   5.607   7.565 -1.0841  3.4307 -0.0168
  582MOL0     H80296   5.897   6.372   8.135 -1.2130 -1.7922 -0.8515
  582MOL0     H80297   5.978   6.458   8.354 -2.6852  0.9668 -0.1090
  582MOL0     H80298   5.925   6.273   8.823 -0.4703  1.0402 -1.5350
  582MOL0     H80299   5.848   6.322   9.051 -0.6741  0.1417 -1.1414
  582MOL0     H80300   5.458   5.177   9.862  1.2350 -4.1848  3.3992
  582MOL0     H80301   5.588   5.155  10.049 -0.2414 -0.8700  0.0791
  582MOL0     H80302   6.245   5.198  10.119 -0.5599 -0.8076 -0.8212
  582MOL0     H80303   6.389   5.061  10.272  0.4670  5.1705  1.7017
  582MOL0     H80304   6.451   4.861  10.363 -1.6933 -1.1244 -0.5543
  582MOL0     H80305   6.486   4.977  10.489  0.9092  0.4102 -2.4607
  582MOL0     H80306   6.447   4.805  10.671  2.0125  1.0946  0.3391
  582MOL0     H80307   6.597   4.791  10.583 -0.7171  3.4073  0.8817
  582MOL0     H80308   6.469   4.641  10.429  0.9964 -1.6593  0.2505
  582MOL0     H80309   6.535   4.587  10.583 -2.5593 -1.1297  2.5037
  582MOL0     H80310   6.261   4.649  10.640  0.4240 -0.1704  1.3631
  582MOL0     H80311   6.330   4.481  10.604 -1.9524 -0.8612 -0.2374
  582MOL0     H80312   6.152   4.548  10.240 -1.4746 -1.3490  1.8715
  582MOL0     H80313   6.029   4.941  10.476  0.4799  1.0753  1.1716
  582MOL0     H80314   5.840   5.165  10.337 -0.6713  0.6726 -0.4529
  582MOL0     H80315   5.827   5.012  10.240  2.9341 -1.1035 -1.6256
  582MOL0     H80316   5.825   4.993  10.411  1.4307  0.9499  0.5942
  583MOL0     O80317   1.217  11.550   2.799 -0.0344  0.4308 -0.7715
  583MOL0     C80318   1.235  11.461   2.884 -0.6187  0.0246  0.0017
  583MOL0     O80319   1.141  11.380   2.931  0.4138 -0.2324 -0.4167
  583MOL0     C80320   1.028  11.355   2.856 -0.7081 -0.6592  0.1330
  583MOL0     C80321   1.031  11.258   2.755  0.3378  0.8224  0.5519
  583MOL0     C80322   0.920  11.245   2.668  0.8539  0.3011  0.2219
  583MOL0     C80323   0.803  11.313   2.702 -0.6632 -0.0851  1.0596
  583MOL0     O80324   0.683  11.311   2.628 -0.9750 -0.3734 -0.2563
  583MOL0     C80325   0.672  11.205   2.524  0.5393 -0.7262 -0.3848
  583MOL0     C80326   0.652  11.065   2.586  0.1974 -0.4021 -0.1008
  583MOL0     C80327   0.649  10.957   2.474  0.9512 -0.1830  0.1392
  583MOL0     C80328   0.774  10.963   2.379 -0.0608  0.6984 -0.8237
  583MOL0     C80329   0.774  10.870   2.253 -0.2450  0.3755 -0.1019
  583MOL0     C80330   0.915  10.899   2.194 -0.1421 -0.7932  0.2872
  583MOL0     C80331   1.030  10.806   2.219  0.0941 -0.3441 -0.3571
  583MOL0     C80332   1.005  10.654   2.211 -1.4860  0.0154  0.7331
  583MOL0     N80333   0.994  10.591   2.081  0.1752  0.5165  0.2776
  583MOL0     C80334   1.092  10.580   1.980  0.0488  0.2245  0.5792
  583MOL0     C80335   1.029  10.501   1.885 -1.0233  0.3139 -0.4293
  583MOL0     C80336   1.090  10.454   1.749 -0.3230 -0.0950  1.0330
  583MOL0     C80337   1.245  10.472   1.731  0.4878 -0.2032 -0.3111
  583MOL0     C80338   1.334  10.399   1.838 -0.9628 -0.0941 -0.8397
  583MOL0     C80339   1.486  10.438   1.846 -0.1807 -1.0118 -0.4487
  583MOL0     O80340   1.515  10.574   1.835 -0.3052  0.3476  0.7946
  583MOL0     C80341   1.486  10.663   1.924  0.3129  0.3514 -0.5270
  583MOL0     C80342   1.475  10.635   2.055  0.7180 -0.0330 -0.0194
  583MOL0     C80343   1.437  10.733   2.146 -0.4837  0.3932 -1.0645
  583MOL0     C80344   1.457  10.707   2.294  0.1953  0.5201 -0.0483
  583MOL0     C80345   1.401  10.865   2.101 -0.8558 -1.0267 -0.4845
  583MOL0     C80346   1.349  10.979   2.183 -0.2580 -0.4828  0.5839
  583MOL0     O80347   1.323  11.104   2.121 -0.4261  0.5898 -0.1358
  583MOL0     C80348   1.273  11.214   2.182 -0.1242 -0.4226 -0.3543
  583MOL0     C80349   1.300  11.247   2.316  0.2969 -0.2311 -0.4998
  583MOL0     C80350   1.256  11.369   2.374  0.5374  0.8397  0.0685
  583MOL0     C80351   1.171  11.453   2.298 -1.0858  0.5391  0.4464
  583MOL0     O80352   1.148  11.582   2.347  0.1079 -0.4341  0.1310
  583MOL0     C80353   1.035  11.593   2.434 -0.1525 -0.4077  0.1229
  583MOL0     C80354   1.034  11.728   2.512  0.5466 -0.7053  0.0138
  583MOL0     C80355   0.925  11.722   2.619 -0.3614  0.0013  1.1607
  583MOL0     C80356   0.903  11.850   2.697 -0.2858  0.5488 -0.6536
  583MOL0     C80357   0.782  11.834   2.794  0.0004  0.1219 -0.4650
  583MOL0     C80358   0.796  11.936   2.920 -0.0911 -0.7184  0.2557
  583MOL0     C80359   0.834  11.871   3.054 -0.3897  0.1970 -0.2410
  583MOL0     C80360   0.729  11.784   3.121  0.0059  0.3929  0.9498
  583MOL0    Cl80361   0.613  11.906   3.198  0.0297 -0.2130 -0.3798
  583MOL0     C80362   1.156  11.424   2.161  0.8086  0.3650 -0.4045
  583MOL0     C80363   1.206  11.301   2.108 -0.5526 -0.1733  0.1654
  583MOL0     O80364   1.327  10.955   2.301  0.5448 -0.4367 -0.9568
  583MOL0     C80365   1.412  10.888   1.967 -0.3489  0.6136 -0.4250
  583MOL0     C80366   1.461  10.793   1.874 -0.6592 -0.1458  0.8535
  583MOL0     N80367   0.917  10.441   1.937 -0.5238  0.3159 -0.0476
  583MOL0     N80368   0.893  10.502   2.046  0.6736 -0.8222 -0.3176
  583MOL0     C80369   0.809  11.420   2.796  0.1383  0.3621 -0.8399
  583MOL0     C80370   0.916  11.431   2.879 -0.3761 -0.5598 -0.3621
  583MOL0     C80371   1.361  11.461   2.963 -0.2070  0.0382 -0.2148
  583MOL0     C80372   1.482  11.481   2.887 -0.0574 -0.4030  0.5133
  583MOL0     C80373   1.607  11.474   2.952  0.6741  0.0121 -0.0648
  583MOL0     C80374   1.607  11.457   3.092  0.5304  0.0438 -0.1123
  583MOL0     O80375   1.719  11.424   3.156 -0.1780  0.6699 -1.1196
  583MOL0     C80376   1.842  11.500   3.135  0.6497  0.0784 -0.8524
  583MOL0     C80377   1.913  11.536   3.273  0.2207  0.7746  0.2201
  583MOL0     C80378   2.021  11.633   3.247 -0.5596 -0.0718 -0.3788
  583MOL0     C80379   2.129  11.642   3.365 -0.2888  0.6148  0.6813
  583MOL0     C80380   2.103  11.753   3.450 -0.6306  0.7114 -0.0785
  583MOL0     C80381   2.085  11.843   3.525 -0.0930 -0.3641  1.0714
  583MOL0     C80382   1.491  11.434   3.156  1.1660  0.1400 -1.1294
  583MOL0     C80383   1.366  11.433   3.096  0.3972  0.1412  0.6623
  583MOL0     C80384   1.240  11.412   3.185  0.9042 -0.9622  0.0248
  583MOL0     H80385   1.124  11.201   2.754 -0.7337 -1.0135  1.5579
  583MOL0     H80386   0.920  11.170   2.589  1.6088  1.5062 -0.9689
  583MOL0     H80387   0.755  11.222   2.454  2.6133  1.7005  2.4392
  583MOL0     H80388   0.584  11.223   2.461 -0.2346  1.4287  1.1869
  583MOL0     H80389   0.734  11.053   2.657  1.4756  0.9170 -1.2530
  583MOL0     H80390   0.556  11.068   2.637  1.1932  0.3013  1.8099
  583MOL0     H80391   0.649  10.858   2.521  3.6254 -0.3698 -0.1047
  583MOL0     H80392   0.555  10.962   2.419 -0.2762 -1.1296  2.0153
  583MOL0     H80393   0.770  11.065   2.341  0.9416  0.6112 -1.2088
  583MOL0     H80394   0.856  10.950   2.450 -1.2672  3.6602  1.3307
  583MOL0     H80395   0.703  10.904   2.177 -0.1547  0.3144 -0.2140
  583MOL0     H80396   0.758  10.765   2.276 -5.7033  0.1201 -3.3478
  583MOL0     H80397   0.906  10.904   2.085 -2.0779  1.8640  0.4899
  583MOL0     H80398   0.943  11.004   2.206 -1.6015 -0.0018 -2.3753
  583MOL0     H80399   1.065  10.829   2.321 -1.1105 -0.8212  0.1833
  583MOL0     H80400   1.107  10.837   2.148 -0.4278 -0.6734 -1.0644
  583MOL0     H80401   1.089  10.602   2.258 -1.5401 -0.9882 -0.2219
  583MOL0     H80402   0.915  10.626   2.266 -1.9045  0.9688  0.5425
  583MOL0     H80403   1.182  10.641   1.974 -0.3862  1.4335  3.8548
  583MOL0     H80404   1.041  10.518   1.675  2.6596 -0.2589 -1.2618
  583MOL0     H80405   1.067  10.348   1.731  0.1793 -0.0022 -0.2098
  583MOL0     H80406   1.272  10.428   1.635  1.3663 -1.3734  0.4237
  583MOL0     H80407   1.264  10.579   1.740 -1.9770  0.4884 -2.4028
  583MOL0     H80408   1.286  10.411   1.936  0.4338  0.2271 -0.1771
  583MOL0     H80409   1.327  10.292   1.820  1.9047 -0.2827 -1.2641
  583MOL0     H80410   1.522  10.389   1.937 -0.5691  1.5384  1.1712
  583MOL0     H80411   1.536  10.382   1.766  0.5606  2.2107 -2.3969
  583MOL0     H80412   1.485  10.535   2.095 -0.8202 -1.0800 -2.0228
  583MOL0     H80413   1.518  10.617   2.303 -2.9671 -2.0957 -2.2599
  583MOL0     H80414   1.367  10.703   2.357  3.0466  0.1265  4.4558
  583MOL0     H80415   1.508  10.792   2.340  1.2677 -0.1601  0.0467
  583MOL0     H80416   1.359  11.175   2.371 -2.0115 -3.1496 -1.5636
  583MOL0     H80417   1.287  11.397   2.474  1.6847  5.0459 -1.2500
  583MOL0     H80418   0.945  11.586   2.373  0.4893  1.1223 -1.0737
  583MOL0     H80419   1.045  11.512   2.507  0.5434 -0.8930 -0.4961
  583MOL0     H80420   1.132  11.744   2.558  0.7468  0.6631 -0.8405
  583MOL0     H80421   1.024  11.813   2.443  1.3371  0.4968  1.3496
  583MOL0     H80422   0.932  11.629   2.677  2.6513  0.4687  1.6597
  583MOL0     H80423   0.834  11.718   2.557  0.9191 -0.4918 -0.7656
  583MOL0     H80424   0.866  11.928   2.630 -0.1375  0.5922 -0.6840
  583MOL0     H80425   0.990  11.883   2.755 -1.0729  0.8418  0.3912
  583MOL0     H80426   0.698  11.869   2.733  0.7535  2.4270 -0.2580
  583MOL0     H80427   0.758  11.734   2.832 -1.2139  1.2066  1.7819
  583MOL0     H80428   0.702  11.988   2.939  0.7843  0.5651  1.2297
  583MOL0     H80429   0.875  12.009   2.904 -1.7715  1.1261  0.0227
  583MOL0     H80430   0.865  11.950   3.124 -1.0445 -2.0571  2.8155
  583MOL0     H80431   0.913  11.799   3.033 -0.1916  0.8614 -1.9140
  583MOL0     H80432   0.779  11.720   3.195 -0.0637 -0.2998  0.4058
  583MOL0     H80433   0.681  11.729   3.039 -1.0199  2.8818 -0.2194
  583MOL0     H80434   1.107  11.500   2.101 -1.4102  0.3033  1.1945
  583MOL0     H80435   1.200  11.295   1.999 -0.3549  2.1474 -0.0176
  583MOL0     H80436   1.391  10.988   1.933  0.7852  0.9119 -0.3106
  583MOL0     H80437   1.472  10.815   1.768  3.2702  1.7967  1.4928
  583MOL0     H80438   0.717  11.477   2.809 -0.2073 -0.1262 -1.1249
  583MOL0     H80439   0.930  11.494   2.967  0.0353 -1.7836  0.4770
  583MOL0     H80440   1.485  11.469   2.780  2.3189 -1.8617  0.6720
  583MOL0     H80441   1.699  11.462   2.896  1.4439  3.5367  0.2379
  583MOL0     H80442   1.902  11.432   3.073  0.8779 -0.3008 -0.2277
  583MOL0     H80443   1.840  11.593   3.077 -1.6585  0.5475 -0.0986
  583MOL0     H80444   1.954  11.442   3.311 -1.1092  0.4245  0.8288
  583MOL0     H80445   1.835  11.577   3.337 -0.3152 -0.6109  0.4754
  583MOL0     H80446   2.074  11.598   3.158 -1.7598  0.7483 -1.4404
  583MOL0     H80447   1.977  11.731   3.231 -1.5976 -0.9195 -3.3276
  583MOL0     H80448   2.231  11.654   3.327 -0.4059  1.1211  0.5216
  583MOL0     H80449   2.132  11.548   3.422  4.0405  0.3655  0.3998
  583MOL0     H80450   2.088  11.919   3.601 -1.2639 -0.6839  1.4595
  583MOL0     H80451   1.493  11.418   3.263  0.1387 -3.6336 -1.5334
  583MOL0     H80452   1.252  11.419   3.294 -3.0327 -0.7712  0.5850
  583MOL0     H80453   1.180  11.500   3.163 -1.4583 -2.4821  0.0865
  583MOL0     H80454   1.190  11.317   3.162  0.4806  0.0162 -3.6567
  584MOL0     O80455   2.467   8.478   9.775 -0.6088  0.0784 -0.4412
  584MOL0     C80456   2.400   8.471   9.879  0.1171 -0.0839  0.0857
  584MOL0     O80457   2.443   8.495  10.015 -0.8826  0.1344  0.7501
  584MOL0     C80458   2.576   8.518  10.026 -0.3237 -0.5076 -0.2962
  584MOL0     C80459   2.653   8.424  10.104 -0.1324 -1.0888  0.3412
  584MOL0     C80460   2.792   8.447  10.122 -0.5698 -0.4418  0.7548
  584MOL0     C80461   2.855   8.571  10.068  0.6142 -1.0115 -0.4479
  584MOL0     O80462   2.991   8.594  10.099  0.3672 -1.2501  0.1520
  584MOL0     C80463   3.068   8.590   9.976  1.0993 -0.1434  0.6932
  584MOL0     C80464   3.112   8.738   9.938  0.3740  0.4462 -0.3780
  584MOL0     C80465   3.102   8.839  10.065  0.4842  0.1481  0.0133
  584MOL0     C80466   3.204   8.952  10.045 -0.3587 -0.6204  0.3920
  584MOL0     C80467   3.196   9.070  10.148 -0.2492 -0.3178 -0.6883
  584MOL0     C80468   3.094   9.173  10.106  0.8652  0.0834 -0.3894
  584MOL0     C80469   3.062   9.264  10.221  0.3970  0.2836 -0.2587
  584MOL0     C80470   3.170   9.363  10.262 -0.5123 -0.2504 -0.3682
  584MOL0     N80471   3.120   9.458  10.362 -0.0845 -0.1473 -0.0130
  584MOL0     C80472   3.146   9.464  10.493  0.7452  0.1334 -0.5471
  584MOL0     C80473   3.076   9.574  10.536  0.0484 -0.2892 -0.6663
  584MOL0     C80474   3.100   9.641  10.668  1.0512 -0.5773 -0.4701
  584MOL0     C80475   2.990   9.595  10.773 -0.1980 -0.1392 -0.3632
  584MOL0     C80476   3.000   9.682  10.904  0.0387 -1.2911  0.6590
  584MOL0     C80477   3.105   9.633  10.999  0.1315 -0.6773 -0.3936
  584MOL0     O80478   3.159   9.728  11.093 -0.2268 -0.0627  0.5746
  584MOL0     C80479   3.132   9.734  11.227 -0.2725 -0.6662  0.6254
  584MOL0     C80480   3.027   9.675  11.291  0.3016  0.3661 -0.3062
  584MOL0     C80481   3.004   9.694  11.432  0.4483 -0.5303  0.9809
  584MOL0     C80482   2.894   9.611  11.496 -0.2237 -0.2956  0.1126
  584MOL0     C80483   3.086   9.790  11.499  0.4412 -0.6205 -0.3728
  584MOL0     C80484   3.072   9.821  11.641 -0.2239  1.0708 -1.5928
  584MOL0     O80485   3.181   9.882  11.693  0.1726  0.5229 -0.5383
  584MOL0     C80486   3.204   9.883  11.829 -0.2460  0.3685  0.1031
  584MOL0     C80487   3.217  10.011  11.882  1.3470  0.5189  0.3612
  584MOL0     C80488   3.222  10.026  12.024  0.5207  0.0728  1.3106
  584MOL0     C80489   3.260   9.916  12.100 -1.7861 -1.1211  0.3216
  584MOL0     O80490   3.272   9.934  12.239 -0.1877  0.2600  0.2289
  584MOL0     C80491   3.352   9.839  12.318 -0.3208 -0.6658 -0.6156
  584MOL0     C80492   3.390   9.917  12.452 -0.0110 -0.1206  0.8567
  584MOL0     C80493   3.263   9.965  12.527 -0.5202  0.3513  0.4695
  584MOL0     C80494   3.282   9.952  12.675 -0.1461  0.3228  0.0692
  584MOL0     C80495   3.394  10.027  12.737  0.8509 -0.1215  0.2025
  584MOL0     C80496   3.413   9.975  12.880  0.2594  0.1081  0.6816
  584MOL0     C80497   3.521  10.053  12.966  1.2953 -0.4411  0.7124
  584MOL0     C80498   3.551   9.973  13.091 -0.2430  0.4995  0.2968
  584MOL0    Cl80499   3.704  10.040  13.172  0.4832  0.1561  0.1858
  584MOL0     C80500   3.243   9.780  12.048  0.2952  0.0887 -0.1045
  584MOL0     C80501   3.215   9.769  11.913  0.0668  0.9346  0.5769
  584MOL0     O80502   2.985   9.776  11.718 -0.8365  0.8162  0.6046
  584MOL0     C80503   3.179   9.858  11.428  0.0261 -0.8819  0.2074
  584MOL0     C80504   3.210   9.823  11.297  0.0688 -0.0940  0.2991
  584MOL0     N80505   3.014   9.635  10.428  0.2342  0.0502 -1.3693
  584MOL0     N80506   3.042   9.567  10.328  0.8198  0.0138  0.4928
  584MOL0     C80507   2.771   8.659  10.001  0.4585 -0.1317  0.6310
  584MOL0     C80508   2.634   8.642   9.977 -0.4582  1.1477  0.4570
  584MOL0     C80509   2.255   8.449   9.865  1.1981  0.8672 -0.5903
  584MOL0     C80510   2.199   8.341   9.797  0.0305  0.0799  0.4311
  584MOL0     C80511   2.061   8.323   9.781 -0.3622 -0.2764 -0.3983
  584MOL0     C80512   1.976   8.422   9.822  0.2613  0.2035 -0.2658
  584MOL0     O80513   1.840   8.400   9.815 -0.0853 -0.9547  0.2262
  584MOL0     C80514   1.785   8.404   9.683 -1.0719 -0.4255 -0.3204
  584MOL0     C80515   1.644   8.343   9.685  0.1739 -0.8163  0.2841
  584MOL0     C80516   1.590   8.330   9.536  0.0275  0.1822  0.4022
  584MOL0     C80517   1.434   8.317   9.534 -0.4611  0.4460 -0.7397
  584MOL0     C80518   1.392   8.189   9.575 -0.5014  0.6446  0.0427
  584MOL0     C80519   1.355   8.082   9.610 -0.6259  0.9764 -1.2547
  584MOL0     C80520   2.025   8.535   9.879 -0.7488 -0.4028  0.7371
  584MOL0     C80521   2.161   8.547   9.905  0.0763  0.4437 -0.0724
  584MOL0     C80522   2.195   8.664   9.983  0.2048 -0.2783  0.4305
  584MOL0     H80523   2.598   8.335  10.132  0.8777 -1.5833  0.7847
  584MOL0     H80524   2.851   8.380  10.184  2.4220 -0.2389 -1.6528
  584MOL0     H80525   3.014   8.548   9.891  2.0123 -1.7041  0.8460
  584MOL0     H80526   3.150   8.519   9.986  0.0059 -1.4446  0.7244
  584MOL0     H80527   3.209   8.751   9.891  0.7373 -2.0811 -0.4502
  584MOL0     H80528   3.033   8.773   9.871 -0.2467  4.4517  2.0594
  584MOL0     H80529   3.006   8.891  10.055  2.4508  3.8993 -1.2939
  584MOL0     H80530   3.124   8.790  10.160  0.3372  1.3426  0.6901
  584MOL0     H80531   3.303   8.910  10.063  0.5886  0.7719 -1.2375
  584MOL0     H80532   3.195   8.991   9.943  0.5512 -0.3296  0.4104
  584MOL0     H80533   3.292   9.122  10.153 -1.6171  2.2492  0.9911
  584MOL0     H80534   3.183   9.022  10.246 -2.7164  0.7197 -0.4456
  584MOL0     H80535   3.134   9.242  10.031 -0.7647  3.6588  1.7554
  584MOL0     H80536   2.999   9.129  10.073 -0.0519 -0.7881  2.9834
  584MOL0     H80537   3.038   9.202  10.308  0.8674 -0.5712 -0.7205
  584MOL0     H80538   2.972   9.324  10.203 -2.5421 -3.5481  0.1510
  584MOL0     H80539   3.266   9.316  10.288 -0.5899  1.0824  2.6772
  584MOL0     H80540   3.197   9.432  10.181  2.3261  0.6869  1.1972
  584MOL0     H80541   3.217   9.403  10.547  0.1996  0.1706  0.2339
  584MOL0     H80542   3.082   9.748  10.651 -1.3907 -1.3678 -3.8019
  584MOL0     H80543   3.204   9.628  10.697  1.5579 -1.9828 -2.6641
  584MOL0     H80544   2.889   9.606  10.732  0.2738  2.7899 -0.9508
  584MOL0     H80545   3.009   9.494  10.812  4.5399  0.2621 -1.0587
  584MOL0     H80546   3.023   9.787  10.885 -0.4484 -0.9616  1.7933
  584MOL0     H80547   2.898   9.684  10.943  0.2603  0.9576  1.2782
  584MOL0     H80548   3.059   9.555  11.060 -2.8086  3.1572  2.8459
  584MOL0     H80549   3.187   9.602  10.934 -0.8473 -0.1134 -1.9516
  584MOL0     H80550   2.974   9.602  11.230 -1.6015  1.7018 -0.3118
  584MOL0     H80551   2.847   9.537  11.430 -2.5095  1.0045  0.1559
  584MOL0     H80552   2.802   9.664  11.522 -2.4516 -1.3683 -4.4704
  584MOL0     H80553   2.938   9.568  11.586 -2.3460  0.6807  1.7009
  584MOL0     H80554   3.214  10.096  11.815 -0.9185  1.3966  1.4691
  584MOL0     H80555   3.216  10.128  12.058 -3.2421  0.9222 -1.1836
  584MOL0     H80556   3.302   9.746  12.346 -1.0113  0.3402  1.7615
  584MOL0     H80557   3.439   9.816  12.257 -0.9152 -0.0271 -1.7258
  584MOL0     H80558   3.457   9.855  12.513  0.4251  0.0053  0.5112
  584MOL0     H80559   3.458   9.997  12.422 -0.5428 -0.1003 -0.3547
  584MOL0     H80560   3.179   9.901  12.498 -0.1902 -0.7799  1.8795
  584MOL0     H80561   3.241  10.071  12.509 -3.1334 -0.4032 -1.3067
  584MOL0     H80562   3.308   9.846  12.688 -1.4627 -0.2590 -1.6746
  584MOL0     H80563   3.191   9.969  12.734 -1.9969 -4.6430 -0.7862
  584MOL0     H80564   3.489  10.024  12.683  0.3005 -2.6824 -0.7576
  584MOL0     H80565   3.357  10.130  12.743 -1.2024 -0.8456  1.0638
  584MOL0     H80566   3.459   9.877  12.865  3.6463  1.6588 -0.0398
  584MOL0     H80567   3.323   9.988  12.942 -1.4333  3.6352 -2.1753
  584MOL0     H80568   3.487  10.151  13.003  0.6886 -0.0305 -0.8599
  584MOL0     H80569   3.610  10.086  12.912 -0.3198  0.3749 -1.6287
  584MOL0     H80570   3.577   9.872  13.059  1.2885  2.0875 -4.1184
  584MOL0     H80571   3.465   9.973  13.159  0.8287 -2.0231  1.8146
  584MOL0     H80572   3.272   9.692  12.104  0.5895 -0.6354 -1.3629
  584MOL0     H80573   3.213   9.674  11.860 -2.1047  2.2004 -1.8504
  584MOL0     H80574   3.244   9.934  11.471 -0.1768 -0.5316 -0.1075
  584MOL0     H80575   3.282   9.876  11.236 -0.5462 -0.0027 -0.3556
  584MOL0     H80576   2.811   8.753   9.965  1.9142 -0.8040  0.4231
  584MOL0     H80577   2.569   8.716   9.932 -2.4677 -0.6854  0.2033
  584MOL0     H80578   2.264   8.266   9.754  0.1059  0.7674 -0.6925
  584MOL0     H80579   2.027   8.228   9.740 -1.3281 -0.7355  1.3887
  584MOL0     H80580   1.766   8.509   9.657 -1.0258 -0.2798  0.2196
  584MOL0     H80581   1.852   8.359   9.609 -1.8758 -0.3621 -1.0982
  584MOL0     H80582   1.580   8.410   9.742 -1.8571 -1.9865 -0.5405
  584MOL0     H80583   1.650   8.248   9.739  0.6741 -0.3550  1.0590
  584MOL0     H80584   1.625   8.421   9.487  0.1128 -1.0729 -1.9991
  584MOL0     H80585   1.623   8.252   9.468 -0.8461 -0.0291  0.2119
  584MOL0     H80586   1.385   8.366   9.450 -0.0606  4.2741  1.0238
  584MOL0     H80587   1.401   8.369   9.625  0.8906 -2.6868  1.7425
  584MOL0     H80588   1.325   7.986   9.648  0.4603  1.0730 -0.0838
  584MOL0     H80589   1.953   8.609   9.913 -1.1985 -1.1272  1.4002
  584MOL0     H80590   2.210   8.746   9.912  5.3081 -1.0550  0.1845
  584MOL0     H80591   2.121   8.680  10.062  0.4737 -2.4870  1.1933
  584MOL0     H80592   2.292   8.657  10.034  0.7737  0.4154 -0.5229
  585MOL0     O80593   9.083   6.979   2.214  0.2221 -0.0521  0.3282
  585MOL0     C80594   9.099   7.000   2.092  1.2080 -0.3375  0.5823
  585MOL0     O80595   9.142   6.911   2.000  0.1150 -0.1473  0.3511
  585MOL0     C80596   9.212   6.803   2.047 -0.0537 -0.2019  1.2478
  585MOL0     C80597   9.199   6.703   1.944  0.0755  0.0751 -0.2296
  585MOL0     C80598   9.261   6.576   1.961 -0.1685  0.8322  0.7085
  585MOL0     C80599   9.355   6.557   2.070 -0.0452  0.0048  0.3802
  585MOL0     O80600   9.428   6.449   2.087  0.6028  0.0981 -0.1976
  585MOL0     C80601   9.343   6.327   2.104  0.2576 -0.9694  0.6018
  585MOL0     C80602   9.418   6.241   2.192  0.1382  0.3672 -0.5145
  585MOL0     C80603   9.554   6.222   2.136 -0.3967  1.0830 -0.5763
  585MOL0     C80604   9.595   6.074   2.143  0.9090 -0.5184  0.5730
  585MOL0     C80605   9.521   5.980   2.037 -0.4070  0.1410 -0.7867
  585MOL0     C80606   9.558   5.840   2.072 -1.4191 -0.3716  0.1371
  585MOL0     C80607   9.491   5.747   1.983  0.1931  0.5089  0.1015
  585MOL0     C80608   9.506   5.592   2.007 -1.7309  0.6686  1.5221
  585MOL0     N80609   9.599   5.541   1.906  0.5217 -0.5740  0.7579
  585MOL0     C80610   9.728   5.586   1.884  0.8312  0.1837  0.1082
  585MOL0     C80611   9.778   5.493   1.789  0.6202 -1.2991 -0.8314
  585MOL0     C80612   9.913   5.499   1.724 -0.7431  0.2836  1.0393
  585MOL0     C80613   9.986   5.372   1.753  0.0565 -0.0212  0.0870
  585MOL0     C80614  10.129   5.374   1.708 -0.5780  0.0842 -0.0950
  585MOL0     C80615  10.153   5.315   1.558  0.7359 -0.8685 -0.0625
  585MOL0     O80616  10.289   5.335   1.516  0.5658  0.0409 -1.2846
  585MOL0     C80617  10.331   5.247   1.431 -0.1736  0.5563 -0.1508
  585MOL0     C80618  10.251   5.205   1.319  0.5556 -0.2608 -0.4281
  585MOL0     C80619  10.297   5.107   1.232  0.0837  0.1476 -0.7109
  585MOL0     C80620  10.198   5.093   1.105 -0.9072  1.0263 -0.6111
  585MOL0     C80621  10.424   5.062   1.230 -0.2191  0.1862 -0.0885
  585MOL0     C80622  10.479   4.976   1.121  0.5222  0.7084 -0.3316
  585MOL0     O80623  10.585   5.028   1.049 -0.6171 -0.4837  0.3817
  585MOL0     C80624  10.653   4.957   0.953  0.3301 -0.7065  0.1693
  585MOL0     C80625  10.694   5.021   0.839  0.5909 -0.4999  0.0912
  585MOL0     C80626  10.753   4.960   0.732 -0.5835  0.6965  1.1969
  585MOL0     C80627  10.779   4.821   0.742 -0.4409 -0.3588  0.0828
  585MOL0     O80628  10.814   4.757   0.625  0.4409 -0.0553 -0.0756
  585MOL0     C80629  10.750   4.634   0.590 -0.1857  0.6238  0.8820
  585MOL0     C80630  10.765   4.607   0.444 -0.3162 -0.6223  0.6644
  585MOL0     C80631  10.679   4.714   0.365  0.1348  0.5969  0.2842
  585MOL0     C80632  10.692   4.697   0.218  0.2707  0.1888 -0.0535
  585MOL0     C80633  10.564   4.720   0.146 -0.9861 -0.7807 -0.5975
  585MOL0     C80634  10.512   4.866   0.164 -0.4153 -0.8052  0.2125
  585MOL0     C80635  10.591   4.968   0.089 -1.0329  0.4884  1.3002
  585MOL0     C80636  10.544   5.111   0.127 -0.6677  0.1360  0.5691
  585MOL0    Cl80637  10.565   5.155   0.302  0.3310 -0.0558  0.3701
  585MOL0     C80638  10.758   4.745   0.862 -0.3534 -0.8155 -0.0168
  585MOL0     C80639  10.687   4.820   0.965 -0.1365  0.1495 -0.0091
  585MOL0     O80640  10.431   4.861   1.107 -0.6102 -0.5366 -0.4929
  585MOL0     C80641  10.508   5.118   1.331 -0.5134  0.9852  0.6030
  585MOL0     C80642  10.459   5.192   1.440 -0.3040 -0.3231 -0.0242
  585MOL0     N80643   9.663   5.425   1.740  0.5471  0.6333 -1.0531
  585MOL0     N80644   9.560   5.457   1.811 -0.1503 -0.1409 -0.3279
  585MOL0     C80645   9.376   6.670   2.151 -0.1207 -0.5239  0.7791
  585MOL0     C80646   9.312   6.785   2.142  0.5714  0.2111  0.3390
  585MOL0     C80647   9.040   7.127   2.037  0.6677  0.2121  0.4752
  585MOL0     C80648   8.994   7.119   1.909 -0.3981 -0.4962  0.0913
  585MOL0     C80649   8.917   7.234   1.851  0.1351 -1.0098 -0.4699
  585MOL0     C80650   8.916   7.356   1.917 -0.1998  0.4908 -0.1201
  585MOL0     O80651   8.877   7.476   1.863  0.3933  0.1299 -0.0521
  585MOL0     C80652   8.814   7.469   1.741 -0.1844 -0.4998 -0.2234
  585MOL0     C80653   8.750   7.614   1.715  0.1809  0.3131  0.1984
  585MOL0     C80654   8.614   7.627   1.649 -1.0057 -0.0392  0.0085
  585MOL0     C80655   8.530   7.737   1.712 -0.0588 -0.4601 -0.8486
  585MOL0     C80656   8.590   7.875   1.679  0.4051 -0.7622  0.0017
  585MOL0     C80657   8.632   7.982   1.648  0.2610  1.2581  0.0275
  585MOL0     C80658   9.000   7.364   2.032  0.0844 -0.3919 -0.2403
  585MOL0     C80659   9.048   7.254   2.096  0.0742 -0.0813 -0.4997
  585MOL0     C80660   9.140   7.270   2.220  0.7497  1.0937 -0.3874
  585MOL0     H80661   9.148   6.712   1.849 -2.0213 -2.4442  0.5559
  585MOL0     H80662   9.239   6.503   1.884 -2.4874  1.7538  0.4064
  585MOL0     H80663   9.324   6.276   2.009 -3.4670 -0.7010  1.0634
  585MOL0     H80664   9.239   6.357   2.123  0.2895  0.9295 -1.6413
  585MOL0     H80665   9.435   6.272   2.295  1.9150 -0.8282 -0.4001
  585MOL0     H80666   9.356   6.151   2.190  0.3892  0.1968 -2.2476
  585MOL0     H80667   9.564   6.268   2.037  1.8142  2.3808  0.1935
  585MOL0     H80668   9.611   6.287   2.202 -1.8195  0.9896  0.8176
  585MOL0     H80669   9.703   6.073   2.126  0.6882  2.7250 -1.9545
  585MOL0     H80670   9.579   6.048   2.248 -5.8285 -0.8523 -0.1247
  585MOL0     H80671   9.546   6.004   1.934  2.3304  3.0785  0.3983
  585MOL0     H80672   9.412   5.979   2.045 -0.6069 -0.7237 -2.9574
  585MOL0     H80673   9.664   5.822   2.052 -1.5164 -0.3544 -0.4145
  585MOL0     H80674   9.546   5.823   2.179  0.6646 -0.0266  0.4723
  585MOL0     H80675   9.517   5.781   1.882  0.0851 -1.6920 -0.7226
  585MOL0     H80676   9.385   5.770   1.993 -0.4941 -0.6593 -3.3283
  585MOL0     H80677   9.554   5.578   2.104  1.1290 -2.0317 -0.0953
  585MOL0     H80678   9.410   5.540   2.016 -2.2304  1.5371  1.3609
  585MOL0     H80679   9.791   5.664   1.927  0.5497  1.5771 -1.9114
  585MOL0     H80680   9.973   5.586   1.751  2.2732 -1.0845 -0.7198
  585MOL0     H80681   9.902   5.515   1.617 -0.0216  2.0992  1.2097
  585MOL0     H80682   9.985   5.351   1.860  0.8247 -4.2304 -0.5700
  585MOL0     H80683   9.924   5.299   1.701  0.7457  1.4259 -2.9828
  585MOL0     H80684  10.171   5.475   1.719 -0.5752  0.0582  0.1334
  585MOL0     H80685  10.187   5.302   1.766 -0.2424  0.3650 -0.0732
  585MOL0     H80686  10.099   5.221   1.544  1.6901 -1.2322 -1.5089
  585MOL0     H80687  10.095   5.386   1.496  1.9889  0.2931  0.0482
  585MOL0     H80688  10.156   5.250   1.293  0.7728  0.4788  0.0298
  585MOL0     H80689  10.134   5.004   1.110 -0.2750  0.6082  0.1787
  585MOL0     H80690  10.255   5.099   1.012  1.3296 -2.8284  0.2882
  585MOL0     H80691  10.141   5.185   1.093 -0.7867  0.9725 -1.6948
  585MOL0     H80692  10.676   5.126   0.818  2.2355 -0.4623 -1.4421
  585MOL0     H80693  10.758   5.004   0.633 -3.8383  1.0770  1.0895
  585MOL0     H80694  10.803   4.549   0.635 -0.5614  0.1349  0.4177
  585MOL0     H80695  10.643   4.636   0.613 -0.8467 -0.2351 -1.7100
  585MOL0     H80696  10.871   4.608   0.418 -0.2569  4.7472  0.0654
  585MOL0     H80697  10.715   4.512   0.422 -2.7198  0.6873  0.1269
  585MOL0     H80698  10.684   4.819   0.395 -2.3615  0.5625  1.0310
  585MOL0     H80699  10.580   4.681   0.396 -1.4519  2.3132 -2.5888
  585MOL0     H80700  10.720   4.593   0.195  0.3955  0.6107 -1.9100
  585MOL0     H80701  10.779   4.757   0.191  0.2067  0.0247 -0.6308
  585MOL0     H80702  10.569   4.689   0.041  1.8944  2.6709 -1.7123
  585MOL0     H80703  10.482   4.663   0.190 -2.5813  1.6825 -0.1604
  585MOL0     H80704  10.515   4.897   0.268  0.2020  1.1419 -0.3590
  585MOL0     H80705  10.409   4.879   0.127 -0.5562  0.7361  1.0839
  585MOL0     H80706  10.573   4.948  -0.017 -0.8991 -3.2130  1.8513
  585MOL0     H80707  10.694   4.937   0.105 -1.9144 -2.7932  1.3201
  585MOL0     H80708  10.436   5.110   0.115 -0.6653 -4.8090 -1.2449
  585MOL0     H80709  10.594   5.191   0.072  3.2010 -0.1432  3.2867
  585MOL0     H80710  10.788   4.642   0.882 -0.3713 -1.0387 -1.0607
  585MOL0     H80711  10.655   4.773   1.057  2.1617  1.0920  1.3509
  585MOL0     H80712  10.609   5.082   1.311 -0.8126  0.4755 -0.0195
  585MOL0     H80713  10.522   5.221   1.524  1.3785 -0.4270 -1.2029
  585MOL0     H80714   9.451   6.669   2.230 -0.8085  0.5791  1.4623
  585MOL0     H80715   9.333   6.865   2.212 -0.9204  2.7572 -1.9483
  585MOL0     H80716   9.009   7.032   1.847  3.2595  3.5906 -5.7151
  585MOL0     H80717   8.854   7.215   1.765 -0.8457  1.4548 -0.3650
  585MOL0     H80718   8.884   7.452   1.658  0.6465  3.2059 -0.4514
  585MOL0     H80719   8.741   7.388   1.750 -0.0455 -0.4583  1.5625
  585MOL0     H80720   8.819   7.663   1.645  0.4804 -2.6267 -1.7375
  585MOL0     H80721   8.745   7.677   1.804 -1.7340 -0.2335  0.5132
  585MOL0     H80722   8.643   7.646   1.546  2.2692  2.7853  1.2758
  585MOL0     H80723   8.567   7.528   1.656 -1.0227  0.0582  2.1753
  585MOL0     H80724   8.523   7.716   1.819 -0.8883  1.0394 -0.5857
  585MOL0     H80725   8.432   7.748   1.665 -1.0071  2.8335  1.5670
  585MOL0     H80726   8.668   8.073   1.606  0.2338 -0.3418 -3.9593
  585MOL0     H80727   9.020   7.459   2.080  2.6737 -0.8112 -0.3356
  585MOL0     H80728   9.232   7.211   2.212 -0.0780 -0.5050  1.1279
  585MOL0     H80729   9.165   7.372   2.252 -0.4078  1.0183  0.8534
  585MOL0     H80730   9.084   7.225   2.303  1.7830 -1.0057 -0.7521
  586MOL0     O80731   0.038   6.471  10.032  1.7101 -0.5132  0.3996
  586MOL0     C80732  -0.018   6.475   9.919  0.1581 -0.6908  0.6021
  586MOL0     O80733  -0.003   6.577   9.824  0.4634 -0.4197  0.0053
  586MOL0     C80734   0.101   6.665   9.847  0.2212  0.2080 -0.2822
  586MOL0     C80735   0.223   6.638   9.785 -0.0695  0.1554 -0.3014
  586MOL0     C80736   0.332   6.712   9.819 -0.5919  0.8282 -0.6154
  586MOL0     C80737   0.330   6.820   9.901 -1.2469  0.0602  0.2247
  586MOL0     O80738   0.446   6.882   9.929  0.2802  0.1378 -0.2473
  586MOL0     C80739   0.470   6.953  10.052 -0.2997  0.0692 -0.3312
  586MOL0     C80740   0.554   7.069  10.028 -0.7155  0.1343  1.1299
  586MOL0     C80741   0.559   7.178  10.140  0.5945  0.6798 -0.4353
  586MOL0     C80742   0.652   7.300  10.122 -0.2801 -0.1870 -0.2845
  586MOL0     C80743   0.599   7.433  10.185  0.7738  0.3703  0.1944
  586MOL0     C80744   0.692   7.554  10.166 -0.1204  0.5741  0.6947
  586MOL0     C80745   0.606   7.682  10.151 -0.2843  1.2116 -0.0176
  586MOL0     C80746   0.677   7.792  10.064 -0.2037  0.4309 -0.1859
  586MOL0     N80747   0.616   7.921  10.072  0.0734 -0.6426  0.3330
  586MOL0     C80748   0.585   7.980  10.195  0.3110 -0.0281  0.2049
  586MOL0     C80749   0.502   8.081  10.173 -0.4746 -0.4702  0.9112
  586MOL0     C80750   0.465   8.185  10.268 -0.0313 -1.6252 -0.1061
  586MOL0     C80751   0.310   8.172  10.295 -0.3386  0.1274 -0.5078
  586MOL0     C80752   0.261   8.258  10.413 -0.8188  0.6449  1.0594
  586MOL0     C80753   0.276   8.185  10.548  0.1469 -0.0823 -0.2350
  586MOL0     O80754   0.189   8.066  10.551 -0.0562  0.5416 -0.4167
  586MOL0     C80755   0.151   8.021  10.679 -0.8389  0.2050  0.5315
  586MOL0     C80756   0.026   7.968  10.697 -0.2933 -0.8574  0.4886
  586MOL0     C80757  -0.020   7.937  10.835 -0.3173 -0.5575 -0.2610
  586MOL0     C80758  -0.168   7.912  10.850 -1.4832  0.8028  0.4745
  586MOL0     C80759   0.069   7.936  10.941 -0.8607  0.0972  0.9001
  586MOL0     C80760   0.039   7.888  11.075 -0.5743  0.0848  0.6786
  586MOL0     O80761   0.115   7.936  11.172  0.7740  0.0336 -0.0457
  586MOL0     C80762   0.075   7.917  11.303 -0.1841 -0.2222 -0.2470
  586MOL0     C80763   0.171   7.878  11.388 -0.4604  0.0400 -0.3165
  586MOL0     C80764   0.149   7.865  11.528 -1.0562  0.3093  0.1914
  586MOL0     C80765   0.022   7.896  11.574  0.5031  0.5341 -1.1304
  586MOL0     O80766  -0.003   7.882  11.713  0.1588 -0.6226  0.1266
  586MOL0     C80767  -0.077   7.992  11.779 -0.3147  0.3467 -0.3293
  586MOL0     C80768  -0.061   7.991  11.936 -0.3731  0.0471  0.0787
  586MOL0     C80769  -0.119   8.105  12.013 -0.0359  0.1795 -0.5168
  586MOL0     C80770  -0.247   8.070  12.086 -0.8086  0.5622  0.8462
  586MOL0     C80771  -0.303   8.178  12.182 -0.3097 -0.0443  0.6697
  586MOL0     C80772  -0.426   8.120  12.241  0.5508 -0.6255 -0.6226
  586MOL0     C80773  -0.474   8.210  12.363  0.8571  0.3388 -0.5493
  586MOL0     C80774  -0.596   8.143  12.431  0.0751 -0.2305  0.0162
  586MOL0    Cl80775  -0.727   8.123  12.302 -0.1206  0.2817  0.4931
  586MOL0     C80776  -0.076   7.951  11.484 -0.7708 -0.7094 -0.1931
  586MOL0     C80777  -0.051   7.959  11.353 -0.2074 -0.6518  0.0616
  586MOL0     O80778  -0.052   7.806  11.084  0.1345 -0.5844 -0.6283
  586MOL0     C80779   0.202   7.972  10.915 -0.3144  0.2304  0.1459
  586MOL0     C80780   0.238   8.017  10.788 -0.2856  0.1207 -0.5535
  586MOL0     N80781   0.497   8.092  10.036 -0.0721  0.0540 -0.2779
  586MOL0     N80782   0.565   7.998   9.977  1.1347 -0.5648 -0.5712
  586MOL0     C80783   0.205   6.864   9.956 -0.5324  0.8721  0.0403
  586MOL0     C80784   0.094   6.780   9.930 -0.5677  0.5818  0.3346
  586MOL0     C80785  -0.124   6.370   9.904 -0.3847 -0.5084 -0.8022
  586MOL0     C80786  -0.189   6.370   9.778  0.0495  0.0822  0.3392
  586MOL0     C80787  -0.281   6.273   9.741  0.3184  0.3621 -0.1735
  586MOL0     C80788  -0.307   6.163   9.828 -0.2044 -0.4468  0.6617
  586MOL0     O80789  -0.402   6.065   9.794 -0.3164 -0.1536 -1.2328
  586MOL0     C80790  -0.493   6.081   9.683  0.6732 -0.0054  0.6733
  586MOL0     C80791  -0.603   6.181   9.731  0.4682 -1.1934  0.5415
  586MOL0     C80792  -0.660   6.152   9.869  0.5719 -0.0885  0.3808
  586MOL0     C80793  -0.762   6.244   9.934  0.5770 -0.3875  0.3261
  586MOL0     C80794  -0.881   6.278   9.843 -0.3831 -0.8200 -1.1652
  586MOL0     C80795  -0.976   6.290   9.771  0.0007  0.4275  0.4378
  586MOL0     C80796  -0.243   6.163   9.954  0.5381  0.5297  0.7562
  586MOL0     C80797  -0.149   6.259   9.990 -0.4678  0.4398 -0.0243
  586MOL0     C80798  -0.066   6.216  10.115 -0.2497  0.5450 -0.1358
  586MOL0     H80799   0.235   6.552   9.721  2.6987  0.2238  0.0175
  586MOL0     H80800   0.414   6.685   9.753 -0.8055  0.0716 -0.5854
  586MOL0     H80801   0.518   6.874  10.111 -0.7884  0.2350  0.3080
  586MOL0     H80802   0.375   6.985  10.097  1.2474  2.2895  1.6473
  586MOL0     H80803   0.653   7.031  10.004  0.7445  2.8444  2.3944
  586MOL0     H80804   0.508   7.115   9.940  0.0745 -2.0337 -0.4793
  586MOL0     H80805   0.460   7.218  10.164  1.3470  3.2630 -1.3632
  586MOL0     H80806   0.601   7.126  10.227 -1.5501 -0.1192  0.1952
  586MOL0     H80807   0.754   7.272  10.151 -0.3909  0.1502  0.4621
  586MOL0     H80808   0.645   7.323  10.015 -1.4753  0.3590 -0.1039
  586MOL0     H80809   0.581   7.422  10.293 -1.2077  2.0396  0.0930
  586MOL0     H80810   0.496   7.457  10.158  0.2958 -2.2462 -0.6600
  586MOL0     H80811   0.774   7.564  10.238  0.1832  2.0024  0.1797
  586MOL0     H80812   0.734   7.529  10.069  0.9733 -0.4635  1.4057
  586MOL0     H80813   0.592   7.714  10.255 -1.1154 -4.0994  1.8212
  586MOL0     H80814   0.509   7.663  10.106 -0.3795  0.3584  0.5324
  586MOL0     H80815   0.782   7.812  10.089 -0.1947  3.9461 -2.3304
  586MOL0     H80816   0.675   7.748   9.964  0.3339 -2.6574  1.0242
  586MOL0     H80817   0.632   7.951  10.288  0.9862 -0.2889 -0.2043
  586MOL0     H80818   0.484   8.281  10.218 -2.6784  0.9036  3.2134
  586MOL0     H80819   0.518   8.177  10.363 -1.4425  1.1598  1.0578
  586MOL0     H80820   0.267   8.216  10.204  1.2277  2.8477 -0.0741
  586MOL0     H80821   0.272   8.070  10.293 -3.6236  1.2464 -2.1841
  586MOL0     H80822   0.301   8.360  10.417  0.3890  0.1687  2.8184
  586MOL0     H80823   0.158   8.280  10.384  0.2410  1.3324 -2.7978
  586MOL0     H80824   0.377   8.144  10.564  0.1943 -0.3327 -1.1069
  586MOL0     H80825   0.266   8.261  10.625  0.7987 -1.5494  1.3540
  586MOL0     H80826  -0.043   7.970  10.614  3.0731 -2.2883 -2.6391
  586MOL0     H80827  -0.213   7.968  10.768  2.3148  0.6458 -1.9725
  586MOL0     H80828  -0.203   7.957  10.943  1.0662  0.2920  1.7766
  586MOL0     H80829  -0.167   7.803  10.841  0.1999  0.9104 -1.6075
  586MOL0     H80830   0.276   7.865  11.360 -0.1684  2.9668 -0.8928
  586MOL0     H80831   0.233   7.824  11.584  1.4254  0.5153 -3.0481
  586MOL0     H80832  -0.036   8.084  11.737  0.4083 -1.0870 -2.9693
  586MOL0     H80833  -0.183   8.002  11.752  0.4917  4.3201 -2.7911
  586MOL0     H80834  -0.090   7.893  11.974  1.3237 -0.5009  0.0229
  586MOL0     H80835   0.044   7.988  11.965 -1.2986  0.2150  4.0615
  586MOL0     H80836  -0.128   8.200  11.959 -3.1928  0.8432  0.9288
  586MOL0     H80837  -0.042   8.114  12.090 -0.7077 -4.5851  1.0715
  586MOL0     H80838  -0.224   7.981  12.145 -2.4194  0.1257  0.8449
  586MOL0     H80839  -0.316   8.055  12.003 -0.9651 -2.7963  1.4434
  586MOL0     H80840  -0.234   8.208  12.260  0.4441 -0.7082  0.2751
  586MOL0     H80841  -0.309   8.272  12.127  0.0448 -0.6177 -0.3712
  586MOL0     H80842  -0.416   8.019  12.282  0.7319 -1.0131 -1.5843
  586MOL0     H80843  -0.494   8.117  12.155  0.9395  0.4665 -0.9880
  586MOL0     H80844  -0.508   8.310  12.334 -2.2212 -0.9204 -1.6710
  586MOL0     H80845  -0.390   8.218  12.433  0.4188 -2.3759  0.4090
  586MOL0     H80846  -0.636   8.208  12.510 -0.7711  1.7449 -1.9308
  586MOL0     H80847  -0.571   8.041  12.463 -0.1949 -1.3778 -3.1237
  586MOL0     H80848  -0.175   7.980  11.517 -0.7877 -1.6556  0.6606
  586MOL0     H80849  -0.125   7.998  11.284  0.6718  0.2020 -0.4301
  586MOL0     H80850   0.279   7.969  10.991  1.0550 -1.9699 -1.2358
  586MOL0     H80851   0.338   8.058  10.774  0.4857 -0.0330  3.4234
  586MOL0     H80852   0.194   6.949  10.023 -4.4574  0.6520 -0.1063
  586MOL0     H80853  -0.003   6.804   9.972  0.7426  2.5346  2.4906
  586MOL0     H80854  -0.169   6.448   9.705 -1.6965 -0.2631 -0.5570
  586MOL0     H80855  -0.339   6.282   9.650 -2.7379  0.5843  1.6589
  586MOL0     H80856  -0.445   6.120   9.593 -1.6106 -0.5388 -0.8426
  586MOL0     H80857  -0.525   5.983   9.646  1.8154  0.6374 -2.3077
  586MOL0     H80858  -0.682   6.204   9.660  0.5659  0.0579  0.7937
  586MOL0     H80859  -0.551   6.276   9.747 -0.6488 -0.4080 -0.3359
  586MOL0     H80860  -0.712   6.056   9.871  1.0369 -0.3385  0.7992
  586MOL0     H80861  -0.576   6.146   9.939  0.6428  1.5420  0.4697
  586MOL0     H80862  -0.703   6.334   9.954 -0.5037  0.6076 -0.7741
  586MOL0     H80863  -0.795   6.202  10.029 -1.9798 -2.0283 -1.1562
  586MOL0     H80864  -1.054   6.289   9.697 -1.7595  0.5265  2.2076
  586MOL0     H80865  -0.264   6.071  10.007 -0.3482 -0.6251 -1.4938
  586MOL0     H80866  -0.088   6.116  10.155  1.5793 -1.8976 -4.4708
  586MOL0     H80867   0.035   6.209  10.073 -0.8142 -0.1741 -1.4260
  586MOL0     H80868  -0.067   6.287  10.198 -0.3617 -1.7158  1.9063
  587MOL0     O80869   8.801  10.596   9.504 -0.0745  0.3282  0.2397
  587MOL0     C80870   8.728  10.663   9.573  0.1938 -0.3112 -1.1410
  587MOL0     O80871   8.630  10.745   9.525  0.5839  0.2618 -0.1160
  587MOL0     C80872   8.601  10.762   9.389  0.2536 -0.3053 -0.0791
  587MOL0     C80873   8.702  10.764   9.283  0.3075  0.0586  0.2888
  587MOL0     C80874   8.661  10.746   9.143 -1.1321 -0.5799  0.0565
  587MOL0     C80875   8.527  10.735   9.108 -0.3769 -0.1559 -0.2203
  587MOL0     O80876   8.476  10.724   8.982  0.0680 -0.2572 -0.3553
  587MOL0     C80877   8.351  10.791   8.939  0.8306 -0.1338 -0.2812
  587MOL0     C80878   8.360  10.834   8.789  0.1146 -0.9802  0.0102
  587MOL0     C80879   8.243  10.913   8.734  0.7069 -0.3153  0.2582
  587MOL0     C80880   8.243  10.922   8.574  0.0218 -0.2173 -0.2348
  587MOL0     C80881   8.144  11.022   8.520  0.9634 -0.3502  0.6501
  587MOL0     C80882   8.174  11.066   8.373 -0.5097 -0.2858 -0.2779
  587MOL0     C80883   8.065  11.148   8.293  0.4087  0.0338  0.3249
  587MOL0     C80884   7.940  11.077   8.259 -0.3963  0.7155 -0.4880
  587MOL0     N80885   7.887  11.137   8.136  0.1714 -0.2104  0.2911
  587MOL0     C80886   7.816  11.251   8.116 -0.0936  0.0677  0.0825
  587MOL0     C80887   7.811  11.279   7.982  0.6165  0.2094 -0.5555
  587MOL0     C80888   7.739  11.391   7.908  0.8021 -0.2314 -0.7699
  587MOL0     C80889   7.822  11.452   7.783  0.2518 -0.7622  0.3253
  587MOL0     C80890   7.750  11.568   7.704 -0.5353  0.0090  0.4658
  587MOL0     C80891   7.831  11.631   7.592  0.0005 -0.2278 -0.0521
  587MOL0     O80892   7.772  11.748   7.533 -0.6909  0.0112 -0.0783
  587MOL0     C80893   7.673  11.729   7.441 -0.2569 -0.0238  1.1520
  587MOL0     C80894   7.620  11.608   7.382 -0.6267  0.7651 -0.2052
  587MOL0     C80895   7.513  11.608   7.290  0.5881  0.4433  0.1896
  587MOL0     C80896   7.459  11.468   7.250 -0.1351 -0.1742 -0.6999
  587MOL0     C80897   7.444  11.722   7.252  0.4472 -0.2551  1.1794
  587MOL0     C80898   7.312  11.720   7.176  0.5563 -0.0944 -0.1489
  587MOL0     O80899   7.283  11.664   7.056  0.2050 -0.8072 -0.1831
  587MOL0     C80900   7.167  11.608   7.029  0.2531  0.9498 -0.9471
  587MOL0     C80901   7.108  11.642   6.908 -0.8852  0.3400  0.0099
  587MOL0     C80902   6.991  11.593   6.861  0.6599  0.8892 -0.5365
  587MOL0     C80903   6.926  11.495   6.945 -0.9465 -0.0463 -0.0915
  587MOL0     O80904   6.805  11.446   6.904 -0.4473  0.7486 -0.5037
  587MOL0     C80905   6.719  11.412   7.020  0.7164 -0.5088  0.4737
  587MOL0     C80906   6.567  11.398   6.998  0.0921  0.5217  0.2515
  587MOL0     C80907   6.503  11.518   6.947 -0.3179 -1.0520  0.5012
  587MOL0     C80908   6.556  11.556   6.804  0.7476  0.3674 -0.8396
  587MOL0     C80909   6.470  11.664   6.745 -1.1096  0.3249  0.5442
  587MOL0     C80910   6.531  11.731   6.618  0.1159 -1.0275  1.0446
  587MOL0     C80911   6.673  11.786   6.623  0.4090  0.1756 -0.9463
  587MOL0     C80912   6.713  11.805   6.484 -0.3149  0.3710 -0.0382
  587MOL0    Cl80913   6.589  11.902   6.389 -0.1090 -0.3381  0.2905
  587MOL0     C80914   6.993  11.445   7.062  0.9376  0.6886 -0.2870
  587MOL0     C80915   7.108  11.501   7.106 -0.8128 -0.4677  0.6608
  587MOL0     O80916   7.228  11.778   7.255  0.7927 -0.0087  0.0398
  587MOL0     C80917   7.489  11.843   7.306 -0.2957 -0.3061  0.0929
  587MOL0     C80918   7.599  11.842   7.398 -0.4572  0.0010  0.7722
  587MOL0     N80919   7.891  11.180   7.933 -0.3863  0.5551 -0.6230
  587MOL0     N80920   7.949  11.111   8.019 -0.2145  0.0822  0.5888
  587MOL0     C80921   8.436  10.739   9.208 -1.2356  0.7898 -0.3784
  587MOL0     C80922   8.465  10.748   9.350  0.0350  0.0010  0.3451
  587MOL0     C80923   8.757  10.649   9.718  0.6962 -0.5557  0.7747
  587MOL0     C80924   8.892  10.638   9.750  0.0293  0.4006 -0.0477
  587MOL0     C80925   8.939  10.673   9.879  0.3618 -0.3159 -0.2622
  587MOL0     C80926   8.841  10.711   9.977 -0.7972 -0.7061  0.5071
  587MOL0     O80927   8.894  10.750  10.095  0.3675  0.3526  0.0252
  587MOL0     C80928   9.018  10.788  10.126 -0.3438 -0.1784 -0.3168
  587MOL0     C80929   9.051  10.929  10.074 -0.2195  0.0997  1.0332
  587MOL0     C80930   9.204  10.972  10.075  0.5617  0.1054  0.2819
  587MOL0     C80931   9.222  11.087   9.983 -0.3016 -0.3393  0.2936
  587MOL0     C80932   9.358  11.105   9.954 -0.8353 -0.8456  1.0613
  587MOL0     C80933   9.478  11.126   9.924 -0.4497  0.0048 -0.9227
  587MOL0     C80934   8.705  10.694   9.951 -0.6434 -0.5127  0.4728
  587MOL0     C80935   8.665  10.666   9.819  0.4484  0.2423 -0.1980
  587MOL0     C80936   8.521  10.649   9.789 -0.2579  0.4050  0.2234
  587MOL0     H80937   8.807  10.772   9.306  0.0443 -1.6242  2.3692
  587MOL0     H80938   8.741  10.731   9.071  1.2989 -0.0167  2.4698
  587MOL0     H80939   8.338  10.877   9.004  1.2201 -1.0162  1.0094
  587MOL0     H80940   8.267  10.722   8.951  3.7689 -4.1468 -0.6599
  587MOL0     H80941   8.455  10.888   8.775  1.1680 -2.4084  1.3555
  587MOL0     H80942   8.367  10.742   8.730  1.9772 -1.1165  0.3813
  587MOL0     H80943   8.146  10.877   8.772  1.3974  0.7566  3.3334
  587MOL0     H80944   8.248  11.012   8.779 -0.2503 -0.7723  1.4432
  587MOL0     H80945   8.339  10.965   8.543  0.8325 -1.4440  0.4938
  587MOL0     H80946   8.236  10.824   8.526 -0.9731 -1.8347  2.9287
  587MOL0     H80947   8.152  11.114   8.579  1.5745 -1.3491  2.1776
  587MOL0     H80948   8.045  10.977   8.523  1.5546 -1.7567  0.1396
  587MOL0     H80949   8.264  11.127   8.379 -0.7270  0.4516 -3.0618
  587MOL0     H80950   8.201  10.982   8.308 -0.9215 -0.7425  0.1370
  587MOL0     H80951   8.120  11.166   8.199  0.3341 -3.0409 -0.4033
  587MOL0     H80952   8.049  11.237   8.355 -0.2981 -1.3843  2.2719
  587MOL0     H80953   7.950  10.973   8.228 -0.6640  0.5718 -0.1055
  587MOL0     H80954   7.863  11.082   8.337 -2.9619  1.5939 -2.9010
  587MOL0     H80955   7.759  11.298   8.195 -2.2354 -0.5327 -1.0174
  587MOL0     H80956   7.716  11.468   7.982  0.0341 -2.4405  1.4738
  587MOL0     H80957   7.644  11.341   7.890  1.8101 -3.1797  1.2408
  587MOL0     H80958   7.910  11.495   7.831  0.6901 -1.4494  0.1444
  587MOL0     H80959   7.860  11.383   7.707  1.9988  3.4385 -3.0720
  587MOL0     H80960   7.653  11.544   7.658  1.0507  1.6054 -4.3788
  587MOL0     H80961   7.724  11.645   7.777 -2.2032  0.1957 -0.2853
  587MOL0     H80962   7.929  11.657   7.632 -0.7089  2.2473  0.2481
  587MOL0     H80963   7.849  11.562   7.509 -0.9160  1.1000 -1.3975
  587MOL0     H80964   7.657  11.513   7.419 -2.0238  0.5097  0.5920
  587MOL0     H80965   7.417  11.474   7.150 -0.9232  2.4459 -0.2926
  587MOL0     H80966   7.384  11.445   7.327  0.5010  0.2614  0.0678
  587MOL0     H80967   7.538  11.393   7.261  0.1070  0.2296  0.5195
  587MOL0     H80968   7.157  11.728   6.862  1.4903  1.8165  4.5920
  587MOL0     H80969   6.951  11.633   6.768  0.3192  1.3537 -0.1938
  587MOL0     H80970   6.739  11.308   7.048  0.6007 -0.8806 -0.7569
  587MOL0     H80971   6.722  11.485   7.100  0.3630 -1.1099  1.0462
  587MOL0     H80972   6.554  11.326   6.917 -0.5217 -2.7470  3.0074
  587MOL0     H80973   6.517  11.363   7.089 -0.5203  0.4292 -0.1162
  587MOL0     H80974   6.525  11.602   7.014  0.4630 -0.8231 -0.0322
  587MOL0     H80975   6.395  11.501   6.942 -0.8650  1.5995  1.5704
  587MOL0     H80976   6.566  11.463   6.747  2.4777 -0.7305  1.0853
  587MOL0     H80977   6.657  11.596   6.821  1.5751 -1.6552 -0.6587
  587MOL0     H80978   6.375  11.630   6.702 -1.8720  1.0880  1.5800
  587MOL0     H80979   6.444  11.741   6.818  0.3815  1.3146  0.0673
  587MOL0     H80980   6.460  11.811   6.598  2.0066  0.2163 -1.1652
  587MOL0     H80981   6.519  11.669   6.529 -0.2151 -0.6271  0.8111
  587MOL0     H80982   6.750  11.737   6.683 -0.6163  0.8273  0.9614
  587MOL0     H80983   6.676  11.887   6.663  1.3400  0.1129 -0.8343
  587MOL0     H80984   6.731  11.707   6.441 -1.9806  1.1592 -2.7567
  587MOL0     H80985   6.813  11.851   6.486  0.1799 -0.6549  1.9311
  587MOL0     H80986   6.950  11.364   7.120  0.1890  0.1355 -1.5728
  587MOL0     H80987   7.152  11.480   7.203  2.4173 -3.6445 -1.2734
  587MOL0     H80988   7.445  11.939   7.280  0.1961 -0.7130 -2.5694
  587MOL0     H80989   7.619  11.938   7.445  1.3597  0.4242 -0.7342
  587MOL0     H80990   8.332  10.728   9.181 -1.4719  0.0086  0.7689
  587MOL0     H80991   8.404  10.735   9.439  0.5903  0.7352  0.8458
  587MOL0     H80992   8.967  10.615   9.675 -0.0922  2.0514 -0.7206
  587MOL0     H80993   9.046  10.674   9.893  0.2204  2.1938  1.0868
  587MOL0     H80994   9.048  10.788  10.231  0.0111 -2.5529 -0.3737
  587MOL0     H80995   9.098  10.723  10.088 -0.2462  0.2255 -0.8128
  587MOL0     H80996   8.990  11.000  10.131 -3.1330  1.0829 -2.8860
  587MOL0     H80997   9.022  10.935   9.969  1.5459 -0.1555  0.4959
  587MOL0     H80998   9.234  11.011  10.173 -2.1550  4.0360 -0.2630
  587MOL0     H80999   9.263  10.881  10.056 -1.3363 -1.1378  0.1080
  587MOL0     H81000   9.179  11.174  10.033  1.0294  0.4190  0.1809
  587MOL0     H81001   9.183  11.068   9.883 -0.6241 -1.2822  0.5909
  587MOL0     H81002   9.583  11.117   9.908 -0.1504 -1.2205  1.3467
  587MOL0     H81003   8.638  10.717  10.033 -0.5388 -2.6336  1.1985
  587MOL0     H81004   8.499  10.567   9.719 -1.0638  1.9295 -1.3688
  587MOL0     H81005   8.467  10.637   9.883 -0.1463  2.5167  0.6034
  587MOL0     H81006   8.493  10.744   9.744  3.4918  0.5737 -2.2313
  588MOL0     O81007  11.051   7.648   9.376  0.0556  1.0068  1.0193
  588MOL0     C81008  10.954   7.565   9.408 -0.3371  0.4213  0.7575
  588MOL0     O81009  10.851   7.592   9.493  0.6023  0.4353 -0.3800
  588MOL0     C81010  10.873   7.700   9.586 -0.9801  0.8340  0.4912
  588MOL0     C81011  10.997   7.719   9.650  0.3437 -0.9255  0.3747
  588MOL0     C81012  11.003   7.823   9.743  0.0193 -1.2350  0.5586
  588MOL0     C81013  10.902   7.917   9.754 -0.5403  1.2127  0.4696
  588MOL0     O81014  10.906   8.032   9.837  0.1640 -0.1772 -0.0543
  588MOL0     C81015  11.025   8.069   9.904 -0.0728  1.1773 -1.0690
  588MOL0     C81016  10.992   8.190   9.989  0.7336 -1.1139  0.9037
  588MOL0     C81017  11.120   8.215  10.077 -0.4242  1.1089  0.2976
  588MOL0     C81018  11.118   8.335  10.164  0.1104 -0.5573  0.4263
  588MOL0     C81019  11.157   8.468  10.093  0.5526 -0.2190 -0.3784
  588MOL0     C81020  11.186   8.571  10.202  0.5323 -0.3019 -0.0235
  588MOL0     C81021  11.062   8.622  10.273  0.6384 -0.7673  0.9177
  588MOL0     C81022  10.995   8.726  10.174  0.7890  0.3762 -0.2766
  588MOL0     N81023  10.884   8.788  10.228 -0.0948 -0.5364 -0.0148
  588MOL0     C81024  10.889   8.919  10.275 -0.7750  0.7155  0.1737
  588MOL0     C81025  10.765   8.943  10.314 -0.6428  0.3282 -0.7384
  588MOL0     C81026  10.729   9.083  10.362 -0.1046  0.1610  0.5847
  588MOL0     C81027  10.610   9.086  10.459 -0.1436  0.8795 -0.0435
  588MOL0     C81028  10.473   9.089  10.379 -0.2406  0.0435 -0.1755
  588MOL0     C81029  10.424   8.952  10.330  0.0387  0.4913  0.0827
  588MOL0     O81030  10.286   8.949  10.290  0.0530 -0.0488 -0.9271
  588MOL0     C81031  10.235   8.840  10.234 -0.0986 -0.0156 -0.3055
  588MOL0     C81032  10.099   8.832  10.212 -0.0652 -0.3051  0.3670
  588MOL0     C81033  10.039   8.717  10.160  0.3151 -0.1969  0.6383
  588MOL0     C81034   9.896   8.715  10.163 -0.5770  0.4843  0.2866
  588MOL0     C81035  10.113   8.597  10.130  0.1240  0.3584  0.3267
  588MOL0     C81036  10.065   8.465  10.067 -0.0451 -0.9953  0.1161
  588MOL0     O81037  10.111   8.349  10.116  0.1875 -0.3106 -0.2335
  588MOL0     C81038  10.037   8.241  10.086  0.9805  0.3483 -0.8989
  588MOL0     C81039  10.073   8.143   9.995 -0.2985 -0.0752 -0.7298
  588MOL0     C81040  10.004   8.029   9.975  0.5552  0.2917 -0.0375
  588MOL0     C81041   9.881   8.011  10.031  0.1780 -0.6994  0.6315
  588MOL0     O81042   9.824   7.890   9.990  0.1700 -0.0571 -0.6035
  588MOL0     C81043   9.704   7.858  10.062 -0.0163  0.7925 -1.4956
  588MOL0     C81044   9.623   7.751   9.994 -0.7891 -0.0251 -0.4422
  588MOL0     C81045   9.493   7.737  10.071  1.2384  0.2733  1.0735
  588MOL0     C81046   9.432   7.594  10.052  0.6476  0.0569  0.2334
  588MOL0     C81047   9.280   7.601  10.062 -0.2213  0.6065 -0.2773
  588MOL0     C81048   9.235   7.623  10.205 -0.2080 -0.1413  0.4990
  588MOL0     C81049   9.075   7.627  10.218  0.1981  0.0295  0.3179
  588MOL0     C81050   9.019   7.532  10.324  0.2816  0.3215 -0.2265
  588MOL0    Cl81051   9.110   7.570  10.466  0.1783  0.5120  0.0796
  588MOL0     C81052   9.843   8.095  10.136 -1.4267 -0.9327 -0.7904
  588MOL0     C81053   9.922   8.209  10.155  0.1219 -0.1931 -0.1565
  588MOL0     O81054   9.984   8.479   9.971 -0.0146 -0.7586 -0.2419
  588MOL0     C81055  10.254   8.603  10.149  0.0742 -0.8920 -0.6547
  588MOL0     C81056  10.312   8.722  10.212  0.4758  0.3033 -0.4549
  588MOL0     N81057  10.687   8.830  10.290 -0.5923 -0.8495  0.5139
  588MOL0     N81058  10.764   8.734  10.253 -0.0593  0.1816 -0.8924
  588MOL0     C81059  10.785   7.903   9.676  1.0126  0.7192  0.2196
  588MOL0     C81060  10.763   7.789   9.599  0.9602  0.0113 -0.5248
  588MOL0     C81061  10.966   7.422   9.362  0.0751  0.0055 -0.1995
  588MOL0     C81062  11.024   7.396   9.234  0.1280  0.4913  0.1565
  588MOL0     C81063  11.042   7.266   9.193  0.1700  0.5155 -0.0487
  588MOL0     C81064  10.990   7.149   9.264  0.5729  0.0222 -1.0282
  588MOL0     O81065  11.001   7.029   9.205  0.7251  0.3880 -0.4095
  588MOL0     C81066  11.005   6.916   9.296 -0.2550  0.6596  0.4844
  588MOL0     C81067  11.116   6.827   9.225  0.2520  0.5380  0.0125
  588MOL0     C81068  11.063   6.749   9.100  0.3422  0.1592  0.6187
  588MOL0     C81069  11.174   6.648   9.068  0.5644  1.4771 -0.2391
  588MOL0     C81070  11.138   6.553   8.954  0.1328 -0.3396 -0.3048
  588MOL0     C81071  11.118   6.470   8.868  0.0446 -1.0423 -0.6429
  588MOL0     C81072  10.927   7.177   9.383 -1.1393 -0.2153  0.2027
  588MOL0     C81073  10.927   7.308   9.441  0.3507 -0.2861  0.8453
  588MOL0     C81074  10.872   7.327   9.578  0.1146 -0.2346 -0.0212
  588MOL0     H81075  11.083   7.654   9.639  1.4284  0.2321  1.7111
  588MOL0     H81076  11.098   7.833   9.795  0.3615  0.0239 -0.2584
  588MOL0     H81077  11.100   8.094   9.828  0.9657 -2.3489 -1.3633
  588MOL0     H81078  11.057   7.988   9.970  0.2367  1.3620 -0.9893
  588MOL0     H81079  10.971   8.279   9.930  2.3916 -0.9835  0.4608
  588MOL0     H81080  10.911   8.176  10.061  1.8937  0.1519  2.5001
  588MOL0     H81081  11.144   8.131  10.143 -0.4939  1.1265  0.3466
  588MOL0     H81082  11.214   8.223  10.022  2.2897 -1.5126  4.0701
  588MOL0     H81083  11.020   8.346  10.212  1.6162 -1.1899  3.9169
  588MOL0     H81084  11.192   8.312  10.241  0.8580 -1.5197 -0.5439
  588MOL0     H81085  11.071   8.495  10.032  1.7849  0.1831 -2.0224
  588MOL0     H81086  11.242   8.447  10.027  0.9578 -0.8960  0.3457
  588MOL0     H81087  11.246   8.534  10.285  2.9202  0.1559 -1.4546
  588MOL0     H81088  11.231   8.655  10.149  1.9532 -1.6984 -1.1445
  588MOL0     H81089  11.089   8.666  10.369  1.3722  4.2963 -1.3208
  588MOL0     H81090  10.996   8.539  10.301 -0.3147 -0.6386 -0.8117
  588MOL0     H81091  11.065   8.809  10.159  0.5354  1.4561  3.5564
  588MOL0     H81092  10.966   8.676  10.081  0.4944  0.3200 -0.1550
  588MOL0     H81093  10.972   8.989  10.274  0.0302 -0.2020  0.5932
  588MOL0     H81094  10.714   9.154  10.280  1.9047 -0.2017 -0.1408
  588MOL0     H81095  10.807   9.135  10.418  0.3410  0.0935  0.0372
  588MOL0     H81096  10.624   9.006  10.533 -3.2557  1.8936  1.8092
  588MOL0     H81097  10.628   9.178  10.516 -0.8702  0.4630  0.8781
  588MOL0     H81098  10.395   9.129  10.444  0.9793  2.1396  0.1252
  588MOL0     H81099  10.481   9.157  10.294  0.1029 -0.6066 -0.6683
  588MOL0     H81100  10.488   8.943  10.242 -0.5415  2.1680 -0.5560
  588MOL0     H81101  10.446   8.877  10.406  2.3388 -1.3353 -2.2124
  588MOL0     H81102  10.046   8.925  10.227 -1.5201 -1.0266 -0.1322
  588MOL0     H81103   9.849   8.767  10.080  1.6876  0.5382 -1.0463
  588MOL0     H81104   9.855   8.764  10.252  2.7429  1.9248  1.1825
  588MOL0     H81105   9.867   8.610  10.149  0.3863  0.3558 -0.9846
  588MOL0     H81106  10.161   8.162   9.935  1.2525  0.2159  1.5280
  588MOL0     H81107  10.051   7.959   9.906 -1.8673  0.8125 -2.3809
  588MOL0     H81108   9.720   7.819  10.163 -2.6447  0.7586 -1.0135
  588MOL0     H81109   9.641   7.947  10.068  2.0631  2.3069 -0.9238
  588MOL0     H81110   9.610   7.782   9.891  1.4656  5.3328  0.5802
  588MOL0     H81111   9.683   7.661  10.011 -0.1036  0.4520 -0.2971
  588MOL0     H81112   9.425   7.815  10.035 -0.2056 -1.2473  0.3528
  588MOL0     H81113   9.495   7.744  10.180 -5.2652 -1.8911  1.7594
  588MOL0     H81114   9.471   7.533  10.134 -3.7667 -0.2170  2.4192
  588MOL0     H81115   9.452   7.551   9.954 -0.5844 -2.7643  1.1151
  588MOL0     H81116   9.241   7.675   9.992  0.4891  1.0338 -0.2270
  588MOL0     H81117   9.244   7.498  10.050  3.3718 -0.7803 -0.4471
  588MOL0     H81118   9.288   7.710  10.246  1.6448  0.0447 -2.0302
  588MOL0     H81119   9.273   7.542  10.268 -0.8864 -1.2703 -0.4955
  588MOL0     H81120   9.013   7.616  10.129  1.2583  1.1962 -0.6183
  588MOL0     H81121   9.051   7.731  10.244 -2.1388  0.3247 -2.5365
  588MOL0     H81122   9.038   7.428  10.297  1.5034  0.8473 -1.5454
  588MOL0     H81123   8.911   7.547  10.330  0.3300  2.1412 -2.4366
  588MOL0     H81124   9.758   8.066  10.198 -0.7793 -0.4677  0.3627
  588MOL0     H81125   9.892   8.280  10.231 -0.2088 -0.0067 -0.4659
  588MOL0     H81126  10.309   8.514  10.123  0.3058 -0.8158 -0.4278
  588MOL0     H81127  10.417   8.725  10.239 -0.2652  1.1564  2.7545
  588MOL0     H81128  10.716   7.986   9.687 -0.6329 -0.8551  2.7952
  588MOL0     H81129  10.663   7.776   9.559 -0.6461  1.8809  2.4939
  588MOL0     H81130  11.057   7.483   9.177 -0.0724  2.4747  2.8437
  588MOL0     H81131  11.100   7.236   9.106  0.2353 -2.2643  0.8527
  588MOL0     H81132  11.039   6.945   9.396 -0.1154  1.7811  0.1272
  588MOL0     H81133  10.913   6.859   9.308  0.4992 -0.1581  2.9812
  588MOL0     H81134  11.141   6.746   9.295  0.7865 -0.9426 -1.8106
  588MOL0     H81135  11.207   6.877   9.192  2.1118 -0.4119  3.2351
  588MOL0     H81136  10.962   6.710   9.119 -0.1582  1.9326  1.7684
  588MOL0     H81137  11.047   6.824   9.023  0.1589 -0.0180  0.4820
  588MOL0     H81138  11.187   6.588   9.158 -0.4236 -0.6792 -1.4728
  588MOL0     H81139  11.272   6.693   9.050  1.9370 -0.3423  2.0932
  588MOL0     H81140  11.080   6.411   8.787 -0.5839  0.6477 -1.6457
  588MOL0     H81141  10.875   7.103   9.444 -0.7353 -0.3072  0.4422
  588MOL0     H81142  10.926   7.414   9.618  0.6627  0.1985 -1.6126
  588MOL0     H81143  10.766   7.352   9.563  0.0382  0.2907  1.3108
  588MOL0     H81144  10.886   7.232   9.630 -0.7992 -1.7160 -2.3152
  589MOL0     O81145   8.231   0.187  10.893  0.1265  0.6223 -0.2939
  589MOL0     C81146   8.307   0.173  10.992 -1.6202 -0.7737  0.0843
  589MOL0     O81147   8.429   0.229  11.003 -0.1600  0.1118 -0.7958
  589MOL0     C81148   8.475   0.308  10.899  0.1433  0.5098  0.6231
  589MOL0     C81149   8.495   0.254  10.771 -0.9980 -0.5165  0.4343
  589MOL0     C81150   8.542   0.331  10.661  0.0628  0.1448  0.7606
  589MOL0     C81151   8.556   0.473  10.676 -0.1285  0.6741  0.2687
  589MOL0     O81152   8.596   0.557  10.576  0.0071  0.3376 -0.6385
  589MOL0     C81153   8.491   0.574  10.479 -0.1389 -0.1833 -0.3605
  589MOL0     C81154   8.529   0.687  10.374  0.3454 -0.2458 -0.0718
  589MOL0     C81155   8.426   0.720  10.270  0.9999 -0.6258  0.0242
  589MOL0     C81156   8.314   0.808  10.343  0.5014  0.3055  0.3711
  589MOL0     C81157   8.206   0.849  10.245 -0.3228 -0.5916  0.6900
  589MOL0     C81158   8.098   0.926  10.334  0.1024  0.3718  0.4598
  589MOL0     C81159   7.984   0.982  10.254  1.0305  0.2133  0.7259
  589MOL0     C81160   8.028   1.065  10.134 -0.1558 -0.8838  0.6335
  589MOL0     N81161   7.938   1.174  10.096 -0.1998 -0.5690  0.0719
  589MOL0     C81162   7.901   1.278  10.177  0.1276 -0.7173  0.5614
  589MOL0     C81163   7.831   1.361  10.091 -0.2023 -1.5208 -0.0367
  589MOL0     C81164   7.761   1.483  10.154  0.6703  1.1530 -0.5888
  589MOL0     C81165   7.618   1.448  10.196 -0.2509  0.2527 -0.1461
  589MOL0     C81166   7.522   1.408  10.086  0.1381  0.9557  0.9611
  589MOL0     C81167   7.502   1.520   9.977  0.0106 -1.0783 -0.1351
  589MOL0     O81168   7.363   1.533   9.937 -0.2022 -0.8591 -0.6414
  589MOL0     C81169   7.300   1.655   9.946 -0.2186 -0.2702  1.5476
  589MOL0     C81170   7.284   1.735  10.056  0.1374  0.0614 -0.0279
  589MOL0     C81171   7.226   1.862  10.052  0.6298 -0.5440 -0.1102
  589MOL0     C81172   7.176   1.918  10.179  0.0038  0.9648  0.5303
  589MOL0     C81173   7.210   1.927   9.926 -0.6643 -1.0916 -0.1984
  589MOL0     C81174   7.180   2.072   9.914 -0.2853 -0.1409 -0.4396
  589MOL0     O81175   7.163   2.150  10.025 -0.2577  0.3347 -0.5178
  589MOL0     C81176   7.160   2.286  10.016 -0.1548  0.4507 -0.8262
  589MOL0     C81177   7.041   2.358  10.040  1.0042  0.3329 -0.5905
  589MOL0     C81178   7.045   2.498  10.023 -0.0057 -0.2890 -0.5692
  589MOL0     C81179   7.170   2.565   9.980  0.2381 -0.1712 -0.1868
  589MOL0     O81180   7.178   2.703   9.962 -0.9615 -0.6798 -0.3686
  589MOL0     C81181   7.048   2.761   9.972 -0.5272 -0.4075 -0.1284
  589MOL0     C81182   7.062   2.906   9.925 -1.1442  0.8998 -0.3219
  589MOL0     C81183   7.116   2.917   9.778  0.0559 -0.1191  0.1888
  589MOL0     C81184   7.010   2.902   9.668 -0.5183  0.0806  0.0762
  589MOL0     C81185   7.066   2.971   9.544  1.5422  0.3797  0.8535
  589MOL0     C81186   6.997   2.944   9.416  0.1743 -0.7658 -1.1057
  589MOL0     C81187   6.853   3.008   9.418  1.0536  0.6001 -0.4781
  589MOL0     C81188   6.723   2.939   9.476  0.5353 -0.7670 -0.4082
  589MOL0    Cl81189   6.702   2.769   9.427  0.0127  0.4432  0.0154
  589MOL0     C81190   7.284   2.486   9.975 -0.2705  0.2392 -0.2838
  589MOL0     C81191   7.283   2.348  10.002  0.2495  0.1417  1.2937
  589MOL0     O81192   7.170   2.121   9.796  0.5613 -0.9148  0.6102
  589MOL0     C81193   7.215   1.842   9.811 -0.1207  0.0636 -0.0834
  589MOL0     C81194   7.269   1.710   9.820 -0.1722  0.2228  0.4842
  589MOL0     N81195   7.825   1.308   9.969 -0.2722  0.1191  0.7722
  589MOL0     N81196   7.902   1.198   9.970 -0.0683  0.3134  0.3957
  589MOL0     C81197   8.531   0.529  10.806 -0.3715  1.1793 -0.5092
  589MOL0     C81198   8.496   0.446  10.914  0.4253  0.6209  0.7568
  589MOL0     C81199   8.266   0.093  11.118 -0.5169 -0.4388 -0.3658
  589MOL0     C81200   8.334   0.116  11.241 -0.3413 -0.5592 -0.7159
  589MOL0     C81201   8.308   0.048  11.352  0.7363  1.1102  0.1719
  589MOL0     C81202   8.206  -0.046  11.362 -0.0687 -0.4658 -0.3128
  589MOL0     O81203   8.171  -0.108  11.476  0.0113 -0.0711  0.8767
  589MOL0     C81204   8.049  -0.179  11.487  0.1069  0.6857 -0.3964
  589MOL0     C81205   8.025  -0.225  11.631  0.3855  1.0384 -0.3116
  589MOL0     C81206   7.939  -0.359  11.623  0.1061  0.0556 -0.5639
  589MOL0     C81207   7.850  -0.388  11.743 -0.2427  0.2895  0.2352
  589MOL0     C81208   7.749  -0.282  11.773 -0.2423 -1.3898 -0.4506
  589MOL0     C81209   7.660  -0.212  11.812 -0.1111 -0.9332 -0.6094
  589MOL0     C81210   8.133  -0.063  11.239 -0.0191  0.7790  0.6500
  589MOL0     C81211   8.160   0.005  11.121  1.4337  0.5946 -0.1305
  589MOL0     C81212   8.082  -0.042  10.999 -0.1665  0.3926  0.1006
  589MOL0     H81213   8.472   0.154  10.737 -2.8460  0.1657 -0.4544
  589MOL0     H81214   8.541   0.305  10.555 -0.4845  1.7452  0.3442
  589MOL0     H81215   8.391   0.594  10.518 -0.2271  2.3592 -1.6476
  589MOL0     H81216   8.471   0.493  10.409 -1.9070  0.6999 -0.9401
  589MOL0     H81217   8.565   0.774  10.429  0.6222  0.9709 -2.0859
  589MOL0     H81218   8.622   0.651  10.329  0.8179 -0.3867  0.9855
  589MOL0     H81219   8.460   0.766  10.177  1.8861  1.2502  1.2237
  589MOL0     H81220   8.384   0.623  10.240 -1.4518 -0.5452  2.7403
  589MOL0     H81221   8.253   0.751  10.414 -1.2539  1.1542 -0.3950
  589MOL0     H81222   8.359   0.892  10.398  0.4429  0.4377  0.2159
  589MOL0     H81223   8.170   0.758  10.197 -1.2079 -0.2362  0.6516
  589MOL0     H81224   8.237   0.912  10.162 -3.0910 -0.3102 -0.2261
  589MOL0     H81225   8.064   0.866  10.418 -1.0590  1.9640  1.1864
  589MOL0     H81226   8.154   1.013  10.370  0.3006 -0.3608  1.9731
  589MOL0     H81227   7.927   1.048  10.320  0.8083 -0.7249  1.4988
  589MOL0     H81228   7.915   0.902  10.224  0.9849  0.8048 -0.8451
  589MOL0     H81229   8.123   1.115  10.153 -0.6219  0.5800 -0.6972
  589MOL0     H81230   8.047   1.000  10.048  1.2380 -0.1085  0.3344
  589MOL0     H81231   7.909   1.275  10.285  1.4914 -0.2429  0.4924
  589MOL0     H81232   7.764   1.563  10.079  2.1343  2.9646  1.2987
  589MOL0     H81233   7.812   1.512  10.246 -1.4713  0.6862  0.8072
  589MOL0     H81234   7.612   1.383  10.285  0.0941  2.9121  1.9454
  589MOL0     H81235   7.587   1.544  10.239  0.2575  0.7473 -0.8760
  589MOL0     H81236   7.550   1.313  10.041  2.6263  0.1913  3.7926
  589MOL0     H81237   7.422   1.396  10.128 -0.3333 -1.2616 -0.6258
  589MOL0     H81238   7.534   1.606  10.036  1.1619 -2.7445  1.7889
  589MOL0     H81239   7.565   1.506   9.889 -0.3921  0.6415 -0.7349
  589MOL0     H81240   7.304   1.698  10.156 -1.9435 -0.4710  0.2398
  589MOL0     H81241   7.083   1.966  10.146  0.8751 -0.3534 -4.7568
  589MOL0     H81242   7.249   1.997  10.199  1.1306  0.0143  0.2701
  589MOL0     H81243   7.154   1.849  10.260 -1.4665  0.2399 -0.4418
  589MOL0     H81244   6.945   2.309  10.054 -1.3310  4.5403  0.0655
  589MOL0     H81245   6.948   2.546  10.033 -0.4817 -1.3025 -0.2742
  589MOL0     H81246   6.969   2.704   9.923 -0.7214 -0.7754  0.5917
  589MOL0     H81247   7.035   2.772  10.080  2.6279  1.2187  0.1993
  589MOL0     H81248   6.968   2.957   9.947 -2.1208  0.2355 -2.6017
  589MOL0     H81249   7.139   2.950   9.988  1.5707 -2.3218 -1.1166
  589MOL0     H81250   7.181   2.830   9.762  0.3186 -0.0472  0.8625
  589MOL0     H81251   7.188   2.994   9.752  1.6459 -1.6573 -0.1579
  589MOL0     H81252   6.909   2.932   9.697 -0.8404 -1.4028  0.5636
  589MOL0     H81253   7.005   2.794   9.654  1.2211 -0.1513  0.9058
  589MOL0     H81254   7.068   3.078   9.566 -1.7306  0.8117 -0.3357
  589MOL0     H81255   7.165   2.940   9.510 -0.3902 -3.6863 -2.0091
  589MOL0     H81256   6.983   2.835   9.412 -2.4097 -0.4859 -1.1882
  589MOL0     H81257   7.059   2.977   9.332  0.0123 -2.0601 -1.7660
  589MOL0     H81258   6.834   3.014   9.310  2.0706  0.4243 -0.6819
  589MOL0     H81259   6.861   3.113   9.449  2.7884  0.4401 -0.2857
  589MOL0     H81260   6.643   2.997   9.428  0.7623 -1.3468 -1.5250
  589MOL0     H81261   6.705   2.955   9.582 -0.7249 -0.9852 -0.5803
  589MOL0     H81262   7.382   2.527   9.954  1.7221 -4.0626 -0.4944
  589MOL0     H81263   7.377   2.293  10.005  1.6021  2.3307  3.8210
  589MOL0     H81264   7.190   1.886   9.715 -0.1551  1.2942  0.4659
  589MOL0     H81265   7.286   1.649   9.731 -1.1671 -0.5919  0.8328
  589MOL0     H81266   8.551   0.630  10.839  1.9851  0.6626 -0.1674
  589MOL0     H81267   8.491   0.491  11.012  0.3471  1.2838  0.4564
  589MOL0     H81268   8.414   0.189  11.242 -2.7265  2.2387  0.1653
  589MOL0     H81269   8.374   0.054  11.438 -0.8121 -1.8126  1.7265
  589MOL0     H81270   7.973  -0.112  11.446 -0.6750  0.3296  0.4556
  589MOL0     H81271   8.059  -0.267  11.423 -0.8128  0.5543 -0.3648
  589MOL0     H81272   7.980  -0.141  11.685  1.7536  0.2515  2.2054
  589MOL0     H81273   8.115  -0.244  11.689 -0.4604  2.3102  1.5088
  589MOL0     H81274   7.874  -0.361  11.535 -1.2000  0.2342  0.3711
  589MOL0     H81275   8.020  -0.432  11.622  2.0885  2.0698  1.2697
  589MOL0     H81276   7.910  -0.420  11.828  0.1314 -2.1768 -0.8952
  589MOL0     H81277   7.805  -0.481  11.708  4.4175 -1.4021 -2.0967
  589MOL0     H81278   7.578  -0.149  11.837  2.2113  1.3854  1.7435
  589MOL0     H81279   8.044  -0.124  11.228  0.9667 -0.2019 -4.9123
  589MOL0     H81280   8.144  -0.049  10.910  0.3458 -0.8480  0.5298
  589MOL0     H81281   8.029  -0.138  11.012 -0.1689  0.5149  1.1107
  589MOL0     H81282   8.011   0.039  10.981  1.7373  1.6740 -2.1117
  590MOL0     O81283   0.752   5.222   7.063 -0.0936 -0.1377  0.1121
  590MOL0     C81284   0.676   5.208   7.159 -0.1255  1.0955 -0.5070
  590MOL0     O81285   0.666   5.287   7.262  0.4294 -0.2062  0.3618
  590MOL0     C81286   0.749   5.385   7.294  0.3584 -0.2952 -1.3121
  590MOL0     C81287   0.793   5.395   7.434 -0.6395  0.1390  0.2391
  590MOL0     C81288   0.867   5.503   7.476  0.2140  0.6747 -0.4588
  590MOL0     C81289   0.898   5.617   7.392 -0.0161  0.8802 -0.1424
  590MOL0     O81290   0.976   5.723   7.420 -1.0864 -0.1826 -0.2467
  590MOL0     C81291   1.046   5.731   7.552 -0.3606 -0.4433  0.1590
  590MOL0     C81292   1.174   5.822   7.526  0.3612 -0.7037  0.1437
  590MOL0     C81293   1.288   5.746   7.447  0.3470  0.1245 -0.6147
  590MOL0     C81294   1.359   5.827   7.345 -0.1104 -0.2295 -0.1892
  590MOL0     C81295   1.481   5.774   7.278 -0.0786 -0.1059  0.0052
  590MOL0     C81296   1.470   5.619   7.233  0.4348  0.8360  0.0766
  590MOL0     C81297   1.595   5.569   7.167 -0.0704  0.4278 -0.2523
  590MOL0     C81298   1.721   5.586   7.249  0.1663  0.1314 -0.1088
  590MOL0     N81299   1.711   5.513   7.369  0.1076  0.6094 -0.0588
  590MOL0     C81300   1.739   5.568   7.493 -0.3478  0.3282 -0.5924
  590MOL0     C81301   1.784   5.467   7.572  0.9041  0.1161  0.3975
  590MOL0     C81302   1.791   5.462   7.726 -0.5041  0.1376  0.2310
  590MOL0     C81303   1.914   5.520   7.785  0.7105 -0.0327 -0.1493
  590MOL0     C81304   2.041   5.431   7.770 -0.8205 -0.1991  0.1048
  590MOL0     C81305   2.026   5.279   7.810  0.8918  0.1461 -0.5738
  590MOL0     O81306   1.956   5.264   7.934  0.6578  0.6474  0.2587
  590MOL0     C81307   2.018   5.286   8.056 -0.4817  0.0522 -0.6951
  590MOL0     C81308   2.133   5.217   8.098  0.3103  0.8846 -0.4790
  590MOL0     C81309   2.191   5.245   8.226  0.7036  0.4890  0.1420
  590MOL0     C81310   2.331   5.193   8.254  0.0685 -0.2699 -1.0421
  590MOL0     C81311   2.130   5.324   8.322  0.5422  0.6802  0.0528
  590MOL0     C81312   2.183   5.357   8.466 -0.9036  0.8890 -0.0665
  590MOL0     O81313   2.099   5.428   8.543  0.8028  0.9317  0.1218
  590MOL0     C81314   2.126   5.453   8.672 -0.2534  0.2599 -0.1589
  590MOL0     C81315   2.173   5.355   8.766  0.1666  0.4544 -0.0632
  590MOL0     C81316   2.180   5.383   8.903 -0.6850  1.1456  0.6245
  590MOL0     C81317   2.155   5.514   8.947 -0.7443  0.9719  0.0800
  590MOL0     O81318   2.177   5.565   9.070  0.0913 -0.4797 -0.6601
  590MOL0     C81319   2.287   5.505   9.140 -0.6089 -0.5990 -0.0409
  590MOL0     C81320   2.224   5.403   9.229  0.2977  0.6920 -0.8372
  590MOL0     C81321   2.340   5.328   9.283  0.0800  0.4434 -0.8040
  590MOL0     C81322   2.283   5.188   9.352 -0.1018 -0.4042  0.3376
  590MOL0     C81323   2.397   5.098   9.396 -0.7308  0.7086 -0.6221
  590MOL0     C81324   2.337   4.975   9.442 -0.6680  0.0409 -0.4728
  590MOL0     C81325   2.449   4.873   9.473 -0.1277 -0.7698 -0.0185
  590MOL0     C81326   2.538   4.913   9.589 -0.3412 -0.0029 -0.1226
  590MOL0    Cl81327   2.691   4.991   9.531 -0.3284  0.2851 -0.0576
  590MOL0     C81328   2.095   5.604   8.862 -0.3488 -0.0731 -1.3570
  590MOL0     C81329   2.064   5.566   8.733 -0.9635  0.2298 -0.4511
  590MOL0     O81330   2.300   5.322   8.494 -0.2807  0.0166 -0.6522
  590MOL0     C81331   2.014   5.389   8.274  0.4190 -0.0699 -0.4341
  590MOL0     C81332   1.959   5.377   8.146  0.3300 -0.2103  1.0194
  590MOL0     N81333   1.785   5.353   7.494  0.1864  0.0889 -0.1835
  590MOL0     N81334   1.739   5.382   7.374  0.0679  0.0180  0.4834
  590MOL0     C81335   0.857   5.600   7.260 -0.6729 -0.8574  0.1857
  590MOL0     C81336   0.776   5.493   7.218 -0.0343  0.4631 -0.3589
  590MOL0     C81337   0.588   5.089   7.159 -0.8944  0.3780 -0.7180
  590MOL0     C81338   0.502   5.077   7.051 -0.0017  0.0895  0.1318
  590MOL0     C81339   0.419   4.967   7.036  0.9453  0.1393 -0.5753
  590MOL0     C81340   0.427   4.852   7.126 -0.3888 -0.3941  0.3031
  590MOL0     O81341   0.333   4.747   7.128 -0.5512 -1.0785 -0.1791
  590MOL0     C81342   0.233   4.748   7.031  0.7518  0.0788  0.4635
  590MOL0     C81343   0.133   4.630   7.052  0.8263 -0.0277 -0.3452
  590MOL0     C81344   0.039   4.637   7.174  0.0327  0.2383 -0.0469
  590MOL0     C81345   0.115   4.603   7.297 -0.1078  0.2307  1.1147
  590MOL0     C81346   0.033   4.597   7.411 -0.9288  0.0766 -1.0485
  590MOL0     C81347  -0.056   4.592   7.496 -0.3123 -0.5339  2.0747
  590MOL0     C81348   0.511   4.871   7.239 -1.1595  0.2810  0.3766
  590MOL0     C81349   0.587   4.985   7.262  0.0897 -0.1319  1.4098
  590MOL0     C81350   0.659   5.011   7.381  0.1516  0.3811 -1.0603
  590MOL0     H81351   0.783   5.319   7.510  0.5383  1.3685  1.6865
  590MOL0     H81352   0.919   5.501   7.572 -1.9934  1.1055  0.8144
  590MOL0     H81353   1.085   5.642   7.600 -0.0597 -0.7771 -0.6795
  590MOL0     H81354   0.981   5.773   7.629 -2.4346  0.4809 -1.9615
  590MOL0     H81355   1.150   5.909   7.465  1.8049 -0.8022 -0.5927
  590MOL0     H81356   1.210   5.861   7.622 -1.9294  0.1015  0.7492
  590MOL0     H81357   1.367   5.718   7.518 -0.7693 -0.5699  0.3840
  590MOL0     H81358   1.244   5.658   7.399 -2.7646  2.7609 -3.0029
  590MOL0     H81359   1.285   5.858   7.271 -1.7458 -1.4663  0.8516
  590MOL0     H81360   1.401   5.916   7.393  3.1822 -1.7304  0.0154
  590MOL0     H81361   1.569   5.786   7.341  0.9933 -1.7124 -1.0925
  590MOL0     H81362   1.505   5.847   7.200 -1.8200 -0.9874 -1.4622
  590MOL0     H81363   1.445   5.553   7.317 -2.7989  2.5743  0.6148
  590MOL0     H81364   1.393   5.615   7.156 -0.1120  0.8085  0.6154
  590MOL0     H81365   1.608   5.618   7.071 -1.2914  0.8148 -0.2276
  590MOL0     H81366   1.586   5.464   7.137  1.0950  0.3495 -0.3792
  590MOL0     H81367   1.807   5.539   7.200 -1.4429 -2.7565 -0.3733
  590MOL0     H81368   1.747   5.691   7.266  3.0023 -0.6916  1.1575
  590MOL0     H81369   1.713   5.670   7.518  0.6823  1.2670 -3.0364
  590MOL0     H81370   1.762   5.362   7.760  1.6037 -0.4655  0.4071
  590MOL0     H81371   1.715   5.531   7.761  0.6475  1.1935  0.7347
  590MOL0     H81372   1.938   5.620   7.749 -3.3059  1.3730  0.5505
  590MOL0     H81373   1.891   5.535   7.891  0.1281 -2.2738  0.0972
  590MOL0     H81374   2.076   5.427   7.667  0.3750 -0.6958  0.5090
  590MOL0     H81375   2.120   5.479   7.828 -0.4162 -0.2037 -0.4379
  590MOL0     H81376   1.963   5.226   7.738 -2.0773  2.2597  0.2942
  590MOL0     H81377   2.125   5.232   7.815  0.9903  0.4332  0.3487
  590MOL0     H81378   2.164   5.144   8.024 -0.8690 -0.0454 -0.0833
  590MOL0     H81379   2.407   5.272   8.265 -0.4955  0.0800  0.6628
  590MOL0     H81380   2.364   5.136   8.167  1.0634 -0.4519 -0.5578
  590MOL0     H81381   2.341   5.123   8.337  0.1003  0.6756 -0.2190
  590MOL0     H81382   2.226   5.263   8.745  0.2239 -0.1546  2.4865
  590MOL0     H81383   2.219   5.323   8.984 -0.6763 -0.1679 -0.3159
  590MOL0     H81384   2.360   5.474   9.065  1.7194  3.0774  0.4448
  590MOL0     H81385   2.342   5.582   9.195 -1.5933  2.3760 -2.8233
  590MOL0     H81386   2.172   5.441   9.318  0.5465  1.8539 -1.1736
  590MOL0     H81387   2.158   5.335   9.176  1.1538 -0.0104 -1.0240
  590MOL0     H81388   2.398   5.381   9.359 -2.2163  0.0244  1.3848
  590MOL0     H81389   2.412   5.305   9.204  1.1547  0.0552  0.2475
  590MOL0     H81390   2.213   5.153   9.276 -0.7349  0.0754  0.6900
  590MOL0     H81391   2.232   5.218   9.444 -3.2010 -0.2755 -1.3039
  590MOL0     H81392   2.462   5.080   9.310  0.0252  2.4566 -0.4725
  590MOL0     H81393   2.452   5.149   9.476 -0.6586  1.9801 -1.4616
  590MOL0     H81394   2.278   4.943   9.355  2.1876 -1.2664 -2.0870
  590MOL0     H81395   2.276   4.995   9.530  0.7449  1.0025  0.3263
  590MOL0     H81396   2.516   4.865   9.387 -0.8688 -0.3964 -0.6416
  590MOL0     H81397   2.402   4.775   9.475 -5.6051  1.5175  0.1971
  590MOL0     H81398   2.575   4.829   9.649  2.1811 -0.9193 -2.7069
  590MOL0     H81399   2.483   4.976   9.659 -2.7204 -2.8984  0.8397
  590MOL0     H81400   2.065   5.702   8.899  3.1921  0.6538  0.0829
  590MOL0     H81401   2.000   5.626   8.670 -0.4623 -0.6192 -1.8069
  590MOL0     H81402   1.956   5.450   8.343 -1.4237 -0.9065 -1.1805
  590MOL0     H81403   1.859   5.414   8.127  1.1608  2.1933  1.0466
  590MOL0     H81404   0.882   5.674   7.184 -3.3068  1.3584  1.3211
  590MOL0     H81405   0.742   5.481   7.116 -2.2030  0.0908  0.3603
  590MOL0     H81406   0.498   5.138   6.962 -3.1132 -2.3714 -1.6210
  590MOL0     H81407   0.348   4.978   6.955  0.7929  2.1998 -0.2083
  590MOL0     H81408   0.178   4.843   7.030  0.5733 -0.0119 -1.2917
  590MOL0     H81409   0.271   4.736   6.929 -3.6916  2.2007 -1.6988
  590MOL0     H81410   0.198   4.543   7.068 -2.2676 -2.2981  0.7778
  590MOL0     H81411   0.067   4.619   6.965 -0.0418 -0.0644  0.3086
  590MOL0     H81412  -0.024   4.726   7.186 -0.4190 -0.1581  0.6235
  590MOL0     H81413  -0.034   4.558   7.152  2.8845 -2.1621 -1.6515
  590MOL0     H81414   0.195   4.675   7.316  0.1651 -0.3358  2.2033
  590MOL0     H81415   0.164   4.506   7.284 -0.3835  0.1192  0.8981
  590MOL0     H81416  -0.136   4.609   7.566 -0.6554  2.0542  1.1432
  590MOL0     H81417   0.534   4.788   7.305  1.8550  2.6991  2.6930
  590MOL0     H81418   0.758   5.007   7.333 -0.6033 -3.1829 -2.7003
  590MOL0     H81419   0.647   5.109   7.427  4.1351  0.2561  0.6745
  590MOL0     H81420   0.634   4.934   7.455 -0.7871 -0.1305 -1.8872
  591MOL0     O81421   2.940   5.049   5.464  0.8796 -0.4935 -0.8891
  591MOL0     C81422   2.966   4.968   5.554  0.6276 -0.3962 -0.6314
  591MOL0     O81423   2.874   4.918   5.641 -0.5921 -0.5641  0.3722
  591MOL0     C81424   2.737   4.920   5.610  0.8915 -0.6245 -0.2368
  591MOL0     C81425   2.666   4.893   5.486 -0.8915 -0.0250  0.5050
  591MOL0     C81426   2.527   4.882   5.485 -0.2866 -0.6953  0.1018
  591MOL0     C81427   2.442   4.913   5.595 -0.0359 -0.5943 -0.3449
  591MOL0     O81428   2.307   4.918   5.576 -0.3547 -0.9846  0.6302
  591MOL0     C81429   2.256   5.012   5.479 -0.3544 -0.2980  0.1317
  591MOL0     C81430   2.195   4.957   5.353 -0.1146  1.1316 -1.1192
  591MOL0     C81431   2.124   5.061   5.277  0.1431  0.6591 -0.6972
  591MOL0     C81432   2.196   5.205   5.271  0.2264 -0.1754 -0.1572
  591MOL0     C81433   2.138   5.280   5.144  0.2985 -0.4164 -0.5063
  591MOL0     C81434   1.984   5.311   5.165 -0.4347 -0.8534  0.1831
  591MOL0     C81435   1.926   5.349   5.034  0.2320  0.2937 -0.0335
  591MOL0     C81436   1.925   5.499   4.993 -0.3208  0.5708  0.9959
  591MOL0     N81437   1.879   5.517   4.855 -0.8088 -0.8782 -0.7866
  591MOL0     C81438   1.762   5.559   4.812  1.3021 -0.1037 -0.0773
  591MOL0     C81439   1.767   5.559   4.674  1.0335 -0.7192  0.9885
  591MOL0     C81440   1.664   5.631   4.569 -0.8093 -0.4695  0.0011
  591MOL0     C81441   1.519   5.591   4.570 -1.1999 -0.3151  0.1596
  591MOL0     C81442   1.504   5.437   4.549 -0.5038 -0.0039  0.0558
  591MOL0     C81443   1.358   5.399   4.524  0.2771  0.1489  0.1690
  591MOL0     O81444   1.323   5.268   4.538 -0.4847  0.0583  0.0425
  591MOL0     C81445   1.329   5.205   4.412  0.7488 -0.5347  0.3826
  591MOL0     C81446   1.213   5.217   4.330  0.0714  0.8085  0.3695
  591MOL0     C81447   1.198   5.144   4.205  0.8287  0.3300  0.0778
  591MOL0     C81448   1.083   5.157   4.107 -0.2225 -1.0551 -0.6572
  591MOL0     C81449   1.313   5.073   4.165  0.0486  0.1978  0.8356
  591MOL0     C81450   1.326   4.996   4.036 -0.3466 -0.3778  1.0918
  591MOL0     O81451   1.319   4.856   4.045  0.0281 -0.2962 -0.7949
  591MOL0     C81452   1.338   4.777   3.942  0.9221 -0.6488  0.7919
  591MOL0     C81453   1.297   4.813   3.809  0.1110 -0.5344  0.6716
  591MOL0     C81454   1.332   4.722   3.708  0.5237 -0.0856  0.0196
  591MOL0     C81455   1.410   4.609   3.728  0.1059  0.1515 -0.7917
  591MOL0     O81456   1.432   4.513   3.622 -0.1616  0.3225  0.0198
  591MOL0     C81457   1.406   4.551   3.494  0.2875 -0.2119 -0.3641
  591MOL0     C81458   1.459   4.457   3.388 -0.5733 -0.3224  0.3529
  591MOL0     C81459   1.430   4.501   3.244  0.1029 -0.7838  0.0176
  591MOL0     C81460   1.440   4.380   3.151 -0.2532 -0.4532 -0.6353
  591MOL0     C81461   1.470   4.416   3.002  0.0924 -0.4297 -0.0660
  591MOL0     C81462   1.351   4.483   2.937  1.1458  0.7495 -0.4992
  591MOL0     C81463   1.349   4.476   2.784 -0.6310  0.7063  0.3725
  591MOL0     C81464   1.214   4.534   2.719 -0.8368 -0.6017 -0.8297
  591MOL0    Cl81465   1.247   4.612   2.558  0.1073 -0.4720  0.1785
  591MOL0     C81466   1.450   4.581   3.858  0.0889 -0.4801  0.1937
  591MOL0     C81467   1.420   4.667   3.966 -0.7322  0.5873  0.0842
  591MOL0     O81468   1.363   5.064   3.939 -0.2993 -0.6652  0.4856
  591MOL0     C81469   1.422   5.061   4.240  0.3436 -0.6910  0.1241
  591MOL0     C81470   1.433   5.131   4.360  0.8683  0.4179 -0.1440
  591MOL0     N81471   1.897   5.529   4.642 -0.1946  0.4472  0.8118
  591MOL0     N81472   1.956   5.509   4.753 -0.3968  1.8003 -0.2225
  591MOL0     C81473   2.510   4.956   5.711 -0.0064  1.2853 -0.4833
  591MOL0     C81474   2.655   4.953   5.725 -0.0584 -0.5765  0.2434
  591MOL0     C81475   3.115   4.962   5.601 -0.6573  0.1477 -1.1733
  591MOL0     C81476   3.144   4.946   5.741  0.4814  0.3538  0.9958
  591MOL0     C81477   3.279   4.925   5.775 -0.0558  0.2501 -0.2668
  591MOL0     C81478   3.386   4.933   5.680  0.4557  0.2920 -0.2721
  591MOL0     O81479   3.519   4.939   5.707  0.0814  0.1309  0.6732
  591MOL0     C81480   3.567   4.914   5.838  0.8500  0.1460  0.2854
  591MOL0     C81481   3.638   4.779   5.851 -1.5675  0.5118  0.1602
  591MOL0     C81482   3.563   4.653   5.799  0.3418 -0.0849 -0.4224
  591MOL0     C81483   3.621   4.614   5.663 -0.4961  0.2534 -0.2595
  591MOL0     C81484   3.615   4.471   5.637  0.3361 -0.0272 -0.2316
  591MOL0     C81485   3.606   4.354   5.614  1.2604  0.7519  0.3244
  591MOL0     C81486   3.354   4.946   5.546  0.4291  0.6271  0.9837
  591MOL0     C81487   3.217   4.957   5.506 -0.0634 -0.7738 -0.3144
  591MOL0     C81488   3.194   4.960   5.354  0.8609 -0.3770  0.8024
  591MOL0     H81489   2.721   4.868   5.395  1.1917  0.2670  1.6279
  591MOL0     H81490   2.483   4.841   5.394  2.2962 -2.2062 -0.5877
  591MOL0     H81491   2.341   5.076   5.453 -1.6489  1.5563  0.3314
  591MOL0     H81492   2.179   5.060   5.539  0.1811 -0.7304  1.1927
  591MOL0     H81493   2.271   4.921   5.283 -0.9543  0.1209 -1.5474
  591MOL0     H81494   2.125   4.873   5.359  0.9526  0.1576 -1.8267
  591MOL0     H81495   2.110   5.025   5.175  0.3287 -0.4413 -0.3495
  591MOL0     H81496   2.019   5.065   5.306  0.2430  0.1301 -0.2454
  591MOL0     H81497   2.201   5.265   5.362  0.2008 -0.2685 -0.0935
  591MOL0     H81498   2.303   5.188   5.252  0.2643  0.8573 -0.9658
  591MOL0     H81499   2.154   5.217   5.056 -0.8934 -0.7965 -0.4735
  591MOL0     H81500   2.199   5.369   5.129  1.1765 -0.9304 -0.1186
  591MOL0     H81501   1.940   5.213   5.182 -1.0198 -1.1313 -2.5256
  591MOL0     H81502   1.968   5.384   5.245  0.5042  0.9936 -1.1986
  591MOL0     H81503   1.823   5.310   5.039 -0.7103  2.7283  0.8500
  591MOL0     H81504   1.970   5.288   4.955  0.2725 -0.5482  0.6283
  591MOL0     H81505   1.863   5.544   5.071 -0.4026 -1.6240  2.2910
  591MOL0     H81506   2.026   5.541   4.987 -1.9929  4.9640 -0.9050
  591MOL0     H81507   1.682   5.576   4.884 -0.2815 -0.6088 -1.6351
  591MOL0     H81508   1.708   5.621   4.469  1.8292  0.6587  0.9535
  591MOL0     H81509   1.658   5.738   4.586 -1.4373 -0.3294 -1.0256
  591MOL0     H81510   1.480   5.611   4.670  2.6865 -3.6684  2.6812
  591MOL0     H81511   1.461   5.637   4.489 -1.0304  0.1487  0.2994
  591MOL0     H81512   1.560   5.403   4.461  0.2582  0.2062  0.4468
  591MOL0     H81513   1.536   5.389   4.642 -0.4672  1.9966  1.1459
  591MOL0     H81514   1.298   5.454   4.597 -1.3573  0.6519 -1.4960
  591MOL0     H81515   1.316   5.433   4.429 -2.2848 -3.2578 -0.1033
  591MOL0     H81516   1.125   5.262   4.374  0.7263  2.4706  0.0583
  591MOL0     H81517   1.024   5.247   4.128  0.2512 -1.0833  0.9139
  591MOL0     H81518   1.016   5.070   4.104 -4.0336  1.6349 -2.5899
  591MOL0     H81519   1.117   5.166   4.004  1.2258 -7.0060 -1.0431
  591MOL0     H81520   1.235   4.899   3.784  0.2243 -0.3260  1.1001
  591MOL0     H81521   1.285   4.745   3.613 -2.9981 -1.6678  1.1756
  591MOL0     H81522   1.300   4.568   3.476  0.7164  0.7651 -2.1738
  591MOL0     H81523   1.448   4.651   3.483 -0.3743 -0.2077 -4.0732
  591MOL0     H81524   1.567   4.456   3.404 -0.6919  2.2556  2.0496
  591MOL0     H81525   1.417   4.361   3.421 -1.2800  0.6240  2.4173
  591MOL0     H81526   1.487   4.593   3.226 -3.4466  1.6600  0.1243
  591MOL0     H81527   1.330   4.545   3.234  0.1837 -0.7884 -0.8390
  591MOL0     H81528   1.363   4.303   3.164 -0.6136 -0.4220 -2.3347
  591MOL0     H81529   1.530   4.331   3.191 -0.4467  0.3811  0.8780
  591MOL0     H81530   1.545   4.495   3.008  1.1130 -1.0536 -3.1123
  591MOL0     H81531   1.506   4.324   2.956 -1.2989 -0.7396 -0.5902
  591MOL0     H81532   1.332   4.577   2.990  2.2304  0.7658 -0.1139
  591MOL0     H81533   1.265   4.425   2.969  0.5335  0.7645 -2.0165
  591MOL0     H81534   1.365   4.373   2.749 -2.1905 -0.5146  2.9462
  591MOL0     H81535   1.428   4.549   2.763  0.7591  0.8644  5.0863
  591MOL0     H81536   1.159   4.593   2.792  0.4213 -2.8140  2.1112
  591MOL0     H81537   1.147   4.455   2.683  1.7387 -1.9109 -3.1216
  591MOL0     H81538   1.525   4.502   3.866  1.7315  1.1693  2.2588
  591MOL0     H81539   1.460   4.645   4.065  0.9771  1.1709 -0.4463
  591MOL0     H81540   1.509   5.007   4.204 -1.1467 -1.2360 -2.9734
  591MOL0     H81541   1.527   5.123   4.415 -0.1281 -0.5496  1.4913
  591MOL0     H81542   2.450   4.998   5.791 -0.8408  1.6271 -1.2814
  591MOL0     H81543   2.708   4.980   5.815  2.1423 -0.5002 -0.9933
  591MOL0     H81544   3.063   4.942   5.812  0.3120 -0.6127  0.7696
  591MOL0     H81545   3.290   4.893   5.878  1.3976  0.5162 -0.3223
  591MOL0     H81546   3.651   4.976   5.869  2.8410 -1.7477 -1.0064
  591MOL0     H81547   3.488   4.909   5.913  0.9845 -2.2222  0.3700
  591MOL0     H81548   3.649   4.766   5.959  0.4681 -0.8457 -0.1542
  591MOL0     H81549   3.734   4.797   5.802 -2.3403  1.0303 -1.2365
  591MOL0     H81550   3.574   4.568   5.868 -2.5077 -0.5923 -0.4718
  591MOL0     H81551   3.459   4.680   5.783  0.6741  1.1535 -0.5892
  591MOL0     H81552   3.729   4.631   5.660  0.1743 -3.4722 -2.0254
  591MOL0     H81553   3.567   4.671   5.586  1.3873  1.1983 -0.9582
  591MOL0     H81554   3.598   4.254   5.576 -1.3674  1.8086 -2.3768
  591MOL0     H81555   3.435   4.953   5.474  0.7737  0.0056  1.2978
  591MOL0     H81556   3.105   4.905   5.322  0.7983  2.1588 -4.3847
  591MOL0     H81557   3.176   5.060   5.315 -4.6173 -1.5472 -0.5576
  591MOL0     H81558   3.277   4.912   5.301  2.0168  1.5257  0.8101
  592MOL0     O81559   1.900   9.006   3.053 -0.5021 -0.1868  0.5623
  592MOL0     C81560   1.788   9.030   3.000 -0.4600  0.3198 -0.0540
  592MOL0     O81561   1.666   8.981   3.048 -0.6172  0.1981 -0.2387
  592MOL0     C81562   1.671   8.911   3.171  0.1353  0.8244  0.2723
  592MOL0     C81563   1.598   8.973   3.275  0.5433  0.1575 -0.5984
  592MOL0     C81564   1.594   8.904   3.398 -0.1705  0.4205  0.8341
  592MOL0     C81565   1.652   8.781   3.410  0.7793 -0.4402  0.6881
  592MOL0     O81566   1.647   8.704   3.523 -0.5553  0.4870 -0.0709
  592MOL0     C81567   1.663   8.785   3.642 -0.6143 -0.5658 -0.9522
  592MOL0     C81568   1.680   8.699   3.770  0.0586  0.2013  0.7141
  592MOL0     C81569   1.548   8.647   3.806  0.5123 -0.2802  0.0504
  592MOL0     C81570   1.539   8.576   3.943  0.4998  0.1448 -0.4145
  592MOL0     C81571   1.393   8.524   3.975  0.1986 -0.3587  1.1581
  592MOL0     C81572   1.401   8.435   4.100 -0.3384 -0.1389  0.6125
  592MOL0     C81573   1.274   8.354   4.129  0.8613  0.1937 -0.3230
  592MOL0     C81574   1.152   8.445   4.159 -0.4802 -0.2541 -0.5022
  592MOL0     N81575   1.032   8.374   4.178 -0.0228 -0.5941 -0.8520
  592MOL0     C81576   0.963   8.313   4.076  0.3802 -0.7753  0.5038
  592MOL0     C81577   0.839   8.294   4.136  0.5339  0.2253 -0.8532
  592MOL0     C81578   0.722   8.229   4.074  0.7979 -0.8010 -0.1935
  592MOL0     C81579   0.599   8.323   4.067  0.2232  0.6205  0.5154
  592MOL0     C81580   0.632   8.462   4.014  0.3059 -0.2112  0.3705
  592MOL0     C81581   0.511   8.556   4.031 -0.0131 -0.7381 -0.4431
  592MOL0     O81582   0.516   8.630   4.161  0.5838  0.6878  0.5317
  592MOL0     C81583   0.401   8.659   4.225  0.4966 -0.9458  0.5931
  592MOL0     C81584   0.393   8.682   4.360 -0.4942  0.7209 -0.7778
  592MOL0     C81585   0.281   8.713   4.432 -0.7928  0.2830  0.2942
  592MOL0     C81586   0.302   8.727   4.584 -0.0198 -0.0280 -0.9052
  592MOL0     C81587   0.163   8.735   4.357 -0.0457 -0.2254  0.0049
  592MOL0     C81588   0.037   8.772   4.420 -0.1949  0.4204  0.9748
  592MOL0     O81589   0.018   8.724   4.548 -0.3469 -0.0608  0.5744
  592MOL0     C81590  -0.076   8.764   4.639 -0.8506  1.4654 -0.2976
  592MOL0     C81591  -0.035   8.782   4.772 -0.4333 -0.6872 -0.1929
  592MOL0     C81592  -0.136   8.804   4.869 -0.4164 -0.0655  0.7393
  592MOL0     C81593  -0.270   8.825   4.825  0.2813  0.2610 -0.1639
  592MOL0     O81594  -0.377   8.848   4.911 -0.1046  0.2042 -0.7428
  592MOL0     C81595  -0.377   8.976   4.972  0.7782 -0.3105 -0.6488
  592MOL0     C81596  -0.505   9.046   4.941  0.2430 -0.2685  0.1878
  592MOL0     C81597  -0.477   9.152   4.842  0.1757  0.0081  1.2218
  592MOL0     C81598  -0.549   9.128   4.703 -0.2620 -0.2368 -0.2391
  592MOL0     C81599  -0.478   9.216   4.603  0.3414 -0.0963  0.3043
  592MOL0     C81600  -0.530   9.200   4.457  0.2126 -0.4312 -0.4018
  592MOL0     C81601  -0.419   9.250   4.366  0.1849 -0.4184 -0.4749
  592MOL0     C81602  -0.449   9.235   4.210  0.1227 -1.0340  0.0365
  592MOL0    Cl81603  -0.476   9.401   4.128 -0.1809  0.0664 -0.4084
  592MOL0     C81604  -0.302   8.819   4.694 -0.1966  0.3562  0.7032
  592MOL0     C81605  -0.210   8.778   4.603 -0.2625 -0.8196  0.0594
  592MOL0     O81606  -0.045   8.825   4.349  0.7953 -0.4780  0.3275
  592MOL0     C81607   0.179   8.745   4.217 -0.7028 -0.7033  0.0056
  592MOL0     C81608   0.290   8.689   4.153  0.6865  0.3436  0.5700
  592MOL0     N81609   0.837   8.341   4.264  0.4580 -0.8218  0.6020
  592MOL0     N81610   0.950   8.386   4.290 -0.2623 -0.6483 -0.1624
  592MOL0     C81611   1.714   8.724   3.302 -0.2596  0.3846  0.3546
  592MOL0     C81612   1.721   8.784   3.183  0.7004  1.1049 -0.1435
  592MOL0     C81613   1.789   9.137   2.894  0.0081 -0.2855 -0.7531
  592MOL0     C81614   1.664   9.205   2.863 -0.2817  0.6110 -0.1355
  592MOL0     C81615   1.665   9.309   2.767 -0.0789 -0.0984  0.0679
  592MOL0     C81616   1.779   9.341   2.691  0.3410  0.7919  0.9979
  592MOL0     O81617   1.766   9.438   2.592  0.5491  0.9351  0.2709
  592MOL0     C81618   1.728   9.368   2.467  0.5952 -0.5472 -1.1085
  592MOL0     C81619   1.705   9.482   2.365  0.2112 -0.1341  0.9884
  592MOL0     C81620   1.839   9.552   2.337 -0.7435  0.3785 -0.5379
  592MOL0     C81621   1.814   9.634   2.209 -0.6903 -0.5840 -0.1507
  592MOL0     C81622   1.935   9.716   2.172  0.2090 -0.0333 -0.4011
  592MOL0     C81623   2.031   9.783   2.138  0.5522  0.1016  0.0056
  592MOL0     C81624   1.899   9.278   2.724 -0.4482 -0.6198 -0.6858
  592MOL0     C81625   1.904   9.181   2.818 -0.4248  0.1667 -0.2477
  592MOL0     C81626   2.031   9.088   2.815  0.8669 -0.3306 -0.3280
  592MOL0     H81627   1.562   9.074   3.265  0.6657  0.4641  1.5798
  592MOL0     H81628   1.541   8.964   3.471  1.9008  1.4366  1.5823
  592MOL0     H81629   1.585   8.859   3.657 -2.4187 -2.4300 -0.7791
  592MOL0     H81630   1.754   8.845   3.632 -1.2786  1.1246  1.9670
  592MOL0     H81631   1.744   8.611   3.755 -2.7464 -1.6216 -1.7816
  592MOL0     H81632   1.727   8.767   3.842 -0.6876 -0.8438  2.2530
  592MOL0     H81633   1.473   8.726   3.795 -0.1298 -0.5912  1.9456
  592MOL0     H81634   1.532   8.562   3.739  3.3880  1.1572 -2.7804
  592MOL0     H81635   1.613   8.497   3.956 -0.4575 -0.9062 -1.1363
  592MOL0     H81636   1.561   8.656   4.014  0.9632  0.8843 -1.3695
  592MOL0     H81637   1.353   8.492   3.879  3.1429 -0.3288 -0.2085
  592MOL0     H81638   1.329   8.608   4.004 -1.3147 -1.1590  0.2038
  592MOL0     H81639   1.487   8.370   4.084  1.1492  1.8148  0.2872
  592MOL0     H81640   1.430   8.501   4.183  1.0219 -1.5461  1.3037
  592MOL0     H81641   1.298   8.289   4.214  0.2494  0.2268 -0.1187
  592MOL0     H81642   1.251   8.279   4.053 -3.5540 -1.6795  2.4408
  592MOL0     H81643   1.170   8.505   4.248 -0.6644  2.8834 -2.4202
  592MOL0     H81644   1.133   8.517   4.078 -1.5335 -0.7876 -0.7367
  592MOL0     H81645   1.007   8.283   3.981 -2.4367  1.1840 -1.6128
  592MOL0     H81646   0.699   8.144   4.138 -0.6372 -0.4597 -0.1998
  592MOL0     H81647   0.734   8.178   3.978  2.7387 -3.2747  1.2469
  592MOL0     H81648   0.518   8.280   4.008 -0.3660  0.5904  1.3177
  592MOL0     H81649   0.552   8.332   4.166 -2.7623 -0.3487 -0.6859
  592MOL0     H81650   0.718   8.514   4.057  0.5060  1.0108 -1.4435
  592MOL0     H81651   0.648   8.462   3.906 -0.3484 -0.8341  0.2616
  592MOL0     H81652   0.481   8.610   3.941 -4.8006 -1.0926  0.6348
  592MOL0     H81653   0.427   8.488   4.048 -0.1174 -1.5981 -3.7116
  592MOL0     H81654   0.488   8.656   4.407 -0.4977  0.8063 -0.7222
  592MOL0     H81655   0.270   8.822   4.628 -2.2840 -1.2747  0.3824
  592MOL0     H81656   0.404   8.719   4.622 -0.4630  0.5642  0.4991
  592MOL0     H81657   0.242   8.650   4.634 -1.3303  0.7625 -1.1992
  592MOL0     H81658   0.070   8.767   4.796 -0.9736 -2.7496  1.2039
  592MOL0     H81659  -0.103   8.808   4.973 -2.8460  0.0033  1.5698
  592MOL0     H81660  -0.375   8.973   5.081 -4.0287  1.2226 -0.2685
  592MOL0     H81661  -0.288   9.030   4.940  0.9434 -1.2056 -1.7436
  592MOL0     H81662  -0.584   8.975   4.912 -1.7943  3.5265 -4.8865
  592MOL0     H81663  -0.534   9.094   5.035  0.2100  1.4037 -0.6526
  592MOL0     H81664  -0.369   9.163   4.831 -0.1630  2.0180 -0.8119
  592MOL0     H81665  -0.521   9.244   4.882 -2.3250 -0.5076 -0.1398
  592MOL0     H81666  -0.657   9.147   4.705 -0.2433 -0.1087 -0.4292
  592MOL0     H81667  -0.547   9.022   4.677 -4.9031 -0.2820 -1.2906
  592MOL0     H81668  -0.493   9.320   4.634  2.0563  0.0431  0.7348
  592MOL0     H81669  -0.371   9.196   4.615  0.4208 -0.1378 -0.4412
  592MOL0     H81670  -0.630   9.240   4.436  1.9826  5.1571  0.3472
  592MOL0     H81671  -0.531   9.092   4.439  3.5068 -0.2422 -2.6517
  592MOL0     H81672  -0.323   9.201   4.382  0.8946  1.3380  1.0053
  592MOL0     H81673  -0.413   9.358   4.378 -3.1159 -0.1181 -0.5549
  592MOL0     H81674  -0.525   9.157   4.199 -0.8322 -0.1670  0.3985
  592MOL0     H81675  -0.352   9.201   4.172  0.3778 -0.2530 -0.0100
  592MOL0     H81676  -0.404   8.849   4.669 -0.0498  1.0398  0.9186
  592MOL0     H81677  -0.239   8.775   4.499 -0.5603  3.3038 -0.1283
  592MOL0     H81678   0.097   8.782   4.157 -0.5255  1.3140  0.9299
  592MOL0     H81679   0.281   8.688   4.044 -2.2943  0.4772  0.7147
  592MOL0     H81680   1.749   8.624   3.323 -0.5799  0.8590  3.7863
  592MOL0     H81681   1.769   8.741   3.096 -0.9580  0.3440 -0.7148
  592MOL0     H81682   1.574   9.161   2.903  0.8503 -1.2472  0.5039
  592MOL0     H81683   1.570   9.360   2.760 -0.1483 -0.3159 -0.6769
  592MOL0     H81684   1.809   9.299   2.442  2.2128  0.0663  1.9335
  592MOL0     H81685   1.649   9.293   2.478  0.8664 -0.6292  0.4962
  592MOL0     H81686   1.625   9.554   2.386  1.4487  2.1635 -1.4480
  592MOL0     H81687   1.673   9.428   2.276 -0.3891 -0.0697  1.1595
  592MOL0     H81688   1.874   9.609   2.424 -1.4306  1.2472 -0.8152
  592MOL0     H81689   1.913   9.472   2.328  2.6739  3.2393 -0.1166
  592MOL0     H81690   1.729   9.702   2.219 -2.6855 -2.8827 -0.5744
  592MOL0     H81691   1.789   9.562   2.131 -2.0320 -0.7215  0.3827
  592MOL0     H81692   2.108   9.852   2.112  2.8111 -1.3001  2.4989
  592MOL0     H81693   1.983   9.314   2.666  1.1507  0.0124  1.8491
  592MOL0     H81694   2.096   9.092   2.727  0.1569 -0.8997 -0.8932
  592MOL0     H81695   2.089   9.092   2.907  0.4584  2.1168 -0.1166
  592MOL0     H81696   1.993   8.986   2.804  2.1961 -0.7391 -1.4731
  593MOL0     O81697   1.087   9.095   1.017  0.4212 -0.8772  1.0164
  593MOL0     C81698   1.037   9.043   1.117  0.7210 -0.0472 -0.3735
  593MOL0     O81699   0.909   9.047   1.165  0.7879 -0.9409  0.5436
  593MOL0     C81700   0.802   9.070   1.082  0.2456  0.5775 -0.1089
  593MOL0     C81701   0.795   9.093   0.941  0.1408 -0.1843  0.0808
  593MOL0     C81702   0.674   9.100   0.875 -0.4707  0.0843 -0.8859
  593MOL0     C81703   0.555   9.092   0.943  0.0691 -0.1017  0.2404
  593MOL0     O81704   0.440   9.116   0.873  0.5152 -0.1070  0.1303
  593MOL0     C81705   0.309   9.084   0.925  0.2048  0.4192  0.1180
  593MOL0     C81706   0.268   8.941   0.942 -0.6131 -0.0988 -0.0963
  593MOL0     C81707   0.281   8.858   0.817 -0.6580 -0.1731  0.2700
  593MOL0     C81708   0.206   8.716   0.809  0.1762  0.3608  0.5217
  593MOL0     C81709   0.227   8.621   0.695  0.3980  0.5638  0.1122
  593MOL0     C81710   0.369   8.578   0.658 -0.1692 -0.2572 -0.6713
  593MOL0     C81711   0.452   8.518   0.767 -0.0075 -0.1636 -0.6669
  593MOL0     C81712   0.590   8.491   0.713 -0.2537  0.3841 -0.1271
  593MOL0     N81713   0.625   8.391   0.619  0.9864 -1.1998 -0.6707
  593MOL0     C81714   0.732   8.311   0.619 -0.7676  0.6395  0.0861
  593MOL0     C81715   0.719   8.235   0.510 -0.2284  0.5299 -0.0025
  593MOL0     C81716   0.796   8.106   0.497 -0.7015  0.8238  0.0584
  593MOL0     C81717   0.893   8.114   0.384  0.0917  0.0335 -0.1301
  593MOL0     C81718   1.025   8.192   0.404 -0.1082 -0.4322  0.8007
  593MOL0     C81719   1.008   8.339   0.411 -0.8778  0.4776 -0.4152
  593MOL0     O81720   0.949   8.391   0.292 -0.8604 -0.4641  0.5636
  593MOL0     C81721   0.880   8.505   0.302  0.8293 -0.1459 -0.5947
  593MOL0     C81722   0.870   8.582   0.418  0.0079  1.0627  0.1376
  593MOL0     C81723   0.822   8.711   0.419 -0.4156  0.9834 -0.4218
  593MOL0     C81724   0.821   8.771   0.560  0.0814  0.6417 -0.0489
  593MOL0     C81725   0.764   8.770   0.302 -0.0572 -1.0066 -0.6803
  593MOL0     C81726   0.707   8.908   0.294  0.1036 -0.0416  0.5678
  593MOL0     O81727   0.744   8.991   0.393 -0.0771  0.8634  0.6784
  593MOL0     C81728   0.667   9.094   0.411 -0.4562 -0.0101 -0.4121
  593MOL0     C81729   0.696   9.224   0.348  0.1676  0.5976  1.1507
  593MOL0     C81730   0.612   9.329   0.394  0.1093  0.3233 -0.3907
  593MOL0     C81731   0.503   9.313   0.488 -0.2306  0.7387 -1.0308
  593MOL0     O81732   0.414   9.411   0.546 -0.5701 -0.6230 -1.0529
  593MOL0     C81733   0.422   9.545   0.495 -0.7940  0.3374  0.7267
  593MOL0     C81734   0.377   9.574   0.345  0.6571 -0.4078 -0.0563
  593MOL0     C81735   0.237   9.503   0.327 -0.0372 -0.9597 -0.4854
  593MOL0     C81736   0.134   9.573   0.406  0.2527 -0.7872  0.4774
  593MOL0     C81737  -0.005   9.562   0.355  0.1921  0.7181 -0.0224
  593MOL0     C81738  -0.080   9.429   0.386  0.0318 -1.5174  0.6097
  593MOL0     C81739  -0.220   9.422   0.341 -0.0435 -0.1129  0.5552
  593MOL0     C81740  -0.308   9.330   0.420 -0.2404 -0.2419  0.3185
  593MOL0    Cl81741  -0.468   9.323   0.349 -0.0133 -0.2005  0.3436
  593MOL0     C81742   0.486   9.188   0.541 -0.5288  0.7114  0.5689
  593MOL0     C81743   0.564   9.083   0.507  0.5535 -0.1784 -0.1879
  593MOL0     O81744   0.660   8.943   0.188  0.5403 -0.2636 -0.3544
  593MOL0     C81745   0.770   8.692   0.192 -0.4732 -0.5123  0.4329
  593MOL0     C81746   0.830   8.569   0.190  0.0938 -0.0728 -0.1938
  593MOL0     N81747   0.597   8.258   0.447  0.6486  0.4131  0.1047
  593MOL0     N81748   0.539   8.354   0.518 -0.4647  0.0668 -0.1685
  593MOL0     C81749   0.552   9.073   1.086  0.3183  0.0704  0.0021
  593MOL0     C81750   0.673   9.065   1.151 -0.5229 -0.3335 -0.0543
  593MOL0     C81751   1.128   8.956   1.200  0.3251 -1.1241  0.4400
  593MOL0     C81752   1.087   8.843   1.255  0.1454 -0.9409 -0.4018
  593MOL0     C81753   1.173   8.760   1.321  0.3200  0.2676  0.3799
  593MOL0     C81754   1.305   8.797   1.333  0.5654 -0.0359  0.9289
  593MOL0     O81755   1.403   8.727   1.400 -0.2258  0.6083  0.1685
  593MOL0     C81756   1.366   8.652   1.509  0.7443  0.0313  0.3071
  593MOL0     C81757   1.487   8.621   1.593  0.4016  0.7534  0.6459
  593MOL0     C81758   1.571   8.749   1.612  0.5498 -0.1147 -0.7218
  593MOL0     C81759   1.678   8.730   1.716 -1.4928  0.0118  0.7493
  593MOL0     C81760   1.638   8.725   1.853 -0.2420  0.1945  0.7199
  593MOL0     C81761   1.600   8.738   1.969  0.5467 -0.8645  0.1901
  593MOL0     C81762   1.347   8.920   1.293 -0.1898  0.9580 -0.0771
  593MOL0     C81763   1.262   9.000   1.221  0.1934 -1.1424  0.0242
  593MOL0     C81764   1.322   9.136   1.191  0.3562  0.1586 -0.3215
  593MOL0     H81765   0.882   9.098   0.876 -0.1458  0.7684 -0.2348
  593MOL0     H81766   0.673   9.100   0.766 -1.2566  0.7936 -0.8918
  593MOL0     H81767   0.235   9.128   0.858  1.4564  3.1886  0.3731
  593MOL0     H81768   0.275   9.151   1.005 -1.9312  0.8983 -1.1196
  593MOL0     H81769   0.326   8.895   1.023 -1.3363 -1.2958 -0.2362
  593MOL0     H81770   0.165   8.922   0.976 -0.3181  0.3548  1.1108
  593MOL0     H81771   0.244   8.918   0.733 -0.1598 -2.9532 -2.1391
  593MOL0     H81772   0.385   8.830   0.797 -0.6490 -1.7264  2.2240
  593MOL0     H81773   0.239   8.664   0.899  2.4141 -3.5271 -2.2345
  593MOL0     H81774   0.098   8.730   0.823 -0.0759 -0.0643 -0.7902
  593MOL0     H81775   0.186   8.655   0.599  1.3903  1.4926 -0.0044
  593MOL0     H81776   0.172   8.529   0.714 -0.1967  1.7662  6.2929
  593MOL0     H81777   0.360   8.505   0.577 -3.6852 -1.6943  0.8156
  593MOL0     H81778   0.428   8.659   0.614 -1.9529 -0.9149 -4.7436
  593MOL0     H81779   0.421   8.421   0.809  4.3226 -0.8029  1.7279
  593MOL0     H81780   0.469   8.591   0.847 -0.2366 -0.5398 -0.2700
  593MOL0     H81781   0.621   8.584   0.666 -0.7144  0.6804  0.1533
  593MOL0     H81782   0.648   8.481   0.805  0.1971  0.9372 -0.3448
  593MOL0     H81783   0.811   8.301   0.693 -0.3890  0.6300 -0.3210
  593MOL0     H81784   0.720   8.027   0.495 -2.3262  2.3478 -0.8763
  593MOL0     H81785   0.852   8.074   0.586  0.0479  0.9230 -0.3660
  593MOL0     H81786   0.920   8.010   0.364 -0.1945 -0.0103 -0.2939
  593MOL0     H81787   0.847   8.162   0.297 -0.2349  0.2175  0.1397
  593MOL0     H81788   1.085   8.162   0.490 -2.2040 -0.5840  2.2707
  593MOL0     H81789   1.083   8.180   0.312  0.2340  3.3436  0.3625
  593MOL0     H81790   0.947   8.357   0.500  0.8923 -1.8354  1.4105
  593MOL0     H81791   1.106   8.385   0.425 -1.3229  1.1095  0.7640
  593MOL0     H81792   0.880   8.547   0.520 -2.3084  0.2722  0.1517
  593MOL0     H81793   0.871   8.868   0.553 -0.4752  1.0758  1.5219
  593MOL0     H81794   0.868   8.707   0.636  0.1052  2.2116  1.3105
  593MOL0     H81795   0.720   8.790   0.596  1.2174  3.3391  2.1664
  593MOL0     H81796   0.767   9.225   0.267 -0.8276 -0.4572  0.2221
  593MOL0     H81797   0.634   9.426   0.349 -1.0210  1.8086  2.0531
  593MOL0     H81798   0.373   9.616   0.561 -0.8003  0.4288  0.6232
  593MOL0     H81799   0.527   9.575   0.504 -0.8489  0.1398  2.3757
  593MOL0     H81800   0.359   9.681   0.329 -3.9064 -0.3574  3.2673
  593MOL0     H81801   0.440   9.532   0.266  2.0529  1.5066 -0.0264
  593MOL0     H81802   0.251   9.399   0.358 -2.5343 -1.6233 -1.3851
  593MOL0     H81803   0.207   9.504   0.222 -1.0452  2.0309 -0.2445
  593MOL0     H81804   0.150   9.680   0.394 -2.7736 -0.3568 -0.5457
  593MOL0     H81805   0.148   9.546   0.511  0.0280 -3.7682 -0.1646
  593MOL0     H81806  -0.049   9.658   0.386 -0.7663  0.6329 -1.0541
  593MOL0     H81807  -0.004   9.585   0.248  0.9525  1.5992  0.1587
  593MOL0     H81808  -0.086   9.416   0.495 -4.2021 -1.2210  0.5890
  593MOL0     H81809  -0.022   9.346   0.345 -3.5818 -2.7372 -2.5842
  593MOL0     H81810  -0.221   9.375   0.242  1.5440 -0.0968  0.5111
  593MOL0     H81811  -0.275   9.517   0.340  0.4552  0.1936  1.5265
  593MOL0     H81812  -0.300   9.346   0.528 -1.4238  1.9115  0.1317
  593MOL0     H81813  -0.272   9.227   0.409 -0.2830 -0.4712  1.9760
  593MOL0     H81814   0.403   9.156   0.603 -0.4102 -0.7345  0.0273
  593MOL0     H81815   0.552   8.988   0.559  0.6054 -0.1983 -0.2128
  593MOL0     H81816   0.726   8.734   0.101  1.1521  0.0268 -0.1380
  593MOL0     H81817   0.866   8.527   0.096  5.0801  0.6665  1.0698
  593MOL0     H81818   0.471   9.055   1.155  1.6493  0.9690  1.8736
  593MOL0     H81819   0.678   9.053   1.259 -0.4428 -1.2963 -0.1551
  593MOL0     H81820   0.988   8.811   1.224 -0.7092  1.8507 -0.7705
  593MOL0     H81821   1.134   8.662   1.347 -1.9308  0.6935 -1.1142
  593MOL0     H81822   1.291   8.705   1.568  0.7080 -1.3139  1.5289
  593MOL0     H81823   1.320   8.559   1.473  1.9853 -0.3166 -0.4230
  593MOL0     H81824   1.561   8.549   1.558  0.5938  0.2132  2.0756
  593MOL0     H81825   1.448   8.597   1.693  0.9148  2.8340  1.4165
  593MOL0     H81826   1.617   8.772   1.515 -1.9718  1.7796 -1.5812
  593MOL0     H81827   1.511   8.835   1.642  0.5665 -0.2092 -0.4122
  593MOL0     H81828   1.742   8.818   1.706 -1.3331 -0.3155 -1.9961
  593MOL0     H81829   1.738   8.644   1.686  1.7070  2.8017 -1.6725
  593MOL0     H81830   1.566   8.726   2.070  1.7772 -0.9221  0.6120
  593MOL0     H81831   1.453   8.939   1.309  0.2705 -0.9140 -0.7221
  593MOL0     H81832   1.274   9.188   1.107 -3.9458 -0.5751  1.3962
  593MOL0     H81833   1.316   9.210   1.271  1.3898  1.1900 -1.1838
  593MOL0     H81834   1.425   9.114   1.162  0.0233 -0.7853 -0.8650
  594MOL0     O81835   8.046   3.670   2.673  0.0623  0.0525 -0.0947
  594MOL0     C81836   7.941   3.739   2.685 -1.5632  0.5261  0.1703
  594MOL0     O81837   7.926   3.863   2.619 -0.2701  0.5749  0.3544
  594MOL0     C81838   8.024   3.905   2.528 -0.2475 -0.0259 -0.4935
  594MOL0     C81839   8.049   3.828   2.413 -0.1412 -0.0620  0.1884
  594MOL0     C81840   8.140   3.869   2.315 -0.2901 -1.0583 -0.2133
  594MOL0     C81841   8.198   4.002   2.329 -0.0548  0.0497  0.3111
  594MOL0     O81842   8.266   4.047   2.218 -0.0784  0.0752  0.2916
  594MOL0     C81843   8.397   4.109   2.237  0.5831 -0.3242 -0.1079
  594MOL0     C81844   8.489   4.097   2.119 -0.9811 -0.0965 -0.2379
  594MOL0     C81845   8.510   3.949   2.073 -0.0781 -0.7804 -0.2805
  594MOL0     C81846   8.530   3.834   2.182  0.4481  0.1514 -0.1664
  594MOL0     C81847   8.558   3.686   2.126 -0.4016 -0.2818 -0.7525
  594MOL0     C81848   8.456   3.639   2.030 -0.0224 -0.6018  0.5700
  594MOL0     C81849   8.496   3.493   1.996  0.3902  0.4479  0.5746
  594MOL0     C81850   8.386   3.417   1.913  0.9814 -0.8676 -0.9619
  594MOL0     N81851   8.263   3.402   1.970  0.2690  0.2536  0.2837
  594MOL0     C81852   8.169   3.504   1.991 -0.3122 -0.2550 -0.3418
  594MOL0     C81853   8.090   3.460   2.086 -0.0490  1.1316  0.3060
  594MOL0     C81854   7.979   3.538   2.143  0.0572  0.1744  1.0312
  594MOL0     C81855   7.879   3.446   2.218  0.6350  0.0977  0.4770
  594MOL0     C81856   7.780   3.546   2.295 -0.2182  0.5826  0.7571
  594MOL0     C81857   7.649   3.469   2.320  0.0294 -0.6772  0.2702
  594MOL0     O81858   7.579   3.534   2.420 -0.3327 -0.6890  0.1098
  594MOL0     C81859   7.474   3.460   2.465  0.8874 -0.6582 -0.8111
  594MOL0     C81860   7.344   3.489   2.429  0.1430  0.4013  0.8658
  594MOL0     C81861   7.236   3.408   2.474  0.8932 -0.2967 -0.0770
  594MOL0     C81862   7.108   3.459   2.432  0.2972 -0.1120  0.7061
  594MOL0     C81863   7.262   3.305   2.563 -0.9224 -0.3970  0.0576
  594MOL0     C81864   7.151   3.199   2.604 -0.5979 -0.5623  0.0567
  594MOL0     O81865   7.147   3.151   2.732  0.4328 -1.0265  0.4377
  594MOL0     C81866   7.036   3.094   2.777  0.6301 -0.3120  0.2808
  594MOL0     C81867   7.013   2.960   2.762  0.0436 -0.5234  0.2959
  594MOL0     C81868   6.894   2.909   2.814  0.8811  0.5189  0.2466
  594MOL0     C81869   6.806   2.994   2.891  0.5609  0.0601  0.1960
  594MOL0     O81870   6.699   2.947   2.971  0.4999  0.0840 -0.1609
  594MOL0     C81871   6.642   2.828   2.929  0.8727  0.3950 -0.6120
  594MOL0     C81872   6.505   2.806   2.995 -0.6536 -0.9604  0.3101
  594MOL0     C81873   6.502   2.761   3.137 -1.4736 -0.4277  0.9767
  594MOL0     C81874   6.369   2.754   3.218  0.1827 -0.5277  0.1844
  594MOL0     C81875   6.309   2.616   3.202 -0.4120 -0.3737 -0.4347
  594MOL0     C81876   6.183   2.593   3.287 -0.2418  0.0962  0.1889
  594MOL0     C81877   6.059   2.635   3.218  0.4796  0.6262 -0.2737
  594MOL0     C81878   5.929   2.609   3.294 -0.6126  0.3298 -0.2125
  594MOL0    Cl81879   5.925   2.668   3.461 -0.6924  0.4030  0.0675
  594MOL0     C81880   6.839   3.133   2.905  0.5154 -0.4734  0.2464
  594MOL0     C81881   6.954   3.176   2.844  0.5617 -0.1718 -0.2359
  594MOL0     O81882   7.059   3.171   2.516 -0.2897 -0.5876 -1.2237
  594MOL0     C81883   7.391   3.280   2.598  0.1982 -0.2481 -0.0831
  594MOL0     C81884   7.493   3.352   2.550 -0.7287  0.1380 -0.0304
  594MOL0     N81885   8.134   3.337   2.124  0.2143  0.3906  0.5687
  594MOL0     N81886   8.233   3.298   2.054  0.3483 -0.2895 -0.0888
  594MOL0     C81887   8.165   4.082   2.435  0.4796 -0.4079  0.3609
  594MOL0     C81888   8.079   4.031   2.537  0.0495  0.4666  0.4257
  594MOL0     C81889   7.827   3.679   2.758  0.9326 -0.3058 -0.3761
  594MOL0     C81890   7.726   3.764   2.796 -0.3999 -0.6468 -0.5077
  594MOL0     C81891   7.634   3.733   2.889  0.4655  0.4301  0.9249
  594MOL0     C81892   7.638   3.598   2.951 -0.4621 -0.7473  0.5240
  594MOL0     O81893   7.549   3.556   3.042 -0.6642  0.4782  0.6244
  594MOL0     C81894   7.472   3.651   3.107  0.7173  0.7827 -0.2149
  594MOL0     C81895   7.553   3.739   3.201 -0.1168 -0.4327  1.3974
  594MOL0     C81896   7.458   3.809   3.304 -0.1933 -0.5946  0.2155
  594MOL0     C81897   7.531   3.928   3.352 -0.1699 -0.4373  0.4560
  594MOL0     C81898   7.458   3.986   3.463  1.1517 -0.2310 -0.9061
  594MOL0     C81899   7.398   4.018   3.556  0.3141 -0.7800 -1.0619
  594MOL0     C81900   7.735   3.511   2.911 -0.6562 -0.2479 -0.0412
  594MOL0     C81901   7.826   3.543   2.803 -0.2712 -0.0396  0.6906
  594MOL0     C81902   7.919   3.441   2.739 -0.1121 -0.1740  0.3754
  594MOL0     H81903   7.987   3.740   2.401  1.2059 -0.9295 -0.7906
  594MOL0     H81904   8.180   3.803   2.239  2.9042  0.4366 -0.0084
  594MOL0     H81905   8.450   4.076   2.327  3.0499  3.4321  0.0649
  594MOL0     H81906   8.392   4.215   2.264  1.1014 -0.9809  3.0000
  594MOL0     H81907   8.455   4.150   2.030 -0.8216 -0.4773 -0.5287
  594MOL0     H81908   8.581   4.147   2.150 -0.9579  1.5647 -2.7727
  594MOL0     H81909   8.429   3.933   2.001 -0.5664  0.5230 -0.0491
  594MOL0     H81910   8.594   3.945   2.003 -0.1539 -0.9792 -0.3635
  594MOL0     H81911   8.626   3.849   2.232  0.8380 -0.1548 -0.8113
  594MOL0     H81912   8.453   3.831   2.260  1.4229 -0.1081  0.8036
  594MOL0     H81913   8.563   3.614   2.208 -0.8623 -0.6021 -1.0050
  594MOL0     H81914   8.652   3.688   2.070  1.1362  2.0603  1.6225
  594MOL0     H81915   8.359   3.660   2.076  1.2433  1.7756  2.3454
  594MOL0     H81916   8.457   3.701   1.940 -2.2546  3.5511  3.0755
  594MOL0     H81917   8.540   3.436   2.079  0.3440 -1.3371 -0.5750
  594MOL0     H81918   8.578   3.495   1.924 -1.0185 -0.4017 -1.1243
  594MOL0     H81919   8.366   3.482   1.827 -0.2831  0.4117  0.2424
  594MOL0     H81920   8.420   3.319   1.880  3.2644  0.1119 -1.7545
  594MOL0     H81921   8.170   3.598   1.936  2.0214 -0.8942 -1.5298
  594MOL0     H81922   7.936   3.595   2.061 -1.0413 -2.2760 -0.1819
  594MOL0     H81923   8.008   3.617   2.213  0.3910 -0.1145  1.2272
  594MOL0     H81924   7.828   3.380   2.147 -0.0470  2.7130 -1.6348
  594MOL0     H81925   7.933   3.381   2.288 -1.4610 -2.6177 -0.2437
  594MOL0     H81926   7.826   3.596   2.381  0.0991 -1.9201  2.1545
  594MOL0     H81927   7.756   3.630   2.230 -1.8869  2.9323  4.1112
  594MOL0     H81928   7.586   3.472   2.230 -2.2925 -2.1920  1.7263
  594MOL0     H81929   7.688   3.370   2.344  1.1455  0.0018  1.3485
  594MOL0     H81930   7.323   3.570   2.361 -0.1758  1.1512  1.8413
  594MOL0     H81931   7.081   3.414   2.336 -2.1362 -1.3306  1.8763
  594MOL0     H81932   7.108   3.567   2.415  0.4355 -0.5051 -2.3568
  594MOL0     H81933   7.037   3.442   2.513  0.1374  2.6522  1.2593
  594MOL0     H81934   7.079   2.889   2.714 -0.9540 -0.0079 -1.9915
  594MOL0     H81935   6.877   2.802   2.812  1.4027  0.4247  0.4942
  594MOL0     H81936   6.619   2.832   2.822  0.2073 -1.0239 -0.5459
  594MOL0     H81937   6.707   2.744   2.958  2.0747  0.9536 -1.6167
  594MOL0     H81938   6.434   2.888   2.983  1.1203  0.8454  1.6253
  594MOL0     H81939   6.463   2.715   2.949  1.0028 -1.0363 -1.1612
  594MOL0     H81940   6.570   2.826   3.193 -2.1848  0.0010  1.3532
  594MOL0     H81941   6.548   2.662   3.141  0.6467  0.4733  0.3268
  594MOL0     H81942   6.291   2.823   3.185 -0.5516 -1.7951 -0.8112
  594MOL0     H81943   6.390   2.776   3.323 -0.4670  2.1809 -0.1722
  594MOL0     H81944   6.277   2.590   3.100 -1.0081 -1.2851 -0.0323
  594MOL0     H81945   6.390   2.547   3.229  2.0818  2.6957  0.4630
  594MOL0     H81946   6.194   2.637   3.387 -1.4182 -2.4279  1.5346
  594MOL0     H81947   6.176   2.488   3.319  2.3748 -1.2997 -3.2224
  594MOL0     H81948   6.058   2.572   3.129  0.6290 -0.5732  0.5436
  594MOL0     H81949   6.058   2.740   3.188 -1.9338  1.8461  3.2755
  594MOL0     H81950   5.924   2.502   3.315  0.5774  0.6085  1.6453
  594MOL0     H81951   5.843   2.634   3.231 -2.4963 -1.8305  1.3483
  594MOL0     H81952   6.792   3.213   2.961  2.3635  2.3239 -1.9199
  594MOL0     H81953   6.988   3.279   2.853 -0.6890  0.3739 -1.3658
  594MOL0     H81954   7.398   3.182   2.644 -3.0930 -0.5428  0.0836
  594MOL0     H81955   7.596   3.342   2.581 -1.0865  0.3750  1.3028
  594MOL0     H81956   8.197   4.186   2.446 -1.6829  0.3817 -0.2921
  594MOL0     H81957   8.052   4.106   2.610 -3.2136  1.0202 -1.1482
  594MOL0     H81958   7.734   3.866   2.760 -3.3531  0.6439  1.9561
  594MOL0     H81959   7.557   3.807   2.910 -1.7856 -0.5302 -2.9524
  594MOL0     H81960   7.414   3.704   3.032  3.1492  1.1343 -1.9813
  594MOL0     H81961   7.386   3.608   3.159  1.9407 -3.2968 -1.1640
  594MOL0     H81962   7.604   3.815   3.141  0.6343 -2.7081 -1.0417
  594MOL0     H81963   7.629   3.685   3.257  2.0935  2.2504  1.2219
  594MOL0     H81964   7.361   3.845   3.268 -0.0955  1.0195  1.4147
  594MOL0     H81965   7.451   3.734   3.383 -0.5265 -0.3085  0.4605
  594MOL0     H81966   7.526   3.998   3.268  3.5165 -0.9306 -0.3487
  594MOL0     H81967   7.633   3.901   3.383 -0.1344 -0.4814  0.2984
  594MOL0     H81968   7.333   4.059   3.631 -1.1540 -1.6145 -1.8245
  594MOL0     H81969   7.742   3.409   2.947  0.7217  1.0988  4.0395
  594MOL0     H81970   7.897   3.341   2.776  0.7790 -0.7849 -0.6731
  594MOL0     H81971   7.923   3.449   2.630 -2.6437 -0.9853  0.1799
  594MOL0     H81972   8.015   3.463   2.788 -0.9556  2.6640  0.8990
  595MOL0     O81973  10.386   1.837  10.541  0.3921  1.2461 -0.8659
  595MOL0     C81974  10.497   1.850  10.495 -0.3479 -1.5423 -0.0871
  595MOL0     O81975  10.524   1.946  10.408  0.4445 -0.7256 -0.2001
  595MOL0     C81976  10.433   2.039  10.381 -0.1418  0.0435  0.8810
  595MOL0     C81977  10.374   2.035  10.253 -0.0517 -0.1027  0.1197
  595MOL0     C81978  10.272   2.129  10.227 -0.0038 -0.9083 -0.0952
  595MOL0     C81979  10.228   2.230  10.315 -0.4833  0.4688 -0.2637
  595MOL0     O81980  10.131   2.309  10.268  0.8834 -1.0275  0.1324
  595MOL0     C81981  10.111   2.430  10.326  0.0528 -0.1775  0.5927
  595MOL0     C81982  10.127   2.551  10.227 -1.0898 -0.8811  0.0446
  595MOL0     C81983  10.046   2.531  10.091 -0.6824 -0.6026 -0.2656
  595MOL0     C81984   9.938   2.639  10.088  0.1551 -0.2974  0.5425
  595MOL0     C81985   9.822   2.608  10.001 -0.6839 -0.0276  0.3322
  595MOL0     C81986   9.705   2.702  10.039 -0.7640  0.3164  0.0992
  595MOL0     C81987   9.580   2.677   9.944 -1.0117 -0.0327 -0.2064
  595MOL0     C81988   9.599   2.653   9.792 -0.4916  0.2706  1.0185
  595MOL0     N81989   9.653   2.776   9.729 -0.0241  0.6017 -0.2292
  595MOL0     C81990   9.588   2.835   9.624  0.8600 -0.0478 -1.0030
  595MOL0     C81991   9.670   2.938   9.592  0.0507 -0.6592  0.8097
  595MOL0     C81992   9.651   3.056   9.484  0.6282 -0.2004 -0.3545
  595MOL0     C81993   9.618   2.986   9.346  0.0215  0.5489  0.2006
  595MOL0     C81994   9.733   2.881   9.308  0.0328 -1.0797 -0.1526
  595MOL0     C81995   9.749   2.876   9.147  0.3345  0.1646 -0.7388
  595MOL0     O81996   9.627   2.824   9.085 -0.0694  0.6155  0.1567
  595MOL0     C81997   9.606   2.832   8.954 -0.0513  0.3585  0.2547
  595MOL0     C81998   9.674   2.917   8.867 -0.3399  0.9915  0.0373
  595MOL0     C81999   9.665   2.909   8.729  0.1425 -0.2629  0.9965
  595MOL0     C82000   9.763   2.995   8.635  0.4205 -0.1056  0.0466
  595MOL0     C82001   9.574   2.822   8.674  0.0438  0.1563  0.5506
  595MOL0     C82002   9.534   2.812   8.538 -0.4470 -0.2245  0.3686
  595MOL0     O82003   9.538   2.689   8.472 -0.5021  0.4186 -1.0544
  595MOL0     C82004   9.488   2.689   8.350 -1.0006  0.9928 -0.4679
  595MOL0     C82005   9.399   2.578   8.331 -0.1528  0.0722  0.0168
  595MOL0     C82006   9.337   2.563   8.209 -0.2958  0.2223 -1.2118
  595MOL0     C82007   9.355   2.653   8.102  0.5968  0.2938  0.7846
  595MOL0     O82008   9.289   2.638   7.986  0.1818  0.9953  0.2009
  595MOL0     C82009   9.267   2.506   7.933 -0.7737  0.0393 -0.2959
  595MOL0     C82010   9.393   2.433   7.903  0.3611  0.6729  0.8468
  595MOL0     C82011   9.399   2.300   7.832  1.2208 -0.2673 -0.4377
  595MOL0     C82012   9.324   2.307   7.690  1.3321  0.5281  0.1804
  595MOL0     C82013   9.383   2.395   7.576 -0.7827 -0.3815 -0.3258
  595MOL0     C82014   9.299   2.375   7.451  0.3310  0.1320 -0.1698
  595MOL0     C82015   9.349   2.469   7.343 -0.4818 -0.2898  0.3350
  595MOL0     C82016   9.307   2.617   7.347 -0.0017  1.0742  0.2471
  595MOL0    Cl82017   9.135   2.651   7.343  0.3202 -0.0959 -0.2493
  595MOL0     C82018   9.445   2.756   8.121  0.5792  0.9579  0.8843
  595MOL0     C82019   9.511   2.776   8.243  1.1174  1.1923 -1.5439
  595MOL0     O82020   9.473   2.907   8.501  0.3031 -0.6485  0.1269
  595MOL0     C82021   9.501   2.727   8.760  0.3206 -0.1743 -0.0392
  595MOL0     C82022   9.515   2.745   8.901  0.5944 -1.4380 -0.2697
  595MOL0     N82023   9.796   2.918   9.656 -0.0533 -0.3807  0.0857
  595MOL0     N82024   9.778   2.825   9.751 -0.7984  0.3630 -0.3653
  595MOL0     C82025  10.286   2.228  10.440 -0.0091 -0.4931  0.6548
  595MOL0     C82026  10.396   2.137  10.469  0.3704 -0.4573 -1.0790
  595MOL0     C82027  10.604   1.757  10.532  0.1704  0.2041 -0.8636
  595MOL0     C82028  10.693   1.731  10.431  0.4006 -0.2239 -0.2027
  595MOL0     C82029  10.785   1.627  10.437 -0.0105 -0.1389 -0.2082
  595MOL0     C82030  10.804   1.557  10.552 -0.5084 -0.7102  0.9608
  595MOL0     O82031  10.898   1.460  10.563 -0.4176  1.0510 -0.3114
  595MOL0     C82032  10.894   1.343  10.652 -0.2267 -0.0772 -0.4933
  595MOL0     C82033  10.799   1.224  10.605  0.0674  0.6738  0.0875
  595MOL0     C82034  10.772   1.116  10.705 -0.2026 -0.2339 -0.7177
  595MOL0     C82035  10.897   1.058  10.771  0.4748 -0.2230 -0.2879
  595MOL0     C82036  10.871   0.952  10.869  0.8187  0.0621 -0.0791
  595MOL0     C82037  10.835   0.862  10.948  0.2644 -0.2914 -0.1830
  595MOL0     C82038  10.722   1.585  10.669  0.2090 -1.1821 -0.5012
  595MOL0     C82039  10.624   1.688  10.656  0.3948  1.1682  0.9382
  595MOL0     C82040  10.534   1.721  10.775 -0.3466 -0.1582  0.2903
  595MOL0     H82041  10.394   1.955  10.182 -2.6075  1.4306 -2.5546
  595MOL0     H82042  10.217   2.113  10.134 -1.2000 -1.2980  0.6506
  595MOL0     H82043  10.175   2.452  10.413  0.4578 -0.6405  0.4199
  595MOL0     H82044  10.009   2.440  10.365  0.8299  1.4259  2.4252
  595MOL0     H82045  10.110   2.646  10.279 -1.0242 -2.2773  2.8010
  595MOL0     H82046  10.234   2.550  10.206 -1.0728 -0.5528  0.1002
  595MOL0     H82047  10.108   2.506  10.004  0.2475  2.6616 -0.6587
  595MOL0     H82048   9.994   2.436  10.106  0.6569 -0.9393  3.1431
  595MOL0     H82049   9.910   2.670  10.189  2.7923  0.6752  1.0537
  595MOL0     H82050   9.988   2.725  10.044 -2.5096  2.3175  2.1922
  595MOL0     H82051   9.797   2.504  10.020  0.7865  0.1914  4.4542
  595MOL0     H82052   9.849   2.630   9.897  2.6058 -1.6124  0.7164
  595MOL0     H82053   9.680   2.686  10.144  0.8690  1.2026  0.6458
  595MOL0     H82054   9.743   2.805  10.035 -2.5446  1.1402  2.2820
  595MOL0     H82055   9.518   2.767   9.954 -1.3663 -0.4056  1.3694
  595MOL0     H82056   9.539   2.587   9.992 -2.7341  0.7251 -0.1862
  595MOL0     H82057   9.675   2.575   9.782 -1.7473 -0.9488  0.7780
  595MOL0     H82058   9.509   2.622   9.740 -2.3571  4.0065  1.6926
  595MOL0     H82059   9.489   2.809   9.586  0.8305  2.0629 -2.5580
  595MOL0     H82060   9.748   3.107   9.489  0.0847  0.8928 -0.5918
  595MOL0     H82061   9.571   3.128   9.499  0.7413  0.1611 -1.3687
  595MOL0     H82062   9.521   2.936   9.345  0.6600 -0.9991 -4.4832
  595MOL0     H82063   9.624   3.064   9.270  1.7702  0.5883  0.3365
  595MOL0     H82064   9.824   2.917   9.357  0.3478 -3.1068  0.8384
  595MOL0     H82065   9.708   2.782   9.347 -0.7389 -0.1065  1.9458
  595MOL0     H82066   9.781   2.971   9.103 -1.0009  1.1940  0.3936
  595MOL0     H82067   9.835   2.813   9.124 -0.1250 -0.1842 -1.5308
  595MOL0     H82068   9.752   2.987   8.897 -0.0665  2.4276 -3.5222
  595MOL0     H82069   9.708   3.024   8.545 -1.3947 -0.1737  1.0889
  595MOL0     H82070   9.852   2.934   8.614 -1.2392 -2.1196 -1.4729
  595MOL0     H82071   9.795   3.080   8.696 -2.0864 -1.0846  2.9360
  595MOL0     H82072   9.394   2.519   8.422  0.0173 -1.1904 -0.7662
  595MOL0     H82073   9.278   2.473   8.196 -1.9877  1.1253 -0.1638
  595MOL0     H82074   9.210   2.439   7.997 -1.6408 -0.1918 -1.2748
  595MOL0     H82075   9.220   2.515   7.834  0.7434 -2.5317 -1.3507
  595MOL0     H82076   9.464   2.500   7.853  1.0388 -2.4307 -2.7798
  595MOL0     H82077   9.444   2.422   8.000 -0.6950  0.9986  1.4617
  595MOL0     H82078   9.357   2.236   7.911 -2.7292  1.0670 -1.2017
  595MOL0     H82079   9.500   2.263   7.816  0.7931 -2.2643  1.1567
  595MOL0     H82080   9.228   2.357   7.702  2.3622  2.8393 -0.6524
  595MOL0     H82081   9.309   2.202   7.662  0.4626 -0.1410  2.8541
  595MOL0     H82082   9.376   2.498   7.613  3.0102 -1.1808  3.3413
  595MOL0     H82083   9.488   2.367   7.563 -0.4472 -0.4085  2.0105
  595MOL0     H82084   9.191   2.389   7.467  0.2292 -1.3060  0.6204
  595MOL0     H82085   9.317   2.272   7.419  0.3022  0.2348 -0.5215
  595MOL0     H82086   9.305   2.429   7.252  0.2460 -3.6952  1.3496
  595MOL0     H82087   9.458   2.470   7.338 -0.4730  2.7191 -2.3963
  595MOL0     H82088   9.348   2.657   7.253 -0.5539 -0.6937 -0.7933
  595MOL0     H82089   9.351   2.660   7.437  0.2104 -0.8960  1.1235
  595MOL0     H82090   9.472   2.821   8.038  1.7939  0.1438  0.6244
  595MOL0     H82091   9.575   2.861   8.258  1.7387  0.5665 -0.5273
  595MOL0     H82092   9.443   2.642   8.724  0.5867 -0.2631 -0.2636
  595MOL0     H82093   9.467   2.690   8.981  1.4402  1.6051  2.5521
  595MOL0     H82094  10.263   2.295  10.522 -0.2354  1.7442 -1.1439
  595MOL0     H82095  10.454   2.144  10.561  2.6097  0.8732 -2.4809
  595MOL0     H82096  10.682   1.784  10.336 -0.9880 -1.9088 -1.0627
  595MOL0     H82097  10.857   1.609  10.357  1.8672 -0.9971  1.5867
  595MOL0     H82098  10.992   1.307  10.686 -1.2318  0.8215  4.0186
  595MOL0     H82099  10.851   1.384  10.743  2.0884  1.1775  0.1351
  595MOL0     H82100  10.840   1.176  10.516 -2.1187 -2.7005  0.7286
  595MOL0     H82101  10.705   1.270  10.572 -0.2457 -0.6380 -0.9060
  595MOL0     H82102  10.706   1.153  10.784  1.2124  0.5772  0.1258
  595MOL0     H82103  10.725   1.028  10.660 -1.8569 -0.6474  1.6199
  595MOL0     H82104  10.956   1.131  10.828  1.7192 -1.9008  0.6582
  595MOL0     H82105  10.963   1.020  10.692 -0.6585  0.9767 -1.8834
  595MOL0     H82106  10.801   0.780  11.007 -0.1211 -0.3003 -0.4159
  595MOL0     H82107  10.737   1.548  10.770  0.7329  1.4283  0.4822
  595MOL0     H82108  10.430   1.701  10.747  0.5572 -0.9695 -2.9580
  595MOL0     H82109  10.559   1.650  10.854  0.0721  1.9853  2.1717
  595MOL0     H82110  10.562   1.822  10.807  0.5022 -1.5068  4.3213
  596MOL0     O82111  11.122   9.174   5.872 -0.2374  0.1378 -0.2095
  596MOL0     C82112  11.028   9.097   5.854  0.0118 -0.0694 -0.4779
  596MOL0     O82113  10.931   9.063   5.944  0.9088  0.0496 -0.4180
  596MOL0     C82114  10.931   9.116   6.070 -0.1730 -0.0259 -0.9813
  596MOL0     C82115  10.909   9.255   6.101 -0.0425 -0.3181  0.4272
  596MOL0     C82116  10.884   9.309   6.229  1.1915  0.1043 -0.8535
  596MOL0     C82117  10.891   9.217   6.331  0.5616  0.5487  0.0720
  596MOL0     O82118  10.873   9.246   6.470 -0.7375  0.0041  1.0235
  596MOL0     C82119  10.815   9.362   6.511 -0.4620  0.9818  0.9426
  596MOL0     C82120  10.787   9.351   6.661  0.8319  0.0521  0.6130
  596MOL0     C82121  10.766   9.487   6.725 -0.4986 -0.1959 -0.4631
  596MOL0     C82122  10.760   9.487   6.876 -0.3506 -0.0711 -0.0998
  596MOL0     C82123  10.743   9.619   6.921  0.6338 -0.4180 -0.1833
  596MOL0     C82124  10.756   9.633   7.081  0.9727  0.2726  0.8768
  596MOL0     C82125  10.739   9.771   7.138  0.3835 -0.0055 -0.0514
  596MOL0     C82126  10.824   9.869   7.058  0.2900  0.4471  0.4275
  596MOL0     N82127  10.824   9.987   7.148  0.2045  0.6084  0.3664
  596MOL0     C82128  10.728  10.084   7.159  0.3413  0.7644 -0.9793
  596MOL0     C82129  10.767  10.181   7.243  0.1154  0.8847  0.5208
  596MOL0     C82130  10.690  10.302   7.265  0.0588  0.3894  0.2709
  596MOL0     C82131  10.767  10.421   7.218 -0.5979 -0.4370  0.0892
  596MOL0     C82132  10.805  10.423   7.073  0.0320  0.2110  0.2256
  596MOL0     C82133  10.843  10.555   7.018 -0.3962 -0.1730  0.0157
  596MOL0     O82134  10.728  10.631   6.984  0.3520  0.6033 -0.2729
  596MOL0     C82135  10.740  10.765   6.945 -0.6370 -0.0117  0.1707
  596MOL0     C82136  10.855  10.845   6.977  0.1229  1.2496 -0.1587
  596MOL0     C82137  10.863  10.975   6.949 -0.4284  0.4460  0.4752
  596MOL0     C82138  10.993  11.042   6.987  0.4973  0.3089 -0.0926
  596MOL0     C82139  10.754  11.038   6.879 -0.4765  0.4288 -0.5855
  596MOL0     C82140  10.758  11.181   6.839 -0.2389 -0.0517 -0.7502
  596MOL0     O82141  10.879  11.234   6.802  0.5412  0.1616  0.0133
  596MOL0     C82142  10.875  11.357   6.732 -0.2188 -0.0878  0.0613
  596MOL0     C82143  10.800  11.362   6.615  0.8151 -0.2910 -0.7360
  596MOL0     C82144  10.803  11.466   6.527 -1.0134 -0.4336 -0.5332
  596MOL0     C82145  10.888  11.571   6.546  0.2592  0.2907  0.1571
  596MOL0     O82146  10.902  11.673   6.457  0.7920 -0.5229 -0.2921
  596MOL0     C82147  10.794  11.761   6.463  0.4403  0.0592 -0.0581
  596MOL0     C82148  10.715  11.767   6.341  0.3807 -0.6010  0.5523
  596MOL0     C82149  10.794  11.772   6.201 -0.9281 -0.0230  0.1895
  596MOL0     C82150  10.697  11.806   6.079 -0.1555 -0.7588  0.5463
  596MOL0     C82151  10.760  11.854   5.944  0.0115  0.7448 -0.4328
  596MOL0     C82152  10.867  11.975   5.961  0.1920 -0.0519  0.1117
  596MOL0     C82153  10.924  12.026   5.832 -1.0091  0.2512 -0.2881
  596MOL0     C82154  11.043  12.119   5.880  0.3798  0.1089  0.0648
  596MOL0    Cl82155  10.997  12.294   5.914  0.4090 -0.2283 -0.2699
  596MOL0     C82156  10.981  11.563   6.652  0.5018 -0.2693  0.8576
  596MOL0     C82157  10.971  11.458   6.740  0.1435  0.4566 -0.0081
  596MOL0     O82158  10.651  11.233   6.821  0.3795 -0.2316 -0.7410
  596MOL0     C82159  10.641  10.963   6.846  0.1568  1.6644  0.3642
  596MOL0     C82160  10.637  10.825   6.874 -0.6120 -0.2817 -0.2530
  596MOL0     N82161  10.890  10.136   7.304  1.2878 -0.0656  0.5030
  596MOL0     N82162  10.920  10.027   7.237 -0.5300  0.1693  0.9307
  596MOL0     C82163  10.916   9.079   6.308  0.5571  0.9618 -0.4775
  596MOL0     C82164  10.936   9.031   6.178 -0.2775  0.2967 -0.5143
  596MOL0     C82165  11.032   9.026   5.731 -0.3145  0.5749  0.5171
  596MOL0     C82166  11.152   9.012   5.655  0.6893  0.0542  0.1557
  596MOL0     C82167  11.152   8.922   5.536 -0.1889 -0.8119 -0.4633
  596MOL0     C82168  11.035   8.874   5.484  0.5146  0.2942 -0.4492
  596MOL0     O82169  11.056   8.809   5.370 -0.0001 -0.3488 -0.0118
  596MOL0     C82170  10.946   8.797   5.281  0.4091  0.2688  0.2174
  596MOL0     C82171  10.972   8.710   5.160 -0.1709  0.5595  0.4725
  596MOL0     C82172  11.049   8.584   5.201 -0.2208 -0.1836 -0.0216
  596MOL0     C82173  11.202   8.612   5.189 -0.0490 -0.5933 -0.4433
  596MOL0     C82174  11.277   8.512   5.267 -0.4139  0.6611  0.8175
  596MOL0     C82175  11.315   8.422   5.336 -0.2481  0.4207 -0.1483
  596MOL0     C82176  10.912   8.913   5.549 -0.1240  0.9036 -0.3912
  596MOL0     C82177  10.914   8.982   5.666  0.4351  0.0395 -1.2995
  596MOL0     C82178  10.770   9.017   5.711 -1.1512  0.0342  0.5571
  596MOL0     H82179  10.879   9.314   6.015  0.4419 -0.7414 -0.0409
  596MOL0     H82180  10.843   9.408   6.250  3.0707  0.4433  1.6105
  596MOL0     H82181  10.727   9.378   6.448  0.8947 -0.4983 -1.4580
  596MOL0     H82182  10.886   9.443   6.496 -1.9123  2.0815 -0.1992
  596MOL0     H82183  10.691   9.299   6.666  0.6106  0.1668 -1.3625
  596MOL0     H82184  10.872   9.306   6.713 -1.2809 -0.8239  3.5443
  596MOL0     H82185  10.857   9.545   6.706 -1.6604  1.6036 -0.7495
  596MOL0     H82186  10.685   9.547   6.682  0.4030  2.6856  1.5339
  596MOL0     H82187  10.684   9.422   6.920 -0.1769 -0.2260 -0.0274
  596MOL0     H82188  10.857   9.458   6.917 -0.8173  1.7512  2.5930
  596MOL0     H82189  10.644   9.652   6.889  1.1819  1.5353  0.0309
  596MOL0     H82190  10.810   9.684   6.864 -1.2009  0.3142 -1.5753
  596MOL0     H82191  10.688   9.560   7.127 -0.4392 -1.3900 -3.3688
  596MOL0     H82192  10.854   9.590   7.106  0.2643 -1.2014  1.2705
  596MOL0     H82193  10.779   9.769   7.239 -0.4066  2.7983  0.3960
  596MOL0     H82194  10.637   9.809   7.146  1.0724  2.5895 -2.0698
  596MOL0     H82195  10.925   9.836   7.033  0.1726  0.6011 -0.2755
  596MOL0     H82196  10.767   9.895   6.968 -0.6699 -1.1737  0.5416
  596MOL0     H82197  10.629  10.072   7.116  0.3766  0.8954 -1.1010
  596MOL0     H82198  10.681  10.316   7.373 -0.1434  2.1703  0.0505
  596MOL0     H82199  10.595  10.293   7.212 -0.6432 -1.9552  1.7746
  596MOL0     H82200  10.707  10.511   7.230 -0.2349 -0.1569 -0.1860
  596MOL0     H82201  10.858  10.426   7.279  0.7355  2.2001 -1.9282
  596MOL0     H82202  10.896  10.361   7.065 -0.1711  0.1437 -2.1578
  596MOL0     H82203  10.727  10.388   7.005 -1.1183 -0.2678  1.7422
  596MOL0     H82204  10.901  10.611   7.092 -4.4338  1.6174  2.1396
  596MOL0     H82205  10.903  10.539   6.928 -1.8283 -1.5259 -0.7464
  596MOL0     H82206  10.929  10.793   7.037 -1.3736 -0.8243 -0.0061
  596MOL0     H82207  11.036  11.017   7.084  3.0728  1.1014 -0.9478
  596MOL0     H82208  10.977  11.150   6.997 -2.2021 -0.1161  0.8273
  596MOL0     H82209  11.069  11.013   6.913  1.0326  0.9736  0.1844
  596MOL0     H82210  10.728  11.283   6.598 -0.3595  0.3289  1.0910
  596MOL0     H82211  10.748  11.466   6.433  0.2729 -2.7763 -1.3496
  596MOL0     H82212  10.734  11.736   6.552  0.7757 -2.2866 -0.4222
  596MOL0     H82213  10.837  11.857   6.490  2.0409  0.7665 -4.3935
  596MOL0     H82214  10.659  11.673   6.333  1.1494 -1.0730  0.6799
  596MOL0     H82215  10.649  11.855   6.345  1.4300  0.3151 -1.2330
  596MOL0     H82216  10.831  11.671   6.183 -2.0063 -0.4832  0.4274
  596MOL0     H82217  10.876  11.843   6.203  2.4623 -3.6333  1.2163
  596MOL0     H82218  10.628  11.878   6.124 -2.7925 -3.4426  1.1312
  596MOL0     H82219  10.641  11.716   6.053  1.3785 -1.6864  0.2981
  596MOL0     H82220  10.820  11.779   5.891 -1.1763  1.4351 -2.9226
  596MOL0     H82221  10.683  11.891   5.876 -0.3920  1.9949  0.6665
  596MOL0     H82222  10.945  11.941   6.029  1.0827 -1.7190 -1.6264
  596MOL0     H82223  10.810  12.053   6.011 -1.0520 -1.9689  1.8544
  596MOL0     H82224  10.854  12.090   5.779  0.8050  3.6313  1.0835
  596MOL0     H82225  10.964  11.952   5.762 -0.7029 -1.1470  1.3107
  596MOL0     H82226  11.112  12.131   5.796  0.1104  4.4946  0.2019
  596MOL0     H82227  11.094  12.072   5.965  0.1253  0.5553  0.4739
  596MOL0     H82228  11.065  11.632   6.649 -1.4784  2.3363  1.5861
  596MOL0     H82229  11.050  11.446   6.814 -1.0324 -0.4040  1.1558
  596MOL0     H82230  10.555  11.007   6.797 -1.1860 -1.8350 -0.7875
  596MOL0     H82231  10.566  10.746   6.852 -0.8178 -0.8318  2.1466
  596MOL0     H82232  10.911   9.018   6.398  0.6772  1.0824 -0.3895
  596MOL0     H82233  10.948   8.925   6.155 -1.5780  0.4129 -1.8939
  596MOL0     H82234  11.247   9.047   5.693 -0.6961  0.8245  3.2482
  596MOL0     H82235  11.245   8.909   5.483 -0.4580  0.6275 -1.3381
  596MOL0     H82236  10.860   8.748   5.327 -1.8090  2.3003 -1.4899
  596MOL0     H82237  10.911   8.897   5.254 -0.9096 -0.8249 -2.5926
  596MOL0     H82238  11.016   8.763   5.075 -1.1558  1.4751  0.5188
  596MOL0     H82239  10.874   8.679   5.123 -1.0235 -0.2522  3.1821
  596MOL0     H82240  11.037   8.570   5.309  0.4578  1.4838  0.2917
  596MOL0     H82241  11.017   8.499   5.140 -1.7686 -1.0913  1.9608
  596MOL0     H82242  11.208   8.719   5.214 -3.5178 -0.1319 -0.9900
  596MOL0     H82243  11.248   8.611   5.090  2.0173  3.3139  0.2642
  596MOL0     H82244  11.345   8.337   5.393 -0.7221 -0.5309 -1.2736
  596MOL0     H82245  10.814   8.895   5.507 -0.6453 -0.2137  1.1955
  596MOL0     H82246  10.775   9.115   5.760  3.0591  0.0122  0.4949
  596MOL0     H82247  10.702   9.024   5.625  0.8539 -1.9464 -1.3392
  596MOL0     H82248  10.720   8.950   5.782 -2.5219  1.9201  1.4649
  597MOL0     O82249   7.899   2.774   3.776  0.0600 -0.1980 -0.5113
  597MOL0     C82250   7.870   2.800   3.658  0.2498 -0.2245 -0.6678
  597MOL0     O82251   7.765   2.885   3.618  0.2916  0.4451 -0.0456
  597MOL0     C82252   7.687   2.940   3.709  0.7187 -0.1038 -1.0573
  597MOL0     C82253   7.547   2.956   3.687  0.8343 -0.0399 -0.1963
  597MOL0     C82254   7.470   3.012   3.789  0.5983  1.0423  0.2879
  597MOL0     C82255   7.527   3.047   3.918 -0.3421 -1.2590  0.6356
  597MOL0     O82256   7.466   3.064   4.039  0.4982  0.0418 -0.6980
  597MOL0     C82257   7.323   3.032   4.044 -0.5998  0.6905  0.5870
  597MOL0     C82258   7.254   3.107   4.163 -0.5546  0.4906 -0.2913
  597MOL0     C82259   7.339   3.198   4.259 -0.1947  0.2141  0.6439
  597MOL0     C82260   7.262   3.254   4.385 -0.6423 -0.1199  0.0060
  597MOL0     C82261   7.364   3.350   4.471  0.4890  0.1822  0.5343
  597MOL0     C82262   7.271   3.430   4.572  0.3787  0.1000 -0.6156
  597MOL0     C82263   7.354   3.454   4.699  0.5949 -0.6241 -0.4019
  597MOL0     C82264   7.268   3.537   4.800  0.7623  0.0233 -0.4059
  597MOL0     N82265   7.349   3.564   4.925  0.3464 -0.0721  0.1506
  597MOL0     C82266   7.449   3.493   4.973 -0.9825 -0.7316  0.2031
  597MOL0     C82267   7.512   3.575   5.064 -0.0291  0.7713  0.3850
  597MOL0     C82268   7.636   3.535   5.143  0.5843 -0.1034 -0.7950
  597MOL0     C82269   7.734   3.656   5.141 -0.0596  0.5279 -1.2454
  597MOL0     C82270   7.868   3.591   5.167  0.3199 -0.5275  0.4667
  597MOL0     C82271   7.979   3.704   5.180  0.5523 -0.3138  0.4909
  597MOL0     O82272   7.949   3.775   5.303  0.3985  0.8768 -0.8752
  597MOL0     C82273   8.011   3.896   5.307 -0.5781  0.9560  0.1558
  597MOL0     C82274   7.938   4.009   5.281  0.6332  0.4702 -1.2023
  597MOL0     C82275   7.990   4.136   5.276 -0.0276 -0.2452 -0.4429
  597MOL0     C82276   7.893   4.242   5.229  0.6102 -0.3313 -0.7622
  597MOL0     C82277   8.123   4.151   5.311  0.6482 -1.4934  0.6172
  597MOL0     C82278   8.193   4.278   5.299  0.1996 -0.0297  0.1556
  597MOL0     O82279   8.161   4.369   5.207 -0.4467  0.0851  0.0850
  597MOL0     C82280   8.228   4.489   5.209  0.2213  0.3921 -0.2974
  597MOL0     C82281   8.154   4.599   5.175  0.4760 -0.0413 -0.8459
  597MOL0     C82282   8.221   4.725   5.160  0.5004  0.1407  0.3658
  597MOL0     C82283   8.355   4.737   5.180 -0.5525  0.2319  0.2674
  597MOL0     O82284   8.410   4.857   5.148 -0.3713 -0.3153 -0.9030
  597MOL0     C82285   8.366   4.969   5.227 -0.5986 -0.2158  0.2792
  597MOL0     C82286   8.328   5.090   5.131 -0.9924  0.0409 -0.1664
  597MOL0     C82287   8.323   5.229   5.213  0.3304  0.2920  0.0764
  597MOL0     C82288   8.457   5.310   5.218  0.6512 -0.6763 -0.0410
  597MOL0     C82289   8.460   5.452   5.288  0.2698 -0.0204  0.2870
  597MOL0     C82290   8.589   5.525   5.271  0.7261  0.0360  1.5158
  597MOL0     C82291   8.717   5.448   5.328  0.0244 -0.0416 -0.3842
  597MOL0     C82292   8.709   5.429   5.482 -0.3314  0.1784 -0.8969
  597MOL0    Cl82293   8.777   5.570   5.556  0.0220  0.3317 -0.2045
  597MOL0     C82294   8.438   4.627   5.222  0.1409 -0.0074  1.0277
  597MOL0     C82295   8.368   4.503   5.231 -0.1777  0.4362 -0.6164
  597MOL0     O82296   8.283   4.291   5.382  0.1338  0.2347  0.3187
  597MOL0     C82297   8.200   4.036   5.346  0.8577  1.4594 -0.0801
  597MOL0     C82298   8.150   3.906   5.336  0.4614  0.5829  0.2625
  597MOL0     N82299   7.453   3.693   5.062  0.8506 -0.0822  0.1267
  597MOL0     N82300   7.347   3.685   4.986 -0.4425 -0.4136  0.2148
  597MOL0     C82301   7.666   3.055   3.928 -0.2954  0.4200  0.1382
  597MOL0     C82302   7.749   3.001   3.834  0.5855 -0.3084  0.1915
  597MOL0     C82303   7.956   2.738   3.556  0.0857 -0.1987 -0.4597
  597MOL0     C82304   7.922   2.742   3.421  0.2833 -0.0256 -0.1984
  597MOL0     C82305   7.990   2.679   3.323 -0.5316  0.7795  0.7343
  597MOL0     C82306   8.094   2.594   3.349 -0.2061  0.3042 -0.4462
  597MOL0     O82307   8.172   2.516   3.267 -0.2918  0.0244  0.0202
  597MOL0     C82308   8.181   2.560   3.131  0.5876  0.0409 -0.7008
  597MOL0     C82309   8.245   2.696   3.134  1.1246 -0.6403  0.0809
  597MOL0     C82310   8.293   2.741   2.992 -0.3510 -1.0326 -0.8481
  597MOL0     C82311   8.364   2.883   2.993  0.2820 -0.3483 -0.2749
  597MOL0     C82312   8.490   2.884   3.067  0.3979  1.3155 -0.8837
  597MOL0     C82313   8.598   2.880   3.127 -1.1225 -0.4729  0.5997
  597MOL0     C82314   8.136   2.599   3.483 -0.4242  0.1119  0.7173
  597MOL0     C82315   8.074   2.663   3.587  0.4481  0.6551 -0.2917
  597MOL0     C82316   8.140   2.643   3.723  0.0817 -0.5752  0.4795
  597MOL0     H82317   7.502   2.918   3.596 -2.0685 -1.9447  1.8296
  597MOL0     H82318   7.364   3.023   3.766 -0.5040 -3.2547  2.3724
  597MOL0     H82319   7.321   2.923   4.052  1.0935  0.4043 -1.7849
  597MOL0     H82320   7.275   3.060   3.950 -2.6649  3.9649  2.4161
  597MOL0     H82321   7.160   3.159   4.144 -2.7987 -2.0045  2.7845
  597MOL0     H82322   7.222   3.028   4.233 -3.8748  0.0755 -2.0527
  597MOL0     H82323   7.428   3.144   4.293 -0.6635  0.5213  2.5080
  597MOL0     H82324   7.356   3.292   4.205  0.5718  0.4603  1.2991
  597MOL0     H82325   7.172   3.303   4.348  0.4564  1.3498 -0.8537
  597MOL0     H82326   7.243   3.167   4.449  3.3872 -1.0630  0.2474
  597MOL0     H82327   7.404   3.423   4.400  1.0807 -1.4526 -0.9006
  597MOL0     H82328   7.449   3.292   4.511  2.0289  3.0907  1.7563
  597MOL0     H82329   7.228   3.514   4.518 -2.0780  0.4960  1.7912
  597MOL0     H82330   7.186   3.366   4.598  0.8636 -0.3896 -0.1839
  597MOL0     H82331   7.454   3.495   4.684  1.5359 -1.1512  3.3112
  597MOL0     H82332   7.363   3.361   4.757 -1.5398  0.6190  2.1667
  597MOL0     H82333   7.232   3.630   4.754  1.7482  0.0543 -1.1493
  597MOL0     H82334   7.187   3.473   4.836  1.3994  0.4472  1.9831
  597MOL0     H82335   7.489   3.400   4.936  3.7646  1.7273 -1.7370
  597MOL0     H82336   7.681   3.443   5.105 -1.0329 -0.6962 -1.3438
  597MOL0     H82337   7.609   3.502   5.244  0.6395  2.3913  0.0975
  597MOL0     H82338   7.733   3.699   5.040 -0.9874 -0.8034 -1.8333
  597MOL0     H82339   7.708   3.716   5.229 -0.7530 -1.5018  0.0014
  597MOL0     H82340   7.852   3.534   5.259 -0.4599 -1.0088  0.0408
  597MOL0     H82341   7.891   3.518   5.089  1.7386  0.4168 -0.0549
  597MOL0     H82342   8.080   3.666   5.167  0.0168 -0.8001 -3.0768
  597MOL0     H82343   7.982   3.782   5.103 -0.0487 -1.0142 -0.2620
  597MOL0     H82344   7.832   3.996   5.261  0.2014 -2.0821  2.0245
  597MOL0     H82345   7.797   4.200   5.199  0.9364 -1.3723 -0.3936
  597MOL0     H82346   7.933   4.282   5.135  2.7812  0.2841  0.3723
  597MOL0     H82347   7.886   4.321   5.304 -1.5679 -1.6319  0.4915
  597MOL0     H82348   8.049   4.584   5.152  0.2725  0.7124 -0.4348
  597MOL0     H82349   8.165   4.814   5.131 -1.1668 -0.2437  2.1929
  597MOL0     H82350   8.282   4.945   5.291  0.1783 -1.3803  0.9008
  597MOL0     H82351   8.447   5.003   5.292 -1.2431  0.1148  0.9106
  597MOL0     H82352   8.408   5.105   5.058  1.8197 -2.3508  2.1024
  597MOL0     H82353   8.228   5.070   5.092 -1.5667 -1.2464  1.7791
  597MOL0     H82354   8.295   5.216   5.318  2.4396  2.5319  1.0055
  597MOL0     H82355   8.245   5.283   5.159 -1.1850 -1.4101  0.4851
  597MOL0     H82356   8.494   5.311   5.115 -2.7831 -1.9630 -1.4434
  597MOL0     H82357   8.533   5.243   5.259  2.0875  0.0779 -1.3844
  597MOL0     H82358   8.381   5.516   5.247  1.3185  0.9098 -0.3173
  597MOL0     H82359   8.435   5.449   5.394 -2.5852 -2.6872 -0.2951
  597MOL0     H82360   8.588   5.621   5.324  0.1629 -1.2709  4.0267
  597MOL0     H82361   8.602   5.557   5.167 -3.8783  1.0095  1.0278
  597MOL0     H82362   8.815   5.484   5.297 -0.6680  0.5266 -2.0119
  597MOL0     H82363   8.727   5.350   5.282 -1.4839  0.4363 -1.8450
  597MOL0     H82364   8.767   5.339   5.503 -1.8878 -1.3844 -2.8700
  597MOL0     H82365   8.609   5.405   5.520  0.0762 -0.5970 -0.2746
  597MOL0     H82366   8.544   4.650   5.230 -0.1260  1.2785  1.1017
  597MOL0     H82367   8.427   4.414   5.252 -2.7277 -1.2070  0.0244
  597MOL0     H82368   8.298   4.048   5.390  1.2868  1.2835 -0.9687
  597MOL0     H82369   8.219   3.824   5.350 -1.0336 -0.8792 -0.5330
  597MOL0     H82370   7.690   3.092   4.027 -4.4904  0.7616  1.1997
  597MOL0     H82371   7.855   3.007   3.858  0.9156 -0.9164 -1.0683
  597MOL0     H82372   7.845   2.805   3.378 -0.1730 -1.8608 -2.2409
  597MOL0     H82373   7.969   2.683   3.217 -0.9081 -1.6623  0.6605
  597MOL0     H82374   8.250   2.499   3.072 -0.6164 -0.3589 -1.7409
  597MOL0     H82375   8.087   2.567   3.075 -1.6540  3.1651  2.9784
  597MOL0     H82376   8.337   2.697   3.193  2.8017  1.8208 -2.3292
  597MOL0     H82377   8.172   2.765   3.177  2.4099  0.2537  0.9037
  597MOL0     H82378   8.354   2.666   2.943  1.3833 -0.2413  0.0029
  597MOL0     H82379   8.204   2.750   2.929 -2.1294 -0.7715  1.5501
  597MOL0     H82380   8.293   2.959   3.028  0.1619 -0.1750 -0.8754
  597MOL0     H82381   8.382   2.915   2.890  0.2471 -3.5111 -1.3467
  597MOL0     H82382   8.693   2.886   3.177 -1.2653 -0.7536  0.9114
  597MOL0     H82383   8.219   2.531   3.500 -0.5027 -0.2419 -0.2284
  597MOL0     H82384   8.158   2.742   3.766  0.1519 -1.7807  3.4405
  597MOL0     H82385   8.079   2.582   3.790  0.0801  1.8492  2.8594
  597MOL0     H82386   8.239   2.600   3.707 -0.3662 -1.3638 -0.2404
  598MOL0     O82387   1.223   0.020   6.375  0.3618  0.6319  0.2855
  598MOL0     C82388   1.286  -0.065   6.310  0.1687 -0.2143  0.0349
  598MOL0     O82389   1.316  -0.055   6.174  0.2477 -1.3867 -0.3762
  598MOL0     C82390   1.322   0.081   6.141 -0.1302  0.1109  0.0430
  598MOL0     C82391   1.399   0.177   6.200  0.1842 -1.0713  0.6817
  598MOL0     C82392   1.403   0.312   6.155  1.8983  0.8542 -0.2780
  598MOL0     C82393   1.318   0.354   6.053  0.2877 -0.6320  1.0660
  598MOL0     O82394   1.289   0.480   6.015  0.0050 -0.7016 -0.1816
  598MOL0     C82395   1.336   0.588   6.097 -0.5071 -0.7858  0.2740
  598MOL0     C82396   1.247   0.720   6.059  1.0409  0.8245 -0.6601
  598MOL0     C82397   1.255   0.835   6.156 -0.3505 -0.3921  0.3069
  598MOL0     C82398   1.167   0.955   6.112 -0.5633  0.3340 -0.4509
  598MOL0     C82399   1.228   1.032   5.983  0.2543 -0.0614  0.0716
  598MOL0     C82400   1.157   1.171   5.975 -0.2458  0.5154  0.1648
  598MOL0     C82401   1.007   1.155   5.983 -0.6241 -0.6670 -0.3904
  598MOL0     C82402   0.924   1.264   5.918 -0.3776 -0.9537  0.1075
  598MOL0     N82403   0.775   1.246   5.944  0.0756  0.0174  0.3696
  598MOL0     C82404   0.698   1.326   6.019  0.1181  0.2717 -0.2954
  598MOL0     C82405   0.578   1.283   5.992 -0.2241 -0.3098  0.4246
  598MOL0     C82406   0.449   1.334   6.051  0.2819 -0.5752 -0.2176
  598MOL0     C82407   0.369   1.433   5.962 -0.3257  0.0729  0.1674
  598MOL0     C82408   0.419   1.568   5.961  0.2009 -0.3900 -0.2831
  598MOL0     C82409   0.345   1.650   6.058  0.1087 -0.5304  0.0319
  598MOL0     O82410   0.389   1.787   6.031  0.1111  0.1784 -0.5140
  598MOL0     C82411   0.363   1.879   6.135 -0.6299 -0.2188  0.3395
  598MOL0     C82412   0.385   2.014   6.097 -0.7300 -0.2339  0.7166
  598MOL0     C82413   0.378   2.121   6.186  1.1529  0.1316 -0.0928
  598MOL0     C82414   0.411   2.255   6.132  0.2647 -0.1464  0.3207
  598MOL0     C82415   0.322   2.092   6.313  0.5806  0.0079 -0.0891
  598MOL0     C82416   0.307   2.191   6.430  0.6216  0.0102  1.1163
  598MOL0     O82417   0.228   2.143   6.537 -0.4407 -0.1976 -0.6237
  598MOL0     C82418   0.211   2.235   6.640 -0.7161 -0.3922 -0.5321
  598MOL0     C82419   0.309   2.264   6.738 -0.5260 -0.2283  0.2815
  598MOL0     C82420   0.285   2.350   6.846  0.3346 -1.0462 -0.1417
  598MOL0     C82421   0.171   2.423   6.847  0.5098 -1.0098  0.1516
  598MOL0     O82422   0.147   2.539   6.921 -0.0959  0.7362 -0.4000
  598MOL0     C82423   0.269   2.611   6.956  1.5824 -0.2779  0.2669
  598MOL0     C82424   0.234   2.760   6.949  0.8858 -0.2368  0.2526
  598MOL0     C82425   0.345   2.862   6.985  0.1426 -0.1961  0.7630
  598MOL0     C82426   0.402   2.846   7.126  0.2140  0.6720  0.1177
  598MOL0     C82427   0.454   2.970   7.194  0.1386 -0.6676 -0.1114
  598MOL0     C82428   0.335   3.067   7.213  0.2132 -0.0848 -0.1966
  598MOL0     C82429   0.374   3.182   7.307 -0.0533  0.2923 -0.6401
  598MOL0     C82430   0.279   3.292   7.315  0.0249 -0.6279  0.9306
  598MOL0    Cl82431   0.367   3.455   7.330 -0.2543 -0.3490  0.3421
  598MOL0     C82432   0.067   2.395   6.752 -1.1442 -0.4675 -0.5799
  598MOL0     C82433   0.089   2.299   6.652 -0.6437 -0.8288 -0.0687
  598MOL0     O82434   0.366   2.299   6.422  0.2981  0.8041 -0.3246
  598MOL0     C82435   0.294   1.961   6.353  0.3441  0.3325 -0.9903
  598MOL0     C82436   0.305   1.857   6.259  0.9413 -0.1512  0.4768
  598MOL0     N82437   0.575   1.192   5.887 -1.3732 -0.5513  1.7605
  598MOL0     N82438   0.697   1.175   5.858 -0.6072 -0.4709 -0.1318
  598MOL0     C82439   1.235   0.250   6.000 -0.9302  0.7835  1.1337
  598MOL0     C82440   1.239   0.122   6.043 -0.3428  0.7661 -0.9042
  598MOL0     C82441   1.317  -0.191   6.382 -0.5866 -0.2226 -0.1482
  598MOL0     C82442   1.455  -0.218   6.388 -0.6339 -1.2809  0.4813
  598MOL0     C82443   1.520  -0.317   6.465  0.1655  0.2053  0.2991
  598MOL0     C82444   1.431  -0.396   6.553  0.8739  0.2332  1.5100
  598MOL0     O82445   1.470  -0.494   6.641 -0.5814 -0.9698  1.2340
  598MOL0     C82446   1.538  -0.603   6.581 -0.8206  0.2377 -1.2587
  598MOL0     C82447   1.572  -0.724   6.675  0.1263 -0.4060 -0.7624
  598MOL0     C82448   1.694  -0.712   6.755 -0.1443 -0.8348  0.2504
  598MOL0     C82449   1.696  -0.592   6.855 -0.4473 -0.3771  0.5413
  598MOL0     C82450   1.829  -0.555   6.895 -0.6092  0.2900  0.3400
  598MOL0     C82451   1.935  -0.521   6.937 -0.4199  0.1131  1.3124
  598MOL0     C82452   1.294  -0.370   6.543  0.1437 -0.4517 -0.3941
  598MOL0     C82453   1.231  -0.267   6.463  1.2218  0.3051 -0.8401
  598MOL0     C82454   1.080  -0.253   6.469 -0.0100  0.8206  0.3287
  598MOL0     H82455   1.457   0.141   6.284  2.2820  0.9339  0.1714
  598MOL0     H82456   1.478   0.376   6.201 -1.7137  3.5075  2.4788
  598MOL0     H82457   1.440   0.613   6.078 -0.7541  0.6953  0.7386
  598MOL0     H82458   1.330   0.567   6.204  3.0136 -0.6233  0.5989
  598MOL0     H82459   1.276   0.747   5.957 -1.8335  6.3043 -0.3999
  598MOL0     H82460   1.142   0.690   6.056  0.5500  2.2439  0.9452
  598MOL0     H82461   1.225   0.799   6.254 -0.6406  2.6104  1.3987
  598MOL0     H82462   1.354   0.882   6.156 -1.1749  1.4275 -0.0521
  598MOL0     H82463   1.075   0.912   6.071 -1.1061  0.4336  0.6386
  598MOL0     H82464   1.157   1.012   6.204 -1.0880 -4.0610  2.5273
  598MOL0     H82465   1.221   0.964   5.898  1.5717 -0.6723  0.4388
  598MOL0     H82466   1.336   1.045   5.987  0.1016  2.4712 -1.7069
  598MOL0     H82467   1.176   1.244   6.054 -3.3804  2.3124 -0.6022
  598MOL0     H82468   1.189   1.221   5.883  0.0550 -1.0997 -0.6338
  598MOL0     H82469   0.981   1.145   6.089  0.2653 -0.3407 -0.1368
  598MOL0     H82470   0.983   1.060   5.935 -0.3000 -1.0416  0.1819
  598MOL0     H82471   0.960   1.359   5.958 -0.7523 -0.1089 -1.4635
  598MOL0     H82472   0.938   1.261   5.809  1.8429 -0.4826  0.3279
  598MOL0     H82473   0.731   1.388   6.102 -1.1329  1.3869 -0.5890
  598MOL0     H82474   0.457   1.368   6.154 -1.1009 -0.0387 -0.2608
  598MOL0     H82475   0.377   1.252   6.056 -0.4792  0.1752  2.1784
  598MOL0     H82476   0.386   1.401   5.859  0.4338  1.6122 -0.2096
  598MOL0     H82477   0.262   1.428   5.985  0.0919 -2.3173  2.0495
  598MOL0     H82478   0.527   1.573   5.975 -0.1013  1.7990  1.8188
  598MOL0     H82479   0.396   1.618   5.866  1.9934  1.9347  0.4234
  598MOL0     H82480   0.237   1.636   6.044  0.0272  1.0670 -1.2399
  598MOL0     H82481   0.372   1.618   6.159 -1.1512  3.0339  1.6586
  598MOL0     H82482   0.428   2.035   6.000 -1.9069  1.3234  0.4971
  598MOL0     H82483   0.325   2.317   6.160 -0.6735 -0.1912 -2.2106
  598MOL0     H82484   0.429   2.264   6.025  1.3201  0.6041  0.5337
  598MOL0     H82485   0.498   2.295   6.186  1.2744 -0.0368 -1.3224
  598MOL0     H82486   0.407   2.223   6.715  1.5569  3.0071  2.4902
  598MOL0     H82487   0.359   2.359   6.924 -0.3976 -0.9674  0.5511
  598MOL0     H82488   0.287   2.597   7.063  1.9570 -0.2580  0.2099
  598MOL0     H82489   0.355   2.574   6.899 -0.8539 -1.8152 -2.6679
  598MOL0     H82490   0.199   2.763   6.845  1.8081 -0.3382 -0.0782
  598MOL0     H82491   0.149   2.787   7.012  0.7832  1.7305 -0.6413
  598MOL0     H82492   0.305   2.963   6.979  0.4298  0.2015  3.7808
  598MOL0     H82493   0.424   2.853   6.910  0.4076  0.1939  0.9922
  598MOL0     H82494   0.480   2.770   7.120  0.6446  1.0430  0.8634
  598MOL0     H82495   0.322   2.805   7.189  1.0874 -0.9320  0.2444
  598MOL0     H82496   0.493   2.945   7.293  0.2184  1.4850  0.4496
  598MOL0     H82497   0.522   3.037   7.142  0.8081 -1.1861  0.0923
  598MOL0     H82498   0.255   3.005   7.254  0.4492 -2.9393 -3.5800
  598MOL0     H82499   0.296   3.115   7.123 -0.3934  0.6478  0.4436
  598MOL0     H82500   0.463   3.227   7.262 -1.1469  2.0515 -1.1482
  598MOL0     H82501   0.397   3.151   7.409  0.4070 -0.0813 -0.8524
  598MOL0     H82502   0.202   3.289   7.393 -0.0709 -1.3976  0.8116
  598MOL0     H82503   0.208   3.301   7.232  1.6927  2.8197 -0.3086
  598MOL0     H82504  -0.025   2.450   6.766 -1.4486 -1.5247  2.5061
  598MOL0     H82505   0.024   2.284   6.567  0.9152  0.5253 -1.5708
  598MOL0     H82506   0.264   1.939   6.454  0.7369 -0.3906 -1.0220
  598MOL0     H82507   0.283   1.756   6.293  4.1225 -1.6471 -1.4631
  598MOL0     H82508   1.155   0.272   5.930  0.7067  1.1697 -0.7227
  598MOL0     H82509   1.171   0.056   5.991  0.2171  1.8563 -3.1532
  598MOL0     H82510   1.530  -0.165   6.330 -0.2112 -1.0482  1.2283
  598MOL0     H82511   1.628  -0.320   6.476  0.0376  1.2461  2.3255
  598MOL0     H82512   1.475  -0.636   6.498 -3.1257 -1.6154  1.0333
  598MOL0     H82513   1.635  -0.580   6.535  1.4670 -2.3843  1.7235
  598MOL0     H82514   1.577  -0.815   6.614  0.0433  0.0880 -1.5208
  598MOL0     H82515   1.481  -0.739   6.735  1.0442  1.2367  1.1479
  598MOL0     H82516   1.700  -0.799   6.821 -2.0923  0.3916  2.1700
  598MOL0     H82517   1.784  -0.718   6.693 -0.4964 -2.6658 -0.1394
  598MOL0     H82518   1.638  -0.600   6.947  2.0306  2.7704  2.5898
  598MOL0     H82519   1.660  -0.511   6.792  0.0176  0.7376  1.6770
  598MOL0     H82520   2.030  -0.492   6.977 -0.1596 -0.8915  1.4430
  598MOL0     H82521   1.222  -0.433   6.593 -1.0480  1.7654  0.8275
  598MOL0     H82522   1.044  -0.195   6.554 -0.2002 -0.8159  1.4019
  598MOL0     H82523   1.045  -0.191   6.386  0.0622  0.8058  0.2867
  598MOL0     H82524   1.029  -0.349   6.461 -0.6714  1.3050 -3.5244
  599MOL0     O82525   4.565   6.309  10.725  0.6402  0.5550  0.6118
  599MOL0     C82526   4.571   6.227  10.814 -0.5896  1.4512 -0.6295
  599MOL0     O82527   4.655   6.234  10.916 -0.9362  0.5495 -0.0333
  599MOL0     C82528   4.731   6.354  10.955  0.4318 -0.0377  0.4745
  599MOL0     C82529   4.857   6.394  10.897  0.7376 -0.5737 -0.4330
  599MOL0     C82530   4.919   6.515  10.926 -0.1621 -0.8925  0.6638
  599MOL0     C82531   4.855   6.608  11.003  0.5559  1.1292  0.2140
  599MOL0     O82532   4.904   6.733  11.044  0.2328  0.3823  0.4827
  599MOL0     C82533   5.047   6.735  11.091  0.1447 -0.3558  0.6213
  599MOL0     C82534   5.075   6.882  11.123 -0.0935  0.4456 -0.6275
  599MOL0     C82535   5.035   6.912  11.270  0.1666 -0.2082 -0.1705
  599MOL0     C82536   5.029   7.058  11.299  0.1146 -0.1353  0.9489
  599MOL0     C82537   5.174   7.110  11.309  0.4071 -0.1008 -0.4450
  599MOL0     C82538   5.175   7.262  11.296  0.7143 -0.9270  0.0081
  599MOL0     C82539   5.305   7.340  11.295  0.4009  0.5207 -1.1483
  599MOL0     C82540   5.390   7.313  11.173  0.4820  0.6346 -0.2042
  599MOL0     N82541   5.358   7.404  11.061 -0.2890  0.4567  0.0711
  599MOL0     C82542   5.270   7.495  11.051  0.5625 -0.5592 -0.2968
  599MOL0     C82543   5.270   7.547  10.922  0.2487  0.9990 -0.7379
  599MOL0     C82544   5.196   7.670  10.878  1.2103 -0.3526  0.4646
  599MOL0     C82545   5.270   7.742  10.764 -0.4372 -0.4902  0.1405
  599MOL0     C82546   5.210   7.872  10.714  0.2518  0.2777  0.2216
  599MOL0     C82547   5.069   7.915  10.762 -0.0025 -0.2132 -0.5428
  599MOL0     O82548   5.082   7.966  10.899 -0.0779 -0.2905  0.3023
  599MOL0     C82549   5.109   8.100  10.894  0.3030 -0.2547 -0.2772
  599MOL0     C82550   5.227   8.142  10.953 -0.6556 -0.1621 -0.2545
  599MOL0     C82551   5.265   8.279  10.946  0.1113  0.2859 -1.1216
  599MOL0     C82552   5.381   8.321  11.018 -0.2014 -0.2425 -0.4451
  599MOL0     C82553   5.177   8.366  10.893 -0.7102 -0.5621  0.6561
  599MOL0     C82554   5.208   8.506  10.857 -0.5660 -0.1690 -0.1696
  599MOL0     O82555   5.338   8.530  10.814  0.2031 -0.5239  0.5038
  599MOL0     C82556   5.364   8.659  10.770  0.2808 -0.2119 -0.4454
  599MOL0     C82557   5.376   8.763  10.860 -0.3656 -0.0724 -0.5508
  599MOL0     C82558   5.408   8.890  10.818 -0.2445  0.3496  0.3896
  599MOL0     C82559   5.427   8.916  10.679  0.2077 -0.1230 -0.1033
  599MOL0     O82560   5.446   9.048  10.643 -0.3250 -0.1479 -0.0101
  599MOL0     C82561   5.380   9.089  10.523  0.7333  0.2129  0.7850
  599MOL0     C82562   5.476   9.121  10.408 -0.8749  0.6782 -0.0474
  599MOL0     C82563   5.444   9.233  10.308  0.0496 -0.1143  0.5043
  599MOL0     C82564   5.571   9.246  10.216  0.2819 -0.0996  0.1152
  599MOL0     C82565   5.545   9.376  10.136 -0.6487 -0.2205  1.0858
  599MOL0     C82566   5.627   9.369  10.007  0.0322  0.3457 -0.0530
  599MOL0     C82567   5.650   9.511   9.951  0.8435  0.5219  0.3783
  599MOL0     C82568   5.717   9.522   9.817 -0.0807  0.1926  0.3519
  599MOL0    Cl82569   5.893   9.478   9.847  0.2950  0.3045 -0.0288
  599MOL0     C82570   5.411   8.811  10.594  0.2686  0.6260  0.8177
  599MOL0     C82571   5.381   8.685  10.635  0.0834 -0.2530 -0.7860
  599MOL0     O82572   5.114   8.584  10.849 -0.4102  0.5780 -0.2626
  599MOL0     C82573   5.053   8.322  10.843 -0.3368  0.7405  0.9728
  599MOL0     C82574   5.019   8.187  10.847 -0.9833 -0.5063 -0.5481
  599MOL0     N82575   5.380   7.491  10.858  0.5281 -0.0221  0.1452
  599MOL0     N82576   5.425   7.399  10.943  0.0218 -0.2968 -0.3996
  599MOL0     C82577   4.730   6.563  11.064  0.0021 -0.3548  0.1461
  599MOL0     C82578   4.673   6.444  11.043  0.6290  0.5464  0.2527
  599MOL0     C82579   4.481   6.110  10.819  0.0253  0.0254 -0.5515
  599MOL0     C82580   4.461   6.052  10.949 -0.4670 -0.4899  0.6783
  599MOL0     C82581   4.375   5.950  10.970  0.2129  0.7743  0.5410
  599MOL0     C82582   4.296   5.915  10.859 -0.1678  0.2085  0.5762
  599MOL0     O82583   4.208   5.820  10.879 -0.1613  0.5043  0.0202
  599MOL0     C82584   4.180   5.719  10.773  0.9377  0.5153 -0.0106
  599MOL0     C82585   4.108   5.595  10.822  0.7275  0.5278  0.5644
  599MOL0     C82586   4.074   5.504  10.690  0.0226 -0.5445  0.0071
  599MOL0     C82587   3.921   5.523  10.656  0.0917  0.1604  0.9148
  599MOL0     C82588   3.874   5.416  10.570 -0.7655 -0.5573 -0.7745
  599MOL0     C82589   3.816   5.341  10.492  0.3261  0.3156 -1.0767
  599MOL0     C82590   4.301   5.974  10.732  0.6209  0.0947  0.6262
  599MOL0     C82591   4.395   6.073  10.711  1.1552  1.0621  0.0301
  599MOL0     C82592   4.381   6.146  10.578  0.1181  0.1462  0.1722
  599MOL0     H82593   4.912   6.328  10.830  0.6749 -1.5358  0.4317
  599MOL0     H82594   5.013   6.542  10.879  0.1040 -2.9500 -0.0667
  599MOL0     H82595   5.107   6.699  11.008 -1.0075 -0.4363 -0.2059
  599MOL0     H82596   5.073   6.683  11.184  1.4123 -2.4732 -0.8342
  599MOL0     H82597   5.183   6.895  11.113 -0.0984  0.8342 -0.1903
  599MOL0     H82598   5.024   6.948  11.052 -2.0954  0.1664  0.4835
  599MOL0     H82599   4.943   6.872  11.311  0.3648  1.8082  2.5372
  599MOL0     H82600   5.116   6.870  11.330  0.3478  0.8629  0.3673
  599MOL0     H82601   4.968   7.098  11.218 -0.4237 -3.2544 -0.3411
  599MOL0     H82602   4.958   7.076  11.381  1.6504  0.2761  2.2499
  599MOL0     H82603   5.237   7.068  11.230  1.5633  1.7090 -0.5388
  599MOL0     H82604   5.210   7.082  11.408  0.7258  2.7916  0.3389
  599MOL0     H82605   5.131   7.287  11.199  0.5091 -0.0915  0.3055
  599MOL0     H82606   5.103   7.303  11.367 -1.1810 -3.5422 -0.2567
  599MOL0     H82607   5.368   7.315  11.382 -1.6035 -2.4543 -0.3866
  599MOL0     H82608   5.276   7.445  11.303 -2.9034 -0.3978  1.0345
  599MOL0     H82609   5.494   7.331  11.202  0.3225 -0.2238  0.9620
  599MOL0     H82610   5.383   7.210  11.138  1.5605  0.9930 -1.5651
  599MOL0     H82611   5.190   7.529  11.115  1.6561 -0.6394  1.1735
  599MOL0     H82612   5.193   7.740  10.963 -2.5911 -1.1036  1.1290
  599MOL0     H82613   5.104   7.629  10.837  1.5883 -1.1626  0.4194
  599MOL0     H82614   5.372   7.766  10.796 -0.0401 -0.2491 -1.2334
  599MOL0     H82615   5.284   7.672  10.681 -3.3837 -0.0715 -0.8210
  599MOL0     H82616   5.269   7.957  10.747  1.1657 -0.9081  1.7849
  599MOL0     H82617   5.203   7.874  10.605  0.0281  0.3713  0.2362
  599MOL0     H82618   5.035   8.000  10.702 -2.8851 -0.1698  0.9802
  599MOL0     H82619   5.005   7.828  10.741 -1.4455  0.7869 -0.4123
  599MOL0     H82620   5.294   8.069  10.998  3.4598  2.6324 -1.2378
  599MOL0     H82621   5.397   8.280  11.118  2.3292  2.7335  0.5309
  599MOL0     H82622   5.372   8.427  11.042 -0.7469 -0.3141 -0.3375
  599MOL0     H82623   5.467   8.287  10.960  0.1996 -4.5041  2.2227
  599MOL0     H82624   5.366   8.732  10.964 -0.2634 -0.3331 -0.6177
  599MOL0     H82625   5.429   8.955  10.902  1.6623 -1.5948  1.5435
  599MOL0     H82626   5.305   9.018  10.487  0.3694  1.2441 -0.6125
  599MOL0     H82627   5.324   9.177  10.555 -0.5132 -1.2100  2.7312
  599MOL0     H82628   5.563   9.152  10.467  2.3941 -4.0758 -1.7602
  599MOL0     H82629   5.489   9.023  10.362 -1.2454 -0.1061  1.4593
  599MOL0     H82630   5.417   9.329  10.353  0.0413  0.0098  0.2375
  599MOL0     H82631   5.357   9.209  10.246  0.3078  1.7411 -0.6418
  599MOL0     H82632   5.587   9.152  10.163 -1.1512 -0.5490  0.4387
  599MOL0     H82633   5.658   9.272  10.277  0.4500 -0.1433 -0.1057
  599MOL0     H82634   5.441   9.376  10.100  0.3318  2.2890 -2.3103
  599MOL0     H82635   5.564   9.469  10.191 -0.2665 -0.4155  1.2859
  599MOL0     H82636   5.562   9.315   9.938 -1.7268  0.9627  1.0406
  599MOL0     H82637   5.714   9.306  10.027 -0.6650 -1.1703 -1.6072
  599MOL0     H82638   5.705   9.578  10.019 -2.4811  1.9559  1.8973
  599MOL0     H82639   5.551   9.557   9.953 -0.3709 -1.8369  3.4135
  599MOL0     H82640   5.708   9.621   9.770 -2.2271 -0.5717 -1.0012
  599MOL0     H82641   5.678   9.453   9.742  0.4355 -1.2928  1.4084
  599MOL0     H82642   5.429   8.829  10.489  1.3154 -0.3272  0.8192
  599MOL0     H82643   5.372   8.604  10.563 -2.5331  0.2722 -1.1457
  599MOL0     H82644   4.978   8.392  10.807  1.3592  1.5948 -1.0628
  599MOL0     H82645   4.918   8.156  10.821 -0.5392 -0.7617 -2.0581
  599MOL0     H82646   4.682   6.627  11.138  0.2897 -0.3027  0.2898
  599MOL0     H82647   4.579   6.422  11.092  0.9744 -1.2855  0.1588
  599MOL0     H82648   4.514   6.088  11.037 -0.3364 -0.5580  0.6279
  599MOL0     H82649   4.369   5.904  11.068  2.0027  2.2513  1.4292
  599MOL0     H82650   4.118   5.766  10.697  0.9028  3.9015  1.9235
  599MOL0     H82651   4.274   5.686  10.728 -0.4138  0.5922 -3.1214
  599MOL0     H82652   4.023   5.629  10.882  0.2417 -0.6479  0.5698
  599MOL0     H82653   4.179   5.543  10.886  5.0536 -1.3084 -4.8797
  599MOL0     H82654   4.132   5.537  10.603  0.1999  2.8996  1.2665
  599MOL0     H82655   4.095   5.398  10.709 -1.1666 -0.8799 -0.4853
  599MOL0     H82656   3.891   5.618  10.612 -2.4254 -0.2444  1.6214
  599MOL0     H82657   3.861   5.525  10.748  0.0498  1.1035  0.8746
  599MOL0     H82658   3.751   5.272  10.441  0.8721  0.4232 -1.9389
  599MOL0     H82659   4.241   5.933  10.652  1.8223 -0.1030 -0.1949
  599MOL0     H82660   4.481   6.174  10.545  0.7844 -1.4150  0.7962
  599MOL0     H82661   4.324   6.098  10.498  0.4133 -0.9832  0.6144
  599MOL0     H82662   4.332   6.242  10.596 -2.7776 -0.9856 -1.0349
  600MOL0     O82663   9.175   2.674   8.912 -0.2741  0.2262  0.6491
  600MOL0     C82664   9.171   2.787   8.948  0.4767  0.2393 -0.4532
  600MOL0     O82665   9.108   2.887   8.885  0.8686 -0.5098 -0.0536
  600MOL0     C82666   9.041   2.851   8.770  0.6382 -0.5371  0.1872
  600MOL0     C82667   9.113   2.810   8.653 -0.1765  0.4369 -0.3014
  600MOL0     C82668   9.047   2.779   8.534 -0.8428  0.3450 -0.3679
  600MOL0     C82669   8.905   2.795   8.532 -0.9534  0.3780  0.2384
  600MOL0     O82670   8.829   2.777   8.426  0.4371 -0.0940  0.0207
  600MOL0     C82671   8.887   2.725   8.303  0.5064  0.6749  1.4198
  600MOL0     C82672   8.784   2.689   8.186  0.0965 -0.2675 -0.1989
  600MOL0     C82673   8.694   2.579   8.254 -0.1482  0.7464 -0.5084
  600MOL0     C82674   8.592   2.514   8.157 -0.0349  0.0331 -0.1924
  600MOL0     C82675   8.474   2.607   8.142  0.3093 -0.5512  0.3186
  600MOL0     C82676   8.374   2.551   8.036  0.5201 -0.2355 -0.0605
  600MOL0     C82677   8.239   2.620   7.993  0.0824 -0.3544 -0.0958
  600MOL0     C82678   8.144   2.631   8.116  0.0105 -1.1061  0.6773
  600MOL0     N82679   8.105   2.513   8.183 -0.3557  0.4651 -0.3061
  600MOL0     C82680   8.184   2.443   8.273  0.0331  0.1384 -0.1586
  600MOL0     C82681   8.113   2.326   8.290 -0.3311 -0.7730 -0.2916
  600MOL0     C82682   8.136   2.212   8.398 -0.5646 -0.5887  0.2732
  600MOL0     C82683   8.014   2.171   8.473 -0.6000 -0.8321  0.3599
  600MOL0     C82684   8.027   2.047   8.561  0.8683  0.2945 -1.1298
  600MOL0     C82685   8.138   2.078   8.673 -0.8147  0.6610  0.4108
  600MOL0     O82686   8.138   1.998   8.795 -0.5628  0.6047  0.1903
  600MOL0     C82687   8.170   1.865   8.789  0.9501  0.2296  0.2362
  600MOL0     C82688   8.155   1.794   8.900  0.2303  0.0621 -0.2157
  600MOL0     C82689   8.173   1.655   8.910  0.2454  0.3110  0.3411
  600MOL0     C82690   8.127   1.589   9.042 -0.4794  0.8491  0.3384
  600MOL0     C82691   8.224   1.580   8.799  0.0443  0.1729 -0.3161
  600MOL0     C82692   8.266   1.437   8.813  0.2712  0.8355  0.3778
  600MOL0     O82693   8.212   1.346   8.718  0.1257  0.2236 -0.7373
  600MOL0     C82694   8.221   1.220   8.765 -1.1198  1.4851 -0.6662
  600MOL0     C82695   8.144   1.171   8.873 -0.4239  0.1144  0.3512
  600MOL0     C82696   8.140   1.033   8.898  0.7670 -0.3560  0.6783
  600MOL0     C82697   8.223   0.942   8.816  0.8470  0.1473 -0.2613
  600MOL0     O82698   8.240   0.802   8.845  0.1075 -0.0890  0.0363
  600MOL0     C82699   8.310   0.782   8.968 -0.3324 -0.2628  0.1050
  600MOL0     C82700   8.224   0.718   9.073 -0.1217  0.5448  0.4251
  600MOL0     C82701   8.306   0.678   9.196 -0.5403 -0.0649  1.2285
  600MOL0     C82702   8.379   0.790   9.268  0.1191  0.3001 -1.0374
  600MOL0     C82703   8.461   0.722   9.377 -0.1706 -0.7467  0.2300
  600MOL0     C82704   8.581   0.820   9.435  0.0654  0.0105 -0.3153
  600MOL0     C82705   8.525   0.960   9.500 -0.0784 -0.3505 -0.9474
  600MOL0     C82706   8.633   1.050   9.516 -0.0907 -0.3845  0.3960
  600MOL0    Cl82707   8.747   1.010   9.642  0.4786 -0.1360 -0.1387
  600MOL0     C82708   8.302   0.994   8.715  1.1884  0.5847 -0.3431
  600MOL0     C82709   8.303   1.128   8.695  0.0943 -0.0346  0.4233
  600MOL0     O82710   8.346   1.409   8.902 -0.4272 -0.6960  0.4622
  600MOL0     C82711   8.254   1.661   8.686  0.1062  0.5111  1.0024
  600MOL0     C82712   8.216   1.794   8.679  0.6713 -0.5462  0.8039
  600MOL0     N82713   8.008   2.322   8.210 -0.0847  0.1236 -0.7705
  600MOL0     N82714   8.007   2.426   8.137 -0.4606  0.4587  0.1089
  600MOL0     C82715   8.838   2.837   8.646 -0.1419 -0.2196 -0.2228
  600MOL0     C82716   8.903   2.860   8.768 -0.4189 -1.0746  0.9824
  600MOL0     C82717   9.196   2.811   9.093  0.1093 -0.6912  0.3387
  600MOL0     C82718   9.148   2.714   9.180  1.7930 -0.7226  0.4759
  600MOL0     C82719   9.147   2.731   9.320 -0.2633  0.5244 -0.3226
  600MOL0     C82720   9.196   2.848   9.385 -0.0393 -0.0777  0.3653
  600MOL0     O82721   9.186   2.853   9.518 -0.2739 -0.3081 -0.7263
  600MOL0     C82722   9.174   2.989   9.569 -0.1844  0.2092  0.4740
  600MOL0     C82723   9.153   2.992   9.715  1.1059  0.0189  0.2822
  600MOL0     C82724   9.020   2.919   9.764  0.2197  0.3179 -0.2541
  600MOL0     C82725   8.994   2.951   9.916 -0.8887 -0.4451 -0.5025
  600MOL0     C82726   8.876   2.869   9.962 -0.2740 -0.7214 -0.9077
  600MOL0     C82727   8.783   2.813   9.998  0.3778  1.0357  0.2339
  600MOL0     C82728   9.240   2.948   9.298  0.3966 -0.1260  1.3177
  600MOL0     C82729   9.236   2.934   9.155 -0.0908  0.5880 -1.0180
  600MOL0     C82730   9.262   3.055   9.069  0.8835 -0.3610  0.5467
  600MOL0     H82731   9.219   2.809   8.676 -0.7816 -5.1550  4.5445
  600MOL0     H82732   9.096   2.759   8.439 -0.8798  0.1274 -0.3411
  600MOL0     H82733   8.959   2.644   8.317 -2.7412 -2.6753  0.3468
  600MOL0     H82734   8.934   2.812   8.256  1.5849 -1.1220 -1.0026
  600MOL0     H82735   8.721   2.773   8.156  0.8517  0.5591  0.4731
  600MOL0     H82736   8.833   2.647   8.098 -0.3461 -1.8052  0.2505
  600MOL0     H82737   8.764   2.504   8.291  0.0689  1.1723 -0.0388
  600MOL0     H82738   8.641   2.611   8.344 -1.1401 -4.1200  0.9000
  600MOL0     H82739   8.630   2.484   8.059 -1.6989 -0.3572 -0.7413
  600MOL0     H82740   8.557   2.424   8.208 -1.3403  0.5515 -0.1372
  600MOL0     H82741   8.496   2.703   8.094 -0.4594 -1.3731 -1.8548
  600MOL0     H82742   8.428   2.634   8.237  0.1927  1.2318 -0.2030
  600MOL0     H82743   8.443   2.548   7.952  3.4036  1.8638  2.0281
  600MOL0     H82744   8.346   2.450   8.068  2.9817 -0.0695  3.1377
  600MOL0     H82745   8.191   2.560   7.915 -1.2672 -0.7209  0.9777
  600MOL0     H82746   8.263   2.719   7.953 -0.0255  0.5310  1.9249
  600MOL0     H82747   8.196   2.703   8.180  1.2981  0.8398 -2.3421
  600MOL0     H82748   8.048   2.678   8.091  1.0601  1.4953  1.1966
  600MOL0     H82749   8.274   2.480   8.322  0.3504  2.0273 -1.9916
  600MOL0     H82750   8.213   2.240   8.470  0.0063 -3.1332  0.7468
  600MOL0     H82751   8.174   2.122   8.347  1.5149 -1.2747  2.8390
  600MOL0     H82752   7.965   2.250   8.529  0.6075 -2.2954  3.7567
  600MOL0     H82753   7.935   2.147   8.401 -1.6209  0.0530  1.1597
  600MOL0     H82754   7.934   2.022   8.613  1.0926  0.6734 -0.5408
  600MOL0     H82755   8.058   1.967   8.493  1.2820 -1.4319  0.9747
  600MOL0     H82756   8.241   2.072   8.635 -0.3839  2.5238  1.1769
  600MOL0     H82757   8.128   2.184   8.701  1.0250  1.2076 -0.8179
  600MOL0     H82758   8.122   1.849   8.988  0.0003 -0.0056 -0.2608
  600MOL0     H82759   8.206   1.592   9.117  1.5267 -3.6753 -1.2234
  600MOL0     H82760   8.103   1.483   9.031  2.8188  0.0055  0.2825
  600MOL0     H82761   8.036   1.639   9.077  0.0868  1.2209  1.3258
  600MOL0     H82762   8.081   1.238   8.930  0.8324  1.5680  0.0754
  600MOL0     H82763   8.075   0.999   8.978 -0.6375 -2.0196 -1.0919
  600MOL0     H82764   8.392   0.716   8.937 -3.5645 -3.0969 -3.3650
  600MOL0     H82765   8.354   0.879   8.994  0.3994  0.1011 -2.2583
  600MOL0     H82766   8.150   0.786   9.116 -2.7923 -2.3479  0.7966
  600MOL0     H82767   8.162   0.636   9.037  2.0254 -0.9670 -0.0560
  600MOL0     H82768   8.376   0.598   9.170 -0.4941  0.3546  0.0137
  600MOL0     H82769   8.236   0.631   9.266  0.4253 -0.3780  2.0122
  600MOL0     H82770   8.309   0.867   9.302 -0.2616 -0.3252 -0.3824
  600MOL0     H82771   8.444   0.834   9.192 -0.9517  0.4817 -1.8815
  600MOL0     H82772   8.403   0.688   9.463 -0.5589  1.0920  0.7431
  600MOL0     H82773   8.523   0.638   9.346  0.7325 -1.6619  3.9833
  600MOL0     H82774   8.656   0.842   9.357 -1.0000 -0.2146 -1.4288
  600MOL0     H82775   8.652   0.773   9.504  2.3520  2.4237 -0.8441
  600MOL0     H82776   8.473   0.938   9.593  1.2651 -1.4706 -0.4209
  600MOL0     H82777   8.438   0.998   9.446 -0.9737 -1.7319 -0.5245
  600MOL0     H82778   8.599   1.149   9.546  1.1859 -1.1776  5.1614
  600MOL0     H82779   8.697   1.046   9.427  2.2113 -1.2884  1.9996
  600MOL0     H82780   8.357   0.928   8.649  3.8788  1.6641  0.7122
  600MOL0     H82781   8.350   1.169   8.606  0.6474  0.4840  0.9481
  600MOL0     H82782   8.302   1.614   8.601  2.6783  0.3517  2.4303
  600MOL0     H82783   8.238   1.853   8.591  0.3477 -0.7530  0.5831
  600MOL0     H82784   8.730   2.835   8.655  0.0343 -2.1309  3.5295
  600MOL0     H82785   8.850   2.892   8.857  0.5371  0.7763  0.9352
  600MOL0     H82786   9.107   2.620   9.143  0.8997 -1.3991  2.9891
  600MOL0     H82787   9.111   2.644   9.374  1.4450 -2.7155 -3.9618
  600MOL0     H82788   9.262   3.049   9.542 -0.9137  0.3524 -1.7416
  600MOL0     H82789   9.091   3.037   9.516  0.8687  0.8624 -0.6575
  600MOL0     H82790   9.137   3.096   9.743 -4.3486  0.5183 -3.1014
  600MOL0     H82791   9.242   2.951   9.764  2.1422  1.6852 -0.1521
  600MOL0     H82792   8.928   2.948   9.713 -1.7890 -2.2843  1.6315
  600MOL0     H82793   9.032   2.811   9.761 -0.0944  0.3043 -1.3396
  600MOL0     H82794   8.965   3.054   9.940 -0.6630  0.0163 -2.0482
  600MOL0     H82795   9.077   2.918   9.979 -2.1067 -0.5611  1.0750
  600MOL0     H82796   8.716   2.742  10.044  3.0163 -2.4237 -0.8348
  600MOL0     H82797   9.265   3.050   9.326 -3.6765  1.8952 -1.3636
  600MOL0     H82798   9.300   3.146   9.117  1.9644 -0.2517 -0.4801
  600MOL0     H82799   9.334   3.016   8.996  1.7821 -0.4504  1.4490
  600MOL0     H82800   9.167   3.087   9.028  1.3975  3.0502  1.7223
  601MOL0     O82801   8.821   4.205   6.392 -0.0699 -1.1110  0.6961
  601MOL0     C82802   8.751   4.290   6.451 -0.8390  0.0389  0.2702
  601MOL0     O82803   8.793   4.407   6.488  0.4835  0.3315  0.3149
  601MOL0     C82804   8.925   4.443   6.467  0.1521 -1.0853 -0.8422
  601MOL0     C82805   9.001   4.454   6.586  0.9300  0.5357 -0.0132
  601MOL0     C82806   9.124   4.507   6.576 -0.3184 -0.3845  0.3864
  601MOL0     C82807   9.194   4.528   6.458  0.3142 -0.0071 -0.7543
  601MOL0     O82808   9.327   4.558   6.461  0.0051 -0.3411  0.7220
  601MOL0     C82809   9.406   4.521   6.351 -0.2020  0.3459 -0.1205
  601MOL0     C82810   9.544   4.508   6.419 -0.0803  0.2996  0.1512
  601MOL0     C82811   9.671   4.472   6.336  0.6400 -0.2887  0.7776
  601MOL0     C82812   9.787   4.422   6.417 -0.4974  0.9166 -0.4451
  601MOL0     C82813   9.924   4.429   6.347 -0.2261 -0.0270  0.7221
  601MOL0     C82814  10.031   4.390   6.449 -1.1869  0.7689 -0.5053
  601MOL0     C82815  10.179   4.405   6.395 -0.8256 -0.7559  0.3524
  601MOL0     C82816  10.194   4.286   6.294 -0.2051 -0.4122 -0.8698
  601MOL0     N82817  10.328   4.300   6.230  0.4521 -0.0458 -0.2412
  601MOL0     C82818  10.367   4.407   6.144  0.1167  0.5865  0.2504
  601MOL0     C82819  10.491   4.367   6.098  0.4938 -0.0061 -0.4474
  601MOL0     C82820  10.563   4.443   5.992  0.0027  1.7166 -1.0283
  601MOL0     C82821  10.558   4.363   5.862 -0.6923  1.7418  0.9257
  601MOL0     C82822  10.693   4.295   5.807 -0.8872  0.3184  0.5854
  601MOL0     C82823  10.782   4.234   5.921  1.0416 -0.0969 -0.4156
  601MOL0     O82824  10.897   4.169   5.880 -0.2811 -0.0051  0.5853
  601MOL0     C82825  10.983   4.245   5.808  0.1181  0.0589  1.2025
  601MOL0     C82826  10.995   4.217   5.670 -0.1374 -1.1556  0.4714
  601MOL0     C82827  11.064   4.308   5.578 -0.6984  0.8440  0.0168
  601MOL0     C82828  11.056   4.277   5.423  0.0771  1.0617  0.7564
  601MOL0     C82829  11.152   4.413   5.632 -0.7471 -0.1805  0.2168
  601MOL0     C82830  11.221   4.517   5.553  0.1939  0.3793  0.0049
  601MOL0     O82831  11.169   4.549   5.435  0.6634  0.6265 -1.1664
  601MOL0     C82832  11.243   4.638   5.360  0.6593  1.4185 -0.0504
  601MOL0     C82833  11.307   4.593   5.242 -0.4908  0.0149  0.7436
  601MOL0     C82834  11.355   4.687   5.154  0.4063 -0.1974  0.3450
  601MOL0     C82835  11.331   4.819   5.177 -0.8647 -1.2581 -0.1050
  601MOL0     O82836  11.379   4.911   5.081 -0.7064 -0.6481  0.0408
  601MOL0     C82837  11.359   5.053   5.084 -0.2759  0.1308 -0.1139
  601MOL0     C82838  11.465   5.125   5.174 -0.6187  1.0277 -0.0679
  601MOL0     C82839  11.596   5.092   5.110 -0.4471  0.5289 -0.3122
  601MOL0     C82840  11.691   5.190   5.180 -0.0931  0.6871 -0.1037
  601MOL0     C82841  11.844   5.170   5.136  1.4748 -0.0058 -1.5418
  601MOL0     C82842  11.860   5.129   4.992 -0.2450  0.7656 -0.2249
  601MOL0     C82843  11.806   5.228   4.892  0.1680 -0.6191  0.5274
  601MOL0     C82844  11.782   5.166   4.756 -0.1172  0.6069  0.6695
  601MOL0    Cl82845  11.723   5.288   4.640  0.1666  0.0248 -0.0927
  601MOL0     C82846  11.247   4.860   5.274  0.8324 -0.0071 -0.2429
  601MOL0     C82847  11.209   4.773   5.373  0.0166  0.2307  0.3660
  601MOL0     O82848  11.331   4.550   5.592 -0.1676 -0.4907  0.0823
  601MOL0     C82849  11.135   4.442   5.771  0.1021  0.2961 -0.2525
  601MOL0     C82850  11.047   4.364   5.849 -0.3108 -0.5737  0.2863
  601MOL0     N82851  10.522   4.234   6.148 -0.5282 -0.6690 -0.3208
  601MOL0     N82852  10.424   4.203   6.216  0.6708 -0.1278 -0.1753
  601MOL0     C82853   9.113   4.524   6.343  0.1026  0.2848 -0.0744
  601MOL0     C82854   8.982   4.476   6.348  0.2032 -0.6244 -0.5218
  601MOL0     C82855   8.600   4.249   6.485 -0.4328  0.6225  0.4792
  601MOL0     C82856   8.549   4.305   6.600 -0.8410  0.0042 -0.4039
  601MOL0     C82857   8.417   4.273   6.645 -0.0874 -0.2459 -0.5182
  601MOL0     C82858   8.344   4.180   6.571  0.5605 -0.1771  0.1535
  601MOL0     O82859   8.219   4.133   6.599 -0.3005  0.4474 -0.6827
  601MOL0     C82860   8.163   4.180   6.722  0.0555 -0.0716  0.0031
  601MOL0     C82861   8.223   4.103   6.837  0.7876 -0.9023 -0.5550
  601MOL0     C82862   8.134   4.116   6.965 -0.7263 -0.1467  0.9284
  601MOL0     C82863   8.198   4.029   7.080  0.2066 -1.1161 -0.2410
  601MOL0     C82864   8.286   4.118   7.159 -0.3041  0.0954  0.6221
  601MOL0     C82865   8.361   4.194   7.218 -0.2995 -0.0825 -0.5674
  601MOL0     C82866   8.393   4.130   6.450  0.3705 -0.8135  0.0263
  601MOL0     C82867   8.521   4.157   6.412 -0.7424 -1.3348 -0.1324
  601MOL0     C82868   8.572   4.103   6.282 -0.5586 -0.2175  0.0440
  601MOL0     H82869   8.955   4.436   6.682  1.4425  0.3080  0.1941
  601MOL0     H82870   9.181   4.523   6.668  0.8431  0.8424 -0.4939
  601MOL0     H82871   9.404   4.608   6.284 -2.9661  1.7549  1.6041
  601MOL0     H82872   9.374   4.434   6.294 -0.6306  1.6392 -1.9489
  601MOL0     H82873   9.582   4.598   6.468  1.5585  1.1409 -2.4417
  601MOL0     H82874   9.518   4.429   6.490  1.7574  1.1685  1.8924
  601MOL0     H82875   9.627   4.396   6.271 -1.6848 -1.6814  3.7360
  601MOL0     H82876   9.697   4.564   6.283  1.2636 -0.9165 -0.0334
  601MOL0     H82877   9.789   4.479   6.510  0.8149  0.0172  0.0921
  601MOL0     H82878   9.768   4.316   6.435 -2.4120  1.0144 -1.5890
  601MOL0     H82879   9.949   4.527   6.308  1.4955 -0.9560 -0.6530
  601MOL0     H82880   9.917   4.362   6.261  0.7925 -1.4050  1.6466
  601MOL0     H82881  10.013   4.454   6.536 -1.0922 -0.2855  0.3179
  601MOL0     H82882  10.024   4.286   6.483  2.4218  0.2279 -1.0840
  601MOL0     H82883  10.243   4.396   6.483 -0.3037  1.9480  0.3472
  601MOL0     H82884  10.198   4.505   6.356  0.1446 -1.3187 -0.6945
  601MOL0     H82885  10.196   4.188   6.343 -0.0512 -0.3978 -0.8476
  601MOL0     H82886  10.121   4.289   6.213 -2.9207 -0.3198  1.4289
  601MOL0     H82887  10.321   4.504   6.126  0.3411  0.4745 -1.0496
  601MOL0     H82888  10.661   4.469   6.033 -1.1960  2.1120  1.8652
  601MOL0     H82889  10.504   4.535   5.976 -2.9371 -0.1326 -1.6633
  601MOL0     H82890  10.482   4.287   5.882  0.9150  0.5502  2.7009
  601MOL0     H82891  10.515   4.421   5.779 -0.0641 -0.2941 -0.9125
  601MOL0     H82892  10.673   4.219   5.731 -2.0169  2.1947 -1.0915
  601MOL0     H82893  10.752   4.377   5.764  2.4901 -1.8080  0.7687
  601MOL0     H82894  10.807   4.313   5.993  2.7332 -2.7779  2.2259
  601MOL0     H82895  10.711   4.169   5.974 -3.2464  1.3561 -3.8041
  601MOL0     H82896  10.924   4.140   5.643 -2.8116  1.8163 -1.7002
  601MOL0     H82897  11.013   4.365   5.375 -3.3919 -2.0670 -2.6170
  601MOL0     H82898  10.990   4.193   5.399  2.3658 -0.4697 -0.6201
  601MOL0     H82899  11.155   4.269   5.378  0.9509  0.5360  2.6856
  601MOL0     H82900  11.325   4.487   5.227 -1.8659 -0.2303  0.7853
  601MOL0     H82901  11.410   4.663   5.064 -0.6214 -0.2695 -0.2754
  601MOL0     H82902  11.369   5.087   4.980 -0.8037 -0.8545 -0.4962
  601MOL0     H82903  11.256   5.081   5.110  0.6929  4.3884 -0.0339
  601MOL0     H82904  11.440   5.231   5.177  0.7185  1.3528  0.8526
  601MOL0     H82905  11.457   5.084   5.276 -1.9883  1.7183  0.1169
  601MOL0     H82906  11.591   5.115   5.003 -0.4519  0.0120 -0.4237
  601MOL0     H82907  11.631   4.989   5.119 -0.0670  0.5431 -1.4478
  601MOL0     H82908  11.694   5.178   5.289 -0.5844  2.2159  0.1060
  601MOL0     H82909  11.670   5.294   5.152  0.1771  0.8812  0.3875
  601MOL0     H82910  11.902   5.258   5.165 -0.2467  0.6755  0.0252
  601MOL0     H82911  11.891   5.093   5.198 -1.8359  0.1132  1.4854
  601MOL0     H82912  11.824   5.026   4.989  0.4082  0.4875  0.7433
  601MOL0     H82913  11.965   5.112   4.965 -0.2325  1.4557 -0.6291
  601MOL0     H82914  11.871   5.313   4.872 -1.0031 -0.3136 -2.6090
  601MOL0     H82915  11.710   5.275   4.914 -0.5696 -1.0486 -1.5569
  601MOL0     H82916  11.718   5.078   4.756  2.2571 -1.2920 -1.9280
  601MOL0     H82917  11.878   5.132   4.716 -1.8277 -2.2739 -1.3186
  601MOL0     H82918  11.208   4.961   5.283  0.1404 -0.3797  1.2774
  601MOL0     H82919  11.139   4.790   5.454 -2.7583 -0.6460 -1.6462
  601MOL0     H82920  11.190   4.517   5.827  2.7109 -1.4000 -0.3925
  601MOL0     H82921  11.035   4.380   5.956 -3.5032 -0.8233  0.0540
  601MOL0     H82922   9.151   4.545   6.243  0.5629  1.8937  0.4103
  601MOL0     H82923   8.910   4.462   6.268 -3.0793  2.4759  1.5522
  601MOL0     H82924   8.601   4.370   6.670 -1.4781  2.3999 -2.0168
  601MOL0     H82925   8.370   4.308   6.737 -1.8392 -1.3516 -0.9289
  601MOL0     H82926   8.181   4.288   6.730  2.4516 -0.2430 -1.9964
  601MOL0     H82927   8.054   4.168   6.714  0.1706 -2.0210  0.7838
  601MOL0     H82928   8.327   4.126   6.863  0.5643 -0.4014 -0.1056
  601MOL0     H82929   8.212   3.998   6.808 -4.1150 -1.2425  1.5186
  601MOL0     H82930   8.123   4.223   6.985 -0.3248 -0.3000  2.0266
  601MOL0     H82931   8.035   4.078   6.941 -1.5967  1.5388  1.6982
  601MOL0     H82932   8.259   3.948   7.041  3.5615 -0.4539  3.0410
  601MOL0     H82933   8.114   3.997   7.143 -0.4133  2.7528  1.1828
  601MOL0     H82934   8.427   4.264   7.264 -1.2703  0.6434 -0.2284
  601MOL0     H82935   8.328   4.065   6.392 -2.9289  0.5945  1.8476
  601MOL0     H82936   8.497   4.056   6.218  1.5045 -1.7406 -1.3943
  601MOL0     H82937   8.622   4.181   6.222  0.1129  2.0873  3.3226
  601MOL0     H82938   8.654   4.034   6.302 -0.1167 -0.0285 -1.0303
  602MOL0     O82939   7.072   4.770   2.169  0.3069  0.0559 -0.4625
  602MOL0     C82940   7.027   4.732   2.065 -0.2517 -0.3604  0.0265
  602MOL0     O82941   6.940   4.624   2.041 -0.1919  0.1237 -0.4289
  602MOL0     C82942   6.857   4.572   2.138 -0.2914  0.2978 -0.2976
  602MOL0     C82943   6.716   4.582   2.134 -0.2400  1.0630 -0.1201
  602MOL0     C82944   6.637   4.523   2.233  0.3030 -0.3617  0.2256
  602MOL0     C82945   6.695   4.467   2.347  0.0885  0.6679  0.0437
  602MOL0     O82946   6.610   4.413   2.438  0.3241  0.0162 -0.3443
  602MOL0     C82947   6.628   4.500   2.554  0.2252  0.5645 -0.2805
  602MOL0     C82948   6.494   4.522   2.622 -0.4439 -0.5664  0.3126
  602MOL0     C82949   6.427   4.653   2.560 -0.1253 -0.3379 -0.5314
  602MOL0     C82950   6.273   4.639   2.603 -0.2786  0.4256  0.6207
  602MOL0     C82951   6.213   4.769   2.540  0.6522 -0.8777  0.7729
  602MOL0     C82952   6.063   4.780   2.555  0.6845  0.1803  0.3138
  602MOL0     C82953   6.019   4.924   2.508  0.0228 -1.4938  0.4763
  602MOL0     C82954   5.982   4.937   2.364 -0.3081 -0.3016  0.0709
  602MOL0     N82955   6.096   4.896   2.285 -0.9258  0.3551 -0.5639
  602MOL0     C82956   6.213   4.974   2.256  0.1149  0.6875 -0.5917
  602MOL0     C82957   6.267   4.912   2.153  0.0346  0.3769  0.6059
  602MOL0     C82958   6.397   4.952   2.084  0.2363 -0.1812  0.4171
  602MOL0     C82959   6.522   4.923   2.165 -0.0418  1.2089 -0.2638
  602MOL0     C82960   6.647   4.941   2.085  0.5084  0.1609  0.0960
  602MOL0     C82961   6.651   5.084   2.034 -0.0786 -0.0474  0.5371
  602MOL0     O82962   6.664   5.178   2.142  0.2572  0.6823  0.6855
  602MOL0     C82963   6.666   5.302   2.093  0.5897 -0.7534  0.4663
  602MOL0     C82964   6.729   5.394   2.180 -0.1623  0.3211  0.5355
  602MOL0     C82965   6.739   5.531   2.148  0.3276  0.3294 -0.4064
  602MOL0     C82966   6.795   5.621   2.257 -0.1163  1.0000  1.0024
  602MOL0     C82967   6.702   5.587   2.018 -0.4653  0.7061  1.2570
  602MOL0     C82968   6.707   5.723   1.968 -0.8832 -0.6519 -0.6503
  602MOL0     O82969   6.781   5.812   2.047 -0.2254  0.2944  0.0460
  602MOL0     C82970   6.771   5.941   2.019  0.7368 -0.5551 -0.1774
  602MOL0     C82971   6.641   6.008   2.030  0.1169  0.6584  1.2416
  602MOL0     C82972   6.623   6.144   2.000  0.4845  0.6253 -0.4721
  602MOL0     C82973   6.728   6.217   1.947 -1.2320  1.0052  0.6594
  602MOL0     O82974   6.719   6.347   1.946 -0.6766 -0.6656 -0.1611
  602MOL0     C82975   6.817   6.438   1.917 -0.0258 -0.5177  0.2394
  602MOL0     C82976   6.808   6.508   1.780  0.0358  0.3746  0.6339
  602MOL0     C82977   6.806   6.396   1.666  0.1740  0.2736  0.2107
  602MOL0     C82978   6.757   6.464   1.537  0.5676 -0.0941  0.4468
  602MOL0     C82979   6.716   6.367   1.417 -0.8948 -0.4627 -0.2478
  602MOL0     C82980   6.629   6.433   1.312  0.1228  0.5816  0.5311
  602MOL0     C82981   6.630   6.353   1.174 -0.0290  0.2627  0.6533
  602MOL0     C82982   6.592   6.199   1.190 -0.8430 -1.3127 -0.8287
  602MOL0    Cl82983   6.748   6.105   1.225 -0.4402  0.1609 -0.2618
  602MOL0     C82984   6.851   6.149   1.928 -0.1070 -0.6749 -0.2990
  602MOL0     C82985   6.873   6.009   1.953 -0.1598 -0.2997 -0.0034
  602MOL0     O82986   6.652   5.748   1.864  0.4532 -0.3285  0.2351
  602MOL0     C82987   6.637   5.488   1.943  0.4291 -0.3046  0.6273
  602MOL0     C82988   6.612   5.357   1.974 -0.1903  0.3150 -0.2225
  602MOL0     N82989   6.182   4.811   2.108 -0.7082 -0.3854  1.2968
  602MOL0     N82990   6.081   4.804   2.188  0.1421  0.2586  0.0681
  602MOL0     C82991   6.836   4.471   2.361 -0.0579  0.4535  0.0067
  602MOL0     C82992   6.910   4.507   2.249  0.5532  0.7426  1.0561
  602MOL0     C82993   7.066   4.805   1.939 -0.2689 -0.3038  0.0748
  602MOL0     C82994   6.965   4.866   1.861 -0.4549  0.5447 -0.7490
  602MOL0     C82995   6.999   4.929   1.740 -0.5195 -0.4624 -0.2111
  602MOL0     C82996   7.137   4.943   1.698  0.1357  0.0033  0.8594
  602MOL0     O82997   7.184   5.015   1.587 -0.0926  0.7273 -0.4991
  602MOL0     C82998   7.090   5.091   1.516  0.1076  0.3049  0.5125
  602MOL0     C82999   7.131   5.138   1.374 -0.6359 -0.3969 -0.3104
  602MOL0     C83000   7.188   5.035   1.283 -0.3167 -0.6256 -0.1339
  602MOL0     C83001   7.075   4.924   1.252  0.3162  0.2319  0.0570
  602MOL0     C83002   6.955   4.960   1.181  0.2305 -0.2031  0.1857
  602MOL0     C83003   6.866   5.015   1.112 -0.5525  0.3774 -0.7096
  602MOL0     C83004   7.228   4.875   1.778 -0.5256 -0.0343  0.3911
  602MOL0     C83005   7.201   4.811   1.903 -0.5292  0.5684 -0.5262
  602MOL0     C83006   7.318   4.752   1.990  0.2594  0.8463  0.0668
  602MOL0     H83007   6.668   4.614   2.042 -3.1288 -0.2223  0.8347
  602MOL0     H83008   6.529   4.524   2.224  0.2348  0.9584  0.8434
  602MOL0     H83009   6.671   4.600   2.542  0.2092  0.9935  2.5146
  602MOL0     H83010   6.692   4.464   2.635  0.5484  4.5921  1.5007
  602MOL0     H83011   6.439   4.429   2.605  1.9131 -1.8732 -0.6709
  602MOL0     H83012   6.502   4.546   2.729  0.6424  2.4426 -0.3639
  602MOL0     H83013   6.468   4.740   2.611  3.2701 -2.2203  0.2481
  602MOL0     H83014   6.444   4.657   2.452 -2.4510 -1.9864 -1.0375
  602MOL0     H83015   6.232   4.546   2.562  2.2662 -0.7877  0.6389
  602MOL0     H83016   6.246   4.635   2.709 -1.9083 -4.6254  0.2967
  602MOL0     H83017   6.260   4.769   2.441  1.9977  0.5921  1.3722
  602MOL0     H83018   6.254   4.859   2.587 -0.0890 -0.7353  1.1453
  602MOL0     H83019   6.007   4.707   2.495 -2.3758  1.8749  0.8680
  602MOL0     H83020   6.040   4.773   2.662  1.1354 -2.1586  0.3049
  602MOL0     H83021   6.092   5.003   2.529 -0.5202  0.0160 -2.6187
  602MOL0     H83022   5.931   4.959   2.563  0.4405 -0.5613  0.5746
  602MOL0     H83023   5.898   4.873   2.337 -0.7134  0.8941 -1.6638
  602MOL0     H83024   5.951   5.040   2.347  0.2309  0.0621  1.2294
  602MOL0     H83025   6.261   5.056   2.308 -1.0839  3.1593 -3.1128
  602MOL0     H83026   6.398   5.060   2.067  1.4966 -0.0509  1.1474
  602MOL0     H83027   6.404   4.909   1.984  1.1389 -0.0215  0.4046
  602MOL0     H83028   6.508   4.974   2.261 -1.0232  1.0451 -0.3097
  602MOL0     H83029   6.522   4.817   2.192 -0.6495  1.4833  0.9006
  602MOL0     H83030   6.726   4.910   2.154 -2.0404 -0.3591  2.9680
  602MOL0     H83031   6.649   4.877   1.996  2.7434  1.1959 -0.6956
  602MOL0     H83032   6.740   5.096   1.971 -0.5063  0.6404  0.0516
  602MOL0     H83033   6.562   5.100   1.973  0.7198 -1.4247 -1.0856
  602MOL0     H83034   6.760   5.368   2.281  0.8846 -0.1831  0.1053
  602MOL0     H83035   6.893   5.656   2.224 -1.9721  4.6279 -1.2269
  602MOL0     H83036   6.806   5.557   2.346  3.0672 -1.1649 -0.7259
  602MOL0     H83037   6.725   5.703   2.273 -4.0350 -2.2247  1.9672
  602MOL0     H83038   6.554   5.951   2.058  0.9844 -2.7325 -2.0957
  602MOL0     H83039   6.522   6.182   2.010  0.7408  1.2247 -0.0656
  602MOL0     H83040   6.803   6.527   1.979 -2.0393  0.5719 -1.6478
  602MOL0     H83041   6.921   6.404   1.918  0.1488 -0.0295 -0.5908
  602MOL0     H83042   6.718   6.569   1.776 -0.2710 -0.0873  0.4621
  602MOL0     H83043   6.895   6.573   1.766  1.4191 -1.5918 -0.5228
  602MOL0     H83044   6.749   6.310   1.701  0.1909  0.2252  0.1178
  602MOL0     H83045   6.908   6.360   1.648 -0.5016 -1.3390 -0.5371
  602MOL0     H83046   6.831   6.538   1.503  0.8963  0.0049  1.3552
  602MOL0     H83047   6.663   6.515   1.561 -0.5993 -1.6551 -0.5896
  602MOL0     H83048   6.796   6.301   1.386 -3.1324 -3.3967 -0.2317
  602MOL0     H83049   6.649   6.291   1.459 -1.6512  0.3376  0.0408
  602MOL0     H83050   6.682   6.525   1.286 -0.7624  0.2967 -2.6893
  602MOL0     H83051   6.532   6.466   1.349 -0.4222  1.0802 -1.2316
  602MOL0     H83052   6.733   6.364   1.140  0.6468  1.0209  2.7518
  602MOL0     H83053   6.566   6.404   1.102  1.6860  2.0971  0.3369
  602MOL0     H83054   6.539   6.155   1.106  0.7747 -2.0888 -1.4837
  602MOL0     H83055   6.533   6.199   1.282  0.6754  2.3001  0.3229
  602MOL0     H83056   6.930   6.209   1.883 -0.7212 -1.6622 -2.8458
  602MOL0     H83057   6.958   5.955   1.912 -0.3351 -1.7411  1.4536
  602MOL0     H83058   6.597   5.511   1.845 -1.1797 -1.2978  0.9963
  602MOL0     H83059   6.538   5.312   1.909  0.2158 -0.3744 -0.2189
  602MOL0     H83060   6.888   4.425   2.444  2.1046 -2.7534 -2.8569
  602MOL0     H83061   7.016   4.484   2.250  0.4462  0.1292 -0.2582
  602MOL0     H83062   6.862   4.867   1.894 -0.3007  2.0522 -0.2414
  602MOL0     H83063   6.925   4.985   1.684 -1.1731 -0.5971  0.5087
  602MOL0     H83064   7.007   5.021   1.507  1.4308 -1.2231 -0.4639
  602MOL0     H83065   7.050   5.176   1.571 -1.6738 -0.3241  0.2381
  602MOL0     H83066   7.206   5.212   1.402 -1.7058  0.3308  0.7309
  602MOL0     H83067   7.047   5.188   1.325 -0.3903  4.1508  3.2258
  602MOL0     H83068   7.222   5.088   1.194 -0.1480 -1.9901 -0.9085
  602MOL0     H83069   7.276   4.992   1.330 -0.2029 -0.1773  0.0688
  602MOL0     H83070   7.046   4.872   1.344  1.8114 -2.7621 -1.0025
  602MOL0     H83071   7.132   4.845   1.202  1.9900 -0.5819  2.9901
  602MOL0     H83072   6.791   5.065   1.053 -0.3764  1.2033 -0.2531
  602MOL0     H83073   7.333   4.875   1.752 -0.6095 -0.4736  0.0507
  602MOL0     H83074   7.418   4.788   1.962  0.3912  0.5120  0.1053
  602MOL0     H83075   7.300   4.780   2.095  1.3164 -0.6374  0.6845
  602MOL0     H83076   7.327   4.644   1.983  2.2856  1.0375 -0.9608
  603MOL0     O83077   7.313   6.957   6.655  0.2671 -0.6023  1.1569
  603MOL0     C83078   7.425   6.968   6.700  0.3146 -0.2023  0.6809
  603MOL0     O83079   7.453   6.954   6.832  0.3315  0.5065 -0.5840
  603MOL0     C83080   7.366   6.903   6.923 -0.9771 -0.6121 -0.6784
  603MOL0     C83081   7.327   6.769   6.905 -0.4590  0.5054 -0.4173
  603MOL0     C83082   7.228   6.716   6.992  0.5244 -0.4368 -0.5335
  603MOL0     C83083   7.193   6.784   7.108  1.4628 -0.0309  0.2049
  603MOL0     O83084   7.099   6.720   7.197  0.0373 -0.9482  0.1911
  603MOL0     C83085   6.980   6.659   7.134  0.0629 -0.4186  0.2903
  603MOL0     C83086   7.000   6.499   7.126 -0.2329  0.2155 -0.3767
  603MOL0     C83087   7.008   6.443   7.268 -0.3052  1.1126  1.2256
  603MOL0     C83088   7.006   6.292   7.271 -0.7878  0.7519 -0.7356
  603MOL0     C83089   7.123   6.232   7.207 -0.7018  0.3152  0.4543
  603MOL0     C83090   7.113   6.078   7.202 -0.6648 -0.2581 -0.9213
  603MOL0     C83091   7.243   5.991   7.204  0.5577 -0.5225  0.3885
  603MOL0     C83092   7.344   6.019   7.085  0.8867  0.3515 -0.1145
  603MOL0     N83093   7.292   6.066   6.962 -0.1248 -1.1410 -0.2130
  603MOL0     C83094   7.190   6.010   6.898  0.2006  1.1001  0.0192
  603MOL0     C83095   7.152   6.097   6.798  0.2300 -0.0378  0.9456
  603MOL0     C83096   7.038   6.090   6.699  0.5147  0.8667 -0.0497
  603MOL0     C83097   6.989   6.238   6.673  0.0130  0.1005  0.0336
  603MOL0     C83098   6.865   6.225   6.585 -0.1970 -0.6398  0.1128
  603MOL0     C83099   6.787   6.353   6.561 -0.1214 -1.0124  0.1380
  603MOL0     O83100   6.695   6.336   6.453  0.1103 -0.2349  0.5194
  603MOL0     C83101   6.635   6.446   6.393  0.8825  0.2841 -0.5800
  603MOL0     C83102   6.583   6.432   6.273  1.2590  0.1592 -0.1681
  603MOL0     C83103   6.502   6.539   6.225  0.0978  0.3550  0.6178
  603MOL0     C83104   6.443   6.537   6.081  0.3759  0.6508  0.1372
  603MOL0     C83105   6.481   6.661   6.303 -0.2511  1.0250  0.3356
  603MOL0     C83106   6.384   6.764   6.263 -1.3283  0.0068  0.0391
  603MOL0     O83107   6.398   6.893   6.306  0.2578  0.0594  0.5949
  603MOL0     C83108   6.302   6.982   6.271 -0.0609  0.3097 -0.0478
  603MOL0     C83109   6.340   7.097   6.199  0.6287  0.1739 -0.8211
  603MOL0     C83110   6.241   7.201   6.167  0.7890  0.2391  0.5044
  603MOL0     C83111   6.116   7.187   6.198  1.1648 -0.5814  0.3092
  603MOL0     O83112   6.036   7.285   6.151 -0.5797  0.6408  0.5316
  603MOL0     C83113   5.913   7.310   6.231 -0.5583  0.1932  0.0863
  603MOL0     C83114   5.841   7.419   6.160  0.5786  0.0126  0.4866
  603MOL0     C83115   5.749   7.364   6.053 -0.3538 -0.4284 -0.3988
  603MOL0     C83116   5.687   7.486   5.977 -0.3317  0.8598  0.8631
  603MOL0     C83117   5.775   7.530   5.860  0.0794  0.7283 -0.2314
  603MOL0     C83118   5.706   7.617   5.763  0.4889 -0.3095  0.9810
  603MOL0     C83119   5.770   7.604   5.623 -0.0906 -0.8784 -0.0943
  603MOL0     C83120   5.738   7.723   5.524 -0.4574 -0.7943 -0.1730
  603MOL0    Cl83121   5.571   7.693   5.458  0.2040  0.1337  0.2443
  603MOL0     C83122   6.082   7.076   6.276 -0.0562 -0.1314 -0.2884
  603MOL0     C83123   6.169   6.972   6.310  1.2373 -0.6879  0.2000
  603MOL0     O83124   6.286   6.716   6.213  0.3308  0.2155 -0.6553
  603MOL0     C83125   6.546   6.678   6.427 -0.0925  0.6051  0.3195
  603MOL0     C83126   6.616   6.567   6.474  0.2422  1.3970 -0.7495
  603MOL0     N83127   7.251   6.204   6.807 -0.3870 -0.4080  0.1443
  603MOL0     N83128   7.329   6.183   6.906 -0.2353  0.1000 -0.5014
  603MOL0     C83129   7.249   6.913   7.137 -0.7445 -0.2136 -0.0317
  603MOL0     C83130   7.346   6.968   7.045  0.6759  1.1499  0.3083
  603MOL0     C83131   7.540   6.999   6.614  0.3128 -0.1897 -0.0332
  603MOL0     C83132   7.661   7.020   6.687 -0.3623 -0.7973  0.5894
  603MOL0     C83133   7.777   7.050   6.615  0.6341 -0.3386 -0.9922
  603MOL0     C83134   7.773   7.066   6.474 -0.3731  0.2543  0.3998
  603MOL0     O83135   7.885   7.111   6.399 -0.4788 -0.0023 -0.2212
  603MOL0     C83136   7.935   7.232   6.446  0.0361  0.2051 -0.6640
  603MOL0     C83137   7.980   7.338   6.346  0.1003  0.0401  0.3463
  603MOL0     C83138   7.859   7.410   6.295 -1.3271 -0.6095  0.3672
  603MOL0     C83139   7.915   7.519   6.201  0.3425  0.4548 -1.0205
  603MOL0     C83140   7.815   7.586   6.126  0.4841 -0.8217  0.6621
  603MOL0     C83141   7.736   7.655   6.066 -0.1232  1.0490  0.9523
  603MOL0     C83142   7.654   7.041   6.408 -0.0118 -0.1659 -0.0451
  603MOL0     C83143   7.529   7.014   6.477 -0.8667  0.3970  0.7981
  603MOL0     C83144   7.406   7.009   6.377  0.2326  0.4192 -0.4523
  603MOL0     H83145   7.379   6.715   6.826 -0.2020  2.1905 -1.4312
  603MOL0     H83146   7.200   6.613   6.968  0.2013 -0.6390  0.6741
  603MOL0     H83147   6.961   6.701   7.035  0.3996 -1.8763 -0.4287
  603MOL0     H83148   6.890   6.676   7.194 -1.4610  0.6900 -2.1246
  603MOL0     H83149   6.915   6.470   7.063 -0.8862  0.2190  0.4820
  603MOL0     H83150   7.096   6.472   7.082 -0.9272 -1.5898 -0.8485
  603MOL0     H83151   7.102   6.473   7.313  1.0656 -0.3536 -0.4974
  603MOL0     H83152   6.923   6.486   7.321 -1.7774 -0.7703  0.5439
  603MOL0     H83153   6.998   6.255   7.373 -1.1638  2.0651 -0.2666
  603MOL0     H83154   6.915   6.247   7.231 -0.5625 -2.8706  2.3188
  603MOL0     H83155   7.217   6.251   7.260  0.3421  2.9057 -2.0798
  603MOL0     H83156   7.138   6.255   7.101  1.9725 -1.6929  0.2697
  603MOL0     H83157   7.070   6.049   7.298  1.2650 -1.9390 -0.4869
  603MOL0     H83158   7.041   6.054   7.124 -0.4823 -1.0520 -0.8528
  603MOL0     H83159   7.199   5.891   7.208 -3.4876  1.0994  1.4169
  603MOL0     H83160   7.304   6.015   7.291  0.6489 -0.8973  0.4285
  603MOL0     H83161   7.427   6.081   7.119  2.6153 -0.9996 -1.6962
  603MOL0     H83162   7.389   5.926   7.050 -1.2368  0.3340 -3.1125
  603MOL0     H83163   7.141   5.916   6.922  0.3866  0.2662 -2.5289
  603MOL0     H83164   6.963   6.029   6.750  2.1828 -0.9082  0.3755
  603MOL0     H83165   7.073   6.035   6.611  0.2217 -1.5852  1.2864
  603MOL0     H83166   6.966   6.285   6.769  2.2736  0.7878  0.2853
  603MOL0     H83167   7.070   6.291   6.623  0.0561 -0.9287 -1.0406
  603MOL0     H83168   6.906   6.191   6.490 -2.2387 -1.2578 -0.6128
  603MOL0     H83169   6.795   6.150   6.623 -2.2721  0.9309 -0.4088
  603MOL0     H83170   6.731   6.386   6.649 -0.5633 -1.2533 -0.0437
  603MOL0     H83171   6.866   6.421   6.529 -0.3379 -1.0642 -0.5258
  603MOL0     H83172   6.592   6.335   6.224 -0.4324  1.7164 -4.0251
  603MOL0     H83173   6.513   6.475   6.024 -2.0702 -2.2600  0.0424
  603MOL0     H83174   6.445   6.636   6.036 -1.6591  0.5995 -0.1539
  603MOL0     H83175   6.340   6.503   6.071  2.0649 -4.9270 -2.2742
  603MOL0     H83176   6.438   7.116   6.157  1.0722  0.3381  0.2630
  603MOL0     H83177   6.275   7.290   6.116 -1.8854  1.6166  0.9606
  603MOL0     H83178   5.850   7.221   6.230  0.0045 -0.4069  3.5794
  603MOL0     H83179   5.937   7.327   6.337  1.4397  0.5528 -0.3731
  603MOL0     H83180   5.774   7.467   6.233 -0.7301  0.3364 -0.8734
  603MOL0     H83181   5.911   7.496   6.128  0.1231 -0.4171 -1.6526
  603MOL0     H83182   5.665   7.300   6.082 -1.6547  1.3417 -0.1299
  603MOL0     H83183   5.810   7.305   5.983  1.5754  0.3585  0.5685
  603MOL0     H83184   5.660   7.568   6.044  1.7096  0.8009  1.8280
  603MOL0     H83185   5.587   7.480   5.932 -0.7544  4.4672  1.0125
  603MOL0     H83186   5.871   7.566   5.900  1.7600 -2.9745 -0.5620
  603MOL0     H83187   5.790   7.447   5.791  0.6660 -0.4215  1.2363
  603MOL0     H83188   5.711   7.722   5.793  0.7355  1.0761 -3.1906
  603MOL0     H83189   5.599   7.599   5.755  0.3882  0.4206  0.6010
  603MOL0     H83190   5.734   7.510   5.580 -0.8354 -0.6283 -0.0407
  603MOL0     H83191   5.876   7.614   5.645  0.4098 -3.1360 -1.2343
  603MOL0     H83192   5.812   7.723   5.443 -0.0002 -0.7633  0.2452
  603MOL0     H83193   5.750   7.815   5.581  0.0173 -0.9276 -0.0540
  603MOL0     H83194   5.976   7.063   6.295  0.2457  0.0777  1.6692
  603MOL0     H83195   6.134   6.892   6.375 -3.4023  0.4235 -0.5846
  603MOL0     H83196   6.529   6.767   6.486  2.2289  0.3118  1.5422
  603MOL0     H83197   6.656   6.593   6.571  1.0389 -1.3156 -0.2569
  603MOL0     H83198   7.224   6.954   7.234 -2.4891 -1.4574  0.0799
  603MOL0     H83199   7.390   7.066   7.064  1.5883  0.8879 -0.3901
  603MOL0     H83200   7.674   7.023   6.795 -1.0471 -0.4965  0.6712
  603MOL0     H83201   7.870   7.064   6.670 -1.2079 -1.5529  2.7919
  603MOL0     H83202   7.856   7.278   6.506 -1.4394  0.7355 -2.8905
  603MOL0     H83203   8.022   7.220   6.511 -1.1357  1.9647  1.3595
  603MOL0     H83204   8.029   7.292   6.260 -1.4795  1.2109 -1.2479
  603MOL0     H83205   8.058   7.401   6.391  3.2496 -2.5525 -1.0768
  603MOL0     H83206   7.809   7.348   6.220 -0.3787  1.3030 -1.9691
  603MOL0     H83207   7.798   7.452   6.375 -0.9244  2.6962 -0.9001
  603MOL0     H83208   7.987   7.476   6.132  0.0323  2.1866 -2.4860
  603MOL0     H83209   7.965   7.597   6.260  1.6710  0.1037 -1.6585
  603MOL0     H83210   7.669   7.689   5.990 -0.3813 -2.4323 -0.5740
  603MOL0     H83211   7.660   7.048   6.300  0.2013  0.9372  0.0258
  603MOL0     H83212   7.364   6.911   6.352 -1.3862  0.7205  0.9412
  603MOL0     H83213   7.326   7.056   6.434  0.7166  2.3716 -1.2917
  603MOL0     H83214   7.429   7.061   6.283  2.1990  1.6898  0.6704
  604MOL0     O83215   7.134  11.067   7.898 -0.2758 -0.0032 -0.3031
  604MOL0     C83216   7.248  11.083   7.943  0.1049  0.0568 -0.4416
  604MOL0     O83217   7.275  11.090   8.073  0.5526  0.2985 -0.0072
  604MOL0     C83218   7.184  11.077   8.175  0.4692 -0.4324 -0.4855
  604MOL0     C83219   7.045  11.060   8.182 -0.0314 -1.5913  0.9386
  604MOL0     C83220   6.969  11.063   8.294 -0.0510  0.1224  0.5659
  604MOL0     C83221   7.033  11.082   8.413 -0.4044  0.5115 -0.5956
  604MOL0     O83222   6.965  11.116   8.530 -0.1632 -0.1188  0.1784
  604MOL0     C83223   6.822  11.151   8.528  0.7434 -0.3789 -1.0251
  604MOL0     C83224   6.775  11.189   8.662 -0.7459 -0.8084  0.1512
  604MOL0     C83225   6.816  11.333   8.700  0.4571  0.4767 -1.0167
  604MOL0     C83226   6.777  11.351   8.843  0.2786 -0.4015  0.9396
  604MOL0     C83227   6.780  11.497   8.894 -0.3696  0.8041  0.3741
  604MOL0     C83228   6.745  11.515   9.032  0.3386 -0.3050 -0.0783
  604MOL0     C83229   6.592  11.527   9.042  0.9271 -0.0545 -0.1747
  604MOL0     C83230   6.549  11.529   9.193 -0.3081  0.2950 -0.5576
  604MOL0     N83231   6.614  11.635   9.275  0.1802 -0.0139 -0.9234
  604MOL0     C83232   6.571  11.762   9.275  0.7932  0.8485 -0.2047
  604MOL0     C83233   6.647  11.824   9.367 -0.0963  0.2408 -0.4408
  604MOL0     C83234   6.628  11.972   9.398 -0.8303  0.1628  0.0516
  604MOL0     C83235   6.493  11.993   9.486 -1.0912 -1.0710 -0.1167
  604MOL0     C83236   6.522  11.958   9.629 -0.5617  0.1947  0.6285
  604MOL0     C83237   6.627  12.047   9.713 -0.4429  0.3562  0.1657
  604MOL0     O83238   6.676  11.967   9.824 -0.7447 -0.4454  0.0447
  604MOL0     C83239   6.799  11.902   9.811 -0.1165 -0.3907 -0.3671
  604MOL0     C83240   6.812  11.768   9.768  1.0737 -0.4525  0.4904
  604MOL0     C83241   6.941  11.708   9.783 -0.4389 -1.1439 -1.0436
  604MOL0     C83242   6.945  11.564   9.740 -0.4255 -1.2312 -0.4662
  604MOL0     C83243   7.054  11.790   9.824  1.1489  0.1217 -0.3810
  604MOL0     C83244   7.193  11.742   9.819 -0.7625 -0.2434  0.6104
  604MOL0     O83245   7.281  11.804   9.910 -0.0643  0.1473  0.2287
  604MOL0     C83246   7.401  11.759   9.920  0.0454  0.7950 -0.2524
  604MOL0     C83247   7.427  11.666  10.017 -0.4661  0.0735 -0.6041
  604MOL0     C83248   7.563  11.629  10.032  1.4110 -0.8321  0.0318
  604MOL0     C83249   7.670  11.682   9.964  0.7657  0.5882  0.4785
  604MOL0     O83250   7.789  11.617   9.997  0.3591 -0.3792  0.5921
  604MOL0     C83251   7.912  11.696   9.965  0.5279  0.0997  0.8467
  604MOL0     C83252   7.997  11.636   9.850  0.0357 -1.0623  0.2216
  604MOL0     C83253   7.941  11.615   9.706 -0.2223 -0.1715 -0.4917
  604MOL0     C83254   8.010  11.514   9.624  0.8112  0.3102  1.3040
  604MOL0     C83255   7.950  11.510   9.476 -0.0681  0.4848 -0.1408
  604MOL0     C83256   8.004  11.622   9.392  0.3389 -0.5587  0.9774
  604MOL0     C83257   7.965  11.611   9.241  0.1100  0.3611  1.5629
  604MOL0     C83258   7.831  11.675   9.218  0.6612 -0.7570  0.0228
  604MOL0    Cl83259   7.855  11.845   9.224  0.6061 -0.4159  0.4565
  604MOL0     C83260   7.634  11.779   9.866  0.2596 -0.2059 -0.3765
  604MOL0     C83261   7.500  11.823   9.854 -0.3044 -1.1118 -0.6805
  604MOL0     O83262   7.232  11.656   9.741 -0.4034  0.3712  0.2821
  604MOL0     C83263   7.035  11.929   9.865 -0.3529  0.8215 -0.3080
  604MOL0     C83264   6.903  11.973   9.865 -0.8048 -0.5154  0.7161
  604MOL0     N83265   6.727  11.719   9.433  0.0453 -0.6938  0.0193
  604MOL0     N83266   6.707  11.606   9.376  0.2823  0.0966  0.7081
  604MOL0     C83267   7.179  11.088   8.415 -0.9312  0.5711  0.1592
  604MOL0     C83268   7.247  11.087   8.297  0.5613 -0.6481  0.7620
  604MOL0     C83269   7.363  11.086   7.848 -1.0224  0.2419 -0.0914
  604MOL0     C83270   7.336  11.104   7.703  0.4492  0.1551  0.8473
  604MOL0     C83271   7.442  11.092   7.610  0.4265 -0.2080 -0.5964
  604MOL0     C83272   7.578  11.084   7.657  0.9538  0.0755  0.4331
  604MOL0     O83273   7.665  11.085   7.553 -0.4701 -0.2717 -0.1499
  604MOL0     C83274   7.804  11.083   7.598  0.2889 -0.3808 -0.0622
  604MOL0     C83275   7.838  10.937   7.612  0.2135  0.3565 -0.6553
  604MOL0     C83276   7.990  10.928   7.638 -0.9923  0.7823  0.1783
  604MOL0     C83277   8.030  10.781   7.677 -0.0442  0.4354 -0.3540
  604MOL0     C83278   8.022  10.685   7.562 -1.0259  0.3283  0.3818
  604MOL0     C83279   8.008  10.609   7.469 -0.9678  0.6470 -0.2241
  604MOL0     C83280   7.598  11.076   7.797 -0.0296  0.7767  0.8063
  604MOL0     C83281   7.502  11.071   7.895  0.4485 -0.2738 -0.7119
  604MOL0     C83282   7.553  11.028   8.038 -0.8456  0.3584 -1.2839
  604MOL0     H83283   6.997  11.042   8.086 -2.4406 -1.4660  2.0257
  604MOL0     H83284   6.860  11.054   8.296 -0.0829 -0.8673 -1.8242
  604MOL0     H83285   6.761  11.069   8.489  0.1661 -0.0921 -0.7320
  604MOL0     H83286   6.804  11.232   8.458  1.3330  1.1458  0.5109
  604MOL0     H83287   6.666  11.185   8.674 -1.0086  0.5353 -1.3567
  604MOL0     H83288   6.827  11.114   8.721  2.0955  0.5936 -0.4120
  604MOL0     H83289   6.924  11.337   8.687  0.4344 -0.7047 -1.6906
  604MOL0     H83290   6.770  11.415   8.643  0.8460  2.2933  1.1392
  604MOL0     H83291   6.677  11.314   8.869  1.4691 -3.3765  1.6454
  604MOL0     H83292   6.842  11.282   8.898  0.2153  0.0247  1.5645
  604MOL0     H83293   6.711  11.555   8.832 -0.2394  1.8256  1.1613
  604MOL0     H83294   6.882  11.534   8.880 -0.4565  1.4572  1.3839
  604MOL0     H83295   6.783  11.437   9.098 -3.5344 -0.9540  1.6488
  604MOL0     H83296   6.779  11.615   9.063 -0.4197 -0.6200  1.8747
  604MOL0     H83297   6.533  11.446   8.997 -4.0621  1.0952  3.4004
  604MOL0     H83298   6.558  11.621   8.997 -0.1916 -1.0896 -1.5871
  604MOL0     H83299   6.440  11.525   9.199 -0.2363  0.7268  2.4952
  604MOL0     H83300   6.571  11.437   9.246  0.3692  1.9630  2.2712
  604MOL0     H83301   6.501  11.801   9.203 -1.2879  1.1422  1.8634
  604MOL0     H83302   6.608  12.016   9.300  0.6977 -0.9505 -0.8042
  604MOL0     H83303   6.715  12.008   9.453 -0.9386  0.7407 -0.1425
  604MOL0     H83304   6.453  12.095   9.483 -3.5233 -1.9995 -2.0135
  604MOL0     H83305   6.417  11.928   9.442  0.4357 -1.3222 -2.5121
  604MOL0     H83306   6.424  11.975   9.676 -0.9205 -0.3725  0.1051
  604MOL0     H83307   6.547  11.852   9.625  2.6201  0.8999 -1.6402
  604MOL0     H83308   6.710  12.079   9.650  1.3571 -1.8780  1.2753
  604MOL0     H83309   6.590  12.139   9.759 -0.3220 -0.7725  2.6865
  604MOL0     H83310   6.736  11.700   9.729  0.4133 -0.3109  1.4812
  604MOL0     H83311   6.845  11.523   9.726 -0.2871 -1.6385 -0.2918
  604MOL0     H83312   6.992  11.504   9.818 -3.1391 -1.4378  1.1256
  604MOL0     H83313   6.988  11.572   9.639  1.3678  2.3764  0.4395
  604MOL0     H83314   7.364  11.611  10.086 -0.2348  3.6700  2.8299
  604MOL0     H83315   7.585  11.562  10.114 -1.3038  0.1865  1.7074
  604MOL0     H83316   7.904  11.799   9.930  0.0804 -1.4324 -4.4596
  604MOL0     H83317   7.971  11.701  10.057  1.4809 -0.5754  0.2880
  604MOL0     H83318   8.087  11.698   9.839  0.1673 -1.1262  0.8925
  604MOL0     H83319   8.005  11.538   9.898  1.7872  0.0512  2.3888
  604MOL0     H83320   7.935  11.710   9.651 -2.1308 -0.4703 -0.8980
  604MOL0     H83321   7.836  11.586   9.717 -1.5778  3.5690 -1.7352
  604MOL0     H83322   7.999  11.416   9.672  0.2704 -0.2694  0.0428
  604MOL0     H83323   8.114  11.544   9.615  0.0809  2.9384  0.8381
  604MOL0     H83324   7.991  11.413   9.444  2.3260  1.1205  0.7553
  604MOL0     H83325   7.842  11.517   9.460  0.0262  1.2678 -0.4561
  604MOL0     H83326   8.113  11.631   9.402  0.4986  0.8124 -1.3847
  604MOL0     H83327   7.957  11.714   9.430  0.8895 -0.3837  1.2504
  604MOL0     H83328   7.987  11.514   9.195  2.9267  2.2449 -1.6052
  604MOL0     H83329   8.041  11.672   9.191 -2.8605  1.7475 -1.6954
  604MOL0     H83330   7.764  11.632   9.293 -1.3231  2.1153  0.0660
  604MOL0     H83331   7.783  11.646   9.124  0.1072  2.1343 -0.6901
  604MOL0     H83332   7.701  11.840   9.806  3.6606 -2.8032  0.4336
  604MOL0     H83333   7.470  11.912   9.800 -3.2498 -1.0052  0.9106
  604MOL0     H83334   7.122  11.992   9.879  1.0714 -1.3393  1.3451
  604MOL0     H83335   6.891  12.076   9.898  0.0175 -0.2604  0.2462
  604MOL0     H83336   7.230  11.094   8.511 -0.5644 -0.3022  0.0298
  604MOL0     H83337   7.355  11.100   8.301  0.8217 -2.7921  2.4092
  604MOL0     H83338   7.240  11.111   7.654  1.3736  0.1318 -1.0267
  604MOL0     H83339   7.422  11.107   7.505 -1.5187 -1.6402 -0.4865
  604MOL0     H83340   7.860  11.126   7.515 -0.9649 -2.8997 -2.4121
  604MOL0     H83341   7.825  11.145   7.685  2.3471 -0.5606 -0.3867
  604MOL0     H83342   7.801  10.881   7.525 -0.9843  0.7639 -0.4225
  604MOL0     H83343   7.788  10.898   7.701  0.5301 -1.8045 -1.3647
  604MOL0     H83344   8.054  10.950   7.552 -2.8914  1.8594 -1.0339
  604MOL0     H83345   8.023  10.978   7.730  1.2020  0.4579 -0.3770
  604MOL0     H83346   7.971  10.757   7.766 -0.4167 -0.4368 -0.8284
  604MOL0     H83347   8.139  10.785   7.685  0.2871 -1.0624 -2.9648
  604MOL0     H83348   7.990  10.533   7.395  0.3169 -0.7958  0.8712
  604MOL0     H83349   7.690  11.047   7.846 -1.4172  1.3277  4.0128
  604MOL0     H83350   7.531  11.106   8.112 -0.8181  0.0787 -0.9775
  604MOL0     H83351   7.508  10.932   8.064  2.2804 -0.3702  2.3708
  604MOL0     H83352   7.660  11.003   8.036  0.7499  5.6965  0.0051
  605MOL0     O83353   3.831   1.281   8.253 -0.0616 -0.2453 -0.0147
  605MOL0     C83354   3.944   1.283   8.200 -1.2504 -0.3694 -0.6117
  605MOL0     O83355   4.057   1.334   8.269 -0.0031 -0.0695  0.1541
  605MOL0     C83356   4.047   1.325   8.406 -0.1678  0.3197 -0.8587
  605MOL0     C83357   4.045   1.447   8.471  0.4867 -0.4574 -0.8712
  605MOL0     C83358   4.019   1.455   8.611 -0.5828 -0.4527 -0.0965
  605MOL0     C83359   3.995   1.339   8.691  0.4585  1.3733  0.6408
  605MOL0     O83360   3.950   1.349   8.816  0.3179  0.4647 -0.0651
  605MOL0     C83361   4.038   1.400   8.915  1.4744 -0.8678 -0.4756
  605MOL0     C83362   4.148   1.321   8.975  0.2130  0.0741  0.2549
  605MOL0     C83363   4.192   1.398   9.104 -0.0776 -0.3364  0.1647
  605MOL0     C83364   4.252   1.310   9.223 -1.0055  0.0855 -0.9890
  605MOL0     C83365   4.310   1.421   9.336  1.4117  0.7675  0.2644
  605MOL0     C83366   4.452   1.480   9.313 -0.6453  0.0484  0.4572
  605MOL0     C83367   4.561   1.377   9.297  0.4181  0.9620 -0.4918
  605MOL0     C83368   4.583   1.297   9.425 -0.0013  0.1960 -0.2221
  605MOL0     N83369   4.701   1.207   9.413  1.0467  0.0697 -1.2103
  605MOL0     C83370   4.702   1.104   9.329 -1.1058  0.1001 -0.2566
  605MOL0     C83371   4.836   1.074   9.315  0.0215 -0.2956 -0.6870
  605MOL0     C83372   4.898   0.980   9.213 -0.3856  0.1619 -0.4430
  605MOL0     C83373   4.816   0.848   9.204  0.4956 -0.0428  0.3404
  605MOL0     C83374   4.880   0.729   9.125 -0.4223 -0.0332 -0.0056
  605MOL0     C83375   4.829   0.592   9.142 -0.6006 -0.5516 -0.2271
  605MOL0     O83376   4.716   0.560   9.071  0.8284  0.3989 -0.3317
  605MOL0     C83377   4.670   0.426   9.064 -0.8180 -0.3207 -0.4359
  605MOL0     C83378   4.715   0.327   9.146  0.2592 -0.5232 -0.0858
  605MOL0     C83379   4.683   0.190   9.122  0.0221 -0.2604 -0.1773
  605MOL0     C83380   4.762   0.100   9.210 -0.2634 -0.2076 -0.3921
  605MOL0     C83381   4.601   0.148   9.023 -0.5949  0.2069  0.4877
  605MOL0     C83382   4.571   0.011   8.980 -0.0911  0.8426  0.2279
  605MOL0     O83383   4.489  -0.001   8.873 -0.2919  0.1512  0.3029
  605MOL0     C83384   4.460  -0.121   8.824  1.1033  0.6137  1.1510
  605MOL0     C83385   4.382  -0.203   8.903  0.7194  0.1951  0.7581
  605MOL0     C83386   4.334  -0.321   8.842 -0.0272  0.1045  0.2909
  605MOL0     C83387   4.360  -0.362   8.710 -0.2344 -0.2229  0.3081
  605MOL0     O83388   4.286  -0.446   8.628 -0.8757  0.1304 -0.2656
  605MOL0     C83389   4.150  -0.477   8.675  0.1708  0.9887  0.4512
  605MOL0     C83390   4.068  -0.591   8.598 -0.4498  0.2924  0.2814
  605MOL0     C83391   4.159  -0.715   8.587 -0.0521 -0.1265  0.5201
  605MOL0     C83392   4.104  -0.830   8.492 -0.2200 -0.3061 -0.3909
  605MOL0     C83393   3.955  -0.853   8.533  0.5645 -0.1300  0.0801
  605MOL0     C83394   3.893  -0.984   8.494  0.1303  0.0090 -1.4515
  605MOL0     C83395   3.856  -0.970   8.337 -0.1819  0.7880  0.2331
  605MOL0     C83396   3.761  -1.085   8.306  0.6609  0.6714 -0.1177
  605MOL0    Cl83397   3.582  -1.059   8.339  0.0296  0.3833  0.4480
  605MOL0     C83398   4.452  -0.282   8.638  0.2417 -0.7554 -0.8301
  605MOL0     C83399   4.498  -0.161   8.690 -0.5104 -0.5626  0.1748
  605MOL0     O83400   4.617  -0.090   9.052  0.3077 -0.7988  1.1768
  605MOL0     C83401   4.538   0.253   8.954  0.6730 -0.0751  0.4560
  605MOL0     C83402   4.574   0.392   8.975 -1.1730 -0.5314  0.5594
  605MOL0     N83403   4.910   1.170   9.383  0.8204  0.2961 -0.0399
  605MOL0     N83404   4.831   1.246   9.438 -0.1269 -0.4520 -0.2277
  605MOL0     C83405   3.989   1.215   8.620  0.6345 -0.6389  0.2934
  605MOL0     C83406   4.017   1.208   8.484  0.3906 -0.1769  0.0093
  605MOL0     C83407   3.955   1.243   8.053  0.4459  0.2406  0.0949
  605MOL0     C83408   4.068   1.283   7.978 -0.9234  0.1295 -0.8853
  605MOL0     C83409   4.088   1.263   7.844  0.3821 -0.3163 -0.4903
  605MOL0     C83410   4.009   1.174   7.778  0.3146 -0.0558 -0.2622
  605MOL0     O83411   4.019   1.125   7.649 -0.6634  0.2782 -0.9985
  605MOL0     C83412   4.064   1.222   7.553 -0.3214  1.4418  0.3056
  605MOL0     C83413   4.220   1.211   7.531  0.0352  0.0972  0.3685
  605MOL0     C83414   4.262   1.242   7.380 -0.7223 -0.2361  0.1597
  605MOL0     C83415   4.224   1.385   7.346 -0.2438 -0.9266  0.5873
  605MOL0     C83416   4.322   1.468   7.278 -0.3238 -0.3642 -0.1229
  605MOL0     C83417   4.420   1.516   7.224  0.2864 -1.1026  0.4708
  605MOL0     C83418   3.905   1.123   7.849 -0.9696 -0.5949 -1.0538
  605MOL0     C83419   3.874   1.151   7.985 -0.4784  0.0277 -0.2987
  605MOL0     C83420   3.757   1.088   8.053  0.6368  0.1139 -0.3043
  605MOL0     H83421   4.037   1.540   8.415 -2.7559 -0.4701 -0.6005
  605MOL0     H83422   4.028   1.546   8.668  2.8667  0.5855 -2.0339
  605MOL0     H83423   3.972   1.441   8.992  0.4169 -1.7357 -0.8786
  605MOL0     H83424   4.088   1.493   8.887 -2.1067  1.4819  0.2257
  605MOL0     H83425   4.094   1.230   9.005  1.2122 -0.1103  1.5818
  605MOL0     H83426   4.228   1.307   8.903  0.3109  5.3335 -1.1243
  605MOL0     H83427   4.271   1.468   9.075 -0.3218 -0.2951 -0.4204
  605MOL0     H83428   4.117   1.468   9.143  3.8797  4.3274  0.3493
  605MOL0     H83429   4.161   1.266   9.267 -0.9032  0.0377 -0.8246
  605MOL0     H83430   4.329   1.239   9.191  0.4207 -0.5121  3.1534
  605MOL0     H83431   4.307   1.371   9.434  1.5771 -1.3842 -0.7784
  605MOL0     H83432   4.249   1.511   9.352  2.0983  1.3186 -0.1665
  605MOL0     H83433   4.435   1.542   9.225  0.0578 -1.8398 -1.0665
  605MOL0     H83434   4.488   1.547   9.391  1.5412  1.2529 -1.4656
  605MOL0     H83435   4.651   1.436   9.280  1.2746 -0.2427 -0.2247
  605MOL0     H83436   4.539   1.321   9.206  0.8362 -0.3401  0.1917
  605MOL0     H83437   4.596   1.369   9.506  0.7413 -2.2132  1.9665
  605MOL0     H83438   4.503   1.233   9.463  2.4146 -3.4980 -0.7986
  605MOL0     H83439   4.618   1.065   9.272 -1.4183 -4.7228  2.9488
  605MOL0     H83440   4.999   0.966   9.253 -0.8584 -3.2417 -0.1449
  605MOL0     H83441   4.911   1.026   9.114 -1.3641 -1.6513 -1.4724
  605MOL0     H83442   4.814   0.817   9.309  2.9568 -0.0740  0.4315
  605MOL0     H83443   4.712   0.861   9.173  0.2048 -1.8797  0.4776
  605MOL0     H83444   4.880   0.762   9.021  0.9313 -3.9021 -1.4132
  605MOL0     H83445   4.986   0.721   9.152 -0.4746 -1.5794 -0.1832
  605MOL0     H83446   4.908   0.526   9.107  1.1156  1.8461 -1.1675
  605MOL0     H83447   4.815   0.580   9.250  2.0195 -1.1473  0.1035
  605MOL0     H83448   4.764   0.360   9.236  0.2392  0.2892 -0.3624
  605MOL0     H83449   4.804   0.014   9.158  3.0945  0.8206  0.3544
  605MOL0     H83450   4.699   0.065   9.293 -2.0734 -0.8990 -1.9990
  605MOL0     H83451   4.845   0.155   9.256  0.2595 -0.5634 -0.9060
  605MOL0     H83452   4.352  -0.184   9.006  1.3766 -0.3614  1.0544
  605MOL0     H83453   4.268  -0.378   8.907 -1.3871 -0.6141 -1.6356
  605MOL0     H83454   4.161  -0.517   8.776  0.5368 -1.3820 -0.4559
  605MOL0     H83455   4.095  -0.383   8.664  0.4406  0.9323 -1.8946
  605MOL0     H83456   3.977  -0.614   8.654  0.5566  0.0818  1.8975
  605MOL0     H83457   4.047  -0.549   8.500  0.5566 -1.1577 -0.5989
  605MOL0     H83458   4.179  -0.762   8.683  0.5504 -0.9509  0.0012
  605MOL0     H83459   4.258  -0.694   8.545  0.1273  3.7257  2.4442
  605MOL0     H83460   4.167  -0.918   8.503  0.7412  0.0791 -2.4898
  605MOL0     H83461   4.109  -0.794   8.389 -0.1304 -0.8249 -0.5685
  605MOL0     H83462   3.937  -0.829   8.638  0.0524  1.9838 -0.4371
  605MOL0     H83463   3.885  -0.781   8.488  0.8260 -0.6727 -1.2501
  605MOL0     H83464   3.803  -1.005   8.551 -0.0068 -0.2684 -1.7676
  605MOL0     H83465   3.954  -1.073   8.511  0.1297  0.2555 -0.0089
  605MOL0     H83466   3.952  -0.991   8.289  0.9854 -0.0651  2.7538
  605MOL0     H83467   3.811  -0.875   8.307 -0.5408  0.0166 -1.7845
  605MOL0     H83468   3.782  -1.166   8.376  0.6324  2.1707  1.7107
  605MOL0     H83469   3.773  -1.106   8.199  1.3498 -1.8914  0.3814
  605MOL0     H83470   4.469  -0.310   8.534  1.2897 -0.8227 -0.6518
  605MOL0     H83471   4.539  -0.088   8.620 -0.7042  0.7092  1.3391
  605MOL0     H83472   4.456   0.230   8.886  0.0496  1.3853  0.6780
  605MOL0     H83473   4.518   0.468   8.922  0.0384  0.3583  0.5219
  605MOL0     H83474   3.984   1.119   8.670  0.4337 -0.8651 -0.1546
  605MOL0     H83475   4.021   1.122   8.419 -1.0561 -1.0390  0.9964
  605MOL0     H83476   4.144   1.350   8.016 -1.8698  1.6892 -1.6502
  605MOL0     H83477   4.174   1.306   7.793  1.5749 -2.7867 -0.7247
  605MOL0     H83478   4.013   1.187   7.463 -1.0325  1.5649  0.6578
  605MOL0     H83479   4.027   1.323   7.572  0.2885  1.2043  3.2434
  605MOL0     H83480   4.255   1.108   7.544  0.9117  0.5099  1.4150
  605MOL0     H83481   4.269   1.273   7.606  1.5261 -2.2313  1.4265
  605MOL0     H83482   4.369   1.225   7.370 -0.7178  0.2663 -0.7888
  605MOL0     H83483   4.200   1.187   7.309  0.1007  3.8484 -4.2976
  605MOL0     H83484   4.204   1.441   7.438  0.4130  1.0507 -0.4206
  605MOL0     H83485   4.134   1.366   7.286  0.6244  1.0515 -1.5076
  605MOL0     H83486   4.513   1.558   7.188 -0.4228  0.8076  0.7376
  605MOL0     H83487   3.838   1.059   7.793 -1.2767 -0.2425 -1.0881
  605MOL0     H83488   3.784   1.027   8.140  0.6761 -0.0603 -0.4373
  605MOL0     H83489   3.688   1.167   8.082  1.6927  0.2532  2.0459
  605MOL0     H83490   3.717   1.027   7.972 -0.7979 -1.2555  1.3522
  606MOL0     O83491   0.168   8.992   2.462 -0.5736 -0.2149  0.3461
  606MOL0     C83492   0.075   9.030   2.526  0.7894 -0.3784 -0.2973
  606MOL0     O83493  -0.037   8.950   2.554 -0.2101  0.5634 -0.5105
  606MOL0     C83494  -0.058   8.836   2.483 -0.7003 -0.1926 -0.6622
  606MOL0     C83495  -0.110   8.846   2.360  0.1981  0.2871 -0.4527
  606MOL0     C83496  -0.153   8.742   2.295  0.7260  0.2350  0.5131
  606MOL0     C83497  -0.147   8.605   2.347  0.9709  0.2722 -0.7860
  606MOL0     O83498  -0.197   8.492   2.286 -0.6784  0.0444  0.0469
  606MOL0     C83499  -0.262   8.501   2.156  0.1345  0.3346  0.1058
  606MOL0     C83500  -0.311   8.368   2.089 -1.1338  0.4503 -0.7175
  606MOL0     C83501  -0.381   8.413   1.962  0.8310  0.4350  0.4464
  606MOL0     C83502  -0.444   8.286   1.896 -0.1508  0.2531  0.0536
  606MOL0     C83503  -0.529   8.318   1.768  0.0509 -0.2004  0.3736
  606MOL0     C83504  -0.559   8.174   1.717 -0.1787 -0.0946  0.6455
  606MOL0     C83505  -0.655   8.187   1.592 -0.0823  0.3251 -0.4146
  606MOL0     C83506  -0.693   8.055   1.533 -0.9771 -0.0192  0.7060
  606MOL0     N83507  -0.822   8.056   1.456 -0.0785 -0.2661  0.5753
  606MOL0     C83508  -0.944   8.090   1.507 -0.8611  0.2494  0.4352
  606MOL0     C83509  -1.026   8.088   1.401 -0.3845 -0.1362  0.1849
  606MOL0     C83510  -1.162   8.144   1.391  0.9769  0.1239  0.4551
  606MOL0     C83511  -1.246   8.145   1.522 -0.6348 -0.2954  0.7398
  606MOL0     C83512  -1.217   8.260   1.618  0.0637 -0.2092 -0.7196
  606MOL0     C83513  -1.230   8.220   1.765 -0.1753  0.4588  0.0437
  606MOL0     O83514  -1.111   8.144   1.797  0.2558 -0.2366  1.6341
  606MOL0     C83515  -1.075   8.192   1.923  0.6667  0.5242  0.7561
  606MOL0     C83516  -0.952   8.250   1.943  0.6463 -0.5915  1.3261
  606MOL0     C83517  -0.899   8.285   2.070  0.7043 -0.0465  0.0321
  606MOL0     C83518  -0.770   8.363   2.083  0.3386 -0.1270  1.2236
  606MOL0     C83519  -0.975   8.270   2.188  1.2655 -0.4181  0.3131
  606MOL0     C83520  -0.955   8.348   2.316 -0.7614 -0.7498 -0.1938
  606MOL0     O83521  -0.865   8.455   2.335 -1.5315 -0.4649  0.3122
  606MOL0     C83522  -0.856   8.506   2.463  0.2126  0.1858  1.1053
  606MOL0     C83523  -0.927   8.618   2.484 -0.1897  0.3644 -0.4884
  606MOL0     C83524  -0.932   8.670   2.612 -0.0325 -0.5724  0.1059
  606MOL0     C83525  -0.878   8.602   2.724  0.2533  0.2943 -1.4753
  606MOL0     O83526  -0.906   8.645   2.857 -0.2056  0.6976  0.4377
  606MOL0     C83527  -1.024   8.727   2.871  0.5138 -0.4825  0.2255
  606MOL0     C83528  -1.071   8.734   3.021 -1.0472  1.1661  0.8599
  606MOL0     C83529  -1.187   8.834   3.028  0.2174 -0.1850 -0.4984
  606MOL0     C83530  -1.253   8.838   3.164  0.4419 -0.5294  0.8018
  606MOL0     C83531  -1.154   8.852   3.280 -0.2475  0.1096  0.8309
  606MOL0     C83532  -1.216   8.864   3.421 -0.3374  0.9514  0.2234
  606MOL0     C83533  -1.298   8.740   3.468  0.0996 -0.2788  0.5951
  606MOL0     C83534  -1.322   8.755   3.618  0.0446  0.9672 -1.1152
  606MOL0    Cl83535  -1.451   8.870   3.659  0.2060  0.1367  0.0531
  606MOL0     C83536  -0.797   8.494   2.695  0.3225  0.3383 -0.4586
  606MOL0     C83537  -0.785   8.446   2.569  0.0002  0.5090  0.4306
  606MOL0     O83538  -1.030   8.311   2.406  1.1323 -0.1441  0.5523
  606MOL0     C83539  -1.095   8.197   2.164  0.8040 -0.0902  0.0015
  606MOL0     C83540  -1.150   8.168   2.034 -0.2318 -0.0810  0.4441
  606MOL0     N83541  -0.951   8.058   1.289  0.3416  0.0129 -0.8573
  606MOL0     N83542  -0.831   8.035   1.329  0.1119  0.3047  1.1001
  606MOL0     C83543  -0.096   8.598   2.480 -1.0977 -0.5977 -0.0624
  606MOL0     C83544  -0.052   8.711   2.542 -0.2626 -0.2563 -0.4739
  606MOL0     C83545   0.082   9.172   2.570 -0.5033 -0.3592  0.3544
  606MOL0     C83546   0.211   9.244   2.571  1.2886  0.2371  0.3826
  606MOL0     C83547   0.217   9.368   2.618 -0.0481 -0.4661  0.2531
  606MOL0     C83548   0.107   9.439   2.659 -0.2167 -0.5614 -1.5337
  606MOL0     O83549   0.111   9.570   2.712  0.0125  0.3496  0.9545
  606MOL0     C83550   0.249   9.623   2.734  0.4791  0.5270 -0.6272
  606MOL0     C83551   0.253   9.770   2.787  0.3567  0.9085 -0.0214
  606MOL0     C83552   0.136   9.814   2.877 -0.1398 -0.6629 -0.1489
  606MOL0     C83553   0.160   9.962   2.922  0.2461  0.4256  0.1793
  606MOL0     C83554   0.086   9.985   3.054 -1.6448 -0.3930  0.8220
  606MOL0     C83555   0.047  10.018   3.158 -1.1782 -1.0138  0.3743
  606MOL0     C83556  -0.014   9.364   2.669  0.4226  0.0702 -0.1299
  606MOL0     C83557  -0.031   9.236   2.625  0.0471  0.3132  0.7300
  606MOL0     C83558  -0.166   9.175   2.616  0.3695 -0.0083 -1.0847
  606MOL0     H83559  -0.116   8.942   2.310  2.0862 -0.3158 -1.9394
  606MOL0     H83560  -0.191   8.773   2.198  0.6727  1.1880  0.8336
  606MOL0     H83561  -0.184   8.541   2.090  1.0791  0.3901  1.2270
  606MOL0     H83562  -0.343   8.573   2.173 -0.1223 -0.0937  0.7394
  606MOL0     H83563  -0.224   8.303   2.075  1.2555  1.7137  5.1317
  606MOL0     H83564  -0.369   8.308   2.159  0.5602 -0.2230  0.1574
  606MOL0     H83565  -0.455   8.487   1.993  0.2530 -0.6013  1.6301
  606MOL0     H83566  -0.321   8.464   1.886  0.7294 -0.4608 -0.2516
  606MOL0     H83567  -0.364   8.222   1.856  0.0755  1.0228 -0.7596
  606MOL0     H83568  -0.504   8.230   1.969  0.2683 -0.5109 -0.1706
  606MOL0     H83569  -0.468   8.374   1.697  0.2701 -1.5957 -0.5686
  606MOL0     H83570  -0.623   8.372   1.785  0.2320  0.3091 -0.2222
  606MOL0     H83571  -0.465   8.124   1.689 -0.7404 -0.7205 -0.1519
  606MOL0     H83572  -0.607   8.122   1.800 -0.3211 -0.6616  0.2155
  606MOL0     H83573  -0.613   8.252   1.514  2.0754  0.6423  0.9080
  606MOL0     H83574  -0.749   8.228   1.628 -0.0164  0.1849 -0.0814
  606MOL0     H83575  -0.608   8.028   1.469 -0.3506 -0.6296  1.7810
  606MOL0     H83576  -0.707   7.974   1.605  1.6673 -0.2841  1.0252
  606MOL0     H83577  -0.967   8.114   1.611 -0.6035 -1.5756  0.9510
  606MOL0     H83578  -1.209   8.062   1.338 -1.9491  1.1385  1.2931
  606MOL0     H83579  -1.170   8.239   1.338 -1.9959 -0.7048 -0.7730
  606MOL0     H83580  -1.349   8.146   1.486  0.2406 -0.4125 -2.0166
  606MOL0     H83581  -1.228   8.051   1.575 -2.0990 -0.6028  0.7266
  606MOL0     H83582  -1.116   8.299   1.608 -0.3526  2.3200  2.8810
  606MOL0     H83583  -1.288   8.342   1.605 -2.2235 -2.0327 -0.5533
  606MOL0     H83584  -1.253   8.308   1.826 -1.3832 -0.9835  1.7819
  606MOL0     H83585  -1.316   8.152   1.770  0.3514 -0.1809  0.7813
  606MOL0     H83586  -0.899   8.287   1.856 -2.3787  0.8883 -0.0268
  606MOL0     H83587  -0.709   8.338   2.170 -0.0541 -0.1012  1.5077
  606MOL0     H83588  -0.790   8.470   2.096 -3.0169 -0.6672  1.4605
  606MOL0     H83589  -0.712   8.351   1.991 -3.6420  0.0876 -1.6141
  606MOL0     H83590  -0.984   8.672   2.408 -0.3031 -1.0304 -1.4334
  606MOL0     H83591  -0.985   8.761   2.633 -1.5743 -2.3859  5.5439
  606MOL0     H83592  -0.991   8.826   2.838 -4.5402  1.4170 -0.0782
  606MOL0     H83593  -1.106   8.696   2.805 -1.9811 -0.9573  3.3027
  606MOL0     H83594  -1.116   8.638   3.049 -2.9202  1.7173 -0.0870
  606MOL0     H83595  -0.983   8.744   3.084  1.5949  1.1490 -2.5343
  606MOL0     H83596  -1.268   8.819   2.957 -1.9263  2.6899  1.1239
  606MOL0     H83597  -1.131   8.925   3.005 -2.3427  1.1977 -1.6649
  606MOL0     H83598  -1.308   8.744   3.174  0.4405 -0.4783  1.3240
  606MOL0     H83599  -1.322   8.922   3.170 -1.5838 -2.1990  2.4395
  606MOL0     H83600  -1.093   8.761   3.277  0.3314  0.4440  2.0828
  606MOL0     H83601  -1.091   8.940   3.260  0.4302 -1.1948 -4.3364
  606MOL0     H83602  -1.294   8.940   3.433 -0.6450  0.5938  0.4984
  606MOL0     H83603  -1.135   8.872   3.494  0.0508  2.2529 -0.3256
  606MOL0     H83604  -1.255   8.643   3.440  0.6575 -0.0010  0.4779
  606MOL0     H83605  -1.392   8.749   3.413 -1.3649  0.4914  3.1027
  606MOL0     H83606  -1.228   8.781   3.667 -0.2346  0.0027 -0.0126
  606MOL0     H83607  -1.356   8.654   3.642  0.6538  1.1681  0.7433
  606MOL0     H83608  -0.766   8.425   2.773 -4.0104 -2.1538 -0.5871
  606MOL0     H83609  -0.727   8.358   2.543  1.3773  1.3054  0.7022
  606MOL0     H83610  -1.169   8.186   2.243 -2.8435  0.4243 -3.0663
  606MOL0     H83611  -1.250   8.126   2.024 -0.4658  0.1651  1.5589
  606MOL0     H83612  -0.109   8.506   2.535 -2.5107  0.6732  1.8546
  606MOL0     H83613  -0.031   8.689   2.646  1.6632  0.0309 -0.7568
  606MOL0     H83614   0.303   9.201   2.533  0.9846 -1.3098  1.2995
  606MOL0     H83615   0.321   9.399   2.609  0.0785 -1.4119 -2.1428
  606MOL0     H83616   0.304   9.552   2.796 -0.9872 -0.7139 -0.6807
  606MOL0     H83617   0.305   9.622   2.641 -1.6748  0.1842 -1.9943
  606MOL0     H83618   0.257   9.833   2.697  5.9068  1.8583  0.5150
  606MOL0     H83619   0.347   9.780   2.844  1.4815 -3.7622 -0.7073
  606MOL0     H83620   0.037   9.795   2.835 -0.3318  1.0961 -0.5999
  606MOL0     H83621   0.136   9.740   2.957 -4.3125 -0.7008  0.0163
  606MOL0     H83622   0.121  10.024   2.841  1.0310  0.7676  0.0481
  606MOL0     H83623   0.266   9.986   2.935  0.0555  0.5501  1.6164
  606MOL0     H83624   0.010  10.058   3.250 -0.0642 -1.6349  1.1195
  606MOL0     H83625  -0.099   9.422   2.704  0.1810 -0.2543 -0.1655
  606MOL0     H83626  -0.181   9.154   2.510  0.4327 -2.5990 -0.6479
  606MOL0     H83627  -0.190   9.083   2.670  1.9034 -2.0948 -3.6951
  606MOL0     H83628  -0.243   9.251   2.627 -3.0300 -3.3273  0.4801
  607MOL0     O83629   3.075   4.788   2.912 -0.1984  0.6296 -0.2640
  607MOL0     C83630   3.081   4.907   2.939  0.3697 -0.3535 -0.2919
  607MOL0     O83631   2.994   4.977   3.019 -0.8413  0.1065 -0.0383
  607MOL0     C83632   2.872   4.927   3.036 -0.5703 -0.7742  0.4499
  607MOL0     C83633   2.829   4.928   3.166 -0.1039  0.7600 -1.2184
  607MOL0     C83634   2.702   4.863   3.183  1.2503 -0.2136 -0.6999
  607MOL0     C83635   2.626   4.816   3.077 -0.0276  0.1955 -0.2513
  607MOL0     O83636   2.497   4.770   3.103 -0.7397  0.2971  0.0389
  607MOL0     C83637   2.474   4.630   3.074  0.1652  0.1160  0.2001
  607MOL0     C83638   2.534   4.522   3.168  0.3868  0.2266  0.6848
  607MOL0     C83639   2.694   4.498   3.157 -0.2526 -0.4843 -0.9420
  607MOL0     C83640   2.745   4.442   3.024  0.3002 -0.0569 -0.6632
  607MOL0     C83641   2.892   4.465   2.999  0.4139 -0.1108 -0.1836
  607MOL0     C83642   2.915   4.428   2.860 -0.0264  0.5772  0.2550
  607MOL0     C83643   3.062   4.422   2.820 -0.3944  0.3495 -0.8632
  607MOL0     C83644   3.146   4.321   2.894  0.1046 -0.3488 -0.5350
  607MOL0     N83645   3.288   4.328   2.871 -0.3483  0.3190  1.0547
  607MOL0     C83646   3.352   4.266   2.767 -0.0310 -0.0822  0.2671
  607MOL0     C83647   3.463   4.328   2.749 -1.6073  0.0188 -1.3563
  607MOL0     C83648   3.555   4.298   2.644 -0.3070 -0.1863 -0.0580
  607MOL0     C83649   3.503   4.355   2.503 -0.7379  0.9922 -0.9773
  607MOL0     C83650   3.496   4.509   2.519 -0.1488  0.4339 -0.2431
  607MOL0     C83651   3.417   4.558   2.395 -0.0793 -0.3595 -0.4865
  607MOL0     O83652   3.413   4.704   2.362 -0.0888  0.6320 -0.0164
  607MOL0     C83653   3.306   4.748   2.299  0.3524 -0.6096  1.3742
  607MOL0     C83654   3.260   4.680   2.183 -0.3129  0.5192 -0.7774
  607MOL0     C83655   3.147   4.723   2.113 -1.5690 -0.1538 -0.6854
  607MOL0     C83656   3.111   4.642   1.989  0.3251  0.0057  0.2732
  607MOL0     C83657   3.079   4.841   2.167 -0.2785  1.1800  0.6510
  607MOL0     C83658   2.955   4.889   2.104  0.3145 -0.1008  1.2390
  607MOL0     O83659   2.929   5.024   2.124  0.3628 -0.3935  0.7482
  607MOL0     C83660   2.799   5.072   2.103  0.4861  0.6917  1.0722
  607MOL0     C83661   2.766   5.125   1.983  0.1512 -0.7573 -1.2624
  607MOL0     C83662   2.628   5.154   1.953  0.2203 -0.0579  0.2914
  607MOL0     C83663   2.539   5.148   2.059  0.3508 -0.6347  0.1077
  607MOL0     O83664   2.408   5.182   2.044  0.5016  0.8239 -0.2162
  607MOL0     C83665   2.320   5.105   1.951 -0.0565  0.3856 -1.1291
  607MOL0     C83666   2.176   5.158   1.950  0.3818  0.2938  0.1540
  607MOL0     C83667   2.154   5.303   1.984  0.1596 -0.3209 -0.7651
  607MOL0     C83668   2.170   5.401   1.862 -0.1319  0.8733  0.1168
  607MOL0     C83669   2.061   5.383   1.751  0.3006 -0.7951  0.3167
  607MOL0     C83670   2.129   5.479   1.641  0.2121  0.2756  0.7054
  607MOL0     C83671   2.053   5.465   1.503 -0.3682  0.8925 -0.2039
  607MOL0     C83672   2.126   5.532   1.380  0.4119  0.0354  0.6672
  607MOL0    Cl83673   2.118   5.708   1.400  0.4911 -0.4566  0.1067
  607MOL0     C83674   2.581   5.109   2.184  0.2303 -0.1237 -0.0983
  607MOL0     C83675   2.705   5.065   2.204 -0.6703  0.0183  0.1808
  607MOL0     O83676   2.888   4.811   2.041 -0.3190 -0.3170  0.4398
  607MOL0     C83677   3.140   4.919   2.264  0.4405  0.5319 -0.1560
  607MOL0     C83678   3.254   4.871   2.336 -0.3561  0.2402  0.2695
  607MOL0     N83679   3.473   4.432   2.838  0.5311 -0.0808 -0.0736
  607MOL0     N83680   3.366   4.426   2.915  0.0061 -0.9889 -0.0898
  607MOL0     C83681   2.668   4.841   2.940 -0.7270 -0.0862 -0.7923
  607MOL0     C83682   2.798   4.883   2.925  0.1171  0.2598  0.1541
  607MOL0     C83683   3.210   4.973   2.892  0.4159  0.2358 -0.7822
  607MOL0     C83684   3.222   5.119   2.906 -0.0161 -0.1361  0.9369
  607MOL0     C83685   3.328   5.190   2.851 -0.1416  0.5332 -0.5615
  607MOL0     C83686   3.434   5.116   2.795  0.7810  0.1683  0.9346
  607MOL0     O83687   3.556   5.171   2.761  0.5342 -0.0250 -0.0730
  607MOL0     C83688   3.576   5.304   2.773 -0.0758  0.4534 -0.5697
  607MOL0     C83689   3.707   5.333   2.701 -0.5994 -0.2834 -0.3503
  607MOL0     C83690   3.742   5.482   2.697  0.3375 -0.4763 -0.2157
  607MOL0     C83691   3.878   5.498   2.640  0.9891  0.4318  0.3892
  607MOL0     C83692   3.885   5.638   2.619  0.2326  0.2505  0.0904
  607MOL0     C83693   3.906   5.762   2.608 -0.3219  0.0745 -0.0417
  607MOL0     C83694   3.426   4.977   2.787 -0.7475 -0.4610  0.6402
  607MOL0     C83695   3.312   4.906   2.819  0.0199  0.6738 -0.3518
  607MOL0     C83696   3.320   4.757   2.775  0.0098  0.4947 -0.7549
  607MOL0     H83697   2.897   4.949   3.248  0.4961 -2.4710 -0.7837
  607MOL0     H83698   2.665   4.851   3.284 -0.7761  1.3000 -1.1945
  607MOL0     H83699   2.504   4.602   2.973 -0.1557 -1.8650  0.6195
  607MOL0     H83700   2.365   4.627   3.082  0.2903 -1.8590  1.9164
  607MOL0     H83701   2.525   4.562   3.270 -1.0601 -0.4562  0.8544
  607MOL0     H83702   2.482   4.427   3.151  0.8388  0.2628 -1.0672
  607MOL0     H83703   2.738   4.595   3.181 -2.2450  0.0522  0.8424
  607MOL0     H83704   2.718   4.435   3.243 -2.1267  0.7246  0.5621
  607MOL0     H83705   2.730   4.334   3.025  0.6444 -0.1860  2.9446
  607MOL0     H83706   2.684   4.485   2.944 -1.7442 -1.4063  0.0830
  607MOL0     H83707   2.949   4.394   3.060  1.0958 -0.3811 -1.1096
  607MOL0     H83708   2.922   4.568   3.016 -0.5764 -0.2746  3.3445
  607MOL0     H83709   2.873   4.328   2.845 -0.9040  1.1023 -1.0336
  607MOL0     H83710   2.863   4.496   2.791  1.1282  2.6665  1.3325
  607MOL0     H83711   3.102   4.520   2.845  0.9827 -0.6839  1.3512
  607MOL0     H83712   3.072   4.404   2.712  1.6905  2.0815 -1.0292
  607MOL0     H83713   3.124   4.322   3.002 -2.6745  0.5755 -1.0388
  607MOL0     H83714   3.113   4.219   2.872  1.7838 -1.9659  3.3843
  607MOL0     H83715   3.318   4.177   2.717 -1.6028 -0.8651  2.5608
  607MOL0     H83716   3.579   4.191   2.638  1.0430  0.1436 -1.0486
  607MOL0     H83717   3.653   4.346   2.654 -1.1446  1.6996 -0.4761
  607MOL0     H83718   3.569   4.329   2.420  4.0709 -1.5510  3.0727
  607MOL0     H83719   3.404   4.310   2.494 -1.0854  1.2247  1.0746
  607MOL0     H83720   3.442   4.547   2.606  0.0183  5.4642 -2.0178
  607MOL0     H83721   3.595   4.555   2.526 -0.6390  1.3506  0.8609
  607MOL0     H83722   3.448   4.494   2.312 -0.3154 -1.9329  0.6020
  607MOL0     H83723   3.315   4.521   2.410 -0.3574  0.9937  1.2973
  607MOL0     H83724   3.300   4.584   2.153  0.0648 -1.0607  3.9757
  607MOL0     H83725   3.029   4.572   2.002  0.1334 -0.6836 -3.4103
  607MOL0     H83726   3.204   4.600   1.950  0.8292 -0.4373  1.9151
  607MOL0     H83727   3.080   4.711   1.909 -0.2159 -1.5323 -0.8949
  607MOL0     H83728   2.847   5.134   1.910  2.6356  0.9525  1.4589
  607MOL0     H83729   2.616   5.202   1.856 -0.3224 -2.0790 -0.6950
  607MOL0     H83730   2.361   5.113   1.850  0.6068 -1.2675 -1.0120
  607MOL0     H83731   2.317   4.998   1.971 -1.4548  0.8029  1.3871
  607MOL0     H83732   2.123   5.135   1.857 -0.1829 -0.6048  0.6810
  607MOL0     H83733   2.131   5.113   2.039  0.2776  2.7593  1.4240
  607MOL0     H83734   2.229   5.312   2.063  0.2581 -3.1965 -0.4276
  607MOL0     H83735   2.054   5.319   2.024  0.3300  0.8562 -0.7600
  607MOL0     H83736   2.267   5.395   1.813  0.1993  2.7329  0.4729
  607MOL0     H83737   2.151   5.497   1.910 -1.9304  0.4103  0.4000
  607MOL0     H83738   2.052   5.280   1.718 -2.7280 -0.6407  0.3654
  607MOL0     H83739   1.960   5.418   1.775  0.8541  1.9033 -0.8159
  607MOL0     H83740   2.235   5.454   1.629  1.1588  3.3514  1.6351
  607MOL0     H83741   2.141   5.581   1.679 -1.8409  0.2811  1.4734
  607MOL0     H83742   1.956   5.513   1.518 -0.1361  0.8647  1.5324
  607MOL0     H83743   2.041   5.360   1.476 -1.5404  0.2915  2.3566
  607MOL0     H83744   2.072   5.504   1.289  0.9514  0.8394  0.0869
  607MOL0     H83745   2.224   5.487   1.365 -0.2897 -1.6846  1.0556
  607MOL0     H83746   2.509   5.131   2.262  0.5937  0.9118 -0.0341
  607MOL0     H83747   2.718   5.011   2.297 -1.1639 -2.0414 -0.8883
  607MOL0     H83748   3.089   5.007   2.302 -1.5329 -0.1071 -1.1624
  607MOL0     H83749   3.281   4.932   2.422 -0.2102  0.1281  0.3024
  607MOL0     H83750   2.621   4.817   2.845 -1.3230 -1.4567 -0.1817
  607MOL0     H83751   2.824   4.866   2.821 -4.3440 -0.7734 -1.0141
  607MOL0     H83752   3.135   5.168   2.947 -0.2363 -2.3870  3.4071
  607MOL0     H83753   3.314   5.298   2.846  1.3702  0.7850 -0.0216
  607MOL0     H83754   3.495   5.362   2.726 -4.5577 -2.3332  2.8637
  607MOL0     H83755   3.599   5.327   2.877 -0.3124 -3.6299  0.5550
  607MOL0     H83756   3.711   5.275   2.608  4.6127  1.8207 -1.8277
  607MOL0     H83757   3.791   5.287   2.755  1.6132  0.6268 -2.8294
  607MOL0     H83758   3.677   5.536   2.628  3.3828  2.9190 -0.7067
  607MOL0     H83759   3.743   5.538   2.791 -1.6295  0.2937 -0.5923
  607MOL0     H83760   3.901   5.446   2.547 -0.7115 -0.8661  0.6631
  607MOL0     H83761   3.944   5.457   2.717  1.4519 -2.3260 -1.3679
  607MOL0     H83762   3.932   5.866   2.611  1.4323 -0.2403 -2.4958
  607MOL0     H83763   3.520   4.939   2.747  1.0767  2.0599  2.2591
  607MOL0     H83764   3.250   4.734   2.694 -3.1890 -0.0551  1.9717
  607MOL0     H83765   3.418   4.735   2.732  0.2915 -0.2380  0.2281
  607MOL0     H83766   3.306   4.682   2.853 -3.1903 -2.3372 -3.6759
  608MOL0     O83767   6.762   5.425   8.741  0.3454  0.0215  0.2716
  608MOL0     C83768   6.666   5.496   8.709 -0.6984 -0.4739  0.4945
  608MOL0     O83769   6.550   5.518   8.786  0.8274 -0.1045  0.0760
  608MOL0     C83770   6.530   5.443   8.903 -0.0020  0.0293  0.7183
  608MOL0     C83771   6.557   5.309   8.921  0.9496 -0.8362  0.4407
  608MOL0     C83772   6.534   5.249   9.038 -0.3505  0.2143 -0.3548
  608MOL0     C83773   6.493   5.307   9.151  1.2085 -0.3064  0.1227
  608MOL0     O83774   6.477   5.244   9.272  0.7060 -0.0353 -0.5736
  608MOL0     C83775   6.597   5.181   9.327  0.7221 -0.1976 -0.1803
  608MOL0     C83776   6.560   5.093   9.449  0.8167 -0.5772  0.0921
  608MOL0     C83777   6.674   5.005   9.469 -0.0789  0.8404  0.1570
  608MOL0     C83778   6.681   4.971   9.614  0.7135  0.1797  0.1365
  608MOL0     C83779   6.764   4.847   9.627  0.7989  0.6897  0.3286
  608MOL0     C83780   6.723   4.771   9.758  0.0023 -0.1781  0.3813
  608MOL0     C83781   6.595   4.683   9.743  0.6765  0.9711 -0.2194
  608MOL0     C83782   6.613   4.546   9.812  0.3631  1.5629  0.2195
  608MOL0     N83783   6.491   4.463   9.815  0.1499  0.5686  1.4038
  608MOL0     C83784   6.368   4.516   9.820  0.1220 -1.4838  0.1959
  608MOL0     C83785   6.289   4.429   9.759 -0.8807 -0.8042  0.2078
  608MOL0     C83786   6.146   4.441   9.733 -0.2910  0.9689 -1.7560
  608MOL0     C83787   6.118   4.540   9.622  0.0974  0.5742  0.2803
  608MOL0     C83788   6.151   4.472   9.483 -0.1388  0.1067 -0.2486
  608MOL0     C83789   6.032   4.387   9.438  1.0423 -1.0381 -0.0851
  608MOL0     O83790   6.053   4.324   9.314  0.6987  0.5298  0.8211
  608MOL0     C83791   6.151   4.230   9.282 -0.8723  0.3996  0.2080
  608MOL0     C83792   6.207   4.161   9.384  0.1911  0.3377  1.3913
  608MOL0     C83793   6.318   4.068   9.366 -0.0195  0.3319 -0.2752
  608MOL0     C83794   6.396   4.015   9.490  0.7200  0.1230 -0.0125
  608MOL0     C83795   6.370   4.053   9.233  0.0609 -0.3774 -0.0896
  608MOL0     C83796   6.487   3.963   9.199 -1.0524  0.6531  0.0214
  608MOL0     O83797   6.565   4.010   9.090  0.2855 -0.2308 -0.9211
  608MOL0     C83798   6.644   3.926   9.017  0.3224  0.1125  0.9991
  608MOL0     C83799   6.697   3.973   8.893  0.6989 -0.1450  0.3919
  608MOL0     C83800   6.752   3.885   8.805  0.2025 -0.2843 -0.2559
  608MOL0     C83801   6.761   3.747   8.830  0.3180 -0.7141 -0.2340
  608MOL0     O83802   6.779   3.644   8.738  0.3645 -0.5098 -0.9631
  608MOL0     C83803   6.853   3.694   8.619 -0.1847  0.1950 -0.0133
  608MOL0     C83804   6.907   3.594   8.517  0.5338 -0.0148  0.0569
  608MOL0     C83805   6.878   3.634   8.372  0.2030  0.4122 -0.2348
  608MOL0     C83806   6.929   3.509   8.288  0.9028  0.0942 -0.2565
  608MOL0     C83807   6.893   3.512   8.135  0.9975 -0.5794 -0.2815
  608MOL0     C83808   6.905   3.391   8.050  1.2004 -0.0301  0.3954
  608MOL0     C83809   6.848   3.262   8.118  0.3012 -0.4374 -0.7528
  608MOL0     C83810   6.872   3.139   8.030  0.0542  0.8482 -0.0165
  608MOL0    Cl83811   6.779   3.137   7.873  0.3437 -0.2636 -0.0580
  608MOL0     C83812   6.712   3.702   8.952 -0.0271 -0.0691  0.9999
  608MOL0     C83813   6.659   3.791   9.043  0.0557 -0.5013 -0.5618
  608MOL0     O83814   6.518   3.871   9.278 -0.5115  0.3830  0.1867
  608MOL0     C83815   6.308   4.130   9.129  0.0216 -0.0369 -0.7472
  608MOL0     C83816   6.205   4.224   9.154  0.2377  0.2704 -0.2791
  608MOL0     N83817   6.359   4.318   9.717 -0.1876 -0.3737  0.1701
  608MOL0     N83818   6.481   4.339   9.753 -0.1953  0.2430  0.8990
  608MOL0     C83819   6.459   5.443   9.135  0.3895  0.1409  0.2699
  608MOL0     C83820   6.483   5.508   9.015 -0.6125 -0.3582 -0.4103
  608MOL0     C83821   6.682   5.585   8.594 -0.8603  0.5659  0.0825
  608MOL0     C83822   6.557   5.621   8.535  0.0332 -0.7829 -0.8186
  608MOL0     C83823   6.554   5.694   8.420 -0.6250  0.1222 -0.8012
  608MOL0     C83824   6.674   5.755   8.359 -0.2880  0.2355 -0.0178
  608MOL0     O83825   6.690   5.839   8.250  0.6193 -0.4010 -0.3758
  608MOL0     C83826   6.570   5.882   8.178  0.6453 -0.5365 -0.0464
  608MOL0     C83827   6.620   5.980   8.078  0.8196 -0.0442  0.4780
  608MOL0     C83828   6.702   6.094   8.122  0.2172 -0.1122 -0.5221
  608MOL0     C83829   6.847   6.074   8.093  0.6970  0.4881  0.3164
  608MOL0     C83830   6.914   6.202   8.105  0.5618  0.0502  0.4286
  608MOL0     C83831   6.968   6.308   8.137  0.3393 -0.4536 -1.4549
  608MOL0     C83832   6.790   5.718   8.428  0.6178 -0.2088  1.0779
  608MOL0     C83833   6.804   5.640   8.548  0.1268 -0.0245 -0.1472
  608MOL0     C83834   6.938   5.641   8.611  0.5394  0.1588 -0.2315
  608MOL0     H83835   6.575   5.240   8.839 -4.4222 -2.1642  0.0426
  608MOL0     H83836   6.547   5.142   9.032 -0.2561  0.1443  0.8470
  608MOL0     H83837   6.660   5.268   9.348 -2.0184  1.6899  0.8077
  608MOL0     H83838   6.649   5.123   9.250 -1.1472 -1.3644 -0.6350
  608MOL0     H83839   6.523   5.156   9.531  0.4488  0.5539 -0.9059
  608MOL0     H83840   6.482   5.026   9.413 -0.9970  1.2746  0.3770
  608MOL0     H83841   6.670   4.911   9.413  1.0727  0.0351  1.3475
  608MOL0     H83842   6.771   5.050   9.445  1.6071 -1.5224  1.9625
  608MOL0     H83843   6.718   5.051   9.678 -1.9071 -1.2176  3.7567
  608MOL0     H83844   6.581   4.948   9.652  1.5921 -3.4284  0.6720
  608MOL0     H83845   6.869   4.878   9.618  1.3171 -1.5309 -2.7813
  608MOL0     H83846   6.746   4.769   9.553 -2.8486 -2.4635  4.0195
  608MOL0     H83847   6.807   4.706   9.786 -1.6072 -1.4524  2.5731
  608MOL0     H83848   6.712   4.854   9.828 -0.0901 -1.0408  1.4085
  608MOL0     H83849   6.568   4.682   9.637  1.5707 -0.8749 -0.4728
  608MOL0     H83850   6.524   4.742   9.802  0.9631  0.5748  0.5287
  608MOL0     H83851   6.692   4.493   9.757 -1.3812  0.7531 -1.5995
  608MOL0     H83852   6.650   4.577   9.910  0.7049  2.4703 -0.1720
  608MOL0     H83853   6.342   4.617   9.848 -1.2470 -1.3493 -1.3654
  608MOL0     H83854   6.112   4.470   9.833  2.2398  2.3182 -1.2288
  608MOL0     H83855   6.097   4.344   9.718 -1.4057  1.4497 -1.3753
  608MOL0     H83856   6.014   4.575   9.625  0.6657  2.5935 -1.8159
  608MOL0     H83857   6.166   4.637   9.628 -1.9062  1.6328  0.2046
  608MOL0     H83858   6.182   4.550   9.412  0.3302 -1.7240 -2.1608
  608MOL0     H83859   6.237   4.404   9.496  1.2208  1.6654 -0.7084
  608MOL0     H83860   6.000   4.311   9.510 -0.1164 -0.2938  0.2169
  608MOL0     H83861   5.938   4.439   9.417  1.9418 -0.3602 -2.7278
  608MOL0     H83862   6.168   4.188   9.481 -2.1475  2.9305 -0.1382
  608MOL0     H83863   6.361   3.916   9.521 -0.1913  0.0991 -1.0448
  608MOL0     H83864   6.362   4.073   9.576 -1.2595 -2.7539  1.2939
  608MOL0     H83865   6.500   4.047   9.481  1.5132 -2.0697  0.7206
  608MOL0     H83866   6.689   4.080   8.874 -2.1622 -0.3213  0.2677
  608MOL0     H83867   6.780   3.928   8.709  0.0698  2.1281  0.7309
  608MOL0     H83868   6.797   3.767   8.559 -2.4619  0.4585  2.2576
  608MOL0     H83869   6.947   3.737   8.654  1.5120  0.7623 -4.5764
  608MOL0     H83870   7.015   3.580   8.528  0.2519 -0.7544  2.6156
  608MOL0     H83871   6.843   3.507   8.536 -1.1126  1.2127  0.4080
  608MOL0     H83872   6.930   3.725   8.343 -0.6568  1.1962  0.6294
  608MOL0     H83873   6.771   3.656   8.366  1.0968  5.5306 -1.5629
  608MOL0     H83874   6.887   3.416   8.328 -1.0758  0.7166 -0.8219
  608MOL0     H83875   7.037   3.497   8.305  0.4300 -1.9966  1.8133
  608MOL0     H83876   6.786   3.534   8.137  0.5540 -2.5911  0.2488
  608MOL0     H83877   6.937   3.598   8.084 -0.4802  0.3124 -0.1297
  608MOL0     H83878   7.006   3.384   8.010  0.1070 -1.8104 -2.3600
  608MOL0     H83879   6.851   3.397   7.955 -0.9285 -2.9270  1.2489
  608MOL0     H83880   6.739   3.272   8.129  0.3859  0.6123 -0.8187
  608MOL0     H83881   6.894   3.253   8.217 -1.6210  2.7312  0.5794
  608MOL0     H83882   6.855   3.045   8.083  0.5657 -1.6085 -3.8206
  608MOL0     H83883   6.978   3.146   8.005 -0.1019 -0.7916 -1.3341
  608MOL0     H83884   6.717   3.595   8.966  1.3759 -0.7219 -3.1240
  608MOL0     H83885   6.621   3.740   9.131 -0.6119 -2.1021 -1.7314
  608MOL0     H83886   6.354   4.124   9.031  2.8957 -0.1125  0.5119
  608MOL0     H83887   6.156   4.270   9.068  2.9031  5.0108  0.3972
  608MOL0     H83888   6.432   5.486   9.231 -2.3222 -1.2244  0.2120
  608MOL0     H83889   6.478   5.616   9.022  1.2642  0.0223 -3.1825
  608MOL0     H83890   6.466   5.574   8.571 -0.1652  1.3818  1.8316
  608MOL0     H83891   6.456   5.696   8.373 -1.1258 -4.7969 -0.4994
  608MOL0     H83892   6.501   5.808   8.136 -0.9277  0.0628  1.3757
  608MOL0     H83893   6.502   5.931   8.248 -1.9230 -0.8134 -2.1874
  608MOL0     H83894   6.524   6.020   8.043  2.5111  4.0774  0.0688
  608MOL0     H83895   6.661   5.921   7.995  0.6977  0.4832  0.0323
  608MOL0     H83896   6.669   6.174   8.054 -1.7798  1.8202  2.4873
  608MOL0     H83897   6.680   6.126   8.224 -1.5302 -2.5409 -0.0400
  608MOL0     H83898   6.866   6.055   7.987  1.3115  0.5184  0.4179
  608MOL0     H83899   6.889   5.995   8.157  0.5117  1.6597  1.9434
  608MOL0     H83900   7.039   6.382   8.168  0.1794 -0.1783 -1.7419
  608MOL0     H83901   6.879   5.767   8.390  2.1243 -0.6998  3.7298
  608MOL0     H83902   6.984   5.542   8.600 -1.0384 -0.9643  2.1878
  608MOL0     H83903   7.008   5.710   8.564 -0.6027 -0.3166 -2.8311
  608MOL0     H83904   6.926   5.670   8.716 -3.2304  1.4799 -0.8715
  609MOL0     O83905   5.796  11.093   2.105  0.1845 -0.2029 -0.5097
  609MOL0     C83906   5.841  11.079   2.227  0.4230  0.2593  0.8008
  609MOL0     O83907   5.935  11.150   2.279  0.4885 -0.0225  0.4976
  609MOL0     C83908   6.015  11.108   2.381  1.0236 -0.4728 -0.1250
  609MOL0     C83909   6.086  11.207   2.453 -0.7245 -0.7088  0.6856
  609MOL0     C83910   6.177  11.165   2.552  0.2464  0.8162 -0.7332
  609MOL0     C83911   6.208  11.035   2.588  0.1827 -0.3915 -0.3458
  609MOL0     O83912   6.301  11.008   2.682 -0.4067 -0.1743  0.0974
  609MOL0     C83913   6.378  10.892   2.660 -0.2474 -0.7933  0.1259
  609MOL0     C83914   6.487  10.916   2.770 -0.6616  1.0718 -1.0492
  609MOL0     C83915   6.603  10.815   2.743 -0.7811  1.0600  0.1821
  609MOL0     C83916   6.687  10.852   2.619  1.2394  0.4201  0.1985
  609MOL0     C83917   6.747  10.746   2.544 -0.4655 -0.2325  0.5316
  609MOL0     C83918   6.655  10.625   2.510 -0.8653 -0.5716  0.7574
  609MOL0     C83919   6.532  10.669   2.425 -0.6253 -0.0473  0.0400
  609MOL0     C83920   6.476  10.565   2.310 -0.8020 -0.4607 -0.0392
  609MOL0     N83921   6.350  10.602   2.251 -0.0794  0.4472  0.1837
  609MOL0     C83922   6.356  10.694   2.150  0.0389 -0.6440 -1.0498
  609MOL0     C83923   6.234  10.685   2.095 -0.1828  0.4187  0.6504
  609MOL0     C83924   6.192  10.753   1.972  0.8124  0.2256 -0.5891
  609MOL0     C83925   6.134  10.881   2.005  0.3189 -0.0131  0.2555
  609MOL0     C83926   6.236  10.988   2.038 -1.1145  0.2520  0.8385
  609MOL0     C83927   6.310  11.014   1.904 -0.6326 -0.0024  0.6261
  609MOL0     O83928   6.399  11.134   1.917 -0.3877 -0.1957  1.2078
  609MOL0     C83929   6.533  11.117   1.952 -0.4253 -0.2209 -0.6750
  609MOL0     C83930   6.587  11.003   2.022  0.5691  0.0925  0.5601
  609MOL0     C83931   6.727  11.008   2.073 -0.3841 -0.0047 -0.5081
  609MOL0     C83932   6.777  10.889   2.138  0.4042 -0.1983  0.0517
  609MOL0     C83933   6.807  11.124   2.052 -0.3127  0.5354  0.3052
  609MOL0     C83934   6.946  11.150   2.088 -0.5934  0.0200 -0.6051
  609MOL0     O83935   7.008  11.272   2.049 -0.7422  0.7601  0.8382
  609MOL0     C83936   7.133  11.299   2.110 -0.4569 -0.3223  0.0133
  609MOL0     C83937   7.133  11.369   2.234 -0.1024 -0.4867  0.6326
  609MOL0     C83938   7.259  11.399   2.296  0.1898  0.6467 -0.2057
  609MOL0     C83939   7.380  11.352   2.238  0.1035  0.0472  0.0407
  609MOL0     O83940   7.494  11.375   2.306  0.5038 -0.7830 -0.7085
  609MOL0     C83941   7.535  11.514   2.304  0.2577 -0.5465  0.4446
  609MOL0     C83942   7.607  11.547   2.177 -0.2882  0.4732 -0.8321
  609MOL0     C83943   7.661  11.686   2.192  1.0598  0.6995  0.0558
  609MOL0     C83944   7.818  11.696   2.196 -0.3618  0.1615 -0.6395
  609MOL0     C83945   7.872  11.830   2.172 -0.8370 -0.2928 -0.6097
  609MOL0     C83946   8.027  11.823   2.185 -0.0853 -0.8482  0.4846
  609MOL0     C83947   8.099  11.918   2.101 -0.1045 -0.0957  0.4462
  609MOL0     C83948   8.182  11.867   1.986  0.1670 -0.7321  0.2538
  609MOL0    Cl83949   8.086  11.773   1.863 -0.0520 -0.3105 -0.0066
  609MOL0     C83950   7.374  11.286   2.120  0.7323  0.0934  0.8571
  609MOL0     C83951   7.253  11.256   2.058  0.4523  0.0905  0.3992
  609MOL0     O83952   7.006  11.057   2.138  1.3879  0.0864 -0.3860
  609MOL0     C83953   6.747  11.231   1.984  0.2412 -0.4613 -0.3624
  609MOL0     C83954   6.616  11.230   1.944  0.4149  0.2201 -0.3018
  609MOL0     N83955   6.155  10.601   2.172  0.1840 -0.2016  0.1118
  609MOL0     N83956   6.224  10.550   2.268 -0.7375 -0.6691  0.2120
  609MOL0     C83957   6.141  10.937   2.516  0.0246  0.3828  0.8376
  609MOL0     C83958   6.036  10.968   2.419  0.3070  0.7671 -0.1858
  609MOL0     C83959   5.759  10.987   2.310  0.0706  0.1510 -0.6194
  609MOL0     C83960   5.718  11.041   2.432 -0.2607  0.1508  0.0992
  609MOL0     C83961   5.608  10.985   2.493 -0.1813  0.3571  0.5518
  609MOL0     C83962   5.550  10.868   2.448 -0.3514  0.5555 -0.7896
  609MOL0     O83963   5.436  10.803   2.499  0.3073  0.6493 -0.1128
  609MOL0     C83964   5.365  10.861   2.615 -0.4443 -0.0285  0.0982
  609MOL0     C83965   5.300  11.004   2.589 -0.3486  0.4344 -0.2672
  609MOL0     C83966   5.230  11.061   2.716  0.2679 -0.2017 -0.5785
  609MOL0     C83967   5.140  11.184   2.680 -0.1983 -0.8955 -0.4560
  609MOL0     C83968   4.996  11.157   2.670  1.1117 -0.1599 -1.0902
  609MOL0     C83969   4.876  11.131   2.670  0.1217  1.2527 -0.0990
  609MOL0     C83970   5.613  10.796   2.346 -0.4414 -0.4030 -0.0313
  609MOL0     C83971   5.711  10.860   2.267 -0.1251 -0.0933 -0.1976
  609MOL0     C83972   5.751  10.787   2.145  0.0681 -0.1482 -0.0187
  609MOL0     H83973   6.073  11.312   2.428  2.7351  0.4654  3.0577
  609MOL0     H83974   6.220  11.253   2.601  0.2710  1.0310 -1.1366
  609MOL0     H83975   6.424  10.889   2.561 -1.3271  2.4474 -0.6214
  609MOL0     H83976   6.328  10.796   2.675  2.0254 -2.1106 -0.3299
  609MOL0     H83977   6.520  11.021   2.774 -0.9712  1.1854 -1.5051
  609MOL0     H83978   6.428  10.898   2.860  0.6527  2.9244  0.2527
  609MOL0     H83979   6.665  10.808   2.832 -2.0069  2.6360  1.2065
  609MOL0     H83980   6.554  10.718   2.728  0.0081  0.7717 -0.7026
  609MOL0     H83981   6.628  10.911   2.549 -0.8883  0.5273  1.9466
  609MOL0     H83982   6.769  10.921   2.643  1.6448  0.5364 -1.4202
  609MOL0     H83983   6.828  10.713   2.609  1.7361  2.7452 -0.4604
  609MOL0     H83984   6.785  10.794   2.453  0.4039  0.3722  1.2091
  609MOL0     H83985   6.714  10.550   2.456  0.1821  1.3866 -0.9527
  609MOL0     H83986   6.618  10.585   2.605 -2.2762  3.1749  1.9741
  609MOL0     H83987   6.544  10.757   2.361 -3.2733 -2.6896 -4.6050
  609MOL0     H83988   6.444  10.696   2.485  0.9285  3.6613  1.0082
  609MOL0     H83989   6.555  10.551   2.235 -0.1348 -0.4407  0.6406
  609MOL0     H83990   6.469  10.470   2.365 -2.5657  0.7213  1.8996
  609MOL0     H83991   6.454  10.727   2.117  1.0597  0.0198  2.2650
  609MOL0     H83992   6.120  10.697   1.912  3.1979 -1.4173 -2.1223
  609MOL0     H83993   6.278  10.748   1.904  1.9095 -2.8678  0.8464
  609MOL0     H83994   6.058  10.917   1.936 -2.5503 -0.8756  2.7334
  609MOL0     H83995   6.080  10.877   2.100  1.7570  2.0018  1.2469
  609MOL0     H83996   6.182  11.080   2.061 -0.8825  0.8519 -0.8566
  609MOL0     H83997   6.298  10.952   2.120  0.5323 -3.6123 -1.8053
  609MOL0     H83998   6.364  10.924   1.873  0.9894  0.9938  0.4398
  609MOL0     H83999   6.236  11.039   1.829 -0.1559  1.3626  0.5944
  609MOL0     H84000   6.536  10.919   2.067 -1.3030  1.0832  0.3958
  609MOL0     H84001   6.870  10.857   2.090  2.0914  1.3018  2.0940
  609MOL0     H84002   6.704  10.809   2.126 -0.5065  0.8789 -1.9913
  609MOL0     H84003   6.793  10.908   2.245  1.3359 -1.2006  0.1042
  609MOL0     H84004   7.050  11.409   2.291 -1.7446 -1.1274 -1.1982
  609MOL0     H84005   7.252  11.460   2.385 -1.7226  1.7252 -1.0519
  609MOL0     H84006   7.451  11.582   2.318  0.2191 -0.2418 -1.1318
  609MOL0     H84007   7.603  11.524   2.390  2.4342  0.4021 -1.2687
  609MOL0     H84008   7.682  11.476   2.141 -2.2766 -1.2027 -1.8611
  609MOL0     H84009   7.535  11.562   2.096 -0.9563 -0.4763 -0.4247
  609MOL0     H84010   7.613  11.751   2.266  1.6541  0.1057  0.9733
  609MOL0     H84011   7.637  11.726   2.093  1.2476 -3.4520 -1.8767
  609MOL0     H84012   7.862  11.625   2.125  3.6427  1.0582  0.6973
  609MOL0     H84013   7.849  11.657   2.294  2.7411 -5.0277 -3.2412
  609MOL0     H84014   7.842  11.857   2.071  1.9984  0.2786 -1.4104
  609MOL0     H84015   7.836  11.911   2.236 -0.7093  1.1730 -2.3097
  609MOL0     H84016   8.056  11.727   2.140  1.2618 -2.3872  4.2136
  609MOL0     H84017   8.058  11.817   2.289 -3.7244  1.5656  1.9092
  609MOL0     H84018   8.169  11.969   2.168  0.5863 -1.7713  1.0577
  609MOL0     H84019   8.025  11.982   2.053 -0.5067 -2.1701 -1.9072
  609MOL0     H84020   8.252  11.791   2.022  2.2410  1.7037  1.6731
  609MOL0     H84021   8.236  11.954   1.949  0.6824 -1.2710 -0.2806
  609MOL0     H84022   7.469  11.250   2.080 -0.1862 -0.3265 -1.0570
  609MOL0     H84023   7.256  11.198   1.966  0.7653  0.4008  0.2097
  609MOL0     H84024   6.806  11.317   1.955  0.2843 -0.6081 -0.7176
  609MOL0     H84025   6.612  11.324   1.890 -2.2918  0.4185  0.1257
  609MOL0     H84026   6.155  10.831   2.538 -4.1997 -1.1728 -2.3926
  609MOL0     H84027   5.978  10.888   2.375 -2.0417  1.5005  1.4165
  609MOL0     H84028   5.746  11.138   2.475 -1.2673  1.2298 -1.5903
  609MOL0     H84029   5.569  11.043   2.576 -2.1233  0.2015 -0.2245
  609MOL0     H84030   5.279  10.796   2.631 -0.9252  0.6156  0.1454
  609MOL0     H84031   5.438  10.862   2.697 -0.2709 -1.5114 -0.0165
  609MOL0     H84032   5.229  10.995   2.506 -2.1262  2.9901  0.8415
  609MOL0     H84033   5.374  11.078   2.556 -1.1443  1.3089 -0.1231
  609MOL0     H84034   5.180  10.976   2.763  1.5258 -0.0387  1.1356
  609MOL0     H84035   5.304  11.092   2.791 -1.2569  2.3998 -0.0063
  609MOL0     H84036   5.168  11.221   2.581  3.6865 -0.0191  0.8070
  609MOL0     H84037   5.157  11.268   2.747  0.7418 -0.2831 -1.4409
  609MOL0     H84038   4.776  11.092   2.665 -0.4088  2.3512  1.3048
  609MOL0     H84039   5.562  10.705   2.317 -0.3418 -0.0963 -1.2029
  609MOL0     H84040   5.747  10.678   2.155 -0.0470 -0.0133  1.7611
  609MOL0     H84041   5.682  10.812   2.064 -0.8290 -1.0137  0.4563
  609MOL0     H84042   5.858  10.803   2.132  1.0357 -3.6421  2.1846
  610MOL0     O84043   9.537   7.937   1.118  0.6939 -0.5623 -0.1308
  610MOL0     C84044   9.605   8.019   1.052  0.5593  0.2619 -0.5987
  610MOL0     O84045   9.631   8.006   0.918 -0.5832  0.2008 -0.8926
  610MOL0     C84046   9.548   7.925   0.840  0.5191  0.1554  0.1640
  610MOL0     C84047   9.413   7.895   0.865 -0.2136  0.0181 -0.3327
  610MOL0     C84048   9.340   7.812   0.783  0.2744 -0.1097  0.6607
  610MOL0     C84049   9.392   7.769   0.653  0.3343 -0.4948 -0.2730
  610MOL0     O84050   9.314   7.693   0.585  0.1117  0.8674 -0.1382
  610MOL0     C84051   9.373   7.597   0.482  0.3896  0.5907  0.2120
  610MOL0     C84052   9.287   7.479   0.460 -0.5381  0.1526 -0.4858
  610MOL0     C84053   9.364   7.362   0.418 -0.4805 -0.4865  0.5952
  610MOL0     C84054   9.423   7.361   0.275 -0.2943 -0.3319 -0.0731
  610MOL0     C84055   9.315   7.371   0.163 -0.8849 -0.2220  0.1878
  610MOL0     C84056   9.227   7.248   0.152  0.5456  0.3144 -0.1447
  610MOL0     C84057   9.156   7.249   0.018  1.3201  0.0737 -0.3240
  610MOL0     C84058   9.080   7.372  -0.022 -0.5851 -1.2145  1.1553
  610MOL0     N84059   8.999   7.431   0.087 -0.6865 -0.4688  0.1455
  610MOL0     C84060   9.004   7.555   0.150  0.2051  0.1598 -0.4003
  610MOL0     C84061   8.904   7.568   0.239  0.9044 -0.4207  0.0709
  610MOL0     C84062   8.886   7.692   0.317 -0.0085 -0.0655  0.5738
  610MOL0     C84063   9.015   7.738   0.381  0.2974  0.0411 -0.7348
  610MOL0     C84064   8.979   7.826   0.508 -0.3033 -0.8916 -0.6461
  610MOL0     C84065   8.932   7.974   0.474 -0.8007  0.2547  0.3913
  610MOL0     O84066   9.029   8.041   0.386  0.1366 -0.1449 -0.4714
  610MOL0     C84067   9.154   8.083   0.441  0.6563  0.1167  0.4922
  610MOL0     C84068   9.241   8.142   0.346  0.7658  0.9081 -0.1554
  610MOL0     C84069   9.359   8.209   0.386  1.2180 -0.7747 -1.0961
  610MOL0     C84070   9.427   8.301   0.291 -0.2830  0.7577 -0.3621
  610MOL0     C84071   9.397   8.200   0.523 -0.5228  0.9382  0.2827
  610MOL0     C84072   9.522   8.252   0.569  0.2521 -0.0798  0.3878
  610MOL0     O84073   9.629   8.242   0.483 -0.0103  0.3172  0.8706
  610MOL0     C84074   9.746   8.294   0.519  0.2948 -1.0244 -0.6069
  610MOL0     C84075   9.798   8.395   0.444 -0.4039  0.0423 -0.0185
  610MOL0     C84076   9.928   8.445   0.470  0.0541 -0.5507 -0.1495
  610MOL0     C84077  10.011   8.390   0.563 -0.3544 -0.9724 -0.3515
  610MOL0     O84078  10.147   8.421   0.560 -0.2544 -0.3424 -0.5021
  610MOL0     C84079  10.237   8.380   0.663 -0.0218 -0.3077 -0.3244
  610MOL0     C84080  10.370   8.455   0.655 -0.3868 -0.0183 -0.7311
  610MOL0     C84081  10.461   8.429   0.535  1.0138  0.5877 -0.3844
  610MOL0     C84082  10.569   8.537   0.531  0.4218 -1.2993  0.3355
  610MOL0     C84083  10.656   8.534   0.396 -0.0884  0.2035 -1.1150
  610MOL0     C84084  10.788   8.449   0.425  0.8808 -0.7392  0.1213
  610MOL0     C84085  10.871   8.449   0.304  1.2023 -0.8070  0.5121
  610MOL0     C84086  10.812   8.372   0.190  0.6717  0.5564  0.0863
  610MOL0    Cl84087  10.836   8.202   0.231  0.1466 -0.1758 -0.0534
  610MOL0     C84088   9.960   8.280   0.638  0.5525 -0.2196  1.3235
  610MOL0     C84089   9.824   8.244   0.622  0.0861 -0.2324 -0.5176
  610MOL0     O84090   9.520   8.302   0.681 -0.6805  0.2870  0.0589
  610MOL0     C84091   9.306   8.140   0.611 -0.4396 -0.0514 -0.0333
  610MOL0     C84092   9.194   8.076   0.572  0.3666 -0.0124 -0.3042
  610MOL0     N84093   8.829   7.454   0.218 -0.3095  0.2454  0.4885
  610MOL0     N84094   8.894   7.374   0.137 -0.2143 -0.2459 -0.3708
  610MOL0     C84095   9.517   7.818   0.615  0.5542  1.0126  0.9203
  610MOL0     C84096   9.595   7.888   0.711  0.8993 -0.1877 -0.9777
  610MOL0     C84097   9.686   8.119   1.142 -0.0815  0.2829  0.5082
  610MOL0     C84098   9.710   8.078   1.272  0.1480 -0.1758 -0.1747
  610MOL0     C84099   9.779   8.159   1.364 -0.1565  1.1278  0.5143
  610MOL0     C84100   9.829   8.282   1.329  0.0852 -0.4064 -0.1447
  610MOL0     O84101   9.890   8.359   1.425  0.7444  0.8977  0.0847
  610MOL0     C84102   9.948   8.487   1.393  0.1748 -0.0520 -1.1416
  610MOL0     C84103   9.979   8.569   1.519 -1.7385 -0.5043  0.1434
  610MOL0     C84104   9.894   8.709   1.547 -0.1075  1.4021  0.8126
  610MOL0     C84105   9.750   8.672   1.572  1.0402 -0.1455  0.4317
  610MOL0     C84106   9.674   8.781   1.642  0.2133  0.8817 -0.0335
  610MOL0     C84107   9.605   8.870   1.692  0.4786  0.2794 -0.4504
  610MOL0     C84108   9.798   8.325   1.194  0.0779 -0.3529 -0.6024
  610MOL0     C84109   9.751   8.237   1.098 -0.1118 -0.0365 -0.3649
  610MOL0     C84110   9.764   8.277   0.957 -0.0293 -0.9189 -0.4256
  610MOL0     H84111   9.367   7.942   0.951 -1.2242  3.3399 -2.4840
  610MOL0     H84112   9.244   7.780   0.822 -0.6202 -3.3107 -3.4769
  610MOL0     H84113   9.473   7.573   0.520  0.5966  1.3804  0.2054
  610MOL0     H84114   9.398   7.643   0.385 -0.8737 -2.6029 -1.7812
  610MOL0     H84115   9.241   7.454   0.557  2.7017 -2.1343  0.6253
  610MOL0     H84116   9.205   7.490   0.389 -0.9838  2.1173  0.2524
  610MOL0     H84117   9.442   7.344   0.493 -1.2449  1.6450  1.9799
  610MOL0     H84118   9.301   7.273   0.426 -2.5055  0.9257  1.0166
  610MOL0     H84119   9.499   7.440   0.273 -1.0892  0.4510 -0.4415
  610MOL0     H84120   9.482   7.269   0.276 -3.4268 -2.6452  4.3113
  610MOL0     H84121   9.362   7.389   0.066 -3.1930  1.8727 -0.6402
  610MOL0     H84122   9.251   7.459   0.168 -1.1791 -0.5038  2.4996
  610MOL0     H84123   9.286   7.156   0.156  0.1247  0.0650  0.6315
  610MOL0     H84124   9.143   7.243   0.223  1.0509 -2.1736  0.3676
  610MOL0     H84125   9.090   7.162   0.025  2.2856 -1.0245 -3.3483
  610MOL0     H84126   9.218   7.222  -0.067 -1.9131 -1.6340 -2.3615
  610MOL0     H84127   9.144   7.447  -0.068 -1.1655 -1.5131 -0.1892
  610MOL0     H84128   9.016   7.365  -0.111  1.4480  0.6886 -0.5699
  610MOL0     H84129   9.065   7.640   0.121 -0.3471  1.0771  1.0337
  610MOL0     H84130   8.810   7.669   0.393  0.1333 -0.2948  0.6496
  610MOL0     H84131   8.844   7.776   0.261 -1.6489 -1.1729  0.0660
  610MOL0     H84132   9.071   7.652   0.420 -1.6335 -2.0449 -2.2965
  610MOL0     H84133   9.074   7.801   0.313  0.6074  2.3558  1.5264
  610MOL0     H84134   8.899   7.788   0.572 -1.9033  4.2758  0.8680
  610MOL0     H84135   9.065   7.829   0.576  1.1696  1.8634 -2.4373
  610MOL0     H84136   8.829   7.982   0.436 -2.1333  0.4929  3.7486
  610MOL0     H84137   8.935   8.035   0.564 -2.9633  2.1204 -0.6873
  610MOL0     H84138   9.198   8.143   0.246 -2.9882 -5.1672  0.8176
  610MOL0     H84139   9.503   8.368   0.334  1.9585 -0.6770 -1.8800
  610MOL0     H84140   9.354   8.363   0.238 -1.2523  0.3870  0.5204
  610MOL0     H84141   9.487   8.246   0.217  0.0852  0.0234  0.4757
  610MOL0     H84142   9.745   8.457   0.372  1.8678  0.1076 -1.7312
  610MOL0     H84143   9.959   8.529   0.409 -3.3074  2.9632  2.5207
  610MOL0     H84144  10.203   8.408   0.763  0.5492 -0.1731 -0.1649
  610MOL0     H84145  10.254   8.272   0.666  0.4653 -0.2314 -0.1966
  610MOL0     H84146  10.357   8.563   0.672  0.1691  0.3345 -2.3005
  610MOL0     H84147  10.435   8.414   0.732 -1.1809 -1.3524 -0.7519
  610MOL0     H84148  10.398   8.435   0.446  1.0218 -0.7588 -0.5064
  610MOL0     H84149  10.510   8.331   0.538 -0.2312 -0.0397  0.1440
  610MOL0     H84150  10.640   8.529   0.614  0.9994 -1.2409 -0.1517
  610MOL0     H84151  10.515   8.632   0.538 -0.4760 -1.8415  1.1517
  610MOL0     H84152  10.604   8.497   0.307 -0.0997 -0.1584 -0.9600
  610MOL0     H84153  10.672   8.641   0.381  1.6419  0.0056 -0.8996
  610MOL0     H84154  10.762   8.347   0.455  0.0663 -0.5463  0.1173
  610MOL0     H84155  10.848   8.489   0.506  1.5947 -1.7492  0.1059
  610MOL0     H84156  10.973   8.417   0.330  1.2896 -0.7515  0.2438
  610MOL0     H84157  10.871   8.555   0.278 -3.3002 -1.0675 -1.4789
  610MOL0     H84158  10.880   8.398   0.109 -1.0485 -0.5100 -1.8093
  610MOL0     H84159  10.709   8.400   0.164  1.0803  2.2445  0.1869
  610MOL0     H84160  10.022   8.220   0.704  2.1035  0.7031  0.7519
  610MOL0     H84161   9.785   8.167   0.689 -0.6823 -0.3310 -1.0659
  610MOL0     H84162   9.334   8.129   0.716  2.7664  3.4761 -0.3159
  610MOL0     H84163   9.150   8.024   0.656 -0.3526 -0.8653 -1.1838
  610MOL0     H84164   9.561   7.782   0.522  0.2705  0.9006  0.8281
  610MOL0     H84165   9.686   7.942   0.683  1.4699 -1.2714 -1.2815
  610MOL0     H84166   9.674   7.981   1.306  0.9025 -0.0414  1.0700
  610MOL0     H84167   9.805   8.116   1.460 -1.4896 -1.6028 -0.2696
  610MOL0     H84168  10.037   8.464   1.334  1.4547  0.0908  0.6404
  610MOL0     H84169   9.890   8.550   1.324 -0.2192  0.4782 -0.3481
  610MOL0     H84170  10.086   8.586   1.503 -1.9229  0.5939 -0.0253
  610MOL0     H84171   9.971   8.511   1.611  0.0718  0.7942  1.1864
  610MOL0     H84172   9.940   8.752   1.637  3.7787 -1.1663  0.2944
  610MOL0     H84173   9.912   8.775   1.461 -1.0020 -0.7714 -1.1497
  610MOL0     H84174   9.730   8.586   1.637  1.1361 -2.1177 -1.9787
  610MOL0     H84175   9.705   8.643   1.477 -0.8464  0.3498  1.1402
  610MOL0     H84176   9.553   8.950   1.740  1.6117 -0.7305  2.7157
  610MOL0     H84177   9.829   8.427   1.173  1.6628 -0.9715 -1.4697
  610MOL0     H84178   9.851   8.230   0.910 -1.6357 -1.7800 -2.7421
  610MOL0     H84179   9.679   8.237   0.901  0.7528  0.8632 -3.0590
  610MOL0     H84180   9.772   8.386   0.954  1.6238 -0.7740  3.2829
  611MOL0     O84181   0.746   3.411   6.887 -0.2392  0.0979 -0.5774
  611MOL0     C84182   0.662   3.383   6.979 -0.1398 -0.4635  0.7783
  611MOL0     O84183   0.697   3.333   7.101  0.1397 -0.4494 -0.0236
  611MOL0     C84184   0.830   3.318   7.122  1.1896  1.3823 -0.5287
  611MOL0     C84185   0.920   3.414   7.167  0.2335  0.0453 -1.8966
  611MOL0     C84186   1.055   3.406   7.156 -0.6888  0.6202  0.4632
  611MOL0     C84187   1.107   3.283   7.094 -0.1125  0.1269 -0.3810
  611MOL0     O84188   1.242   3.280   7.079 -0.1320 -0.7746 -0.0255
  611MOL0     C84189   1.314   3.181   7.007 -0.4483 -1.0806 -0.0833
  611MOL0     C84190   1.442   3.173   7.079 -1.0504  0.2555 -0.0973
  611MOL0     C84191   1.540   3.065   7.031  0.2054 -0.6991  0.6053
  611MOL0     C84192   1.574   3.078   6.882  0.6601  0.0546 -1.3098
  611MOL0     C84193   1.682   2.983   6.821 -0.4135  0.1914  0.1132
  611MOL0     C84194   1.718   3.015   6.681 -0.8081 -0.6342 -0.5864
  611MOL0     C84195   1.836   2.929   6.628  0.0481 -0.2196  0.2766
  611MOL0     C84196   1.888   2.963   6.486 -0.1030 -1.0750  1.0633
  611MOL0     N84197   1.969   2.850   6.432  0.5780 -0.2314 -0.1080
  611MOL0     C84198   2.094   2.814   6.469 -0.3400 -0.3835  0.1152
  611MOL0     C84199   2.116   2.713   6.389  0.0336  0.7505  0.8515
  611MOL0     C84200   2.248   2.634   6.375 -0.2207  0.1878 -0.0853
  611MOL0     C84201   2.269   2.500   6.454  0.1694  0.4521  0.8002
  611MOL0     C84202   2.350   2.400   6.370 -0.6690  0.9791 -0.1797
  611MOL0     C84203   2.482   2.453   6.314 -0.3505  1.0350  0.6307
  611MOL0     O84204   2.582   2.493   6.414 -0.5928 -0.1922  0.0888
  611MOL0     C84205   2.708   2.518   6.370 -0.2152  0.5888  0.3846
  611MOL0     C84206   2.808   2.511   6.459  0.3414  0.3553  0.1271
  611MOL0     C84207   2.943   2.538   6.433  1.2118 -0.8413  0.6056
  611MOL0     C84208   3.043   2.516   6.544 -1.0719 -0.0602  0.6152
  611MOL0     C84209   2.981   2.558   6.295 -0.0124  0.5494 -0.5495
  611MOL0     C84210   3.126   2.583   6.250  0.0165 -0.0130 -0.3172
  611MOL0     O84211   3.146   2.649   6.128 -0.2659  0.2326  0.1653
  611MOL0     C84212   3.273   2.659   6.086  0.3559  0.7325 -0.7224
  611MOL0     C84213   3.331   2.541   6.036 -0.4344  0.0584 -0.1093
  611MOL0     C84214   3.455   2.546   5.989 -0.0671 -0.7779  0.8933
  611MOL0     C84215   3.527   2.665   6.008  1.0643 -0.9705  0.2095
  611MOL0     O84216   3.653   2.661   5.965  0.2395 -0.3042  0.4224
  611MOL0     C84217   3.734   2.604   6.072 -0.1986  0.6397  0.4895
  611MOL0     C84218   3.881   2.639   6.064  0.0111  0.1655 -0.0445
  611MOL0     C84219   3.943   2.603   5.928 -0.1205  1.0175 -0.0935
  611MOL0     C84220   3.914   2.702   5.822 -0.7424  0.5373  0.2275
  611MOL0     C84221   3.969   2.662   5.682 -0.0292  0.1279 -0.1816
  611MOL0     C84222   4.116   2.675   5.672 -0.0046 -0.0464 -0.1261
  611MOL0     C84223   4.170   2.638   5.529 -0.3752 -0.6594 -0.6317
  611MOL0     C84224   4.282   2.740   5.477 -0.6287  0.2090 -1.2578
  611MOL0    Cl84225   4.372   2.681   5.329  0.1840 -0.3159  0.1233
  611MOL0     C84226   3.477   2.776   6.076  0.0911 -0.2854 -0.7787
  611MOL0     C84227   3.344   2.767   6.116 -0.8484 -0.8801 -0.4208
  611MOL0     O84228   3.215   2.553   6.325 -0.0204 -0.6891 -0.4736
  611MOL0     C84229   2.878   2.552   6.196  1.0266  0.7854  0.1102
  611MOL0     C84230   2.749   2.534   6.233 -0.3185  0.5225 -1.0015
  611MOL0     N84231   2.008   2.689   6.309  0.9674  0.3638  0.6399
  611MOL0     N84232   1.914   2.778   6.325 -0.3688 -0.4373  0.5331
  611MOL0     C84233   1.024   3.198   7.036  0.4414 -0.6233 -0.1334
  611MOL0     C84234   0.890   3.200   7.066  0.3584  0.1031  0.6939
  611MOL0     C84235   0.512   3.392   6.956  0.6061  0.2166  0.6296
  611MOL0     C84236   0.433   3.499   7.002 -0.0097  0.0832  0.0370
  611MOL0     C84237   0.296   3.506   6.970  0.5000 -0.0063 -0.4427
  611MOL0     C84238   0.237   3.415   6.880  0.3268  0.3872  0.1387
  611MOL0     O84239   0.105   3.430   6.846 -0.5917 -0.3787  0.2417
  611MOL0     C84240   0.062   3.384   6.721 -0.3281  0.9307 -0.1169
  611MOL0     C84241  -0.076   3.321   6.733  0.1275  0.1486 -0.2195
  611MOL0     C84242  -0.095   3.200   6.829 -0.5861  0.1343  0.1135
  611MOL0     C84243   0.003   3.083   6.792 -0.8705  0.1746  0.8091
  611MOL0     C84244  -0.027   2.972   6.884 -0.3175  0.0899 -0.9841
  611MOL0     C84245  -0.085   2.891   6.955 -0.2336 -0.1979 -0.9756
  611MOL0     C84246   0.320   3.312   6.843  0.1823  0.3607 -0.1857
  611MOL0     C84247   0.453   3.293   6.871  0.4964  0.3497 -0.1024
  611MOL0     C84248   0.528   3.180   6.821 -0.0254 -0.5308 -0.1426
  611MOL0     H84249   0.881   3.511   7.198  1.0211 -0.0833 -0.4273
  611MOL0     H84250   1.129   3.482   7.179 -0.7651  0.6442  0.6331
  611MOL0     H84251   1.322   3.221   6.906 -2.2383  0.1412  0.2290
  611MOL0     H84252   1.271   3.082   6.989 -0.3409 -0.8521 -1.8064
  611MOL0     H84253   1.502   3.264   7.083  2.8776 -2.1160  1.4373
  611MOL0     H84254   1.427   3.144   7.184 -0.4898  1.7384  0.4132
  611MOL0     H84255   1.633   3.079   7.086  0.9165 -0.4299 -0.6337
  611MOL0     H84256   1.491   2.973   7.066 -2.5445  0.5331  0.3040
  611MOL0     H84257   1.485   3.065   6.820 -0.9387 -2.9200  1.2776
  611MOL0     H84258   1.603   3.182   6.866  1.2508 -0.0472 -0.9260
  611MOL0     H84259   1.647   2.880   6.834 -2.4917  1.0484  2.0267
  611MOL0     H84260   1.771   2.990   6.885 -0.7862 -1.5534  0.9094
  611MOL0     H84261   1.632   2.995   6.616 -0.2295  0.2294 -1.6515
  611MOL0     H84262   1.738   3.121   6.663 -1.0861 -0.5402 -0.3448
  611MOL0     H84263   1.814   2.822   6.631  0.5408 -0.3161  3.5635
  611MOL0     H84264   1.924   2.934   6.692 -0.0791 -0.1038  0.4409
  611MOL0     H84265   1.794   2.977   6.434 -0.4335 -0.2334  1.8608
  611MOL0     H84266   1.938   3.060   6.484 -4.0064  1.1724  2.2935
  611MOL0     H84267   2.157   2.847   6.551 -1.1334 -3.7260  2.2911
  611MOL0     H84268   2.313   2.708   6.422  2.7433 -1.6302 -0.9956
  611MOL0     H84269   2.271   2.620   6.269 -1.7311  1.2245 -0.5757
  611MOL0     H84270   2.317   2.524   6.549 -0.2440 -0.7193  1.3264
  611MOL0     H84271   2.167   2.466   6.474 -2.3475  4.3149 -3.4303
  611MOL0     H84272   2.367   2.308   6.427  0.5525  1.2615 -0.0719
  611MOL0     H84273   2.287   2.383   6.282  1.2264  1.4566 -1.6937
  611MOL0     H84274   2.524   2.376   6.249 -0.2980  0.5253  1.2671
  611MOL0     H84275   2.458   2.540   6.252  2.5358  2.3389  1.1603
  611MOL0     H84276   2.785   2.483   6.562 -3.5004  1.1568 -0.3622
  611MOL0     H84277   2.994   2.534   6.640  0.2431  4.6142  0.6884
  611MOL0     H84278   3.118   2.596   6.536 -0.7375 -0.5744 -2.6930
  611MOL0     H84279   3.092   2.419   6.534  1.3312  1.0318  0.9780
  611MOL0     H84280   3.273   2.450   6.029  1.1542 -1.2566  2.3138
  611MOL0     H84281   3.501   2.462   5.938  2.3085  2.3209 -2.5759
  611MOL0     H84282   3.703   2.639   6.172  2.6849  0.7989  1.4127
  611MOL0     H84283   3.723   2.496   6.060  2.0566  0.2256  1.6557
  611MOL0     H84284   3.885   2.746   6.088  2.8326 -0.2080  1.4843
  611MOL0     H84285   3.937   2.589   6.143  0.7632  1.6557  0.3961
  611MOL0     H84286   3.897   2.508   5.899 -1.8660  1.2357  1.7282
  611MOL0     H84287   4.051   2.592   5.940 -0.4105 -0.6544  1.4570
  611MOL0     H84288   3.968   2.792   5.853  0.8976 -0.4940  0.4627
  611MOL0     H84289   3.808   2.725   5.808 -0.4452  1.4223 -0.7267
  611MOL0     H84290   3.932   2.570   5.635  1.2972 -1.6589  2.0959
  611MOL0     H84291   3.926   2.737   5.614  2.0710  1.5412 -0.0636
  611MOL0     H84292   4.179   2.625   5.745  0.1738  0.9407  0.4167
  611MOL0     H84293   4.136   2.781   5.690 -0.9547  0.4798 -1.9026
  611MOL0     H84294   4.095   2.655   5.451  0.3582 -3.1996 -2.0285
  611MOL0     H84295   4.206   2.535   5.522 -0.9620 -0.7590 -2.9723
  611MOL0     H84296   4.360   2.745   5.554 -1.7406 -2.0230  0.1153
  611MOL0     H84297   4.253   2.846   5.481  0.8826  0.6389  2.1144
  611MOL0     H84298   3.541   2.860   6.101 -0.5090 -0.9405  3.6920
  611MOL0     H84299   3.312   2.853   6.174  3.4095 -0.8295  2.2438
  611MOL0     H84300   2.913   2.547   6.094 -2.6333  0.9598 -1.2910
  611MOL0     H84301   2.681   2.525   6.149 -3.3585 -0.4932  1.3979
  611MOL0     H84302   1.064   3.129   6.962  1.8033  0.6795 -0.6494
  611MOL0     H84303   0.823   3.131   7.016 -1.9856  3.0586 -0.5684
  611MOL0     H84304   0.487   3.567   7.067  1.0668  0.7016 -1.4539
  611MOL0     H84305   0.241   3.593   7.006  1.6103  0.5314  0.0293
  611MOL0     H84306   0.063   3.472   6.656  2.4239 -0.6177 -2.4496
  611MOL0     H84307   0.134   3.312   6.681  0.7634  1.1144  1.4441
  611MOL0     H84308  -0.109   3.297   6.631  1.1403  4.2536 -1.6945
  611MOL0     H84309  -0.145   3.399   6.764  0.6553  1.8677 -3.0805
  611MOL0     H84310  -0.068   3.234   6.930 -2.4728 -0.3208  0.8194
  611MOL0     H84311  -0.197   3.162   6.832 -0.1519 -1.0413  1.7930
  611MOL0     H84312   0.104   3.125   6.787 -0.7911 -0.1762 -1.6456
  611MOL0     H84313  -0.023   3.046   6.693  1.5757  1.8941 -0.5956
  611MOL0     H84314  -0.149   2.837   7.022  1.9521 -2.2364 -0.4105
  611MOL0     H84315   0.275   3.224   6.798 -1.3426  0.7464  0.5078
  611MOL0     H84316   0.466   3.121   6.753 -2.1609  0.6145  0.6950
  611MOL0     H84317   0.607   3.221   6.758  1.7480 -0.2644  2.1268
  611MOL0     H84318   0.574   3.118   6.898  2.0341  1.9217  0.7554
  612MOL0     O84319  10.432   7.277   3.104 -0.3344 -0.0919 -0.3312
  612MOL0     C84320  10.310   7.240   3.101 -0.6429 -0.2386  0.6327
  612MOL0     O84321  10.238   7.129   3.151 -0.7701 -0.7473 -0.6143
  612MOL0     C84322  10.316   7.036   3.205 -0.1691 -0.0553 -0.6441
  612MOL0     C84323  10.388   7.057   3.323 -0.1819  0.8830  0.0246
  612MOL0     C84324  10.480   6.970   3.368 -0.0767 -0.7316  0.9556
  612MOL0     C84325  10.497   6.844   3.305  0.0236  0.6615  0.8109
  612MOL0     O84326  10.573   6.740   3.348 -0.3239  0.3142  0.0859
  612MOL0     C84327  10.661   6.750   3.466  0.6286 -0.0039  0.1870
  612MOL0     C84328  10.760   6.633   3.467  0.7598  0.1163 -0.7111
  612MOL0     C84329  10.686   6.496   3.463 -0.0750 -0.0941 -0.2351
  612MOL0     C84330  10.770   6.389   3.407 -0.1978 -0.1578  0.4515
  612MOL0     C84331  10.686   6.255   3.411 -0.6848  0.2439 -0.2518
  612MOL0     C84332  10.758   6.120   3.365 -1.3204  0.1722  0.6515
  612MOL0     C84333  10.675   5.990   3.384  0.2434 -0.4135 -0.4429
  612MOL0     C84334  10.662   5.955   3.542  0.7111 -0.1068  0.9032
  612MOL0     N84335  10.580   5.832   3.556 -0.0071  1.1079 -0.4739
  612MOL0     C84336  10.445   5.811   3.524 -0.5448  0.3145  0.5643
  612MOL0     C84337  10.435   5.675   3.544 -0.5704 -0.0240  0.5602
  612MOL0     C84338  10.318   5.592   3.520 -0.0894  0.3538  0.1936
  612MOL0     C84339  10.243   5.548   3.655 -1.0523 -0.3841  0.5222
  612MOL0     C84340  10.134   5.445   3.635 -0.0037  1.1907  0.3896
  612MOL0     C84341  10.093   5.408   3.772 -1.7582  0.6724  0.3321
  612MOL0     O84342  10.198   5.338   3.838  0.3868  0.0576 -0.7195
  612MOL0     C84343  10.164   5.264   3.946  0.1197  0.1257 -0.4508
  612MOL0     C84344  10.265   5.192   4.008 -0.2692 -0.8646 -0.5310
  612MOL0     C84345  10.240   5.105   4.115 -0.0078 -0.7814  0.4404
  612MOL0     C84346  10.363   5.034   4.179 -0.1649 -0.1763  0.1294
  612MOL0     C84347  10.107   5.094   4.164 -0.3881  0.1332 -0.3861
  612MOL0     C84348  10.067   5.001   4.286 -0.4998  0.2012  0.2829
  612MOL0     O84349   9.935   4.963   4.286 -0.3273  0.3488  1.5566
  612MOL0     C84350   9.900   4.905   4.400 -0.2076 -0.0714 -0.2361
  612MOL0     C84351   9.866   4.780   4.415 -0.5903  1.1216 -0.8788
  612MOL0     C84352   9.799   4.728   4.529 -0.7713  0.9542  1.1077
  612MOL0     C84353   9.767   4.816   4.636 -0.3697  0.0123  1.0218
  612MOL0     O84354   9.688   4.780   4.742 -0.6241 -0.2102  0.6148
  612MOL0     C84355   9.635   4.639   4.752  1.2782 -0.3621  0.3462
  612MOL0     C84356   9.604   4.609   4.899 -1.1575 -0.3722  0.6877
  612MOL0     C84357   9.534   4.474   4.897  0.2586 -0.3221  0.4262
  612MOL0     C84358   9.377   4.493   4.893 -1.0536  0.4119 -0.4469
  612MOL0     C84359   9.323   4.461   4.754  0.1620 -0.5439  0.4396
  612MOL0     C84360   9.177   4.479   4.736  0.5395  0.2613  0.5552
  612MOL0     C84361   9.132   4.443   4.595 -1.2497  0.6327 -0.8316
  612MOL0     C84362   8.999   4.513   4.555 -0.1532 -0.3863  0.9956
  612MOL0    Cl84363   8.858   4.434   4.612 -0.4569  0.2619  0.2934
  612MOL0     C84364   9.794   4.955   4.607 -0.3221  0.0349  0.2644
  612MOL0     C84365   9.855   4.994   4.493 -0.0461  0.3377 -0.2018
  612MOL0     O84366  10.146   4.981   4.378 -0.3622 -0.1727 -0.4725
  612MOL0     C84367  10.008   5.172   4.111  0.0977 -0.0910 -0.1125
  612MOL0     C84368  10.036   5.255   4.000  0.8172 -1.4805  0.1992
  612MOL0     N84369  10.561   5.622   3.577  0.2645  0.6438  0.2644
  612MOL0     N84370  10.644   5.714   3.574  0.8693  0.1642  0.1109
  612MOL0     C84371  10.412   6.809   3.194 -0.4019  0.2538 -1.1036
  612MOL0     C84372  10.326   6.908   3.135 -0.7092 -0.7864 -0.4416
  612MOL0     C84373  10.234   7.333   3.020  0.7224 -0.0859 -0.6318
  612MOL0     C84374  10.276   7.370   2.889  0.3216  0.0138 -0.0498
  612MOL0     C84375  10.189   7.425   2.797 -0.4849  0.3109  1.1653
  612MOL0     C84376  10.053   7.459   2.835 -0.2513 -0.6055  0.5772
  612MOL0     O84377   9.968   7.532   2.754  0.2590  0.4477 -0.0429
  612MOL0     C84378  10.009   7.550   2.623 -0.7160 -0.7179 -0.1806
  612MOL0     C84379   9.905   7.639   2.553  0.0815  0.7367  0.3886
  612MOL0     C84380   9.958   7.659   2.409  0.4502 -0.6747  0.1819
  612MOL0     C84381   9.917   7.546   2.317 -0.7893  0.5089  0.2579
  612MOL0     C84382   9.895   7.575   2.175  0.0171  0.2284  1.3244
  612MOL0     C84383   9.878   7.600   2.056 -0.0548  0.0380  0.4781
  612MOL0     C84384  10.007   7.412   2.957 -0.5638  0.0533 -0.3384
  612MOL0     C84385  10.097   7.370   3.053  0.1387  0.8267 -1.2813
  612MOL0     C84386  10.040   7.351   3.194  0.0985  0.1300  0.5668
  612MOL0     H84387  10.375   7.145   3.386 -0.2609  0.7969  0.1279
  612MOL0     H84388  10.518   6.994   3.467  2.2900  0.1961 -0.1166
  612MOL0     H84389  10.605   6.742   3.559  0.1476 -1.2252 -0.1809
  612MOL0     H84390  10.714   6.846   3.455 -1.8428  1.5219  0.8992
  612MOL0     H84391  10.816   6.657   3.376 -3.1778 -2.4337 -4.1841
  612MOL0     H84392  10.819   6.639   3.559 -2.3979  1.2063  1.4053
  612MOL0     H84393  10.661   6.460   3.564 -2.4929  0.2884 -0.6403
  612MOL0     H84394  10.599   6.497   3.398  2.4532 -0.3032 -3.8999
  612MOL0     H84395  10.788   6.416   3.302  2.2720  2.8932  1.4884
  612MOL0     H84396  10.862   6.375   3.464  0.7462 -3.1032 -1.5649
  612MOL0     H84397  10.591   6.261   3.358 -1.2396 -0.0048  0.6771
  612MOL0     H84398  10.648   6.238   3.513 -1.0505 -0.8732 -0.5577
  612MOL0     H84399  10.780   6.133   3.259  0.8898 -1.1614  0.8854
  612MOL0     H84400  10.856   6.117   3.414  0.5371  1.8859 -2.6637
  612MOL0     H84401  10.740   5.913   3.343  2.9313  1.3208  0.3462
  612MOL0     H84402  10.575   5.998   3.341 -0.1068  2.4287  0.7156
  612MOL0     H84403  10.760   5.940   3.589  0.2376 -2.6206  1.2700
  612MOL0     H84404  10.612   6.038   3.590 -0.9037 -0.9017  0.6645
  612MOL0     H84405  10.374   5.883   3.486 -0.4048  1.1626  1.8234
  612MOL0     H84406  10.334   5.497   3.467 -0.9161  1.2208 -1.6919
  612MOL0     H84407  10.259   5.659   3.456  2.6527  1.1946 -1.6432
  612MOL0     H84408  10.314   5.518   3.734 -0.6382  0.1012  0.3419
  612MOL0     H84409  10.192   5.636   3.695 -2.6644  0.3316 -2.8108
  612MOL0     H84410  10.039   5.481   3.592 -2.2291 -4.6244 -0.4351
  612MOL0     H84411  10.164   5.353   3.584 -2.7015  0.5037 -0.1343
  612MOL0     H84412  10.067   5.496   3.831 -1.9206 -0.8549  2.6853
  612MOL0     H84413  10.007   5.341   3.759  0.5214 -2.4747  0.2969
  612MOL0     H84414  10.369   5.202   3.979  0.4803 -4.8629  0.1357
  612MOL0     H84415  10.450   5.013   4.117 -0.8792 -0.7219 -0.7077
  612MOL0     H84416  10.331   4.941   4.226 -1.8871 -0.2994 -1.1804
  612MOL0     H84417  10.409   5.103   4.251 -0.0297 -1.3299  1.1900
  612MOL0     H84418   9.886   4.706   4.338  0.4670 -2.5586  2.5542
  612MOL0     H84419   9.760   4.628   4.509 -3.6512  2.2455 -0.3677
  612MOL0     H84420   9.546   4.629   4.689 -0.5942  0.5831  2.6909
  612MOL0     H84421   9.707   4.565   4.714 -1.3301 -2.4243 -0.9321
  612MOL0     H84422   9.682   4.620   4.975 -1.8941  4.1848  1.0656
  612MOL0     H84423   9.532   4.684   4.936 -2.2435  0.7409 -3.2099
  612MOL0     H84424   9.571   4.426   4.988  0.7425 -1.5041 -0.3670
  612MOL0     H84425   9.561   4.407   4.815 -0.5782  1.1886 -1.1422
  612MOL0     H84426   9.344   4.592   4.924  0.8311  1.8154 -2.5294
  612MOL0     H84427   9.332   4.418   4.959  1.9077 -1.9839 -0.9204
  612MOL0     H84428   9.362   4.540   4.690 -2.6301  0.6000  0.0193
  612MOL0     H84429   9.356   4.365   4.713  0.7560 -0.7596  1.3632
  612MOL0     H84430   9.154   4.585   4.750 -0.2371  0.6306 -2.6391
  612MOL0     H84431   9.132   4.416   4.813  2.6754 -0.9803  0.8525
  612MOL0     H84432   9.115   4.335   4.604 -1.5040  0.6429 -1.1374
  612MOL0     H84433   9.214   4.463   4.525 -0.3174 -0.2031  0.0000
  612MOL0     H84434   8.996   4.514   4.446  0.8095 -0.4505  0.9637
  612MOL0     H84435   9.009   4.616   4.589  1.2231  0.5717 -2.0276
  612MOL0     H84436   9.756   5.027   4.679  0.7097 -0.3019  1.1640
  612MOL0     H84437   9.854   5.102   4.482 -3.4421  0.5270  0.8365
  612MOL0     H84438   9.902   5.181   4.132  0.0616  0.9032 -0.6499
  612MOL0     H84439   9.954   5.307   3.951  0.5297  1.3996  3.2983
  612MOL0     H84440  10.421   6.717   3.137  1.8073  1.6736 -3.2572
  612MOL0     H84441  10.273   6.897   3.041 -0.1939 -1.7012 -0.6344
  612MOL0     H84442  10.369   7.321   2.862  0.9383 -0.7464  3.0612
  612MOL0     H84443  10.230   7.441   2.698  1.5181  1.6870  2.1545
  612MOL0     H84444  10.102   7.607   2.623 -1.4815  0.6220 -1.9281
  612MOL0     H84445  10.017   7.451   2.579  0.7569 -0.1580 -1.2730
  612MOL0     H84446   9.912   7.736   2.605 -1.3238  0.1234  1.7983
  612MOL0     H84447   9.802   7.604   2.560 -0.0991  0.9519 -0.9332
  612MOL0     H84448   9.908   7.751   2.375 -0.1143 -1.1587 -0.3061
  612MOL0     H84449  10.066   7.671   2.413  0.3548  1.6542 -1.7631
  612MOL0     H84450   9.824   7.500   2.350  0.8035 -2.4623  1.0029
  612MOL0     H84451   9.996   7.472   2.332 -0.8823  0.0033 -1.5316
  612MOL0     H84452   9.855   7.625   1.954  1.9164 -1.3869 -0.3728
  612MOL0     H84453   9.908   7.447   2.984 -0.2869  0.8474 -0.3225
  612MOL0     H84454  10.120   7.347   3.268 -2.7177  1.3893  4.0026
  612MOL0     H84455   9.982   7.438   3.228  0.0420  2.0517 -3.7325
  612MOL0     H84456   9.987   7.256   3.199  0.4140 -0.0517  0.4805
  613MOL0     O84457   4.732   4.958   6.222  0.1182 -0.4596  0.1839
  613MOL0     C84458   4.790   4.981   6.329 -1.3382 -0.4108 -0.0651
  613MOL0     O84459   4.910   4.939   6.368 -1.5235 -0.1543  0.6677
  613MOL0     C84460   4.993   4.859   6.288 -1.0460 -0.1781  0.6614
  613MOL0     C84461   5.123   4.846   6.332  0.2715  0.1250  0.4649
  613MOL0     C84462   5.218   4.761   6.284  0.1521 -0.0527 -0.2072
  613MOL0     C84463   5.178   4.663   6.191  0.0927 -0.2607 -0.3918
  613MOL0     O84464   5.275   4.577   6.150 -0.0639 -0.5575  0.3895
  613MOL0     C84465   5.251   4.528   6.014 -0.0380  0.3850  0.5169
  613MOL0     C84466   5.387   4.516   5.938  0.1815  0.0276  0.8306
  613MOL0     C84467   5.439   4.650   5.877 -0.2549  0.4870 -0.2007
  613MOL0     C84468   5.581   4.652   5.829 -0.3142  0.2783  0.3731
  613MOL0     C84469   5.689   4.670   5.931  0.9007 -0.1172  0.6065
  613MOL0     C84470   5.815   4.623   5.852 -0.3880 -0.7157  0.1738
  613MOL0     C84471   5.952   4.640   5.923 -0.6809  0.2655  0.1072
  613MOL0     C84472   5.981   4.781   5.975  0.5423 -0.6525 -0.6247
  613MOL0     N84473   6.023   4.866   5.857  0.2574 -0.7050  0.0182
  613MOL0     C84474   5.949   4.933   5.763 -1.1574 -0.6513 -0.1070
  613MOL0     C84475   6.046   4.964   5.667 -0.1954  0.9985  0.4267
  613MOL0     C84476   6.032   5.043   5.533 -1.6059 -0.1780 -1.2311
  613MOL0     C84477   5.945   4.956   5.438  0.5032  0.1551 -0.2166
  613MOL0     C84478   5.882   5.051   5.326 -0.2639 -0.8066  0.1995
  613MOL0     C84479   5.992   5.133   5.252  1.3751 -0.0556  0.0315
  613MOL0     O84480   6.088   5.051   5.190  0.2342  0.0282  0.0659
  613MOL0     C84481   6.205   5.121   5.168 -0.2004 -0.2595 -0.0571
  613MOL0     C84482   6.224   5.215   5.072  0.0191  0.9415  1.2815
  613MOL0     C84483   6.345   5.269   5.044  0.5786 -1.4660 -0.7950
  613MOL0     C84484   6.346   5.366   4.925  0.5009  0.1951 -0.2386
  613MOL0     C84485   6.466   5.228   5.114 -0.5713  0.2177  0.2819
  613MOL0     C84486   6.598   5.287   5.101  0.5734  0.1760 -0.5544
  613MOL0     O84487   6.698   5.217   5.162  0.0361 -0.3030 -0.0020
  613MOL0     C84488   6.820   5.280   5.152 -0.2111  0.1408 -0.2585
  613MOL0     C84489   6.922   5.245   5.066 -0.1377 -0.4902  0.1734
  613MOL0     C84490   7.047   5.306   5.076  0.1474 -0.2004  1.2087
  613MOL0     C84491   7.072   5.411   5.162 -0.0213 -0.4576 -0.9655
  613MOL0     O84492   7.200   5.462   5.168 -0.5015 -0.1123  0.6510
  613MOL0     C84493   7.238   5.570   5.245 -0.0875  0.3142 -0.2030
  613MOL0     C84494   7.214   5.694   5.161 -1.3608  0.2840  1.1407
  613MOL0     C84495   7.205   5.819   5.232 -0.2275 -1.1151  0.6731
  613MOL0     C84496   7.101   5.846   5.346  0.3058 -0.7799  0.6464
  613MOL0     C84497   7.077   5.993   5.392 -0.5719  0.2487  0.5957
  613MOL0     C84498   6.991   6.073   5.298  0.8396 -0.1043  0.2462
  613MOL0     C84499   6.946   6.211   5.363 -0.4351 -0.0538 -0.3359
  613MOL0     C84500   7.066   6.311   5.365 -0.9201 -0.7621  0.0764
  613MOL0    Cl84501   7.008   6.467   5.424 -0.4234  0.0499 -0.3639
  613MOL0     C84502   6.964   5.450   5.244  0.0920 -0.0756  0.0234
  613MOL0     C84503   6.838   5.387   5.238 -0.3701 -0.5315 -0.6160
  613MOL0     O84504   6.607   5.395   5.044 -0.7518 -0.2019  0.8825
  613MOL0     C84505   6.443   5.125   5.207 -1.0415 -0.5983 -0.0064
  613MOL0     C84506   6.318   5.068   5.227  0.0559 -0.6458 -0.3556
  613MOL0     N84507   6.167   4.904   5.699 -0.1109  0.0882  0.0059
  613MOL0     N84508   6.148   4.859   5.814  0.1447  0.2833 -0.2016
  613MOL0     C84509   5.046   4.665   6.149  0.5154 -0.3101 -0.9256
  613MOL0     C84510   4.957   4.769   6.195 -0.3971 -0.1393  0.1062
  613MOL0     C84511   4.724   5.079   6.424 -0.6194 -0.0285  0.9002
  613MOL0     C84512   4.714   5.041   6.559  0.4939 -0.8270 -0.0649
  613MOL0     C84513   4.640   5.121   6.648 -0.5106  0.7274  0.8431
  613MOL0     C84514   4.593   5.251   6.602  0.0225  0.8605 -0.4631
  613MOL0     O84515   4.543   5.338   6.693 -0.1127 -0.2123  0.2114
  613MOL0     C84516   4.482   5.462   6.658  0.2481 -0.0922 -0.1189
  613MOL0     C84517   4.414   5.534   6.777 -0.4897 -0.2309 -0.2326
  613MOL0     C84518   4.532   5.569   6.871 -0.2709  0.4056 -0.5293
  613MOL0     C84519   4.496   5.646   6.992  0.5630  0.0991 -1.3613
  613MOL0     C84520   4.411   5.758   6.961  0.1441 -1.4070 -0.1527
  613MOL0     C84521   4.348   5.862   6.950 -0.0847  0.1807  0.2349
  613MOL0     C84522   4.607   5.286   6.471 -0.0742  0.7354  0.1288
  613MOL0     C84523   4.663   5.201   6.376 -0.3642 -0.1908  0.5859
  613MOL0     C84524   4.682   5.265   6.237  0.6506 -0.2709 -0.4971
  613MOL0     H84525   5.155   4.886   6.428 -0.3264  2.2428 -0.1755
  613MOL0     H84526   5.318   4.742   6.321  0.9451  0.9958 -1.6943
  613MOL0     H84527   5.202   4.601   5.949  4.8705  1.4055 -2.5842
  613MOL0     H84528   5.206   4.429   6.009 -1.4106  0.9372  1.2436
  613MOL0     H84529   5.466   4.477   6.003  0.9889 -0.1499 -0.2242
  613MOL0     H84530   5.373   4.446   5.855  0.6112  0.2808  0.5412
  613MOL0     H84531   5.369   4.674   5.797  0.0007 -0.5778 -0.7543
  613MOL0     H84532   5.424   4.724   5.957  1.2496  1.3423 -0.6715
  613MOL0     H84533   5.609   4.566   5.768 -1.9498 -1.5904  2.1264
  613MOL0     H84534   5.573   4.740   5.765 -1.6143  0.5273  0.8389
  613MOL0     H84535   5.669   4.601   6.013 -0.1257 -2.9621 -1.8706
  613MOL0     H84536   5.688   4.773   5.969 -0.2818 -0.2000  0.8267
  613MOL0     H84537   5.806   4.523   5.808  0.3519 -1.2646  1.2253
  613MOL0     H84538   5.808   4.696   5.770 -3.2717 -0.0951  0.8647
  613MOL0     H84539   6.029   4.631   5.846  1.6539  3.4916  1.7849
  613MOL0     H84540   5.961   4.562   5.999 -0.8215 -0.9856 -1.1235
  613MOL0     H84541   5.892   4.830   6.014 -0.4282  0.7500 -4.1513
  613MOL0     H84542   6.060   4.789   6.050 -0.8770 -0.4667  0.8945
  613MOL0     H84543   5.842   4.949   5.759 -1.3265 -1.8954 -2.3020
  613MOL0     H84544   6.129   5.062   5.486 -0.4936  1.3661  1.4862
  613MOL0     H84545   5.994   5.143   5.558  2.2170  0.9205  0.9201
  613MOL0     H84546   5.996   4.868   5.398 -1.9818 -1.5362  0.1559
  613MOL0     H84547   5.857   4.921   5.492  0.9591 -0.7444 -0.0405
  613MOL0     H84548   5.819   4.986   5.264 -2.4323 -0.0434  1.4945
  613MOL0     H84549   5.813   5.113   5.383 -0.6796 -1.8450  0.8498
  613MOL0     H84550   5.950   5.199   5.174  1.0803  0.3695  0.5424
  613MOL0     H84551   6.033   5.204   5.324  0.3737  0.7135 -0.1308
  613MOL0     H84552   6.140   5.243   5.009  0.3980 -0.4240  0.1130
  613MOL0     H84553   6.319   5.469   4.949  0.0261  0.4208 -1.6487
  613MOL0     H84554   6.279   5.337   4.843 -0.1254  1.7292 -0.3120
  613MOL0     H84555   6.446   5.367   4.880  1.2467 -0.8183  1.3100
  613MOL0     H84556   6.909   5.164   4.995 -1.7404 -0.1433  0.0247
  613MOL0     H84557   7.139   5.269   5.031  0.8408 -1.0681  3.2221
  613MOL0     H84558   7.177   5.576   5.336  0.6090 -2.3109  0.5025
  613MOL0     H84559   7.342   5.573   5.280 -0.7986  2.2024  2.0631
  613MOL0     H84560   7.293   5.684   5.087 -2.2951 -3.8202  0.4511
  613MOL0     H84561   7.120   5.683   5.105 -0.3745 -1.7030 -0.2172
  613MOL0     H84562   7.190   5.896   5.155  2.1486 -0.4627  0.7807
  613MOL0     H84563   7.304   5.840   5.273  0.9286 -0.7289 -2.1475
  613MOL0     H84564   7.153   5.788   5.422 -0.6856  0.7114  2.5436
  613MOL0     H84565   7.006   5.802   5.315 -0.1244  1.0597 -0.8718
  613MOL0     H84566   7.030   5.991   5.491  1.0488 -0.6138  1.3988
  613MOL0     H84567   7.177   6.036   5.405 -0.1910 -0.3349 -0.3282
  613MOL0     H84568   6.902   6.015   5.272  1.8396 -0.8085 -1.8160
  613MOL0     H84569   7.038   6.094   5.202  3.3640 -1.8983  0.9991
  613MOL0     H84570   6.918   6.207   5.468  0.2461  4.4589  0.2353
  613MOL0     H84571   6.852   6.251   5.325 -0.4368 -2.0931 -2.7699
  613MOL0     H84572   7.117   6.330   5.271 -0.2768  1.9566  0.9111
  613MOL0     H84573   7.139   6.270   5.436  0.5335  2.1119  0.3485
  613MOL0     H84574   6.977   5.542   5.301  1.8787  0.6398 -1.4542
  613MOL0     H84575   6.758   5.418   5.304 -0.4142  0.1726 -0.9982
  613MOL0     H84576   6.530   5.097   5.266  1.2552  3.5237 -1.0766
  613MOL0     H84577   6.301   4.995   5.306  1.1377  2.5077  3.0308
  613MOL0     H84578   5.001   4.592   6.082  0.5900 -1.6082  0.3952
  613MOL0     H84579   4.850   4.763   6.182 -0.6798 -0.0639  2.2039
  613MOL0     H84580   4.759   4.950   6.598 -0.2059 -0.5154  1.5601
  613MOL0     H84581   4.630   5.090   6.751 -2.1229 -0.0244  0.4912
  613MOL0     H84582   4.551   5.533   6.613 -0.3830 -0.5290 -1.8406
  613MOL0     H84583   4.406   5.442   6.581 -0.0034  0.6624 -0.0781
  613MOL0     H84584   4.343   5.464   6.821 -0.0302 -2.1000 -2.2950
  613MOL0     H84585   4.360   5.621   6.736  0.4207 -0.6819 -2.5431
  613MOL0     H84586   4.556   5.471   6.913  1.3014  1.4589  1.1862
  613MOL0     H84587   4.625   5.607   6.827  1.3677  1.1608  3.1879
  613MOL0     H84588   4.589   5.667   7.046 -0.2352 -0.1616  0.1911
  613MOL0     H84589   4.445   5.586   7.068 -3.1495  0.2898 -3.4800
  613MOL0     H84590   4.295   5.953   6.933  0.4666  0.7107  1.2700
  613MOL0     H84591   4.562   5.379   6.439 -3.1029  0.1637  2.2798
  613MOL0     H84592   4.734   5.360   6.255 -2.7056  1.4788  0.7851
  613MOL0     H84593   4.754   5.206   6.178  0.7008 -0.9783  0.2623
  613MOL0     H84594   4.597   5.299   6.178 -0.8058 -2.7290  0.0705
  614MOL0     O84595   3.108   3.472  11.519  0.4032  0.8645 -0.7755
  614MOL0     C84596   3.132   3.569  11.583 -1.6758  0.6681 -0.0223
  614MOL0     O84597   3.200   3.573  11.707  0.0490  0.5784 -0.0970
  614MOL0     C84598   3.280   3.465  11.746  0.5383  0.5167  0.2359
  614MOL0     C84599   3.307   3.465  11.883  0.0868  0.4917 -0.2738
  614MOL0     C84600   3.370   3.353  11.949  0.2786  0.2973 -0.4410
  614MOL0     C84601   3.397   3.233  11.885  0.0678 -0.6295  0.1357
  614MOL0     O84602   3.446   3.126  11.945  0.3014 -0.0261 -0.1627
  614MOL0     C84603   3.574   3.088  11.888  0.0700  0.4847 -0.0672
  614MOL0     C84604   3.568   2.934  11.845  0.5192 -0.2491  0.3641
  614MOL0     C84605   3.588   2.841  11.966  0.8270 -0.3525  0.5981
  614MOL0     C84606   3.733   2.847  12.030  0.9964 -0.3669  0.5516
  614MOL0     C84607   3.835   2.771  11.932 -0.2042  0.7752  0.2071
  614MOL0     C84608   3.821   2.618  11.927  0.3573 -0.2910 -0.7749
  614MOL0     C84609   3.948   2.541  11.882  0.3622 -0.5636  0.6494
  614MOL0     C84610   3.985   2.573  11.741  0.0769 -0.4454  0.1055
  614MOL0     N84611   3.889   2.530  11.642 -0.4616  0.6111  0.5004
  614MOL0     C84612   3.861   2.392  11.620  0.1588  0.6882 -0.3835
  614MOL0     C84613   3.777   2.396  11.509 -0.6692  0.1989 -1.0548
  614MOL0     C84614   3.760   2.275  11.434  0.6189  0.0433  0.2862
  614MOL0     C84615   3.620   2.257  11.392  0.9072 -1.0600  0.6545
  614MOL0     C84616   3.606   2.108  11.379 -1.2410 -0.0299  0.6383
  614MOL0     C84617   3.482   2.071  11.299 -1.3712  0.1180 -0.8972
  614MOL0     O84618   3.507   1.947  11.223 -0.1317  0.2879  0.3466
  614MOL0     C84619   3.572   1.836  11.288  0.0993 -1.0911 -1.2795
  614MOL0     C84620   3.531   1.802  11.418 -0.1872  0.1465  0.5268
  614MOL0     C84621   3.602   1.697  11.482  0.1210 -0.8242  0.3612
  614MOL0     C84622   3.573   1.675  11.627 -0.5743  0.2977  0.5264
  614MOL0     C84623   3.709   1.627  11.424  0.2555 -0.0053  0.6865
  614MOL0     C84624   3.789   1.523  11.475 -0.5606 -0.4423  0.5430
  614MOL0     O84625   3.843   1.441  11.383  0.0783  0.0110  0.2377
  614MOL0     C84626   3.931   1.347  11.419 -0.7257 -0.8091  0.7764
  614MOL0     C84627   3.898   1.211  11.396 -0.2018 -0.1257  0.0645
  614MOL0     C84628   3.986   1.114  11.429  0.1739 -1.1455  0.7480
  614MOL0     C84629   4.111   1.140  11.479 -0.3941  0.2267  0.2395
  614MOL0     O84630   4.192   1.036  11.502 -0.5698  0.2649 -0.3648
  614MOL0     C84631   4.200   0.921  11.413 -0.7919  0.3339  0.1064
  614MOL0     C84632   4.336   0.864  11.416  0.7144  0.1126  0.1695
  614MOL0     C84633   4.396   0.836  11.271  0.1974 -0.5245  0.3265
  614MOL0     C84634   4.545   0.795  11.289 -0.3323  0.4422  0.1713
  614MOL0     C84635   4.617   0.707  11.188 -0.5525 -0.7969 -0.5369
  614MOL0     C84636   4.631   0.788  11.061  0.3232 -1.3735  0.0361
  614MOL0     C84637   4.746   0.894  11.067 -0.3175 -0.9021 -0.8433
  614MOL0     C84638   4.729   0.991  10.951  0.7681 -0.5817  0.3634
  614MOL0    Cl84639   4.899   1.058  10.903  0.2959  0.0071  0.0175
  614MOL0     C84640   4.145   1.266  11.522 -0.0112 -0.1080 -0.0371
  614MOL0     C84641   4.059   1.373  11.483 -0.6645  0.1148  0.1439
  614MOL0     O84642   3.821   1.524  11.595  0.7331  0.3493  0.9676
  614MOL0     C84643   3.743   1.674  11.294 -0.0673 -0.4777  0.0053
  614MOL0     C84644   3.675   1.772  11.221  0.0594  0.7591  0.0721
  614MOL0     N84645   3.752   2.532  11.477  0.2931  0.4156  0.4690
  614MOL0     N84646   3.816   2.604  11.556 -0.5819  0.6368 -0.1096
  614MOL0     C84647   3.368   3.232  11.744  0.8577 -0.2566 -0.0269
  614MOL0     C84648   3.310   3.343  11.680  0.0565 -0.1888 -0.6387
  614MOL0     C84649   3.113   3.717  11.534  0.0176  0.4089  0.5566
  614MOL0     C84650   3.203   3.812  11.575  0.8509 -0.3528  0.0732
  614MOL0     C84651   3.180   3.940  11.531  0.3217  0.1705 -0.1632
  614MOL0     C84652   3.095   3.977  11.429  1.4653 -0.2317 -0.0686
  614MOL0     O84653   3.094   4.109  11.397  0.0768  0.2762 -0.7066
  614MOL0     C84654   3.001   4.151  11.299  0.1575  0.7808  0.7553
  614MOL0     C84655   3.034   4.288  11.252  0.2726 -0.9278  0.2349
  614MOL0     C84656   2.957   4.349  11.121  0.1408 -0.7765 -0.7617
  614MOL0     C84657   2.975   4.500  11.121  0.0829  0.3654 -0.5340
  614MOL0     C84658   3.104   4.526  11.063 -0.2376  0.4238  0.6677
  614MOL0     C84659   3.215   4.536  11.028  0.2604  0.6563  0.7568
  614MOL0     C84660   2.999   3.877  11.389 -0.5636  1.0424 -0.3250
  614MOL0     C84661   3.013   3.748  11.434  0.5721 -0.4000 -0.2074
  614MOL0     C84662   2.908   3.660  11.391  0.6715 -1.2470  0.0411
  614MOL0     H84663   3.277   3.554  11.938 -0.4235  0.3551 -0.3244
  614MOL0     H84664   3.393   3.359  12.055 -3.3355  0.9294  0.4367
  614MOL0     H84665   3.653   3.103  11.962  0.8906 -2.2975 -0.2489
  614MOL0     H84666   3.600   3.135  11.793  3.8017  0.0488  0.5973
  614MOL0     H84667   3.478   2.913  11.786  0.7495 -1.0685  0.2918
  614MOL0     H84668   3.650   2.921  11.774 -1.7900  3.7022 -3.5421
  614MOL0     H84669   3.508   2.863  12.039 -2.7558 -1.6517 -2.5857
  614MOL0     H84670   3.555   2.742  11.932  1.2081 -0.9098  1.8107
  614MOL0     H84671   3.765   2.950  12.048 -0.8833 -0.4255  5.5596
  614MOL0     H84672   3.744   2.794  12.124  1.3804  0.0604  0.7504
  614MOL0     H84673   3.937   2.805  11.954  1.1043 -1.5679 -1.7839
  614MOL0     H84674   3.822   2.798  11.827  2.1500  0.4257 -0.2319
  614MOL0     H84675   3.805   2.584  12.029 -0.3095  1.5503 -0.2392
  614MOL0     H84676   3.739   2.586  11.862 -2.5777  0.2042  2.4244
  614MOL0     H84677   3.946   2.433  11.893 -0.0224 -0.6251  0.0256
  614MOL0     H84678   4.024   2.584  11.948  2.4056 -0.5022 -1.6132
  614MOL0     H84679   3.988   2.682  11.746  2.7783 -0.4791  1.5592
  614MOL0     H84680   4.084   2.530  11.720 -0.1837  0.0607 -2.5153
  614MOL0     H84681   3.916   2.307  11.659 -2.6006 -1.3194 -0.5575
  614MOL0     H84682   3.801   2.192  11.494 -1.7944 -1.1541  0.3920
  614MOL0     H84683   3.828   2.288  11.349 -0.9452 -0.2992 -1.0779
  614MOL0     H84684   3.553   2.301  11.468  0.9721  2.1393 -0.9520
  614MOL0     H84685   3.602   2.312  11.299  0.8505  1.7265  2.1694
  614MOL0     H84686   3.687   2.071  11.316 -2.8640 -0.5328 -1.2659
  614MOL0     H84687   3.600   2.057  11.476 -0.8806 -0.0664  0.6422
  614MOL0     H84688   3.392   2.072  11.361  0.1122  2.0933  1.4153
  614MOL0     H84689   3.472   2.150  11.225  1.9829  0.4080 -1.1763
  614MOL0     H84690   3.457   1.868  11.463 -2.2325 -1.6018 -0.1182
  614MOL0     H84691   3.663   1.674  11.689 -0.9792  0.3641  1.1164
  614MOL0     H84692   3.516   1.585  11.646  1.8996 -1.3666  0.5688
  614MOL0     H84693   3.515   1.762  11.661  0.0765  0.2159  1.9009
  614MOL0     H84694   3.803   1.197  11.345  0.0112  0.0666 -0.3929
  614MOL0     H84695   3.953   1.012  11.413 -2.7473 -0.4720  1.8619
  614MOL0     H84696   4.119   0.858  11.451 -2.0471  2.8321  1.8895
  614MOL0     H84697   4.173   0.950  11.311 -2.1220 -1.2992 -0.0494
  614MOL0     H84698   4.397   0.930  11.479 -1.1928  1.1376  1.0382
  614MOL0     H84699   4.338   0.765  11.461 -0.2639 -0.2874 -0.6321
  614MOL0     H84700   4.381   0.925  11.209 -3.0369 -1.3060 -0.2030
  614MOL0     H84701   4.347   0.759  11.210 -0.1564  0.5744 -0.8141
  614MOL0     H84702   4.555   0.741  11.384  1.8331  0.8585  0.2184
  614MOL0     H84703   4.603   0.886  11.309  0.4379  0.0951 -0.4546
  614MOL0     H84704   4.716   0.674  11.221 -0.0949  0.4060 -0.6494
  614MOL0     H84705   4.553   0.619  11.176 -1.5549 -0.3384  1.0950
  614MOL0     H84706   4.535   0.837  11.044 -0.0788 -0.6261  3.5758
  614MOL0     H84707   4.648   0.722  10.976  0.0656 -0.6757 -0.5723
  614MOL0     H84708   4.842   0.843  11.081 -1.7055 -3.3691  0.2024
  614MOL0     H84709   4.739   0.962  11.153 -1.2736 -1.9341 -0.0881
  614MOL0     H84710   4.676   1.082  10.977  1.3269 -0.4733  1.1638
  614MOL0     H84711   4.692   0.929  10.869 -0.6723  0.8555 -0.1200
  614MOL0     H84712   4.239   1.289  11.570 -0.6133  1.3834  0.4566
  614MOL0     H84713   4.089   1.473  11.513 -1.5748  0.2966  0.4841
  614MOL0     H84714   3.835   1.633  11.252 -0.1032 -0.4182 -0.1333
  614MOL0     H84715   3.700   1.798  11.119  0.9162 -0.4184 -0.0376
  614MOL0     H84716   3.390   3.141  11.689  6.2485  0.2918  0.6767
  614MOL0     H84717   3.286   3.340  11.574 -1.2982 -0.0324 -0.3653
  614MOL0     H84718   3.288   3.786  11.636 -1.1817  1.1467  3.8378
  614MOL0     H84719   3.243   4.015  11.577  0.2086 -0.2376  0.6684
  614MOL0     H84720   2.991   4.085  11.213  0.8874  1.5007  0.0936
  614MOL0     H84721   2.903   4.157  11.348 -0.6305 -3.0327 -0.0609
  614MOL0     H84722   3.141   4.309  11.242  0.9733 -0.8560  5.2973
  614MOL0     H84723   3.008   4.356  11.334 -3.1076  1.3566 -2.4333
  614MOL0     H84724   2.988   4.300  11.028  1.0224  2.0095 -2.0632
  614MOL0     H84725   2.851   4.328  11.133 -0.4512  0.8844 -2.4204
  614MOL0     H84726   2.958   4.549  11.217  2.6475  0.5111 -0.0904
  614MOL0     H84727   2.898   4.542  11.056  0.3137  0.3577 -0.8157
  614MOL0     H84728   3.315   4.567  11.004 -0.7303  1.0852 -3.6025
  614MOL0     H84729   2.913   3.895  11.325 -0.2631 -0.9130 -1.3740
  614MOL0     H84730   2.892   3.579  11.463 -0.8761  0.3989  1.6613
  614MOL0     H84731   2.812   3.707  11.370  0.8589 -0.8950 -0.0323
  614MOL0     H84732   2.938   3.605  11.302 -3.2858 -2.5367 -0.7122
  615MOL0     O84733   3.230   8.784   6.445 -0.2163  0.0821  0.9896
  615MOL0     C84734   3.319   8.852   6.467  0.0297 -0.0071 -0.4014
  615MOL0     O84735   3.357   8.900   6.593  0.6353 -0.3496 -0.6013
  615MOL0     C84736   3.298   8.847   6.704  0.8637 -0.3637  0.0106
  615MOL0     C84737   3.368   8.764   6.790  0.1592 -0.2998 -0.0994
  615MOL0     C84738   3.303   8.698   6.900 -1.0096  0.4044 -0.0892
  615MOL0     C84739   3.165   8.714   6.923 -0.0590  0.9230 -0.5709
  615MOL0     O84740   3.116   8.632   7.021  0.3046 -0.1856  0.5214
  615MOL0     C84741   2.980   8.616   7.021  0.7772  0.2580 -0.2049
  615MOL0     C84742   2.950   8.485   7.094  0.5267  0.1116 -0.9030
  615MOL0     C84743   2.985   8.515   7.239 -0.4126  0.2793  0.5122
  615MOL0     C84744   2.911   8.403   7.321 -0.8776 -0.7088 -0.6252
  615MOL0     C84745   2.941   8.421   7.471 -0.6569  0.4629  0.0996
  615MOL0     C84746   2.901   8.300   7.552  0.2364  0.8450  0.2644
  615MOL0     C84747   2.744   8.273   7.561 -0.8665  0.8039  0.4585
  615MOL0     C84748   2.658   8.398   7.559 -1.3555  0.4512  0.3935
  615MOL0     N84749   2.531   8.366   7.612  0.1871 -0.9707 -0.5086
  615MOL0     C84750   2.493   8.349   7.746 -0.7799  0.2907 -0.4474
  615MOL0     C84751   2.358   8.332   7.725 -0.1820  0.5962 -0.7606
  615MOL0     C84752   2.260   8.284   7.830 -0.1802  0.2275  0.2324
  615MOL0     C84753   2.125   8.363   7.828  0.5493 -0.4292  0.5905
  615MOL0     C84754   2.139   8.512   7.870 -0.6613 -0.9309  0.1154
  615MOL0     C84755   2.005   8.581   7.882  0.3775 -0.4226  0.3291
  615MOL0     O84756   1.958   8.547   8.012  0.5835 -0.4197  0.0895
  615MOL0     C84757   1.832   8.584   8.030  0.4159  0.5984 -0.8354
  615MOL0     C84758   1.727   8.590   7.937  0.0225 -0.6034  0.7552
  615MOL0     C84759   1.607   8.648   7.973  0.9987  0.4832  0.7210
  615MOL0     C84760   1.510   8.663   7.848 -0.4679 -0.0266  0.4058
  615MOL0     C84761   1.579   8.686   8.107  0.4152 -1.1822 -0.7673
  615MOL0     C84762   1.456   8.759   8.150  0.0119 -0.2616  0.4999
  615MOL0     O84763   1.349   8.775   8.066  0.1453  0.0385 -0.1851
  615MOL0     C84764   1.226   8.828   8.094 -0.1595 -0.4103  0.8513
  615MOL0     C84765   1.155   8.803   8.215 -0.4551 -0.4049 -0.3515
  615MOL0     C84766   1.016   8.850   8.235  0.3289 -0.9974 -0.0566
  615MOL0     C84767   0.968   8.929   8.132  0.0679  0.4574  0.2895
  615MOL0     O84768   0.832   8.965   8.120  0.3311 -0.3256 -0.6258
  615MOL0     C84769   0.728   8.881   8.162  0.0521  0.2906 -0.4057
  615MOL0     C84770   0.623   8.864   8.051 -0.2037  0.5258 -0.0436
  615MOL0     C84771   0.499   8.779   8.104 -0.5978  0.2851  0.5399
  615MOL0     C84772   0.416   8.723   7.993 -0.5741 -0.6977  0.5704
  615MOL0     C84773   0.266   8.693   8.026 -0.7313  0.7695 -0.5716
  615MOL0     C84774   0.272   8.583   8.137 -0.3107  0.2761  0.3595
  615MOL0     C84775   0.125   8.557   8.184  0.4733  0.5018 -0.3587
  615MOL0     C84776   0.120   8.460   8.293  0.9728  0.3355  0.0198
  615MOL0    Cl84777   0.188   8.295   8.270  0.2471 -0.2908 -0.3211
  615MOL0     C84778   1.046   8.974   8.031  0.8072 -0.3621  0.5991
  615MOL0     C84779   1.167   8.916   8.002  0.2320 -1.2217  0.0768
  615MOL0     O84780   1.446   8.786   8.268  0.0074 -0.4784 -0.4246
  615MOL0     C84781   1.681   8.674   8.197  0.0938  0.2148 -0.0621
  615MOL0     C84782   1.811   8.628   8.163  0.1650 -0.9908  0.3337
  615MOL0     N84783   2.324   8.346   7.597 -0.1573 -1.0331 -0.3407
  615MOL0     N84784   2.428   8.373   7.529  0.2570  0.0292 -0.4642
  615MOL0     C84785   3.092   8.798   6.839 -1.0040  0.1320  0.7647
  615MOL0     C84786   3.158   8.870   6.733 -0.5489 -0.4311 -0.5716
  615MOL0     C84787   3.413   8.885   6.350 -0.4874 -0.4612 -0.4890
  615MOL0     C84788   3.463   9.019   6.339 -0.6171 -0.1953 -0.3941
  615MOL0     C84789   3.560   9.047   6.245 -0.9432  0.9681  0.6609
  615MOL0     C84790   3.603   8.946   6.149  0.1410 -0.5281 -0.1613
  615MOL0     O84791   3.678   8.971   6.045  0.4451  0.1673 -0.3110
  615MOL0     C84792   3.748   9.096   6.034  0.1346  0.3513  1.3985
  615MOL0     C84793   3.689   9.202   5.946  0.2529 -0.5840 -0.1623
  615MOL0     C84794   3.720   9.186   5.793  0.0815  0.9463 -0.3063
  615MOL0     C84795   3.649   9.296   5.711 -0.2785  0.4163 -0.3603
  615MOL0     C84796   3.509   9.274   5.695  0.0174 -0.6675 -0.0484
  615MOL0     C84797   3.386   9.255   5.673  0.3376  0.2939  0.0140
  615MOL0     C84798   3.551   8.821   6.158  0.0703  0.2652 -0.2025
  615MOL0     C84799   3.458   8.783   6.260  0.5145  0.9246  0.3384
  615MOL0     C84800   3.413   8.640   6.269  1.2888 -0.1532  0.4951
  615MOL0     H84801   3.474   8.766   6.767  0.6564 -0.2417  2.0488
  615MOL0     H84802   3.361   8.636   6.969 -2.3037 -1.2277 -0.3980
  615MOL0     H84803   2.944   8.601   6.919 -1.2187 -0.4810  0.5447
  615MOL0     H84804   2.920   8.696   7.067  0.3409  0.5414 -1.2355
  615MOL0     H84805   2.844   8.460   7.091  0.3057  1.0111 -0.5701
  615MOL0     H84806   3.010   8.397   7.066  2.9706  0.5429  2.4163
  615MOL0     H84807   3.094   8.515   7.252  0.0116  2.6079 -2.1430
  615MOL0     H84808   2.951   8.615   7.264  0.2072  0.9782 -1.3002
  615MOL0     H84809   2.804   8.405   7.301 -0.5715  0.7442 -2.4731
  615MOL0     H84810   2.947   8.304   7.294 -1.1224 -1.5105  1.7912
  615MOL0     H84811   2.892   8.514   7.500  2.2798  2.3666 -0.6084
  615MOL0     H84812   3.048   8.441   7.472 -0.8125  1.5633 -1.5007
  615MOL0     H84813   2.951   8.205   7.530  1.2413  1.9284 -2.7527
  615MOL0     H84814   2.947   8.304   7.651  0.4566 -0.0147  0.2118
  615MOL0     H84815   2.714   8.220   7.652 -2.7120 -2.6631 -1.9526
  615MOL0     H84816   2.709   8.203   7.484  0.0820  0.7125  0.0995
  615MOL0     H84817   2.686   8.483   7.622 -5.7302  0.7132  2.2936
  615MOL0     H84818   2.644   8.427   7.454 -1.1856 -0.7540  0.0188
  615MOL0     H84819   2.556   8.344   7.834 -0.5578  2.9394 -0.3892
  615MOL0     H84820   2.307   8.305   7.926 -1.0499  3.4757  0.0756
  615MOL0     H84821   2.253   8.175   7.833  2.2385  0.0514  3.1474
  615MOL0     H84822   2.083   8.360   7.728  0.5104  0.1431  0.5905
  615MOL0     H84823   2.053   8.318   7.897 -0.9484  2.9589  1.4307
  615MOL0     H84824   2.205   8.527   7.956 -0.7343 -0.2696  0.0638
  615MOL0     H84825   2.199   8.571   7.800 -0.2412  2.5794  3.1765
  615MOL0     H84826   2.022   8.689   7.880 -1.2829 -0.1008  1.2324
  615MOL0     H84827   1.944   8.556   7.795  2.4262 -0.6590 -1.0977
  615MOL0     H84828   1.745   8.550   7.837  0.2118  0.7025  0.2521
  615MOL0     H84829   1.474   8.766   7.839 -2.3719 -0.4856  2.1475
  615MOL0     H84830   1.429   8.590   7.850  1.2025 -2.1257 -2.1362
  615MOL0     H84831   1.563   8.639   7.755 -2.5009  0.3941 -0.9150
  615MOL0     H84832   1.204   8.747   8.294 -3.7964 -1.1234  1.4056
  615MOL0     H84833   0.944   8.830   8.314 -2.4144  1.9816 -1.6077
  615MOL0     H84834   0.756   8.779   8.189  1.0236  0.5984 -0.2486
  615MOL0     H84835   0.676   8.933   8.243 -0.5810 -3.6935  2.0508
  615MOL0     H84836   0.594   8.962   8.013  0.7928 -0.2504 -3.1633
  615MOL0     H84837   0.676   8.822   7.965 -1.6544 -0.8484 -0.3210
  615MOL0     H84838   0.443   8.839   8.176  3.0498  3.5694  0.9811
  615MOL0     H84839   0.529   8.686   8.153  1.3334  0.3400 -0.4384
  615MOL0     H84840   0.461   8.628   7.964 -1.3208 -1.6377  2.3502
  615MOL0     H84841   0.422   8.797   7.912  1.1339  2.7042  3.5524
  615MOL0     H84842   0.231   8.785   8.073  1.2196 -0.6945  4.3600
  615MOL0     H84843   0.200   8.665   7.943 -0.9553  2.1728 -0.8927
  615MOL0     H84844   0.324   8.616   8.227 -0.8165 -1.6749  1.4347
  615MOL0     H84845   0.317   8.487   8.108  2.1674  0.7452  2.2705
  615MOL0     H84846   0.071   8.507   8.103 -0.3073 -0.4091  0.7091
  615MOL0     H84847   0.081   8.655   8.205 -1.3696 -0.1942 -0.8370
  615MOL0     H84848   0.017   8.462   8.332  1.1286 -0.3951  0.4911
  615MOL0     H84849   0.177   8.512   8.370  2.6102 -1.0925 -0.1696
  615MOL0     H84850   0.995   9.045   7.966 -0.8368 -0.7340  1.4275
  615MOL0     H84851   1.223   8.939   7.912  0.9142 -2.2880  0.2094
  615MOL0     H84852   1.667   8.703   8.301 -1.5515  0.2861 -0.2801
  615MOL0     H84853   1.898   8.633   8.227 -2.3041 -0.1637  3.9556
  615MOL0     H84854   2.986   8.822   6.851 -1.1946 -1.6145  3.0975
  615MOL0     H84855   3.091   8.933   6.674 -2.8711  0.4363  2.7334
  615MOL0     H84856   3.423   9.084   6.416 -3.5605 -2.0602 -0.1638
  615MOL0     H84857   3.595   9.149   6.235  1.0883  0.1346 -2.0517
  615MOL0     H84858   3.772   9.150   6.126  1.0915  1.2375  0.6539
  615MOL0     H84859   3.841   9.064   5.985 -1.1124 -0.9859 -0.2484
  615MOL0     H84860   3.716   9.299   5.988  0.3947  0.2928 -2.1685
  615MOL0     H84861   3.580   9.201   5.961  0.5552  2.1407  3.5624
  615MOL0     H84862   3.824   9.190   5.760  0.3554 -1.8878 -0.0961
  615MOL0     H84863   3.682   9.086   5.770  3.8245 -0.7618  0.1537
  615MOL0     H84864   3.692   9.295   5.610  2.0588 -0.4156  0.5553
  615MOL0     H84865   3.656   9.394   5.758  1.0059  1.3217 -2.3535
  615MOL0     H84866   3.280   9.243   5.665  0.2291  1.9822 -1.8123
  615MOL0     H84867   3.577   8.742   6.089  3.1888 -0.0151  1.1276
  615MOL0     H84868   3.477   8.570   6.216  1.0378 -0.4445  0.5693
  615MOL0     H84869   3.410   8.603   6.372  1.6886  1.7287  1.2153
  615MOL0     H84870   3.307   8.645   6.241  1.0037 -0.8594  1.3792
  616MOL0     O84871   8.155   3.813   8.940  0.4429  0.3587 -0.0480
  616MOL0     C84872   8.055   3.871   8.990 -0.7158  0.0687  0.7151
  616MOL0     O84873   7.971   3.954   8.924 -0.3074 -0.7088  0.0263
  616MOL0     C84874   8.021   4.027   8.822 -0.6092  0.6755  0.5316
  616MOL0     C84875   7.961   4.006   8.696  0.6494  0.5890 -0.5166
  616MOL0     C84876   7.999   4.095   8.582 -0.8323  0.0357  0.0940
  616MOL0     C84877   8.104   4.190   8.599 -0.0760  0.8259  0.9640
  616MOL0     O84878   8.128   4.274   8.494 -0.8437  0.4410 -0.9569
  616MOL0     C84879   8.268   4.308   8.467 -0.4095 -0.1760 -0.2702
  616MOL0     C84880   8.294   4.319   8.321 -0.1945 -0.2075 -0.8588
  616MOL0     C84881   8.225   4.446   8.260 -0.6084  0.8168 -0.7897
  616MOL0     C84882   8.174   4.428   8.121  0.4486 -0.2071 -0.1770
  616MOL0     C84883   8.037   4.361   8.125 -0.6095  0.5717 -0.7071
  616MOL0     C84884   7.913   4.457   8.138 -0.8796  1.4671  0.6074
  616MOL0     C84885   7.824   4.406   8.247  0.4726 -0.1587 -0.7996
  616MOL0     C84886   7.758   4.519   8.336 -0.2690 -1.4236  0.5843
  616MOL0     N84887   7.691   4.616   8.253 -1.1881  0.1309  0.6760
  616MOL0     C84888   7.584   4.589   8.179 -0.3220 -1.0091  0.5154
  616MOL0     C84889   7.567   4.709   8.119 -0.3182 -0.3535 -0.2965
  616MOL0     C84890   7.446   4.738   8.038  0.3052  0.1730 -1.0415
  616MOL0     C84891   7.334   4.788   8.129 -0.0006 -0.6954 -1.2413
  616MOL0     C84892   7.257   4.681   8.200  0.4867  0.3982 -0.5629
  616MOL0     C84893   7.263   4.691   8.355 -0.4053 -0.3810 -0.0308
  616MOL0     O84894   7.174   4.589   8.407  0.0656  0.6062 -0.3078
  616MOL0     C84895   7.223   4.518   8.514  0.6650  0.2897  0.0957
  616MOL0     C84896   7.353   4.462   8.533 -0.3049  0.1902  0.5451
  616MOL0     C84897   7.387   4.370   8.635  0.3331  0.2033  0.0208
  616MOL0     C84898   7.540   4.348   8.656  0.1116 -0.0032  0.0110
  616MOL0     C84899   7.278   4.333   8.724  0.1501 -0.7164 -0.9134
  616MOL0     C84900   7.290   4.239   8.834  0.4866  0.1954 -0.6021
  616MOL0     O84901   7.401   4.262   8.913  0.4733 -0.0187  0.1696
  616MOL0     C84902   7.446   4.156   8.988 -1.0653  0.1720 -0.7678
  616MOL0     C84903   7.386   4.129   9.108  0.7257 -0.5561  0.4393
  616MOL0     C84904   7.422   4.015   9.181 -0.0279 -0.5255  0.2578
  616MOL0     C84905   7.503   3.909   9.129  0.0705 -0.9879 -0.1888
  616MOL0     O84906   7.537   3.807   9.204  0.0253 -0.1356 -0.5342
  616MOL0     C84907   7.577   3.680   9.149 -1.0551 -0.5142  0.6993
  616MOL0     C84908   7.551   3.572   9.254  0.3069  1.3743 -0.7052
  616MOL0     C84909   7.405   3.541   9.269  1.4002 -1.1688 -1.4767
  616MOL0     C84910   7.377   3.461   9.397  0.1207  0.6561 -0.9629
  616MOL0     C84911   7.224   3.455   9.429 -0.2132  0.6190 -0.5588
  616MOL0     C84912   7.156   3.363   9.331 -1.0014  0.2301 -0.1877
  616MOL0     C84913   7.000   3.378   9.343  1.4395  0.2759 -0.2713
  616MOL0     C84914   6.904   3.358   9.217 -0.2846  0.0774 -1.0032
  616MOL0    Cl84915   6.933   3.216   9.131 -0.1332 -0.3901  0.3880
  616MOL0     C84916   7.564   3.933   9.006  0.0072 -0.7239 -0.8520
  616MOL0     C84917   7.539   4.058   8.939 -1.1960  0.0248  1.1642
  616MOL0     O84918   7.201   4.155   8.847  0.7214  0.0149  0.3517
  616MOL0     C84919   7.151   4.402   8.708  0.4490  0.6505 -0.3511
  616MOL0     C84920   7.119   4.485   8.599 -0.9999 -0.3532 -0.8084
  616MOL0     N84921   7.652   4.805   8.168 -0.0966  0.1310  0.0680
  616MOL0     N84922   7.734   4.742   8.245 -0.9609 -0.6332 -0.1258
  616MOL0     C84923   8.164   4.204   8.733  0.2404  0.4540  0.0400
  616MOL0     C84924   8.121   4.128   8.835  0.3707  0.5713 -0.6007
  616MOL0     C84925   8.021   3.829   9.133  0.3294 -0.0571  0.7765
  616MOL0     C84926   7.888   3.847   9.174  0.3101  0.7337  0.5775
  616MOL0     C84927   7.844   3.830   9.305  0.1944  0.7994  0.0052
  616MOL0     C84928   7.931   3.769   9.396 -0.2245  1.2026 -0.8759
  616MOL0     O84929   7.876   3.718   9.513  1.0958  0.3662 -0.0373
  616MOL0     C84930   7.890   3.585   9.553  0.6976 -0.5407 -0.6795
  616MOL0     C84931   7.898   3.565   9.708  0.6215  0.9564  0.6760
  616MOL0     C84932   8.030   3.633   9.767 -0.2708  0.0786  0.0077
  616MOL0     C84933   8.015   3.634   9.923 -0.2646 -0.0184 -0.5931
  616MOL0     C84934   7.915   3.740   9.960  0.1860  0.1402 -0.4057
  616MOL0     C84935   7.850   3.829  10.005  0.0165 -0.8098  0.4710
  616MOL0     C84936   8.066   3.738   9.349  0.0829  0.9879 -0.0477
  616MOL0     C84937   8.111   3.775   9.225  0.8563  0.4231 -0.3524
  616MOL0     C84938   8.262   3.766   9.216 -0.0134  0.0069 -0.1889
  616MOL0     H84939   7.880   3.934   8.691  1.3178 -0.2625  0.5373
  616MOL0     H84940   7.948   4.093   8.486 -2.2367 -1.4765  0.8010
  616MOL0     H84941   8.333   4.231   8.509  1.8191  1.9886  0.5338
  616MOL0     H84942   8.290   4.396   8.528 -2.0296 -0.5537  0.9369
  616MOL0     H84943   8.403   4.323   8.314 -0.2238 -1.0153 -1.9416
  616MOL0     H84944   8.285   4.225   8.266 -0.4559  0.8150 -2.6525
  616MOL0     H84945   8.144   4.479   8.325 -0.4538 -0.1252 -0.1068
  616MOL0     H84946   8.307   4.516   8.242  2.6783 -1.7774  2.5091
  616MOL0     H84947   8.161   4.527   8.076 -3.2676  1.0152  3.0565
  616MOL0     H84948   8.246   4.376   8.056 -0.1012 -2.2550  0.7634
  616MOL0     H84949   8.031   4.285   8.203  0.3556  0.2984 -0.8959
  616MOL0     H84950   8.028   4.305   8.032 -1.3227 -0.9350  0.2364
  616MOL0     H84951   7.939   4.562   8.156  1.7125  0.9484  0.2628
  616MOL0     H84952   7.856   4.447   8.045 -1.2980  3.6947  0.5633
  616MOL0     H84953   7.875   4.344   8.321  1.8014  1.5887 -0.1677
  616MOL0     H84954   7.742   4.344   8.210  0.5011  0.1304 -1.3609
  616MOL0     H84955   7.683   4.494   8.412 -0.4396 -1.3908  0.4270
  616MOL0     H84956   7.846   4.567   8.380  0.8093  0.1672 -2.9979
  616MOL0     H84957   7.531   4.494   8.167 -0.4071 -0.8029 -1.0624
  616MOL0     H84958   7.421   4.657   7.969  0.5663 -1.6400  0.8847
  616MOL0     H84959   7.470   4.827   7.979 -0.5061  1.3640  0.3733
  616MOL0     H84960   7.379   4.865   8.191  0.0592  1.1653 -3.4535
  616MOL0     H84961   7.270   4.852   8.068  3.3948  3.6083 -0.7650
  616MOL0     H84962   7.153   4.671   8.168  0.3204  0.0264  0.0647
  616MOL0     H84963   7.286   4.582   8.164 -3.7799 -1.8005  1.3083
  616MOL0     H84964   7.364   4.680   8.395 -0.7874 -0.6784  0.8768
  616MOL0     H84965   7.233   4.794   8.379  0.3324 -0.3618  0.8890
  616MOL0     H84966   7.424   4.485   8.454 -1.3489  0.1623 -0.4115
  616MOL0     H84967   7.610   4.407   8.595  1.3109 -1.2222  0.1497
  616MOL0     H84968   7.573   4.248   8.624  2.8782  1.2622 -1.4966
  616MOL0     H84969   7.572   4.366   8.759  3.0702  0.4223 -0.8636
  616MOL0     H84970   7.317   4.205   9.140  0.7446  0.2877 -1.3809
  616MOL0     H84971   7.384   4.009   9.282  2.5954  2.3828  1.6171
  616MOL0     H84972   7.518   3.651   9.062 -0.1724  0.5749 -0.2975
  616MOL0     H84973   7.679   3.681   9.110 -1.9595 -2.0967 -1.9110
  616MOL0     H84974   7.596   3.478   9.222 -1.5456  0.3595 -0.4987
  616MOL0     H84975   7.602   3.613   9.342 -0.7391  1.5019 -0.1392
  616MOL0     H84976   7.353   3.498   9.183  0.7976  1.8487 -2.7255
  616MOL0     H84977   7.356   3.638   9.279  4.5265  0.4639 -0.7002
  616MOL0     H84978   7.415   3.515   9.484 -4.0506  2.2316  0.0820
  616MOL0     H84979   7.422   3.361   9.389 -1.7823 -0.1389 -2.5803
  616MOL0     H84980   7.213   3.429   9.535 -0.2545  2.4702 -0.0848
  616MOL0     H84981   7.185   3.553   9.402  0.4558  0.7800 -0.9617
  616MOL0     H84982   7.194   3.265   9.360  1.9327  0.7471 -1.8926
  616MOL0     H84983   7.192   3.398   9.234  1.1364  5.0271  2.0265
  616MOL0     H84984   6.976   3.476   9.386 -2.1872  0.5091 -2.4077
  616MOL0     H84985   6.974   3.306   9.421 -4.5749  2.3654  0.1776
  616MOL0     H84986   6.925   3.442   9.150  0.2229  0.9996  0.2773
  616MOL0     H84987   6.795   3.367   9.229  0.0089  0.6382  1.8028
  616MOL0     H84988   7.637   3.863   8.968  1.2912 -0.7920  1.5071
  616MOL0     H84989   7.581   4.064   8.839  0.6700  1.4290  1.9961
  616MOL0     H84990   7.080   4.375   8.786  0.6558 -0.0666 -0.4071
  616MOL0     H84991   7.021   4.526   8.579 -1.1814 -1.3073 -1.9616
  616MOL0     H84992   8.231   4.288   8.749 -1.9577  2.2662  0.2777
  616MOL0     H84993   8.165   4.163   8.927 -2.6305  0.3276  1.0765
  616MOL0     H84994   7.806   3.876   9.108  2.1976  1.9069 -1.3764
  616MOL0     H84995   7.743   3.863   9.325 -0.4116 -1.4878  0.9473
  616MOL0     H84996   7.813   3.524   9.505  0.9304 -1.7020  0.3659
  616MOL0     H84997   7.987   3.544   9.522  0.5569 -3.5957  2.2642
  616MOL0     H84998   7.898   3.459   9.734  0.6161  0.4280 -1.2880
  616MOL0     H84999   7.802   3.607   9.740 -2.1504 -2.5438 -2.1190
  616MOL0     H85000   8.122   3.584   9.734 -1.3717 -1.2528 -1.2277
  616MOL0     H85001   8.035   3.739   9.740  1.6046 -0.6279 -2.7660
  616MOL0     H85002   8.107   3.648   9.980 -0.1659 -0.6366 -0.5908
  616MOL0     H85003   7.984   3.533   9.953  0.3252  0.3728  1.4668
  616MOL0     H85004   7.808   3.921  10.041  0.7853 -1.1447  2.3925
  616MOL0     H85005   8.122   3.690   9.429 -1.7311  2.5618  2.3038
  616MOL0     H85006   8.304   3.781   9.316 -1.6065 -3.4450  1.1552
  616MOL0     H85007   8.299   3.672   9.175  1.6908  0.2022  0.8110
  616MOL0     H85008   8.301   3.846   9.153 -2.1806 -0.3469 -2.1501
  617MOL0     O85009   3.596   7.542   7.124 -0.6666 -0.4668 -0.1407
  617MOL0     C85010   3.598   7.617   7.226 -1.7144 -0.3455  0.9069
  617MOL0     O85011   3.676   7.735   7.239  0.4443 -0.3336  0.5657
  617MOL0     C85012   3.737   7.784   7.121 -0.2046  0.3991 -0.1748
  617MOL0     C85013   3.876   7.775   7.092  0.1151  1.3918 -0.1130
  617MOL0     C85014   3.928   7.840   6.982  0.2157 -0.6843 -0.2136
  617MOL0     C85015   3.850   7.924   6.896  0.2055 -0.8179 -0.0145
  617MOL0     O85016   3.929   7.989   6.807  0.4615  0.4548 -0.5513
  617MOL0     C85017   3.861   8.008   6.679 -0.1346  0.5435 -0.6299
  617MOL0     C85018   3.923   8.117   6.606  0.4712 -0.2896  0.3978
  617MOL0     C85019   3.873   8.104   6.462  0.5140 -0.1225  0.1479
  617MOL0     C85020   3.904   8.240   6.382 -0.0430  0.5207 -0.4137
  617MOL0     C85021   4.053   8.231   6.320  0.1210  0.2636  0.9623
  617MOL0     C85022   4.120   8.364   6.278  0.0762  0.4980 -0.7952
  617MOL0     C85023   4.254   8.328   6.209  0.7531 -0.0293 -1.1994
  617MOL0     C85024   4.353   8.245   6.298 -0.1125  0.2563 -0.0854
  617MOL0     N85025   4.488   8.245   6.233  0.6762  0.1175  0.6832
  617MOL0     C85026   4.513   8.202   6.102 -0.3153 -1.1442 -0.4002
  617MOL0     C85027   4.644   8.240   6.083  0.8255  0.1511  0.1489
  617MOL0     C85028   4.719   8.200   5.963  0.4853 -0.0399  0.5049
  617MOL0     C85029   4.815   8.079   5.994 -0.0404  0.8218 -0.6476
  617MOL0     C85030   4.933   8.108   6.090 -0.7804 -0.6963  0.8971
  617MOL0     C85031   4.908   8.067   6.230 -1.1446  0.6174  0.1278
  617MOL0     O85032   4.904   7.917   6.222 -0.3974 -0.5979  0.1673
  617MOL0     C85033   4.906   7.859   6.345  0.5389 -0.0926 -0.3993
  617MOL0     C85034   4.904   7.720   6.322  0.0691  0.1334  0.3782
  617MOL0     C85035   4.919   7.630   6.425  0.5218 -0.1666 -1.0568
  617MOL0     C85036   4.922   7.486   6.379  0.0961  0.2451 -0.5968
  617MOL0     C85037   4.939   7.674   6.559 -0.0920  0.1071 -0.3617
  617MOL0     C85038   4.940   7.585   6.678  0.6010 -0.3420  0.6664
  617MOL0     O85039   4.897   7.638   6.795 -0.2822  0.2433 -0.1092
  617MOL0     C85040   4.885   7.554   6.900 -1.0555  0.2115 -0.8975
  617MOL0     C85041   4.758   7.514   6.938  0.8072 -1.5174 -0.2750
  617MOL0     C85042   4.730   7.421   7.039 -0.7566 -1.0321 -0.7088
  617MOL0     C85043   4.840   7.371   7.104  0.3159  0.4773 -0.3888
  617MOL0     O85044   4.798   7.291   7.209 -0.9706 -0.1784  0.4477
  617MOL0     C85045   4.885   7.188   7.263  0.7613 -1.7322  0.6936
  617MOL0     C85046   4.945   7.234   7.397  0.2325 -0.5321 -0.4737
  617MOL0     C85047   5.024   7.127   7.470  0.1480 -0.2251 -0.6447
  617MOL0     C85048   5.031   7.174   7.618 -0.2102  0.3134  0.0357
  617MOL0     C85049   5.054   7.065   7.733 -0.5128 -0.3433  0.8863
  617MOL0     C85050   4.952   6.952   7.733 -0.0590  0.2167 -0.8152
  617MOL0     C85051   4.973   6.861   7.847  0.5242 -0.6847 -0.5158
  617MOL0     C85052   5.113   6.811   7.855 -0.2803  1.1707  0.1929
  617MOL0    Cl85053   5.173   6.756   7.697 -0.0337 -0.0522 -0.3143
  617MOL0     C85054   4.976   7.412   7.079 -0.0589 -0.5330  0.1417
  617MOL0     C85055   4.991   7.504   6.974  0.0748  0.3002  0.7119
  617MOL0     O85056   4.979   7.472   6.667 -0.1126  0.3134 -0.5467
  617MOL0     C85057   4.925   7.815   6.575 -0.3119 -0.2620 -0.1271
  617MOL0     C85058   4.909   7.908   6.470 -0.3026 -0.5163 -0.2593
  617MOL0     N85059   4.688   8.294   6.199 -0.5278 -0.2076  0.6619
  617MOL0     N85060   4.596   8.296   6.291 -0.1769 -0.0451 -0.3073
  617MOL0     C85061   3.711   7.921   6.913 -0.4972 -0.4161  0.4208
  617MOL0     C85062   3.659   7.863   7.030  0.1352 -0.2809  0.2474
  617MOL0     C85063   3.515   7.566   7.332 -0.9050 -0.1506 -0.0305
  617MOL0     C85064   3.399   7.489   7.305  0.5946  0.3969  0.1544
  617MOL0     C85065   3.339   7.432   7.414  1.5487  0.1225 -0.4959
  617MOL0     C85066   3.372   7.457   7.551 -0.9173 -0.0748  0.4585
  617MOL0     O85067   3.296   7.413   7.660 -0.8140 -0.2617 -0.4591
  617MOL0     C85068   3.302   7.491   7.780  0.1491  0.3677  1.0032
  617MOL0     C85069   3.162   7.486   7.848  0.1596 -0.5956  0.4152
  617MOL0     C85070   3.035   7.462   7.751 -0.2213  0.7158 -0.0951
  617MOL0     C85071   2.917   7.459   7.839 -0.1596  0.6121 -0.1533
  617MOL0     C85072   2.794   7.483   7.766  0.2752 -0.1777  0.0513
  617MOL0     C85073   2.706   7.523   7.689 -0.1753  0.7220 -1.0396
  617MOL0     C85074   3.482   7.534   7.567 -0.3903  0.1317 -0.0391
  617MOL0     C85075   3.554   7.592   7.468 -0.0342 -0.3519  1.1349
  617MOL0     C85076   3.657   7.684   7.503 -0.4478  0.2648 -0.3785
  617MOL0     H85077   3.947   7.706   7.137 -2.7962 -2.9011 -1.4445
  617MOL0     H85078   4.033   7.842   6.958  0.1374 -1.2292 -0.6389
  617MOL0     H85079   3.755   8.033   6.686 -1.3736 -3.5515 -1.6621
  617MOL0     H85080   3.868   7.915   6.621 -1.3272  0.3542 -0.5095
  617MOL0     H85081   3.887   8.208   6.656 -1.2772 -1.5005  1.4347
  617MOL0     H85082   4.032   8.109   6.610  0.6492  0.7500 -1.1541
  617MOL0     H85083   3.918   8.018   6.410  1.8814 -0.1276  1.2568
  617MOL0     H85084   3.765   8.099   6.474  0.6762  1.1939  2.9094
  617MOL0     H85085   3.823   8.241   6.308 -2.4366 -2.2211  1.9098
  617MOL0     H85086   3.884   8.327   6.445 -1.6524 -1.4665  1.9660
  617MOL0     H85087   4.046   8.165   6.234  2.1053  2.2474 -0.8424
  617MOL0     H85088   4.112   8.172   6.391 -0.3973  0.8381  1.8888
  617MOL0     H85089   4.059   8.403   6.196  0.5931 -0.0647 -1.4604
  617MOL0     H85090   4.136   8.429   6.365  2.8026  0.0359 -0.8739
  617MOL0     H85091   4.321   8.413   6.188 -0.2011  0.9201 -0.5165
  617MOL0     H85092   4.225   8.274   6.119 -0.6816 -0.2094 -0.6470
  617MOL0     H85093   4.368   8.300   6.391 -1.1836 -0.9329  0.8301
  617MOL0     H85094   4.311   8.145   6.314  2.5967 -1.0418 -0.4097
  617MOL0     H85095   4.438   8.157   6.037 -1.2508 -0.2904  0.0628
  617MOL0     H85096   4.778   8.286   5.928  2.6419 -2.1381 -1.4117
  617MOL0     H85097   4.644   8.170   5.889 -1.9550 -0.6520  3.0716
  617MOL0     H85098   4.757   7.993   6.028  1.2173 -0.1618 -0.9229
  617MOL0     H85099   4.859   8.050   5.899 -0.8593 -2.8175 -0.0464
  617MOL0     H85100   5.020   8.053   6.053 -0.5988  1.3157 -2.0432
  617MOL0     H85101   4.955   8.215   6.100 -0.1111 -0.7822  0.4205
  617MOL0     H85102   4.987   8.106   6.295 -2.0213  1.7342  0.5539
  617MOL0     H85103   4.811   8.090   6.276  0.1196  1.8267  2.4019
  617MOL0     H85104   4.899   7.675   6.223 -0.5847  0.4360  0.2652
  617MOL0     H85105   5.005   7.441   6.433 -0.2421  1.9189  1.4247
  617MOL0     H85106   4.924   7.470   6.271  1.6336 -0.6282 -0.4612
  617MOL0     H85107   4.837   7.432   6.421  0.4069 -0.4168 -0.8123
  617MOL0     H85108   4.669   7.556   6.891  0.8490  1.3138  1.8787
  617MOL0     H85109   4.627   7.395   7.059 -0.4637 -2.6308 -1.0958
  617MOL0     H85110   4.807   7.114   7.284 -2.8730  1.3387 -0.7673
  617MOL0     H85111   4.956   7.156   7.187 -0.7244 -0.9072 -1.1320
  617MOL0     H85112   5.010   7.321   7.383 -1.4967  1.0740  0.8535
  617MOL0     H85113   4.861   7.271   7.458 -1.2586 -0.7718 -2.2875
  617MOL0     H85114   5.122   7.126   7.421  0.4043 -2.1899 -0.1722
  617MOL0     H85115   4.978   7.030   7.454  0.0327 -0.1256 -0.9160
  617MOL0     H85116   4.943   7.227   7.658 -1.4467 -1.6850  0.1071
  617MOL0     H85117   5.119   7.238   7.627  0.3421 -0.5561  0.9446
  617MOL0     H85118   5.153   7.019   7.724 -0.9655 -1.3151  0.7215
  617MOL0     H85119   5.060   7.119   7.828 -3.6061 -1.8303  2.0686
  617MOL0     H85120   4.960   6.901   7.636  2.2943  0.3152 -0.7361
  617MOL0     H85121   4.859   7.006   7.753  1.0733  2.0300 -0.2164
  617MOL0     H85122   4.897   6.782   7.840 -0.4059  0.1074  0.3699
  617MOL0     H85123   4.944   6.913   7.938 -1.4250 -1.1093 -0.8506
  617MOL0     H85124   5.118   6.720   7.915  0.9829  0.0481 -1.5076
  617MOL0     H85125   5.182   6.883   7.899 -0.5969  2.4584 -1.3300
  617MOL0     H85126   5.061   7.372   7.134  0.5034 -1.5351 -1.3804
  617MOL0     H85127   5.084   7.558   6.958 -1.3925  3.7819  2.6479
  617MOL0     H85128   4.914   7.850   6.677 -1.4759 -1.6184  0.2444
  617MOL0     H85129   4.902   8.015   6.488 -2.7815 -0.4681 -1.1277
  617MOL0     H85130   3.650   7.980   6.847 -0.1343 -0.8650 -0.3341
  617MOL0     H85131   3.554   7.877   7.052 -0.1670 -1.5832 -0.2603
  617MOL0     H85132   3.368   7.474   7.202 -2.1213  0.7383  0.8323
  617MOL0     H85133   3.256   7.368   7.385  1.2985  0.1850  0.0583
  617MOL0     H85134   3.372   7.441   7.848 -0.7931 -1.1812  0.8847
  617MOL0     H85135   3.340   7.592   7.762  4.2350 -0.3790  3.8641
  617MOL0     H85136   3.134   7.588   7.875  0.5873  0.0515 -1.4285
  617MOL0     H85137   3.157   7.428   7.940  1.1829  2.9526  2.9106
  617MOL0     H85138   3.017   7.537   7.673 -3.1545 -0.1595 -0.3484
  617MOL0     H85139   3.042   7.367   7.697 -0.4429 -1.7340  3.8134
  617MOL0     H85140   2.929   7.527   7.923 -0.7030 -0.7208  1.0434
  617MOL0     H85141   2.910   7.359   7.883 -0.9408 -0.3726 -2.3579
  617MOL0     H85142   2.623   7.555   7.630 -1.0091  0.5983  0.0450
  617MOL0     H85143   3.511   7.550   7.670 -1.8309 -1.0332  0.5736
  617MOL0     H85144   3.753   7.656   7.458  0.1365 -1.1203  1.5964
  617MOL0     H85145   3.622   7.781   7.465 -2.9226 -0.0356  0.8785
  617MOL0     H85146   3.678   7.682   7.611 -2.8603 -2.3575  0.1623
  618MOL0     O85147   8.417   6.529   4.814  0.5813 -0.6942  0.6956
  618MOL0     C85148   8.432   6.644   4.778 -0.1426 -0.1265  0.0423
  618MOL0     O85149   8.329   6.742   4.764  0.1762  0.1264 -0.2957
  618MOL0     C85150   8.201   6.679   4.787 -0.1271 -0.6383 -0.1242
  618MOL0     C85151   8.151   6.659   4.922  0.0159  0.3558  0.9378
  618MOL0     C85152   8.017   6.610   4.945  0.3527 -0.0002 -0.0778
  618MOL0     C85153   7.919   6.606   4.842  0.3144 -0.2171  0.0754
  618MOL0     O85154   7.784   6.587   4.870  0.7288 -0.3968  0.9956
  618MOL0     C85155   7.700   6.709   4.858  0.3706  0.1871  0.8545
  618MOL0     C85156   7.665   6.758   5.000 -0.8619  0.3636  0.9599
  618MOL0     C85157   7.538   6.843   5.002  0.3133 -0.2081 -0.3813
  618MOL0     C85158   7.417   6.753   5.034  0.5147 -0.7672 -1.0963
  618MOL0     C85159   7.283   6.821   5.023  0.3099 -0.4273  0.8966
  618MOL0     C85160   7.184   6.752   4.936  1.0920 -0.7617  0.4852
  618MOL0     C85161   7.071   6.838   4.865  0.4709 -0.0378 -0.1615
  618MOL0     C85162   6.974   6.904   4.964  0.5297 -0.4368 -0.5910
  618MOL0     N85163   6.922   7.024   4.913 -0.5068  0.3623 -0.1481
  618MOL0     C85164   6.995   7.148   4.933 -0.3361  1.5732 -1.6871
  618MOL0     C85165   6.905   7.244   4.901  0.5680  0.4045  0.0057
  618MOL0     C85166   6.938   7.384   4.901 -0.1829 -0.6961  0.0018
  618MOL0     C85167   6.920   7.438   5.040 -0.1558 -0.4664  0.1686
  618MOL0     C85168   6.942   7.597   5.065  0.6366 -0.8196  0.1941
  618MOL0     C85169   6.927   7.627   5.214 -0.0008 -0.2782  0.2665
  618MOL0     O85170   6.991   7.760   5.231 -0.6021 -0.5774 -0.5158
  618MOL0     C85171   7.132   7.768   5.240 -0.2643  1.6208 -0.1231
  618MOL0     C85172   7.222   7.661   5.235 -0.3333 -0.2119 -0.3741
  618MOL0     C85173   7.353   7.676   5.274  0.4168  0.0447  1.1361
  618MOL0     C85174   7.426   7.548   5.283  0.3424  0.4246  0.1855
  618MOL0     C85175   7.409   7.806   5.285 -1.0252  0.6657  0.0413
  618MOL0     C85176   7.552   7.840   5.300 -0.0006  0.3739 -0.9982
  618MOL0     O85177   7.584   7.973   5.301  0.4835 -0.4056  0.2765
  618MOL0     C85178   7.712   8.025   5.298 -0.2895 -0.9628  0.5220
  618MOL0     C85179   7.811   7.967   5.216 -0.7233  0.5606  0.0990
  618MOL0     C85180   7.927   8.033   5.205  0.0640 -0.4971  0.8426
  618MOL0     C85181   7.957   8.152   5.272  0.0724 -0.2576 -0.5128
  618MOL0     O85182   8.084   8.218   5.280  0.0509  0.9323 -0.4277
  618MOL0     C85183   8.180   8.175   5.184  0.1567 -1.3035 -0.4660
  618MOL0     C85184   8.264   8.300   5.194  0.3963 -0.0661 -0.0978
  618MOL0     C85185   8.200   8.439   5.160  0.0795  1.5812  0.3756
  618MOL0     C85186   8.288   8.557   5.203  1.5465  0.6459 -1.2555
  618MOL0     C85187   8.222   8.655   5.304  1.0010  0.4548 -0.7868
  618MOL0     C85188   8.148   8.779   5.239  0.3559  0.3332  0.4066
  618MOL0     C85189   8.011   8.748   5.166 -0.4445  0.2151 -0.3514
  618MOL0     C85190   7.960   8.871   5.100 -0.8543  0.9488  0.6396
  618MOL0    Cl85191   7.821   8.818   5.008 -0.1225 -0.0312  0.2892
  618MOL0     C85192   7.853   8.213   5.345 -0.0932  0.4863 -0.5533
  618MOL0     C85193   7.737   8.144   5.349  0.2141  0.2093 -0.4353
  618MOL0     O85194   7.631   7.749   5.305 -0.1901 -0.5028  0.2666
  618MOL0     C85195   7.314   7.914   5.269 -0.4126  0.9301 -0.4667
  618MOL0     C85196   7.179   7.902   5.265 -0.2945  0.0022 -0.5842
  618MOL0     N85197   6.781   7.184   4.866 -0.9998 -1.1137 -0.5138
  618MOL0     N85198   6.810   7.061   4.862  0.1917 -0.6355 -0.3920
  618MOL0     C85199   7.970   6.625   4.709  1.1614 -0.5550 -0.4694
  618MOL0     C85200   8.104   6.665   4.682  0.4741 -0.0128 -0.6180
  618MOL0     C85201   8.557   6.696   4.746 -0.3312  0.3263 -0.4317
  618MOL0     C85202   8.594   6.809   4.818 -0.2830 -0.6469 -0.1245
  618MOL0     C85203   8.715   6.877   4.786 -0.3720  1.6263 -0.5133
  618MOL0     C85204   8.796   6.823   4.687 -0.3229 -0.1628  0.3893
  618MOL0     O85205   8.919   6.878   4.654  0.4109 -0.3633  1.0027
  618MOL0     C85206   8.952   7.015   4.697  0.1681  0.6161 -0.1825
  618MOL0     C85207   9.095   7.035   4.656 -0.7863 -0.0843 -0.7383
  618MOL0     C85208   9.117   7.051   4.503  0.4176  0.2215 -0.2116
  618MOL0     C85209   9.226   7.149   4.454 -0.1406 -0.4726 -0.3001
  618MOL0     C85210   9.359   7.099   4.502  0.0309 -1.8036  0.6634
  618MOL0     C85211   9.465   7.051   4.538  0.1017 -0.4110 -0.3530
  618MOL0     C85212   8.763   6.700   4.637 -0.3788 -0.4412  0.9104
  618MOL0     C85213   8.645   6.633   4.663 -0.9945  0.8120  0.5331
  618MOL0     C85214   8.624   6.506   4.589 -0.0320 -0.2571  0.3478
  618MOL0     H85215   8.220   6.690   5.000 -0.3422  3.0548  0.2699
  618MOL0     H85216   7.974   6.577   5.039 -1.6306 -2.0275 -1.5900
  618MOL0     H85217   7.609   6.690   4.800  1.3587  2.2983 -1.5701
  618MOL0     H85218   7.751   6.786   4.800  0.3590  0.2934  0.9850
  618MOL0     H85219   7.654   6.677   5.073  2.0945  2.6379  4.2687
  618MOL0     H85220   7.748   6.822   5.033  1.5306 -2.4575  0.8594
  618MOL0     H85221   7.551   6.917   5.082  0.9487  3.2313 -3.4148
  618MOL0     H85222   7.519   6.900   4.911 -2.9915  1.5700  1.2470
  618MOL0     H85223   7.414   6.661   4.975 -2.5255 -1.1767 -0.4740
  618MOL0     H85224   7.433   6.728   5.139  2.3708  1.1286 -0.8453
  618MOL0     H85225   7.306   6.919   4.979  1.4269 -1.3252 -0.6019
  618MOL0     H85226   7.230   6.849   5.114  0.9086  3.3107  0.2540
  618MOL0     H85227   7.220   6.703   4.845 -3.0981 -1.2023 -1.1814
  618MOL0     H85228   7.149   6.666   4.993  0.7614 -2.3076 -1.8792
  618MOL0     H85229   7.012   6.775   4.798  1.1320 -2.4869  1.4053
  618MOL0     H85230   7.120   6.921   4.814  1.4091  2.3181  4.0583
  618MOL0     H85231   6.892   6.834   4.982 -0.3023  0.6232 -0.1710
  618MOL0     H85232   7.024   6.919   5.060 -0.2160  0.5892 -0.3477
  618MOL0     H85233   7.095   7.168   4.970 -0.4257 -2.3366  1.2947
  618MOL0     H85234   6.872   7.443   4.836 -1.2050 -1.8312 -0.0360
  618MOL0     H85235   7.043   7.392   4.872 -0.3437  1.4426 -0.0926
  618MOL0     H85236   6.815   7.416   5.060 -0.2810 -0.8998 -0.9293
  618MOL0     H85237   6.986   7.389   5.112  0.7111  0.0948 -0.2234
  618MOL0     H85238   7.047   7.618   5.041  0.6891 -3.5161 -2.4932
  618MOL0     H85239   6.871   7.657   5.008 -0.5443  0.6322  2.9948
  618MOL0     H85240   6.826   7.630   5.256 -1.2225  0.0844 -2.4999
  618MOL0     H85241   6.985   7.551   5.268  1.4262 -1.0253 -2.1893
  618MOL0     H85242   7.176   7.563   5.227 -0.6842 -0.2038  1.1440
  618MOL0     H85243   7.492   7.551   5.370  1.6434 -2.4259 -0.6149
  618MOL0     H85244   7.478   7.524   5.190 -2.0280 -1.0148 -0.8441
  618MOL0     H85245   7.358   7.467   5.311 -0.6997  1.4232  0.6502
  618MOL0     H85246   7.810   7.870   5.167 -0.6636 -0.2250  1.5631
  618MOL0     H85247   8.007   7.996   5.142  0.4861  1.9101 -0.1543
  618MOL0     H85248   8.246   8.089   5.196  3.0063  0.7660 -0.3580
  618MOL0     H85249   8.122   8.165   5.091  0.8100 -0.2055 -1.0060
  618MOL0     H85250   8.300   8.305   5.297  2.3680 -1.1801 -0.6870
  618MOL0     H85251   8.347   8.273   5.129  1.8986  0.5672  1.4754
  618MOL0     H85252   8.102   8.429   5.207  0.6922 -0.9773  1.2954
  618MOL0     H85253   8.187   8.444   5.051 -1.0890  0.6389  0.4507
  618MOL0     H85254   8.318   8.618   5.118  5.1613  1.1968  0.2294
  618MOL0     H85255   8.380   8.528   5.255  1.4419  1.3451 -0.6462
  618MOL0     H85256   8.141   8.602   5.356 -0.8862  1.3830 -2.6211
  618MOL0     H85257   8.293   8.689   5.379 -1.9529  1.0138  1.9919
  618MOL0     H85258   8.211   8.825   5.163  1.1887  1.5173  1.7597
  618MOL0     H85259   8.120   8.859   5.309 -2.5836 -0.3961  0.2170
  618MOL0     H85260   7.933   8.697   5.222  0.0614 -1.4728 -1.1084
  618MOL0     H85261   8.028   8.675   5.086 -0.7930  1.6267 -1.7584
  618MOL0     H85262   8.031   8.919   5.032 -1.1977  0.9572  0.2834
  618MOL0     H85263   7.941   8.949   5.175  2.6049  0.3068  2.4022
  618MOL0     H85264   7.866   8.307   5.399  2.7714  0.2040 -0.6220
  618MOL0     H85265   7.654   8.176   5.411  1.0246 -0.4656  1.0728
  618MOL0     H85266   7.344   8.019   5.272  2.1770  0.4039 -3.5146
  618MOL0     H85267   7.115   7.990   5.268  2.0008  1.7626  2.2850
  618MOL0     H85268   7.888   6.608   4.641 -1.8840 -2.5409  3.2572
  618MOL0     H85269   8.119   6.690   4.577 -1.7848 -0.3421 -1.0639
  618MOL0     H85270   8.520   6.865   4.874 -4.1290 -4.8465 -0.4355
  618MOL0     H85271   8.730   6.959   4.855  0.3335  0.4316  0.8086
  618MOL0     H85272   8.880   7.081   4.648 -3.4375 -0.6538  2.8670
  618MOL0     H85273   8.947   7.042   4.803 -1.2936 -2.0305  0.5190
  618MOL0     H85274   9.159   6.953   4.691  2.0996  1.8355 -1.2386
  618MOL0     H85275   9.141   7.124   4.699  0.7678 -0.8424 -0.7574
  618MOL0     H85276   9.134   6.956   4.452 -1.4916 -0.5271  0.4582
  618MOL0     H85277   9.034   7.105   4.458  0.0496 -0.1171  0.0488
  618MOL0     H85278   9.201   7.251   4.483 -1.3775 -0.0469 -2.6972
  618MOL0     H85279   9.231   7.157   4.345 -0.5445  0.9248 -0.2341
  618MOL0     H85280   9.560   7.037   4.585 -0.2633  2.4937  1.5247
  618MOL0     H85281   8.834   6.689   4.555 -0.4657  1.5545  0.5169
  618MOL0     H85282   8.595   6.423   4.654 -1.4671  1.1563  1.6014
  618MOL0     H85283   8.543   6.521   4.518  0.0022  1.6773  0.6512
  618MOL0     H85284   8.713   6.479   4.531 -0.2346  4.6825 -2.8524
  619MOL0     O85285   2.296  11.021  10.960 -0.4175 -0.0546 -0.2565
  619MOL0     C85286   2.209  11.074  10.889 -0.1934  0.0410  0.3355
  619MOL0     O85287   2.194  11.215  10.877 -0.2035  0.5723 -0.6618
  619MOL0     C85288   2.288  11.287  10.941 -0.7628 -0.3268  0.1879
  619MOL0     C85289   2.252  11.395  11.021 -0.6397  0.6630 -0.9884
  619MOL0     C85290   2.348  11.477  11.081  0.8010  0.0959 -0.0272
  619MOL0     C85291   2.479  11.469  11.042  0.4167  0.6564 -0.2250
  619MOL0     O85292   2.562  11.563  11.103  0.4000  0.4504  0.3430
  619MOL0     C85293   2.695  11.572  11.053  0.7522 -0.6151 -0.3213
  619MOL0     C85294   2.746  11.705  11.117  0.6144  0.1977  0.9525
  619MOL0     C85295   2.745  11.710  11.265  0.0436 -0.6683 -0.0023
  619MOL0     C85296   2.803  11.848  11.314  0.1402  0.3688  0.5435
  619MOL0     C85297   2.809  11.847  11.468  0.7683  0.8329  0.5101
  619MOL0     C85298   2.795  11.976  11.545  0.2145  0.1568 -0.2557
  619MOL0     C85299   2.783  11.953  11.702  0.0948  0.1253  1.3038
  619MOL0     C85300   2.784  12.071  11.794 -0.2274 -0.1107 -0.2273
  619MOL0     N85301   2.915  12.140  11.799 -0.2528  0.6153  0.5123
  619MOL0     C85302   3.018  12.120  11.886  0.2247  0.5550  1.0506
  619MOL0     C85303   3.104  12.225  11.860 -0.8493  0.3854 -0.6097
  619MOL0     C85304   3.235  12.245  11.937  0.6693 -0.9023 -0.2739
  619MOL0     C85305   3.214  12.310  12.078 -0.3116  0.4593 -0.4037
  619MOL0     C85306   3.167  12.455  12.050 -0.2329  0.5394 -0.5348
  619MOL0     C85307   3.147  12.520  12.188  1.4050 -0.2655  0.2829
  619MOL0     O85308   3.031  12.451  12.243 -0.2792 -0.3794 -0.4501
  619MOL0     C85309   3.004  12.463  12.382 -0.3061 -0.5887  0.2163
  619MOL0     C85310   3.105  12.421  12.466 -0.0744 -0.6657 -0.0348
  619MOL0     C85311   3.090  12.435  12.603 -0.6205 -0.3733  0.5884
  619MOL0     C85312   3.201  12.384  12.692 -1.0201 -0.8217  1.7514
  619MOL0     C85313   2.976  12.496  12.653  0.5577  0.5162  0.4473
  619MOL0     C85314   2.932  12.490  12.789 -0.5558  0.2185 -0.0960
  619MOL0     O85315   3.028  12.513  12.889 -0.3101  0.2601  0.6485
  619MOL0     C85316   3.011  12.510  13.023 -0.1299  0.0175  0.0168
  619MOL0     C85317   3.095  12.584  13.109  0.2475  0.8372  0.3829
  619MOL0     C85318   3.084  12.581  13.247 -0.6122 -0.1377  0.1732
  619MOL0     C85319   2.980  12.511  13.314  0.5183 -0.6776  0.1221
  619MOL0     O85320   2.948  12.521  13.451  0.4889  0.2881 -0.5998
  619MOL0     C85321   2.928  12.400  13.524 -0.4196  0.7372 -0.6095
  619MOL0     C85322   3.029  12.301  13.524 -1.3191  0.2929 -0.4880
  619MOL0     C85323   3.152  12.359  13.597  0.5509 -0.1676  0.4523
  619MOL0     C85324   3.271  12.274  13.570 -0.5987  0.1170 -0.7594
  619MOL0     C85325   3.387  12.327  13.652 -0.1890 -1.1530  0.1207
  619MOL0     C85326   3.530  12.297  13.622 -0.3089  0.1473  0.5406
  619MOL0     C85327   3.571  12.145  13.627  0.9488 -0.7361 -0.4063
  619MOL0     C85328   3.723  12.133  13.611  0.1609 -0.4476 -0.2058
  619MOL0    Cl85329   3.763  12.097  13.445 -0.0224 -0.3653 -0.0866
  619MOL0     C85330   2.893  12.438  13.227 -0.0384 -0.1322 -0.0276
  619MOL0     C85331   2.904  12.436  13.094  0.1727 -0.1462  0.3377
  619MOL0     O85332   2.816  12.441  12.802 -0.6122 -0.1751 -0.8647
  619MOL0     C85333   2.874  12.541  12.565  0.1322 -0.3931  1.2105
  619MOL0     C85334   2.888  12.523  12.430 -0.0599  0.2308 -0.3176
  619MOL0     N85335   3.048  12.300  11.760 -0.3326 -0.6367 -0.5381
  619MOL0     N85336   2.929  12.257  11.729 -1.0612  0.6105 -0.1370
  619MOL0     C85337   2.516  11.358  10.962 -0.0329 -0.7577 -0.0149
  619MOL0     C85338   2.424  11.275  10.909 -0.8280 -0.3770  0.1176
  619MOL0     C85339   2.089  11.009  10.831 -0.4334 -1.4763  0.0386
  619MOL0     C85340   1.988  11.091  10.774 -0.7101  0.2605  0.3821
  619MOL0     C85341   1.867  11.042  10.730 -0.9885  0.4226 -0.5327
  619MOL0     C85342   1.850  10.898  10.736  0.4160  0.6065 -0.0101
  619MOL0     O85343   1.740  10.828  10.691  0.4052  0.3628  1.1166
  619MOL0     C85344   1.628  10.907  10.653  1.7323  0.7590  0.5780
  619MOL0     C85345   1.509  10.825  10.608  0.0686 -0.2736 -1.6165
  619MOL0     C85346   1.517  10.718  10.502 -1.4554  0.0717  0.2585
  619MOL0     C85347   1.618  10.740  10.392  0.6564 -0.7786  0.9349
  619MOL0     C85348   1.597  10.659  10.266 -0.2135  0.3777 -0.1852
  619MOL0     C85349   1.555  10.591  10.175  0.2110 -0.2411 -0.7267
  619MOL0     C85350   1.949  10.818  10.782 -0.0658  0.5112 -0.7523
  619MOL0     C85351   2.067  10.867  10.842 -0.5861 -0.2375  0.7929
  619MOL0     C85352   2.168  10.763  10.889 -0.1882  0.1271 -0.5276
  619MOL0     H85353   2.144  11.404  11.026 -1.0435 -2.8661  3.6746
  619MOL0     H85354   2.300  11.569  11.111 -0.5654  0.1618 -2.1442
  619MOL0     H85355   2.698  11.583  10.945 -2.2349 -0.9236 -0.5292
  619MOL0     H85356   2.751  11.488  11.096 -3.2794 -2.0374  2.8298
  619MOL0     H85357   2.850  11.708  11.084  0.7355 -4.6057  0.1112
  619MOL0     H85358   2.697  11.792  11.073  0.4733  0.2855  1.2790
  619MOL0     H85359   2.644  11.693  11.303 -0.2651 -2.7426 -1.5222
  619MOL0     H85360   2.821  11.639  11.299  0.8117 -0.2709 -0.8377
  619MOL0     H85361   2.905  11.871  11.284 -0.0560  0.8991  0.2898
  619MOL0     H85362   2.731  11.926  11.288  2.7928  4.6812  4.4488
  619MOL0     H85363   2.903  11.796  11.492  2.0700  2.1898 -1.4261
  619MOL0     H85364   2.721  11.790  11.497 -0.3394  0.5660 -2.9675
  619MOL0     H85365   2.876  12.044  11.519  2.2139 -1.5949  1.0692
  619MOL0     H85366   2.705  12.030  11.515 -0.9948 -0.8056  1.5054
  619MOL0     H85367   2.863  11.883  11.725  0.3549  0.2375  0.7542
  619MOL0     H85368   2.690  11.897  11.718 -0.1212 -0.4631 -1.5508
  619MOL0     H85369   2.704  12.140  11.764  0.9231  1.1463 -0.5320
  619MOL0     H85370   2.766  12.036  11.896 -3.4660  1.3468 -0.1661
  619MOL0     H85371   3.029  12.038  11.956 -0.5256 -0.8441 -0.4009
  619MOL0     H85372   3.293  12.317  11.879 -0.0450 -0.0378  0.0541
  619MOL0     H85373   3.286  12.148  11.944 -0.8007 -1.7513 -0.8048
  619MOL0     H85374   3.145  12.241  12.129 -0.4039  0.2149 -0.8514
  619MOL0     H85375   3.306  12.296  12.135 -0.4755  0.3446 -0.1651
  619MOL0     H85376   3.244  12.511  11.995  2.1821 -0.2162  1.8161
  619MOL0     H85377   3.071  12.450  11.999 -1.2359  1.4012  1.2085
  619MOL0     H85378   3.230  12.512  12.258  1.4024  1.4197  0.5141
  619MOL0     H85379   3.139  12.627  12.171  0.3330 -0.8268 -3.7659
  619MOL0     H85380   3.203  12.387  12.431  0.9571  1.8786  0.1541
  619MOL0     H85381   3.171  12.287  12.732 -0.2336 -1.3671  1.0488
  619MOL0     H85382   3.231  12.447  12.776 -1.3931 -0.0521  1.3227
  619MOL0     H85383   3.289  12.368  12.630 -1.4694  0.2227  0.7956
  619MOL0     H85384   3.177  12.644  13.071  0.7662  0.6754  1.2048
  619MOL0     H85385   3.169  12.621  13.303  1.6364 -2.1357 -1.5723
  619MOL0     H85386   2.909  12.429  13.628  1.5327 -2.4729  0.7776
  619MOL0     H85387   2.834  12.355  13.493  0.0013 -1.7973  1.3994
  619MOL0     H85388   3.008  12.205  13.572 -4.5378  0.6392 -0.9622
  619MOL0     H85389   3.048  12.275  13.419  0.2165 -1.3214  0.1363
  619MOL0     H85390   3.117  12.363  13.701  1.4140 -0.2815  0.7608
  619MOL0     H85391   3.170  12.464  13.572 -2.7516  0.0548 -1.4416
  619MOL0     H85392   3.289  12.266  13.462  0.3790  1.1691 -0.7025
  619MOL0     H85393   3.255  12.175  13.612 -0.5181  0.3464 -0.1699
  619MOL0     H85394   3.385  12.436  13.648  0.7857 -1.1218  0.0482
  619MOL0     H85395   3.357  12.296  13.752  0.1149 -1.0133  0.2570
  619MOL0     H85396   3.592  12.350  13.695  1.3464 -0.6057 -0.2693
  619MOL0     H85397   3.553  12.329  13.520  2.4381  1.3178  1.4321
  619MOL0     H85398   3.521  12.099  13.541 -1.5809  0.5639  0.2547
  619MOL0     H85399   3.525  12.114  13.721 -1.0747  1.9011 -0.3891
  619MOL0     H85400   3.750  12.041  13.664 -1.9152 -2.8515 -2.9501
  619MOL0     H85401   3.777  12.222  13.644  0.7159 -0.2020 -1.6895
  619MOL0     H85402   2.838  12.364  13.284 -0.3545 -1.2979 -1.7833
  619MOL0     H85403   2.847  12.376  13.023  1.6822  1.7072 -2.6463
  619MOL0     H85404   2.787  12.594  12.601 -1.1592 -1.7732  0.2632
  619MOL0     H85405   2.810  12.558  12.363 -0.2875  2.5912  1.0875
  619MOL0     H85406   2.619  11.334  10.939  0.4642  0.1001  1.2444
  619MOL0     H85407   2.458  11.200  10.838 -0.3209  0.3419 -0.4180
  619MOL0     H85408   2.004  11.199  10.773 -0.0080  0.1944  1.6072
  619MOL0     H85409   1.788  11.112  10.704 -1.9737 -0.7766 -0.8449
  619MOL0     H85410   1.580  10.971  10.727 -2.2782  0.5148 -1.5482
  619MOL0     H85411   1.653  10.990  10.587 -0.4550  0.1960 -1.0918
  619MOL0     H85412   1.442  10.901  10.569  0.9328  0.4218 -1.7721
  619MOL0     H85413   1.477  10.780  10.702  1.4785 -1.4337 -1.6545
  619MOL0     H85414   1.538  10.626  10.557 -2.9011  0.6419  1.8674
  619MOL0     H85415   1.422  10.705  10.450 -0.8579 -0.2415 -0.7969
  619MOL0     H85416   1.715  10.724  10.441  0.3911  0.2848  1.8370
  619MOL0     H85417   1.607  10.847  10.374  5.0944  0.4065  3.7089
  619MOL0     H85418   1.509  10.546  10.089 -0.6553  1.4059 -1.1684
  619MOL0     H85419   1.939  10.711  10.766 -1.9044  0.4682  0.4258
  619MOL0     H85420   2.126  10.702  10.970  0.4790  1.1413  0.6297
  619MOL0     H85421   2.197  10.705  10.802  1.1661  3.1862 -2.2703
  619MOL0     H85422   2.262  10.805  10.928  1.5757 -1.8141 -2.4715
  620MOL0     O85423   5.834   7.355  10.960  0.1710 -0.0791  0.0254
  620MOL0     C85424   5.870   7.316  11.071  0.5312 -0.5115  0.4333
  620MOL0     O85425   5.964   7.371  11.154  0.0612  0.0839 -0.5111
  620MOL0     C85426   6.040   7.476  11.117 -0.0752  0.1266 -0.1614
  620MOL0     C85427   6.027   7.595  11.192 -0.2259 -0.2702 -0.8086
  620MOL0     C85428   6.107   7.707  11.155 -0.3223  0.8050 -0.7237
  620MOL0     C85429   6.200   7.691  11.054  0.7119  0.2293  0.2996
  620MOL0     O85430   6.298   7.795  11.036 -0.1573  0.1635 -0.1415
  620MOL0     C85431   6.414   7.749  11.101 -0.8174  0.7627  0.3600
  620MOL0     C85432   6.535   7.839  11.070  0.0884  0.6849 -0.8174
  620MOL0     C85433   6.663   7.808  11.159  0.7885  0.0614  0.5044
  620MOL0     C85434   6.666   7.895  11.286  0.0739 -0.0731  0.7268
  620MOL0     C85435   6.721   7.824  11.409  0.1455 -0.2981 -0.3576
  620MOL0     C85436   6.871   7.794  11.393  0.5334  1.3582  0.0459
  620MOL0     C85437   6.939   7.726  11.520 -0.1182  0.0798 -0.8486
  620MOL0     C85438   6.875   7.592  11.577  0.2691 -0.5138 -0.5203
  620MOL0     N85439   6.835   7.501  11.463 -0.2689 -0.7241  0.0667
  620MOL0     C85440   6.931   7.439  11.386  1.1075 -0.0646 -0.1793
  620MOL0     C85441   6.865   7.382  11.283  1.0699 -0.2579 -0.1532
  620MOL0     C85442   6.918   7.284  11.172 -0.0729 -0.1310  0.1917
  620MOL0     C85443   6.978   7.150  11.220  0.2194  0.0531  0.4405
  620MOL0     C85444   6.860   7.059  11.268 -0.2671 -0.1453  0.5819
  620MOL0     C85445   6.893   6.963  11.380 -0.2768  0.9471 -0.5459
  620MOL0     O85446   6.986   7.021  11.475 -0.6595 -0.1568 -0.7939
  620MOL0     C85447   6.942   7.112  11.573 -0.1597  0.9312 -0.2416
  620MOL0     C85448   7.035   7.126  11.677  0.1546  0.4119  0.3119
  620MOL0     C85449   7.009   7.216  11.775  0.4235 -0.0356 -0.1131
  620MOL0     C85450   7.104   7.224  11.891 -0.0199 -0.8218 -0.4665
  620MOL0     C85451   6.888   7.295  11.771 -0.5704  0.2173  0.5232
  620MOL0     C85452   6.847   7.403  11.875 -1.4832 -0.8338  0.8956
  620MOL0     O85453   6.736   7.474  11.844  0.1342 -0.1953 -0.2305
  620MOL0     C85454   6.675   7.565  11.927 -0.3297 -0.0098  0.8520
  620MOL0     C85455   6.646   7.695  11.872  0.6649  0.2082  0.4453
  620MOL0     C85456   6.581   7.795  11.954  0.0190  0.3164 -0.2852
  620MOL0     C85457   6.544   7.756  12.083 -0.2645 -0.2406 -1.1417
  620MOL0     O85458   6.489   7.856  12.167 -0.3378 -0.1833 -0.2725
  620MOL0     C85459   6.425   7.813  12.296 -0.7914 -0.0290  0.6451
  620MOL0     C85460   6.378   7.944  12.372 -1.6950  0.4509 -0.2702
  620MOL0     C85461   6.279   8.033  12.295 -0.8465 -0.1592 -0.7977
  620MOL0     C85462   6.263   8.171  12.371  0.4570  0.6195 -0.0126
  620MOL0     C85463   6.197   8.285  12.283  0.0133 -0.0228  0.6762
  620MOL0     C85464   6.045   8.307  12.316  0.5191 -0.7010  0.5372
  620MOL0     C85465   6.018   8.414  12.434 -0.3400  0.5429  0.1614
  620MOL0     C85466   5.871   8.422  12.450 -0.2675  0.2274 -0.3517
  620MOL0    Cl85467   5.824   8.594  12.432 -0.0154 -0.1180  0.1748
  620MOL0     C85468   6.559   7.623  12.126 -0.0138  0.0120 -0.4369
  620MOL0     C85469   6.628   7.533  12.049  1.0024  0.7333 -0.3182
  620MOL0     O85470   6.909   7.405  11.980 -0.7605  0.2445  0.7251
  620MOL0     C85471   6.791   7.263  11.674  0.1425 -0.3289 -0.3777
  620MOL0     C85472   6.812   7.175  11.572 -0.5051 -0.0536 -1.0489
  620MOL0     N85473   6.719   7.385  11.317  0.6050 -0.9355  0.5934
  620MOL0     N85474   6.712   7.447  11.426  0.0535  0.1422 -0.8652
  620MOL0     C85475   6.200   7.584  10.969  0.7075  0.1667 -0.3977
  620MOL0     C85476   6.118   7.477  10.999  0.1399 -0.3381 -1.1484
  620MOL0     C85477   5.789   7.211  11.141 -0.1752  0.3753  0.1519
  620MOL0     C85478   5.786   7.224  11.281  0.1279 -0.2234  0.7971
  620MOL0     C85479   5.697   7.149  11.349  0.1494 -0.4673 -0.0553
  620MOL0     C85480   5.635   7.039  11.296 -0.7836 -1.2105 -0.0998
  620MOL0     O85481   5.561   6.943  11.366  0.2200 -0.5016 -0.5368
  620MOL0     C85482   5.553   6.947  11.509 -0.1223 -0.3677 -0.8673
  620MOL0     C85483   5.497   6.809  11.563  0.0944 -0.3473 -0.5434
  620MOL0     C85484   5.355   6.798  11.512 -0.1857  0.8510 -0.2742
  620MOL0     C85485   5.316   6.646  11.488 -0.7154  0.0006  0.3207
  620MOL0     C85486   5.294   6.576  11.618  0.6451  0.2972  0.5638
  620MOL0     C85487   5.272   6.528  11.721 -0.1277 -0.4895 -0.8733
  620MOL0     C85488   5.654   7.015  11.165  0.2274 -0.2218 -0.0313
  620MOL0     C85489   5.728   7.103  11.077  1.0245 -0.8133 -0.4494
  620MOL0     C85490   5.749   7.067  10.932 -0.3880 -0.1208  0.1824
  620MOL0     H85491   5.959   7.605  11.276  1.2098 -3.6597  0.9587
  620MOL0     H85492   6.123   7.798  11.211 -0.9867  0.7432 -0.4225
  620MOL0     H85493   6.445   7.647  11.077  3.5348  1.7431  1.1316
  620MOL0     H85494   6.386   7.758  11.206 -0.2729  1.1865  0.4693
  620MOL0     H85495   6.559   7.811  10.968  0.6084  0.6683 -0.6954
  620MOL0     H85496   6.509   7.945  11.069 -2.4463  0.1909  1.2592
  620MOL0     H85497   6.666   7.700  11.176  1.7668  0.0816  0.5242
  620MOL0     H85498   6.755   7.829  11.103 -0.1206  0.2821 -0.9572
  620MOL0     H85499   6.725   7.985  11.270 -1.6127  1.3240  1.9861
  620MOL0     H85500   6.566   7.926  11.318  0.1967  0.8082  0.2768
  620MOL0     H85501   6.658   7.739  11.437 -0.9959  0.9583  1.0651
  620MOL0     H85502   6.713   7.899  11.488  0.5349  2.8002 -3.0034
  620MOL0     H85503   6.867   7.724  11.309 -0.1943  1.5096 -0.0521
  620MOL0     H85504   6.925   7.884  11.363  2.1548  0.7451  0.9686
  620MOL0     H85505   6.946   7.800  11.601 -1.9753 -1.6499  1.0442
  620MOL0     H85506   7.044   7.716  11.492  0.8287 -1.5673  2.7109
  620MOL0     H85507   6.941   7.540  11.647 -2.1028 -0.7619  1.7032
  620MOL0     H85508   6.779   7.608  11.627 -0.6968 -0.4023 -2.3174
  620MOL0     H85509   7.035   7.440  11.414  0.2918  3.5837  3.7209
  620MOL0     H85510   6.987   7.343  11.110  1.5119 -1.9349  0.1623
  620MOL0     H85511   6.833   7.266  11.106 -1.2659  1.0595  1.3246
  620MOL0     H85512   7.028   7.103  11.135  0.4846  1.1117 -0.0157
  620MOL0     H85513   7.043   7.173  11.305  0.9464  1.5632 -0.4771
  620MOL0     H85514   6.764   7.110  11.281 -3.5691 -4.5439 -3.0504
  620MOL0     H85515   6.841   7.002  11.176  2.5605  1.1403 -0.9208
  620MOL0     H85516   6.800   6.946  11.434 -0.6562  0.3616 -1.3775
  620MOL0     H85517   6.927   6.873  11.329 -1.0284  1.8575 -2.7686
  620MOL0     H85518   7.122   7.063  11.660 -0.0785 -0.2839  1.5604
  620MOL0     H85519   7.154   7.319  11.910  0.6853 -1.7041  2.6495
  620MOL0     H85520   7.187   7.156  11.869  2.1160  1.9617 -1.5720
  620MOL0     H85521   7.054   7.201  11.986 -0.4772  0.0648 -0.4850
  620MOL0     H85522   6.663   7.719  11.767  3.2453  2.1458  1.2011
  620MOL0     H85523   6.554   7.896  11.925 -2.5598 -0.1288  0.3319
  620MOL0     H85524   6.348   7.738  12.276  1.1771 -1.3178 -3.0147
  620MOL0     H85525   6.486   7.745  12.356 -1.1351 -2.1846 -1.3379
  620MOL0     H85526   6.342   7.905  12.468 -0.4155 -3.7126 -1.2817
  620MOL0     H85527   6.470   7.991  12.409 -2.4974 -0.5061  3.4170
  620MOL0     H85528   6.181   7.986  12.286 -1.3213  0.9023 -1.3863
  620MOL0     H85529   6.319   8.060  12.197 -7.5441  0.5951 -3.8720
  620MOL0     H85530   6.363   8.213  12.383  0.5209  0.7471 -0.9249
  620MOL0     H85531   6.206   8.177  12.464  0.1482  1.5420 -0.2517
  620MOL0     H85532   6.236   8.384  12.312 -0.9482  1.2478 -2.0870
  620MOL0     H85533   6.210   8.267  12.176 -3.8136  0.2364  0.0125
  620MOL0     H85534   6.005   8.216  12.362  0.2995 -0.2727  1.2156
  620MOL0     H85535   5.981   8.326  12.230 -2.8348 -4.3993  1.9078
  620MOL0     H85536   6.064   8.512  12.425 -1.5628  1.0462 -0.9149
  620MOL0     H85537   6.058   8.365  12.524  0.2984 -1.9044 -1.3595
  620MOL0     H85538   5.829   8.385  12.544  1.0373  2.7928  1.3701
  620MOL0     H85539   5.821   8.391  12.358 -0.3035  1.3971 -0.7476
  620MOL0     H85540   6.545   7.576  12.223  1.9641 -1.3159 -0.7572
  620MOL0     H85541   6.651   7.432  12.081 -1.1669  0.6568  1.1795
  620MOL0     H85542   6.693   7.307  11.662  1.1800  1.6643 -2.1504
  620MOL0     H85543   6.732   7.156  11.500 -1.7765  1.9103 -0.2164
  620MOL0     H85544   6.264   7.576  10.882  1.1195  0.6641 -0.1411
  620MOL0     H85545   6.107   7.388  10.937 -1.6359 -1.8657  1.1807
  620MOL0     H85546   5.846   7.298  11.334  3.1174  0.9100 -3.6144
  620MOL0     H85547   5.700   7.156  11.457 -1.3284  1.5884 -0.0802
  620MOL0     H85548   5.649   6.953  11.560  0.0031  0.4509 -1.1939
  620MOL0     H85549   5.484   7.024  11.543 -0.4989 -1.6132  1.3752
  620MOL0     H85550   5.502   6.799  11.672  2.4509 -4.1357 -0.8142
  620MOL0     H85551   5.564   6.734  11.520 -1.5967 -1.3722 -1.5344
  620MOL0     H85552   5.288   6.842  11.586 -2.7027  4.6039 -4.2647
  620MOL0     H85553   5.334   6.870  11.432 -0.8910  1.6561  0.6089
  620MOL0     H85554   5.398   6.600  11.432 -1.4779  1.7141 -2.3869
  620MOL0     H85555   5.233   6.634  11.419 -1.2292 -1.3154  1.1271
  620MOL0     H85556   5.262   6.486  11.819  0.9427 -2.1051 -1.4108
  620MOL0     H85557   5.605   6.930  11.119  1.6904  0.3442 -2.8980
  620MOL0     H85558   5.854   7.040  10.922 -0.9755 -2.3136 -0.6089
  620MOL0     H85559   5.700   6.977  10.895 -2.2642  0.1701  1.7863
  620MOL0     H85560   5.709   7.148  10.870 -4.4724 -1.6664  0.5058
  621MOL0     O85561   4.472   8.426   9.972 -0.1102  0.8598  0.4077
  621MOL0     C85562   4.544   8.525   9.965  0.8043 -0.9474 -0.0063
  621MOL0     O85563   4.676   8.517   9.932  0.5113  0.9960 -0.6909
  621MOL0     C85564   4.731   8.389   9.924  0.3508 -0.2155  0.0604
  621MOL0     C85565   4.771   8.314  10.041  0.6909  0.1608 -0.2786
  621MOL0     C85566   4.839   8.195  10.034 -0.6683  0.7097 -0.8627
  621MOL0     C85567   4.867   8.136   9.910  0.7420  0.0524  0.7653
  621MOL0     O85568   4.930   8.017   9.919  0.0152  0.1636 -0.4579
  621MOL0     C85569   4.961   7.939   9.803 -1.2388 -0.0308  1.5856
  621MOL0     C85570   5.113   7.941   9.760  0.1566  1.0734 -0.4160
  621MOL0     C85571   5.123   7.890   9.612 -0.4057  0.0498  0.3997
  621MOL0     C85572   5.264   7.867   9.563 -0.0618 -0.0650  0.5722
  621MOL0     C85573   5.277   7.804   9.422  0.1119  0.5522 -0.3325
  621MOL0     C85574   5.251   7.909   9.306 -0.1930  0.7953 -0.5580
  621MOL0     C85575   5.260   7.848   9.175 -0.3903  0.1387  0.5023
  621MOL0     C85576   5.212   7.941   9.066 -0.1618 -0.4694 -0.0277
  621MOL0     N85577   5.232   7.876   8.935  0.2335  0.0774  0.8492
  621MOL0     C85578   5.346   7.882   8.851  0.5373  0.5107 -1.1709
  621MOL0     C85579   5.314   7.816   8.742  0.8605  1.0208 -0.3004
  621MOL0     C85580   5.391   7.807   8.611 -0.9429  0.1646  0.0816
  621MOL0     C85581   5.440   7.661   8.606  0.9541  0.1926  0.3817
  621MOL0     C85582   5.373   7.567   8.503  0.2055  0.9597 -0.1516
  621MOL0     C85583   5.426   7.586   8.361  0.1497 -0.1306 -0.4784
  621MOL0     O85584   5.344   7.500   8.281 -0.3920  0.3796 -0.6168
  621MOL0     C85585   5.382   7.371   8.284 -0.6562 -0.0414  0.5291
  621MOL0     C85586   5.285   7.280   8.310 -0.1630  0.2405 -0.0812
  621MOL0     C85587   5.302   7.146   8.319 -0.1429 -0.5491  0.1111
  621MOL0     C85588   5.181   7.068   8.353  0.9563  0.2469 -1.0264
  621MOL0     C85589   5.427   7.097   8.284  0.4389 -0.9671  0.3220
  621MOL0     C85590   5.464   6.952   8.253  0.8903 -0.0771 -0.7545
  621MOL0     O85591   5.553   6.913   8.161  0.0811 -0.2147  0.5408
  621MOL0     C85592   5.571   6.784   8.128  1.0771  0.1360 -0.2099
  621MOL0     C85593   5.657   6.703   8.205  0.1012  0.3534  0.8363
  621MOL0     C85594   5.669   6.572   8.168 -0.4434  0.8197  0.6415
  621MOL0     C85595   5.604   6.513   8.060  1.0878 -0.1360 -0.4906
  621MOL0     O85596   5.615   6.377   8.046  0.4598  0.1276  0.6524
  621MOL0     C85597   5.526   6.299   8.119  0.8088 -0.1650 -0.1701
  621MOL0     C85598   5.418   6.254   8.032  0.4792 -0.4135  0.3236
  621MOL0     C85599   5.321   6.142   8.085 -0.4970  0.9466  0.2146
  621MOL0     C85600   5.212   6.207   8.164 -0.1229 -0.4093  0.0097
  621MOL0     C85601   5.139   6.086   8.241  1.1391  0.6586  0.6775
  621MOL0     C85602   5.022   6.140   8.316 -0.6956 -0.1431 -0.4036
  621MOL0     C85603   4.901   6.188   8.231  0.1348  0.0485  0.4524
  621MOL0     C85604   4.773   6.159   8.298 -0.2903 -0.4189 -0.1631
  621MOL0    Cl85605   4.768   6.211   8.481 -0.1614  0.0128  0.1615
  621MOL0     C85606   5.513   6.593   7.985 -1.0082 -0.3684 -0.4193
  621MOL0     C85607   5.494   6.727   8.020 -0.7966  0.5071  0.0724
  621MOL0     O85608   5.406   6.877   8.328 -0.8739  0.7752  0.5803
  621MOL0     C85609   5.532   7.195   8.259  0.9369 -0.2814 -0.2535
  621MOL0     C85610   5.511   7.327   8.258  0.0520  0.1149  1.3368
  621MOL0     N85611   5.198   7.743   8.757  0.9275  0.1565 -0.1247
  621MOL0     N85612   5.147   7.795   8.868  0.1761  0.4166 -0.1917
  621MOL0     C85613   4.833   8.210   9.793 -0.3562 -0.0269 -0.8668
  621MOL0     C85614   4.778   8.335   9.799  0.6541  0.4578  0.0239
  621MOL0     C85615   4.480   8.657  10.012 -0.3454 -0.6166  1.0179
  621MOL0     C85616   4.583   8.751  10.029 -1.3012  0.2884 -0.2702
  621MOL0     C85617   4.552   8.877  10.087  1.2924 -0.2322  0.9221
  621MOL0     C85618   4.409   8.906  10.107 -0.6360  0.6916 -0.5037
  621MOL0     O85619   4.377   9.026  10.157 -0.2740 -0.6725  0.3990
  621MOL0     C85620   4.389   9.130  10.057 -0.0357 -0.7831  0.9649
  621MOL0     C85621   4.334   9.270  10.097 -0.0137  1.4311  0.3105
  621MOL0     C85622   4.188   9.267  10.097  0.8131  0.0554 -0.0517
  621MOL0     C85623   4.123   9.397  10.148  0.5239  0.6012  0.2280
  621MOL0     C85624   4.125   9.404  10.292  0.7271  0.9444 -0.6967
  621MOL0     C85625   4.132   9.414  10.413 -0.6612  0.0605  0.0925
  621MOL0     C85626   4.316   8.805  10.080 -0.4761 -0.3975  0.8394
  621MOL0     C85627   4.352   8.686  10.034  0.2838  0.5971 -0.1869
  621MOL0     C85628   4.237   8.576  10.019 -0.2384 -0.5031 -0.5285
  621MOL0     H85629   4.774   8.359  10.140 -1.2138  0.3962 -0.2984
  621MOL0     H85630   4.847   8.137  10.126 -1.1549 -1.2168 -1.9897
  621MOL0     H85631   4.899   7.970   9.718 -1.2955 -1.4573  1.0852
  621MOL0     H85632   4.944   7.831   9.811 -3.3580 -0.4971 -4.4571
  621MOL0     H85633   5.163   8.038   9.769  2.4919 -0.1819  1.4138
  621MOL0     H85634   5.167   7.869   9.822 -3.8804 -2.5162 -0.5664
  621MOL0     H85635   5.071   7.793   9.606 -0.5696  0.0520  1.5723
  621MOL0     H85636   5.074   7.955   9.539 -1.4792 -0.8466  0.2802
  621MOL0     H85637   5.325   7.957   9.579 -1.3509  1.2505 -1.4704
  621MOL0     H85638   5.306   7.784   9.620  2.8885 -0.4360 -1.8714
  621MOL0     H85639   5.217   7.713   9.414  1.2686 -0.4296  1.5935
  621MOL0     H85640   5.378   7.773   9.395  0.1678  2.5794 -2.9358
  621MOL0     H85641   5.146   7.940   9.320 -0.6071 -1.3666  1.9402
  621MOL0     H85642   5.322   7.992   9.314  2.7091 -1.6726  1.3131
  621MOL0     H85643   5.200   7.757   9.182 -0.7950 -0.2321 -4.4744
  621MOL0     H85644   5.360   7.815   9.149 -1.3552 -5.2032  2.3892
  621MOL0     H85645   5.111   7.977   9.087  0.1359  0.7287 -0.5373
  621MOL0     H85646   5.275   8.031   9.068 -0.2343 -0.4247  0.3014
  621MOL0     H85647   5.437   7.938   8.868 -0.4778  1.8078  0.2608
  621MOL0     H85648   5.474   7.878   8.618  0.2892 -1.3562  1.8497
  621MOL0     H85649   5.341   7.836   8.518  0.6027 -0.8215 -1.0932
  621MOL0     H85650   5.549   7.656   8.592  0.8521  0.3764 -0.5475
  621MOL0     H85651   5.432   7.617   8.705  0.5864  2.0635  1.2278
  621MOL0     H85652   5.397   7.468   8.541 -0.9552  0.8955  0.4377
  621MOL0     H85653   5.265   7.563   8.517  0.1991 -3.2680 -0.2732
  621MOL0     H85654   5.411   7.690   8.332 -1.1204 -0.2936 -0.4540
  621MOL0     H85655   5.530   7.552   8.357 -0.6158 -2.7787  0.2863
  621MOL0     H85656   5.200   7.335   8.350  0.7447  2.1846 -0.7092
  621MOL0     H85657   5.104   7.126   8.405  1.4636  0.7448 -0.8215
  621MOL0     H85658   5.226   6.984   8.408  1.6515  0.6494 -0.9745
  621MOL0     H85659   5.135   7.029   8.262 -1.0648 -0.7873  0.3535
  621MOL0     H85660   5.706   6.749   8.291 -2.3167  0.4901  2.2417
  621MOL0     H85661   5.724   6.503   8.230 -0.4130  0.7795  0.5711
  621MOL0     H85662   5.583   6.221   8.171 -1.1516 -0.5974  1.4512
  621MOL0     H85663   5.472   6.366   8.187  0.4303  0.5561 -1.1642
  621MOL0     H85664   5.364   6.340   7.992 -2.5402 -2.9597 -1.5320
  621MOL0     H85665   5.463   6.212   7.941  1.4596  1.7126 -0.2638
  621MOL0     H85666   5.385   6.079   8.148  1.5360  1.7845 -0.8980
  621MOL0     H85667   5.285   6.078   8.004 -2.4771 -1.6270  2.9149
  621MOL0     H85668   5.140   6.244   8.090  1.2641  2.8053  0.1112
  621MOL0     H85669   5.255   6.277   8.235  3.8972 -1.4231 -1.1875
  621MOL0     H85670   5.102   6.011   8.170 -2.3663  1.4729  1.4543
  621MOL0     H85671   5.208   6.039   8.311 -0.5525 -0.9846  1.3317
  621MOL0     H85672   5.062   6.220   8.378 -0.6384  0.4840 -1.2349
  621MOL0     H85673   4.985   6.056   8.376  1.7312  0.6092  2.4111
  621MOL0     H85674   4.911   6.146   8.131  2.6420 -0.5264  0.8606
  621MOL0     H85675   4.918   6.296   8.223 -0.1862 -0.0521 -2.2842
  621MOL0     H85676   4.736   6.057   8.287  1.6484 -1.0826 -1.0455
  621MOL0     H85677   4.702   6.227   8.251  0.4672  1.6185  1.4548
  621MOL0     H85678   5.453   6.555   7.903 -0.7014 -1.2090 -0.2621
  621MOL0     H85679   5.421   6.783   7.962  0.2629  0.4657 -1.3727
  621MOL0     H85680   5.634   7.165   8.237  1.9152  1.5172  1.4967
  621MOL0     H85681   5.586   7.403   8.238 -1.6460  0.8457 -3.7357
  621MOL0     H85682   4.882   8.177   9.702 -1.4420  0.1734 -1.5445
  621MOL0     H85683   4.765   8.387   9.704 -0.7603 -2.2406 -1.3825
  621MOL0     H85684   4.686   8.718  10.025 -1.6816 -1.1864  0.9273
  621MOL0     H85685   4.631   8.949  10.107  1.6526 -0.5845  0.7713
  621MOL0     H85686   4.485   9.145  10.008 -1.2353 -1.3187 -1.7356
  621MOL0     H85687   4.335   9.098   9.967  3.2268  4.0945 -3.2640
  621MOL0     H85688   4.357   9.345  10.021  0.6488  1.9992  1.0588
  621MOL0     H85689   4.375   9.313  10.189 -0.3498  0.5354  0.8877
  621MOL0     H85690   4.158   9.268   9.992 -1.4295  0.2351  0.5281
  621MOL0     H85691   4.155   9.179  10.153 -0.0138 -1.9919 -3.4690
  621MOL0     H85692   4.016   9.396  10.125  0.0890  3.7362  1.6701
  621MOL0     H85693   4.172   9.483  10.101  4.1172 -0.6743  1.2957
  621MOL0     H85694   4.117   9.424  10.519 -5.0660 -0.8743 -0.2141
  621MOL0     H85695   4.214   8.840  10.093  1.1048  3.9985  3.3639
  621MOL0     H85696   4.243   8.495  10.092  0.0034  0.1856  0.2319
  621MOL0     H85697   4.139   8.623  10.027 -0.7985 -1.5958 -0.8932
  621MOL0     H85698   4.246   8.524   9.923  1.4496 -1.0502 -0.1194
  622MOL0     O85699   7.631   3.762   7.960 -0.3114  0.0905  0.7594
  622MOL0     C85700   7.574   3.657   7.931 -0.9543 -0.2179 -0.2373
  622MOL0     O85701   7.442   3.627   7.944  0.2802  0.0358  1.1224
  622MOL0     C85702   7.373   3.711   8.021 -0.2758  0.2669  0.6876
  622MOL0     C85703   7.291   3.647   8.122 -0.3209 -0.0324 -0.2886
  622MOL0     C85704   7.199   3.707   8.203 -0.6201  0.7611  0.8331
  622MOL0     C85705   7.173   3.841   8.172 -0.3776  0.0495 -0.2806
  622MOL0     O85706   7.087   3.913   8.256  0.2512 -0.6148 -0.0847
  622MOL0     C85707   7.118   3.932   8.389 -0.5851  0.0306  0.1342
  622MOL0     C85708   7.030   4.036   8.446 -0.4590  0.0239  0.5510
  622MOL0     C85709   6.892   4.053   8.386  0.8870  0.0722 -0.0162
  622MOL0     C85710   6.834   4.176   8.464  0.4165  0.1774  0.4705
  622MOL0     C85711   6.681   4.215   8.425 -0.1824  0.0227  0.1191
  622MOL0     C85712   6.674   4.370   8.439 -0.3593 -1.1276  0.2999
  622MOL0     C85713   6.731   4.476   8.337 -1.1973 -0.1303 -0.6055
  622MOL0     C85714   6.689   4.459   8.189  0.3579  0.1332  0.0745
  622MOL0     N85715   6.542   4.450   8.171  0.4123  0.1087  0.0310
  622MOL0     C85716   6.446   4.543   8.142 -0.4919 -0.6509  0.7008
  622MOL0     C85717   6.342   4.471   8.097 -0.1544 -0.3881  0.7805
  622MOL0     C85718   6.207   4.536   8.052 -0.0870 -1.1707 -0.1740
  622MOL0     C85719   6.090   4.455   8.098  0.5407  1.0064 -0.3066
  622MOL0     C85720   5.959   4.500   8.044 -0.0496 -0.0259  0.1439
  622MOL0     C85721   5.926   4.474   7.898 -0.2515 -0.0324  0.1907
  622MOL0     O85722   5.937   4.337   7.860 -0.2857 -0.4257  0.0967
  622MOL0     C85723   5.991   4.307   7.740  0.0426  0.2836 -0.5016
  622MOL0     C85724   5.902   4.248   7.654 -0.7555  0.4789  0.7768
  622MOL0     C85725   5.932   4.220   7.514  0.3281  0.2583  0.0376
  622MOL0     C85726   5.820   4.152   7.432 -0.6966  0.9087 -0.1044
  622MOL0     C85727   6.070   4.251   7.473 -0.8095  0.3853  0.6922
  622MOL0     C85728   6.117   4.208   7.334 -0.1419  0.6955 -0.7316
  622MOL0     O85729   6.246   4.164   7.341 -0.1127  0.3646 -0.4339
  622MOL0     C85730   6.288   4.081   7.237  0.7462  0.5937  0.7869
  622MOL0     C85731   6.329   3.948   7.259 -0.1313 -1.0325  0.6482
  622MOL0     C85732   6.379   3.869   7.159  0.0082 -0.0934  0.6186
  622MOL0     C85733   6.389   3.918   7.030  0.5653  0.4960  0.9100
  622MOL0     O85734   6.454   3.842   6.932 -0.2765 -0.3385  0.2441
  622MOL0     C85735   6.498   3.708   6.964 -0.7409  0.1805 -0.1958
  622MOL0     C85736   6.591   3.661   6.844  0.5332  0.3958  0.7995
  622MOL0     C85737   6.670   3.529   6.877  0.0361  0.0290  0.5572
  622MOL0     C85738   6.570   3.413   6.892  0.4269 -0.0527  0.4131
  622MOL0     C85739   6.649   3.279   6.909  0.3080  0.2600  0.0921
  622MOL0     C85740   6.714   3.228   6.786 -0.2274 -0.1016  0.5239
  622MOL0     C85741   6.611   3.225   6.669  0.2056  0.2232 -0.5659
  622MOL0     C85742   6.650   3.127   6.558 -0.2513  0.0038  1.2747
  622MOL0    Cl85743   6.819   3.153   6.496  0.6923 -0.0054 -0.4155
  622MOL0     C85744   6.346   4.049   7.001  0.5635 -0.0797  0.1929
  622MOL0     C85745   6.299   4.128   7.105  0.2030  0.0011 -0.4268
  622MOL0     O85746   6.038   4.204   7.241 -0.2155  0.1103  0.0469
  622MOL0     C85747   6.165   4.306   7.566 -0.7008  0.3911 -0.3066
  622MOL0     C85748   6.120   4.338   7.695 -0.5899 -0.8743  0.3864
  622MOL0     N85749   6.359   4.341   8.110  0.5178 -1.0660  0.1588
  622MOL0     N85750   6.489   4.333   8.150  0.4763  1.5001 -0.7920
  622MOL0     C85751   7.239   3.917   8.062 -0.6496 -0.4314 -0.6091
  622MOL0     C85752   7.331   3.841   7.983 -0.4567  0.6835 -0.8652
  622MOL0     C85753   7.656   3.549   7.883 -0.2919  0.5209 -0.2575
  622MOL0     C85754   7.617   3.492   7.761  0.5337 -0.9878 -0.4301
  622MOL0     C85755   7.676   3.387   7.699 -0.3150 -0.2399 -0.2303
  622MOL0     C85756   7.789   3.328   7.761 -0.2017 -0.7208  0.8012
  622MOL0     O85757   7.866   3.223   7.705 -0.2855 -0.3557 -0.1222
  622MOL0     C85758   7.797   3.135   7.608 -0.6283 -0.0696 -0.0133
  622MOL0     C85759   7.889   3.011   7.575  0.7629 -0.5338 -1.6567
  622MOL0     C85760   7.885   2.901   7.687 -0.5146 -0.3589 -0.4667
  622MOL0     C85761   7.945   2.772   7.635 -0.7362  0.6132 -0.1552
  622MOL0     C85762   7.937   2.658   7.724  0.1018  0.3082  0.2549
  622MOL0     C85763   7.916   2.577   7.808 -0.7249  0.3586 -0.7534
  622MOL0     C85764   7.849   3.397   7.867  0.3459  0.0851  1.0616
  622MOL0     C85765   7.782   3.497   7.933  0.4732 -0.1275  0.6803
  622MOL0     C85766   7.844   3.561   8.057  0.3624  0.9961  0.0747
  622MOL0     H85767   7.308   3.548   8.163 -0.3017  0.1622  0.1803
  622MOL0     H85768   7.155   3.658   8.289 -0.8643 -0.8760 -0.1963
  622MOL0     H85769   7.225   3.951   8.403 -0.1688 -0.5675 -1.9302
  622MOL0     H85770   7.105   3.834   8.438 -0.1014 -0.3322 -0.4514
  622MOL0     H85771   7.006   3.998   8.545 -2.5136  2.1197  0.9202
  622MOL0     H85772   7.075   4.134   8.427 -0.8401 -0.2826 -2.4793
  622MOL0     H85773   6.897   4.091   8.283 -1.8591  2.6625  0.6478
  622MOL0     H85774   6.833   3.964   8.412  2.1309 -0.7626  0.0457
  622MOL0     H85775   6.851   4.162   8.571  1.0525 -1.8424  0.1589
  622MOL0     H85776   6.888   4.266   8.434 -0.3066 -0.2538 -2.4494
  622MOL0     H85777   6.604   4.181   8.495  0.5219  2.1987  2.0892
  622MOL0     H85778   6.649   4.176   8.328 -1.0387  2.8527 -0.8433
  622MOL0     H85779   6.571   4.399   8.459 -0.8783 -1.2361 -1.9742
  622MOL0     H85780   6.733   4.391   8.529  2.4582  0.0000 -1.6507
  622MOL0     H85781   6.840   4.469   8.350 -0.9224  0.1614 -2.5713
  622MOL0     H85782   6.699   4.579   8.358  0.1828  1.1407 -4.1071
  622MOL0     H85783   6.730   4.538   8.124  4.9224 -3.4913 -2.0805
  622MOL0     H85784   6.738   4.365   8.159  2.0126  0.2971  2.0370
  622MOL0     H85785   6.438   4.650   8.156  0.5557 -0.6990  1.8953
  622MOL0     H85786   6.186   4.539   7.945 -3.6074 -0.1792  0.4323
  622MOL0     H85787   6.207   4.642   8.079  4.5363 -0.4657 -1.9994
  622MOL0     H85788   6.106   4.349   8.075  1.1467  1.0034  0.0812
  622MOL0     H85789   6.096   4.442   8.207 -2.1503 -1.6705 -0.3414
  622MOL0     H85790   5.879   4.456   8.103  0.7209 -0.1303  1.1356
  622MOL0     H85791   5.943   4.606   8.066  1.3705  0.3519 -0.4815
  622MOL0     H85792   5.831   4.515   7.863 -0.1287  1.7840  1.8178
  622MOL0     H85793   6.004   4.530   7.845  1.8882 -3.2179 -0.3198
  622MOL0     H85794   5.803   4.218   7.688  0.2541 -1.0253  2.5805
  622MOL0     H85795   5.781   4.227   7.363  0.3460 -0.4788 -2.3450
  622MOL0     H85796   5.740   4.109   7.492  0.7957  0.1500  1.4231
  622MOL0     H85797   5.858   4.073   7.366 -0.9513  2.0423 -1.6671
  622MOL0     H85798   6.330   3.916   7.363  3.3949  0.3810  1.1816
  622MOL0     H85799   6.428   3.779   7.194  0.6079 -0.6345 -1.5058
  622MOL0     H85800   6.552   3.710   7.060  0.4151  2.2432 -0.8464
  622MOL0     H85801   6.415   3.637   6.970 -1.0525  0.6528  3.3610
  622MOL0     H85802   6.537   3.648   6.750  4.2331  1.1799 -1.6717
  622MOL0     H85803   6.656   3.748   6.827  3.5167 -1.8254  0.0376
  622MOL0     H85804   6.728   3.532   6.970 -1.6785 -2.2305  1.7791
  622MOL0     H85805   6.729   3.500   6.789  2.5916  0.1630  2.0948
  622MOL0     H85806   6.493   3.411   6.814  0.9703 -1.3240 -0.1165
  622MOL0     H85807   6.518   3.414   6.988  2.1526 -1.0457  1.4116
  622MOL0     H85808   6.712   3.294   6.997 -2.1841  0.8070  1.9247
  622MOL0     H85809   6.582   3.202   6.950 -3.6326  3.4771  0.3315
  622MOL0     H85810   6.755   3.127   6.792 -1.6433 -0.6594  1.6939
  622MOL0     H85811   6.796   3.295   6.757  0.0836 -0.3839  0.7501
  622MOL0     H85812   6.604   3.323   6.621  0.2704  1.9142  2.6102
  622MOL0     H85813   6.509   3.210   6.706 -0.5453  4.2382 -0.5582
  622MOL0     H85814   6.571   3.126   6.482  1.2668  2.1208 -0.4801
  622MOL0     H85815   6.661   3.023   6.590 -2.7885 -0.0619  2.0964
  622MOL0     H85816   6.352   4.090   6.900  1.5500 -3.1938 -1.1408
  622MOL0     H85817   6.276   4.231   7.083  4.5096  1.2995  0.1312
  622MOL0     H85818   6.271   4.313   7.546 -0.1993 -2.2265  0.9753
  622MOL0     H85819   6.187   4.376   7.772 -2.5570  0.8309  1.3316
  622MOL0     H85820   7.210   4.020   8.040  1.5531 -0.1467 -2.5699
  622MOL0     H85821   7.378   3.870   7.890 -0.8223 -1.5424 -1.8198
  622MOL0     H85822   7.546   3.546   7.699  1.5734  1.0422  0.0509
  622MOL0     H85823   7.648   3.347   7.602  0.5727  1.0658 -1.0671
  622MOL0     H85824   7.705   3.105   7.660 -0.0019  1.1256  1.8936
  622MOL0     H85825   7.796   3.180   7.508  4.2849 -0.9996 -0.7445
  622MOL0     H85826   7.993   3.045   7.571  0.0717  2.1204  0.0461
  622MOL0     H85827   7.859   2.966   7.480 -1.6244  0.9749 -1.6928
  622MOL0     H85828   7.940   2.927   7.778 -2.2443  1.4858  0.1144
  622MOL0     H85829   7.782   2.882   7.718  0.2716 -1.1586  1.8787
  622MOL0     H85830   8.051   2.789   7.610  0.3279 -3.0333  1.2084
  622MOL0     H85831   7.896   2.748   7.541  1.5313 -1.5556 -0.8917
  622MOL0     H85832   7.898   2.487   7.865  0.6485  0.0556 -0.7584
  622MOL0     H85833   7.947   3.367   7.904  0.7541  2.0504  1.6959
  622MOL0     H85834   7.782   3.552   8.147 -0.1484  1.2280 -0.2510
  622MOL0     H85835   7.947   3.526   8.069 -0.4980 -1.3965  0.9918
  622MOL0     H85836   7.852   3.670   8.048 -0.3194  1.0847  0.4621
  623MOL0     O85837   7.655   5.779   8.328  1.2878 -0.5526  0.3266
  623MOL0     C85838   7.764   5.816   8.373  0.4104  1.0138  0.4539
  623MOL0     O85839   7.846   5.912   8.321 -0.1187 -0.8542 -0.4908
  623MOL0     C85840   7.858   5.947   8.186 -0.4586  0.8377  0.6793
  623MOL0     C85841   7.791   5.895   8.069  0.1281 -1.1742 -0.5482
  623MOL0     C85842   7.806   5.963   7.947  0.0540  0.6220  0.2602
  623MOL0     C85843   7.884   6.079   7.932  0.4652  0.6165  0.4213
  623MOL0     O85844   7.887   6.156   7.810 -0.6569  0.7350 -0.1139
  623MOL0     C85845   7.876   6.090   7.686 -1.1479  1.2137 -0.1599
  623MOL0     C85846   7.825   6.194   7.590 -0.7748  0.1899  0.0876
  623MOL0     C85847   7.682   6.196   7.591  0.7929 -0.7743 -0.8315
  623MOL0     C85848   7.616   6.297   7.490 -0.2887  0.6137  0.0697
  623MOL0     C85849   7.467   6.254   7.484 -0.6915  0.3068  0.2422
  623MOL0     C85850   7.391   6.257   7.626 -0.1567  0.0908 -0.0764
  623MOL0     C85851   7.239   6.231   7.619 -0.4142 -0.6857  0.6334
  623MOL0     C85852   7.184   6.198   7.755 -0.2560  0.6926  0.6542
  623MOL0     N85853   7.033   6.197   7.758 -0.2650 -0.1999  0.6812
  623MOL0     C85854   6.947   6.307   7.764  0.1528  0.2178  0.7679
  623MOL0     C85855   6.831   6.251   7.743  0.6201 -0.0127 -1.3513
  623MOL0     C85856   6.704   6.325   7.762 -0.4449 -0.4649 -0.1871
  623MOL0     C85857   6.668   6.409   7.645 -0.2647  0.3020 -0.8813
  623MOL0     C85858   6.654   6.333   7.511 -0.5166 -0.3785  0.6175
  623MOL0     C85859   6.526   6.259   7.499  0.6387  0.1730 -0.7024
  623MOL0     O85860   6.512   6.220   7.363 -0.3466 -0.6593  0.0164
  623MOL0     C85861   6.596   6.121   7.315 -0.3353 -0.3728  0.0867
  623MOL0     C85862   6.585   6.090   7.175  0.1249 -0.3955 -1.4638
  623MOL0     C85863   6.672   5.994   7.113 -0.3465 -0.4086 -0.8276
  623MOL0     C85864   6.663   5.988   6.965  0.0072  0.5203 -0.3364
  623MOL0     C85865   6.774   5.927   7.184  0.8533 -0.5289 -0.3003
  623MOL0     C85866   6.853   5.824   7.127 -0.2225 -0.3096  0.4350
  623MOL0     O85867   6.935   5.763   7.216  0.3617 -0.0039 -0.3955
  623MOL0     C85868   6.987   5.634   7.185 -0.0390  0.0736  0.0786
  623MOL0     C85869   7.065   5.626   7.067  0.1095  0.5081 -0.1262
  623MOL0     C85870   7.150   5.513   7.059  0.1783  0.0030  0.7011
  623MOL0     C85871   7.148   5.400   7.147  0.4904  0.2643  0.8067
  623MOL0     O85872   7.240   5.301   7.115  0.2699 -0.1348  0.3598
  623MOL0     C85873   7.240   5.184   7.187  0.3517 -0.0103  0.3120
  623MOL0     C85874   7.321   5.078   7.103 -0.6370 -0.3102  0.2252
  623MOL0     C85875   7.466   5.102   7.069  0.4877  0.1669  0.3783
  623MOL0     C85876   7.547   5.056   7.184  1.1037 -0.2068 -0.7901
  623MOL0     C85877   7.674   5.131   7.197 -0.1274 -0.0713 -0.6350
  623MOL0     C85878   7.774   5.101   7.091  0.1758 -0.2185 -0.9165
  623MOL0     C85879   7.917   5.151   7.106 -0.0454  0.1739 -1.1605
  623MOL0     C85880   8.019   5.084   7.012  0.6722  0.0125  0.2404
  623MOL0    Cl85881   7.976   5.134   6.850  0.3701  0.2120  0.0854
  623MOL0     C85882   7.063   5.410   7.252  0.6921 -1.0807 -0.5834
  623MOL0     C85883   6.986   5.527   7.279 -0.3290  0.0834  0.9794
  623MOL0     O85884   6.837   5.780   7.015 -0.8543 -0.0334  0.9095
  623MOL0     C85885   6.781   5.960   7.320 -0.3405  0.9847 -0.8165
  623MOL0     C85886   6.697   6.053   7.388  0.3338 -0.1627  0.6177
  623MOL0     N85887   6.848   6.112   7.733  0.1876 -0.3862  0.0718
  623MOL0     N85888   6.969   6.086   7.735 -0.1597  0.0058 -0.7535
  623MOL0     C85889   7.956   6.117   8.048 -0.7747 -0.7219  0.5246
  623MOL0     C85890   7.951   6.047   8.172  0.0881 -0.3403  0.0235
  623MOL0     C85891   7.818   5.738   8.491 -0.5760  0.4182 -0.3143
  623MOL0     C85892   7.956   5.703   8.504 -0.2882 -0.7310 -0.9050
  623MOL0     C85893   8.016   5.649   8.614  0.1056  0.8411 -0.5718
  623MOL0     C85894   7.932   5.599   8.714 -0.5149 -0.6297  0.3642
  623MOL0     O85895   7.995   5.549   8.823  0.4660 -0.3596  0.1117
  623MOL0     C85896   7.927   5.519   8.941  0.4181 -0.7709  0.6398
  623MOL0     C85897   8.013   5.437   9.028  0.1187  0.0744 -0.6265
  623MOL0     C85898   8.154   5.512   9.055 -0.0930  0.3510 -0.1908
  623MOL0     C85899   8.235   5.450   9.173  0.0517 -0.0167 -0.1116
  623MOL0     C85900   8.175   5.490   9.295 -0.5834  0.7996  0.7447
  623MOL0     C85901   8.155   5.513   9.406 -0.1656 -0.1861  0.3470
  623MOL0     C85902   7.799   5.628   8.713 -0.1845 -0.0859  0.2051
  623MOL0     C85903   7.739   5.689   8.598  0.2688  0.5993 -0.0778
  623MOL0     C85904   7.593   5.723   8.614  0.8672 -0.6610  0.1386
  623MOL0     H85905   7.721   5.814   8.090 -0.1122 -0.6938  0.6042
  623MOL0     H85906   7.748   5.927   7.863  0.2254  2.0892 -0.5252
  623MOL0     H85907   7.825   5.994   7.696  0.4381  0.4698  1.3267
  623MOL0     H85908   7.978   6.075   7.648 -0.4063 -0.0564  2.1710
  623MOL0     H85909   7.858   6.295   7.616 -2.0880  0.7899 -0.4558
  623MOL0     H85910   7.868   6.168   7.493  0.3891  0.7215  0.4494
  623MOL0     H85911   7.646   6.095   7.565 -1.3156  0.1072 -1.5409
  623MOL0     H85912   7.648   6.224   7.691 -0.2049  0.8855 -1.5969
  623MOL0     H85913   7.621   6.401   7.524 -1.6331  0.9343 -0.6188
  623MOL0     H85914   7.660   6.299   7.390 -0.5728 -1.6176 -0.1567
  623MOL0     H85915   7.458   6.158   7.432 -2.8104 -0.7207  2.3373
  623MOL0     H85916   7.412   6.328   7.425 -1.3202  0.2440  0.7384
  623MOL0     H85917   7.429   6.164   7.670 -0.8138  0.2710  0.9075
  623MOL0     H85918   7.418   6.339   7.693  0.7648 -0.0233 -0.3006
  623MOL0     H85919   7.207   6.149   7.554 -1.5496  1.4046 -1.6164
  623MOL0     H85920   7.189   6.319   7.577 -0.0693 -1.0850 -0.6469
  623MOL0     H85921   7.230   6.104   7.787  2.6594  1.3293 -1.2323
  623MOL0     H85922   7.222   6.262   7.836  0.4179  0.0194  0.8785
  623MOL0     H85923   6.974   6.410   7.786  1.0779 -0.1558  1.4521
  623MOL0     H85924   6.725   6.393   7.846  0.0041 -0.1930 -0.5150
  623MOL0     H85925   6.620   6.265   7.798  0.7914 -0.8679  2.2466
  623MOL0     H85926   6.571   6.452   7.674  1.6674  4.0913  0.7216
  623MOL0     H85927   6.735   6.495   7.642 -0.8788  0.8641  0.4246
  623MOL0     H85928   6.666   6.409   7.433 -1.5841 -1.1042 -0.2780
  623MOL0     H85929   6.740   6.268   7.497  0.7956  1.7472 -2.3294
  623MOL0     H85930   6.522   6.179   7.573 -3.0366 -0.2972 -1.2397
  623MOL0     H85931   6.444   6.331   7.514  1.6447  1.2698 -0.2535
  623MOL0     H85932   6.497   6.124   7.121 -2.4631 -1.3873  1.8329
  623MOL0     H85933   6.623   5.894   6.928  0.5506 -0.8818  2.3723
  623MOL0     H85934   6.764   6.003   6.927  2.3363 -2.5164  3.8128
  623MOL0     H85935   6.591   6.061   6.926  1.5691  1.1804 -2.1776
  623MOL0     H85936   7.075   5.710   7.000  2.3470 -0.1780 -0.7452
  623MOL0     H85937   7.223   5.500   6.979  1.0990 -1.1170  1.6954
  623MOL0     H85938   7.281   5.204   7.286 -1.6266  0.6858  1.0425
  623MOL0     H85939   7.142   5.137   7.201  0.2066  0.2886  0.2937
  623MOL0     H85940   7.302   4.983   7.153  0.9593  0.6133  2.7944
  623MOL0     H85941   7.269   5.076   7.006 -2.6875 -1.3132  1.2871
  623MOL0     H85942   7.463   5.211   7.053 -0.4338  0.0919  0.0161
  623MOL0     H85943   7.494   5.069   6.969  0.4752  1.1596  0.0376
  623MOL0     H85944   7.564   4.948   7.187  0.0756 -0.3629  0.0945
  623MOL0     H85945   7.496   5.087   7.275  0.9745  2.3066 -1.6381
  623MOL0     H85946   7.646   5.237   7.207  1.2302  0.2866 -0.5228
  623MOL0     H85947   7.715   5.111   7.297 -0.9377  0.2642 -0.2228
  623MOL0     H85948   7.723   5.139   7.002  1.0579  4.4312  0.3010
  623MOL0     H85949   7.771   4.991   7.088  1.7107 -0.3298  0.5202
  623MOL0     H85950   7.951   5.137   7.209 -0.2306  0.8483 -1.0038
  623MOL0     H85951   7.924   5.259   7.086 -0.6689  0.7230  1.1689
  623MOL0     H85952   8.003   4.976   7.024  2.6380 -0.4800 -1.1324
  623MOL0     H85953   8.118   5.124   7.035  1.0950  1.2435 -3.2284
  623MOL0     H85954   7.052   5.340   7.334  0.2077 -0.6073 -0.2418
  623MOL0     H85955   6.926   5.537   7.369  0.2672 -2.0194  1.6632
  623MOL0     H85956   6.854   5.910   7.384  1.5660  3.0680 -1.2317
  623MOL0     H85957   6.715   6.071   7.493  1.4194  0.8209  0.2831
  623MOL0     H85958   8.029   6.196   8.037  0.0563 -1.5957 -0.4029
  623MOL0     H85959   8.016   6.082   8.251  0.3296 -1.0852  0.1637
  623MOL0     H85960   8.022   5.737   8.424 -1.5900 -0.1818 -1.7876
  623MOL0     H85961   8.123   5.634   8.606  0.2907 -0.1852  2.4133
  623MOL0     H85962   7.883   5.607   8.988  0.9710 -0.1779  0.0770
  623MOL0     H85963   7.840   5.459   8.914 -1.9723  2.8762 -0.5030
  623MOL0     H85964   8.031   5.348   8.967 -2.2902  1.7831 -4.1502
  623MOL0     H85965   7.956   5.417   9.119  0.9168 -1.5564 -0.4636
  623MOL0     H85966   8.212   5.506   8.962 -0.9760 -2.3787 -0.6649
  623MOL0     H85967   8.138   5.614   9.090 -0.4289  0.4620 -0.6555
  623MOL0     H85968   8.332   5.496   9.153 -0.6569  0.5470 -2.4545
  623MOL0     H85969   8.225   5.341   9.175 -0.7085  0.0567  0.7707
  623MOL0     H85970   8.151   5.529   9.512  0.1571  1.0448  0.1921
  623MOL0     H85971   7.734   5.622   8.799  1.0907  0.0134  1.1946
  623MOL0     H85972   7.525   5.646   8.576  0.3670 -0.1804  0.0359
  623MOL0     H85973   7.575   5.753   8.717 -1.3414  2.4635 -0.9701
  623MOL0     H85974   7.568   5.813   8.555 -0.9923  0.0088  1.8306
  624MOL0     O85975   3.682   3.880  11.315 -0.1062  0.0260 -0.4197
  624MOL0     C85976   3.578   3.864  11.381 -0.1729 -0.6764  0.5566
  624MOL0     O85977   3.520   3.749  11.415 -0.4247  0.4333 -0.2890
  624MOL0     C85978   3.521   3.641  11.330 -0.2568  0.8570  0.8971
  624MOL0     C85979   3.638   3.590  11.266  0.0079  0.1466  0.4970
  624MOL0     C85980   3.629   3.480  11.187 -0.1318  0.4504  0.0738
  624MOL0     C85981   3.505   3.412  11.164  0.3803 -0.1837  0.7763
  624MOL0     O85982   3.479   3.285  11.101  0.2789 -0.3181  0.5915
  624MOL0     C85983   3.574   3.182  11.111 -0.8369  0.0902  0.5412
  624MOL0     C85984   3.629   3.167  11.258  0.5376  0.0076  0.0821
  624MOL0     C85985   3.682   3.033  11.289 -0.7422 -0.2737 -0.4808
  624MOL0     C85986   3.783   2.972  11.185 -0.4123 -0.5934 -0.7399
  624MOL0     C85987   3.859   2.855  11.243 -0.3382 -0.9206  0.0532
  624MOL0     C85988   3.953   2.798  11.137 -1.1591 -0.3881 -0.4098
  624MOL0     C85989   4.051   2.690  11.192  0.0256  0.2313  0.7313
  624MOL0     C85990   4.147   2.744  11.296  0.3637 -0.2483 -1.4298
  624MOL0     N85991   4.248   2.647  11.339  0.4259 -0.1658 -0.5771
  624MOL0     C85992   4.324   2.562  11.270  0.1467  0.7711 -1.0587
  624MOL0     C85993   4.360   2.472  11.367  0.2025 -0.0534  0.4865
  624MOL0     C85994   4.412   2.345  11.332 -0.6079 -0.6770  1.2584
  624MOL0     C85995   4.319   2.232  11.366 -0.3703  0.5974 -0.3896
  624MOL0     C85996   4.403   2.101  11.342  0.2607 -0.9299 -0.0270
  624MOL0     C85997   4.526   2.084  11.437  0.4579  0.2533 -0.1479
  624MOL0     O85998   4.498   2.128  11.570  0.2570  0.2577  0.5617
  624MOL0     C85999   4.612   2.139  11.647  0.2694  0.2698 -0.9142
  624MOL0     C86000   4.653   2.024  11.725 -0.7235 -0.4325 -1.1220
  624MOL0     C86001   4.762   2.028  11.808  0.3425  0.3588 -0.0531
  624MOL0     C86002   4.782   1.899  11.878 -0.9035 -0.2982 -0.1715
  624MOL0     C86003   4.835   2.150  11.829  0.8538  0.8236  0.3010
  624MOL0     C86004   4.927   2.172  11.950 -0.3053  0.1475  0.3138
  624MOL0     O86005   4.907   2.102  12.075  0.1825  0.3719  0.0791
  624MOL0     C86006   5.002   2.118  12.176 -0.3204  0.0978 -0.2401
  624MOL0     C86007   4.970   2.165  12.301 -0.0909 -0.0891  0.8716
  624MOL0     C86008   5.066   2.178  12.392 -0.0781 -0.9704  0.3187
  624MOL0     C86009   5.199   2.155  12.374  0.3899 -0.6744  0.5509
  624MOL0     O86010   5.290   2.188  12.473 -0.2292 -0.7313 -0.1861
  624MOL0     C86011   5.421   2.249  12.445 -0.8909 -0.1971  0.2650
  624MOL0     C86012   5.494   2.317  12.559  0.5998 -0.3278  0.0645
  624MOL0     C86013   5.400   2.399  12.666 -0.5045  0.5845 -0.0700
  624MOL0     C86014   5.486   2.457  12.772 -0.3126  0.1545 -0.6672
  624MOL0     C86015   5.512   2.343  12.884 -0.6462 -1.1621  0.1177
  624MOL0     C86016   5.381   2.320  12.960  0.0897  1.4331  0.2202
  624MOL0     C86017   5.337   2.175  12.933 -0.0981  0.2985  0.8728
  624MOL0     C86018   5.205   2.120  12.991  1.1759  0.1510 -0.1938
  624MOL0    Cl86019   5.065   2.234  12.994  0.0993 -0.3981 -0.0390
  624MOL0     C86020   5.234   2.104  12.253 -0.3900  1.2507  0.1263
  624MOL0     C86021   5.137   2.080  12.145 -0.1858  0.1594 -0.5732
  624MOL0     O86022   5.012   2.263  11.928  0.5030  0.4077  0.0199
  624MOL0     C86023   4.800   2.255  11.743 -0.0353 -0.9044 -0.1672
  624MOL0     C86024   4.694   2.249  11.650  0.0706 -0.4795 -0.6335
  624MOL0     N86025   4.325   2.508  11.494  0.4049  0.3573  0.4681
  624MOL0     N86026   4.256   2.613  11.475 -0.2437 -0.4833 -0.1623
  624MOL0     C86027   3.395   3.465  11.220  0.0728  0.3016 -0.2164
  624MOL0     C86028   3.402   3.575  11.307  1.1110 -0.0367  1.0190
  624MOL0     C86029   3.537   3.979  11.456 -1.1229 -0.4622 -0.9345
  624MOL0     C86030   3.569   3.976  11.600  0.3808  0.1355  1.6127
  624MOL0     C86031   3.538   4.087  11.681 -0.6010  0.4835  0.2778
  624MOL0     C86032   3.459   4.181  11.623  0.0096  0.1392 -0.4420
  624MOL0     O86033   3.420   4.284  11.703 -0.2540 -0.0681  0.1518
  624MOL0     C86034   3.292   4.276  11.777  0.9879 -0.3102  0.8063
  624MOL0     C86035   3.197   4.365  11.699 -0.5380  0.9382  0.0856
  624MOL0     C86036   3.062   4.276  11.695 -0.1839  0.2967  0.5733
  624MOL0     C86037   2.953   4.355  11.623  0.0151 -0.6657  0.7710
  624MOL0     C86038   2.912   4.462  11.710  0.1101  0.3776  0.1766
  624MOL0     C86039   2.888   4.539  11.805 -0.8320  0.2587  0.3366
  624MOL0     C86040   3.419   4.178  11.485  0.5133  0.0791 -0.6192
  624MOL0     C86041   3.461   4.079  11.405 -1.4602 -0.8396  0.3695
  624MOL0     C86042   3.410   4.082  11.264  0.1173 -0.6436  0.8788
  624MOL0     H86043   3.731   3.637  11.296  1.3955 -1.4976 -1.0150
  624MOL0     H86044   3.718   3.429  11.151 -1.4651 -3.0790  1.3808
  624MOL0     H86045   3.649   3.216  11.040 -0.2792  3.2566  2.4297
  624MOL0     H86046   3.534   3.089  11.071  0.0092 -0.2795  0.5513
  624MOL0     H86047   3.706   3.244  11.273  1.0144 -0.1706 -1.2440
  624MOL0     H86048   3.547   3.178  11.329  1.0543  0.1151  0.6739
  624MOL0     H86049   3.743   3.039  11.379 -3.0210 -0.3245  1.1495
  624MOL0     H86050   3.611   2.950  11.304  1.5919 -1.8300  3.5859
  624MOL0     H86051   3.726   2.934  11.100 -2.6169 -0.3831  0.5555
  624MOL0     H86052   3.846   3.054  11.149 -3.4152  2.4248  0.3228
  624MOL0     H86053   3.794   2.775  11.280 -0.4970 -0.8352 -0.0360
  624MOL0     H86054   3.917   2.890  11.328 -1.6312  2.6063 -0.3354
  624MOL0     H86055   3.887   2.752  11.063 -1.7114  0.5497 -0.5117
  624MOL0     H86056   4.005   2.885  11.095 -0.2287  0.4008  2.2033
  624MOL0     H86057   4.111   2.634  11.119 -0.8102 -0.0026  0.2072
  624MOL0     H86058   4.000   2.611  11.248  0.7056  1.0865  2.6519
  624MOL0     H86059   4.187   2.838  11.256 -2.0065  3.1653  3.2531
  624MOL0     H86060   4.094   2.781  11.385  0.0114  0.6199 -1.9919
  624MOL0     H86061   4.338   2.562  11.162  0.7424 -0.6978 -1.0078
  624MOL0     H86062   4.508   2.343  11.384 -0.2537 -1.7343  0.5972
  624MOL0     H86063   4.435   2.341  11.225  2.7595 -4.0457  1.9006
  624MOL0     H86064   4.284   2.238  11.470  3.7309  0.8266  1.1561
  624MOL0     H86065   4.239   2.240  11.292 -0.4118  0.4323 -0.3641
  624MOL0     H86066   4.348   2.007  11.334 -0.1070 -0.7083 -0.1548
  624MOL0     H86067   4.452   2.116  11.245  2.5456 -0.1388  1.1771
  624MOL0     H86068   4.565   1.982  11.432  1.8519  0.7894 -0.5303
  624MOL0     H86069   4.610   2.144  11.401 -0.0718  0.7750 -0.5360
  624MOL0     H86070   4.602   1.928  11.730 -0.6835 -0.4403 -0.8458
  624MOL0     H86071   4.884   1.881  11.913 -1.3130 -1.6987  0.3479
  624MOL0     H86072   4.762   1.814  11.812  3.2012  0.9727 -3.4780
  624MOL0     H86073   4.723   1.895  11.970  1.4843  0.8417  1.5319
  624MOL0     H86074   4.877   2.209  12.335  1.1549  2.2183  1.4871
  624MOL0     H86075   5.035   2.214  12.490 -0.3657 -1.9555  0.6081
  624MOL0     H86076   5.481   2.167  12.405 -2.6359 -1.3555 -0.0921
  624MOL0     H86077   5.416   2.324  12.365  2.2200  0.8771  0.9150
  624MOL0     H86078   5.551   2.237  12.606  0.9144 -0.8680 -1.1956
  624MOL0     H86079   5.577   2.376  12.519 -1.2263  2.1459 -0.3688
  624MOL0     H86080   5.317   2.338  12.702  0.6049 -0.5721  0.6228
  624MOL0     H86081   5.368   2.488  12.612 -1.2906  1.3824  1.6583
  624MOL0     H86082   5.435   2.539  12.823 -0.7398 -0.1940 -0.5302
  624MOL0     H86083   5.570   2.505  12.722 -0.7399  1.7995  0.1281
  624MOL0     H86084   5.548   2.251  12.838 -3.0097 -1.6717 -0.8565
  624MOL0     H86085   5.601   2.373  12.941  1.0659 -3.2147 -1.3413
  624MOL0     H86086   5.302   2.386  12.924  1.0561  2.0230 -0.9008
  624MOL0     H86087   5.392   2.341  13.067  0.9838  0.1374  0.4074
  624MOL0     H86088   5.414   2.101  12.956 -0.1839 -0.1654 -0.2218
  624MOL0     H86089   5.333   2.164  12.824 -3.8987  0.3176  0.8679
  624MOL0     H86090   5.228   2.116  13.098 -2.5795  4.4322  1.0779
  624MOL0     H86091   5.176   2.027  12.941 -0.1580  0.7431 -0.5803
  624MOL0     H86092   5.338   2.080  12.229 -1.1126 -1.0271 -1.0046
  624MOL0     H86093   5.174   2.041  12.051  3.0140  0.5137  0.4253
  624MOL0     H86094   4.851   2.351  11.753 -2.4538  0.4550 -0.1635
  624MOL0     H86095   4.677   2.343  11.597 -1.7243 -0.7815 -0.6613
  624MOL0     H86096   3.298   3.417  11.216  0.5932 -0.8755  0.7352
  624MOL0     H86097   3.318   3.625  11.355  1.6123 -2.3252  4.5823
  624MOL0     H86098   3.636   3.906  11.649  1.7019 -0.8784 -1.4029
  624MOL0     H86099   3.554   4.106  11.787  1.9714  5.9401 -0.7307
  624MOL0     H86100   3.248   4.175  11.774 -2.8350  1.1524 -3.3627
  624MOL0     H86101   3.302   4.323  11.875  2.0382  3.5863 -0.9752
  624MOL0     H86102   3.235   4.388  11.599 -0.8909  1.1722  0.0043
  624MOL0     H86103   3.177   4.462  11.745 -3.3911  0.9714 -1.0294
  624MOL0     H86104   3.087   4.181  11.647  2.1519  0.8518  0.5505
  624MOL0     H86105   3.038   4.264  11.801 -1.8411  1.0644  0.3126
  624MOL0     H86106   2.864   4.300  11.591 -0.4821  0.7294 -0.3469
  624MOL0     H86107   3.007   4.406  11.542 -1.5834  1.6165  1.0624
  624MOL0     H86108   2.887   4.615  11.881  0.0332 -0.1912  0.8248
  624MOL0     H86109   3.351   4.257  11.454 -0.9159  0.1424  2.2869
  624MOL0     H86110   3.312   4.039  11.242  1.2792 -2.2361 -1.6332
  624MOL0     H86111   3.395   4.186  11.233  1.5131 -0.9231 -0.8836
  624MOL0     H86112   3.481   4.047  11.189  1.7781  3.2333  0.3970
  625MOL0     O86113   8.977   9.773  10.479 -0.5585  0.2057  0.0400
  625MOL0     C86114   8.985   9.768  10.601 -0.0693  0.4010 -0.4700
  625MOL0     O86115   8.875   9.766  10.685 -0.0377  1.0149  0.0014
  625MOL0     C86116   8.758   9.754  10.620 -1.0804  0.5530 -0.5325
  625MOL0     C86117   8.693   9.626  10.609  0.4539 -0.4963  0.2190
  625MOL0     C86118   8.563   9.615  10.564 -0.3254 -0.0230  1.4330
  625MOL0     C86119   8.500   9.728  10.522 -0.2804 -0.5307 -0.1567
  625MOL0     O86120   8.377   9.722  10.468 -0.1551 -0.2146 -0.4447
  625MOL0     C86121   8.337   9.623  10.383 -0.8789  0.5031 -1.0445
  625MOL0     C86122   8.239   9.668  10.279 -0.2636 -0.3662 -0.0961
  625MOL0     C86123   8.303   9.756  10.168  0.2345  0.2387  0.3182
  625MOL0     C86124   8.206   9.810  10.064  0.6258 -0.5104 -0.4469
  625MOL0     C86125   8.130   9.932  10.123 -0.0793  1.1092  0.0402
  625MOL0     C86126   8.025   9.986  10.032  0.0902  0.0335  0.5701
  625MOL0     C86127   8.052  10.120   9.955 -0.8143 -0.1920 -0.2258
  625MOL0     C86128   7.986  10.238  10.015 -0.3791  0.2089  0.4193
  625MOL0     N86129   7.998  10.350   9.921 -0.2483 -0.7001 -1.2060
  625MOL0     C86130   8.083  10.469   9.941  0.2596  0.4414  0.3624
  625MOL0     C86131   8.063  10.543   9.830 -0.4335 -0.1858 -0.7222
  625MOL0     C86132   8.112  10.674   9.800 -0.6877  0.2080  0.1464
  625MOL0     C86133   8.042  10.791   9.874  0.3013 -1.8923 -0.2954
  625MOL0     C86134   8.103  10.934   9.842 -0.6042  0.5003  1.3515
  625MOL0     C86135   8.090  10.983   9.698  0.5442 -0.9734  0.0786
  625MOL0     O86136   8.202  10.992   9.611  0.1905 -0.9680  0.0146
  625MOL0     C86137   8.192  11.041   9.477  0.1086  0.1286  0.7947
  625MOL0     C86138   8.311  11.058   9.411 -0.5331 -0.4210  0.2713
  625MOL0     C86139   8.314  11.108   9.282 -0.1722 -0.1592  0.4466
  625MOL0     C86140   8.449  11.129   9.233  0.0224  1.2411  0.0608
  625MOL0     C86141   8.197  11.138   9.216  0.4782 -1.3428 -0.1605
  625MOL0     C86142   8.192  11.197   9.076 -0.5565  1.1837  0.5853
  625MOL0     O86143   8.086  11.272   9.042  1.0671 -0.6420 -0.9580
  625MOL0     C86144   8.079  11.362   8.943  0.0635 -0.2002  0.6131
  625MOL0     C86145   8.176  11.390   8.849  0.0059 -0.3135  1.7600
  625MOL0     C86146   8.148  11.483   8.746  0.1939 -0.5599 -0.2547
  625MOL0     C86147   8.031  11.559   8.748  0.4520  0.1901 -0.5711
  625MOL0     O86148   8.015  11.656   8.652 -0.8208  0.6015 -0.6804
  625MOL0     C86149   7.972  11.598   8.532  0.5682 -0.9664  0.1137
  625MOL0     C86150   7.818  11.579   8.524 -0.4226  0.0286 -0.1766
  625MOL0     C86151   7.753  11.721   8.502  0.1765 -0.1434 -0.3316
  625MOL0     C86152   7.605  11.723   8.476  0.2445  0.4627  0.1495
  625MOL0     C86153   7.571  11.819   8.372 -0.5810  0.7008 -0.8709
  625MOL0     C86154   7.423  11.832   8.361  0.5801 -0.9647 -0.3058
  625MOL0     C86155   7.372  11.973   8.317  0.5495  0.5416 -0.2283
  625MOL0     C86156   7.240  11.976   8.239  0.0934  0.0783  0.2738
  625MOL0    Cl86157   7.192  12.130   8.155 -0.6047 -0.0164 -0.0625
  625MOL0     C86158   7.926  11.543   8.846  0.0852 -0.8559 -0.4800
  625MOL0     C86159   7.956  11.436   8.931  0.8341  0.2035 -0.6358
  625MOL0     O86160   8.277  11.179   8.993 -0.1911  0.0167  0.4700
  625MOL0     C86161   8.081  11.137   9.295 -0.1287  0.3100  0.6178
  625MOL0     C86162   8.078  11.085   9.416  0.4731  0.0960 -0.3978
  625MOL0     N86163   7.972  10.474   9.747 -0.9484 -1.3433  0.5796
  625MOL0     N86164   7.936  10.368   9.806 -0.4286 -0.3040  1.5881
  625MOL0     C86165   8.574   9.856  10.509  0.2570  0.0313  0.3635
  625MOL0     C86166   8.693   9.867  10.571 -0.5911 -0.1694 -0.2447
  625MOL0     C86167   9.115   9.760  10.656 -0.0857  0.0229 -0.1679
  625MOL0     C86168   9.136   9.671  10.764 -0.7570  0.0554  0.5799
  625MOL0     C86169   9.257   9.669  10.824 -0.8800 -0.0603  0.2146
  625MOL0     C86170   9.369   9.747  10.781  0.2622  0.5688 -1.2070
  625MOL0     O86171   9.494   9.734  10.832  0.3078 -0.0787  0.3742
  625MOL0     C86172   9.524   9.795  10.956  0.0898  0.2546 -1.1189
  625MOL0     C86173   9.609   9.715  11.052  0.0986  0.7719  0.1704
  625MOL0     C86174   9.750   9.695  10.993 -0.1429 -0.5270 -0.3931
  625MOL0     C86175   9.847   9.654  11.097 -0.4754 -0.4587 -0.2020
  625MOL0     C86176   9.973   9.625  11.034 -0.0845 -0.5827 -0.2242
  625MOL0     C86177  10.075   9.593  10.980 -0.4916 -0.7699  0.4330
  625MOL0     C86178   9.344   9.838  10.682  0.1208 -0.0301  0.2542
  625MOL0     C86179   9.220   9.850  10.620 -0.6047  0.0414  0.7637
  625MOL0     C86180   9.209   9.959  10.515  0.2855  0.7601 -0.8276
  625MOL0     H86181   8.742   9.535  10.640  0.2246  0.5739  4.2792
  625MOL0     H86182   8.518   9.516  10.562 -0.2296 -0.1258 -1.7542
  625MOL0     H86183   8.290   9.549  10.449 -2.8298  2.1203 -0.5416
  625MOL0     H86184   8.420   9.580  10.326  0.6229  1.5751  0.2509
  625MOL0     H86185   8.188   9.583  10.232  0.0565 -2.0427  2.3454
  625MOL0     H86186   8.160   9.720  10.334  1.4292 -0.6646  2.8411
  625MOL0     H86187   8.338   9.849  10.214  1.9256  0.2554 -0.9103
  625MOL0     H86188   8.399   9.720  10.131  0.2238  1.1239 -0.6013
  625MOL0     H86189   8.265   9.845   9.979 -0.6787  0.8199 -0.8377
  625MOL0     H86190   8.136   9.739  10.019 -1.6079  2.1794 -1.4731
  625MOL0     H86191   8.200  10.007  10.159  3.7120 -2.5747  1.1348
  625MOL0     H86192   8.085   9.901  10.217 -4.9421 -1.5661 -2.7770
  625MOL0     H86193   8.011   9.906   9.959 -4.1725 -2.3596  3.5701
  625MOL0     H86194   7.934  10.002  10.089  0.5311  0.3051  1.2067
  625MOL0     H86195   8.009  10.110   9.854 -1.6365  2.1739 -0.1723
  625MOL0     H86196   8.160  10.132   9.941 -1.0034  2.1280 -0.1135
  625MOL0     H86197   7.879  10.216  10.023  0.1749 -2.0478  3.4121
  625MOL0     H86198   8.031  10.255  10.113  1.1523 -1.4151  0.0405
  625MOL0     H86199   8.134  10.497  10.033  0.2314  1.4493  0.0886
  625MOL0     H86200   8.114  10.691   9.692  1.9010  0.7037  0.2274
  625MOL0     H86201   8.218  10.680   9.824  0.3559 -0.5706 -3.6087
  625MOL0     H86202   7.941  10.809   9.836  0.1290 -2.1441  0.0372
  625MOL0     H86203   8.048  10.770   9.981  2.1775  0.9576  0.2559
  625MOL0     H86204   8.058  11.006   9.911 -2.9845 -0.9991  1.4449
  625MOL0     H86205   8.208  10.904   9.855  0.1854  2.6256  0.3352
  625MOL0     H86206   8.008  10.922   9.658  0.6209 -1.0746  0.0740
  625MOL0     H86207   8.052  11.085   9.711  0.7330 -0.7898 -0.7427
  625MOL0     H86208   8.403  11.039   9.466 -0.9846  0.5342  1.4040
  625MOL0     H86209   8.474  11.036   9.182  2.9249  0.1505  3.0555
  625MOL0     H86210   8.512  11.144   9.322  0.7116  1.9973 -0.5388
  625MOL0     H86211   8.465  11.216   9.169 -0.6620 -0.3321 -2.3674
  625MOL0     H86212   8.263  11.332   8.820 -0.9287 -0.5924 -0.8127
  625MOL0     H86213   8.225  11.508   8.674 -2.1244 -0.2680 -2.7955
  625MOL0     H86214   8.013  11.659   8.451 -1.1325  1.9836  1.2980
  625MOL0     H86215   8.021  11.504   8.509  0.0409 -1.0139 -0.8820
  625MOL0     H86216   7.803  11.517   8.435  0.1176  2.9860 -2.5043
  625MOL0     H86217   7.779  11.534   8.615  0.8143 -0.9421 -0.1000
  625MOL0     H86218   7.806  11.779   8.427  3.6119  2.8034  3.8535
  625MOL0     H86219   7.756  11.769   8.601 -2.5084 -0.5676  0.0513
  625MOL0     H86220   7.544  11.749   8.564 -3.5761 -3.0670 -1.1259
  625MOL0     H86221   7.573  11.624   8.445  0.3939  0.8464 -1.2921
  625MOL0     H86222   7.615  11.919   8.384  2.6005 -0.5902 -0.9898
  625MOL0     H86223   7.615  11.791   8.276 -1.1411  3.9098 -2.2086
  625MOL0     H86224   7.375  11.805   8.455  0.8780 -2.4506 -0.5523
  625MOL0     H86225   7.389  11.756   8.289 -2.7112  0.8240 -0.8304
  625MOL0     H86226   7.449  12.021   8.256  1.2571 -1.0541 -0.6606
  625MOL0     H86227   7.360  12.035   8.406 -1.2042 -0.4316  0.2626
  625MOL0     H86228   7.168  11.955   8.319 -0.2497  4.0386  1.1815
  625MOL0     H86229   7.246  11.895   8.165 -2.0913  0.2708 -0.1692
  625MOL0     H86230   7.836  11.603   8.857 -0.1106 -1.0399 -1.0489
  625MOL0     H86231   7.888  11.421   9.014  1.8471 -0.3474  0.1168
  625MOL0     H86232   7.985  11.179   9.269 -1.7303 -2.1997  2.0098
  625MOL0     H86233   7.986  11.082   9.473 -0.3028 -3.4191 -1.5816
  625MOL0     H86234   8.534   9.940  10.453 -3.4690 -2.4653 -1.1282
  625MOL0     H86235   8.752   9.958  10.583  1.0719 -1.4485  2.1923
  625MOL0     H86236   9.059   9.603  10.800 -1.4544  0.6579  0.2426
  625MOL0     H86237   9.272   9.580  10.884 -3.0765 -0.5183  0.1435
  625MOL0     H86238   9.582   9.888  10.959 -0.8523  0.8646  1.7200
  625MOL0     H86239   9.442   9.831  11.019  0.6041 -2.1952  1.1373
  625MOL0     H86240   9.567   9.618  11.078  2.3241 -0.3945 -0.3967
  625MOL0     H86241   9.620   9.752  11.154 -2.1165 -0.6053  0.9883
  625MOL0     H86242   9.752   9.617  10.917 -1.5203 -0.3401 -0.6416
  625MOL0     H86243   9.788   9.790  10.954  0.4212  0.4290  2.2834
  625MOL0     H86244   9.809   9.565  11.149 -0.0605 -1.0467 -0.8886
  625MOL0     H86245   9.853   9.740  11.165 -2.5101 -0.7825  0.4607
  625MOL0     H86246  10.171   9.572  10.936 -0.0698 -0.6956  1.3109
  625MOL0     H86247   9.424   9.904  10.652  0.2123  0.1038  0.7885
  625MOL0     H86248   9.113   9.963  10.462 -0.8229  0.0533  1.0431
  625MOL0     H86249   9.232  10.051  10.570 -1.7038  2.2920 -2.3943
  625MOL0     H86250   9.289   9.944  10.441  2.0979 -0.4383  1.2509
  626MOL0     O86251   4.072   7.649  10.997  0.1591 -0.8071 -0.6318
  626MOL0     C86252   4.032   7.754  11.037 -0.0994 -0.2554 -1.0663
  626MOL0     O86253   4.072   7.872  10.993 -0.7703  0.4677  0.0981
  626MOL0     C86254   4.124   7.878  10.868 -0.5483  0.2519  0.1128
  626MOL0     C86255   4.049   7.845  10.758 -0.8051  0.2973  0.6960
  626MOL0     C86256   4.118   7.862  10.637 -0.1135  1.4658 -0.3958
  626MOL0     C86257   4.240   7.928  10.619  0.8418  0.2615  0.1455
  626MOL0     O86258   4.285   7.957  10.486  0.2415  0.1667 -0.2623
  626MOL0     C86259   4.221   7.901  10.368 -0.0418 -0.0044  0.1659
  626MOL0     C86260   4.326   7.938  10.262 -0.8278  0.1019 -0.2321
  626MOL0     C86261   4.306   7.886  10.116  0.9177  0.2590 -0.0349
  626MOL0     C86262   4.419   7.949  10.035  0.4721  0.0343  0.3970
  626MOL0     C86263   4.434   7.896   9.894  0.6881  0.4576  0.9565
  626MOL0     C86264   4.554   7.954   9.837 -1.3514  0.0028  1.0143
  626MOL0     C86265   4.584   7.900   9.691  0.3352 -0.4339 -0.8273
  626MOL0     C86266   4.626   7.749   9.690 -0.0379  0.5087  0.3572
  626MOL0     N86267   4.688   7.714   9.560 -0.4159  0.0345 -0.2570
  626MOL0     C86268   4.637   7.760   9.439  0.6065  1.2219 -0.5324
  626MOL0     C86269   4.734   7.719   9.352 -0.6054 -0.8011 -0.2294
  626MOL0     C86270   4.745   7.766   9.213  0.7431  0.5796  0.4789
  626MOL0     C86271   4.841   7.887   9.172  0.0457 -0.0502 -0.1999
  626MOL0     C86272   4.808   8.024   9.234 -0.0374  0.1758  1.6371
  626MOL0     C86273   4.811   8.133   9.124 -0.1905  0.0210 -0.2527
  626MOL0     O86274   4.935   8.142   9.052 -0.4805 -0.2946 -0.9524
  626MOL0     C86275   5.028   8.228   9.096 -0.1084 -0.2970  0.1703
  626MOL0     C86276   5.096   8.283   8.995 -0.9187  0.8350 -0.3708
  626MOL0     C86277   5.207   8.364   9.007  1.1367  0.3134 -0.1719
  626MOL0     C86278   5.274   8.420   8.886 -0.1414 -0.6712  0.7713
  626MOL0     C86279   5.244   8.403   9.146 -0.1858  0.0964 -0.4417
  626MOL0     C86280   5.352   8.487   9.190  0.0059 -0.2371  0.7869
  626MOL0     O86281   5.399   8.579   9.099  0.3339 -0.3505 -0.0466
  626MOL0     C86282   5.498   8.665   9.131  0.7934  0.2233 -0.3320
  626MOL0     C86283   5.470   8.803   9.154  0.1482  0.5750 -0.0597
  626MOL0     C86284   5.573   8.885   9.204  0.1953 -0.0524 -0.1766
  626MOL0     C86285   5.702   8.838   9.233  0.3515 -0.1404  0.2640
  626MOL0     O86286   5.781   8.923   9.308  0.7656 -0.4065 -0.0905
  626MOL0     C86287   5.908   8.871   9.355  0.3840 -0.5693 -0.0638
  626MOL0     C86288   5.971   8.984   9.432 -0.7229  0.3236 -1.7444
  626MOL0     C86289   6.122   8.985   9.457 -0.4671  0.2798 -0.0286
  626MOL0     C86290   6.155   8.899   9.585  1.5027  0.2380 -0.1297
  626MOL0     C86291   6.305   8.914   9.617 -0.7012 -0.4200 -0.3573
  626MOL0     C86292   6.423   8.888   9.513 -0.1901  0.2172 -0.3471
  626MOL0     C86293   6.451   8.738   9.468  0.7406  0.0971 -0.0599
  626MOL0     C86294   6.378   8.682   9.348 -0.2661 -0.0718  0.3897
  626MOL0    Cl86295   6.413   8.514   9.329 -0.1577 -0.1133  0.4318
  626MOL0     C86296   5.725   8.704   9.205  1.0251  0.1443  0.2837
  626MOL0     C86297   5.623   8.615   9.165 -0.3884 -0.5936 -0.1013
  626MOL0     O86298   5.403   8.474   9.303 -0.2613 -0.1817  0.1326
  626MOL0     C86299   5.158   8.352   9.252 -0.1451  0.1528 -0.0729
  626MOL0     C86300   5.054   8.269   9.227  0.1253  0.5156  0.0685
  626MOL0     N86301   4.827   7.652   9.421 -0.7399 -0.5555  0.4136
  626MOL0     N86302   4.812   7.667   9.544  1.1364  0.8454 -0.6351
  626MOL0     C86303   4.319   7.943  10.735  0.7906  0.6440 -0.0656
  626MOL0     C86304   4.256   7.925  10.858  0.1622 -0.4376  0.2275
  626MOL0     C86305   3.938   7.748  11.145 -0.1197 -0.5930 -0.1363
  626MOL0     C86306   3.949   7.656  11.251 -0.1695  0.3949 -0.0594
  626MOL0     C86307   3.865   7.645  11.353  0.2950  0.0721  0.3495
  626MOL0     C86308   3.758   7.735  11.364 -0.2902 -0.9749 -0.1008
  626MOL0     O86309   3.671   7.744  11.464 -0.4201  0.1346 -0.6216
  626MOL0     C86310   3.660   7.648  11.571  0.2852  0.7643 -0.6735
  626MOL0     C86311   3.535   7.554  11.569 -0.1458 -0.5536  0.8874
  626MOL0     C86312   3.564   7.441  11.470 -0.0486  0.4631  0.9062
  626MOL0     C86313   3.430   7.358  11.446  0.7072 -0.4479 -0.7566
  626MOL0     C86314   3.418   7.278  11.326  0.4873  0.5454  0.3991
  626MOL0     C86315   3.410   7.215  11.214 -0.1014  0.1356  0.6051
  626MOL0     C86316   3.740   7.841  11.271 -0.2619  0.2943  0.2979
  626MOL0     C86317   3.826   7.843  11.157  0.7175 -0.5473 -0.7957
  626MOL0     C86318   3.779   7.933  11.041 -0.7950 -0.4286  0.5020
  626MOL0     H86319   3.949   7.802  10.766 -0.4319 -0.3458  2.2671
  626MOL0     H86320   4.071   7.820  10.549  1.3329 -1.9708  0.3043
  626MOL0     H86321   4.126   7.951  10.347  0.0026  0.3274  0.7318
  626MOL0     H86322   4.212   7.792  10.373 -1.8571 -0.1732 -3.5323
  626MOL0     H86323   4.333   8.047  10.264  4.4843  0.0770 -2.5416
  626MOL0     H86324   4.421   7.898  10.298  0.6299  4.2053  1.1273
  626MOL0     H86325   4.302   7.777  10.119  2.4798  0.1625 -0.4815
  626MOL0     H86326   4.214   7.922  10.069  0.0220  0.3359  1.7037
  626MOL0     H86327   4.390   8.054  10.028  0.7158  0.3783  3.4451
  626MOL0     H86328   4.511   7.941  10.094  1.9403  0.0255 -1.7805
  626MOL0     H86329   4.344   7.918   9.836  2.1052  0.2077 -1.5091
  626MOL0     H86330   4.443   7.787   9.897 -2.1476 -0.3160 -4.5029
  626MOL0     H86331   4.538   8.062   9.839  0.4905  0.2998  2.3607
  626MOL0     H86332   4.639   7.936   9.904 -0.8500  2.6586  1.1689
  626MOL0     H86333   4.675   7.955   9.664  0.0710  0.3011 -0.2615
  626MOL0     H86334   4.504   7.920   9.620  2.9974  2.8595 -3.2185
  626MOL0     H86335   4.701   7.727   9.767  2.4957 -3.4962 -2.8412
  626MOL0     H86336   4.549   7.674   9.709 -2.4760  3.3431  2.5774
  626MOL0     H86337   4.544   7.813   9.422  0.5363  0.4938 -2.6057
  626MOL0     H86338   4.638   7.773   9.192 -0.3870 -5.7581  1.9467
  626MOL0     H86339   4.772   7.676   9.157 -0.6887  3.0388 -4.7496
  626MOL0     H86340   4.942   7.862   9.206  0.0231  0.0788 -0.0392
  626MOL0     H86341   4.836   7.885   9.063 -1.5784 -0.5067 -0.1449
  626MOL0     H86342   4.708   8.021   9.278  0.4072  1.3079  2.8044
  626MOL0     H86343   4.878   8.051   9.314 -0.0761  0.1825  1.6692
  626MOL0     H86344   4.740   8.117   9.042 -0.9622  2.6510 -0.2010
  626MOL0     H86345   4.780   8.233   9.155 -1.1048  0.3484 -2.0867
  626MOL0     H86346   5.069   8.255   8.894 -0.5251 -0.1813 -0.2083
  626MOL0     H86347   5.246   8.358   8.800 -2.6118  0.2608  0.8159
  626MOL0     H86348   5.383   8.417   8.894 -0.1919 -1.9513  1.1432
  626MOL0     H86349   5.240   8.524   8.877 -1.7639 -1.2112  0.1498
  626MOL0     H86350   5.378   8.852   9.125 -0.1192 -1.3019 -2.7528
  626MOL0     H86351   5.545   8.990   9.200  1.1318  0.3828  2.4842
  626MOL0     H86352   5.901   8.797   9.435 -0.5995  0.2156  0.5960
  626MOL0     H86353   5.971   8.843   9.271 -1.1742 -2.6868 -0.6109
  626MOL0     H86354   5.958   9.081   9.383  3.1327  2.6506  1.2787
  626MOL0     H86355   5.923   8.975   9.530  1.7632 -0.1764 -0.5184
  626MOL0     H86356   6.160   9.087   9.456  2.4225 -0.6872  0.4890
  626MOL0     H86357   6.158   8.940   9.364  0.3157  0.0174  0.3911
  626MOL0     H86358   6.124   8.794   9.581  0.8403  0.4077  0.2837
  626MOL0     H86359   6.102   8.939   9.672  1.5230  3.4239 -1.4440
  626MOL0     H86360   6.311   9.017   9.654  3.2624 -0.8838  0.6967
  626MOL0     H86361   6.326   8.856   9.707 -2.3566  0.3463  0.5803
  626MOL0     H86362   6.515   8.930   9.554  0.6546 -0.7949 -1.1296
  626MOL0     H86363   6.409   8.951   9.425 -1.7826  1.2002  0.5577
  626MOL0     H86364   6.441   8.682   9.561 -2.7384 -0.2082 -0.4802
  626MOL0     H86365   6.554   8.738   9.430  0.4015  0.5323 -1.0297
  626MOL0     H86366   6.421   8.741   9.267 -1.2527 -0.7644 -0.6721
  626MOL0     H86367   6.271   8.705   9.348  0.1720  2.2142  0.4203
  626MOL0     H86368   5.825   8.665   9.225  1.6402  0.3333 -2.0636
  626MOL0     H86369   5.648   8.510   9.173 -0.3259 -0.5192  0.8151
  626MOL0     H86370   5.181   8.365   9.357 -0.8551  2.0372 -0.1206
  626MOL0     H86371   4.996   8.233   9.311  2.3508  1.0516  1.9342
  626MOL0     H86372   4.416   7.992  10.728 -0.0318  2.2518 -0.7514
  626MOL0     H86373   4.317   7.954  10.943  3.3584 -1.7310 -1.4419
  626MOL0     H86374   4.032   7.587  11.239  0.5648  1.6384 -3.0884
  626MOL0     H86375   3.875   7.571  11.432 -2.1658  0.6921  1.3490
  626MOL0     H86376   3.740   7.575  11.579 -1.7768 -1.5636 -0.3294
  626MOL0     H86377   3.672   7.693  11.670  1.2446 -0.9663  0.0244
  626MOL0     H86378   3.447   7.613  11.540  0.5554  1.4172  2.5807
  626MOL0     H86379   3.523   7.520  11.672  2.0355  0.4168  1.5073
  626MOL0     H86380   3.599   7.474  11.371 -1.1861  2.7299  1.1784
  626MOL0     H86381   3.636   7.380  11.524 -0.2799  0.9838  1.8140
  626MOL0     H86382   3.348   7.430  11.439  1.2012  0.2516  0.3789
  626MOL0     H86383   3.408   7.293  11.531 -0.7410  0.1988 -0.6176
  626MOL0     H86384   3.411   7.158  11.123 -1.1542 -0.7311  1.1055
  626MOL0     H86385   3.666   7.918  11.290  0.1275  1.1542 -1.4740
  626MOL0     H86386   3.690   7.988  11.071 -0.6923 -0.5061  0.9664
  626MOL0     H86387   3.842   8.019  11.016 -0.2420 -0.7772  0.6559
  626MOL0     H86388   3.764   7.884  10.945 -2.2626  2.2762 -0.7587
  627MOL0     O86389   3.001   5.397   2.785  0.0351 -0.9904 -1.3518
  627MOL0     C86390   3.043   5.502   2.846  0.2685  0.5943 -0.3399
  627MOL0     O86391   2.983   5.553   2.953  0.1950 -0.0048 -1.0276
  627MOL0     C86392   2.874   5.485   3.013  0.1557  0.2944 -0.1316
  627MOL0     C86393   2.873   5.353   3.062 -0.5957  0.1111  0.6002
  627MOL0     C86394   2.761   5.286   3.102  0.4502 -0.8554  0.3127
  627MOL0     C86395   2.637   5.352   3.091 -0.0383  0.3461 -1.2348
  627MOL0     O86396   2.517   5.299   3.140 -0.6289 -0.1803 -0.1607
  627MOL0     C86397   2.518   5.189   3.227 -0.9121  0.1395  0.6441
  627MOL0     C86398   2.377   5.132   3.251  0.0868  0.8861  0.0230
  627MOL0     C86399   2.318   5.067   3.124  0.6229  0.3389  1.5006
  627MOL0     C86400   2.166   5.019   3.136 -0.2110 -0.6549 -0.1239
  627MOL0     C86401   2.111   4.953   3.016 -0.1095 -0.1359 -0.0404
  627MOL0     C86402   2.194   4.834   2.959 -0.1242  0.4702  0.1442
  627MOL0     C86403   2.109   4.732   2.876  0.9370 -0.4596  0.0686
  627MOL0     C86404   2.024   4.786   2.760 -0.1857 -1.0647  0.5378
  627MOL0     N86405   1.984   4.675   2.669 -0.0220 -0.3692 -0.1982
  627MOL0     C86406   1.860   4.611   2.673  0.6902  0.3094  0.0209
  627MOL0     C86407   1.868   4.524   2.570  0.6763  0.3989 -0.6512
  627MOL0     C86408   1.757   4.425   2.537  0.1481  0.3849  0.1268
  627MOL0     C86409   1.663   4.475   2.426 -0.2470 -0.5289  0.0275
  627MOL0     C86410   1.607   4.621   2.449 -0.1113  0.6243  0.4919
  627MOL0     C86411   1.526   4.666   2.331 -0.0379 -0.4650  0.0466
  627MOL0     O86412   1.613   4.658   2.212 -0.3853 -0.1723 -0.0483
  627MOL0     C86413   1.551   4.677   2.090  0.2436 -0.9862 -0.6214
  627MOL0     C86414   1.505   4.583   1.993 -1.0716  0.0463 -0.2229
  627MOL0     C86415   1.451   4.616   1.867  0.2712  0.5830  0.3017
  627MOL0     C86416   1.419   4.511   1.757 -0.3361 -0.2576 -0.7537
  627MOL0     C86417   1.448   4.756   1.839 -0.7005  0.7616  0.6975
  627MOL0     C86418   1.429   4.800   1.698 -0.3575 -0.4220 -0.0330
  627MOL0     O86419   1.300   4.840   1.662  0.1135 -0.7011  0.1326
  627MOL0     C86420   1.288   4.930   1.565  0.2929 -0.4176  1.4402
  627MOL0     C86421   1.182   4.919   1.470 -0.5197  0.2730  0.0684
  627MOL0     C86422   1.171   5.013   1.366 -0.1588  0.4396  0.7193
  627MOL0     C86423   1.245   5.132   1.372 -0.0077  0.2255 -0.4897
  627MOL0     O86424   1.208   5.225   1.274 -0.0912  0.0272 -0.2376
  627MOL0     C86425   1.287   5.347   1.237 -0.1565  1.1959 -0.1825
  627MOL0     C86426   1.248   5.472   1.318 -0.5495  0.5893 -0.5557
  627MOL0     C86427   1.364   5.547   1.389  0.5078 -0.0710  0.8010
  627MOL0     C86428   1.308   5.616   1.514 -0.6061 -1.1255  0.1305
  627MOL0     C86429   1.420   5.623   1.622 -0.1295  0.2464  0.0416
  627MOL0     C86430   1.535   5.710   1.582 -0.2748 -0.4649  0.2085
  627MOL0     C86431   1.652   5.708   1.682  0.2633 -0.0471  0.4311
  627MOL0     C86432   1.749   5.810   1.642  0.2784  0.5871 -0.5058
  627MOL0    Cl86433   1.926   5.781   1.696  0.0909 -0.3125 -0.1995
  627MOL0     C86434   1.353   5.141   1.459 -1.7257  0.2468  0.0215
  627MOL0     C86435   1.377   5.039   1.553 -0.2752 -0.4566  0.1053
  627MOL0     O86436   1.519   4.782   1.620  0.0871  0.4009 -0.1326
  627MOL0     C86437   1.489   4.844   1.938 -0.4015  0.0946 -1.5854
  627MOL0     C86438   1.533   4.813   2.067 -0.9002  0.8668  0.4711
  627MOL0     N86439   1.986   4.543   2.504  1.1733 -0.5772 -0.8341
  627MOL0     N86440   2.059   4.630   2.560 -0.2969 -0.5371 -0.1994
  627MOL0     C86441   2.630   5.488   3.058 -0.1672  0.1920  0.2773
  627MOL0     C86442   2.753   5.550   3.022 -0.1404  0.4620 -0.3783
  627MOL0     C86443   3.172   5.563   2.807  0.3676 -0.2299 -1.1375
  627MOL0     C86444   3.232   5.656   2.892 -0.9297 -0.1751  0.0134
  627MOL0     C86445   3.351   5.717   2.851  0.2962 -0.4631 -0.5910
  627MOL0     C86446   3.406   5.695   2.729 -0.3164  0.1618 -0.8386
  627MOL0     O86447   3.521   5.765   2.697  1.0263 -0.2147  0.7804
  627MOL0     C86448   3.524   5.908   2.706  0.3039 -0.6494  0.3932
  627MOL0     C86449   3.581   5.986   2.589 -0.1056  0.0417  0.2721
  627MOL0     C86450   3.585   5.915   2.447 -0.1172 -0.1598 -0.7305
  627MOL0     C86451   3.643   6.010   2.350 -0.0219 -1.0800  0.3158
  627MOL0     C86452   3.777   6.058   2.382 -0.3874  1.8314  0.1990
  627MOL0     C86453   3.890   6.089   2.412 -0.1612  0.3943 -1.0116
  627MOL0     C86454   3.358   5.590   2.653  0.1238 -0.0766 -0.5137
  627MOL0     C86455   3.231   5.535   2.679  0.4105  0.6501  0.0100
  627MOL0     C86456   3.172   5.455   2.564  0.1861  0.1867 -0.8134
  627MOL0     H86457   2.969   5.301   3.059 -1.2823 -1.1841 -0.3015
  627MOL0     H86458   2.774   5.194   3.159  1.2698  0.7352  2.8818
  627MOL0     H86459   2.558   5.210   3.327 -1.2642  1.6480  0.4877
  627MOL0     H86460   2.585   5.113   3.185 -1.8649  0.0576 -0.7847
  627MOL0     H86461   2.387   5.044   3.316  1.1063  1.4990  0.7196
  627MOL0     H86462   2.308   5.209   3.286 -3.1675 -1.4166 -0.8263
  627MOL0     H86463   2.329   5.141   3.045 -0.1483 -1.3706 -0.3066
  627MOL0     H86464   2.380   4.993   3.073 -1.5986  1.1511 -2.8875
  627MOL0     H86465   2.160   4.939   3.209 -0.2116 -0.3194  0.2476
  627MOL0     H86466   2.096   5.095   3.174 -0.4253 -0.7755 -0.2706
  627MOL0     H86467   2.091   5.019   2.931  1.1390 -2.3432 -2.1936
  627MOL0     H86468   2.019   4.904   3.049  1.8959 -1.7333  3.9270
  627MOL0     H86469   2.284   4.867   2.906  1.0738  1.9173  2.8292
  627MOL0     H86470   2.244   4.768   3.031 -0.1372 -2.2356 -2.1710
  627MOL0     H86471   2.050   4.683   2.954  1.7793 -2.2045 -0.3315
  627MOL0     H86472   2.182   4.657   2.843  2.4857 -2.2306  6.2084
  627MOL0     H86473   1.937   4.832   2.807  1.1568  1.1230  1.0126
  627MOL0     H86474   2.069   4.875   2.714  0.2137 -1.9320 -0.8201
  627MOL0     H86475   1.790   4.612   2.756  0.0624  0.1431 -0.4965
  627MOL0     H86476   1.693   4.407   2.624  1.6709 -2.0012  0.8401
  627MOL0     H86477   1.795   4.326   2.511 -1.5496  0.1894 -1.8580
  627MOL0     H86478   1.720   4.477   2.332  0.9552  1.0126  0.7565
  627MOL0     H86479   1.587   4.398   2.411 -1.3431  0.9972 -3.1314
  627MOL0     H86480   1.545   4.626   2.539  0.4793 -0.7126  0.9958
  627MOL0     H86481   1.685   4.696   2.461 -0.2292  0.9570 -0.6390
  627MOL0     H86482   1.437   4.602   2.324 -0.8362  0.5533  0.5583
  627MOL0     H86483   1.496   4.769   2.348  1.1803  0.3280 -2.2376
  627MOL0     H86484   1.506   4.475   2.005 -2.2929 -0.2682 -2.4120
  627MOL0     H86485   1.363   4.561   1.678 -0.8185  1.7531  0.7659
  627MOL0     H86486   1.364   4.427   1.801  1.7182 -0.7998  0.9916
  627MOL0     H86487   1.511   4.467   1.715 -1.4296  0.3282 -4.0411
  627MOL0     H86488   1.127   4.826   1.474  0.4792 -0.4252 -1.5667
  627MOL0     H86489   1.098   4.991   1.289 -0.8270 -1.3303  1.7994
  627MOL0     H86490   1.391   5.316   1.254  0.1178  0.1396 -3.1929
  627MOL0     H86491   1.286   5.370   1.130 -0.4609  3.4351  0.2385
  627MOL0     H86492   1.194   5.540   1.251 -1.7221  1.1831  0.9373
  627MOL0     H86493   1.177   5.435   1.392  1.6198  0.9744  1.8399
  627MOL0     H86494   1.394   5.621   1.314 -0.2959 -2.3425 -1.9474
  627MOL0     H86495   1.439   5.470   1.409 -0.7593 -1.4765  0.3959
  627MOL0     H86496   1.228   5.548   1.544 -0.7560 -1.1443 -0.2969
  627MOL0     H86497   1.262   5.711   1.485  0.0617 -0.8691 -0.1224
  627MOL0     H86498   1.373   5.654   1.716  3.8077  2.1182  1.6020
  627MOL0     H86499   1.461   5.522   1.631 -1.0318 -0.3220 -1.7854
  627MOL0     H86500   1.487   5.806   1.560 -1.5239 -0.9265  0.7713
  627MOL0     H86501   1.565   5.678   1.482 -1.6263  2.4109 -1.2499
  627MOL0     H86502   1.697   5.608   1.686 -0.4082 -0.4705 -1.5022
  627MOL0     H86503   1.608   5.734   1.779  1.6591  1.6222  0.6519
  627MOL0     H86504   1.718   5.907   1.681  1.0508 -0.4705  3.1385
  627MOL0     H86505   1.755   5.820   1.533 -0.4250  0.0543 -0.5945
  627MOL0     H86506   1.416   5.228   1.447 -0.0717 -0.9300 -0.2470
  627MOL0     H86507   1.461   5.028   1.620  0.7145 -1.3088 -1.2159
  627MOL0     H86508   1.484   4.949   1.910  1.6208  1.4618  2.3729
  627MOL0     H86509   1.563   4.892   2.134  1.5472  1.0890 -0.7650
  627MOL0     H86510   2.534   5.535   3.078 -0.4557  0.0544 -0.7289
  627MOL0     H86511   2.757   5.649   2.977 -1.2143  1.6513  1.9144
  627MOL0     H86512   3.188   5.674   2.990  0.2438 -0.5248  0.6258
  627MOL0     H86513   3.386   5.799   2.914  0.5048 -0.1454 -1.1182
  627MOL0     H86514   3.423   5.950   2.702  1.3177  2.0415  0.6259
  627MOL0     H86515   3.587   5.927   2.793  1.9078 -3.4675 -0.0167
  627MOL0     H86516   3.685   6.002   2.620 -0.2394 -0.3481  0.9491
  627MOL0     H86517   3.531   6.082   2.578  0.9573  0.6727  0.7406
  627MOL0     H86518   3.658   5.834   2.449  1.1365  0.9450 -0.5139
  627MOL0     H86519   3.489   5.874   2.413  0.1888  0.4413 -2.3995
  627MOL0     H86520   3.570   6.091   2.352 -0.0229 -1.0911  1.5362
  627MOL0     H86521   3.631   5.955   2.256 -1.7914  1.5527 -1.1596
  627MOL0     H86522   3.984   6.109   2.458  0.0346  1.6453 -1.9241
  627MOL0     H86523   3.399   5.576   2.554 -0.1386 -3.7814 -0.2589
  627MOL0     H86524   3.188   5.350   2.590 -0.0258  0.5882  1.0715
  627MOL0     H86525   3.063   5.470   2.559 -0.3911 -3.3098 -1.2652
  627MOL0     H86526   3.214   5.483   2.467  0.7261  0.4342 -0.5077
  628MOL0     O86527  11.470   1.035   6.146 -0.2818  0.0519  0.2677
  628MOL0     C86528  11.411   1.137   6.147  0.3200 -0.4080 -0.3813
  628MOL0     O86529  11.444   1.251   6.080 -0.2859 -0.3599 -0.0639
  628MOL0     C86530  11.545   1.262   5.988  0.1783 -0.3260 -0.3406
  628MOL0     C86531  11.630   1.164   5.930 -0.1051  0.0684  0.1529
  628MOL0     C86532  11.727   1.201   5.836 -0.1186  0.5618  0.2375
  628MOL0     C86533  11.721   1.326   5.776 -0.4168 -0.2306  0.6044
  628MOL0     O86534  11.808   1.378   5.686 -0.2615 -0.2961  0.1322
  628MOL0     C86535  11.912   1.294   5.632  0.1598  0.3866  0.1994
  628MOL0     C86536  11.987   1.357   5.518 -0.0668 -0.2622 -0.2116
  628MOL0     C86537  12.138   1.317   5.512 -1.4183 -0.2171 -0.3532
  628MOL0     C86538  12.211   1.377   5.388  0.0249  0.1141  1.0885
  628MOL0     C86539  12.345   1.300   5.356  0.0539  0.1784 -0.1698
  628MOL0     C86540  12.442   1.385   5.292 -0.3164  0.2380 -0.4839
  628MOL0     C86541  12.575   1.310   5.279  1.4811  0.5898 -0.0707
  628MOL0     C86542  12.674   1.347   5.390  1.0034  0.1225  0.4413
  628MOL0     N86543  12.790   1.260   5.391  0.2849  0.2188 -0.7641
  628MOL0     C86544  12.784   1.152   5.470 -0.3258  0.5370  0.4800
  628MOL0     C86545  12.921   1.125   5.499  0.2007 -0.5719 -0.1221
  628MOL0     C86546  12.957   1.001   5.584  0.5701 -0.1891 -0.7815
  628MOL0     C86547  12.990   0.882   5.489  0.0570  0.4229 -0.5162
  628MOL0     C86548  12.974   0.758   5.584 -0.1678  0.7719 -0.7978
  628MOL0     C86549  13.064   0.643   5.538 -0.3498  0.1758 -0.1760
  628MOL0     O86550  13.044   0.523   5.616 -0.9253  1.0604 -0.5691
  628MOL0     C86551  13.161   0.446   5.632 -0.6095  0.1001 -0.7157
  628MOL0     C86552  13.255   0.422   5.524 -0.5494 -0.2029 -0.9991
  628MOL0     C86553  13.378   0.357   5.541  0.0299 -0.0381 -0.0167
  628MOL0     C86554  13.468   0.359   5.425  0.5889  0.0646  0.4487
  628MOL0     C86555  13.402   0.287   5.663 -0.0720  0.1051 -0.3713
  628MOL0     C86556  13.529   0.215   5.691  0.7833  0.0622 -0.5024
  628MOL0     O86557  13.514   0.131   5.803  1.0294 -0.1867 -0.0631
  628MOL0     C86558  13.618   0.055   5.849 -0.4818 -0.4265  0.2875
  628MOL0     C86559  13.709   0.102   5.943 -0.3631  0.1144 -0.2112
  628MOL0     C86560  13.825   0.032   5.968 -0.4083 -0.4502  0.3255
  628MOL0     C86561  13.849  -0.089   5.904  0.1979  0.5223 -0.6627
  628MOL0     O86562  13.972  -0.149   5.889 -0.2084  0.0683 -0.1638
  628MOL0     C86563  14.033  -0.192   6.013 -1.2383  1.6662  0.6922
  628MOL0     C86564  14.123  -0.323   5.998  0.2378  0.0912  0.3021
  628MOL0     C86565  14.234  -0.310   5.878  0.2070  0.3514 -0.5125
  628MOL0     C86566  14.344  -0.213   5.912 -0.5935 -0.1559  0.1060
  628MOL0     C86567  14.442  -0.210   5.794 -0.4097  0.4622  0.1703
  628MOL0     C86568  14.568  -0.129   5.825  0.2708 -0.0620 -0.2690
  628MOL0     C86569  14.548   0.021   5.815  0.0812  0.5868  0.1324
  628MOL0     C86570  14.676   0.106   5.843  0.3594  0.6385  0.1076
  628MOL0    Cl86571  14.761   0.127   5.690 -0.3215 -0.1124  0.3298
  628MOL0     C86572  13.753  -0.139   5.821 -0.8812 -0.2229  0.0284
  628MOL0     C86573  13.635  -0.069   5.792 -0.3392  0.3025 -0.4307
  628MOL0     O86574  13.623   0.222   5.614 -0.1140 -0.1976  0.1011
  628MOL0     C86575  13.312   0.295   5.766 -0.8485  0.4317  0.4525
  628MOL0     C86576  13.192   0.371   5.752 -0.6102 -0.9921 -0.9043
  628MOL0     N86577  12.998   1.236   5.457 -0.5837  0.1956  0.2607
  628MOL0     N86578  12.924   1.306   5.385  0.0161 -0.3141  1.1853
  628MOL0     C86579  11.635   1.424   5.823  1.3394  0.2031 -0.4617
  628MOL0     C86580  11.556   1.394   5.930 -0.8250 -0.4415 -0.6721
  628MOL0     C86581  11.282   1.142   6.207 -0.7226 -0.1142  0.6261
  628MOL0     C86582  11.252   1.252   6.290  0.3060  0.0547  0.5455
  628MOL0     C86583  11.139   1.261   6.361  1.0766 -0.1369 -1.1144
  628MOL0     C86584  11.035   1.172   6.353  0.3416  0.9268  1.6002
  628MOL0     O86585  10.916   1.210   6.417 -0.1256 -1.2777  0.4106
  628MOL0     C86586  10.789   1.139   6.414  0.3784 -0.8667 -0.0089
  628MOL0     C86587  10.737   1.106   6.559  0.0119 -0.4353  0.1646
  628MOL0     C86588  10.733   1.227   6.660 -0.3837  0.0942  0.4455
  628MOL0     C86589  10.864   1.295   6.694  0.6263 -0.7339 -0.3104
  628MOL0     C86590  10.866   1.342   6.834  0.1233 -0.6091  0.3546
  628MOL0     C86591  10.883   1.376   6.950  0.3208  0.1344  0.6427
  628MOL0     C86592  11.062   1.052   6.266  0.0272 -0.8475 -0.5114
  628MOL0     C86593  11.187   1.041   6.200 -0.6971 -0.7158 -0.9391
  628MOL0     C86594  11.190   0.928   6.102 -0.0944  0.8677  0.8266
  628MOL0     H86595  11.623   1.059   5.959  1.4487 -0.0762  0.0833
  628MOL0     H86596  11.773   1.123   5.777 -1.7044 -0.8014  0.7134
  628MOL0     H86597  11.866   1.203   5.593  0.9160  0.9983 -2.3463
  628MOL0     H86598  11.988   1.272   5.708  0.5965 -1.0525 -0.6116
  628MOL0     H86599  11.928   1.336   5.428 -0.4954  1.1891 -0.2941
  628MOL0     H86600  11.993   1.463   5.544 -0.9469 -0.9041  3.0009
  628MOL0     H86601  12.183   1.357   5.604  0.5319 -0.3641 -1.1970
  628MOL0     H86602  12.138   1.207   5.511 -0.5097 -0.2319 -2.2327
  628MOL0     H86603  12.149   1.373   5.298 -0.4068  1.2326  1.3177
  628MOL0     H86604  12.234   1.481   5.412  1.8164  1.1465 -3.8404
  628MOL0     H86605  12.335   1.201   5.309  1.8985 -0.5148  0.8022
  628MOL0     H86606  12.377   1.272   5.456 -1.4941 -2.3790 -0.3136
  628MOL0     H86607  12.397   1.415   5.197 -0.9748  0.9844  0.0465
  628MOL0     H86608  12.459   1.475   5.352 -0.6514 -0.5599  0.8366
  628MOL0     H86609  12.605   1.350   5.182 -5.0333  3.3419 -1.4791
  628MOL0     H86610  12.553   1.204   5.267  0.2693  0.5067  2.2414
  628MOL0     H86611  12.713   1.447   5.369  0.4635  0.7341  2.1711
  628MOL0     H86612  12.626   1.344   5.488  1.5763 -2.1154  0.6926
  628MOL0     H86613  12.697   1.096   5.502  1.0890 -4.3950 -3.0877
  628MOL0     H86614  12.880   0.989   5.660  2.3390 -0.8246  0.9994
  628MOL0     H86615  13.050   1.026   5.637  0.5604  1.1440 -1.3530
  628MOL0     H86616  12.918   0.883   5.407  1.0355 -1.6682 -1.4618
  628MOL0     H86617  13.095   0.891   5.459 -0.0561  1.8073 -0.5761
  628MOL0     H86618  12.991   0.793   5.686 -0.3992  1.0500 -0.8525
  628MOL0     H86619  12.871   0.722   5.579 -0.4549  1.5726 -0.8250
  628MOL0     H86620  13.063   0.613   5.432  0.5514  0.2365 -0.2060
  628MOL0     H86621  13.164   0.685   5.543 -1.0433  2.0015 -0.9098
  628MOL0     H86622  13.230   0.458   5.425 -1.8819 -1.3772 -1.1225
  628MOL0     H86623  13.419   0.410   5.341 -2.4482 -0.1767  1.9509
  628MOL0     H86624  13.501   0.256   5.410 -0.9509 -0.5534  1.1186
  628MOL0     H86625  13.558   0.414   5.455  0.6878  1.3742 -1.9643
  628MOL0     H86626  13.698   0.208   5.966  0.1302 -0.5532  3.8895
  628MOL0     H86627  13.913   0.070   6.017 -1.0043  1.8383 -0.2503
  628MOL0     H86628  14.096  -0.107   6.040  0.6592  0.5181  0.0063
  628MOL0     H86629  13.953  -0.213   6.085  0.3152 -1.8402  1.6137
  628MOL0     H86630  14.165  -0.347   6.097  3.9163 -2.5607 -1.6559
  628MOL0     H86631  14.070  -0.408   5.954  3.0416  0.3349 -4.1426
  628MOL0     H86632  14.188  -0.295   5.780 -3.3937 -4.7320  0.0315
  628MOL0     H86633  14.279  -0.409   5.870  0.7128  0.3529  1.7195
  628MOL0     H86634  14.400  -0.254   5.997 -1.6001  0.0425  0.8735
  628MOL0     H86635  14.310  -0.111   5.931 -0.7109 -0.5429  2.1752
  628MOL0     H86636  14.473  -0.314   5.777  4.7886  1.6869  0.5343
  628MOL0     H86637  14.393  -0.172   5.704 -0.9741 -1.1342 -0.2342
  628MOL0     H86638  14.635  -0.163   5.746  1.1505  0.6830  0.1467
  628MOL0     H86639  14.616  -0.166   5.916  1.1624  1.1392 -0.2340
  628MOL0     H86640  14.463   0.047   5.878 -0.6281  1.1860 -1.0443
  628MOL0     H86641  14.504   0.039   5.717  0.2432 -1.3676 -0.3326
  628MOL0     H86642  14.738   0.052   5.915 -1.5847 -1.1691  0.5387
  628MOL0     H86643  14.636   0.197   5.889 -1.6962  0.1870 -0.6794
  628MOL0     H86644  13.775  -0.229   5.765  0.6199  0.1677 -0.0622
  628MOL0     H86645  13.559  -0.099   5.721 -1.8586  2.0797  0.3615
  628MOL0     H86646  13.330   0.246   5.861  1.7550  0.5893  0.1341
  628MOL0     H86647  13.116   0.370   5.829  0.8546  1.1801  0.7108
  628MOL0     H86648  11.643   1.524   5.782 -2.8995  2.3702  3.1953
  628MOL0     H86649  11.500   1.475   5.975 -0.1590 -1.2136  1.6488
  628MOL0     H86650  11.326   1.331   6.293  0.5425  0.1778 -3.4940
  628MOL0     H86651  11.111   1.341   6.429  3.0944 -1.4747  1.4814
  628MOL0     H86652  10.714   1.203   6.366  1.7013 -1.3527 -2.9697
  628MOL0     H86653  10.796   1.044   6.362 -3.1923 -1.1123 -0.2770
  628MOL0     H86654  10.824   1.054   6.599  4.3838  2.3078 -4.5712
  628MOL0     H86655  10.641   1.054   6.561 -0.2043 -0.0387  1.3764
  628MOL0     H86656  10.654   1.301   6.640 -1.3078 -1.2693 -1.2764
  628MOL0     H86657  10.698   1.191   6.757  0.9988  2.2810  1.8374
  628MOL0     H86658  10.883   1.371   6.617 -1.3181 -2.1174 -2.2739
  628MOL0     H86659  10.948   1.226   6.703  1.7571  0.7587  1.5328
  628MOL0     H86660  10.899   1.393   7.055 -3.5687 -1.9901  1.7929
  628MOL0     H86661  10.983   0.980   6.250 -0.2477 -0.3029 -1.7104
  628MOL0     H86662  11.105   0.941   6.034 -1.0567 -0.0543  1.8024
  628MOL0     H86663  11.280   0.926   6.041  0.0344  0.4946  1.0275
  628MOL0     H86664  11.181   0.828   6.145  2.3821  1.0807  1.9602
  629MOL0     O86665  10.995   3.059   7.683 -1.4569 -1.1795 -0.2287
  629MOL0     C86666  11.082   2.990   7.733 -0.3327  0.2832  0.3576
  629MOL0     O86667  11.216   3.004   7.718 -0.6728  0.4446  0.8650
  629MOL0     C86668  11.262   3.105   7.639 -0.7442 -0.4045 -0.6511
  629MOL0     C86669  11.243   3.237   7.677  0.0217  0.5024 -0.5758
  629MOL0     C86670  11.301   3.337   7.599 -0.0877 -0.2902 -0.1150
  629MOL0     C86671  11.377   3.314   7.488 -0.7214  0.2703  0.4456
  629MOL0     O86672  11.428   3.419   7.412 -0.1190 -0.6664 -0.1362
  629MOL0     C86673  11.535   3.379   7.320  0.5185 -0.0363 -0.1441
  629MOL0     C86674  11.596   3.502   7.252  0.6415 -0.0016 -0.1905
  629MOL0     C86675  11.484   3.586   7.188  0.4356  0.8327 -0.0628
  629MOL0     C86676  11.534   3.659   7.069  0.7828 -0.1956  0.0128
  629MOL0     C86677  11.436   3.772   7.019  0.3876  0.4456  0.0744
  629MOL0     C86678  11.448   3.897   7.099 -0.3057 -1.1938 -0.2625
  629MOL0     C86679  11.386   4.032   7.048  0.1990 -0.7857  0.9670
  629MOL0     C86680  11.457   4.087   6.925  0.6131  0.6788 -0.8739
  629MOL0     N86681  11.380   4.199   6.885  0.5542 -0.4818  0.3766
  629MOL0     C86682  11.281   4.183   6.791 -0.3401  0.3461  0.0775
  629MOL0     C86683  11.227   4.302   6.783 -0.1596 -0.3652 -0.4378
  629MOL0     C86684  11.126   4.347   6.685  0.6841  0.2345 -1.2043
  629MOL0     C86685  11.019   4.411   6.778  0.6713  0.5606 -0.6891
  629MOL0     C86686  10.955   4.296   6.861 -0.6097 -0.0737  0.3633
  629MOL0     C86687  10.846   4.344   6.952 -1.1909 -0.5417 -0.5561
  629MOL0     O86688  10.900   4.440   7.049 -0.1263 -0.1164 -0.5611
  629MOL0     C86689  10.935   4.365   7.158  0.4604 -1.3820  0.2018
  629MOL0     C86690  11.070   4.368   7.186 -0.5123  0.0785  0.7837
  629MOL0     C86691  11.130   4.296   7.298  0.7548  0.1417 -0.1123
  629MOL0     C86692  11.278   4.291   7.312  0.1007 -0.0633  0.3023
  629MOL0     C86693  11.040   4.217   7.381 -0.0713  0.5630 -0.6170
  629MOL0     C86694  11.096   4.128   7.492  0.0080  0.2023  1.1766
  629MOL0     O86695  11.218   4.147   7.538 -0.9020 -0.0406  0.1228
  629MOL0     C86696  11.218   4.148   7.670  0.9601  1.0469 -1.2452
  629MOL0     C86697  11.191   4.261   7.738 -0.9135 -0.7623 -0.0109
  629MOL0     C86698  11.191   4.278   7.880 -0.0357  0.5821  0.1727
  629MOL0     C86699  11.222   4.170   7.953  0.0081  0.0943  0.0784
  629MOL0     O86700  11.218   4.170   8.086  0.7658 -0.2877  0.0816
  629MOL0     C86701  11.256   4.288   8.153  0.0863 -0.1235 -0.4012
  629MOL0     C86702  11.279   4.262   8.308  0.6823  0.1370 -0.4035
  629MOL0     C86703  11.181   4.151   8.368 -0.5198  0.8778 -0.5330
  629MOL0     C86704  11.192   4.152   8.513  1.1891 -0.3743 -0.7105
  629MOL0     C86705  11.293   4.056   8.584  0.8069 -0.8713  0.1424
  629MOL0     C86706  11.436   4.107   8.555  0.1208 -0.3443  0.1999
  629MOL0     C86707  11.530   4.015   8.629  0.5430 -0.1186  0.0367
  629MOL0     C86708  11.671   4.070   8.629  0.3014 -0.4319 -0.2795
  629MOL0    Cl86709  11.755   4.041   8.464  0.1262 -0.0456  0.4569
  629MOL0     C86710  11.243   4.042   7.892 -0.2239 -0.0345  0.2781
  629MOL0     C86711  11.249   4.033   7.747 -0.7457 -0.1136  0.4375
  629MOL0     O86712  11.010   4.052   7.539  0.7564  0.0772 -0.0183
  629MOL0     C86713  10.903   4.222   7.359 -0.2733 -0.2188 -0.0156
  629MOL0     C86714  10.854   4.296   7.242  0.6485 -0.2431 -0.2938
  629MOL0     N86715  11.299   4.395   6.859  1.2977  0.6077  0.0800
  629MOL0     N86716  11.392   4.332   6.920  0.4188 -0.1893  0.2863
  629MOL0     C86717  11.397   3.182   7.455 -0.5899  0.3790  0.8327
  629MOL0     C86718  11.349   3.077   7.537  0.1261  0.5531  0.1598
  629MOL0     C86719  11.047   2.862   7.799 -0.2860 -0.6274 -0.6594
  629MOL0     C86720  11.081   2.850   7.936 -0.2266 -0.3657 -0.2041
  629MOL0     C86721  11.034   2.744   8.011 -0.2533 -0.1868  0.9776
  629MOL0     C86722  10.962   2.640   7.941 -0.9505 -0.0458  0.3176
  629MOL0     O86723  10.932   2.531   8.017  0.3678  0.1000  0.1256
  629MOL0     C86724  11.034   2.428   7.993  0.4373  0.2141  0.1574
  629MOL0     C86725  11.001   2.295   8.063  0.3127 -0.4030  0.5632
  629MOL0     C86726  11.128   2.216   8.087 -1.3516  1.3089  0.3099
  629MOL0     C86727  11.103   2.088   8.175 -0.3248 -0.3681 -0.6360
  629MOL0     C86728  11.017   2.013   8.090  0.5471 -0.3887  1.0135
  629MOL0     C86729  10.948   1.949   8.018  0.2984  0.6371 -0.1943
  629MOL0     C86730  10.943   2.649   7.804 -0.0538  0.3077  0.1099
  629MOL0     C86731  10.979   2.761   7.733  0.5696  0.1752 -0.5329
  629MOL0     C86732  10.962   2.757   7.585  0.2010  0.5437  0.4140
  629MOL0     H86733  11.186   3.275   7.761 -0.0734  2.6834 -1.5464
  629MOL0     H86734  11.284   3.437   7.637 -1.9864 -1.4264  2.3095
  629MOL0     H86735  11.496   3.312   7.243 -0.2762 -3.0137  2.6520
  629MOL0     H86736  11.618   3.329   7.370  1.8271  2.6796  0.6023
  629MOL0     H86737  11.653   3.550   7.333  1.2999 -1.6306  0.3579
  629MOL0     H86738  11.664   3.477   7.169  0.6640  2.5645 -1.0238
  629MOL0     H86739  11.398   3.525   7.159  0.5501  1.3456 -1.5490
  629MOL0     H86740  11.452   3.649   7.272  0.7461 -0.8970  1.4247
  629MOL0     H86741  11.634   3.701   7.088  0.9315 -0.6930  0.3602
  629MOL0     H86742  11.538   3.586   6.988  1.5382  0.6536 -0.7418
  629MOL0     H86743  11.332   3.739   7.023  0.7075 -0.5943  4.0853
  629MOL0     H86744  11.461   3.793   6.915 -0.3501  2.6031  0.2682
  629MOL0     H86745  11.381   3.887   7.185 -4.0502  4.3685 -2.0128
  629MOL0     H86746  11.550   3.911   7.137 -2.0784 -0.2645  5.0404
  629MOL0     H86747  11.399   4.115   7.118 -2.7388 -2.0315  3.2019
  629MOL0     H86748  11.284   4.020   7.012  0.1116  2.8294 -0.3774
  629MOL0     H86749  11.554   4.125   6.961  0.6900  1.4969 -1.8759
  629MOL0     H86750  11.478   4.008   6.853 -1.0009  1.7406 -2.5858
  629MOL0     H86751  11.229   4.097   6.749  0.2173 -3.4340  5.9488
  629MOL0     H86752  11.080   4.258   6.641 -0.2632 -2.0027  3.6504
  629MOL0     H86753  11.171   4.427   6.625  0.7920 -1.4837 -3.5541
  629MOL0     H86754  11.064   4.488   6.842  1.4405  0.1384 -0.7106
  629MOL0     H86755  10.953   4.474   6.718  2.9557  1.0570 -2.8635
  629MOL0     H86756  10.918   4.214   6.798 -0.1485  1.0401 -1.4510
  629MOL0     H86757  11.035   4.258   6.925 -0.7451 -1.1041 -0.0514
  629MOL0     H86758  10.756   4.395   6.914 -0.1951  2.4173  0.7904
  629MOL0     H86759  10.803   4.250   6.985 -2.5784 -0.0455 -0.8613
  629MOL0     H86760  11.122   4.421   7.107 -1.1871 -2.0823 -1.2188
  629MOL0     H86761  11.312   4.187   7.309 -3.0185 -1.1448 -1.4656
  629MOL0     H86762  11.304   4.347   7.403  1.7403 -0.4120  0.0730
  629MOL0     H86763  11.325   4.328   7.221 -3.1030 -1.4884 -2.0989
  629MOL0     H86764  11.161   4.352   7.687  1.7292  0.0482 -0.2523
  629MOL0     H86765  11.164   4.381   7.902 -0.3784  0.6406 -0.4641
  629MOL0     H86766  11.350   4.330   8.115 -0.0723  0.1836 -0.4568
  629MOL0     H86767  11.186   4.371   8.139 -1.7175 -1.7496 -1.4352
  629MOL0     H86768  11.386   4.261   8.331  0.5409 -0.0014  0.2609
  629MOL0     H86769  11.241   4.353   8.355 -0.6045 -1.0254  0.9032
  629MOL0     H86770  11.200   4.051   8.329  2.5273  1.3777 -0.5643
  629MOL0     H86771  11.077   4.176   8.345 -0.5679  1.6431  0.4395
  629MOL0     H86772  11.094   4.127   8.556  0.2552  0.4090 -2.2918
  629MOL0     H86773  11.198   4.255   8.549 -0.5963 -1.3699  2.9570
  629MOL0     H86774  11.268   4.068   8.690  0.5962 -0.0305  0.0089
  629MOL0     H86775  11.289   3.955   8.544 -0.2818 -1.5218  1.8185
  629MOL0     H86776  11.451   4.213   8.577  2.1855  0.1706 -2.9884
  629MOL0     H86777  11.463   4.099   8.449  0.5847  0.5596  0.2380
  629MOL0     H86778  11.535   3.911   8.594  0.5337 -0.9068  2.1762
  629MOL0     H86779  11.499   4.013   8.734 -1.4943  2.1788 -0.4456
  629MOL0     H86780  11.725   4.014   8.706 -2.0964 -0.4409  1.4990
  629MOL0     H86781  11.671   4.175   8.659  3.4263 -1.0536  2.4305
  629MOL0     H86782  11.248   3.957   7.959  3.9549 -1.3251 -1.3804
  629MOL0     H86783  11.251   3.941   7.690 -0.9511  0.3004 -0.2465
  629MOL0     H86784  10.830   4.169   7.419  0.4181 -0.1349  0.9270
  629MOL0     H86785  10.750   4.290   7.211  0.4747  2.2671 -0.4058
  629MOL0     H86786  11.441   3.138   7.365 -0.0013 -0.0858  1.3388
  629MOL0     H86787  11.362   2.971   7.518  1.6075  0.5833  0.8764
  629MOL0     H86788  11.154   2.921   7.972  1.0464  0.5755 -4.1216
  629MOL0     H86789  11.046   2.725   8.118  2.7306 -3.1547  0.2887
  629MOL0     H86790  11.051   2.407   7.887 -2.4302 -1.7373  0.0030
  629MOL0     H86791  11.129   2.465   8.034  0.3107 -1.0464  1.6947
  629MOL0     H86792  10.930   2.237   8.005  3.3767 -2.8345 -1.0694
  629MOL0     H86793  10.963   2.333   8.159  2.8695  2.9992  0.4316
  629MOL0     H86794  11.181   2.182   7.997  1.0369  1.2540  1.6721
  629MOL0     H86795  11.205   2.273   8.140 -0.4537  3.5675 -3.0837
  629MOL0     H86796  11.045   2.109   8.265 -0.4547 -0.8624 -0.6000
  629MOL0     H86797  11.191   2.028   8.199 -1.9466 -1.8251  2.2027
  629MOL0     H86798  10.893   1.889   7.948  3.7260 -0.9415 -1.8076
  629MOL0     H86799  10.898   2.567   7.750  0.5768  1.2116 -1.9049
  629MOL0     H86800  10.986   2.653   7.557 -1.6263  0.4094 -0.8592
  629MOL0     H86801  10.863   2.781   7.546  0.7166  0.8280 -0.7738
  629MOL0     H86802  11.035   2.822   7.536  1.0936 -2.3930 -2.5807
  630MOL0     O86803   5.661   7.606   7.236  0.0405 -0.0850  0.7915
  630MOL0     C86804   5.596   7.503   7.244  0.8184  0.0065  0.1052
  630MOL0     O86805   5.516   7.455   7.137  0.9596  0.9011 -0.2039
  630MOL0     C86806   5.489   7.538   7.037  0.0713  0.2129 -0.0844
  630MOL0     C86807   5.362   7.533   6.983 -0.8459 -0.5998  0.6351
  630MOL0     C86808   5.323   7.622   6.872  0.7508  0.9112 -0.8995
  630MOL0     C86809   5.421   7.702   6.806 -0.5298 -0.4011 -0.7208
  630MOL0     O86810   5.404   7.785   6.702 -0.9426 -0.3831 -0.1613
  630MOL0     C86811   5.263   7.819   6.669 -0.4559 -0.1497  0.1480
  630MOL0     C86812   5.270   7.960   6.599  0.3618  0.1119 -0.2065
  630MOL0     C86813   5.324   7.962   6.458  0.3922 -0.3225  0.2393
  630MOL0     C86814   5.355   8.102   6.419 -0.5231 -0.1888 -0.4529
  630MOL0     C86815   5.471   8.103   6.323  0.4684  0.4844  0.8847
  630MOL0     C86816   5.434   8.058   6.180 -0.7174  1.1553  0.4181
  630MOL0     C86817   5.543   8.094   6.070 -0.3271  0.7051  0.0428
  630MOL0     C86818   5.494   8.045   5.940  0.6136 -0.3798 -0.9189
  630MOL0     N86819   5.388   8.124   5.873 -0.0365  0.3273 -0.4671
  630MOL0     C86820   5.389   8.178   5.745 -0.6342  0.0988  0.1322
  630MOL0     C86821   5.272   8.245   5.728 -0.3401  0.6783 -0.1558
  630MOL0     C86822   5.237   8.349   5.622  0.2487  0.7324  0.1221
  630MOL0     C86823   5.237   8.283   5.480 -0.2057 -0.2971  0.4697
  630MOL0     C86824   5.187   8.387   5.374  0.2332 -0.1066 -0.6883
  630MOL0     C86825   5.157   8.336   5.237  0.1236 -0.1725  0.0388
  630MOL0     O86826   5.262   8.267   5.167  0.9964 -0.3251 -0.5291
  630MOL0     C86827   5.355   8.352   5.110 -0.8404 -1.0806 -0.0775
  630MOL0     C86828   5.365   8.494   5.114 -0.0327 -0.2654 -0.6439
  630MOL0     C86829   5.465   8.573   5.058 -0.3622 -0.0677  0.8951
  630MOL0     C86830   5.460   8.719   5.090  0.8087 -1.1829  0.5177
  630MOL0     C86831   5.566   8.500   4.983 -0.6274 -0.3976  0.5524
  630MOL0     C86832   5.695   8.571   4.936  0.5852  0.4831 -0.3849
  630MOL0     O86833   5.815   8.496   4.944 -0.3651  0.5509 -0.6626
  630MOL0     C86834   5.930   8.557   4.936 -1.0813  0.2913  0.2333
  630MOL0     C86835   5.963   8.641   4.826 -0.1109  0.1475 -0.7161
  630MOL0     C86836   6.095   8.691   4.823 -0.9228 -0.3565  0.4576
  630MOL0     C86837   6.189   8.665   4.919  0.1776  0.0367 -0.0080
  630MOL0     O86838   6.312   8.727   4.892 -0.2812 -0.8142 -0.4339
  630MOL0     C86839   6.369   8.778   5.009  0.0887  0.2114 -0.6625
  630MOL0     C86840   6.470   8.879   4.957 -0.3902  0.2086 -0.2953
  630MOL0     C86841   6.379   8.987   4.886 -0.9658  0.4600 -0.2351
  630MOL0     C86842   6.463   9.095   4.822  0.2306  0.4222  0.7230
  630MOL0     C86843   6.383   9.210   4.755 -0.0450 -0.8113 -0.3548
  630MOL0     C86844   6.346   9.311   4.859 -0.1680 -1.3992 -0.6159
  630MOL0     C86845   6.255   9.418   4.782 -0.1685 -0.6856 -0.7747
  630MOL0     C86846   6.248   9.560   4.854  0.1242 -0.6162 -0.4797
  630MOL0    Cl86847   6.410   9.635   4.874 -0.5683 -0.2441 -0.3881
  630MOL0     C86848   6.157   8.581   5.017 -0.0081  0.3398 -0.6663
  630MOL0     C86849   6.027   8.519   5.034 -0.4661 -0.8371  0.3285
  630MOL0     O86850   5.688   8.687   4.894  0.6752 -0.2362 -1.0506
  630MOL0     C86851   5.552   8.360   4.968  0.0853 -0.0223 -1.1961
  630MOL0     C86852   5.449   8.285   5.033  0.5409 -0.0557  0.8882
  630MOL0     N86853   5.200   8.220   5.844 -0.5321  0.6693 -0.5646
  630MOL0     N86854   5.263   8.152   5.930 -0.3938  0.3801 -0.2843
  630MOL0     C86855   5.545   7.699   6.860 -0.1442  0.1964 -0.9341
  630MOL0     C86856   5.581   7.618   6.968 -0.3362 -0.0078 -0.3227
  630MOL0     C86857   5.596   7.419   7.372 -0.0723  0.4539 -0.3871
  630MOL0     C86858   5.706   7.446   7.455  0.0728  0.5140  0.8262
  630MOL0     C86859   5.703   7.398   7.589 -0.2972 -0.3677  0.4010
  630MOL0     C86860   5.596   7.311   7.635 -0.1764  0.5372  0.4900
  630MOL0     O86861   5.601   7.287   7.771  0.7635 -0.3721  0.3318
  630MOL0     C86862   5.487   7.241   7.838 -0.1817  0.3037 -0.1126
  630MOL0     C86863   5.498   7.092   7.880  0.8505 -1.2120  0.6969
  630MOL0     C86864   5.565   6.994   7.781 -0.2021  1.1216  0.8766
  630MOL0     C86865   5.723   7.020   7.747  1.4645 -0.2638  0.2135
  630MOL0     C86866   5.782   6.916   7.672  0.1158 -0.4609  0.0863
  630MOL0     C86867   5.822   6.839   7.594 -0.4889  0.7813 -0.1531
  630MOL0     C86868   5.492   7.270   7.543 -0.0545 -0.2622  0.4959
  630MOL0     C86869   5.490   7.335   7.419  0.7652  1.1613  1.1761
  630MOL0     C86870   5.363   7.301   7.334  0.8965  0.2174 -0.3111
  630MOL0     H86871   5.296   7.469   7.040 -0.1860 -0.5962  1.4273
  630MOL0     H86872   5.220   7.632   6.840 -0.1406  0.1356  1.5011
  630MOL0     H86873   5.188   7.826   6.749  1.5606 -1.3642  2.2703
  630MOL0     H86874   5.228   7.749   6.593 -0.0163 -0.5522  0.3149
  630MOL0     H86875   5.170   8.002   6.591  0.5250  1.1223  2.3022
  630MOL0     H86876   5.316   8.026   6.673 -3.6128  2.3108  0.5849
  630MOL0     H86877   5.407   7.893   6.447 -0.2104 -1.0537  0.2332
  630MOL0     H86878   5.253   7.913   6.390 -0.1554  0.9596 -0.1492
  630MOL0     H86879   5.263   8.145   6.379 -0.8606 -0.3462  0.1404
  630MOL0     H86880   5.372   8.167   6.505 -2.0059  3.0257 -2.3891
  630MOL0     H86881   5.558   8.053   6.367  1.1253 -0.0619 -0.9449
  630MOL0     H86882   5.496   8.208   6.302 -1.3296  0.7695 -0.0293
  630MOL0     H86883   5.426   7.950   6.198 -0.6013  1.2778  1.2739
  630MOL0     H86884   5.334   8.096   6.160 -1.2494 -1.1226 -1.8347
  630MOL0     H86885   5.638   8.051   6.101 -0.8568  1.8907  3.6954
  630MOL0     H86886   5.547   8.203   6.073  0.5278  0.6746  0.2020
  630MOL0     H86887   5.578   8.048   5.870 -0.3398 -1.1450 -2.1318
  630MOL0     H86888   5.466   7.939   5.948  1.4293 -0.7892 -2.7923
  630MOL0     H86889   5.469   8.212   5.680  0.0766  1.3608  1.5984
  630MOL0     H86890   5.309   8.431   5.619  1.6529 -0.2584  2.8568
  630MOL0     H86891   5.143   8.396   5.653  0.6349  0.5176  1.7146
  630MOL0     H86892   5.343   8.260   5.467  0.6860  3.9605 -1.6626
  630MOL0     H86893   5.193   8.183   5.476 -0.8944  0.0376 -1.2599
  630MOL0     H86894   5.088   8.424   5.403 -0.2440 -2.5127  1.0491
  630MOL0     H86895   5.252   8.475   5.372  3.0703 -1.8638  2.5380
  630MOL0     H86896   5.080   8.259   5.248 -2.0594  2.0787  1.5438
  630MOL0     H86897   5.116   8.413   5.172  3.2298  0.9957 -0.7207
  630MOL0     H86898   5.303   8.563   5.170  0.8803  0.5778 -0.6449
  630MOL0     H86899   5.526   8.784   5.031 -0.5157 -1.7246 -1.6795
  630MOL0     H86900   5.481   8.733   5.196  0.9138  4.1561  0.0741
  630MOL0     H86901   5.359   8.756   5.068  1.2198 -1.8997 -3.2867
  630MOL0     H86902   5.880   8.661   4.760 -1.3854 -1.0279  0.4586
  630MOL0     H86903   6.128   8.751   4.739  1.3806 -1.6673  0.3308
  630MOL0     H86904   6.294   8.824   5.073 -1.6381 -1.9474 -1.0629
  630MOL0     H86905   6.418   8.697   5.063 -0.5008  0.4236  0.2113
  630MOL0     H86906   6.541   8.922   5.028 -0.5089 -1.9062  1.2161
  630MOL0     H86907   6.545   8.828   4.894  0.0710  1.4679 -0.7954
  630MOL0     H86908   6.326   9.037   4.968  0.0404 -0.3929  0.9743
  630MOL0     H86909   6.319   8.944   4.805 -1.9940  1.1269  0.1466
  630MOL0     H86910   6.521   9.044   4.744 -1.2511 -0.8506  0.4025
  630MOL0     H86911   6.539   9.138   4.888 -0.8857  3.1862  0.3547
  630MOL0     H86912   6.449   9.255   4.680  2.4940 -3.9145 -0.2267
  630MOL0     H86913   6.299   9.183   4.692  0.9941 -2.4558 -1.1040
  630MOL0     H86914   6.438   9.359   4.893 -1.0764  0.2214 -0.3529
  630MOL0     H86915   6.290   9.271   4.943  0.3863  2.5237  1.8884
  630MOL0     H86916   6.155   9.377   4.770 -0.2868 -1.2450  1.6334
  630MOL0     H86917   6.298   9.444   4.685  1.4123  1.6196  0.4536
  630MOL0     H86918   6.202   9.559   4.953 -0.6493 -2.2997 -0.8253
  630MOL0     H86919   6.194   9.621   4.780  0.4365 -0.3986 -0.5279
  630MOL0     H86920   6.241   8.553   5.080  0.8011 -1.5786 -2.4763
  630MOL0     H86921   6.013   8.451   5.117  1.9061  0.9409  2.3316
  630MOL0     H86922   5.629   8.303   4.915  1.4489  0.2540  0.3965
  630MOL0     H86923   5.438   8.180   5.006 -2.4910  0.3380  0.2305
  630MOL0     H86924   5.629   7.745   6.808 -1.0492  1.2293 -1.5294
  630MOL0     H86925   5.686   7.623   6.997  1.3172 -1.4255 -5.0908
  630MOL0     H86926   5.786   7.512   7.422  0.2377 -0.7341 -1.4781
  630MOL0     H86927   5.791   7.418   7.649  1.9874 -0.8299 -2.5679
  630MOL0     H86928   5.461   7.307   7.922  0.1211  0.5598 -0.2187
  630MOL0     H86929   5.391   7.248   7.786 -0.9724 -0.0979  1.2286
  630MOL0     H86930   5.395   7.058   7.888 -1.2883  3.0202 -3.6636
  630MOL0     H86931   5.546   7.097   7.978  1.4550 -1.3061  0.4162
  630MOL0     H86932   5.560   6.892   7.819  2.4657  0.4457 -0.3544
  630MOL0     H86933   5.513   6.983   7.686 -0.4646 -3.5504  1.3629
  630MOL0     H86934   5.781   7.035   7.838  1.3185 -2.9320  0.8247
  630MOL0     H86935   5.741   7.106   7.681  1.0575  0.6165  1.2225
  630MOL0     H86936   5.862   6.761   7.533 -1.2697 -0.7999  1.2507
  630MOL0     H86937   5.429   7.191   7.582  0.8156  0.2346  3.1454
  630MOL0     H86938   5.384   7.247   7.241  3.5052 -0.6477  0.6874
  630MOL0     H86939   5.302   7.237   7.398 -2.1366  4.1678  1.1693
  630MOL0     H86940   5.288   7.379   7.316 -1.0531 -2.1013 -3.2656
  631MOL0     O86941   0.945   2.412   8.783 -0.1277  0.6769 -0.6462
  631MOL0     C86942   0.916   2.509   8.857  0.0872  0.1850 -0.0007
  631MOL0     O86943   0.821   2.600   8.831 -0.2992 -0.9605 -0.7726
  631MOL0     C86944   0.789   2.628   8.703  0.1112 -0.2097 -0.2193
  631MOL0     C86945   0.673   2.585   8.648  0.1058 -0.6755  0.5792
  631MOL0     C86946   0.629   2.639   8.521  0.5864  0.9338 -0.7769
  631MOL0     C86947   0.705   2.720   8.445  0.6231  1.6780 -0.4586
  631MOL0     O86948   0.662   2.768   8.326 -0.0517  0.0813 -0.3524
  631MOL0     C86949   0.708   2.894   8.283  0.0289 -0.1601 -0.2613
  631MOL0     C86950   0.618   2.971   8.198 -0.1135 -0.8869 -0.5057
  631MOL0     C86951   0.683   3.116   8.175 -0.3621  0.7744  0.5329
  631MOL0     C86952   0.810   3.115   8.080 -0.3424  0.3592 -0.2895
  631MOL0     C86953   0.846   3.260   8.032 -1.4137 -0.4022 -0.2411
  631MOL0     C86954   0.869   3.361   8.146  0.2936 -0.1547 -0.6818
  631MOL0     C86955   0.772   3.480   8.138  0.2928  0.4739  0.6291
  631MOL0     C86956   0.744   3.558   8.266  0.6659 -0.5914  0.0257
  631MOL0     N86957   0.705   3.465   8.374  0.7675 -0.2575  0.3884
  631MOL0     C86958   0.590   3.410   8.399  1.3738  0.6365  0.6712
  631MOL0     C86959   0.610   3.347   8.524 -0.6425  0.9289  0.3146
  631MOL0     C86960   0.504   3.284   8.612 -1.3865  0.1809  0.7797
  631MOL0     C86961   0.462   3.151   8.549 -0.7801 -0.1874  0.1807
  631MOL0     C86962   0.348   3.074   8.619 -0.7434 -0.1436 -0.1748
  631MOL0     C86963   0.332   2.935   8.550  0.0960 -1.3645  0.1843
  631MOL0     O86964   0.275   2.951   8.418  0.8528  0.7426 -0.5804
  631MOL0     C86965   0.280   2.839   8.331 -1.0812  0.0362  0.4535
  631MOL0     C86966   0.279   2.874   8.196  0.3791  0.0567  0.3387
  631MOL0     C86967   0.289   2.773   8.091  0.2942 -0.0635 -0.2797
  631MOL0     C86968   0.266   2.818   7.950  0.5885  0.0364  0.6035
  631MOL0     C86969   0.315   2.634   8.119 -0.5990  0.8942 -0.0651
  631MOL0     C86970   0.330   2.517   8.020 -0.8338 -0.1716 -1.2661
  631MOL0     O86971   0.332   2.388   8.058 -0.3494 -0.0496  0.4682
  631MOL0     C86972   0.323   2.288   7.956 -0.3944  0.4689  0.1642
  631MOL0     C86973   0.424   2.198   7.916  0.9854 -0.6546  0.3489
  631MOL0     C86974   0.404   2.122   7.799  0.0188 -0.5027 -1.2694
  631MOL0     C86975   0.292   2.126   7.722 -0.0404 -0.0304  0.2926
  631MOL0     O86976   0.273   2.047   7.612 -0.3025  0.2642 -0.5792
  631MOL0     C86977   0.143   2.026   7.562  0.5774  1.3981  0.6591
  631MOL0     C86978   0.168   1.922   7.455  0.0134 -0.4343  0.2434
  631MOL0     C86979   0.044   1.890   7.373 -0.2781  0.1765 -0.0321
  631MOL0     C86980   0.077   1.772   7.284 -0.6363  0.9509  0.9083
  631MOL0     C86981  -0.051   1.700   7.235  0.2733 -0.4530 -0.2401
  631MOL0     C86982  -0.051   1.574   7.132 -0.1452  0.1483 -0.1165
  631MOL0     C86983  -0.009   1.607   6.990 -0.6805  0.2678 -0.3861
  631MOL0     C86984  -0.005   1.477   6.897  0.6476 -0.1334  0.5288
  631MOL0    Cl86985   0.109   1.353   6.925  0.0853 -0.1736 -0.1218
  631MOL0     C86986   0.198   2.213   7.768  1.4285 -0.0935  0.7394
  631MOL0     C86987   0.213   2.296   7.879  0.1866  0.7207  0.1562
  631MOL0     O86988   0.349   2.550   7.906 -0.1075 -0.1653  0.0101
  631MOL0     C86989   0.317   2.602   8.259  0.2905 -0.1769  0.8378
  631MOL0     C86990   0.302   2.704   8.363 -1.0220 -0.0352  0.4858
  631MOL0     N86991   0.741   3.360   8.562 -0.4507 -0.1131 -0.9048
  631MOL0     N86992   0.795   3.437   8.477 -0.8276 -0.0179  0.2637
  631MOL0     C86993   0.835   2.747   8.492 -0.3400 -0.9244  0.1110
  631MOL0     C86994   0.866   2.712   8.625  0.0304 -0.1735 -0.0182
  631MOL0     C86995   0.995   2.519   8.984 -0.4407  0.7227  0.0974
  631MOL0     C86996   1.031   2.655   9.012  0.3916  1.2981  0.4520
  631MOL0     C86997   1.115   2.687   9.115 -0.5349 -0.6443 -0.2938
  631MOL0     C86998   1.168   2.586   9.195 -0.7026 -0.1390  0.6779
  631MOL0     O86999   1.254   2.604   9.301  0.7048  0.4387  0.1010
  631MOL0     C87000   1.257   2.740   9.349  0.5278  0.4417  0.5069
  631MOL0     C87001   1.360   2.728   9.452 -0.3371  0.2747 -1.0063
  631MOL0     C87002   1.296   2.651   9.579 -0.6204 -0.5700  0.0227
  631MOL0     C87003   1.408   2.596   9.664  0.8521  0.1207  0.3130
  631MOL0     C87004   1.362   2.586   9.801  0.0140  0.0760  0.1016
  631MOL0     C87005   1.319   2.586   9.915  0.3701  0.5062 -0.7078
  631MOL0     C87006   1.144   2.454   9.155  0.0443 -1.8245 -1.0576
  631MOL0     C87007   1.050   2.422   9.058 -0.5775 -0.1486  0.0274
  631MOL0     C87008   1.027   2.275   9.027 -0.2248 -0.7467  0.2956
  631MOL0     H87009   0.621   2.500   8.691  3.8785 -3.1733  0.6661
  631MOL0     H87010   0.533   2.616   8.476  0.0950  0.0729  0.6383
  631MOL0     H87011   0.799   2.862   8.232 -0.5199 -4.6487  1.1282
  631MOL0     H87012   0.720   2.964   8.366 -1.6634 -0.3196  0.1694
  631MOL0     H87013   0.602   2.901   8.115 -3.0243 -4.4027  2.6218
  631MOL0     H87014   0.525   2.980   8.255 -0.0996 -0.0805 -0.6076
  631MOL0     H87015   0.599   3.156   8.117 -2.5493 -1.0498  2.2934
  631MOL0     H87016   0.697   3.173   8.267  2.6362 -1.2777  1.4800
  631MOL0     H87017   0.894   3.071   8.134 -0.0663  0.0892 -0.9256
  631MOL0     H87018   0.807   3.067   7.982  1.9869 -3.2647  1.1720
  631MOL0     H87019   0.757   3.289   7.974 -2.3919 -0.9589  0.9232
  631MOL0     H87020   0.926   3.253   7.959 -1.6499 -2.1757 -0.3743
  631MOL0     H87021   0.870   3.307   8.240  2.0877  0.6184 -0.2130
  631MOL0     H87022   0.971   3.400   8.137  0.1501  0.0899 -1.3178
  631MOL0     H87023   0.673   3.442   8.109  0.1358  1.5276 -0.2765
  631MOL0     H87024   0.801   3.550   8.060 -0.5043  2.4979  2.0507
  631MOL0     H87025   0.836   3.598   8.308 -0.0802 -2.1137  3.3976
  631MOL0     H87026   0.669   3.634   8.242  0.4261 -0.9368 -0.3493
  631MOL0     H87027   0.496   3.412   8.346  0.2432  3.3797  2.5606
  631MOL0     H87028   0.417   3.350   8.615  0.2309  2.4090  0.9632
  631MOL0     H87029   0.542   3.281   8.715  2.5557  2.5082 -0.4306
  631MOL0     H87030   0.422   3.179   8.451 -2.5662 -0.9590  0.6434
  631MOL0     H87031   0.552   3.089   8.560 -0.1511  0.8151  0.7604
  631MOL0     H87032   0.375   3.076   8.725 -1.8754  2.6923  0.1565
  631MOL0     H87033   0.256   3.133   8.612 -1.1110 -0.7881 -0.8635
  631MOL0     H87034   0.437   2.908   8.537  1.0123  1.8751 -0.0670
  631MOL0     H87035   0.275   2.864   8.612  0.4996 -0.9755  1.0176
  631MOL0     H87036   0.255   2.976   8.167  1.1156 -0.4350 -2.1700
  631MOL0     H87037   0.239   2.923   7.943 -2.6010 -0.7406 -0.2232
  631MOL0     H87038   0.197   2.748   7.901  3.0812 -0.0887 -3.0513
  631MOL0     H87039   0.360   2.800   7.897  0.9421  2.1180  0.4370
  631MOL0     H87040   0.516   2.176   7.969  0.6884  1.8302  2.0648
  631MOL0     H87041   0.479   2.060   7.751  3.6414  4.3318 -2.5999
  631MOL0     H87042   0.082   1.975   7.637  0.0642  0.7594 -0.1759
  631MOL0     H87043   0.098   2.118   7.525 -1.1942  0.9557  1.6306
  631MOL0     H87044   0.252   1.956   7.394  1.1044 -3.4788 -0.1023
  631MOL0     H87045   0.194   1.823   7.493 -3.3491 -0.3453  3.3575
  631MOL0     H87046   0.010   1.974   7.311 -1.8445 -0.0447  0.5048
  631MOL0     H87047  -0.015   1.862   7.460  3.2485 -0.5223  2.3556
  631MOL0     H87048   0.139   1.695   7.331  0.4312  0.5439 -1.0442
  631MOL0     H87049   0.138   1.801   7.198 -0.1205  2.3734  1.7256
  631MOL0     H87050  -0.101   1.674   7.329 -0.3218  5.0403  1.2902
  631MOL0     H87051  -0.124   1.769   7.192 -0.1968 -0.9410 -0.2343
  631MOL0     H87052  -0.140   1.512   7.144 -0.3081  0.7379  2.1229
  631MOL0     H87053   0.022   1.503   7.170 -0.2671 -0.1166 -0.3773
  631MOL0     H87054   0.075   1.676   6.986 -2.8872  3.5312  2.8864
  631MOL0     H87055  -0.090   1.674   6.959 -0.1248  0.2831 -1.8644
  631MOL0     H87056   0.013   1.504   6.793 -1.0177 -0.3699  0.1538
  631MOL0     H87057  -0.102   1.429   6.912 -1.2996  3.6318  1.3871
  631MOL0     H87058   0.106   2.230   7.712  3.3560  0.5814 -2.5000
  631MOL0     H87059   0.128   2.357   7.910  1.2544  2.0052  0.6486
  631MOL0     H87060   0.319   2.498   8.290  0.8548 -1.2597 -2.4320
  631MOL0     H87061   0.320   2.679   8.467  1.0837  2.8551  0.9387
  631MOL0     H87062   0.898   2.807   8.428 -1.5191 -1.2163 -1.4029
  631MOL0     H87063   0.961   2.748   8.664 -0.7897 -0.3448  2.2444
  631MOL0     H87064   0.992   2.734   8.950 -2.5500  2.1579  3.1605
  631MOL0     H87065   1.125   2.795   9.125 -0.2429 -0.7076  0.1355
  631MOL0     H87066   1.291   2.812   9.274  2.2970 -1.3046 -0.4881
  631MOL0     H87067   1.162   2.768   9.395 -1.5911  0.6521 -3.5275
  631MOL0     H87068   1.386   2.829   9.486  1.2081 -1.0510  2.1086
  631MOL0     H87069   1.450   2.680   9.414  2.9872  4.5777  0.6250
  631MOL0     H87070   1.233   2.711   9.645  1.6993  0.6626  1.2622
  631MOL0     H87071   1.235   2.564   9.554  0.4938 -1.4922  0.3959
  631MOL0     H87072   1.497   2.659   9.671  0.9836 -0.1959  2.1767
  631MOL0     H87073   1.438   2.494   9.637  1.2537 -0.4886  2.8167
  631MOL0     H87074   1.280   2.564  10.012  0.2202  0.4680 -0.7774
  631MOL0     H87075   1.183   2.374   9.218  0.0142 -1.7612 -0.9565
  631MOL0     H87076   1.066   2.244   8.929  1.2587  0.2342  0.5291
  631MOL0     H87077   1.076   2.199   9.088  1.9122 -1.9015 -2.6392
  631MOL0     H87078   0.919   2.260   9.031 -0.2467 -0.7960 -0.3180
  632MOL0     O87079   6.846   9.089   0.942 -0.4403 -0.2763  0.5022
  632MOL0     C87080   6.908   9.132   1.040  0.5771 -0.1254 -0.0247
  632MOL0     O87081   6.851   9.202   1.137  0.8661 -0.4861  0.2002
  632MOL0     C87082   6.717   9.218   1.140  0.0278  0.5054  0.2813
  632MOL0     C87083   6.629   9.110   1.122 -0.0038 -0.1117 -0.4747
  632MOL0     C87084   6.498   9.117   1.110  0.1998 -0.1876  0.3192
  632MOL0     C87085   6.439   9.251   1.103  0.1951  0.8188  0.5009
  632MOL0     O87086   6.304   9.275   1.083  0.1705  0.5375 -0.3722
  632MOL0     C87087   6.237   9.153   1.039 -0.9141 -0.8272  0.5678
  632MOL0     C87088   6.086   9.165   1.033  1.0791  0.2504  0.4610
  632MOL0     C87089   6.009   9.040   1.000  0.1043 -0.9841 -0.2742
  632MOL0     C87090   5.857   9.059   1.032  0.4921 -0.8764 -0.2826
  632MOL0     C87091   5.780   8.928   1.011 -1.0518  0.3837  0.4044
  632MOL0     C87092   5.639   8.954   1.042  0.2582 -0.0056  0.9088
  632MOL0     C87093   5.551   8.829   1.052  0.1833  0.9285  1.1087
  632MOL0     C87094   5.458   8.833   1.167  0.4848  0.0820 -0.0328
  632MOL0     N87095   5.388   8.705   1.176 -0.4261 -0.5000  0.3889
  632MOL0     C87096   5.295   8.641   1.093  0.6706 -0.3626  0.3458
  632MOL0     C87097   5.291   8.512   1.128 -0.6991 -0.0417 -1.1429
  632MOL0     C87098   5.193   8.412   1.077  0.5800 -0.2088  0.9468
  632MOL0     C87099   5.240   8.347   0.948 -0.9356 -0.0592  0.1071
  632MOL0     C87100   5.354   8.253   0.976 -0.1939 -0.0713 -0.5784
  632MOL0     C87101   5.430   8.211   0.852 -0.7509 -0.0007  0.0120
  632MOL0     O87102   5.525   8.103   0.871  0.0807 -0.0768  0.3525
  632MOL0     C87103   5.477   7.992   0.835  0.1920  1.1476 -0.0279
  632MOL0     C87104   5.451   7.894   0.939  0.8344  0.4637  0.2679
  632MOL0     C87105   5.393   7.770   0.904  0.8290  0.2700 -1.1476
  632MOL0     C87106   5.334   7.687   1.013 -0.3040  0.7058 -0.2472
  632MOL0     C87107   5.373   7.737   0.766  0.0236 -0.1572  0.0218
  632MOL0     C87108   5.313   7.609   0.718 -0.4071  0.0467 -0.0330
  632MOL0     O87109   5.242   7.619   0.602 -0.6628 -0.3556 -0.3034
  632MOL0     C87110   5.156   7.506   0.588  0.4915 -0.4776  0.6814
  632MOL0     C87111   5.189   7.400   0.505  0.0739 -0.6656  0.6858
  632MOL0     C87112   5.115   7.288   0.494  0.6870 -1.6900 -0.0072
  632MOL0     C87113   4.995   7.278   0.566 -0.3811 -0.3014  0.6928
  632MOL0     O87114   4.904   7.174   0.541  0.3417 -0.0754 -0.6981
  632MOL0     C87115   4.959   7.041   0.536  0.3042 -0.2521 -0.2397
  632MOL0     C87116   4.863   6.915   0.547 -0.5907  0.1176  0.7077
  632MOL0     C87117   4.778   6.906   0.425  0.2148  0.1892  0.4020
  632MOL0     C87118   4.660   6.801   0.456 -0.8756  0.4285 -0.5688
  632MOL0     C87119   4.584   6.765   0.329 -0.1092 -1.1597  0.9344
  632MOL0     C87120   4.482   6.873   0.282 -0.3257 -0.2652  0.3605
  632MOL0     C87121   4.363   6.896   0.389  0.1751 -0.3711 -0.6492
  632MOL0     C87122   4.240   6.958   0.332 -0.2781 -0.8312  0.7165
  632MOL0    Cl87123   4.273   7.114   0.233  0.0581  0.1543 -0.5334
  632MOL0     C87124   4.950   7.383   0.646 -0.1282  0.5231 -0.5429
  632MOL0     C87125   5.032   7.501   0.656  0.3147  0.1862 -0.8979
  632MOL0     O87126   5.330   7.507   0.789  0.1907 -0.4924 -0.9950
  632MOL0     C87127   5.402   7.835   0.665  0.1723  0.6919 -0.3203
  632MOL0     C87128   5.453   7.955   0.694  0.2750 -0.1390  0.0389
  632MOL0     N87129   5.382   8.501   1.241 -0.8743  0.2148  0.2613
  632MOL0     N87130   5.431   8.611   1.272 -0.3178  0.2050  0.1539
  632MOL0     C87131   6.519   9.364   1.134 -0.4743  0.7476  0.1648
  632MOL0     C87132   6.659   9.345   1.138  0.1635  0.8453 -0.6341
  632MOL0     C87133   7.047   9.098   1.077  0.3316  0.2053  0.1527
  632MOL0     C87134   7.078   9.042   1.208  0.1916  0.4500 -0.0941
  632MOL0     C87135   7.214   9.001   1.235  1.1028 -0.6781  0.5256
  632MOL0     C87136   7.314   9.011   1.150 -0.6318  0.0508  0.1374
  632MOL0     O87137   7.443   8.969   1.183 -0.7959  0.7153 -0.0812
  632MOL0     C87138   7.484   8.921   1.316  0.4938  0.2489  0.2547
  632MOL0     C87139   7.635   8.888   1.315  0.1438  0.2483 -0.4619
  632MOL0     C87140   7.737   8.964   1.238  0.2945 -0.7841  0.1368
  632MOL0     C87141   7.718   9.117   1.237 -1.2308  0.1911 -0.6601
  632MOL0     C87142   7.730   9.178   1.370 -0.0170 -0.6495 -0.2596
  632MOL0     C87143   7.723   9.227   1.480 -0.0824  0.1563  1.1651
  632MOL0     C87144   7.285   9.056   1.024  0.0170 -0.2272  0.4428
  632MOL0     C87145   7.155   9.100   0.985  0.4861 -0.1356 -0.9371
  632MOL0     C87146   7.138   9.158   0.849 -0.4276  0.0041  0.2104
  632MOL0     H87147   6.685   9.017   1.131  2.1020  0.7751 -3.0196
  632MOL0     H87148   6.449   9.021   1.102  1.1800 -0.5746 -1.6714
  632MOL0     H87149   6.254   9.078   1.117  0.5352 -1.2999 -0.1555
  632MOL0     H87150   6.263   9.104   0.944 -0.4439  0.7074 -0.1246
  632MOL0     H87151   6.047   9.203   1.128  0.1723  1.3861 -0.3304
  632MOL0     H87152   6.062   9.242   0.958 -1.4654 -1.6222 -0.7979
  632MOL0     H87153   6.016   9.011   0.895 -2.8337 -0.0874 -0.8369
  632MOL0     H87154   6.046   8.955   1.057  0.7474 -2.8964 -3.3187
  632MOL0     H87155   5.841   9.085   1.138  3.4340 -2.4871  0.6593
  632MOL0     H87156   5.810   9.146   0.986  1.6682  1.8179  3.1653
  632MOL0     H87157   5.825   8.848   1.071  2.3502  0.0658 -2.2386
  632MOL0     H87158   5.796   8.900   0.907  0.6743  2.0021  0.1709
  632MOL0     H87159   5.633   9.002   1.140 -1.1678  1.1038  0.3226
  632MOL0     H87160   5.594   9.025   0.972 -1.8519 -2.1330 -0.0243
  632MOL0     H87161   5.625   8.751   1.072 -0.0375 -0.1814 -1.9069
  632MOL0     H87162   5.497   8.820   0.958  1.3803  3.8396  0.0479
  632MOL0     H87163   5.514   8.842   1.261  1.1672  1.1848 -0.5259
  632MOL0     H87164   5.393   8.918   1.147  1.0265  0.5577  0.1903
  632MOL0     H87165   5.237   8.686   1.013  1.3785  0.3833  0.2416
  632MOL0     H87166   5.096   8.457   1.055 -1.5824 -4.1113  1.6076
  632MOL0     H87167   5.179   8.337   1.156 -0.5327 -0.2621  0.7099
  632MOL0     H87168   5.157   8.309   0.886 -2.1112 -0.6236  1.9565
  632MOL0     H87169   5.268   8.434   0.887  0.5368  1.7398  3.1529
  632MOL0     H87170   5.424   8.296   1.048  0.0006  0.0161 -0.8172
  632MOL0     H87171   5.299   8.169   1.020 -2.2017 -0.7580 -4.0023
  632MOL0     H87172   5.370   8.186   0.763 -1.6087 -2.2124  1.1465
  632MOL0     H87173   5.485   8.300   0.819  2.3570 -1.6737  0.3663
  632MOL0     H87174   5.453   7.940   1.037 -3.2178  0.9155  0.3201
  632MOL0     H87175   5.247   7.637   0.970  0.1521  0.6455 -1.1029
  632MOL0     H87176   5.301   7.755   1.092  2.2171  0.5533  1.0761
  632MOL0     H87177   5.407   7.622   1.063  0.8723  1.5769 -0.8027
  632MOL0     H87178   5.280   7.397   0.445 -0.8140  0.1419 -0.7775
  632MOL0     H87179   5.146   7.219   0.416  4.9023  1.1937 -1.2762
  632MOL0     H87180   5.006   7.022   0.439  0.9475 -2.1829  0.3949
  632MOL0     H87181   5.030   7.022   0.617  1.4706 -0.0577 -1.1847
  632MOL0     H87182   4.929   6.829   0.556  0.1040  0.6853  1.1455
  632MOL0     H87183   4.800   6.934   0.634 -2.5171  1.2640 -0.8545
  632MOL0     H87184   4.844   6.864   0.349 -2.5817 -0.1960 -1.9958
  632MOL0     H87185   4.746   7.002   0.384  1.2179 -1.3698 -4.8257
  632MOL0     H87186   4.603   6.837   0.542  1.3436 -1.1613  1.7406
  632MOL0     H87187   4.698   6.715   0.513  0.1011  0.4615 -1.1408
  632MOL0     H87188   4.661   6.768   0.252 -0.4324  1.7746  0.6075
  632MOL0     H87189   4.536   6.667   0.339 -1.9622 -0.3879  0.0551
  632MOL0     H87190   4.437   6.828   0.193 -0.3401 -1.3951  0.9181
  632MOL0     H87191   4.537   6.966   0.268 -1.1588  0.1060 -0.5329
  632MOL0     H87192   4.407   6.961   0.465  2.1305 -1.7749 -0.4985
  632MOL0     H87193   4.335   6.798   0.430  1.0719 -0.5292 -0.3784
  632MOL0     H87194   4.177   7.005   0.408  0.0888  0.7367  0.0941
  632MOL0     H87195   4.178   6.893   0.269  0.2444 -2.6019  1.9669
  632MOL0     H87196   4.860   7.377   0.706  1.0966  1.7892  1.5196
  632MOL0     H87197   5.012   7.587   0.720 -0.6869  1.5759 -2.9582
  632MOL0     H87198   5.383   7.824   0.558 -2.8993  1.9874 -0.0160
  632MOL0     H87199   5.470   8.041   0.631 -0.5335 -0.2593 -0.3593
  632MOL0     H87200   6.471   9.462   1.135  0.0469  1.0011  1.0744
  632MOL0     H87201   6.712   9.436   1.163 -1.0695  1.8369 -1.5363
  632MOL0     H87202   6.998   9.027   1.280 -1.6964 -0.9336 -2.3247
  632MOL0     H87203   7.227   8.956   1.333 -0.1194  1.8724  1.9656
  632MOL0     H87204   7.474   8.999   1.393  0.0773 -0.2087  0.6707
  632MOL0     H87205   7.425   8.833   1.342  0.9869  0.1927  1.2377
  632MOL0     H87206   7.648   8.784   1.282 -0.0420  0.0101  0.1889
  632MOL0     H87207   7.679   8.885   1.415  1.2209 -0.1200 -0.9259
  632MOL0     H87208   7.835   8.924   1.265  1.1068  0.4575 -0.8880
  632MOL0     H87209   7.710   8.940   1.135 -0.1398  4.3558 -1.1908
  632MOL0     H87210   7.617   9.149   1.208 -1.5278 -0.6487 -0.5739
  632MOL0     H87211   7.786   9.156   1.160 -1.1570  1.2470 -0.0744
  632MOL0     H87212   7.712   9.264   1.580 -2.8405 -1.1397  1.4328
  632MOL0     H87213   7.353   9.040   0.941 -2.3004 -0.7962 -1.4753
  632MOL0     H87214   7.101   9.260   0.863 -1.1029 -0.1371 -0.4443
  632MOL0     H87215   7.232   9.139   0.797 -1.3529 -1.9215 -0.8966
  632MOL0     H87216   7.057   9.105   0.797 -1.1270  0.0759  1.2042
  633MOL0     O87217   1.877  11.088   3.376  0.4174 -0.5082 -0.7535
  633MOL0     C87218   1.836  11.083   3.266 -0.8980 -1.0295  0.2516
  633MOL0     O87219   1.716  11.132   3.216 -0.3638  0.7736  0.1426
  633MOL0     C87220   1.625  11.164   3.313 -0.1438 -0.1422  0.4642
  633MOL0     C87221   1.658  11.268   3.409 -0.4264  0.7395 -1.0440
  633MOL0     C87222   1.571  11.290   3.515  0.1211 -1.2303  0.2192
  633MOL0     C87223   1.447  11.215   3.525 -0.3939 -0.2528 -1.2884
  633MOL0     O87224   1.363  11.233   3.631  0.6025 -0.7981 -0.0425
  633MOL0     C87225   1.314  11.363   3.671 -0.6466  0.0595 -0.4867
  633MOL0     C87226   1.178  11.361   3.745  0.7476  0.6930 -0.0054
  633MOL0     C87227   1.078  11.258   3.677 -0.7398  0.3682 -0.5295
  633MOL0     C87228   1.056  11.300   3.528 -0.4781  0.0453 -0.7921
  633MOL0     C87229   0.933  11.243   3.472  0.4610  0.3912 -0.0726
  633MOL0     C87230   0.963  11.099   3.420 -0.0062 -0.9171  0.4442
  633MOL0     C87231   0.830  11.043   3.366  0.9426 -0.1559 -0.2459
  633MOL0     C87232   0.800  10.888   3.415  0.1793 -1.3081  0.2215
  633MOL0     N87233   0.894  10.783   3.396 -0.6252 -0.1724 -0.3854
  633MOL0     C87234   1.012  10.751   3.462  0.4439  0.0689 -0.5428
  633MOL0     C87235   1.046  10.631   3.413  0.2007  0.6820 -0.5255
  633MOL0     C87236   1.169  10.550   3.471 -0.1066  0.3089 -0.2436
  633MOL0     C87237   1.290  10.594   3.397  0.4135 -0.8865 -0.6006
  633MOL0     C87238   1.423  10.538   3.445 -0.2068  0.3210  0.6756
  633MOL0     C87239   1.418  10.385   3.427 -0.2210 -0.5286  0.1463
  633MOL0     O87240   1.388  10.345   3.298  0.1882 -0.8606 -0.0012
  633MOL0     C87241   1.352  10.217   3.270 -0.0924  0.7312 -0.4229
  633MOL0     C87242   1.233  10.188   3.209 -0.6599 -0.7234  0.6042
  633MOL0     C87243   1.171  10.064   3.197 -0.3495  0.8127  0.2369
  633MOL0     C87244   1.031  10.048   3.147 -0.1748  0.2479  0.1154
  633MOL0     C87245   1.256   9.953   3.229 -0.0148  0.9011  0.1849
  633MOL0     C87246   1.216   9.813   3.212  0.1855 -0.2506 -0.4157
  633MOL0     O87247   1.320   9.732   3.167  0.2448  0.1715  0.3035
  633MOL0     C87248   1.300   9.598   3.161  1.0046 -0.1127 -0.9546
  633MOL0     C87249   1.242   9.518   3.262 -1.0951  0.2106 -1.2461
  633MOL0     C87250   1.247   9.382   3.253  0.6263  1.4638 -0.5701
  633MOL0     C87251   1.322   9.315   3.151  0.1075  0.1804 -0.2636
  633MOL0     O87252   1.356   9.184   3.153  0.5097  0.1086 -0.2906
  633MOL0     C87253   1.265   9.083   3.190 -1.1032 -0.4974 -0.1914
  633MOL0     C87254   1.303   8.967   3.095 -0.6666 -1.0941 -0.8699
  633MOL0     C87255   1.233   8.845   3.144 -0.4062  0.2027  0.2663
  633MOL0     C87256   1.296   8.763   3.265 -0.3718  0.6192  0.0373
  633MOL0     C87257   1.212   8.635   3.288  0.1303  0.6054 -0.9144
  633MOL0     C87258   1.233   8.506   3.211  0.3397  1.0081  0.1339
  633MOL0     C87259   1.376   8.450   3.210 -0.0638  0.7691 -0.5801
  633MOL0     C87260   1.420   8.366   3.333 -0.6803 -0.9430  0.1247
  633MOL0    Cl87261   1.360   8.206   3.326 -0.2267 -0.3999  0.0194
  633MOL0     C87262   1.381   9.395   3.059  0.0830 -0.1693  0.6810
  633MOL0     C87263   1.377   9.534   3.060 -0.3551  0.1654 -0.7058
  633MOL0     O87264   1.099   9.776   3.254  0.0273  0.8561 -0.1632
  633MOL0     C87265   1.388   9.976   3.273  0.3802 -0.4806  0.1660
  633MOL0     C87266   1.438  10.108   3.290  0.1902 -0.1083  0.2863
  633MOL0     N87267   0.960  10.602   3.307 -1.0553  0.7234 -0.0609
  633MOL0     N87268   0.877  10.692   3.304 -0.0268 -0.5457  0.3113
  633MOL0     C87269   1.422  11.122   3.427 -0.4218  0.1808 -0.1248
  633MOL0     C87270   1.508  11.101   3.324 -0.3615 -0.0280  0.3396
  633MOL0     C87271   1.931  11.035   3.162 -0.1486  0.2729  0.0624
  633MOL0     C87272   1.937  11.113   3.047  0.0571 -0.3443 -0.4519
  633MOL0     C87273   2.007  11.062   2.937 -0.2552 -0.0821  0.0707
  633MOL0     C87274   2.083  10.943   2.949  0.2452  0.0579  0.9705
  633MOL0     O87275   2.161  10.901   2.836 -0.0091 -0.0209 -0.8718
  633MOL0     C87276   2.235  10.773   2.841 -0.5127 -0.0123  0.1878
  633MOL0     C87277   2.277  10.734   2.699  0.4126 -0.1076 -1.1038
  633MOL0     C87278   2.160  10.727   2.609 -0.4052 -1.1857  0.4191
  633MOL0     C87279   2.146  10.587   2.544 -0.6726 -0.3083  0.0759
  633MOL0     C87280   2.012  10.574   2.477 -1.0300 -0.7211 -0.3307
  633MOL0     C87281   1.914  10.554   2.417  0.2530  0.4153 -0.9271
  633MOL0     C87282   2.075  10.866   3.069 -1.1891 -0.5522 -0.4878
  633MOL0     C87283   1.999  10.920   3.176 -0.0182  1.1675 -1.1202
  633MOL0     C87284   1.992  10.829   3.293 -0.2755 -0.1232 -1.1454
  633MOL0     H87285   1.757  11.310   3.397 -0.1919  0.2965 -0.7140
  633MOL0     H87286   1.607  11.368   3.582  0.6065  2.1817 -3.6056
  633MOL0     H87287   1.318  11.423   3.580  6.2025  1.1378 -0.0133
  633MOL0     H87288   1.384  11.413   3.738 -1.0417  0.6795 -0.5261
  633MOL0     H87289   1.190  11.340   3.852 -0.0814  0.4918  0.0543
  633MOL0     H87290   1.134  11.461   3.739  0.1329  0.4126 -0.1472
  633MOL0     H87291   1.108  11.155   3.700 -0.3119  1.3331  4.5453
  633MOL0     H87292   0.985  11.268   3.734 -0.8695 -4.2608  0.5054
  633MOL0     H87293   1.042  11.409   3.521 -2.4079  0.0549  1.7508
  633MOL0     H87294   1.145  11.261   3.479 -0.5667 -2.3046  0.7396
  633MOL0     H87295   0.906  11.310   3.389 -0.6254  1.4408  1.0864
  633MOL0     H87296   0.845  11.247   3.536 -1.3697  1.5240 -2.4826
  633MOL0     H87297   1.034  11.113   3.338  0.2969 -0.6043  0.7532
  633MOL0     H87298   1.000  11.036   3.501  0.9078 -1.2992 -0.2567
  633MOL0     H87299   0.847  11.043   3.257  1.0312 -1.3964 -0.2483
  633MOL0     H87300   0.748  11.106   3.399  2.9188  1.0065  2.8347
  633MOL0     H87301   0.777  10.899   3.521  0.6753  1.3861  0.1266
  633MOL0     H87302   0.709  10.868   3.359 -0.0279 -1.7967  0.7340
  633MOL0     H87303   1.067  10.805   3.538  1.2906  0.9029 -1.7118
  633MOL0     H87304   1.145  10.445   3.450  0.4703 -0.0014  0.6130
  633MOL0     H87305   1.178  10.582   3.575  1.3881 -0.4317 -0.1221
  633MOL0     H87306   1.272  10.589   3.289 -1.3163  2.2897 -0.5642
  633MOL0     H87307   1.299  10.703   3.405  0.0032 -0.8505 -0.6219
  633MOL0     H87308   1.493  10.577   3.371  1.6229 -2.3303  0.8738
  633MOL0     H87309   1.445  10.568   3.548 -1.8549 -1.8341  1.7690
  633MOL0     H87310   1.517  10.356   3.462 -0.4229  0.7895  1.9026
  633MOL0     H87311   1.353  10.328   3.495 -0.5582 -0.6245 -0.2508
  633MOL0     H87312   1.182  10.280   3.182  1.9897  0.5883 -0.2797
  633MOL0     H87313   0.985  10.143   3.118 -1.8857  0.0050  1.8488
  633MOL0     H87314   0.970  10.002   3.224  2.3021  0.2036  2.1872
  633MOL0     H87315   1.035   9.989   3.055 -3.3260 -1.4726  0.9621
  633MOL0     H87316   1.192   9.562   3.347  0.6023  0.2311 -0.2187
  633MOL0     H87317   1.195   9.329   3.332 -0.2467 -0.0468 -2.0943
  633MOL0     H87318   1.273   9.065   3.297  2.6648  4.7656  0.7594
  633MOL0     H87319   1.161   9.115   3.183 -0.2770  2.4750 -0.1014
  633MOL0     H87320   1.276   9.004   2.996  0.0367  1.4423 -0.1808
  633MOL0     H87321   1.411   8.955   3.093 -0.0923  2.5147  0.6236
  633MOL0     H87322   1.247   8.779   3.058  1.1845  1.6829 -0.6772
  633MOL0     H87323   1.130   8.874   3.168  0.3226  0.4489  3.5631
  633MOL0     H87324   1.298   8.839   3.343 -0.9506  0.6525  0.0301
  633MOL0     H87325   1.399   8.729   3.250 -0.4721  0.3351 -0.0227
  633MOL0     H87326   1.233   8.609   3.392  4.0542 -0.6181 -1.8412
  633MOL0     H87327   1.104   8.648   3.271 -0.4512 -1.6356  0.6199
  633MOL0     H87328   1.213   8.537   3.108 -0.2820 -1.5607 -0.5945
  633MOL0     H87329   1.157   8.432   3.236 -0.3300  2.3810  2.4450
  633MOL0     H87330   1.437   8.540   3.213  1.7064 -0.1802 -3.6442
  633MOL0     H87331   1.396   8.396   3.117  1.0050  0.6151 -0.2761
  633MOL0     H87332   1.385   8.424   3.419 -0.8301 -1.8763  0.7055
  633MOL0     H87333   1.529   8.360   3.335 -0.6271  0.1092  1.2736
  633MOL0     H87334   1.432   9.348   2.975 -1.2098 -2.3084  1.0329
  633MOL0     H87335   1.438   9.598   2.997  0.6417  1.2032  1.2288
  633MOL0     H87336   1.456   9.894   3.292  1.3137  0.6666  2.0393
  633MOL0     H87337   1.538  10.133   3.325  0.5364  1.1454 -1.4441
  633MOL0     H87338   1.332  11.062   3.424  0.6040 -1.4161 -0.6978
  633MOL0     H87339   1.491  11.011   3.265  1.1191 -1.7065  2.3507
  633MOL0     H87340   1.874  11.200   3.037  0.5210 -0.0826 -1.1599
  633MOL0     H87341   2.017  11.111   2.841 -1.4099  0.9668  0.4626
  633MOL0     H87342   2.328  10.784   2.898 -0.2821 -1.6667  0.1742
  633MOL0     H87343   2.173  10.696   2.888 -0.5295  1.0829  2.1155
  633MOL0     H87344   2.331  10.639   2.707 -0.3425 -0.7809 -3.3084
  633MOL0     H87345   2.338  10.817   2.665  1.7239 -1.2256 -1.5847
  633MOL0     H87346   2.066  10.751   2.659 -1.1056  0.1278 -1.4040
  633MOL0     H87347   2.158  10.802   2.530 -3.5411 -0.1219  1.3401
  633MOL0     H87348   2.147  10.511   2.624 -2.2848 -0.5903 -0.1287
  633MOL0     H87349   2.229  10.568   2.476 -0.3240  0.0844  0.3904
  633MOL0     H87350   1.824  10.517   2.371  0.9327  0.8868 -2.6984
  633MOL0     H87351   2.127  10.771   3.077 -1.6121 -0.6167  4.0180
  633MOL0     H87352   2.033  10.873   3.384 -0.6177 -1.9824 -0.0430
  633MOL0     H87353   1.887  10.809   3.314 -0.1243 -0.5236 -0.7570
  633MOL0     H87354   2.052  10.738   3.285  0.8504  0.4865  0.1444
  634MOL0     O87355   0.622   5.998   4.215 -0.0590 -0.4376  0.0396
  634MOL0     C87356   0.509   5.966   4.244 -0.1629  0.8896 -0.3065
  634MOL0     O87357   0.396   6.010   4.180 -0.7690 -0.3805 -0.6131
  634MOL0     C87358   0.408   6.083   4.059  0.8841  1.0499 -0.6963
  634MOL0     C87359   0.378   6.220   4.063  0.5570 -0.0686  0.4480
  634MOL0     C87360   0.383   6.292   3.947 -0.0237 -0.1791  0.2538
  634MOL0     C87361   0.407   6.233   3.823 -0.6020 -0.4892  0.8297
  634MOL0     O87362   0.406   6.307   3.707 -0.1543 -0.1024 -0.4088
  634MOL0     C87363   0.542   6.349   3.669 -0.6604 -0.6156  0.9956
  634MOL0     C87364   0.531   6.448   3.548  0.3204  0.0944  0.1258
  634MOL0     C87365   0.575   6.588   3.569 -0.3976  0.1518 -0.0455
  634MOL0     C87366   0.474   6.646   3.668  0.0943  0.6217 -0.6088
  634MOL0     C87367   0.532   6.782   3.710 -1.1101 -0.3841 -0.0460
  634MOL0     C87368   0.419   6.874   3.756  0.0588  0.3534 -0.0202
  634MOL0     C87369   0.482   7.008   3.809 -0.0384 -0.7409  0.4356
  634MOL0     C87370   0.540   7.103   3.700  0.3967 -0.3387  1.0022
  634MOL0     N87371   0.444   7.151   3.600 -0.8315 -0.2913 -0.7825
  634MOL0     C87372   0.304   7.145   3.608 -1.0111  0.5485  0.5572
  634MOL0     C87373   0.261   7.205   3.497  0.4296 -0.5687  0.2263
  634MOL0     C87374   0.119   7.246   3.473 -0.7996  0.1746 -1.2384
  634MOL0     C87375   0.108   7.395   3.450 -0.5453 -0.0268 -0.4508
  634MOL0     C87376   0.167   7.449   3.315  0.3291  0.0981  0.5952
  634MOL0     C87377   0.163   7.602   3.307 -0.3844 -0.3230 -0.5592
  634MOL0     O87378   0.062   7.672   3.381 -0.1790 -0.6595  0.3308
  634MOL0     C87379  -0.066   7.682   3.332 -0.1000 -0.9879 -0.6922
  634MOL0     C87380  -0.176   7.663   3.420 -0.4676 -0.3375 -0.0186
  634MOL0     C87381  -0.306   7.680   3.373 -0.2222  0.4029 -0.2558
  634MOL0     C87382  -0.407   7.618   3.461  1.0740  0.8507 -0.1483
  634MOL0     C87383  -0.329   7.742   3.246  0.8814 -0.7637 -0.4517
  634MOL0     C87384  -0.456   7.767   3.190  0.7424 -0.6685  0.2510
  634MOL0     O87385  -0.559   7.798   3.282 -0.5100 -0.1466  0.3069
  634MOL0     C87386  -0.675   7.823   3.228  0.1224  0.5182 -0.5193
  634MOL0     C87387  -0.794   7.751   3.284 -1.6605 -0.1080 -0.1190
  634MOL0     C87388  -0.918   7.785   3.234  0.2635  0.0031  0.0398
  634MOL0     C87389  -0.935   7.890   3.149 -0.1600 -0.6917  0.2771
  634MOL0     O87390  -1.056   7.918   3.105  0.0225 -0.5154  1.0221
  634MOL0     C87391  -1.062   7.926   2.956 -0.6989  0.3873  0.1055
  634MOL0     C87392  -1.197   7.878   2.912  0.5152  0.6675  0.3610
  634MOL0     C87393  -1.310   7.968   2.973  0.2189 -0.3277  0.3344
  634MOL0     C87394  -1.446   7.909   2.927  0.2906 -0.1045  0.2832
  634MOL0     C87395  -1.487   7.892   2.783  0.2664 -0.2249  0.7341
  634MOL0     C87396  -1.474   8.025   2.698 -1.3848 -0.2261  0.2091
  634MOL0     C87397  -1.576   8.008   2.585 -0.8222 -0.4044  0.6807
  634MOL0     C87398  -1.567   8.135   2.503  0.6893  0.0376  0.5351
  634MOL0    Cl87399  -1.480   8.094   2.355 -0.2798 -0.4116 -0.1740
  634MOL0     C87400  -0.827   7.977   3.108  0.3128 -0.0542 -0.2073
  634MOL0     C87401  -0.696   7.930   3.142 -0.5369  1.1125  0.4154
  634MOL0     O87402  -0.471   7.747   3.068 -0.4904 -0.5901  0.4229
  634MOL0     C87403  -0.211   7.768   3.164  0.3296  0.3320  0.2081
  634MOL0     C87404  -0.090   7.723   3.201 -0.7307  0.7704 -0.5093
  634MOL0     N87405   0.377   7.246   3.423 -0.2997 -0.8828 -0.3078
  634MOL0     N87406   0.477   7.217   3.491  0.1078 -0.6898  0.4396
  634MOL0     C87407   0.437   6.102   3.814 -0.4427 -0.9027  0.7575
  634MOL0     C87408   0.437   6.025   3.933  0.0616 -0.5483 -0.4945
  634MOL0     C87409   0.490   5.867   4.350  0.0959  0.8594 -0.1920
  634MOL0     C87410   0.375   5.785   4.323  0.5227  1.0803 -0.7721
  634MOL0     C87411   0.341   5.683   4.420  0.0507 -0.7926 -0.1513
  634MOL0     C87412   0.425   5.673   4.538 -0.0396  0.9740 -0.0817
  634MOL0     O87413   0.408   5.573   4.631  0.0713  0.0686 -0.5683
  634MOL0     C87414   0.387   5.433   4.589  0.4522 -0.5952 -0.2721
  634MOL0     C87415   0.529   5.380   4.581 -0.1265 -0.4727 -0.7565
  634MOL0     C87416   0.534   5.228   4.596  0.9550  0.6803  0.6828
  634MOL0     C87417   0.658   5.158   4.531 -0.0775 -1.1833  0.0656
  634MOL0     C87418   0.776   5.217   4.587 -0.5195 -0.4896 -0.0406
  634MOL0     C87419   0.867   5.276   4.627 -0.5217 -0.2256  0.1707
  634MOL0     C87420   0.519   5.768   4.569  0.4386  0.3705  0.6291
  634MOL0     C87421   0.559   5.859   4.473 -0.3249  0.5407  0.3749
  634MOL0     C87422   0.684   5.943   4.502  0.1142 -0.3625 -0.1236
  634MOL0     H87423   0.371   6.272   4.158  3.6591  1.5446 -0.0610
  634MOL0     H87424   0.349   6.394   3.966 -3.7239 -1.1161 -0.4046
  634MOL0     H87425   0.590   6.256   3.635 -1.8798 -0.3126 -1.7703
  634MOL0     H87426   0.595   6.384   3.758 -1.7320  0.7402  1.1310
  634MOL0     H87427   0.594   6.407   3.468 -1.2566 -1.8991 -0.1802
  634MOL0     H87428   0.432   6.432   3.505 -1.0680 -2.7174  3.8067
  634MOL0     H87429   0.678   6.589   3.606 -1.0483 -2.1083  2.0751
  634MOL0     H87430   0.578   6.639   3.472  1.5381  2.2120  1.0077
  634MOL0     H87431   0.370   6.650   3.633 -0.5370  0.7310  1.1584
  634MOL0     H87432   0.471   6.576   3.753  2.3741  2.5246  1.2012
  634MOL0     H87433   0.588   6.825   3.626 -1.7741  0.5889 -0.0079
  634MOL0     H87434   0.606   6.770   3.790 -3.5896 -0.7386  2.3202
  634MOL0     H87435   0.344   6.883   3.677 -0.7466  1.5278  0.8504
  634MOL0     H87436   0.374   6.824   3.842  2.2533  2.0806  2.2665
  634MOL0     H87437   0.558   6.990   3.885 -0.9024 -0.5924  1.3563
  634MOL0     H87438   0.396   7.061   3.852 -1.7845  0.1826 -3.6171
  634MOL0     H87439   0.576   7.202   3.732 -1.6725  0.3488  1.3276
  634MOL0     H87440   0.636   7.064   3.664  1.1665  1.5914  0.8227
  634MOL0     H87441   0.239   7.127   3.692  1.6144  2.7340  3.2648
  634MOL0     H87442   0.056   7.221   3.559  1.5866  2.5779  1.4338
  634MOL0     H87443   0.099   7.195   3.378 -0.4335 -2.9406  0.2406
  634MOL0     H87444   0.003   7.418   3.474  0.1012  2.2234  0.5197
  634MOL0     H87445   0.158   7.451   3.530  0.4749 -1.3952 -0.0971
  634MOL0     H87446   0.271   7.417   3.312 -0.0368 -1.0846 -0.1683
  634MOL0     H87447   0.111   7.403   3.233  1.0059  3.2239 -1.7961
  634MOL0     H87448   0.262   7.632   3.344  0.5567 -1.2066 -2.2690
  634MOL0     H87449   0.167   7.627   3.200  0.9356 -0.3996 -0.5449
  634MOL0     H87450  -0.158   7.608   3.512  1.2404 -3.9889 -2.3327
  634MOL0     H87451  -0.476   7.558   3.401 -0.7678 -2.1863  4.4603
  634MOL0     H87452  -0.463   7.699   3.510 -0.9084  0.5962 -1.8595
  634MOL0     H87453  -0.359   7.554   3.536  0.9480  0.8750 -0.0461
  634MOL0     H87454  -0.790   7.668   3.355  0.0673  0.1059  0.0737
  634MOL0     H87455  -1.007   7.734   3.270  1.9064 -0.8138  3.2764
  634MOL0     H87456  -1.054   8.031   2.927  3.0740  0.8962  2.2930
  634MOL0     H87457  -0.977   7.871   2.915 -0.6885  1.3909 -1.2831
  634MOL0     H87458  -1.191   7.877   2.803 -0.8665  1.0891  0.2604
  634MOL0     H87459  -1.205   7.774   2.943 -0.9415  0.5237 -0.3908
  634MOL0     H87460  -1.290   8.068   2.933  1.7577  0.0510  1.9161
  634MOL0     H87461  -1.283   7.961   3.079  1.4873  1.6531  0.1904
  634MOL0     H87462  -1.529   7.972   2.961 -0.7349 -1.7896  1.0489
  634MOL0     H87463  -1.452   7.810   2.972  0.9268  1.1026  3.3097
  634MOL0     H87464  -1.422   7.821   2.731 -1.2802  0.3270 -2.1440
  634MOL0     H87465  -1.591   7.859   2.782  0.5222 -1.0563 -0.2513
  634MOL0     H87466  -1.371   8.049   2.669 -1.5170  1.4086  0.9734
  634MOL0     H87467  -1.501   8.118   2.749  0.7745  2.5609 -3.2206
  634MOL0     H87468  -1.679   8.008   2.621 -0.4108  1.4064  2.0086
  634MOL0     H87469  -1.569   7.915   2.529  0.3565 -0.9286  1.6623
  634MOL0     H87470  -1.517   8.221   2.549  1.7018  0.2177 -0.8145
  634MOL0     H87471  -1.669   8.155   2.469 -0.8071 -2.6029  3.0574
  634MOL0     H87472  -0.839   8.064   3.043 -1.9747 -0.0812  0.1179
  634MOL0     H87473  -0.611   7.989   3.111 -0.4019 -0.4922 -2.6326
  634MOL0     H87474  -0.230   7.818   3.070  0.1280  1.4642  0.8405
  634MOL0     H87475  -0.005   7.729   3.135 -0.3391  0.6289 -0.0241
  634MOL0     H87476   0.449   6.058   3.716 -0.8724 -0.1801  0.3700
  634MOL0     H87477   0.456   5.919   3.934 -0.0122 -0.6170  2.5379
  634MOL0     H87478   0.311   5.785   4.236 -1.4181 -0.9822  0.5479
  634MOL0     H87479   0.252   5.626   4.396 -1.3416  1.5511 -0.9578
  634MOL0     H87480   0.332   5.377   4.665  1.4311 -3.4995 -1.5710
  634MOL0     H87481   0.330   5.424   4.496  0.9774 -3.4433 -0.4159
  634MOL0     H87482   0.601   5.419   4.654  2.1758 -2.7365 -1.7055
  634MOL0     H87483   0.571   5.391   4.481 -4.4961 -2.3118 -3.0622
  634MOL0     H87484   0.537   5.185   4.697  0.2653 -1.8778 -0.3033
  634MOL0     H87485   0.447   5.183   4.547  0.9356  0.5612  0.8241
  634MOL0     H87486   0.659   5.183   4.424 -1.3313 -1.1617  0.0468
  634MOL0     H87487   0.657   5.050   4.546 -0.3765 -1.7697 -3.3361
  634MOL0     H87488   0.931   5.351   4.668  0.1522  0.6152 -2.2162
  634MOL0     H87489   0.568   5.769   4.666 -0.4156  0.1672  1.0678
  634MOL0     H87490   0.686   6.037   4.447 -3.0492  0.2851  0.6690
  634MOL0     H87491   0.679   5.964   4.609  0.0431 -1.1835  0.0410
  634MOL0     H87492   0.774   5.882   4.486 -1.6281 -3.7306  1.7972
  635MOL0     O87493   2.833   0.712   3.650  0.2125  0.1351 -0.4229
  635MOL0     C87494   2.934   0.766   3.699  0.1641 -0.5769  0.3853
  635MOL0     O87495   3.024   0.705   3.789  0.6248 -0.4762  0.6047
  635MOL0     C87496   2.973   0.596   3.857  0.2030 -0.0221 -0.1762
  635MOL0     C87497   2.945   0.471   3.793  0.0796  0.1875 -0.3308
  635MOL0     C87498   2.907   0.361   3.870 -0.3459  0.1164 -0.5229
  635MOL0     C87499   2.894   0.378   4.013  0.5693 -0.4833 -0.9764
  635MOL0     O87500   2.845   0.278   4.101  0.3113 -0.3241  0.3322
  635MOL0     C87501   2.853   0.131   4.055  0.1762  0.1540  0.1035
  635MOL0     C87502   2.992   0.058   4.042 -0.0167  0.6239 -0.5083
  635MOL0     C87503   3.068   0.068   4.172 -0.5958 -0.1099  0.7089
  635MOL0     C87504   3.046  -0.025   4.289  0.8552 -0.7959 -0.0577
  635MOL0     C87505   3.163  -0.040   4.386 -0.9594 -0.0712 -1.2722
  635MOL0     C87506   3.156  -0.169   4.468 -0.4588  0.4263 -1.4016
  635MOL0     C87507   3.271  -0.175   4.575 -0.2565  0.0511 -1.0716
  635MOL0     C87508   3.256  -0.295   4.676  0.1302 -0.2416 -0.2997
  635MOL0     N87509   3.167  -0.271   4.788 -0.6246  0.1284 -0.0735
  635MOL0     C87510   3.021  -0.303   4.781 -0.2875  0.1682 -0.8294
  635MOL0     C87511   2.989  -0.296   4.912  0.3701 -0.1354  0.6206
  635MOL0     C87512   2.867  -0.348   4.967  0.6188  0.6494  0.5864
  635MOL0     C87513   2.883  -0.468   5.061 -0.7359  0.9828  0.6517
  635MOL0     C87514   2.921  -0.601   4.983  0.1041 -1.0791 -0.5893
  635MOL0     C87515   2.961  -0.703   5.069  0.0849 -0.9609 -0.8998
  635MOL0     O87516   2.965  -0.825   5.001  0.4663 -0.3745 -1.1304
  635MOL0     C87517   2.987  -0.942   5.071  0.7385 -0.7754  0.5126
  635MOL0     C87518   3.001  -0.952   5.209 -0.0581 -0.2626 -0.4433
  635MOL0     C87519   3.034  -1.073   5.262 -0.1689  0.1450  0.3348
  635MOL0     C87520   3.062  -1.072   5.410  0.0801  0.4348 -0.1723
  635MOL0     C87521   3.046  -1.191   5.189 -0.0926 -0.0447 -0.7611
  635MOL0     C87522   3.099  -1.317   5.250  0.6114 -0.2327  0.1169
  635MOL0     O87523   3.177  -1.315   5.370 -0.2136 -0.1876 -0.0182
  635MOL0     C87524   3.249  -1.426   5.404 -0.3367 -1.0978  0.4164
  635MOL0     C87525   3.361  -1.467   5.326 -0.5111 -1.0028  0.0824
  635MOL0     C87526   3.430  -1.578   5.377 -0.3937 -0.3116 -0.0543
  635MOL0     C87527   3.405  -1.636   5.498  0.4876  0.1653  0.4043
  635MOL0     O87528   3.477  -1.743   5.521  0.1303  0.1848  0.7881
  635MOL0     C87529   3.458  -1.802   5.650 -0.0991 -0.5762  0.5876
  635MOL0     C87530   3.591  -1.859   5.697 -0.2663  0.5167 -0.3738
  635MOL0     C87531   3.663  -1.940   5.588 -0.3176  0.1672  0.4112
  635MOL0     C87532   3.809  -1.983   5.627  0.0231  0.0969  0.2334
  635MOL0     C87533   3.890  -2.036   5.509  0.4296  0.5843 -0.5640
  635MOL0     C87534   4.011  -2.107   5.548 -0.0795  0.6906 -0.5418
  635MOL0     C87535   4.081  -2.152   5.416 -0.1838 -0.3558  0.2624
  635MOL0     C87536   4.230  -2.163   5.425 -0.7122 -0.1686 -0.3583
  635MOL0    Cl87537   4.283  -1.986   5.436 -0.0115  0.4894 -0.2232
  635MOL0     C87538   3.304  -1.587   5.573  0.5857 -0.2940 -0.3380
  635MOL0     C87539   3.220  -1.491   5.520  0.1120 -0.1875 -0.1119
  635MOL0     O87540   3.069  -1.417   5.187  0.2307 -0.4357 -0.7986
  635MOL0     C87541   3.004  -1.185   5.055  0.7238 -0.7920 -0.3416
  635MOL0     C87542   2.991  -1.061   4.993  0.7726 -0.6782 -0.0021
  635MOL0     N87543   3.098  -0.255   4.988 -0.2826 -0.4380 -0.4702
  635MOL0     N87544   3.205  -0.242   4.915  0.2371 -0.0387  0.4817
  635MOL0     C87545   2.929   0.496   4.073 -0.0462  1.0903  0.1519
  635MOL0     C87546   2.962   0.612   3.995  0.1341 -0.0692 -0.7783
  635MOL0     C87547   2.942   0.911   3.689  0.7875 -0.1883  0.2481
  635MOL0     C87548   2.972   1.000   3.798  0.3526  0.3741 -0.5916
  635MOL0     C87549   2.992   1.129   3.785 -0.5994 -1.4261 -0.2663
  635MOL0     C87550   2.983   1.191   3.657 -0.4707  0.8789 -0.4369
  635MOL0     O87551   3.029   1.320   3.653 -0.0199  0.9142 -0.3040
  635MOL0     C87552   2.968   1.430   3.717 -0.5060 -0.1552 -0.2249
  635MOL0     C87553   3.018   1.556   3.645  0.1362  0.1489 -0.5583
  635MOL0     C87554   2.952   1.672   3.707  0.2977 -0.2746 -0.4522
  635MOL0     C87555   3.043   1.791   3.735 -0.0594 -0.4692 -0.0759
  635MOL0     C87556   3.091   1.843   3.606  0.3601  0.3414  0.5466
  635MOL0     C87557   3.126   1.895   3.498  0.0249  0.7850 -0.8411
  635MOL0     C87558   2.961   1.112   3.542  0.5761 -0.8852  0.3079
  635MOL0     C87559   2.923   0.981   3.558  0.3492  1.1281 -0.7804
  635MOL0     C87560   2.895   0.916   3.417 -0.4661  0.0535 -0.8507
  635MOL0     H87561   2.959   0.466   3.685 -0.4238  0.8573 -0.4340
  635MOL0     H87562   2.890   0.268   3.818 -1.5961  0.3919 -0.6416
  635MOL0     H87563   2.795   0.128   3.963 -0.2089 -0.4968  0.3683
  635MOL0     H87564   2.797   0.078   4.132  1.1189  2.1258  2.2935
  635MOL0     H87565   2.981  -0.047   4.015 -0.0087 -1.2886  5.4261
  635MOL0     H87566   3.056   0.116   3.975  0.5836 -0.1810 -0.6500
  635MOL0     H87567   3.167   0.050   4.129 -0.2529  1.5177  0.7471
  635MOL0     H87568   3.047   0.171   4.203 -1.4077  0.4139 -1.4027
  635MOL0     H87569   2.955   0.005   4.341  1.3172  2.1899 -0.7872
  635MOL0     H87570   3.030  -0.121   4.238  1.0506  0.1835 -2.0468
  635MOL0     H87571   3.179   0.047   4.451 -0.5440 -1.1395  0.1147
  635MOL0     H87572   3.256  -0.055   4.332  0.0033 -0.0764  0.3260
  635MOL0     H87573   3.066  -0.166   4.531  1.4954 -0.0291  1.6273
  635MOL0     H87574   3.144  -0.257   4.405  0.4915 -0.0933 -0.8755
  635MOL0     H87575   3.279  -0.077   4.623 -0.9351  0.3846 -1.6346
  635MOL0     H87576   3.359  -0.195   4.513 -1.9955 -0.8067 -3.3747
  635MOL0     H87577   3.208  -0.371   4.614  2.4426 -0.8989 -1.3833
  635MOL0     H87578   3.351  -0.337   4.710 -0.8027 -1.8670  0.4264
  635MOL0     H87579   2.952  -0.333   4.703 -1.6256  0.0807  0.3423
  635MOL0     H87580   2.793  -0.366   4.889 -0.9361  0.2564  2.0908
  635MOL0     H87581   2.802  -0.278   5.020 -1.3892 -1.7919  1.5625
  635MOL0     H87582   2.953  -0.455   5.145  0.5771 -0.7959 -0.0806
  635MOL0     H87583   2.784  -0.495   5.098 -0.3737 -0.0372  0.9328
  635MOL0     H87584   2.830  -0.638   4.935 -0.6280 -0.8176  0.5660
  635MOL0     H87585   2.998  -0.587   4.906 -2.8561 -0.3180 -3.6244
  635MOL0     H87586   3.044  -0.666   5.130 -0.2181 -2.8611  0.7642
  635MOL0     H87587   2.885  -0.705   5.148  2.0254 -2.9619  1.0548
  635MOL0     H87588   2.984  -0.871   5.279 -0.1604 -0.3846 -0.3251
  635MOL0     H87589   3.169  -1.051   5.415  0.4458 -0.4175 -2.8010
  635MOL0     H87590   3.051  -1.169   5.460 -1.1341 -2.1917 -4.9418
  635MOL0     H87591   3.004  -0.997   5.465  0.7798 -0.8464  2.5227
  635MOL0     H87592   3.392  -1.417   5.235 -0.3214  0.9361  1.1576
  635MOL0     H87593   3.510  -1.615   5.315 -1.0204 -2.9202  0.5803
  635MOL0     H87594   3.437  -1.732   5.732  2.6552 -0.5763  1.3789
  635MOL0     H87595   3.383  -1.879   5.631  2.0116 -2.3758 -0.8689
  635MOL0     H87596   3.657  -1.776   5.724  1.4411 -1.8304  3.5451
  635MOL0     H87597   3.587  -1.926   5.784 -0.1116 -1.4799 -1.8584
  635MOL0     H87598   3.676  -1.872   5.503  1.5464  0.1291  0.6328
  635MOL0     H87599   3.605  -2.026   5.554 -2.5677  1.0388  1.8359
  635MOL0     H87600   3.794  -2.059   5.703 -1.6836 -1.8006 -1.8750
  635MOL0     H87601   3.865  -1.897   5.667 -0.3713 -0.2776  1.6463
  635MOL0     H87602   3.818  -2.108   5.469 -2.7971  2.0083  2.1686
  635MOL0     H87603   3.907  -1.954   5.440 -0.2681 -0.8458 -2.5405
  635MOL0     H87604   4.001  -2.196   5.611 -0.2480  0.2843 -1.1264
  635MOL0     H87605   4.089  -2.047   5.595  2.3258  0.6724 -4.1032
  635MOL0     H87606   4.056  -2.107   5.319  2.6716 -1.0848 -0.9350
  635MOL0     H87607   4.055  -2.257   5.404 -1.2134 -0.1689  0.7864
  635MOL0     H87608   4.273  -2.211   5.336 -0.1972  0.4434 -0.4460
  635MOL0     H87609   4.265  -2.209   5.518  0.1696  2.5559  0.7548
  635MOL0     H87610   3.268  -1.634   5.664 -0.0276  1.0006  0.1130
  635MOL0     H87611   3.141  -1.452   5.582  0.3475  0.3965 -0.1691
  635MOL0     H87612   2.987  -1.272   4.992 -1.0815 -0.5800 -0.2248
  635MOL0     H87613   2.963  -1.063   4.888 -1.3708  1.3176  0.4456
  635MOL0     H87614   2.919   0.488   4.181  0.8786  2.0822  0.3206
  635MOL0     H87615   2.972   0.710   4.040 -1.2409  0.6195 -1.8946
  635MOL0     H87616   2.986   0.954   3.896 -2.9716 -1.4319 -0.8384
  635MOL0     H87617   3.014   1.187   3.874 -1.1867 -0.2565 -0.8638
  635MOL0     H87618   2.859   1.423   3.712 -0.6248  1.0206  0.4673
  635MOL0     H87619   2.997   1.432   3.823 -1.1275  1.0522 -0.0668
  635MOL0     H87620   2.998   1.560   3.538 -1.6504 -3.3603 -0.4910
  635MOL0     H87621   3.128   1.558   3.645  0.1637  2.4842 -2.3089
  635MOL0     H87622   2.875   1.702   3.636  0.1141  0.3903  0.0062
  635MOL0     H87623   2.913   1.641   3.804  6.2490 -2.4410  1.7278
  635MOL0     H87624   3.128   1.764   3.799 -2.8598 -1.1248  3.7226
  635MOL0     H87625   2.999   1.873   3.793  2.4367 -1.1813  3.1673
  635MOL0     H87626   3.175   1.916   3.405 -1.5865 -1.0047 -2.1676
  635MOL0     H87627   2.969   1.148   3.440  0.9451  0.5030  0.7891
  635MOL0     H87628   2.865   0.812   3.432 -0.3290  0.1940  0.4930
  635MOL0     H87629   2.808   0.972   3.381  1.4689  3.7240 -0.3221
  635MOL0     H87630   2.975   0.929   3.343 -0.1517 -1.2174 -0.7614
  636MOL0     O87631   7.222   4.118   2.347 -0.7148  0.2717  1.5007
  636MOL0     C87632   7.341   4.103   2.345 -0.0708 -0.4371 -0.3062
  636MOL0     O87633   7.404   4.020   2.434 -0.3528 -0.0616 -0.4382
  636MOL0     C87634   7.337   3.917   2.500 -0.8913  0.6483  1.0770
  636MOL0     C87635   7.197   3.891   2.507 -0.7231 -0.9082  0.5123
  636MOL0     C87636   7.144   3.792   2.588 -0.0379 -0.1783 -0.4790
  636MOL0     C87637   7.232   3.710   2.670  0.0713  0.7083 -0.4778
  636MOL0     O87638   7.191   3.622   2.765  0.1330  0.1031  0.0916
  636MOL0     C87639   7.130   3.686   2.872  0.2424  0.0067  0.1430
  636MOL0     C87640   7.105   3.600   2.990  0.8517  0.6123  0.0603
  636MOL0     C87641   7.043   3.695   3.088 -1.0431  0.3037 -0.0540
  636MOL0     C87642   7.019   3.627   3.214  0.2321 -0.4910 -0.4981
  636MOL0     C87643   6.926   3.700   3.306  0.0446 -1.4161 -0.8453
  636MOL0     C87644   6.985   3.829   3.358 -0.0686  0.4668 -0.1078
  636MOL0     C87645   6.903   3.882   3.474 -0.7915 -0.3448  0.1650
  636MOL0     C87646   6.941   3.810   3.606  0.4408  0.1539 -0.3702
  636MOL0     N87647   6.859   3.866   3.718  0.6202 -0.3470 -0.4296
  636MOL0     C87648   6.740   3.932   3.710  0.1554  0.2107 -1.2828
  636MOL0     C87649   6.685   3.914   3.837 -1.0699 -0.1911  0.7606
  636MOL0     C87650   6.560   3.990   3.880  0.4441  1.0625  0.6380
  636MOL0     C87651   6.469   3.909   3.978 -0.2852  0.1834 -0.8447
  636MOL0     C87652   6.338   3.984   4.015  0.5207 -0.4370 -0.2005
  636MOL0     C87653   6.359   4.111   4.094  0.4126 -0.5616  0.5227
  636MOL0     O87654   6.379   4.218   4.006 -0.9116 -0.5684  0.3971
  636MOL0     C87655   6.309   4.347   4.028  0.1565 -0.3637  0.5351
  636MOL0     C87656   6.354   4.454   3.948  0.3571  0.0456 -0.0545
  636MOL0     C87657   6.288   4.579   3.959 -0.2867  0.1606  0.4006
  636MOL0     C87658   6.337   4.681   3.865  1.2104 -0.7204 -0.1982
  636MOL0     C87659   6.181   4.608   4.046 -0.4412 -0.8725 -0.8508
  636MOL0     C87660   6.124   4.746   4.064 -0.8583 -0.1852 -0.0509
  636MOL0     O87661   5.992   4.742   4.083 -0.5898  0.2030  0.3544
  636MOL0     C87662   5.933   4.865   4.107 -0.1638  0.8327  0.8076
  636MOL0     C87663   5.850   4.869   4.213  0.0613  0.5072 -0.1811
  636MOL0     C87664   5.776   4.986   4.246 -1.1117  0.1079 -0.7826
  636MOL0     C87665   5.785   5.100   4.167 -0.2236 -0.0949 -0.2476
  636MOL0     O87666   5.723   5.214   4.204  0.5843 -0.1049  0.2652
  636MOL0     C87667   5.805   5.307   4.276  0.2052  1.1006 -0.4297
  636MOL0     C87668   5.743   5.451   4.285 -0.0842  0.4648 -1.1790
  636MOL0     C87669   5.708   5.500   4.153  1.0710 -0.8252  0.6187
  636MOL0     C87670   5.611   5.617   4.158  0.4653 -1.0670 -0.4236
  636MOL0     C87671   5.662   5.733   4.249  0.4669 -0.8347  0.1717
  636MOL0     C87672   5.590   5.866   4.213  0.2867  0.7894  0.5092
  636MOL0     C87673   5.439   5.875   4.233 -0.2484  0.4991 -0.0715
  636MOL0     C87674   5.384   6.009   4.177  0.0358 -0.5230 -0.6406
  636MOL0    Cl87675   5.413   6.051   4.004  0.0085 -0.4136  0.4251
  636MOL0     C87676   5.871   5.096   4.055 -0.0277 -0.0669 -0.7958
  636MOL0     C87677   5.949   4.981   4.019 -0.3075 -0.4908 -0.3140
  636MOL0     O87678   6.198   4.838   4.089 -0.5226 -0.0593 -0.5051
  636MOL0     C87679   6.140   4.498   4.120  0.7306  0.3734 -0.7994
  636MOL0     C87680   6.194   4.369   4.108 -0.0710 -0.6409  0.5425
  636MOL0     N87681   6.780   3.854   3.915  0.2831  0.3608 -0.1382
  636MOL0     N87682   6.881   3.821   3.839  1.0587 -0.6108 -1.0040
  636MOL0     C87683   7.371   3.725   2.656  0.3513  0.1744  0.6321
  636MOL0     C87684   7.422   3.833   2.572 -0.5528 -0.0837 -0.2351
  636MOL0     C87685   7.433   4.185   2.255  0.4691  0.4161 -0.5081
  636MOL0     C87686   7.566   4.139   2.253 -0.7255 -0.4183 -0.3863
  636MOL0     C87687   7.657   4.199   2.164  0.5082  0.9713  0.0092
  636MOL0     C87688   7.618   4.288   2.064 -1.1791 -0.0469 -0.8373
  636MOL0     O87689   7.702   4.290   1.954 -0.3345 -0.0187  0.0390
  636MOL0     C87690   7.787   4.412   1.937  0.0584 -1.0436  0.1557
  636MOL0     C87691   7.927   4.395   1.994 -0.2763 -0.6744 -0.1562
  636MOL0     C87692   7.999   4.528   1.998  0.2382 -0.6861  0.0506
  636MOL0     C87693   8.004   4.605   1.860 -0.2646 -0.0919 -0.2752
  636MOL0     C87694   8.066   4.742   1.883 -0.2464 -0.1069 -0.4451
  636MOL0     C87695   8.131   4.835   1.915 -1.1888  0.0764 -0.4188
  636MOL0     C87696   7.485   4.335   2.067  0.3099  0.4752  0.7572
  636MOL0     C87697   7.390   4.291   2.166 -0.6391 -0.0148  2.3228
  636MOL0     C87698   7.251   4.350   2.173 -1.2513 -0.2709 -0.3784
  636MOL0     H87699   7.125   3.956   2.458  1.5014  1.6669  0.4369
  636MOL0     H87700   7.039   3.798   2.614  0.2295  1.0831  0.3802
  636MOL0     H87701   7.033   3.730   2.845  0.2812 -0.7343 -1.3426
  636MOL0     H87702   7.202   3.766   2.889  1.1506 -0.7277 -0.1502
  636MOL0     H87703   7.031   3.525   2.962 -0.0437  2.2215 -2.1804
  636MOL0     H87704   7.195   3.548   3.023  1.8267  1.1038 -1.6871
  636MOL0     H87705   7.096   3.790   3.098 -2.8229  1.3628 -0.1964
  636MOL0     H87706   6.950   3.732   3.043  1.3360  4.5786 -2.1584
  636MOL0     H87707   7.002   3.522   3.187  2.8222 -0.4827 -2.6496
  636MOL0     H87708   7.114   3.637   3.266 -0.6184  2.2193  0.7242
  636MOL0     H87709   6.892   3.629   3.383 -1.6283 -0.4884 -0.6662
  636MOL0     H87710   6.828   3.720   3.261  0.3595  3.3440  0.1221
  636MOL0     H87711   7.090   3.830   3.389  0.2608 -1.0386 -1.0907
  636MOL0     H87712   6.979   3.901   3.275  2.0460  1.5857  0.6409
  636MOL0     H87713   6.798   3.884   3.444 -0.6983  0.2486 -0.1404
  636MOL0     H87714   6.912   3.990   3.488 -1.6691 -0.2200 -0.1960
  636MOL0     H87715   6.930   3.701   3.612 -1.6440  0.4002  1.8966
  636MOL0     H87716   7.045   3.823   3.637  0.6503 -0.3186 -0.8596
  636MOL0     H87717   6.685   3.989   3.636 -1.6140 -0.6871 -0.7157
  636MOL0     H87718   6.507   4.019   3.789 -0.3029 -2.7792 -0.3413
  636MOL0     H87719   6.594   4.085   3.923 -3.2296  3.5541 -1.4623
  636MOL0     H87720   6.439   3.819   3.923 -1.1070  1.0645 -1.9035
  636MOL0     H87721   6.510   3.884   4.076 -0.7793 -2.1320 -1.1801
  636MOL0     H87722   6.276   3.992   3.925 -1.5116  0.0531  1.1723
  636MOL0     H87723   6.286   3.916   4.084  3.4168  0.0666  2.6922
  636MOL0     H87724   6.269   4.129   4.155  1.7012  2.5193  1.7622
  636MOL0     H87725   6.426   4.099   4.179  0.3191 -1.3733  0.4901
  636MOL0     H87726   6.430   4.420   3.878 -0.8519  2.1435 -2.5102
  636MOL0     H87727   6.394   4.760   3.913 -0.5696 -0.1639  1.0964
  636MOL0     H87728   6.257   4.730   3.809  1.8482 -2.5325 -2.8921
  636MOL0     H87729   6.398   4.635   3.786  1.7798  0.2677 -0.3445
  636MOL0     H87730   5.862   4.789   4.286  1.3383  1.8681  1.1785
  636MOL0     H87731   5.713   4.978   4.334 -0.5345  1.5552 -0.2071
  636MOL0     H87732   5.798   5.258   4.374 -0.2103  0.5996 -0.7045
  636MOL0     H87733   5.909   5.311   4.242 -0.2375  0.0699 -2.0032
  636MOL0     H87734   5.650   5.465   4.341 -0.0084 -0.6906 -0.7443
  636MOL0     H87735   5.826   5.507   4.330 -0.6106  1.6393 -1.6190
  636MOL0     H87736   5.681   5.422   4.081  0.4499  1.2393 -1.5216
  636MOL0     H87737   5.799   5.541   4.108  0.3564  0.1725  0.0242
  636MOL0     H87738   5.513   5.579   4.187  0.2245 -3.0707 -3.3854
  636MOL0     H87739   5.594   5.656   4.056  0.7994 -0.6168 -0.3117
  636MOL0     H87740   5.633   5.709   4.352 -0.0959  2.1714  0.8251
  636MOL0     H87741   5.766   5.764   4.241 -0.2852  1.4416 -2.5473
  636MOL0     H87742   5.618   5.879   4.108  0.5533 -2.6825  0.0340
  636MOL0     H87743   5.632   5.953   4.264  0.8382  0.5310  0.4983
  636MOL0     H87744   5.416   5.864   4.340  0.3850  0.3166  0.0510
  636MOL0     H87745   5.386   5.793   4.184  0.3527 -0.7630  1.2980
  636MOL0     H87746   5.426   6.088   4.241  1.3813  0.8836 -3.0877
  636MOL0     H87747   5.276   6.021   4.175 -0.0196 -0.9873 -0.4201
  636MOL0     H87748   5.890   5.181   3.990 -0.1124  0.2683 -0.3894
  636MOL0     H87749   6.017   4.991   3.935 -1.0265 -0.5919 -0.9120
  636MOL0     H87750   6.050   4.511   4.180  0.2419  0.1663 -1.4700
  636MOL0     H87751   6.154   4.298   4.180 -0.8668  0.0631  0.8030
  636MOL0     H87752   7.438   3.657   2.708 -0.5832  0.0649  1.7422
  636MOL0     H87753   7.528   3.837   2.550 -0.2738 -0.4051  0.9912
  636MOL0     H87754   7.620   4.065   2.312  1.7905  0.4909 -1.4220
  636MOL0     H87755   7.756   4.156   2.148  0.6991  1.8622 -1.3062
  636MOL0     H87756   7.787   4.436   1.830  0.4569  2.2556  0.8124
  636MOL0     H87757   7.737   4.496   1.985  1.3837 -0.5063  0.6531
  636MOL0     H87758   7.981   4.328   1.928  2.7423 -0.7865  2.1913
  636MOL0     H87759   7.924   4.341   2.089  0.3235 -1.8070 -0.7737
  636MOL0     H87760   7.942   4.594   2.063 -0.0930 -1.6930  0.8062
  636MOL0     H87761   8.105   4.518   2.023  0.2835 -1.5664 -0.4606
  636MOL0     H87762   7.905   4.638   1.825  0.2205 -0.3121 -1.9641
  636MOL0     H87763   8.069   4.557   1.786 -2.2210 -2.6611 -0.4813
  636MOL0     H87764   8.206   4.897   1.961 -0.1316  0.2547 -2.2797
  636MOL0     H87765   7.467   4.410   1.991 -1.3477  2.8664  3.3270
  636MOL0     H87766   7.212   4.366   2.273  1.4493  2.3737  0.4053
  636MOL0     H87767   7.251   4.453   2.134  1.5933  0.1545  0.4822
  636MOL0     H87768   7.183   4.290   2.111  0.6678 -2.2303 -0.7094
  637MOL0     O87769   9.320   6.064   3.736  0.1526  0.5958 -0.2075
  637MOL0     C87770   9.214   6.067   3.784  0.1795  0.5541  0.0177
  637MOL0     O87771   9.096   6.097   3.717 -0.4018  0.8588 -0.4306
  637MOL0     C87772   9.096   6.143   3.591  0.5094 -0.1907 -0.4115
  637MOL0     C87773   9.179   6.240   3.540  0.5502  0.2991 -0.2366
  637MOL0     C87774   9.154   6.287   3.411 -0.0432  1.2366 -0.7370
  637MOL0     C87775   9.054   6.240   3.334  0.1731  0.2782  0.0837
  637MOL0     O87776   9.047   6.264   3.194  0.5069 -0.3541 -0.6758
  637MOL0     C87777   9.165   6.274   3.124  0.1337 -0.4881 -0.4674
  637MOL0     C87778   9.170   6.406   3.066  0.3142 -0.7095 -0.2140
  637MOL0     C87779   9.055   6.425   2.977  0.6553  0.6069 -0.3505
  637MOL0     C87780   9.062   6.554   2.905  0.2808  0.1042  1.3365
  637MOL0     C87781   9.170   6.574   2.800 -0.1835 -0.2674  0.2155
  637MOL0     C87782   9.170   6.702   2.721 -0.1189  0.1826 -0.4694
  637MOL0     C87783   9.026   6.736   2.654 -0.4391  0.1180  0.2598
  637MOL0     C87784   9.034   6.883   2.602 -0.6374 -0.6717  0.9669
  637MOL0     N87785   9.053   6.982   2.711 -0.1922  0.2600 -0.2554
  637MOL0     C87786   8.960   7.003   2.822 -0.9055  0.2876  1.4547
  637MOL0     C87787   9.023   7.101   2.899  0.9008  0.6930 -0.3044
  637MOL0     C87788   8.977   7.153   3.035  1.1008 -0.6696  0.4741
  637MOL0     C87789   8.936   7.296   3.015  0.2817 -0.4693 -0.2528
  637MOL0     C87790   8.875   7.350   3.147 -0.5389 -0.1935  0.0755
  637MOL0     C87791   8.828   7.494   3.134  0.2051  0.2334  0.4279
  637MOL0     O87792   8.698   7.507   3.074 -0.6460 -0.4460  0.4776
  637MOL0     C87793   8.585   7.494   3.141 -0.6694  0.2854 -0.7773
  637MOL0     C87794   8.471   7.555   3.095  0.8776 -0.6970  0.0457
  637MOL0     C87795   8.343   7.538   3.154  0.2690  0.0583 -1.0956
  637MOL0     C87796   8.222   7.597   3.097  0.2733 -0.0826  0.8354
  637MOL0     C87797   8.325   7.474   3.278 -0.1739  0.2390  0.4361
  637MOL0     C87798   8.205   7.453   3.369 -0.5719  0.1616 -0.0995
  637MOL0     O87799   8.220   7.411   3.496 -0.4405 -1.2539 -0.1060
  637MOL0     C87800   8.125   7.333   3.570 -1.5430  0.6753  0.4924
  637MOL0     C87801   8.178   7.258   3.685 -0.7264 -0.3990 -0.3100
  637MOL0     C87802   8.106   7.159   3.755 -0.1878 -0.6435 -0.3933
  637MOL0     C87803   7.983   7.131   3.702  0.3262 -0.5469 -0.2222
  637MOL0     O87804   7.905   7.032   3.766  0.3274 -0.2133 -0.9286
  637MOL0     C87805   7.772   7.002   3.723  0.7503 -0.1737  0.0327
  637MOL0     C87806   7.708   6.903   3.822  0.1736 -0.5396 -0.4362
  637MOL0     C87807   7.657   6.978   3.943 -0.4258 -1.1516  0.2491
  637MOL0     C87808   7.583   6.899   4.054  0.2165  0.2840  0.1014
  637MOL0     C87809   7.552   6.999   4.162  1.0522 -0.0209  0.6752
  637MOL0     C87810   7.514   6.921   4.281 -0.5755 -0.0917 -1.4280
  637MOL0     C87811   7.369   6.858   4.258  0.4680  0.2110 -0.4033
  637MOL0     C87812   7.306   6.819   4.396 -0.4803 -0.7225 -0.0786
  637MOL0    Cl87813   7.125   6.798   4.374 -0.7750  0.2326  0.0624
  637MOL0     C87814   7.930   7.192   3.585  0.2747 -0.7745  0.4371
  637MOL0     C87815   8.007   7.294   3.521  0.9503  0.5399 -0.8504
  637MOL0     O87816   8.108   7.433   3.297 -0.3929 -0.4305 -0.2577
  637MOL0     C87817   8.449   7.420   3.328  0.3846 -0.3339  0.6144
  637MOL0     C87818   8.572   7.428   3.264  0.5113  0.4705 -0.4203
  637MOL0     N87819   9.149   7.125   2.846  0.1127  0.2630  0.6528
  637MOL0     N87820   9.162   7.064   2.734  1.0029 -0.4550  0.7236
  637MOL0     C87821   8.970   6.141   3.387 -0.2734  0.8985  0.3719
  637MOL0     C87822   8.996   6.090   3.515  0.3308 -0.2280 -1.0391
  637MOL0     C87823   9.189   6.039   3.929  0.5113 -0.7733  0.3402
  637MOL0     C87824   9.054   6.048   3.981 -0.2450 -1.0570  0.9580
  637MOL0     C87825   9.026   6.016   4.112  0.0169  0.1280  1.5646
  637MOL0     C87826   9.130   5.959   4.189  0.5406 -0.4739 -0.2877
  637MOL0     O87827   9.096   5.923   4.318 -0.1117 -0.2266 -0.4315
  637MOL0     C87828   9.072   5.783   4.320 -0.3157  0.5573 -0.4542
  637MOL0     C87829   8.919   5.764   4.302  0.4054  0.1499  0.0312
  637MOL0     C87830   8.877   5.617   4.269 -0.0751  0.1371  0.0914
  637MOL0     C87831   8.725   5.602   4.272  0.1833 -0.2709 -0.2473
  637MOL0     C87832   8.669   5.624   4.407  0.2441  0.2499 -1.3156
  637MOL0     C87833   8.644   5.639   4.528 -0.9975  0.8635  0.2063
  637MOL0     C87834   9.268   5.961   4.144  0.1114  0.0631  0.1138
  637MOL0     C87835   9.299   5.997   4.013  0.0276  0.4240  0.2417
  637MOL0     C87836   9.443   5.965   3.964 -0.2000  0.9369 -0.4770
  637MOL0     H87837   9.262   6.279   3.598 -1.7617  2.6929  1.7076
  637MOL0     H87838   9.219   6.362   3.365 -0.2244  1.4304 -0.6762
  637MOL0     H87839   9.163   6.206   3.038  2.3360  1.6158 -2.3479
  637MOL0     H87840   9.260   6.249   3.173  1.5540  3.2844 -0.9357
  637MOL0     H87841   9.168   6.477   3.148 -2.8241  1.1644 -1.7209
  637MOL0     H87842   9.254   6.432   3.001  0.0087 -0.7321 -0.6263
  637MOL0     H87843   9.059   6.342   2.906  0.4042 -0.6798  1.0780
  637MOL0     H87844   8.962   6.413   3.033  3.1927 -2.4871  3.9029
  637MOL0     H87845   8.965   6.560   2.856  0.6140 -0.6531  0.5473
  637MOL0     H87846   9.077   6.634   2.978 -0.4851  0.3320  1.2493
  637MOL0     H87847   9.163   6.495   2.725  1.2755  0.8281 -1.1360
  637MOL0     H87848   9.268   6.563   2.847 -0.5558 -0.6118  0.9390
  637MOL0     H87849   9.182   6.783   2.794 -2.5936  1.7728 -1.6851
  637MOL0     H87850   9.245   6.702   2.641 -0.4069  1.2047 -0.7534
  637MOL0     H87851   8.951   6.728   2.734 -0.0579  1.6347  0.7916
  637MOL0     H87852   9.003   6.664   2.575  2.1379 -0.4664 -0.0302
  637MOL0     H87853   9.124   6.885   2.540 -1.0738  2.3110  0.3029
  637MOL0     H87854   8.952   6.910   2.535  0.1583 -0.8528 -0.1005
  637MOL0     H87855   8.874   6.943   2.849  1.6055 -4.2837  0.5531
  637MOL0     H87856   9.063   7.155   3.101  2.3453  3.1454 -1.0258
  637MOL0     H87857   8.894   7.096   3.079  0.4619 -0.3644 -0.2913
  637MOL0     H87858   9.028   7.353   3.000 -0.9484  2.8221  2.9803
  637MOL0     H87859   8.866   7.323   2.935 -1.0479 -3.2978 -0.1687
  637MOL0     H87860   8.788   7.288   3.169 -0.0540 -0.9132 -0.0291
  637MOL0     H87861   8.950   7.346   3.227 -0.0309 -0.5372 -0.4171
  637MOL0     H87862   8.844   7.539   3.232  1.4900 -1.2377  0.9356
  637MOL0     H87863   8.876   7.554   3.056  1.5503 -2.8997 -1.3045
  637MOL0     H87864   8.484   7.618   3.007 -0.2834  0.1132  0.4348
  637MOL0     H87865   8.182   7.676   3.161  3.5130 -0.7939  4.0784
  637MOL0     H87866   8.137   7.531   3.078  0.1840  0.0583  0.7398
  637MOL0     H87867   8.254   7.626   2.996  0.2157  0.9740  1.1104
  637MOL0     H87868   8.280   7.273   3.718 -0.7627 -1.1423  0.1674
  637MOL0     H87869   8.143   7.112   3.845 -1.0189  3.8659  2.6105
  637MOL0     H87870   7.716   7.096   3.720  1.2515  0.0985 -1.2915
  637MOL0     H87871   7.757   6.965   3.622 -2.2322  0.6298  0.0620
  637MOL0     H87872   7.623   6.861   3.767 -0.7378  1.6984 -0.8562
  637MOL0     H87873   7.773   6.824   3.860 -0.0017 -0.3563  0.2530
  637MOL0     H87874   7.595   7.060   3.903  2.9564  0.4751 -2.1633
  637MOL0     H87875   7.748   7.022   3.984 -0.9012  2.2108 -1.8464
  637MOL0     H87876   7.637   6.813   4.096 -2.7137 -1.5269  0.4616
  637MOL0     H87877   7.484   6.867   4.020 -1.0085  1.7354  2.1538
  637MOL0     H87878   7.637   7.058   4.197 -0.2341  0.8191  2.5633
  637MOL0     H87879   7.471   7.060   4.122  2.0801  1.5630  0.9191
  637MOL0     H87880   7.509   6.996   4.360  0.3246 -0.9228 -0.5725
  637MOL0     H87881   7.596   6.853   4.303  1.6316  3.1834  1.4408
  637MOL0     H87882   7.369   6.774   4.188  0.8989 -0.2280  0.1174
  637MOL0     H87883   7.310   6.934   4.206  0.3774 -0.1890 -0.8932
  637MOL0     H87884   7.320   6.888   4.480  1.2412 -2.5161  1.1877
  637MOL0     H87885   7.351   6.727   4.434  1.1679  0.4097  0.8588
  637MOL0     H87886   7.826   7.167   3.567 -1.0799  1.6032  3.8798
  637MOL0     H87887   7.947   7.338   3.441 -0.5507  0.6374  0.2705
  637MOL0     H87888   8.437   7.370   3.424  2.6433  4.9108  4.1064
  637MOL0     H87889   8.650   7.365   3.305 -0.7155  0.8243  2.7065
  637MOL0     H87890   8.892   6.101   3.323  1.3915 -0.6678 -0.7836
  637MOL0     H87891   8.927   6.022   3.564 -0.7111  1.7026  0.3070
  637MOL0     H87892   8.976   6.087   3.916  2.5236 -1.2828 -2.8763
  637MOL0     H87893   8.921   6.024   4.140 -0.5926 -0.5428 -0.3979
  637MOL0     H87894   9.134   5.721   4.254  0.9382  0.3441  0.8705
  637MOL0     H87895   9.085   5.732   4.416 -1.7756 -1.9410 -1.4789
  637MOL0     H87896   8.882   5.821   4.216  0.5507  2.5709  1.5024
  637MOL0     H87897   8.873   5.804   4.393  0.6567 -1.1799  0.7592
  637MOL0     H87898   8.899   5.588   4.166  1.0220  0.6196  0.1797
  637MOL0     H87899   8.931   5.557   4.342  2.5906  1.8601 -0.3243
  637MOL0     H87900   8.717   5.494   4.256 -2.4046 -0.2647  0.5192
  637MOL0     H87901   8.673   5.672   4.206 -1.3165 -0.3935  0.7615
  637MOL0     H87902   8.639   5.641   4.635  0.3739  0.9152  0.2797
  637MOL0     H87903   9.332   5.936   4.227 -2.2474 -1.7500  1.5328
  637MOL0     H87904   9.445   5.898   3.878 -1.0773  1.1564 -0.6776
  637MOL0     H87905   9.507   6.049   3.936  1.1605 -0.1229 -0.6844
  637MOL0     H87906   9.492   5.917   4.049 -2.2027  1.5265  1.0900
  638MOL0     O87907   1.662   9.428   8.817  0.4697 -0.0153 -0.3556
  638MOL0     C87908   1.752   9.379   8.881 -0.3876 -0.1597  0.0430
  638MOL0     O87909   1.869   9.335   8.821  0.2647 -0.2853 -0.0185
  638MOL0     C87910   1.888   9.320   8.684  0.4229 -0.5226 -0.2594
  638MOL0     C87911   1.978   9.398   8.613  0.3084  0.3351  0.8347
  638MOL0     C87912   1.986   9.366   8.469 -0.9973  0.4142 -0.5279
  638MOL0     C87913   1.914   9.273   8.401  0.2212 -0.3437  1.0935
  638MOL0     O87914   1.943   9.235   8.274  0.3566 -0.1936  0.1681
  638MOL0     C87915   2.077   9.192   8.243 -0.1972  0.4999  0.9164
  638MOL0     C87916   2.048   9.075   8.149 -0.6668  0.3173  0.2564
  638MOL0     C87917   2.171   8.995   8.122 -0.0986 -0.0122 -0.4349
  638MOL0     C87918   2.178   8.905   8.003  0.1588  0.5756 -0.2729
  638MOL0     C87919   2.303   8.808   8.004  0.2366  0.1470  0.3269
  638MOL0     C87920   2.442   8.870   8.007 -0.1759 -0.0351 -0.7733
  638MOL0     C87921   2.558   8.766   8.049  0.6842 -0.5998  1.2766
  638MOL0     C87922   2.566   8.623   7.982 -0.1120 -0.6493  0.0391
  638MOL0     N87923   2.695   8.565   7.976 -0.5921 -0.5106 -0.5917
  638MOL0     C87924   2.814   8.631   7.937 -0.7694  0.2680  0.3227
  638MOL0     C87925   2.910   8.548   7.967  0.6933 -0.4877 -0.0108
  638MOL0     C87926   3.060   8.557   7.971  0.2731 -0.9071  0.2637
  638MOL0     C87927   3.143   8.431   7.918  0.1337  0.4345  0.1180
  638MOL0     C87928   3.295   8.466   7.931 -0.2162 -0.0228  0.3063
  638MOL0     C87929   3.363   8.350   7.873  0.0322  0.4364  0.0822
  638MOL0     O87930   3.345   8.238   7.972 -0.4456 -0.1768  0.4448
  638MOL0     C87931   3.417   8.236   8.083  0.8126 -0.2540 -0.0771
  638MOL0     C87932   3.520   8.320   8.113 -0.4559  0.1605  1.2538
  638MOL0     C87933   3.586   8.316   8.232  0.6078  0.4484 -0.4431
  638MOL0     C87934   3.672   8.434   8.278 -0.0117  0.5908 -0.4248
  638MOL0     C87935   3.565   8.208   8.316 -0.3883  0.4778  0.2264
  638MOL0     C87936   3.637   8.186   8.435  0.1139  0.0658 -0.0726
  638MOL0     O87937   3.577   8.111   8.534  0.1527 -0.1013  0.0964
  638MOL0     C87938   3.639   8.101   8.660 -0.5503  0.2429  0.7059
  638MOL0     C87939   3.629   8.210   8.753  0.2534  0.5313  0.8391
  638MOL0     C87940   3.681   8.203   8.878  0.2182 -1.0482  0.2212
  638MOL0     C87941   3.729   8.082   8.921  0.0082  0.3499 -0.4480
  638MOL0     O87942   3.769   8.088   9.059 -0.2699 -0.6247  0.7357
  638MOL0     C87943   3.784   7.960   9.135  0.1970 -0.4294 -0.1163
  638MOL0     C87944   3.855   7.969   9.266  0.9540  0.2230 -0.9138
  638MOL0     C87945   3.784   8.053   9.378  0.7011 -0.3555  0.4057
  638MOL0     C87946   3.835   8.036   9.523  0.7842 -0.7191 -0.3760
  638MOL0     C87947   3.771   8.138   9.620  0.3340 -0.2677  0.0478
  638MOL0     C87948   3.876   8.189   9.720  0.2005  0.1327 -1.1455
  638MOL0     C87949   3.823   8.306   9.796  0.0803  0.0584  0.5668
  638MOL0     C87950   3.938   8.365   9.881 -0.8197 -0.0404  0.3874
  638MOL0    Cl87951   4.028   8.259   9.991  0.1098  0.0545 -0.3655
  638MOL0     C87952   3.735   7.970   8.835 -0.5779  0.0225  0.1787
  638MOL0     C87953   3.695   7.975   8.701  0.7010 -0.3466 -0.2859
  638MOL0     O87954   3.751   8.224   8.454 -0.1020 -0.5218 -0.9181
  638MOL0     C87955   3.472   8.111   8.284  0.2392  0.7953  0.0303
  638MOL0     C87956   3.393   8.129   8.170  0.1248 -0.2993 -0.0212
  638MOL0     N87957   2.852   8.432   8.008 -0.7302 -0.0499  0.9729
  638MOL0     N87958   2.726   8.439   8.013 -0.0422  0.6018 -0.2816
  638MOL0     C87959   1.813   9.213   8.482  0.5277  1.2096  0.9509
  638MOL0     C87960   1.793   9.236   8.616  0.1690 -0.1371  0.2907
  638MOL0     C87961   1.744   9.401   9.030 -0.0475 -0.0307  0.2151
  638MOL0     C87962   1.614   9.417   9.086 -0.1188  0.4685 -0.5064
  638MOL0     C87963   1.594   9.433   9.224  0.7969 -0.8892 -0.6234
  638MOL0     C87964   1.702   9.445   9.312 -0.6228 -0.6857 -0.1541
  638MOL0     O87965   1.676   9.474   9.445 -0.4519 -0.2619  0.3210
  638MOL0     C87966   1.547   9.442   9.508  1.2192 -0.3112  0.2930
  638MOL0     C87967   1.579   9.462   9.657 -0.2562 -0.4898  0.7321
  638MOL0     C87968   1.453   9.436   9.735  0.6185 -0.0153 -0.2745
  638MOL0     C87969   1.465   9.524   9.858 -0.3600 -0.2013 -0.0419
  638MOL0     C87970   1.580   9.488   9.938 -0.5157  0.1657  0.1455
  638MOL0     C87971   1.671   9.443  10.008  0.1434 -0.9050  0.7323
  638MOL0     C87972   1.833   9.446   9.257 -0.8672 -0.7820  0.1382
  638MOL0     C87973   1.853   9.426   9.121  0.3464  0.3150  1.5528
  638MOL0     C87974   1.989   9.431   9.065 -0.4081  0.0542  0.7686
  638MOL0     H87975   2.021   9.484   8.665 -0.9182  1.2592  0.3862
  638MOL0     H87976   2.062   9.414   8.408  1.3695 -0.9501  1.1536
  638MOL0     H87977   2.124   9.163   8.338  0.3531 -0.5500  0.3499
  638MOL0     H87978   2.143   9.264   8.194  1.7149 -0.2672  2.2066
  638MOL0     H87979   1.979   9.017   8.211 -3.5954 -1.1086 -3.9505
  638MOL0     H87980   2.016   9.112   8.051 -1.5591 -1.1756 -0.0374
  638MOL0     H87981   2.254   9.067   8.116 -0.5759  0.5235 -0.7663
  638MOL0     H87982   2.181   8.929   8.208 -3.3084  0.2718  0.2766
  638MOL0     H87983   2.093   8.839   7.982  1.7330 -0.1636 -5.9329
  638MOL0     H87984   2.176   8.975   7.919  0.0190  0.0294 -0.7328
  638MOL0     H87985   2.291   8.751   7.911 -0.5062  1.5527 -0.4783
  638MOL0     H87986   2.289   8.738   8.087 -0.6939  0.1948  0.2190
  638MOL0     H87987   2.478   8.899   7.908  0.3771 -1.4676 -1.0227
  638MOL0     H87988   2.445   8.955   8.076 -2.8723  0.2351 -0.8807
  638MOL0     H87989   2.554   8.743   8.156  4.5265 -2.6334  1.1708
  638MOL0     H87990   2.659   8.809   8.044 -0.8857  3.3692 -1.1875
  638MOL0     H87991   2.488   8.559   8.025 -2.4587  2.7700  1.3038
  638MOL0     H87992   2.540   8.636   7.876  0.9118  0.7388 -0.0654
  638MOL0     H87993   2.826   8.735   7.910  0.9264  0.5491  1.9245
  638MOL0     H87994   3.090   8.578   8.074 -1.9998  0.6444  0.6833
  638MOL0     H87995   3.099   8.642   7.914 -1.3938  0.0375  0.4648
  638MOL0     H87996   3.123   8.350   7.989 -0.7951  0.0343 -0.5762
  638MOL0     H87997   3.117   8.414   7.813 -1.6447  3.5424 -0.0609
  638MOL0     H87998   3.323   8.564   7.892 -0.6481  0.3520  0.9351
  638MOL0     H87999   3.317   8.474   8.038 -0.2996 -3.3730  0.6996
  638MOL0     H88000   3.307   8.319   7.784 -1.7752 -1.0795  1.6647
  638MOL0     H88001   3.466   8.382   7.854 -0.6255  3.0804  0.5640
  638MOL0     H88002   3.561   8.404   8.057 -0.9529  0.1369  0.8540
  638MOL0     H88003   3.666   8.514   8.203  0.9261 -0.5572 -1.7947
  638MOL0     H88004   3.775   8.397   8.277  0.2857  1.3001  0.8851
  638MOL0     H88005   3.655   8.470   8.380  3.9439 -1.8303  1.3364
  638MOL0     H88006   3.584   8.302   8.718 -1.1979  0.4241  2.3024
  638MOL0     H88007   3.690   8.294   8.935  3.1657 -0.8207 -0.4318
  638MOL0     H88008   3.687   7.917   9.161 -0.5984  2.0683  1.4050
  638MOL0     H88009   3.837   7.889   9.070 -0.6360  1.2667 -2.8432
  638MOL0     H88010   3.870   7.866   9.298  0.8143 -0.7211 -3.6524
  638MOL0     H88011   3.953   8.012   9.241  1.0590 -0.7373 -2.2356
  638MOL0     H88012   3.679   8.025   9.390  0.6287 -0.3308 -0.1213
  638MOL0     H88013   3.787   8.157   9.345 -0.9371  0.0336  1.3859
  638MOL0     H88014   3.942   8.054   9.533  0.7998 -1.7217  1.7488
  638MOL0     H88015   3.815   7.934   9.556 -1.3194 -0.0442  0.6094
  638MOL0     H88016   3.726   8.219   9.562 -2.2406 -2.4437 -1.2231
  638MOL0     H88017   3.689   8.095   9.678 -1.1629  1.2574 -0.8694
  638MOL0     H88018   3.967   8.218   9.668  0.2223  3.6555  0.5813
  638MOL0     H88019   3.900   8.110   9.792  0.6827 -1.5710 -3.0688
  638MOL0     H88020   3.738   8.281   9.860  0.4912 -0.9271  0.7324
  638MOL0     H88021   3.783   8.382   9.728 -2.2233 -2.0304 -0.5641
  638MOL0     H88022   3.898   8.451   9.937 -3.1769 -1.4383  0.9924
  638MOL0     H88023   4.024   8.412   9.832 -1.2295  0.0697 -0.2354
  638MOL0     H88024   3.771   7.875   8.874  0.7376  1.1128  1.7487
  638MOL0     H88025   3.715   7.894   8.633  0.9526  0.3681 -1.0773
  638MOL0     H88026   3.472   8.019   8.341 -1.2861 -0.9686 -2.5817
  638MOL0     H88027   3.320   8.050   8.157 -1.0798  0.8279 -0.3725
  638MOL0     H88028   1.744   9.143   8.435  2.0319 -1.6971  2.7587
  638MOL0     H88029   1.710   9.186   8.665 -0.9903 -0.9514 -2.3162
  638MOL0     H88030   1.531   9.402   9.019 -0.5182  1.2439 -0.1943
  638MOL0     H88031   1.495   9.460   9.259  2.2059  3.2695  0.7380
  638MOL0     H88032   1.461   9.506   9.486  0.0308 -0.8897  2.8602
  638MOL0     H88033   1.529   9.335   9.497 -0.3315 -0.4215  3.0459
  638MOL0     H88034   1.627   9.557   9.683  0.1884 -0.8380  1.2056
  638MOL0     H88035   1.649   9.384   9.689  1.4840  0.9172  0.4799
  638MOL0     H88036   1.365   9.480   9.689  2.2463  3.8493 -0.0765
  638MOL0     H88037   1.437   9.328   9.749  1.7828 -0.0401  1.0892
  638MOL0     H88038   1.369   9.514   9.910 -0.1393  2.3266  0.9777
  638MOL0     H88039   1.477   9.626   9.823  0.7219 -0.2663  0.1154
  638MOL0     H88040   1.747   9.413  10.078  2.2328 -0.0909 -1.0599
  638MOL0     H88041   1.921   9.451   9.320 -0.1132 -1.0436 -0.8697
  638MOL0     H88042   1.992   9.501   8.981  2.0837 -2.0472 -1.0520
  638MOL0     H88043   2.065   9.471   9.133  0.8597 -3.3572  1.5563
  638MOL0     H88044   2.014   9.334   9.023 -0.0435 -0.6472  2.5044
  639MOL0     O88045   3.092   0.644   2.396  0.7714 -0.4023  0.3695
  639MOL0     C88046   3.039   0.575   2.481  0.0418  0.3855  0.6469
  639MOL0     O88047   3.095   0.520   2.583 -0.0490  0.2569 -0.3168
  639MOL0     C88048   3.229   0.540   2.617 -0.0345 -0.5517 -0.8461
  639MOL0     C88049   3.338   0.525   2.527 -0.2901  0.6837  0.1841
  639MOL0     C88050   3.464   0.552   2.580 -0.3940  0.2680  0.4809
  639MOL0     C88051   3.490   0.583   2.717  0.1661 -0.4924  0.4076
  639MOL0     O88052   3.617   0.606   2.759  0.2025  0.2290 -0.4303
  639MOL0     C88053   3.650   0.618   2.902 -0.3731 -0.0224 -0.0200
  639MOL0     C88054   3.687   0.777   2.915  0.4477  0.3747  0.1385
  639MOL0     C88055   3.808   0.816   2.837  0.0013 -0.2621  0.7540
  639MOL0     C88056   3.879   0.943   2.862  0.2877  0.0594 -1.1142
  639MOL0     C88057   4.019   0.942   2.793  0.0075 -0.0871 -0.2759
  639MOL0     C88058   4.125   1.045   2.854 -0.4323 -0.3455 -0.7820
  639MOL0     C88059   4.260   1.016   2.813 -0.9069 -0.4981  0.0734
  639MOL0     C88060   4.293   1.064   2.669  0.2124 -0.5726 -0.0676
  639MOL0     N88061   4.434   1.059   2.642 -1.0531  0.8689  0.1416
  639MOL0     C88062   4.500   0.945   2.621  0.5835 -0.6760 -0.2853
  639MOL0     C88063   4.629   0.974   2.638  0.3448 -0.1446 -0.2965
  639MOL0     C88064   4.742   0.892   2.624 -0.6935  0.7338  0.5432
  639MOL0     C88065   4.839   0.940   2.517 -0.3049  0.3799 -0.8367
  639MOL0     C88066   4.986   0.898   2.535  0.6741  0.2207  0.0734
  639MOL0     C88067   5.019   0.750   2.499 -0.4448 -0.7375  0.1957
  639MOL0     O88068   4.976   0.654   2.595  0.1630  0.1740 -0.6760
  639MOL0     C88069   4.903   0.541   2.557 -0.3146 -0.2762  0.8582
  639MOL0     C88070   4.835   0.463   2.646  0.2251  1.2837  0.4803
  639MOL0     C88071   4.761   0.352   2.613 -0.2690 -0.0653  0.0400
  639MOL0     C88072   4.703   0.283   2.735  0.6441  0.3088  0.0756
  639MOL0     C88073   4.746   0.315   2.478  0.4776  0.3785  0.5997
  639MOL0     C88074   4.655   0.208   2.436 -0.4893 -0.2229  0.0276
  639MOL0     O88075   4.562   0.150   2.522 -1.3348 -0.4981  0.2485
  639MOL0     C88076   4.464   0.062   2.486 -0.3294 -0.3325  0.5605
  639MOL0     C88077   4.436   0.006   2.359 -1.3157  0.4341  1.2382
  639MOL0     C88078   4.330  -0.071   2.330  0.1133  0.0552 -0.2944
  639MOL0     C88079   4.242  -0.101   2.438 -0.4298  0.3555  0.8657
  639MOL0     O88080   4.133  -0.184   2.406 -0.0547 -0.4016 -0.2755
  639MOL0     C88081   4.171  -0.321   2.396 -0.0727  0.7493 -0.4541
  639MOL0     C88082   4.044  -0.410   2.411 -0.3538  0.6633 -0.4365
  639MOL0     C88083   3.969  -0.374   2.539 -0.3028 -0.3049  0.9867
  639MOL0     C88084   3.820  -0.366   2.521  0.7040 -0.0060 -0.2745
  639MOL0     C88085   3.752  -0.407   2.658 -0.4549  0.1495 -0.1636
  639MOL0     C88086   3.603  -0.391   2.658 -0.2265  0.4868  0.0815
  639MOL0     C88087   3.528  -0.502   2.583 -0.5657  0.2535 -0.7438
  639MOL0     C88088   3.400  -0.530   2.661 -0.3904 -0.1646 -0.7211
  639MOL0    Cl88089   3.300  -0.380   2.653 -0.1768  0.0340 -0.1380
  639MOL0     C88090   4.263  -0.049   2.564  0.0961 -0.0193 -0.2689
  639MOL0     C88091   4.374   0.029   2.589  0.2882 -0.2185 -0.4128
  639MOL0     O88092   4.653   0.186   2.313  0.2431  0.2577 -0.6121
  639MOL0     C88093   4.821   0.390   2.382  0.3967  0.9043  0.1411
  639MOL0     C88094   4.901   0.500   2.417  0.1535  1.0305 -0.2518
  639MOL0     N88095   4.642   1.104   2.676 -0.1228 -0.2986 -0.4574
  639MOL0     N88096   4.529   1.154   2.672  0.6857  0.7324 -1.0871
  639MOL0     C88097   3.374   0.599   2.794  0.0347  0.1999  0.0499
  639MOL0     C88098   3.248   0.582   2.739  0.2424 -0.1648 -0.3152
  639MOL0     C88099   2.894   0.563   2.472 -0.0828 -0.7279  0.2226
  639MOL0     C88100   2.849   0.496   2.357  0.5257  0.0911  0.9636
  639MOL0     C88101   2.707   0.478   2.338  0.6488 -0.7743  0.5400
  639MOL0     C88102   2.614   0.526   2.436 -0.0918 -0.6179 -0.0581
  639MOL0     O88103   2.475   0.483   2.418  0.2141 -0.0868 -0.0740
  639MOL0     C88104   2.385   0.596   2.385 -0.4234 -0.1196 -0.2646
  639MOL0     C88105   2.245   0.532   2.384 -0.2100  0.0759  0.3655
  639MOL0     C88106   2.217   0.428   2.501  0.3534 -0.7717 -0.7474
  639MOL0     C88107   2.083   0.359   2.492 -0.4967  0.9709 -0.5479
  639MOL0     C88108   2.092   0.247   2.397  0.5630  0.1651  0.3440
  639MOL0     C88109   2.104   0.141   2.332  0.8659 -0.8617  0.9103
  639MOL0     C88110   2.659   0.606   2.543 -0.1331  0.3231  0.6622
  639MOL0     C88111   2.800   0.621   2.565  0.7430  0.8176  0.6268
  639MOL0     C88112   2.842   0.697   2.687  0.0770  0.0924 -0.0067
  639MOL0     H88113   3.323   0.482   2.429 -0.7346 -0.8035  0.8703
  639MOL0     H88114   3.548   0.554   2.511 -0.1182 -1.8327  0.6724
  639MOL0     H88115   3.732   0.547   2.918  1.8825  2.5103  0.5433
  639MOL0     H88116   3.571   0.582   2.969  0.0579 -2.2163 -0.6159
  639MOL0     H88117   3.598   0.831   2.883  0.0855 -0.0964  0.3319
  639MOL0     H88118   3.705   0.786   3.023 -1.9447  1.0929  0.5305
  639MOL0     H88119   3.879   0.734   2.846 -0.1995 -0.4648  0.4999
  639MOL0     H88120   3.767   0.829   2.737  0.6221 -0.0889  0.5229
  639MOL0     H88121   3.813   1.020   2.821 -1.1007 -2.6807 -4.4958
  639MOL0     H88122   3.892   0.944   2.971  3.6154 -2.6127 -1.3257
  639MOL0     H88123   4.006   0.959   2.686  3.3142 -2.0719 -1.1310
  639MOL0     H88124   4.064   0.843   2.788  1.8675  0.7836 -1.8177
  639MOL0     H88125   4.088   1.147   2.838 -3.7162 -1.5242 -1.5894
  639MOL0     H88126   4.128   1.038   2.963  1.0736  2.2431 -0.5764
  639MOL0     H88127   4.286   0.910   2.805  3.2375  0.3932 -0.3707
  639MOL0     H88128   4.337   1.055   2.880 -2.2231  1.0648  0.7591
  639MOL0     H88129   4.248   0.996   2.595  0.2941  0.8817 -1.4945
  639MOL0     H88130   4.263   1.167   2.650  2.4081  0.2646  0.7841
  639MOL0     H88131   4.458   0.853   2.581 -0.8314 -0.0200 -0.3789
  639MOL0     H88132   4.718   0.788   2.602  1.4286 -0.5005  3.5094
  639MOL0     H88133   4.800   0.889   2.716 -0.7185  1.1899  0.5793
  639MOL0     H88134   4.797   0.885   2.432  0.3317 -0.9029 -0.3353
  639MOL0     H88135   4.828   1.049   2.509  1.3618  0.5040 -2.0519
  639MOL0     H88136   5.048   0.959   2.469  2.2639 -2.7849 -1.4101
  639MOL0     H88137   5.011   0.923   2.639 -2.3912  6.1948 -0.1690
  639MOL0     H88138   4.982   0.742   2.397  0.0015 -0.4686  0.0120
  639MOL0     H88139   5.127   0.735   2.501 -0.4966 -1.1117  0.3957
  639MOL0     H88140   4.848   0.500   2.747 -0.2296 -0.3623  1.1810
  639MOL0     H88141   4.736   0.179   2.733  1.5167  0.5755  0.5033
  639MOL0     H88142   4.594   0.293   2.729  0.7986  1.4567 -1.6616
  639MOL0     H88143   4.740   0.338   2.822 -3.5728  3.2330  0.3848
  639MOL0     H88144   4.506   0.031   2.281 -2.5375  3.4213  0.9589
  639MOL0     H88145   4.324  -0.136   2.244  0.4867  0.0755 -0.3343
  639MOL0     H88146   4.213  -0.339   2.297 -0.7780 -1.6605 -0.3748
  639MOL0     H88147   4.242  -0.339   2.477  1.4498 -0.2976 -1.9740
  639MOL0     H88148   3.992  -0.396   2.315  2.4387  0.4148 -2.0993
  639MOL0     H88149   4.065  -0.517   2.402 -0.6212  0.7350 -2.5778
  639MOL0     H88150   3.992  -0.272   2.571 -3.0124  0.3871  0.9391
  639MOL0     H88151   3.990  -0.436   2.627 -0.4778  2.2571  2.9427
  639MOL0     H88152   3.785  -0.439   2.448  1.3235 -0.9734  0.3645
  639MOL0     H88153   3.781  -0.267   2.495 -0.0568 -0.0473  0.6567
  639MOL0     H88154   3.788  -0.509   2.670  0.2208  0.0041 -2.8224
  639MOL0     H88155   3.790  -0.341   2.737 -0.2622  0.3627 -0.4355
  639MOL0     H88156   3.576  -0.301   2.601  0.1570 -0.8267 -2.3355
  639MOL0     H88157   3.562  -0.361   2.754 -0.5401 -0.9432  0.4203
  639MOL0     H88158   3.589  -0.593   2.588 -0.2728  0.5106  1.0083
  639MOL0     H88159   3.504  -0.477   2.479  0.9310 -0.3440 -1.2613
  639MOL0     H88160   3.428  -0.571   2.758 -1.0971  2.3897  0.6615
  639MOL0     H88161   3.346  -0.603   2.600 -2.5345 -1.5756  2.5743
  639MOL0     H88162   4.188  -0.078   2.638 -0.8003  1.0201 -0.7438
  639MOL0     H88163   4.377   0.073   2.688  0.2731  0.3937 -0.6799
  639MOL0     H88164   4.804   0.367   2.278  1.6007 -2.4317  0.5544
  639MOL0     H88165   4.943   0.542   2.327 -2.1928  0.4482 -1.7048
  639MOL0     H88166   3.376   0.628   2.898 -0.9928  3.1826 -0.6706
  639MOL0     H88167   3.160   0.598   2.801  0.5425  0.8170 -0.1297
  639MOL0     H88168   2.907   0.455   2.274 -2.4888  0.3777 -1.4754
  639MOL0     H88169   2.665   0.420   2.257  1.4612 -0.8505  0.1651
  639MOL0     H88170   2.399   0.679   2.456  0.3030  2.9693 -3.7275
  639MOL0     H88171   2.403   0.629   2.283 -0.9977  1.3463  0.0746
  639MOL0     H88172   2.240   0.477   2.290 -0.2964 -2.5549  1.8186
  639MOL0     H88173   2.175   0.616   2.378 -2.1399 -1.4920 -0.1399
  639MOL0     H88174   2.302   0.363   2.522 -1.4410 -1.8192  5.2367
  639MOL0     H88175   2.209   0.489   2.592 -2.3941 -0.4928 -1.0928
  639MOL0     H88176   1.998   0.425   2.472 -2.2323 -1.6678 -2.4789
  639MOL0     H88177   2.066   0.321   2.593 -1.1378  4.1818  0.6634
  639MOL0     H88178   2.101   0.042   2.291  0.1825 -0.5021  0.0409
  639MOL0     H88179   2.591   0.637   2.622  0.8125 -3.9351  3.4644
  639MOL0     H88180   2.825   0.633   2.774  0.9790 -2.9316 -1.9204
  639MOL0     H88181   2.950   0.712   2.676  1.1376 -4.9189  1.1361
  639MOL0     H88182   2.801   0.798   2.698  3.2536  1.2962  3.2737
  640MOL0     O88183   8.533   5.277   8.216  0.4378  0.3696  0.2248
  640MOL0     C88184   8.626   5.234   8.152  0.4138  0.5445 -0.1571
  640MOL0     O88185   8.660   5.285   8.026  0.6214  0.5699 -0.1450
  640MOL0     C88186   8.571   5.361   7.958  0.3775  0.5452 -0.0396
  640MOL0     C88187   8.595   5.501   7.949 -0.1729  0.1157 -0.7594
  640MOL0     C88188   8.508   5.580   7.881 -0.0039 -0.0548  0.6389
  640MOL0     C88189   8.410   5.516   7.795  0.3358  0.4938  0.3099
  640MOL0     O88190   8.340   5.593   7.709 -0.7004 -0.5219  0.6638
  640MOL0     C88191   8.209   5.644   7.751 -0.7765  0.4709  0.5738
  640MOL0     C88192   8.200   5.796   7.736 -0.5102 -0.2853  0.3679
  640MOL0     C88193   8.328   5.856   7.801  1.1981 -0.3963 -0.6798
  640MOL0     C88194   8.318   6.009   7.805 -0.0697 -0.4093 -1.0709
  640MOL0     C88195   8.432   6.078   7.890  0.0903  0.3892 -0.4352
  640MOL0     C88196   8.425   6.229   7.883 -0.3468  0.0764  0.4376
  640MOL0     C88197   8.559   6.289   7.954  0.1662  0.7482 -0.2160
  640MOL0     C88198   8.549   6.431   8.002 -0.4690 -0.2040 -0.6892
  640MOL0     N88199   8.462   6.441   8.124 -1.0177 -0.3578  0.3148
  640MOL0     C88200   8.328   6.463   8.133  0.0189 -0.5767 -0.0961
  640MOL0     C88201   8.302   6.469   8.264  0.4688  0.4868  0.3024
  640MOL0     C88202   8.168   6.480   8.339 -0.2366  0.5153 -0.3288
  640MOL0     C88203   8.130   6.332   8.365  0.0896  0.3068  0.6902
  640MOL0     C88204   7.995   6.306   8.411 -0.8101  0.0221  1.1410
  640MOL0     C88205   8.001   6.193   8.507 -0.0430  0.7252 -0.7317
  640MOL0     O88206   7.865   6.187   8.555  0.9023  1.5653 -0.1879
  640MOL0     C88207   7.838   6.095   8.654 -0.1378  1.0063 -0.8955
  640MOL0     C88208   7.705   6.079   8.699  0.5291  0.6202  0.8375
  640MOL0     C88209   7.661   5.992   8.803 -0.0405  0.2623 -0.6688
  640MOL0     C88210   7.513   5.981   8.847 -0.3984 -0.2008  0.2643
  640MOL0     C88211   7.763   5.934   8.887 -1.0745 -0.1328  1.2978
  640MOL0     C88212   7.751   5.863   9.013 -0.0112  0.7234  0.0211
  640MOL0     O88213   7.861   5.824   9.085  0.2875 -1.0820 -0.4038
  640MOL0     C88214   7.846   5.808   9.221  0.8901 -1.4255 -0.0544
  640MOL0     C88215   7.793   5.910   9.301  1.0260  0.3971 -0.3021
  640MOL0     C88216   7.763   5.887   9.435 -0.9379 -0.1382 -0.7185
  640MOL0     C88217   7.781   5.776   9.501  0.7754  1.2743 -0.1090
  640MOL0     O88218   7.764   5.759   9.634  0.7577 -0.1843 -1.1019
  640MOL0     C88219   7.831   5.854   9.722  0.2518 -0.8424  0.4454
  640MOL0     C88220   7.730   5.911   9.825 -1.4028 -0.4230  0.0229
  640MOL0     C88221   7.666   5.807   9.921 -0.1885  0.3716  0.5838
  640MOL0     C88222   7.758   5.696   9.971 -0.2518  0.6475  0.6645
  640MOL0     C88223   7.708   5.625  10.096 -0.4336  0.2330  0.1873
  640MOL0     C88224   7.580   5.554  10.064 -0.1292  0.2503 -0.5055
  640MOL0     C88225   7.578   5.405  10.122 -0.0650 -0.4327  1.1300
  640MOL0     C88226   7.483   5.303  10.060  0.4114 -0.2070  0.8328
  640MOL0    Cl88227   7.311   5.341  10.029  0.0264 -0.3094  0.0961
  640MOL0     C88228   7.824   5.666   9.415  0.4753 -0.4052  0.3042
  640MOL0     C88229   7.851   5.687   9.276  0.3838 -0.4623 -0.0953
  640MOL0     O88230   7.636   5.825   9.044  0.7976 -0.9109 -0.2407
  640MOL0     C88231   7.896   5.945   8.843 -0.3216  0.2242  0.2108
  640MOL0     C88232   7.931   6.026   8.729  0.6004  0.3278  0.5057
  640MOL0     N88233   8.428   6.459   8.325  0.5823 -0.2275 -1.2921
  640MOL0     N88234   8.520   6.442   8.246 -0.3723  0.1826  0.5054
  640MOL0     C88235   8.388   5.381   7.799 -0.5953 -0.3229  0.0299
  640MOL0     C88236   8.467   5.301   7.879 -0.1792  0.4088 -0.1073
  640MOL0     C88237   8.725   5.131   8.200  0.6276 -0.3572 -0.6402
  640MOL0     C88238   8.859   5.123   8.160 -0.5241 -0.7176  0.1198
  640MOL0     C88239   8.955   5.039   8.235  0.2655 -0.2275  0.7498
  640MOL0     C88240   8.913   4.959   8.343 -0.2600  0.1005  0.0145
  640MOL0     O88241   8.987   4.850   8.396 -0.3476 -0.6033 -0.4708
  640MOL0     C88242   9.068   4.784   8.307  0.4885  0.6480 -0.5082
  640MOL0     C88243   9.127   4.666   8.387  0.5127 -0.5063  1.2434
  640MOL0     C88244   9.027   4.571   8.443 -0.1339 -0.5170  0.7742
  640MOL0     C88245   9.100   4.491   8.560  0.1473 -0.2369 -0.2316
  640MOL0     C88246   9.208   4.413   8.525 -0.6810 -0.1163  0.4673
  640MOL0     C88247   9.297   4.352   8.464  0.1546  0.1126 -0.7557
  640MOL0     C88248   8.784   4.968   8.370  1.6413 -0.0946  0.0775
  640MOL0     C88249   8.690   5.040   8.306  0.4692 -0.6483 -0.5611
  640MOL0     C88250   8.543   5.008   8.351 -1.3260 -0.4817  0.0460
  640MOL0     H88251   8.671   5.526   8.024 -2.0070 -0.6773  1.4740
  640MOL0     H88252   8.528   5.686   7.875 -1.5525  0.2293  0.0314
  640MOL0     H88253   8.182   5.615   7.853 -0.2641 -0.0279  0.5725
  640MOL0     H88254   8.133   5.601   7.684  0.5558 -0.8514 -0.1528
  640MOL0     H88255   8.204   5.828   7.631  0.9157 -2.5358 -0.3397
  640MOL0     H88256   8.111   5.835   7.786 -0.7730  0.0511 -0.3432
  640MOL0     H88257   8.323   5.804   7.897 -1.6397  2.1131  0.6772
  640MOL0     H88258   8.416   5.833   7.740  2.1095 -0.2831  0.5649
  640MOL0     H88259   8.303   6.045   7.703 -1.5210 -1.8282 -1.3878
  640MOL0     H88260   8.227   6.037   7.860  1.8653  2.6534  0.8773
  640MOL0     H88261   8.526   6.050   7.842  0.2971 -0.5101  0.4655
  640MOL0     H88262   8.428   6.051   7.996  1.8091  5.0520  1.0840
  640MOL0     H88263   8.428   6.258   7.778  0.9510 -3.3458 -0.5967
  640MOL0     H88264   8.329   6.257   7.929 -1.7188  1.3327 -2.8766
  640MOL0     H88265   8.641   6.283   7.882 -0.0914 -0.4857 -0.4198
  640MOL0     H88266   8.589   6.239   8.046  1.9587  2.4324  0.1800
  640MOL0     H88267   8.648   6.467   8.031 -0.9697  2.0388 -1.5177
  640MOL0     H88268   8.521   6.488   7.912 -0.2161 -0.6664 -1.0673
  640MOL0     H88269   8.254   6.497   8.061 -1.4383  1.2343  2.1292
  640MOL0     H88270   8.086   6.519   8.278 -1.1787 -1.5739 -0.4618
  640MOL0     H88271   8.187   6.542   8.428 -0.1644 -0.0651  0.0658
  640MOL0     H88272   8.144   6.290   8.265 -0.8874 -0.2291  0.7738
  640MOL0     H88273   8.205   6.289   8.433  2.7254  2.3538 -0.7087
  640MOL0     H88274   7.961   6.391   8.470  2.7934  0.6261  2.6015
  640MOL0     H88275   7.926   6.272   8.333 -1.2889 -0.1695  1.6381
  640MOL0     H88276   8.043   6.096   8.479  0.4916 -0.3392  3.1223
  640MOL0     H88277   8.060   6.227   8.593 -0.9049  3.1832 -1.0179
  640MOL0     H88278   7.628   6.139   8.652 -0.6078 -0.4269  1.3139
  640MOL0     H88279   7.504   6.020   8.948  3.5075 -0.6161  0.9303
  640MOL0     H88280   7.472   5.881   8.861  3.6605 -2.0139  0.6443
  640MOL0     H88281   7.455   6.042   8.776 -1.3387 -0.5793  0.6886
  640MOL0     H88282   7.793   6.007   9.251  0.5888  1.1229  1.0603
  640MOL0     H88283   7.733   5.971   9.497  0.9877 -0.3865  0.6345
  640MOL0     H88284   7.913   5.794   9.763  1.5333  0.7760  0.3435
  640MOL0     H88285   7.880   5.938   9.673  0.2927  0.0657  1.9873
  640MOL0     H88286   7.782   5.989   9.881 -2.3847 -1.7650  3.0568
  640MOL0     H88287   7.662   5.971   9.765 -0.8967  0.9081  0.7303
  640MOL0     H88288   7.580   5.769   9.865  1.6631 -1.9319 -0.9102
  640MOL0     H88289   7.634   5.869  10.005 -0.8915  0.8333 -0.0107
  640MOL0     H88290   7.856   5.743   9.986  0.2656  0.1342 -0.8667
  640MOL0     H88291   7.761   5.622   9.890  0.6138  2.7489 -1.3512
  640MOL0     H88292   7.780   5.549  10.127 -2.7394 -1.4506  1.8465
  640MOL0     H88293   7.697   5.705  10.170  0.6693 -0.7002  1.4065
  640MOL0     H88294   7.576   5.528   9.958 -2.2421 -3.3493  0.2933
  640MOL0     H88295   7.491   5.611  10.091 -0.4862  1.1026 -3.1492
  640MOL0     H88296   7.555   5.413  10.228  0.2132 -0.9314  1.2296
  640MOL0     H88297   7.677   5.359  10.109  0.3307  0.1789  1.8822
  640MOL0     H88298   7.483   5.204  10.109  0.1859 -0.2908  0.6639
  640MOL0     H88299   7.523   5.274   9.963  0.0817  0.2703  0.5523
  640MOL0     H88300   7.841   5.568   9.459  1.0789 -0.2772  0.3651
  640MOL0     H88301   7.875   5.607   9.207  0.8775 -1.4997  1.2396
  640MOL0     H88302   7.986   5.910   8.891 -0.5259  0.6924  0.9567
  640MOL0     H88303   8.036   6.021   8.702 -0.9077 -3.0954 -7.5290
  640MOL0     H88304   8.304   5.338   7.746 -0.5551  3.2122 -3.3902
  640MOL0     H88305   8.448   5.194   7.883  0.4139  0.2478 -1.2819
  640MOL0     H88306   8.901   5.184   8.081 -1.1297  0.6039  0.7891
  640MOL0     H88307   9.050   5.024   8.185  0.6823  1.0274  1.1359
  640MOL0     H88308   9.000   4.738   8.235 -1.8157 -0.9589  2.4748
  640MOL0     H88309   9.139   4.850   8.255 -0.3410  0.6503 -1.6937
  640MOL0     H88310   9.190   4.716   8.461  3.7098 -0.1350 -1.4355
  640MOL0     H88311   9.187   4.603   8.319 -1.0658 -1.1675  0.4033
  640MOL0     H88312   8.929   4.614   8.470  0.2591  0.5697  0.5487
  640MOL0     H88313   9.001   4.501   8.363 -1.5172  0.8383 -0.0260
  640MOL0     H88314   9.047   4.415   8.617  1.8702  0.6084  2.7026
  640MOL0     H88315   9.134   4.558   8.640  1.2695 -1.8369  0.6878
  640MOL0     H88316   9.380   4.311   8.409  2.0291  1.9693  0.5387
  640MOL0     H88317   8.746   4.901   8.446 -0.9357  2.2602  1.0483
  640MOL0     H88318   8.537   4.911   8.402 -1.8338  1.3895  3.8757
  640MOL0     H88319   8.497   5.079   8.420 -1.0573  0.4740 -0.7294
  640MOL0     H88320   8.468   5.004   8.272 -1.4426 -1.3781  0.1893
  641MOL0     O88321   6.641   3.133  10.097 -0.3636  0.4312 -0.0455
  641MOL0     C88322   6.762   3.159  10.070  0.3162 -0.1630 -0.4607
  641MOL0     O88323   6.868   3.096  10.134  0.1053 -0.4749  0.9554
  641MOL0     C88324   6.842   3.016  10.236 -0.1148 -0.5207 -1.1606
  641MOL0     C88325   6.891   3.069  10.360  0.5446  0.2627  0.3529
  641MOL0     C88326   6.861   3.006  10.478  0.2464  0.2388 -0.4230
  641MOL0     C88327   6.812   2.874  10.474 -1.1229 -0.1987 -0.7563
  641MOL0     O88328   6.795   2.804  10.594 -0.4608  0.3378 -0.5631
  641MOL0     C88329   6.712   2.858  10.692  0.3694 -0.3900 -0.0762
  641MOL0     C88330   6.765   2.853  10.835  0.0508  0.2676 -0.5107
  641MOL0     C88331   6.657   2.851  10.943  0.6768 -0.0843  0.0352
  641MOL0     C88332   6.724   2.824  11.075  0.6489  1.0269 -1.4755
  641MOL0     C88333   6.626   2.794  11.194  0.2442  0.4539 -0.5248
  641MOL0     C88334   6.665   2.865  11.322  0.4284 -1.0911 -0.0983
  641MOL0     C88335   6.618   2.790  11.445 -0.0910 -0.2349 -0.1136
  641MOL0     C88336   6.668   2.876  11.571  0.2982  0.3545  0.1603
  641MOL0     N88337   6.610   2.830  11.694  0.2619 -0.0165 -0.2333
  641MOL0     C88338   6.648   2.712  11.759  0.1514 -0.0303  0.6673
  641MOL0     C88339   6.560   2.680  11.852 -0.6474  0.5644 -0.5267
  641MOL0     C88340   6.554   2.548  11.934 -0.3791 -0.4809  0.9116
  641MOL0     C88341   6.408   2.512  11.987 -0.0483 -0.7133  0.1207
  641MOL0     C88342   6.399   2.383  12.070 -0.8376 -0.6985  0.4971
  641MOL0     C88343   6.260   2.324  12.102 -0.2239 -0.2774  0.5231
  641MOL0     O88344   6.190   2.440  12.156  0.7940 -0.1801  0.2788
  641MOL0     C88345   6.054   2.437  12.137 -0.5271  0.3705 -0.2025
  641MOL0     C88346   5.986   2.366  12.236  0.1862  0.0513  0.0146
  641MOL0     C88347   5.852   2.343  12.232  0.5231 -0.3548 -0.1936
  641MOL0     C88348   5.797   2.256  12.339 -0.1660  0.0978  0.6096
  641MOL0     C88349   5.782   2.389  12.118 -0.2863 -0.0382  0.1164
  641MOL0     C88350   5.640   2.342  12.080 -0.0513  0.0108  0.6919
  641MOL0     O88351   5.611   2.347  11.946  0.1708  0.1447  0.5340
  641MOL0     C88352   5.503   2.295  11.882 -0.2137  0.4883 -0.3180
  641MOL0     C88353   5.434   2.377  11.798 -1.0529  0.1225  0.1981
  641MOL0     C88354   5.332   2.330  11.723  0.0957 -0.3015  0.0649
  641MOL0     C88355   5.289   2.195  11.730 -1.0054 -0.9619  1.7057
  641MOL0     O88356   5.197   2.146  11.646 -0.4929 -0.4007 -0.1952
  641MOL0     C88357   5.156   2.013  11.646 -0.1339 -0.9745 -0.7683
  641MOL0     C88358   5.038   1.985  11.558 -0.9611 -0.1458 -0.5050
  641MOL0     C88359   5.091   1.973  11.410  1.0157 -0.5471 -1.0320
  641MOL0     C88360   4.988   1.889  11.341 -1.1055 -0.1741  0.4986
  641MOL0     C88361   4.968   1.938  11.196  0.0384  0.8068 -0.2956
  641MOL0     C88362   4.885   1.840  11.118 -0.6449  0.7267  0.8234
  641MOL0     C88363   4.737   1.859  11.168  0.3499  0.7941  0.7536
  641MOL0     C88364   4.635   1.807  11.077  0.1838  0.0592  0.0224
  641MOL0    Cl88365   4.654   1.870  10.900 -0.1445 -0.1072  0.2840
  641MOL0     C88366   5.358   2.112  11.825 -0.7780  0.1144 -0.2640
  641MOL0     C88367   5.459   2.164  11.897 -0.2744  0.8519 -0.8603
  641MOL0     O88368   5.569   2.303  12.168 -0.4880 -0.4742  1.0800
  641MOL0     C88369   5.852   2.452  12.017  0.1385  0.0527 -0.0935
  641MOL0     C88370   5.985   2.485  12.034 -0.6623  0.1099  0.1690
  641MOL0     N88371   6.453   2.771  11.825  0.3437  0.0023 -0.8105
  641MOL0     N88372   6.482   2.865  11.741  0.5281 -0.0098  0.7089
  641MOL0     C88373   6.768   2.815  10.353  0.9699 -0.1330  0.5754
  641MOL0     C88374   6.784   2.886  10.231  0.1575  0.0077 -0.0621
  641MOL0     C88375   6.791   3.264   9.964  0.0706  0.5415 -0.3689
  641MOL0     C88376   6.896   3.258   9.888 -1.2812 -0.5841 -0.8477
  641MOL0     C88377   6.917   3.348   9.788 -0.4623 -0.2559  0.6934
  641MOL0     C88378   6.830   3.451   9.758 -0.0828  0.3035  0.3348
  641MOL0     O88379   6.881   3.540   9.669 -0.2166  0.3706 -0.0963
  641MOL0     C88380   6.803   3.652   9.619 -0.7822 -0.4249 -0.2971
  641MOL0     C88381   6.667   3.627   9.549  0.1203  0.7189 -0.3099
  641MOL0     C88382   6.676   3.520   9.443  0.4483  0.4678  0.5956
  641MOL0     C88383   6.534   3.484   9.398  0.2050 -0.5325  0.1047
  641MOL0     C88384   6.527   3.379   9.303  0.2832  0.2886  0.2339
  641MOL0     C88385   6.522   3.289   9.230 -0.1611  0.0726  0.2923
  641MOL0     C88386   6.720   3.466   9.839 -0.2826  0.0906 -0.4456
  641MOL0     C88387   6.698   3.372   9.940  0.1322  1.0578 -0.0206
  641MOL0     C88388   6.589   3.402  10.038  0.0639 -1.1651 -0.8585
  641MOL0     H88389   6.928   3.170  10.365  0.1279  0.4563 -0.3858
  641MOL0     H88390   6.891   3.050  10.573  0.9143 -0.1408 -0.4527
  641MOL0     H88391   6.616   2.807  10.681  1.3683 -2.6671  1.0955
  641MOL0     H88392   6.678   2.957  10.662 -1.7577 -2.0951 -3.9694
  641MOL0     H88393   6.824   2.761  10.838  1.2641  1.0031 -0.8967
  641MOL0     H88394   6.839   2.932  10.850 -0.8047  0.8119  1.0863
  641MOL0     H88395   6.602   2.945  10.949 -2.8984 -2.0012  0.2792
  641MOL0     H88396   6.577   2.778  10.923  0.5523 -0.0921  0.5461
  641MOL0     H88397   6.784   2.733  11.078  0.1201  0.6718 -1.5078
  641MOL0     H88398   6.783   2.911  11.102  0.3258  0.8702 -0.2012
  641MOL0     H88399   6.621   2.686  11.208 -1.5394  0.6456  0.6305
  641MOL0     H88400   6.524   2.828  11.172  0.2509  1.4797  0.8679
  641MOL0     H88401   6.774   2.866  11.333  0.6899  0.2728 -2.1077
  641MOL0     H88402   6.625   2.966  11.311  2.5399 -0.1311  0.5411
  641MOL0     H88403   6.645   2.684  11.447 -4.0626 -1.3778  1.5733
  641MOL0     H88404   6.509   2.792  11.452 -0.1138  3.1216  0.3583
  641MOL0     H88405   6.777   2.870  11.579  0.2432 -2.6843 -0.2122
  641MOL0     H88406   6.649   2.983  11.558  1.3933  1.1027  3.6841
  641MOL0     H88407   6.736   2.653  11.737  0.9118  1.1668  0.4294
  641MOL0     H88408   6.625   2.556  12.017  0.7350  3.0442 -0.2068
  641MOL0     H88409   6.586   2.459  11.879  0.0199 -0.6619  1.4212
  641MOL0     H88410   6.365   2.599  12.037 -1.2372 -1.2814  0.1146
  641MOL0     H88411   6.358   2.492  11.891  3.6136  1.4370 -2.5323
  641MOL0     H88412   6.450   2.299  12.024  0.7758 -0.3801  1.6324
  641MOL0     H88413   6.463   2.399  12.157  4.5799 -0.1060 -3.1197
  641MOL0     H88414   6.203   2.290  12.015  0.8388  2.3809 -1.3547
  641MOL0     H88415   6.267   2.239  12.170  0.0670 -0.1709  0.6269
  641MOL0     H88416   6.032   2.307  12.315  0.1129 -0.1319 -0.0786
  641MOL0     H88417   5.868   2.222  12.414  2.6202  0.8128 -1.5536
  641MOL0     H88418   5.749   2.168  12.297  2.9869 -1.4465 -0.0385
  641MOL0     H88419   5.720   2.317  12.388  0.9263  1.3589  0.8291
  641MOL0     H88420   5.472   2.477  11.779  0.8707 -0.0233  2.6965
  641MOL0     H88421   5.268   2.392  11.661 -1.5844  0.6832  2.5933
  641MOL0     H88422   5.249   1.966  11.613  1.0630  1.1514 -0.6292
  641MOL0     H88423   5.126   1.980  11.746 -4.5662  0.0584 -1.5321
  641MOL0     H88424   4.990   1.893  11.592  1.6621 -0.5465  2.5733
  641MOL0     H88425   4.972   2.072  11.566  0.4934  1.0453 -0.9929
  641MOL0     H88426   5.183   1.915  11.402 -0.2966 -3.6526  3.1201
  641MOL0     H88427   5.091   2.074  11.369 -1.0132 -0.5911 -1.2764
  641MOL0     H88428   4.894   1.916  11.391 -0.8172  2.5097 -0.2781
  641MOL0     H88429   5.006   1.783  11.361 -0.5956  0.3567  3.2641
  641MOL0     H88430   4.918   2.035  11.200 -3.0592 -0.6631 -0.2328
  641MOL0     H88431   5.067   1.939  11.149 -0.0710 -1.3939 -0.6880
  641MOL0     H88432   4.925   1.739  11.127  1.0170  1.3734  1.0567
  641MOL0     H88433   4.889   1.869  11.012 -2.5416  4.2186  1.5647
  641MOL0     H88434   4.730   1.967  11.184  0.1825  1.4623 -2.9240
  641MOL0     H88435   4.726   1.808  11.264 -2.8140  1.1371  0.6841
  641MOL0     H88436   4.541   1.843  11.120  0.4062 -0.1771  0.7085
  641MOL0     H88437   4.636   1.698  11.081  0.2962  0.0857  1.0251
  641MOL0     H88438   5.324   2.011  11.844  1.0659 -0.0825  2.4954
  641MOL0     H88439   5.502   2.098  11.971 -0.7466  3.1407  1.6288
  641MOL0     H88440   5.819   2.473  11.915 -1.0270  0.4082  0.3329
  641MOL0     H88441   6.031   2.546  11.956  1.6883 -2.5455 -0.6989
  641MOL0     H88442   6.717   2.719  10.360 -0.3430  0.3287 -1.5631
  641MOL0     H88443   6.748   2.862  10.131 -0.9691  2.5421 -0.3400
  641MOL0     H88444   6.960   3.170   9.893  1.3032  1.1704 -1.5419
  641MOL0     H88445   7.000   3.330   9.721  0.9078 -0.8455  2.4732
  641MOL0     H88446   6.785   3.723   9.701  0.3926 -4.1363  3.4916
  641MOL0     H88447   6.863   3.698   9.540  0.7867 -0.8567  0.6047
  641MOL0     H88448   6.639   3.720   9.499  0.6424 -0.5796 -3.2105
  641MOL0     H88449   6.590   3.595   9.621 -0.7118  2.9934 -0.1232
  641MOL0     H88450   6.742   3.544   9.359  0.8469 -2.0740  0.0731
  641MOL0     H88451   6.722   3.434   9.492 -2.3993 -0.3062  2.1156
  641MOL0     H88452   6.487   3.569   9.346  1.3440 -0.7639 -1.3550
  641MOL0     H88453   6.481   3.454   9.488 -1.9707  1.9937 -0.2061
  641MOL0     H88454   6.542   3.203   9.170 -0.5232  0.9416 -1.1080
  641MOL0     H88455   6.660   3.557   9.841 -1.2067 -0.5058 -0.3266
  641MOL0     H88456   6.557   3.507  10.040  2.4258 -0.3796  1.4199
  641MOL0     H88457   6.501   3.339  10.020 -2.2808  1.1004  1.6482
  641MOL0     H88458   6.618   3.403  10.143  0.4963 -1.0577 -0.9780
  642MOL0     O88459   3.075  10.705   0.435  0.1377  0.4762  0.5668
  642MOL0     C88460   3.055  10.696   0.314  0.0430 -0.0199  0.4233
  642MOL0     O88461   3.034  10.579   0.236 -0.1602  0.1393  1.3305
  642MOL0     C88462   2.990  10.459   0.306 -0.9385 -0.1977 -0.1988
  642MOL0     C88463   2.925  10.461   0.426  0.4508 -0.2808  0.4038
  642MOL0     C88464   2.863  10.341   0.463 -0.7024  0.7161 -0.7099
  642MOL0     C88465   2.879  10.209   0.404 -0.5072 -0.1028 -0.2424
  642MOL0     O88466   2.818  10.097   0.455 -0.4243 -1.1694 -1.2900
  642MOL0     C88467   2.823   9.979   0.377 -1.0335  0.1400 -0.1737
  642MOL0     C88468   2.773   9.856   0.460 -0.4561 -0.1111  1.6695
  642MOL0     C88469   2.793   9.736   0.371 -0.7066 -0.2998 -0.7205
  642MOL0     C88470   2.738   9.605   0.432  0.3685 -0.3852 -0.1541
  642MOL0     C88471   2.758   9.495   0.320 -0.3586 -0.2368 -0.7275
  642MOL0     C88472   2.897   9.442   0.303 -0.6800  0.5564  0.0165
  642MOL0     C88473   2.886   9.331   0.202  0.0896  0.3035 -0.7106
  642MOL0     C88474   3.020   9.245   0.191  0.0170  0.2824 -0.1336
  642MOL0     N88475   3.130   9.324   0.157 -1.0684  0.5495  0.0028
  642MOL0     C88476   3.186   9.337   0.027 -0.1579 -0.7354 -0.2316
  642MOL0     C88477   3.298   9.416   0.057  0.6669 -0.1378 -0.8667
  642MOL0     C88478   3.399   9.467  -0.032  0.4211 -0.4692  0.0723
  642MOL0     C88479   3.435   9.616   0.006 -0.0616 -0.6553 -0.4271
  642MOL0     C88480   3.525   9.676  -0.092 -0.9751  0.2569 -1.2209
  642MOL0     C88481   3.670   9.624  -0.072 -0.0788  0.9204  0.7014
  642MOL0     O88482   3.675   9.497  -0.138 -0.4894 -0.1654  0.0047
  642MOL0     C88483   3.802   9.444  -0.130  0.0365  0.6993 -0.3042
  642MOL0     C88484   3.806   9.320  -0.187  0.9964  0.0003 -0.8969
  642MOL0     C88485   3.918   9.238  -0.175  0.7677 -0.1335  0.0581
  642MOL0     C88486   3.913   9.087  -0.236  0.0862 -0.8458  0.0021
  642MOL0     C88487   4.043   9.284  -0.119 -0.0514 -0.5158 -0.7915
  642MOL0     C88488   4.172   9.206  -0.102 -0.7303 -0.4244  0.8544
  642MOL0     O88489   4.265   9.255  -0.009  0.9111  0.0295 -0.2183
  642MOL0     C88490   4.369   9.179   0.027 -0.1426  0.4349  1.0222
  642MOL0     C88491   4.358   9.087   0.130 -0.2258  0.3921 -0.0708
  642MOL0     C88492   4.465   9.004   0.166 -0.6331  0.0242  0.5713
  642MOL0     C88493   4.596   9.025   0.110 -0.3264  0.3199  0.1448
  642MOL0     O88494   4.705   8.954   0.159 -0.5185  0.0238 -0.3812
  642MOL0     C88495   4.742   8.858   0.066 -0.1269  0.3303  0.2663
  642MOL0     C88496   4.781   8.717   0.121 -0.0615 -0.4015  0.8362
  642MOL0     C88497   4.883   8.716   0.247 -0.3791 -0.3622  0.5796
  642MOL0     C88498   5.030   8.724   0.195 -0.3440  0.1002  1.4201
  642MOL0     C88499   5.120   8.776   0.307 -0.5957 -0.3470 -0.0635
  642MOL0     C88500   5.157   8.669   0.413  0.4536  0.7565 -0.4756
  642MOL0     C88501   5.260   8.704   0.516  0.2037 -0.8812  0.8391
  642MOL0     C88502   5.283   8.606   0.627 -0.7086 -0.1657  0.0660
  642MOL0    Cl88503   5.312   8.440   0.581  0.4210 -0.6132  0.2270
  642MOL0     C88504   4.611   9.129   0.019 -0.1832 -0.5341  1.4555
  642MOL0     C88505   4.501   9.205  -0.021  0.3075 -0.3436  0.0913
  642MOL0     O88506   4.182   9.099  -0.160 -0.3152 -0.0343  0.0721
  642MOL0     C88507   4.033   9.411  -0.061  0.7312  0.2740 -0.2603
  642MOL0     C88508   3.921   9.496  -0.071 -0.0559  1.3024  0.2118
  642MOL0     N88509   3.308   9.433   0.194 -0.3434  0.4482  0.6384
  642MOL0     N88510   3.208   9.377   0.248 -1.0240 -0.1298  0.2536
  642MOL0     C88511   2.966  10.212   0.293  1.0770  0.6513  0.7581
  642MOL0     C88512   3.010  10.339   0.244 -0.0159  0.6683  0.1492
  642MOL0     C88513   3.073  10.832   0.243  0.3854  0.2355  0.1306
  642MOL0     C88514   3.077  10.946   0.322  0.0600 -0.1044 -0.2822
  642MOL0     C88515   3.097  11.069   0.256  0.0947  0.5235 -0.0047
  642MOL0     C88516   3.121  11.082   0.114  0.0947  0.0555 -0.1091
  642MOL0     O88517   3.126  11.197   0.042 -0.7672  0.1620  0.2888
  642MOL0     C88518   3.082  11.324   0.095 -0.3535  1.0604 -0.2172
  642MOL0     C88519   3.003  11.402  -0.007  0.9707 -0.8817  0.3894
  642MOL0     C88520   2.879  11.315  -0.047  1.4299 -0.2307 -0.1179
  642MOL0     C88521   2.803  11.390  -0.155  0.2356  0.1198  0.7010
  642MOL0     C88522   2.666  11.354  -0.137  0.8877 -0.2167  0.2136
  642MOL0     C88523   2.559  11.306  -0.129 -0.6343 -0.6634 -0.2641
  642MOL0     C88524   3.110  10.969   0.047 -0.3199  0.3343  0.6190
  642MOL0     C88525   3.096  10.843   0.103  0.1682 -0.3517  0.4437
  642MOL0     C88526   3.104  10.721   0.007  0.6726  0.6786 -0.1024
  642MOL0     H88527   2.891  10.553   0.473 -2.9602 -0.6303 -1.0795
  642MOL0     H88528   2.804  10.326   0.552 -1.8725 -0.1798 -1.6072
  642MOL0     H88529   2.924   9.948   0.348  0.6993  3.0135  2.1224
  642MOL0     H88530   2.760  10.004   0.291  0.3106  0.2174 -1.1719
  642MOL0     H88531   2.826   9.849   0.556  2.9209 -0.6978 -0.0802
  642MOL0     H88532   2.665   9.861   0.477 -0.9927 -1.7652 -0.7169
  642MOL0     H88533   2.732   9.761   0.284  0.1095 -1.9470 -1.8055
  642MOL0     H88534   2.897   9.721   0.340 -0.5806 -1.9440  0.3501
  642MOL0     H88535   2.800   9.583   0.520  2.5790 -0.9875 -1.7435
  642MOL0     H88536   2.634   9.612   0.463  0.8663 -0.6382  1.7054
  642MOL0     H88537   2.729   9.530   0.220 -1.2627 -0.5500 -0.5760
  642MOL0     H88538   2.691   9.414   0.350 -2.2309  1.6250  0.3641
  642MOL0     H88539   2.976   9.512   0.275 -0.9644  0.4823 -1.0382
  642MOL0     H88540   2.919   9.398   0.400 -0.3746  3.1553  1.2024
  642MOL0     H88541   2.865   9.373   0.103 -0.5872  2.4938  0.3015
  642MOL0     H88542   2.806   9.262   0.231  1.6855 -1.4199 -0.2048
  642MOL0     H88543   3.033   9.196   0.287 -3.1379 -1.3115 -0.3866
  642MOL0     H88544   3.016   9.165   0.116 -2.7695 -0.5842  0.8184
  642MOL0     H88545   3.156   9.302  -0.071  0.8577 -2.1999 -0.0393
  642MOL0     H88546   3.357   9.463  -0.133 -0.0253 -1.7747  0.2955
  642MOL0     H88547   3.477   9.391  -0.033  0.2983 -0.5944 -0.7180
  642MOL0     H88548   3.346   9.681   0.011  2.1969  2.6050  1.5995
  642MOL0     H88549   3.483   9.620   0.104  0.5404 -4.0851 -0.4795
  642MOL0     H88550   3.485   9.665  -0.194 -1.2412 -0.1917 -1.0705
  642MOL0     H88551   3.526   9.785  -0.077 -1.8072 -0.1497  2.6594
  642MOL0     H88552   3.737   9.696  -0.120 -0.2359 -0.6776 -2.1162
  642MOL0     H88553   3.683   9.598   0.034 -1.3197  1.2164  0.9396
  642MOL0     H88554   3.715   9.287  -0.236 -1.0525  1.3038  1.8033
  642MOL0     H88555   3.812   9.047  -0.247  0.3482 -0.8079 -4.1020
  642MOL0     H88556   3.969   9.023  -0.168  0.3505  0.5333  1.1317
  642MOL0     H88557   3.954   9.074  -0.336 -0.2518 -0.0219 -0.2531
  642MOL0     H88558   4.265   9.089   0.188 -1.1676 -0.0280 -1.5078
  642MOL0     H88559   4.465   8.938   0.252 -1.4352  0.5855  1.0132
  642MOL0     H88560   4.660   8.828  -0.000 -3.0576 -0.0481  3.7537
  642MOL0     H88561   4.837   8.881   0.015 -0.3149 -1.2744 -0.9110
  642MOL0     H88562   4.687   8.679   0.162  0.9558 -2.7282  1.1243
  642MOL0     H88563   4.816   8.649   0.043  1.3484  0.9999  0.1888
  642MOL0     H88564   4.849   8.628   0.303 -0.8261 -2.1960 -2.3478
  642MOL0     H88565   4.872   8.808   0.304  1.0678  1.0565 -1.2861
  642MOL0     H88566   5.024   8.792   0.110  0.3705 -2.6534 -1.0156
  642MOL0     H88567   5.058   8.636   0.135  0.7622  1.2311  0.1921
  642MOL0     H88568   5.215   8.809   0.263 -0.1695 -1.9127 -0.4008
  642MOL0     H88569   5.071   8.865   0.347  1.5583  0.3538  1.1611
  642MOL0     H88570   5.196   8.580   0.362 -0.8089 -1.1357  1.6673
  642MOL0     H88571   5.070   8.630   0.466  0.0699 -0.2776 -1.8046
  642MOL0     H88572   5.220   8.795   0.561  2.8036  0.1597  1.1912
  642MOL0     H88573   5.346   8.741   0.460 -2.1620  2.2742 -0.9884
  642MOL0     H88574   5.195   8.602   0.692  0.4783  1.8677  1.9248
  642MOL0     H88575   5.363   8.644   0.690  0.9003  1.5698 -2.8001
  642MOL0     H88576   4.710   9.151  -0.021  0.1004  0.6908  2.7496
  642MOL0     H88577   4.518   9.287  -0.090  1.1354 -0.7374 -0.1867
  642MOL0     H88578   4.119   9.456  -0.013  0.5875 -1.1712  1.4932
  642MOL0     H88579   3.926   9.597  -0.031  3.0859  0.8204  1.3163
  642MOL0     H88580   2.992  10.129   0.227  0.4851  3.1479 -2.8763
  642MOL0     H88581   3.055  10.346   0.145  0.5023 -0.1912  0.3051
  642MOL0     H88582   3.076  10.956   0.430 -4.7595 -1.5288  0.0283
  642MOL0     H88583   3.108  11.156   0.320  0.1779  0.5445 -0.0463
  642MOL0     H88584   3.016  11.304   0.180 -1.6389  0.2514 -1.3695
  642MOL0     H88585   3.163  11.382   0.141 -0.2640 -1.2810  2.8857
  642MOL0     H88586   3.060  11.434  -0.095 -2.6787  1.2791 -1.4221
  642MOL0     H88587   2.970  11.497   0.036 -1.3283  0.1747 -3.2700
  642MOL0     H88588   2.905  11.220  -0.095 -1.6968  0.0981 -2.7715
  642MOL0     H88589   2.821  11.310   0.046  1.8912  0.4909  0.2166
  642MOL0     H88590   2.834  11.366  -0.257 -3.9939  2.7246 -1.4787
  642MOL0     H88591   2.826  11.496  -0.140  2.8935 -0.4566  1.1551
  642MOL0     H88592   2.464  11.258  -0.117 -1.2330  0.6623  0.4961
  642MOL0     H88593   3.111  10.986  -0.060 -2.8663 -0.9372  0.3266
  642MOL0     H88594   3.130  10.770  -0.087 -1.1719  0.7206 -0.6405
  642MOL0     H88595   3.182  10.647   0.027  1.1305  1.3923  0.8290
  642MOL0     H88596   3.007  10.676  -0.018  1.9372 -3.5135  1.7574
  643MOL0     O88597   7.589   0.862  11.137 -0.5440 -1.0778 -0.3968
  643MOL0     C88598   7.692   0.882  11.070  0.0787  0.3754 -0.3193
  643MOL0     O88599   7.767   0.783  11.000 -0.0912  0.0010 -0.3464
  643MOL0     C88600   7.714   0.662  10.987 -0.6186 -0.0196 -0.3792
  643MOL0     C88601   7.706   0.573  11.091 -0.4084  0.1104 -0.7295
  643MOL0     C88602   7.638   0.457  11.065  0.0479  0.0715 -0.0382
  643MOL0     C88603   7.566   0.429  10.946 -0.0504  0.0369 -0.7546
  643MOL0     O88604   7.486   0.318  10.928  1.0320 -0.2483 -0.1169
  643MOL0     C88605   7.530   0.203  11.010  0.9423 -1.0587  0.7539
  643MOL0     C88606   7.450   0.077  10.974 -0.8963 -0.4318  0.4744
  643MOL0     C88607   7.301   0.093  10.978 -0.5938  0.1116  0.0839
  643MOL0     C88608   7.237  -0.040  11.015  1.4434 -0.0488  0.0784
  643MOL0     C88609   7.082  -0.047  10.985 -1.2160 -1.2042 -0.1053
  643MOL0     C88610   7.006   0.014  11.105 -0.3703  0.7134  0.4333
  643MOL0     C88611   6.854  -0.023  11.100 -0.7857  0.1678  0.1649
  643MOL0     C88612   6.775   0.034  11.217  0.1512  0.5298  0.2770
  643MOL0     N88613   6.805  -0.041  11.342 -0.1728 -0.2222  0.5970
  643MOL0     C88614   6.760  -0.165  11.370  0.6258  0.7438 -0.5737
  643MOL0     C88615   6.804  -0.192  11.492  0.8346  0.8017  0.1087
  643MOL0     C88616   6.800  -0.327  11.575 -0.0439  0.3400 -0.2492
  643MOL0     C88617   6.882  -0.439  11.514 -0.2945  0.6594  0.0147
  643MOL0     C88618   7.032  -0.400  11.510 -0.2222 -0.0271  0.6174
  643MOL0     C88619   7.095  -0.393  11.371  0.8114  0.5547  0.2415
  643MOL0     O88620   7.239  -0.371  11.378  0.3388 -0.2463 -0.0390
  643MOL0     C88621   7.297  -0.247  11.394  0.8718 -0.2505 -0.0023
  643MOL0     C88622   7.237  -0.119  11.405  0.1971 -0.1420  0.5457
  643MOL0     C88623   7.308  -0.002  11.398 -0.2822  0.1616 -0.0811
  643MOL0     C88624   7.234   0.126  11.416  0.3071  0.5978  0.1896
  643MOL0     C88625   7.454  -0.003  11.383 -0.5240  0.7557 -0.3978
  643MOL0     C88626   7.545   0.109  11.383 -0.2566 -0.4266 -1.1571
  643MOL0     O88627   7.655   0.078  11.320 -0.1650 -1.0333  0.1744
  643MOL0     C88628   7.762   0.162  11.315 -0.8874 -0.1898  0.1749
  643MOL0     C88629   7.839   0.161  11.194  0.0914 -0.4295 -1.3503
  643MOL0     C88630   7.946   0.244  11.186  0.0574  0.8765  0.2060
  643MOL0     C88631   7.997   0.312  11.297 -0.1811  0.3868  0.0318
  643MOL0     O88632   8.114   0.380  11.299 -1.3899  0.2933  0.2540
  643MOL0     C88633   8.102   0.511  11.233 -0.5765 -0.7305 -0.2005
  643MOL0     C88634   8.056   0.622  11.325 -0.3123  0.0641  0.5257
  643MOL0     C88635   8.066   0.754  11.256  0.2112 -0.4473 -0.3517
  643MOL0     C88636   8.004   0.868  11.347  0.3807 -0.0338 -0.6321
  643MOL0     C88637   8.080   0.997  11.330  0.4939  0.2384 -1.0057
  643MOL0     C88638   8.056   1.093  11.448  0.2389 -0.0885 -0.3206
  643MOL0     C88639   8.121   1.232  11.399 -0.2085  0.2529  0.3411
  643MOL0     C88640   8.263   1.244  11.455 -0.2821 -0.6357 -1.2573
  643MOL0    Cl88641   8.225   1.322  11.605  0.7989 -0.1507 -0.2775
  643MOL0     C88642   7.922   0.322  11.421 -0.2058 -0.0787  0.1920
  643MOL0     C88643   7.815   0.227  11.428  0.1404  0.1917  0.1721
  643MOL0     O88644   7.524   0.219  11.428  0.8243  0.3075 -0.1563
  643MOL0     C88645   7.518  -0.135  11.388  0.1269 -0.2209  0.8014
  643MOL0     C88646   7.434  -0.249  11.395 -0.5840  0.0510  0.1286
  643MOL0     N88647   6.880  -0.092  11.534 -1.3720 -0.4684  0.0776
  643MOL0     N88648   6.882   0.004  11.449  0.2955 -0.1021  0.2044
  643MOL0     C88649   7.578   0.516  10.847  0.8638  0.1427  0.3889
  643MOL0     C88650   7.660   0.632  10.864  0.4911 -0.8121  0.5156
  643MOL0     C88651   7.750   1.027  11.078  0.1727  0.2249 -0.7540
  643MOL0     C88652   7.841   1.066  10.980  0.1188 -0.8418  0.2300
  643MOL0     C88653   7.907   1.188  10.979  0.5900  0.1346  0.3941
  643MOL0     C88654   7.887   1.274  11.080 -0.9624  0.4322 -0.2638
  643MOL0     O88655   7.953   1.394  11.102  0.1728  0.8304 -0.4981
  643MOL0     C88656   8.062   1.441  11.010  0.5984  0.0779  0.1230
  643MOL0     C88657   8.199   1.421  11.078 -0.2805  0.3128 -0.7980
  643MOL0     C88658   8.296   1.522  11.022  0.5676  1.1803  0.0579
  643MOL0     C88659   8.381   1.594  11.133 -0.3197 -0.6978  0.2274
  643MOL0     C88660   8.478   1.505  11.192 -0.2572  1.1853 -0.0275
  643MOL0     C88661   8.544   1.420  11.244  0.3107  0.6050 -1.0294
  643MOL0     C88662   7.796   1.246  11.177  0.2971  0.5968  0.0632
  643MOL0     C88663   7.720   1.126  11.180  0.1162 -0.0130  0.3661
  643MOL0     C88664   7.637   1.099  11.306 -0.5140  0.9573 -0.5473
  643MOL0     H88665   7.755   0.581  11.188 -1.0263 -1.9143 -0.2003
  643MOL0     H88666   7.627   0.400  11.157 -4.6818  1.7330  0.7139
  643MOL0     H88667   7.512   0.223  11.116  0.7281 -2.1425  0.9376
  643MOL0     H88668   7.637   0.181  11.009  0.8229 -1.6598 -0.5251
  643MOL0     H88669   7.473   0.081  10.867  1.2806  2.4486  0.9325
  643MOL0     H88670   7.496  -0.007  11.025  0.2723 -1.0352 -1.4413
  643MOL0     H88671   7.291   0.171  11.054  2.7448  1.4193 -0.6308
  643MOL0     H88672   7.267   0.128  10.880 -1.8063 -2.1877 -0.3943
  643MOL0     H88673   7.292  -0.120  10.964  1.6855 -0.5303  1.0644
  643MOL0     H88674   7.254  -0.049  11.123  1.2924  3.4210  0.5071
  643MOL0     H88675   7.054  -0.147  10.952  2.4389 -1.0468 -4.6911
  643MOL0     H88676   7.078   0.020  10.899  0.2832 -3.9016 -2.4436
  643MOL0     H88677   7.040  -0.030  11.199 -2.5168  0.0662  0.9626
  643MOL0     H88678   7.003   0.124  11.105 -2.4326  0.7047  0.6567
  643MOL0     H88679   6.846  -0.132  11.102 -1.7413  0.1801 -1.4476
  643MOL0     H88680   6.813   0.019  11.008 -1.0569  0.3435  0.3656
  643MOL0     H88681   6.785   0.142  11.233  2.4432  0.2671  1.0115
  643MOL0     H88682   6.667   0.026  11.209  0.0226  3.2822 -3.5874
  643MOL0     H88683   6.702  -0.226  11.302 -1.5237  0.9858  0.9484
  643MOL0     H88684   6.695  -0.356  11.590 -0.9828  3.6503  0.3689
  643MOL0     H88685   6.845  -0.311  11.673 -0.1497 -1.0913  0.0652
  643MOL0     H88686   6.886  -0.517  11.591  4.6236  1.8169  1.2830
  643MOL0     H88687   6.824  -0.474  11.428  1.4068 -2.0516 -0.1752
  643MOL0     H88688   7.049  -0.307  11.564  1.9120  0.4720 -0.7975
  643MOL0     H88689   7.089  -0.479  11.560  3.1863  0.4994 -2.0734
  643MOL0     H88690   7.092  -0.491  11.322 -0.4612  0.4825  0.4363
  643MOL0     H88691   7.045  -0.319  11.307 -1.0943  0.5297  1.6375
  643MOL0     H88692   7.129  -0.116  11.408  0.2035  2.1782  0.8707
  643MOL0     H88693   7.284   0.179  11.497  1.3741 -2.7279  1.8981
  643MOL0     H88694   7.133   0.103  11.451 -0.7233  2.6237 -1.2519
  643MOL0     H88695   7.230   0.186  11.325 -1.1099  0.8287  0.3745
  643MOL0     H88696   7.812   0.106  11.104  1.4566 -0.0603 -2.0084
  643MOL0     H88697   8.006   0.246  11.095  0.5722 -0.0153  0.5160
  643MOL0     H88698   8.198   0.538  11.189 -1.0451  3.2705  0.9004
  643MOL0     H88699   8.047   0.500  11.139 -0.9844 -0.8773  0.0559
  643MOL0     H88700   7.949   0.612  11.344 -1.2902  1.0547 -3.4979
  643MOL0     H88701   8.114   0.625  11.417  2.4052  0.0905 -1.0603
  643MOL0     H88702   8.002   0.757  11.167 -0.8215 -0.5662  0.3670
  643MOL0     H88703   8.171   0.769  11.231  0.5238 -1.8524  0.0125
  643MOL0     H88704   7.991   0.829  11.448 -3.2392  2.4458  0.0482
  643MOL0     H88705   7.901   0.898  11.325  0.9177  1.2124 -1.6175
  643MOL0     H88706   8.183   0.962  11.318  0.2001 -1.4077  0.7091
  643MOL0     H88707   8.039   1.045  11.241 -2.2598  0.3008  0.2055
  643MOL0     H88708   8.094   1.043  11.538  0.0783 -4.0016 -2.2010
  643MOL0     H88709   7.949   1.108  11.461  0.3941  1.1159 -0.3437
  643MOL0     H88710   8.056   1.313  11.431  1.0002  0.1360  3.4068
  643MOL0     H88711   8.123   1.236  11.289 -1.1328 -0.6432  0.2848
  643MOL0     H88712   8.318   1.321  11.400  0.4368 -1.6794 -2.0124
  643MOL0     H88713   8.324   1.153  11.456  2.4717  1.0713 -2.1742
  643MOL0     H88714   7.960   0.380  11.504  1.1283 -0.9228  0.2073
  643MOL0     H88715   7.771   0.212  11.526  3.1097 -0.6146  1.5195
  643MOL0     H88716   7.623  -0.155  11.367 -0.1984 -2.6180  1.2309
  643MOL0     H88717   7.468  -0.352  11.392 -3.0725 -0.9680  2.3732
  643MOL0     H88718   7.529   0.506  10.751 -2.5578  0.8232  1.8962
  643MOL0     H88719   7.692   0.693  10.780  0.9849 -2.0560 -0.2219
  643MOL0     H88720   7.863   1.003  10.894  3.4381  1.3647 -0.6983
  643MOL0     H88721   7.963   1.205  10.887  0.3791  1.7966  0.5527
  643MOL0     H88722   8.074   1.385  10.917 -1.7143 -1.3146  0.5860
  643MOL0     H88723   8.031   1.544  10.991 -1.4716 -1.0579 -3.4891
  643MOL0     H88724   8.244   1.323  11.067 -1.3840 -0.1176 -1.5877
  643MOL0     H88725   8.182   1.444  11.184 -1.1030 -1.4360 -0.5269
  643MOL0     H88726   8.369   1.477  10.954 -0.2593 -0.9963  0.5070
  643MOL0     H88727   8.245   1.595  10.959 -0.5435 -0.6324 -1.2644
  643MOL0     H88728   8.319   1.641  11.210  1.2789  0.3162  0.9646
  643MOL0     H88729   8.455   1.665  11.094  0.2197 -0.6595  1.2732
  643MOL0     H88730   8.611   1.350  11.291 -2.2949 -0.7699  0.9525
  643MOL0     H88731   7.783   1.319  11.256  0.6007  0.4857  0.2180
  643MOL0     H88732   7.671   1.161  11.389  0.9988  0.1825 -0.5559
  643MOL0     H88733   7.529   1.087  11.300 -0.2691 -4.2720  0.6137
  643MOL0     H88734   7.662   0.997  11.336 -2.0749  1.3733  2.5341
  644MOL0     O88735   5.099   3.925   9.468 -0.1226 -0.0597 -0.5590
  644MOL0     C88736   5.068   3.805   9.475  1.0024 -0.2401  1.0884
  644MOL0     O88737   5.139   3.704   9.527 -0.4505  0.4535 -0.0049
  644MOL0     C88738   5.279   3.691   9.505  0.1030 -1.0177 -0.1990
  644MOL0     C88739   5.350   3.600   9.584 -0.0180  0.1074 -0.0894
  644MOL0     C88740   5.492   3.577   9.550  0.8605  0.0553 -0.4577
  644MOL0     C88741   5.568   3.650   9.457  1.5168  0.5908  0.2879
  644MOL0     O88742   5.692   3.620   9.416 -0.2217  0.4581  0.2156
  644MOL0     C88743   5.765   3.512   9.469  0.3881 -0.1650  0.6668
  644MOL0     C88744   5.893   3.492   9.389  0.3687 -1.0452  0.2235
  644MOL0     C88745   5.988   3.385   9.439  0.6520 -0.2252 -0.5384
  644MOL0     C88746   5.959   3.245   9.385 -0.6169 -1.1847 -0.6437
  644MOL0     C88747   6.059   3.213   9.274  0.5487  0.7764 -0.5257
  644MOL0     C88748   6.047   3.056   9.260 -0.9113 -0.6974  0.3958
  644MOL0     C88749   6.156   3.009   9.165  0.5465  0.7052  0.5678
  644MOL0     C88750   6.305   3.014   9.202 -0.2674  0.9164 -0.5171
  644MOL0     N88751   6.411   2.993   9.103  0.3666 -0.7171 -0.3939
  644MOL0     C88752   6.421   3.065   8.982  0.4688  0.8497 -0.3084
  644MOL0     C88753   6.545   3.036   8.943 -0.0556 -0.3476  1.0186
  644MOL0     C88754   6.615   3.079   8.809 -0.0436  0.1869 -0.6615
  644MOL0     C88755   6.766   3.103   8.828 -0.6275  0.3644 -0.4959
  644MOL0     C88756   6.831   3.179   8.716 -0.0297 -0.1224 -0.2623
  644MOL0     C88757   6.814   3.128   8.572 -0.4626  0.6560 -0.6648
  644MOL0     O88758   6.887   3.007   8.541 -0.1555 -0.0938  0.5161
  644MOL0     C88759   6.850   2.959   8.413  0.5262  0.3898 -0.0805
  644MOL0     C88760   6.945   2.881   8.346  0.0372 -0.2851  0.3138
  644MOL0     C88761   6.927   2.799   8.238 -0.2294 -0.3127  0.3952
  644MOL0     C88762   7.046   2.722   8.177  0.6189  0.4473  0.0296
  644MOL0     C88763   6.794   2.799   8.180  0.7923  0.0839 -0.0625
  644MOL0     C88764   6.749   2.737   8.049 -0.8078 -0.6711 -0.5844
  644MOL0     O88765   6.612   2.749   8.009  0.0902 -0.3438  0.0379
  644MOL0     C88766   6.590   2.736   7.878  0.1604  0.5282  0.1281
  644MOL0     C88767   6.485   2.646   7.848  0.2573  0.2037 -0.2971
  644MOL0     C88768   6.451   2.622   7.714  0.9739 -0.3457  0.7174
  644MOL0     C88769   6.528   2.674   7.612  0.8079 -0.1270 -0.2303
  644MOL0     O88770   6.516   2.631   7.486  0.4439  0.3153  0.2776
  644MOL0     C88771   6.449   2.509   7.447 -1.4395 -0.1478 -0.3301
  644MOL0     C88772   6.509   2.456   7.322 -0.2166  0.4061 -0.1159
  644MOL0     C88773   6.510   2.307   7.308  0.6067 -0.7445 -0.3971
  644MOL0     C88774   6.378   2.240   7.362  0.4565 -0.4242  1.3612
  644MOL0     C88775   6.338   2.112   7.293  0.0266  0.1617 -0.2061
  644MOL0     C88776   6.194   2.076   7.330 -0.3438  0.5431 -0.7540
  644MOL0     C88777   6.167   2.005   7.470  0.4488  0.0018 -0.2829
  644MOL0     C88778   6.247   2.054   7.583 -0.0788 -0.0050 -0.7117
  644MOL0    Cl88779   6.194   2.236   7.609  0.2959 -0.1941 -0.6584
  644MOL0     C88780   6.620   2.771   7.642  0.6679 -0.0546 -0.4087
  644MOL0     C88781   6.654   2.801   7.772 -0.3520 -0.0123 -0.2933
  644MOL0     O88782   6.828   2.668   7.985 -0.1077 -0.4145 -0.4982
  644MOL0     C88783   6.691   2.883   8.240 -0.4944 -0.2772 -0.1746
  644MOL0     C88784   6.720   2.957   8.357  0.4237 -1.1533  0.1131
  644MOL0     N88785   6.605   2.959   9.037 -0.1115  0.2031 -1.1294
  644MOL0     N88786   6.524   2.923   9.130 -0.0538 -0.8222  0.0052
  644MOL0     C88787   5.492   3.749   9.391 -0.0279  0.7880  0.7221
  644MOL0     C88788   5.349   3.760   9.400 -0.2932 -0.7744 -0.5576
  644MOL0     C88789   4.934   3.770   9.423 -0.0983  0.3936 -0.8555
  644MOL0     C88790   4.889   3.848   9.311  0.4791 -0.2535 -0.9116
  644MOL0     C88791   4.759   3.826   9.272 -0.7039 -0.1979  0.0138
  644MOL0     C88792   4.672   3.734   9.322 -0.1950  0.1720 -0.3667
  644MOL0     O88793   4.545   3.739   9.277 -1.4449  0.2167  0.3372
  644MOL0     C88794   4.446   3.639   9.292 -0.5994  0.3119 -0.2606
  644MOL0     C88795   4.310   3.683   9.247  0.1570 -0.4757 -0.2207
  644MOL0     C88796   4.207   3.566   9.227  0.5899  0.1965 -0.9801
  644MOL0     C88797   4.071   3.614   9.162  1.1307  0.7799 -0.3643
  644MOL0     C88798   4.010   3.746   9.193 -0.1694  0.4866 -1.0559
  644MOL0     C88799   3.970   3.864   9.218 -0.0351 -0.2618 -0.3794
  644MOL0     C88800   4.713   3.668   9.440  0.9516  1.0068  0.0045
  644MOL0     C88801   4.842   3.681   9.486  0.1451  0.2106  0.5786
  644MOL0     C88802   4.885   3.604   9.608  1.2685 -0.0794 -0.6103
  644MOL0     H88803   5.316   3.539   9.667  1.8451  0.3584  0.9023
  644MOL0     H88804   5.541   3.503   9.612  2.3655  2.9220  2.0948
  644MOL0     H88805   5.708   3.418   9.466 -1.6533  0.9717  1.5366
  644MOL0     H88806   5.782   3.518   9.577  0.3152  0.7905  0.6258
  644MOL0     H88807   5.869   3.469   9.285 -1.8179  2.3229 -0.1781
  644MOL0     H88808   5.947   3.587   9.397  0.6748 -1.0107 -1.8157
  644MOL0     H88809   6.087   3.415   9.404 -0.1185  1.8061 -1.1167
  644MOL0     H88810   5.990   3.386   9.548  3.3251 -1.2455 -0.5081
  644MOL0     H88811   5.978   3.173   9.465  1.3645 -1.6731 -1.5018
  644MOL0     H88812   5.857   3.229   9.347 -1.4075  0.6747  0.5438
  644MOL0     H88813   6.164   3.231   9.302  0.5169 -2.2291  2.0404
  644MOL0     H88814   6.022   3.273   9.190 -2.2505  2.7064  1.8661
  644MOL0     H88815   6.068   3.007   9.355 -0.8110 -0.8135  0.3138
  644MOL0     H88816   5.950   3.023   9.222 -0.6672 -1.8621  0.7325
  644MOL0     H88817   6.144   3.069   9.074 -1.2014 -0.5792 -0.1120
  644MOL0     H88818   6.136   2.904   9.144 -2.8354  1.3678 -0.1422
  644MOL0     H88819   6.309   3.120   9.228 -3.3876  0.6936  1.3561
  644MOL0     H88820   6.320   2.962   9.297 -1.3687  1.4378 -0.0357
  644MOL0     H88821   6.349   3.121   8.924  0.2968  0.8414 -0.1041
  644MOL0     H88822   6.576   3.175   8.773 -0.5346  0.5578  0.7864
  644MOL0     H88823   6.602   2.999   8.735  0.8640  0.4440 -1.1167
  644MOL0     H88824   6.779   3.152   8.925 -3.2973  0.7982 -0.2688
  644MOL0     H88825   6.823   3.011   8.844 -0.6694 -0.0463 -2.3875
  644MOL0     H88826   6.792   3.281   8.714 -0.8638 -0.3861  1.1081
  644MOL0     H88827   6.937   3.179   8.741 -0.6210 -0.8194  2.7050
  644MOL0     H88828   6.707   3.127   8.550 -0.6858  1.2278  0.3130
  644MOL0     H88829   6.852   3.201   8.500  1.1594  1.3097  0.7810
  644MOL0     H88830   7.046   2.869   8.385  1.1790  1.4541 -1.8945
  644MOL0     H88831   7.024   2.624   8.132 -0.8998  0.8089 -0.0698
  644MOL0     H88832   7.111   2.707   8.264  1.3052  2.3393 -0.1109
  644MOL0     H88833   7.114   2.785   8.119  1.2196  0.8295  1.1226
  644MOL0     H88834   6.438   2.590   7.928  3.0901  0.7026  1.8874
  644MOL0     H88835   6.366   2.555   7.707  2.1788 -2.0355  1.6211
  644MOL0     H88836   6.472   2.441   7.529  0.1944 -0.1616 -0.7663
  644MOL0     H88837   6.342   2.527   7.432 -0.8318  3.8175 -1.0367
  644MOL0     H88838   6.456   2.505   7.239 -0.4224 -0.2924 -0.4059
  644MOL0     H88839   6.615   2.482   7.319  0.3036 -0.8146  3.5628
  644MOL0     H88840   6.583   2.267   7.380 -1.0068  1.6748  2.8271
  644MOL0     H88841   6.532   2.277   7.205  0.9900 -1.5102 -0.1055
  644MOL0     H88842   6.292   2.308   7.353  0.1700 -0.2237  4.4595
  644MOL0     H88843   6.393   2.232   7.470  2.6044 -2.3503  0.9905
  644MOL0     H88844   6.347   2.125   7.185 -0.6168 -1.3670 -0.4710
  644MOL0     H88845   6.404   2.027   7.314 -2.9353 -3.4055 -3.6361
  644MOL0     H88846   6.162   2.007   7.251 -3.6105 -2.0764  2.4697
  644MOL0     H88847   6.123   2.158   7.316 -1.4388 -0.2705 -0.0969
  644MOL0     H88848   6.206   1.905   7.451 -1.1931 -0.4055 -1.8000
  644MOL0     H88849   6.063   2.006   7.504  0.4705 -1.2023 -0.1383
  644MOL0     H88850   6.352   2.049   7.553  0.1150  1.8533 -0.4797
  644MOL0     H88851   6.240   1.987   7.669 -0.5934 -1.4548 -1.8430
  644MOL0     H88852   6.670   2.831   7.567  1.6109 -1.1413 -0.6620
  644MOL0     H88853   6.728   2.876   7.799  1.1172 -0.9338 -1.5740
  644MOL0     H88854   6.599   2.898   8.186  0.1250  1.7631 -0.7365
  644MOL0     H88855   6.636   3.010   8.401  2.2515  1.2959  0.8200
  644MOL0     H88856   5.552   3.813   9.328  0.3002  1.9572  2.1802
  644MOL0     H88857   5.306   3.840   9.341  0.3216 -0.4686 -0.5997
  644MOL0     H88858   4.947   3.927   9.265  2.2854  1.4306  3.6961
  644MOL0     H88859   4.738   3.875   9.177 -0.6368 -0.9832 -0.4170
  644MOL0     H88860   4.476   3.552   9.232  1.6151  1.3865 -0.8078
  644MOL0     H88861   4.435   3.611   9.397 -1.1075  0.7273 -0.1993
  644MOL0     H88862   4.320   3.726   9.147  3.3771  1.4061  0.7604
  644MOL0     H88863   4.270   3.757   9.317  1.5915 -0.4937  0.6789
  644MOL0     H88864   4.243   3.484   9.163 -3.4933 -3.5442  1.0226
  644MOL0     H88865   4.184   3.517   9.322 -0.6428  1.6237 -0.5105
  644MOL0     H88866   3.986   3.547   9.178 -0.2128  2.7314  1.0281
  644MOL0     H88867   4.086   3.618   9.053 -1.5181  1.3687 -0.7777
  644MOL0     H88868   3.933   3.954   9.263  2.5086 -0.7273  3.0963
  644MOL0     H88869   4.644   3.606   9.498  2.0991  1.0336  1.4721
  644MOL0     H88870   4.922   3.668   9.689  1.1410  1.6667 -1.8736
  644MOL0     H88871   4.798   3.561   9.659 -0.6506  3.1818 -0.8121
  644MOL0     H88872   4.952   3.518   9.602 -0.8648 -1.7740 -1.0701
  645MOL0     O88873   4.725   0.513  10.672  0.5813  0.5972 -0.2427
  645MOL0     C88874   4.747   0.500  10.549  1.2651 -0.3130 -0.5842
  645MOL0     O88875   4.666   0.435  10.458  0.4839 -0.6623  0.1563
  645MOL0     C88876   4.544   0.407  10.508  0.2660 -0.3375  0.8407
  645MOL0     C88877   4.506   0.276  10.494  0.6987  0.3591  0.8417
  645MOL0     C88878   4.388   0.222  10.543  0.1510  0.0994 -0.4401
  645MOL0     C88879   4.298   0.311  10.606  0.0847 -0.8912  0.8513
  645MOL0     O88880   4.175   0.284  10.658 -0.2728  0.0991 -0.3450
  645MOL0     C88881   4.165   0.163  10.726  0.2761  0.3540 -0.2775
  645MOL0     C88882   4.060   0.167  10.830 -0.9966  0.0563  0.1851
  645MOL0     C88883   3.930   0.221  10.773 -0.5804 -0.6240  0.6876
  645MOL0     C88884   3.848   0.252  10.903  0.4327  0.3825  0.2667
  645MOL0     C88885   3.704   0.297  10.872 -0.2780  0.5549  1.2945
  645MOL0     C88886   3.701   0.424  10.787  0.0172 -0.7771  1.4413
  645MOL0     C88887   3.564   0.495  10.775 -0.2817  0.3889 -0.0055
  645MOL0     C88888   3.457   0.399  10.723 -0.4883  0.4333  0.2877
  645MOL0     N88889   3.316   0.444  10.737  0.6420 -0.7129 -0.0531
  645MOL0     C88890   3.269   0.563  10.686 -0.7835  0.3918  0.0931
  645MOL0     C88891   3.134   0.564  10.693 -0.0052  1.1702 -0.0555
  645MOL0     C88892   3.046   0.669  10.629 -1.0938  1.2659 -0.0556
  645MOL0     C88893   2.961   0.738  10.740 -0.2926 -0.2221  0.3465
  645MOL0     C88894   2.905   0.865  10.681  0.0075 -0.9963 -1.0205
  645MOL0     C88895   2.849   0.940  10.805 -0.5411 -0.3685  0.6361
  645MOL0     O88896   2.856   1.078  10.791 -0.2587  0.0891 -0.1393
  645MOL0     C88897   2.764   1.158  10.858 -0.0074 -0.4415  0.0109
  645MOL0     C88898   2.682   1.122  10.958  0.3928 -1.2452 -0.0450
  645MOL0     C88899   2.572   1.200  10.995 -0.0543 -0.0552 -0.4817
  645MOL0     C88900   2.476   1.129  11.096 -0.2619 -0.2748  0.5753
  645MOL0     C88901   2.542   1.324  10.931 -0.0287  0.8880 -0.7419
  645MOL0     C88902   2.431   1.420  10.968  0.1683 -1.1949 -0.0829
  645MOL0     O88903   2.436   1.556  10.944  0.4125  0.2901  0.1365
  645MOL0     C88904   2.360   1.638  11.027 -0.5446  0.3732 -0.8266
  645MOL0     C88905   2.225   1.641  11.022  0.0799 -0.3325  0.1884
  645MOL0     C88906   2.139   1.727  11.097 -0.7272 -0.2311  0.0113
  645MOL0     C88907   2.195   1.815  11.194  0.3002  1.3807 -0.5793
  645MOL0     O88908   2.117   1.888  11.284 -0.5319 -0.0107  0.7509
  645MOL0     C88909   2.156   1.897  11.413  0.3901  0.1058  0.2259
  645MOL0     C88910   2.057   1.970  11.518  0.1502  0.1043  1.4274
  645MOL0     C88911   1.909   1.927  11.490  0.9195  0.5098  0.4056
  645MOL0     C88912   1.887   1.775  11.534  0.3002 -0.4054  0.2036
  645MOL0     C88913   1.742   1.732  11.500 -0.7090  0.5183  0.1791
  645MOL0     C88914   1.643   1.818  11.591 -0.6402 -0.2087  0.1405
  645MOL0     C88915   1.513   1.746  11.588 -1.2570  0.7310  0.0024
  645MOL0     C88916   1.430   1.769  11.454  0.1903  0.0067 -0.3531
  645MOL0    Cl88917   1.392   1.938  11.422  0.2665 -0.2402  0.1962
  645MOL0     C88918   2.335   1.813  11.194 -0.8916  0.1998  0.8317
  645MOL0     C88919   2.419   1.724  11.121  0.6429 -0.4844  0.2089
  645MOL0     O88920   2.340   1.367  11.033 -0.8957 -0.3051  0.1878
  645MOL0     C88921   2.623   1.358  10.822  0.0646 -0.2889  0.3157
  645MOL0     C88922   2.741   1.290  10.796  1.4663  1.4084 -0.0480
  645MOL0     N88923   3.095   0.442  10.747  0.0077  0.5473 -0.5893
  645MOL0     N88924   3.199   0.372  10.763  0.1844  0.7651 -0.7472
  645MOL0     C88925   4.326   0.450  10.606 -0.1302  0.2227 -0.0038
  645MOL0     C88926   4.449   0.496  10.565  0.0297  0.5397 -0.7996
  645MOL0     C88927   4.867   0.566  10.495  0.1635 -0.3559 -0.3914
  645MOL0     C88928   4.902   0.557  10.360  0.7319  0.0509  0.1851
  645MOL0     C88929   5.030   0.597  10.315 -0.0385 -0.0274  0.2470
  645MOL0     C88930   5.106   0.680  10.390 -0.3458  0.9853  0.2055
  645MOL0     O88931   5.222   0.707  10.324 -0.3713  0.0227  0.2267
  645MOL0     C88932   5.219   0.834  10.252  0.2491  0.4235 -0.6109
  645MOL0     C88933   5.194   0.822  10.102  1.0968  0.9807  0.6594
  645MOL0     C88934   5.290   0.723  10.024 -0.2767 -0.0029  0.3269
  645MOL0     C88935   5.442   0.754  10.055 -0.0906 -0.2001  0.1069
  645MOL0     C88936   5.492   0.672  10.166  0.4744 -0.6675  1.1266
  645MOL0     C88937   5.518   0.617  10.268 -0.2531  0.3312 -0.8765
  645MOL0     C88938   5.077   0.704  10.526 -0.0298  1.1673 -0.7404
  645MOL0     C88939   4.963   0.638  10.578 -0.6261  0.6041 -0.4208
  645MOL0     C88940   4.945   0.682  10.727 -0.5383  0.3459  0.1967
  645MOL0     H88941   4.578   0.203  10.460 -0.5958 -0.8834  0.6423
  645MOL0     H88942   4.367   0.116  10.545 -2.8044  0.6380  1.2828
  645MOL0     H88943   4.257   0.121  10.769 -0.9943 -1.1304  1.1464
  645MOL0     H88944   4.124   0.087  10.658  1.0594 -1.1984  0.9129
  645MOL0     H88945   4.039   0.062  10.852  1.1125 -1.2519 -3.2442
  645MOL0     H88946   4.099   0.214  10.921  0.0587  0.6457 -0.5611
  645MOL0     H88947   3.955   0.314  10.721  2.1309 -0.3254  2.3280
  645MOL0     H88948   3.881   0.147  10.710  0.2170  0.4415 -1.2772
  645MOL0     H88949   3.841   0.155  10.952  4.5073  0.0166  0.4455
  645MOL0     H88950   3.882   0.332  10.969  0.8779  0.2504  0.2005
  645MOL0     H88951   3.639   0.313  10.958  0.4260  0.7871  1.7915
  645MOL0     H88952   3.665   0.209  10.819 -1.2067  0.7333  1.6570
  645MOL0     H88953   3.769   0.500  10.826 -2.5151  1.1738  2.3335
  645MOL0     H88954   3.740   0.397  10.689 -3.1994 -2.7895  0.5682
  645MOL0     H88955   3.569   0.572  10.697 -2.0784  1.4251  0.8442
  645MOL0     H88956   3.536   0.557  10.860  1.0506 -0.0260  0.7645
  645MOL0     H88957   3.493   0.377  10.623  1.6517 -0.0632  1.1107
  645MOL0     H88958   3.455   0.304  10.778 -3.7485  0.3849  0.2836
  645MOL0     H88959   3.342   0.636  10.652  3.3891 -2.0700  2.8341
  645MOL0     H88960   2.990   0.618  10.550 -0.1925  0.3704 -0.1389
  645MOL0     H88961   3.104   0.745  10.575 -3.3565  3.1456  0.0134
  645MOL0     H88962   2.886   0.668  10.778  2.3954 -1.8585  3.0805
  645MOL0     H88963   3.035   0.767  10.815 -0.5425  1.4658  0.0014
  645MOL0     H88964   2.981   0.925  10.630 -0.7517  0.0731 -0.9315
  645MOL0     H88965   2.831   0.846  10.602  1.6882  0.3122 -3.0278
  645MOL0     H88966   2.745   0.906  10.807 -0.5664 -0.5703 -1.7003
  645MOL0     H88967   2.900   0.918  10.899  0.4284  1.7355  0.6501
  645MOL0     H88968   2.692   1.030  11.013 -0.0742 -1.6000 -0.5448
  645MOL0     H88969   2.381   1.111  11.045  0.1291  2.0366 -1.1429
  645MOL0     H88970   2.444   1.191  11.181  1.1688 -0.5913  1.3699
  645MOL0     H88971   2.523   1.039  11.135 -0.2889 -0.0925  1.0275
  645MOL0     H88972   2.173   1.563  10.967 -4.3523  3.0706 -1.1179
  645MOL0     H88973   2.031   1.733  11.090 -0.7056  0.4079  0.1475
  645MOL0     H88974   2.193   1.804  11.459  0.3829  0.5135  1.0803
  645MOL0     H88975   2.232   1.975  11.409  1.8173 -1.2509 -0.2821
  645MOL0     H88976   2.091   1.953  11.621 -0.2824 -2.1264  1.2478
  645MOL0     H88977   2.052   2.077  11.496 -0.2730 -0.8032 -4.2943
  645MOL0     H88978   1.876   1.936  11.386  1.2977 -1.1351  0.1093
  645MOL0     H88979   1.841   1.988  11.550  1.3623  0.2085  1.2326
  645MOL0     H88980   1.903   1.776  11.643  1.8246  2.2371  0.0363
  645MOL0     H88981   1.958   1.717  11.475  1.5607  2.0307 -0.8217
  645MOL0     H88982   1.733   1.735  11.391  2.4577  2.1578 -0.1779
  645MOL0     H88983   1.739   1.630  11.538  1.6379 -0.4539 -1.9240
  645MOL0     H88984   1.630   1.917  11.546 -1.5620 -0.7657 -0.8801
  645MOL0     H88985   1.686   1.818  11.691 -1.4003 -3.7351  0.5850
  645MOL0     H88986   1.469   1.790  11.678 -0.7045  0.6690  0.3042
  645MOL0     H88987   1.533   1.642  11.613 -0.9476  0.4123 -1.4754
  645MOL0     H88988   1.337   1.711  11.458 -1.6493  2.4676 -3.1449
  645MOL0     H88989   1.482   1.732  11.365  1.0095 -0.9794  0.5091
  645MOL0     H88990   2.391   1.863  11.272 -0.4457 -3.1592  2.8899
  645MOL0     H88991   2.526   1.720  11.140  0.3342 -1.0873  1.9937
  645MOL0     H88992   2.599   1.447  10.764  1.7777  0.1889  0.2912
  645MOL0     H88993   2.797   1.320  10.708  1.0348  0.9751 -0.4727
  645MOL0     H88994   4.260   0.505  10.673  0.5094 -0.2754  1.0763
  645MOL0     H88995   4.477   0.601  10.574  2.1737  0.0102 -0.6572
  645MOL0     H88996   4.845   0.504  10.285  1.6791  0.0481 -0.5528
  645MOL0     H88997   5.057   0.582  10.211 -1.1760 -2.0849  0.2004
  645MOL0     H88998   5.139   0.902  10.283 -2.4503 -2.8646  0.1984
  645MOL0     H88999   5.316   0.881  10.274  1.4965 -2.5760  0.8432
  645MOL0     H89000   5.207   0.920  10.056 -1.4468  0.6898 -0.9257
  645MOL0     H89001   5.089   0.793  10.088  0.7490  0.9441  2.9622
  645MOL0     H89002   5.260   0.621  10.047  0.2790 -0.7664 -2.0303
  645MOL0     H89003   5.271   0.734   9.917  1.7734 -0.4665 -0.1298
  645MOL0     H89004   5.454   0.861  10.076  0.3531 -0.4323  1.1201
  645MOL0     H89005   5.490   0.743   9.958 -2.6553 -2.0892 -1.0771
  645MOL0     H89006   5.540   0.562  10.357  0.7733  0.3441 -1.1194
  645MOL0     H89007   5.153   0.751  10.588  0.3090 -1.8756  1.3502
  645MOL0     H89008   4.846   0.727  10.738 -0.2718  1.8502 -2.4805
  645MOL0     H89009   4.940   0.587  10.782 -2.7931 -0.6832 -1.6191
  645MOL0     H89010   5.023   0.744  10.772  2.4673 -2.2550 -1.0297
  646MOL0     O89011   3.133   4.147   8.230 -0.2109  0.4259 -0.8488
  646MOL0     C89012   3.242   4.098   8.246 -0.6512  0.1830  0.0366
  646MOL0     O89013   3.297   4.044   8.360 -0.2767  0.2401 -0.2947
  646MOL0     C89014   3.210   4.011   8.467  0.0777 -0.0608 -0.0178
  646MOL0     C89015   3.134   3.893   8.454 -0.1118  0.1312  0.0584
  646MOL0     C89016   3.049   3.861   8.558 -0.0112  0.7227  0.7673
  646MOL0     C89017   3.034   3.949   8.665 -1.2255 -0.1134 -0.3300
  646MOL0     O89018   2.969   3.906   8.773  0.3806 -0.3816 -0.5646
  646MOL0     C89019   2.832   3.950   8.762 -0.0377 -0.4294 -0.4554
  646MOL0     C89020   2.745   3.838   8.823  1.1544 -0.9691  0.1537
  646MOL0     C89021   2.596   3.866   8.805  0.3470 -0.4180  0.1398
  646MOL0     C89022   2.516   3.756   8.859 -1.6173 -0.7202 -0.1357
  646MOL0     C89023   2.366   3.754   8.810 -0.0090 -0.3594  0.0837
  646MOL0     C89024   2.289   3.636   8.882 -0.1920 -0.7987  0.0248
  646MOL0     C89025   2.334   3.499   8.845  0.2622 -0.1654 -0.3011
  646MOL0     C89026   2.347   3.473   8.699  0.7960 -0.8929  0.0128
  646MOL0     N89027   2.377   3.332   8.673  0.6702  0.9569  0.0532
  646MOL0     C89028   2.289   3.226   8.681  0.1383 -0.1081 -0.0034
  646MOL0     C89029   2.366   3.115   8.660  0.4699 -0.0924 -0.6559
  646MOL0     C89030   2.318   2.973   8.668 -0.3763 -0.0539  0.2659
  646MOL0     C89031   2.316   2.926   8.811 -0.3042 -0.5892  0.2745
  646MOL0     C89032   2.252   2.786   8.825  0.3371  0.5308  0.4162
  646MOL0     C89033   2.277   2.716   8.961 -0.5266 -0.3673 -0.4343
  646MOL0     O89034   2.219   2.794   9.073  0.5233  0.1192 -0.0789
  646MOL0     C89035   2.258   2.740   9.199 -0.1974 -0.9195  0.3545
  646MOL0     C89036   2.308   2.612   9.230 -0.9742  0.4466 -0.5863
  646MOL0     C89037   2.323   2.574   9.358 -0.5028 -0.1915  0.6207
  646MOL0     C89038   2.360   2.427   9.389 -1.0719  1.0124  0.8257
  646MOL0     C89039   2.280   2.654   9.467  0.5363 -0.5706 -0.3322
  646MOL0     C89040   2.286   2.637   9.619  0.6238  0.1212  0.3368
  646MOL0     O89041   2.196   2.545   9.666  0.1301 -0.0784  0.1876
  646MOL0     C89042   2.187   2.529   9.802 -0.9427  0.1185  0.5582
  646MOL0     C89043   2.292   2.497   9.883 -0.0813 -0.4658  0.4370
  646MOL0     C89044   2.273   2.468  10.021  0.0810  0.4163  0.0201
  646MOL0     C89045   2.144   2.479  10.076  0.3518 -0.1503  0.1960
  646MOL0     O89046   2.138   2.428  10.205 -0.7918  0.0348 -0.2653
  646MOL0     C89047   2.011   2.447  10.268 -0.1259  0.1837  0.0877
  646MOL0     C89048   2.004   2.401  10.409  0.0712 -0.3636  0.2451
  646MOL0     C89049   1.854   2.398  10.466 -0.4790 -0.0235 -0.1692
  646MOL0     C89050   1.849   2.350  10.612  0.3787  0.2209 -0.4119
  646MOL0     C89051   1.711   2.323  10.663  0.6985  0.1427 -0.1266
  646MOL0     C89052   1.612   2.459  10.651 -0.2920 -0.4935 -0.1851
  646MOL0     C89053   1.490   2.442  10.750 -1.3706 -0.3352  0.1506
  646MOL0     C89054   1.372   2.551  10.764 -0.1125 -0.9158  0.1782
  646MOL0    Cl89055   1.449   2.715  10.791 -0.0757 -0.1997 -0.0421
  646MOL0     C89056   2.035   2.520   9.997 -0.3802 -0.4105  0.7835
  646MOL0     C89057   2.068   2.545   9.862  0.5293  0.1606  0.4800
  646MOL0     O89058   2.358   2.709   9.684 -0.7719  0.2354  0.3659
  646MOL0     C89059   2.229   2.783   9.434 -0.8192  0.3709 -0.0655
  646MOL0     C89060   2.225   2.829   9.296 -0.2936  0.3971 -0.5330
  646MOL0     N89061   2.497   3.155   8.641  0.2802  0.4098 -0.1917
  646MOL0     N89062   2.504   3.284   8.654 -0.0158  0.3822 -0.0628
  646MOL0     C89063   3.120   4.060   8.683 -0.0468  0.7063  1.0408
  646MOL0     C89064   3.212   4.086   8.587  0.0702 -0.7478 -0.1585
  646MOL0     C89065   3.322   4.085   8.125 -0.9442  1.2069  0.1868
  646MOL0     C89066   3.405   3.972   8.125 -1.0658  0.1739 -0.0766
  646MOL0     C89067   3.480   3.944   8.011  0.3338  0.1891  0.6493
  646MOL0     C89068   3.472   4.017   7.894  0.6965 -0.1835 -0.5714
  646MOL0     O89069   3.545   4.001   7.774 -0.5400 -0.7804  0.0184
  646MOL0     C89070   3.589   3.866   7.738  0.4346  0.0919 -1.2802
  646MOL0     C89071   3.460   3.780   7.716  0.0896  0.3644  0.1087
  646MOL0     C89072   3.373   3.810   7.601  0.4711  0.6109 -0.2655
  646MOL0     C89073   3.442   3.836   7.469  0.6965 -0.0535 -0.1911
  646MOL0     C89074   3.542   3.732   7.434 -1.0229 -0.2173  0.1107
  646MOL0     C89075   3.625   3.654   7.391  0.5138 -0.8649 -0.0299
  646MOL0     C89076   3.409   4.133   7.896 -0.0341 -0.6632  0.2938
  646MOL0     C89077   3.328   4.162   8.016  0.2874 -0.3084  0.2750
  646MOL0     C89078   3.258   4.290   8.021 -0.0888  0.0532  0.2281
  646MOL0     H89079   3.151   3.835   8.364  1.0995 -0.8956  0.9137
  646MOL0     H89080   2.982   3.777   8.545  3.5724 -2.2141 -0.5714
  646MOL0     H89081   2.810   3.971   8.657  0.1134  1.1024 -0.2045
  646MOL0     H89082   2.823   4.037   8.827 -0.1517 -2.4600  2.4366
  646MOL0     H89083   2.766   3.743   8.773  1.5419 -1.2606  0.8688
  646MOL0     H89084   2.777   3.823   8.926 -0.3896  2.6035  1.3124
  646MOL0     H89085   2.562   3.957   8.855 -1.9675 -0.8141 -0.5782
  646MOL0     H89086   2.573   3.879   8.699  3.0245  2.5725 -0.1950
  646MOL0     H89087   2.558   3.660   8.826  2.6321  0.1723  1.9722
  646MOL0     H89088   2.512   3.767   8.968 -2.3874  1.4101 -0.3288
  646MOL0     H89089   2.360   3.750   8.701  0.7954 -2.1121  0.0776
  646MOL0     H89090   2.316   3.845   8.845  0.5506 -0.2047  0.4990
  646MOL0     H89091   2.305   3.649   8.989  1.7354 -0.1453 -0.3010
  646MOL0     H89092   2.182   3.643   8.864 -0.3310 -2.5945  0.0239
  646MOL0     H89093   2.272   3.422   8.892  0.4965 -0.0704  0.1696
  646MOL0     H89094   2.439   3.495   8.878  0.8075 -1.4173 -2.0409
  646MOL0     H89095   2.251   3.501   8.654  1.5592  4.5848  1.1774
  646MOL0     H89096   2.418   3.545   8.657 -1.7309  0.0719 -2.9688
  646MOL0     H89097   2.182   3.216   8.695 -0.0557  0.6239 -0.8383
  646MOL0     H89098   2.382   2.896   8.624 -0.9348 -1.4353  1.7775
  646MOL0     H89099   2.220   2.965   8.620  0.7216 -0.2362 -2.0920
  646MOL0     H89100   2.413   2.941   8.860  0.4794 -1.2588 -1.0155
  646MOL0     H89101   2.251   2.993   8.868 -0.7467 -1.0254  0.2842
  646MOL0     H89102   2.148   2.797   8.792  1.6994  1.9540 -4.1237
  646MOL0     H89103   2.301   2.723   8.750 -0.4098  1.0711 -0.5477
  646MOL0     H89104   2.233   2.618   8.942  0.6667 -0.1151 -6.1732
  646MOL0     H89105   2.382   2.703   8.988 -0.8792  1.4128  2.1487
  646MOL0     H89106   2.316   2.538   9.151  0.7815  1.0179 -0.9826
  646MOL0     H89107   2.279   2.377   9.443 -0.2940 -0.6381  0.5115
  646MOL0     H89108   2.453   2.419   9.446  1.1194  0.8335 -2.5422
  646MOL0     H89109   2.387   2.373   9.298 -1.9901  1.2340  0.4100
  646MOL0     H89110   2.394   2.501   9.845 -0.0428 -3.6616 -0.0600
  646MOL0     H89111   2.350   2.437  10.091  0.7044  2.6585  0.4110
  646MOL0     H89112   1.987   2.553  10.257 -2.0173 -0.5074 -5.6167
  646MOL0     H89113   1.932   2.398  10.211 -1.7711  1.3381  1.2698
  646MOL0     H89114   2.033   2.296  10.405  2.0818  0.1918 -1.1339
  646MOL0     H89115   2.076   2.459  10.468 -0.8021  2.3745 -1.1700
  646MOL0     H89116   1.790   2.327  10.413 -0.0609 -0.2317 -0.3903
  646MOL0     H89117   1.823   2.503  10.459  1.6647  0.7448  0.9830
  646MOL0     H89118   1.898   2.422  10.678  1.2288  0.8643 -1.6836
  646MOL0     H89119   1.903   2.255  10.609  2.6657  1.4470 -0.7948
  646MOL0     H89120   1.673   2.249  10.592  1.7712 -2.2094  1.6091
  646MOL0     H89121   1.724   2.284  10.765  1.5465 -1.0692 -0.6809
  646MOL0     H89122   1.582   2.472  10.547  3.8690 -0.8033 -1.6306
  646MOL0     H89123   1.672   2.545  10.682 -2.9456  1.4448 -0.1227
  646MOL0     H89124   1.536   2.439  10.849 -0.1833 -0.5431 -0.3845
  646MOL0     H89125   1.450   2.344  10.720  2.3551 -1.4811 -1.7594
  646MOL0     H89126   1.312   2.529  10.853  2.4875 -3.9891  1.3686
  646MOL0     H89127   1.313   2.536  10.673 -0.5121  2.6260 -0.2903
  646MOL0     H89128   1.931   2.543  10.020 -0.4418  0.8477 -0.5722
  646MOL0     H89129   1.990   2.575   9.793  1.4789  1.0012 -0.2684
  646MOL0     H89130   2.209   2.856   9.512 -0.7635 -1.3518  1.6456
  646MOL0     H89131   2.215   2.936   9.278  1.8983  0.6183 -0.6944
  646MOL0     H89132   3.119   4.095   8.785 -2.5679  0.8668  1.0094
  646MOL0     H89133   3.282   4.170   8.589 -0.4630 -0.3194  0.9328
  646MOL0     H89134   3.411   3.906   8.211 -0.4853  0.6415  0.2441
  646MOL0     H89135   3.537   3.852   8.010  1.7862  1.0581 -0.5785
  646MOL0     H89136   3.643   3.857   7.643  1.7315 -1.0728 -0.4674
  646MOL0     H89137   3.653   3.823   7.815  0.0671  0.5624 -0.7008
  646MOL0     H89138   3.405   3.782   7.810 -2.1743 -1.0290 -1.1096
  646MOL0     H89139   3.489   3.675   7.705 -0.6742  0.2677 -1.1629
  646MOL0     H89140   3.306   3.725   7.594 -0.0454  0.5807  3.2128
  646MOL0     H89141   3.317   3.901   7.624 -2.4399 -1.3469  0.8969
  646MOL0     H89142   3.491   3.933   7.478 -1.1812  1.0451 -1.0504
  646MOL0     H89143   3.362   3.848   7.395  1.3268 -0.8624 -1.0316
  646MOL0     H89144   3.687   3.575   7.353  4.0752  1.3203  0.8402
  646MOL0     H89145   3.415   4.210   7.820 -0.1989  2.0900  2.8948
  646MOL0     H89146   3.267   4.332   8.121  0.1250  1.1058 -0.2208
  646MOL0     H89147   3.314   4.360   7.959  1.7509 -0.5901  1.1019
  646MOL0     H89148   3.157   4.291   7.979  0.6434  0.3332 -1.6051
  647MOL0     O89149   4.454   1.528   3.718  0.0610 -0.5339  0.1191
  647MOL0     C89150   4.347   1.486   3.676 -0.1970  0.0495 -0.2795
  647MOL0     O89151   4.287   1.372   3.717  0.0322  0.2543  0.0208
  647MOL0     C89152   4.340   1.284   3.805  0.9501  0.4871  0.4517
  647MOL0     C89153   4.364   1.150   3.767 -0.8637  0.1416  0.0861
  647MOL0     C89154   4.455   1.073   3.847  0.9396 -0.3471 -0.1190
  647MOL0     C89155   4.502   1.122   3.967  0.3714 -0.1693 -0.4616
  647MOL0     O89156   4.580   1.038   4.041 -0.2396 -0.6718  0.2357
  647MOL0     C89157   4.672   1.098   4.135 -0.3602 -0.2650 -0.2482
  647MOL0     C89158   4.802   1.025   4.152  0.3517 -0.8686  0.5943
  647MOL0     C89159   4.768   0.892   4.221 -0.2816  0.6538  1.4831
  647MOL0     C89160   4.906   0.818   4.230 -0.5841 -1.0494  0.3465
  647MOL0     C89161   4.973   0.768   4.094 -0.4501  0.0272 -0.4179
  647MOL0     C89162   4.977   0.615   4.087  0.3165 -0.2022 -0.4573
  647MOL0     C89163   5.113   0.560   4.155  0.8079 -0.5564 -0.5429
  647MOL0     C89164   5.120   0.408   4.166 -0.7698 -0.1943  0.5850
  647MOL0     N89165   5.107   0.336   4.036 -0.2709 -0.4507 -0.9622
  647MOL0     C89166   5.221   0.286   3.973  0.4769  0.3336  0.6506
  647MOL0     C89167   5.169   0.219   3.874  1.1005 -1.4624  0.1476
  647MOL0     C89168   5.246   0.132   3.782 -0.2454 -0.4120  0.0572
  647MOL0     C89169   5.238   0.183   3.636  0.1619  0.7514 -0.9025
  647MOL0     C89170   5.300   0.099   3.519 -0.7682 -0.2698  0.1122
  647MOL0     C89171   5.445   0.047   3.567  0.4186 -0.2193 -0.3763
  647MOL0     O89172   5.499  -0.001   3.444 -0.4726  0.4293 -0.7726
  647MOL0     C89173   5.586  -0.101   3.448  0.2032  0.3871  0.6967
  647MOL0     C89174   5.719  -0.094   3.495 -0.7557 -0.2475  0.5529
  647MOL0     C89175   5.814  -0.196   3.467 -0.0257 -0.8528  0.8893
  647MOL0     C89176   5.958  -0.161   3.510 -0.0372  0.3696  0.5239
  647MOL0     C89177   5.768  -0.313   3.399  0.4353  0.2026 -0.2132
  647MOL0     C89178   5.865  -0.424   3.368 -0.1189 -0.5792 -0.6002
  647MOL0     O89179   6.006  -0.410   3.376  0.4813 -0.5654  0.3435
  647MOL0     C89180   6.105  -0.492   3.338 -0.0986  0.2413 -0.0835
  647MOL0     C89181   6.093  -0.573   3.225  0.1955  0.4673 -0.0495
  647MOL0     C89182   6.204  -0.648   3.190  0.7831 -1.1622  0.0600
  647MOL0     C89183   6.323  -0.638   3.257 -0.3391 -0.0185 -0.4643
  647MOL0     O89184   6.421  -0.731   3.226 -0.2454  0.0415 -0.5872
  647MOL0     C89185   6.453  -0.814   3.334 -0.5574 -0.0638 -0.7340
  647MOL0     C89186   6.518  -0.940   3.275 -0.0967  0.9288 -0.1011
  647MOL0     C89187   6.649  -0.921   3.197  0.2569  0.1962  0.0591
  647MOL0     C89188   6.717  -1.053   3.162 -0.2350  0.8897 -0.4418
  647MOL0     C89189   6.803  -1.095   3.279 -0.0970  0.0338  0.2734
  647MOL0     C89190   6.855  -1.235   3.268  0.1367  0.7468  0.2254
  647MOL0     C89191   6.897  -1.293   3.394  0.4299 -0.6441 -0.3181
  647MOL0     C89192   6.941  -1.445   3.384 -0.4228  1.0592 -0.6147
  647MOL0    Cl89193   7.002  -1.466   3.552 -0.1802  0.1164  0.4832
  647MOL0     C89194   6.332  -0.550   3.366 -0.2527 -0.3766  0.5739
  647MOL0     C89195   6.224  -0.478   3.412 -0.3918  0.6147  0.8793
  647MOL0     O89196   5.808  -0.534   3.330 -0.5073 -0.3114  0.4717
  647MOL0     C89197   5.626  -0.333   3.360  0.1017 -1.0616 -0.8789
  647MOL0     C89198   5.545  -0.223   3.391  0.1138  0.2587 -0.2581
  647MOL0     N89199   5.028   0.223   3.874 -0.2330 -0.4197 -0.3992
  647MOL0     N89200   4.987   0.294   3.974  1.1024 -0.3790 -1.3311
  647MOL0     C89201   4.451   1.245   4.010 -0.6758  0.2732  1.1542
  647MOL0     C89202   4.384   1.332   3.927  0.0927 -0.7236 -0.3376
  647MOL0     C89203   4.291   1.563   3.563 -0.1624 -0.3991 -0.8437
  647MOL0     C89204   4.380   1.600   3.460  0.0605 -0.6633 -0.5687
  647MOL0     C89205   4.350   1.694   3.354  0.2487  0.3220 -0.6998
  647MOL0     C89206   4.226   1.760   3.366 -0.2567 -0.1246  0.3284
  647MOL0     O89207   4.184   1.861   3.286  1.4145  0.2418 -0.6936
  647MOL0     C89208   4.231   1.888   3.157 -0.8518  0.4855  0.9295
  647MOL0     C89209   4.143   1.851   3.045  0.0496 -1.2174  0.1588
  647MOL0     C89210   4.005   1.878   3.089  0.2110  0.5455  1.0458
  647MOL0     C89211   3.906   1.848   2.970 -0.4343  0.2016  0.9509
  647MOL0     C89212   3.784   1.853   3.040 -0.5651  0.0852 -0.9178
  647MOL0     C89213   3.685   1.849   3.115 -0.0290  0.1203 -0.5719
  647MOL0     C89214   4.138   1.735   3.476 -0.4852  1.3149 -0.6165
  647MOL0     C89215   4.172   1.631   3.573 -0.2646 -0.0440  0.0065
  647MOL0     C89216   4.078   1.606   3.688 -0.5330 -0.0970  0.2374
  647MOL0     H89217   4.326   1.118   3.671  0.1739 -0.8940 -0.0038
  647MOL0     H89218   4.482   0.969   3.831 -3.2362 -1.8386  1.0930
  647MOL0     H89219   4.631   1.107   4.236  0.3779 -3.7355  0.4907
  647MOL0     H89220   4.696   1.197   4.096 -1.4969 -0.3896 -1.3196
  647MOL0     H89221   4.849   1.023   4.053  1.5339 -1.6614  1.1424
  647MOL0     H89222   4.867   1.078   4.222  0.8152 -1.0915  0.3427
  647MOL0     H89223   4.719   0.889   4.318 -1.2063  4.0177  1.2551
  647MOL0     H89224   4.700   0.846   4.149  2.7069 -1.9041  0.0641
  647MOL0     H89225   4.980   0.887   4.272 -0.7594  0.1666 -1.2488
  647MOL0     H89226   4.898   0.738   4.304 -1.9484 -1.0032  0.2762
  647MOL0     H89227   5.077   0.800   4.096 -0.4603  0.3652  3.6494
  647MOL0     H89228   4.926   0.813   4.006 -3.0066  1.2711  1.4539
  647MOL0     H89229   4.894   0.575   4.147  0.4924 -0.8092 -0.6123
  647MOL0     H89230   4.967   0.583   3.982 -1.1816  1.3517 -0.8326
  647MOL0     H89231   5.116   0.610   4.252 -0.9902 -0.8283 -0.3129
  647MOL0     H89232   5.208   0.592   4.111  0.8319  0.9252  0.5253
  647MOL0     H89233   5.203   0.374   4.229  0.2637  0.9316 -0.1119
  647MOL0     H89234   5.032   0.388   4.227 -0.2140 -0.2411  1.3995
  647MOL0     H89235   5.323   0.288   4.010  1.1443 -0.3356 -1.0488
  647MOL0     H89236   5.208   0.031   3.798 -2.7967 -0.3800 -4.2794
  647MOL0     H89237   5.353   0.118   3.803 -0.5866 -3.4906  0.1273
  647MOL0     H89238   5.135   0.185   3.600 -0.0131  3.2537 -0.4315
  647MOL0     H89239   5.280   0.284   3.639 -0.7473  1.1093  0.7857
  647MOL0     H89240   5.235   0.012   3.504  0.4882 -0.8524 -2.5813
  647MOL0     H89241   5.294   0.160   3.429 -1.0719  0.4916  0.6382
  647MOL0     H89242   5.503   0.134   3.601 -0.6293  0.2369  0.2836
  647MOL0     H89243   5.422  -0.034   3.637 -2.5081  0.1926 -0.7433
  647MOL0     H89244   5.750  -0.009   3.555  0.4841 -1.0450  1.1003
  647MOL0     H89245   5.946  -0.089   3.591  1.6204  0.4610  0.7106
  647MOL0     H89246   6.011  -0.109   3.430  0.2018 -1.5537 -0.6559
  647MOL0     H89247   6.024  -0.243   3.541  0.7310  0.8180  0.0891
  647MOL0     H89248   6.011  -0.587   3.156  0.2349 -1.3917  0.2329
  647MOL0     H89249   6.200  -0.719   3.108  2.8781  0.8479 -1.9300
  647MOL0     H89250   6.529  -0.770   3.399  2.9927 -0.7497 -4.0923
  647MOL0     H89251   6.364  -0.838   3.394  0.1807 -1.8810 -0.2827
  647MOL0     H89252   6.540  -1.012   3.354  2.5833  2.2012  0.4224
  647MOL0     H89253   6.444  -0.972   3.201  1.3573  3.0198 -2.6610
  647MOL0     H89254   6.721  -0.872   3.263 -1.1500  0.5577  1.3922
  647MOL0     H89255   6.627  -0.849   3.117  1.5225  0.6533  0.1000
  647MOL0     H89256   6.784  -1.030   3.079  1.6963 -0.1485  0.7436
  647MOL0     H89257   6.648  -1.130   3.127  1.9163 -1.2296 -0.2970
  647MOL0     H89258   6.888  -1.027   3.294 -0.6013  0.4097  1.5600
  647MOL0     H89259   6.744  -1.089   3.370  1.6338  1.4418  1.3783
  647MOL0     H89260   6.941  -1.243   3.201 -0.9799  0.4868 -1.2255
  647MOL0     H89261   6.783  -1.299   3.216  0.9755 -0.9736  1.1241
  647MOL0     H89262   6.820  -1.282   3.472  1.8843 -0.0903  1.1004
  647MOL0     H89263   6.976  -1.228   3.433 -0.3430  0.7818 -1.0375
  647MOL0     H89264   7.020  -1.476   3.315 -1.5237 -1.8808 -0.6875
  647MOL0     H89265   6.861  -1.514   3.357  2.4749 -2.5914 -0.6276
  647MOL0     H89266   6.430  -0.535   3.411  1.1381 -3.2377 -1.1830
  647MOL0     H89267   6.233  -0.404   3.491 -1.1490  4.9845 -2.7302
  647MOL0     H89268   5.588  -0.414   3.299 -2.0760 -0.4887 -0.3615
  647MOL0     H89269   5.440  -0.227   3.363  0.2112 -3.0445 -0.6309
  647MOL0     H89270   4.489   1.272   4.108 -0.3080  3.2791  0.2825
  647MOL0     H89271   4.361   1.432   3.963  2.1663 -0.8910  1.6684
  647MOL0     H89272   4.472   1.544   3.451  2.4447  3.1061 -2.5077
  647MOL0     H89273   4.425   1.708   3.277  1.6899  0.1756  0.6496
  647MOL0     H89274   4.236   1.997   3.153  1.0464  0.3994 -1.7681
  647MOL0     H89275   4.328   1.846   3.127 -0.9009  0.1629  1.2022
  647MOL0     H89276   4.154   1.750   3.004 -0.5268  0.3801 -4.5294
  647MOL0     H89277   4.171   1.913   2.959 -0.7512 -1.6285 -0.4225
  647MOL0     H89278   3.990   1.805   3.170  1.5231 -0.0218  0.7974
  647MOL0     H89279   3.989   1.982   3.121  2.4168  2.2897 -2.7863
  647MOL0     H89280   3.930   1.753   2.920  0.1825  1.1239 -0.5628
  647MOL0     H89281   3.913   1.929   2.897  0.3148  1.2599  2.1567
  647MOL0     H89282   3.596   1.854   3.174  0.7816  2.4611  0.5938
  647MOL0     H89283   4.041   1.784   3.478 -1.1610  0.3579 -3.7577
  647MOL0     H89284   3.980   1.642   3.655 -0.9274 -0.2110  1.2510
  647MOL0     H89285   4.055   1.500   3.701 -1.0299  0.0886  0.9605
  647MOL0     H89286   4.111   1.654   3.781  0.6702 -0.9270  0.2572
  648MOL0     O89287   9.699   5.330   3.921 -0.2390 -0.7264  0.0188
  648MOL0     C89288   9.621   5.401   3.984 -0.6456  0.9218 -0.2668
  648MOL0     O89289   9.641   5.532   4.017 -0.3132  0.0979 -0.5137
  648MOL0     C89290   9.756   5.597   3.987 -0.2031  0.8737  0.8577
  648MOL0     C89291   9.861   5.626   4.075 -0.5547 -0.5352 -0.2052
  648MOL0     C89292   9.970   5.695   4.026  0.7718 -0.0584 -0.1932
  648MOL0     C89293   9.990   5.732   3.885  0.7926 -0.4578  0.6269
  648MOL0     O89294  10.088   5.814   3.837  0.0137  0.4213  0.0503
  648MOL0     C89295  10.198   5.849   3.932  0.4932 -0.7317 -0.4748
  648MOL0     C89296  10.259   5.952   3.847 -0.8116 -1.0876  0.0804
  648MOL0     C89297  10.386   6.002   3.905 -0.9595  0.2539  0.7957
  648MOL0     C89298  10.433   6.143   3.850 -0.7824  0.0716 -0.7619
  648MOL0     C89299  10.584   6.170   3.886 -0.0991 -0.3052 -0.0544
  648MOL0     C89300  10.616   6.315   3.817 -0.2792  0.0226  0.2147
  648MOL0     C89301  10.682   6.405   3.912  0.0344  0.1136  0.3875
  648MOL0     C89302  10.589   6.452   4.032  0.3350 -0.5287  0.1120
  648MOL0     N89303  10.481   6.540   3.993 -0.1541  1.3723  0.3660
  648MOL0     C89304  10.499   6.655   3.915 -0.7715 -0.0867  0.2915
  648MOL0     C89305  10.388   6.686   3.857 -0.2706 -0.3126 -0.1710
  648MOL0     C89306  10.365   6.798   3.764  0.7545 -0.3921 -1.1922
  648MOL0     C89307  10.213   6.809   3.711  0.4711  0.4073  0.2295
  648MOL0     C89308  10.193   6.949   3.647 -0.5406 -0.9748 -0.6516
  648MOL0     C89309  10.127   7.044   3.746  0.2989 -0.9996 -0.6130
  648MOL0     O89310   9.990   7.008   3.747 -0.0625  0.2743 -0.5123
  648MOL0     C89311   9.899   7.107   3.718  0.7546 -1.2856 -0.3971
  648MOL0     C89312   9.894   7.188   3.606 -1.1203  0.5239 -0.3411
  648MOL0     C89313   9.776   7.254   3.571 -0.1239  1.0088 -0.3195
  648MOL0     C89314   9.777   7.307   3.429  0.4034  0.2621 -1.0451
  648MOL0     C89315   9.664   7.260   3.657  0.3336  1.0851  0.2149
  648MOL0     C89316   9.528   7.323   3.633 -0.4734 -0.7024 -0.3757
  648MOL0     O89317   9.427   7.289   3.708 -0.1082  0.1134 -0.4404
  648MOL0     C89318   9.307   7.340   3.665  1.1530  0.3927  0.0094
  648MOL0     C89319   9.238   7.252   3.581  0.7101  0.8081 -0.0930
  648MOL0     C89320   9.102   7.287   3.543 -0.0704 -0.3744 -0.7274
  648MOL0     C89321   9.050   7.417   3.585 -0.0762 -0.1197 -0.2286
  648MOL0     O89322   8.925   7.449   3.527 -0.5413  0.8150 -0.2150
  648MOL0     C89323   8.807   7.465   3.614 -0.0514 -0.6111 -0.3098
  648MOL0     C89324   8.786   7.613   3.661  0.1360 -0.0654  0.7747
  648MOL0     C89325   8.740   7.700   3.540  0.3389 -0.2547 -0.4733
  648MOL0     C89326   8.758   7.844   3.570  0.3680 -0.5390 -0.3086
  648MOL0     C89327   8.897   7.904   3.550 -0.1428  0.3934 -0.3861
  648MOL0     C89328   8.921   8.058   3.578 -0.8388  0.3058  0.1526
  648MOL0     C89329   9.069   8.097   3.573  0.9757 -0.1495 -0.0806
  648MOL0     C89330   9.078   8.253   3.604 -0.0799  0.1569 -0.8728
  648MOL0    Cl89331   9.244   8.299   3.579 -0.3553  0.1157  0.7585
  648MOL0     C89332   9.127   7.500   3.678 -0.0468 -0.3716  0.3649
  648MOL0     C89333   9.257   7.456   3.721  1.3188 -0.6070 -0.4227
  648MOL0     O89334   9.526   7.398   3.536  0.4657  0.6398  1.1356
  648MOL0     C89335   9.683   7.199   3.785  0.6014  0.8109  0.6837
  648MOL0     C89336   9.789   7.122   3.809 -0.1856 -0.0724 -1.1121
  648MOL0     N89337  10.302   6.592   3.890  0.3959  0.4377  0.1942
  648MOL0     N89338  10.348   6.505   3.977  0.2096 -0.2292  0.3707
  648MOL0     C89339   9.876   5.703   3.801  0.0615  0.0055  0.2976
  648MOL0     C89340   9.766   5.640   3.854 -0.2964 -0.1139  0.7002
  648MOL0     C89341   9.488   5.357   4.030  1.2047  0.0069  0.3459
  648MOL0     C89342   9.386   5.457   4.038  0.0671  0.5301 -0.6654
  648MOL0     C89343   9.256   5.429   4.079 -0.3176 -1.4099 -0.0200
  648MOL0     C89344   9.213   5.305   4.119 -0.3038  0.9582 -0.0379
  648MOL0     O89345   9.095   5.302   4.190 -0.0192  0.4719  0.5819
  648MOL0     C89346   9.072   5.183   4.258  0.3738  0.7999 -0.2401
  648MOL0     C89347   8.967   5.202   4.367  0.3676 -0.0405 -0.0409
  648MOL0     C89348   9.033   5.296   4.470 -0.9405 -0.4233  0.5509
  648MOL0     C89349   8.934   5.327   4.579  0.6778 -0.5728 -0.0175
  648MOL0     C89350   8.981   5.446   4.654  0.1888  0.6113  0.0738
  648MOL0     C89351   9.039   5.545   4.693  0.0639  0.7119 -0.4931
  648MOL0     C89352   9.312   5.200   4.107  1.8988  0.6336  0.1893
  648MOL0     C89353   9.446   5.226   4.066 -0.3779  0.3811  0.1232
  648MOL0     C89354   9.548   5.114   4.062  0.2477 -0.2706  0.7076
  648MOL0     H89355   9.856   5.596   4.179 -1.4979  2.9867  0.8963
  648MOL0     H89356  10.051   5.711   4.097  1.0843 -2.2313  0.0155
  648MOL0     H89357  10.265   5.763   3.939 -1.4042 -2.2037  0.2254
  648MOL0     H89358  10.168   5.893   4.027  0.4789  0.1651 -0.8782
  648MOL0     H89359  10.277   5.911   3.747 -1.0293  0.0274 -0.4340
  648MOL0     H89360  10.208   6.047   3.831  3.5036  1.2905 -1.0302
  648MOL0     H89361  10.380   6.012   4.014  0.2533  0.2960  0.8771
  648MOL0     H89362  10.460   5.930   3.871 -4.1160 -1.7439 -2.5137
  648MOL0     H89363  10.427   6.141   3.741  1.1497 -1.3848 -0.8917
  648MOL0     H89364  10.375   6.222   3.897  2.1147  1.0532  1.4795
  648MOL0     H89365  10.642   6.085   3.847 -0.3671 -0.1479 -0.8199
  648MOL0     H89366  10.602   6.177   3.993  0.8035 -0.5406 -0.1796
  648MOL0     H89367  10.672   6.292   3.726 -1.1125 -5.1656  0.7107
  648MOL0     H89368  10.521   6.359   3.785  0.0747 -0.8488 -2.2933
  648MOL0     H89369  10.712   6.499   3.865 -0.6322  1.5539  2.6962
  648MOL0     H89370  10.768   6.355   3.959  0.2409  2.5854  2.9136
  648MOL0     H89371  10.548   6.369   4.091 -1.1336  0.7716  0.9670
  648MOL0     H89372  10.654   6.517   4.091 -1.5467 -0.2957  2.0526
  648MOL0     H89373  10.591   6.701   3.879 -2.0382  3.0432  0.6686
  648MOL0     H89374  10.434   6.791   3.680  1.2275 -2.5085 -0.6939
  648MOL0     H89375  10.384   6.892   3.816 -3.0334 -1.2289  2.2713
  648MOL0     H89376  10.196   6.722   3.647  3.3429 -0.1559  0.0835
  648MOL0     H89377  10.154   6.795   3.802  0.5360  1.5581  0.4579
  648MOL0     H89378  10.292   6.986   3.618 -0.6469 -0.5101 -0.4445
  648MOL0     H89379  10.145   6.960   3.549 -0.7697  2.5209 -0.2945
  648MOL0     H89380  10.162   7.033   3.849  1.4406  0.5454 -0.7944
  648MOL0     H89381  10.137   7.152   3.731  0.3109 -0.8996  0.0867
  648MOL0     H89382   9.977   7.193   3.536  1.1407  1.2717  2.2003
  648MOL0     H89383   9.841   7.250   3.361  0.9258  1.1814 -1.3529
  648MOL0     H89384   9.809   7.412   3.430 -0.0292  0.4011 -1.3395
  648MOL0     H89385   9.677   7.297   3.385 -1.6794 -0.0168  3.2669
  648MOL0     H89386   9.284   7.166   3.535 -1.5124  0.2632 -1.4747
  648MOL0     H89387   9.037   7.228   3.480  0.9109 -1.9136 -0.3693
  648MOL0     H89388   8.716   7.439   3.558  0.9848 -1.7854 -1.5524
  648MOL0     H89389   8.811   7.404   3.705 -2.2306  2.5464  2.0886
  648MOL0     H89390   8.706   7.619   3.736 -1.3564 -2.4144 -0.5077
  648MOL0     H89391   8.880   7.652   3.699  1.1682 -0.2927 -1.4060
  648MOL0     H89392   8.636   7.681   3.515  0.2073 -2.8238  1.5632
  648MOL0     H89393   8.796   7.669   3.452  1.2727  0.1892 -0.0548
  648MOL0     H89394   8.725   7.855   3.674  2.3122  1.5282  0.1784
  648MOL0     H89395   8.691   7.905   3.509 -0.8867  1.4584  2.7998
  648MOL0     H89396   8.967   7.843   3.609  0.4078  0.1808 -1.2369
  648MOL0     H89397   8.938   7.873   3.453  0.8965 -3.5083  1.0866
  648MOL0     H89398   8.869   8.080   3.672  0.9637 -0.8173  1.4662
  648MOL0     H89399   8.869   8.119   3.504  1.5706  2.6044  0.1871
  648MOL0     H89400   9.106   8.071   3.473 -1.5695 -0.6920 -0.9569
  648MOL0     H89401   9.116   8.040   3.653  1.1764 -0.9562 -0.7547
  648MOL0     H89402   9.039   8.274   3.705 -0.6251  1.1818 -1.2855
  648MOL0     H89403   9.025   8.307   3.526  1.9221  2.0527 -1.0178
  648MOL0     H89404   9.093   7.591   3.727  0.2714 -1.0190  1.8502
  648MOL0     H89405   9.304   7.519   3.796 -0.9062 -0.0611  0.5914
  648MOL0     H89406   9.610   7.209   3.864 -1.0137 -1.2781 -0.4442
  648MOL0     H89407   9.802   7.071   3.904  1.5317 -1.2554 -1.9103
  648MOL0     H89408   9.882   5.741   3.699 -0.9303 -3.4757 -1.2167
  648MOL0     H89409   9.690   5.620   3.779 -1.4254 -0.3111  1.8569
  648MOL0     H89410   9.404   5.561   4.015  3.9961 -0.2347 -1.8675
  648MOL0     H89411   9.175   5.500   4.081 -1.4195 -2.5832 -1.2448
  648MOL0     H89412   9.038   5.109   4.185 -2.2203 -2.0082  3.4780
  648MOL0     H89413   9.158   5.132   4.301 -0.4067  1.6367  2.4997
  648MOL0     H89414   8.931   5.108   4.411 -0.0160  0.6279  1.1016
  648MOL0     H89415   8.885   5.249   4.313  1.9414  2.9590  0.0023
  648MOL0     H89416   9.121   5.255   4.522  0.1758 -0.1635 -1.0533
  648MOL0     H89417   9.085   5.379   4.421 -0.5908 -3.3710 -4.7871
  648MOL0     H89418   8.913   5.248   4.651 -1.4549  0.0235  0.0793
  648MOL0     H89419   8.840   5.337   4.523  0.7689 -1.0035 -0.2522
  648MOL0     H89420   9.086   5.633   4.731 -0.6052  0.6181  0.5722
  648MOL0     H89421   9.277   5.100   4.130  1.5193  0.6062 -0.5125
  648MOL0     H89422   9.568   5.067   3.965 -0.0337 -0.9496  0.9740
  648MOL0     H89423   9.636   5.169   4.098 -1.7610  2.3966  1.8717
  648MOL0     H89424   9.512   5.056   4.147 -0.2477  1.4307  1.7085
  649MOL0     O89425   6.812  11.543   6.238 -0.9055  0.9535 -0.0110
  649MOL0     C89426   6.911  11.516   6.170  0.1856  0.2005  0.1878
  649MOL0     O89427   6.951  11.576   6.048  0.5259 -0.0350  0.0501
  649MOL0     C89428   6.882  11.677   5.988  0.1733 -0.1235 -0.1980
  649MOL0     C89429   6.788  11.764   6.042 -0.0614 -0.5304  0.0433
  649MOL0     C89430   6.755  11.880   5.977  0.6856  0.3139 -0.8260
  649MOL0     C89431   6.811  11.918   5.857  0.0672 -1.3248  0.1965
  649MOL0     O89432   6.762  12.037   5.809  0.2034  0.3956  0.6636
  649MOL0     C89433   6.853  12.154   5.837 -0.3014 -0.3656 -0.2876
  649MOL0     C89434   6.842  12.259   5.722 -0.7679 -0.8336 -0.6459
  649MOL0     C89435   6.696  12.302   5.736 -0.3531  0.4829 -0.6627
  649MOL0     C89436   6.636  12.278   5.596  0.4184  0.7308  0.7095
  649MOL0     C89437   6.481  12.270   5.603  0.1775  0.3298  1.0455
  649MOL0     C89438   6.408  12.259   5.457 -0.7480  0.3118 -0.3706
  649MOL0     C89439   6.447  12.133   5.384  0.8819  0.4506 -0.3491
  649MOL0     C89440   6.357  12.094   5.270 -0.2503 -0.3129 -0.1625
  649MOL0     N89441   6.419  11.997   5.172 -0.9943 -0.2506 -0.3981
  649MOL0     C89442   6.437  11.860   5.196  0.5380  0.5436 -0.1540
  649MOL0     C89443   6.515  11.807   5.102 -0.1898 -0.6603  0.0617
  649MOL0     C89444   6.541  11.660   5.091  0.7189  0.6623  0.0129
  649MOL0     C89445   6.680  11.623   5.046 -1.6412 -0.1661  0.5494
  649MOL0     C89446   6.688  11.479   4.998 -0.8762  0.3274 -0.8597
  649MOL0     C89447   6.833  11.447   4.939  0.8077  0.4039  0.0730
  649MOL0     O89448   6.902  11.357   5.034 -0.7468 -0.5324  0.4592
  649MOL0     C89449   6.937  11.225   4.993  0.6540 -1.1041 -0.4744
  649MOL0     C89450   6.994  11.196   4.875  0.8515 -0.0731  1.4763
  649MOL0     C89451   7.025  11.063   4.826  0.1148  0.2684 -0.0258
  649MOL0     C89452   7.081  11.055   4.687  0.2318 -0.1677  0.1342
  649MOL0     C89453   7.008  10.962   4.929  0.6923  1.4273 -0.0536
  649MOL0     C89454   7.057  10.822   4.916 -0.5956  0.6326  0.0381
  649MOL0     O89455   7.039  10.743   5.026 -0.2072  0.3396  0.5979
  649MOL0     C89456   7.126  10.631   5.055 -1.2540  0.0679 -0.3096
  649MOL0     C89457   7.130  10.527   4.954 -0.5870 -0.0014 -0.2376
  649MOL0     C89458   7.217  10.419   4.985 -0.1907 -0.3107 -0.7432
  649MOL0     C89459   7.306  10.417   5.092  0.5592  0.5227  0.4001
  649MOL0     O89460   7.396  10.316   5.104  0.6893  0.4042  0.0943
  649MOL0     C89461   7.532  10.356   5.097 -1.0695 -0.0808 -0.0078
  649MOL0     C89462   7.632  10.252   5.057  0.7124 -0.1109  0.0218
  649MOL0     C89463   7.627  10.121   5.132  0.4243 -0.4566 -0.6077
  649MOL0     C89464   7.697   9.998   5.062  0.3999 -0.4834 -1.0544
  649MOL0     C89465   7.854  10.003   5.041  0.5179  0.6944  0.1206
  649MOL0     C89466   7.922   9.877   4.999  0.3275  0.9860  0.2497
  649MOL0     C89467   8.074   9.894   4.973  0.0204 -0.0125  1.1383
  649MOL0     C89468   8.180   9.811   5.034 -0.5590  0.2462  0.6049
  649MOL0    Cl89469   8.146   9.638   5.010 -0.6972  0.0004 -0.5530
  649MOL0     C89470   7.319  10.520   5.182  1.2386 -0.9443 -0.2944
  649MOL0     C89471   7.229  10.637   5.159 -0.2757  0.4871  0.1807
  649MOL0     O89472   7.114  10.789   4.813 -0.0288 -0.1383 -0.5767
  649MOL0     C89473   6.946  10.999   5.048  0.5878 -0.2965  1.2065
  649MOL0     C89474   6.905  11.127   5.079  0.2505 -0.4810 -0.8056
  649MOL0     N89475   6.528  11.915   5.011 -0.8719  0.5710  0.2435
  649MOL0     N89476   6.470  12.030   5.047  0.4072  0.5613 -0.3215
  649MOL0     C89477   6.899  11.820   5.798  0.3367  0.8049 -0.1229
  649MOL0     C89478   6.930  11.701   5.864 -0.8816  0.1580 -0.3101
  649MOL0     C89479   7.013  11.413   6.216  1.1659  0.8582  0.0798
  649MOL0     C89480   7.143  11.412   6.162 -0.3014 -0.7743  0.4024
  649MOL0     C89481   7.246  11.329   6.200  0.3218 -0.6808 -0.6042
  649MOL0     C89482   7.224  11.231   6.298  0.0334 -0.6553 -0.3108
  649MOL0     O89483   7.335  11.161   6.330 -0.3533  0.5721  0.0622
  649MOL0     C89484   7.363  11.182   6.464 -0.4951  0.0349 -0.4471
  649MOL0     C89485   7.484  11.086   6.498  0.5080 -0.2244  0.2195
  649MOL0     C89486   7.613  11.106   6.419  0.6864 -0.4521  0.2516
  649MOL0     C89487   7.681  11.233   6.446  0.4945 -0.5823 -0.3125
  649MOL0     C89488   7.653  11.336   6.345  0.9556 -0.9950  0.3496
  649MOL0     C89489   7.627  11.423   6.262 -0.1851  0.8620 -0.1001
  649MOL0     C89490   7.101  11.225   6.359  0.3152  0.0331  0.4746
  649MOL0     C89491   6.992  11.312   6.316  0.5085 -0.2386  0.0193
  649MOL0     C89492   6.858  11.295   6.385 -0.2108 -0.0685 -0.0797
  649MOL0     H89493   6.735  11.728   6.129 -4.3033  0.3685 -1.9339
  649MOL0     H89494   6.670  11.941   6.005  0.2436  0.3027 -2.0947
  649MOL0     H89495   6.952  12.113   5.857 -1.5417 -2.8773  1.2506
  649MOL0     H89496   6.832  12.203   5.933 -0.4567 -1.2743  0.1547
  649MOL0     H89497   6.914  12.339   5.742 -2.8473  0.5977  1.7793
  649MOL0     H89498   6.860  12.202   5.631 -3.6599 -2.7763 -0.1193
  649MOL0     H89499   6.653  12.240   5.815  3.7165 -0.8605  0.7283
  649MOL0     H89500   6.681  12.404   5.772 -1.6627 -0.2864  1.1199
  649MOL0     H89501   6.666  12.361   5.531 -1.7304 -0.6871 -2.3356
  649MOL0     H89502   6.673  12.182   5.559  1.2267  0.7672  1.3801
  649MOL0     H89503   6.445  12.365   5.642  1.4455  0.3876  2.1729
  649MOL0     H89504   6.452  12.186   5.668  2.1857 -1.0680  0.2426
  649MOL0     H89505   6.299  12.253   5.472 -0.9091 -1.8523 -1.8608
  649MOL0     H89506   6.454  12.343   5.404  2.5309 -1.7949 -1.1726
  649MOL0     H89507   6.449  12.044   5.449  2.1991 -0.6309 -1.7804
  649MOL0     H89508   6.547  12.140   5.339  1.0939  0.9589  0.1934
  649MOL0     H89509   6.268  12.047   5.313 -0.1830 -0.3688 -0.0861
  649MOL0     H89510   6.331  12.177   5.204  1.4271 -1.5407 -2.5306
  649MOL0     H89511   6.388  11.805   5.275 -1.4156 -1.5305 -2.6461
  649MOL0     H89512   6.476  11.628   5.009 -2.3122  0.9123  2.1426
  649MOL0     H89513   6.525  11.609   5.187 -0.8313  0.8848 -0.1041
  649MOL0     H89514   6.718  11.696   4.974  1.8777  0.1877  2.5389
  649MOL0     H89515   6.746  11.642   5.131 -3.1033  1.6430  1.3589
  649MOL0     H89516   6.673  11.404   5.076  2.2480 -0.7662 -1.1577
  649MOL0     H89517   6.618  11.482   4.915  2.6097 -1.2856 -4.1725
  649MOL0     H89518   6.828  11.400   4.840  0.5585  1.2355 -0.3186
  649MOL0     H89519   6.892  11.536   4.914  0.9516 -0.4788 -3.1887
  649MOL0     H89520   7.023  11.275   4.806  1.6859  1.0660  3.0535
  649MOL0     H89521   7.005  11.087   4.614  3.0188  4.3620 -1.1328
  649MOL0     H89522   7.104  10.950   4.664  1.0994 -0.1724  0.9549
  649MOL0     H89523   7.175  11.110   4.684  0.4240 -0.5309 -1.6953
  649MOL0     H89524   7.070  10.533   4.864 -0.2084 -0.1614 -0.5024
  649MOL0     H89525   7.231  10.330   4.923  1.8482 -3.0964  3.2345
  649MOL0     H89526   7.544  10.441   5.029 -1.1675 -2.3107 -3.0168
  649MOL0     H89527   7.554  10.382   5.201  0.9215 -2.6596  0.3103
  649MOL0     H89528   7.607  10.237   4.952  4.8613  0.6654 -1.2869
  649MOL0     H89529   7.733  10.294   5.050  0.0065  1.3328 -2.5811
  649MOL0     H89530   7.523  10.092   5.123  0.0736  0.6519 -0.3298
  649MOL0     H89531   7.662  10.128   5.236  1.0722  3.2884 -0.9236
  649MOL0     H89532   7.644   9.979   4.969 -1.8905  1.5268 -0.2493
  649MOL0     H89533   7.673   9.917   5.133 -1.4996  3.0985  2.8438
  649MOL0     H89534   7.865  10.079   4.963 -1.3893  4.9448  3.5239
  649MOL0     H89535   7.902  10.047   5.129  0.0787 -1.4219  1.5027
  649MOL0     H89536   7.881   9.854   4.901  4.4143 -0.0363 -1.4159
  649MOL0     H89537   7.918   9.790   5.066 -0.2863  1.3796  0.7294
  649MOL0     H89538   8.096  10.000   4.991 -2.1928  1.4261 -3.1276
  649MOL0     H89539   8.083   9.888   4.864  0.9951 -0.5091  1.2431
  649MOL0     H89540   8.198   9.840   5.138  0.3354  1.7323  0.0802
  649MOL0     H89541   8.273   9.821   4.977 -0.3295 -1.7773  0.5391
  649MOL0     H89542   7.389  10.532   5.263  0.2105  1.8523  0.2884
  649MOL0     H89543   7.238  10.718   5.230  2.1888 -0.7898  1.4578
  649MOL0     H89544   6.942  10.926   5.129  0.2613 -1.4460  0.1908
  649MOL0     H89545   6.862  11.163   5.172  0.2174 -2.5140  0.0245
  649MOL0     H89546   6.940  11.848   5.701 -0.9542  1.0667 -0.6146
  649MOL0     H89547   6.981  11.630   5.799  0.5956  0.7553  0.1476
  649MOL0     H89548   7.171  11.496   6.099  1.1491  2.2839  4.6598
  649MOL0     H89549   7.341  11.337   6.147  0.7685  0.0459  0.2766
  649MOL0     H89550   7.388  11.284   6.495  0.0543 -0.9148  2.5724
  649MOL0     H89551   7.275  11.153   6.523 -0.5704  1.4932  0.2160
  649MOL0     H89552   7.460  10.982   6.477  1.0457 -0.7654  2.1200
  649MOL0     H89553   7.503  11.090   6.606 -3.3975 -2.6780  1.1976
  649MOL0     H89554   7.685  11.031   6.453  1.4450 -0.8901 -2.1615
  649MOL0     H89555   7.587  11.089   6.314  0.8760 -1.4551  0.3630
  649MOL0     H89556   7.788  11.213   6.444  0.4073 -0.9812 -1.6868
  649MOL0     H89557   7.646  11.268   6.544  0.2051 -1.2690 -0.1659
  649MOL0     H89558   7.608  11.493   6.183  1.2960  2.4073  0.8391
  649MOL0     H89559   7.083  11.142   6.425  1.1213  1.4375  2.5521
  649MOL0     H89560   6.777  11.289   6.312  0.6829 -0.5839 -1.0514
  649MOL0     H89561   6.847  11.199   6.437 -0.5423  1.3479  2.6535
  649MOL0     H89562   6.833  11.378   6.452  0.9524  1.1089 -1.0384
  650MOL0     O89563   7.165   4.242   3.748 -0.1593  0.4456 -0.2266
  650MOL0     C89564   7.155   4.364   3.766  0.3787  0.3027 -1.1258
  650MOL0     O89565   7.086   4.415   3.875 -0.5006 -0.0479  0.0755
  650MOL0     C89566   7.030   4.337   3.967  1.0966  0.0027  0.8427
  650MOL0     C89567   7.066   4.359   4.097  0.1734  1.0085 -0.4018
  650MOL0     C89568   6.995   4.291   4.205 -0.7930 -0.6643  0.6306
  650MOL0     C89569   6.885   4.214   4.176 -1.5973  0.4215 -0.2656
  650MOL0     O89570   6.846   4.139   4.284  0.1348 -0.0708  1.1996
  650MOL0     C89571   6.736   4.050   4.260  0.6436  0.7949 -0.2107
  650MOL0     C89572   6.687   4.021   4.399 -0.7992  0.1935  0.6483
  650MOL0     C89573   6.562   3.937   4.393  0.2500  0.2889 -0.1483
  650MOL0     C89574   6.598   3.783   4.357 -0.1039 -0.2790  0.2213
  650MOL0     C89575   6.488   3.677   4.377 -0.5863  0.6599  0.4844
  650MOL0     C89576   6.536   3.534   4.356 -0.4313 -0.2661  0.2014
  650MOL0     C89577   6.441   3.440   4.420 -0.0641  0.0187 -0.4162
  650MOL0     C89578   6.427   3.308   4.351 -1.2348  0.5049 -0.9403
  650MOL0     N89579   6.343   3.204   4.425  0.3923 -0.0535  0.0903
  650MOL0     C89580   6.218   3.233   4.475  0.1184 -0.1999 -0.4582
  650MOL0     C89581   6.180   3.127   4.540 -0.2539  0.4966 -1.1066
  650MOL0     C89582   6.044   3.105   4.610  0.4189 -0.5105 -1.2399
  650MOL0     C89583   6.060   3.106   4.762 -0.4716 -1.1555  0.0027
  650MOL0     C89584   6.088   3.247   4.825  0.9528 -0.1927  0.4010
  650MOL0     C89585   6.233   3.298   4.823  0.6250 -0.5894  1.1592
  650MOL0     O89586   6.310   3.246   4.926 -0.4701  0.0218  0.0666
  650MOL0     C89587   6.298   3.277   5.060 -0.5441  0.6865  0.2116
  650MOL0     C89588   6.204   3.370   5.100 -0.7117 -0.2368 -0.4599
  650MOL0     C89589   6.167   3.392   5.229 -0.4451 -0.2681 -1.5289
  650MOL0     C89590   6.072   3.505   5.260  0.4222 -0.1659 -0.1140
  650MOL0     C89591   6.240   3.321   5.328 -0.0948  0.2395 -0.1472
  650MOL0     C89592   6.206   3.338   5.479  0.2185 -0.2741 -0.3659
  650MOL0     O89593   6.286   3.274   5.580 -0.0884 -0.0553  0.2937
  650MOL0     C89594   6.261   3.270   5.718 -0.7450 -0.2323 -0.1215
  650MOL0     C89595   6.139   3.269   5.782  0.8473  0.0039  0.0432
  650MOL0     C89596   6.125   3.297   5.923 -1.0095 -0.2109  0.4656
  650MOL0     C89597   6.244   3.301   6.003  0.7993 -0.0889 -0.1179
  650MOL0     O89598   6.241   3.325   6.136 -0.1676 -0.3035  0.5805
  650MOL0     C89599   6.132   3.298   6.216 -0.6032  0.4755 -0.2109
  650MOL0     C89600   6.042   3.423   6.223  0.7437 -0.0995  0.3001
  650MOL0     C89601   6.057   3.507   6.352 -0.8886 -0.8780  0.8439
  650MOL0     C89602   6.202   3.536   6.375 -0.7391 -1.0652  0.4402
  650MOL0     C89603   6.235   3.670   6.445 -0.8265  0.3662  0.2633
  650MOL0     C89604   6.173   3.665   6.591  0.5595 -0.0454  0.2467
  650MOL0     C89605   6.172   3.806   6.659  0.6488 -0.2276 -0.1215
  650MOL0     C89606   6.100   3.819   6.800 -0.2680  0.9804  0.0102
  650MOL0    Cl89607   6.001   3.666   6.830 -0.0494  0.1029 -0.1810
  650MOL0     C89608   6.365   3.283   5.945  1.3254  0.7803  0.0711
  650MOL0     C89609   6.376   3.271   5.806 -0.2951  1.0520  0.2593
  650MOL0     O89610   6.092   3.379   5.500 -0.7103  0.5162 -0.3302
  650MOL0     C89611   6.348   3.232   5.294  0.1062 -0.2371 -0.2874
  650MOL0     C89612   6.370   3.209   5.160  0.0175  0.9330  0.6861
  650MOL0     N89613   6.270   3.019   4.515 -0.1375 -0.5951  0.5619
  650MOL0     N89614   6.372   3.069   4.440 -0.1408  0.4121 -0.5847
  650MOL0     C89615   6.849   4.193   4.036 -0.5893 -0.1833 -0.5443
  650MOL0     C89616   6.929   4.248   3.937 -0.0359 -0.7948  0.1474
  650MOL0     C89617   7.240   4.468   3.691  0.3877  0.7427  0.6565
  650MOL0     C89618   7.365   4.431   3.621  1.1422 -0.6542  0.2482
  650MOL0     C89619   7.445   4.533   3.562 -0.4627  0.7494  0.0202
  650MOL0     C89620   7.410   4.670   3.570 -0.0972 -0.1527  0.7229
  650MOL0     O89621   7.480   4.779   3.526  0.6478  0.1474  0.8895
  650MOL0     C89622   7.607   4.759   3.471 -0.3596 -0.2320  0.4090
  650MOL0     C89623   7.683   4.885   3.499  0.6261 -0.2154 -0.8681
  650MOL0     C89624   7.765   4.890   3.637 -0.6860  0.0541  0.4294
  650MOL0     C89625   7.694   4.955   3.758  1.1707 -0.3352  0.1806
  650MOL0     C89626   7.789   4.956   3.869 -0.9672 -0.7007 -0.1668
  650MOL0     C89627   7.881   4.988   3.950  0.9488  0.0975 -0.1538
  650MOL0     C89628   7.300   4.703   3.652 -0.5125 -0.4531  0.9052
  650MOL0     C89629   7.213   4.611   3.707 -0.5808  0.2123  0.4020
  650MOL0     C89630   7.105   4.674   3.797 -0.9947 -0.0541  0.4656
  650MOL0     H89631   7.149   4.427   4.116 -1.4821  3.0179 -0.0733
  650MOL0     H89632   7.016   4.289   4.311 -3.4667 -1.0843  1.2303
  650MOL0     H89633   6.761   3.961   4.202 -0.1556 -2.3902  3.8225
  650MOL0     H89634   6.657   4.106   4.209  1.2274  1.6169 -0.2285
  650MOL0     H89635   6.763   3.967   4.456 -0.2855  1.6116  1.3549
  650MOL0     H89636   6.664   4.110   4.458 -1.7223 -0.4140  1.2407
  650MOL0     H89637   6.505   3.931   4.486  1.4742 -1.5862  0.5311
  650MOL0     H89638   6.494   3.977   4.317  0.2694 -1.7219 -1.2950
  650MOL0     H89639   6.637   3.763   4.257 -2.4529 -2.7388 -0.3247
  650MOL0     H89640   6.677   3.753   4.427 -1.8735  0.7320  2.8094
  650MOL0     H89641   6.411   3.704   4.303 -0.2463  0.0236 -0.1164
  650MOL0     H89642   6.438   3.686   4.474  0.7051 -0.0817  1.2442
  650MOL0     H89643   6.555   3.515   4.250 -1.0261 -0.1690  0.0740
  650MOL0     H89644   6.631   3.513   4.406 -1.3081 -1.4136  1.4770
  650MOL0     H89645   6.339   3.481   4.423 -0.0755 -0.0447  0.5062
  650MOL0     H89646   6.466   3.418   4.525 -1.9122 -0.2660  0.0135
  650MOL0     H89647   6.391   3.322   4.248  1.6126 -1.0994 -2.2801
  650MOL0     H89648   6.530   3.273   4.340 -2.0720 -2.2519 -0.5753
  650MOL0     H89649   6.157   3.322   4.477 -0.6422 -0.6396 -2.2489
  650MOL0     H89650   6.001   3.016   4.563 -1.7832 -0.4041  0.4305
  650MOL0     H89651   5.977   3.189   4.585 -1.0183 -1.3756 -0.4124
  650MOL0     H89652   5.976   3.061   4.816 -2.1133  0.1098 -1.3876
  650MOL0     H89653   6.146   3.043   4.788  0.1669 -0.1930  0.2622
  650MOL0     H89654   6.044   3.317   4.753 -0.4457 -0.8502  0.5833
  650MOL0     H89655   6.044   3.245   4.925 -1.1534  1.3457 -0.4150
  650MOL0     H89656   6.292   3.277   4.733  0.4129  0.2629  0.8101
  650MOL0     H89657   6.236   3.407   4.832  0.0913 -0.6692  2.5323
  650MOL0     H89658   6.147   3.432   5.032 -1.2881 -1.0422 -0.7253
  650MOL0     H89659   6.067   3.570   5.173 -3.3238  0.6771  0.5630
  650MOL0     H89660   6.097   3.571   5.344 -2.5007  2.0597 -0.8505
  650MOL0     H89661   5.970   3.474   5.284 -0.1739  2.3893  1.0027
  650MOL0     H89662   6.044   3.283   5.730  0.0086 -0.4736  1.3971
  650MOL0     H89663   6.031   3.335   5.963 -1.4133 -1.2104  0.4922
  650MOL0     H89664   6.071   3.214   6.180 -2.2166  0.5495  2.0631
  650MOL0     H89665   6.177   3.277   6.314  1.6343  3.8622 -0.3840
  650MOL0     H89666   6.067   3.486   6.137 -1.1418 -0.9707 -0.9485
  650MOL0     H89667   5.943   3.381   6.203  0.8173 -0.6408  1.0395
  650MOL0     H89668   6.006   3.455   6.434 -4.3383  0.0809 -0.5221
  650MOL0     H89669   6.004   3.601   6.333  2.1989  0.3717 -2.7427
  650MOL0     H89670   6.242   3.539   6.274 -2.1580 -0.7360 -0.1360
  650MOL0     H89671   6.247   3.462   6.442  1.7021 -0.5566 -0.5577
  650MOL0     H89672   6.344   3.677   6.451 -0.8311  0.6300  0.0714
  650MOL0     H89673   6.210   3.760   6.388 -0.6173 -0.0835 -0.5518
  650MOL0     H89674   6.238   3.597   6.647  0.6262 -1.5580 -1.5496
  650MOL0     H89675   6.074   3.617   6.584  1.6316 -2.1850 -1.8316
  650MOL0     H89676   6.126   3.876   6.588 -0.6855  1.6785  2.4848
  650MOL0     H89677   6.273   3.847   6.669  1.0375 -0.1790 -3.2484
  650MOL0     H89678   6.037   3.908   6.806 -1.8727 -0.0795 -0.5000
  650MOL0     H89679   6.165   3.837   6.886 -3.2250  1.1570  2.3832
  650MOL0     H89680   6.456   3.281   6.005  1.6086  0.2306 -0.3661
  650MOL0     H89681   6.475   3.268   5.761 -0.0428  0.3824  0.8490
  650MOL0     H89682   6.393   3.171   5.372 -3.2563 -2.1455  0.3685
  650MOL0     H89683   6.433   3.127   5.124  0.1619  1.1465  0.4447
  650MOL0     H89684   6.760   4.136   4.012 -2.8931  2.6742  0.6489
  650MOL0     H89685   6.891   4.235   3.836 -1.8814  1.8534  0.4040
  650MOL0     H89686   7.388   4.325   3.615 -4.5484 -2.1535 -0.7807
  650MOL0     H89687   7.535   4.514   3.504  0.1312  1.6302  0.6136
  650MOL0     H89688   7.652   4.667   3.511 -3.4627 -1.6793  0.9294
  650MOL0     H89689   7.585   4.749   3.365 -0.4897  0.0333  0.4098
  650MOL0     H89690   7.613   4.970   3.496 -1.0755 -1.3278  2.4496
  650MOL0     H89691   7.758   4.908   3.423  0.3859  3.8826 -0.1136
  650MOL0     H89692   7.809   4.791   3.656  2.6989  0.9733 -1.8524
  650MOL0     H89693   7.855   4.949   3.622 -0.8887  1.1011  2.8333
  650MOL0     H89694   7.605   4.901   3.792  0.7287  1.2080  1.6151
  650MOL0     H89695   7.653   5.053   3.732  1.9987  0.0735  0.3971
  650MOL0     H89696   7.958   5.018   4.018 -0.2831 -1.4062  2.0312
  650MOL0     H89697   7.275   4.807   3.668 -2.0613  0.3483 -4.5168
  650MOL0     H89698   7.009   4.624   3.784 -1.7445  1.3643  0.4081
  650MOL0     H89699   7.146   4.666   3.899  1.7050 -2.3222 -0.6687
  650MOL0     H89700   7.088   4.781   3.784 -0.2916  0.1665  1.2238
  651MOL0     O89701   8.360   4.956   3.018  1.0041  0.0147  0.3019
  651MOL0     C89702   8.441   4.961   2.929 -0.0223  0.0109 -0.4825
  651MOL0     O89703   8.503   5.076   2.885  0.0763 -0.4623 -0.1516
  651MOL0     C89704   8.452   5.206   2.908 -0.9194  0.7407 -0.0290
  651MOL0     C89705   8.524   5.315   2.948 -0.4663  0.3207  0.8960
  651MOL0     C89706   8.462   5.440   2.969 -0.5223 -0.4717 -0.1427
  651MOL0     C89707   8.322   5.458   2.942  0.0077  0.3555 -0.0851
  651MOL0     O89708   8.255   5.577   2.963 -0.4989 -0.0293 -0.4760
  651MOL0     C89709   8.121   5.567   3.016  0.1219 -0.6622 -0.0077
  651MOL0     C89710   8.085   5.685   3.110 -0.8422 -0.0100  0.5564
  651MOL0     C89711   8.073   5.816   3.028  0.2609 -0.5300  0.4560
  651MOL0     C89712   7.925   5.822   2.968 -0.6344 -0.2564 -0.1824
  651MOL0     C89713   7.889   5.953   2.894  0.7573 -0.8431 -0.0647
  651MOL0     C89714   7.824   6.045   3.004  0.3069  0.2732 -0.0748
  651MOL0     C89715   7.678   6.026   3.024  0.1487  0.0950  0.3356
  651MOL0     C89716   7.596   6.095   2.915  0.7096 -0.7481 -0.9594
  651MOL0     N89717   7.455   6.039   2.918  1.0806 -0.2696 -0.2053
  651MOL0     C89718   7.328   6.108   2.932  0.6363  0.0488 -0.4187
  651MOL0     C89719   7.234   6.009   2.915  0.7472  0.4419 -0.3317
  651MOL0     C89720   7.088   6.022   2.913  0.2145  0.2418  0.5272
  651MOL0     C89721   7.040   6.122   2.793 -0.6345  0.3240  0.0786
  651MOL0     C89722   6.895   6.129   2.794  1.2048  0.2986 -0.2678
  651MOL0     C89723   6.820   6.007   2.738  0.4848 -0.1544 -0.7275
  651MOL0     O89724   6.674   6.018   2.735  0.0738 -0.0539 -0.0410
  651MOL0     C89725   6.590   5.918   2.684 -0.3617 -0.3381 -0.3274
  651MOL0     C89726   6.459   5.950   2.668  0.3662  0.0074 -0.3399
  651MOL0     C89727   6.370   5.854   2.611  0.9226 -0.3007  0.1082
  651MOL0     C89728   6.229   5.897   2.605  0.7025  0.2802 -0.6093
  651MOL0     C89729   6.422   5.737   2.548  0.3124 -0.5936  0.0610
  651MOL0     C89730   6.325   5.649   2.471  0.5769 -0.5006 -0.1373
  651MOL0     O89731   6.397   5.585   2.370  0.9789  0.3650 -0.1340
  651MOL0     C89732   6.334   5.506   2.281  0.1423  0.6333  0.6773
  651MOL0     C89733   6.370   5.515   2.151 -0.4182  0.3478  0.2861
  651MOL0     C89734   6.317   5.434   2.060 -0.0901 -0.4904  0.4605
  651MOL0     C89735   6.213   5.346   2.086  0.4369 -0.4997  0.4938
  651MOL0     O89736   6.146   5.274   1.984 -0.2197 -0.3978  0.8992
  651MOL0     C89737   6.215   5.254   1.862  0.1251 -0.2194 -0.5619
  651MOL0     C89738   6.172   5.134   1.774  0.8256 -0.5961  0.7305
  651MOL0     C89739   6.020   5.145   1.724 -0.1542  1.0630  0.8105
  651MOL0     C89740   5.971   5.049   1.606 -0.7566 -0.5984 -1.2732
  651MOL0     C89741   6.041   5.079   1.472 -0.9370  0.1188 -0.2473
  651MOL0     C89742   6.021   4.959   1.381  0.4451  0.1623 -1.1674
  651MOL0     C89743   6.073   4.983   1.240  0.2851 -0.2918 -0.2610
  651MOL0     C89744   6.012   4.882   1.155  0.6293  0.3572  0.7745
  651MOL0    Cl89745   6.071   4.901   0.991  0.1385  0.0135 -0.2005
  651MOL0     C89746   6.170   5.327   2.226 -0.6452  0.4245 -0.4275
  651MOL0     C89747   6.243   5.408   2.319 -1.0624 -0.0026  0.1696
  651MOL0     O89748   6.206   5.646   2.489 -0.7841  0.4438  0.0144
  651MOL0     C89749   6.558   5.708   2.564 -0.3474  0.0930 -0.3233
  651MOL0     C89750   6.640   5.800   2.630  0.5085  0.4565  0.2308
  651MOL0     N89751   7.297   5.898   2.867 -0.3934  0.0161 -0.4353
  651MOL0     N89752   7.425   5.920   2.868 -0.6141  0.8993  0.1710
  651MOL0     C89753   8.250   5.347   2.891 -0.4193  0.0289  0.5656
  651MOL0     C89754   8.317   5.224   2.877 -0.0496  1.0770  0.9654
  651MOL0     C89755   8.487   4.830   2.875 -0.8749 -0.2413 -1.0214
  651MOL0     C89756   8.544   4.834   2.740  0.4263 -0.1480  0.3329
  651MOL0     C89757   8.593   4.718   2.683  0.2089  0.7869  0.8042
  651MOL0     C89758   8.600   4.601   2.751 -0.0135  0.2205  0.0022
  651MOL0     O89759   8.667   4.494   2.688 -0.2442 -0.3291 -0.3278
  651MOL0     C89760   8.647   4.360   2.739  0.2548 -0.3184  0.8842
  651MOL0     C89761   8.504   4.301   2.709  0.8369 -0.9928  0.4892
  651MOL0     C89762   8.483   4.170   2.786 -0.8401 -0.0725 -0.1944
  651MOL0     C89763   8.439   4.202   2.939  0.3242 -0.4905  0.4253
  651MOL0     C89764   8.320   4.278   2.952 -0.2304  0.3152 -0.4051
  651MOL0     C89765   8.207   4.329   2.961 -0.4820 -0.3224  0.6623
  651MOL0     C89766   8.552   4.598   2.884  1.4937 -0.1598  1.2698
  651MOL0     C89767   8.492   4.711   2.947  0.5495 -0.1889  0.7364
  651MOL0     C89768   8.451   4.689   3.086  0.1216 -0.2531  0.2502
  651MOL0     H89769   8.620   5.286   2.990 -0.6885  0.7345  1.7055
  651MOL0     H89770   8.516   5.518   3.022 -2.3890  1.4622 -0.9480
  651MOL0     H89771   8.108   5.477   3.077 -2.0695 -0.0041  0.6126
  651MOL0     H89772   8.047   5.567   2.935  0.3672  0.2895 -0.2404
  651MOL0     H89773   7.984   5.665   3.147 -1.1008 -0.1942 -0.2292
  651MOL0     H89774   8.158   5.693   3.191  1.7603  0.5547 -1.6818
  651MOL0     H89775   8.081   5.886   3.112  1.6166 -2.1243  1.7246
  651MOL0     H89776   8.158   5.836   2.962 -0.8216 -1.6740 -1.3813
  651MOL0     H89777   7.918   5.738   2.899  3.2481 -1.7018  0.9344
  651MOL0     H89778   7.857   5.809   3.053  0.2709  1.2120  0.8262
  651MOL0     H89779   7.831   5.940   2.802  2.7601 -2.1476 -1.1945
  651MOL0     H89780   7.979   5.997   2.850 -0.2820  0.8673 -0.6150
  651MOL0     H89781   7.866   6.029   3.104 -0.6391 -2.3400 -0.0068
  651MOL0     H89782   7.846   6.149   2.979 -2.3694 -0.0146 -4.9832
  651MOL0     H89783   7.663   6.068   3.124  1.8316  2.3477 -0.2712
  651MOL0     H89784   7.657   5.919   3.025  0.1631  0.0504 -1.4034
  651MOL0     H89785   7.588   6.203   2.928 -1.0227 -0.7952 -1.4254
  651MOL0     H89786   7.632   6.079   2.813  0.8371  0.6559 -1.1517
  651MOL0     H89787   7.319   6.208   2.974  1.3862  0.2469 -0.7052
  651MOL0     H89788   7.053   6.055   3.012  3.1685  2.3795  1.0107
  651MOL0     H89789   7.056   5.919   2.899 -1.6356  1.0549 -1.9995
  651MOL0     H89790   7.085   6.221   2.803 -2.8208  1.5317 -1.1666
  651MOL0     H89791   7.085   6.076   2.705  0.6567 -0.3431  1.0629
  651MOL0     H89792   6.856   6.150   2.894  1.6733 -0.6073  0.1197
  651MOL0     H89793   6.872   6.223   2.743  1.1903  0.7348  0.5223
  651MOL0     H89794   6.845   5.979   2.635 -2.2208  2.0219 -2.1177
  651MOL0     H89795   6.840   5.918   2.799 -0.8025  0.0368  0.0066
  651MOL0     H89796   6.416   6.041   2.709  1.2517 -0.4202  1.6107
  651MOL0     H89797   6.160   5.820   2.638  1.3638 -0.7832 -1.6554
  651MOL0     H89798   6.197   5.915   2.502  0.3801  0.9762 -0.3948
  651MOL0     H89799   6.207   5.987   2.664 -3.0807 -0.4897 -0.6092
  651MOL0     H89800   6.443   5.591   2.125  0.9416 -0.1366  2.4542
  651MOL0     H89801   6.347   5.447   1.956 -0.8351 -0.3707  0.2556
  651MOL0     H89802   6.236   5.346   1.807  3.6287 -0.1986  0.5957
  651MOL0     H89803   6.317   5.223   1.887  0.4529  1.3068  0.0614
  651MOL0     H89804   6.236   5.136   1.685 -1.2352  1.9786 -0.8534
  651MOL0     H89805   6.188   5.041   1.830 -3.7221 -0.1275  3.2691
  651MOL0     H89806   6.005   5.243   1.676  2.0267  1.8472  1.5496
  651MOL0     H89807   5.953   5.122   1.807 -1.4793 -0.2205 -0.5614
  651MOL0     H89808   5.869   5.082   1.585 -0.1762  1.7992 -0.5848
  651MOL0     H89809   5.961   4.943   1.633 -1.1135 -0.1715  0.3943
  651MOL0     H89810   5.982   5.164   1.439 -0.9969 -0.6366 -2.2013
  651MOL0     H89811   6.148   5.090   1.496 -1.0144 -0.3063  0.3187
  651MOL0     H89812   5.913   4.942   1.389  0.3767  1.3584  3.9714
  651MOL0     H89813   6.082   4.884   1.432 -0.0047 -1.1577 -2.4985
  651MOL0     H89814   6.182   4.986   1.252  0.0821  4.7916  5.3619
  651MOL0     H89815   6.049   5.083   1.203  0.9652  0.4649  1.2256
  651MOL0     H89816   5.904   4.896   1.148  0.1882 -1.7117  2.5647
  651MOL0     H89817   6.039   4.778   1.175  0.0731  0.0339 -0.0812
  651MOL0     H89818   6.088   5.262   2.254  0.3183 -0.4568  0.3987
  651MOL0     H89819   6.221   5.391   2.424 -0.4945  2.1882  0.6904
  651MOL0     H89820   6.600   5.617   2.523 -1.8463  0.1058 -2.0540
  651MOL0     H89821   6.744   5.776   2.649  0.4848 -2.1620 -2.2031
  651MOL0     H89822   8.145   5.358   2.864 -1.1074 -4.0057  0.9176
  651MOL0     H89823   8.261   5.142   2.833 -1.0877  0.8248  2.6442
  651MOL0     H89824   8.552   4.924   2.680  1.0830 -1.6323 -1.9451
  651MOL0     H89825   8.639   4.737   2.586  0.3928  0.0490  0.7425
  651MOL0     H89826   8.720   4.297   2.688  0.1131  0.4522 -0.3302
  651MOL0     H89827   8.658   4.353   2.847  2.0598  0.5996  0.7950
  651MOL0     H89828   8.490   4.279   2.602 -0.2251  0.7990  0.2170
  651MOL0     H89829   8.429   4.375   2.738  1.6963  0.5661 -1.1162
  651MOL0     H89830   8.418   4.104   2.728 -0.0618  0.1832 -1.4050
  651MOL0     H89831   8.580   4.119   2.792  0.1010  1.6351 -0.2113
  651MOL0     H89832   8.517   4.262   2.987 -1.3000 -0.2169  2.8650
  651MOL0     H89833   8.430   4.105   2.987 -1.7346 -2.7107 -3.8963
  651MOL0     H89834   8.107   4.368   2.960 -1.4515 -2.6620 -0.2557
  651MOL0     H89835   8.561   4.510   2.947  1.2399  0.7615  2.6563
  651MOL0     H89836   8.346   4.712   3.107  0.2832  1.3444 -0.5207
  651MOL0     H89837   8.471   4.586   3.116  0.3818 -0.1500  0.4403
  651MOL0     H89838   8.520   4.759   3.135 -0.7947  1.7493 -1.1986
  652MOL0     O89839   2.437   3.933   6.604  0.7574  0.5622  0.4239
  652MOL0     C89840   2.464   3.823   6.666  0.8386 -0.2775  0.5073
  652MOL0     O89841   2.521   3.818   6.781 -0.0921 -0.4609  0.0192
  652MOL0     C89842   2.594   3.919   6.850 -0.0090 -0.2953  0.0690
  652MOL0     C89843   2.603   3.902   6.991  0.4079  0.6178 -0.6362
  652MOL0     C89844   2.695   3.990   7.065  0.5213 -0.0279  0.3701
  652MOL0     C89845   2.775   4.091   7.001 -0.0752 -0.0103 -0.3931
  652MOL0     O89846   2.866   4.157   7.072 -0.7146  0.0965 -0.7432
  652MOL0     C89847   2.925   4.273   7.012 -0.5508 -0.0628  0.1210
  652MOL0     C89848   3.022   4.335   7.106  0.8630 -0.9992 -1.0178
  652MOL0     C89849   3.080   4.464   7.045 -0.5324  0.2681  0.4057
  652MOL0     C89850   3.180   4.526   7.130 -0.2870  0.3209  0.2331
  652MOL0     C89851   3.222   4.656   7.072 -0.2887 -0.2922 -0.1314
  652MOL0     C89852   3.304   4.746   7.168  0.1845 -0.0661 -0.1885
  652MOL0     C89853   3.326   4.892   7.124  0.0438  0.1645 -0.0769
  652MOL0     C89854   3.236   4.993   7.200  0.4457  0.9496  0.3107
  652MOL0     N89855   3.274   5.127   7.156 -0.3152  0.0726 -0.4280
  652MOL0     C89856   3.183   5.225   7.138  0.4914  0.2815 -0.4674
  652MOL0     C89857   3.238   5.348   7.164 -0.4334  0.3619  0.3222
  652MOL0     C89858   3.182   5.481   7.145 -0.0429  0.2598 -0.6699
  652MOL0     C89859   3.183   5.567   7.273 -0.8381 -0.1923 -0.2294
  652MOL0     C89860   3.118   5.499   7.397  1.2418  0.6597 -0.7039
  652MOL0     C89861   2.958   5.496   7.387 -0.0701  0.7661  0.3308
  652MOL0     O89862   2.896   5.392   7.301  0.1579 -0.0379  0.1362
  652MOL0     C89863   2.902   5.257   7.339 -0.3816  0.0948  0.5682
  652MOL0     C89864   2.850   5.168   7.247 -0.1061 -0.4278 -0.2252
  652MOL0     C89865   2.864   5.027   7.263  0.4015  0.9340 -0.7861
  652MOL0     C89866   2.811   4.950   7.142 -0.2072 -0.3543  0.5848
  652MOL0     C89867   2.907   4.985   7.401  0.4743 -1.3349 -0.0630
  652MOL0     C89868   2.911   4.840   7.445  1.2855 -0.9774  0.1775
  652MOL0     O89869   2.918   4.741   7.353  0.8893  0.6157 -0.3923
  652MOL0     C89870   2.910   4.610   7.402 -0.2014  0.0728 -0.7455
  652MOL0     C89871   2.805   4.535   7.347  0.2399 -0.1394 -0.1782
  652MOL0     C89872   2.791   4.397   7.384 -0.0340 -0.4118  0.4432
  652MOL0     C89873   2.869   4.341   7.489 -0.1554  0.2610 -0.6292
  652MOL0     O89874   2.849   4.208   7.525  0.0527 -0.1163  0.0044
  652MOL0     C89875   2.712   4.170   7.557 -0.1147 -0.4796 -0.1993
  652MOL0     C89876   2.711   4.035   7.630 -0.5000  0.2964 -0.3521
  652MOL0     C89877   2.647   3.920   7.550 -0.0390 -0.0274 -0.0567
  652MOL0     C89878   2.714   3.784   7.598  0.1141  0.9752  0.1581
  652MOL0     C89879   2.686   3.659   7.508  0.1259  0.0393  0.3918
  652MOL0     C89880   2.787   3.627   7.407  1.1686 -0.6174 -0.5989
  652MOL0     C89881   2.739   3.504   7.321 -0.1131  0.0188  0.0065
  652MOL0     C89882   2.835   3.474   7.213 -1.0336 -0.6086 -0.5838
  652MOL0    Cl89883   2.792   3.328   7.130 -0.0982  0.1845 -0.4533
  652MOL0     C89884   2.966   4.420   7.546  1.1077  0.1919 -0.2130
  652MOL0     C89885   2.987   4.553   7.505 -0.2075  0.1414  0.0885
  652MOL0     O89886   2.907   4.825   7.567 -0.1401 -0.2543 -0.1361
  652MOL0     C89887   2.945   5.086   7.494 -0.8514  0.2771  0.2782
  652MOL0     C89888   2.949   5.216   7.465 -0.4556 -0.8136  0.2657
  652MOL0     N89889   3.365   5.316   7.188 -0.1232 -0.9549  0.3040
  652MOL0     N89890   3.393   5.189   7.189  0.4159 -0.0783  0.2870
  652MOL0     C89891   2.754   4.113   6.863  0.7335  0.2136  0.1028
  652MOL0     C89892   2.664   4.021   6.792 -0.5548  0.6064  0.4178
  652MOL0     C89893   2.424   3.696   6.601 -0.3202 -0.9211  0.7890
  652MOL0     C89894   2.378   3.708   6.470 -0.2974  0.4239  0.2035
  652MOL0     C89895   2.340   3.598   6.391  0.6227  0.4784 -0.4485
  652MOL0     C89896   2.333   3.468   6.456 -0.7126 -0.0944 -0.1545
  652MOL0     O89897   2.275   3.361   6.385 -0.2234  0.1430 -0.0563
  652MOL0     C89898   2.246   3.231   6.451  0.3483  0.6665  0.8980
  652MOL0     C89899   2.364   3.134   6.418 -0.4321 -0.8864  0.3630
  652MOL0     C89900   2.337   3.059   6.294 -0.2731  0.4209  0.3087
  652MOL0     C89901   2.459   3.004   6.221 -1.1296 -0.7161  0.0713
  652MOL0     C89902   2.542   2.904   6.297 -0.0708  0.0772 -0.0406
  652MOL0     C89903   2.590   2.832   6.378  1.0074 -0.2284  0.0019
  652MOL0     C89904   2.385   3.455   6.591 -0.6263  0.9509  0.4483
  652MOL0     C89905   2.433   3.565   6.659  0.9545 -0.4733  0.5802
  652MOL0     C89906   2.460   3.545   6.800  0.1942  0.8596 -0.0897
  652MOL0     H89907   2.558   3.824   7.051  0.8591  1.8249  1.3555
  652MOL0     H89908   2.714   3.973   7.170 -1.1915 -0.2767  0.6716
  652MOL0     H89909   2.862   4.359   6.992  1.7068  2.0176  1.4229
  652MOL0     H89910   2.988   4.246   6.926  2.2572 -2.3598  2.6551
  652MOL0     H89911   2.962   4.360   7.194  0.2713  0.4525 -1.8115
  652MOL0     H89912   3.099   4.263   7.135  0.4254 -0.9025  0.4620
  652MOL0     H89913   3.133   4.444   6.951 -0.0041 -2.5207  1.2138
  652MOL0     H89914   2.998   4.533   7.024 -2.1802 -1.3622  1.1821
  652MOL0     H89915   3.151   4.527   7.236  1.5185 -0.1718  0.7781
  652MOL0     H89916   3.280   4.481   7.123  0.4489  2.1199 -2.4216
  652MOL0     H89917   3.129   4.713   7.060  0.7661  1.1628 -2.1038
  652MOL0     H89918   3.271   4.663   6.975 -0.4139 -1.9220 -0.3402
  652MOL0     H89919   3.249   4.744   7.262  0.5985 -0.3468  0.0454
  652MOL0     H89920   3.401   4.697   7.176 -0.8159 -1.8015  2.2318
  652MOL0     H89921   3.302   4.898   7.018 -0.8982  0.4483  0.1437
  652MOL0     H89922   3.433   4.915   7.128  0.3077 -0.8486 -1.0288
  652MOL0     H89923   3.131   4.974   7.178  0.4241 -1.2114  1.8753
  652MOL0     H89924   3.256   4.983   7.308 -2.4030 -0.9835  0.7663
  652MOL0     H89925   3.079   5.206   7.112  0.1510 -3.2607  2.6272
  652MOL0     H89926   3.079   5.465   7.112 -1.4657  3.1589  1.8238
  652MOL0     H89927   3.234   5.535   7.065  0.6646  2.7102  1.2789
  652MOL0     H89928   3.287   5.593   7.291 -1.0052  0.5435 -0.3065
  652MOL0     H89929   3.134   5.663   7.257  0.1785  0.1351 -1.5271
  652MOL0     H89930   3.137   5.392   7.410 -0.0798  0.1149 -2.7007
  652MOL0     H89931   3.135   5.554   7.490 -1.4281 -1.1756  1.0132
  652MOL0     H89932   2.925   5.492   7.491  1.4802 -0.8018  0.8052
  652MOL0     H89933   2.927   5.596   7.356 -1.4218  0.3614  0.3048
  652MOL0     H89934   2.814   5.220   7.159  1.1494 -0.4751 -0.7954
  652MOL0     H89935   2.787   4.845   7.165  0.0571 -0.4835  0.2806
  652MOL0     H89936   2.872   4.960   7.052 -1.5176  0.9657 -0.1899
  652MOL0     H89937   2.715   4.994   7.111 -1.6948 -3.8966 -0.4013
  652MOL0     H89938   2.751   4.583   7.266 -0.6196  0.9567  1.0061
  652MOL0     H89939   2.705   4.362   7.328 -1.6641  2.4004  1.0130
  652MOL0     H89940   2.664   4.244   7.622 -1.1587 -1.8623  0.6666
  652MOL0     H89941   2.652   4.167   7.466  0.4071 -1.5510 -0.5331
  652MOL0     H89942   2.817   4.012   7.647 -1.8140 -4.1013  3.9213
  652MOL0     H89943   2.666   4.036   7.730 -1.1679 -3.1310 -0.5266
  652MOL0     H89944   2.676   3.928   7.445 -0.2998  0.7227 -0.0747
  652MOL0     H89945   2.538   3.924   7.544  0.0043  0.6136 -0.4727
  652MOL0     H89946   2.679   3.767   7.700  0.5560  0.4107  0.2219
  652MOL0     H89947   2.822   3.794   7.610  0.3407 -1.4728  0.6975
  652MOL0     H89948   2.678   3.562   7.559 -2.3322 -1.1977 -2.0725
  652MOL0     H89949   2.594   3.671   7.451 -0.2505 -1.8978  0.5040
  652MOL0     H89950   2.883   3.611   7.459  0.1158 -3.2938  0.7367
  652MOL0     H89951   2.800   3.716   7.345 -4.5988  0.3902 -0.8937
  652MOL0     H89952   2.637   3.518   7.283 -0.5702 -2.0973  0.3498
  652MOL0     H89953   2.738   3.414   7.383  0.1998 -2.1308 -2.8961
  652MOL0     H89954   2.937   3.466   7.253 -1.1184  0.7866 -0.0593
  652MOL0     H89955   2.843   3.563   7.150 -0.3368 -0.7559 -0.7175
  652MOL0     H89956   3.023   4.369   7.623  1.1713 -0.5258 -0.7194
  652MOL0     H89957   3.064   4.613   7.553  0.3102 -0.2181 -0.2880
  652MOL0     H89958   2.969   5.063   7.598 -0.1002  0.7536  0.2132
  652MOL0     H89959   2.969   5.289   7.543 -2.5844  0.7818 -0.5616
  652MOL0     H89960   2.810   4.191   6.812 -1.0931  2.4224  1.2668
  652MOL0     H89961   2.648   4.015   6.684 -0.2660 -3.0964  0.4411
  652MOL0     H89962   2.338   3.790   6.413 -0.6744 -0.9638 -1.6053
  652MOL0     H89963   2.302   3.614   6.291  1.3033 -2.4934 -1.2903
  652MOL0     H89964   2.226   3.231   6.559  1.9826 -2.4809  1.3354
  652MOL0     H89965   2.158   3.190   6.401  1.3423 -0.2232 -0.1808
  652MOL0     H89966   2.373   3.058   6.496 -0.0014 -1.3875 -0.1604
  652MOL0     H89967   2.447   3.204   6.415 -1.1161 -0.0400  0.7591
  652MOL0     H89968   2.280   2.966   6.304  0.7516 -0.3116 -0.4445
  652MOL0     H89969   2.298   3.127   6.218 -0.0607 -0.2334 -0.4060
  652MOL0     H89970   2.529   3.086   6.204  0.4363 -2.2377 -1.1657
  652MOL0     H89971   2.420   2.977   6.122 -4.1963  3.6377 -0.1928
  652MOL0     H89972   2.609   2.752   6.446 -1.1003 -1.1121 -0.3760
  652MOL0     H89973   2.395   3.362   6.646 -0.1754  1.1001  0.6252
  652MOL0     H89974   2.374   3.596   6.845  0.7877  0.4819  1.5172
  652MOL0     H89975   2.459   3.439   6.827 -1.2561  1.2648  1.6751
  652MOL0     H89976   2.553   3.592   6.832 -0.6476  2.0255  0.7330
  653MOL0     O89977   6.638   8.215   1.944 -0.6779 -0.4909  0.1723
  653MOL0     C89978   6.531   8.263   1.944 -0.2026 -0.4388 -1.0117
  653MOL0     O89979   6.481   8.320   2.056  0.1563 -0.2183 -0.1184
  653MOL0     C89980   6.553   8.358   2.161 -0.5358 -0.3670  0.3519
  653MOL0     C89981   6.678   8.412   2.160 -0.2556  0.6273 -0.1298
  653MOL0     C89982   6.732   8.457   2.280  0.8495  0.4607 -0.4051
  653MOL0     C89983   6.650   8.463   2.400 -0.2666  0.8126  0.5419
  653MOL0     O89984   6.708   8.499   2.526 -0.0475  0.6390 -0.7581
  653MOL0     C89985   6.729   8.642   2.545 -1.0319  0.5579  0.8816
  653MOL0     C89986   6.765   8.668   2.695 -0.1747 -0.3722 -0.5086
  653MOL0     C89987   6.779   8.821   2.703  1.0437 -0.1429  0.6444
  653MOL0     C89988   6.816   8.873   2.850  0.7978  0.5331 -0.6290
  653MOL0     C89989   6.966   8.893   2.874  0.3909  0.3632  0.2402
  653MOL0     C89990   7.022   9.017   2.783  0.3798 -0.3390 -0.1082
  653MOL0     C89991   7.166   9.052   2.821  0.7143  0.3267 -0.6798
  653MOL0     C89992   7.199   9.206   2.804  0.6556  0.1020 -0.2535
  653MOL0     N89993   7.205   9.248   2.655  0.1441  0.1911 -0.1168
  653MOL0     C89994   7.313   9.285   2.578 -0.6901  0.4265 -0.1228
  653MOL0     C89995   7.266   9.305   2.452  0.6935 -0.9023 -1.0284
  653MOL0     C89996   7.331   9.343   2.324  0.0027  0.6098 -1.6274
  653MOL0     C89997   7.313   9.489   2.290  0.0200 -0.7573 -1.5404
  653MOL0     C89998   7.352   9.516   2.150  0.5586  0.4230 -0.7052
  653MOL0     C89999   7.312   9.648   2.098  0.3713 -0.2865 -0.4717
  653MOL0     O90000   7.385   9.746   2.174  0.5484  0.8798  0.5239
  653MOL0     C90001   7.519   9.777   2.143 -0.0059  0.4468  0.1940
  653MOL0     C90002   7.576   9.862   2.237  0.1931 -0.2444 -0.0045
  653MOL0     C90003   7.715   9.902   2.234  0.6615  0.8852  0.0466
  653MOL0     C90004   7.780   9.974   2.346  0.2397 -0.0155  0.1285
  653MOL0     C90005   7.793   9.848   2.129 -0.6331 -0.1055 -0.0530
  653MOL0     C90006   7.936   9.882   2.110 -0.3382 -0.6121 -0.3034
  653MOL0     O90007   8.018   9.774   2.076  0.3522  0.4121 -0.6181
  653MOL0     C90008   8.155   9.778   2.083 -0.0139 -0.1166  0.1151
  653MOL0     C90009   8.223   9.657   2.102  0.1029  0.8939  0.8251
  653MOL0     C90010   8.365   9.660   2.111 -0.1564  0.2457 -1.4048
  653MOL0     C90011   8.436   9.778   2.078  0.0462 -0.4987  0.3158
  653MOL0     O90012   8.572   9.788   2.064 -0.9876 -0.1925 -0.1742
  653MOL0     C90013   8.653   9.693   2.134 -1.6763 -0.0600  0.3914
  653MOL0     C90014   8.803   9.716   2.131 -0.4225 -0.5369  0.2336
  653MOL0     C90015   8.858   9.705   1.987  1.2664 -0.2077 -0.5736
  653MOL0     C90016   9.011   9.717   1.997 -0.0669  0.3112 -0.2959
  653MOL0     C90017   9.077   9.730   1.862 -0.0000 -0.4580 -0.4421
  653MOL0     C90018   9.090   9.592   1.791 -0.7595  0.3944  0.5254
  653MOL0     C90019   9.136   9.612   1.651 -0.3184 -0.1361  0.4569
  653MOL0     C90020   9.134   9.481   1.571 -0.2672 -0.6387 -0.6211
  653MOL0    Cl90021   8.973   9.394   1.546 -0.1914 -0.1707  0.5842
  653MOL0     C90022   8.363   9.899   2.064  0.5825  0.5255 -0.6298
  653MOL0     C90023   8.225   9.894   2.062  1.0473  1.2298  0.3392
  653MOL0     O90024   7.970   9.987   2.149 -0.6659  0.6111 -0.1080
  653MOL0     C90025   7.735   9.761   2.038 -0.3740  0.3290  0.5100
  653MOL0     C90026   7.605   9.721   2.042 -0.1912  0.2692  0.1066
  653MOL0     N90027   7.127   9.307   2.461 -1.0638  0.4322 -0.4851
  653MOL0     N90028   7.095   9.273   2.580 -0.7638  0.5500 -0.0780
  653MOL0     C90029   6.521   8.413   2.396  0.5323 -0.5194 -0.1651
  653MOL0     C90030   6.474   8.367   2.272  0.0586 -0.2055 -0.0599
  653MOL0     C90031   6.441   8.242   1.825  0.2458 -0.3716  0.8490
  653MOL0     C90032   6.489   8.163   1.720  0.3224 -0.3391 -0.0661
  653MOL0     C90033   6.412   8.138   1.609 -0.2343 -0.0797  0.1539
  653MOL0     C90034   6.280   8.174   1.610  0.6073  0.6584 -0.0004
  653MOL0     O90035   6.199   8.131   1.508 -0.4849 -0.1569  0.1595
  653MOL0     C90036   6.061   8.159   1.495  0.2697  0.2088  0.8393
  653MOL0     C90037   6.004   8.118   1.353 -0.0075  0.5597 -1.1937
  653MOL0     C90038   6.052   7.987   1.307  0.7794 -0.1281  0.1205
  653MOL0     C90039   5.944   7.907   1.219  0.2155  0.1429 -0.0066
  653MOL0     C90040   5.944   7.961   1.091  0.2213  0.3945  0.1386
  653MOL0     C90041   5.934   7.997   0.974 -0.1161  0.5233  0.3010
  653MOL0     C90042   6.234   8.260   1.708  0.0566 -0.4520 -0.3331
  653MOL0     C90043   6.316   8.302   1.809 -0.3907  0.3849  0.3073
  653MOL0     C90044   6.259   8.393   1.912  0.6082 -0.2566 -1.0981
  653MOL0     H90045   6.724   8.420   2.061  1.0408 -0.8670  0.3199
  653MOL0     H90046   6.835   8.491   2.277  0.2525  2.4068  0.1055
  653MOL0     H90047   6.639   8.700   2.526 -0.3482  0.5808 -3.0160
  653MOL0     H90048   6.815   8.664   2.481 -0.6467 -1.6344  0.5429
  653MOL0     H90049   6.700   8.625   2.771 -1.4289  1.7418 -0.2897
  653MOL0     H90050   6.864   8.631   2.724  0.4826  2.7876  1.8965
  653MOL0     H90051   6.859   8.842   2.631  1.1857  0.1663  0.8886
  653MOL0     H90052   6.688   8.871   2.671  1.4957 -0.8029 -1.8330
  653MOL0     H90053   6.759   8.967   2.846  0.6933  0.5989  1.3730
  653MOL0     H90054   6.782   8.818   2.938  4.3850 -1.2873 -0.1977
  653MOL0     H90055   7.024   8.802   2.859  1.2179  1.2981 -3.3029
  653MOL0     H90056   6.987   8.901   2.981  2.2543 -2.4077  0.1799
  653MOL0     H90057   7.007   8.990   2.678 -1.4412  0.1750 -0.0220
  653MOL0     H90058   6.964   9.107   2.809  0.6119 -0.4840  0.9607
  653MOL0     H90059   7.248   8.998   2.772  2.7788  0.7178  2.0735
  653MOL0     H90060   7.175   9.027   2.927 -0.9753 -1.1021 -0.8136
  653MOL0     H90061   7.119   9.253   2.862 -0.9505 -0.5291 -1.8753
  653MOL0     H90062   7.293   9.235   2.852  0.0096  0.7915  0.6288
  653MOL0     H90063   7.415   9.281   2.615 -0.8317  2.1716  0.5565
  653MOL0     H90064   7.292   9.278   2.246  0.2603 -0.5768 -0.7858
  653MOL0     H90065   7.436   9.313   2.321 -0.1936 -0.0480 -3.6272
  653MOL0     H90066   7.209   9.516   2.306  0.3514 -1.1568  2.3783
  653MOL0     H90067   7.366   9.561   2.354 -2.8372 -0.9767  1.3490
  653MOL0     H90068   7.458   9.491   2.140  0.0072 -1.6813 -1.8923
  653MOL0     H90069   7.295   9.439   2.098  0.7041 -0.2840  0.1646
  653MOL0     H90070   7.338   9.662   1.992  0.0485  0.7284 -0.4312
  653MOL0     H90071   7.203   9.643   2.103  0.2692  1.0169 -0.9026
  653MOL0     H90072   7.506   9.880   2.319 -0.0732 -1.6661  0.1166
  653MOL0     H90073   7.822  10.070   2.315  1.4080  0.6571  3.3570
  653MOL0     H90074   7.858   9.914   2.394 -1.9858 -2.3534  1.0378
  653MOL0     H90075   7.712   9.986   2.431 -0.6503 -0.8616 -0.4505
  653MOL0     H90076   8.177   9.559   2.106 -0.0303  0.9191  0.0856
  653MOL0     H90077   8.427   9.576   2.138 -4.3667 -2.4933  0.9372
  653MOL0     H90078   8.641   9.698   2.243  4.0595 -0.5111  1.3884
  653MOL0     H90079   8.635   9.588   2.108  2.0306 -1.1095  1.3166
  653MOL0     H90080   8.827   9.809   2.183 -1.8166 -0.5175  0.8740
  653MOL0     H90081   8.845   9.633   2.188  0.7648  1.3102  2.1834
  653MOL0     H90082   8.825   9.791   1.927  2.5318 -1.4410 -3.2059
  653MOL0     H90083   8.832   9.609   1.942 -0.4908  0.2728 -0.6507
  653MOL0     H90084   9.040   9.621   2.040  0.4826  1.3535  1.7860
  653MOL0     H90085   9.052   9.797   2.059  3.3647  0.4203 -2.4706
  653MOL0     H90086   9.029   9.809   1.804 -2.1721 -1.3009  0.1017
  653MOL0     H90087   9.178   9.767   1.879  0.4622 -1.3894 -1.0886
  653MOL0     H90088   8.996   9.537   1.788 -1.4926  1.6381 -0.6960
  653MOL0     H90089   9.175   9.547   1.842  0.1660  3.2134  1.6867
  653MOL0     H90090   9.236   9.658   1.644 -1.8473  3.1885 -4.7848
  653MOL0     H90091   9.059   9.670   1.600  0.5386  1.9513  1.3807
  653MOL0     H90092   9.217   9.419   1.603 -0.0162 -0.6267 -1.2429
  653MOL0     H90093   9.158   9.509   1.468 -1.3804 -0.1717 -0.7680
  653MOL0     H90094   8.402   9.999   2.048 -1.5685  0.9254 -5.0188
  653MOL0     H90095   8.178   9.990   2.042 -0.6770  1.6349  5.0537
  653MOL0     H90096   7.797   9.720   1.959 -0.9669 -1.1136  0.7604
  653MOL0     H90097   7.569   9.636   1.985  1.2359 -1.0675  1.1291
  653MOL0     H90098   6.480   8.387   2.493  3.0818  0.0381  1.1518
  653MOL0     H90099   6.375   8.323   2.274  0.9672 -2.3609  0.4182
  653MOL0     H90100   6.589   8.122   1.727  0.7239  0.5247 -0.5146
  653MOL0     H90101   6.447   8.075   1.528 -3.8722 -0.2982 -1.4022
  653MOL0     H90102   6.010   8.092   1.565  2.3957 -0.9457  1.3864
  653MOL0     H90103   6.031   8.260   1.523 -0.3588 -0.5748  3.1712
  653MOL0     H90104   6.023   8.196   1.279 -0.4748  2.3228  0.4542
  653MOL0     H90105   5.897   8.108   1.372  0.6611  1.0353  4.8165
  653MOL0     H90106   6.149   8.008   1.262  1.4406 -0.3163  1.4100
  653MOL0     H90107   6.061   7.926   1.398 -0.0295 -1.9490 -0.9662
  653MOL0     H90108   5.842   7.915   1.260 -0.1832 -1.1455 -0.7078
  653MOL0     H90109   5.967   7.801   1.215  0.3145  0.1073  1.0508
  653MOL0     H90110   5.952   8.027   0.873  2.4704  1.4269  0.9419
  653MOL0     H90111   6.129   8.291   1.704  0.8054  2.3314 -1.1018
  653MOL0     H90112   6.325   8.476   1.937  1.9042 -0.4725 -3.4845
  653MOL0     H90113   6.157   8.426   1.887 -1.3262 -2.3381  3.1240
  653MOL0     H90114   6.242   8.322   1.994  1.9195 -0.0820 -0.6654
  654MOL0     O90115   2.524   7.346   4.410  0.1532  0.6966  0.4067
  654MOL0     C90116   2.564   7.284   4.511 -1.0243 -0.7262 -0.1162
  654MOL0     O90117   2.696   7.218   4.509  0.5153 -0.5970 -0.3313
  654MOL0     C90118   2.782   7.264   4.417 -0.3874  0.8185 -1.1178
  654MOL0     C90119   2.871   7.374   4.442 -0.0148  0.8540  0.6722
  654MOL0     C90120   2.965   7.416   4.353 -0.0289 -1.1619  0.1917
  654MOL0     C90121   2.962   7.352   4.225 -0.6711  0.0108 -0.0749
  654MOL0     O90122   3.050   7.405   4.142 -0.0984  0.7267  0.4986
  654MOL0     C90123   3.178   7.325   4.166  1.0616 -0.3294 -1.3247
  654MOL0     C90124   3.285   7.356   4.061  0.5946 -0.9841  0.4708
  654MOL0     C90125   3.418   7.335   4.126  0.1822 -0.9038 -0.2029
  654MOL0     C90126   3.521   7.362   4.018  0.0820  0.0705 -0.6849
  654MOL0     C90127   3.660   7.290   4.036  0.7054  0.7612  0.4157
  654MOL0     C90128   3.725   7.316   4.174  0.7039  0.6351  0.0192
  654MOL0     C90129   3.873   7.265   4.172  0.3888 -0.5591  0.4160
  654MOL0     C90130   3.885   7.120   4.127  0.7104 -0.2324  0.1481
  654MOL0     N90131   4.023   7.084   4.169  0.8623  0.3752  0.4502
  654MOL0     C90132   4.116   7.054   4.073 -0.8560  0.2260  0.2479
  654MOL0     C90133   4.187   6.942   4.111 -0.3936  0.0877 -0.9930
  654MOL0     C90134   4.286   6.852   4.040  0.3144 -0.1007  0.8272
  654MOL0     C90135   4.226   6.802   3.909 -0.0772  0.8026  0.1128
  654MOL0     C90136   4.293   6.678   3.846  0.3781  0.5913  0.8277
  654MOL0     C90137   4.289   6.675   3.691 -0.0491 -0.6968 -0.3880
  654MOL0     O90138   4.328   6.552   3.629  0.4865  0.3114  0.3923
  654MOL0     C90139   4.238   6.451   3.607  0.8452 -0.5253  0.0536
  654MOL0     C90140   4.291   6.332   3.566  0.4423  0.6548 -0.8396
  654MOL0     C90141   4.206   6.222   3.534  0.2318  0.0190  0.8547
  654MOL0     C90142   4.283   6.097   3.488 -1.5915 -0.3152 -0.4506
  654MOL0     C90143   4.071   6.234   3.549  0.2588 -0.3304  0.1076
  654MOL0     C90144   3.983   6.123   3.514  0.2259  0.0296  0.4616
  654MOL0     O90145   3.885   6.091   3.603  0.6627 -0.5864 -0.1507
  654MOL0     C90146   3.772   6.035   3.565  0.1253 -0.3950 -0.3755
  654MOL0     C90147   3.755   5.902   3.606  0.1510  0.3357  0.4823
  654MOL0     C90148   3.640   5.830   3.551 -0.6658 -0.4632 -0.6618
  654MOL0     C90149   3.545   5.886   3.480  0.3428  0.5925 -0.4335
  654MOL0     O90150   3.441   5.806   3.436 -0.6936 -0.2488  0.1259
  654MOL0     C90151   3.328   5.853   3.358 -0.2231  0.2772  0.4015
  654MOL0     C90152   3.272   5.734   3.284  0.1774  0.5512 -0.2013
  654MOL0     C90153   3.208   5.627   3.378 -0.2757  1.0609  0.7544
  654MOL0     C90154   3.179   5.487   3.308  1.0252  0.9525 -0.3135
  654MOL0     C90155   3.083   5.408   3.398  0.5173 -0.1915  0.2528
  654MOL0     C90156   3.088   5.259   3.372 -0.0318 -0.1612 -0.0571
  654MOL0     C90157   3.054   5.173   3.492  0.9571  0.0709  0.2257
  654MOL0     C90158   2.918   5.203   3.556  0.3521  1.3286 -0.5919
  654MOL0    Cl90159   2.768   5.173   3.450 -0.1109  0.2438 -0.2069
  654MOL0     C90160   3.555   6.017   3.441 -0.8683 -0.2141 -0.4008
  654MOL0     C90161   3.672   6.085   3.486 -0.6275  0.4168  0.1204
  654MOL0     O90162   3.987   6.076   3.398 -0.6904 -0.1115 -0.4466
  654MOL0     C90163   4.018   6.356   3.587 -0.9946  0.0513  0.4857
  654MOL0     C90164   4.100   6.463   3.624 -0.0884  0.0052  0.3354
  654MOL0     N90165   4.147   6.911   4.242 -0.1711 -0.0422  0.8547
  654MOL0     N90166   4.049   6.991   4.270  0.1930  0.0257  0.8650
  654MOL0     C90167   2.869   7.253   4.194 -1.3997  0.9328 -0.2936
  654MOL0     C90168   2.783   7.209   4.288  0.2608  0.8074 -0.5878
  654MOL0     C90169   2.478   7.289   4.635 -0.9971 -0.5762 -0.1964
  654MOL0     C90170   2.437   7.175   4.697 -0.3133 -0.0650  0.0705
  654MOL0     C90171   2.347   7.178   4.805  0.4108 -0.6010 -0.9397
  654MOL0     C90172   2.311   7.300   4.863 -0.6315 -0.4650 -0.3351
  654MOL0     O90173   2.239   7.312   4.984  0.5155 -0.2813  0.3022
  654MOL0     C90174   2.226   7.195   5.072 -0.2018 -0.8985  0.5881
  654MOL0     C90175   2.183   7.237   5.215  0.0557  0.2100 -0.6015
  654MOL0     C90176   2.294   7.334   5.281  0.0270  0.7435  0.1285
  654MOL0     C90177   2.243   7.475   5.313 -0.2369  0.0834 -0.0360
  654MOL0     C90178   2.176   7.467   5.445 -0.1668  0.1861 -0.0333
  654MOL0     C90179   2.112   7.432   5.539  0.9650 -0.0611 -0.6925
  654MOL0     C90180   2.365   7.417   4.807  0.1562 -0.7173 -0.7812
  654MOL0     C90181   2.438   7.418   4.686  0.1507  0.7477 -0.2537
  654MOL0     C90182   2.462   7.557   4.626  1.3368  0.7579 -0.0128
  654MOL0     H90183   2.851   7.430   4.533 -1.2766  3.2751 -0.9829
  654MOL0     H90184   3.034   7.498   4.375 -0.0609 -1.0712 -0.0437
  654MOL0     H90185   3.172   7.219   4.193  1.0414  0.4015  2.0225
  654MOL0     H90186   3.211   7.361   4.264 -0.3842 -3.3851  0.4441
  654MOL0     H90187   3.270   7.291   3.975 -0.6876  1.8685 -1.6403
  654MOL0     H90188   3.276   7.462   4.034  2.6594 -1.1410 -0.9834
  654MOL0     H90189   3.450   7.406   4.204  4.6117  0.1754 -2.6748
  654MOL0     H90190   3.423   7.234   4.168 -0.1846 -1.3353 -1.1775
  654MOL0     H90191   3.471   7.353   3.921  3.2658 -0.1225 -2.4211
  654MOL0     H90192   3.546   7.468   4.028  1.6084 -0.4795  2.6486
  654MOL0     H90193   3.731   7.333   3.965  0.4704  0.2043 -0.1659
  654MOL0     H90194   3.645   7.183   4.016  2.8338  0.5860 -0.5104
  654MOL0     H90195   3.712   7.422   4.196 -1.0304  0.3547  0.5295
  654MOL0     H90196   3.669   7.265   4.253 -0.4007  1.8524  0.0729
  654MOL0     H90197   3.910   7.292   4.272 -0.3887  3.6454 -0.2408
  654MOL0     H90198   3.925   7.330   4.101  1.3282 -1.9502 -0.2186
  654MOL0     H90199   3.805   7.073   4.185 -1.0734 -0.0885 -2.0668
  654MOL0     H90200   3.866   7.096   4.022  2.7066 -2.3179  0.1788
  654MOL0     H90201   4.122   7.094   3.972 -0.9807  0.7548  0.4456
  654MOL0     H90202   4.308   6.779   4.118 -1.2142 -0.5625  0.8530
  654MOL0     H90203   4.376   6.910   4.019 -2.0755  3.6529  0.0044
  654MOL0     H90204   4.118   6.803   3.924  0.1234  3.0158  2.0656
  654MOL0     H90205   4.248   6.880   3.835 -1.7673 -0.9333 -2.3431
  654MOL0     H90206   4.399   6.678   3.873  0.8855  0.0317 -1.0153
  654MOL0     H90207   4.262   6.585   3.893  2.1940  0.0858  1.1073
  654MOL0     H90208   4.192   6.713   3.656 -0.5947 -0.6604  1.0887
  654MOL0     H90209   4.363   6.746   3.652 -0.2277  0.3439  1.0706
  654MOL0     H90210   4.399   6.317   3.570  0.3931  0.5909  2.0653
  654MOL0     H90211   4.362   6.077   3.561 -1.8436  3.1992  1.0093
  654MOL0     H90212   4.319   6.112   3.386 -0.1165 -1.2584 -0.1024
  654MOL0     H90213   4.223   6.006   3.481 -1.3574 -0.4153 -1.2292
  654MOL0     H90214   3.827   5.847   3.666  1.0663 -0.0871 -0.9574
  654MOL0     H90215   3.643   5.729   3.589  1.1367 -0.2149 -0.0627
  654MOL0     H90216   3.260   5.893   3.435 -4.4290  0.8521 -3.2053
  654MOL0     H90217   3.348   5.928   3.282 -2.8393  0.8509  0.1803
  654MOL0     H90218   3.192   5.768   3.217 -1.1037 -1.0606  0.4492
  654MOL0     H90219   3.351   5.690   3.223 -0.9104  0.7628 -1.8429
  654MOL0     H90220   3.110   5.667   3.405 -0.5283  2.5804 -2.0632
  654MOL0     H90221   3.279   5.608   3.459  1.0246  1.6450 -0.2108
  654MOL0     H90222   3.270   5.430   3.286  0.5593 -0.5222  1.4234
  654MOL0     H90223   3.117   5.495   3.218  0.4463 -0.0998 -0.0205
  654MOL0     H90224   3.097   5.423   3.506 -5.1510  0.5945  1.1657
  654MOL0     H90225   2.982   5.444   3.379  0.0821 -0.2553  2.1645
  654MOL0     H90226   3.189   5.226   3.347  0.4961  1.8997 -0.8354
  654MOL0     H90227   3.024   5.239   3.286 -0.7819  2.7748 -0.2858
  654MOL0     H90228   3.132   5.189   3.567  0.5578  1.8815  0.2944
  654MOL0     H90229   3.056   5.072   3.449  1.5108  1.0820 -2.3509
  654MOL0     H90230   2.919   5.310   3.580 -1.5943  1.0830  0.7818
  654MOL0     H90231   2.921   5.142   3.646  3.5316  2.9094  0.5120
  654MOL0     H90232   3.483   6.061   3.374 -0.3671  2.3036  0.5964
  654MOL0     H90233   3.697   6.187   3.458  1.1616 -0.0241 -0.0283
  654MOL0     H90234   3.910   6.366   3.591 -0.8617  2.6255 -0.2814
  654MOL0     H90235   4.050   6.557   3.646 -2.8664 -1.3793  0.4183
  654MOL0     H90236   2.875   7.200   4.099 -0.2690  0.5990 -0.0573
  654MOL0     H90237   2.720   7.128   4.253  2.0549 -0.4943 -0.9576
  654MOL0     H90238   2.469   7.080   4.656 -1.4169 -1.0525  1.4086
  654MOL0     H90239   2.309   7.089   4.853 -2.3243  0.6562 -0.5834
  654MOL0     H90240   2.158   7.122   5.028 -2.2679  1.6839 -0.8116
  654MOL0     H90241   2.326   7.150   5.069 -0.2539 -1.0640 -2.5632
  654MOL0     H90242   2.178   7.142   5.269 -1.3902  1.0401  0.8134
  654MOL0     H90243   2.085   7.284   5.204 -0.6448 -0.2780  2.6221
  654MOL0     H90244   2.345   7.284   5.364  0.9002  0.8331 -0.3484
  654MOL0     H90245   2.376   7.349   5.211 -0.3522 -0.7449 -0.6853
  654MOL0     H90246   2.183   7.516   5.231  2.4557  2.5370 -0.9603
  654MOL0     H90247   2.333   7.536   5.305 -2.4307  3.4114 -1.4758
  654MOL0     H90248   2.048   7.416   5.623 -0.4776 -2.7770 -2.1771
  654MOL0     H90249   2.334   7.512   4.848 -3.0049 -2.5557  1.4903
  654MOL0     H90250   2.453   7.638   4.699  2.3303  0.4790  0.4284
  654MOL0     H90251   2.561   7.572   4.582  2.2893  1.1180  2.1035
  654MOL0     H90252   2.377   7.575   4.559 -0.9292 -2.3744  1.7383
  655MOL0     O90253   0.626   2.023   9.784  0.1650  0.4632 -0.1207
  655MOL0     C90254   0.551   1.937   9.819  0.3489  0.1037  0.1507
  655MOL0     O90255   0.473   1.872   9.730 -0.1223 -0.4577  0.3874
  655MOL0     C90256   0.510   1.853   9.604  0.4986  0.1869  0.6105
  655MOL0     C90257   0.427   1.889   9.495  1.1844 -0.2741  0.1684
  655MOL0     C90258   0.453   1.859   9.363 -0.8247 -1.1104  0.4439
  655MOL0     C90259   0.568   1.794   9.331  0.2802 -0.8632  0.4563
  655MOL0     O90260   0.597   1.791   9.199  0.4235  0.9798 -0.3545
  655MOL0     C90261   0.503   1.740   9.095 -0.4453 -0.1759 -0.8552
  655MOL0     C90262   0.448   1.857   9.002 -0.6444  0.5765 -1.0526
  655MOL0     C90263   0.306   1.832   8.941 -0.8558  0.6834 -0.4394
  655MOL0     C90264   0.191   1.847   9.037  0.3213 -1.2208  0.0967
  655MOL0     C90265   0.059   1.786   8.989  0.2163 -1.5509 -0.1649
  655MOL0     C90266   0.017   1.863   8.863  0.2838  1.0125 -0.3526
  655MOL0     C90267  -0.113   1.800   8.813  0.1580 -0.6427  0.0920
  655MOL0     C90268  -0.246   1.876   8.843  0.3404 -0.6380  0.0601
  655MOL0     N90269  -0.267   1.901   8.986 -0.4195 -0.2926  0.2149
  655MOL0     C90270  -0.205   1.998   9.053  0.9531 -0.6611  0.0174
  655MOL0     C90271  -0.253   1.974   9.177  0.2803  0.2370 -0.1163
  655MOL0     C90272  -0.186   2.044   9.297  0.2730 -0.4388  0.3908
  655MOL0     C90273  -0.213   2.190   9.312 -0.3797 -0.6299 -0.3134
  655MOL0     C90274  -0.354   2.230   9.353  0.0190 -1.0314 -0.7040
  655MOL0     C90275  -0.430   2.249   9.219  0.1689 -0.6568 -0.8757
  655MOL0     O90276  -0.556   2.306   9.259 -0.9137  0.0174 -0.1116
  655MOL0     C90277  -0.578   2.437   9.288 -0.9273  0.1538  0.2992
  655MOL0     C90278  -0.705   2.451   9.349 -0.8853 -1.0163 -1.0592
  655MOL0     C90279  -0.737   2.583   9.387 -0.0233 -0.0125  0.5823
  655MOL0     C90280  -0.887   2.603   9.419  0.4017 -0.8400 -0.4982
  655MOL0     C90281  -0.648   2.692   9.369  0.3741 -0.1200  0.3473
  655MOL0     C90282  -0.694   2.826   9.384  0.2157 -0.4656  0.3866
  655MOL0     O90283  -0.751   2.877   9.268  0.9019 -0.3506 -0.1781
  655MOL0     C90284  -0.803   3.007   9.273 -0.1317 -0.2712  0.2873
  655MOL0     C90285  -0.899   3.048   9.375 -0.3873 -0.4397 -0.0535
  655MOL0     C90286  -0.937   3.177   9.395 -0.1276 -0.8279  0.3736
  655MOL0     C90287  -0.892   3.271   9.296  0.9443  0.2829 -0.7044
  655MOL0     O90288  -0.932   3.402   9.301 -0.0792  0.0478 -0.8559
  655MOL0     C90289  -1.083   3.418   9.296 -1.0959  0.0242  0.0001
  655MOL0     C90290  -1.118   3.553   9.235  0.0402  0.1536  0.3664
  655MOL0     C90291  -1.110   3.542   9.087  0.1540  0.0765 -0.0179
  655MOL0     C90292  -1.163   3.675   9.028 -0.6376  1.1066  0.2864
  655MOL0     C90293  -1.157   3.663   8.868  0.3031  0.4326 -0.3344
  655MOL0     C90294  -1.276   3.727   8.796 -0.0558  0.0460  0.0821
  655MOL0     C90295  -1.256   3.705   8.643  0.0327 -0.1067 -0.9567
  655MOL0     C90296  -1.372   3.781   8.583  0.3624  0.0405  0.2983
  655MOL0    Cl90297  -1.330   3.802   8.408  0.1052  0.2631  0.2881
  655MOL0     C90298  -0.801   3.241   9.195 -0.0653  0.0152  0.2739
  655MOL0     C90299  -0.754   3.104   9.182 -0.4611  0.5356 -0.7452
  655MOL0     O90300  -0.674   2.881   9.495  0.6412  0.0716  0.7970
  655MOL0     C90301  -0.522   2.674   9.305  0.6136  0.1511 -0.7832
  655MOL0     C90302  -0.496   2.550   9.254  0.1073 -0.3684 -0.1506
  655MOL0     N90303  -0.349   1.878   9.178  0.0153  1.3284  0.5620
  655MOL0     N90304  -0.345   1.827   9.062 -0.4291 -0.2668  0.6797
  655MOL0     C90305   0.659   1.766   9.427 -0.2005  0.0432 -0.2254
  655MOL0     C90306   0.635   1.791   9.565  0.6143  0.5373 -0.0788
  655MOL0     C90307   0.497   1.930   9.959  0.5165 -0.5928  0.2239
  655MOL0     C90308   0.359   1.896   9.968  0.7649 -0.5413 -0.0880
  655MOL0     C90309   0.294   1.883  10.094  0.0571 -0.4220 -0.2719
  655MOL0     C90310   0.366   1.914  10.214  0.0186 -0.5676 -0.0979
  655MOL0     O90311   0.301   1.917  10.334 -0.3131  0.1294 -0.2770
  655MOL0     C90312   0.160   1.903  10.337  0.3809 -0.1636  0.3576
  655MOL0     C90313   0.092   1.938  10.464  0.6231 -1.0570 -0.7510
  655MOL0     C90314   0.105   2.074  10.546 -0.4192  0.5958 -0.7145
  655MOL0     C90315   0.248   2.118  10.555  0.5910 -0.5935 -0.2195
  655MOL0     C90316   0.251   2.236  10.644  0.3366 -0.0170 -0.2000
  655MOL0     C90317   0.245   2.351  10.694 -0.9580  0.7546  0.4788
  655MOL0     C90318   0.493   1.972  10.208 -0.0108  0.5190 -0.2910
  655MOL0     C90319   0.555   1.980  10.081  0.0707 -0.5998  0.5386
  655MOL0     C90320   0.694   2.027  10.074  0.4216 -0.3846 -0.5791
  655MOL0     H90321   0.327   1.930   9.507  0.9541 -0.0055 -2.1605
  655MOL0     H90322   0.382   1.879   9.284 -1.5157  2.3198  1.7751
  655MOL0     H90323   0.431   1.685   9.157 -1.0218  0.0200 -1.3407
  655MOL0     H90324   0.556   1.669   9.031  1.2344  1.0275 -0.8475
  655MOL0     H90325   0.441   1.942   9.071  0.4085 -1.6313  1.9701
  655MOL0     H90326   0.510   1.895   8.921 -0.8137  2.8044 -0.2241
  655MOL0     H90327   0.286   1.901   8.859  0.1303  0.4671 -0.8765
  655MOL0     H90328   0.310   1.733   8.894  0.6328  0.8897 -0.8142
  655MOL0     H90329   0.208   1.800   9.134  2.5774 -1.2772 -0.2653
  655MOL0     H90330   0.177   1.953   9.060 -1.4114 -1.1822 -0.9694
  655MOL0     H90331  -0.013   1.802   9.070 -0.0075 -2.5340 -0.1568
  655MOL0     H90332   0.092   1.685   8.965  2.5504 -1.4714  2.1913
  655MOL0     H90333   0.004   1.971   8.869  0.8655  1.1284 -1.0343
  655MOL0     H90334   0.083   1.842   8.778 -2.8739 -0.9248 -2.5548
  655MOL0     H90335  -0.124   1.701   8.858  0.7233 -1.4990 -1.5632
  655MOL0     H90336  -0.116   1.784   8.705 -3.3868  1.5547 -0.3082
  655MOL0     H90337  -0.241   1.975   8.798  0.1146 -1.5468 -2.1001
  655MOL0     H90338  -0.334   1.832   8.794 -1.9039  1.0645  2.2546
  655MOL0     H90339  -0.133   2.074   9.024 -0.4886  1.0758  0.7462
  655MOL0     H90340  -0.077   2.038   9.304  0.5973  2.7578 -0.3490
  655MOL0     H90341  -0.220   1.978   9.377 -2.0615 -2.5661 -2.1291
  655MOL0     H90342  -0.150   2.229   9.392 -3.2069  1.5538  0.9973
  655MOL0     H90343  -0.177   2.228   9.216 -1.3780  0.9881 -0.0707
  655MOL0     H90344  -0.398   2.139   9.394  2.4441 -0.6983  3.1334
  655MOL0     H90345  -0.358   2.319   9.416  1.0403 -0.9327 -0.7618
  655MOL0     H90346  -0.383   2.318   9.148 -1.1915  1.5250  0.2351
  655MOL0     H90347  -0.450   2.151   9.175  0.4128 -0.1889 -2.0892
  655MOL0     H90348  -0.784   2.378   9.365 -1.7615 -0.0533 -0.9095
  655MOL0     H90349  -0.931   2.523   9.479 -0.5504 -1.5870 -2.1437
  655MOL0     H90350  -0.953   2.610   9.332  0.7788 -0.7626 -0.7817
  655MOL0     H90351  -0.889   2.692   9.482  2.1732 -1.2034  0.1320
  655MOL0     H90352  -0.934   2.969   9.440  1.8678 -1.3634  0.1577
  655MOL0     H90353  -1.007   3.214   9.469  1.7140 -0.8508  2.2133
  655MOL0     H90354  -1.127   3.338   9.236  2.1025 -0.3543 -2.0722
  655MOL0     H90355  -1.115   3.413   9.401 -0.3966  3.6836  0.5250
  655MOL0     H90356  -1.219   3.583   9.266 -1.5207 -4.5104  0.4775
  655MOL0     H90357  -1.038   3.620   9.268 -0.5316  1.5126 -0.8826
  655MOL0     H90358  -1.176   3.463   9.051 -0.7540  0.7218  0.1892
  655MOL0     H90359  -1.007   3.512   9.065  0.4687  1.1629 -0.0658
  655MOL0     H90360  -1.104   3.754   9.075 -0.7327  2.3250 -1.5654
  655MOL0     H90361  -1.267   3.681   9.063 -2.1271 -0.8232 -3.3057
  655MOL0     H90362  -1.067   3.708   8.825 -0.5820  0.3035 -2.4710
  655MOL0     H90363  -1.152   3.558   8.836 -0.6290  0.0232  0.7970
  655MOL0     H90364  -1.296   3.833   8.813 -1.4670  0.1791 -2.0501
  655MOL0     H90365  -1.367   3.682   8.837  0.5300 -1.2195  0.0258
  655MOL0     H90366  -1.253   3.597   8.626 -0.1571 -0.0093 -1.6458
  655MOL0     H90367  -1.157   3.732   8.603 -0.7536  2.9375 -1.1182
  655MOL0     H90368  -1.375   3.884   8.620  1.1595  0.1635  0.0362
  655MOL0     H90369  -1.468   3.734   8.606  0.4818 -2.4159 -3.4520
  655MOL0     H90370  -0.764   3.319   9.129  0.2215  0.8498  1.3860
  655MOL0     H90371  -0.698   3.080   9.092 -0.4613 -1.7869 -0.1906
  655MOL0     H90372  -0.457   2.758   9.283  0.9886 -0.2415 -1.1799
  655MOL0     H90373  -0.400   2.530   9.208  0.0718 -1.0489  0.0577
  655MOL0     H90374   0.748   1.715   9.394  0.2699  1.2279 -0.8607
  655MOL0     H90375   0.694   1.752   9.647 -5.0742 -0.5669  4.1246
  655MOL0     H90376   0.294   1.886   9.881  2.2148  1.9482 -1.6003
  655MOL0     H90377   0.201   1.830  10.112  0.7792 -1.5260  0.3481
  655MOL0     H90378   0.117   1.975  10.267 -0.1025  0.6913  1.5256
  655MOL0     H90379   0.138   1.799  10.308 -2.5275  1.0078 -2.2747
  655MOL0     H90380   0.125   1.861  10.534  0.7287  0.8186  1.3658
  655MOL0     H90381  -0.017   1.923  10.456  0.1766 -0.1897  2.2855
  655MOL0     H90382   0.032   2.143  10.504 -3.0038 -1.2174  0.4912
  655MOL0     H90383   0.065   2.051  10.645  1.4215  1.9500  0.4211
  655MOL0     H90384   0.303   2.144  10.464  0.8506 -0.5450 -0.0517
  655MOL0     H90385   0.307   2.032  10.586  0.7257 -0.1082  0.9141
  655MOL0     H90386   0.231   2.441  10.749  0.7389  1.8271 -0.7528
  655MOL0     H90387   0.524   2.008  10.306 -0.5026 -0.5456  0.2777
  655MOL0     H90388   0.693   2.116  10.011 -0.0267 -0.6627 -0.9808
  655MOL0     H90389   0.728   2.067  10.170 -0.1954 -0.0841 -0.4804
  655MOL0     H90390   0.762   1.953  10.030 -1.4886 -0.6169 -3.4306
  656MOL0     O90391   7.201   0.621   1.166 -0.1199  0.2750  0.3693
  656MOL0     C90392   7.118   0.607   1.260  1.0481 -0.2084  0.1580
  656MOL0     O90393   7.001   0.670   1.263  0.1397 -1.1612 -1.0116
  656MOL0     C90394   6.981   0.769   1.180  0.0038 -0.1995  0.6170
  656MOL0     C90395   6.987   0.737   1.042 -0.0204 -0.7628 -0.3284
  656MOL0     C90396   6.964   0.834   0.945  0.4108 -0.3742 -0.8295
  656MOL0     C90397   6.912   0.967   0.983  0.4108 -0.7037  0.5971
  656MOL0     O90398   6.863   1.048   0.883 -0.3393 -0.0814 -0.1967
  656MOL0     C90399   6.728   1.045   0.879 -0.4768 -0.7586 -0.0618
  656MOL0     C90400   6.679   1.090   0.739 -0.1718  0.7196  0.1605
  656MOL0     C90401   6.525   1.097   0.725 -0.0489 -0.5379  0.3887
  656MOL0     C90402   6.483   1.111   0.577 -0.4141  0.7667  0.2378
  656MOL0     C90403   6.327   1.110   0.577  0.3014 -0.4470  0.0244
  656MOL0     C90404   6.262   0.983   0.532 -0.8022 -0.0223 -0.7343
  656MOL0     C90405   6.113   0.977   0.513 -0.3507  0.5029 -0.2706
  656MOL0     C90406   6.075   0.847   0.440 -0.0363 -0.0242 -0.1284
  656MOL0     N90407   6.055   0.874   0.302 -0.2872 -0.1250  0.2600
  656MOL0     C90408   6.150   0.864   0.202 -0.1035 -0.1290  0.4986
  656MOL0     C90409   6.082   0.920   0.097  0.4657  0.1273 -0.2911
  656MOL0     C90410   6.132   0.947  -0.043  0.7138 -0.4190  0.0901
  656MOL0     C90411   6.141   1.102  -0.074  0.7148  0.6276  0.6054
  656MOL0     C90412   5.998   1.171  -0.095  0.4915  0.4101  0.5256
  656MOL0     C90413   6.010   1.316  -0.149 -0.2276 -0.6369  0.6297
  656MOL0     O90414   6.044   1.322  -0.290 -0.1975  0.2980 -0.6150
  656MOL0     C90415   6.015   1.445  -0.353 -0.3448  0.9034  0.2730
  656MOL0     C90416   6.106   1.528  -0.412  0.6645  0.0857  0.6452
  656MOL0     C90417   6.066   1.653  -0.470  0.2033 -0.6673  0.9606
  656MOL0     C90418   6.173   1.741  -0.517  0.0501  0.1128 -0.8817
  656MOL0     C90419   5.929   1.679  -0.474 -0.0175 -1.1936  0.3940
  656MOL0     C90420   5.872   1.799  -0.536  0.3777 -0.0008 -0.0123
  656MOL0     O90421   5.778   1.790  -0.639  0.3091  0.2197 -0.7852
  656MOL0     C90422   5.723   1.680  -0.699  0.2750  0.0568 -0.0345
  656MOL0     C90423   5.786   1.557  -0.729 -0.0197  0.0823  0.9602
  656MOL0     C90424   5.716   1.472  -0.814 -0.4771  0.4590  0.9298
  656MOL0     C90425   5.590   1.499  -0.872  0.0143 -0.0396 -0.8832
  656MOL0     O90426   5.528   1.386  -0.926  0.3225  0.2261  0.3281
  656MOL0     C90427   5.405   1.401  -0.996 -0.4714  0.6920 -0.5210
  656MOL0     C90428   5.320   1.279  -0.956  0.2026 -0.8597  0.1273
  656MOL0     C90429   5.345   1.163  -1.046  0.4422 -0.0247 -0.0454
  656MOL0     C90430   5.292   1.033  -0.985 -0.1040  0.6373  0.4241
  656MOL0     C90431   5.373   0.991  -0.856 -0.8811  0.5428  0.2329
  656MOL0     C90432   5.362   0.850  -0.805 -1.1439  0.4619  0.0236
  656MOL0     C90433   5.474   0.811  -0.711  0.4603  0.2508  0.1139
  656MOL0     C90434   5.440   0.676  -0.643 -1.0211  0.2217 -1.0320
  656MOL0    Cl90435   5.466   0.546  -0.759  0.5709 -0.6184 -0.2281
  656MOL0     C90436   5.532   1.612  -0.833 -0.0693  0.1024 -0.1028
  656MOL0     C90437   5.604   1.707  -0.760 -0.3468 -0.6474 -0.4799
  656MOL0     O90438   5.935   1.901  -0.504 -0.1407  1.4086  0.1143
  656MOL0     C90439   5.828   1.588  -0.425  0.0076  1.1359 -0.4986
  656MOL0     C90440   5.881   1.475  -0.367  0.4005 -0.1020  0.4314
  656MOL0     N90441   5.947   0.942   0.123  0.4939  0.7435 -0.4163
  656MOL0     N90442   5.928   0.914   0.248 -0.2607 -0.4609  0.1895
  656MOL0     C90443   6.921   1.009   1.115  0.6860 -1.0911  1.1255
  656MOL0     C90444   6.956   0.909   1.211 -0.0441  0.0458  0.8497
  656MOL0     C90445   7.177   0.536   1.383  0.8820 -0.8178  0.6430
  656MOL0     C90446   7.283   0.448   1.363 -0.0740 -0.5315 -0.4168
  656MOL0     C90447   7.325   0.370   1.471 -0.4071  0.8654 -0.3810
  656MOL0     C90448   7.272   0.383   1.606  1.0896  0.1284  0.4546
  656MOL0     O90449   7.300   0.307   1.710  0.1335 -0.7967  0.2960
  656MOL0     C90450   7.405   0.215   1.706 -0.8117  1.1335 -0.9027
  656MOL0     C90451   7.359   0.089   1.780  1.1603  1.0796 -0.1663
  656MOL0     C90452   7.267  -0.002   1.693  0.3646  0.1362 -0.8866
  656MOL0     C90453   7.267  -0.151   1.748 -0.3661 -0.1726  0.1727
  656MOL0     C90454   7.184  -0.246   1.670  0.7253 -0.0047  0.4143
  656MOL0     C90455   7.137  -0.348   1.610 -0.5531 -1.5779  0.7045
  656MOL0     C90456   7.178   0.486   1.623 -0.4738  1.5149 -0.1944
  656MOL0     C90457   7.131   0.561   1.519  0.3292  0.2364  0.0011
  656MOL0     C90458   7.012   0.648   1.561 -0.3446 -0.8426 -0.3713
  656MOL0     H90459   6.987   0.634   1.011  0.9499 -0.8986  0.0790
  656MOL0     H90460   6.968   0.787   0.847  0.1022  0.3310 -1.1877
  656MOL0     H90461   6.673   1.094   0.960  2.9277  1.7465  0.9246
  656MOL0     H90462   6.696   0.940   0.882 -0.8251 -0.8325 -3.2589
  656MOL0     H90463   6.737   1.177   0.706  0.3144 -0.1193 -1.2623
  656MOL0     H90464   6.712   1.017   0.664  1.3939  0.0275  1.4509
  656MOL0     H90465   6.488   1.002   0.766  3.4502 -1.2132  2.4046
  656MOL0     H90466   6.495   1.175   0.795  0.1950 -1.4814  1.5855
  656MOL0     H90467   6.524   1.205   0.538  0.3842  0.6968  0.8795
  656MOL0     H90468   6.524   1.025   0.523 -0.3437 -1.1909  3.1698
  656MOL0     H90469   6.298   1.196   0.516  1.4362  0.7145  1.0573
  656MOL0     H90470   6.300   1.133   0.681 -1.1683  0.5596 -0.5445
  656MOL0     H90471   6.308   0.948   0.439 -0.1827 -2.0996  0.2911
  656MOL0     H90472   6.299   0.917   0.611 -0.5847  4.6250  3.6087
  656MOL0     H90473   6.077   1.070   0.470 -0.6849  0.3682 -0.2815
  656MOL0     H90474   6.076   0.956   0.614  2.7789 -0.1524  0.8552
  656MOL0     H90475   6.158   0.775   0.445  0.6907  0.2842 -3.9768
  656MOL0     H90476   5.987   0.793   0.476 -0.2038  1.0868  1.1813
  656MOL0     H90477   6.252   0.833   0.220  1.5280  2.8946 -2.4809
  656MOL0     H90478   6.064   0.901  -0.115  0.0977  0.6090 -0.0028
  656MOL0     H90479   6.231   0.903  -0.061  1.6889  2.2111 -1.5089
  656MOL0     H90480   6.203   1.153   0.000  1.8782 -0.4098  0.3608
  656MOL0     H90481   6.199   1.100  -0.166  0.3753 -0.7544  0.4055
  656MOL0     H90482   5.939   1.109  -0.164  0.3620  1.5443 -0.4280
  656MOL0     H90483   5.952   1.177   0.004  1.2679  0.5115  0.8799
  656MOL0     H90484   5.924   1.378  -0.122 -0.1565 -0.1663 -0.1889
  656MOL0     H90485   6.097   1.355  -0.096 -0.3666 -2.2944  2.1760
  656MOL0     H90486   6.208   1.492  -0.402  2.1059  3.5629 -0.1955
  656MOL0     H90487   6.259   1.676  -0.540  2.0254  1.8218  1.1367
  656MOL0     H90488   6.204   1.823  -0.452 -0.5797  0.2063 -0.6958
  656MOL0     H90489   6.132   1.783  -0.609  1.3031 -1.6786 -2.3305
  656MOL0     H90490   5.882   1.527  -0.688 -1.1892 -2.8482  1.7574
  656MOL0     H90491   5.763   1.377  -0.836  0.4255  1.1878 -0.4228
  656MOL0     H90492   5.350   1.489  -0.962 -1.8798 -0.5676  0.6431
  656MOL0     H90493   5.412   1.408  -1.105 -0.2655  3.2801 -0.4050
  656MOL0     H90494   5.328   1.256  -0.849 -2.5980 -1.1608  0.3384
  656MOL0     H90495   5.218   1.319  -0.963  1.3694  2.5448  0.7991
  656MOL0     H90496   5.443   1.144  -1.090  0.5508  3.1228 -1.4222
  656MOL0     H90497   5.282   1.172  -1.134  0.8769  1.0006 -0.2676
  656MOL0     H90498   5.287   0.952  -1.057  0.3572  1.0269 -0.0578
  656MOL0     H90499   5.191   1.067  -0.962 -0.3266  1.6254 -1.7402
  656MOL0     H90500   5.479   0.997  -0.881 -0.5284 -1.0624  1.2235
  656MOL0     H90501   5.347   1.055  -0.771  2.8465  2.6237  0.0307
  656MOL0     H90502   5.379   0.778  -0.886  0.5484  2.6906 -1.7391
  656MOL0     H90503   5.260   0.831  -0.770 -1.5698 -1.2568 -1.9353
  656MOL0     H90504   5.494   0.880  -0.628  1.5279 -1.7002  1.5980
  656MOL0     H90505   5.565   0.800  -0.771  0.9145 -0.6717  0.9252
  656MOL0     H90506   5.336   0.676  -0.609 -0.5216 -1.8651  0.7331
  656MOL0     H90507   5.507   0.657  -0.558 -1.0307 -3.1876 -1.6234
  656MOL0     H90508   5.429   1.638  -0.856  0.1266 -0.4762 -1.7663
  656MOL0     H90509   5.559   1.804  -0.742 -1.0355 -1.4630  2.8580
  656MOL0     H90510   5.721   1.602  -0.435 -0.4746  0.1904  2.4922
  656MOL0     H90511   5.814   1.403  -0.322  1.0640 -0.2338  1.2474
  656MOL0     H90512   6.893   1.107   1.152  3.8741  0.4941 -0.2481
  656MOL0     H90513   6.957   0.934   1.317 -0.6889  0.4279  0.7720
  656MOL0     H90514   7.325   0.426   1.265 -2.5216  0.1140 -1.6913
  656MOL0     H90515   7.398   0.294   1.447  0.2662  0.4548  2.6176
  656MOL0     H90516   7.425   0.185   1.603 -3.4177  0.6604 -1.3430
  656MOL0     H90517   7.492   0.251   1.762  2.2357 -2.7570 -2.6364
  656MOL0     H90518   7.294   0.124   1.861 -0.1337  1.6594 -1.4100
  656MOL0     H90519   7.441   0.029   1.821 -0.2984 -0.4517  0.6431
  656MOL0     H90520   7.172   0.052   1.703  1.6859  2.3158  0.6554
  656MOL0     H90521   7.297   0.003   1.588  1.3423  1.5203 -0.5605
  656MOL0     H90522   7.226  -0.155   1.850 -1.4046  2.6495 -0.0590
  656MOL0     H90523   7.375  -0.168   1.737  0.0288  2.4344 -0.5568
  656MOL0     H90524   7.110  -0.430   1.547 -1.0541  0.0361 -1.2951
  656MOL0     H90525   7.136   0.504   1.721 -4.9146 -2.4782 -0.9700
  656MOL0     H90526   7.039   0.754   1.554 -2.3293  0.0797  3.3888
  656MOL0     H90527   6.926   0.630   1.495 -0.5498  0.8486 -0.6097
  656MOL0     H90528   6.977   0.633   1.663  0.1538 -3.4058 -0.5044
  657MOL0     O90529  11.123   8.624   6.120 -0.7854 -0.4147 -0.3084
  657MOL0     C90530  11.052   8.650   6.020 -0.1332  0.4195  0.0717
  657MOL0     O90531  11.085   8.633   5.889  0.4626 -0.6531  0.2838
  657MOL0     C90532  11.207   8.582   5.849  0.2273  0.5929  0.2763
  657MOL0     C90533  11.300   8.517   5.929  0.2679  0.7302 -0.2132
  657MOL0     C90534  11.409   8.460   5.873 -0.2463 -1.2509 -0.1685
  657MOL0     C90535  11.445   8.488   5.748  0.7516 -0.1697 -0.0339
  657MOL0     O90536  11.570   8.447   5.712  0.4691 -0.0693  0.0709
  657MOL0     C90537  11.633   8.514   5.605 -0.3130 -0.3640 -1.1249
  657MOL0     C90538  11.785   8.490   5.585 -0.9021 -0.1373 -0.4523
  657MOL0     C90539  11.829   8.345   5.622  0.2077  0.9759 -0.3706
  657MOL0     C90540  11.896   8.349   5.761 -1.1267 -0.4918 -0.9556
  657MOL0     C90541  11.946   8.213   5.815  0.1302  0.2760 -0.3076
  657MOL0     C90542  11.829   8.148   5.889 -0.0610 -0.3942  0.3807
  657MOL0     C90543  11.853   7.997   5.900 -0.3418 -0.4968 -0.7423
  657MOL0     C90544  11.723   7.919   5.921 -0.4639 -0.3669 -0.2236
  657MOL0     N90545  11.755   7.790   5.986 -0.1456  0.1001  0.1304
  657MOL0     C90546  11.796   7.765   6.117  0.6182 -1.4158  0.9156
  657MOL0     C90547  11.831   7.633   6.116  0.5559  0.1777 -0.1131
  657MOL0     C90548  11.849   7.541   6.239 -0.5100 -0.1154 -0.1029
  657MOL0     C90549  11.916   7.603   6.364  0.3775  1.2117 -0.6514
  657MOL0     C90550  12.055   7.669   6.352 -0.2440  0.5748  0.7967
  657MOL0     C90551  12.140   7.605   6.238  0.1090  0.6118 -0.3489
  657MOL0     O90552  12.182   7.479   6.281  0.6606  0.3485  0.2221
  657MOL0     C90553  12.261   7.410   6.193  0.4801 -1.0722 -0.3830
  657MOL0     C90554  12.226   7.288   6.154  0.4313  0.1084 -0.0208
  657MOL0     C90555  12.309   7.207   6.087 -0.1675  0.1473  0.3593
  657MOL0     C90556  12.266   7.066   6.063  0.0382 -0.4858 -0.1974
  657MOL0     C90557  12.431   7.262   6.036  0.2994 -0.0939  0.1738
  657MOL0     C90558  12.526   7.191   5.938 -0.6142  0.0771 -0.4542
  657MOL0     O90559  12.502   7.066   5.902  0.3146  0.8053  0.1774
  657MOL0     C90560  12.602   7.000   5.832  1.0502 -0.5462 -0.3971
  657MOL0     C90561  12.729   6.957   5.888  0.2332  0.1356  0.1639
  657MOL0     C90562  12.827   6.892   5.794  0.7689 -0.2114  0.2171
  657MOL0     C90563  12.778   6.844   5.675  0.4730  0.1874 -0.1230
  657MOL0     O90564  12.882   6.781   5.608  0.1822 -1.6299  0.5882
  657MOL0     C90565  12.865   6.741   5.474  0.8181  0.2719  0.1814
  657MOL0     C90566  12.980   6.659   5.436  0.2433  0.7707 -0.1199
  657MOL0     C90567  12.976   6.521   5.508  0.3700 -1.0580  0.0224
  657MOL0     C90568  13.093   6.430   5.471  0.6370  0.0341  0.2633
  657MOL0     C90569  13.085   6.293   5.538  0.3292  0.0283 -0.0614
  657MOL0     C90570  12.972   6.209   5.498  0.1636  0.3687  0.1170
  657MOL0     C90571  12.994   6.064   5.557  0.2214  0.0385 -0.0653
  657MOL0     C90572  12.937   6.041   5.698  0.2787  0.6291  0.2307
  657MOL0    Cl90573  12.995   5.883   5.765 -0.2409  0.0170  0.0763
  657MOL0     C90574  12.653   6.880   5.624 -0.1031 -0.2797 -0.0218
  657MOL0     C90575  12.570   6.952   5.707  0.2995 -0.3064  0.4386
  657MOL0     O90576  12.621   7.263   5.907  0.4188  0.2275  0.5219
  657MOL0     C90577  12.468   7.387   6.087 -0.6133  1.3490 -1.3055
  657MOL0     C90578  12.380   7.467   6.151 -0.3605 -0.1104  0.5450
  657MOL0     N90579  11.828   7.596   5.980 -0.2366 -0.5506  0.5331
  657MOL0     N90580  11.779   7.681   5.909 -0.0685  1.1678  0.4876
  657MOL0     C90581  11.358   8.556   5.663  1.1126 -0.1002 -0.7666
  657MOL0     C90582  11.231   8.601   5.711  0.5341  0.4847  0.2995
  657MOL0     C90583  10.898   8.672   6.044 -0.0467 -0.4270  0.8371
  657MOL0     C90584  10.806   8.680   5.940 -0.3412  0.1949  0.0520
  657MOL0     C90585  10.681   8.746   5.949 -0.9537 -0.6912  1.3130
  657MOL0     C90586  10.639   8.797   6.081 -0.3879  1.1715  1.8442
  657MOL0     O90587  10.521   8.863   6.092  0.7079  0.6180  0.1653
  657MOL0     C90588  10.529   8.998   6.123  0.7584 -0.1123 -0.1973
  657MOL0     C90589  10.442   9.079   6.028 -0.5708 -0.5460 -0.1616
  657MOL0     C90590  10.463   9.228   6.041 -0.0776 -0.3163 -0.3718
  657MOL0     C90591  10.564   9.269   5.935 -0.5593  1.0038  0.0300
  657MOL0     C90592  10.599   9.408   5.968  0.2150 -0.3192 -0.3540
  657MOL0     C90593  10.634   9.510   6.013 -0.3874 -0.6192 -0.3019
  657MOL0     C90594  10.719   8.768   6.184  1.0785  0.0837 -0.2832
  657MOL0     C90595  10.836   8.691   6.172  0.4204  0.3864 -0.5691
  657MOL0     C90596  10.888   8.656   6.304 -0.8756  1.0562  0.1612
  657MOL0     H90597  11.274   8.485   6.029  1.8661 -1.0227 -0.3216
  657MOL0     H90598  11.484   8.419   5.941  0.5196 -1.3815 -1.0781
  657MOL0     H90599  11.619   8.622   5.612  2.4145  0.0482 -0.7494
  657MOL0     H90600  11.583   8.484   5.513 -4.1334  0.6807  0.4241
  657MOL0     H90601  11.820   8.507   5.483  4.4268 -2.6824  0.6057
  657MOL0     H90602  11.826   8.570   5.648 -3.3922  0.8996 -0.0128
  657MOL0     H90603  11.743   8.276   5.617  2.7280 -2.3128 -2.1460
  657MOL0     H90604  11.899   8.318   5.542  1.0317  0.0184  0.6402
  657MOL0     H90605  11.985   8.412   5.752 -0.1669 -1.2157  2.2992
  657MOL0     H90606  11.838   8.401   5.838 -0.1073 -4.0723  2.5566
  657MOL0     H90607  12.025   8.223   5.891 -0.7180 -1.4567  0.8674
  657MOL0     H90608  11.987   8.154   5.733 -0.6918 -0.1314 -0.4328
  657MOL0     H90609  11.811   8.193   5.986  1.6415  1.1661  0.0225
  657MOL0     H90610  11.740   8.156   5.825  0.1875  1.6264  0.2182
  657MOL0     H90611  11.924   7.980   5.981  1.5299  4.7027 -0.9078
  657MOL0     H90612  11.900   7.948   5.814  0.8163 -0.8655  0.0869
  657MOL0     H90613  11.665   7.974   5.996 -1.5700  0.2144 -1.4754
  657MOL0     H90614  11.670   7.910   5.827  1.1710  0.1755 -1.2365
  657MOL0     H90615  11.793   7.827   6.206  1.0953 -1.2128  0.7954
  657MOL0     H90616  11.903   7.452   6.207 -1.9832 -1.1260  0.1207
  657MOL0     H90617  11.751   7.508   6.276  0.0211 -1.4226  0.1848
  657MOL0     H90618  11.850   7.675   6.413 -4.0841 -0.2733 -3.7857
  657MOL0     H90619  11.937   7.521   6.433 -0.8791  1.0610 -0.4165
  657MOL0     H90620  12.037   7.775   6.330  0.1755  0.1155 -2.1759
  657MOL0     H90621  12.122   7.665   6.438  0.3068 -0.0600  0.3533
  657MOL0     H90622  12.084   7.608   6.144  2.1277  0.5089 -1.6120
  657MOL0     H90623  12.220   7.677   6.218 -0.6794  1.7847  0.5570
  657MOL0     H90624  12.130   7.243   6.178  0.0780  0.0450 -1.4446
  657MOL0     H90625  12.227   7.055   5.961  0.3085  0.3472 -0.3940
  657MOL0     H90626  12.183   7.035   6.127  2.0959 -1.2150  2.2946
  657MOL0     H90627  12.347   6.996   6.085 -0.8245 -1.2893  0.5379
  657MOL0     H90628  12.765   6.970   5.990 -1.9108 -3.0684  1.4979
  657MOL0     H90629  12.915   6.853   5.843 -0.2882  0.3574  2.7334
  657MOL0     H90630  12.780   6.671   5.472  2.4678 -1.9215  1.7546
  657MOL0     H90631  12.842   6.827   5.412 -2.2580  0.5607  1.5253
  657MOL0     H90632  12.993   6.629   5.332  1.6220 -1.0222  0.5307
  657MOL0     H90633  13.075   6.712   5.444 -0.8389  2.5568  1.8005
  657MOL0     H90634  12.889   6.478   5.457  1.6156 -0.2356 -3.0425
  657MOL0     H90635  12.977   6.526   5.617  0.7082  0.1435 -0.0220
  657MOL0     H90636  13.173   6.495   5.506  1.1262  0.6419 -1.8342
  657MOL0     H90637  13.101   6.409   5.364  0.7752 -0.9239  0.4472
  657MOL0     H90638  13.177   6.247   5.499  1.1712  0.5015  1.3110
  657MOL0     H90639  13.090   6.307   5.646  0.1482  1.0408 -0.1757
  657MOL0     H90640  12.972   6.209   5.389  0.7841  0.6549  0.1143
  657MOL0     H90641  12.873   6.238   5.535  0.3518 -1.2050  2.0627
  657MOL0     H90642  13.100   6.035   5.559 -0.3810 -2.3288 -0.4329
  657MOL0     H90643  12.945   5.986   5.499  2.2353 -2.6436  1.6139
  657MOL0     H90644  12.828   6.031   5.691  0.4596 -2.9305  0.5590
  657MOL0     H90645  12.968   6.124   5.762  2.1276  0.9985 -1.0703
  657MOL0     H90646  12.626   6.849   5.523  0.3885  0.2544 -0.3240
  657MOL0     H90647  12.469   6.964   5.669  0.5271 -1.1060 -0.4385
  657MOL0     H90648  12.559   7.441   6.061 -0.8116  2.7725  0.6929
  657MOL0     H90649  12.393   7.572   6.174 -1.6283  0.0291  0.6806
  657MOL0     H90650  11.377   8.583   5.560  0.1357  1.1329 -0.6428
  657MOL0     H90651  11.159   8.649   5.644  0.5531 -0.7185 -0.6181
  657MOL0     H90652  10.841   8.653   5.840 -4.1030  0.0939 -1.4288
  657MOL0     H90653  10.612   8.755   5.866 -0.4735 -1.8428  0.7704
  657MOL0     H90654  10.496   9.020   6.225 -0.6891 -4.1942  0.3942
  657MOL0     H90655  10.629   9.038   6.107  0.1273  0.9451 -1.7435
  657MOL0     H90656  10.335   9.067   6.049  0.2694 -2.9412  3.9035
  657MOL0     H90657  10.464   9.052   5.925 -1.1104  1.6665 -0.9200
  657MOL0     H90658  10.373   9.287   6.019 -0.4523  0.4031  2.6418
  657MOL0     H90659  10.477   9.268   6.142 -2.6955 -2.1758  0.8461
  657MOL0     H90660  10.531   9.258   5.831  3.4754 -0.4130 -1.2757
  657MOL0     H90661  10.656   9.211   5.946 -1.3422  0.0956  2.3106
  657MOL0     H90662  10.682   9.593   6.061 -3.1304  1.8307 -1.5051
  657MOL0     H90663  10.701   8.806   6.284 -0.8603  1.1758 -0.9933
  657MOL0     H90664  10.944   8.742   6.341  1.0342  1.4783 -3.2954
  657MOL0     H90665  10.815   8.616   6.375  1.8091 -2.7919  1.1088
  657MOL0     H90666  10.948   8.565   6.288 -1.1288  0.3554  2.6736
  658MOL0     O90667   6.327   6.991   1.830  0.6548  0.3089 -1.0661
  658MOL0     C90668   6.232   7.070   1.804  0.1177  0.8299  0.4137
  658MOL0     O90669   6.114   7.078   1.874  0.0789 -0.2408 -0.0800
  658MOL0     C90670   6.107   6.993   1.980  0.2169 -0.1561  0.3182
  658MOL0     C90671   6.189   7.010   2.089 -0.1031  0.4850  0.0112
  658MOL0     C90672   6.175   6.936   2.204 -0.9696  0.0586  0.4160
  658MOL0     C90673   6.071   6.853   2.219  0.4127  1.2302  0.1557
  658MOL0     O90674   6.041   6.784   2.331  0.4739 -0.0208 -0.0234
  658MOL0     C90675   6.064   6.870   2.444  0.5167  0.7825 -0.8847
  658MOL0     C90676   5.985   6.820   2.573 -0.7510 -0.5646  0.0160
  658MOL0     C90677   5.828   6.857   2.566 -0.1456 -0.0955  0.7285
  658MOL0     C90678   5.747   6.810   2.689  0.6390  0.5763  0.1726
  658MOL0     C90679   5.604   6.810   2.645  1.0080 -0.1733  0.1984
  658MOL0     C90680   5.492   6.811   2.747  0.9470  0.9687  0.1166
  658MOL0     C90681   5.505   6.686   2.844  0.6861  1.1260 -0.6459
  658MOL0     C90682   5.554   6.719   2.987 -0.2218  0.3474  0.6644
  658MOL0     N90683   5.458   6.803   3.057  0.4791  0.8849  0.0623
  658MOL0     C90684   5.485   6.919   3.121 -0.7527 -0.8307  0.0904
  658MOL0     C90685   5.373   6.946   3.191 -0.4469  0.0051 -0.0198
  658MOL0     C90686   5.354   7.083   3.257  0.1871 -0.2964  0.3644
  658MOL0     C90687   5.199   7.114   3.266  0.6634  0.9724 -0.1139
  658MOL0     C90688   5.161   7.256   3.301  0.2770 -0.0069 -0.9310
  658MOL0     C90689   5.210   7.356   3.197  0.3448 -0.7565  1.1008
  658MOL0     O90690   5.179   7.481   3.244  0.0148 -0.2053  0.8577
  658MOL0     C90691   5.174   7.591   3.158 -0.6941 -0.4034  0.4438
  658MOL0     C90692   5.252   7.593   3.045 -0.8899 -1.0171 -1.0250
  658MOL0     C90693   5.245   7.709   2.959 -0.1063  0.0417 -0.7899
  658MOL0     C90694   5.347   7.695   2.860 -0.6432 -0.7479  1.5297
  658MOL0     C90695   5.153   7.819   2.979  0.0055  0.9794  0.2460
  658MOL0     C90696   5.133   7.932   2.885 -0.7582 -0.3497  0.1038
  658MOL0     O90697   5.060   8.032   2.941  0.4998  0.6772 -0.3401
  658MOL0     C90698   5.013   8.135   2.873  0.0623 -0.0165 -1.2747
  658MOL0     C90699   4.967   8.240   2.959  0.5729  0.2608 -0.2124
  658MOL0     C90700   4.904   8.359   2.910 -0.8202 -0.5190 -0.0471
  658MOL0     C90701   4.905   8.380   2.775  0.0480  0.5626  0.4724
  658MOL0     O90702   4.883   8.507   2.727  0.0107  0.1298  0.6272
  658MOL0     C90703   4.759   8.573   2.763  0.1448 -0.3851  0.3533
  658MOL0     C90704   4.733   8.679   2.655 -0.0345  0.1094  0.0076
  658MOL0     C90705   4.664   8.808   2.711 -0.0139 -0.5738 -0.5810
  658MOL0     C90706   4.756   8.913   2.774 -0.6006  0.0944 -0.3018
  658MOL0     C90707   4.679   9.012   2.865 -0.9736  0.7883  0.0143
  658MOL0     C90708   4.618   9.126   2.768 -0.1249 -0.2088 -0.5770
  658MOL0     C90709   4.579   9.249   2.861 -0.6243  0.0876 -0.1301
  658MOL0     C90710   4.436   9.260   2.887  0.4667 -0.0649  0.6713
  658MOL0    Cl90711   4.393   9.154   3.024  0.1425 -0.4719  0.0932
  658MOL0     C90712   4.949   8.281   2.687  0.6638 -0.2503  1.0682
  658MOL0     C90713   4.989   8.154   2.732  0.5661 -0.9379 -0.4547
  658MOL0     O90714   5.157   7.926   2.760  0.0778  0.5629 -0.5580
  658MOL0     C90715   5.089   7.816   3.108 -0.2918 -0.3742  0.1435
  658MOL0     C90716   5.115   7.712   3.205  1.4720 -0.3903 -0.1902
  658MOL0     N90717   5.291   6.849   3.172  0.4211 -0.5209 -0.7261
  658MOL0     N90718   5.334   6.759   3.094 -0.6130 -0.7872  0.3680
  658MOL0     C90719   5.991   6.822   2.108 -0.4260  0.4686 -0.1577
  658MOL0     C90720   6.003   6.904   1.988 -0.5405  0.2734 -0.4213
  658MOL0     C90721   6.242   7.176   1.690 -0.5343  0.1590 -1.1963
  658MOL0     C90722   6.280   7.127   1.564 -0.9494  0.4035  0.8460
  658MOL0     C90723   6.288   7.212   1.449  0.3292  0.1438  0.0385
  658MOL0     C90724   6.264   7.352   1.470 -0.7405  0.6466  1.8953
  658MOL0     O90725   6.296   7.457   1.389  0.6699 -1.0190 -0.1406
  658MOL0     C90726   6.329   7.422   1.252  0.1507 -0.1001 -0.1141
  658MOL0     C90727   6.372   7.552   1.180 -0.7273 -0.1600  0.3293
  658MOL0     C90728   6.497   7.621   1.238 -0.0936 -0.7608  0.4708
  658MOL0     C90729   6.559   7.734   1.142  0.0388  0.3440  0.7128
  658MOL0     C90730   6.466   7.844   1.135 -0.7127 -0.2065  0.2080
  658MOL0     C90731   6.398   7.939   1.127 -0.9062 -0.1660  0.3091
  658MOL0     C90732   6.223   7.393   1.591  0.3299  0.4663 -0.1415
  658MOL0     C90733   6.195   7.313   1.702 -0.4116  1.1796  0.2413
  658MOL0     C90734   6.138   7.367   1.831  0.0984 -0.5315  0.1477
  658MOL0     H90735   6.267   7.084   2.070 -2.5992  3.4638  0.6408
  658MOL0     H90736   6.237   6.958   2.290 -1.3419 -4.9154  2.2742
  658MOL0     H90737   6.033   6.971   2.413 -1.8484  0.5049  0.3596
  658MOL0     H90738   6.172   6.868   2.462 -0.1486  1.3141  5.1173
  658MOL0     H90739   5.999   6.713   2.592  2.5856  0.1007  2.2782
  658MOL0     H90740   6.025   6.865   2.665 -2.6128  1.8033 -0.2326
  658MOL0     H90741   5.820   6.966   2.557 -0.5381 -0.1886 -0.1467
  658MOL0     H90742   5.782   6.809   2.479  2.7122 -0.8558 -0.4590
  658MOL0     H90743   5.783   6.709   2.710  1.7648  0.3095 -2.5819
  658MOL0     H90744   5.773   6.873   2.775  1.8847 -1.3917  1.3192
  658MOL0     H90745   5.590   6.721   2.584  3.2368 -1.3551  1.2931
  658MOL0     H90746   5.599   6.899   2.582  1.3039  2.5182  3.6448
  658MOL0     H90747   5.474   6.906   2.799 -1.1829  0.6175  0.0892
  658MOL0     H90748   5.402   6.798   2.686  0.3459 -0.4760  1.2438
  658MOL0     H90749   5.572   6.615   2.793 -2.9133 -1.9879 -1.5205
  658MOL0     H90750   5.414   6.626   2.851  2.1464 -1.5425 -2.4905
  658MOL0     H90751   5.561   6.621   3.034 -2.9067  0.2463  0.9573
  658MOL0     H90752   5.655   6.760   3.000 -1.4876  3.1835  2.6733
  658MOL0     H90753   5.573   6.982   3.113 -1.6027  0.1822 -1.7867
  658MOL0     H90754   5.385   7.154   3.180 -1.0239 -2.1987 -2.0345
  658MOL0     H90755   5.424   7.114   3.334 -0.9571  2.9315  0.2630
  658MOL0     H90756   5.153   7.100   3.168 -2.4976 -0.3492  1.3995
  658MOL0     H90757   5.155   7.040   3.334  2.3877  2.1929  2.4905
  658MOL0     H90758   5.052   7.260   3.313  0.1833 -1.4666 -1.0493
  658MOL0     H90759   5.212   7.273   3.396 -0.8070 -1.7176  0.0189
  658MOL0     H90760   5.317   7.339   3.179  0.1144 -1.8205  0.6793
  658MOL0     H90761   5.154   7.326   3.108  0.2739 -0.0053  0.8853
  658MOL0     H90762   5.324   7.519   3.012  3.7388  2.9085 -0.7842
  658MOL0     H90763   5.299   7.643   2.776  2.6635 -1.6530  0.0275
  658MOL0     H90764   5.438   7.647   2.896  2.2132  2.5504 -0.5541
  658MOL0     H90765   5.394   7.786   2.821  2.5134 -2.2531  1.5797
  658MOL0     H90766   4.976   8.229   3.066 -2.4938  0.9039  0.1986
  658MOL0     H90767   4.877   8.438   2.980  1.9219  0.7035 -0.2665
  658MOL0     H90768   4.672   8.507   2.773 -0.6585  0.4807 -0.6548
  658MOL0     H90769   4.782   8.629   2.854  1.8193 -1.1636  0.4485
  658MOL0     H90770   4.817   8.702   2.590 -1.6706  1.5799 -1.6739
  658MOL0     H90771   4.662   8.639   2.582 -0.7669 -2.2798  1.8531
  658MOL0     H90772   4.601   8.780   2.796 -1.0527 -1.3410 -1.5723
  658MOL0     H90773   4.604   8.854   2.632  0.3072 -1.8839 -1.6361
  658MOL0     H90774   4.815   8.955   2.692 -3.3269  2.4075 -1.2168
  658MOL0     H90775   4.833   8.869   2.838  1.0056  0.8167 -1.6403
  658MOL0     H90776   4.592   8.964   2.911 -2.0509  1.4343 -1.2759
  658MOL0     H90777   4.750   9.064   2.930  0.5854 -1.0212 -0.1762
  658MOL0     H90778   4.526   9.081   2.730 -1.2043 -1.2760  2.8532
  658MOL0     H90779   4.695   9.156   2.696  0.0414  2.8521  0.7051
  658MOL0     H90780   4.619   9.334   2.805  0.3168 -1.8356 -2.5879
  658MOL0     H90781   4.636   9.240   2.954 -0.7531 -1.2450 -0.1526
  658MOL0     H90782   4.378   9.228   2.799 -2.0867  1.6685  1.6009
  658MOL0     H90783   4.401   9.359   2.918 -0.0141 -0.5420  1.7057
  658MOL0     H90784   4.943   8.301   2.580 -0.8194 -1.2360  0.9401
  658MOL0     H90785   5.027   8.089   2.655 -1.6357 -0.8017 -1.7494
  658MOL0     H90786   5.017   7.891   3.140 -0.0724  0.5846 -1.4548
  658MOL0     H90787   5.065   7.715   3.302  2.1850  1.0103  0.1589
  658MOL0     H90788   5.899   6.766   2.123 -0.5284 -0.6473 -3.8947
  658MOL0     H90789   5.926   6.887   1.914 -2.4877  0.7138  1.4164
  658MOL0     H90790   6.304   7.023   1.543 -0.1182  1.1528 -2.5399
  658MOL0     H90791   6.316   7.162   1.357  2.1119 -0.9106  1.0677
  658MOL0     H90792   6.414   7.353   1.258 -0.6552 -1.2967 -1.6790
  658MOL0     H90793   6.249   7.368   1.200  0.6130 -1.3221  0.4172
  658MOL0     H90794   6.296   7.629   1.167  1.7275  2.3902  0.0605
  658MOL0     H90795   6.398   7.529   1.076  1.2494 -0.3423  0.8219
  658MOL0     H90796   6.474   7.665   1.335  0.9003  0.1327  0.3203
  658MOL0     H90797   6.582   7.557   1.265 -0.8150 -1.1328  1.9472
  658MOL0     H90798   6.594   7.710   1.041 -0.2876  1.8959  0.2019
  658MOL0     H90799   6.652   7.762   1.192  0.8006 -1.2840  0.2901
  658MOL0     H90800   6.333   8.024   1.141 -2.1712 -1.0456 -0.1076
  658MOL0     H90801   6.188   7.495   1.605  2.0766  0.8878  1.7782
  658MOL0     H90802   6.205   7.328   1.908 -1.9643 -1.3291  1.6410
  658MOL0     H90803   6.128   7.476   1.842 -2.0156 -0.5037 -1.4223
  658MOL0     H90804   6.037   7.329   1.852  0.1506  0.1612  1.8119
  659MOL0     O90805   0.158   7.450   8.228  0.2162  0.6718 -0.0241
  659MOL0     C90806   0.228   7.514   8.154  0.1287 -0.0587 -0.1800
  659MOL0     O90807   0.351   7.571   8.190  0.0743 -0.2117 -0.3347
  659MOL0     C90808   0.377   7.580   8.322 -0.0926 -0.7207 -0.8921
  659MOL0     C90809   0.293   7.578   8.436 -0.6574  0.4130  0.1586
  659MOL0     C90810   0.344   7.606   8.562 -0.3872 -0.2250  0.0829
  659MOL0     C90811   0.478   7.644   8.585 -0.9756 -0.1764 -0.6601
  659MOL0     O90812   0.537   7.668   8.708 -0.6473 -1.5914 -0.3870
  659MOL0     C90813   0.458   7.705   8.825 -0.3347  0.3616 -0.7286
  659MOL0     C90814   0.447   7.852   8.849  0.2588 -0.4328  0.0599
  659MOL0     C90815   0.335   7.911   8.762  1.0467 -0.4578 -0.7201
  659MOL0     C90816   0.190   7.920   8.830 -0.0574  0.3035  0.3166
  659MOL0     C90817   0.082   7.935   8.717 -0.0363  0.6958  0.0571
  659MOL0     C90818   0.103   8.055   8.617 -0.0990 -0.6500 -0.0765
  659MOL0     C90819   0.080   8.195   8.685  0.2727  0.4616 -0.2277
  659MOL0     C90820  -0.067   8.218   8.716 -0.2879 -0.0152 -0.1501
  659MOL0     N90821  -0.114   8.356   8.683 -0.8989 -0.4383 -0.1250
  659MOL0     C90822  -0.187   8.436   8.773 -0.4289  1.0670  1.1226
  659MOL0     C90823  -0.207   8.551   8.704  1.0796  0.0219 -0.3344
  659MOL0     C90824  -0.289   8.658   8.773 -0.3546 -0.6925 -0.1517
  659MOL0     C90825  -0.264   8.802   8.706 -0.3661  0.4278  0.1261
  659MOL0     C90826  -0.385   8.865   8.661 -0.0322 -0.2334 -0.1940
  659MOL0     C90827  -0.366   8.980   8.568  0.9105  0.6454  0.2545
  659MOL0     O90828  -0.285   9.087   8.620 -0.7347 -0.6724 -0.3578
  659MOL0     C90829  -0.348   9.199   8.681  0.7580 -0.0223 -0.5435
  659MOL0     C90830  -0.299   9.333   8.679 -0.1823 -0.2276  0.9401
  659MOL0     C90831  -0.362   9.429   8.756  0.3571 -1.7309 -0.3641
  659MOL0     C90832  -0.309   9.566   8.749 -0.3561  0.8195  0.1091
  659MOL0     C90833  -0.481   9.402   8.827 -0.1810  0.2342 -0.2510
  659MOL0     C90834  -0.552   9.508   8.900 -0.1972 -0.2560 -0.6754
  659MOL0     O90835  -0.692   9.493   8.888  0.2556  0.8733 -0.3682
  659MOL0     C90836  -0.785   9.593   8.924 -0.4883  0.5521  0.0077
  659MOL0     C90837  -0.926   9.564   8.902 -0.5717 -0.2243  0.2806
  659MOL0     C90838  -1.021   9.669   8.921 -0.8887  0.1253  0.9087
  659MOL0     C90839  -0.984   9.802   8.941  0.3517  0.2696 -1.0629
  659MOL0     O90840  -1.077   9.902   8.966 -0.6477 -0.6405 -0.0939
  659MOL0     C90841  -1.193   9.868   9.038  0.9179  0.2764 -0.9361
  659MOL0     C90842  -1.266   9.978   9.124  0.4158 -1.0390 -0.0738
  659MOL0     C90843  -1.183  10.089   9.192 -0.4498 -0.2671 -0.4318
  659MOL0     C90844  -1.290  10.193   9.243  0.1560  0.5699 -0.5139
  659MOL0     C90845  -1.214  10.303   9.321  0.3747 -0.8661 -0.6211
  659MOL0     C90846  -1.305  10.427   9.352 -0.1810 -0.0025 -0.1856
  659MOL0     C90847  -1.239  10.540   9.425 -0.9365 -0.5209 -0.5056
  659MOL0     C90848  -1.133  10.606   9.332  0.3513  0.3005 -0.0881
  659MOL0    Cl90849  -1.043  10.720   9.432 -0.3078 -0.5040  0.3600
  659MOL0     C90850  -0.847   9.828   8.939 -0.2862  0.5979 -0.5355
  659MOL0     C90851  -0.746   9.734   8.922  0.1391  0.0963 -0.2048
  659MOL0     O90852  -0.495   9.592   8.971 -0.1599 -0.6906 -0.2047
  659MOL0     C90853  -0.533   9.272   8.822  0.0160 -0.5162 -1.0444
  659MOL0     C90854  -0.476   9.184   8.739  1.0027  0.6951  1.1539
  659MOL0     N90855  -0.160   8.544   8.579 -0.5181  0.4873  0.5812
  659MOL0     N90856  -0.098   8.425   8.564 -0.1943 -1.0618 -0.4932
  659MOL0     C90857   0.559   7.636   8.478  0.1705  1.4341 -0.8145
  659MOL0     C90858   0.513   7.598   8.348  0.2001  0.1652 -0.1466
  659MOL0     C90859   0.186   7.524   8.009 -0.9689  0.9737  0.5935
  659MOL0     C90860   0.074   7.444   7.968 -0.4622  0.6640  0.5713
  659MOL0     C90861   0.039   7.432   7.837  0.3609 -0.2138 -0.6684
  659MOL0     C90862   0.111   7.497   7.737 -0.5004 -0.3933  0.0347
  659MOL0     O90863   0.089   7.460   7.601  1.0302 -0.2659 -0.1161
  659MOL0     C90864   0.114   7.324   7.585  0.7991  0.1263 -0.1560
  659MOL0     C90865   0.066   7.288   7.446  0.5646 -0.6479  0.3840
  659MOL0     C90866  -0.054   7.196   7.458 -0.3258  0.1696 -0.6220
  659MOL0     C90867  -0.136   7.180   7.328 -0.2074  0.7993  0.2464
  659MOL0     C90868  -0.232   7.078   7.346  0.2594  0.5436 -0.4987
  659MOL0     C90869  -0.301   6.980   7.363 -0.9882 -0.7068  0.0250
  659MOL0     C90870   0.220   7.573   7.774 -0.6079  0.1574 -0.3288
  659MOL0     C90871   0.252   7.604   7.908 -0.4495 -0.2525  0.6928
  659MOL0     C90872   0.356   7.713   7.924 -0.8646 -0.0297 -0.1103
  659MOL0     H90873   0.186   7.571   8.418 -0.6098  1.2291 -0.5410
  659MOL0     H90874   0.283   7.608   8.652  0.4449  2.6003  0.6643
  659MOL0     H90875   0.500   7.654   8.912  0.3841  0.0840 -1.2292
  659MOL0     H90876   0.359   7.659   8.816  1.0831 -2.8199 -1.4384
  659MOL0     H90877   0.422   7.895   8.946 -0.5964  1.2647 -0.8726
  659MOL0     H90878   0.543   7.886   8.810 -1.0170  3.6296 -0.0578
  659MOL0     H90879   0.368   8.014   8.744 -0.7716  0.2842 -0.0947
  659MOL0     H90880   0.329   7.857   8.667 -0.7123  0.6948 -1.3263
  659MOL0     H90881   0.163   7.827   8.881  1.5848 -1.5533 -1.9627
  659MOL0     H90882   0.163   8.012   8.883 -2.5971  1.5119 -2.8303
  659MOL0     H90883  -0.017   7.947   8.762 -0.9264  2.4711 -2.1841
  659MOL0     H90884   0.091   7.842   8.660  1.4345 -0.5665  2.2173
  659MOL0     H90885   0.200   8.047   8.568 -0.0095 -0.2544  0.0358
  659MOL0     H90886   0.041   8.059   8.527  0.4201  1.6285 -0.4009
  659MOL0     H90887   0.106   8.269   8.608  1.3086 -1.5213 -1.9162
  659MOL0     H90888   0.140   8.203   8.775 -0.1146 -1.7961  0.2949
  659MOL0     H90889  -0.128   8.150   8.656 -1.4033  1.7624 -1.1320
  659MOL0     H90890  -0.101   8.190   8.816  1.6698  2.2572  1.2646
  659MOL0     H90891  -0.217   8.426   8.877  0.0814  2.1283  1.3901
  659MOL0     H90892  -0.263   8.670   8.879 -0.0609 -2.9380  0.0848
  659MOL0     H90893  -0.393   8.626   8.775 -0.8529  0.8615  0.1604
  659MOL0     H90894  -0.223   8.860   8.789  0.5945  0.4712 -0.3648
  659MOL0     H90895  -0.192   8.798   8.623 -1.6200 -2.1145 -0.9553
  659MOL0     H90896  -0.453   8.793   8.613  1.2261 -1.4637 -0.1870
  659MOL0     H90897  -0.442   8.893   8.751  1.8633  1.3112  0.5977
  659MOL0     H90898  -0.320   8.937   8.479 -0.2568  0.0871 -0.1075
  659MOL0     H90899  -0.466   9.020   8.549 -0.7014 -2.4858  1.3530
  659MOL0     H90900  -0.212   9.351   8.616 -0.3909  1.7686  1.1802
  659MOL0     H90901  -0.245   9.576   8.661 -0.2123 -1.5885 -0.1267
  659MOL0     H90902  -0.263   9.595   8.844  0.2412  4.7034 -1.1939
  659MOL0     H90903  -0.388   9.641   8.743 -0.4508  1.1315  3.5112
  659MOL0     H90904  -0.948   9.460   8.878  0.3577 -0.5107  0.6111
  659MOL0     H90905  -1.125   9.645   8.899 -0.6486  0.5348 -0.8444
  659MOL0     H90906  -1.268   9.842   8.963  2.5233 -2.6293 -1.6998
  659MOL0     H90907  -1.166   9.789   9.109  0.4005 -0.3522 -1.4276
  659MOL0     H90908  -1.335  10.030   9.057 -1.0749  0.9974  2.8223
  659MOL0     H90909  -1.341   9.935   9.192  1.8341 -2.2840  0.7571
  659MOL0     H90910  -1.111  10.137   9.124  1.8422 -2.4854  0.2781
  659MOL0     H90911  -1.115  10.040   9.262  2.2540  1.1227 -1.8579
  659MOL0     H90912  -1.362  10.139   9.305 -0.6881  0.3423 -1.6573
  659MOL0     H90913  -1.342  10.237   9.157 -1.3080  0.4159  0.2548
  659MOL0     H90914  -1.169  10.259   9.411  0.5322 -1.4082 -0.9537
  659MOL0     H90915  -1.134  10.334   9.253 -0.2752 -0.7313 -1.3336
  659MOL0     H90916  -1.389  10.388   9.410  0.1719  0.8535  0.9490
  659MOL0     H90917  -1.335  10.467   9.255 -2.8318 -1.2974  0.0207
  659MOL0     H90918  -1.194  10.511   9.521 -1.5741 -0.3910 -0.1568
  659MOL0     H90919  -1.313  10.618   9.445 -2.0356 -2.1073  2.1259
  659MOL0     H90920  -1.196  10.655   9.257 -1.7129 -0.3629  1.1569
  659MOL0     H90921  -1.069  10.529   9.288  0.4908 -0.7400  1.8526
  659MOL0     H90922  -0.826   9.934   8.948 -2.3947  1.3904 -3.5467
  659MOL0     H90923  -0.648   9.777   8.941  0.8983 -0.8750 -1.7568
  659MOL0     H90924  -0.623   9.258   8.881  1.5730 -1.7396  1.2161
  659MOL0     H90925  -0.524   9.088   8.755  1.6093 -0.1553 -1.6232
  659MOL0     H90926   0.666   7.649   8.487 -0.0998  2.1095  3.1695
  659MOL0     H90927   0.590   7.578   8.274  0.0705 -0.4089 -0.1266
  659MOL0     H90928   0.018   7.384   8.039  1.6967 -0.8912  1.0493
  659MOL0     H90929  -0.044   7.365   7.814 -1.1138 -0.1271  3.5831
  659MOL0     H90930   0.221   7.300   7.589  1.7117  3.0186 -2.5672
  659MOL0     H90931   0.057   7.273   7.663 -0.3689  0.1372 -0.9872
  659MOL0     H90932   0.153   7.250   7.392 -0.2107  0.3970 -1.7334
  659MOL0     H90933   0.017   7.372   7.393 -2.2264 -4.0144 -3.0000
  659MOL0     H90934  -0.038   7.093   7.492 -2.5204 -0.5012 -1.3996
  659MOL0     H90935  -0.128   7.244   7.523 -0.0807  1.0321 -0.9711
  659MOL0     H90936  -0.076   7.152   7.241  1.9609  0.1865  1.8562
  659MOL0     H90937  -0.182   7.274   7.296 -2.0722  0.6632  2.2764
  659MOL0     H90938  -0.354   6.890   7.383 -3.0728  0.3738 -0.3873
  659MOL0     H90939   0.271   7.622   7.692  0.3585  0.3535  0.3645
  659MOL0     H90940   0.400   7.767   7.840 -1.7681 -1.8418 -1.8406
  659MOL0     H90941   0.321   7.772   8.009 -1.8754 -1.1845  0.3053
  659MOL0     H90942   0.442   7.662   7.967 -1.3773 -3.2395 -2.4929
  660MOL0     O90943   6.847   8.981   7.328  0.0763  0.1080 -0.4016
  660MOL0     C90944   6.877   8.953   7.443  0.3170 -0.4455 -0.3439
  660MOL0     O90945   6.924   9.047   7.533  0.2786  0.0649  1.0811
  660MOL0     C90946   6.879   9.174   7.522 -0.3661 -0.1194 -1.1252
  660MOL0     C90947   6.925   9.264   7.430 -0.8818 -0.1400 -0.6321
  660MOL0     C90948   6.892   9.399   7.446 -0.4641 -0.4386  0.0667
  660MOL0     C90949   6.808   9.443   7.558 -0.3291  1.1860 -0.4800
  660MOL0     O90950   6.793   9.579   7.591  0.1137 -0.1163  0.1538
  660MOL0     C90951   6.666   9.631   7.613  0.1691  0.5147 -0.1722
  660MOL0     C90952   6.682   9.783   7.614 -0.0674  0.1594 -0.0698
  660MOL0     C90953   6.542   9.843   7.633  0.0981 -0.1212  0.4576
  660MOL0     C90954   6.476   9.799   7.752  0.6425 -0.3550  0.2617
  660MOL0     C90955   6.351   9.890   7.771  0.0989  0.4970  0.2119
  660MOL0     C90956   6.285   9.894   7.902 -0.7160  0.3054  0.9342
  660MOL0     C90957   6.191   9.998   7.918 -0.4735  0.2961  0.4212
  660MOL0     C90958   6.055   9.946   7.856 -0.2791  0.1291 -0.3976
  660MOL0     N90959   5.949  10.053   7.859  0.4156 -0.5351  0.1993
  660MOL0     C90960   5.948  10.186   7.816 -0.2873 -0.4318 -1.1192
  660MOL0     C90961   5.829  10.228   7.866 -0.5113  0.5130 -0.4842
  660MOL0     C90962   5.782  10.372   7.861  0.2012  0.9964 -0.2410
  660MOL0     C90963   5.737  10.422   7.723  0.0005  0.5576  1.2544
  660MOL0     C90964   5.630  10.532   7.730 -0.7710 -0.7950 -0.1116
  660MOL0     C90965   5.683  10.672   7.756  0.5241  0.0429 -0.0762
  660MOL0     O90966   5.781  10.687   7.869 -0.1376  0.2883  0.0431
  660MOL0     C90967   5.810  10.808   7.918 -0.3855 -0.4093 -0.0676
  660MOL0     C90968   5.712  10.906   7.925  0.3679  0.0448 -0.3579
  660MOL0     C90969   5.727  11.032   7.998 -0.5668  0.5452 -0.8448
  660MOL0     C90970   5.608  11.106   8.025  0.8028 -1.3834  0.0673
  660MOL0     C90971   5.853  11.044   8.067  0.5780  0.0158  0.2217
  660MOL0     C90972   5.878  11.158   8.171 -0.0179 -0.8622 -0.4191
  660MOL0     O90973   5.972  11.142   8.268 -0.5269  1.0156 -0.7114
  660MOL0     C90974   6.016  11.255   8.336  0.1637  0.3507  0.2716
  660MOL0     C90975   5.944  11.308   8.448  0.3148 -0.6030 -0.6878
  660MOL0     C90976   6.004  11.413   8.522 -0.6818  0.6476  0.3290
  660MOL0     C90977   6.122  11.474   8.473 -0.7860  0.0424 -0.0197
  660MOL0     O90978   6.184  11.577   8.533  0.3909 -0.1968 -0.1989
  660MOL0     C90979   6.119  11.644   8.645 -0.5159  0.5332  0.2963
  660MOL0     C90980   6.203  11.770   8.678  0.0056 -0.3902  1.0609
  660MOL0     C90981   6.350  11.733   8.714 -0.7517  0.6136 -0.0676
  660MOL0     C90982   6.432  11.858   8.731  0.3621 -0.2892  0.2054
  660MOL0     C90983   6.583  11.816   8.749 -0.1368 -1.4559  0.1121
  660MOL0     C90984   6.682  11.929   8.717 -0.3652 -0.2069 -0.4361
  660MOL0     C90985   6.814  11.890   8.663 -0.3045  1.0034  0.6484
  660MOL0     C90986   6.911  12.014   8.643  0.1748  1.3189 -1.1549
  660MOL0    Cl90987   7.068  11.949   8.612 -0.1769  0.0147 -0.5108
  660MOL0     C90988   6.178  11.414   8.360 -0.4948  0.3661  0.0958
  660MOL0     C90989   6.130  11.308   8.293 -0.5985  0.2482  0.3793
  660MOL0     O90990   5.826  11.268   8.148  0.4169 -0.2798  0.4246
  660MOL0     C90991   5.946  10.942   8.059 -0.2470  0.6695 -0.2684
  660MOL0     C90992   5.928  10.822   7.987  0.6358  0.1282  0.3633
  660MOL0     N90993   5.754  10.128   7.925  0.3289 -0.9617 -0.2851
  660MOL0     N90994   5.830  10.023   7.926 -0.9288 -0.1742  0.1790
  660MOL0     C90995   6.741   9.345   7.635  0.6375 -0.7592  0.2926
  660MOL0     C90996   6.785   9.217   7.618  0.1872  0.7009  0.5238
  660MOL0     C90997   6.894   8.817   7.502 -0.4978 -0.5017  0.9242
  660MOL0     C90998   6.924   8.808   7.638 -0.1222 -0.4692 -0.1087
  660MOL0     C90999   6.946   8.689   7.711 -0.3118 -0.1347 -0.7545
  660MOL0     C91000   6.941   8.567   7.637 -0.1276 -0.8889 -0.7007
  660MOL0     O91001   6.965   8.451   7.711  0.2641 -0.4119  0.6441
  660MOL0     C91002   6.964   8.333   7.624 -0.6067  0.7226  0.4329
  660MOL0     C91003   7.006   8.199   7.708  0.5050 -0.5709 -0.5332
  660MOL0     C91004   7.152   8.204   7.763 -0.0248  0.9477 -1.1248
  660MOL0     C91005   7.185   8.091   7.863 -0.7036  0.7478 -0.4679
  660MOL0     C91006   7.330   8.088   7.876 -0.4368 -0.8110  0.4518
  660MOL0     C91007   7.449   8.072   7.897  0.3873 -0.6708 -0.6339
  660MOL0     C91008   6.896   8.570   7.500 -0.1663 -0.6021 -0.6486
  660MOL0     C91009   6.868   8.696   7.436  0.2315  0.0336 -0.0988
  660MOL0     C91010   6.832   8.671   7.295 -0.2029 -0.5336  0.9194
  660MOL0     H91011   7.004   9.231   7.364  0.2236  0.0701  0.5388
  660MOL0     H91012   6.946   9.472   7.386  1.5342 -1.3813  0.6264
  660MOL0     H91013   6.624   9.593   7.707 -0.4411 -1.0353 -1.0325
  660MOL0     H91014   6.605   9.606   7.526  0.7169  0.5007 -0.5585
  660MOL0     H91015   6.748   9.806   7.699  0.1133  1.6755 -0.5891
  660MOL0     H91016   6.728   9.821   7.522 -2.6010  1.2801 -0.9656
  660MOL0     H91017   6.563   9.949   7.649  1.4275 -0.3403  0.2661
  660MOL0     H91018   6.478   9.820   7.547  2.3390 -1.8520 -0.8471
  660MOL0     H91019   6.436   9.698   7.737 -0.3355  0.2358 -1.3078
  660MOL0     H91020   6.544   9.808   7.837 -1.4863 -1.0722  2.1034
  660MOL0     H91021   6.282   9.848   7.698  2.4451 -1.3888 -1.0540
  660MOL0     H91022   6.378   9.994   7.750  2.9449 -0.4539 -1.4109
  660MOL0     H91023   6.237   9.800   7.932 -1.2124 -0.4043 -1.8413
  660MOL0     H91024   6.359   9.927   7.976  0.4967  3.6353 -1.5509
  660MOL0     H91025   6.233  10.084   7.864 -2.0800 -0.2950 -1.9172
  660MOL0     H91026   6.176  10.031   8.021  0.2404 -0.0720  0.6498
  660MOL0     H91027   6.057   9.921   7.749 -0.2751 -0.0007 -0.3669
  660MOL0     H91028   6.020   9.861   7.916 -1.7885  0.6567 -0.4754
  660MOL0     H91029   6.025  10.252   7.778  0.1331 -0.9754 -1.2154
  660MOL0     H91030   5.861  10.436   7.900  2.9377 -2.6099  0.6424
  660MOL0     H91031   5.701  10.382   7.933  0.5504  0.9097  0.1690
  660MOL0     H91032   5.823  10.468   7.673 -0.8740  0.0644 -0.8220
  660MOL0     H91033   5.693  10.337   7.670  1.1446  0.4350  0.4448
  660MOL0     H91034   5.582  10.525   7.632  0.0205  0.3196 -0.6054
  660MOL0     H91035   5.545  10.507   7.793 -0.2444 -0.7962  0.6065
  660MOL0     H91036   5.713  10.723   7.664  0.1806 -0.3850 -0.4297
  660MOL0     H91037   5.588  10.719   7.785  0.6096 -0.4379  1.0387
  660MOL0     H91038   5.608  10.893   7.896 -0.0619  0.3848  0.9649
  660MOL0     H91039   5.599  11.195   7.961  2.5979 -0.2469  1.2913
  660MOL0     H91040   5.590  11.148   8.125 -1.3485  2.6260 -1.7550
  660MOL0     H91041   5.527  11.040   7.995 -0.0930  0.0996 -0.8792
  660MOL0     H91042   5.857  11.249   8.473 -0.3512  0.8123  0.4718
  660MOL0     H91043   5.947  11.460   8.602 -2.4447 -1.4859  0.4382
  660MOL0     H91044   6.021  11.678   8.609  0.9692  1.4930 -3.3977
  660MOL0     H91045   6.107  11.583   8.735  4.2454  2.4046  2.5434
  660MOL0     H91046   6.199  11.832   8.588  4.5436 -1.8398 -0.4144
  660MOL0     H91047   6.159  11.828   8.760 -2.4329 -0.6110  0.0158
  660MOL0     H91048   6.394  11.668   8.638 -1.4703 -1.2323  1.0287
  660MOL0     H91049   6.348  11.674   8.806 -3.4723  1.6983  0.6800
  660MOL0     H91050   6.403  11.907   8.824  1.0153 -3.9783  2.5678
  660MOL0     H91051   6.422  11.913   8.637  0.8909  1.1736  0.9620
  660MOL0     H91052   6.605  11.789   8.853  3.6583 -0.3744 -0.2508
  660MOL0     H91053   6.610  11.737   8.679 -1.3111 -2.4808  0.7757
  660MOL0     H91054   6.702  11.997   8.800  0.5735  1.3651 -1.8928
  660MOL0     H91055   6.622  11.985   8.645  0.5297  1.2252 -0.1079
  660MOL0     H91056   6.810  11.829   8.572  2.1039  1.7318 -0.0143
  660MOL0     H91057   6.859  11.825   8.740 -1.8640 -2.4820 -1.1323
  660MOL0     H91058   6.901  12.080   8.729 -1.3650  0.7896 -0.9068
  660MOL0     H91059   6.868  12.073   8.562  1.1660  2.7838 -0.6633
  660MOL0     H91060   6.267  11.462   8.320  1.0612 -2.0209  0.4644
  660MOL0     H91061   6.194  11.258   8.221 -0.6553 -1.6106  1.5363
  660MOL0     H91062   6.044  10.956   8.104 -1.5752  2.6347  2.2213
  660MOL0     H91063   6.003  10.745   7.997  1.5350  0.8931 -0.2668
  660MOL0     H91064   6.668   9.394   7.699  0.6713 -0.9177  0.4547
  660MOL0     H91065   6.746   9.133   7.674 -0.7323  0.0008 -1.0896
  660MOL0     H91066   6.940   8.894   7.702  1.2728 -1.5904  1.1269
  660MOL0     H91067   6.963   8.697   7.818 -0.6956  1.4991 -0.8033
  660MOL0     H91068   6.864   8.320   7.582 -1.1620  0.4498  1.8031
  660MOL0     H91069   7.030   8.346   7.537 -3.1802  1.2682 -1.5765
  660MOL0     H91070   7.001   8.113   7.641  2.1104 -2.2607  1.3674
  660MOL0     H91071   6.925   8.202   7.782  0.0134  2.4044 -1.0618
  660MOL0     H91072   7.227   8.211   7.684  3.2492  3.9566  1.8783
  660MOL0     H91073   7.162   8.298   7.818  1.2932 -0.3911  1.0834
  660MOL0     H91074   7.156   7.993   7.824 -1.3860  1.2422 -1.2334
  660MOL0     H91075   7.129   8.109   7.955 -0.1436  2.9572 -0.5051
  660MOL0     H91076   7.556   8.077   7.892  0.4230 -1.0331 -0.2405
  660MOL0     H91077   6.876   8.479   7.444 -1.4249 -2.1265  2.0928
  660MOL0     H91078   6.735   8.720   7.279 -0.5202 -1.2940  0.4565
  660MOL0     H91079   6.916   8.717   7.242 -1.2834  2.6134  1.7130
  660MOL0     H91080   6.825   8.568   7.259 -2.6682  0.3988 -1.6542
  661MOL0     O91081   0.483   2.341   7.161  0.2364 -0.6802  0.4870
  661MOL0     C91082   0.493   2.236   7.230 -0.9747 -0.0052 -0.1670
  661MOL0     O91083   0.403   2.194   7.319 -0.1637 -0.2360  0.4689
  661MOL0     C91084   0.298   2.278   7.356 -0.1767 -0.1808 -0.4679
  661MOL0     C91085   0.196   2.302   7.261 -0.0637 -0.9732  0.2820
  661MOL0     C91086   0.111   2.412   7.298  0.8581 -0.4561  0.9100
  661MOL0     C91087   0.117   2.480   7.421 -0.2021 -1.1178  0.3096
  661MOL0     O91088   0.035   2.587   7.454  0.5638  0.4032 -0.1824
  661MOL0     C91089   0.064   2.698   7.367 -0.1807 -0.4461 -1.0048
  661MOL0     C91090   0.052   2.831   7.442  0.5933 -0.8295 -0.3090
  661MOL0     C91091   0.163   2.858   7.543  0.2782 -0.5001  0.3328
  661MOL0     C91092   0.177   2.994   7.582  0.3288 -0.4106 -0.7387
  661MOL0     C91093   0.081   3.039   7.696  0.9171  0.0826  0.2417
  661MOL0     C91094   0.108   3.184   7.733 -0.0147 -0.0246  0.5936
  661MOL0     C91095   0.249   3.198   7.791 -0.7905 -0.3088  0.2018
  661MOL0     C91096   0.267   3.325   7.878  0.6514 -0.1009 -0.7345
  661MOL0     N91097   0.223   3.287   8.016 -0.2250  0.5906 -0.6168
  661MOL0     C91098   0.106   3.322   8.078 -0.4266 -0.4686  0.1740
  661MOL0     C91099   0.130   3.283   8.202 -0.3229  0.7950 -0.8333
  661MOL0     C91100   0.034   3.259   8.316 -0.1323  0.8171  0.2535
  661MOL0     C91101  -0.089   3.175   8.272 -0.1897 -0.2020 -1.0214
  661MOL0     C91102  -0.040   3.031   8.259 -0.7584 -0.8794  0.8751
  661MOL0     C91103  -0.157   2.933   8.234  0.3464 -0.1187 -0.0960
  661MOL0     O91104  -0.088   2.803   8.239  0.8513 -0.8130  0.3169
  661MOL0     C91105  -0.167   2.697   8.286 -1.1078  1.2303 -0.7956
  661MOL0     C91106  -0.305   2.695   8.326  0.5494 -0.4743  0.1078
  661MOL0     C91107  -0.377   2.580   8.364  0.0354  0.2030 -0.4175
  661MOL0     C91108  -0.526   2.610   8.381 -0.8768  0.2896  0.0373
  661MOL0     C91109  -0.308   2.459   8.377 -0.1783 -1.0803 -0.1770
  661MOL0     C91110  -0.369   2.335   8.418 -0.5565  0.2908  0.2236
  661MOL0     O91111  -0.287   2.241   8.483  0.2584 -0.5475  1.5257
  661MOL0     C91112  -0.337   2.115   8.488 -0.2562  0.8056  0.3115
  661MOL0     C91113  -0.432   2.088   8.571 -0.7620  0.1616  0.3156
  661MOL0     C91114  -0.496   1.964   8.574  0.0092 -0.1246  0.2868
  661MOL0     C91115  -0.458   1.867   8.484  0.6005 -0.2535 -0.7552
  661MOL0     O91116  -0.522   1.745   8.495 -0.4794 -0.2003  0.2062
  661MOL0     C91117  -0.550   1.688   8.372  0.7983  0.5001  1.3424
  661MOL0     C91118  -0.549   1.535   8.387  0.3248  0.4156 -0.6208
  661MOL0     C91119  -0.655   1.496   8.493  1.2171  0.0835  0.0924
  661MOL0     C91120  -0.801   1.482   8.444 -0.2603  1.0998  0.2650
  661MOL0     C91121  -0.896   1.483   8.567  0.1293 -0.1018 -0.0631
  661MOL0     C91122  -0.889   1.364   8.657  0.4311  0.2335 -0.2428
  661MOL0     C91123  -0.971   1.384   8.777 -0.8281  0.7484 -0.2441
  661MOL0     C91124  -0.934   1.283   8.891  0.4254 -0.5893  0.4641
  661MOL0    Cl91125  -0.958   1.105   8.873  0.0786  0.2270 -0.0537
  661MOL0     C91126  -0.347   1.893   8.409  0.6419 -0.5872  0.7475
  661MOL0     C91127  -0.288   2.018   8.410 -0.4493  0.1641  0.6614
  661MOL0     O91128  -0.490   2.322   8.394  0.3696 -1.1147 -0.3772
  661MOL0     C91129  -0.176   2.458   8.336  0.3079 -0.5595 -1.2840
  661MOL0     C91130  -0.110   2.569   8.302 -0.2464  0.1841 -0.3160
  661MOL0     N91131   0.257   3.221   8.213 -0.3627  0.4233  0.0346
  661MOL0     N91132   0.308   3.218   8.100  0.5636 -0.9953  0.0597
  661MOL0     C91133   0.213   2.442   7.513 -0.3344  1.1295  0.7249
  661MOL0     C91134   0.301   2.337   7.479 -0.0429  0.9074 -0.4575
  661MOL0     C91135   0.611   2.143   7.197  0.1655  0.6570  0.5822
  661MOL0     C91136   0.619   2.026   7.275 -0.1849  0.4021 -0.2402
  661MOL0     C91137   0.715   1.933   7.257  0.5292  0.2932  0.6161
  661MOL0     C91138   0.817   1.943   7.168 -0.1431  0.1467  0.1582
  661MOL0     O91139   0.934   1.861   7.163  0.8038 -0.1397 -0.6239
  661MOL0     C91140   0.926   1.737   7.236 -0.4621 -0.2381 -0.0517
  661MOL0     C91141   1.031   1.643   7.187 -0.0659 -0.3618 -0.0291
  661MOL0     C91142   0.991   1.608   7.046  0.1687  0.0827  0.3203
  661MOL0     C91143   0.841   1.563   7.018 -0.0807  0.7593  0.4172
  661MOL0     C91144   0.808   1.451   7.103  0.2692  0.5461 -0.2700
  661MOL0     C91145   0.803   1.363   7.182 -0.5276  0.4898 -0.3029
  661MOL0     C91146   0.812   2.050   7.083  0.5664 -0.7080 -0.1730
  661MOL0     C91147   0.713   2.158   7.089  0.1600  0.4258 -1.0049
  661MOL0     C91148   0.724   2.278   7.000 -0.6548  0.0738 -0.6652
  661MOL0     H91149   0.208   2.249   7.167 -0.1481  1.4004 -1.1568
  661MOL0     H91150   0.052   2.458   7.220 -0.0251 -0.8283  1.3508
  661MOL0     H91151  -0.005   2.693   7.283  1.4374  0.0225 -2.4111
  661MOL0     H91152   0.165   2.686   7.325 -1.2778 -2.8279 -3.2065
  661MOL0     H91153   0.044   2.907   7.364  2.1385 -1.2004 -0.8623
  661MOL0     H91154  -0.043   2.821   7.496  1.1508  1.6553  1.2720
  661MOL0     H91155   0.158   2.809   7.641 -0.1038 -0.3291  0.4001
  661MOL0     H91156   0.260   2.830   7.501  1.4784  1.7431  1.4677
  661MOL0     H91157   0.272   3.008   7.634  0.0718  0.0105 -0.3710
  661MOL0     H91158   0.173   3.055   7.491 -0.9870  4.0963  1.9617
  661MOL0     H91159   0.090   2.980   7.788  0.8953  0.2856  0.3731
  661MOL0     H91160  -0.020   3.036   7.654  2.2289 -0.0296 -3.3112
  661MOL0     H91161   0.098   3.254   7.649 -2.3979  1.3127  1.8751
  661MOL0     H91162   0.041   3.224   7.810  3.4985  2.2817  2.7761
  661MOL0     H91163   0.309   3.218   7.702 -0.1643 -2.1026  0.1834
  661MOL0     H91164   0.298   3.114   7.841  1.7580 -0.6951 -2.6915
  661MOL0     H91165   0.370   3.359   7.890 -0.1455  1.7673  2.0345
  661MOL0     H91166   0.211   3.412   7.842  2.5577  1.6520  0.2664
  661MOL0     H91167   0.012   3.367   8.046 -0.1921  1.0124  1.4415
  661MOL0     H91168   0.005   3.360   8.344  1.2250  0.8752  1.5339
  661MOL0     H91169   0.084   3.222   8.406 -0.8878 -2.8796 -0.6632
  661MOL0     H91170  -0.160   3.182   8.355  2.0800  1.9426  0.9027
  661MOL0     H91171  -0.127   3.213   8.176 -1.0804 -1.0974 -1.0392
  661MOL0     H91172   0.035   3.017   8.181  1.7263 -3.3124  3.4645
  661MOL0     H91173   0.011   2.986   8.345  1.1932 -2.6923 -1.1355
  661MOL0     H91174  -0.235   2.955   8.308  1.8898 -0.5152  1.7165
  661MOL0     H91175  -0.194   2.950   8.132 -1.3322 -0.1230  0.4913
  661MOL0     H91176  -0.354   2.792   8.315 -1.4287 -1.7055 -4.6283
  661MOL0     H91177  -0.551   2.572   8.480 -1.9220  2.4329  0.6474
  661MOL0     H91178  -0.573   2.556   8.298  1.1457 -0.2159 -0.8448
  661MOL0     H91179  -0.551   2.715   8.367  0.7033  0.4215 -2.4319
  661MOL0     H91180  -0.467   2.165   8.639 -3.7330 -0.1384 -0.7305
  661MOL0     H91181  -0.580   1.954   8.643 -2.8562  2.6171 -2.4780
  661MOL0     H91182  -0.644   1.715   8.322  2.2638  1.3431 -1.1528
  661MOL0     H91183  -0.473   1.716   8.300 -0.9827  0.2399 -0.7824
  661MOL0     H91184  -0.579   1.477   8.298  1.4571 -3.2206  1.1615
  661MOL0     H91185  -0.449   1.511   8.425  0.3248  0.2515 -0.7184
  661MOL0     H91186  -0.643   1.556   8.584  2.4864  0.9215 -0.6092
  661MOL0     H91187  -0.632   1.395   8.530  0.1376  0.6040  2.3777
  661MOL0     H91188  -0.811   1.392   8.382  1.0764 -0.0675  1.6781
  661MOL0     H91189  -0.831   1.569   8.385 -2.5323  0.9968  1.2059
  661MOL0     H91190  -0.885   1.577   8.623 -1.4271 -0.8092  1.5402
  661MOL0     H91191  -0.996   1.490   8.524 -0.4186  4.0063  1.4523
  661MOL0     H91192  -0.785   1.343   8.683  0.1325 -1.7977 -0.5488
  661MOL0     H91193  -0.928   1.276   8.606 -1.9725  1.3911 -0.5251
  661MOL0     H91194  -1.073   1.376   8.740 -0.6901 -0.4117 -0.4231
  661MOL0     H91195  -0.956   1.483   8.822 -2.0253  0.9737 -0.3221
  661MOL0     H91196  -0.988   1.318   8.979  1.6278 -0.3801  1.1298
  661MOL0     H91197  -0.829   1.297   8.918  0.3888 -1.4468  1.1225
  661MOL0     H91198  -0.310   1.815   8.344 -3.8665 -2.6616  0.2977
  661MOL0     H91199  -0.203   2.037   8.346  0.4026 -1.2980  1.3200
  661MOL0     H91200  -0.107   2.375   8.328  0.6244 -0.3654 -0.6441
  661MOL0     H91201  -0.006   2.545   8.284  0.6013  2.1803  1.4674
  661MOL0     H91202   0.244   2.495   7.603  3.7796 -1.1330  0.8935
  661MOL0     H91203   0.390   2.325   7.539 -1.1723  1.7393  1.4998
  661MOL0     H91204   0.549   2.007   7.355 -2.8353  1.1176 -2.2322
  661MOL0     H91205   0.732   1.858   7.333  2.2201  0.0714  0.0549
  661MOL0     H91206   0.941   1.750   7.343 -2.1947 -5.2810  1.0789
  661MOL0     H91207   0.827   1.690   7.236 -0.9693  0.6731 -2.4792
  661MOL0     H91208   1.045   1.556   7.252 -0.7634 -0.6209 -0.2112
  661MOL0     H91209   1.129   1.691   7.179  1.7321 -3.7328 -0.1016
  661MOL0     H91210   1.010   1.689   6.975  1.1521 -1.5126 -1.3280
  661MOL0     H91211   1.057   1.526   7.018  2.4862  1.7694  0.5466
  661MOL0     H91212   0.823   1.542   6.912 -3.0990  3.7152  0.1680
  661MOL0     H91213   0.775   1.649   7.030 -1.3136  0.1810 -1.6278
  661MOL0     H91214   0.805   1.282   7.252 -1.2724  0.6693 -0.0668
  661MOL0     H91215   0.898   2.050   7.016  0.4412  2.2676 -0.4446
  661MOL0     H91216   0.718   2.376   7.049 -1.4642  0.3301 -1.2602
  661MOL0     H91217   0.820   2.280   6.946  0.9516 -0.4281  1.9838
  661MOL0     H91218   0.639   2.273   6.932 -2.1863  0.2220  1.1689
  662MOL0     O91219   5.578   1.744  11.334  0.2184  0.0466  0.3886
  662MOL0     C91220   5.481   1.808  11.292  0.3833  0.7156  0.6033
  662MOL0     O91221   5.459   1.938  11.309 -0.4986 -0.5561  0.2760
  662MOL0     C91222   5.546   2.014  11.371 -1.0021 -0.1788  0.5743
  662MOL0     C91223   5.678   2.022  11.320 -0.2673  0.3197  0.1491
  662MOL0     C91224   5.768   2.106  11.395 -0.6466 -0.3638 -0.4619
  662MOL0     C91225   5.720   2.179  11.509  0.3902 -0.3439  0.6241
  662MOL0     O91226   5.805   2.271  11.568 -0.8890  0.0896  0.9529
  662MOL0     C91227   5.752   2.402  11.599 -0.4255 -0.7033 -0.2059
  662MOL0     C91228   5.853   2.506  11.531 -0.0918 -0.0039 -0.5140
  662MOL0     C91229   5.996   2.475  11.591 -0.4524  0.0384  0.7696
  662MOL0     C91230   6.119   2.515  11.498 -0.4138  0.0395 -0.2101
  662MOL0     C91231   6.122   2.664  11.450  0.1115 -0.4459  0.4998
  662MOL0     C91232   6.162   2.778  11.548 -0.5805  0.8485  1.2240
  662MOL0     C91233   6.191   2.916  11.474  0.5613 -0.0646  0.5885
  662MOL0     C91234   6.235   3.038  11.563  0.0778  0.1153  0.3637
  662MOL0     N91235   6.137   3.081  11.657  0.4943  0.2570  0.8809
  662MOL0     C91236   6.122   3.051  11.789  0.1256  0.0759 -0.3931
  662MOL0     C91237   6.023   3.122  11.835 -0.3006 -0.2323  0.1716
  662MOL0     C91238   5.987   3.146  11.975  0.3925  0.2669 -0.5785
  662MOL0     C91239   5.897   3.023  12.027  0.4504  1.2024  0.0465
  662MOL0     C91240   5.842   3.043  12.161  0.1187  0.0446  0.0804
  662MOL0     C91241   5.832   2.908  12.228 -1.1123 -0.2232 -0.1252
  662MOL0     O91242   5.969   2.871  12.251  0.2539 -0.3861 -0.4094
  662MOL0     C91243   5.993   2.757  12.335 -0.3733  0.7864  0.2382
  662MOL0     C91244   5.901   2.694  12.417 -0.7272  0.2320  0.6954
  662MOL0     C91245   5.933   2.614  12.520 -0.5495  0.3342 -0.0573
  662MOL0     C91246   5.819   2.565  12.605  0.5182  0.9491 -0.4337
  662MOL0     C91247   6.068   2.581  12.542 -0.1323 -0.6946  0.3655
  662MOL0     C91248   6.118   2.505  12.658  0.8515  0.0110 -0.8505
  662MOL0     O91249   6.227   2.551  12.727 -0.1357  0.5361  1.1955
  662MOL0     C91250   6.260   2.499  12.850 -0.1710 -0.5568  0.3012
  662MOL0     C91251   6.236   2.560  12.971  0.8221 -0.9958  0.4952
  662MOL0     C91252   6.279   2.498  13.087  0.4018 -0.1093  0.0739
  662MOL0     C91253   6.349   2.377  13.090  1.2508 -0.2132  0.2717
  662MOL0     O91254   6.394   2.325  13.208 -0.1409 -0.4697 -0.4088
  662MOL0     C91255   6.312   2.251  13.292  0.8641  0.5242  0.3091
  662MOL0     C91256   6.391   2.137  13.350 -0.3481 -0.2085  0.4085
  662MOL0     C91257   6.482   2.175  13.479 -0.0221  0.3783 -0.6853
  662MOL0     C91258   6.548   2.060  13.557  0.8087  0.1317 -0.7675
  662MOL0     C91259   6.606   2.122  13.685 -0.2968 -0.0638  0.2493
  662MOL0     C91260   6.688   2.020  13.769 -0.1036  0.4517  0.1390
  662MOL0     C91261   6.839   2.024  13.740  0.2374 -0.1274  0.6307
  662MOL0     C91262   6.907   1.920  13.804 -0.6108 -0.7991 -0.1910
  662MOL0    Cl91263   6.841   1.753  13.783  0.5869 -0.1036 -0.3627
  662MOL0     C91264   6.369   2.317  12.966  0.1106  1.4559 -0.6416
  662MOL0     C91265   6.334   2.378  12.851 -0.1809  0.5789  0.3914
  662MOL0     O91266   6.062   2.400  12.686 -0.1560  0.0338  0.0069
  662MOL0     C91267   6.167   2.638  12.464  0.0729 -0.5392 -0.7041
  662MOL0     C91268   6.130   2.738  12.364 -0.5747  0.7469 -0.4404
  662MOL0     N91269   5.964   3.185  11.728 -0.0820  0.0834  0.6687
  662MOL0     N91270   6.036   3.168  11.619 -0.4278 -0.1195  0.3636
  662MOL0     C91271   5.590   2.168  11.544  0.5624 -0.6736  0.1863
  662MOL0     C91272   5.500   2.084  11.475 -0.2722 -0.8444 -0.3002
  662MOL0     C91273   5.382   1.737  11.217  0.3963 -0.7508 -0.0738
  662MOL0     C91274   5.351   1.607  11.235  0.6569  1.4780 -0.0468
  662MOL0     C91275   5.260   1.529  11.159 -0.5193  0.7881  1.2617
  662MOL0     C91276   5.209   1.586  11.048  0.6910 -0.2860 -0.1731
  662MOL0     O91277   5.122   1.511  10.971  0.5667  0.9552  0.9098
  662MOL0     C91278   5.059   1.570  10.856  0.6267 -1.0557  0.1159
  662MOL0     C91279   4.978   1.475  10.776 -0.2378  0.0182 -0.1149
  662MOL0     C91280   4.846   1.441  10.845  0.1578 -0.3783 -0.0015
  662MOL0     C91281   4.763   1.362  10.755 -0.5713  0.0130 -0.2397
  662MOL0     C91282   4.634   1.326  10.809  0.6788 -0.3020  0.1161
  662MOL0     C91283   4.530   1.305  10.866  0.1245  0.7805  0.0554
  662MOL0     C91284   5.232   1.721  11.014 -0.2204  0.1580  0.9407
  662MOL0     C91285   5.324   1.793  11.094 -0.0894  0.0186  0.3691
  662MOL0     C91286   5.373   1.931  11.032  0.9960  0.3760  0.9124
  662MOL0     H91287   5.708   1.963  11.234  2.3164 -1.5421  2.1510
  662MOL0     H91288   5.870   2.115  11.359 -1.3176  1.6269 -2.0233
  662MOL0     H91289   5.747   2.424  11.706 -2.8301  0.6140 -0.5292
  662MOL0     H91290   5.651   2.422  11.564 -0.4516  1.7613  1.0833
  662MOL0     H91291   5.859   2.491  11.423  0.1790  1.0161 -0.6512
  662MOL0     H91292   5.827   2.611  11.543 -0.4765 -0.1940  0.3951
  662MOL0     H91293   6.004   2.516  11.692 -1.6339 -0.7651  1.2188
  662MOL0     H91294   6.009   2.367  11.594 -3.2481 -0.4848 -1.0780
  662MOL0     H91295   6.200   2.500  11.570 -2.5654 -3.3563  1.7405
  662MOL0     H91296   6.124   2.445  11.414  0.0754  0.1466 -0.2751
  662MOL0     H91297   6.041   2.684  11.379  1.8043 -0.9353 -1.6926
  662MOL0     H91298   6.204   2.645  11.379  0.7968 -1.8842  1.6199
  662MOL0     H91299   6.073   2.793  11.609 -1.1716  0.1675  0.5477
  662MOL0     H91300   6.249   2.748  11.608  0.6145  0.0202 -0.7940
  662MOL0     H91301   6.091   2.946  11.441  1.3719  3.3257  0.7862
  662MOL0     H91302   6.258   2.895  11.390 -0.8534 -1.2959 -0.2794
  662MOL0     H91303   6.322   3.010  11.623 -1.3900 -1.2380  1.9633
  662MOL0     H91304   6.249   3.127  11.501 -0.8144  0.2063  0.2738
  662MOL0     H91305   6.190   2.985  11.842 -2.6265 -2.0009  0.7975
  662MOL0     H91306   5.925   3.233  11.995  1.3473  0.1134  3.9334
  662MOL0     H91307   6.074   3.146  12.040 -0.0197  1.4907 -0.0145
  662MOL0     H91308   5.807   3.004  11.968 -2.5878 -1.5833  4.8826
  662MOL0     H91309   5.958   2.932  12.023 -1.0677  0.1649 -0.6136
  662MOL0     H91310   5.905   3.104  12.227  1.0966  1.5874 -2.1447
  662MOL0     H91311   5.738   3.075  12.157 -0.2639 -1.2911 -1.9475
  662MOL0     H91312   5.780   2.904  12.324  3.4915  1.6969  2.7896
  662MOL0     H91313   5.794   2.834  12.156 -2.3084  2.5258 -2.5354
  662MOL0     H91314   5.794   2.707  12.404 -1.0016 -1.5536  0.9471
  662MOL0     H91315   5.785   2.468  12.568  2.7103 -1.1501  2.4675
  662MOL0     H91316   5.729   2.626  12.615  0.9993  1.2638  4.1115
  662MOL0     H91317   5.841   2.545  12.711 -3.8625  0.4863  0.5681
  662MOL0     H91318   6.178   2.652  12.980  0.2508 -0.9179 -2.7374
  662MOL0     H91319   6.250   2.548  13.180 -0.7616 -0.1765 -0.2372
  662MOL0     H91320   6.260   2.303  13.372  0.3400 -0.1119  0.3852
  662MOL0     H91321   6.230   2.204  13.236 -0.6949 -0.4434  3.2053
  662MOL0     H91322   6.315   2.065  13.382 -1.0901  0.0027 -0.8205
  662MOL0     H91323   6.454   2.096  13.271 -1.8115  1.3190 -1.6310
  662MOL0     H91324   6.416   2.223  13.552  1.8339  1.8974  0.0911
  662MOL0     H91325   6.554   2.250  13.445 -3.2617  2.6220 -3.2320
  662MOL0     H91326   6.624   2.024  13.488  2.2306  2.5415 -0.5725
  662MOL0     H91327   6.467   1.988  13.570 -0.0990  0.8127 -2.3527
  662MOL0     H91328   6.678   2.200  13.660  0.6584 -0.6303  1.1555
  662MOL0     H91329   6.531   2.160  13.755 -0.5562  0.3818 -0.2592
  662MOL0     H91330   6.650   1.921  13.745 -3.0350  0.9729  2.2414
  662MOL0     H91331   6.677   2.049  13.873  1.3870 -1.1958  0.8143
  662MOL0     H91332   6.883   2.116  13.782 -1.1641  0.7864  0.1661
  662MOL0     H91333   6.857   2.031  13.632 -1.8594 -0.3515  0.2286
  662MOL0     H91334   6.904   1.947  13.909 -2.9927 -1.3186 -0.0745
  662MOL0     H91335   7.013   1.915  13.777 -0.2201  0.5297  1.0088
  662MOL0     H91336   6.429   2.226  12.961 -1.6600  0.0449  1.5831
  662MOL0     H91337   6.332   2.328  12.755 -3.3112 -1.7850  1.4943
  662MOL0     H91338   6.268   2.602  12.481 -0.3368 -0.1935  3.7637
  662MOL0     H91339   6.203   2.796  12.308 -1.4062 -0.1315 -2.5182
  662MOL0     H91340   5.557   2.221  11.633 -0.1940 -0.2873 -0.3146
  662MOL0     H91341   5.399   2.097  11.513  1.1932  2.7691  3.0122
  662MOL0     H91342   5.402   1.561  11.320  3.0435 -0.1701 -2.2117
  662MOL0     H91343   5.233   1.426  11.183  1.9980 -0.0729  0.6339
  662MOL0     H91344   5.003   1.663  10.872  2.4635 -0.0415  0.9713
  662MOL0     H91345   5.141   1.604  10.792 -0.6605 -0.5484 -1.3310
  662MOL0     H91346   5.038   1.384  10.769 -0.9310 -0.3044 -2.9830
  662MOL0     H91347   4.960   1.513  10.675 -3.7739  0.1976  0.4395
  662MOL0     H91348   4.872   1.392  10.939  0.8986  0.6534  0.3552
  662MOL0     H91349   4.805   1.539  10.874 -1.5480  0.8908 -5.4819
  662MOL0     H91350   4.831   1.294  10.702  0.0564  2.9830 -3.6596
  662MOL0     H91351   4.742   1.436  10.677  3.1371  2.5878  0.9014
  662MOL0     H91352   4.433   1.281  10.904  0.0542 -2.7818 -1.9695
  662MOL0     H91353   5.207   1.775  10.924  5.8567  1.2037 -0.6172
  662MOL0     H91354   5.350   1.948  10.926  2.0118 -1.5209  0.3490
  662MOL0     H91355   5.323   2.014  11.084 -1.8287  1.7656 -3.4691
  662MOL0     H91356   5.480   1.943  11.051  1.3119 -0.6067 -0.1495
  663MOL0     O91357   8.548  10.783   1.837 -0.2270 -0.3733 -0.0987
  663MOL0     C91358   8.654  10.784   1.763  0.0751 -0.5366 -0.1918
  663MOL0     O91359   8.705  10.676   1.705 -0.7922 -0.0756 -0.0136
  663MOL0     C91360   8.637  10.560   1.696 -0.2585  0.0446  0.7538
  663MOL0     C91361   8.537  10.561   1.598  0.6723  0.7014  0.6154
  663MOL0     C91362   8.456  10.444   1.567 -1.2407 -1.3484 -0.0391
  663MOL0     C91363   8.485  10.325   1.626 -0.0334  0.4022 -0.8867
  663MOL0     O91364   8.407  10.220   1.596  0.0585 -0.4427 -0.8454
  663MOL0     C91365   8.284  10.210   1.673 -0.0909 -0.0224 -0.1461
  663MOL0     C91366   8.206  10.077   1.640 -0.5068 -0.5335  1.2330
  663MOL0     C91367   8.285   9.952   1.688  0.5271  0.2395 -0.4424
  663MOL0     C91368   8.206   9.822   1.669 -0.1089  0.3220  0.6399
  663MOL0     C91369   8.236   9.767   1.533 -0.1016 -0.7649  0.0244
  663MOL0     C91370   8.154   9.639   1.496 -1.0378 -0.5348 -0.5946
  663MOL0     C91371   8.203   9.563   1.368 -0.4201 -0.3898  0.2574
  663MOL0     C91372   8.166   9.618   1.236  0.0023 -0.0814  0.0387
  663MOL0     N91373   8.192   9.518   1.135 -0.3930 -0.1550  0.1310
  663MOL0     C91374   8.296   9.510   1.048 -0.5849  0.5630 -0.7903
  663MOL0     C91375   8.267   9.415   0.969  0.5513 -0.4088  0.6242
  663MOL0     C91376   8.359   9.389   0.858 -0.7095 -0.2425 -0.0764
  663MOL0     C91377   8.431   9.256   0.883  0.0193 -0.7611 -0.5905
  663MOL0     C91378   8.457   9.169   0.750  0.3060 -0.8318  0.6352
  663MOL0     C91379   8.521   9.038   0.777  0.1369  0.3096  0.3678
  663MOL0     O91380   8.635   9.026   0.867  0.3887 -0.7861 -0.5108
  663MOL0     C91381   8.756   9.046   0.808 -0.8811  0.8579  0.1582
  663MOL0     C91382   8.868   9.020   0.892 -0.3579  0.1299 -0.2061
  663MOL0     C91383   9.000   9.021   0.846  0.9151 -0.1456  0.0140
  663MOL0     C91384   9.099   8.968   0.942 -1.2612  0.0556  0.3218
  663MOL0     C91385   9.032   9.061   0.708  0.2833  0.1007  0.3919
  663MOL0     C91386   9.177   9.076   0.650  0.4316 -0.2079  0.4035
  663MOL0     O91387   9.188   9.141   0.526 -0.1249 -0.1588  0.1970
  663MOL0     C91388   9.308   9.174   0.471  0.2681  0.2323 -0.5241
  663MOL0     C91389   9.349   9.299   0.435  0.1056  0.1925 -0.1636
  663MOL0     C91390   9.476   9.315   0.371  0.0946 -1.0974 -0.1283
  663MOL0     C91391   9.556   9.208   0.336  0.6133 -0.2912 -1.2003
  663MOL0     O91392   9.681   9.220   0.266  0.0405  0.8786 -0.0651
  663MOL0     C91393   9.766   9.326   0.279 -0.2192 -0.2640 -1.0007
  663MOL0     C91394   9.916   9.284   0.277 -0.1910  0.6127 -0.4703
  663MOL0     C91395  10.009   9.396   0.332 -1.0316 -0.1404 -0.0763
  663MOL0     C91396  10.152   9.401   0.267  0.9478  0.2189 -0.6194
  663MOL0     C91397  10.250   9.463   0.352  0.3953 -0.0283 -1.3330
  663MOL0     C91398  10.214   9.613   0.404 -0.4155  0.6836 -0.1330
  663MOL0     C91399  10.312   9.654   0.506  0.3110  0.1926  0.5961
  663MOL0     C91400  10.266   9.599   0.641 -0.5338  0.4999 -0.3852
  663MOL0    Cl91401  10.411   9.560   0.749 -0.0912  0.0066  0.0620
  663MOL0     C91402   9.522   9.081   0.375  0.1231  0.6375 -0.1099
  663MOL0     C91403   9.392   9.064   0.436 -0.2477 -0.3447  0.3873
  663MOL0     O91404   9.272   9.042   0.718 -0.8401  0.7325  0.7332
  663MOL0     C91405   8.913   9.087   0.626  0.9289 -0.3317  0.0444
  663MOL0     C91406   8.785   9.081   0.676 -0.1789 -0.2186  0.7099
  663MOL0     N91407   8.153   9.351   1.009 -0.3172 -0.3170 -0.1598
  663MOL0     N91408   8.103   9.414   1.106  0.4977 -1.1061 -0.3239
  663MOL0     C91409   8.588  10.316   1.718 -0.1532  0.3148 -0.5516
  663MOL0     C91410   8.665  10.431   1.746 -0.7847 -0.0873 -0.7998
  663MOL0     C91411   8.721  10.913   1.740  0.5733 -1.0222  0.3787
  663MOL0     C91412   8.817  10.921   1.635 -0.4150 -0.6255 -0.5292
  663MOL0     C91413   8.888  11.044   1.612  0.0328 -0.1602 -0.9121
  663MOL0     C91414   8.858  11.162   1.679  0.3259  0.0767  0.1097
  663MOL0     O91415   8.942  11.260   1.650 -0.5191 -0.0091 -0.0563
  663MOL0     C91416   8.901  11.396   1.691  0.0081 -0.2960  0.9459
  663MOL0     C91417   8.984  11.507   1.604  0.7171  0.1918 -0.3191
  663MOL0     C91418   8.930  11.541   1.462  0.1117  0.2997  0.2846
  663MOL0     C91419   9.008  11.665   1.414  0.2423  0.4507 -0.6525
  663MOL0     C91420   8.925  11.786   1.432 -0.2509  0.8752 -0.7524
  663MOL0     C91421   8.839  11.865   1.449  0.4795  0.0837  0.2559
  663MOL0     C91422   8.760  11.158   1.781 -0.0579 -0.7762  0.3243
  663MOL0     C91423   8.695  11.033   1.813  0.4501 -0.1435 -0.7057
  663MOL0     C91424   8.607  11.042   1.935 -0.8225  0.5347 -0.3706
  663MOL0     H91425   8.513  10.651   1.543 -0.1641 -1.3973 -2.7498
  663MOL0     H91426   8.382  10.459   1.488 -0.8162 -1.0223 -0.3828
  663MOL0     H91427   8.224  10.298   1.648  0.5811  0.1516 -1.1863
  663MOL0     H91428   8.299  10.214   1.781  1.5699  0.4322 -0.3777
  663MOL0     H91429   8.101  10.078   1.669 -0.5578 -1.9788  1.1996
  663MOL0     H91430   8.203  10.084   1.531 -2.8080  1.0423  1.3367
  663MOL0     H91431   8.385   9.942   1.644  0.5359 -1.2065 -0.1424
  663MOL0     H91432   8.308   9.966   1.794  1.8759  0.3378 -0.7295
  663MOL0     H91433   8.256   9.749   1.734 -0.8635 -2.3243 -1.6046
  663MOL0     H91434   8.098   9.830   1.684 -0.2015 -0.3337  0.3220
  663MOL0     H91435   8.343   9.743   1.533  0.0256 -0.2825  1.5863
  663MOL0     H91436   8.231   9.847   1.458  1.9430 -0.9770 -0.4174
  663MOL0     H91437   8.148   9.570   1.581 -1.1669 -0.2011 -0.3273
  663MOL0     H91438   8.052   9.678   1.481  0.0789  2.0283 -2.1499
  663MOL0     H91439   8.149   9.468   1.375 -3.0221  1.1142  3.4907
  663MOL0     H91440   8.311   9.550   1.376 -0.0454  2.4079  0.6769
  663MOL0     H91441   8.058   9.632   1.229  0.1350  0.9375 -0.2221
  663MOL0     H91442   8.210   9.717   1.221 -0.4709 -0.0020 -0.8733
  663MOL0     H91443   8.369   9.590   1.044  0.6177 -0.3018  1.7765
  663MOL0     H91444   8.422   9.478   0.848 -0.8316 -0.2422 -0.9566
  663MOL0     H91445   8.295   9.374   0.771 -1.7199 -0.7501  0.7282
  663MOL0     H91446   8.522   9.287   0.936 -0.0123  0.7337 -1.3380
  663MOL0     H91447   8.370   9.203   0.956  2.4802 -1.2533  1.2458
  663MOL0     H91448   8.360   9.157   0.699  0.5545 -1.1012  0.2244
  663MOL0     H91449   8.523   9.225   0.684  1.8900  1.1275  3.6351
  663MOL0     H91450   8.440   8.987   0.829 -0.5148 -0.2255 -1.1304
  663MOL0     H91451   8.514   8.977   0.687  0.4141 -2.1594  1.9271
  663MOL0     H91452   8.846   8.978   0.989 -1.3415 -1.0140 -0.9004
  663MOL0     H91453   9.138   8.876   0.898  3.9061  2.0165  0.1123
  663MOL0     H91454   9.042   8.956   1.035 -3.1033  0.1854 -0.7321
  663MOL0     H91455   9.187   9.030   0.962 -0.3687 -0.7948 -0.8520
  663MOL0     H91456   9.287   9.388   0.426  0.1120  0.1205 -0.9929
  663MOL0     H91457   9.510   9.414   0.342 -1.3326 -0.9117 -1.2556
  663MOL0     H91458   9.730   9.392   0.199 -1.9372  0.3695  0.2396
  663MOL0     H91459   9.752   9.370   0.378  0.0328 -2.6829  0.1807
  663MOL0     H91460   9.913   9.198   0.345 -0.8928 -0.3771 -1.7033
  663MOL0     H91461   9.948   9.245   0.180  1.4380  1.3685 -0.2593
  663MOL0     H91462  10.016   9.389   0.441 -0.9217  2.5565  0.1485
  663MOL0     H91463   9.961   9.489   0.302 -0.0940  0.6983  0.9103
  663MOL0     H91464  10.138   9.461   0.177 -1.7561 -1.6046 -1.5224
  663MOL0     H91465  10.200   9.308   0.238  1.6927  0.6999 -0.9497
  663MOL0     H91466  10.253   9.402   0.442 -2.5568  0.3026 -0.9239
  663MOL0     H91467  10.344   9.470   0.296 -0.3072  0.7902 -2.4513
  663MOL0     H91468  10.113   9.614   0.445 -0.1015 -2.4284  0.9432
  663MOL0     H91469  10.224   9.693   0.330  3.3101 -0.9001 -1.5803
  663MOL0     H91470  10.316   9.762   0.518 -1.9922  0.4586 -0.4499
  663MOL0     H91471  10.413   9.618   0.486 -1.1597 -3.1161 -1.8285
  663MOL0     H91472  10.208   9.507   0.632  2.0701 -1.1829 -1.2624
  663MOL0     H91473  10.202   9.673   0.690 -1.9111  0.4145 -1.9702
  663MOL0     H91474   9.586   8.997   0.353 -1.0302 -1.3572  3.2786
  663MOL0     H91475   9.362   8.960   0.449 -0.5266 -1.4606 -6.0051
  663MOL0     H91476   8.937   9.118   0.525 -0.3212 -0.1721 -0.2192
  663MOL0     H91477   8.704   9.103   0.606 -0.2689  0.4802  1.0257
  663MOL0     H91478   8.617  10.226   1.773 -1.9108  0.0763  0.0618
  663MOL0     H91479   8.742  10.421   1.823 -2.0742  1.6882  0.8235
  663MOL0     H91480   8.838  10.836   1.571 -0.8586 -1.3322  0.2439
  663MOL0     H91481   8.963  11.030   1.535  0.6358 -0.6614 -0.2490
  663MOL0     H91482   8.795  11.410   1.670  1.1029  2.7262 -4.3386
  663MOL0     H91483   8.925  11.410   1.796  0.1507  0.1106  0.8587
  663MOL0     H91484   9.086  11.470   1.589 -0.4575 -2.7828 -1.6815
  663MOL0     H91485   8.964  11.596   1.664 -2.9615  1.1462 -2.6646
  663MOL0     H91486   8.952  11.454   1.399 -1.6887  0.0550 -0.0542
  663MOL0     H91487   8.823  11.562   1.464  0.4383  2.2688  3.1757
  663MOL0     H91488   9.033  11.637   1.311  1.5115  1.8273 -0.7579
  663MOL0     H91489   9.101  11.669   1.472 -0.2039 -0.6329  0.1922
  663MOL0     H91490   8.753  11.927   1.461 -0.7539 -1.6791  0.8879
  663MOL0     H91491   8.739  11.252   1.830 -1.5531 -2.1302  2.4260
  663MOL0     H91492   8.505  11.035   1.896 -0.0646  0.3866 -2.4589
  663MOL0     H91493   8.630  10.963   2.007 -2.7544  1.7076  1.6523
  663MOL0     H91494   8.617  11.139   1.984 -1.5321  0.1576  0.5343
  664MOL0     O91495   0.065   5.056  10.639 -0.2382  0.3067 -0.3628
  664MOL0     C91496   0.024   5.169  10.657  1.3411  0.8264 -0.2931
  664MOL0     O91497  -0.011   5.217  10.783  0.2208  0.1601  0.1649
  664MOL0     C91498   0.042   5.161  10.891  0.0780 -0.6122 -0.4135
  664MOL0     C91499   0.177   5.120  10.912  0.7786 -0.3770  1.0815
  664MOL0     C91500   0.212   5.061  11.042  0.3186  0.0241  1.2130
  664MOL0     C91501   0.124   5.044  11.151 -0.5167  1.1944  0.7554
  664MOL0     O91502   0.150   4.987  11.275 -0.1376 -0.0382 -0.6470
  664MOL0     C91503   0.288   4.963  11.325  0.4613  0.1277 -0.1008
  664MOL0     C91504   0.285   4.826  11.400 -1.0558 -0.1225  0.2478
  664MOL0     C91505   0.309   4.703  11.315  0.1849 -0.1573  0.3069
  664MOL0     C91506   0.310   4.576  11.394 -0.2494 -0.5475 -0.3841
  664MOL0     C91507   0.334   4.443  11.323 -0.9455  0.1597  0.6343
  664MOL0     C91508   0.464   4.441  11.233  0.1569  0.0692  0.1791
  664MOL0     C91509   0.492   4.316  11.156  0.6131  0.0006  0.6635
  664MOL0     C91510   0.628   4.326  11.082 -0.4299 -0.0388 -0.4737
  664MOL0     N91511   0.639   4.207  10.999  0.0342 -0.2784 -0.0398
  664MOL0     C91512   0.670   4.082  11.039  1.3113 -0.0046  0.2206
  664MOL0     C91513   0.636   4.003  10.940  1.4067  1.1798 -0.7264
  664MOL0     C91514   0.656   3.858  10.930 -0.3530 -0.1613  0.1156
  664MOL0     C91515   0.793   3.807  10.990  0.1319 -0.0897  0.3903
  664MOL0     C91516   0.815   3.663  10.927  0.8915 -0.8963  0.1808
  664MOL0     C91517   0.741   3.538  10.999 -0.2669  0.2793  1.3060
  664MOL0     O91518   0.791   3.533  11.130  0.3414 -0.5651 -0.0401
  664MOL0     C91519   0.918   3.497  11.160  0.0559  0.7837 -0.1128
  664MOL0     C91520   1.014   3.442  11.066  0.6087  0.2693 -0.4057
  664MOL0     C91521   1.150   3.418  11.112  0.9386 -0.1550 -0.0372
  664MOL0     C91522   1.246   3.377  11.005  0.4038  0.2347 -0.3014
  664MOL0     C91523   1.175   3.434  11.254 -0.2244 -0.5923  0.1895
  664MOL0     C91524   1.304   3.421  11.313  0.3182  0.3975  0.5110
  664MOL0     O91525   1.364   3.294  11.292  0.2079 -0.8290 -0.6458
  664MOL0     C91526   1.485   3.279  11.342 -0.6910  0.6053 -0.0102
  664MOL0     C91527   1.515   3.247  11.478  0.8117  0.3682  0.1631
  664MOL0     C91528   1.645   3.236  11.520 -0.5289  0.5916  0.3003
  664MOL0     C91529   1.752   3.269  11.434 -0.4161  0.0085  1.4161
  664MOL0     O91530   1.881   3.293  11.472 -0.0437 -0.2000  0.3611
  664MOL0     C91531   1.930   3.231  11.589  0.1517  0.2223  0.4931
  664MOL0     C91532   2.044   3.132  11.554  0.6182 -0.2769 -0.6737
  664MOL0     C91533   2.003   3.021  11.456  1.1496  0.0661  0.3916
  664MOL0     C91534   2.117   2.936  11.398  0.7748 -0.2154  0.8192
  664MOL0     C91535   2.068   2.818  11.301 -0.0303 -0.6148 -0.4440
  664MOL0     C91536   2.182   2.793  11.202 -0.3958 -0.6171  0.0276
  664MOL0     C91537   2.313   2.713  11.261  0.1566 -0.2209  0.0433
  664MOL0     C91538   2.375   2.614  11.157  0.7547 -0.3392  0.2847
  664MOL0    Cl91539   2.461   2.696  11.021  0.1694 -0.0220 -0.1887
  664MOL0     C91540   1.720   3.303  11.303 -0.4169 -0.7706  0.9401
  664MOL0     C91541   1.589   3.306  11.253  0.1114 -0.5928 -0.5603
  664MOL0     O91542   1.350   3.524  11.356 -1.1170 -0.2729 -0.3419
  664MOL0     C91543   1.071   3.464  11.341 -0.3342  0.1205  0.8786
  664MOL0     C91544   0.942   3.496  11.296 -0.8444 -0.2152  0.1124
  664MOL0     N91545   0.581   4.073  10.833  0.1162 -0.3952 -1.1075
  664MOL0     N91546   0.580   4.193  10.875 -0.1936  0.3284 -1.3967
  664MOL0     C91547  -0.006   5.095  11.124 -0.8587 -0.3481  0.6222
  664MOL0     C91548  -0.040   5.158  11.003 -0.2648  0.5474 -0.2168
  664MOL0     C91549  -0.005   5.260  10.536  0.0596 -0.1740  0.2480
  664MOL0     C91550  -0.103   5.355  10.557 -0.2201  0.5494 -0.6026
  664MOL0     C91551  -0.130   5.446  10.461  0.0982 -0.9841  0.2925
  664MOL0     C91552  -0.074   5.440  10.337  0.2254  0.2245 -0.5206
  664MOL0     O91553  -0.088   5.522  10.228  0.4395  0.3837  0.5599
  664MOL0     C91554  -0.183   5.620  10.235 -0.2977  0.2996 -0.1023
  664MOL0     C91555  -0.172   5.684  10.094  0.2134 -0.0170  0.5309
  664MOL0     C91556  -0.052   5.775  10.081 -0.5901 -0.6815  0.1421
  664MOL0     C91557  -0.034   5.822   9.939 -0.5019 -0.2673  0.4667
  664MOL0     C91558   0.088   5.906   9.932  0.4846  0.3795  0.4715
  664MOL0     C91559   0.178   5.985   9.934  0.7956  0.2937 -0.1832
  664MOL0     C91560   0.024   5.339  10.317  0.1110  0.0480 -0.1590
  664MOL0     C91561   0.067   5.256  10.418 -0.4272 -0.3629  0.0738
  664MOL0     C91562   0.176   5.154  10.394 -1.1787 -0.7762 -0.7928
  664MOL0     H91563   0.245   5.137  10.830  0.0380  4.1150  1.1441
  664MOL0     H91564   0.319   5.043  11.049  0.1336 -1.4611  0.5936
  664MOL0     H91565   0.306   5.034  11.406 -1.5755  0.6705 -0.0904
  664MOL0     H91566   0.361   4.959  11.244 -1.1624 -2.9938 -1.5833
  664MOL0     H91567   0.373   4.831  11.466  0.5228 -1.0581 -1.6916
  664MOL0     H91568   0.190   4.816  11.453 -1.8875 -1.0262 -1.3575
  664MOL0     H91569   0.228   4.697  11.241 -0.6470  4.1208  0.5682
  664MOL0     H91570   0.405   4.714  11.264 -2.3119 -0.1170 -5.1185
  664MOL0     H91571   0.404   4.593  11.448  0.9393 -2.8678 -1.5708
  664MOL0     H91572   0.223   4.570  11.460 -1.9380 -1.1154 -2.5517
  664MOL0     H91573   0.247   4.424  11.259  1.6121  3.5383 -4.6573
  664MOL0     H91574   0.339   4.372  11.406 -0.5908  0.2632  0.7034
  664MOL0     H91575   0.450   4.525  11.164 -1.5387  0.3923  0.8811
  664MOL0     H91576   0.553   4.469  11.290  0.6545  0.3248 -0.7100
  664MOL0     H91577   0.407   4.314  11.087  3.5743 -0.0070 -3.3337
  664MOL0     H91578   0.497   4.222  11.210  1.0316 -2.9010 -3.8664
  664MOL0     H91579   0.624   4.413  11.016  4.2497 -1.3879 -2.9403
  664MOL0     H91580   0.718   4.339  11.143  1.4671  3.0227 -3.5874
  664MOL0     H91581   0.708   4.058  11.137 -1.5431 -0.3656  1.3499
  664MOL0     H91582   0.658   3.831  10.824  2.3558  0.2698 -0.0220
  664MOL0     H91583   0.573   3.823  10.992 -0.7331  0.8370  0.1954
  664MOL0     H91584   0.878   3.863  10.948 -0.6327 -1.3213 -3.0720
  664MOL0     H91585   0.800   3.819  11.099  0.1104  1.3590  0.2567
  664MOL0     H91586   0.778   3.663  10.824 -1.3606 -0.4692  0.9337
  664MOL0     H91587   0.924   3.654  10.934  1.3758  2.7158 -0.6028
  664MOL0     H91588   0.632   3.541  10.999 -0.5748 -3.4687  3.9815
  664MOL0     H91589   0.778   3.449  10.947  1.7653  2.2197 -0.8278
  664MOL0     H91590   0.991   3.422  10.962 -3.6166  2.9105 -0.2280
  664MOL0     H91591   1.262   3.468  10.946 -0.8785 -0.8807 -2.4936
  664MOL0     H91592   1.212   3.295  10.940  2.2545  1.8035 -3.4586
  664MOL0     H91593   1.339   3.342  11.050  0.5550  1.1332  0.0975
  664MOL0     H91594   1.435   3.241  11.551 -0.7696  0.9345 -1.4507
  664MOL0     H91595   1.660   3.207  11.623 -0.5071 -1.8676 -0.3330
  664MOL0     H91596   1.980   3.303  11.654  1.2736  1.6820 -1.8718
  664MOL0     H91597   1.854   3.164  11.630  0.7669 -2.1611 -1.9847
  664MOL0     H91598   2.134   3.187  11.523  0.8598  0.1902  0.7965
  664MOL0     H91599   2.084   3.091  11.647  2.3169  0.2254 -1.1339
  664MOL0     H91600   1.953   3.059  11.367 -0.3030  0.2216  1.2355
  664MOL0     H91601   1.928   2.959  11.506 -1.0197  0.8046 -1.7725
  664MOL0     H91602   2.179   2.888  11.473  0.4643 -0.8652  0.6701
  664MOL0     H91603   2.191   2.995  11.342  0.8515  0.1803  1.3266
  664MOL0     H91604   2.037   2.726  11.351 -1.8964 -0.3929 -1.0850
  664MOL0     H91605   1.987   2.853  11.236  0.8597 -0.6511 -1.6024
  664MOL0     H91606   2.220   2.891  11.171 -0.8365 -0.3048  0.4440
  664MOL0     H91607   2.136   2.740  11.119 -2.2426 -1.1804  1.3511
  664MOL0     H91608   2.271   2.662  11.348 -1.6392  0.5718 -0.3142
  664MOL0     H91609   2.397   2.773  11.297  2.7012 -3.0830 -0.7129
  664MOL0     H91610   2.293   2.552  11.119 -1.2516  1.2802  1.7609
  664MOL0     H91611   2.452   2.554  11.205  2.6867  1.6082 -0.2344
  664MOL0     H91612   1.809   3.320  11.244  0.1323 -1.5644  1.5063
  664MOL0     H91613   1.563   3.343  11.154 -2.0141  1.0847  0.5304
  664MOL0     H91614   1.101   3.465  11.445  0.9578 -0.5759  0.5470
  664MOL0     H91615   0.874   3.525  11.376 -0.9442 -0.2265  0.0331
  664MOL0     H91616  -0.071   5.083  11.210  0.2852 -0.9790  1.4352
  664MOL0     H91617  -0.142   5.195  10.996 -0.4833  0.2107  1.0081
  664MOL0     H91618  -0.144   5.369  10.657  3.4704  0.4357  1.0822
  664MOL0     H91619  -0.207   5.516  10.491 -1.9079 -1.9482 -2.2507
  664MOL0     H91620  -0.278   5.576  10.268 -0.6518 -0.6176 -2.1719
  664MOL0     H91621  -0.155   5.691  10.313  2.2458 -1.7973  1.0349
  664MOL0     H91622  -0.259   5.749  10.079  1.9787  2.1275 -1.1451
  664MOL0     H91623  -0.168   5.621  10.004 -2.1144  1.2890 -0.5738
  664MOL0     H91624  -0.058   5.868  10.138  1.5088  0.4546 -1.3342
  664MOL0     H91625   0.047   5.736  10.104  0.6620  2.3084  0.3253
  664MOL0     H91626  -0.132   5.865   9.915  0.0073  0.1361 -0.9664
  664MOL0     H91627  -0.028   5.743   9.864 -3.6521  1.4791 -1.8940
  664MOL0     H91628   0.258   6.054   9.942  1.3331 -0.2792 -0.5048
  664MOL0     H91629   0.082   5.326  10.226 -0.6202  3.4673 -1.2553
  664MOL0     H91630   0.160   5.050  10.424  0.2973 -0.2461  2.2111
  664MOL0     H91631   0.218   5.156  10.293  5.6864 -2.2511  1.5268
  664MOL0     H91632   0.245   5.193  10.470 -5.0405  3.7064  0.8955
  665MOL0     O91633  10.373   0.533   2.496  1.0693 -0.3582  0.3090
  665MOL0     C91634  10.313   0.617   2.439  0.3721 -0.3565  0.4115
  665MOL0     O91635  10.303   0.746   2.478 -0.7465  0.0410  0.1688
  665MOL0     C91636  10.403   0.796   2.562  0.2112  0.0659 -0.1860
  665MOL0     C91637  10.481   0.899   2.506 -0.3025  0.2207 -0.5953
  665MOL0     C91638  10.577   0.968   2.586  0.3461 -0.3813  0.6924
  665MOL0     C91639  10.610   0.921   2.703 -0.6668  0.2380 -1.2388
  665MOL0     O91640  10.708   0.991   2.771  0.4501 -0.6702  0.0133
  665MOL0     C91641  10.724   0.965   2.909 -0.6683  0.6175 -0.1206
  665MOL0     C91642  10.846   1.039   2.952  0.3660  0.5671 -1.0362
  665MOL0     C91643  10.868   1.012   3.095 -1.3197  0.0339  0.4958
  665MOL0     C91644  10.901   0.871   3.126  0.1958  0.4271  0.7939
  665MOL0     C91645  10.959   0.833   3.264 -0.3602 -0.9592  0.4418
  665MOL0     C91646  10.978   0.679   3.288  0.4182 -0.2479  0.5668
  665MOL0     C91647  11.012   0.653   3.435  0.6921  0.2171  0.0196
  665MOL0     C91648  11.065   0.523   3.464 -0.2725 -0.1819  0.0425
  665MOL0     N91649  10.967   0.413   3.469  0.5328  0.3443 -0.1769
  665MOL0     C91650  10.828   0.424   3.496  0.3515 -0.5144  0.7838
  665MOL0     C91651  10.793   0.293   3.500  0.5193  0.4395 -0.7304
  665MOL0     C91652  10.654   0.244   3.494  0.6833  0.4585 -0.0202
  665MOL0     C91653  10.633   0.105   3.558  0.7449 -0.0245 -0.1054
  665MOL0     C91654  10.481   0.067   3.582 -0.5421  0.2702  0.2872
  665MOL0     C91655  10.452  -0.086   3.550 -0.1239 -1.1614 -1.1338
  665MOL0     O91656  10.528  -0.161   3.651 -0.5784 -0.3694  0.6170
  665MOL0     C91657  10.511  -0.290   3.665  0.4911  0.4416 -0.2148
  665MOL0     C91658  10.612  -0.344   3.733 -0.6547  0.1858  0.0218
  665MOL0     C91659  10.608  -0.484   3.763  0.0394  0.0476  0.6668
  665MOL0     C91660  10.734  -0.535   3.839  0.0210 -0.1684  0.3376
  665MOL0     C91661  10.496  -0.564   3.732  0.2439 -0.1304  1.0829
  665MOL0     C91662  10.478  -0.708   3.770  0.1075 -1.0252 -0.4250
  665MOL0     O91663  10.355  -0.746   3.814  0.3691 -0.2496  0.3479
  665MOL0     C91664  10.344  -0.876   3.847  0.0516  0.6997 -0.9142
  665MOL0     C91665  10.390  -0.981   3.759 -0.7018  0.8310  0.2508
  665MOL0     C91666  10.387  -1.118   3.808  0.3061 -0.6452 -0.4559
  665MOL0     C91667  10.358  -1.153   3.942 -0.2890 -0.6600 -0.2153
  665MOL0     O91668  10.385  -1.282   3.983 -0.6781 -0.4198 -0.3460
  665MOL0     C91669  10.398  -1.309   4.125  0.2039  0.1443  0.5275
  665MOL0     C91670  10.503  -1.419   4.145  0.9331 -0.8802  0.5539
  665MOL0     C91671  10.453  -1.487   4.259 -0.0389  0.2284 -0.0644
  665MOL0     C91672  10.557  -1.600   4.304 -0.3509 -0.7220 -0.2815
  665MOL0     C91673  10.473  -1.686   4.397  0.8716  0.1520  0.2432
  665MOL0     C91674  10.554  -1.791   4.465 -0.1956 -0.0315  0.4914
  665MOL0     C91675  10.477  -1.887   4.553 -1.5942  0.6585  1.1673
  665MOL0     C91676  10.573  -1.960   4.634  0.1566 -0.2010  0.7011
  665MOL0    Cl91677  10.635  -2.097   4.539 -0.0522 -0.5807 -0.1709
  665MOL0     C91678  10.310  -1.054   4.025 -0.0608 -0.4780  0.6778
  665MOL0     C91679  10.302  -0.920   3.976  1.2056  0.7985 -0.0504
  665MOL0     O91680  10.572  -0.779   3.743 -0.9591  1.1708  0.4163
  665MOL0     C91681  10.395  -0.504   3.656  0.0104 -0.0801  1.1525
  665MOL0     C91682  10.411  -0.374   3.612 -0.5304  0.4005 -0.2354
  665MOL0     N91683  10.905   0.205   3.483 -0.2397 -0.7342  0.0154
  665MOL0     N91684  11.008   0.284   3.482  0.0493  0.9345 -0.1129
  665MOL0     C91685  10.538   0.813   2.759 -0.3805 -0.1964  0.0961
  665MOL0     C91686  10.434   0.753   2.688 -1.7107  0.2330  0.1690
  665MOL0     C91687  10.231   0.579   2.325 -0.2006  0.0399  0.1319
  665MOL0     C91688  10.188   0.443   2.326 -0.3620 -0.8799 -0.6980
  665MOL0     C91689  10.119   0.393   2.212  0.4605 -0.4656  0.0883
  665MOL0     C91690  10.105   0.469   2.098 -0.5715 -0.0004 -0.0889
  665MOL0     O91691  10.055   0.432   1.980 -0.3706  0.2040 -0.3627
  665MOL0     C91692   9.984   0.312   1.965 -0.5405  0.1282 -0.3311
  665MOL0     C91693   9.934   0.263   1.836  0.6866  0.3689  0.0492
  665MOL0     C91694   9.807   0.328   1.776 -1.2030 -0.0956  0.0802
  665MOL0     C91695   9.679   0.304   1.859 -0.4293 -0.5122  0.7558
  665MOL0     C91696   9.563   0.330   1.771 -0.1788 -0.4700 -0.8195
  665MOL0     C91697   9.454   0.355   1.717  0.2100  0.2223 -0.5898
  665MOL0     C91698  10.163   0.597   2.093  0.0855  0.4571 -0.5835
  665MOL0     C91699  10.207   0.657   2.210  0.2913 -0.7354  0.3958
  665MOL0     C91700  10.270   0.791   2.192 -0.9352 -0.2438  0.2820
  665MOL0     H91701  10.444   0.939   2.412 -1.2295 -0.2496 -0.4315
  665MOL0     H91702  10.627   1.043   2.525 -1.3533 -0.3064 -0.6805
  665MOL0     H91703  10.754   0.860   2.916  0.6136  1.0685  2.6734
  665MOL0     H91704  10.631   0.993   2.960 -1.1385  3.8118 -2.4336
  665MOL0     H91705  10.929   1.025   2.882 -0.0066  4.4264 -2.4826
  665MOL0     H91706  10.821   1.146   2.951 -0.0774  0.4826 -0.2291
  665MOL0     H91707  10.956   1.069   3.126 -3.0211  1.8661  2.2593
  665MOL0     H91708  10.785   1.044   3.159 -0.7586  1.2819  0.6401
  665MOL0     H91709  10.799   0.831   3.117 -1.0449  3.6298 -1.0233
  665MOL0     H91710  10.972   0.836   3.050  3.2634  2.5492  2.4646
  665MOL0     H91711  10.891   0.878   3.337 -2.6106 -0.8210 -1.5788
  665MOL0     H91712  11.051   0.892   3.268 -1.5394  1.1829 -1.4243
  665MOL0     H91713  10.880   0.631   3.273  0.7407 -0.5224 -0.8195
  665MOL0     H91714  11.049   0.633   3.219  2.4910  1.2101  1.6542
  665MOL0     H91715  10.919   0.668   3.490  0.1050 -1.6063 -0.3932
  665MOL0     H91716  11.090   0.723   3.466 -0.4933  2.6303 -2.0905
  665MOL0     H91717  11.148   0.512   3.394 -2.9968 -1.3491 -3.3020
  665MOL0     H91718  11.121   0.520   3.558  0.0894  0.8651 -0.1352
  665MOL0     H91719  10.765   0.512   3.497 -0.8533 -1.3519 -0.1186
  665MOL0     H91720  10.633   0.224   3.388  1.2451  0.6678 -0.1751
  665MOL0     H91721  10.595   0.319   3.546  0.4484  1.1330 -1.2142
  665MOL0     H91722  10.682   0.044   3.482  1.9402 -0.1851  0.7838
  665MOL0     H91723  10.675   0.097   3.659  2.3101 -0.6795 -0.7848
  665MOL0     H91724  10.461   0.103   3.684 -0.6669  3.5446 -0.7880
  665MOL0     H91725  10.419   0.130   3.518  2.7363  1.8014 -1.5952
  665MOL0     H91726  10.346  -0.107   3.565 -0.4171  0.1150 -1.2314
  665MOL0     H91727  10.481  -0.112   3.447  0.4889  0.7912 -1.4967
  665MOL0     H91728  10.694  -0.278   3.759  0.9124 -1.0343 -1.6296
  665MOL0     H91729  10.810  -0.457   3.847 -1.7350  1.8895 -1.5535
  665MOL0     H91730  10.791  -0.609   3.783  0.2358  0.3969 -0.1998
  665MOL0     H91731  10.712  -0.553   3.945  3.0617  2.7111  1.6292
  665MOL0     H91732  10.405  -0.953   3.656  0.3833 -1.2423 -0.2108
  665MOL0     H91733  10.402  -1.195   3.733  0.3718 -1.0871  0.0050
  665MOL0     H91734  10.433  -1.229   4.191  2.5033 -0.9575  0.7521
  665MOL0     H91735  10.296  -1.338   4.152 -0.8252  1.2203 -1.9124
  665MOL0     H91736  10.508  -1.478   4.053 -3.7079 -0.2986 -0.3030
  665MOL0     H91737  10.602  -1.377   4.162  0.2779  0.6144  0.8465
  665MOL0     H91738  10.361  -1.536   4.226 -1.0707  1.5546  0.7155
  665MOL0     H91739  10.429  -1.417   4.340  0.8758 -0.2078  0.5975
  665MOL0     H91740  10.637  -1.544   4.352 -1.7658  0.9816  0.1897
  665MOL0     H91741  10.591  -1.659   4.219 -2.2038 -1.5743 -0.4900
  665MOL0     H91742  10.446  -1.610   4.471 -1.5367  1.2363 -1.6269
  665MOL0     H91743  10.400  -1.736   4.334  1.3621  0.9289 -0.9892
  665MOL0     H91744  10.640  -1.742   4.511  0.5570 -0.4484 -0.4289
  665MOL0     H91745  10.596  -1.862   4.393  2.9663  1.2676  0.8737
  665MOL0     H91746  10.409  -1.955   4.501 -1.1780 -0.2320  1.7531
  665MOL0     H91747  10.425  -1.827   4.628 -0.4986  1.7194  1.1251
  665MOL0     H91748  10.526  -1.995   4.727  2.3703  0.0692  1.9939
  665MOL0     H91749  10.659  -1.899   4.661 -0.5122  0.4350  1.4794
  665MOL0     H91750  10.280  -1.075   4.127 -1.0177  1.9921  0.9758
  665MOL0     H91751  10.256  -0.849   4.044  2.3307  1.3166  0.1830
  665MOL0     H91752  10.308  -0.559   3.620 -1.3603  2.0201  1.0885
  665MOL0     H91753  10.331  -0.348   3.544  1.2161 -0.6447 -2.8627
  665MOL0     H91754  10.549   0.760   2.853  1.6246  0.8979  0.5453
  665MOL0     H91755  10.375   0.674   2.733  0.3618 -0.6123  1.5760
  665MOL0     H91756  10.220   0.384   2.411  2.9764  2.1495  0.4346
  665MOL0     H91757  10.073   0.295   2.220 -4.1103  1.5382  2.2477
  665MOL0     H91758  10.041   0.226   1.999 -0.3667  0.2791 -0.2363
  665MOL0     H91759   9.889   0.337   2.013 -2.0794 -1.8908 -2.1468
  665MOL0     H91760   9.922   0.155   1.848  2.2211  0.1120 -0.4107
  665MOL0     H91761  10.019   0.275   1.768  0.2146 -2.1871 -1.1273
  665MOL0     H91762   9.814   0.437   1.773  2.0364 -0.2115  0.4727
  665MOL0     H91763   9.800   0.303   1.669 -0.8723 -0.5431  0.1587
  665MOL0     H91764   9.676   0.363   1.951 -1.0764  0.5085  0.1009
  665MOL0     H91765   9.673   0.201   1.894 -3.9605 -0.4282  0.7538
  665MOL0     H91766   9.364   0.355   1.658 -0.2711 -2.3455  0.0415
  665MOL0     H91767  10.161   0.658   2.003 -0.0306 -0.3272 -1.1344
  665MOL0     H91768  10.249   0.832   2.093  1.7936  1.2707  0.2490
  665MOL0     H91769  10.231   0.862   2.265 -0.6053 -0.5085  0.7184
  665MOL0     H91770  10.378   0.777   2.192 -0.6617  1.5718 -0.5615
  666MOL0     O91771   9.833   4.840   6.617  0.4198  0.1986 -0.6745
  666MOL0     C91772   9.746   4.782   6.675  0.4512 -0.5099 -0.0675
  666MOL0     O91773   9.616   4.819   6.670 -0.6612  0.0682 -0.2605
  666MOL0     C91774   9.577   4.934   6.598  0.1559 -0.0441 -0.3842
  666MOL0     C91775   9.635   5.056   6.622  0.6096  0.0751 -0.8908
  666MOL0     C91776   9.594   5.175   6.551 -0.1697 -0.0713 -0.9245
  666MOL0     C91777   9.487   5.168   6.474 -1.2347 -0.9564 -0.2587
  666MOL0     O91778   9.433   5.293   6.438 -0.7245  0.5573  0.9579
  666MOL0     C91779   9.307   5.321   6.491 -0.1689 -0.0214 -0.2034
  666MOL0     C91780   9.294   5.471   6.467 -0.3708  0.3662  0.0204
  666MOL0     C91781   9.294   5.514   6.311 -0.0884 -1.0314  1.4710
  666MOL0     C91782   9.162   5.575   6.265 -0.9256 -0.3071 -0.0483
  666MOL0     C91783   9.151   5.715   6.321 -0.7432 -0.2234  0.2273
  666MOL0     C91784   9.206   5.820   6.230  0.7615 -0.1800 -0.4550
  666MOL0     C91785   9.238   5.957   6.296  0.2181 -0.3000 -0.4787
  666MOL0     C91786   9.310   6.051   6.198 -0.0304 -0.2063 -1.1509
  666MOL0     N91787   9.239   6.084   6.078 -0.6194 -0.3429  0.4214
  666MOL0     C91788   9.259   6.036   5.948  0.2277  0.6507 -1.2655
  666MOL0     C91789   9.159   6.074   5.877 -0.0081  0.7195 -0.8318
  666MOL0     C91790   9.150   6.057   5.724  0.3549  0.6174 -0.0048
  666MOL0     C91791   9.010   6.095   5.673 -0.0479 -0.3450 -0.1249
  666MOL0     C91792   8.977   6.072   5.528 -0.5338 -0.6472 -0.7196
  666MOL0     C91793   8.907   6.201   5.457  0.1453  0.0396  0.4528
  666MOL0     O91794   8.824   6.139   5.355  0.3879 -0.0568 -0.5030
  666MOL0     C91795   8.904   6.110   5.242 -0.7563  0.9929 -0.2168
  666MOL0     C91796   8.896   5.984   5.197 -0.6702 -0.3399 -0.4283
  666MOL0     C91797   8.962   5.939   5.084  0.0026 -0.0793 -0.8092
  666MOL0     C91798   8.930   5.800   5.056 -0.2575  0.0884 -0.3648
  666MOL0     C91799   9.033   6.030   5.005  0.2355 -0.1959 -0.2896
  666MOL0     C91800   9.069   6.007   4.863 -0.4180  0.9439 -1.1599
  666MOL0     O91801   9.180   6.084   4.819  0.0042  0.5584 -1.2663
  666MOL0     C91802   9.265   6.032   4.722  0.5297 -1.2883 -0.1835
  666MOL0     C91803   9.327   6.125   4.639 -0.6746  0.6023  0.5202
  666MOL0     C91804   9.414   6.072   4.543 -0.8218 -0.0003  0.4555
  666MOL0     C91805   9.432   5.937   4.513 -0.0234 -0.5939 -0.5715
  666MOL0     O91806   9.504   5.904   4.406  0.6666 -0.3963  0.0519
  666MOL0     C91807   9.609   5.813   4.423 -0.6208 -0.4416 -0.4172
  666MOL0     C91808   9.735   5.878   4.345  0.1532  0.4192 -1.1628
  666MOL0     C91809   9.781   6.006   4.419  0.0062  0.1309 -0.8607
  666MOL0     C91810   9.887   6.087   4.353 -0.2233  0.0650 -0.4799
  666MOL0     C91811   9.972   6.183   4.456  0.0324 -0.0243 -0.3359
  666MOL0     C91812  10.080   6.253   4.374 -0.7141  0.1154 -0.1761
  666MOL0     C91813  10.181   6.338   4.459  0.1939  0.4480 -0.7247
  666MOL0     C91814  10.265   6.252   4.549 -0.4240  1.0797 -0.1154
  666MOL0    Cl91815  10.347   6.134   4.457 -0.3878  0.2634 -0.2177
  666MOL0     C91816   9.353   5.848   4.593  0.0645  0.2705  0.5876
  666MOL0     C91817   9.278   5.890   4.696  0.1499  0.6625  0.0038
  666MOL0     O91818   9.010   5.915   4.806  0.0637  0.0167 -0.0765
  666MOL0     C91819   9.052   6.160   5.061  0.3474 -0.1873 -0.1781
  666MOL0     C91820   8.989   6.201   5.179  0.9061 -1.1421 -0.7307
  666MOL0     N91821   9.086   6.158   5.956 -0.0270  0.6992  0.3950
  666MOL0     N91822   9.130   6.160   6.079  0.3742  0.5247  0.1995
  666MOL0     C91823   9.416   5.050   6.461  0.9251 -0.2563 -0.2895
  666MOL0     C91824   9.466   4.928   6.515 -0.3998  0.8263  0.2994
  666MOL0     C91825   9.785   4.668   6.759 -0.1016 -0.0472 -0.4851
  666MOL0     C91826   9.927   4.632   6.759 -0.0216  0.3456 -0.4740
  666MOL0     C91827   9.972   4.533   6.848 -0.3963  0.3942  0.2624
  666MOL0     C91828   9.880   4.456   6.918  0.2149  1.0191  0.3796
  666MOL0     O91829   9.939   4.356   6.991 -0.2145 -0.1610 -0.2380
  666MOL0     C91830   9.887   4.284   7.103  0.2786 -0.8023  0.3825
  666MOL0     C91831   9.954   4.144   7.104 -0.2716 -0.4507  0.1466
  666MOL0     C91832   9.920   4.068   7.227  0.0644  0.2711 -0.0596
  666MOL0     C91833   9.998   3.936   7.260 -0.6546 -0.0975  0.6652
  666MOL0     C91834   9.996   3.903   7.398  1.4806  0.4409 -0.4045
  666MOL0     C91835   9.994   3.888   7.516 -0.1791  0.6963  0.3540
  666MOL0     C91836   9.738   4.478   6.899 -0.8623  0.2738  0.5493
  666MOL0     C91837   9.688   4.582   6.822  0.8215  0.2436 -0.1043
  666MOL0     C91838   9.537   4.607   6.828 -0.6706 -0.0296  0.3708
  666MOL0     H91839   9.732   5.050   6.671  0.8012 -1.5603 -1.3912
  666MOL0     H91840   9.649   5.269   6.555 -0.0098 -0.2030  0.1355
  666MOL0     H91841   9.293   5.294   6.597  0.5602  1.3207  0.2503
  666MOL0     H91842   9.227   5.271   6.436 -0.6944  0.8310 -0.2150
  666MOL0     H91843   9.195   5.492   6.509 -0.5699  0.4867 -0.4943
  666MOL0     H91844   9.375   5.517   6.524 -2.8982  1.9218  2.6445
  666MOL0     H91845   9.375   5.586   6.294 -3.3404  3.0253  1.6956
  666MOL0     H91846   9.332   5.425   6.259  1.4077  1.0713 -1.2727
  666MOL0     H91847   9.164   5.584   6.156  6.1808 -2.1322 -0.5715
  666MOL0     H91848   9.077   5.515   6.298 -2.8801  2.3243  0.0339
  666MOL0     H91849   9.210   5.723   6.413  0.1294  1.4650 -0.4508
  666MOL0     H91850   9.047   5.734   6.352  0.0800  3.4768  1.1401
  666MOL0     H91851   9.297   5.794   6.175  1.1005  1.4263 -0.6901
  666MOL0     H91852   9.128   5.841   6.157 -0.4553 -1.9632  0.2656
  666MOL0     H91853   9.310   5.939   6.376  2.3084  1.0759 -1.9784
  666MOL0     H91854   9.149   6.015   6.323 -0.3706 -1.0106 -0.8402
  666MOL0     H91855   9.351   6.145   6.237  4.3339 -1.4545 -2.1148
  666MOL0     H91856   9.410   6.006   6.190  0.7028  0.8204  1.2297
  666MOL0     H91857   9.341   5.967   5.932  1.6000  1.3932  1.7759
  666MOL0     H91858   9.171   5.950   5.714 -0.3818  0.5087 -0.4733
  666MOL0     H91859   9.217   6.125   5.670 -0.8787  2.0369  0.1772
  666MOL0     H91860   8.923   6.053   5.725 -1.0189  1.9887  0.2255
  666MOL0     H91861   9.014   6.202   5.693 -1.5009 -0.0573 -1.2115
  666MOL0     H91862   9.061   6.029   5.473  2.5053 -1.3851  3.8871
  666MOL0     H91863   8.900   5.995   5.529 -0.9573 -0.2516  1.0374
  666MOL0     H91864   8.834   6.265   5.509  0.9973 -0.4456  2.3233
  666MOL0     H91865   8.991   6.265   5.431  0.5896 -0.0110  1.6828
  666MOL0     H91866   8.819   5.926   5.247 -3.6457  0.9098 -3.1990
  666MOL0     H91867   9.013   5.745   5.010 -0.8213 -1.5240  0.4732
  666MOL0     H91868   8.844   5.799   4.989 -1.5424  1.0258  1.2041
  666MOL0     H91869   8.893   5.746   5.143 -0.5784 -0.8062 -1.0318
  666MOL0     H91870   9.307   6.230   4.658 -1.7192  0.0660  2.6482
  666MOL0     H91871   9.463   6.151   4.488 -0.6524 -0.4919 -0.1016
  666MOL0     H91872   9.628   5.804   4.530  1.4017 -2.7528 -0.8941
  666MOL0     H91873   9.569   5.718   4.386 -0.4659  0.3058 -2.6038
  666MOL0     H91874   9.822   5.812   4.345  0.7274  1.1026  1.0899
  666MOL0     H91875   9.703   5.904   4.243 -0.7916  0.8704 -0.7585
  666MOL0     H91876   9.834   5.981   4.511  1.4121  0.2357 -1.6146
  666MOL0     H91877   9.703   6.069   4.465  0.7091 -0.4400  1.1992
  666MOL0     H91878   9.861   6.143   4.263  1.6456  0.9476 -0.5013
  666MOL0     H91879   9.955   6.009   4.317 -3.9804 -2.1508 -3.6023
  666MOL0     H91880   9.901   6.245   4.512  3.4946  2.1900  1.9946
  666MOL0     H91881  10.025   6.114   4.522 -3.7686 -1.8589  1.0911
  666MOL0     H91882  10.046   6.328   4.302  0.7074  2.0976  1.1220
  666MOL0     H91883  10.136   6.186   4.307  1.6849  2.3804 -0.6444
  666MOL0     H91884  10.115   6.409   4.510 -1.2594 -1.9559  0.9419
  666MOL0     H91885  10.249   6.381   4.384  3.8366 -1.1745  1.3703
  666MOL0     H91886  10.214   6.214   4.637 -1.0976  1.5264 -0.2997
  666MOL0     H91887  10.342   6.316   4.592  0.6973  0.0348 -0.5241
  666MOL0     H91888   9.363   5.745   4.559 -0.0535  1.1433 -2.4142
  666MOL0     H91889   9.230   5.820   4.764  2.2695 -0.6350  0.2578
  666MOL0     H91890   9.114   6.234   5.010 -2.2303  0.0523 -3.2889
  666MOL0     H91891   9.005   6.304   5.211 -0.6793 -0.9188 -0.6070
  666MOL0     H91892   9.327   5.055   6.399 -0.5020  1.2553  1.7237
  666MOL0     H91893   9.413   4.837   6.490 -0.5294  1.9516 -4.4382
  666MOL0     H91894   9.998   4.688   6.699 -1.5041  4.3672  1.1492
  666MOL0     H91895  10.079   4.515   6.845 -0.0632  1.9049  1.7075
  666MOL0     H91896   9.911   4.337   7.196  1.9106  0.1237 -0.5264
  666MOL0     H91897   9.778   4.285   7.097  0.2878 -0.6897  0.2375
  666MOL0     H91898  10.063   4.154   7.094 -0.2344 -0.3902  0.5891
  666MOL0     H91899   9.933   4.094   7.010  0.7348 -2.0256  0.7214
  666MOL0     H91900   9.920   4.130   7.317  2.2795  1.5040 -0.8454
  666MOL0     H91901   9.813   4.050   7.213 -0.6180  2.9671  1.0113
  666MOL0     H91902  10.105   3.957   7.253 -1.1823  4.2050  2.1955
  666MOL0     H91903   9.966   3.858   7.191  1.1765 -0.9773  0.7644
  666MOL0     H91904   9.991   3.857   7.619 -4.6347 -2.7387 -0.4697
  666MOL0     H91905   9.676   4.425   6.971 -1.9514  2.2181  1.1417
  666MOL0     H91906   9.521   4.706   6.870  1.4866 -0.1716  1.6945
  666MOL0     H91907   9.496   4.580   6.731  1.1115 -0.9940 -0.1657
  666MOL0     H91908   9.502   4.538   6.905 -1.6772  0.3864  0.2964
  667MOL0     O91909   3.202   6.168   2.064  0.4681 -0.4925 -0.3477
  667MOL0     C91910   3.219   6.200   2.185  0.6927  0.2523  0.2113
  667MOL0     O91911   3.207   6.110   2.295 -0.2993  0.9456  0.3445
  667MOL0     C91912   3.179   5.985   2.265  0.7050 -0.1507  0.1310
  667MOL0     C91913   3.274   5.892   2.220  0.1354 -0.4510  0.6047
  667MOL0     C91914   3.236   5.748   2.208  0.0305  0.7222  1.6870
  667MOL0     C91915   3.095   5.716   2.224 -0.0706  0.0519 -0.7204
  667MOL0     O91916   3.053   5.586   2.211  0.6079  0.7033 -1.1966
  667MOL0     C91917   3.047   5.518   2.085 -0.5828 -0.8444 -0.2031
  667MOL0     C91918   3.055   5.359   2.099  0.9165 -0.0095  0.0202
  667MOL0     C91919   3.175   5.308   2.183  0.0915 -0.6696  0.0394
  667MOL0     C91920   3.314   5.325   2.112 -0.1091  0.3273 -0.7153
  667MOL0     C91921   3.431   5.326   2.213 -0.2180  0.2698  0.9811
  667MOL0     C91922   3.530   5.218   2.175  0.5049 -0.0280  0.7084
  667MOL0     C91923   3.610   5.184   2.298 -1.1133 -1.8686 -0.0064
  667MOL0     C91924   3.732   5.095   2.267 -1.0593  0.2904  0.4229
  667MOL0     N91925   3.810   5.076   2.389  0.5274 -0.1094  0.4895
  667MOL0     C91926   3.759   4.994   2.486  1.0664 -1.1752 -0.3957
  667MOL0     C91927   3.846   5.005   2.590  0.1943  0.5320  0.3023
  667MOL0     C91928   3.820   4.928   2.720  0.8952  0.0246  1.1935
  667MOL0     C91929   3.929   4.822   2.740  0.9799  0.0363 -0.5768
  667MOL0     C91930   3.933   4.775   2.885  0.0458 -0.4403  0.3914
  667MOL0     C91931   3.797   4.746   2.958 -0.7666 -0.4319  1.1277
  667MOL0     O91932   3.761   4.865   3.045 -0.5416  0.2918 -0.4810
  667MOL0     C91933   3.636   4.863   3.107  0.5651 -0.7872 -0.4862
  667MOL0     C91934   3.587   4.984   3.148  0.1295  0.2842  0.7243
  667MOL0     C91935   3.453   4.995   3.184 -0.9539 -0.4454  0.9520
  667MOL0     C91936   3.405   5.137   3.214 -0.6190  0.7824 -0.1440
  667MOL0     C91937   3.381   4.876   3.197  0.7131 -0.1720  0.5683
  667MOL0     C91938   3.248   4.876   3.252  0.4324 -0.6690  0.3682
  667MOL0     O91939   3.196   4.750   3.271  0.7921  0.3850  0.7849
  667MOL0     C91940   3.090   4.740   3.370  0.7606 -1.0098 -0.2555
  667MOL0     C91941   2.964   4.687   3.345  0.1413 -0.4572  0.7617
  667MOL0     C91942   2.856   4.691   3.433 -0.4551 -0.3698 -0.9419
  667MOL0     C91943   2.870   4.761   3.557 -0.0443  0.4145 -0.2502
  667MOL0     O91944   2.757   4.766   3.653 -0.0111  0.0417  0.6585
  667MOL0     C91945   2.686   4.893   3.642  0.1188 -0.8418 -0.4064
  667MOL0     C91946   2.533   4.883   3.655 -0.2493  1.2631 -0.4822
  667MOL0     C91947   2.473   4.823   3.529  0.7093 -0.1856 -0.3009
  667MOL0     C91948   2.319   4.811   3.551 -0.8655 -0.6896 -0.5994
  667MOL0     C91949   2.254   4.751   3.428 -0.3722 -0.0449  0.0166
  667MOL0     C91950   2.101   4.766   3.441 -0.6166 -0.0917  0.6264
  667MOL0     C91951   2.020   4.676   3.347  0.3769 -0.1673  0.3813
  667MOL0     C91952   1.877   4.712   3.365 -0.1413  0.0424  0.3917
  667MOL0    Cl91953   1.798   4.669   3.210 -0.1741 -0.0504  0.2344
  667MOL0     C91954   2.993   4.820   3.586 -0.2069 -1.3842  0.0993
  667MOL0     C91955   3.096   4.804   3.495 -0.5721  0.3937  0.4069
  667MOL0     O91956   3.191   4.980   3.283 -0.0784 -0.5792  0.0647
  667MOL0     C91957   3.433   4.757   3.156  0.0405  0.1489  0.8009
  667MOL0     C91958   3.557   4.746   3.105 -0.0986  0.2390  0.6550
  667MOL0     N91959   3.947   5.103   2.563  0.7711 -0.1003  0.1778
  667MOL0     N91960   3.917   5.143   2.439  0.0691 -0.2533 -0.7467
  667MOL0     C91961   3.007   5.812   2.275  0.4193  0.9268 -1.0213
  667MOL0     C91962   3.052   5.944   2.306 -0.1105  0.0730 -0.0179
  667MOL0     C91963   3.259   6.350   2.198  0.4341  0.6243 -0.9096
  667MOL0     C91964   3.251   6.433   2.083  0.5092  1.0203 -0.4158
  667MOL0     C91965   3.289   6.568   2.090 -0.4152 -0.1299 -0.3747
  667MOL0     C91966   3.361   6.606   2.200  0.0194  0.3748  1.2426
  667MOL0     O91967   3.390   6.737   2.191 -0.0602  0.2449  1.1857
  667MOL0     C91968   3.519   6.773   2.131 -0.6525  0.3008  0.8722
  667MOL0     C91969   3.516   6.870   2.012  0.7546 -0.3082 -0.2587
  667MOL0     C91970   3.505   7.019   2.054  0.5466  0.2455  0.8636
  667MOL0     C91971   3.359   7.066   2.076 -0.2408 -0.7327 -0.6026
  667MOL0     C91972   3.363   7.219   2.086  0.9942  0.4915  0.0533
  667MOL0     C91973   3.385   7.334   2.109  0.7908  0.3255  0.7431
  667MOL0     C91974   3.362   6.530   2.312  0.0793  0.2327 -0.4275
  667MOL0     C91975   3.311   6.406   2.318 -1.1867 -0.2824 -0.3234
  667MOL0     C91976   3.334   6.326   2.439 -0.6062  0.1811  0.4292
  667MOL0     H91977   3.373   5.929   2.197 -0.3754  0.1892 -0.6766
  667MOL0     H91978   3.304   5.672   2.173 -0.9418 -1.5437  4.3583
  667MOL0     H91979   3.135   5.559   2.033 -1.0691  3.7979  2.1270
  667MOL0     H91980   2.953   5.555   2.042  0.9860  2.3323 -1.2561
  667MOL0     H91981   2.967   5.333   2.158 -1.3879 -1.0030 -3.5434
  667MOL0     H91982   3.055   5.307   2.003 -2.1782 -1.1343  0.5199
  667MOL0     H91983   3.177   5.374   2.270 -2.0150  0.6767 -0.8739
  667MOL0     H91984   3.166   5.211   2.233  0.2235 -0.0797  1.2522
  667MOL0     H91985   3.316   5.225   2.068  1.8683  0.0575 -0.1149
  667MOL0     H91986   3.309   5.409   2.042 -1.9713  0.6634 -0.2363
  667MOL0     H91987   3.383   5.289   2.304 -3.3935 -1.4586 -1.2298
  667MOL0     H91988   3.477   5.424   2.232  1.0246  0.0636 -0.7413
  667MOL0     H91989   3.474   5.133   2.136 -2.8186  2.0134  0.6079
  667MOL0     H91990   3.590   5.260   2.093 -2.0844 -1.1533 -1.9584
  667MOL0     H91991   3.547   5.139   2.375  0.5933 -0.5304  2.3147
  667MOL0     H91992   3.650   5.279   2.336 -3.5144 -2.1615  3.7397
  667MOL0     H91993   3.698   5.001   2.222  1.2124  0.4590 -1.9125
  667MOL0     H91994   3.796   5.143   2.192 -2.0481 -0.1874 -0.7595
  667MOL0     H91995   3.681   4.919   2.472  1.0302 -0.9453 -1.5006
  667MOL0     H91996   3.717   4.892   2.732  1.0064  0.3616  3.9705
  667MOL0     H91997   3.820   5.004   2.799 -3.1384 -0.9509  2.3744
  667MOL0     H91998   3.910   4.733   2.680 -2.6216  1.7579 -2.2639
  667MOL0     H91999   4.023   4.865   2.705  1.5779 -0.7609  0.0059
  667MOL0     H92000   3.992   4.684   2.899 -0.8429 -1.1646 -0.3878
  667MOL0     H92001   3.983   4.858   2.936 -2.9831  1.7841  0.0200
  667MOL0     H92002   3.710   4.724   2.895  0.2895  0.1749 -0.5831
  667MOL0     H92003   3.819   4.651   3.009  0.0957 -0.5493  0.5436
  667MOL0     H92004   3.636   5.078   3.121  0.8385  0.1910  1.6398
  667MOL0     H92005   3.377   5.148   3.319  2.5681  0.5335  0.8351
  667MOL0     H92006   3.330   5.162   3.138  2.5252  2.0822 -3.0924
  667MOL0     H92007   3.484   5.212   3.205 -0.0158  0.1672 -0.0440
  667MOL0     H92008   2.939   4.671   3.241 -0.7440  0.6577  0.7831
  667MOL0     H92009   2.762   4.646   3.405 -1.5588  0.2600  1.4884
  667MOL0     H92010   2.728   4.951   3.724  2.2336 -1.1615 -1.2118
  667MOL0     H92011   2.710   4.956   3.557  2.7953  0.4455  1.1750
  667MOL0     H92012   2.518   4.818   3.742  1.7465 -0.8285 -1.5995
  667MOL0     H92013   2.494   4.983   3.678  0.5008  1.3600  0.4392
  667MOL0     H92014   2.513   4.732   3.483 -0.3115 -0.6541 -0.2819
  667MOL0     H92015   2.494   4.894   3.449  2.4185 -2.8139 -2.3621
  667MOL0     H92016   2.271   4.905   3.580  1.3410 -0.0914  1.4191
  667MOL0     H92017   2.307   4.739   3.632  2.6273 -0.3314  0.3813
  667MOL0     H92018   2.300   4.805   3.345 -1.6264  1.2561  0.1388
  667MOL0     H92019   2.285   4.646   3.419 -0.1447  0.0308 -0.0913
  667MOL0     H92020   2.077   4.870   3.420 -0.2859 -0.3039 -0.9485
  667MOL0     H92021   2.077   4.729   3.541 -0.8369 -0.5249  0.4173
  667MOL0     H92022   2.035   4.570   3.369  2.3548  0.3051  1.5753
  667MOL0     H92023   2.055   4.703   3.247 -0.5360 -1.1287 -0.2124
  667MOL0     H92024   1.867   4.820   3.380  1.1488  0.1435  0.6446
  667MOL0     H92025   1.841   4.641   3.440  0.9202  0.0565  0.9476
  667MOL0     H92026   3.013   4.865   3.683  0.0547 -2.4685  0.5631
  667MOL0     H92027   3.189   4.854   3.519  0.1789  0.3724 -2.1646
  667MOL0     H92028   3.370   4.668   3.159 -0.2294  0.1441 -1.8654
  667MOL0     H92029   3.602   4.655   3.068 -1.5210 -1.8663  3.7325
  667MOL0     H92030   2.902   5.790   2.292  0.7817  0.7877  1.2945
  667MOL0     H92031   2.986   6.018   2.351  0.9252  0.5237  0.7972
  667MOL0     H92032   3.195   6.401   1.995 -0.4464  1.7341 -0.0819
  667MOL0     H92033   3.271   6.642   2.013 -0.6681  0.6737  0.4417
  667MOL0     H92034   3.575   6.808   2.218  2.3925 -2.8549  0.3869
  667MOL0     H92035   3.560   6.677   2.098 -0.9855  0.2786  0.5263
  667MOL0     H92036   3.432   6.843   1.947 -1.7858  0.8166  2.3475
  667MOL0     H92037   3.602   6.852   1.947 -0.2474 -0.8399 -1.4825
  667MOL0     H92038   3.560   7.036   2.147 -0.9395 -1.3719  2.0876
  667MOL0     H92039   3.557   7.081   1.980 -2.9294  0.3485 -1.7585
  667MOL0     H92040   3.336   7.023   2.174  2.0753  1.9811  1.3376
  667MOL0     H92041   3.293   7.034   1.995 -1.1567 -1.2463  0.3241
  667MOL0     H92042   3.409   7.435   2.133 -0.7248  0.4889  1.7138
  667MOL0     H92043   3.415   6.574   2.396  3.5166 -1.1862 -1.6739
  667MOL0     H92044   3.400   6.381   2.507 -0.7959  1.4530 -0.3801
  667MOL0     H92045   3.250   6.294   2.503  1.0089 -1.4552  1.8433
  667MOL0     H92046   3.402   6.245   2.412 -0.9400  1.1291 -3.8536
  668MOL0     O92047   6.041   6.325   7.037 -1.0226  0.0985  0.0108
  668MOL0     C92048   6.043   6.447   7.055  0.0345 -0.1509  0.3179
  668MOL0     O92049   5.978   6.554   6.989  0.4219 -0.0624  0.8471
  668MOL0     C92050   5.925   6.531   6.858 -0.7379 -0.3679 -1.2712
  668MOL0     C92051   5.826   6.619   6.814  0.1193  0.2461 -0.7122
  668MOL0     C92052   5.755   6.593   6.699  0.0318 -0.8014  0.0767
  668MOL0     C92053   5.789   6.485   6.617 -0.9680 -0.0006  0.9578
  668MOL0     O92054   5.718   6.464   6.499  0.0143 -0.0644  0.1774
  668MOL0     C92055   5.678   6.331   6.486  1.6650  0.1259 -0.3853
  668MOL0     C92056   5.586   6.321   6.358  0.0299 -0.0856  0.3428
  668MOL0     C92057   5.486   6.434   6.363  0.2007  0.1090 -1.0613
  668MOL0     C92058   5.353   6.391   6.295 -0.4121  0.2480 -0.7177
  668MOL0     C92059   5.350   6.418   6.147  1.0067 -0.5594  0.0964
  668MOL0     C92060   5.253   6.336   6.077  1.1207 -0.2820  0.7117
  668MOL0     C92061   5.102   6.376   6.095 -0.6495 -1.1584  0.8399
  668MOL0     C92062   5.032   6.319   5.977 -0.9006 -0.0067 -0.3343
  668MOL0     N92063   4.911   6.381   5.939 -0.8853  0.1373 -0.2074
  668MOL0     C92064   4.778   6.352   5.981 -0.2396 -0.0541 -0.5236
  668MOL0     C92065   4.706   6.427   5.891 -0.2416  0.3336  1.4297
  668MOL0     C92066   4.556   6.429   5.893 -0.4065  0.7202 -0.5470
  668MOL0     C92067   4.485   6.531   5.805 -0.0086  0.3853 -0.6845
  668MOL0     C92068   4.526   6.684   5.824 -0.5937  0.4098  0.4897
  668MOL0     C92069   4.438   6.787   5.766  0.2248 -0.4757 -0.1329
  668MOL0     O92070   4.303   6.772   5.813  0.6562  1.0740 -0.2953
  668MOL0     C92071   4.224   6.699   5.723 -0.2114 -0.8656  0.9783
  668MOL0     C92072   4.136   6.613   5.779  0.2756 -0.0082  0.2813
  668MOL0     C92073   4.041   6.551   5.702 -0.9291  0.2411  0.8058
  668MOL0     C92074   3.958   6.452   5.781 -0.1585  0.1559 -0.0801
  668MOL0     C92075   4.031   6.577   5.562  0.1956  0.4848  0.6973
  668MOL0     C92076   3.936   6.497   5.475 -0.0733  1.6020 -0.0644
  668MOL0     O92077   3.855   6.393   5.516  0.4502 -0.4634  0.0878
  668MOL0     C92078   3.794   6.320   5.417  0.6167 -1.1413  0.4097
  668MOL0     C92079   3.848   6.251   5.316 -0.0584 -0.8566  0.4694
  668MOL0     C92080   3.766   6.181   5.215 -0.1903 -0.3794  0.3736
  668MOL0     C92081   3.633   6.176   5.246 -0.0720  0.0978  0.3332
  668MOL0     O92082   3.566   6.098   5.157 -0.1543 -0.6260  0.7585
  668MOL0     C92083   3.467   6.008   5.202  0.3099 -0.3917 -0.0443
  668MOL0     C92084   3.361   5.983   5.094 -0.5657 -0.1559 -0.0539
  668MOL0     C92085   3.311   5.838   5.103  0.0353  0.1857  0.1499
  668MOL0     C92086   3.407   5.724   5.063 -0.9741 -0.7093  0.1466
  668MOL0     C92087   3.346   5.590   5.103  0.2552 -0.6804 -0.4370
  668MOL0     C92088   3.376   5.557   5.249 -0.2840  0.7752 -0.3792
  668MOL0     C92089   3.303   5.424   5.288  0.0801 -0.3358  0.5795
  668MOL0     C92090   3.312   5.375   5.424 -0.4560 -0.0546  0.3604
  668MOL0    Cl92091   3.480   5.320   5.448  0.0251  0.2775 -0.1959
  668MOL0     C92092   3.572   6.226   5.361 -0.7419  0.1489 -0.2473
  668MOL0     C92093   3.658   6.307   5.444  0.6313  0.4764 -0.0165
  668MOL0     O92094   3.955   6.527   5.354 -0.7718 -0.4112  0.2042
  668MOL0     C92095   4.121   6.666   5.507  0.3327  0.1809  0.3141
  668MOL0     C92096   4.223   6.729   5.585  0.0337 -0.7293 -0.1652
  668MOL0     N92097   4.789   6.496   5.806  0.1533 -1.0843  0.2576
  668MOL0     N92098   4.907   6.466   5.835  0.0478 -0.3306 -0.2460
  668MOL0     C92099   5.904   6.412   6.653  0.5264  0.3327 -0.1741
  668MOL0     C92100   5.976   6.436   6.770 -0.2959 -0.1139  0.1227
  668MOL0     C92101   6.119   6.484   7.178  1.1635 -0.8610  1.0852
  668MOL0     C92102   6.043   6.490   7.295  0.1177 -0.2171 -0.1854
  668MOL0     C92103   6.092   6.524   7.412  0.7611  1.4522 -1.2117
  668MOL0     C92104   6.230   6.565   7.416  0.1214 -0.1790  0.6331
  668MOL0     O92105   6.298   6.601   7.529  0.7466 -0.2291 -0.2063
  668MOL0     C92106   6.222   6.630   7.649 -0.9424  1.3351  0.1107
  668MOL0     C92107   6.317   6.657   7.755  1.1703  0.4325 -0.5604
  668MOL0     C92108   6.411   6.775   7.707  0.6030 -0.0146 -0.7034
  668MOL0     C92109   6.493   6.822   7.836 -0.8364 -0.6021 -0.3590
  668MOL0     C92110   6.609   6.737   7.858  0.1736  0.0762 -0.8439
  668MOL0     C92111   6.719   6.686   7.880  0.3836  0.4091 -0.4670
  668MOL0     C92112   6.308   6.540   7.306  0.3694  0.1992 -0.4561
  668MOL0     C92113   6.254   6.485   7.186 -0.6211 -0.0428 -0.3707
  668MOL0     C92114   6.346   6.475   7.063 -0.1320 -0.8088 -0.8267
  668MOL0     H92115   5.804   6.709   6.871 -2.0261  0.8879 -2.3831
  668MOL0     H92116   5.696   6.676   6.661  3.4496  1.3854 -0.9117
  668MOL0     H92117   5.611   6.297   6.566 -1.6983  3.5057 -1.4461
  668MOL0     H92118   5.760   6.262   6.464  1.2847  0.1997 -2.2258
  668MOL0     H92119   5.656   6.338   6.275  1.5149  0.1551  1.6088
  668MOL0     H92120   5.536   6.225   6.348 -0.1888 -0.0181  0.7961
  668MOL0     H92121   5.456   6.459   6.466 -0.3501 -1.0291 -0.9238
  668MOL0     H92122   5.524   6.516   6.302 -0.3023 -1.6232 -3.8797
  668MOL0     H92123   5.335   6.285   6.312  0.3149  0.0011 -1.4420
  668MOL0     H92124   5.272   6.447   6.345  1.2874  0.4927  1.9893
  668MOL0     H92125   5.448   6.398   6.103 -0.4940  0.4038 -4.2674
  668MOL0     H92126   5.336   6.526   6.137  3.1464 -0.0997  1.4904
  668MOL0     H92127   5.271   6.358   5.971  0.2630  3.7529  1.2300
  668MOL0     H92128   5.264   6.230   6.103 -3.9201  0.0935  6.5398
  668MOL0     H92129   5.090   6.484   6.101  1.9761 -0.6846 -0.6395
  668MOL0     H92130   5.059   6.336   6.188 -2.2946  2.1479  1.6424
  668MOL0     H92131   5.100   6.322   5.891  3.3577  0.0133  2.7325
  668MOL0     H92132   5.015   6.213   6.000  1.1617 -0.1534  0.7187
  668MOL0     H92133   4.747   6.291   6.066 -0.5278  1.1450  0.2672
  668MOL0     H92134   4.520   6.452   5.994 -1.2964  1.6516 -1.0540
  668MOL0     H92135   4.519   6.328   5.871 -0.5706  0.5405  0.4664
  668MOL0     H92136   4.490   6.502   5.700 -0.3302  0.7203 -0.7919
  668MOL0     H92137   4.379   6.519   5.826  0.3195 -2.5715 -0.3555
  668MOL0     H92138   4.526   6.708   5.931 -2.5843  0.9325  0.4226
  668MOL0     H92139   4.625   6.694   5.781  0.0943  1.1362  2.1428
  668MOL0     H92140   4.487   6.877   5.804  0.8667 -0.8615 -0.0276
  668MOL0     H92141   4.456   6.806   5.660  1.9350 -2.0204 -0.1591
  668MOL0     H92142   4.133   6.588   5.885  1.1170  0.0830  0.3398
  668MOL0     H92143   3.977   6.469   5.888 -0.4756 -0.3921  0.0636
  668MOL0     H92144   3.992   6.350   5.763 -0.0278  0.2668 -0.4669
  668MOL0     H92145   3.852   6.471   5.768 -1.1997 -2.2328  3.4429
  668MOL0     H92146   3.956   6.241   5.309 -0.0049 -0.7201  1.0809
  668MOL0     H92147   3.808   6.117   5.139  0.3911  1.2295 -0.7068
  668MOL0     H92148   3.511   5.911   5.227  0.4030  0.3062  2.8926
  668MOL0     H92149   3.419   6.038   5.296  1.4694 -1.4508  0.9263
  668MOL0     H92150   3.279   6.054   5.108  0.5586  0.9788  1.0913
  668MOL0     H92151   3.400   5.997   4.992  1.7748  0.7198  0.8911
  668MOL0     H92152   3.215   5.822   5.052 -0.8084 -2.5166  2.3356
  668MOL0     H92153   3.293   5.826   5.210  1.7441 -1.4337  0.3056
  668MOL0     H92154   3.505   5.739   5.108 -0.7750  1.1409 -0.7799
  668MOL0     H92155   3.422   5.735   4.955 -1.2111 -2.8255 -0.1369
  668MOL0     H92156   3.238   5.585   5.085 -0.2201  1.1825  1.6040
  668MOL0     H92157   3.407   5.525   5.038  1.3105 -1.1405  0.9645
  668MOL0     H92158   3.339   5.642   5.307 -1.4530  2.5754 -3.5313
  668MOL0     H92159   3.482   5.534   5.260 -0.2924  1.1009  0.4437
  668MOL0     H92160   3.343   5.358   5.210 -0.6939 -0.9123  0.6598
  668MOL0     H92161   3.204   5.450   5.249  1.6070  1.3899 -2.5882
  668MOL0     H92162   3.237   5.297   5.443 -0.3943  0.2301  1.9071
  668MOL0     H92163   3.294   5.463   5.488 -1.6211 -0.6609  0.9030
  668MOL0     H92164   3.467   6.229   5.389 -0.4671  3.8222  0.9079
  668MOL0     H92165   3.600   6.362   5.517  0.2762 -1.8311  1.5623
  668MOL0     H92166   4.115   6.685   5.400  2.9182 -0.3632  0.0241
  668MOL0     H92167   4.282   6.801   5.529  1.7212 -0.8670  1.3526
  668MOL0     H92168   5.930   6.337   6.579  3.2180 -0.7262  1.6793
  668MOL0     H92169   6.058   6.367   6.789  0.4396  0.5098 -0.7061
  668MOL0     H92170   5.939   6.457   7.297 -0.0114  0.1850  0.0027
  668MOL0     H92171   6.021   6.509   7.493  2.0926  0.3806 -0.1921
  668MOL0     H92172   6.168   6.723   7.626 -0.3124  1.7394  0.2512
  668MOL0     H92173   6.154   6.549   7.677 -0.2152  1.5096  2.6185
  668MOL0     H92174   6.369   6.567   7.790 -0.0755  0.8089  2.6581
  668MOL0     H92175   6.253   6.699   7.834  0.7452  0.2140 -0.7840
  668MOL0     H92176   6.480   6.745   7.627 -1.1424  0.4110 -2.4481
  668MOL0     H92177   6.351   6.859   7.670 -3.7562 -1.6838  1.8076
  668MOL0     H92178   6.435   6.821   7.928  1.2044  0.9761  1.0227
  668MOL0     H92179   6.529   6.924   7.827 -0.9421 -0.3369  1.7494
  668MOL0     H92180   6.815   6.640   7.877  0.4013  0.2772  1.4097
  668MOL0     H92181   6.414   6.565   7.307  0.1505  1.8547  4.4844
  668MOL0     H92182   6.328   6.385   7.004 -5.1641  0.0553 -1.0144
  668MOL0     H92183   6.318   6.555   6.994 -0.1489  2.3013  2.4733
  668MOL0     H92184   6.448   6.497   7.097 -0.7319 -0.1658  0.6424
  669MOL0     O92185   4.490   1.550   4.149 -0.4796  0.3360  0.3978
  669MOL0     C92186   4.607   1.525   4.190  0.1712 -1.0736  0.4474
  669MOL0     O92187   4.623   1.504   4.326  0.1538  0.2736 -0.5226
  669MOL0     C92188   4.507   1.518   4.404 -1.2923 -0.0366 -0.0388
  669MOL0     C92189   4.460   1.421   4.488  0.4662 -0.2184 -1.2962
  669MOL0     C92190   4.342   1.424   4.555 -0.5988 -0.0778  0.5099
  669MOL0     C92191   4.262   1.542   4.548  0.0934 -0.2085  0.9570
  669MOL0     O92192   4.141   1.554   4.611  0.6350 -0.8624 -0.0170
  669MOL0     C92193   4.087   1.444   4.683 -0.0517  0.1082 -0.9668
  669MOL0     C92194   3.948   1.495   4.734  0.0506  0.2210  0.8552
  669MOL0     C92195   3.903   1.419   4.854 -0.2056 -0.3163  0.5117
  669MOL0     C92196   3.766   1.442   4.922  0.0980  0.2998  0.3693
  669MOL0     C92197   3.756   1.421   5.072  0.2179 -0.9060 -0.0194
  669MOL0     C92198   3.788   1.286   5.127 -0.4527  0.3337  0.7059
  669MOL0     C92199   3.779   1.288   5.275  0.1042  0.6790  0.6902
  669MOL0     C92200   3.861   1.170   5.342 -0.1351 -0.9745  0.8103
  669MOL0     N92201   3.817   1.030   5.314  0.3867 -0.0155 -0.1606
  669MOL0     C92202   3.698   0.973   5.354  0.2094 -0.0100 -0.2607
  669MOL0     C92203   3.695   0.842   5.323  0.0448  0.5688  0.4875
  669MOL0     C92204   3.590   0.737   5.329 -0.1185 -0.1590  0.3497
  669MOL0     C92205   3.501   0.764   5.208 -0.1737 -0.1914  1.3594
  669MOL0     C92206   3.391   0.671   5.180 -0.8194  0.9286  0.7617
  669MOL0     C92207   3.282   0.658   5.285  0.2052  0.4654 -1.0307
  669MOL0     O92208   3.211   0.781   5.298  0.0719 -0.1190  0.2140
  669MOL0     C92209   3.100   0.787   5.390  0.2526  0.0796 -0.1256
  669MOL0     C92210   3.061   0.688   5.476  0.3864 -0.3340  0.2855
  669MOL0     C92211   2.965   0.709   5.579 -0.5376 -0.8330 -0.1634
  669MOL0     C92212   2.935   0.594   5.667 -0.6226  0.2882 -0.3875
  669MOL0     C92213   2.904   0.841   5.594  0.7056 -0.6651  0.0696
  669MOL0     C92214   2.803   0.873   5.690 -0.3124  0.2990  0.1224
  669MOL0     O92215   2.739   0.784   5.768  0.6751  0.3965 -0.4383
  669MOL0     C92216   2.646   0.825   5.860  0.6780 -0.4969 -0.5367
  669MOL0     C92217   2.534   0.899   5.830 -0.7928 -0.0353  0.3418
  669MOL0     C92218   2.446   0.926   5.932 -0.2688  0.0129 -0.0879
  669MOL0     C92219   2.448   0.863   6.062  0.3525 -0.1382  0.3442
  669MOL0     O92220   2.367   0.884   6.171 -0.0141 -0.6814  1.3542
  669MOL0     C92221   2.255   0.964   6.148  0.4409 -0.2575  0.5372
  669MOL0     C92222   2.176   0.984   6.273 -0.8039  1.1252 -0.1701
  669MOL0     C92223   2.234   1.081   6.377  0.2112 -0.0883  0.3807
  669MOL0     C92224   2.138   1.193   6.401 -0.0466  0.0805 -0.5131
  669MOL0     C92225   2.217   1.328   6.445 -0.2953 -0.1560 -0.1698
  669MOL0     C92226   2.125   1.450   6.464  0.3386 -0.8654  0.1708
  669MOL0     C92227   2.099   1.532   6.337 -0.2981  0.6231 -1.2373
  669MOL0     C92228   2.228   1.585   6.263  1.0062 -0.2983  0.9267
  669MOL0    Cl92229   2.190   1.731   6.171 -0.0915 -0.3139  0.3489
  669MOL0     C92230   2.568   0.793   6.092  0.1631  0.8068  0.1404
  669MOL0     C92231   2.660   0.763   5.987 -0.6171  0.0398 -0.2828
  669MOL0     O92232   2.782   0.997   5.706 -0.2140  0.5663  0.7085
  669MOL0     C92233   2.946   0.939   5.495 -0.0218 -0.7752  0.1304
  669MOL0     C92234   3.037   0.906   5.397 -0.2354 -0.1811 -0.9188
  669MOL0     N92235   3.818   0.817   5.258 -0.5500  0.0460 -0.0666
  669MOL0     N92236   3.882   0.930   5.246 -0.6408 -0.1380 -0.1630
  669MOL0     C92237   4.317   1.653   4.476  0.2870  0.0580 -0.0041
  669MOL0     C92238   4.437   1.642   4.405  0.1865  0.7822  0.2725
  669MOL0     C92239   4.719   1.510   4.089 -0.5094  0.6818  0.4204
  669MOL0     C92240   4.694   1.532   3.953  0.2711 -0.3467 -0.0021
  669MOL0     C92241   4.784   1.499   3.847 -0.1460 -0.8636 -0.3833
  669MOL0     C92242   4.907   1.447   3.879 -0.1519 -1.0560  0.9135
  669MOL0     O92243   4.973   1.371   3.784  0.1118 -0.0786 -0.1194
  669MOL0     C92244   5.103   1.434   3.753  0.4417  0.3729 -0.5746
  669MOL0     C92245   5.221   1.386   3.844  0.3352  0.2406 -0.3039
  669MOL0     C92246   5.242   1.225   3.834  0.7280 -0.6166  0.8904
  669MOL0     C92247   5.201   1.152   3.957  0.2480  0.7910 -0.2640
  669MOL0     C92248   5.229   1.196   4.098 -0.0879 -0.2581 -0.1451
  669MOL0     C92249   5.261   1.246   4.210  0.7658  1.0474 -0.0125
  669MOL0     C92250   4.937   1.434   4.015  0.2359  0.8250  0.2389
  669MOL0     C92251   4.849   1.464   4.123 -0.3811  0.1004 -1.3462
  669MOL0     C92252   4.895   1.434   4.269  0.1779 -0.1414  0.1092
  669MOL0     H92253   4.500   1.322   4.469 -0.9264 -0.9215 -0.7595
  669MOL0     H92254   4.318   1.329   4.601  1.5672 -1.1781 -0.5060
  669MOL0     H92255   4.152   1.417   4.766  1.0358 -1.2206 -2.2061
  669MOL0     H92256   4.074   1.354   4.622 -2.2748 -1.4814  1.6561
  669MOL0     H92257   3.948   1.603   4.753 -0.5863  0.3603  0.1129
  669MOL0     H92258   3.874   1.469   4.658  1.2866 -1.2906  0.1099
  669MOL0     H92259   3.911   1.313   4.830  0.0326  0.1902 -1.8731
  669MOL0     H92260   3.989   1.446   4.915  1.0433  0.7527 -1.6209
  669MOL0     H92261   3.731   1.543   4.896  0.5474 -0.5546 -4.7646
  669MOL0     H92262   3.697   1.371   4.875  0.0797 -0.0943  0.9875
  669MOL0     H92263   3.666   1.469   5.111  1.0140  3.1070 -2.5272
  669MOL0     H92264   3.837   1.480   5.115 -0.1618 -0.6275  0.3265
  669MOL0     H92265   3.735   1.197   5.091  0.4018 -0.3050  0.9813
  669MOL0     H92266   3.891   1.264   5.097 -0.3777  1.5149  0.0222
  669MOL0     H92267   3.678   1.270   5.312  0.5868 -0.8992  1.3113
  669MOL0     H92268   3.815   1.384   5.314 -3.4271  1.8890  1.4031
  669MOL0     H92269   3.967   1.167   5.313 -1.1747 -0.0978 -3.9671
  669MOL0     H92270   3.870   1.190   5.449  0.5929 -0.1266  0.6098
  669MOL0     H92271   3.618   1.027   5.404  0.7660  0.5454  0.0452
  669MOL0     H92272   3.542   0.751   5.426  1.3706 -0.2656  1.1309
  669MOL0     H92273   3.646   0.644   5.314 -0.6947 -0.2662 -1.3350
  669MOL0     H92274   3.455   0.862   5.224 -2.1252 -0.7168 -0.7187
  669MOL0     H92275   3.566   0.780   5.122 -0.8601 -0.0124  0.8675
  669MOL0     H92276   3.358   0.684   5.076  0.4783  0.5283  0.2813
  669MOL0     H92277   3.440   0.573   5.177  0.9092  1.7635  0.5854
  669MOL0     H92278   3.215   0.572   5.273  1.5466 -0.5906 -1.2580
  669MOL0     H92279   3.340   0.645   5.377  1.3665 -4.5736 -2.1741
  669MOL0     H92280   3.104   0.588   5.475  0.5321 -0.2998  1.3219
  669MOL0     H92281   3.016   0.520   5.673 -1.6990 -0.8380  0.7631
  669MOL0     H92282   2.844   0.537   5.642  0.7296 -0.8054 -3.2801
  669MOL0     H92283   2.917   0.634   5.767 -3.1354  1.0045 -1.0541
  669MOL0     H92284   2.525   0.945   5.732 -2.8834 -0.9057  0.0649
  669MOL0     H92285   2.361   0.989   5.904  0.5072  1.7438  1.2496
  669MOL0     H92286   2.279   1.061   6.103  0.0500 -0.2670  0.3062
  669MOL0     H92287   2.194   0.910   6.076  0.5528  2.7417 -2.0194
  669MOL0     H92288   2.073   1.006   6.247 -1.2318 -1.1967 -0.6882
  669MOL0     H92289   2.164   0.883   6.315 -0.4855  2.1109  2.5178
  669MOL0     H92290   2.321   1.130   6.333 -0.1615  0.1245 -0.1196
  669MOL0     H92291   2.265   1.026   6.467 -0.0471  0.5049  0.8347
  669MOL0     H92292   2.075   1.158   6.483 -1.4073  2.1536 -0.5876
  669MOL0     H92293   2.079   1.216   6.312  0.6789 -0.6713 -1.2007
  669MOL0     H92294   2.284   1.315   6.530  1.8752  0.2434 -1.7413
  669MOL0     H92295   2.287   1.351   6.364  0.3473  0.5251  0.5637
  669MOL0     H92296   2.175   1.516   6.536 -1.8941  1.1884 -0.0458
  669MOL0     H92297   2.025   1.427   6.501 -0.3962  1.7770  0.0381
  669MOL0     H92298   2.047   1.623   6.368 -1.8121 -0.9000  1.1165
  669MOL0     H92299   2.028   1.485   6.268 -3.5673  1.3796  1.3424
  669MOL0     H92300   2.282   1.510   6.205  2.2053  1.2766 -0.0813
  669MOL0     H92301   2.298   1.614   6.341  1.9678  1.6236 -0.5694
  669MOL0     H92302   2.584   0.755   6.192  0.6738 -0.4110 -0.3883
  669MOL0     H92303   2.745   0.696   5.992 -1.1207 -1.0038 -3.3037
  669MOL0     H92304   2.894   1.033   5.480  0.0212 -0.9546 -1.2711
  669MOL0     H92305   3.081   0.962   5.315 -1.0565 -3.6177 -3.9918
  669MOL0     H92306   4.263   1.747   4.482 -1.2849 -0.8915  1.8924
  669MOL0     H92307   4.472   1.725   4.343  1.9649 -1.1347 -1.4288
  669MOL0     H92308   4.600   1.579   3.926 -0.3580 -0.8938  1.1620
  669MOL0     H92309   4.753   1.504   3.743  1.5064  0.5747 -0.8570
  669MOL0     H92310   5.127   1.401   3.651 -0.6006 -2.5393  0.0208
  669MOL0     H92311   5.101   1.543   3.748  2.4718  0.4287 -1.1210
  669MOL0     H92312   5.225   1.435   3.942  3.0539  1.0320 -0.7300
  669MOL0     H92313   5.310   1.436   3.805  1.0126 -1.5994 -1.2239
  669MOL0     H92314   5.187   1.181   3.751  1.4271  1.0332 -0.5228
  669MOL0     H92315   5.344   1.190   3.821  1.0336 -0.1253  1.8474
  669MOL0     H92316   5.246   1.053   3.944  1.9304  1.6256 -1.0875
  669MOL0     H92317   5.092   1.138   3.950  0.2688 -2.6999  2.9965
  669MOL0     H92318   5.299   1.287   4.301 -2.2291  0.7914  1.4769
  669MOL0     H92319   5.031   1.384   4.036 -0.8674 -1.1012  0.9373
  669MOL0     H92320   5.003   1.419   4.275 -0.2147 -2.7715  2.6853
  669MOL0     H92321   4.872   1.523   4.329  2.2882 -0.4840  1.5183
  669MOL0     H92322   4.859   1.341   4.314  1.7511 -1.3519 -1.0236
  670MOL0     O92323   4.580   2.542   5.769  0.1160 -0.0890 -0.0217
  670MOL0     C92324   4.560   2.426   5.774  0.1879  0.0320 -0.3837
  670MOL0     O92325   4.480   2.354   5.856  0.2523  0.4828  0.3612
  670MOL0     C92326   4.423   2.405   5.970  0.0521  0.2944  0.0570
  670MOL0     C92327   4.447   2.341   6.090 -0.7749  0.0962 -0.2221
  670MOL0     C92328   4.387   2.388   6.208 -0.1621  0.3183  0.0646
  670MOL0     C92329   4.304   2.494   6.201  0.1406  0.6205 -0.0672
  670MOL0     O92330   4.249   2.537   6.320  0.3795  0.3194 -0.1010
  670MOL0     C92331   4.234   2.682   6.347  0.9951  0.8155 -0.7635
  670MOL0     C92332   4.232   2.691   6.508 -0.3606 -0.3586 -0.5890
  670MOL0     C92333   4.129   2.606   6.578 -0.3471  0.1532  0.2827
  670MOL0     C92334   3.999   2.606   6.503  0.3398  0.0525 -0.1029
  670MOL0     C92335   3.876   2.561   6.586  0.1301 -0.0014 -0.3627
  670MOL0     C92336   3.747   2.567   6.512 -0.4150  0.5927  0.9746
  670MOL0     C92337   3.639   2.552   6.614 -0.6699  0.7324 -0.1035
  670MOL0     C92338   3.502   2.576   6.544 -0.1968  0.2674 -0.9075
  670MOL0     N92339   3.460   2.717   6.528  0.4780  0.3096 -0.1995
  670MOL0     C92340   3.414   2.788   6.643  0.2702 -0.2963 -0.0953
  670MOL0     C92341   3.377   2.906   6.587  0.3101  0.1932  0.0376
  670MOL0     C92342   3.329   3.018   6.667 -0.3167  0.0172  0.2637
  670MOL0     C92343   3.181   3.003   6.678 -0.5911  0.2153  1.0157
  670MOL0     C92344   3.129   3.065   6.814 -0.7213  0.0540 -0.3836
  670MOL0     C92345   2.975   3.067   6.827 -0.3349 -0.1058  0.2869
  670MOL0     O92346   2.919   2.944   6.815 -0.3107  0.5777 -0.3619
  670MOL0     C92347   2.781   2.930   6.811 -0.3588  0.6283 -0.1356
  670MOL0     C92348   2.676   3.031   6.808 -0.7360 -0.9335 -0.1559
  670MOL0     C92349   2.540   3.011   6.826  0.3427 -0.3619  0.1172
  670MOL0     C92350   2.455   3.131   6.855 -1.2717 -0.0599 -0.8385
  670MOL0     C92351   2.492   2.876   6.807 -0.7492  0.4126 -0.2468
  670MOL0     C92352   2.353   2.843   6.830  0.1225 -0.1722 -0.3289
  670MOL0     O92353   2.324   2.723   6.896  0.3974  0.3305 -0.2567
  670MOL0     C92354   2.193   2.700   6.925 -0.1322 -0.2203 -1.3883
  670MOL0     C92355   2.113   2.636   6.830  0.5324  0.2576 -0.2325
  670MOL0     C92356   1.973   2.610   6.850 -0.5307 -0.5696  0.1212
  670MOL0     C92357   1.920   2.643   6.978  0.4163  0.4630 -0.1665
  670MOL0     O92358   1.794   2.612   7.005  0.4649 -0.2117  0.5427
  670MOL0     C92359   1.710   2.701   7.086  0.9867  0.1070 -0.2939
  670MOL0     C92360   1.573   2.620   7.086  1.1426 -0.6987  0.1290
  670MOL0     C92361   1.572   2.493   7.155  0.4239  0.1908 -0.7383
  670MOL0     C92362   1.453   2.409   7.098  0.6247 -0.2387 -0.0245
  670MOL0     C92363   1.462   2.272   7.173  0.2127 -0.0738  0.0072
  670MOL0     C92364   1.354   2.172   7.121 -1.3911 -0.2386 -0.2830
  670MOL0     C92365   1.347   2.043   7.209 -0.9393 -0.1357 -0.4549
  670MOL0     C92366   1.294   1.924   7.126  0.1700 -0.3030 -0.4814
  670MOL0    Cl92367   1.400   1.911   6.976  0.7315  0.5229  0.0317
  670MOL0     C92368   1.998   2.685   7.085  0.2324 -0.4122 -0.5790
  670MOL0     C92369   2.135   2.723   7.056 -0.0095  0.3019  1.2038
  670MOL0     O92370   2.262   2.918   6.792 -0.8171  0.6429  0.0566
  670MOL0     C92371   2.586   2.767   6.799  0.8663 -0.4571  0.0044
  670MOL0     C92372   2.724   2.803   6.800  0.7844  0.7387  0.1207
  670MOL0     N92373   3.401   2.907   6.444  0.1676  1.1758 -0.5713
  670MOL0     N92374   3.445   2.790   6.412 -0.3970 -0.2759  0.3538
  670MOL0     C92375   4.284   2.567   6.079 -0.7285  0.2299 -0.2427
  670MOL0     C92376   4.345   2.521   5.956  0.0997 -0.0978 -0.7856
  670MOL0     C92377   4.620   2.336   5.663  0.9761  0.0903  0.2636
  670MOL0     C92378   4.612   2.200   5.680 -0.1973 -0.3609  0.4810
  670MOL0     C92379   4.656   2.114   5.581 -0.0393  0.5254  0.0700
  670MOL0     C92380   4.707   2.165   5.458 -0.2207 -0.4678  0.2146
  670MOL0     O92381   4.753   2.088   5.353 -0.8055  0.0762  0.3039
  670MOL0     C92382   4.802   1.956   5.386  0.0605  0.3467  0.0864
  670MOL0     C92383   4.915   1.897   5.304 -0.7650  0.1931 -1.0003
  670MOL0     C92384   4.849   1.850   5.170 -0.0646 -0.1353  0.8608
  670MOL0     C92385   4.953   1.786   5.073  0.4253  0.1265 -0.7509
  670MOL0     C92386   5.046   1.880   5.014 -0.2791 -0.2820 -0.2482
  670MOL0     C92387   5.133   1.954   4.966  0.1462 -0.5504  0.3801
  670MOL0     C92388   4.724   2.298   5.441  0.0022  0.5727 -0.5084
  670MOL0     C92389   4.676   2.389   5.540 -1.2994  1.2269 -0.8171
  670MOL0     C92390   4.691   2.534   5.514  0.2936  0.0218  0.4078
  670MOL0     H92391   4.513   2.255   6.094  1.1835  1.3835 -2.3919
  670MOL0     H92392   4.425   2.345   6.300 -1.9531  0.4585  0.9174
  670MOL0     H92393   4.147   2.715   6.291  1.6465  0.0959 -2.2558
  670MOL0     H92394   4.324   2.734   6.312  1.7827 -0.8596 -1.3307
  670MOL0     H92395   4.331   2.667   6.547  0.6551  0.0429 -2.7578
  670MOL0     H92396   4.223   2.796   6.537  2.4153 -0.5941  1.5440
  670MOL0     H92397   4.164   2.509   6.614 -2.0733  0.5768  3.5882
  670MOL0     H92398   4.101   2.655   6.672  0.1625 -2.1709  1.7487
  670MOL0     H92399   3.978   2.704   6.459 -1.2873  1.2202  2.9752
  670MOL0     H92400   4.010   2.534   6.422  1.7128 -1.8163  1.6405
  670MOL0     H92401   3.867   2.615   6.681  1.9703  1.5901 -1.0323
  670MOL0     H92402   3.899   2.456   6.603 -1.4106 -0.8095 -2.7227
  670MOL0     H92403   3.742   2.667   6.468  0.0891  0.7367  1.2365
  670MOL0     H92404   3.740   2.485   6.440  0.3884 -0.4559  2.0709
  670MOL0     H92405   3.656   2.625   6.693  0.6140  1.5668 -1.1069
  670MOL0     H92406   3.646   2.454   6.661 -0.6538  1.0125  0.4905
  670MOL0     H92407   3.518   2.527   6.448 -0.3128 -1.1880 -0.2195
  670MOL0     H92408   3.430   2.509   6.592 -3.8298 -2.1888 -8.2690
  670MOL0     H92409   3.413   2.751   6.745  3.4340  1.0054  0.5230
  670MOL0     H92410   3.352   3.118   6.630 -1.2424 -0.2637 -1.1727
  670MOL0     H92411   3.377   3.008   6.765  0.6771 -0.6779 -0.2754
  670MOL0     H92412   3.123   3.055   6.601  0.4950  2.0211  1.3481
  670MOL0     H92413   3.161   2.896   6.680 -2.3764  0.4895  4.4084
  670MOL0     H92414   3.176   3.016   6.900  1.8784 -2.3951 -2.9605
  670MOL0     H92415   3.166   3.168   6.816  0.9068 -0.3901 -2.7118
  670MOL0     H92416   2.933   3.122   6.912 -1.8757  0.1979 -0.6338
  670MOL0     H92417   2.943   3.124   6.739 -1.0436 -0.7780  0.0934
  670MOL0     H92418   2.709   3.134   6.802  1.5032 -1.6009 -0.1154
  670MOL0     H92419   2.519   3.218   6.874  1.8313 -2.1333 -0.9945
  670MOL0     H92420   2.398   3.104   6.944 -0.3368 -1.7696 -0.7100
  670MOL0     H92421   2.382   3.137   6.774 -2.2502 -0.8128 -0.0384
  670MOL0     H92422   2.141   2.625   6.725 -1.7373 -1.7793 -0.7208
  670MOL0     H92423   1.917   2.567   6.767  0.0457 -0.2918 -0.4162
  670MOL0     H92424   1.749   2.716   7.187  1.2870  0.4197 -0.4546
  670MOL0     H92425   1.696   2.797   7.036  1.1440 -1.4663 -3.5860
  670MOL0     H92426   1.499   2.689   7.129  0.8005  0.6253 -2.3739
  670MOL0     H92427   1.544   2.600   6.982 -3.3334 -4.0218  1.7098
  670MOL0     H92428   1.565   2.503   7.264  4.1210 -1.4505 -0.2221
  670MOL0     H92429   1.663   2.436   7.134 -0.8127 -0.3542 -6.0583
  670MOL0     H92430   1.464   2.388   6.991  0.1219 -1.2352  0.1095
  670MOL0     H92431   1.362   2.465   7.119 -0.8687  0.2418 -5.8786
  670MOL0     H92432   1.554   2.219   7.146  0.1211 -0.7864  1.0276
  670MOL0     H92433   1.470   2.299   7.279  1.1325  4.3601 -1.0033
  670MOL0     H92434   1.391   2.145   7.021 -0.9987  1.5469 -0.6645
  670MOL0     H92435   1.254   2.216   7.125 -1.2698 -0.0463  0.8544
  670MOL0     H92436   1.276   2.057   7.291  1.1031 -0.8137  1.5412
  670MOL0     H92437   1.443   2.030   7.259 -0.2796 -0.0361 -1.6790
  670MOL0     H92438   1.191   1.952   7.103  0.3558  2.0314  1.1510
  670MOL0     H92439   1.307   1.832   7.184  3.3377  1.4323  1.9011
  670MOL0     H92440   1.961   2.727   7.177 -0.4893  2.4223 -2.0580
  670MOL0     H92441   2.202   2.762   7.133  2.4459  0.9611 -1.1077
  670MOL0     H92442   2.559   2.662   6.807  0.9391 -0.4614  0.2043
  670MOL0     H92443   2.798   2.723   6.800  0.5615  0.5045 -1.2226
  670MOL0     H92444   4.221   2.654   6.066  1.6604  1.8053 -2.1759
  670MOL0     H92445   4.339   2.578   5.864  1.1061 -0.2297 -0.9425
  670MOL0     H92446   4.561   2.149   5.761 -0.9583  0.1825  0.3608
  670MOL0     H92447   4.640   2.007   5.587  1.4500  0.3186  1.0895
  670MOL0     H92448   4.847   1.957   5.486 -0.7018 -0.1457  0.4457
  670MOL0     H92449   4.713   1.892   5.389  0.1512  0.1906 -0.4857
  670MOL0     H92450   4.966   1.811   5.349 -0.4882  1.1703  0.6674
  670MOL0     H92451   4.993   1.974   5.306 -0.5416 -0.0403 -0.2576
  670MOL0     H92452   4.760   1.787   5.178  1.2274 -1.9323  2.0229
  670MOL0     H92453   4.814   1.938   5.115  2.4535 -1.6593 -3.7050
  670MOL0     H92454   4.902   1.744   4.986  2.0118  1.5282 -2.4288
  670MOL0     H92455   5.009   1.708   5.125  0.8853  2.4879  2.5895
  670MOL0     H92456   5.200   2.032   4.937  1.5538 -0.8771  2.4804
  670MOL0     H92457   4.768   2.345   5.353  1.2407 -2.6551 -1.7589
  670MOL0     H92458   4.706   2.544   5.406 -0.4964 -0.7335  0.2062
  670MOL0     H92459   4.597   2.588   5.527  0.9238  0.7162  2.3074
  670MOL0     H92460   4.774   2.579   5.569  0.0171  0.7762  0.2196
  671MOL0     O92461   1.084   3.561   5.324 -0.6769  0.5898 -0.1020
  671MOL0     C92462   1.088   3.556   5.203 -0.1824 -0.4712 -0.6934
  671MOL0     O92463   1.185   3.482   5.126  0.4719 -0.0364  0.5388
  671MOL0     C92464   1.282   3.409   5.177 -0.5669  0.6121 -0.1061
  671MOL0     C92465   1.411   3.399   5.114 -0.1684 -0.2860  0.2652
  671MOL0     C92466   1.517   3.316   5.164 -0.2874  0.3636 -0.3480
  671MOL0     C92467   1.502   3.242   5.283 -0.0998  0.8941  0.8580
  671MOL0     O92468   1.595   3.154   5.324 -0.5648 -0.2766 -0.3086
  671MOL0     C92469   1.724   3.220   5.359  0.2043  0.8914  0.1360
  671MOL0     C92470   1.725   3.265   5.496 -0.0154 -0.0044 -0.6178
  671MOL0     C92471   1.840   3.221   5.583 -0.2998  0.8834 -0.7187
  671MOL0     C92472   1.828   3.248   5.740  0.9502  0.7899  0.3103
  671MOL0     C92473   1.947   3.171   5.793 -0.7073  0.1928 -0.6107
  671MOL0     C92474   1.964   3.211   5.944 -0.2312 -0.4670  0.2068
  671MOL0     C92475   1.992   3.364   5.975  0.9651 -0.0105 -0.9127
  671MOL0     C92476   1.998   3.377   6.129 -1.0916  0.0153  0.8476
  671MOL0     N92477   1.874   3.336   6.197  0.7554  0.6378  0.5767
  671MOL0     C92478   1.757   3.397   6.175  2.9485  0.5198  0.0231
  671MOL0     C92479   1.656   3.328   6.250  0.7015  0.1644  0.0536
  671MOL0     C92480   1.508   3.344   6.247  0.3802 -1.0408  1.2076
  671MOL0     C92481   1.444   3.223   6.177  0.5526  0.5132  0.6333
  671MOL0     C92482   1.297   3.205   6.198  0.2693 -0.6139 -0.0534
  671MOL0     C92483   1.232   3.332   6.143 -0.2225 -0.0070 -0.5812
  671MOL0     O92484   1.220   3.437   6.242  0.7943  0.1871  0.0423
  671MOL0     C92485   1.211   3.569   6.195  0.6548 -0.8131  0.1056
  671MOL0     C92486   1.204   3.665   6.295 -0.6283  0.9579  0.4867
  671MOL0     C92487   1.185   3.804   6.266 -0.3171 -0.3498 -0.1195
  671MOL0     C92488   1.191   3.895   6.379 -0.6613  0.0987  0.0764
  671MOL0     C92489   1.184   3.849   6.131 -0.2985  1.2994  0.8059
  671MOL0     C92490   1.186   3.988   6.076 -0.1868  0.8809 -0.6807
  671MOL0     O92491   1.154   3.998   5.945 -0.3809  0.4197  0.7339
  671MOL0     C92492   1.147   4.120   5.895  0.1826 -0.4144 -0.9234
  671MOL0     C92493   1.267   4.192   5.859  0.6541 -0.0853  0.2654
  671MOL0     C92494   1.268   4.319   5.803  0.4553 -0.2618 -0.7555
  671MOL0     C92495   1.144   4.389   5.788  1.0073  1.1190  0.4463
  671MOL0     O92496   1.151   4.512   5.744 -1.0809 -0.0082  0.7742
  671MOL0     C92497   1.071   4.605   5.824  0.5134  0.0163  0.7263
  671MOL0     C92498   1.105   4.759   5.817 -0.8210 -0.1681 -0.1969
  671MOL0     C92499   1.246   4.795   5.870 -0.0151  0.2110 -0.1950
  671MOL0     C92500   1.339   4.785   5.746  0.2872 -0.0006  0.0771
  671MOL0     C92501   1.483   4.817   5.779  0.3143 -0.3989 -0.2033
  671MOL0     C92502   1.576   4.720   5.847  0.3532  0.1823  1.3379
  671MOL0     C92503   1.717   4.780   5.846  0.7257  0.5423  0.6039
  671MOL0     C92504   1.836   4.703   5.800 -0.2718  0.3460 -0.1665
  671MOL0    Cl92505   1.839   4.557   5.895 -0.7638  0.2268 -0.1004
  671MOL0     C92506   1.028   4.319   5.829 -0.7544 -0.1314 -0.2307
  671MOL0     C92507   1.035   4.193   5.878  0.7011 -0.0141  0.6199
  671MOL0     O92508   1.223   4.082   6.144  0.3830 -1.3169 -0.5508
  671MOL0     C92509   1.180   3.745   6.034  0.3499  0.3850 -0.0023
  671MOL0     C92510   1.192   3.608   6.059  0.1449 -1.1143 -0.0759
  671MOL0     N92511   1.728   3.226   6.318  0.0981 -0.8048  0.9661
  671MOL0     N92512   1.847   3.245   6.301 -1.0622 -0.0887  0.5834
  671MOL0     C92513   1.386   3.263   5.348  0.1634  0.5409  0.5426
  671MOL0     C92514   1.278   3.338   5.298 -0.0422 -1.1960  0.1387
  671MOL0     C92515   0.988   3.628   5.121 -0.3405 -0.8356  0.4013
  671MOL0     C92516   0.945   3.757   5.166 -0.2441  0.1165  0.0051
  671MOL0     C92517   0.853   3.829   5.087 -0.8151 -0.7902  0.3907
  671MOL0     C92518   0.798   3.780   4.970 -0.1203  0.9687  0.4456
  671MOL0     O92519   0.708   3.863   4.903 -0.2678  0.4306 -0.1609
  671MOL0     C92520   0.626   3.824   4.791  0.2960  0.2066  0.0830
  671MOL0     C92521   0.517   3.927   4.746 -0.6337  0.6432 -0.3094
  671MOL0     C92522   0.449   3.881   4.616 -0.4218  0.2388  0.2410
  671MOL0     C92523   0.352   4.002   4.587  0.8092 -0.1169  0.3624
  671MOL0     C92524   0.237   4.002   4.689 -1.0671 -0.6473 -1.3178
  671MOL0     C92525   0.144   4.003   4.767 -0.6111 -1.1627  0.2963
  671MOL0     C92526   0.849   3.660   4.926  0.2999  0.4390 -0.3666
  671MOL0     C92527   0.939   3.578   4.995 -0.1323  1.3103 -0.2176
  671MOL0     C92528   0.993   3.449   4.928 -0.2851  0.2529  0.3516
  671MOL0     H92529   1.419   3.444   5.016  0.7718 -3.9885 -1.5290
  671MOL0     H92530   1.605   3.292   5.105 -1.3083  1.9124 -2.6666
  671MOL0     H92531   1.764   3.298   5.293  0.8252  1.2070  0.8631
  671MOL0     H92532   1.790   3.137   5.335  0.0231  0.5364  0.8384
  671MOL0     H92533   1.726   3.374   5.485  1.4785  0.1364  0.6039
  671MOL0     H92534   1.632   3.243   5.548  1.6108  1.0201  3.0380
  671MOL0     H92535   1.846   3.112   5.583  0.4250  0.8811  1.4018
  671MOL0     H92536   1.935   3.260   5.546  0.0856 -2.0279 -3.1831
  671MOL0     H92537   1.837   3.355   5.760  2.0322  1.1756 -1.8589
  671MOL0     H92538   1.737   3.203   5.778 -1.1012  3.4085 -1.1430
  671MOL0     H92539   2.034   3.212   5.740  1.8010 -3.3051  0.4392
  671MOL0     H92540   1.946   3.062   5.781 -1.3787 -0.0760  1.4676
  671MOL0     H92541   1.872   3.178   5.993  1.1994 -2.8659  1.4715
  671MOL0     H92542   2.047   3.149   5.980  0.9955  1.5521  0.9631
  671MOL0     H92543   1.909   3.430   5.948 -1.3290 -1.6303  1.6792
  671MOL0     H92544   2.082   3.402   5.927  0.6990 -0.7251 -2.0006
  671MOL0     H92545   2.080   3.320   6.172 -0.0161  0.1466 -0.9289
  671MOL0     H92546   2.014   3.482   6.154  2.1592 -0.8698  3.1344
  671MOL0     H92547   1.741   3.471   6.097 -1.2039 -2.8930 -2.8670
  671MOL0     H92548   1.474   3.427   6.183 -1.8203 -2.4287  0.4648
  671MOL0     H92549   1.467   3.369   6.345  2.3229  2.0610  1.3885
  671MOL0     H92550   1.476   3.221   6.073  2.1225 -1.1657  1.0932
  671MOL0     H92551   1.481   3.127   6.214 -0.5694 -1.2343 -2.3935
  671MOL0     H92552   1.252   3.120   6.147 -1.9809  1.9516 -2.6245
  671MOL0     H92553   1.284   3.185   6.305  1.5426 -3.1999 -0.2896
  671MOL0     H92554   1.287   3.372   6.057 -2.0999  0.9065 -1.4152
  671MOL0     H92555   1.133   3.311   6.102 -0.2386 -1.3296  0.0965
  671MOL0     H92556   1.213   3.625   6.396  0.0317  1.3553  0.5998
  671MOL0     H92557   1.182   4.002   6.363  0.9786  0.1014 -1.0791
  671MOL0     H92558   1.293   3.878   6.416 -0.5939  0.2338 -0.0469
  671MOL0     H92559   1.121   3.859   6.456 -1.8546 -1.1818 -1.5190
  671MOL0     H92560   1.354   4.128   5.874  0.3213 -1.0646 -1.5970
  671MOL0     H92561   1.361   4.370   5.781 -0.4830  1.7705 -0.2578
  671MOL0     H92562   0.974   4.609   5.775  0.0935  1.2152  1.6054
  671MOL0     H92563   1.066   4.579   5.930  1.6429  0.3559  0.8843
  671MOL0     H92564   1.095   4.808   5.720  0.2241  0.2029 -0.1277
  671MOL0     H92565   1.037   4.813   5.883 -0.3102  2.0668 -1.4338
  671MOL0     H92566   1.273   4.730   5.954 -0.1181 -1.9933 -1.7906
  671MOL0     H92567   1.261   4.899   5.902  1.2649  0.8022 -2.4863
  671MOL0     H92568   1.305   4.852   5.667  0.4478  0.6703  0.5654
  671MOL0     H92569   1.331   4.683   5.709  2.5943  0.1890 -1.1258
  671MOL0     H92570   1.526   4.831   5.679  0.8551 -0.2257  0.0450
  671MOL0     H92571   1.476   4.904   5.846 -0.7626 -3.5966  4.2848
  671MOL0     H92572   1.570   4.627   5.789 -2.4897  0.6255  0.7742
  671MOL0     H92573   1.542   4.699   5.949  0.8814 -0.6609  1.3535
  671MOL0     H92574   1.745   4.795   5.950 -3.4544  1.1097  1.8430
  671MOL0     H92575   1.708   4.878   5.798  3.2393  2.0630  2.9786
  671MOL0     H92576   1.927   4.763   5.812 -1.5193  1.7116  3.6955
  671MOL0     H92577   1.837   4.681   5.692 -3.4955 -0.8677 -0.0718
  671MOL0     H92578   0.932   4.369   5.830  0.1587  1.7461  2.2597
  671MOL0     H92579   0.952   4.126   5.897  1.1561 -0.2774  1.7660
  671MOL0     H92580   1.165   3.769   5.929 -3.1106  1.0526  0.5106
  671MOL0     H92581   1.186   3.536   5.979 -0.6910 -0.6582 -0.4340
  671MOL0     H92582   1.369   3.227   5.449 -2.4666  1.7499  0.6149
  671MOL0     H92583   1.190   3.341   5.362 -0.8631  2.3377 -0.9609
  671MOL0     H92584   0.994   3.803   5.252 -2.6121  1.2232  0.8493
  671MOL0     H92585   0.829   3.929   5.119  3.5597  1.2628 -1.8617
  671MOL0     H92586   0.685   3.797   4.702 -2.4676 -3.3377 -0.9186
  671MOL0     H92587   0.578   3.734   4.831  0.8483 -0.9930 -1.7943
  671MOL0     H92588   0.557   4.024   4.715 -2.4986  1.4867 -0.2557
  671MOL0     H92589   0.450   3.944   4.830  2.4617  1.6561  2.1286
  671MOL0     H92590   0.529   3.881   4.542  1.0005  1.5490  1.6986
  671MOL0     H92591   0.399   3.784   4.607  0.4365 -0.1098 -0.9833
  671MOL0     H92592   0.314   3.993   4.485 -1.2087 -2.7290  1.2245
  671MOL0     H92593   0.397   4.100   4.602 -0.8412  1.2175 -2.5156
  671MOL0     H92594   0.071   4.004   4.845  0.0878  0.9629  0.9908
  671MOL0     H92595   0.815   3.628   4.828 -0.9365  1.3084 -0.2443
  671MOL0     H92596   0.982   3.370   5.004  1.5812 -3.2618 -2.6748
  671MOL0     H92597   0.942   3.428   4.834  1.4537  2.9202 -1.3058
  671MOL0     H92598   1.098   3.442   4.899 -0.9829 -4.9278 -2.1441
  672MOL0     O92599   6.131   1.851   2.829  0.0134 -0.8377  0.4721
  672MOL0     C92600   6.215   1.805   2.905 -1.5567 -0.3810 -0.3694
  672MOL0     O92601   6.201   1.778   3.038  0.0592  0.5974  0.2310
  672MOL0     C92602   6.075   1.797   3.088 -0.9213 -0.6282 -0.0014
  672MOL0     C92603   6.008   1.688   3.140  0.5640 -0.0390 -0.1369
  672MOL0     C92604   5.880   1.695   3.207  0.5343 -0.0279  0.0408
  672MOL0     C92605   5.808   1.818   3.209 -0.3299  0.6330 -0.5918
  672MOL0     O92606   5.685   1.821   3.264 -0.0097  0.4096 -0.3312
  672MOL0     C92607   5.587   1.918   3.211 -0.4679  0.2824 -0.1962
  672MOL0     C92608   5.578   2.054   3.283 -0.1984  0.4603 -0.5280
  672MOL0     C92609   5.548   2.049   3.438  0.0105 -0.0655 -0.9641
  672MOL0     C92610   5.480   2.183   3.495 -0.0048 -1.1120  1.4230
  672MOL0     C92611   5.454   2.176   3.640  0.2221  0.8551  1.1721
  672MOL0     C92612   5.587   2.197   3.723 -0.1714  0.4556 -0.0436
  672MOL0     C92613   5.579   2.226   3.866 -0.3224  0.2491 -0.6933
  672MOL0     C92614   5.503   2.111   3.935  0.8914 -0.3035  0.1110
  672MOL0     N92615   5.444   2.163   4.055  0.7436 -1.0199  0.0652
  672MOL0     C92616   5.348   2.260   4.064  0.1197 -0.1640 -0.2295
  672MOL0     C92617   5.307   2.255   4.192  0.2889 -0.1513  0.3233
  672MOL0     C92618   5.188   2.328   4.259  0.1948 -0.7582  0.5435
  672MOL0     C92619   5.223   2.349   4.408  0.7748  0.0268 -0.5651
  672MOL0     C92620   5.140   2.472   4.472  0.3898  1.0274  0.8853
  672MOL0     C92621   4.994   2.456   4.426  0.9184  0.0092  0.0952
  672MOL0     O92622   4.908   2.551   4.487  0.3695 -0.3386  0.2699
  672MOL0     C92623   4.772   2.529   4.497 -0.5852  0.3808 -0.5451
  672MOL0     C92624   4.708   2.460   4.389 -0.1895  0.7229 -0.7011
  672MOL0     C92625   4.567   2.443   4.390  0.4540  0.5440  0.8299
  672MOL0     C92626   4.504   2.378   4.273 -0.6498  0.8430  0.0210
  672MOL0     C92627   4.486   2.479   4.498  0.5217  0.6820  1.2545
  672MOL0     C92628   4.331   2.466   4.497 -0.8613  0.5886  0.1794
  672MOL0     O92629   4.262   2.485   4.382 -0.1043 -0.0506  0.3937
  672MOL0     C92630   4.136   2.429   4.387 -0.3472 -0.6420  0.3556
  672MOL0     C92631   4.029   2.518   4.384  0.6608 -0.2048 -0.0002
  672MOL0     C92632   3.899   2.477   4.396  0.2774 -0.7214 -0.5804
  672MOL0     C92633   3.869   2.334   4.398 -0.2214 -0.8769 -1.0510
  672MOL0     O92634   3.753   2.284   4.443  0.2714  0.7695 -0.2318
  672MOL0     C92635   3.648   2.383   4.479  0.0042  0.6217 -1.0631
  672MOL0     C92636   3.524   2.303   4.533  0.5932 -0.4478  0.9276
  672MOL0     C92637   3.417   2.410   4.555  0.5746 -0.1119  0.7002
  672MOL0     C92638   3.281   2.342   4.586  0.4701  0.0815 -0.5326
  672MOL0     C92639   3.171   2.440   4.621 -0.9395 -0.1461 -0.1491
  672MOL0     C92640   3.067   2.477   4.509 -0.6736 -0.0740  0.0701
  672MOL0     C92641   2.960   2.586   4.557  0.4703 -0.1018 -0.4424
  672MOL0     C92642   2.921   2.685   4.452 -0.4672  0.0181 -0.1525
  672MOL0    Cl92643   3.050   2.814   4.454 -0.0136  0.4753 -0.5198
  672MOL0     C92644   3.971   2.243   4.378 -0.1290 -0.0532 -0.4492
  672MOL0     C92645   4.100   2.290   4.363 -0.8736 -0.3882 -0.2921
  672MOL0     O92646   4.294   2.410   4.605  0.5100  0.0596  0.2592
  672MOL0     C92647   4.552   2.533   4.608 -0.6813 -0.1010  0.1176
  672MOL0     C92648   4.691   2.565   4.609 -0.9975  0.3212  1.1414
  672MOL0     N92649   5.370   2.150   4.258 -0.4736  0.6814 -0.2526
  672MOL0     N92650   5.454   2.107   4.177  0.4377  0.3149  0.5944
  672MOL0     C92651   5.874   1.933   3.151 -0.4870  0.9486 -0.3766
  672MOL0     C92652   6.008   1.927   3.100  0.1799  0.1299  0.5407
  672MOL0     C92653   6.347   1.772   2.844  0.7913 -0.6195 -0.3598
  672MOL0     C92654   6.432   1.685   2.910 -0.6469  0.8120  0.4599
  672MOL0     C92655   6.564   1.660   2.864 -0.7995  0.3713  0.0666
  672MOL0     C92656   6.616   1.718   2.752  0.1077 -0.3394 -0.1498
  672MOL0     O92657   6.734   1.687   2.706  0.2534 -0.4000 -0.1646
  672MOL0     C92658   6.729   1.568   2.630 -0.4022 -0.2510 -0.4627
  672MOL0     C92659   6.872   1.526   2.575  0.3208  0.0309  0.6320
  672MOL0     C92660   6.941   1.641   2.495 -0.2937 -0.3147 -0.2236
  672MOL0     C92661   7.096   1.642   2.489 -0.1518 -0.1173 -0.2244
  672MOL0     C92662   7.182   1.645   2.613  0.8621 -0.3293 -1.0827
  672MOL0     C92663   7.234   1.646   2.725  0.1882 -0.4360 -0.7493
  672MOL0     C92664   6.537   1.809   2.675  0.5425  0.4297  0.7454
  672MOL0     C92665   6.409   1.835   2.722  0.2904 -0.2709  0.1433
  672MOL0     C92666   6.324   1.922   2.629  0.1275  1.0029  0.1201
  672MOL0     H92667   6.058   1.592   3.132  3.0373  0.6536  3.8874
  672MOL0     H92668   5.836   1.603   3.245  2.2808 -0.0008  2.4128
  672MOL0     H92669   5.489   1.869   3.221 -1.3417  2.0723  0.4825
  672MOL0     H92670   5.596   1.930   3.102 -2.8770  0.6498 -0.4139
  672MOL0     H92671   5.664   2.120   3.270  1.0117 -1.2963 -1.9022
  672MOL0     H92672   5.493   2.104   3.236  0.8787  2.1334 -0.7742
  672MOL0     H92673   5.481   1.963   3.447  2.6006 -2.1575 -0.4261
  672MOL0     H92674   5.645   2.031   3.485  1.5956  4.0586 -2.2107
  672MOL0     H92675   5.536   2.274   3.473 -2.3543 -0.6045 -3.9537
  672MOL0     H92676   5.384   2.195   3.443 -0.7771  0.9114  3.1577
  672MOL0     H92677   5.401   2.081   3.650  1.9224 -0.2534  0.2882
  672MOL0     H92678   5.376   2.243   3.675 -1.2930 -0.0075 -0.3775
  672MOL0     H92679   5.647   2.108   3.704  0.1754  0.7219 -0.2117
  672MOL0     H92680   5.632   2.283   3.673 -0.8763  0.2698 -1.0273
  672MOL0     H92681   5.527   2.321   3.879  1.1223  1.2277 -1.6319
  672MOL0     H92682   5.681   2.224   3.905 -0.7661 -3.5929  0.5902
  672MOL0     H92683   5.413   2.086   3.877  1.4806 -1.8629 -0.1900
  672MOL0     H92684   5.556   2.017   3.955 -2.3470 -2.1270  1.0346
  672MOL0     H92685   5.297   2.314   3.985  1.5438 -0.6469 -1.5345
  672MOL0     H92686   5.101   2.262   4.251  0.2693 -0.8274  0.3146
  672MOL0     H92687   5.191   2.424   4.207  1.6429  0.0374  1.9886
  672MOL0     H92688   5.211   2.259   4.469  2.8328  0.3278  0.3759
  672MOL0     H92689   5.328   2.379   4.410  0.3197  1.8687 -1.9208
  672MOL0     H92690   5.128   2.474   4.581 -0.5855 -1.1362  0.8627
  672MOL0     H92691   5.182   2.565   4.432  0.8375  1.0148  1.3176
  672MOL0     H92692   4.996   2.478   4.319  3.6507 -0.2249  0.0290
  672MOL0     H92693   4.956   2.355   4.445  5.4301 -2.2095 -1.1349
  672MOL0     H92694   4.771   2.423   4.309 -0.7416 -1.4793 -0.1889
  672MOL0     H92695   4.576   2.308   4.229 -0.8020  1.5995 -1.5212
  672MOL0     H92696   4.464   2.448   4.199 -0.1125  1.2616  0.1156
  672MOL0     H92697   4.425   2.312   4.310 -0.4019  1.9310  2.6609
  672MOL0     H92698   4.057   2.623   4.380 -0.1336  0.0309  0.3808
  672MOL0     H92699   3.816   2.547   4.399  1.9089  1.4839 -2.7104
  672MOL0     H92700   3.688   2.434   4.567  4.0368 -1.4219 -1.4934
  672MOL0     H92701   3.623   2.456   4.402 -2.1389  2.9156  1.5879
  672MOL0     H92702   3.495   2.226   4.460  2.5566  0.5799 -1.0573
  672MOL0     H92703   3.545   2.255   4.629 -2.0765 -0.2290  1.7013
  672MOL0     H92704   3.405   2.471   4.465 -1.0866  0.3513  1.1846
  672MOL0     H92705   3.443   2.482   4.632 -1.2663  3.2017 -1.5456
  672MOL0     H92706   3.303   2.290   4.680 -1.7858  2.0248  1.2002
  672MOL0     H92707   3.244   2.260   4.523  0.8126  0.2778 -0.9943
  672MOL0     H92708   3.116   2.411   4.711  0.3566  1.0826  1.0968
  672MOL0     H92709   3.220   2.531   4.659 -1.8308 -0.8604  3.0869
  672MOL0     H92710   3.024   2.382   4.476  0.3614 -0.4565 -0.2483
  672MOL0     H92711   3.122   2.515   4.423  2.0583 -2.2967  0.6743
  672MOL0     H92712   2.992   2.636   4.649  1.7473 -2.9537  0.8126
  672MOL0     H92713   2.869   2.544   4.602  0.4078 -1.2882 -1.5953
  672MOL0     H92714   2.832   2.742   4.481  0.5455  1.3990  0.3679
  672MOL0     H92715   2.898   2.636   4.357  0.1835 -0.2571 -0.1771
  672MOL0     H92716   3.950   2.137   4.387 -1.0396  0.1498 -0.0374
  672MOL0     H92717   4.190   2.235   4.335  1.1555  2.7473 -0.4927
  672MOL0     H92718   4.482   2.568   4.684 -1.2652  3.6741 -1.9175
  672MOL0     H92719   4.740   2.611   4.694  2.3600 -1.1018  0.1189
  672MOL0     H92720   5.835   2.034   3.153  2.9588  2.4731 -1.8744
  672MOL0     H92721   6.048   2.014   3.048  1.0359 -0.0055  0.9573
  672MOL0     H92722   6.400   1.627   2.996  0.7685 -1.2879 -0.3456
  672MOL0     H92723   6.625   1.588   2.916  0.7262 -0.0168 -2.1238
  672MOL0     H92724   6.684   1.483   2.684  0.1158  0.9099  1.9224
  672MOL0     H92725   6.657   1.592   2.551 -1.2469  1.8645  0.8812
  672MOL0     H92726   6.858   1.432   2.521 -3.2486  1.0750 -0.5388
  672MOL0     H92727   6.945   1.504   2.653 -1.2591 -2.6954  1.4387
  672MOL0     H92728   6.895   1.628   2.397 -0.1759 -0.3481 -0.2748
  672MOL0     H92729   6.904   1.736   2.536  2.4807  1.5844 -1.7276
  672MOL0     H92730   7.129   1.732   2.436  1.1534 -1.3414 -1.5947
  672MOL0     H92731   7.123   1.562   2.420  0.0577  1.1895 -1.7198
  672MOL0     H92732   7.292   1.640   2.815  1.3129  1.3586 -1.2882
  672MOL0     H92733   6.575   1.848   2.581 -2.3059  2.3175  0.2651
  672MOL0     H92734   6.289   2.017   2.669 -1.4745  0.2159  0.6404
  672MOL0     H92735   6.362   1.940   2.528 -2.8009  1.4652 -0.9917
  672MOL0     H92736   6.230   1.872   2.603  0.2177  1.0811 -0.3771
  673MOL0     O92737   5.763   8.502   2.860 -0.5260  1.0177 -0.2645
  673MOL0     C92738   5.663   8.567   2.846 -0.3234 -0.5438 -0.0140
  673MOL0     O92739   5.571   8.589   2.943  0.6302  0.0488 -0.0211
  673MOL0     C92740   5.568   8.514   3.065 -0.6899 -0.1122  0.0017
  673MOL0     C92741   5.610   8.387   3.081 -0.5669  0.1199 -0.3895
  673MOL0     C92742   5.619   8.335   3.212 -0.0968 -0.2007 -1.2441
  673MOL0     C92743   5.585   8.427   3.329  0.6194 -0.4524 -0.4033
  673MOL0     O92744   5.594   8.370   3.456  0.3605  0.3582  0.0863
  673MOL0     C92745   5.593   8.461   3.567 -1.0766 -0.4092  0.0382
  673MOL0     C92746   5.618   8.363   3.681 -0.4359 -0.3896  0.1786
  673MOL0     C92747   5.610   8.434   3.812  0.6698 -0.3586 -0.1777
  673MOL0     C92748   5.640   8.340   3.933  0.8628  0.3212 -0.1019
  673MOL0     C92749   5.615   8.413   4.065  0.6070  0.0499  0.0618
  673MOL0     C92750   5.611   8.315   4.194  0.4748  0.0271  0.3615
  673MOL0     C92751   5.697   8.192   4.191  0.0559 -0.9428 -0.3389
  673MOL0     C92752   5.734   8.121   4.328 -0.8399 -0.6453 -0.9531
  673MOL0     N92753   5.627   8.066   4.411  1.0458  0.1874  0.1528
  673MOL0     C92754   5.537   7.968   4.370 -0.5779  0.7831  0.5369
  673MOL0     C92755   5.439   7.971   4.453  0.1084  0.0722  0.7116
  673MOL0     C92756   5.310   7.901   4.455 -0.1854  0.4998 -0.6960
  673MOL0     C92757   5.330   7.776   4.552  0.5868 -0.0362 -0.8805
  673MOL0     C92758   5.385   7.647   4.468 -0.5949 -0.9336  0.2048
  673MOL0     C92759   5.293   7.583   4.363 -0.0535 -0.0683 -1.1027
  673MOL0     O92760   5.263   7.652   4.243 -0.3495 -0.3184 -0.2691
  673MOL0     C92761   5.347   7.693   4.137  0.1824  0.3344 -1.5099
  673MOL0     C92762   5.293   7.773   4.036 -0.8751  0.0776 -0.0021
  673MOL0     C92763   5.369   7.847   3.939  0.2814  0.5175  0.1035
  673MOL0     C92764   5.307   7.942   3.849 -0.4362 -0.4209 -0.4315
  673MOL0     C92765   5.510   7.824   3.931  1.0677 -0.2390 -0.2339
  673MOL0     C92766   5.598   7.860   3.824  0.7708 -0.6049  0.3047
  673MOL0     O92767   5.553   7.830   3.695  0.5268 -0.6828 -0.7402
  673MOL0     C92768   5.645   7.866   3.599  0.2618 -0.3690  0.1772
  673MOL0     C92769   5.707   7.769   3.523  0.4360  0.1332 -0.9214
  673MOL0     C92770   5.793   7.804   3.423  0.2568 -0.4205  0.2978
  673MOL0     C92771   5.806   7.942   3.394 -0.0720  0.7245  1.2244
  673MOL0     O92772   5.893   7.954   3.295 -0.2872 -0.3140  0.4726
  673MOL0     C92773   5.935   8.084   3.246  0.3618  0.3815 -0.3653
  673MOL0     C92774   6.040   8.068   3.137  0.5819 -0.1865  0.2470
  673MOL0     C92775   6.033   8.182   3.036  0.4930 -0.1430  0.1982
  673MOL0     C92776   6.167   8.208   2.979 -0.2612 -0.1739  0.5770
  673MOL0     C92777   6.154   8.302   2.853 -0.3021  1.0593 -0.4005
  673MOL0     C92778   6.285   8.336   2.789  0.8948 -0.1936 -0.2861
  673MOL0     C92779   6.357   8.431   2.888 -0.3466  0.5513  0.0090
  673MOL0     C92780   6.454   8.534   2.840  0.1262 -0.8652  0.5557
  673MOL0    Cl92781   6.371   8.628   2.720  0.3786  0.2112 -0.0257
  673MOL0     C92782   5.730   8.037   3.461 -0.7926 -0.2656  0.6070
  673MOL0     C92783   5.653   8.003   3.561  1.1194 -0.2304 -0.4048
  673MOL0     O92784   5.693   7.937   3.849  0.4850 -0.0958 -0.2886
  673MOL0     C92785   5.564   7.741   4.033 -0.4217  1.1679 -0.7372
  673MOL0     C92786   5.478   7.671   4.126 -0.7346  0.7247  0.4671
  673MOL0     N92787   5.459   8.064   4.549 -0.1340 -0.6384  0.4788
  673MOL0     N92788   5.570   8.119   4.521 -0.2152  0.0512 -0.0186
  673MOL0     C92789   5.555   8.559   3.300  0.1712  0.1988  0.2554
  673MOL0     C92790   5.540   8.603   3.168  0.5874  0.0940  0.1472
  673MOL0     C92791   5.639   8.626   2.713  0.5794  1.3100 -0.4740
  673MOL0     C92792   5.515   8.657   2.672  0.2699  0.2570  0.4693
  673MOL0     C92793   5.491   8.700   2.539 -0.0359  1.1096 -1.2763
  673MOL0     C92794   5.596   8.709   2.449  0.6247 -0.1206  0.1446
  673MOL0     O92795   5.555   8.741   2.322 -0.1667 -0.1921  1.2859
  673MOL0     C92796   5.473   8.647   2.270  0.1534 -0.0731  0.0534
  673MOL0     C92797   5.431   8.679   2.130 -1.0047  0.2080 -0.0347
  673MOL0     C92798   5.338   8.800   2.108  0.4134 -0.3040 -0.8750
  673MOL0     C92799   5.301   8.838   1.963 -0.8168  0.2396 -0.1425
  673MOL0     C92800   5.179   8.911   1.938  0.1789  0.2681  0.8344
  673MOL0     C92801   5.082   8.976   1.912 -0.7297  0.1547  0.6386
  673MOL0     C92802   5.720   8.690   2.488  0.4647  0.1735 -0.3510
  673MOL0     C92803   5.747   8.650   2.620  1.0981  0.6060 -0.1886
  673MOL0     C92804   5.898   8.643   2.660 -0.8402  0.7822  0.1578
  673MOL0     H92805   5.641   8.334   2.990  0.7217 -1.1273  0.7129
  673MOL0     H92806   5.638   8.229   3.222  0.9868  0.1528  1.1165
  673MOL0     H92807   5.497   8.509   3.590  0.2103  1.3214  2.2152
  673MOL0     H92808   5.672   8.536   3.560  1.3092 -2.6051  1.7041
  673MOL0     H92809   5.547   8.281   3.665 -1.0757  0.1150  0.3604
  673MOL0     H92810   5.711   8.307   3.675 -0.2236 -0.0263  0.0638
  673MOL0     H92811   5.684   8.513   3.801 -0.4086  0.6513 -0.4271
  673MOL0     H92812   5.511   8.480   3.824 -0.4056 -2.4213 -0.6288
  673MOL0     H92813   5.570   8.256   3.926  1.8206 -0.4673 -0.4038
  673MOL0     H92814   5.742   8.302   3.926  0.1245 -1.9162  0.4014
  673MOL0     H92815   5.523   8.472   4.067 -1.1090 -2.2841 -2.3268
  673MOL0     H92816   5.708   8.469   4.075  2.2704 -2.6755  1.1179
  673MOL0     H92817   5.647   8.379   4.275 -0.4757 -0.9179  1.5602
  673MOL0     H92818   5.513   8.274   4.217 -1.4890  2.6263 -2.4071
  673MOL0     H92819   5.791   8.219   4.142  0.7731 -1.4316  0.7403
  673MOL0     H92820   5.640   8.117   4.136 -0.2701 -1.9962  1.3788
  673MOL0     H92821   5.802   8.037   4.313  2.2280  1.3483  0.5582
  673MOL0     H92822   5.789   8.185   4.398 -3.9908  0.6156  0.5823
  673MOL0     H92823   5.548   7.905   4.282 -1.0788  1.7553 -0.2291
  673MOL0     H92824   5.290   7.873   4.351 -2.1740  1.0976 -0.5231
  673MOL0     H92825   5.222   7.959   4.481 -1.1135  0.7527 -3.9169
  673MOL0     H92826   5.390   7.799   4.641 -2.2815 -2.9742  2.0841
  673MOL0     H92827   5.235   7.750   4.600  1.4943  0.2979  1.2299
  673MOL0     H92828   5.469   7.672   4.403 -0.6202 -1.5677 -0.0777
  673MOL0     H92829   5.424   7.581   4.545 -1.2272  3.6093  5.0294
  673MOL0     H92830   5.335   7.484   4.339 -2.7479 -1.3656 -0.8364
  673MOL0     H92831   5.198   7.554   4.408 -0.1152 -1.4440 -2.0373
  673MOL0     H92832   5.189   7.802   4.041 -0.7546  0.5283 -0.0185
  673MOL0     H92833   5.217   7.903   3.800 -0.4333 -0.7381 -0.1876
  673MOL0     H92834   5.378   7.998   3.788 -0.9397  2.4687  1.4543
  673MOL0     H92835   5.264   8.023   3.909 -0.5970 -1.2523  0.6014
  673MOL0     H92836   5.701   7.663   3.549 -0.3120  0.5454  0.7094
  673MOL0     H92837   5.847   7.722   3.377 -1.5512 -2.4881  1.6390
  673MOL0     H92838   5.850   8.134   3.200  0.0261  2.0883  1.9141
  673MOL0     H92839   5.985   8.144   3.323  2.2439 -2.1768  0.5585
  673MOL0     H92840   6.140   8.054   3.181  1.0495 -1.1748 -1.0591
  673MOL0     H92841   6.013   7.981   3.077 -1.0609 -0.5482  1.4641
  673MOL0     H92842   6.003   8.276   3.082 -2.3926 -0.8598 -0.0184
  673MOL0     H92843   5.960   8.161   2.957 -1.1512  3.8411  0.4729
  673MOL0     H92844   6.207   8.111   2.951 -0.5599  0.0929 -0.8700
  673MOL0     H92845   6.235   8.247   3.055  1.3525  1.0281 -1.3736
  673MOL0     H92846   6.098   8.250   2.775  0.4948 -2.6731  1.2784
  673MOL0     H92847   6.098   8.395   2.864  2.3469  2.6216  0.7444
  673MOL0     H92848   6.266   8.379   2.690  0.3798 -0.0818 -0.1440
  673MOL0     H92849   6.348   8.247   2.783  1.6024  0.3910 -2.5154
  673MOL0     H92850   6.407   8.364   2.959 -0.2451 -2.2025 -2.4589
  673MOL0     H92851   6.288   8.488   2.951 -2.7663 -2.6546  0.5430
  673MOL0     H92852   6.542   8.483   2.799 -0.1419 -1.1495  0.3406
  673MOL0     H92853   6.481   8.606   2.918 -0.2254  2.5844 -2.2728
  673MOL0     H92854   5.749   8.138   3.425 -0.6005 -0.8315 -0.9374
  673MOL0     H92855   5.600   8.082   3.613 -1.0241 -3.2972  2.5192
  673MOL0     H92856   5.670   7.722   4.038 -0.2973  2.0938  1.4248
  673MOL0     H92857   5.534   7.602   4.189 -0.4011  0.4105 -0.1647
  673MOL0     H92858   5.542   8.621   3.388 -1.2822  1.7639 -1.0032
  673MOL0     H92859   5.527   8.707   3.140  1.1035  0.1430  0.0762
  673MOL0     H92860   5.427   8.652   2.736 -2.0205  3.3580 -2.1348
  673MOL0     H92861   5.386   8.716   2.518 -0.1443 -1.0628 -2.7584
  673MOL0     H92862   5.513   8.545   2.277  0.6952  0.1867  0.7798
  673MOL0     H92863   5.379   8.635   2.325  0.9051 -0.5148  1.2617
  673MOL0     H92864   5.405   8.588   2.076  5.5417 -0.6624 -2.6608
  673MOL0     H92865   5.520   8.714   2.075  0.0441  0.9818  2.0391
  673MOL0     H92866   5.253   8.771   2.170  1.1453 -0.9561 -0.1605
  673MOL0     H92867   5.379   8.887   2.161 -3.5748  1.8182 -0.8409
  673MOL0     H92868   5.276   8.743   1.915 -1.1283 -0.0670  0.6077
  673MOL0     H92869   5.390   8.876   1.911 -0.1721 -4.4140 -3.1044
  673MOL0     H92870   4.995   9.030   1.881  0.9239  1.0937 -2.9216
  673MOL0     H92871   5.796   8.692   2.410 -0.0947 -1.5460 -0.9867
  673MOL0     H92872   5.922   8.539   2.637  0.1255  0.8770  0.6595
  673MOL0     H92873   5.950   8.715   2.596 -1.4805  0.1317 -1.1201
  673MOL0     H92874   5.924   8.671   2.763  2.6358  1.4634 -0.7709
  674MOL0     O92875   7.312   6.512   9.519 -0.5068  0.2229 -0.2228
  674MOL0     C92876   7.416   6.514   9.451 -1.0244 -0.4052  0.0565
  674MOL0     O92877   7.538   6.510   9.511 -0.6886 -0.0932 -1.1390
  674MOL0     C92878   7.544   6.483   9.650  0.3354  0.4952 -0.3385
  674MOL0     C92879   7.595   6.580   9.733  0.9575 -0.9622  0.3934
  674MOL0     C92880   7.620   6.548   9.872  0.7604 -0.2257  0.1949
  674MOL0     C92881   7.592   6.420   9.926 -1.2817 -0.3483 -0.9245
  674MOL0     O92882   7.621   6.403  10.055 -0.2125  0.0050 -0.2252
  674MOL0     C92883   7.656   6.283  10.120  0.1271  1.3728  0.0541
  674MOL0     C92884   7.597   6.257  10.256  0.2132 -0.4984  0.1800
  674MOL0     C92885   7.456   6.322  10.289  0.2940  0.8950 -0.1362
  674MOL0     C92886   7.404   6.250  10.409 -1.3016 -0.3261  0.9488
  674MOL0     C92887   7.340   6.111  10.383  0.0680 -0.2863  0.8424
  674MOL0     C92888   7.234   6.064  10.483  0.5654 -0.6055 -0.3932
  674MOL0     C92889   7.204   5.920  10.451  0.7013 -0.4006 -0.8846
  674MOL0     C92890   7.113   5.863  10.560  0.5343  0.1364  0.5057
  674MOL0     N92891   6.995   5.946  10.563  1.1372 -0.3516 -0.2728
  674MOL0     C92892   6.956   6.057  10.640  0.0184 -0.4651 -0.0865
  674MOL0     C92893   6.834   6.080  10.602 -0.1894  0.2229  0.4094
  674MOL0     C92894   6.736   6.187  10.657 -0.3727 -0.3504 -0.7605
  674MOL0     C92895   6.764   6.233  10.809  0.1473 -0.2761 -0.0084
  674MOL0     C92896   6.746   6.108  10.896 -0.0191 -0.0586  0.5762
  674MOL0     C92897   6.791   6.129  11.044 -0.5841 -0.1735 -0.0309
  674MOL0     O92898   6.897   6.230  11.077  0.4717 -0.0143 -0.4536
  674MOL0     C92899   7.022   6.193  11.052 -0.7928  0.4266  0.2692
  674MOL0     C92900   7.083   6.099  11.127 -0.3758  0.3004 -0.3264
  674MOL0     C92901   7.219   6.072  11.105  0.1406  0.4084 -0.8462
  674MOL0     C92902   7.284   5.973  11.206  0.3714 -0.9850  0.1453
  674MOL0     C92903   7.287   6.141  11.002  0.4541 -0.5251 -1.1582
  674MOL0     C92904   7.436   6.134  10.972 -0.5712  0.2607 -0.2843
  674MOL0     O92905   7.484   6.200  10.865 -0.0634 -0.3060  0.1425
  674MOL0     C92906   7.598   6.153  10.802  0.2859  0.5920  1.2735
  674MOL0     C92907   7.729   6.178  10.836 -0.2202  0.7933 -0.1630
  674MOL0     C92908   7.833   6.163  10.744 -0.3485  0.3387  0.3538
  674MOL0     C92909   7.809   6.115  10.614  0.4324 -0.4603  0.4112
  674MOL0     O92910   7.904   6.095  10.520 -0.6956 -0.5875 -0.1096
  674MOL0     C92911   8.015   6.186  10.518  0.5873  0.7877 -0.7518
  674MOL0     C92912   8.108   6.151  10.395 -0.2130 -0.1639  0.7929
  674MOL0     C92913   8.240   6.244  10.404  0.8789  1.0376  0.7363
  674MOL0     C92914   8.336   6.212  10.288 -0.5995 -0.3596  0.2981
  674MOL0     C92915   8.484   6.220  10.306  0.0386 -0.5771  0.8737
  674MOL0     C92916   8.539   6.130  10.408  0.6606  0.4189 -0.5693
  674MOL0     C92917   8.494   5.982  10.398 -0.6939 -0.1311 -0.4386
  674MOL0     C92918   8.585   5.882  10.470 -0.1962  0.6233  0.2114
  674MOL0    Cl92919   8.609   5.929  10.642  0.2162  0.3374 -0.5416
  674MOL0     C92920   7.676   6.073  10.583  0.3530 -0.4099 -0.2486
  674MOL0     C92921   7.574   6.098  10.676  0.5945 -0.9654  0.5652
  674MOL0     O92922   7.509   6.054  11.040 -1.2332 -0.2579 -0.4847
  674MOL0     C92923   7.216   6.236  10.927  0.8388 -0.2428  0.8392
  674MOL0     C92924   7.087   6.265  10.961 -0.7432 -0.8295  0.0936
  674MOL0     N92925   6.794   6.000  10.502 -0.4251  0.1026  0.0933
  674MOL0     N92926   6.885   5.916  10.489 -0.8201  0.3132  0.1032
  674MOL0     C92927   7.531   6.327   9.840  0.0010  0.2397 -0.3422
  674MOL0     C92928   7.514   6.354   9.699 -0.1373 -0.8870  0.9349
  674MOL0     C92929   7.398   6.515   9.303  0.4757 -1.8410 -0.6754
  674MOL0     C92930   7.515   6.549   9.232  0.1725  0.7976 -0.1635
  674MOL0     C92931   7.524   6.536   9.093 -0.0099  0.6846  0.0594
  674MOL0     C92932   7.411   6.502   9.021  0.4916  0.7396  0.5961
  674MOL0     O92933   7.432   6.490   8.880  0.3666  0.5841  0.2040
  674MOL0     C92934   7.322   6.422   8.812 -0.6721 -0.0848  1.3425
  674MOL0     C92935   7.371   6.402   8.671 -1.1583 -0.2715  0.0145
  674MOL0     C92936   7.253   6.368   8.571 -0.6137  0.4161  0.3968
  674MOL0     C92937   7.311   6.327   8.437  0.2941  0.4339 -0.1315
  674MOL0     C92938   7.366   6.183   8.445  0.3548  0.0637  0.4383
  674MOL0     C92939   7.424   6.074   8.438  0.9144  1.6452  0.9195
  674MOL0     C92940   7.282   6.483   9.090 -0.4177  0.3145  0.4914
  674MOL0     C92941   7.280   6.489   9.227  0.5129  0.6347 -0.6126
  674MOL0     C92942   7.146   6.477   9.290 -0.3256  0.0334  0.1006
  674MOL0     H92943   7.609   6.681   9.694 -0.2781 -0.7336  0.5138
  674MOL0     H92944   7.663   6.627   9.932 -2.4251  1.9354 -0.1047
  674MOL0     H92945   7.760   6.266  10.148 -0.8493  0.3893  3.5054
  674MOL0     H92946   7.623   6.208  10.047  0.4388  1.3151 -0.0261
  674MOL0     H92947   7.602   6.149  10.268 -0.0109 -0.6330 -0.8262
  674MOL0     H92948   7.664   6.304  10.329 -2.5491  2.2777  1.1423
  674MOL0     H92949   7.476   6.426  10.317  1.7919  0.5330  0.2346
  674MOL0     H92950   7.382   6.318  10.209 -3.0247 -2.4958  2.7485
  674MOL0     H92951   7.493   6.236  10.471 -1.1386 -0.1634  0.7528
  674MOL0     H92952   7.330   6.314  10.459  0.0051  1.2293  0.9819
  674MOL0     H92953   7.417   6.037  10.361 -1.9695 -1.9957 -0.9932
  674MOL0     H92954   7.287   6.115  10.288 -2.6334  0.4418  2.2631
  674MOL0     H92955   7.285   6.059  10.580  0.0446 -0.5397 -0.1108
  674MOL0     H92956   7.157   6.140  10.491 -1.6591 -2.8407  0.7237
  674MOL0     H92957   7.300   5.867  10.444  1.3189  0.4936  0.4503
  674MOL0     H92958   7.160   5.923  10.351 -0.1408  1.8516 -0.4971
  674MOL0     H92959   7.095   5.762  10.521 -1.3256  0.8943 -0.7023
  674MOL0     H92960   7.160   5.853  10.658  0.7488  0.7230  0.4646
  674MOL0     H92961   7.005   6.113  10.719  0.1746 -0.9833  0.1937
  674MOL0     H92962   6.633   6.150  10.664 -1.3091  1.8974 -1.3268
  674MOL0     H92963   6.734   6.272  10.587  3.2209  0.1604 -0.4156
  674MOL0     H92964   6.865   6.274  10.814  1.8772 -3.8686 -1.6437
  674MOL0     H92965   6.688   6.306  10.839  0.9282  0.8358 -0.6482
  674MOL0     H92966   6.639   6.086  10.892 -0.1024  0.0373  1.8335
  674MOL0     H92967   6.804   6.021  10.867 -2.2448 -1.6319  0.5999
  674MOL0     H92968   6.706   6.177  11.093 -0.2495  0.3754  0.0271
  674MOL0     H92969   6.815   6.033  11.089 -0.9163 -0.3038 -0.1335
  674MOL0     H92970   7.030   6.050  11.208  0.5855 -1.6897 -0.8267
  674MOL0     H92971   7.368   5.910  11.175 -0.4329 -2.2340  0.4224
  674MOL0     H92972   7.209   5.904  11.245 -0.7278  0.7356  1.2105
  674MOL0     H92973   7.330   6.027  11.290  3.1045 -0.6504 -1.4385
  674MOL0     H92974   7.748   6.223  10.933 -2.5333 -0.6444  1.0489
  674MOL0     H92975   7.934   6.194  10.772  0.2259 -2.1393  1.3194
  674MOL0     H92976   7.986   6.290  10.534  1.3609  0.9891 -0.6027
  674MOL0     H92977   8.078   6.169  10.606  1.9131  3.2620 -1.1250
  674MOL0     H92978   8.136   6.047  10.412 -1.7867 -0.2920  3.0390
  674MOL0     H92979   8.048   6.159  10.303  0.6058  2.0302  0.3922
  674MOL0     H92980   8.286   6.228  10.503  0.1630 -0.7324  0.8173
  674MOL0     H92981   8.220   6.350  10.388  2.5771  1.0204 -1.9643
  674MOL0     H92982   8.307   6.278  10.205  0.8000 -1.3659 -1.0690
  674MOL0     H92983   8.301   6.128  10.227 -2.0038  1.5567 -1.6806
  674MOL0     H92984   8.526   6.183  10.211 -2.6681  1.5609 -1.3547
  674MOL0     H92985   8.522   6.321  10.323  0.3182 -0.6105  0.4759
  674MOL0     H92986   8.518   6.149  10.514 -0.5311 -1.2627 -0.4754
  674MOL0     H92987   8.648   6.124  10.401  0.7477 -1.3593  1.5815
  674MOL0     H92988   8.502   5.957  10.291  2.3400 -1.3221 -0.0499
  674MOL0     H92989   8.395   5.958  10.438 -0.4926 -0.9806 -0.4196
  674MOL0     H92990   8.676   5.857  10.416  2.0247  2.1135  2.9667
  674MOL0     H92991   8.533   5.785  10.469 -0.6475  0.7946  2.1422
  674MOL0     H92992   7.670   6.032  10.483  1.6017 -1.5807  0.1301
  674MOL0     H92993   7.473   6.076  10.642  2.0094 -0.3317 -5.0967
  674MOL0     H92994   7.262   6.291  10.846  2.7826 -4.7612 -1.4462
  674MOL0     H92995   7.040   6.349  10.910 -0.1359  0.4961  1.6258
  674MOL0     H92996   7.493   6.229   9.867  2.7263 -1.7158 -2.8898
  674MOL0     H92997   7.469   6.282   9.631 -2.1586  0.4569  0.7744
  674MOL0     H92998   7.602   6.577   9.289  3.8526 -1.2425 -4.1732
  674MOL0     H92999   7.621   6.529   9.045  0.4580  1.1848  0.8988
  674MOL0     H93000   7.304   6.330   8.868  0.5744 -0.4243  1.2159
  674MOL0     H93001   7.242   6.497   8.810  1.7680  2.9052  4.3103
  674MOL0     H93002   7.442   6.320   8.683 -0.4101  0.1729 -1.2339
  674MOL0     H93003   7.417   6.492   8.629  1.2563 -1.2425  0.4549
  674MOL0     H93004   7.189   6.297   8.624  0.9852  0.5550  2.6599
  674MOL0     H93005   7.186   6.454   8.558 -0.6212  0.7485  2.2496
  674MOL0     H93006   7.390   6.400   8.417  1.5796  0.9286  5.1469
  674MOL0     H93007   7.236   6.323   8.358  1.1003  0.8839 -0.9442
  674MOL0     H93008   7.479   5.982   8.439 -2.1466 -0.2988  1.6979
  674MOL0     H93009   7.203   6.459   9.019  1.4660  0.0246 -1.6287
  674MOL0     H93010   7.157   6.405   9.371  2.0465  1.6631  1.3591
  674MOL0     H93011   7.125   6.578   9.326 -0.0667  0.7547 -1.6791
  674MOL0     H93012   7.069   6.449   9.218  2.4973 -0.5565 -2.9571
  675MOL0     O93013   0.151   3.994   1.020 -0.1563 -0.2532 -0.0907
  675MOL0     C93014   0.140   4.113   1.046  0.6032  1.3556 -0.2335
  675MOL0     O93015   0.062   4.198   0.977 -0.0723 -0.3427 -0.7665
  675MOL0     C93016   0.003   4.149   0.865  0.3787 -0.2598 -0.1739
  675MOL0     C93017  -0.129   4.102   0.874  1.1435  0.9007  0.1974
  675MOL0     C93018  -0.197   4.052   0.752  0.3199  0.2817 -0.4481
  675MOL0     C93019  -0.123   4.044   0.633 -0.3988  0.7896 -0.3561
  675MOL0     O93020  -0.202   4.007   0.530  0.3221  0.4960 -0.4070
  675MOL0     C93021  -0.184   4.073   0.403 -0.3044 -0.2500 -0.3713
  675MOL0     C93022  -0.218   4.226   0.418 -0.3035  0.4107  0.1012
  675MOL0     C93023  -0.193   4.293   0.279 -0.3630  0.2781 -0.8518
  675MOL0     C93024  -0.196   4.443   0.279 -0.6495 -0.2507 -0.0985
  675MOL0     C93025  -0.186   4.501   0.140  0.4294 -0.2291  0.3816
  675MOL0     C93026  -0.040   4.492   0.089  0.2761  0.2997  0.0864
  675MOL0     C93027  -0.021   4.541  -0.063  0.4347 -0.1881  0.0617
  675MOL0     C93028  -0.150   4.571  -0.135 -0.4135  0.5195  0.8654
  675MOL0     N93029  -0.115   4.639  -0.262 -0.7064 -0.2499  0.3899
  675MOL0     C93030  -0.022   4.593  -0.355 -0.5342  0.2791 -0.1762
  675MOL0     C93031  -0.019   4.681  -0.458  1.0775 -0.2727  0.1966
  675MOL0     C93032   0.054   4.681  -0.589 -0.4572  0.0914  0.7964
  675MOL0     C93033  -0.056   4.664  -0.703  0.2023  0.6286 -0.7323
  675MOL0     C93034   0.008   4.682  -0.839 -0.4178  0.3029  0.7958
  675MOL0     C93035  -0.084   4.634  -0.959 -0.1685 -1.1651  0.4591
  675MOL0     O93036  -0.065   4.721  -1.066 -0.3420  0.7152  0.1768
  675MOL0     C93037   0.042   4.699  -1.146  0.5711 -0.7572  0.4190
  675MOL0     C93038   0.145   4.601  -1.129 -0.1393 -0.2611  1.7094
  675MOL0     C93039   0.262   4.600  -1.215  0.3519 -0.8457 -0.2508
  675MOL0     C93040   0.368   4.497  -1.182  0.0613 -0.5024 -0.9591
  675MOL0     C93041   0.271   4.703  -1.318  0.2707  0.1446  1.0562
  675MOL0     C93042   0.392   4.729  -1.398 -0.0952  1.5846  0.2370
  675MOL0     O93043   0.379   4.845  -1.471  0.0958 -0.2776 -0.4101
  675MOL0     C93044   0.462   4.851  -1.572  0.4084  0.3200 -0.0565
  675MOL0     C93045   0.468   4.764  -1.682 -0.7327  0.8479  0.8515
  675MOL0     C93046   0.555   4.786  -1.788  0.7844  0.4967  0.0546
  675MOL0     C93047   0.651   4.888  -1.778 -0.6443 -0.6639  0.0086
  675MOL0     O93048   0.741   4.910  -1.884 -0.3450  0.1645 -0.5790
  675MOL0     C93049   0.837   5.018  -1.877  0.0091 -0.3906 -1.4589
  675MOL0     C93050   0.939   4.987  -1.986 -0.3182  0.0865  0.9688
  675MOL0     C93051   0.884   5.014  -2.136 -0.7007 -0.5568 -0.7163
  675MOL0     C93052   0.982   4.987  -2.256 -0.7024  1.2183 -0.2857
  675MOL0     C93053   0.928   5.044  -2.393  0.7022 -0.2600  0.4962
  675MOL0     C93054   1.010   4.999  -2.507 -0.2473  0.6659  0.2135
  675MOL0     C93055   1.151   5.060  -2.490  0.4177  0.1118 -0.5015
  675MOL0     C93056   1.214   5.068  -2.631 -0.7164 -0.7593  0.2028
  675MOL0    Cl93057   1.394   5.094  -2.609 -0.7221  0.5248  0.0549
  675MOL0     C93058   0.643   4.973  -1.670 -0.2012 -0.2475  0.6629
  675MOL0     C93059   0.552   4.952  -1.566 -0.3483  0.3203  0.0832
  675MOL0     O93060   0.486   4.653  -1.390 -0.1802 -0.6881 -0.3858
  675MOL0     C93061   0.158   4.792  -1.346 -0.0337  0.0810 -0.0863
  675MOL0     C93062   0.050   4.790  -1.251 -1.0647 -0.1422  0.1517
  675MOL0     N93063  -0.116   4.783  -0.428 -0.4350  0.3465  0.5068
  675MOL0     N93064  -0.159   4.767  -0.308 -0.2181  0.4288 -1.1100
  675MOL0     C93065   0.010   4.098   0.619 -0.0542  0.0460 -0.1245
  675MOL0     C93066   0.076   4.138   0.741 -0.2374  0.4488 -0.4689
  675MOL0     C93067   0.202   4.164   1.169  0.7639 -0.1982 -0.0036
  675MOL0     C93068   0.238   4.294   1.167 -0.5363  1.1871  0.8321
  675MOL0     C93069   0.306   4.350   1.273  0.3034  0.3684 -0.7649
  675MOL0     C93070   0.333   4.272   1.384  0.4431 -0.6795 -0.3967
  675MOL0     O93071   0.381   4.325   1.505 -0.5071  0.0089 -0.0023
  675MOL0     C93072   0.390   4.463   1.534  0.4477 -0.1063 -0.3413
  675MOL0     C93073   0.419   4.479   1.685 -0.7614  0.8309  0.0082
  675MOL0     C93074   0.563   4.416   1.725  0.1066 -0.2548  0.5978
  675MOL0     C93075   0.587   4.422   1.875  0.3455 -1.1315 -0.2481
  675MOL0     C93076   0.625   4.286   1.925 -0.3788 -0.5883  0.2691
  675MOL0     C93077   0.669   4.201   1.988  0.5689 -0.0316 -1.1296
  675MOL0     C93078   0.284   4.144   1.395 -0.3936 -0.5245  1.2432
  675MOL0     C93079   0.210   4.096   1.294  0.4466  0.7530  0.0348
  675MOL0     C93080   0.164   3.955   1.314  0.1878  0.4294 -0.2569
  675MOL0     H93081  -0.184   4.088   0.967  0.8503 -2.0672 -0.3271
  675MOL0     H93082  -0.302   4.026   0.752  0.1278  0.8042 -3.0514
  675MOL0     H93083  -0.258   4.038   0.330 -2.6385  1.2511  1.1363
  675MOL0     H93084  -0.085   4.064   0.358  0.3002 -2.4252  1.1964
  675MOL0     H93085  -0.319   4.246   0.456 -0.5084 -1.1427  0.4453
  675MOL0     H93086  -0.152   4.270   0.493  1.1482 -3.5441  1.4050
  675MOL0     H93087  -0.093   4.264   0.244  0.5394  0.9676  1.0528
  675MOL0     H93088  -0.265   4.246   0.211  0.7631 -0.1692 -1.7829
  675MOL0     H93089  -0.283   4.483   0.332 -0.9224 -1.0266  0.0502
  675MOL0     H93090  -0.114   4.485   0.339 -0.6108  3.8476 -2.6196
  675MOL0     H93091  -0.219   4.606   0.141 -2.9963 -1.2023  0.4916
  675MOL0     H93092  -0.253   4.448   0.072  1.2256 -1.9900  0.9344
  675MOL0     H93093   0.020   4.550   0.160 -0.5434 -1.9444  2.8065
  675MOL0     H93094  -0.004   4.389   0.096 -0.5857 -0.1019 -1.1144
  675MOL0     H93095   0.038   4.462  -0.110  0.4696  1.1235 -2.2188
  675MOL0     H93096   0.042   4.629  -0.067  1.8048 -1.0613  1.3047
  675MOL0     H93097  -0.196   4.476  -0.165 -2.1164  2.0363 -1.6824
  675MOL0     H93098  -0.209   4.638  -0.072 -1.3865 -1.9556  2.7573
  675MOL0     H93099   0.031   4.499  -0.343 -0.4252  0.3460 -0.1317
  675MOL0     H93100   0.138   4.611  -0.585  1.4912  2.3008  0.6111
  675MOL0     H93101   0.093   4.782  -0.607  0.5241  0.0979  2.7652
  675MOL0     H93102  -0.097   4.564  -0.683  0.4751  0.6438 -0.0549
  675MOL0     H93103  -0.139   4.735  -0.694 -2.4845 -2.3364 -0.0842
  675MOL0     H93104   0.050   4.783  -0.850  0.4968 -0.1955 -0.5477
  675MOL0     H93105   0.093   4.614  -0.850 -2.0139 -2.3311  3.4803
  675MOL0     H93106  -0.066   4.527  -0.974  3.3600 -1.1749  3.4564
  675MOL0     H93107  -0.185   4.651  -0.921  0.4971 -3.0956  3.4265
  675MOL0     H93108   0.146   4.526  -1.050  1.4608  1.0625  2.9926
  675MOL0     H93109   0.457   4.556  -1.161 -1.4197  2.0075 -1.4168
  675MOL0     H93110   0.397   4.442  -1.272  2.0665  0.7632 -1.1351
  675MOL0     H93111   0.346   4.426  -1.101  3.4882  0.3074  0.8667
  675MOL0     H93112   0.407   4.677  -1.702 -0.0599  1.2569 -4.2123
  675MOL0     H93113   0.554   4.731  -1.882 -4.5893  1.5234 -0.7923
  675MOL0     H93114   0.796   5.119  -1.886  1.0108  0.0198 -1.5703
  675MOL0     H93115   0.887   5.011  -1.781  3.7355  0.4556 -3.1618
  675MOL0     H93116   1.032   5.044  -1.979 -0.6930  1.5334 -3.0022
  675MOL0     H93117   0.975   4.884  -1.986  0.8340  0.1086 -4.8445
  675MOL0     H93118   0.849   5.117  -2.137  2.8680  0.8785  1.8145
  675MOL0     H93119   0.804   4.939  -2.147 -2.3305  0.4684  2.6663
  675MOL0     H93120   1.008   4.881  -2.251  0.2217  1.4840  1.9280
  675MOL0     H93121   1.069   5.043  -2.219 -1.4228  2.1446  0.0399
  675MOL0     H93122   0.830   4.997  -2.407  0.6035 -0.2399  1.0959
  675MOL0     H93123   0.914   5.153  -2.392  0.3114 -0.1575 -3.1086
  675MOL0     H93124   0.965   5.041  -2.598  3.1274 -0.8439 -2.4034
  675MOL0     H93125   1.030   4.892  -2.504 -2.7748  0.1629  2.1792
  675MOL0     H93126   1.212   4.996  -2.425 -2.3135  1.6078  4.0106
  675MOL0     H93127   1.165   5.150  -2.430  2.3446  0.2736 -1.1500
  675MOL0     H93128   1.174   5.154  -2.684  0.5400  0.4352  1.1243
  675MOL0     H93129   1.205   4.976  -2.690  2.0896  1.3829 -3.9799
  675MOL0     H93130   0.721   5.045  -1.648 -0.2024  1.0471 -2.8688
  675MOL0     H93131   0.538   5.024  -1.486 -2.6042  0.2024 -0.1416
  675MOL0     H93132   0.149   4.869  -1.422 -3.1694  0.4026  0.4549
  675MOL0     H93133  -0.022   4.871  -1.259 -1.1787 -0.1757  0.8241
  675MOL0     H93134   0.072   4.082   0.531 -3.2489 -2.9561 -2.0910
  675MOL0     H93135   0.176   4.180   0.734 -0.8315  1.6533 -2.6901
  675MOL0     H93136   0.234   4.354   1.077 -0.7337 -1.6099 -1.1692
  675MOL0     H93137   0.345   4.452   1.266 -1.0625  1.1065  1.4598
  675MOL0     H93138   0.455   4.524   1.471 -1.3275  0.3392 -1.8098
  675MOL0     H93139   0.289   4.499   1.513 -0.4224 -0.4447  2.6692
  675MOL0     H93140   0.347   4.432   1.753 -3.6489 -0.2407 -3.4316
  675MOL0     H93141   0.426   4.587   1.699  3.5374  1.0039 -1.8512
  675MOL0     H93142   0.568   4.311   1.693  0.1640  0.3408 -1.4582
  675MOL0     H93143   0.638   4.470   1.667  1.6749 -3.8221 -1.0004
  675MOL0     H93144   0.504   4.471   1.927  0.0467 -1.3810 -0.4809
  675MOL0     H93145   0.667   4.492   1.898 -1.2561  0.7176  0.0065
  675MOL0     H93146   0.710   4.125   2.052  0.2207  0.0995 -0.7439
  675MOL0     H93147   0.320   4.083   1.477 -0.1964 -2.4629 -0.2190
  675MOL0     H93148   0.063   3.936   1.275  1.4604 -0.7621 -3.2299
  675MOL0     H93149   0.233   3.885   1.266 -0.2314  0.2789 -0.6530
  675MOL0     H93150   0.160   3.937   1.422 -1.6071  0.2661 -0.3100
  676MOL0     O93151   9.164   1.233   1.555  0.2909  0.3539 -0.3743
  676MOL0     C93152   9.073   1.311   1.525  0.3066 -1.0257 -1.5169
  676MOL0     O93153   9.089   1.433   1.481  0.0618  0.2590  0.8926
  676MOL0     C93154   9.215   1.480   1.478  0.1528  0.0542 -0.0578
  676MOL0     C93155   9.265   1.579   1.557 -0.7741  0.8222 -0.1463
  676MOL0     C93156   9.399   1.622   1.531 -0.4605 -0.6389  0.8809
  676MOL0     C93157   9.466   1.580   1.418 -0.8311 -0.2979  0.9736
  676MOL0     O93158   9.592   1.632   1.389  0.2901 -0.3128 -0.6341
  676MOL0     C93159   9.699   1.596   1.481 -0.3413  0.1969  0.8752
  676MOL0     C93160   9.830   1.582   1.390 -0.5479 -0.5053 -0.5940
  676MOL0     C93161   9.889   1.718   1.356  0.0727  0.2164  0.2952
  676MOL0     C93162   9.953   1.716   1.214 -0.2647  0.0431 -0.1572
  676MOL0     C93163  10.099   1.747   1.213 -0.0332 -0.6321 -0.3608
  676MOL0     C93164  10.171   1.708   1.081 -0.5558 -0.5079 -0.5106
  676MOL0     C93165  10.223   1.567   1.087 -0.5964  0.2511  0.7539
  676MOL0     C93166  10.244   1.520   0.948  0.3817  0.2656  0.0266
  676MOL0     N93167  10.308   1.603   0.843 -0.1500  0.0213 -0.4359
  676MOL0     C93168  10.249   1.695   0.775  0.4925 -0.7738 -0.5550
  676MOL0     C93169  10.343   1.758   0.704 -0.0018  0.3224 -0.4572
  676MOL0     C93170  10.318   1.890   0.634  0.2733  0.0350  1.0831
  676MOL0     C93171  10.442   1.968   0.591  1.0383 -0.7340  0.5278
  676MOL0     C93172  10.422   2.106   0.533  0.5632  0.0140  0.6279
  676MOL0     C93173  10.560   2.176   0.499 -0.6761  1.0295  0.6503
  676MOL0     O93174  10.617   2.120   0.382 -0.1901  0.7389  0.2430
  676MOL0     C93175  10.737   2.166   0.353  0.4535  0.8274  1.2308
  676MOL0     C93176  10.785   2.116   0.223 -0.8836 -0.7722 -0.5018
  676MOL0     C93177  10.909   2.159   0.172 -0.1743 -0.5175 -0.6343
  676MOL0     C93178  10.949   2.075   0.043  0.5352 -0.4005  0.8404
  676MOL0     C93179  10.992   2.246   0.251  0.1112 -0.8483 -0.1622
  676MOL0     C93180  11.124   2.308   0.206  0.3300  0.6824  0.2022
  676MOL0     O93181  11.190   2.384   0.296 -0.0115  0.4698  0.4895
  676MOL0     C93182  11.295   2.446   0.249 -0.2370 -0.3547  0.1897
  676MOL0     C93183  11.288   2.516   0.126 -0.6239 -0.3667 -0.1094
  676MOL0     C93184  11.405   2.577   0.084 -0.5087  0.4820 -0.4161
  676MOL0     C93185  11.520   2.590   0.176  0.0173  0.0268 -0.5618
  676MOL0     O93186  11.629   2.666   0.137  0.4059 -0.3426  0.3275
  676MOL0     C93187  11.627   2.735   0.006 -0.5883  0.7714 -0.3863
  676MOL0     C93188  11.748   2.825  -0.006  0.5919  0.7332  0.7233
  676MOL0     C93189  11.753   2.905  -0.134  0.9070 -0.2921 -0.4871
  676MOL0     C93190  11.882   2.971  -0.160 -0.0110 -1.4874 -0.4718
  676MOL0     C93191  11.864   3.101  -0.241  0.0110 -0.1729 -0.9148
  676MOL0     C93192  11.994   3.158  -0.317 -0.3700  0.2681  0.6257
  676MOL0     C93193  11.948   3.269  -0.413  0.7155 -0.4782  0.7471
  676MOL0     C93194  12.059   3.336  -0.501 -0.5093  1.2166  0.2076
  676MOL0    Cl93195  12.167   3.218  -0.585  0.2930 -0.4461  0.0899
  676MOL0     C93196  11.506   2.540   0.306 -0.4966  0.7034  0.2166
  676MOL0     C93197  11.398   2.458   0.340 -0.3506 -0.6896  0.0830
  676MOL0     O93198  11.177   2.255   0.107  0.1438  0.1963  0.7694
  676MOL0     C93199  10.939   2.302   0.374  0.2017  0.6708 -0.2845
  676MOL0     C93200  10.819   2.243   0.431 -0.1796  0.9330  0.3359
  676MOL0     N93201  10.457   1.710   0.745 -0.4922  0.7497  0.0675
  676MOL0     N93202  10.445   1.620   0.837  0.0984  0.5889  0.2336
  676MOL0     C93203   9.408   1.496   1.332 -0.6901 -0.3041 -0.0513
  676MOL0     C93204   9.281   1.449   1.360 -0.4616 -0.5867  0.2337
  676MOL0     C93205   8.937   1.278   1.560  1.9882 -0.0727 -0.5001
  676MOL0     C93206   8.843   1.270   1.454  0.0807  0.3006 -0.8249
  676MOL0     C93207   8.705   1.249   1.475 -0.7432  1.0355  0.9041
  676MOL0     C93208   8.654   1.220   1.599 -0.6799  0.2189  0.5342
  676MOL0     O93209   8.520   1.183   1.600 -0.5781  0.3332 -0.3108
  676MOL0     C93210   8.453   1.144   1.714  0.6252  0.9250 -0.4963
  676MOL0     C93211   8.308   1.149   1.675 -0.7738  0.6389  0.7212
  676MOL0     C93212   8.222   1.068   1.765 -0.1354  0.3289  0.3766
  676MOL0     C93213   8.064   1.079   1.742 -0.2096  0.3763  0.2195
  676MOL0     C93214   8.010   1.035   1.614  0.1867  0.9697 -1.3322
  676MOL0     C93215   7.947   1.000   1.520  0.4306 -0.5510  0.1096
  676MOL0     C93216   8.750   1.211   1.707 -0.2979 -0.9131 -0.0798
  676MOL0     C93217   8.884   1.248   1.692 -0.4114 -0.7773  0.3748
  676MOL0     C93218   8.966   1.247   1.819 -0.1544 -0.0843 -0.0629
  676MOL0     H93219   9.204   1.624   1.634 -1.1049  0.9267 -0.4668
  676MOL0     H93220   9.435   1.705   1.593 -2.0895 -0.4735  1.6501
  676MOL0     H93221   9.679   1.492   1.512 -2.3907 -0.1167 -1.2020
  676MOL0     H93222   9.711   1.672   1.559  3.4397 -0.1473  0.8259
  676MOL0     H93223   9.902   1.519   1.443 -0.6102 -0.3157 -0.2793
  676MOL0     H93224   9.791   1.532   1.302 -3.6764  0.5339  0.0726
  676MOL0     H93225   9.808   1.792   1.358  0.3610  0.5523 -0.4587
  676MOL0     H93226   9.958   1.744   1.437  2.0622 -1.1927 -0.8472
  676MOL0     H93227   9.933   1.626   1.154  1.1840  0.3258 -1.1381
  676MOL0     H93228   9.908   1.806   1.172 -1.1393  1.2078  3.0074
  676MOL0     H93229  10.158   1.707   1.295  3.1828 -0.2455 -2.2853
  676MOL0     H93230  10.113   1.856   1.223 -0.7153 -0.4456 -1.3344
  676MOL0     H93231  10.103   1.741   1.002  1.4802  0.0006 -2.1409
  676MOL0     H93232  10.263   1.766   1.079 -0.1263 -1.0370  1.3794
  676MOL0     H93233  10.166   1.498   1.149 -0.1232 -0.1408  0.7590
  676MOL0     H93234  10.313   1.590   1.145 -1.0646  3.0412  0.5450
  676MOL0     H93235  10.314   1.437   0.960 -0.5287 -0.7626 -1.4596
  676MOL0     H93236  10.151   1.471   0.918 -1.3064  2.0474  2.0072
  676MOL0     H93237  10.142   1.708   0.770  0.5686  1.8313  1.8214
  676MOL0     H93238  10.259   1.957   0.697 -0.9177  0.0744 -0.0204
  676MOL0     H93239  10.262   1.866   0.543  1.4209  0.7590  0.1685
  676MOL0     H93240  10.497   1.966   0.686  0.6144 -2.0828  0.7699
  676MOL0     H93241  10.495   1.906   0.519  0.1648  0.5406 -1.2749
  676MOL0     H93242  10.361   2.099   0.443  0.2221 -0.9230  0.9126
  676MOL0     H93243  10.378   2.180   0.600  0.8074  1.3287 -0.6378
  676MOL0     H93244  10.533   2.279   0.474  2.9751  1.9874  0.1008
  676MOL0     H93245  10.617   2.169   0.592 -2.9518 -1.7785  2.0391
  676MOL0     H93246  10.724   2.040   0.174 -2.1620  2.0183 -3.6669
  676MOL0     H93247  10.915   2.125  -0.049 -3.4753 -1.3422  1.6220
  676MOL0     H93248  10.890   1.983   0.047 -0.1693  0.0292  0.5605
  676MOL0     H93249  11.055   2.051   0.040  0.3084 -1.7926 -3.2425
  676MOL0     H93250  11.210   2.532   0.052  0.5255 -1.0229 -1.4940
  676MOL0     H93251  11.392   2.633  -0.009 -1.0943  2.4521  0.7912
  676MOL0     H93252  11.622   2.654  -0.066 -0.6343 -0.0864  0.5573
  676MOL0     H93253  11.538   2.796  -0.013 -1.8873 -1.6605 -2.5714
  676MOL0     H93254  11.742   2.891   0.082  4.9026  1.2160  0.8731
  676MOL0     H93255  11.843   2.771  -0.002  0.3671  0.3672  1.4972
  676MOL0     H93256  11.667   2.971  -0.131 -0.0161 -1.4952  0.6030
  676MOL0     H93257  11.739   2.836  -0.217 -1.6103  0.4769 -0.7652
  676MOL0     H93258  11.960   2.916  -0.213  0.8608  0.6772 -1.5559
  676MOL0     H93259  11.921   2.997  -0.061  1.9353  1.7602 -1.9419
  676MOL0     H93260  11.790   3.066  -0.314  1.6477 -4.9219 -0.6639
  676MOL0     H93261  11.821   3.179  -0.177  0.1079 -1.5931  0.9598
  676MOL0     H93262  12.046   3.090  -0.385  0.7181  2.1761 -0.5111
  676MOL0     H93263  12.070   3.193  -0.247 -0.7969  0.2219  1.1238
  676MOL0     H93264  11.894   3.348  -0.360  0.6570  1.5111 -2.0788
  676MOL0     H93265  11.874   3.235  -0.486 -0.8128  2.4165  0.8016
  676MOL0     H93266  12.129   3.398  -0.445 -0.2358  2.9374 -1.9020
  676MOL0     H93267  12.002   3.408  -0.560 -1.3680  0.4880  0.1134
  676MOL0     H93268  11.590   2.550   0.373 -2.0383 -0.0284  2.3508
  676MOL0     H93269  11.375   2.408   0.433  2.6797  3.0800  3.2552
  676MOL0     H93270  11.000   2.380   0.418 -0.9827  2.2518 -1.3234
  676MOL0     H93271  10.780   2.273   0.528  0.2998 -1.4062  1.3262
  676MOL0     H93272   9.461   1.480   1.239 -0.5000  0.9583 -0.1724
  676MOL0     H93273   9.235   1.391   1.281  1.0022  0.8567 -1.7832
  676MOL0     H93274   8.887   1.298   1.359  1.7917  1.9138  0.3736
  676MOL0     H93275   8.652   1.242   1.380  1.4481 -1.0402 -0.2354
  676MOL0     H93276   8.483   1.040   1.730 -0.7629  0.5582 -0.1707
  676MOL0     H93277   8.466   1.209   1.800  0.1486  0.3972 -0.0228
  676MOL0     H93278   8.304   1.101   1.576  0.0138  0.6436  0.6797
  676MOL0     H93279   8.268   1.250   1.677 -0.3198  0.8083  2.1724
  676MOL0     H93280   8.241   0.961   1.755 -4.0981 -0.6359  1.5006
  676MOL0     H93281   8.240   1.097   1.868 -0.9195 -1.2792  0.9974
  676MOL0     H93282   8.040   1.183   1.764  1.5246  0.4900  1.8539
  676MOL0     H93283   8.018   1.010   1.813  1.5353 -1.3302 -0.2139
  676MOL0     H93284   7.885   0.977   1.435  0.5710  0.0853 -0.1720
  676MOL0     H93285   8.718   1.164   1.800 -1.3063 -1.4216 -0.6644
  676MOL0     H93286   9.059   1.301   1.799 -0.6733  1.3244  1.0759
  676MOL0     H93287   8.915   1.283   1.909 -0.5411  0.0329 -0.3289
  676MOL0     H93288   9.001   1.145   1.832 -0.5114 -0.4881 -1.9752
  677MOL0     O93289   2.174   2.859   0.606  0.1973 -0.3155  0.0682
  677MOL0     C93290   2.232   2.787   0.690  0.2096 -0.0973  0.1618
  677MOL0     O93291   2.172   2.675   0.751 -0.4657  0.6370 -0.9099
  677MOL0     C93292   2.047   2.645   0.702  0.3343  0.9399  0.2776
  677MOL0     C93293   2.033   2.538   0.614  0.0503 -0.9668  0.2302
  677MOL0     C93294   1.913   2.514   0.553 -0.8530  0.2033 -0.4504
  677MOL0     C93295   1.797   2.580   0.593  0.3936  0.9524  0.3813
  677MOL0     O93296   1.684   2.568   0.507 -0.4040 -0.9628  0.6780
  677MOL0     C93297   1.570   2.641   0.528 -0.8024  0.0640 -0.0578
  677MOL0     C93298   1.476   2.578   0.429  0.4711  0.5332  0.7970
  677MOL0     C93299   1.341   2.586   0.495  0.0151  1.6470 -0.1654
  677MOL0     C93300   1.290   2.720   0.526 -0.0302  0.0947 -0.5336
  677MOL0     C93301   1.174   2.703   0.626  0.3680 -0.1375  0.3065
  677MOL0     C93302   1.116   2.835   0.681 -0.2639  0.8724 -0.5429
  677MOL0     C93303   1.028   2.916   0.594  0.0900  0.4533 -0.9482
  677MOL0     C93304   1.017   3.067   0.636 -0.5069 -0.4170  0.2963
  677MOL0     N93305   0.876   3.110   0.624  0.4931 -1.1505  0.4338
  677MOL0     C93306   0.813   3.146   0.511  0.0620 -0.2915 -0.4774
  677MOL0     C93307   0.710   3.215   0.560  0.7173  0.5768 -0.3219
  677MOL0     C93308   0.596   3.301   0.498 -0.8326  1.5638 -0.1872
  677MOL0     C93309   0.626   3.453   0.508  0.6018  0.3713  0.3015
  677MOL0     C93310   0.745   3.507   0.426  0.0711  0.7743 -0.0179
  677MOL0     C93311   0.784   3.652   0.459 -0.4951  0.1726  0.0734
  677MOL0     O93312   0.672   3.751   0.452  0.3706 -0.0052  0.1245
  677MOL0     C93313   0.711   3.883   0.454 -0.1605 -0.0768 -0.0091
  677MOL0     C93314   0.664   3.974   0.354 -1.0387  0.4602  0.6031
  677MOL0     C93315   0.696   4.114   0.369  0.2825  0.2142 -0.2011
  677MOL0     C93316   0.639   4.207   0.270 -0.0514  0.1056  0.1014
  677MOL0     C93317   0.764   4.168   0.485 -0.1793 -0.7271  0.3271
  677MOL0     C93318   0.821   4.308   0.497  0.2056  0.0621 -0.8834
  677MOL0     O93319   0.857   4.339   0.626 -0.6691 -0.1798  0.0133
  677MOL0     C93320   0.927   4.453   0.676  0.6032  0.0269  0.4051
  677MOL0     C93321   0.976   4.564   0.606 -0.5268  1.1382  1.0078
  677MOL0     C93322   1.027   4.674   0.674  0.2606 -0.5455  0.5978
  677MOL0     C93323   1.029   4.680   0.815 -0.1237 -0.0023 -0.1265
  677MOL0     O93324   1.084   4.780   0.896  0.8053  0.3133 -0.6454
  677MOL0     C93325   1.128   4.896   0.818 -0.9215 -0.7784  0.4301
  677MOL0     C93326   1.168   5.003   0.919  0.2824 -0.8341  0.9746
  677MOL0     C93327   1.139   5.155   0.884  0.3226 -0.7798  0.3370
  677MOL0     C93328   1.243   5.225   0.798  0.1396 -0.3771 -0.4710
  677MOL0     C93329   1.191   5.357   0.753  0.7059 -0.0040 -0.5104
  677MOL0     C93330   1.288   5.424   0.648 -0.4048  0.6934 -0.1685
  677MOL0     C93331   1.261   5.364   0.515 -1.1592  0.0828  0.4200
  677MOL0     C93332   1.325   5.446   0.400  0.1210 -0.2245  0.2722
  677MOL0    Cl93333   1.268   5.389   0.239  0.4500  0.2085  0.1581
  677MOL0     C93334   0.991   4.563   0.884 -0.7454 -0.9464 -0.9185
  677MOL0     C93335   0.937   4.455   0.813 -0.4887  0.3858 -0.2173
  677MOL0     O93336   0.847   4.368   0.398  0.1750  0.8697 -0.9696
  677MOL0     C93337   0.795   4.072   0.578 -0.1170 -0.7697 -0.2826
  677MOL0     C93338   0.772   3.933   0.567 -0.6935  0.6793  1.0666
  677MOL0     N93339   0.706   3.197   0.696  0.0927 -0.1195  0.1849
  677MOL0     N93340   0.808   3.143   0.737  0.1626  0.2193  0.5331
  677MOL0     C93341   1.802   2.674   0.703  0.5563  0.5120  0.0181
  677MOL0     C93342   1.926   2.701   0.750  0.2019  0.0012 -0.4917
  677MOL0     C93343   2.369   2.832   0.734 -1.4616 -0.4646  0.0350
  677MOL0     C93344   2.431   2.943   0.657 -0.5332  0.3702  0.5592
  677MOL0     C93345   2.559   2.987   0.684  0.3215  0.4468  0.7964
  677MOL0     C93346   2.632   2.935   0.791  0.8240  0.6184 -1.0894
  677MOL0     O93347   2.750   3.004   0.815  0.2513  0.0631 -0.5836
  677MOL0     C93348   2.824   2.963   0.935 -0.1081  0.6254  0.6844
  677MOL0     C93349   2.957   3.032   0.898 -0.1752 -0.7957  0.0615
  677MOL0     C93350   3.063   3.022   1.011  0.7638  0.8284  0.0164
  677MOL0     C93351   3.174   3.122   0.979 -1.2221 -0.6532 -0.6960
  677MOL0     C93352   3.233   3.107   0.847  0.1685 -0.0881 -0.1247
  677MOL0     C93353   3.273   3.107   0.733  0.3324 -0.0262 -0.1647
  677MOL0     C93354   2.572   2.834   0.872  0.3560 -0.0995  0.1242
  677MOL0     C93355   2.444   2.780   0.846 -0.5634  0.3039 -0.0904
  677MOL0     C93356   2.404   2.661   0.927 -0.0354  0.1467 -0.8144
  677MOL0     H93357   2.119   2.484   0.576  1.2080  2.8279 -3.3848
  677MOL0     H93358   1.901   2.437   0.477 -2.5552 -0.5802  0.5615
  677MOL0     H93359   1.578   2.748   0.510 -2.2679 -0.3326 -4.1845
  677MOL0     H93360   1.535   2.615   0.629 -0.2620  1.7798  0.6015
  677MOL0     H93361   1.486   2.628   0.332 -1.6264  0.9393  0.7385
  677MOL0     H93362   1.500   2.478   0.394  0.6443  1.2034 -1.1324
  677MOL0     H93363   1.269   2.533   0.433  2.1059 -1.8465  0.1333
  677MOL0     H93364   1.348   2.526   0.586 -0.1133  1.0095 -0.5713
  677MOL0     H93365   1.366   2.789   0.564 -0.2040  0.4012 -0.7392
  677MOL0     H93366   1.255   2.760   0.430 -0.5326 -4.2173 -2.3489
  677MOL0     H93367   1.207   2.644   0.712 -2.9218 -2.5699  0.0801
  677MOL0     H93368   1.097   2.651   0.568  0.2882 -2.0267  2.0008
  677MOL0     H93369   1.079   2.806   0.779 -0.6288 -0.1877 -0.9755
  677MOL0     H93370   1.199   2.900   0.712 -0.3387  2.0709 -2.6332
  677MOL0     H93371   0.933   2.864   0.600 -0.2303  1.1673  0.6733
  677MOL0     H93372   1.069   2.910   0.493  4.4730 -2.3608  0.7178
  677MOL0     H93373   1.034   3.085   0.742 -2.3253  1.2462  0.3558
  677MOL0     H93374   1.066   3.136   0.567 -1.7515 -0.7309 -0.9565
  677MOL0     H93375   0.837   3.119   0.409 -2.7016 -0.4764 -1.1410
  677MOL0     H93376   0.500   3.267   0.539 -1.6335  2.7390 -1.0097
  677MOL0     H93377   0.613   3.271   0.395  0.4342  0.7959  0.2233
  677MOL0     H93378   0.529   3.493   0.477  0.8118  0.0206 -0.8486
  677MOL0     H93379   0.633   3.476   0.614 -1.0372  0.5836  0.3915
  677MOL0     H93380   0.824   3.444   0.467 -1.6283 -0.1392  2.0054
  677MOL0     H93381   0.736   3.494   0.318  3.3298  0.1607 -0.3404
  677MOL0     H93382   0.819   3.654   0.563  1.5452  1.5753 -0.5759
  677MOL0     H93383   0.868   3.678   0.395  2.1620  0.9515  3.5649
  677MOL0     H93384   0.596   3.951   0.273  1.6003 -1.9143 -1.1586
  677MOL0     H93385   0.713   4.229   0.194  0.2092  1.2449  0.6577
  677MOL0     H93386   0.606   4.296   0.325  1.3391  1.1356 -0.6682
  677MOL0     H93387   0.547   4.169   0.224  0.5571  0.6233 -1.5908
  677MOL0     H93388   0.967   4.577   0.498  1.2379 -1.8316  0.3615
  677MOL0     H93389   1.074   4.755   0.619  0.9876 -2.8842 -2.5370
  677MOL0     H93390   1.218   4.865   0.764  0.2437 -3.6631  3.6499
  677MOL0     H93391   1.053   4.944   0.755 -1.0044  0.1335  1.1899
  677MOL0     H93392   1.111   4.972   1.007 -1.5972 -0.7735 -0.1425
  677MOL0     H93393   1.275   4.988   0.933  0.6593 -0.4747 -1.1983
  677MOL0     H93394   1.133   5.198   0.984 -0.4196  0.9668 -0.4160
  677MOL0     H93395   1.042   5.161   0.833  1.0692 -3.7033 -1.6560
  677MOL0     H93396   1.277   5.161   0.716  0.7554 -2.8338  1.5878
  677MOL0     H93397   1.330   5.248   0.861 -2.1372  1.1310  2.3818
  677MOL0     H93398   1.091   5.344   0.710 -0.2472 -0.6829  1.7604
  677MOL0     H93399   1.184   5.411   0.847 -0.3159  0.2523 -0.7208
  677MOL0     H93400   1.393   5.419   0.678  0.3429  2.8522 -2.0989
  677MOL0     H93401   1.257   5.528   0.663  0.4414  0.6653  2.2052
  677MOL0     H93402   1.155   5.351   0.492 -1.8783 -2.7412  4.4543
  677MOL0     H93403   1.297   5.261   0.517  0.6028  0.6829  1.3681
  677MOL0     H93404   1.434   5.444   0.410  0.1148 -4.8801  1.8130
  677MOL0     H93405   1.290   5.549   0.412 -2.2346 -0.7135 -1.6053
  677MOL0     H93406   1.014   4.556   0.990 -1.9214  2.2013 -0.3682
  677MOL0     H93407   0.906   4.364   0.863  0.2105 -0.6516 -1.5953
  677MOL0     H93408   0.841   4.114   0.668 -0.4280  2.8369 -1.6540
  677MOL0     H93409   0.772   3.867   0.653  0.3174 -0.7760  0.0026
  677MOL0     H93410   1.709   2.719   0.734 -1.7374 -0.4618 -4.5714
  677MOL0     H93411   1.919   2.785   0.818  1.9412 -0.4211  0.2779
  677MOL0     H93412   2.371   2.996   0.583  1.1768 -0.0981 -1.2479
  677MOL0     H93413   2.593   3.071   0.625 -2.1856  0.8427 -0.1768
  677MOL0     H93414   2.770   3.001   1.022 -3.2474 -0.3422 -0.6947
  677MOL0     H93415   2.843   2.855   0.941 -0.2987  0.4992 -0.6208
  677MOL0     H93416   2.918   3.131   0.874  0.1483 -1.3251 -3.1464
  677MOL0     H93417   2.994   2.997   0.801 -0.9903 -0.0925 -0.5199
  677MOL0     H93418   3.011   3.032   1.107 -0.6445 -1.3055 -0.4491
  677MOL0     H93419   3.098   2.918   1.016  1.9380  1.2499  0.8924
  677MOL0     H93420   3.258   3.123   1.049 -0.3611 -0.3104 -1.7186
  677MOL0     H93421   3.114   3.214   0.978 -1.4698 -0.8021 -0.2468
  677MOL0     H93422   3.305   3.095   0.631 -3.1600  0.8316 -1.5149
  677MOL0     H93423   2.638   2.795   0.949  0.6826 -0.6979 -0.4512
  677MOL0     H93424   2.370   2.587   0.854  0.7519 -0.1682 -0.8702
  677MOL0     H93425   2.488   2.629   0.989  2.6504  0.5023 -3.9704
  677MOL0     H93426   2.313   2.683   0.984  0.2798 -1.6814  0.4912
  678MOL0     O93427   3.842   7.500   3.065 -0.0190 -0.4450 -0.0257
  678MOL0     C93428   3.733   7.469   3.024  0.5986 -0.2100  0.0200
  678MOL0     O93429   3.667   7.531   2.929 -0.0786  0.2980  0.5374
  678MOL0     C93430   3.700   7.664   2.906 -0.6115  0.1809  0.6220
  678MOL0     C93431   3.696   7.754   3.005 -0.2005 -0.6272  0.4517
  678MOL0     C93432   3.725   7.889   2.983 -0.5063  0.7407 -0.5925
  678MOL0     C93433   3.758   7.931   2.858  0.0461 -0.0184  0.5150
  678MOL0     O93434   3.778   8.063   2.822 -0.1920 -0.7524 -0.7130
  678MOL0     C93435   3.809   8.155   2.932 -0.6600 -0.2673 -0.2480
  678MOL0     C93436   3.851   8.291   2.870  0.1438  0.3950  0.0349
  678MOL0     C93437   3.924   8.397   2.969 -0.6850 -0.4228 -0.5083
  678MOL0     C93438   3.908   8.549   2.929 -0.1360  0.3908 -0.5483
  678MOL0     C93439   4.006   8.583   2.820 -0.1743  0.5857 -0.1090
  678MOL0     C93440   4.158   8.560   2.848  0.2405  0.1007  0.4346
  678MOL0     C93441   4.214   8.602   2.985 -0.7196 -0.9305 -1.0814
  678MOL0     C93442   4.213   8.751   3.009 -0.8839 -0.2923  0.7557
  678MOL0     N93443   4.274   8.786   3.137  0.1805  0.4832 -0.9960
  678MOL0     C93444   4.409   8.802   3.153 -0.1672 -0.6336  0.3690
  678MOL0     C93445   4.414   8.853   3.281 -0.1374  0.7637  0.7492
  678MOL0     C93446   4.539   8.885   3.344 -0.0248 -0.3475 -1.1345
  678MOL0     C93447   4.526   8.961   3.482 -0.2182  0.4116 -0.0479
  678MOL0     C93448   4.448   9.095   3.451 -0.3394 -0.7222  0.1579
  678MOL0     C93449   4.518   9.200   3.366  0.0416  1.0722 -0.6601
  678MOL0     O93450   4.656   9.231   3.404 -0.4791  0.6567  0.5062
  678MOL0     C93451   4.726   9.335   3.331  0.5686 -0.1366 -0.5275
  678MOL0     C93452   4.868   9.348   3.348  0.0597 -0.8902  0.4724
  678MOL0     C93453   4.943   9.436   3.264 -0.2399 -0.2121 -0.3431
  678MOL0     C93454   5.089   9.438   3.307 -0.1021 -0.7461  0.5121
  678MOL0     C93455   4.874   9.516   3.163 -0.4507 -0.5294  0.2918
  678MOL0     C93456   4.932   9.623   3.086 -0.2564 -0.8014 -0.8251
  678MOL0     O93457   4.857   9.715   3.030  0.3737 -0.3188  0.4135
  678MOL0     C93458   4.911   9.819   2.970  0.5684 -1.0135 -0.4698
  678MOL0     C93459   4.820   9.930   2.956  0.0791 -0.9247 -0.3299
  678MOL0     C93460   4.858  10.051   2.900  0.7011  0.4925  0.3535
  678MOL0     C93461   4.990  10.066   2.843  0.8372 -0.3530 -0.4634
  678MOL0     O93462   5.033  10.180   2.780 -0.7413 -0.2686  1.1347
  678MOL0     C93463   4.998  10.307   2.846 -0.9139  0.0848 -0.3929
  678MOL0     C93464   5.096  10.324   2.958 -0.3931 -0.6242 -0.7978
  678MOL0     C93465   5.100  10.465   3.026  0.5526  0.1269 -1.2924
  678MOL0     C93466   5.196  10.562   2.960 -2.0157 -1.1807  0.5826
  678MOL0     C93467   5.177  10.707   3.005  0.1843 -0.3854  0.5087
  678MOL0     C93468   5.258  10.737   3.128 -0.0015  0.9804 -0.0624
  678MOL0     C93469   5.213  10.867   3.201 -0.0788 -0.0801  0.3899
  678MOL0     C93470   5.282  10.905   3.330  0.2579  0.9237 -0.1741
  678MOL0    Cl93471   5.436  10.988   3.301 -0.0105 -0.5554 -0.1871
  678MOL0     C93472   5.077   9.956   2.843  1.2289  0.2655 -0.4740
  678MOL0     C93473   5.031   9.831   2.904 -0.0890  1.1212 -0.1035
  678MOL0     O93474   5.056   9.618   3.090  1.0854  0.3820  1.0381
  678MOL0     C93475   4.733   9.497   3.148  1.3606  0.0588 -0.2264
  678MOL0     C93476   4.670   9.411   3.228 -0.1961 -1.4328 -0.5327
  678MOL0     N93477   4.290   8.869   3.336 -0.3546 -0.0875 -0.2108
  678MOL0     N93478   4.200   8.824   3.255 -0.0893  1.2010  0.7078
  678MOL0     C93479   3.760   7.836   2.750 -0.1476 -0.3290  0.9295
  678MOL0     C93480   3.743   7.700   2.776 -0.2252 -0.0134  0.2341
  678MOL0     C93481   3.684   7.327   3.059  0.5044 -1.2294 -0.3789
  678MOL0     C93482   3.572   7.286   2.989 -0.2836 -0.1299  0.2265
  678MOL0     C93483   3.511   7.158   3.013  0.4987  0.4651  0.1682
  678MOL0     C93484   3.566   7.068   3.102 -0.2101  0.8069 -0.5379
  678MOL0     O93485   3.487   6.956   3.136 -1.0624  0.6588 -0.4165
  678MOL0     C93486   3.558   6.828   3.111 -0.1120  0.3771  0.1610
  678MOL0     C93487   3.584   6.797   2.956 -0.0822 -1.1034  1.2218
  678MOL0     C93488   3.719   6.728   2.914  1.0532 -0.6287 -0.5398
  678MOL0     C93489   3.833   6.801   2.994 -0.8948 -0.3076  0.3765
  678MOL0     C93490   3.971   6.781   2.925 -0.4881  0.1927 -0.1493
  678MOL0     C93491   4.085   6.784   2.879 -1.0777  0.2243 -0.5557
  678MOL0     C93492   3.685   7.097   3.164  0.1248 -0.5872  0.3956
  678MOL0     C93493   3.749   7.227   3.142 -0.6184  0.1755  1.0757
  678MOL0     C93494   3.882   7.248   3.211 -0.7493 -0.0117 -0.3620
  678MOL0     H93495   3.668   7.723   3.106  0.7524 -0.0697  0.9087
  678MOL0     H93496   3.705   7.958   3.064 -1.0458  0.0242 -0.1021
  678MOL0     H93497   3.885   8.110   2.997  0.2259  0.2288 -0.9121
  678MOL0     H93498   3.720   8.170   2.994 -0.3574 -3.3875  1.1637
  678MOL0     H93499   3.927   8.260   2.798 -0.3120 -0.3705 -0.1285
  678MOL0     H93500   3.759   8.335   2.831  1.2337  1.9625 -0.8830
  678MOL0     H93501   3.883   8.395   3.070 -1.4723  0.5176 -0.7941
  678MOL0     H93502   4.027   8.360   2.978 -0.4297  0.2986 -0.4248
  678MOL0     H93503   3.810   8.586   2.898  0.3361  1.3278 -0.9926
  678MOL0     H93504   3.922   8.615   3.015  2.5726 -0.9236  0.1318
  678MOL0     H93505   4.005   8.689   2.793 -1.8610 -0.2097 -3.6998
  678MOL0     H93506   3.975   8.520   2.736 -1.2418 -2.3188  2.2474
  678MOL0     H93507   4.185   8.455   2.832  2.6513  0.8656 -1.1538
  678MOL0     H93508   4.217   8.589   2.760  1.8194 -3.8953 -0.0444
  678MOL0     H93509   4.315   8.563   3.001 -0.8675 -0.5582  1.0842
  678MOL0     H93510   4.156   8.554   3.064  1.4444 -1.0954  0.4927
  678MOL0     H93511   4.281   8.793   2.934 -1.0280  1.7799  1.7183
  678MOL0     H93512   4.109   8.783   3.002 -0.8241 -0.5153 -2.3099
  678MOL0     H93513   4.488   8.773   3.085 -1.4842 -2.6064 -0.3994
  678MOL0     H93514   4.588   8.951   3.272 -0.2277 -0.3141 -1.2435
  678MOL0     H93515   4.605   8.798   3.354  0.1502 -0.0601  0.6726
  678MOL0     H93516   4.487   8.890   3.556  2.3322 -1.7485 -0.5936
  678MOL0     H93517   4.624   8.995   3.518 -0.3679 -0.3540  1.1479
  678MOL0     H93518   4.354   9.082   3.396  1.3782  0.0715 -3.2414
  678MOL0     H93519   4.429   9.140   3.549 -2.3068  0.5692 -0.7570
  678MOL0     H93520   4.515   9.153   3.267 -1.0509  0.3345 -0.2902
  678MOL0     H93521   4.440   9.277   3.370 -4.0754 -2.7544  0.4352
  678MOL0     H93522   4.923   9.284   3.417  2.0677  1.4195  1.1256
  678MOL0     H93523   5.103   9.374   3.395 -1.4950  0.7423  1.8788
  678MOL0     H93524   5.109   9.541   3.335  0.6095 -0.7265 -0.0481
  678MOL0     H93525   5.151   9.405   3.223 -1.9836 -2.7266 -0.2216
  678MOL0     H93526   4.725   9.912   3.006  1.5647 -0.8872  2.7539
  678MOL0     H93527   4.783  10.129   2.895  0.6415  0.8917  4.2489
  678MOL0     H93528   4.997  10.392   2.778  0.4295  1.2794  1.0022
  678MOL0     H93529   4.899  10.308   2.893 -0.8364  0.9821 -0.2446
  678MOL0     H93530   5.064  10.241   3.021  0.3734 -1.2882 -1.2571
  678MOL0     H93531   5.203  10.302   2.944 -0.3314 -1.7807  1.0895
  678MOL0     H93532   5.131  10.448   3.130  0.0440 -4.4744 -1.7114
  678MOL0     H93533   5.000  10.508   3.038  0.4397 -0.5413  0.4508
  678MOL0     H93534   5.183  10.555   2.852 -1.9658 -2.2887  0.6388
  678MOL0     H93535   5.300  10.530   2.972 -0.7280  2.5307  0.7422
  678MOL0     H93536   5.212  10.780   2.931  1.6196 -0.2961  1.2295
  678MOL0     H93537   5.073  10.735   3.026 -0.5333 -1.5777 -1.2577
  678MOL0     H93538   5.362  10.755   3.097 -0.1422  1.5238 -0.2303
  678MOL0     H93539   5.256  10.654   3.198  0.6009  0.5869 -0.4938
  678MOL0     H93540   5.109  10.867   3.234 -0.2656 -2.9107  0.0528
  678MOL0     H93541   5.219  10.947   3.126 -0.3909 -1.4936 -1.2128
  678MOL0     H93542   5.297  10.815   3.389  1.6209  0.2060 -1.5523
  678MOL0     H93543   5.219  10.975   3.386  0.7371  0.7632  0.5723
  678MOL0     H93544   5.174   9.971   2.798  1.1162 -3.1918 -2.1880
  678MOL0     H93545   5.094   9.742   2.903  2.9621  2.9816  2.9788
  678MOL0     H93546   4.673   9.553   3.078  0.0796 -2.0557 -0.9439
  678MOL0     H93547   4.563   9.401   3.210 -0.8976  1.2485  1.4286
  678MOL0     H93548   3.779   7.860   2.646 -1.5257 -1.0148  0.4957
  678MOL0     H93549   3.742   7.628   2.694 -2.2064 -0.5105  0.6181
  678MOL0     H93550   3.540   7.355   2.911 -1.9291  3.1394  3.4948
  678MOL0     H93551   3.423   7.137   2.952  2.0663 -1.5278 -1.5797
  678MOL0     H93552   3.655   6.835   3.163 -0.6331  2.2312  0.9648
  678MOL0     H93553   3.517   6.736   3.153  0.4163 -1.4391 -2.9611
  678MOL0     H93554   3.577   6.893   2.903  1.7848  0.6501  3.8613
  678MOL0     H93555   3.501   6.735   2.922 -0.3490  0.6217 -1.5987
  678MOL0     H93556   3.718   6.628   2.957 -3.7390  0.5963  3.1507
  678MOL0     H93557   3.727   6.733   2.805  0.4494  3.4116 -0.5615
  678MOL0     H93558   3.830   6.748   3.089 -1.4059 -0.4039  0.3079
  678MOL0     H93559   3.806   6.907   2.992 -2.2132 -0.6215  0.5623
  678MOL0     H93560   4.190   6.797   2.864 -1.6851  4.3061 -2.9491
  678MOL0     H93561   3.732   7.023   3.229  2.8338 -1.7006 -2.5524
  678MOL0     H93562   3.892   7.352   3.242 -0.6723 -0.2082  0.2819
  678MOL0     H93563   3.881   7.179   3.296 -2.0517 -1.5064 -1.5412
  678MOL0     H93564   3.962   7.206   3.151 -2.3427 -1.6951 -1.4135
  679MOL0     O93565   0.608   3.853   0.827  0.5241 -0.1562  0.1130
  679MOL0     C93566   0.497   3.811   0.783  0.4114 -0.7091  0.3010
  679MOL0     O93567   0.396   3.889   0.742  0.2244  0.3492 -0.9500
  679MOL0     C93568   0.417   4.025   0.746  0.2786  0.6692  0.1753
  679MOL0     C93569   0.429   4.095   0.867 -0.4976 -0.5201 -0.5713
  679MOL0     C93570   0.443   4.236   0.858 -0.1255  0.4610  0.3746
  679MOL0     C93571   0.444   4.306   0.733 -0.0455  0.8134  1.2028
  679MOL0     O93572   0.459   4.449   0.742  0.2192  0.2169 -0.3300
  679MOL0     C93573   0.523   4.525   0.636  0.3075  0.1393  0.2676
  679MOL0     C93574   0.591   4.658   0.687 -0.0698 -0.6626 -0.4234
  679MOL0     C93575   0.488   4.756   0.732 -0.3175  0.1558  0.3164
  679MOL0     C93576   0.553   4.888   0.764 -0.4593  0.7303 -0.7691
  679MOL0     C93577   0.638   4.959   0.654  1.3299 -0.8730 -0.6007
  679MOL0     C93578   0.666   5.106   0.693  0.6333  0.6433  0.7793
  679MOL0     C93579   0.804   5.142   0.642  0.0699 -0.3779 -0.9273
  679MOL0     C93580   0.836   5.130   0.491  0.1178 -0.1097  0.6075
  679MOL0     N93581   0.748   5.225   0.414 -1.4893 -0.8286 -0.5403
  679MOL0     C93582   0.619   5.194   0.377 -0.7889  1.2117  0.0855
  679MOL0     C93583   0.577   5.311   0.316 -0.3911 -0.8043 -0.4171
  679MOL0     C93584   0.450   5.357   0.249 -0.1823 -0.1730 -0.6229
  679MOL0     C93585   0.371   5.254   0.170  0.0295 -0.2982  0.0886
  679MOL0     C93586   0.249   5.320   0.099  0.1238 -0.3617 -0.6340
  679MOL0     C93587   0.289   5.436   0.004 -0.3716  0.4207  0.0465
  679MOL0     O93588   0.195   5.440  -0.095  0.6099 -0.3751 -0.5772
  679MOL0     C93589   0.227   5.502  -0.216  0.1851  0.6291  1.2599
  679MOL0     C93590   0.292   5.621  -0.228 -0.0916 -0.4672 -0.3418
  679MOL0     C93591   0.332   5.683  -0.349  0.0753 -0.2818  0.0213
  679MOL0     C93592   0.398   5.820  -0.340 -0.2610 -0.0478 -0.2504
  679MOL0     C93593   0.304   5.611  -0.474 -0.1497 -0.3386 -0.3196
  679MOL0     C93594   0.329   5.663  -0.610 -0.0038 -0.0554  0.0050
  679MOL0     O93595   0.246   5.623  -0.710  0.1899 -0.6621  0.2018
  679MOL0     C93596   0.254   5.661  -0.844 -0.6199 -0.9729  0.2917
  679MOL0     C93597   0.342   5.759  -0.899 -0.1744 -0.4675  0.1072
  679MOL0     C93598   0.382   5.762  -1.033  0.2586 -0.4738  0.0895
  679MOL0     C93599   0.320   5.678  -1.128  0.9655 -0.8105  0.2202
  679MOL0     O93600   0.364   5.698  -1.259  0.3455 -0.1273 -0.0524
  679MOL0     C93601   0.318   5.611  -1.353  0.4295  1.2301  0.2358
  679MOL0     C93602   0.401   5.636  -1.473 -0.8294 -0.0749  0.0777
  679MOL0     C93603   0.336   5.575  -1.598 -0.3656  0.6849 -0.0644
  679MOL0     C93604   0.254   5.445  -1.567  0.1780  0.0178 -0.2131
  679MOL0     C93605   0.205   5.386  -1.697 -0.3531  0.0130  0.0185
  679MOL0     C93606   0.101   5.284  -1.657 -0.0839  0.5628  0.7171
  679MOL0     C93607   0.065   5.204  -1.781  0.1370  0.2170 -0.1295
  679MOL0     C93608   0.160   5.102  -1.842 -0.4449  0.4233  0.3877
  679MOL0    Cl93609   0.213   4.989  -1.713 -0.4246 -0.0822 -0.1739
  679MOL0     C93610   0.215   5.601  -1.086  1.5036  0.4375 -0.4269
  679MOL0     C93611   0.191   5.586  -0.943  0.2263 -0.6133  0.4139
  679MOL0     O93612   0.417   5.747  -0.623 -0.9154 -0.3188 -0.1179
  679MOL0     C93613   0.237   5.492  -0.453 -0.2960  0.3717  0.0168
  679MOL0     C93614   0.197   5.438  -0.331 -0.6218  0.3313 -0.5162
  679MOL0     N93615   0.684   5.406   0.319 -0.9951 -0.0574  0.0361
  679MOL0     N93616   0.789   5.349   0.374 -0.3097  0.0401  0.2162
  679MOL0     C93617   0.430   4.230   0.610  0.1010 -0.2900 -0.0676
  679MOL0     C93618   0.418   4.088   0.622 -1.2228  0.5952  0.4852
  679MOL0     C93619   0.467   3.670   0.805  0.1880 -0.0692 -0.1771
  679MOL0     C93620   0.488   3.618   0.934 -0.5475  0.0378  0.4181
  679MOL0     C93621   0.448   3.494   0.971  0.8669  0.0212  0.1297
  679MOL0     C93622   0.379   3.415   0.876  0.4630 -0.6476  0.4337
  679MOL0     O93623   0.327   3.301   0.939  0.5878 -0.6158  0.2485
  679MOL0     C93624   0.259   3.201   0.848  0.3598  0.0659 -1.2418
  679MOL0     C93625   0.109   3.225   0.822  0.0655  0.2089 -0.4247
  679MOL0     C93626   0.025   3.170   0.939  0.2303 -0.9915  0.9422
  679MOL0     C93627  -0.120   3.142   0.912 -0.1503 -0.2867  0.9895
  679MOL0     C93628  -0.178   3.063   1.022  0.6330  0.0148  0.9712
  679MOL0     C93629  -0.215   2.981   1.109 -0.4858 -0.1407  0.1521
  679MOL0     C93630   0.353   3.464   0.751  0.2584 -0.0290 -0.0855
  679MOL0     C93631   0.390   3.595   0.719 -0.8915 -0.6146  0.1483
  679MOL0     C93632   0.346   3.647   0.584 -0.5466 -0.3005 -0.3364
  679MOL0     H93633   0.430   4.043   0.962  1.0664  0.3787 -0.0447
  679MOL0     H93634   0.456   4.300   0.945 -1.9801  1.7543 -0.2323
  679MOL0     H93635   0.439   4.546   0.569 -0.7200 -2.9621  0.4566
  679MOL0     H93636   0.603   4.467   0.589  1.8198  2.3251 -0.0090
  679MOL0     H93637   0.656   4.626   0.768  1.4793  1.8356 -0.5656
  679MOL0     H93638   0.651   4.688   0.600 -0.0556 -1.6058 -0.7480
  679MOL0     H93639   0.421   4.773   0.647  1.9422  2.6415 -1.1201
  679MOL0     H93640   0.441   4.714   0.821 -0.1100 -1.7511 -0.4207
  679MOL0     H93641   0.483   4.955   0.816  1.5832  1.6773  0.9212
  679MOL0     H93642   0.629   4.867   0.839 -4.4830  1.1516  4.0039
  679MOL0     H93643   0.574   4.964   0.566  0.2137  0.9897  0.2369
  679MOL0     H93644   0.724   4.896   0.630  0.4541 -2.1831 -0.3812
  679MOL0     H93645   0.594   5.171   0.642  0.8520  1.1996  1.1741
  679MOL0     H93646   0.667   5.105   0.802  0.2881 -0.7642  0.7819
  679MOL0     H93647   0.882   5.094   0.702 -2.3524 -1.9445  1.1818
  679MOL0     H93648   0.819   5.247   0.668 -2.3990  0.0356 -0.9998
  679MOL0     H93649   0.934   5.178   0.479 -2.1066  4.9938  0.0956
  679MOL0     H93650   0.822   5.026   0.462 -1.4500 -0.2685  1.8093
  679MOL0     H93651   0.569   5.100   0.394  1.0413  0.6633  3.1147
  679MOL0     H93652   0.471   5.446   0.189  1.0085 -0.9391 -1.3974
  679MOL0     H93653   0.383   5.392   0.328  2.2874  6.1717 -0.7830
  679MOL0     H93654   0.438   5.206   0.099 -1.8073 -1.6499 -0.8086
  679MOL0     H93655   0.346   5.178   0.245  0.7325  0.1412  0.7969
  679MOL0     H93656   0.189   5.252   0.039  0.8712 -0.8677 -0.8262
  679MOL0     H93657   0.183   5.356   0.178 -1.5600 -1.3832 -1.5278
  679MOL0     H93658   0.307   5.534   0.047 -2.4061  0.7843  0.1367
  679MOL0     H93659   0.379   5.396  -0.045 -0.6048  1.1111 -0.9735
  679MOL0     H93660   0.320   5.666  -0.133  1.1174 -1.7441 -0.0561
  679MOL0     H93661   0.327   5.898  -0.309  2.1003  2.2102 -0.2386
  679MOL0     H93662   0.444   5.857  -0.432 -0.3291 -1.4083 -0.8514
  679MOL0     H93663   0.485   5.823  -0.274  0.7126 -0.0962 -1.4936
  679MOL0     H93664   0.406   5.816  -0.833  0.2389 -0.4803 -0.2727
  679MOL0     H93665   0.462   5.824  -1.070 -0.0452 -0.6476 -0.8856
  679MOL0     H93666   0.326   5.505  -1.326 -1.4716  0.6063 -1.4336
  679MOL0     H93667   0.215   5.636  -1.379 -0.8098 -1.5401  1.9367
  679MOL0     H93668   0.408   5.742  -1.498  0.5237 -0.5201 -1.5099
  679MOL0     H93669   0.506   5.608  -1.474 -0.3990  1.3261 -2.4889
  679MOL0     H93670   0.407   5.551  -1.677 -1.7624 -3.2859 -0.3092
  679MOL0     H93671   0.269   5.652  -1.639 -1.9378  0.5096  1.9903
  679MOL0     H93672   0.170   5.484  -1.509  2.3703  1.2354  2.3437
  679MOL0     H93673   0.324   5.381  -1.513  2.6151 -0.2879 -3.4554
  679MOL0     H93674   0.143   5.463  -1.744  0.6734  1.4567  0.9877
  679MOL0     H93675   0.291   5.355  -1.757 -0.1339  2.5098 -1.0598
  679MOL0     H93676   0.017   5.340  -1.616  0.0401 -0.2527  2.1343
  679MOL0     H93677   0.142   5.205  -1.593  3.1202 -3.5685 -5.4154
  679MOL0     H93678   0.035   5.259  -1.871 -2.5395 -0.5934  0.1902
  679MOL0     H93679  -0.026   5.155  -1.747 -0.4592  2.8388  2.4844
  679MOL0     H93680   0.242   5.158  -1.888 -0.9197 -0.2239 -1.2985
  679MOL0     H93681   0.111   5.046  -1.921 -0.7920  1.0563  0.1463
  679MOL0     H93682   0.156   5.563  -1.168  0.5351  1.9169 -0.4583
  679MOL0     H93683   0.126   5.509  -0.903 -0.6906  0.0736  0.2673
  679MOL0     H93684   0.235   5.434  -0.545  1.9678  0.4381 -0.1212
  679MOL0     H93685   0.153   5.339  -0.343  0.2630  0.1171 -2.3315
  679MOL0     H93686   0.407   4.284   0.519 -4.4122  1.5583  1.8334
  679MOL0     H93687   0.412   4.020   0.538 -0.2887  1.1627 -0.0619
  679MOL0     H93688   0.534   3.683   1.008 -0.4515 -0.3093  0.6659
  679MOL0     H93689   0.451   3.462   1.074 -0.8855 -3.2926 -0.6988
  679MOL0     H93690   0.301   3.204   0.747 -1.6104 -1.0856 -2.1506
  679MOL0     H93691   0.283   3.104   0.894 -0.4028 -1.1876 -3.3198
  679MOL0     H93692   0.083   3.180   0.726 -0.1563 -1.1510  0.2540
  679MOL0     H93693   0.078   3.330   0.822 -0.0562  0.2582  2.6196
  679MOL0     H93694   0.080   3.080   0.968  2.5422 -0.2094 -0.7255
  679MOL0     H93695   0.023   3.250   1.015 -3.2352  1.7079 -1.6817
  679MOL0     H93696  -0.142   3.075   0.828  0.3888  1.7268 -0.8491
  679MOL0     H93697  -0.174   3.235   0.889 -5.0431 -3.1657 -0.7046
  679MOL0     H93698  -0.226   2.923   1.199  0.3507  1.2940  1.2322
  679MOL0     H93699   0.302   3.399   0.680  2.4590  0.0890 -1.8909
  679MOL0     H93700   0.259   3.711   0.602  1.2949  2.0161  0.7073
  679MOL0     H93701   0.425   3.694   0.526  1.1355 -2.1098  0.3881
  679MOL0     H93702   0.298   3.565   0.529  0.1027  0.5798 -2.3021
  680MOL0     O93703   7.604   4.898   5.122  0.0145 -0.4202  0.8209
  680MOL0     C93704   7.675   4.801   5.124  0.6702 -0.3389  0.9187
  680MOL0     O93705   7.803   4.783   5.179  1.1561  0.7263 -0.0719
  680MOL0     C93706   7.844   4.895   5.246 -0.0437 -0.1611  0.4530
  680MOL0     C93707   7.915   5.006   5.184 -0.6430  0.5091 -0.6870
  680MOL0     C93708   7.982   5.098   5.270  0.0760  0.0490  0.6310
  680MOL0     C93709   7.978   5.086   5.406  0.3913 -0.6299 -0.4546
  680MOL0     O93710   8.051   5.171   5.489 -0.1117 -0.3344  0.2462
  680MOL0     C93711   8.049   5.316   5.453  0.4836 -0.2137 -0.8847
  680MOL0     C93712   8.090   5.404   5.579 -0.3071 -0.6590 -0.2987
  680MOL0     C93713   8.052   5.554   5.572  0.7268 -0.1364  0.3637
  680MOL0     C93714   8.108   5.619   5.710 -1.2446  0.2377  0.3646
  680MOL0     C93715   8.044   5.752   5.754  0.2723 -0.3633  0.2015
  680MOL0     C93716   8.129   5.828   5.858  0.7769 -0.4837  0.3192
  680MOL0     C93717   8.167   5.975   5.832 -0.0385 -0.0601 -0.4373
  680MOL0     C93718   8.057   6.075   5.851 -0.2665 -0.1197  0.1813
  680MOL0     N93719   8.093   6.204   5.792  0.0700  0.8863  0.3982
  680MOL0     C93720   8.176   6.292   5.852 -0.2764  0.0254 -0.3519
  680MOL0     C93721   8.180   6.403   5.773 -0.6798  0.1601  0.2429
  680MOL0     C93722   8.267   6.516   5.800 -0.3321  0.0207  0.0576
  680MOL0     C93723   8.312   6.607   5.676 -0.6022 -0.1230 -0.8470
  680MOL0     C93724   8.413   6.721   5.701 -0.3606 -0.0552 -0.2132
  680MOL0     C93725   8.555   6.689   5.721 -0.2102  0.2500 -0.0789
  680MOL0     O93726   8.629   6.807   5.695  0.2133  0.3477  0.2851
  680MOL0     C93727   8.659   6.852   5.570  0.6512  0.1729  1.1327
  680MOL0     C93728   8.731   6.961   5.562 -1.0850 -0.6827 -0.2037
  680MOL0     C93729   8.744   7.031   5.441 -0.1005  0.4648  0.0885
  680MOL0     C93730   8.829   7.160   5.450  0.2061 -0.2498 -1.0571
  680MOL0     C93731   8.697   6.964   5.322 -0.1231 -0.1720  0.7866
  680MOL0     C93732   8.720   7.025   5.192  0.1969  0.2457  0.8929
  680MOL0     O93733   8.794   7.140   5.168 -0.3908  0.0206 -0.0049
  680MOL0     C93734   8.927   7.121   5.117  0.6146  0.0055  0.0010
  680MOL0     C93735   8.997   7.003   5.098 -0.1504 -0.4731 -0.0452
  680MOL0     C93736   9.132   7.014   5.069 -0.3933 -0.1172 -0.6710
  680MOL0     C93737   9.204   7.133   5.054  0.7419  0.2328  0.4472
  680MOL0     O93738   9.336   7.142   5.014 -0.8009 -0.5797  0.1727
  680MOL0     C93739   9.389   7.056   4.911 -0.1153  0.0988 -0.9547
  680MOL0     C93740   9.540   7.046   4.940  0.4610  1.0527 -0.5439
  680MOL0     C93741   9.607   7.186   4.913 -0.9023 -0.3583 -0.1755
  680MOL0     C93742   9.761   7.177   4.932  0.6570  0.6832  0.9032
  680MOL0     C93743   9.827   7.318   4.964 -0.2242 -0.0659 -0.0269
  680MOL0     C93744   9.786   7.413   5.078  0.0883 -0.1843 -0.4898
  680MOL0     C93745   9.878   7.531   5.095 -0.0093 -1.1478 -0.0813
  680MOL0     C93746   9.834   7.642   5.203 -0.0982  0.2378  0.1274
  680MOL0    Cl93747   9.926   7.789   5.164  0.0610  0.0713  0.2796
  680MOL0     C93748   9.120   7.250   5.057  0.4219  0.4970 -0.6436
  680MOL0     C93749   8.984   7.246   5.086 -0.0042  0.0315  0.6815
  680MOL0     O93750   8.679   6.960   5.092  0.4246 -1.0093  0.2109
  680MOL0     C93751   8.627   6.843   5.337  0.0559 -0.2123  0.0737
  680MOL0     C93752   8.606   6.787   5.460  0.1978 -0.5097  0.3218
  680MOL0     N93753   8.096   6.387   5.673  0.1471  0.2908  0.2129
  680MOL0     N93754   8.049   6.261   5.677  0.5659 -0.0820 -0.0294
  680MOL0     C93755   7.910   4.981   5.462  0.6502 -0.1030  0.0149
  680MOL0     C93756   7.855   4.885   5.381 -0.2176 -0.2451 -0.2890
  680MOL0     C93757   7.609   4.672   5.079 -0.5923  0.2556 -0.2339
  680MOL0     C93758   7.699   4.560   5.050  0.8016 -0.6656  0.2986
  680MOL0     C93759   7.643   4.438   5.002  0.9882 -0.3279 -0.3254
  680MOL0     C93760   7.506   4.422   4.996  0.2071  0.3891 -0.5271
  680MOL0     O93761   7.440   4.307   4.948  0.2077 -0.3834 -1.1023
  680MOL0     C93762   7.504   4.187   4.891  0.4632 -0.5590  0.2370
  680MOL0     C93763   7.440   4.183   4.749 -0.3292 -0.0455 -0.0253
  680MOL0     C93764   7.466   4.050   4.679 -0.7040  0.6440 -0.1773
  680MOL0     C93765   7.358   3.947   4.715 -0.3378 -0.3304 -0.0607
  680MOL0     C93766   7.229   3.975   4.649 -0.3775  0.7284  0.1664
  680MOL0     C93767   7.129   3.997   4.588  0.8391  0.5084  0.5538
  680MOL0     C93768   7.430   4.526   5.026 -0.6813  0.4395 -0.9803
  680MOL0     C93769   7.466   4.652   5.074 -0.4416 -0.9750  0.2685
  680MOL0     C93770   7.343   4.739   5.087 -0.7579  0.0479 -0.3239
  680MOL0     H93771   7.925   5.006   5.076  1.7985  0.0752 -0.5076
  680MOL0     H93772   8.026   5.184   5.220 -3.4639  0.3447 -2.3914
  680MOL0     H93773   7.952   5.345   5.410 -0.4228  0.2481  1.3569
  680MOL0     H93774   8.129   5.335   5.380  3.9797 -3.0881  1.8567
  680MOL0     H93775   8.050   5.359   5.670 -0.8848 -2.3412 -1.3355
  680MOL0     H93776   8.199   5.404   5.589 -0.4707  1.8214  3.4222
  680MOL0     H93777   8.097   5.612   5.490  0.3854  4.2066  2.9494
  680MOL0     H93778   7.944   5.563   5.556  1.1163 -0.9102 -3.7880
  680MOL0     H93779   8.102   5.548   5.793  0.5760  0.2257  0.5182
  680MOL0     H93780   8.216   5.626   5.695 -1.0208  1.1005  2.1038
  680MOL0     H93781   7.941   5.732   5.784  0.5784  1.1532  2.5832
  680MOL0     H93782   8.033   5.818   5.668  2.2782  1.6138  1.3717
  680MOL0     H93783   8.083   5.809   5.956 -0.3279 -1.6519 -0.4014
  680MOL0     H93784   8.225   5.776   5.860  3.1785  3.1997 -3.2981
  680MOL0     H93785   8.222   5.967   5.738  0.7865 -0.1349  0.0444
  680MOL0     H93786   8.235   6.003   5.913 -2.2961  1.9606  0.9148
  680MOL0     H93787   7.971   6.039   5.793 -0.9327  0.2596  0.9195
  680MOL0     H93788   8.025   6.094   5.954  0.1808  0.8443  0.1542
  680MOL0     H93789   8.229   6.269   5.944 -0.6619  1.3075  0.2200
  680MOL0     H93790   8.356   6.485   5.857  2.9165 -0.1882 -4.5519
  680MOL0     H93791   8.202   6.575   5.865 -1.4034 -0.6826 -0.3624
  680MOL0     H93792   8.366   6.545   5.604  0.3575  2.4409 -2.4888
  680MOL0     H93793   8.218   6.627   5.625 -1.0110 -3.9816 -1.9328
  680MOL0     H93794   8.405   6.800   5.625  1.9604  1.3332  0.8663
  680MOL0     H93795   8.385   6.759   5.800  0.8507  0.5567 -0.0850
  680MOL0     H93796   8.568   6.654   5.824 -2.9971 -2.2883 -0.4404
  680MOL0     H93797   8.585   6.615   5.646  0.7621  0.1802  0.3593
  680MOL0     H93798   8.784   6.995   5.650 -0.2584  1.0793 -1.3321
  680MOL0     H93799   8.786   7.245   5.395  1.5725  0.6583 -0.7581
  680MOL0     H93800   8.932   7.151   5.415  0.5790 -1.3030  0.2157
  680MOL0     H93801   8.845   7.190   5.553  1.4325  3.6481 -2.2206
  680MOL0     H93802   8.949   6.910   5.127  0.1524 -1.4623 -2.5283
  680MOL0     H93803   9.186   6.924   5.041  2.5806  1.0785  0.6859
  680MOL0     H93804   9.339   6.959   4.917 -2.4443  1.3059  3.0819
  680MOL0     H93805   9.383   7.092   4.808  1.3653  0.8742 -0.8096
  680MOL0     H93806   9.561   7.010   5.041 -1.2977 -0.9266 -0.8262
  680MOL0     H93807   9.587   6.983   4.864  1.3308 -0.9477  1.5239
  680MOL0     H93808   9.570   7.272   4.969  1.3241  0.2578  0.4904
  680MOL0     H93809   9.594   7.201   4.805 -0.1514  1.3054 -0.0628
  680MOL0     H93810   9.805   7.136   4.840 -1.5849  0.4115 -0.1237
  680MOL0     H93811   9.781   7.110   5.015  0.6334  0.6019  0.8434
  680MOL0     H93812   9.935   7.305   4.972  0.4900  2.2116 -3.5519
  680MOL0     H93813   9.822   7.380   4.874  2.5063  2.0614  1.1399
  680MOL0     H93814   9.794   7.351   5.167 -1.1692 -1.9300 -1.5442
  680MOL0     H93815   9.681   7.442   5.071  0.4095  1.8751  1.7254
  680MOL0     H93816   9.880   7.575   4.995  3.7208 -0.1843  0.2677
  680MOL0     H93817   9.977   7.493   5.123 -0.0701 -0.2434  1.4696
  680MOL0     H93818   9.845   7.604   5.305 -0.1506  1.3456  0.5606
  680MOL0     H93819   9.728   7.669   5.195 -0.3980 -1.2666 -2.2957
  680MOL0     H93820   9.162   7.349   5.049 -3.0246  2.6079  3.2325
  680MOL0     H93821   8.934   7.343   5.086 -0.2587 -0.0818 -0.3688
  680MOL0     H93822   8.589   6.794   5.248  0.8789  3.6482 -2.6812
  680MOL0     H93823   8.544   6.699   5.468 -0.0162 -0.4405 -0.4467
  680MOL0     H93824   7.890   4.977   5.569 -0.6917  0.8368 -0.1665
  680MOL0     H93825   7.810   4.802   5.434 -4.3227 -0.9067 -4.1808
  680MOL0     H93826   7.807   4.564   5.056  0.6959  0.0423  3.6023
  680MOL0     H93827   7.712   4.358   4.976 -2.6088 -3.2622 -1.7281
  680MOL0     H93828   7.612   4.194   4.880  0.3375 -1.9950 -2.8277
  680MOL0     H93829   7.481   4.096   4.947  1.2540 -2.2405 -2.0307
  680MOL0     H93830   7.485   4.264   4.690  1.5123 -4.0406 -4.8204
  680MOL0     H93831   7.332   4.194   4.754 -0.8851 -4.0420  0.1366
  680MOL0     H93832   7.460   4.061   4.570 -0.5495  1.1738 -0.1340
  680MOL0     H93833   7.564   4.010   4.706 -1.4657 -2.0048 -0.9347
  680MOL0     H93834   7.355   3.937   4.824  0.0767 -1.2137 -0.1190
  680MOL0     H93835   7.386   3.852   4.668 -3.2502 -1.3474  0.0769
  680MOL0     H93836   7.031   4.024   4.555  0.7679 -1.8755 -1.4085
  680MOL0     H93837   7.325   4.498   5.031  0.0563 -2.5523  1.0635
  680MOL0     H93838   7.283   4.753   4.997 -1.9466 -0.2645  0.3876
  680MOL0     H93839   7.277   4.701   5.166 -0.9532 -1.3891 -1.1446
  680MOL0     H93840   7.360   4.844   5.114 -3.1692  1.5840 -4.0317
  681MOL0     O93841   0.464   1.737   6.563 -0.0224  1.0300  0.1108
  681MOL0     C93842   0.531   1.836   6.578  0.5180 -0.2049 -0.6199
  681MOL0     O93843   0.550   1.894   6.699  0.4071  0.0883 -0.6319
  681MOL0     C93844   0.489   1.846   6.811  0.0069 -0.9559 -0.1440
  681MOL0     C93845   0.428   1.926   6.909  0.5962 -0.0926  0.5448
  681MOL0     C93846   0.386   1.879   7.037  0.0470 -1.1051  0.7081
  681MOL0     C93847   0.415   1.752   7.065  0.0075 -0.4412 -0.5844
  681MOL0     O93848   0.373   1.710   7.191  0.5437  0.9158 -0.9603
  681MOL0     C93849   0.458   1.622   7.256 -0.3530  0.0048 -0.2711
  681MOL0     C93850   0.385   1.544   7.356  0.2973  0.2498  0.1821
  681MOL0     C93851   0.477   1.430   7.404 -0.5132 -0.9737 -0.2068
  681MOL0     C93852   0.401   1.309   7.450 -0.8478  1.0555  0.5452
  681MOL0     C93853   0.510   1.221   7.501 -0.2837  0.2614  0.2975
  681MOL0     C93854   0.473   1.103   7.587 -0.7120 -0.5803 -0.9711
  681MOL0     C93855   0.356   1.029   7.518  0.5194  0.9219  1.1566
  681MOL0     C93856   0.312   0.914   7.609 -0.2735  0.1737 -0.3812
  681MOL0     N93857   0.265   0.951   7.741  0.8419 -1.2048  0.0301
  681MOL0     C93858   0.342   0.924   7.857  0.3720 -0.8140 -0.0430
  681MOL0     C93859   0.274   0.982   7.956  0.1950  0.3504  0.7434
  681MOL0     C93860   0.301   0.967   8.108 -0.1483 -0.9322  0.5832
  681MOL0     C93861   0.370   1.095   8.163 -0.3028  0.0347 -0.5907
  681MOL0     C93862   0.289   1.231   8.171  0.6038 -0.1907  0.1815
  681MOL0     C93863   0.322   1.332   8.064  0.3872 -1.1236 -0.1327
  681MOL0     O93864   0.452   1.388   8.078  0.3948  0.6859  0.1478
  681MOL0     C93865   0.488   1.489   7.989 -0.9818 -0.4861 -0.7193
  681MOL0     C93866   0.410   1.550   7.890  0.0786  1.2778 -0.7736
  681MOL0     C93867   0.457   1.649   7.810  0.5895 -0.9037 -1.0540
  681MOL0     C93868   0.367   1.743   7.730  0.3567  0.4056 -0.8583
  681MOL0     C93869   0.601   1.678   7.821  0.1560  0.0924 -0.2596
  681MOL0     C93870   0.661   1.775   7.725  0.6847  0.4737  0.2686
  681MOL0     O93871   0.745   1.856   7.786  0.0411  0.0067  0.5431
  681MOL0     C93872   0.817   1.956   7.721 -0.6530  0.2293  0.2834
  681MOL0     C93873   0.788   2.089   7.743 -0.0416 -0.4632  0.8269
  681MOL0     C93874   0.848   2.191   7.673  1.0734 -0.6541  0.3920
  681MOL0     C93875   0.953   2.169   7.586  0.3774 -1.2522  0.2414
  681MOL0     O93876   1.004   2.285   7.536  0.0414  0.1944  0.4503
  681MOL0     C93877   1.112   2.285   7.452 -0.5489  0.1245 -0.2447
  681MOL0     C93878   1.152   2.431   7.419 -0.5490  0.0353 -0.3000
  681MOL0     C93879   1.231   2.487   7.538 -0.7833  0.2086  1.0994
  681MOL0     C93880   1.310   2.616   7.507  0.1425  0.2865 -0.5816
  681MOL0     C93881   1.377   2.667   7.634  0.7335  1.0630 -0.0131
  681MOL0     C93882   1.411   2.814   7.625 -0.2836 -0.0095  0.1313
  681MOL0     C93883   1.496   2.844   7.504  0.2552 -0.3771 -0.0847
  681MOL0     C93884   1.566   2.981   7.495 -0.2244 -0.5191 -0.3996
  681MOL0    Cl93885   1.447   3.117   7.455 -0.2286 -0.0899  0.2677
  681MOL0     C93886   0.985   2.035   7.559  0.4458 -0.7924  0.2608
  681MOL0     C93887   0.913   1.929   7.623 -0.2003  0.0862  0.2081
  681MOL0     O93888   0.642   1.774   7.601  0.5567 -0.4812 -1.1031
  681MOL0     C93889   0.673   1.617   7.913 -0.9939 -0.3700  0.1380
  681MOL0     C93890   0.619   1.529   8.004 -0.9701  0.8699 -0.8044
  681MOL0     N93891   0.161   1.047   7.902  0.0388  0.3437 -0.4925
  681MOL0     N93892   0.152   1.027   7.773 -0.2412  0.4121 -0.1870
  681MOL0     C93893   0.473   1.664   6.972  0.4776  1.0680 -0.3740
  681MOL0     C93894   0.510   1.708   6.840 -0.3281  0.1124 -0.6812
  681MOL0     C93895   0.627   1.874   6.471 -0.1804  0.2799 -0.1164
  681MOL0     C93896   0.603   1.827   6.337 -0.2146  0.0751 -0.9225
  681MOL0     C93897   0.679   1.856   6.230  0.5282 -1.1101 -0.1902
  681MOL0     C93898   0.796   1.927   6.257  0.2705 -0.4406 -0.4072
  681MOL0     O93899   0.897   1.953   6.165 -0.5689  0.4987  0.7166
  681MOL0     C93900   0.867   1.964   6.023 -0.2964  0.4633  0.9941
  681MOL0     C93901   0.991   2.015   5.943 -0.3438  0.0843 -0.8103
  681MOL0     C93902   1.011   2.160   5.960  0.8021  0.3209 -0.6699
  681MOL0     C93903   1.120   2.207   5.858  0.9160 -0.0696  0.4905
  681MOL0     C93904   1.255   2.152   5.872 -0.8747  0.4862 -0.1409
  681MOL0     C93905   1.375   2.114   5.887  0.2203  0.3823 -0.0384
  681MOL0     C93906   0.821   1.978   6.382  0.3839 -1.0002 -0.2197
  681MOL0     C93907   0.734   1.966   6.486  0.4104 -0.4544 -0.0629
  681MOL0     C93908   0.780   2.027   6.617 -0.3467 -0.3142  0.1187
  681MOL0     H93909   0.410   2.030   6.885 -0.7023 -0.9804 -2.9579
  681MOL0     H93910   0.333   1.955   7.094 -0.6592 -1.1043  0.0706
  681MOL0     H93911   0.536   1.687   7.297  1.7722 -2.0724 -0.7788
  681MOL0     H93912   0.515   1.548   7.198  3.0086 -0.1911  2.9029
  681MOL0     H93913   0.344   1.611   7.432 -0.2340  0.7223 -0.5110
  681MOL0     H93914   0.300   1.493   7.309 -0.4100 -0.3636  2.0407
  681MOL0     H93915   0.546   1.400   7.325 -0.4420  0.9302 -0.9340
  681MOL0     H93916   0.539   1.471   7.484  3.7309 -1.9744 -2.6904
  681MOL0     H93917   0.325   1.335   7.524 -1.8955  1.5176 -0.6689
  681MOL0     H93918   0.357   1.265   7.360 -0.1011 -0.5060  0.8996
  681MOL0     H93919   0.582   1.281   7.557 -0.9035  2.5355 -1.1922
  681MOL0     H93920   0.564   1.177   7.416 -0.6041  1.3162 -0.4724
  681MOL0     H93921   0.561   1.051   7.626 -2.0895 -2.0100  0.3524
  681MOL0     H93922   0.437   1.151   7.678  3.3851 -2.5468  2.0067
  681MOL0     H93923   0.399   0.987   7.427  0.5027  0.3967  1.3810
  681MOL0     H93924   0.267   1.090   7.501  0.5311  0.2798 -1.6468
  681MOL0     H93925   0.229   0.860   7.561 -1.5022  1.8723 -0.2656
  681MOL0     H93926   0.390   0.838   7.622 -0.4488 -0.2278 -1.5493
  681MOL0     H93927   0.429   0.859   7.852 -0.2366 -1.9562  2.5771
  681MOL0     H93928   0.376   0.888   8.122  0.9394  0.1457  0.9156
  681MOL0     H93929   0.204   0.949   8.155 -0.0126 -0.6477  0.9685
  681MOL0     H93930   0.407   1.061   8.260 -2.8758 -2.3125 -0.3088
  681MOL0     H93931   0.456   1.113   8.097  0.9141 -2.5762  0.1327
  681MOL0     H93932   0.180   1.219   8.162  0.7577 -0.2672 -2.0362
  681MOL0     H93933   0.323   1.283   8.261  2.9336  0.8789 -1.2616
  681MOL0     H93934   0.326   1.276   7.970 -2.7619  1.2054 -1.8681
  681MOL0     H93935   0.235   1.398   8.060 -0.1119 -1.6396  1.2799
  681MOL0     H93936   0.305   1.525   7.879 -0.3386  2.1446  0.9528
  681MOL0     H93937   0.418   1.839   7.722  0.7495  0.0690 -2.8779
  681MOL0     H93938   0.269   1.753   7.778 -0.9857 -1.9912 -2.8725
  681MOL0     H93939   0.344   1.704   7.630 -3.5239 -2.3919  0.8641
  681MOL0     H93940   0.706   2.103   7.813 -1.4102 -0.6507 -0.6806
  681MOL0     H93941   0.812   2.292   7.693  1.1447 -0.8571  1.5830
  681MOL0     H93942   1.193   2.242   7.512 -2.0682 -0.1977  1.6526
  681MOL0     H93943   1.091   2.216   7.370  0.1251 -1.5913  0.9561
  681MOL0     H93944   1.220   2.422   7.334  1.2373  1.4782  0.8877
  681MOL0     H93945   1.063   2.487   7.388  0.3102  1.1731 -0.7838
  681MOL0     H93946   1.297   2.411   7.579 -2.5730 -1.2051  1.4531
  681MOL0     H93947   1.160   2.506   7.619 -1.8088  0.4938  0.1585
  681MOL0     H93948   1.247   2.688   7.455  2.4475 -0.1040 -4.2869
  681MOL0     H93949   1.390   2.577   7.443 -1.5234 -2.0264 -1.3938
  681MOL0     H93950   1.311   2.644   7.718  1.6574 -2.7944 -0.1544
  681MOL0     H93951   1.463   2.603   7.654  1.6702  0.8031 -3.9275
  681MOL0     H93952   1.458   2.846   7.718  0.7486 -0.1149 -0.3482
  681MOL0     H93953   1.310   2.856   7.620  0.1179  0.8917 -0.6290
  681MOL0     H93954   1.449   2.828   7.406 -0.2369 -3.3535  0.5308
  681MOL0     H93955   1.580   2.773   7.507 -0.5123 -1.7491 -4.2525
  681MOL0     H93956   1.634   2.993   7.410  0.5314  4.1869  0.6001
  681MOL0     H93957   1.627   2.991   7.585 -1.9897  0.2970  0.7609
  681MOL0     H93958   1.073   2.014   7.498  2.6520  1.7097  2.3263
  681MOL0     H93959   0.950   1.828   7.607 -1.0001 -0.1126 -0.4708
  681MOL0     H93960   0.780   1.635   7.914 -1.2099  1.2400 -1.2769
  681MOL0     H93961   0.685   1.486   8.079 -2.7117  1.9832  1.5256
  681MOL0     H93962   0.476   1.557   6.986 -1.4632  0.8041 -1.6581
  681MOL0     H93963   0.556   1.638   6.771 -1.0101 -1.3997  0.3425
  681MOL0     H93964   0.513   1.773   6.311 -2.0907  2.5567 -0.0405
  681MOL0     H93965   0.650   1.838   6.127 -0.8714 -1.6071  0.2618
  681MOL0     H93966   0.836   1.869   5.978 -1.6021  2.3727 -2.5484
  681MOL0     H93967   0.782   2.031   6.008 -1.3184 -1.2099 -1.4071
  681MOL0     H93968   0.981   1.985   5.839 -3.4775 -1.0502 -0.2871
  681MOL0     H93969   1.078   1.966   5.987  1.4784  3.3760 -0.4133
  681MOL0     H93970   0.917   2.211   5.937  1.2579  0.4564 -2.3588
  681MOL0     H93971   1.035   2.189   6.062  0.0033  3.4532 -1.2865
  681MOL0     H93972   1.113   2.314   5.877  2.5519 -0.2047  2.0362
  681MOL0     H93973   1.091   2.196   5.753 -0.7657 -0.3199  0.9429
  681MOL0     H93974   1.468   2.064   5.902 -1.7627 -3.3865  0.8110
  681MOL0     H93975   0.908   2.042   6.394 -0.8743  0.6269  0.7413
  681MOL0     H93976   0.713   2.110   6.639  0.0185  0.1181 -0.3810
  681MOL0     H93977   0.783   1.954   6.698 -2.0030 -1.4617 -0.7917
  681MOL0     H93978   0.877   2.073   6.595 -0.6262 -0.4196 -1.4721
  682MOL0     O93979   2.974  10.856   5.478  0.1030  0.4248 -0.6526
  682MOL0     C93980   2.910  10.963   5.479 -0.9724 -0.9005  0.5269
  682MOL0     O93981   2.782  10.979   5.525 -0.3327  0.3214 -0.3477
  682MOL0     C93982   2.723  10.868   5.579  0.0723  0.7059 -0.3364
  682MOL0     C93983   2.724  10.830   5.711  0.0870  1.0656 -1.3447
  682MOL0     C93984   2.650  10.714   5.750 -0.8312 -0.0065 -0.2530
  682MOL0     C93985   2.583  10.635   5.666 -0.6393  0.1380  0.0428
  682MOL0     O93986   2.519  10.532   5.727  1.3079  0.1659 -0.1679
  682MOL0     C93987   2.458  10.432   5.645  0.3851  0.5755  0.3795
  682MOL0     C93988   2.380  10.328   5.732 -0.2447 -0.0386 -0.7576
  682MOL0     C93989   2.436  10.317   5.879  0.5258 -1.1146  0.6735
  682MOL0     C93990   2.409  10.180   5.946  0.9423 -0.6542  0.4739
  682MOL0     C93991   2.257  10.152   5.974 -0.4138 -0.6150 -0.1225
  682MOL0     C93992   2.215  10.245   6.085 -0.5451 -1.9780 -0.0575
  682MOL0     C93993   2.076  10.194   6.135  0.3657  0.8845 -0.3403
  682MOL0     C93994   2.042  10.268   6.265  0.6922 -0.6105 -0.8512
  682MOL0     N93995   2.139  10.283   6.372 -0.9348  0.2011 -0.2113
  682MOL0     C93996   2.235  10.377   6.369  0.6898  0.4078  0.9508
  682MOL0     C93997   2.290  10.350   6.493  0.0341  0.4961 -0.5317
  682MOL0     C93998   2.386  10.428   6.563 -0.1647 -0.3090 -0.6721
  682MOL0     C93999   2.493  10.473   6.463 -0.0902 -0.6518  0.8746
  682MOL0     C94000   2.581  10.591   6.501 -0.0865  0.5696  0.0862
  682MOL0     C94001   2.651  10.664   6.375 -0.0067 -0.0351  0.1071
  682MOL0     O94002   2.727  10.563   6.305 -0.1868  0.3096 -0.2553
  682MOL0     C94003   2.835  10.598   6.227  0.8142 -0.2508  0.1483
  682MOL0     C94004   2.842  10.543   6.104 -0.6024  0.1862  0.4830
  682MOL0     C94005   2.937  10.591   6.010  0.5076 -0.4760 -0.2502
  682MOL0     C94006   2.929  10.528   5.873  0.6370 -0.0323 -0.4450
  682MOL0     C94007   3.038  10.689   6.050  0.5900  0.1143 -0.7380
  682MOL0     C94008   3.155  10.736   5.972  0.8812 -1.2461 -0.2707
  682MOL0     O94009   3.186  10.671   5.861  0.2243 -1.1998  0.1938
  682MOL0     C94010   3.295  10.717   5.782 -0.3700 -0.9545 -0.6609
  682MOL0     C94011   3.423  10.752   5.828 -0.5920  0.5116 -0.4070
  682MOL0     C94012   3.526  10.767   5.732  0.6740 -0.7932 -0.1071
  682MOL0     C94013   3.492  10.768   5.595  0.1729  0.5434 -0.1868
  682MOL0     O94014   3.563  10.787   5.481  1.0984  0.1316 -0.4727
  682MOL0     C94015   3.668  10.694   5.449  0.4904  0.0380 -0.7819
  682MOL0     C94016   3.620  10.562   5.414  0.7476 -0.6976  0.9568
  682MOL0     C94017   3.728  10.459   5.388  0.2855 -0.1763 -0.1036
  682MOL0     C94018   3.681  10.313   5.388  0.3993  0.1311 -0.1588
  682MOL0     C94019   3.694  10.238   5.524 -0.0011 -0.2102 -0.9301
  682MOL0     C94020   3.782  10.111   5.523  0.6216 -0.1069 -0.2443
  682MOL0     C94021   3.919  10.118   5.461 -0.3495 -0.8535  0.9561
  682MOL0     C94022   4.031  10.161   5.565 -0.5734 -0.0894 -0.5908
  682MOL0    Cl94023   4.055  10.027   5.677 -0.4360  0.7091 -0.1275
  682MOL0     C94024   3.362  10.745   5.560  0.6468 -0.0035 -1.4957
  682MOL0     C94025   3.261  10.713   5.653 -0.2717 -0.7705  0.1208
  682MOL0     O94026   3.228  10.819   6.028  1.3272 -0.4384  0.2080
  682MOL0     C94027   3.032  10.735   6.185 -0.4981 -1.0542  0.3199
  682MOL0     C94028   2.924  10.695   6.268  0.3066 -0.9809 -0.0255
  682MOL0     N94029   2.229  10.245   6.564 -0.0799 -0.3918 -0.5635
  682MOL0     N94030   2.136  10.207   6.487 -0.1455  0.0783  0.4611
  682MOL0     C94031   2.590  10.668   5.525 -0.9039 -0.3418  0.6469
  682MOL0     C94032   2.680  10.772   5.486 -0.3592 -0.6705 -0.2581
  682MOL0     C94033   2.973  11.102   5.430  0.7277  0.4433 -0.2877
  682MOL0     C94034   2.888  11.217   5.427  1.1990 -0.6554 -0.6570
  682MOL0     C94035   2.941  11.346   5.391  1.0425 -0.0186  0.2237
  682MOL0     C94036   3.070  11.370   5.346  0.1524 -0.8199  0.2102
  682MOL0     O94037   3.102  11.493   5.319 -0.7150 -0.2190  0.2757
  682MOL0     C94038   3.238  11.521   5.303 -0.6395 -0.4790 -0.1521
  682MOL0     C94039   3.256  11.669   5.289 -0.1969 -0.1818 -0.6283
  682MOL0     C94040   3.410  11.698   5.282 -0.0054 -0.5057 -0.7350
  682MOL0     C94041   3.420  11.845   5.243  0.0124  0.3279 -0.6680
  682MOL0     C94042   3.558  11.897   5.248  0.0144 -0.5104  0.3245
  682MOL0     C94043   3.663  11.953   5.254 -0.2523 -0.1785  1.2751
  682MOL0     C94044   3.154  11.250   5.338  1.2462 -1.3539 -0.8669
  682MOL0     C94045   3.109  11.119   5.387  0.1398 -0.5458  0.0710
  682MOL0     C94046   3.213  11.003   5.390  0.6587 -0.1765  0.4291
  682MOL0     H94047   2.774  10.891   5.785  1.1940 -0.9252 -0.3846
  682MOL0     H94048   2.646  10.685   5.854 -0.3019  1.3607  0.1644
  682MOL0     H94049   2.538  10.368   5.608  3.5618  3.7708  1.1688
  682MOL0     H94050   2.399  10.462   5.558  1.2824 -0.0002 -0.4460
  682MOL0     H94051   2.278  10.368   5.735 -0.0570  0.7023 -2.7906
  682MOL0     H94052   2.364  10.235   5.677 -2.1011 -0.4975  0.4379
  682MOL0     H94053   2.543  10.342   5.879  0.4760 -0.8424 -0.6539
  682MOL0     H94054   2.396  10.401   5.936  0.2095 -1.4488  0.9505
  682MOL0     H94055   2.447  10.104   5.877  0.9671 -0.4637  0.2785
  682MOL0     H94056   2.452  10.169   6.046  0.7455 -2.5914  0.3884
  682MOL0     H94057   2.249  10.047   6.005 -1.2675 -0.3733  0.5020
  682MOL0     H94058   2.196  10.160   5.884 -0.0888  0.2176 -0.2730
  682MOL0     H94059   2.293  10.252   6.161 -2.0168  0.6728  1.3896
  682MOL0     H94060   2.202  10.348   6.051 -1.7264 -1.2330  2.4071
  682MOL0     H94061   2.081  10.086   6.154 -1.5528  0.0357 -3.8884
  682MOL0     H94062   2.006  10.192   6.051  0.7752 -1.3307 -0.6904
  682MOL0     H94063   2.026  10.368   6.226  1.0769 -0.7046 -1.2680
  682MOL0     H94064   1.953  10.237   6.319  0.2718 -0.6937 -1.5808
  682MOL0     H94065   2.237  10.460   6.299 -0.8074  0.2272  0.6660
  682MOL0     H94066   2.414  10.362   6.645 -1.2243 -0.4990 -0.4382
  682MOL0     H94067   2.350  10.515   6.620  1.3965 -1.0661  1.6203
  682MOL0     H94068   2.547  10.385   6.427  1.8710  1.7557 -2.6342
  682MOL0     H94069   2.456  10.523   6.373  0.4232  1.7046  1.8982
  682MOL0     H94070   2.517  10.658   6.559  0.0115 -0.3378  1.2821
  682MOL0     H94071   2.662  10.561   6.568  1.2990 -0.4164 -1.9399
  682MOL0     H94072   2.584  10.713   6.304 -0.3573 -1.7448 -0.7759
  682MOL0     H94073   2.722  10.741   6.407 -0.3550  0.5327 -0.4663
  682MOL0     H94074   2.774  10.464   6.075  0.2694 -0.5779  0.4781
  682MOL0     H94075   2.857  10.446   5.870  0.6610 -0.0510 -0.5133
  682MOL0     H94076   3.030  10.502   5.839  0.4520  0.6032 -1.4917
  682MOL0     H94077   2.887  10.593   5.796 -5.3895 -0.3695  1.9726
  682MOL0     H94078   3.441  10.784   5.931  0.2079 -0.3707 -0.2592
  682MOL0     H94079   3.625  10.798   5.763  1.2546 -3.5997  1.1361
  682MOL0     H94080   3.723  10.736   5.364 -0.2636 -0.3374 -1.4712
  682MOL0     H94081   3.726  10.695   5.541 -1.2177  1.0688  0.3630
  682MOL0     H94082   3.545  10.523   5.484 -1.3063 -1.5731 -1.5390
  682MOL0     H94083   3.562  10.570   5.321 -0.6777  0.7445  1.9164
  682MOL0     H94084   3.810  10.477   5.459  0.3307  1.7391 -0.5813
  682MOL0     H94085   3.766  10.482   5.288 -1.7147  1.2012 -0.6070
  682MOL0     H94086   3.721  10.266   5.298  0.7370  1.8315 -0.9361
  682MOL0     H94087   3.579  10.305   5.350  0.6779 -2.1576 -0.6134
  682MOL0     H94088   3.735  10.302   5.602 -0.9758 -2.0367  1.2056
  682MOL0     H94089   3.599  10.218   5.574  2.2683 -0.8904  3.7249
  682MOL0     H94090   3.720  10.033   5.476  0.4562 -0.5964  0.7418
  682MOL0     H94091   3.790  10.078   5.627 -2.1922 -3.0227 -0.7722
  682MOL0     H94092   3.906  10.195   5.385  1.4247  2.8456  4.0581
  682MOL0     H94093   3.934  10.018   5.418 -0.6747  0.7067 -3.1137
  682MOL0     H94094   4.006  10.250   5.623  0.5483 -1.6493  2.6005
  682MOL0     H94095   4.125  10.181   5.514 -0.8435  2.2629 -0.2490
  682MOL0     H94096   3.330  10.747   5.456  0.6738 -1.6458 -1.5619
  682MOL0     H94097   3.163  10.671   5.629  0.0005 -1.3757  0.0595
  682MOL0     H94098   3.095  10.809   6.234 -2.2760  1.7003 -1.3117
  682MOL0     H94099   2.919  10.739   6.367 -1.7602 -3.5378  1.1063
  682MOL0     H94100   2.547  10.617   5.439 -0.7791 -0.4776  0.6661
  682MOL0     H94101   2.696  10.811   5.386 -0.4711 -2.1751 -0.8886
  682MOL0     H94102   2.783  11.206   5.451  1.4163 -1.5076 -0.0764
  682MOL0     H94103   2.867  11.426   5.393  1.0336  0.2393 -3.4403
  682MOL0     H94104   3.294  11.496   5.394  0.3664 -1.1059 -0.9174
  682MOL0     H94105   3.275  11.482   5.208 -2.2604  2.9439 -2.3759
  682MOL0     H94106   3.206  11.731   5.365 -1.1074 -3.5644  1.7940
  682MOL0     H94107   3.198  11.700   5.202 -0.3877 -0.8269 -0.7401
  682MOL0     H94108   3.450  11.679   5.382  1.0950  1.6072 -0.7130
  682MOL0     H94109   3.457  11.636   5.205 -1.1895 -0.2052 -1.7406
  682MOL0     H94110   3.365  11.904   5.318 -0.8844 -2.6408  1.1758
  682MOL0     H94111   3.368  11.877   5.152  0.1961 -1.5563 -1.4732
  682MOL0     H94112   3.768  11.973   5.258 -0.3180  2.5297 -3.4645
  682MOL0     H94113   3.255  11.268   5.301 -0.2306  2.3991 -3.7986
  682MOL0     H94114   3.171  10.925   5.325 -2.4280  0.4714  1.4465
  682MOL0     H94115   3.307  11.041   5.350  1.2699 -1.8154  0.2251
  682MOL0     H94116   3.233  10.969   5.492  1.4820 -1.3922 -0.1071
  683MOL0     O94117   6.878   1.524   7.836 -0.4473 -0.5331  0.3069
  683MOL0     C94118   6.878   1.637   7.881  1.1016 -0.4486  0.3934
  683MOL0     O94119   6.847   1.757   7.812 -0.2355  0.5459  0.3982
  683MOL0     C94120   6.818   1.757   7.682  0.0336 -0.0240  0.2732
  683MOL0     C94121   6.891   1.843   7.608 -0.2763  0.7398  0.0415
  683MOL0     C94122   6.866   1.857   7.476 -0.2330  0.0619  0.2840
  683MOL0     C94123   6.786   1.772   7.405 -0.6670 -0.3168 -0.2972
  683MOL0     O94124   6.777   1.790   7.271  0.1609 -0.2508  1.5388
  683MOL0     C94125   6.658   1.743   7.199  0.6257 -0.5345 -0.4046
  683MOL0     C94126   6.663   1.782   7.043  0.2157 -0.2423 -0.3006
  683MOL0     C94127   6.687   1.934   7.036 -1.3192  0.2996  0.1504
  683MOL0     C94128   6.607   1.992   6.906 -0.0267 -0.3291  0.1357
  683MOL0     C94129   6.681   2.110   6.844 -0.7615  0.0182 -1.1747
  683MOL0     C94130   6.683   2.239   6.932 -0.6390  0.3254  0.4218
  683MOL0     C94131   6.763   2.346   6.864 -0.3271  0.5756 -0.3023
  683MOL0     C94132   6.704   2.414   6.740 -0.3904  0.5304  0.1592
  683MOL0     N94133   6.764   2.538   6.701 -0.1533 -0.8217  0.5890
  683MOL0     C94134   6.887   2.547   6.640 -0.8359 -0.3077  0.4245
  683MOL0     C94135   6.914   2.680   6.633 -0.0477  0.9049  0.7079
  683MOL0     C94136   7.032   2.737   6.555  0.0822 -1.3476  0.1184
  683MOL0     C94137   7.139   2.814   6.647 -0.8162  0.4513 -0.3241
  683MOL0     C94138   7.195   2.703   6.743 -0.4352  0.8996  0.4673
  683MOL0     C94139   7.315   2.735   6.824  0.2838  0.4123  0.2209
  683MOL0     O94140   7.426   2.780   6.745  0.9334 -0.7815 -0.2661
  683MOL0     C94141   7.522   2.861   6.784 -0.3816 -0.5609  0.3323
  683MOL0     C94142   7.587   2.854   6.905  0.0903  0.2624  0.1934
  683MOL0     C94143   7.703   2.935   6.932 -0.9837  0.4169  0.1568
  683MOL0     C94144   7.775   2.910   7.072  0.2655 -0.4191 -0.7008
  683MOL0     C94145   7.754   3.026   6.828  0.3539 -0.2849 -0.1633
  683MOL0     C94146   7.858   3.130   6.846  0.3628  0.3411  0.0151
  683MOL0     O94147   7.893   3.201   6.731 -0.0902  0.2164 -0.3587
  683MOL0     C94148   7.989   3.291   6.737 -0.4682  0.0172 -0.6789
  683MOL0     C94149   7.963   3.427   6.712  0.7393 -0.7160 -0.1521
  683MOL0     C94150   8.062   3.519   6.694  0.1742  0.2566 -0.5485
  683MOL0     C94151   8.199   3.486   6.703  0.0821 -0.5847  0.1199
  683MOL0     O94152   8.301   3.565   6.674  0.7339  0.4469 -0.3726
  683MOL0     C94153   8.264   3.699   6.617 -0.6641 -0.3901  0.2398
  683MOL0     C94154   8.385   3.750   6.553  0.6705  0.5890  0.0983
  683MOL0     C94155   8.507   3.739   6.651 -0.9540  0.8898  0.0417
  683MOL0     C94156   8.637   3.794   6.577  0.2457  0.2570  1.1739
  683MOL0     C94157   8.760   3.785   6.676  0.2095 -0.0764  0.1948
  683MOL0     C94158   8.894   3.746   6.602  0.6313  0.2082  0.1277
  683MOL0     C94159   9.009   3.702   6.695 -0.6069 -0.2601 -0.5148
  683MOL0     C94160   9.113   3.632   6.615  1.4301 -0.0729 -0.2527
  683MOL0    Cl94161   9.274   3.626   6.698  1.1896 -0.3008  0.6147
  683MOL0     C94162   8.229   3.349   6.734 -0.0235 -0.4131  0.7001
  683MOL0     C94163   8.129   3.258   6.734 -0.0642  0.3611 -0.5533
  683MOL0     O94164   7.912   3.144   6.954  0.5888 -0.1668  0.4182
  683MOL0     C94165   7.682   3.030   6.710 -0.4106 -0.9367  0.7400
  683MOL0     C94166   7.577   2.936   6.681 -0.2650 -0.3540  0.8648
  683MOL0     N94167   6.796   2.744   6.687 -0.0564  0.0730 -0.2195
  683MOL0     N94168   6.714   2.656   6.740  0.4003 -0.7631  0.3255
  683MOL0     C94169   6.717   1.669   7.475 -0.6126 -1.2240 -0.4306
  683MOL0     C94170   6.730   1.671   7.615 -0.1407  0.2717  0.6167
  683MOL0     C94171   6.964   1.643   8.005 -0.1251  0.1984 -1.0656
  683MOL0     C94172   6.920   1.577   8.119 -0.1876  0.2816  0.1885
  683MOL0     C94173   6.980   1.594   8.246 -0.0987 -1.2306 -0.3181
  683MOL0     C94174   7.097   1.669   8.260 -0.2472  0.1982 -0.0514
  683MOL0     O94175   7.175   1.655   8.378  0.8731  0.9500 -0.3744
  683MOL0     C94176   7.259   1.536   8.377  0.8126  0.8365 -1.3980
  683MOL0     C94177   7.272   1.491   8.523 -0.9913  0.3208  0.3739
  683MOL0     C94178   7.398   1.411   8.550  0.3659 -0.6126  1.1433
  683MOL0     C94179   7.421   1.392   8.703 -0.0280 -0.1116 -0.0222
  683MOL0     C94180   7.331   1.291   8.750 -0.1200 -0.3666 -1.5157
  683MOL0     C94181   7.245   1.223   8.807 -0.2031  0.8104  0.4098
  683MOL0     C94182   7.143   1.727   8.147 -0.0971  0.0961  0.3441
  683MOL0     C94183   7.072   1.740   8.019  0.7661 -0.6703 -0.1008
  683MOL0     C94184   7.115   1.829   7.908 -0.5467  0.0239  0.5247
  683MOL0     H94185   6.964   1.897   7.668  1.3440  0.3494 -1.4867
  683MOL0     H94186   6.914   1.934   7.416  0.8413 -1.2594 -0.6233
  683MOL0     H94187   6.572   1.786   7.251  1.3924  0.4549  0.0764
  683MOL0     H94188   6.660   1.635   7.211 -1.4114 -0.6393 -0.6158
  683MOL0     H94189   6.756   1.740   7.005  0.8873 -3.4364  4.0967
  683MOL0     H94190   6.567   1.756   6.998 -0.3496  0.5155  0.4288
  683MOL0     H94191   6.655   1.997   7.119  0.8479  1.6072  0.0891
  683MOL0     H94192   6.793   1.946   7.011 -1.4586 -0.9304 -1.2094
  683MOL0     H94193   6.601   1.916   6.827 -1.7077 -0.8209  0.6972
  683MOL0     H94194   6.512   2.027   6.946  0.1261  1.5153 -1.0060
  683MOL0     H94195   6.628   2.123   6.750 -2.9402 -0.3396 -0.0538
  683MOL0     H94196   6.783   2.090   6.809 -0.3691 -1.2693  0.5262
  683MOL0     H94197   6.581   2.272   6.953  0.1460  2.3304  1.4474
  683MOL0     H94198   6.726   2.219   7.031  1.5920 -0.5255 -0.6328
  683MOL0     H94199   6.858   2.300   6.834 -0.7790  0.4948 -1.6857
  683MOL0     H94200   6.785   2.427   6.933 -1.5582  2.1178 -1.6271
  683MOL0     H94201   6.701   2.344   6.657 -0.6591 -0.5833  1.0865
  683MOL0     H94202   6.598   2.435   6.757 -1.7025 -2.2579 -3.3462
  683MOL0     H94203   6.941   2.463   6.597  0.4922  1.0537 -0.6475
  683MOL0     H94204   6.999   2.820   6.492  1.9187  0.5556  1.5101
  683MOL0     H94205   7.075   2.661   6.488  0.2250 -0.0543 -1.3078
  683MOL0     H94206   7.214   2.864   6.586 -0.7256 -1.9341 -2.2887
  683MOL0     H94207   7.091   2.885   6.716 -3.0375 -2.2202  1.0741
  683MOL0     H94208   7.109   2.682   6.807 -0.7659  3.8772  1.1351
  683MOL0     H94209   7.221   2.622   6.675 -1.1343  0.1924  1.0197
  683MOL0     H94210   7.305   2.831   6.875 -0.9499 -0.4798  1.7496
  683MOL0     H94211   7.344   2.663   6.901  0.0974 -0.0596 -0.1459
  683MOL0     H94212   7.567   2.783   6.984  3.5984 -0.3096  0.7181
  683MOL0     H94213   7.868   2.855   7.051 -0.5189 -1.3824 -1.7625
  683MOL0     H94214   7.708   2.850   7.134  0.0952  0.7258  0.2581
  683MOL0     H94215   7.796   3.007   7.117 -1.2857 -0.2960 -0.1809
  683MOL0     H94216   7.862   3.458   6.690  1.0926 -1.0154 -2.4291
  683MOL0     H94217   8.038   3.619   6.658 -3.9648 -0.6647 -0.8557
  683MOL0     H94218   8.180   3.696   6.548  0.3407 -0.3973 -1.0282
  683MOL0     H94219   8.235   3.771   6.694 -1.4336 -2.1357  1.6681
  683MOL0     H94220   8.406   3.702   6.457 -3.7045 -0.6750 -0.4743
  683MOL0     H94221   8.371   3.854   6.524 -0.7692 -0.3489 -2.9984
  683MOL0     H94222   8.528   3.633   6.663 -2.0432  0.5009 -1.2801
  683MOL0     H94223   8.490   3.786   6.748  0.6759  2.2966 -0.2916
  683MOL0     H94224   8.620   3.895   6.538  0.9923  1.2033  3.1691
  683MOL0     H94225   8.651   3.732   6.488  1.2838  1.9697  0.0775
  683MOL0     H94226   8.758   3.888   6.713  0.2035  0.6717 -1.7903
  683MOL0     H94227   8.749   3.710   6.755 -1.5939 -2.1384 -1.8570
  683MOL0     H94228   8.927   3.814   6.523 -0.1241 -2.3006 -2.5115
  683MOL0     H94229   8.872   3.651   6.552  2.4020 -0.4423  0.5247
  683MOL0     H94230   8.979   3.637   6.779 -3.1147 -0.7715 -1.7220
  683MOL0     H94231   9.045   3.795   6.741 -2.2120 -0.2683  0.8687
  683MOL0     H94232   9.117   3.675   6.514  3.3586 -1.0379 -0.6368
  683MOL0     H94233   9.084   3.530   6.587  1.8115  0.5526 -3.3222
  683MOL0     H94234   8.336   3.332   6.745  0.2292  0.7089  0.1004
  683MOL0     H94235   8.155   3.154   6.748  0.1063  0.2656 -1.5380
  683MOL0     H94236   7.705   3.104   6.633  0.4144  1.8135  3.4111
  683MOL0     H94237   7.538   2.942   6.580 -1.0009  0.7509  1.1938
  683MOL0     H94238   6.655   1.596   7.424 -0.1890 -2.0846  0.2468
  683MOL0     H94239   6.680   1.603   7.684  1.6483 -0.1147  1.5767
  683MOL0     H94240   6.829   1.518   8.117  0.7194 -1.1665  0.0568
  683MOL0     H94241   6.942   1.544   8.334  3.5106 -2.6123  0.6366
  683MOL0     H94242   7.214   1.464   8.308  2.4166 -0.5198 -1.0940
  683MOL0     H94243   7.360   1.551   8.336  1.8644 -2.1429 -0.2254
  683MOL0     H94244   7.190   1.425   8.553 -0.9618 -0.5268 -1.2909
  683MOL0     H94245   7.279   1.580   8.586  0.5276  0.3967  0.1233
  683MOL0     H94246   7.399   1.315   8.498  2.8754 -1.9722  3.4860
  683MOL0     H94247   7.488   1.471   8.531  0.4596 -0.3354  2.4148
  683MOL0     H94248   7.401   1.481   8.764 -0.6925 -2.0042  2.7284
  683MOL0     H94249   7.526   1.366   8.721  0.0214  0.5660  0.7718
  683MOL0     H94250   7.160   1.172   8.847  0.0070  0.2056  0.1049
  683MOL0     H94251   7.233   1.782   8.174 -0.0549  1.9232 -3.0328
  683MOL0     H94252   7.120   1.775   7.813 -0.0001 -3.1198  2.1844
  683MOL0     H94253   7.052   1.917   7.893  1.3846  0.9811 -3.2640
  683MOL0     H94254   7.217   1.855   7.940  1.0727 -3.6978 -1.0471
  684MOL0     O94255   2.031   3.840   2.435  0.7308 -0.5330 -0.1038
  684MOL0     C94256   1.941   3.773   2.385  0.4540 -0.3138 -0.0353
  684MOL0     O94257   1.853   3.696   2.459  0.1334  0.5087 -0.0478
  684MOL0     C94258   1.878   3.708   2.600  0.3932  0.0102 -0.0803
  684MOL0     C94259   1.789   3.789   2.675  0.0946  0.0307 -0.5880
  684MOL0     C94260   1.804   3.805   2.818 -0.7502 -1.4695  0.3774
  684MOL0     C94261   1.912   3.746   2.881 -0.4067 -0.3810 -0.6411
  684MOL0     O94262   1.914   3.776   3.021 -0.4670  0.7401  0.5776
  684MOL0     C94263   2.003   3.716   3.105 -0.3553 -0.3243 -0.6726
  684MOL0     C94264   1.968   3.762   3.247 -0.1132 -0.2000  1.2304
  684MOL0     C94265   2.095   3.751   3.349 -0.0978 -0.5083  0.3783
  684MOL0     C94266   2.067   3.834   3.479  0.0087 -0.9839 -0.2201
  684MOL0     C94267   2.207   3.841   3.555  0.1631  1.0250  0.8472
  684MOL0     C94268   2.178   3.933   3.667 -0.0370 -1.3273 -0.7878
  684MOL0     C94269   2.293   3.914   3.780  0.6037  0.3584  0.2672
  684MOL0     C94270   2.308   4.034   3.884 -0.5400  0.4016 -0.0933
  684MOL0     N94271   2.172   4.077   3.923  0.1363  1.0663  0.3786
  684MOL0     C94272   2.109   4.185   3.871  0.4591  0.3696 -0.3631
  684MOL0     C94273   1.978   4.159   3.900 -1.0136 -0.3995 -0.5072
  684MOL0     C94274   1.855   4.243   3.868 -0.5440  0.1334  0.6289
  684MOL0     C94275   1.823   4.226   3.720  0.2792 -0.2200  0.1699
  684MOL0     C94276   1.818   4.076   3.669  0.1660  0.0477  1.1539
  684MOL0     C94277   1.752   4.090   3.526  0.1458  0.2528  0.0840
  684MOL0     O94278   1.825   4.176   3.441  0.2237 -0.1771 -0.3774
  684MOL0     C94279   1.814   4.167   3.308 -0.3497  0.1689  0.1744
  684MOL0     C94280   1.862   4.273   3.238  0.2704 -0.8492 -0.2740
  684MOL0     C94281   1.847   4.285   3.097 -0.3022  0.5921  0.3150
  684MOL0     C94282   1.910   4.407   3.032 -0.2318  0.5140 -0.8001
  684MOL0     C94283   1.791   4.174   3.022 -0.7674 -0.1477 -0.3375
  684MOL0     C94284   1.743   4.179   2.881 -0.9874 -0.7166 -0.2758
  684MOL0     O94285   1.645   4.102   2.851  0.1099  0.4584 -0.0455
  684MOL0     C94286   1.596   4.107   2.722  0.4739  0.5731 -0.7832
  684MOL0     C94287   1.672   4.072   2.613 -0.7578 -0.0397 -0.9885
  684MOL0     C94288   1.633   4.087   2.486  0.6581  0.3150 -0.6495
  684MOL0     C94289   1.502   4.120   2.458  0.6137 -0.0369  0.5277
  684MOL0     O94290   1.454   4.112   2.329 -0.9218 -0.2045  0.2693
  684MOL0     C94291   1.543   4.127   2.214 -0.2774  0.2700 -0.0381
  684MOL0     C94292   1.445   4.159   2.103 -0.0996  0.3605  0.2404
  684MOL0     C94293   1.506   4.166   1.968  0.6443 -0.0472  0.1984
  684MOL0     C94294   1.526   4.022   1.914 -0.3899 -0.3934  0.0308
  684MOL0     C94295   1.530   4.008   1.753  0.4170 -0.1295  0.5470
  684MOL0     C94296   1.660   4.040   1.687 -0.5167  0.1579  0.7480
  684MOL0     C94297   1.676   3.988   1.545 -0.3450 -0.5024  0.7156
  684MOL0     C94298   1.817   4.009   1.494 -0.4404  0.1421  0.9739
  684MOL0    Cl94299   1.843   4.188   1.466  0.3510  0.1922  0.1061
  684MOL0     C94300   1.407   4.139   2.570 -0.8397 -0.8526 -0.4711
  684MOL0     C94301   1.458   4.130   2.705  0.0501 -0.2831  1.5010
  684MOL0     O94302   1.793   4.263   2.806 -0.5193  0.7747 -0.4332
  684MOL0     C94303   1.762   4.056   3.092 -0.7842  0.0031  0.0261
  684MOL0     C94304   1.770   4.055   3.230  1.0399 -0.1278  0.4400
  684MOL0     N94305   1.968   4.036   3.970 -0.4984 -0.2476  0.2222
  684MOL0     N94306   2.082   3.984   3.973 -0.9717  0.0684  1.0230
  684MOL0     C94307   1.996   3.650   2.811 -0.5321  0.2976  0.6168
  684MOL0     C94308   1.975   3.638   2.675  0.7101  0.5624  0.5982
  684MOL0     C94309   1.917   3.766   2.241  0.5688  0.0862  0.6915
  684MOL0     C94310   1.780   3.778   2.200  0.0144  0.1744  0.2915
  684MOL0     C94311   1.755   3.764   2.064  0.6231  0.2065 -0.1467
  684MOL0     C94312   1.857   3.747   1.970  0.4049 -0.4592 -0.4778
  684MOL0     O94313   1.817   3.733   1.841 -0.0797  0.3616  0.4605
  684MOL0     C94314   1.885   3.634   1.756  1.0313 -0.1937 -0.7195
  684MOL0     C94315   1.964   3.709   1.648 -0.3100  0.3416 -0.5774
  684MOL0     C94316   2.055   3.631   1.557  0.3333 -0.2894  0.2485
  684MOL0     C94317   2.185   3.577   1.623 -0.3019 -0.0621 -0.5487
  684MOL0     C94318   2.195   3.432   1.653 -0.3491  1.2432 -0.6784
  684MOL0     C94319   2.218   3.304   1.659  0.1550 -0.0685  1.3372
  684MOL0     C94320   1.985   3.722   2.017 -1.1251  0.1438  0.1955
  684MOL0     C94321   2.016   3.740   2.151  0.1157  0.0515 -1.2879
  684MOL0     C94322   2.162   3.726   2.191  0.0327 -0.3116  0.1312
  684MOL0     H94323   1.709   3.838   2.621  2.1266  5.2698  0.5677
  684MOL0     H94324   1.735   3.872   2.868 -0.2335  1.4424 -2.4608
  684MOL0     H94325   2.106   3.741   3.079 -0.2045  0.0586  0.2705
  684MOL0     H94326   1.987   3.609   3.091 -4.1243 -0.0609  0.4431
  684MOL0     H94327   1.926   3.863   3.251 -0.0052 -0.1853  2.2638
  684MOL0     H94328   1.890   3.695   3.283  0.4330 -2.2867 -1.1533
  684MOL0     H94329   2.120   3.647   3.371  0.1592 -0.7855 -1.0727
  684MOL0     H94330   2.189   3.787   3.305  0.6518 -2.4166  0.3206
  684MOL0     H94331   2.044   3.934   3.441  1.8065  0.0317  1.2037
  684MOL0     H94332   1.996   3.795   3.553 -0.9972  2.5652  0.8841
  684MOL0     H94333   2.295   3.870   3.496  1.2914 -0.2304  1.8581
  684MOL0     H94334   2.245   3.745   3.591 -2.1116 -0.5286 -0.6981
  684MOL0     H94335   2.176   4.041   3.647 -2.4943 -0.0408  4.3973
  684MOL0     H94336   2.081   3.924   3.716 -1.2219  0.1490 -2.6906
  684MOL0     H94337   2.390   3.888   3.736 -0.5452  1.0135 -2.9224
  684MOL0     H94338   2.247   3.837   3.842  2.1262 -1.4140 -0.7180
  684MOL0     H94339   2.363   4.007   3.976 -2.3647  0.1318  0.9657
  684MOL0     H94340   2.355   4.124   3.844 -0.5796  0.3216 -0.3168
  684MOL0     H94341   2.157   4.277   3.840  1.8979  0.1052  0.9845
  684MOL0     H94342   1.870   4.350   3.886 -3.2538  0.5798  0.6163
  684MOL0     H94343   1.764   4.218   3.923 -1.4698  0.1694 -0.8621
  684MOL0     H94344   1.724   4.272   3.721  0.5575  0.4104 -0.1341
  684MOL0     H94345   1.901   4.278   3.663 -1.1135 -0.5212 -2.1527
  684MOL0     H94346   1.925   4.050   3.663 -0.0455 -1.0099  1.6951
  684MOL0     H94347   1.763   4.019   3.745 -1.6733 -0.1947 -0.3020
  684MOL0     H94348   1.727   3.993   3.482 -3.7492  1.3168 -0.4191
  684MOL0     H94349   1.654   4.139   3.530 -0.9061 -1.8411  1.9088
  684MOL0     H94350   1.922   4.347   3.290  2.1023 -3.1820  1.1427
  684MOL0     H94351   1.962   4.382   2.939  0.1862 -0.8644 -0.2088
  684MOL0     H94352   1.992   4.451   3.090  0.6857 -0.9488 -0.9342
  684MOL0     H94353   1.836   4.484   3.007  1.6064  2.4815 -0.4626
  684MOL0     H94354   1.773   4.037   2.632 -0.9205 -0.2549 -0.4980
  684MOL0     H94355   1.703   4.077   2.404  0.7368  4.5853 -1.3430
  684MOL0     H94356   1.618   4.204   2.232 -2.8244  2.7220  0.8140
  684MOL0     H94357   1.594   4.032   2.198 -0.4460 -0.0981  1.4587
  684MOL0     H94358   1.361   4.090   2.093  1.1183 -0.8005 -3.4512
  684MOL0     H94359   1.412   4.262   2.120  0.3731  0.2100  2.4972
  684MOL0     H94360   1.596   4.229   1.975  1.3360 -1.2228  3.7645
  684MOL0     H94361   1.435   4.218   1.903  3.0789  1.2318 -1.6227
  684MOL0     H94362   1.447   3.951   1.944 -1.0647  0.6602  0.8209
  684MOL0     H94363   1.623   3.995   1.956  0.9904  2.6485 -0.9691
  684MOL0     H94364   1.506   3.902   1.740  1.6663 -0.3734  0.0397
  684MOL0     H94365   1.451   4.054   1.693  0.0188  0.5515  1.5723
  684MOL0     H94366   1.743   3.989   1.739 -0.1191 -0.9959 -0.9382
  684MOL0     H94367   1.679   4.147   1.693  1.1812 -0.1922  3.7400
  684MOL0     H94368   1.611   4.043   1.476 -0.3448 -1.1171  0.2219
  684MOL0     H94369   1.650   3.882   1.539  2.0675 -1.0468 -2.0864
  684MOL0     H94370   1.829   3.974   1.391  3.3304  1.4611  0.8100
  684MOL0     H94371   1.891   3.959   1.556  1.6158 -0.7546 -1.9916
  684MOL0     H94372   1.302   4.154   2.546 -1.3229 -0.9221  1.4127
  684MOL0     H94373   1.388   4.131   2.788 -2.9066  0.9135 -0.8010
  684MOL0     H94374   1.725   3.965   3.046  1.6688 -1.6166  1.0364
  684MOL0     H94375   1.717   3.977   3.283 -0.9027  1.7142  1.3799
  684MOL0     H94376   2.076   3.596   2.860 -1.3728  1.6570  3.6912
  684MOL0     H94377   2.046   3.568   2.633 -0.2127  0.1175 -0.2663
  684MOL0     H94378   1.698   3.788   2.271 -0.8584 -0.4952 -0.6047
  684MOL0     H94379   1.656   3.766   2.020  0.1499  0.8943  0.9146
  684MOL0     H94380   1.947   3.565   1.814 -0.6692 -1.1706 -0.0021
  684MOL0     H94381   1.801   3.573   1.720 -0.2419  0.7712  0.5646
  684MOL0     H94382   2.018   3.789   1.699  1.3097 -0.3683 -1.1418
  684MOL0     H94383   1.883   3.746   1.584 -0.6918 -0.8299 -0.8062
  684MOL0     H94384   2.001   3.547   1.514  4.0726 -1.3498 -3.0062
  684MOL0     H94385   2.087   3.699   1.477  0.2756 -1.7168 -1.0354
  684MOL0     H94386   2.205   3.638   1.712  1.9446  0.0229 -1.0601
  684MOL0     H94387   2.268   3.603   1.557 -0.1546 -3.1118 -1.7236
  684MOL0     H94388   2.252   3.203   1.660  1.2928  0.2171 -1.3989
  684MOL0     H94389   2.070   3.680   1.965  1.6754  0.6793  3.9239
  684MOL0     H94390   2.175   3.653   2.271  0.3006  1.7780  2.0995
  684MOL0     H94391   2.218   3.694   2.102  0.0363 -0.7738  0.2961
  684MOL0     H94392   2.198   3.822   2.228 -1.4740 -0.1532  1.2388
  685MOL0     O94393   3.256   4.988   3.952 -0.1429  0.1174 -0.1653
  685MOL0     C94394   3.369   5.030   3.976 -0.5566 -0.6377 -0.5900
  685MOL0     O94395   3.433   5.033   4.100 -0.5639  0.1488 -0.5995
  685MOL0     C94396   3.378   4.988   4.221 -0.5090 -0.9620  0.2127
  685MOL0     C94397   3.455   5.008   4.329 -0.6371  0.0459 -0.9387
  685MOL0     C94398   3.422   4.958   4.453 -0.6412 -0.3131 -0.6003
  685MOL0     C94399   3.303   4.890   4.469  0.1813  1.3410 -0.9329
  685MOL0     O94400   3.257   4.857   4.598 -0.7261 -0.1760  0.0780
  685MOL0     C94401   3.128   4.849   4.633  0.5270  0.6370  0.3503
  685MOL0     C94402   3.050   4.987   4.620  0.8725  0.2209  0.0477
  685MOL0     C94403   2.898   4.972   4.588  0.2171  0.9367 -0.2410
  685MOL0     C94404   2.839   4.920   4.719 -0.1259  0.1455  0.0541
  685MOL0     C94405   2.688   4.867   4.720 -0.3786  0.1412 -0.1721
  685MOL0     C94406   2.653   4.763   4.609  0.5462 -0.2706  0.1668
  685MOL0     C94407   2.642   4.623   4.674  0.6852 -0.5522  0.4993
  685MOL0     C94408   2.773   4.550   4.706  0.3258 -0.5815 -0.2687
  685MOL0     N94409   2.749   4.417   4.768  1.1920 -0.2210  0.1612
  685MOL0     C94410   2.689   4.308   4.713  0.4249  0.5004  0.4376
  685MOL0     C94411   2.686   4.209   4.802 -0.2127 -0.0524 -0.0534
  685MOL0     C94412   2.643   4.066   4.779 -1.0383 -0.1261  0.3185
  685MOL0     C94413   2.495   4.043   4.800 -0.7211 -0.2586  0.0032
  685MOL0     C94414   2.409   4.039   4.679 -0.1396 -0.9962 -0.0681
  685MOL0     C94415   2.260   3.999   4.705 -0.5175  0.2722 -0.0557
  685MOL0     O94416   2.186   4.112   4.717  0.1608 -0.0085 -0.5608
  685MOL0     C94417   2.046   4.116   4.712 -0.4048 -1.5459 -0.3504
  685MOL0     C94418   1.966   4.012   4.741 -0.6223  0.0014  1.3472
  685MOL0     C94419   1.822   4.017   4.721 -1.0833 -0.3866 -0.4361
  685MOL0     C94420   1.756   3.887   4.758 -0.4749 -0.8928  0.6430
  685MOL0     C94421   1.765   4.142   4.683 -0.3608 -0.4084  0.0363
  685MOL0     C94422   1.625   4.166   4.654  0.3723 -0.0137  0.1678
  685MOL0     O94423   1.598   4.250   4.551 -0.2988 -0.0963  0.1012
  685MOL0     C94424   1.476   4.305   4.508 -0.4269 -0.2294 -0.0161
  685MOL0     C94425   1.358   4.307   4.580  0.0449 -0.7238 -0.9232
  685MOL0     C94426   1.234   4.351   4.526 -0.1690 -0.5809  0.4815
  685MOL0     C94427   1.236   4.404   4.393  0.2023  0.5428  0.0058
  685MOL0     O94428   1.118   4.446   4.333  0.6546  0.6919  0.1745
  685MOL0     C94429   1.116   4.531   4.220 -0.2805  0.0470 -0.4907
  685MOL0     C94430   0.982   4.604   4.220  0.1697 -0.8026 -0.5233
  685MOL0     C94431   0.849   4.529   4.185 -0.5965  0.0812  0.3246
  685MOL0     C94432   0.879   4.432   4.069  1.5207  0.5796  0.4384
  685MOL0     C94433   0.748   4.363   4.007 -0.2436 -0.5278  0.3437
  685MOL0     C94434   0.772   4.249   3.922  0.1226  0.0083 -0.3352
  685MOL0     C94435   0.857   4.283   3.793  0.4357 -0.7306 -0.6160
  685MOL0     C94436   0.815   4.181   3.682 -0.3585  1.0350 -0.1364
  685MOL0    Cl94437   0.646   4.225   3.640  0.4302  0.1421 -0.5888
  685MOL0     C94438   1.351   4.395   4.323 -0.4224  1.1431  0.2531
  685MOL0     C94439   1.469   4.344   4.370  0.7399 -0.2797 -0.5031
  685MOL0     O94440   1.540   4.102   4.706  0.1395  0.6422  0.2418
  685MOL0     C94441   1.845   4.251   4.672 -0.4747  0.7042 -0.7981
  685MOL0     C94442   1.986   4.238   4.691  0.3730  0.6335  0.0365
  685MOL0     N94443   2.714   4.271   4.918 -0.1080 -0.7420 -0.7648
  685MOL0     N94444   2.773   4.383   4.895 -0.0131 -0.2425 -0.2755
  685MOL0     C94445   3.227   4.864   4.365  0.0101  0.5832  0.2971
  685MOL0     C94446   3.260   4.922   4.244 -0.3681 -0.0446  1.2557
  685MOL0     C94447   3.448   5.090   3.864 -0.6655 -1.7738 -1.1699
  685MOL0     C94448   3.549   5.182   3.908  0.0222 -1.1605 -0.1976
  685MOL0     C94449   3.650   5.225   3.815 -0.5175  0.2296  0.1839
  685MOL0     C94450   3.633   5.196   3.678 -0.3006  1.7349 -0.1284
  685MOL0     O94451   3.740   5.237   3.607 -0.1749  0.8122  0.0680
  685MOL0     C94452   3.709   5.312   3.485  0.7366  0.4508  0.1656
  685MOL0     C94453   3.705   5.464   3.500  0.0131 -0.6514 -0.4820
  685MOL0     C94454   3.651   5.521   3.377 -0.6845 -0.4466  0.4060
  685MOL0     C94455   3.733   5.504   3.253  0.2172 -0.0837 -0.5165
  685MOL0     C94456   3.659   5.536   3.127  0.3392  0.8905 -0.5546
  685MOL0     C94457   3.603   5.537   3.022 -0.0386 -1.2670 -0.7789
  685MOL0     C94458   3.528   5.119   3.635 -0.2562  1.0558 -0.0148
  685MOL0     C94459   3.443   5.059   3.726  0.1474 -1.0300 -0.4836
  685MOL0     C94460   3.347   4.966   3.664  0.5740  0.0232  0.6036
  685MOL0     H94461   3.550   5.057   4.306 -0.2180 -1.0578 -1.6644
  685MOL0     H94462   3.493   4.961   4.535  0.5459 -1.7077 -1.5324
  685MOL0     H94463   3.125   4.816   4.737 -0.8745 -2.7608 -0.6349
  685MOL0     H94464   3.071   4.776   4.575 -1.3044  2.3399 -0.1170
  685MOL0     H94465   3.052   5.051   4.709 -1.5094 -1.0031  1.0737
  685MOL0     H94466   3.096   5.041   4.536  2.4329 -1.5878 -0.3202
  685MOL0     H94467   2.851   5.067   4.561 -2.0507 -0.1670 -0.3623
  685MOL0     H94468   2.887   4.902   4.505 -1.9214 -1.3131  1.7837
  685MOL0     H94469   2.891   4.833   4.759 -1.3549  0.4723  2.5406
  685MOL0     H94470   2.845   4.998   4.795 -0.0389  0.8977 -0.7093
  685MOL0     H94471   2.627   4.958   4.715 -1.7258 -0.4497  2.8525
  685MOL0     H94472   2.664   4.839   4.823 -0.5547 -0.6215 -0.4201
  685MOL0     H94473   2.553   4.788   4.574 -0.8222  1.0124  4.4343
  685MOL0     H94474   2.724   4.767   4.525  3.8531 -0.5047  2.7221
  685MOL0     H94475   2.572   4.562   4.617  0.2961  0.6536 -0.3521
  685MOL0     H94476   2.600   4.640   4.773  1.9585  0.6321  0.8659
  685MOL0     H94477   2.830   4.532   4.615  1.0147  0.1190  0.0175
  685MOL0     H94478   2.841   4.607   4.769 -1.2986 -0.0283  1.0548
  685MOL0     H94479   2.665   4.288   4.609  2.7751 -0.5597  0.0373
  685MOL0     H94480   2.696   4.015   4.861  0.8994  0.8905 -0.2396
  685MOL0     H94481   2.680   4.042   4.679 -0.9172  2.6919 -0.3937
  685MOL0     H94482   2.500   3.942   4.842  1.0115 -0.2638 -0.1627
  685MOL0     H94483   2.463   4.110   4.880 -1.4544  0.7820 -1.1327
  685MOL0     H94484   2.417   4.142   4.642  1.4917 -0.4291  1.7147
  685MOL0     H94485   2.453   3.964   4.612  1.1426  1.8303 -2.6446
  685MOL0     H94486   2.219   3.937   4.625 -0.1148 -0.9799  0.6794
  685MOL0     H94487   2.255   3.950   4.803  3.1002 -0.3259 -0.0387
  685MOL0     H94488   2.009   3.920   4.777 -2.7402 -1.1270  1.1311
  685MOL0     H94489   1.798   3.848   4.851  0.2874 -1.5108  0.0580
  685MOL0     H94490   1.766   3.807   4.685 -0.4727 -0.7413  0.4768
  685MOL0     H94491   1.651   3.898   4.785  0.3109  0.4865  3.5553
  685MOL0     H94492   1.353   4.262   4.679 -0.5782 -0.3769 -0.7880
  685MOL0     H94493   1.146   4.360   4.589 -0.8268 -0.0375 -0.4764
  685MOL0     H94494   1.199   4.603   4.221 -0.8467  0.7803 -2.0159
  685MOL0     H94495   1.134   4.486   4.122  0.6604 -0.5698 -0.0427
  685MOL0     H94496   0.970   4.648   4.320 -1.4029  0.5543 -1.2659
  685MOL0     H94497   0.986   4.690   4.152 -1.3147 -1.1389 -1.0621
  685MOL0     H94498   0.775   4.600   4.146 -0.4994 -0.1905 -0.3749
  685MOL0     H94499   0.823   4.471   4.274  2.7129  1.0242  2.0527
  685MOL0     H94500   0.934   4.348   4.112  0.2565  0.2407  1.4717
  685MOL0     H94501   0.931   4.482   3.986  1.2592 -1.3874 -0.9973
  685MOL0     H94502   0.690   4.334   4.095 -1.0656 -0.8761 -0.3078
  685MOL0     H94503   0.700   4.443   3.949 -4.7287 -0.4258  3.6657
  685MOL0     H94504   0.680   4.198   3.890  0.4920 -0.0638 -1.3100
  685MOL0     H94505   0.824   4.167   3.974  0.4911  0.9981  0.9061
  685MOL0     H94506   0.964   4.268   3.811  0.8159  3.0856  1.2652
  685MOL0     H94507   0.843   4.384   3.751 -1.0770  0.6365  2.8207
  685MOL0     H94508   0.821   4.076   3.711 -0.1987  0.5199 -1.9214
  685MOL0     H94509   0.888   4.194   3.602  2.5641 -0.3952  2.1011
  685MOL0     H94510   1.348   4.413   4.216 -0.1907 -2.6553 -0.5280
  685MOL0     H94511   1.561   4.343   4.314 -0.1562  2.1000 -2.1766
  685MOL0     H94512   1.808   4.351   4.651 -0.6918  0.4820 -1.5077
  685MOL0     H94513   2.039   4.327   4.661 -1.0213  1.3674 -0.3345
  685MOL0     H94514   3.139   4.800   4.370 -0.2138  0.9344  0.9543
  685MOL0     H94515   3.200   4.892   4.158 -0.5811  1.1953  0.9480
  685MOL0     H94516   3.556   5.217   4.011  2.0985 -2.1518  0.0562
  685MOL0     H94517   3.740   5.280   3.841  0.5064  0.4058 -3.2646
  685MOL0     H94518   3.791   5.284   3.419  1.8906  2.8231  0.4970
  685MOL0     H94519   3.622   5.272   3.431  0.5353  0.2003  0.6697
  685MOL0     H94520   3.803   5.511   3.518  0.1531  0.0761 -2.7332
  685MOL0     H94521   3.627   5.489   3.572 -0.9639 -0.9601 -1.4186
  685MOL0     H94522   3.556   5.476   3.347  0.8221 -1.7479 -2.8908
  685MOL0     H94523   3.641   5.627   3.401  3.2088  0.0496  0.4903
  685MOL0     H94524   3.764   5.401   3.236  5.8853  0.6480  2.8927
  685MOL0     H94525   3.823   5.566   3.247  0.5264 -0.5296 -0.4557
  685MOL0     H94526   3.567   5.547   2.922 -1.8552 -4.1979 -0.5587
  685MOL0     H94527   3.516   5.093   3.531 -2.5349 -1.9768  0.8659
  685MOL0     H94528   3.270   5.022   3.610  2.8684  1.9581 -0.8836
  685MOL0     H94529   3.389   4.890   3.596  1.3344  0.7867  0.1889
  685MOL0     H94530   3.304   4.898   3.738 -1.1245 -2.0317 -2.0788
  686MOL0     O94531   6.218   9.005   3.655 -0.4460 -0.2086 -0.2137
  686MOL0     C94532   6.214   9.108   3.728  0.4929  0.1767  0.0542
  686MOL0     O94533   6.182   9.105   3.863 -0.1555  0.3428  0.3750
  686MOL0     C94534   6.145   8.994   3.936  0.5553  1.0096 -0.1820
  686MOL0     C94535   6.184   8.969   4.069  0.7469 -0.9673  0.0519
  686MOL0     C94536   6.139   8.856   4.140 -0.4931 -0.3896 -0.0124
  686MOL0     C94537   6.060   8.754   4.066 -0.2277  0.8364 -0.2284
  686MOL0     O94538   6.016   8.629   4.114  0.5156 -0.2186  0.2477
  686MOL0     C94539   6.060   8.588   4.244 -0.0205  0.2286 -0.0712
  686MOL0     C94540   6.029   8.436   4.265  0.1961  0.1110 -0.1582
  686MOL0     C94541   6.097   8.377   4.390 -0.2926 -0.6127  1.0285
  686MOL0     C94542   6.074   8.444   4.530  0.3660 -0.8002  0.7895
  686MOL0     C94543   6.134   8.376   4.649 -0.4496 -0.5155  0.5527
  686MOL0     C94544   6.087   8.240   4.689  0.1577  0.7371 -0.2626
  686MOL0     C94545   6.140   8.184   4.819  0.0523 -0.0406 -0.1582
  686MOL0     C94546   6.071   8.063   4.866 -0.5713  0.6379 -0.8269
  686MOL0     N94547   6.153   7.996   4.963  0.4786  0.5182  0.2718
  686MOL0     C94548   6.277   7.936   4.930  0.3219  0.4351 -0.2333
  686MOL0     C94549   6.307   7.867   5.044 -0.1017 -0.4963 -0.3437
  686MOL0     C94550   6.429   7.795   5.082 -0.1881 -0.2346 -0.0457
  686MOL0     C94551   6.404   7.651   5.105 -0.0448  0.6349  0.0659
  686MOL0     C94552   6.522   7.557   5.056  0.1898 -0.4259  0.9146
  686MOL0     C94553   6.470   7.407   5.064  0.3974  0.2279  0.1687
  686MOL0     O94554   6.459   7.359   5.197 -0.6495 -0.0766 -0.2172
  686MOL0     C94555   6.570   7.352   5.282  0.6521  0.2773  0.3340
  686MOL0     C94556   6.653   7.234   5.278  0.3791  0.3027 -0.2139
  686MOL0     C94557   6.778   7.220   5.336  0.0176 -0.2989  0.0665
  686MOL0     C94558   6.867   7.102   5.299 -0.2931 -0.3990  0.0141
  686MOL0     C94559   6.823   7.328   5.418  0.5341 -0.5721 -0.7048
  686MOL0     C94560   6.956   7.335   5.478  0.1670 -0.2930  0.9971
  686MOL0     O94561   6.968   7.396   5.600  0.2533 -0.3116  0.6078
  686MOL0     C94562   7.084   7.451   5.620 -0.2831  0.1207  0.9365
  686MOL0     C94563   7.160   7.378   5.710  0.5620  1.2691 -0.4919
  686MOL0     C94564   7.271   7.443   5.771  0.1546 -0.7334 -1.3133
  686MOL0     C94565   7.302   7.581   5.753  0.3599  0.4926 -0.3932
  686MOL0     O94566   7.409   7.634   5.809 -0.0903  0.1843 -0.0407
  686MOL0     C94567   7.529   7.623   5.726  0.6403 -0.2092  0.6729
  686MOL0     C94568   7.580   7.764   5.689  0.6881  0.8977 -0.1363
  686MOL0     C94569   7.717   7.778   5.618  0.1862 -1.4564 -0.2366
  686MOL0     C94570   7.838   7.749   5.716 -0.1757  0.4128  0.3492
  686MOL0     C94571   7.974   7.821   5.676 -0.8398 -0.2458 -0.1511
  686MOL0     C94572   8.094   7.771   5.773 -0.6558  0.3518  0.4061
  686MOL0     C94573   8.222   7.860   5.771  0.1168 -0.6617  0.0157
  686MOL0     C94574   8.310   7.829   5.648  0.1275 -0.1756  0.3597
  686MOL0    Cl94575   8.391   7.665   5.656 -0.2610 -0.3644  0.3467
  686MOL0     C94576   7.233   7.649   5.660  0.1316 -0.3089 -0.5427
  686MOL0     C94577   7.117   7.589   5.595 -0.6094  0.5207  0.1403
  686MOL0     O94578   7.054   7.308   5.408  0.7095  0.5845 -0.1745
  686MOL0     C94579   6.725   7.432   5.444 -0.2413 -0.2579 -0.7401
  686MOL0     C94580   6.601   7.444   5.382 -0.6434 -0.0474  0.4216
  686MOL0     N94581   6.211   7.885   5.143 -0.6076  0.1417  0.8785
  686MOL0     N94582   6.124   7.970   5.093 -0.9218  0.1769 -0.3828
  686MOL0     C94583   6.020   8.782   3.936 -0.2419  0.4414  0.0601
  686MOL0     C94584   6.054   8.900   3.875 -1.2331  0.3390 -0.1406
  686MOL0     C94585   6.267   9.242   3.691  0.3103 -1.5364 -0.1136
  686MOL0     C94586   6.318   9.317   3.799  0.5340 -1.1380  0.6504
  686MOL0     C94587   6.349   9.451   3.780 -0.6742  0.4983  0.0847
  686MOL0     C94588   6.333   9.513   3.664 -0.3360  0.6527  0.3099
  686MOL0     O94589   6.351   9.654   3.670 -0.3700 -0.0932 -0.0510
  686MOL0     C94590   6.313   9.745   3.564  0.0939 -0.8599  0.6522
  686MOL0     C94591   6.309   9.883   3.614 -0.3469 -0.4061  0.5621
  686MOL0     C94592   6.341   9.995   3.508 -0.1168 -1.0044  0.4898
  686MOL0     C94593   6.492  10.027   3.490  0.4386  0.2824  0.3275
  686MOL0     C94594   6.518  10.163   3.427 -0.1157 -0.4586  0.2032
  686MOL0     C94595   6.539  10.276   3.390 -0.2550  0.1214  0.0987
  686MOL0     C94596   6.302   9.431   3.551  0.4595  0.1016  0.6845
  686MOL0     C94597   6.267   9.296   3.561 -0.1082 -0.4518 -0.8496
  686MOL0     C94598   6.245   9.229   3.433 -1.0645 -0.2021  0.2135
  686MOL0     H94599   6.247   9.047   4.110  0.6540 -0.3912 -0.8792
  686MOL0     H94600   6.156   8.833   4.244  1.4293  2.0059  0.3033
  686MOL0     H94601   6.021   8.648   4.327  1.2454 -0.2954  0.9388
  686MOL0     H94602   6.167   8.596   4.266  0.1268 -0.6561 -0.4198
  686MOL0     H94603   5.922   8.414   4.271 -0.0440  1.1823 -0.2374
  686MOL0     H94604   6.051   8.380   4.173 -0.7664  2.0627 -1.6678
  686MOL0     H94605   6.061   8.275   4.406 -0.1086 -0.5629  1.7860
  686MOL0     H94606   6.200   8.366   4.355 -0.5697  1.4829 -0.6382
  686MOL0     H94607   6.126   8.540   4.531  1.6700 -1.4858  2.4174
  686MOL0     H94608   5.967   8.459   4.550  0.4263 -1.2209  1.4632
  686MOL0     H94609   6.124   8.447   4.731  1.7102  0.2363  0.2198
  686MOL0     H94610   6.242   8.380   4.631 -0.5408  1.5365  0.1825
  686MOL0     H94611   5.977   8.245   4.692 -0.1175 -2.8766  0.9643
  686MOL0     H94612   6.102   8.179   4.599 -0.7542  0.4366 -0.2244
  686MOL0     H94613   6.149   8.254   4.903 -1.5722 -1.5800  1.3983
  686MOL0     H94614   6.240   8.156   4.785  0.1362  0.3042 -0.2054
  686MOL0     H94615   5.970   8.090   4.898 -0.4827 -0.0105  0.0582
  686MOL0     H94616   6.060   7.987   4.788  2.0406 -1.6667  0.8342
  686MOL0     H94617   6.324   7.941   4.832  0.6857  0.5478 -0.0576
  686MOL0     H94618   6.482   7.845   5.163 -0.1321 -0.4155  0.0299
  686MOL0     H94619   6.495   7.800   4.995  1.7855  2.2113  1.4766
  686MOL0     H94620   6.392   7.628   5.211 -0.3340 -3.8199 -0.7504
  686MOL0     H94621   6.312   7.627   5.051  1.4804 -4.6970 -0.7321
  686MOL0     H94622   6.546   7.580   4.951  1.0887  0.6163  1.3260
  686MOL0     H94623   6.612   7.576   5.115  0.0865  1.0638  0.6261
  686MOL0     H94624   6.365   7.410   5.031  0.2858  0.8913  0.5790
  686MOL0     H94625   6.515   7.329   5.002 -0.3168  2.8469 -4.0600
  686MOL0     H94626   6.629   7.151   5.213  0.5483 -0.4304  0.6406
  686MOL0     H94627   6.929   7.076   5.385 -0.3050 -2.4184 -0.5342
  686MOL0     H94628   6.935   7.110   5.214 -2.5962 -4.1161 -2.4782
  686MOL0     H94629   6.810   7.011   5.280  0.1209 -0.8530  0.8821
  686MOL0     H94630   7.136   7.273   5.723  4.5171  0.2432 -0.4363
  686MOL0     H94631   7.323   7.392   5.852 -1.0098 -1.1706 -0.8218
  686MOL0     H94632   7.612   7.580   5.784  1.2304  2.2858  1.7907
  686MOL0     H94633   7.523   7.560   5.637  3.0409  1.2856 -0.6687
  686MOL0     H94634   7.496   7.798   5.629 -0.1762  0.2095  0.6669
  686MOL0     H94635   7.566   7.824   5.779 -1.1729  0.3182 -0.0156
  686MOL0     H94636   7.726   7.882   5.586  4.4375  0.1656  4.7381
  686MOL0     H94637   7.718   7.707   5.535 -1.3006 -1.3681 -0.3504
  686MOL0     H94638   7.849   7.640   5.721  3.0661  0.6593  0.7666
  686MOL0     H94639   7.816   7.778   5.819 -1.2524  1.4973 -0.1673
  686MOL0     H94640   8.010   7.804   5.575 -0.5266  0.3797 -0.1514
  686MOL0     H94641   7.967   7.929   5.694 -0.2942 -0.4079  1.1422
  686MOL0     H94642   8.107   7.672   5.730 -0.9918 -0.3143  1.7633
  686MOL0     H94643   8.055   7.761   5.875 -0.3837 -1.9723  0.3340
  686MOL0     H94644   8.289   7.840   5.856 -0.5322  0.7881  0.9076
  686MOL0     H94645   8.192   7.964   5.786 -3.2757 -1.8077  2.6305
  686MOL0     H94646   8.388   7.906   5.644 -0.1524  0.0915 -0.0031
  686MOL0     H94647   8.242   7.836   5.562  1.5232 -1.1908 -0.8697
  686MOL0     H94648   7.263   7.751   5.642  1.5491 -0.6937 -0.4750
  686MOL0     H94649   7.046   7.638   5.529 -2.4482 -3.1569 -0.8925
  686MOL0     H94650   6.743   7.517   5.509  0.6644 -0.2151 -1.0262
  686MOL0     H94651   6.529   7.518   5.412 -1.6060  0.6413 -3.0574
  686MOL0     H94652   5.957   8.705   3.893 -0.1008  0.0250  0.5797
  686MOL0     H94653   6.012   8.919   3.776  0.3533  1.8020 -0.5925
  686MOL0     H94654   6.322   9.288   3.904  0.4906  1.2000  1.3491
  686MOL0     H94655   6.382   9.498   3.872  0.6970 -0.2759  0.0096
  686MOL0     H94656   6.380   9.739   3.478  1.4112 -1.0903  1.6585
  686MOL0     H94657   6.207   9.740   3.538  0.1903  2.7507 -1.0678
  686MOL0     H94658   6.380   9.904   3.695  2.1693 -0.4331 -1.4962
  686MOL0     H94659   6.210   9.906   3.653 -0.7794  0.0232 -0.7437
  686MOL0     H94660   6.300   9.967   3.411  2.1367  0.0598 -0.8299
  686MOL0     H94661   6.291  10.085   3.545 -0.9664 -1.9690  1.7976
  686MOL0     H94662   6.532   9.946   3.429  1.2345 -0.9123  2.3188
  686MOL0     H94663   6.546  10.013   3.585 -0.1858 -1.2738  0.4814
  686MOL0     H94664   6.553  10.374   3.348 -1.2113 -0.4744 -1.7283
  686MOL0     H94665   6.289   9.478   3.454  0.7916 -1.1706 -0.0032
  686MOL0     H94666   6.246   9.300   3.350  0.3258  0.6265  0.8979
  686MOL0     H94667   6.336   9.171   3.412  0.5462  2.6535 -1.1923
  686MOL0     H94668   6.167   9.154   3.421  0.8359 -2.1352 -0.8603
  687MOL0     O94669   9.244   5.404   2.209  0.2562 -0.7190  0.2038
  687MOL0     C94670   9.219   5.505   2.265 -0.1624  0.5901  0.6852
  687MOL0     O94671   9.091   5.561   2.265 -0.6702 -0.1656  0.4014
  687MOL0     C94672   9.002   5.534   2.163  0.2480 -0.9340  1.2325
  687MOL0     C94673   8.875   5.473   2.171 -1.1947  0.3464 -0.0365
  687MOL0     C94674   8.767   5.491   2.086 -0.5910  1.1898  0.1508
  687MOL0     C94675   8.791   5.552   1.956 -0.2124 -0.0918 -0.2414
  687MOL0     O94676   8.687   5.568   1.870  0.0929  0.5964 -0.1260
  687MOL0     C94677   8.700   5.677   1.781  0.7844  1.1476  0.5594
  687MOL0     C94678   8.556   5.711   1.719  0.8232  1.1720 -0.4826
  687MOL0     C94679   8.445   5.720   1.825  0.2976  0.4538  0.3733
  687MOL0     C94680   8.345   5.594   1.813 -0.4116  0.3659  0.0063
  687MOL0     C94681   8.236   5.622   1.709 -0.2632  0.4951  1.0092
  687MOL0     C94682   8.102   5.662   1.780 -0.3751 -0.2017  0.0612
  687MOL0     C94683   7.985   5.706   1.684  0.2894  0.1746 -0.0845
  687MOL0     C94684   7.933   5.586   1.620  0.8399  0.4586 -0.0082
  687MOL0     N94685   7.985   5.570   1.481  0.7959  0.1453  0.2546
  687MOL0     C94686   7.993   5.445   1.435  0.3507 -0.3584  0.4859
  687MOL0     C94687   8.042   5.453   1.310 -0.2372 -0.6784 -1.1848
  687MOL0     C94688   8.061   5.348   1.206  0.1427 -0.5112 -0.8142
  687MOL0     C94689   8.026   5.205   1.236 -0.3416  0.5187 -0.5959
  687MOL0     C94690   8.091   5.110   1.129 -0.6385 -1.1513 -0.1755
  687MOL0     C94691   8.027   4.976   1.111 -1.0803 -0.7773  0.1950
  687MOL0     O94692   8.102   4.897   1.012 -0.1259  0.5010 -0.7053
  687MOL0     C94693   8.210   4.822   1.050 -0.1407 -0.0833  0.3747
  687MOL0     C94694   8.261   4.752   0.944 -0.0077 -0.0896  1.1824
  687MOL0     C94695   8.381   4.660   0.961  0.4932  0.0987  0.0188
  687MOL0     C94696   8.403   4.585   0.830  0.2729  0.0193  0.1663
  687MOL0     C94697   8.453   4.671   1.078  0.3260  0.2646  0.2204
  687MOL0     C94698   8.569   4.575   1.095  0.0905  0.1948  0.2478
  687MOL0     O94699   8.589   4.562   1.233 -0.1390  0.8310  0.6635
  687MOL0     C94700   8.725   4.559   1.268 -0.0195 -1.8721 -0.4843
  687MOL0     C94701   8.812   4.676   1.259 -0.5396  0.3386  0.0060
  687MOL0     C94702   8.951   4.659   1.288 -0.0658 -0.8960 -0.4428
  687MOL0     C94703   9.007   4.539   1.330  0.4824  0.2876 -0.6263
  687MOL0     O94704   9.137   4.516   1.347 -0.1596 -0.3236 -0.6496
  687MOL0     C94705   9.212   4.633   1.390  0.3379  0.2797  0.2697
  687MOL0     C94706   9.351   4.592   1.434 -0.3606 -0.1329  0.2155
  687MOL0     C94707   9.437   4.526   1.332 -0.4750  0.2031  0.1000
  687MOL0     C94708   9.474   4.372   1.340  0.8520  0.4601  0.7373
  687MOL0     C94709   9.538   4.320   1.207  0.1140  0.1803  0.4356
  687MOL0     C94710   9.644   4.419   1.138 -0.7665  0.0276  0.8563
  687MOL0     C94711   9.724   4.353   1.025 -0.4275  0.4896 -1.1390
  687MOL0     C94712   9.681   4.395   0.877  0.0423 -0.9205 -0.0483
  687MOL0    Cl94713   9.805   4.309   0.766  1.0850 -0.2620 -0.0535
  687MOL0     C94714   8.918   4.433   1.351  0.3284 -0.1912  0.0281
  687MOL0     C94715   8.781   4.446   1.316  0.4424  1.2819  0.0708
  687MOL0     O94716   8.648   4.535   1.004  0.8135  0.0197  0.4480
  687MOL0     C94717   8.404   4.746   1.187 -0.2022  0.0742  0.2523
  687MOL0     C94718   8.286   4.825   1.168  0.0849  0.7526  0.6186
  687MOL0     N94719   8.076   5.584   1.291  0.1857  0.2137 -0.1207
  687MOL0     N94720   8.046   5.659   1.390 -0.0967  0.8589  0.7481
  687MOL0     C94721   8.924   5.600   1.937 -0.3423  0.3555 -0.1957
  687MOL0     C94722   9.015   5.600   2.042 -0.6506  0.4526  0.1149
  687MOL0     C94723   9.323   5.587   2.341  0.2004 -0.1059  0.8635
  687MOL0     C94724   9.296   5.725   2.361 -0.4457  0.1559 -0.7063
  687MOL0     C94725   9.402   5.818   2.404 -0.1768 -1.1765 -0.4041
  687MOL0     C94726   9.527   5.771   2.447  0.2726 -0.8778  0.4882
  687MOL0     O94727   9.626   5.864   2.486  0.2242 -0.6168 -0.1692
  687MOL0     C94728   9.737   5.842   2.568  1.4733  1.2327 -0.6846
  687MOL0     C94729   9.841   5.949   2.582  0.6671 -0.5912 -1.0967
  687MOL0     C94730   9.889   5.988   2.432  0.0097  0.0899  0.5451
  687MOL0     C94731   9.996   5.907   2.354  0.9143 -0.0480  0.0530
  687MOL0     C94732   9.930   5.784   2.293  0.4048 -1.1711  0.4947
  687MOL0     C94733   9.871   5.688   2.240  0.5516 -0.0480 -0.3891
  687MOL0     C94734   9.545   5.630   2.451  0.2080 -0.5131 -0.1830
  687MOL0     C94735   9.449   5.544   2.386 -0.4336  0.2221  0.7884
  687MOL0     C94736   9.487   5.400   2.367  0.5221  0.2022 -0.1187
  687MOL0     H94737   8.874   5.415   2.263  1.1143 -0.4987 -0.4836
  687MOL0     H94738   8.671   5.457   2.125 -1.4867  4.1355  0.7605
  687MOL0     H94739   8.771   5.634   1.711 -0.2364  2.5040 -1.3893
  687MOL0     H94740   8.741   5.765   1.830  1.6650  0.9643  0.1644
  687MOL0     H94741   8.550   5.805   1.664 -1.1623  1.2555 -0.1903
  687MOL0     H94742   8.531   5.626   1.654  1.2818  1.3163 -0.8554
  687MOL0     H94743   8.480   5.724   1.928 -1.3678  0.7529  0.9618
  687MOL0     H94744   8.390   5.813   1.807  2.4443  1.4789 -1.3454
  687MOL0     H94745   8.397   5.503   1.783 -2.7546 -1.7527  2.0044
  687MOL0     H94746   8.307   5.569   1.912  2.1604 -2.4162  0.4322
  687MOL0     H94747   8.229   5.527   1.656  2.0044  0.4757  0.6177
  687MOL0     H94748   8.269   5.695   1.633 -2.5819 -1.0356 -1.6254
  687MOL0     H94749   8.076   5.578   1.845  4.4989 -3.3028 -1.4456
  687MOL0     H94750   8.136   5.743   1.844  1.4440 -1.0629  0.2385
  687MOL0     H94751   8.019   5.786   1.617 -1.5365  0.0481 -1.2633
  687MOL0     H94752   7.905   5.742   1.750 -1.5655 -4.3226  0.4601
  687MOL0     H94753   7.952   5.507   1.694  0.0320  1.8762  1.7989
  687MOL0     H94754   7.824   5.599   1.620  0.4972 -1.9508  0.3144
  687MOL0     H94755   7.955   5.358   1.488 -1.2772 -0.0203 -0.0777
  687MOL0     H94756   8.167   5.351   1.182  1.6349 -7.6418  2.2862
  687MOL0     H94757   8.006   5.382   1.118 -0.0600 -0.8059 -0.8046
  687MOL0     H94758   8.065   5.172   1.333 -0.2017 -1.8138 -1.3804
  687MOL0     H94759   7.918   5.195   1.228 -0.3635  1.6997 -2.5673
  687MOL0     H94760   8.088   5.155   1.029 -1.2097 -4.2356 -1.6670
  687MOL0     H94761   8.195   5.102   1.163 -0.1288  3.1312 -0.2251
  687MOL0     H94762   8.032   4.921   1.205 -0.2200 -0.2008  0.4968
  687MOL0     H94763   7.923   4.990   1.079 -0.7330  0.0115 -0.6462
  687MOL0     H94764   8.217   4.764   0.846  0.0555  0.1634  1.1841
  687MOL0     H94765   8.444   4.653   0.754 -0.1608  0.9142  0.7223
  687MOL0     H94766   8.306   4.565   0.784  0.0661  2.7675 -0.7755
  687MOL0     H94767   8.466   4.495   0.833 -0.8049 -0.8666 -1.8397
  687MOL0     H94768   8.766   4.765   1.216  0.6438  1.6212  1.2760
  687MOL0     H94769   9.013   4.744   1.261  0.2976 -0.5428  1.3906
  687MOL0     H94770   9.216   4.704   1.306 -6.2207 -1.0012 -1.7088
  687MOL0     H94771   9.156   4.671   1.475 -3.0369 -2.9973 -0.2627
  687MOL0     H94772   9.393   4.687   1.468 -1.8761  1.0330 -1.0139
  687MOL0     H94773   9.337   4.525   1.520  0.3468 -0.7734 -0.1617
  687MOL0     H94774   9.533   4.578   1.340  1.2108 -2.7979  1.1970
  687MOL0     H94775   9.405   4.547   1.230 -0.4505  0.5102  0.1538
  687MOL0     H94776   9.389   4.309   1.368  0.5275  0.2492 -0.6133
  687MOL0     H94777   9.548   4.356   1.419 -1.1188 -0.5878  2.4616
  687MOL0     H94778   9.592   4.233   1.244  0.6888  2.2559  5.3062
  687MOL0     H94779   9.459   4.305   1.133 -1.0641 -1.1592  1.8960
  687MOL0     H94780   9.717   4.454   1.211  0.0505  2.5445 -1.0288
  687MOL0     H94781   9.592   4.504   1.094  2.6637  1.5468 -0.6229
  687MOL0     H94782   9.714   4.244   1.024  1.2413  0.2004  2.0929
  687MOL0     H94783   9.830   4.378   1.033 -0.0122 -1.7098  3.4257
  687MOL0     H94784   9.711   4.500   0.865  2.7925 -1.4789  1.0288
  687MOL0     H94785   9.579   4.378   0.842  1.2786  0.6014 -5.1994
  687MOL0     H94786   8.974   4.345   1.380  2.9087  1.9834  2.1227
  687MOL0     H94787   8.706   4.368   1.321 -0.7638  2.4395  3.4089
  687MOL0     H94788   8.474   4.761   1.269  0.5957 -0.1296 -0.3825
  687MOL0     H94789   8.256   4.893   1.248 -2.8034  1.3062 -0.7865
  687MOL0     H94790   8.951   5.655   1.847 -0.7676 -0.4058 -0.7964
  687MOL0     H94791   9.112   5.642   2.014 -0.9077  0.7911 -0.2917
  687MOL0     H94792   9.207   5.769   2.317  1.1709  2.5013 -1.8642
  687MOL0     H94793   9.387   5.925   2.407 -0.3251 -1.2155  0.3594
  687MOL0     H94794   9.711   5.819   2.672  1.7447 -1.8563 -1.2084
  687MOL0     H94795   9.779   5.748   2.533  0.2403 -0.1394  1.2974
  687MOL0     H94796   9.916   5.911   2.653 -0.0428 -1.0331 -0.5720
  687MOL0     H94797   9.785   6.034   2.622  1.0942 -0.6608 -0.3118
  687MOL0     H94798   9.801   6.013   2.371 -0.7673 -2.5637  0.4606
  687MOL0     H94799   9.941   6.084   2.442  1.8119 -0.8673  0.5714
  687MOL0     H94800  10.073   5.874   2.424  0.7709 -1.8922 -0.6066
  687MOL0     H94801  10.043   5.957   2.269  0.5743 -4.1198 -2.8212
  687MOL0     H94802   9.821   5.609   2.188  1.1470 -0.4567 -0.3413
  687MOL0     H94803   9.637   5.591   2.493  1.4625  1.6053 -0.8581
  687MOL0     H94804   9.563   5.364   2.437  3.3227  2.3699 -1.8678
  687MOL0     H94805   9.397   5.348   2.402 -1.4346  2.4701 -1.4931
  687MOL0     H94806   9.515   5.392   2.262 -0.5560 -2.0526 -0.3011
  688MOL0     O94807   2.821   4.106   1.786 -0.0099  0.0588  0.2495
  688MOL0     C94808   2.911   4.134   1.869  0.1041  0.9868 -0.9336
  688MOL0     O94809   2.886   4.169   1.994 -0.7288  0.2777  0.3548
  688MOL0     C94810   2.763   4.192   2.058  0.1457  0.0827 -1.2440
  688MOL0     C94811   2.680   4.084   2.079  0.7236  0.5750  1.0855
  688MOL0     C94812   2.567   4.092   2.149 -0.2171 -0.9875  0.1076
  688MOL0     C94813   2.522   4.215   2.206  0.2020  0.2544 -0.7211
  688MOL0     O94814   2.404   4.242   2.275  0.3087  0.0610 -0.5058
  688MOL0     C94815   2.326   4.124   2.309 -0.1521 -0.3535  0.4130
  688MOL0     C94816   2.202   4.173   2.396  0.7169  0.2371  0.6832
  688MOL0     C94817   2.094   4.235   2.313 -0.4450  0.0798  0.6620
  688MOL0     C94818   2.009   4.138   2.235 -0.2448 -0.5900 -0.0452
  688MOL0     C94819   1.948   4.200   2.113  0.3610 -0.5862 -0.3086
  688MOL0     C94820   2.050   4.253   2.013  1.2441 -0.3337 -0.2075
  688MOL0     C94821   2.006   4.244   1.860  0.2941 -0.7080  0.3775
  688MOL0     C94822   2.011   4.108   1.798 -0.1497  1.0957  0.2928
  688MOL0     N94823   2.139   4.049   1.816 -0.5158  0.3777 -0.1199
  688MOL0     C94824   2.260   4.093   1.762  0.4431 -0.0534  0.9407
  688MOL0     C94825   2.349   3.999   1.801  0.8838  0.6775 -0.2081
  688MOL0     C94826   2.493   3.990   1.762 -1.0265  0.5794  0.3686
  688MOL0     C94827   2.498   3.894   1.643  0.8658 -1.0890 -0.1110
  688MOL0     C94828   2.642   3.883   1.600 -0.2733 -0.0445  0.5526
  688MOL0     C94829   2.668   3.814   1.468  0.0095  0.5889 -0.0321
  688MOL0     O94830   2.614   3.677   1.466 -0.0618  0.5325  0.1315
  688MOL0     C94831   2.724   3.586   1.441 -0.2232  0.6142  0.2220
  688MOL0     C94832   2.707   3.496   1.333  0.0812 -0.0527 -0.9079
  688MOL0     C94833   2.816   3.423   1.285 -0.2272 -0.0494 -0.1536
  688MOL0     C94834   2.805   3.359   1.152 -0.2920 -0.3287 -0.0574
  688MOL0     C94835   2.940   3.429   1.358  0.1997 -0.8564 -0.1232
  688MOL0     C94836   3.056   3.379   1.298 -0.0228  0.6879 -0.1830
  688MOL0     O94837   3.127   3.467   1.223  0.0960 -0.1525  0.1926
  688MOL0     C94838   3.262   3.441   1.208 -0.7518 -0.9873 -0.9577
  688MOL0     C94839   3.344   3.443   1.320  1.2723  0.4937  0.6975
  688MOL0     C94840   3.486   3.411   1.314 -0.4178  0.4073  0.6715
  688MOL0     C94841   3.535   3.383   1.184 -0.0002  0.0036  0.1920
  688MOL0     O94842   3.657   3.350   1.152  0.2327  1.2178 -0.5239
  688MOL0     C94843   3.756   3.333   1.252  0.3529  1.0484 -1.4315
  688MOL0     C94844   3.884   3.278   1.189  0.0253  0.0280 -0.5822
  688MOL0     C94845   3.984   3.245   1.298 -0.6595  0.0349 -0.4707
  688MOL0     C94846   4.126   3.269   1.252 -0.1349  0.2805  0.8364
  688MOL0     C94847   4.224   3.231   1.366  0.0958  0.5685 -0.6055
  688MOL0     C94848   4.358   3.195   1.311 -1.0782  0.0302 -0.1282
  688MOL0     C94849   4.433   3.096   1.399  0.3735 -1.1858  0.4061
  688MOL0     C94850   4.581   3.095   1.358 -0.0922  0.2130  1.0656
  688MOL0    Cl94851   4.577   3.012   1.204 -0.5981  0.0201 -0.0872
  688MOL0     C94852   3.452   3.396   1.085  0.1533 -0.6364 -0.4427
  688MOL0     C94853   3.316   3.424   1.088 -0.0722 -0.6005 -0.2879
  688MOL0     O94854   3.082   3.262   1.326  0.2692  0.2628 -1.0160
  688MOL0     C94855   2.950   3.511   1.473  0.3913  0.3504 -0.4871
  688MOL0     C94856   2.844   3.598   1.514 -0.5120  0.2043  0.0830
  688MOL0     N94857   2.284   3.909   1.887 -0.3657 -0.3986  0.5956
  688MOL0     N94858   2.157   3.931   1.887 -0.0142 -1.2039 -0.3621
  688MOL0     C94859   2.598   4.326   2.177  0.5097 -0.2096  0.4684
  688MOL0     C94860   2.727   4.317   2.110 -0.5278  0.9621  0.7071
  688MOL0     C94861   3.054   4.146   1.833  0.6822  1.1957  0.5711
  688MOL0     C94862   3.137   4.232   1.899  0.1119  0.4874  0.5241
  688MOL0     C94863   3.275   4.223   1.879  0.0759  0.1532 -0.1397
  688MOL0     C94864   3.336   4.151   1.779  0.7771 -0.6409  0.0101
  688MOL0     O94865   3.475   4.152   1.770  0.5109 -1.1983 -0.5523
  688MOL0     C94866   3.537   4.093   1.660 -0.3857  0.0315  1.1858
  688MOL0     C94867   3.692   4.083   1.695  0.4967  0.2396 -0.5636
  688MOL0     C94868   3.748   3.958   1.622 -0.0905  0.6529 -0.5825
  688MOL0     C94869   3.900   3.965   1.659 -0.8812 -0.4895  0.3625
  688MOL0     C94870   3.957   3.839   1.601  0.3248  0.2461  0.7211
  688MOL0     C94871   4.010   3.739   1.545  0.2692 -0.3551  0.1430
  688MOL0     C94872   3.250   4.077   1.701 -1.0954 -0.1959 -0.0828
  688MOL0     C94873   3.112   4.076   1.725 -0.1331  0.0196  1.0211
  688MOL0     C94874   3.033   4.004   1.623  0.3473  0.5370  0.1865
  688MOL0     H94875   2.696   3.986   2.034  1.8573 -0.1583  2.9734
  688MOL0     H94876   2.507   4.001   2.143  1.5075 -2.0759 -1.9498
  688MOL0     H94877   2.390   4.053   2.363  0.7994  1.1491  1.3546
  688MOL0     H94878   2.292   4.077   2.217 -0.7048  0.3474  0.2517
  688MOL0     H94879   2.184   4.091   2.466  3.4511 -0.3744  0.8165
  688MOL0     H94880   2.250   4.258   2.445 -0.2183  0.0961  1.8649
  688MOL0     H94881   2.019   4.273   2.383 -0.0810 -0.5531  1.4155
  688MOL0     H94882   2.139   4.308   2.245 -1.7072  0.7074  0.4806
  688MOL0     H94883   2.076   4.057   2.204  0.1286 -0.6475  0.9090
  688MOL0     H94884   1.929   4.090   2.293  0.6569 -1.4857  0.4801
  688MOL0     H94885   1.879   4.274   2.155  0.4575 -1.1832  0.9555
  688MOL0     H94886   1.879   4.135   2.058 -2.6089  0.4010  1.9167
  688MOL0     H94887   2.073   4.357   2.039 -2.1298  0.3720  0.3965
  688MOL0     H94888   2.147   4.205   2.029  0.7701 -0.7022  1.7135
  688MOL0     H94889   2.056   4.321   1.800 -1.5281 -1.0893 -1.7436
  688MOL0     H94890   1.897   4.253   1.862  0.3982  2.6737  3.7564
  688MOL0     H94891   1.933   4.048   1.845  0.3756 -0.9266 -1.2611
  688MOL0     H94892   2.005   4.112   1.689  3.5735  1.2935 -0.0230
  688MOL0     H94893   2.289   4.171   1.693 -1.7448  2.2450  2.4015
  688MOL0     H94894   2.540   3.947   1.851  0.3226 -0.2038 -0.6861
  688MOL0     H94895   2.532   4.089   1.737  1.3254 -0.8506 -2.2203
  688MOL0     H94896   2.453   3.799   1.673  0.2734 -0.9615 -0.5740
  688MOL0     H94897   2.437   3.947   1.568  0.6057  1.5264  1.8042
  688MOL0     H94898   2.689   3.981   1.594 -1.6041  0.6626  1.1178
  688MOL0     H94899   2.703   3.837   1.678  0.5367 -2.2952 -1.2935
  688MOL0     H94900   2.617   3.863   1.384 -0.6042 -1.3402 -0.8392
  688MOL0     H94901   2.774   3.822   1.441 -0.1719  2.8157 -0.2717
  688MOL0     H94902   2.605   3.483   1.296 -1.8592  2.0105  3.0629
  688MOL0     H94903   2.703   3.375   1.117  0.4245  1.5303 -1.5530
  688MOL0     H94904   2.824   3.252   1.155 -0.7862 -0.5094 -1.8083
  688MOL0     H94905   2.885   3.389   1.083  1.0429  1.6461  2.1964
  688MOL0     H94906   3.303   3.468   1.418 -0.1837  1.3739 -0.1013
  688MOL0     H94907   3.546   3.395   1.403 -0.1076 -2.0396  0.0964
  688MOL0     H94908   3.778   3.427   1.303 -2.6489 -0.2240  2.8217
  688MOL0     H94909   3.719   3.265   1.330  1.6454 -0.2438 -1.9140
  688MOL0     H94910   3.857   3.182   1.143 -2.3679  0.1603  0.4235
  688MOL0     H94911   3.927   3.342   1.112 -0.3666  1.3826  0.2922
  688MOL0     H94912   3.980   3.140   1.329  5.2669 -1.1585 -2.3523
  688MOL0     H94913   3.967   3.310   1.385  1.1693  0.1660 -0.1587
  688MOL0     H94914   4.149   3.374   1.231 -1.3023  0.0721 -1.8948
  688MOL0     H94915   4.134   3.207   1.162  0.5916  1.9563 -0.3081
  688MOL0     H94916   4.227   3.302   1.449 -2.0774 -0.4092  0.3753
  688MOL0     H94917   4.185   3.140   1.412 -0.6728  1.8151  1.3284
  688MOL0     H94918   4.413   3.289   1.294 -0.7846  0.1477  1.3251
  688MOL0     H94919   4.345   3.153   1.211 -1.6067  1.0580 -0.5072
  688MOL0     H94920   4.368   3.007   1.398 -1.0635 -0.2268 -2.2496
  688MOL0     H94921   4.428   3.119   1.506  1.1319 -2.2372  0.6835
  688MOL0     H94922   4.634   3.035   1.432  4.7807  0.6707 -1.6277
  688MOL0     H94923   4.618   3.197   1.346  2.3447 -0.6511  0.7766
  688MOL0     H94924   3.500   3.370   0.991  0.4066  1.0019 -0.8031
  688MOL0     H94925   3.256   3.408   0.999 -0.5085 -0.7926  0.0382
  688MOL0     H94926   3.042   3.508   1.530 -2.4321  0.5951  4.6468
  688MOL0     H94927   2.861   3.677   1.586  0.6617  1.8179 -1.8667
  688MOL0     H94928   2.576   4.428   2.206  2.3509  0.1356  0.8174
  688MOL0     H94929   2.801   4.393   2.088  0.6362 -0.1720  0.5823
  688MOL0     H94930   3.093   4.308   1.962 -3.3506  1.4651 -2.6631
  688MOL0     H94931   3.339   4.272   1.952 -1.2970 -0.5634  1.6243
  688MOL0     H94932   3.498   3.992   1.646 -0.1837 -0.9720  6.0359
  688MOL0     H94933   3.513   4.143   1.566  0.6375  1.5199  1.6738
  688MOL0     H94934   3.699   4.087   1.804 -0.5668  2.1390 -0.5090
  688MOL0     H94935   3.735   4.179   1.666  2.1513 -0.1860  0.3802
  688MOL0     H94936   3.698   3.870   1.661 -1.5710  2.6694  2.4689
  688MOL0     H94937   3.732   3.952   1.514 -0.4127 -3.6435 -0.4574
  688MOL0     H94938   3.921   3.972   1.766 -0.7769 -0.1123  0.3197
  688MOL0     H94939   3.948   4.053   1.614  1.0229 -1.1948  0.9417
  688MOL0     H94940   4.061   3.666   1.485  0.9504 -1.1571  1.6553
  688MOL0     H94941   3.291   4.030   1.613 -2.2919 -0.2033 -0.6549
  688MOL0     H94942   2.954   4.068   1.583  2.7772  2.7922 -1.3642
  688MOL0     H94943   3.094   3.963   1.543 -2.4401 -2.8453 -0.4291
  688MOL0     H94944   2.989   3.920   1.676 -1.5854  1.9523  0.9387
  689MOL0     O94945   8.577   1.354   8.273 -0.4265  0.1233 -0.4071
  689MOL0     C94946   8.661   1.264   8.278 -0.2348  0.0423 -0.2614
  689MOL0     O94947   8.731   1.242   8.391 -0.6850 -0.1238 -0.7740
  689MOL0     C94948   8.730   1.323   8.503  0.0931 -0.1137  0.2937
  689MOL0     C94949   8.845   1.376   8.553 -0.0896 -0.3805  0.7254
  689MOL0     C94950   8.852   1.458   8.668 -0.2244  0.9057  0.3297
  689MOL0     C94951   8.736   1.486   8.737  0.1460 -0.1278  0.4113
  689MOL0     O94952   8.743   1.557   8.847  0.2975 -0.2272  0.0019
  689MOL0     C94953   8.651   1.553   8.953 -0.4803 -0.4882  0.0130
  689MOL0     C94954   8.718   1.635   9.071  0.6043  0.4789 -0.4309
  689MOL0     C94955   8.619   1.672   9.182 -0.7033  0.2374  0.2938
  689MOL0     C94956   8.525   1.786   9.160  0.4404 -0.3318  0.3888
  689MOL0     C94957   8.450   1.803   9.285 -0.9082  0.2307  0.1380
  689MOL0     C94958   8.406   1.954   9.309  0.3929  0.6146 -0.4388
  689MOL0     C94959   8.357   1.990   9.454  0.8574  0.3986 -0.6729
  689MOL0     C94960   8.318   2.129   9.451  0.0864 -1.2308  0.2696
  689MOL0     N94961   8.301   2.182   9.589  0.3826  0.2304  1.0259
  689MOL0     C94962   8.184   2.148   9.666 -0.7147  0.1157  0.5594
  689MOL0     C94963   8.176   2.239   9.765  0.2708 -0.2259  0.3161
  689MOL0     C94964   8.069   2.242   9.870  0.4575 -0.7187  0.5571
  689MOL0     C94965   8.097   2.137   9.979  0.2774 -1.1023  0.2706
  689MOL0     C94966   8.002   2.169  10.100 -0.2944  0.2690 -0.5010
  689MOL0     C94967   8.066   2.284  10.179 -0.1411 -0.5643  0.7016
  689MOL0     O94968   8.115   2.249  10.309  0.5899 -0.7417  0.2230
  689MOL0     C94969   8.031   2.209  10.414  0.5441  0.2366  0.4252
  689MOL0     C94970   8.090   2.152  10.525 -1.0005 -1.1765 -0.0154
  689MOL0     C94971   8.018   2.114  10.639 -1.0246 -0.1503 -1.0005
  689MOL0     C94972   8.091   2.093  10.771 -0.7539  0.0787  0.4418
  689MOL0     C94973   7.877   2.128  10.636 -0.8090 -0.1718 -1.4332
  689MOL0     C94974   7.791   2.095  10.759  0.9015  1.1443  0.2130
  689MOL0     O94975   7.686   2.186  10.793  0.1329  0.3301 -0.7939
  689MOL0     C94976   7.596   2.142  10.887  0.2999  0.1460 -0.4073
  689MOL0     C94977   7.474   2.085  10.850 -0.6882  0.7153  0.5613
  689MOL0     C94978   7.387   2.023  10.946 -0.3195 -0.5855 -0.5400
  689MOL0     C94979   7.430   2.025  11.083 -1.0563  0.5016  0.2436
  689MOL0     O94980   7.342   1.973  11.178  0.5995  0.2864 -0.4811
  689MOL0     C94981   7.214   1.909  11.148  0.2674  0.2321  0.1149
  689MOL0     C94982   7.130   1.879  11.264  0.0634  1.0814 -0.4042
  689MOL0     C94983   6.978   1.840  11.217  0.0828  0.8555 -0.4610
  689MOL0     C94984   6.902   1.970  11.175 -0.2345  0.1854  1.0231
  689MOL0     C94985   6.750   1.957  11.147  0.1850 -0.7204 -0.3479
  689MOL0     C94986   6.672   1.894  11.259 -0.0827 -0.8190  0.1376
  689MOL0     C94987   6.526   1.924  11.230  0.5978  0.1794  1.1159
  689MOL0     C94988   6.430   1.892  11.340  0.5603  0.5953  0.3431
  689MOL0    Cl94989   6.393   1.713  11.362 -0.2338 -0.0180 -0.2373
  689MOL0     C94990   7.556   2.079  11.116  0.4978 -0.2044  0.4456
  689MOL0     C94991   7.643   2.137  11.022 -0.0178  0.3436 -0.4992
  689MOL0     O94992   7.810   1.981  10.805  0.7154 -0.2210  0.3550
  689MOL0     C94993   7.817   2.191  10.528 -0.0539 -0.2815 -0.0867
  689MOL0     C94994   7.884   2.229  10.422 -0.5955 -0.3055  0.7305
  689MOL0     N94995   8.284   2.324   9.751 -1.3516  0.1871 -0.1060
  689MOL0     N94996   8.358   2.289   9.647  0.8257 -0.0970 -1.0389
  689MOL0     C94997   8.620   1.436   8.683 -0.6294 -0.0822  0.0829
  689MOL0     C94998   8.611   1.358   8.567 -0.0150  0.4669 -0.0803
  689MOL0     C94999   8.672   1.175   8.160 -0.3744  0.6051 -0.2874
  689MOL0     C95000   8.755   1.059   8.177 -0.3008  0.0209 -0.2586
  689MOL0     C95001   8.772   0.965   8.079  0.1427  0.9422  0.4137
  689MOL0     C95002   8.714   0.988   7.955 -0.0431 -0.6315 -0.8132
  689MOL0     O95003   8.731   0.887   7.867 -0.2675  0.4718  0.0056
  689MOL0     C95004   8.666   0.886   7.743 -0.1465 -0.8571  0.0984
  689MOL0     C95005   8.677   0.745   7.686  0.8616 -0.0686  1.1310
  689MOL0     C95006   8.589   0.735   7.556 -0.2530  0.8279 -0.9482
  689MOL0     C95007   8.507   0.608   7.547  0.5848  0.0093  0.1040
  689MOL0     C95008   8.439   0.612   7.416 -1.0275  0.3123 -0.1206
  689MOL0     C95009   8.390   0.646   7.310 -0.5471 -0.5304 -0.6228
  689MOL0     C95010   8.633   1.101   7.941 -0.7700  0.9254 -0.4186
  689MOL0     C95011   8.599   1.187   8.043  0.0928 -0.1868 -0.0586
  689MOL0     C95012   8.497   1.305   8.009  0.5529  0.1077 -0.5756
  689MOL0     H95013   8.938   1.366   8.499 -2.7501 -1.6754 -4.2246
  689MOL0     H95014   8.939   1.500   8.719 -0.2889 -0.2977  1.4887
  689MOL0     H95015   8.638   1.448   8.980  0.0037 -0.0584  2.0807
  689MOL0     H95016   8.560   1.609   8.926 -0.4901  0.6052  2.0688
  689MOL0     H95017   8.806   1.582   9.108  2.0317  1.5297 -2.1708
  689MOL0     H95018   8.775   1.719   9.030 -2.5674  1.0777 -4.2080
  689MOL0     H95019   8.556   1.584   9.199 -0.0271 -0.6490 -1.4523
  689MOL0     H95020   8.685   1.680   9.269  1.2961 -1.2910 -0.9786
  689MOL0     H95021   8.580   1.880   9.147  0.0574  0.0855  1.6481
  689MOL0     H95022   8.464   1.772   9.071  0.4296  1.9021  0.0083
  689MOL0     H95023   8.522   1.788   9.366 -2.8638  0.0485  1.9319
  689MOL0     H95024   8.373   1.726   9.296  0.6213 -1.1334  1.9162
  689MOL0     H95025   8.493   2.015   9.284  0.9023 -0.7366 -2.2190
  689MOL0     H95026   8.331   1.973   9.232 -0.8804  1.1166  0.8725
  689MOL0     H95027   8.420   1.974   9.542 -0.7290 -1.4352  0.2258
  689MOL0     H95028   8.265   1.933   9.475  0.6629  1.2852  1.0258
  689MOL0     H95029   8.399   2.193   9.415 -1.7837  1.4603  0.6071
  689MOL0     H95030   8.226   2.142   9.394 -1.6516 -0.6159  3.0043
  689MOL0     H95031   8.117   2.064   9.656  0.1768 -0.7985  1.9671
  689MOL0     H95032   7.974   2.219   9.820  0.1666 -4.5563  2.5195
  689MOL0     H95033   8.064   2.341   9.916 -3.6571 -1.2347  1.6539
  689MOL0     H95034   8.069   2.045   9.927 -0.8464  0.0100 -1.2080
  689MOL0     H95035   8.204   2.135  10.000  0.6328 -0.7181 -1.3759
  689MOL0     H95036   7.903   2.200  10.066 -0.0172  1.1321 -0.5432
  689MOL0     H95037   7.980   2.085  10.166 -1.4708  1.9347  1.3120
  689MOL0     H95038   8.150   2.325  10.122  1.6685 -1.0065  2.9182
  689MOL0     H95039   7.992   2.365  10.182 -2.1536 -2.3514  2.4451
  689MOL0     H95040   8.198   2.141  10.523 -0.7546  0.8596 -0.5220
  689MOL0     H95041   8.199   2.099  10.753 -0.7052 -3.0671 -0.8736
  689MOL0     H95042   8.077   1.995  10.816 -0.2863 -0.0895  0.2261
  689MOL0     H95043   8.073   2.174  10.843  2.4635  0.7973  0.5668
  689MOL0     H95044   7.452   2.084  10.744  0.9642  1.3986  0.1804
  689MOL0     H95045   7.293   1.984  10.908  0.3462 -2.2175 -0.6076
  689MOL0     H95046   7.157   1.960  11.071  0.5143  1.4580  0.7281
  689MOL0     H95047   7.239   1.810  11.107  2.3095  0.0427  1.6124
  689MOL0     H95048   7.164   1.787  11.312  3.3753  3.4167  2.1462
  689MOL0     H95049   7.130   1.959  11.338 -1.6521  0.8434 -0.0938
  689MOL0     H95050   6.929   1.802  11.307  1.4962 -1.2311 -0.5003
  689MOL0     H95051   6.963   1.758  11.145  1.5153  1.2091 -1.1863
  689MOL0     H95052   6.954   2.016  11.090 -2.6515  0.2769 -0.5093
  689MOL0     H95053   6.899   2.040  11.258 -3.8684  0.4683  0.7990
  689MOL0     H95054   6.712   2.058  11.130  1.2148 -0.1981  0.3207
  689MOL0     H95055   6.733   1.907  11.051 -2.9853 -0.5542  0.0316
  689MOL0     H95056   6.690   1.948  11.352  1.0279 -0.2754 -0.3737
  689MOL0     H95057   6.689   1.787  11.275  1.8957 -0.5261  0.1936
  689MOL0     H95058   6.508   1.875  11.134  1.1819  1.4306  0.3295
  689MOL0     H95059   6.511   2.031  11.208 -2.2528 -0.0289  1.6398
  689MOL0     H95060   6.337   1.944  11.317 -0.2028  2.0914  5.5242
  689MOL0     H95061   6.455   1.937  11.437 -2.0376  0.8078  0.9872
  689MOL0     H95062   7.588   2.092  11.218  4.9483  0.8343 -0.8724
  689MOL0     H95063   7.737   2.184  11.050 -0.2228  0.4377  0.0298
  689MOL0     H95064   7.718   2.235  10.521 -0.8757 -1.8855  0.9731
  689MOL0     H95065   7.834   2.275  10.338  1.0085 -0.7997 -0.5536
  689MOL0     H95066   8.528   1.452   8.739 -0.5156  0.7354  0.0592
  689MOL0     H95067   8.512   1.323   8.543  0.1113 -1.8031  2.2612
  689MOL0     H95068   8.793   1.032   8.275  0.1200  0.1136 -0.3932
  689MOL0     H95069   8.822   0.877   8.117 -0.1445  0.5621 -0.0829
  689MOL0     H95070   8.564   0.907   7.776  0.4669 -0.5901  1.9207
  689MOL0     H95071   8.699   0.965   7.674  1.8926 -1.6355  0.1186
  689MOL0     H95072   8.638   0.675   7.760  0.5423 -0.2541  0.7931
  689MOL0     H95073   8.778   0.728   7.648  0.7582 -1.0959  1.2784
  689MOL0     H95074   8.521   0.820   7.539 -3.9048 -2.2475 -3.4130
  689MOL0     H95075   8.656   0.715   7.472  1.3729  1.0761  0.2330
  689MOL0     H95076   8.437   0.618   7.630  3.0544 -2.3707  2.7045
  689MOL0     H95077   8.568   0.518   7.557 -1.4890 -1.4852 -0.0277
  689MOL0     H95078   8.363   0.660   7.208 -0.0224  0.5567 -0.6281
  689MOL0     H95079   8.579   1.103   7.847  1.1827  2.7452 -1.5797
  689MOL0     H95080   8.428   1.301   8.093  3.3670  1.3605  1.9445
  689MOL0     H95081   8.553   1.399   8.003  2.8254 -1.1535 -0.4260
  689MOL0     H95082   8.449   1.300   7.910  3.5260  4.1257 -2.5087
  690MOL0     O95083   8.897   6.946   1.626 -0.6791 -0.1049 -0.2118
  690MOL0     C95084   8.912   6.826   1.665  0.0353 -0.4856  0.3974
  690MOL0     O95085   8.836   6.772   1.777 -0.4031  0.0994 -0.0242
  690MOL0     C95086   8.737   6.846   1.834  0.6342  0.2757  1.5649
  690MOL0     C95087   8.755   6.897   1.957  1.2344 -0.2831 -0.2542
  690MOL0     C95088   8.649   6.954   2.019  0.9128 -0.5937  0.0941
  690MOL0     C95089   8.520   6.976   1.945  0.0660  0.4170 -0.5907
  690MOL0     O95090   8.403   7.032   1.998  0.6046 -0.0949 -0.1500
  690MOL0     C95091   8.414   7.147   2.080  0.2108  0.6000  0.0358
  690MOL0     C95092   8.491   7.249   1.991  0.5213  0.1765  0.1593
  690MOL0     C95093   8.488   7.393   2.031 -0.0831 -0.3467 -0.3365
  690MOL0     C95094   8.601   7.430   2.119 -0.3040 -0.5249 -1.2865
  690MOL0     C95095   8.579   7.567   2.194  0.4136  0.3405  1.1920
  690MOL0     C95096   8.586   7.685   2.093 -0.0928  0.5252 -0.2151
  690MOL0     C95097   8.587   7.816   2.175 -0.2215 -0.5761 -0.7431
  690MOL0     C95098   8.526   7.944   2.097  0.6006 -0.7120 -0.4211
  690MOL0     N95099   8.376   7.941   2.103 -0.6090  0.6422  0.1297
  690MOL0     C95100   8.294   8.004   2.196  0.0560 -0.5482 -0.0133
  690MOL0     C95101   8.171   8.001   2.134  0.5852  1.4071  1.1712
  690MOL0     C95102   8.030   8.045   2.196 -0.7821  0.0565 -0.2435
  690MOL0     C95103   7.965   8.145   2.103 -0.4783 -1.3090  0.0159
  690MOL0     C95104   7.818   8.161   2.152 -0.3953 -0.5885  0.1596
  690MOL0     C95105   7.750   8.243   2.051  0.0246 -0.8494  0.3623
  690MOL0     O95106   7.606   8.251   2.062 -0.4985  0.0039 -0.0353
  690MOL0     C95107   7.541   8.289   2.174  0.3578 -0.3750  0.8916
  690MOL0     C95108   7.402   8.266   2.176 -0.6499  0.7904 -0.2339
  690MOL0     C95109   7.308   8.300   2.281  0.3174  0.3234 -0.3367
  690MOL0     C95110   7.157   8.272   2.272 -0.2191  0.3364  0.1987
  690MOL0     C95111   7.364   8.373   2.391  0.2041  0.1564  0.5137
  690MOL0     C95112   7.286   8.407   2.515 -0.6926 -0.2021  1.4065
  690MOL0     O95113   7.182   8.319   2.545 -0.8137 -0.3805 -0.2348
  690MOL0     C95114   7.091   8.336   2.647 -0.4628  0.2068  0.0949
  690MOL0     C95115   7.004   8.220   2.669 -0.2204  0.8664 -0.4853
  690MOL0     C95116   6.913   8.208   2.779  0.0992  0.1895  0.4086
  690MOL0     C95117   6.897   8.320   2.872 -0.2951 -0.5260 -0.9064
  690MOL0     O95118   6.801   8.310   2.971  0.0677 -0.9131 -0.0958
  690MOL0     C95119   6.825   8.256   3.102  0.7804 -0.9693 -0.9571
  690MOL0     C95120   6.712   8.259   3.201 -0.9142  0.9194  0.1858
  690MOL0     C95121   6.653   8.402   3.213  0.6373  1.0587  0.0851
  690MOL0     C95122   6.552   8.400   3.328 -1.1171 -0.5547  0.1074
  690MOL0     C95123   6.449   8.511   3.309  0.3368 -0.8235  0.4358
  690MOL0     C95124   6.515   8.652   3.260  0.2410  1.3157 -0.3146
  690MOL0     C95125   6.411   8.752   3.229 -0.4192  0.3803 -0.0152
  690MOL0     C95126   6.474   8.869   3.168 -0.3894  0.0737 -0.2023
  690MOL0    Cl95127   6.371   9.016   3.159  0.0887 -0.6159  0.0301
  690MOL0     C95128   6.985   8.431   2.848 -0.3064  0.5682 -0.7824
  690MOL0     C95129   7.072   8.447   2.735 -0.4023  0.6123  0.7963
  690MOL0     O95130   7.313   8.509   2.574 -0.2833  0.3059 -0.1187
  690MOL0     C95131   7.504   8.412   2.383  0.1795 -0.2021 -0.1355
  690MOL0     C95132   7.587   8.376   2.275  0.3596 -0.0878 -0.2134
  690MOL0     N95133   8.175   7.955   2.010 -0.9876  0.2748  0.0587
  690MOL0     N95134   8.292   7.909   1.993  0.0543 -0.2965  0.1478
  690MOL0     C95135   8.507   6.905   1.827  0.5001  0.6182 -0.1493
  690MOL0     C95136   8.614   6.840   1.766 -0.1360  0.0324  0.0230
  690MOL0     C95137   9.000   6.736   1.592 -0.7185  0.8313  0.0113
  690MOL0     C95138   8.997   6.600   1.634 -0.0838 -0.7682 -0.1012
  690MOL0     C95139   9.087   6.509   1.584  0.1938 -0.4913 -0.3098
  690MOL0     C95140   9.184   6.543   1.488  0.7539  0.7286 -0.7475
  690MOL0     O95141   9.271   6.443   1.453  0.7827 -0.0333 -0.0509
  690MOL0     C95142   9.360   6.450   1.336 -0.2987  0.9769  0.5570
  690MOL0     C95143   9.412   6.307   1.308  0.5286 -0.9641  0.6313
  690MOL0     C95144   9.291   6.220   1.277  0.5929 -0.9031  0.2009
  690MOL0     C95145   9.330   6.082   1.232  0.4336 -0.0980 -0.3908
  690MOL0     C95146   9.216   6.025   1.164 -0.0782  0.4358  0.0412
  690MOL0     C95147   9.120   5.957   1.135 -0.5199  0.9574  0.7524
  690MOL0     C95148   9.191   6.673   1.444  0.0853 -0.1266 -0.0343
  690MOL0     C95149   9.090   6.767   1.481  1.0601 -0.0743  0.5334
  690MOL0     C95150   9.077   6.902   1.407 -0.0704  0.8050  0.4414
  690MOL0     H95151   8.847   6.896   2.015 -1.6590 -1.9592  4.9351
  690MOL0     H95152   8.666   6.987   2.121  1.1851 -4.1661  1.3388
  690MOL0     H95153   8.458   7.123   2.177  1.5348 -3.3751 -1.3361
  690MOL0     H95154   8.313   7.188   2.089  0.3205  1.5606 -2.4152
  690MOL0     H95155   8.597   7.219   1.994  0.2925 -1.0905 -2.2358
  690MOL0     H95156   8.462   7.240   1.887 -1.5973 -0.0034  0.7352
  690MOL0     H95157   8.492   7.453   1.940  0.5234 -0.9793 -0.7336
  690MOL0     H95158   8.397   7.415   2.088  1.2508 -1.4094  2.3575
  690MOL0     H95159   8.594   7.351   2.194 -2.8077  1.3715  0.6211
  690MOL0     H95160   8.697   7.429   2.065  1.1610 -0.8356  1.1718
  690MOL0     H95161   8.647   7.583   2.278 -1.0194  0.1115  2.4471
  690MOL0     H95162   8.475   7.562   2.230 -0.6546  1.8592 -1.4410
  690MOL0     H95163   8.676   7.691   2.030  0.5307  1.3031  0.7200
  690MOL0     H95164   8.503   7.682   2.022  0.9155  0.2752 -1.4258
  690MOL0     H95165   8.689   7.840   2.205 -0.1586 -4.1785  2.7611
  690MOL0     H95166   8.538   7.796   2.271  0.2236 -1.2686 -0.6513
  690MOL0     H95167   8.572   8.036   2.134  3.7882 -2.4643  0.4159
  690MOL0     H95168   8.550   7.959   1.991 -0.5387  2.1163 -0.3499
  690MOL0     H95169   8.308   8.036   2.299  2.7121 -1.4003 -0.0410
  690MOL0     H95170   8.053   8.090   2.293  0.5206  0.1562 -0.5904
  690MOL0     H95171   7.955   7.969   2.224  0.7622 -1.8748 -1.1289
  690MOL0     H95172   8.021   8.239   2.112  1.1648 -2.1261 -1.1505
  690MOL0     H95173   7.984   8.115   1.999  1.2647  0.5509 -0.2815
  690MOL0     H95174   7.779   8.059   2.145  5.0987 -2.9487 -1.5303
  690MOL0     H95175   7.812   8.207   2.251 -1.7536  2.1671 -1.0890
  690MOL0     H95176   7.801   8.339   2.068  0.1284 -0.4576 -1.8783
  690MOL0     H95177   7.775   8.214   1.949  0.8581  1.8404 -0.3025
  690MOL0     H95178   7.363   8.216   2.087  0.8436 -0.1623 -0.3984
  690MOL0     H95179   7.148   8.172   2.315  1.5797 -0.4114 -1.0163
  690MOL0     H95180   7.124   8.263   2.168 -0.5319  1.9463  0.1329
  690MOL0     H95181   7.094   8.350   2.317  0.4077  0.6424  0.5676
  690MOL0     H95182   7.001   8.133   2.604 -0.5166 -0.1260  0.8186
  690MOL0     H95183   6.849   8.120   2.782  1.4858 -1.2216 -3.9697
  690MOL0     H95184   6.851   8.150   3.095 -1.3762 -1.7145  0.9464
  690MOL0     H95185   6.904   8.314   3.150 -0.0365  0.4168 -1.2465
  690MOL0     H95186   6.630   8.194   3.168  0.1327 -0.3034 -0.0811
  690MOL0     H95187   6.740   8.231   3.303  1.2621  2.5703  0.1175
  690MOL0     H95188   6.615   8.431   3.115  0.4519 -0.0609 -0.1911
  690MOL0     H95189   6.737   8.468   3.235  0.4114  1.4948 -0.3376
  690MOL0     H95190   6.615   8.414   3.416 -1.0313 -4.1606  0.7805
  690MOL0     H95191   6.507   8.301   3.342  0.3902 -1.1431  1.0186
  690MOL0     H95192   6.371   8.479   3.239  1.4067 -4.4625  0.7322
  690MOL0     H95193   6.410   8.543   3.406 -2.2586  1.9888 -1.3486
  690MOL0     H95194   6.575   8.644   3.169 -0.1216 -0.8647 -0.4182
  690MOL0     H95195   6.590   8.684   3.332 -1.3913 -1.7696  3.0446
  690MOL0     H95196   6.366   8.794   3.319  0.6704  0.3950  0.5410
  690MOL0     H95197   6.337   8.703   3.165  0.5198  0.1410 -0.9484
  690MOL0     H95198   6.516   8.830   3.075 -0.1307  2.1181 -0.9978
  690MOL0     H95199   6.566   8.898   3.219  0.6231 -2.1937 -0.6325
  690MOL0     H95200   6.967   8.521   2.905 -0.6721  0.9777 -1.5233
  690MOL0     H95201   7.122   8.538   2.705 -1.5049 -0.1652 -4.3158
  690MOL0     H95202   7.551   8.482   2.452 -2.0170 -0.6811  2.0127
  690MOL0     H95203   7.683   8.426   2.265 -0.1487  1.4951  1.8663
  690MOL0     H95204   8.412   6.898   1.775  1.5963  1.7904 -2.4707
  690MOL0     H95205   8.604   6.781   1.675 -0.1092  1.7515 -1.1495
  690MOL0     H95206   8.930   6.571   1.714 -0.8433  3.5848  1.0883
  690MOL0     H95207   9.088   6.403   1.607 -0.0404 -0.5073 -0.3704
  690MOL0     H95208   9.315   6.488   1.243  2.3050 -0.6269 -1.5179
  690MOL0     H95209   9.445   6.515   1.357  1.9541 -1.9139  1.0266
  690MOL0     H95210   9.477   6.267   1.387  2.1890  0.5058  0.0900
  690MOL0     H95211   9.482   6.295   1.224  0.5032  0.3885  0.4027
  690MOL0     H95212   9.235   6.214   1.371 -0.5244  0.3356 -0.3350
  690MOL0     H95213   9.229   6.281   1.210  1.4170  0.4047  0.5947
  690MOL0     H95214   9.347   6.019   1.320 -3.5914 -0.5912  0.2501
  690MOL0     H95215   9.420   6.083   1.170  1.5778  1.6253  1.1783
  690MOL0     H95216   9.027   5.916   1.099  0.7653 -0.3827 -1.2462
  690MOL0     H95217   9.263   6.681   1.363  0.4072 -3.0510 -0.1719
  690MOL0     H95218   9.097   6.985   1.476 -3.3479  1.6107  0.5869
  690MOL0     H95219   9.159   6.904   1.336 -1.8163  0.6693 -1.6876
  690MOL0     H95220   8.978   6.912   1.362  0.2945 -0.8940 -0.7994
  691MOL0     O95221   2.044   4.076   5.229 -1.0210  0.2411  1.1161
  691MOL0     C95222   2.077   4.121   5.115  0.8766  0.5709 -0.1991
  691MOL0     O95223   2.193   4.104   5.040  0.3514 -0.1351  0.0999
  691MOL0     C95224   2.297   4.026   5.088 -0.2116 -0.0104  0.1067
  691MOL0     C95225   2.289   3.895   5.095  0.1036 -0.3319  0.2715
  691MOL0     C95226   2.405   3.822   5.118 -0.1928  0.4269  0.2481
  691MOL0     C95227   2.534   3.884   5.147  0.7282 -0.5503 -0.1186
  691MOL0     O95228   2.631   3.788   5.159 -0.1140 -0.4154 -0.5211
  691MOL0     C95229   2.768   3.840   5.139 -0.0727  0.9374 -0.5984
  691MOL0     C95230   2.852   3.718   5.078 -0.6401 -0.2258 -0.1129
  691MOL0     C95231   3.004   3.720   5.108  0.0107  0.5114  0.3436
  691MOL0     C95232   3.041   3.670   5.248  0.9136  0.1265  0.0080
  691MOL0     C95233   3.176   3.717   5.276 -0.0026  0.7517  0.6025
  691MOL0     C95234   3.187   3.757   5.422 -0.2188 -0.4824 -0.4072
  691MOL0     C95235   3.320   3.799   5.476 -0.3467 -0.9159 -0.5145
  691MOL0     C95236   3.396   3.683   5.528 -0.3664  0.9286 -0.2766
  691MOL0     N95237   3.532   3.701   5.553 -0.4035 -0.2389 -1.0819
  691MOL0     C95238   3.631   3.711   5.455  0.6276 -0.8008  0.9732
  691MOL0     C95239   3.743   3.683   5.518  0.5618  0.9961 -0.3412
  691MOL0     C95240   3.874   3.681   5.441  0.3450  0.1205 -0.3184
  691MOL0     C95241   3.993   3.746   5.528 -0.3688 -0.3153 -0.5638
  691MOL0     C95242   4.043   3.666   5.651  0.0604  0.0930 -0.0141
  691MOL0     C95243   4.119   3.539   5.628  0.1363  0.9261 -0.3922
  691MOL0     O95244   4.224   3.559   5.535  0.7253 -0.4639  0.4126
  691MOL0     C95245   4.312   3.455   5.527  0.2124  0.5255  0.3524
  691MOL0     C95246   4.303   3.341   5.443  0.1172 -0.6254 -0.0271
  691MOL0     C95247   4.384   3.225   5.449 -0.2395 -0.3177  0.2544
  691MOL0     C95248   4.355   3.112   5.346  0.8386 -0.3984 -0.0823
  691MOL0     C95249   4.489   3.216   5.540 -0.7740 -0.9931 -0.3070
  691MOL0     C95250   4.595   3.111   5.542 -0.3280 -0.0755  0.6336
  691MOL0     O95251   4.736   3.136   5.541  0.9058 -0.1648 -0.3325
  691MOL0     C95252   4.820   3.031   5.535  0.6222  0.5729  0.5833
  691MOL0     C95253   4.914   2.998   5.627  0.5075  0.5977  0.4943
  691MOL0     C95254   5.011   2.894   5.600  0.0605 -1.4064  0.5219
  691MOL0     C95255   4.994   2.802   5.499 -0.3035 -0.8207  0.0628
  691MOL0     O95256   5.061   2.684   5.476 -0.5161 -0.9593  0.8340
  691MOL0     C95257   5.168   2.652   5.556  0.6813  1.5793 -0.0987
  691MOL0     C95258   5.126   2.516   5.622 -0.5452  1.0078  0.4886
  691MOL0     C95259   5.080   2.404   5.514  0.7061 -0.0461 -1.2243
  691MOL0     C95260   5.188   2.369   5.404 -0.3186 -0.3536 -0.0655
  691MOL0     C95261   5.147   2.254   5.320 -0.2365  0.3503 -0.0975
  691MOL0     C95262   5.178   2.289   5.174 -0.8748  0.3701  0.2263
  691MOL0     C95263   5.327   2.297   5.130 -0.2570 -0.5447  0.5042
  691MOL0     C95264   5.349   2.438   5.072  0.3924 -0.2643 -0.0899
  691MOL0    Cl95265   5.506   2.460   4.997  0.0087 -0.2375 -0.1585
  691MOL0     C95266   4.899   2.837   5.400 -0.4562 -0.4902  0.0474
  691MOL0     C95267   4.812   2.946   5.418  0.4915 -0.2651  0.4612
  691MOL0     O95268   4.544   3.000   5.548 -0.3415  0.6735  0.0657
  691MOL0     C95269   4.506   3.334   5.617  0.6758  0.3812  0.6124
  691MOL0     C95270   4.413   3.445   5.620 -1.9511 -0.1479  0.0618
  691MOL0     N95271   3.713   3.679   5.659 -0.0159 -0.1928 -0.0435
  691MOL0     N95272   3.584   3.691   5.672 -0.1086  0.0129  0.0983
  691MOL0     C95273   2.531   4.026   5.160 -0.3701  0.0582  0.7000
  691MOL0     C95274   2.417   4.091   5.131  0.4326 -0.1238  0.7301
  691MOL0     C95275   1.977   4.218   5.060 -0.3016  0.2625  0.9112
  691MOL0     C95276   2.033   4.342   5.011  0.0864  0.0780  0.3969
  691MOL0     C95277   1.952   4.446   4.963 -0.3883  0.2414  0.2109
  691MOL0     C95278   1.814   4.424   4.960 -0.1429  0.2472  0.2426
  691MOL0     O95279   1.741   4.536   4.923 -0.3393 -1.0519 -0.1125
  691MOL0     C95280   1.597   4.536   4.915  0.5119 -0.0248 -0.0330
  691MOL0     C95281   1.546   4.666   4.857  0.3916  0.3110 -0.0822
  691MOL0     C95282   1.598   4.702   4.721 -0.0947 -0.4262  0.1453
  691MOL0     C95283   1.600   4.595   4.622  0.6122 -1.0234  0.5022
  691MOL0     C95284   1.601   4.651   4.486  0.0578 -0.1677 -0.3554
  691MOL0     C95285   1.595   4.709   4.382  1.3077  0.5939 -0.5355
  691MOL0     C95286   1.756   4.301   5.014 -0.4164  0.6511 -0.4168
  691MOL0     C95287   1.837   4.200   5.073  0.6830 -0.4338 -0.8789
  691MOL0     C95288   1.773   4.072   5.136 -0.1166  0.3889 -0.0916
  691MOL0     H95289   2.202   3.846   5.053  2.2026 -1.4656 -3.2731
  691MOL0     H95290   2.407   3.714   5.121  1.8362  0.3329 -1.5101
  691MOL0     H95291   2.807   3.874   5.235  1.0905 -1.3915 -0.1847
  691MOL0     H95292   2.773   3.926   5.071  2.8430  0.1321 -1.5582
  691MOL0     H95293   2.810   3.626   5.121 -0.0580 -0.7018 -0.5509
  691MOL0     H95294   2.855   3.718   4.969 -0.5984  2.6194 -0.1757
  691MOL0     H95295   3.045   3.656   5.030  0.7601  1.8859 -0.4352
  691MOL0     H95296   3.046   3.817   5.078  1.7485 -0.6417 -1.1456
  691MOL0     H95297   2.975   3.717   5.322 -0.1065  0.3166 -1.0056
  691MOL0     H95298   3.031   3.562   5.260 -2.0530  0.2210 -0.8342
  691MOL0     H95299   3.209   3.796   5.208  2.0364  2.7136  3.5992
  691MOL0     H95300   3.244   3.633   5.259 -0.4847  0.0002  2.1696
  691MOL0     H95301   3.121   3.839   5.453 -0.2184 -0.4204 -0.5698
  691MOL0     H95302   3.143   3.682   5.488 -3.3459  1.5903  0.0527
  691MOL0     H95303   3.320   3.871   5.558  2.5938 -1.5093  0.1458
  691MOL0     H95304   3.374   3.836   5.388 -0.2047 -3.8197 -1.7666
  691MOL0     H95305   3.343   3.649   5.618  0.1622 -1.6427 -0.8705
  691MOL0     H95306   3.397   3.601   5.456 -1.1659 -1.2441  2.0314
  691MOL0     H95307   3.626   3.720   5.347  1.1652  0.0645  1.0105
  691MOL0     H95308   3.859   3.739   5.349 -3.7369 -2.1667 -1.3479
  691MOL0     H95309   3.893   3.580   5.404 -0.5066  0.3965 -1.5828
  691MOL0     H95310   4.073   3.739   5.455  0.8987  0.8159  0.6631
  691MOL0     H95311   3.979   3.853   5.548 -0.2177 -0.4392  0.2485
  691MOL0     H95312   4.105   3.728   5.716 -1.1783  1.5494 -0.1595
  691MOL0     H95313   3.969   3.641   5.727  0.4646  3.2129  1.5926
  691MOL0     H95314   4.161   3.507   5.723  0.7774  1.9308 -0.3220
  691MOL0     H95315   4.056   3.456   5.597 -1.3170  1.2777  1.4375
  691MOL0     H95316   4.230   3.341   5.362  1.3312 -1.4617 -1.1444
  691MOL0     H95317   4.293   3.040   5.401 -0.9525  0.2915 -1.1362
  691MOL0     H95318   4.442   3.060   5.303  0.9101  0.3893 -0.9063
  691MOL0     H95319   4.289   3.157   5.271 -0.8521 -4.1708 -1.1014
  691MOL0     H95320   4.922   3.065   5.712  0.2619 -2.2410  2.9082
  691MOL0     H95321   5.086   2.886   5.677  0.0030  1.8006  1.0509
  691MOL0     H95322   5.264   2.638   5.503  0.3746 -2.1681  0.0460
  691MOL0     H95323   5.183   2.726   5.635 -0.5025 -0.2750  1.9430
  691MOL0     H95324   5.205   2.477   5.686 -0.7901 -0.5626 -0.1248
  691MOL0     H95325   5.051   2.539   5.697 -1.0206  1.5017 -0.1229
  691MOL0     H95326   4.988   2.437   5.465  1.5475  3.6546 -0.6644
  691MOL0     H95327   5.046   2.313   5.564  0.2984  1.3475  1.1993
  691MOL0     H95328   5.284   2.352   5.453 -1.4811 -1.6655  1.9460
  691MOL0     H95329   5.193   2.463   5.349  1.2423 -1.4610 -1.9205
  691MOL0     H95330   5.199   2.166   5.356  0.6610  0.4115 -1.1933
  691MOL0     H95331   5.041   2.243   5.344  0.0400  0.0541  1.0641
  691MOL0     H95332   5.138   2.389   5.154  1.9452  1.5219 -0.0589
  691MOL0     H95333   5.134   2.213   5.108  1.9016 -0.4440 -0.8407
  691MOL0     H95334   5.354   2.209   5.071  2.1677  0.1684  0.4672
  691MOL0     H95335   5.391   2.292   5.219  1.0179 -0.1919 -0.3666
  691MOL0     H95336   5.336   2.509   5.154  0.2797  1.1380 -1.2848
  691MOL0     H95337   5.280   2.450   4.988 -1.6518 -1.7483  1.2691
  691MOL0     H95338   4.899   2.789   5.303 -1.3889  0.2334 -0.3222
  691MOL0     H95339   4.751   2.982   5.336  0.3159 -0.0270  0.6942
  691MOL0     H95340   4.587   3.339   5.689  2.4249  3.7955 -1.3447
  691MOL0     H95341   4.443   3.517   5.696  2.4895  0.3507 -1.8350
  691MOL0     H95342   2.630   4.069   5.173  0.6587 -1.9606  0.1066
  691MOL0     H95343   2.420   4.199   5.138  0.5839 -0.1634  1.4050
  691MOL0     H95344   2.140   4.358   4.999 -0.3925  1.7188 -3.3520
  691MOL0     H95345   2.004   4.537   4.935 -0.5456  0.2107 -0.1862
  691MOL0     H95346   1.564   4.459   4.846  0.8116  0.6991 -1.0028
  691MOL0     H95347   1.545   4.505   5.006 -0.2912  3.9654  1.1004
  691MOL0     H95348   1.549   4.741   4.936 -0.4407 -0.8342  1.0668
  691MOL0     H95349   1.438   4.660   4.843  0.4434 -0.0440 -0.3386
  691MOL0     H95350   1.539   4.786   4.683  2.3772  0.8651 -1.1354
  691MOL0     H95351   1.697   4.748   4.724 -0.8307  1.3323 -0.9031
  691MOL0     H95352   1.502   4.546   4.626  0.4567 -0.7181  0.4764
  691MOL0     H95353   1.684   4.526   4.636 -0.6469 -3.1930 -1.7075
  691MOL0     H95354   1.579   4.755   4.287 -0.2300 -1.0879 -1.1591
  691MOL0     H95355   1.647   4.299   5.017 -0.4403  1.7075  0.7849
  691MOL0     H95356   1.786   4.088   5.243  1.0093  2.3468 -0.4706
  691MOL0     H95357   1.665   4.062   5.129  0.0823 -5.6280  0.0067
  691MOL0     H95358   1.805   3.976   5.093  1.7009 -0.7191  3.3848
  692MOL0     O95359   5.775   2.906   9.100 -0.1675  0.0321 -0.2483
  692MOL0     C95360   5.676   2.933   9.035 -0.1449  1.0588  1.0495
  692MOL0     O95361   5.685   2.981   8.911  0.6977 -0.1394  0.5996
  692MOL0     C95362   5.802   2.969   8.847  0.6245  0.9011 -0.2862
  692MOL0     C95363   5.864   2.842   8.833  0.4598  0.3249 -0.3096
  692MOL0     C95364   5.996   2.843   8.790  0.6289  0.1550 -0.0773
  692MOL0     C95365   6.065   2.961   8.759 -0.1827  0.1247 -1.1421
  692MOL0     O95366   6.201   2.953   8.722  0.2784 -0.0061 -0.4262
  692MOL0     C95367   6.215   2.923   8.583 -0.1230 -0.3792 -0.3524
  692MOL0     C95368   6.360   2.886   8.537 -0.4550 -0.3736 -0.5909
  692MOL0     C95369   6.426   2.798   8.645  0.2222  0.2778 -0.4673
  692MOL0     C95370   6.574   2.767   8.605 -0.2960  1.1104  0.5202
  692MOL0     C95371   6.648   2.711   8.726 -0.5247  0.3551 -0.9408
  692MOL0     C95372   6.792   2.680   8.690  0.4332 -0.2896 -0.1028
  692MOL0     C95373   6.807   2.553   8.595 -0.6215 -0.2900 -0.4896
  692MOL0     C95374   6.946   2.512   8.553  0.5125  0.6200 -0.4090
  692MOL0     N95375   7.037   2.502   8.675 -0.3598  1.0266 -0.4177
  692MOL0     C95376   7.037   2.403   8.780  0.1875 -0.1358  0.6138
  692MOL0     C95377   7.124   2.457   8.866  0.9419  0.2864 -0.4579
  692MOL0     C95378   7.185   2.397   8.994  0.2837 -0.4265  0.4750
  692MOL0     C95379   7.080   2.359   9.099  0.0436 -0.1336  0.2677
  692MOL0     C95380   7.147   2.285   9.218  0.3686 -0.0525 -0.2598
  692MOL0     C95381   7.040   2.216   9.306  1.1816  0.1610 -0.0942
  692MOL0     O95382   7.025   2.076   9.274  0.2488 -0.7411 -0.4986
  692MOL0     C95383   6.987   1.986   9.374  0.0777 -0.1670  0.0716
  692MOL0     C95384   6.932   2.029   9.499 -0.7553  0.0342  0.9456
  692MOL0     C95385   6.902   1.924   9.588 -0.5445 -0.5822  0.5003
  692MOL0     C95386   6.831   1.972   9.711 -0.3480  0.0429  0.7102
  692MOL0     C95387   6.924   1.789   9.558  0.2859  0.5803  0.1850
  692MOL0     C95388   6.873   1.676   9.642 -0.8015  0.4070  0.7920
  692MOL0     O95389   6.826   1.569   9.575 -0.4188 -0.0000  0.2360
  692MOL0     C95390   6.755   1.485   9.655 -1.1391 -0.1347 -0.0525
  692MOL0     C95391   6.835   1.383   9.718  0.8419  0.3821  0.7521
  692MOL0     C95392   6.774   1.302   9.816  1.3808  0.5080 -0.6284
  692MOL0     C95393   6.637   1.312   9.840  1.0112  0.1811  0.5772
  692MOL0     O95394   6.585   1.238   9.943 -0.0676 -0.1468  0.7117
  692MOL0     C95395   6.597   1.307  10.070 -0.2650 -0.8527  0.9331
  692MOL0     C95396   6.538   1.211  10.170  0.3552 -0.1876 -0.8788
  692MOL0     C95397   6.656   1.106  10.200  0.4670  0.2449 -0.1842
  692MOL0     C95398   6.608   1.027  10.313  0.0807 -0.0307  0.3224
  692MOL0     C95399   6.695   0.900  10.344 -0.4838 -0.6074 -0.1023
  692MOL0     C95400   6.648   0.791  10.251 -0.1185  0.2187 -0.1540
  692MOL0     C95401   6.743   0.677  10.251 -0.4948  1.0659  0.5415
  692MOL0     C95402   6.695   0.549  10.176  0.7294  0.0691  0.5110
  692MOL0    Cl95403   6.832   0.433  10.171 -0.0974 -0.1344 -0.4442
  692MOL0     C95404   6.552   1.401   9.766  0.3156 -0.5645  0.2148
  692MOL0     C95405   6.613   1.491   9.676 -0.6575  0.3471  0.2161
  692MOL0     O95406   6.898   1.671   9.762 -0.5261  0.2135  0.5028
  692MOL0     C95407   6.977   1.758   9.431 -0.4585  0.1237 -0.5819
  692MOL0     C95408   7.022   1.856   9.341  0.6963 -1.1910  0.6769
  692MOL0     N95409   7.161   2.583   8.837 -0.6803 -0.1259 -0.1301
  692MOL0     N95410   7.105   2.607   8.725 -0.8351  0.1518 -0.2708
  692MOL0     C95411   5.998   3.089   8.780  0.5510 -0.9072 -0.8349
  692MOL0     C95412   5.865   3.093   8.828  1.0310 -0.0519 -0.2423
  692MOL0     C95413   5.538   2.910   9.090 -0.1982 -0.8186  0.9970
  692MOL0     C95414   5.432   2.923   8.989 -0.9814  0.2058 -1.0357
  692MOL0     C95415   5.300   2.918   9.037 -0.0746  0.3948 -0.4580
  692MOL0     C95416   5.267   2.876   9.171  0.3417 -0.3438  0.4386
  692MOL0     O95417   5.145   2.871   9.221  0.1551  0.6736 -1.3139
  692MOL0     C95418   5.031   2.887   9.141  0.0554  0.6387  0.1320
  692MOL0     C95419   4.979   2.754   9.085  0.7381 -0.3545  0.7604
  692MOL0     C95420   4.951   2.656   9.203  0.1406 -0.8127 -0.7346
  692MOL0     C95421   4.837   2.714   9.293 -0.2738  0.8759 -0.8533
  692MOL0     C95422   4.823   2.626   9.414  0.0330  0.7708  0.1745
  692MOL0     C95423   4.797   2.557   9.512 -0.5256  0.3325  0.0218
  692MOL0     C95424   5.372   2.854   9.253 -1.4209  0.5249 -0.2492
  692MOL0     C95425   5.509   2.864   9.222 -0.2506 -0.6873  0.0269
  692MOL0     C95426   5.607   2.822   9.329 -1.0423  0.1381 -0.4875
  692MOL0     H95427   5.810   2.757   8.872  1.8023  0.9961  3.4700
  692MOL0     H95428   6.047   2.747   8.792  0.9157  0.2778  2.7838
  692MOL0     H95429   6.181   3.013   8.530  1.8328  3.3853  4.1185
  692MOL0     H95430   6.145   2.844   8.552 -0.7184  0.7237 -1.9648
  692MOL0     H95431   6.350   2.833   8.442  2.4176  0.4057 -1.4047
  692MOL0     H95432   6.405   2.986   8.530 -0.9119 -0.0114  0.9973
  692MOL0     H95433   6.423   2.852   8.740 -0.5421  4.0079 -2.4322
  692MOL0     H95434   6.370   2.705   8.659 -3.0659  2.0911 -0.5646
  692MOL0     H95435   6.576   2.694   8.524 -0.8643 -0.7696  2.1171
  692MOL0     H95436   6.630   2.855   8.571  1.8092 -0.2547  0.1980
  692MOL0     H95437   6.593   2.632   8.778  1.2431  0.0666  0.5831
  692MOL0     H95438   6.659   2.783   8.807  0.9398 -0.2228 -0.5941
  692MOL0     H95439   6.832   2.761   8.628  3.4118  1.2183  3.4345
  692MOL0     H95440   6.861   2.675   8.775  1.8347  1.8176 -1.0285
  692MOL0     H95441   6.754   2.577   8.502 -2.2341 -1.3141  0.1254
  692MOL0     H95442   6.753   2.472   8.644 -0.2752 -0.0769  0.2502
  692MOL0     H95443   6.932   2.412   8.511 -1.0384 -0.0495  1.5393
  692MOL0     H95444   6.985   2.578   8.476 -1.7394  3.2419  0.5276
  692MOL0     H95445   6.994   2.303   8.772  1.6926 -0.8895  1.5100
  692MOL0     H95446   7.251   2.467   9.046 -2.0354  1.2303  1.3399
  692MOL0     H95447   7.256   2.316   8.975  0.3378 -0.7432  1.9032
  692MOL0     H95448   7.030   2.450   9.133  0.2666  0.5880 -1.2796
  692MOL0     H95449   7.020   2.280   9.052 -0.3939 -1.1638  2.3940
  692MOL0     H95450   7.229   2.216   9.193  1.9765  0.2406  3.5214
  692MOL0     H95451   7.203   2.347   9.289  2.3339  0.7831 -2.3862
  692MOL0     H95452   7.072   2.230   9.410 -1.4831  4.0243  0.4016
  692MOL0     H95453   6.937   2.253   9.303  0.4301 -1.8640 -1.9437
  692MOL0     H95454   6.913   2.133   9.520  0.6688  0.6753 -0.6577
  692MOL0     H95455   6.787   2.070   9.691  0.1945 -0.3658 -3.4724
  692MOL0     H95456   6.904   1.981   9.792 -0.1589 -0.5318  0.6100
  692MOL0     H95457   6.757   1.898   9.743  0.3638  0.1936  2.8578
  692MOL0     H95458   6.941   1.372   9.700  0.7301  1.5002 -0.8201
  692MOL0     H95459   6.820   1.220   9.871 -0.8035  0.6493  1.5405
  692MOL0     H95460   6.698   1.343  10.096 -1.3365  0.2920  3.9996
  692MOL0     H95461   6.531   1.393  10.056 -0.4036 -1.0111  0.6148
  692MOL0     H95462   6.512   1.262  10.263  0.9277 -0.0662 -0.7797
  692MOL0     H95463   6.452   1.173  10.115 -0.8217  0.0852  0.6847
  692MOL0     H95464   6.744   1.163  10.231 -0.6737  2.3427 -0.6397
  692MOL0     H95465   6.668   1.051  10.105  1.7238  0.0562  0.0588
  692MOL0     H95466   6.504   0.999  10.299  0.2138 -0.8172  0.8129
  692MOL0     H95467   6.610   1.086  10.405 -1.0820  1.4434 -0.5594
  692MOL0     H95468   6.803   0.911  10.326 -0.0149 -3.0932  0.7498
  692MOL0     H95469   6.664   0.882  10.448  3.6411  2.4160  1.9966
  692MOL0     H95470   6.635   0.815  10.145 -3.7284 -0.6724 -0.0569
  692MOL0     H95471   6.555   0.740  10.278  0.7815 -1.8562 -0.7586
  692MOL0     H95472   6.769   0.654  10.355 -1.2758 -1.0156  0.3363
  692MOL0     H95473   6.836   0.699  10.199  1.6674 -3.1305  2.1410
  692MOL0     H95474   6.672   0.587  10.076  1.1128  6.0976  2.3164
  692MOL0     H95475   6.600   0.517  10.220 -0.0488  0.0586 -1.0922
  692MOL0     H95476   6.444   1.409   9.780  0.7118  2.7685  2.9327
  692MOL0     H95477   6.565   1.567   9.614 -0.6979  0.1258 -0.0245
  692MOL0     H95478   6.995   1.657   9.395  0.8412  0.9388 -2.3879
  692MOL0     H95479   7.082   1.862   9.251  0.4824  2.7774  0.6178
  692MOL0     H95480   6.059   3.177   8.767 -0.6069 -0.1266 -1.2221
  692MOL0     H95481   5.822   3.191   8.841 -0.0883 -0.0050 -3.5134
  692MOL0     H95482   5.453   2.937   8.883  0.4421  4.2382 -0.3872
  692MOL0     H95483   5.228   2.931   8.957  2.8567  3.7537 -2.8010
  692MOL0     H95484   4.956   2.936   9.203  2.1715  2.9345  1.0666
  692MOL0     H95485   5.050   2.957   9.060  1.0306 -2.7589 -2.8138
  692MOL0     H95486   5.040   2.717   9.003  0.0588  1.2861 -0.5381
  692MOL0     H95487   4.883   2.772   9.036  1.7138 -1.1496 -1.5946
  692MOL0     H95488   4.914   2.563   9.158 -0.2808 -1.7644  1.4138
  692MOL0     H95489   5.043   2.638   9.261 -1.3659  0.6257  2.3629
  692MOL0     H95490   4.743   2.742   9.245 -1.1097  1.2559  0.9081
  692MOL0     H95491   4.855   2.810   9.343 -1.2930  1.1670 -1.0291
  692MOL0     H95492   4.769   2.486   9.587 -2.4090  0.1557 -0.7803
  692MOL0     H95493   5.353   2.823   9.355  0.7794  0.6280  0.2317
  692MOL0     H95494   5.554   2.792   9.419  1.0814 -0.4049  0.6529
  692MOL0     H95495   5.662   2.732   9.302 -1.7548 -1.0483  1.7516
  692MOL0     H95496   5.663   2.912   9.357 -3.1357  1.5660 -0.6967
  693MOL0     O95497   8.125   6.690   6.278 -0.1097  0.3891  0.0361
  693MOL0     C95498   8.052   6.776   6.231 -0.1287  0.7667  0.1766
  693MOL0     O95499   7.925   6.789   6.270 -0.1881  0.1915  0.7026
  693MOL0     C95500   7.875   6.725   6.389 -0.4051  0.2218 -0.1395
  693MOL0     C95501   7.944   6.688   6.510 -0.4777  0.0920  0.2022
  693MOL0     C95502   7.873   6.642   6.625 -0.5637  0.2458  0.6415
  693MOL0     C95503   7.740   6.623   6.617 -0.2417 -1.4135  0.2480
  693MOL0     O95504   7.668   6.585   6.723 -0.2293  0.7870 -0.3631
  693MOL0     C95505   7.716   6.490   6.807 -0.2880 -0.8346  0.6923
  693MOL0     C95506   7.595   6.412   6.862  0.0404 -0.1901  0.3397
  693MOL0     C95507   7.628   6.341   6.996 -0.1986 -0.7388  0.3636
  693MOL0     C95508   7.688   6.204   6.968  0.2243  0.0134  0.2308
  693MOL0     C95509   7.725   6.133   7.096  0.6272  0.0547 -0.2318
  693MOL0     C95510   7.750   5.987   7.066  0.3312 -0.3301 -0.4541
  693MOL0     C95511   7.823   5.922   7.184  0.8847  0.1752 -0.2969
  693MOL0     C95512   7.751   5.932   7.323 -0.7396  0.2534 -0.0421
  693MOL0     N95513   7.811   5.831   7.411 -0.2190  0.2676 -0.3844
  693MOL0     C95514   7.732   5.751   7.498 -0.9590 -0.8827  0.6394
  693MOL0     C95515   7.814   5.703   7.589 -0.4322  1.2321  0.5037
  693MOL0     C95516   7.760   5.617   7.701 -1.4143 -0.0565  0.3133
  693MOL0     C95517   7.638   5.673   7.764 -0.1106  0.3856  0.0627
  693MOL0     C95518   7.611   5.622   7.910 -0.5314 -0.1523 -0.6261
  693MOL0     C95519   7.551   5.487   7.929  0.0567  0.0730  0.5044
  693MOL0     O95520   7.420   5.493   7.870 -0.4748  0.2472  0.4367
  693MOL0     C95521   7.339   5.393   7.860  0.0959  0.1683 -0.4213
  693MOL0     C95522   7.230   5.392   7.770 -1.1541  0.5962 -0.1819
  693MOL0     C95523   7.137   5.288   7.769 -0.6353  0.3988 -0.9868
  693MOL0     C95524   7.038   5.288   7.658 -0.3587  0.5940  0.0076
  693MOL0     C95525   7.146   5.187   7.866 -0.0869  0.2763  0.3197
  693MOL0     C95526   7.039   5.080   7.876  0.2459 -0.0652  0.4794
  693MOL0     O95527   6.910   5.130   7.890 -0.0978  0.1007 -0.4293
  693MOL0     C95528   6.807   5.052   7.935 -0.4804 -1.2619 -0.5569
  693MOL0     C95529   6.682   5.123   7.934 -0.0734 -0.0402 -0.9625
  693MOL0     C95530   6.569   5.059   7.991 -0.2636  0.5703 -0.8944
  693MOL0     C95531   6.572   4.941   8.062  0.0654 -0.7237  0.4009
  693MOL0     O95532   6.477   4.893   8.152 -0.2103  0.9765  0.5555
  693MOL0     C95533   6.401   4.981   8.227 -0.2930 -0.3778  0.3422
  693MOL0     C95534   6.302   4.897   8.302  0.0299 -0.8219  0.2422
  693MOL0     C95535   6.356   4.801   8.407 -0.8891 -0.2405  0.0025
  693MOL0     C95536   6.250   4.761   8.504  1.1149  0.3244 -0.0947
  693MOL0     C95537   6.258   4.608   8.534 -0.0949  0.2051 -1.0911
  693MOL0     C95538   6.194   4.593   8.674 -0.9141  0.1301 -0.3417
  693MOL0     C95539   6.207   4.453   8.725  0.2190  0.4115  0.0635
  693MOL0     C95540   6.111   4.365   8.647  0.4401 -0.7031 -0.0276
  693MOL0    Cl95541   6.071   4.209   8.729 -0.3680  0.0329  0.0449
  693MOL0     C95542   6.687   4.867   8.058 -0.0864  0.4288  0.2882
  693MOL0     C95543   6.810   4.920   8.000  0.1074  0.5596  0.1925
  693MOL0     O95544   7.071   4.961   7.861  0.7739 -0.7044 -1.1091
  693MOL0     C95545   7.260   5.172   7.947  0.4372 -0.0751  0.2759
  693MOL0     C95546   7.345   5.278   7.954 -0.5856  0.5178  0.1235
  693MOL0     N95547   7.943   5.740   7.544 -0.0453 -0.3007  0.4928
  693MOL0     N95548   7.941   5.821   7.450 -0.1401 -0.0838 -0.6191
  693MOL0     C95549   7.674   6.658   6.502 -0.8234 -0.0334 -0.5316
  693MOL0     C95550   7.734   6.704   6.388 -0.4182  0.1867  0.5988
  693MOL0     C95551   8.094   6.872   6.130 -0.1820 -0.1540  0.9094
  693MOL0     C95552   7.999   6.973   6.093  0.6449  0.8204  0.1682
  693MOL0     C95553   8.022   7.061   5.992  0.3854  0.2839 -0.2727
  693MOL0     C95554   8.147   7.056   5.930  0.2266 -0.2291 -0.6299
  693MOL0     O95555   8.192   7.114   5.818  0.8794 -0.7340  0.0983
  693MOL0     C95556   8.112   7.216   5.755 -0.0232 -1.2570 -0.1006
  693MOL0     C95557   8.195   7.271   5.638 -0.5846  0.5235  0.3907
  693MOL0     C95558   8.223   7.158   5.544  0.1880  0.1739  0.4728
  693MOL0     C95559   8.294   7.190   5.406  1.1629 -0.0884  0.4842
  693MOL0     C95560   8.414   7.273   5.404 -0.8090 -0.3032  0.3027
  693MOL0     C95561   8.513   7.347   5.405  0.9918 -0.2760 -0.0363
  693MOL0     C95562   8.239   6.964   5.969  0.2822  0.6303  0.1697
  693MOL0     C95563   8.223   6.875   6.064  0.6964  1.0692 -1.2344
  693MOL0     C95564   8.327   6.767   6.082  0.1128 -0.5655  0.1960
  693MOL0     H95565   8.052   6.688   6.507 -0.4712 -1.6118 -2.0146
  693MOL0     H95566   7.930   6.629   6.717  0.7534  1.5763  0.0511
  693MOL0     H95567   7.748   6.544   6.897 -2.7657  0.8122  0.6891
  693MOL0     H95568   7.797   6.427   6.770  1.2553  1.7738 -0.6337
  693MOL0     H95569   7.521   6.491   6.876  0.9421  0.9864 -1.1855
  693MOL0     H95570   7.557   6.345   6.785 -0.5448  0.3661  0.1376
  693MOL0     H95571   7.688   6.402   7.064 -1.2938 -0.0423  0.7442
  693MOL0     H95572   7.536   6.302   7.041 -1.0837  0.4863 -0.3338
  693MOL0     H95573   7.624   6.148   6.900 -2.0966  0.8673  1.5713
  693MOL0     H95574   7.778   6.224   6.910 -0.1126  0.3600 -0.1744
  693MOL0     H95575   7.641   6.140   7.166  0.5490  0.1986 -0.3409
  693MOL0     H95576   7.811   6.180   7.143  2.5804 -4.6030  1.4719
  693MOL0     H95577   7.655   5.934   7.053 -2.0609  1.2469  6.1897
  693MOL0     H95578   7.819   5.979   6.982  0.3590  0.9198 -0.5675
  693MOL0     H95579   7.924   5.966   7.193  1.4912 -1.0376 -1.0060
  693MOL0     H95580   7.828   5.816   7.159  1.3752 -0.2276  1.3749
  693MOL0     H95581   7.780   6.025   7.372 -1.0082 -2.0379  5.1778
  693MOL0     H95582   7.642   5.924   7.318 -0.9197 -2.6601  3.8519
  693MOL0     H95583   7.624   5.742   7.496 -1.5400  3.1040  3.3604
  693MOL0     H95584   7.839   5.612   7.777 -0.5739 -0.4919 -0.5778
  693MOL0     H95585   7.736   5.514   7.674  0.4704 -0.5674  0.4551
  693MOL0     H95586   7.648   5.782   7.760  0.6985  0.2900 -0.6147
  693MOL0     H95587   7.549   5.651   7.703  0.4528 -0.7972 -0.3600
  693MOL0     H95588   7.703   5.626   7.968 -1.4091  0.7677  0.7730
  693MOL0     H95589   7.540   5.691   7.956  0.3850  2.0242 -2.2763
  693MOL0     H95590   7.615   5.415   7.876 -0.2105  1.0434 -1.1941
  693MOL0     H95591   7.533   5.459   8.033 -2.1810 -2.1477 -0.3512
  693MOL0     H95592   7.210   5.468   7.695 -4.0213  1.6055  1.4187
  693MOL0     H95593   6.943   5.320   7.701 -0.5953 -0.0685 -0.0034
  693MOL0     H95594   7.033   5.192   7.605 -2.4970  0.4519  0.3917
  693MOL0     H95595   7.068   5.364   7.585 -0.8169  0.3710 -0.4202
  693MOL0     H95596   6.670   5.225   7.898 -4.3230  0.5831  1.6434
  693MOL0     H95597   6.477   5.117   7.991 -1.3623 -1.0149 -3.2395
  693MOL0     H95598   6.461   5.037   8.300  3.0530  0.4383 -2.7056
  693MOL0     H95599   6.349   5.052   8.162 -1.3083 -0.9666  0.4918
  693MOL0     H95600   6.230   4.972   8.337  1.1527 -0.6844  2.4529
  693MOL0     H95601   6.252   4.841   8.222  0.6365 -0.2961 -0.5123
  693MOL0     H95602   6.431   4.866   8.455 -3.2447  3.0125 -0.3914
  693MOL0     H95603   6.406   4.717   8.359  1.8590  1.2310  0.0861
  693MOL0     H95604   6.148   4.786   8.474 -0.2093 -0.2067  3.4556
  693MOL0     H95605   6.277   4.814   8.596  2.3042 -0.5309  0.0759
  693MOL0     H95606   6.205   4.544   8.463  0.8123 -4.0207  1.6699
  693MOL0     H95607   6.361   4.574   8.549 -0.5209 -0.1163  1.6924
  693MOL0     H95608   6.089   4.624   8.679 -0.7617  0.7548 -0.8378
  693MOL0     H95609   6.251   4.662   8.737  2.2672 -2.2322 -0.3660
  693MOL0     H95610   6.181   4.458   8.831  1.0591 -2.1623  0.4513
  693MOL0     H95611   6.307   4.412   8.711  1.9076  4.6600 -2.2240
  693MOL0     H95612   6.140   4.340   8.544  0.6623  1.0036 -0.4102
  693MOL0     H95613   6.016   4.418   8.641  0.5893 -0.1424  1.8880
  693MOL0     H95614   6.680   4.763   8.089  1.3591  0.2716  0.1698
  693MOL0     H95615   6.906   4.877   8.027  0.9208  3.0018  1.4804
  693MOL0     H95616   7.261   5.085   8.011 -1.5673 -0.6575 -0.4328
  693MOL0     H95617   7.423   5.283   8.030 -0.5765  0.5638  0.1108
  693MOL0     H95618   7.570   6.629   6.509  0.5137 -5.5250  1.6623
  693MOL0     H95619   7.680   6.725   6.297  0.3949 -1.3381 -0.2835
  693MOL0     H95620   7.900   6.978   6.137  0.8163 -0.2812  0.7311
  693MOL0     H95621   7.942   7.126   5.957  0.2939  0.8768  0.9831
  693MOL0     H95622   8.016   7.179   5.719 -1.5201  0.4763  1.8170
  693MOL0     H95623   8.094   7.303   5.818  0.8878 -2.2491  1.6088
  693MOL0     H95624   8.286   7.311   5.682  0.1313 -2.9991  2.4517
  693MOL0     H95625   8.140   7.340   5.573  0.8776 -3.4973 -6.0595
  693MOL0     H95626   8.271   7.073   5.594 -3.1225 -1.1181  1.7173
  693MOL0     H95627   8.132   7.116   5.500  2.3740 -1.9211 -2.3787
  693MOL0     H95628   8.222   7.240   5.341  3.4231 -0.4501 -2.5346
  693MOL0     H95629   8.321   7.097   5.355 -0.2821 -0.5881  0.5973
  693MOL0     H95630   8.592   7.419   5.410  0.2265  0.4945  1.8658
  693MOL0     H95631   8.328   6.955   5.907  0.0941 -1.9928  0.1573
  693MOL0     H95632   8.417   6.799   6.029 -0.5732 -0.9643 -1.2734
  693MOL0     H95633   8.348   6.747   6.187 -0.3883 -1.8585  0.0603
  693MOL0     H95634   8.294   6.672   6.040 -2.0030  0.2384 -0.1161
  694MOL0     O95635   3.931   8.208  11.296  0.4322 -0.1087 -0.5115
  694MOL0     C95636   3.848   8.156  11.372 -0.7560  0.9848 -0.3397
  694MOL0     O95637   3.712   8.184  11.370 -0.3134 -0.1457  0.6169
  694MOL0     C95638   3.651   8.263  11.273  0.1226  0.2611 -0.5241
  694MOL0     C95639   3.705   8.280  11.140  0.1909  0.3440  0.0973
  694MOL0     C95640   3.644   8.370  11.055 -0.0936 -0.3373 -0.5272
  694MOL0     C95641   3.529   8.442  11.095  0.9051  0.8173 -0.3708
  694MOL0     O95642   3.473   8.527  11.002  1.3145  0.6911 -0.0361
  694MOL0     C95643   3.336   8.571  11.030 -0.0901 -0.0575 -0.5840
  694MOL0     C95644   3.281   8.637  10.903  0.2258 -0.5309  0.7297
  694MOL0     C95645   3.175   8.742  10.944  0.0690  0.3072  0.3744
  694MOL0     C95646   3.081   8.778  10.823  0.4389  0.0786  0.5609
  694MOL0     C95647   3.150   8.877  10.728  0.8925  0.1552  0.5186
  694MOL0     C95648   3.182   9.011  10.797  0.7309 -0.0198 -0.5489
  694MOL0     C95649   3.194   9.130  10.706 -0.7655 -0.2362 -0.6030
  694MOL0     C95650   3.183   9.250  10.793  0.7874 -0.8587 -1.1596
  694MOL0     N95651   3.299   9.263  10.881  0.3689 -0.1931 -0.0256
  694MOL0     C95652   3.429   9.221  10.869 -0.4318  0.5391 -0.1790
  694MOL0     C95653   3.484   9.220  10.998 -0.6888 -0.3073  0.2917
  694MOL0     C95654   3.620   9.170  11.018  0.0552 -0.0630 -0.4306
  694MOL0     C95655   3.625   9.069  11.135  0.9903  0.0861 -0.2921
  694MOL0     C95656   3.540   8.936  11.123  0.7900 -0.4872  0.2285
  694MOL0     C95657   3.567   8.837  11.233 -0.2224  0.7146  1.0041
  694MOL0     O95658   3.696   8.776  11.206  0.0244  0.4255 -0.5008
  694MOL0     C95659   3.755   8.700  11.304 -0.7087 -1.0962 -0.3226
  694MOL0     C95660   3.685   8.638  11.413  0.3024 -0.1492  0.7463
  694MOL0     C95661   3.739   8.563  11.522  0.5444  0.4319  0.4631
  694MOL0     C95662   3.653   8.544  11.647 -0.1468 -0.2264  0.2190
  694MOL0     C95663   3.876   8.528  11.501 -0.1041  0.2220 -1.0964
  694MOL0     C95664   3.958   8.432  11.586 -0.2938 -0.1807  0.1278
  694MOL0     O95665   4.055   8.362  11.524 -0.6360 -0.1491 -0.2193
  694MOL0     C95666   4.137   8.286  11.605  0.0409  0.1105 -0.9024
  694MOL0     C95667   4.272   8.273  11.571  0.1395  0.0524  0.7796
  694MOL0     C95668   4.371   8.218  11.645 -0.6033 -0.4666  0.0194
  694MOL0     C95669   4.343   8.153  11.758 -0.3991  0.9182  0.1975
  694MOL0     O95670   4.428   8.069  11.823  0.4520 -0.2810  0.3651
  694MOL0     C95671   4.549   8.032  11.756 -1.0210 -0.5407 -0.3749
  694MOL0     C95672   4.627   7.951  11.863  0.8352 -0.3222  0.3482
  694MOL0     C95673   4.576   7.813  11.895  0.3142  0.2164  0.9316
  694MOL0     C95674   4.695   7.718  11.952 -0.2333  0.6423  0.6206
  694MOL0     C95675   4.650   7.592  12.025  0.7883 -0.0358  0.5817
  694MOL0     C95676   4.603   7.494  11.916 -0.2267  0.3152  0.0032
  694MOL0     C95677   4.540   7.375  11.975  0.5647  0.8349  0.2779
  694MOL0     C95678   4.626   7.308  12.087  0.1650  0.8016 -0.0668
  694MOL0    Cl95679   4.567   7.146  12.116 -0.1818 -0.3138 -0.0086
  694MOL0     C95680   4.207   8.142  11.789  1.0147  0.3814  0.7348
  694MOL0     C95681   4.102   8.214  11.725  0.3645 -0.8215  0.5051
  694MOL0     O95682   3.950   8.452  11.706 -0.0441 -0.1921  0.2431
  694MOL0     C95683   3.943   8.567  11.382 -0.4099 -0.1028  0.9894
  694MOL0     C95684   3.883   8.639  11.274  0.2453  0.2444 -0.7234
  694MOL0     N95685   3.384   9.253  11.084 -0.2973  0.0030 -0.5900
  694MOL0     N95686   3.283   9.296  11.016 -0.1436 -0.9548  0.2480
  694MOL0     C95687   3.465   8.413  11.224  0.3053 -0.1803 -0.1096
  694MOL0     C95688   3.533   8.327  11.315  0.0678 -0.2318  0.1242
  694MOL0     C95689   3.895   8.065  11.477 -0.4586  0.8053  0.3891
  694MOL0     C95690   4.006   7.977  11.449  0.1516  0.2415 -1.0360
  694MOL0     C95691   4.079   7.896  11.543  0.1142 -0.9746  0.2459
  694MOL0     C95692   4.023   7.899  11.671  0.2541 -0.0319  0.6183
  694MOL0     O95693   4.060   7.822  11.783  0.1720  0.6670  0.8078
  694MOL0     C95694   4.163   7.717  11.758  0.5793 -0.6720  0.1643
  694MOL0     C95695   4.187   7.635  11.881 -0.2936  0.0647 -0.5114
  694MOL0     C95696   4.082   7.518  11.901  0.0654  0.4331 -0.8434
  694MOL0     C95697   4.055   7.431  11.786 -0.2240  0.1390 -0.1903
  694MOL0     C95698   3.998   7.303  11.816 -0.6530  0.5160 -0.0432
  694MOL0     C95699   3.936   7.201  11.848  0.6760 -1.1919 -0.0711
  694MOL0     C95700   3.906   7.970  11.701 -0.6162  0.6613 -0.0798
  694MOL0     C95701   3.847   8.053  11.611 -0.4480  0.5463  0.2266
  694MOL0     C95702   3.737   8.144  11.656  0.6072 -0.6744 -0.4226
  694MOL0     H95703   3.785   8.223  11.093  0.3834  2.3048 -2.1826
  694MOL0     H95704   3.674   8.385  10.952  0.8223 -1.3600 -0.4193
  694MOL0     H95705   3.339   8.644  11.111 -2.2409  1.4822 -1.7843
  694MOL0     H95706   3.274   8.488  11.064 -1.0419  0.2271 -1.5466
  694MOL0     H95707   3.362   8.680  10.842  1.5415 -2.8510  0.7208
  694MOL0     H95708   3.237   8.553  10.850 -1.9241  1.4119 -0.7620
  694MOL0     H95709   3.114   8.696  11.022 -1.1744  0.5369 -0.4353
  694MOL0     H95710   3.217   8.832  10.990  2.7215 -1.2927  1.3294
  694MOL0     H95711   3.044   8.685  10.778  0.8990  1.5012 -3.0732
  694MOL0     H95712   2.992   8.833  10.856  0.1124  0.0856 -0.3131
  694MOL0     H95713   3.077   8.888  10.647 -0.7553 -4.0756  1.1509
  694MOL0     H95714   3.240   8.837  10.681  1.3621  1.3702  0.3588
  694MOL0     H95715   3.098   9.042  10.861 -1.3230  2.9832 -4.3088
  694MOL0     H95716   3.276   8.999  10.852 -0.2265  5.3535  3.1298
  694MOL0     H95717   3.104   9.129  10.645  0.3419  1.0328 -2.3593
  694MOL0     H95718   3.282   9.131  10.640 -1.5021  2.4594 -1.6419
  694MOL0     H95719   3.184   9.350  10.750 -0.8724  0.5719  1.8141
  694MOL0     H95720   3.093   9.242  10.855  1.6784  3.5072  1.1002
  694MOL0     H95721   3.482   9.197  10.777 -0.9723  2.8808 -1.1706
  694MOL0     H95722   3.691   9.251  11.040  0.1606 -0.7151  1.7730
  694MOL0     H95723   3.648   9.118  10.925  0.4605  1.0953 -0.9719
  694MOL0     H95724   3.730   9.043  11.152 -0.0263 -4.0984  0.7497
  694MOL0     H95725   3.575   9.122  11.216 -1.4119  2.0299 -2.8599
  694MOL0     H95726   3.433   8.958  11.128  1.1040  1.9038 -1.3674
  694MOL0     H95727   3.575   8.887  11.032  0.6299 -2.0014  0.9588
  694MOL0     H95728   3.575   8.901  11.321  5.4650  2.8894 -0.6560
  694MOL0     H95729   3.486   8.764  11.226 -0.7767  1.4794 -2.2975
  694MOL0     H95730   3.580   8.667  11.418 -0.0390 -0.5733 -2.1431
  694MOL0     H95731   3.707   8.485  11.722 -1.1086 -0.4435  0.7530
  694MOL0     H95732   3.554   8.504  11.622  0.0858 -0.6789  0.0176
  694MOL0     H95733   3.629   8.635  11.704 -1.9992  0.2451 -1.2036
  694MOL0     H95734   4.296   8.317  11.474  2.3136  0.7798  1.5854
  694MOL0     H95735   4.472   8.231  11.609 -0.8804 -4.6106 -2.9447
  694MOL0     H95736   4.546   7.986  11.657 -3.5875  2.5504 -1.9305
  694MOL0     H95737   4.609   8.120  11.732 -2.4158  0.5833  0.0612
  694MOL0     H95738   4.728   7.935  11.825  0.4575  0.1201 -0.8995
  694MOL0     H95739   4.641   8.017  11.949 -1.5157 -0.8926  1.2512
  694MOL0     H95740   4.531   7.761  11.810 -0.8069  5.2023 -1.9486
  694MOL0     H95741   4.500   7.837  11.970 -0.9054  2.2542 -0.8380
  694MOL0     H95742   4.750   7.783  12.021  2.4472  1.1809 -1.8558
  694MOL0     H95743   4.763   7.697  11.870 -0.1458  3.3754 -0.1082
  694MOL0     H95744   4.735   7.558  12.086  0.8922  0.7956  0.9156
  694MOL0     H95745   4.574   7.635  12.091  0.6447  2.6628 -1.2144
  694MOL0     H95746   4.691   7.465  11.856  0.7708  1.5678  0.8180
  694MOL0     H95747   4.534   7.543  11.847 -1.0397 -1.7671 -0.7579
  694MOL0     H95748   4.512   7.302  11.898  0.8213  0.4537  0.5390
  694MOL0     H95749   4.443   7.400  12.019  0.9184  4.6332 -0.7425
  694MOL0     H95750   4.620   7.360  12.183 -0.7236  1.2945 -0.3759
  694MOL0     H95751   4.729   7.305  12.050  0.6916  2.7420  1.0823
  694MOL0     H95752   4.184   8.093  11.883  1.3170  2.2389  1.8249
  694MOL0     H95753   3.998   8.211  11.755  0.6453  2.4505  2.3252
  694MOL0     H95754   4.049   8.563  11.359 -0.9501  1.4027 -2.3263
  694MOL0     H95755   3.942   8.657  11.185 -1.8074 -2.5966 -2.8171
  694MOL0     H95756   3.376   8.460  11.265  0.2684 -1.5070  1.4306
  694MOL0     H95757   3.493   8.319  11.416 -1.7716  1.1810 -0.4487
  694MOL0     H95758   4.044   7.988  11.348  0.0733  0.7472 -1.0113
  694MOL0     H95759   4.171   7.846  11.514  0.0714 -3.0001  3.1982
  694MOL0     H95760   4.134   7.651  11.676 -2.1215 -1.4666  1.6090
  694MOL0     H95761   4.252   7.769  11.721  1.5309 -1.6014  1.0605
  694MOL0     H95762   4.207   7.698  11.968 -1.6700  2.4647 -1.8497
  694MOL0     H95763   4.282   7.581  11.870  0.5836  1.0663  1.7115
  694MOL0     H95764   4.128   7.458  11.980  1.3468  3.8890  1.2352
  694MOL0     H95765   3.991   7.562  11.944  1.6937  2.7915  0.4380
  694MOL0     H95766   4.156   7.407  11.749  0.4879  1.1946  0.9962
  694MOL0     H95767   3.991   7.487  11.718  1.6055  5.0318  1.6831
  694MOL0     H95768   3.871   7.120  11.871  2.8620 -3.0071  0.0505
  694MOL0     H95769   3.870   7.955  11.803 -1.4179 -2.6339 -0.7181
  694MOL0     H95770   3.648   8.111  11.602 -1.9244  0.8698  2.4735
  694MOL0     H95771   3.702   8.153  11.759 -0.0624  1.2744 -0.7802
  694MOL0     H95772   3.755   8.245  11.619  2.3426 -0.9716 -0.4911
  695MOL0     O95773   3.806  11.579   4.929 -0.3703 -0.3211  0.3864
  695MOL0     C95774   3.778  11.693   4.889 -0.2259  0.4332  0.4082
  695MOL0     O95775   3.870  11.793   4.860 -0.2201 -0.4013 -0.1692
  695MOL0     C95776   3.982  11.796   4.934  0.3091 -1.6063 -0.7957
  695MOL0     C95777   4.100  11.803   4.855  0.2760  0.3096  0.1991
  695MOL0     C95778   4.221  11.813   4.932 -0.5484 -0.3513  0.1589
  695MOL0     C95779   4.221  11.809   5.068  0.4841 -0.6092 -0.2924
  695MOL0     O95780   4.345  11.822   5.129 -0.2576 -0.3443  0.2755
  695MOL0     C95781   4.438  11.715   5.130  0.3837  0.3089  0.0335
  695MOL0     C95782   4.532  11.737   5.244 -0.0991  0.2715  0.1662
  695MOL0     C95783   4.641  11.639   5.238  0.6481 -0.6116 -0.4114
  695MOL0     C95784   4.753  11.686   5.330  0.2837 -0.3149  0.1986
  695MOL0     C95785   4.844  11.579   5.335 -0.0298  0.7469 -0.7355
  695MOL0     C95786   4.961  11.608   5.434  0.0479 -0.2745  0.2768
  695MOL0     C95787   5.086  11.509   5.408 -0.4497 -0.6548  0.6104
  695MOL0     C95788   5.074  11.408   5.524 -0.5443 -0.8200  1.0479
  695MOL0     N95789   5.187  11.318   5.531  0.4382 -0.5322 -0.2409
  695MOL0     C95790   5.198  11.201   5.456 -0.1395 -0.4360  0.4645
  695MOL0     C95791   5.311  11.146   5.504 -0.4130  0.2016 -0.0684
  695MOL0     C95792   5.359  11.008   5.471 -1.4212  0.8440 -0.5141
  695MOL0     C95793   5.464  11.009   5.365 -1.2447  1.0374 -0.0847
  695MOL0     C95794   5.602  11.057   5.422  0.6327  0.2237 -0.5592
  695MOL0     C95795   5.699  11.082   5.306  0.5090 -0.8451 -0.2981
  695MOL0     O95796   5.775  10.964   5.270  0.6302 -0.4042  0.1231
  695MOL0     C95797   5.853  10.955   5.155  0.2076 -0.7274  0.5031
  695MOL0     C95798   5.910  10.832   5.129  0.1453  0.1040 -0.8204
  695MOL0     C95799   5.990  10.816   5.021 -0.1054 -0.0643 -0.4944
  695MOL0     C95800   6.037  10.677   4.983 -0.2396  0.1690  0.3531
  695MOL0     C95801   6.036  10.928   4.949  0.3138 -0.4400  1.2922
  695MOL0     C95802   6.124  10.928   4.828  0.2409 -0.3936  1.2488
  695MOL0     O95803   6.111  10.815   4.742  0.3009 -0.3938 -0.3411
  695MOL0     C95804   6.207  10.777   4.661  0.5010 -0.3186 -0.3617
  695MOL0     C95805   6.289  10.868   4.587 -1.2296  0.8522  0.4440
  695MOL0     C95806   6.377  10.809   4.499 -0.2235 -0.1352 -0.4321
  695MOL0     C95807   6.394  10.672   4.481  0.7650 -0.0631 -1.1440
  695MOL0     O95808   6.490  10.617   4.399 -0.1702  0.2319 -0.0946
  695MOL0     C95809   6.469  10.486   4.335  0.0624 -0.2682 -0.1778
  695MOL0     C95810   6.538  10.498   4.197  0.2314  0.8602  0.1477
  695MOL0     C95811   6.689  10.500   4.206 -0.1983 -0.5173  0.4104
  695MOL0     C95812   6.745  10.460   4.067 -1.1410  0.0349 -0.1177
  695MOL0     C95813   6.889  10.501   4.053  0.6606  0.3295 -0.7430
  695MOL0     C95814   6.954  10.432   3.937  0.5620 -1.0599 -0.3162
  695MOL0     C95815   7.099  10.434   3.971 -0.2178 -0.2146 -0.4616
  695MOL0     C95816   7.183  10.381   3.858 -0.0684  0.0699 -0.9554
  695MOL0    Cl95817   7.164  10.460   3.692 -0.7305 -0.0077 -0.0477
  695MOL0     C95818   6.317  10.585   4.566 -0.1152 -0.1678  0.6976
  695MOL0     C95819   6.223  10.638   4.653  1.1824  0.6753 -0.3092
  695MOL0     O95820   6.210  11.014   4.817  0.1169  0.3620  0.4692
  695MOL0     C95821   5.968  11.047   4.965  0.2261 -0.2095  0.3535
  695MOL0     C95822   5.876  11.055   5.065  0.9878 -0.4178  0.4798
  695MOL0     N95823   5.363  11.233   5.605 -0.2957  0.2475 -0.5657
  695MOL0     N95824   5.282  11.333   5.619 -0.3271 -0.6931 -0.1933
  695MOL0     C95825   4.102  11.813   5.143  1.1703  1.0244 -0.6196
  695MOL0     C95826   3.980  11.809   5.076 -0.1266 -0.4544 -0.6411
  695MOL0     C95827   3.639  11.744   4.875  0.4533  0.1723 -0.7213
  695MOL0     C95828   3.617  11.890   4.868  0.6592  0.1378  0.0360
  695MOL0     C95829   3.491  11.949   4.851  0.0626  0.0594 -0.0850
  695MOL0     C95830   3.379  11.861   4.839  0.0294  0.2775  0.2075
  695MOL0     O95831   3.250  11.920   4.808 -0.3740  0.1467 -0.3925
  695MOL0     C95832   3.223  11.912   4.666  0.6478  0.9513 -0.4136
  695MOL0     C95833   3.301  12.014   4.592 -0.9647 -0.6740  0.0104
  695MOL0     C95834   3.306  12.004   4.440  0.3653 -0.2401  0.5804
  695MOL0     C95835   3.176  11.982   4.369  0.2000 -0.5147 -0.2596
  695MOL0     C95836   3.079  12.084   4.396  0.1240  1.6057 -0.4340
  695MOL0     C95837   2.992  12.162   4.437 -0.0125 -0.1675 -0.0467
  695MOL0     C95838   3.392  11.727   4.867 -0.2012  0.7124  1.0941
  695MOL0     C95839   3.522  11.661   4.880  0.5212  0.5184  0.5297
  695MOL0     C95840   3.532  11.512   4.881 -1.1716  0.0794  0.4310
  695MOL0     H95841   4.107  11.777   4.750  0.0257  0.9781  0.0134
  695MOL0     H95842   4.320  11.798   4.891 -0.0810 -1.9939  1.7539
  695MOL0     H95843   4.490  11.727   5.034 -1.3944 -0.1831 -1.0226
  695MOL0     H95844   4.384  11.621   5.134 -2.0093  1.0302 -5.5802
  695MOL0     H95845   4.576  11.837   5.248  0.7573 -0.1161  1.3325
  695MOL0     H95846   4.469  11.724   5.332 -1.5978 -2.3372 -1.1639
  695MOL0     H95847   4.602  11.549   5.285  1.7274 -0.3169  1.1218
  695MOL0     H95848   4.691  11.631   5.140  1.8451  1.2312 -0.0110
  695MOL0     H95849   4.801  11.777   5.292 -3.6775  2.7564  1.8483
  695MOL0     H95850   4.708  11.716   5.425 -0.4469 -1.3126  0.1738
  695MOL0     H95851   4.881  11.549   5.236 -1.0020 -1.5826 -0.4483
  695MOL0     H95852   4.795  11.490   5.375 -1.1618  1.0920 -1.3053
  695MOL0     H95853   5.002  11.709   5.418 -0.5299 -0.2576 -1.2824
  695MOL0     H95854   4.923  11.600   5.536 -0.1104  0.4190  0.2789
  695MOL0     H95855   5.183  11.560   5.411 -1.2356  0.9594  4.1116
  695MOL0     H95856   5.078  11.456   5.313 -1.5912  2.4272 -1.1409
  695MOL0     H95857   5.063  11.472   5.611  1.4277  1.7959 -0.4793
  695MOL0     H95858   4.981  11.353   5.507  0.7195 -3.1231  1.0713
  695MOL0     H95859   5.128  11.166   5.381 -2.9585  2.6613  1.3900
  695MOL0     H95860   5.274  10.945   5.445  0.1473 -1.6078 -0.0941
  695MOL0     H95861   5.407  10.969   5.562  1.1334 -1.5753 -2.6906
  695MOL0     H95862   5.468  10.907   5.325  0.5717 -0.1997  2.8795
  695MOL0     H95863   5.437  11.081   5.287  2.9549  0.6705 -2.1560
  695MOL0     H95864   5.590  11.151   5.475 -1.3578 -0.7047  0.7510
  695MOL0     H95865   5.648  10.994   5.499 -2.2981 -2.2334 -0.6482
  695MOL0     H95866   5.644  11.122   5.221 -0.3445  3.9993  2.1919
  695MOL0     H95867   5.764  11.165   5.335 -2.9262  2.4328 -1.2356
  695MOL0     H95868   5.895  10.745   5.193  0.3408  0.0183 -0.8904
  695MOL0     H95869   5.986  10.638   4.894 -1.1612  2.0856 -0.0205
  695MOL0     H95870   6.020  10.606   5.064  2.0700 -1.0884 -0.1736
  695MOL0     H95871   6.144  10.683   4.959 -0.3392  1.7358  0.1943
  695MOL0     H95872   6.272  10.975   4.593  3.0539  1.6254  2.8052
  695MOL0     H95873   6.437  10.873   4.435  0.3697  0.4452  0.6749
  695MOL0     H95874   6.516  10.403   4.388 -0.1443 -1.4716 -1.8302
  695MOL0     H95875   6.364  10.464   4.314  0.4605  0.4947 -3.4448
  695MOL0     H95876   6.517  10.401   4.150 -1.9219  0.4890  1.7331
  695MOL0     H95877   6.502  10.588   4.145  2.4673  2.5281  1.2998
  695MOL0     H95878   6.727  10.439   4.288 -1.1589  2.0547  2.9173
  695MOL0     H95879   6.724  10.601   4.232  0.6445 -1.2095  2.0650
  695MOL0     H95880   6.697  10.509   3.982  0.9689 -0.3408 -1.6177
  695MOL0     H95881   6.726  10.353   4.066 -0.5605 -0.1170  1.4434
  695MOL0     H95882   6.904  10.609   4.044 -1.4516  0.7175 -0.1338
  695MOL0     H95883   6.939  10.477   4.147  0.6832  1.7312 -0.3760
  695MOL0     H95884   6.919  10.473   3.841 -1.7901 -5.3396 -1.5390
  695MOL0     H95885   6.926  10.326   3.935  1.1958 -1.2616 -3.1636
  695MOL0     H95886   7.124  10.378   4.062  1.4042 -0.8633 -1.2582
  695MOL0     H95887   7.127  10.538   3.992 -0.4633  0.0583 -1.4525
  695MOL0     H95888   7.164  10.273   3.851 -1.2444 -0.0277  2.3246
  695MOL0     H95889   7.283  10.404   3.895 -1.1184  0.7072  1.6474
  695MOL0     H95890   6.341  10.480   4.553  4.5648  0.7081  0.3995
  695MOL0     H95891   6.148  10.572   4.696  1.3147  0.6127 -0.1748
  695MOL0     H95892   6.004  11.132   4.907 -0.1564 -1.0041 -1.1047
  695MOL0     H95893   5.832  11.148   5.101  0.9752 -1.0525  2.2176
  695MOL0     H95894   4.099  11.837   5.249 -3.7568  0.5879 -0.3906
  695MOL0     H95895   3.886  11.815   5.131 -0.5983  3.3166 -1.5725
  695MOL0     H95896   3.697  11.963   4.867  2.4154 -1.5826 -2.9963
  695MOL0     H95897   3.477  12.056   4.849  3.4755  0.6652  0.9901
  695MOL0     H95898   3.231  11.812   4.621  1.3704  0.5842  0.5216
  695MOL0     H95899   3.118  11.942   4.663 -0.0237 -1.2010 -0.2736
  695MOL0     H95900   3.406  12.008   4.622 -0.2582  1.7953 -1.6767
  695MOL0     H95901   3.279  12.117   4.622  2.2143 -0.2091  1.0901
  695MOL0     H95902   3.354  12.091   4.395 -2.5848  0.2233 -2.0358
  695MOL0     H95903   3.376  11.921   4.425  1.7513  0.8421  0.8819
  695MOL0     H95904   3.141  11.886   4.410  2.8836 -1.0258  1.0663
  695MOL0     H95905   3.198  11.945   4.268  0.7360 -5.1944  1.3097
  695MOL0     H95906   2.920  12.241   4.449 -1.5870 -1.1659 -2.1824
  695MOL0     H95907   3.301  11.668   4.865  1.3136 -1.7548  0.6739
  695MOL0     H95908   3.434  11.466   4.864 -0.7249  0.1647 -3.1167
  695MOL0     H95909   3.598  11.489   4.796 -1.2213  2.0525 -0.1858
  695MOL0     H95910   3.572  11.468   4.973 -1.9128 -1.5525  0.0196
  696MOL0     O95911   4.859   7.133   8.391  0.5869 -0.0027  0.4814
  696MOL0     C95912   4.759   7.059   8.388  0.2784  0.3129 -0.9556
  696MOL0     O95913   4.706   6.989   8.498 -0.6087 -0.6229  0.3517
  696MOL0     C95914   4.787   6.982   8.604 -0.4425 -0.2612 -0.5467
  696MOL0     C95915   4.917   6.950   8.601 -0.1113 -0.2330 -0.0847
  696MOL0     C95916   4.988   6.921   8.716  0.4218 -0.2942  0.0046
  696MOL0     C95917   4.930   6.934   8.834 -0.6408  0.3240  0.0392
  696MOL0     O95918   5.005   6.899   8.937 -0.6513  0.6103 -0.2183
  696MOL0     C95919   5.043   7.014   9.017 -0.0908 -0.3010 -0.5412
  696MOL0     C95920   5.165   6.968   9.093  0.0991  0.0362 -0.0811
  696MOL0     C95921   5.188   7.046   9.229  0.8063  1.0186  0.0588
  696MOL0     C95922   5.297   6.979   9.311 -0.1199  0.1139  0.9828
  696MOL0     C95923   5.265   6.996   9.453 -0.1614 -0.3450 -0.3989
  696MOL0     C95924   5.365   6.912   9.538  0.2179 -0.2971 -0.2775
  696MOL0     C95925   5.302   6.871   9.669  0.2914 -1.0455 -0.1002
  696MOL0     C95926   5.398   6.851   9.791 -0.5354 -0.4146  1.0443
  696MOL0     N95927   5.460   6.729   9.793 -0.7366  0.0083 -0.6044
  696MOL0     C95928   5.402   6.603   9.821  0.7644 -0.4502 -1.2568
  696MOL0     C95929   5.510   6.514   9.812  0.3480  0.6653 -0.9216
  696MOL0     C95930   5.494   6.365   9.813  0.6704 -0.4642  0.5964
  696MOL0     C95931   5.546   6.299   9.940  0.3728  0.1197  0.3688
  696MOL0     C95932   5.491   6.153   9.938 -0.4777 -0.5525  0.3039
  696MOL0     C95933   5.502   6.078  10.080 -0.5680  0.2445 -0.2798
  696MOL0     O95934   5.629   6.101  10.139 -0.0881  0.1783  0.0023
  696MOL0     C95935   5.644   6.097  10.276 -0.6056  0.0839  0.1065
  696MOL0     C95936   5.589   6.004  10.361 -0.3447  0.2718  0.2040
  696MOL0     C95937   5.591   6.008  10.505 -0.0613 -0.7215  0.1757
  696MOL0     C95938   5.527   5.885  10.572 -1.0989 -0.7639 -0.4709
  696MOL0     C95939   5.671   6.105  10.569 -0.8510 -0.5502 -0.4438
  696MOL0     C95940   5.706   6.102  10.712 -0.5928 -0.2660  0.2989
  696MOL0     O95941   5.672   5.998  10.788  0.3448 -0.3477  0.2767
  696MOL0     C95942   5.689   6.001  10.926 -0.1426  0.2529 -0.6730
  696MOL0     C95943   5.810   6.027  10.993  0.1711 -0.0974  0.2527
  696MOL0     C95944   5.811   5.994  11.130  0.0105 -0.0477  0.6695
  696MOL0     C95945   5.692   5.957  11.200  0.8941 -1.0922 -0.0154
  696MOL0     O95946   5.690   5.956  11.345 -0.6619  0.5402  0.1149
  696MOL0     C95947   5.793   5.873  11.403 -0.5822  0.1526  0.6854
  696MOL0     C95948   5.772   5.835  11.543 -0.6490 -0.8726  1.0224
  696MOL0     C95949   5.658   5.731  11.560 -0.1485 -0.4779 -0.5878
  696MOL0     C95950   5.633   5.695  11.706  0.4675  0.2168 -0.4785
  696MOL0     C95951   5.574   5.815  11.778  0.3764 -0.5929  0.1218
  696MOL0     C95952   5.494   5.797  11.908  0.3638 -0.4090  0.5573
  696MOL0     C95953   5.575   5.749  12.024 -1.4318 -0.2067  0.3713
  696MOL0     C95954   5.591   5.597  12.023 -0.9194  0.8801  0.0613
  696MOL0    Cl95955   5.650   5.536  12.186 -0.1699 -0.0563  0.1924
  696MOL0     C95956   5.572   5.933  11.124 -0.5833 -0.2714  0.1318
  696MOL0     C95957   5.566   5.958  10.990 -0.2762 -0.7648 -1.4469
  696MOL0     O95958   5.763   6.200  10.762  0.5764  0.6426  0.0903
  696MOL0     C95959   5.727   6.204  10.486  0.3179 -0.5900  0.2993
  696MOL0     C95960   5.713   6.207  10.344  0.3739 -0.5677  0.3624
  696MOL0     N95961   5.631   6.594   9.788  0.2793 -0.2841  0.5056
  696MOL0     N95962   5.599   6.715   9.787  0.0883 -0.7010  1.1872
  696MOL0     C95963   4.798   6.974   8.843 -0.3401  0.5809  0.8933
  696MOL0     C95964   4.731   6.996   8.728 -0.2845  0.5250  0.8676
  696MOL0     C95965   4.680   7.050   8.259  0.3541 -0.6390 -0.3570
  696MOL0     C95966   4.547   6.994   8.267 -0.1919 -0.1042  0.1825
  696MOL0     C95967   4.472   6.973   8.157  1.6027  0.0888 -0.8590
  696MOL0     C95968   4.517   6.995   8.032  0.4597 -0.6327 -0.0277
  696MOL0     O95969   4.419   6.980   7.932 -0.1890 -0.6929 -0.7751
  696MOL0     C95970   4.460   7.037   7.806  1.0888 -0.7972 -0.1971
  696MOL0     C95971   4.540   6.930   7.730  0.4125 -0.0657  0.4040
  696MOL0     C95972   4.509   6.955   7.576 -0.2800 -0.5883  0.1288
  696MOL0     C95973   4.418   6.849   7.514  0.4818 -0.6518  0.9880
  696MOL0     C95974   4.399   6.883   7.372 -0.8452  0.4463  1.2544
  696MOL0     C95975   4.362   6.885   7.256 -0.0493 -0.4526  1.0798
  696MOL0     C95976   4.650   7.048   8.019 -0.1505  0.9546 -0.0355
  696MOL0     C95977   4.737   7.064   8.128 -0.7381 -0.0561 -1.2120
  696MOL0     C95978   4.877   7.120   8.102  0.7830 -0.0012  0.4897
  696MOL0     H95979   4.974   6.942   8.510 -2.2957 -0.1110 -1.5261
  696MOL0     H95980   5.095   6.900   8.715  0.6091  0.6510 -0.6238
  696MOL0     H95981   4.966   7.050   9.086 -0.0184  0.5353 -0.8871
  696MOL0     H95982   5.081   7.098   8.958  3.2037 -2.2143 -1.4041
  696MOL0     H95983   5.137   6.866   9.119  2.2934 -0.1639  1.7666
  696MOL0     H95984   5.260   6.959   9.039  0.7783  1.2981  0.8560
  696MOL0     H95985   5.217   7.147   9.197  1.0217  1.5631  1.8628
  696MOL0     H95986   5.099   7.071   9.288  1.6129  3.2110  0.4385
  696MOL0     H95987   5.307   6.873   9.288  1.8561  0.6019 -0.7702
  696MOL0     H95988   5.392   7.029   9.289  0.4805 -1.2794  0.3156
  696MOL0     H95989   5.165   6.957   9.475 -0.1188  0.6523  1.8264
  696MOL0     H95990   5.287   7.101   9.474 -2.2521  0.0042  0.3681
  696MOL0     H95991   5.389   6.820   9.485 -3.5540 -2.1265  0.8504
  696MOL0     H95992   5.456   6.970   9.559  0.1972 -0.0430 -0.8613
  696MOL0     H95993   5.234   6.787   9.650 -0.5736 -0.0900 -1.4129
  696MOL0     H95994   5.232   6.946   9.708 -2.8927 -3.4868 -0.7252
  696MOL0     H95995   5.483   6.920   9.796  0.9944 -2.1768  0.4094
  696MOL0     H95996   5.334   6.877   9.875  0.1953  3.2386  0.6416
  696MOL0     H95997   5.296   6.583   9.835  0.9069  0.5818  2.0736
  696MOL0     H95998   5.537   6.321   9.722  0.9068  0.4243  0.2680
  696MOL0     H95999   5.386   6.349   9.805  0.4365  0.6810  1.1782
  696MOL0     H96000   5.653   6.276   9.937  0.2324 -0.4485 -1.2151
  696MOL0     H96001   5.520   6.354  10.031  2.2323  1.8771 -0.0852
  696MOL0     H96002   5.384   6.149   9.917 -0.7874 -2.4067  1.8622
  696MOL0     H96003   5.541   6.097   9.859 -3.3094 -2.5088 -0.2393
  696MOL0     H96004   5.415   6.097  10.144 -0.8720 -1.8641  0.0076
  696MOL0     H96005   5.485   5.971  10.065 -2.4228  0.1802  1.7630
  696MOL0     H96006   5.532   5.929  10.308  1.3896 -1.3421  0.5118
  696MOL0     H96007   5.599   5.811  10.609 -0.0944  0.6288  0.4440
  696MOL0     H96008   5.466   5.835  10.496 -0.0981 -0.1482 -1.7209
  696MOL0     H96009   5.466   5.931  10.650  0.8145 -0.3162  0.8214
  696MOL0     H96010   5.898   6.033  10.929 -0.6370 -0.1825 -0.8942
  696MOL0     H96011   5.910   6.004  11.174 -0.1025  0.6656  0.7724
  696MOL0     H96012   5.803   5.781  11.345 -3.8271 -0.3444  0.7642
  696MOL0     H96013   5.886   5.928  11.387  1.4345 -3.0746  0.3676
  696MOL0     H96014   5.857   5.777  11.581  0.3588 -1.1762 -1.4898
  696MOL0     H96015   5.747   5.924  11.602 -1.7770 -0.4542 -0.0469
  696MOL0     H96016   5.678   5.635  11.511 -2.4112  0.1879 -3.1127
  696MOL0     H96017   5.562   5.755  11.511  0.3993 -0.5084 -1.7049
  696MOL0     H96018   5.725   5.680  11.763  0.2367 -0.9541 -0.3977
  696MOL0     H96019   5.575   5.605  11.687  1.7681 -0.2189 -2.7540
  696MOL0     H96020   5.656   5.880  11.808  1.0143 -1.9496  1.4644
  696MOL0     H96021   5.505   5.863  11.709 -0.5736 -0.2996  1.2388
  696MOL0     H96022   5.409   5.730  11.893 -0.4191  0.3716  1.4027
  696MOL0     H96023   5.454   5.896  11.933 -1.6475 -1.1550  0.4806
  696MOL0     H96024   5.526   5.790  12.113  2.2911  0.8063  2.1908
  696MOL0     H96025   5.671   5.801  12.020 -0.1719 -1.9814  3.5841
  696MOL0     H96026   5.656   5.572  11.938 -1.5562  1.2654 -0.5482
  696MOL0     H96027   5.501   5.540  12.000 -0.7597  1.2186 -1.5144
  696MOL0     H96028   5.478   5.909  11.174  0.3373 -2.4697  0.9679
  696MOL0     H96029   5.472   5.933  10.941 -0.4965 -0.0498 -1.4044
  696MOL0     H96030   5.788   6.276  10.540  1.9007  0.1538 -2.3186
  696MOL0     H96031   5.751   6.287  10.280 -4.7878  0.0498 -2.5096
  696MOL0     H96032   4.741   6.986   8.935 -0.5198  0.4936  0.7945
  696MOL0     H96033   4.623   7.008   8.727 -0.7372 -2.3866 -1.5329
  696MOL0     H96034   4.497   6.965   8.359  2.4101  0.7224  1.9525
  696MOL0     H96035   4.370   6.940   8.171  1.1395  2.5193  3.2004
  696MOL0     H96036   4.364   7.042   7.754 -1.0168 -2.1932  3.2264
  696MOL0     H96037   4.505   7.137   7.811  1.6010 -0.5845 -4.6465
  696MOL0     H96038   4.501   6.830   7.753  0.1511 -0.6926 -2.3494
  696MOL0     H96039   4.644   6.927   7.763  0.8011 -1.2232 -0.8325
  696MOL0     H96040   4.492   7.060   7.548 -3.8453 -0.6324  1.6530
  696MOL0     H96041   4.603   6.932   7.524 -0.1949  0.6044 -0.2828
  696MOL0     H96042   4.316   6.848   7.553 -0.5079  0.5638 -1.3682
  696MOL0     H96043   4.461   6.750   7.532  1.2094 -0.1412  2.1982
  696MOL0     H96044   4.349   6.878   7.150  2.5028 -2.7877  0.8145
  696MOL0     H96045   4.683   7.082   7.921 -1.7720 -2.7176 -2.1004
  696MOL0     H96046   4.883   7.211   8.161  1.5588  1.0338 -1.1256
  696MOL0     H96047   4.953   7.045   8.126  0.0449 -0.8471  0.2817
  696MOL0     H96048   4.895   7.135   7.995  0.4310  1.7778  0.6518
  697MOL0     O96049   2.883   5.166   6.808 -0.1031 -0.4807 -1.1437
  697MOL0     C96050   2.849   5.286   6.798 -0.5827 -0.3454  0.6630
  697MOL0     O96051   2.718   5.330   6.790  0.5292 -0.3860 -0.0467
  697MOL0     C96052   2.624   5.234   6.763 -0.1391  0.4428  0.3438
  697MOL0     C96053   2.517   5.218   6.848  0.7424 -0.4932  0.0628
  697MOL0     C96054   2.421   5.121   6.826  1.1123 -0.3928 -0.1902
  697MOL0     C96055   2.420   5.035   6.718  0.6866  0.3970  0.0843
  697MOL0     O96056   2.317   4.942   6.688 -0.2862  0.1636 -0.5974
  697MOL0     C96057   2.197   4.907   6.766 -0.3656 -0.2656 -0.7006
  697MOL0     C96058   2.078   5.009   6.759 -0.1254  0.5591 -0.0526
  697MOL0     C96059   1.950   4.972   6.841 -0.3346  0.4541  0.2606
  697MOL0     C96060   1.828   5.043   6.785 -0.0197 -0.7873  0.5626
  697MOL0     C96061   1.845   5.195   6.791  0.2469 -0.7002 -0.2166
  697MOL0     C96062   1.715   5.268   6.758 -0.2241 -0.2650  0.1805
  697MOL0     C96063   1.731   5.419   6.759  0.2123  0.1621  1.0466
  697MOL0     C96064   1.613   5.488   6.700  0.1296  0.2457 -0.6228
  697MOL0     N96065   1.644   5.625   6.684  0.0360 -0.7205  0.1239
  697MOL0     C96066   1.632   5.708   6.569  0.2701 -0.8693  0.2275
  697MOL0     C96067   1.613   5.832   6.625 -0.6963  0.1532  0.1433
  697MOL0     C96068   1.589   5.955   6.543 -1.0604  0.4886  0.5444
  697MOL0     C96069   1.689   6.061   6.577  0.5732 -0.1305  0.7675
  697MOL0     C96070   1.835   6.034   6.524  0.8764  0.3949 -0.1623
  697MOL0     C96071   1.845   6.014   6.371  0.4500  0.9493  0.1195
  697MOL0     O96072   1.782   6.124   6.304 -0.3126 -1.8015 -0.2345
  697MOL0     C96073   1.794   6.145   6.167  0.7834 -0.5560 -0.3340
  697MOL0     C96074   1.712   6.241   6.115  0.3942  0.4805  0.3669
  697MOL0     C96075   1.712   6.283   5.982  0.0335  0.4124  0.1368
  697MOL0     C96076   1.621   6.394   5.932 -0.3597  0.2713 -0.1958
  697MOL0     C96077   1.797   6.221   5.890 -1.0851 -0.3098 -0.0676
  697MOL0     C96078   1.813   6.251   5.740  0.5831 -0.3338  0.7483
  697MOL0     O96079   1.917   6.195   5.669  0.3555 -0.2094 -0.1930
  697MOL0     C96080   1.880   6.148   5.539  0.2232  0.2621 -1.2392
  697MOL0     C96081   1.951   6.184   5.426 -0.2637 -0.0564  0.2018
  697MOL0     C96082   1.927   6.123   5.297 -1.5705 -0.7268 -0.4346
  697MOL0     C96083   1.810   6.045   5.277 -0.0006  0.4576 -0.1317
  697MOL0     O96084   1.764   5.978   5.170 -0.0805 -0.0790 -1.0055
  697MOL0     C96085   1.864   5.969   5.067 -0.0208  0.0174 -0.0434
  697MOL0     C96086   1.823   5.863   4.964 -0.4478  0.8260 -0.1617
  697MOL0     C96087   1.714   5.903   4.870  0.9401 -0.1092  0.5396
  697MOL0     C96088   1.578   5.856   4.901  1.0201  0.1706  0.2516
  697MOL0     C96089   1.471   5.900   4.800 -0.8916  0.0464 -1.1388
  697MOL0     C96090   1.333   5.835   4.837  0.6206  0.7792  0.5044
  697MOL0     C96091   1.236   5.894   4.741  1.0366 -0.7089 -0.5484
  697MOL0     C96092   1.098   5.853   4.779  0.7776  0.4119  0.4474
  697MOL0    Cl96093   1.073   5.664   4.752  0.3233  0.3934  0.0533
  697MOL0     C96094   1.727   6.021   5.388  0.0711 -0.7772 -0.0285
  697MOL0     C96095   1.765   6.068   5.523  1.0326  0.5704  0.1983
  697MOL0     O96096   1.733   6.319   5.683  1.0117 -0.2842 -0.0311
  697MOL0     C96097   1.875   6.116   5.943 -0.1411 -0.0378  0.0269
  697MOL0     C96098   1.880   6.082   6.083 -0.4624 -0.6850 -0.0506
  697MOL0     N96099   1.607   5.833   6.754 -0.3713  0.1747  0.2692
  697MOL0     N96100   1.632   5.708   6.790 -0.4860  0.0526 -0.0640
  697MOL0     C96101   2.508   5.068   6.616 -0.4394 -0.9286 -0.4114
  697MOL0     C96102   2.606   5.159   6.641  0.1934 -0.9423  0.0935
  697MOL0     C96103   2.947   5.393   6.784 -0.6621 -0.8153 -0.3146
  697MOL0     C96104   2.912   5.522   6.831  0.8360 -0.3905 -0.4972
  697MOL0     C96105   3.006   5.627   6.817  0.0731  0.3230 -0.6051
  697MOL0     C96106   3.135   5.603   6.763  0.6376  0.1748 -0.0646
  697MOL0     O96107   3.225   5.704   6.751 -0.0180  0.1213  0.8526
  697MOL0     C96108   3.360   5.679   6.797  0.0537 -0.3425 -1.0197
  697MOL0     C96109   3.456   5.788   6.740 -0.5666 -1.0971 -0.0569
  697MOL0     C96110   3.601   5.742   6.748  0.3926 -0.0471 -0.5227
  697MOL0     C96111   3.690   5.858   6.683  0.3488  0.7587  0.0143
  697MOL0     C96112   3.830   5.816   6.682  0.1442 -0.3237  0.7321
  697MOL0     C96113   3.940   5.772   6.678 -0.0546  0.7211  0.4233
  697MOL0     C96114   3.161   5.483   6.703 -0.3735 -0.1273 -0.9589
  697MOL0     C96115   3.065   5.378   6.713 -0.3873  0.1467 -0.4012
  697MOL0     C96116   3.107   5.261   6.636  0.7781  0.3770 -0.3792
  697MOL0     H96117   2.498   5.283   6.932 -1.1383  0.2891 -0.9264
  697MOL0     H96118   2.344   5.118   6.902  0.0236  1.3307 -1.1732
  697MOL0     H96119   2.223   4.902   6.872 -3.6119 -1.2696  0.1444
  697MOL0     H96120   2.157   4.812   6.731 -0.8344  0.1855 -1.4227
  697MOL0     H96121   2.120   5.103   6.794  0.9334 -0.7591  2.4713
  697MOL0     H96122   2.031   5.019   6.660 -3.2484  2.5097  1.4802
  697MOL0     H96123   1.927   4.867   6.824  0.7793  0.2627 -0.1043
  697MOL0     H96124   1.953   5.003   6.946 -1.3503  0.4656  0.2934
  697MOL0     H96125   1.811   5.013   6.681  1.9347 -1.6274  0.4388
  697MOL0     H96126   1.740   5.010   6.840  0.2957  0.1350  1.6576
  697MOL0     H96127   1.914   5.222   6.711 -0.9660 -0.0653 -1.0670
  697MOL0     H96128   1.872   5.234   6.890 -1.4928  0.0445  0.0056
  697MOL0     H96129   1.684   5.223   6.663  0.8542 -2.4812  0.7891
  697MOL0     H96130   1.648   5.248   6.841 -0.9317 -0.4246 -0.4219
  697MOL0     H96131   1.806   5.447   6.685 -1.4247  1.0669 -0.3426
  697MOL0     H96132   1.762   5.470   6.852 -1.5167  2.0011  0.6870
  697MOL0     H96133   1.582   5.437   6.608 -0.9713  0.4004 -0.3479
  697MOL0     H96134   1.527   5.481   6.767 -0.5002  2.0917 -1.1754
  697MOL0     H96135   1.620   5.683   6.464 -0.4866 -1.7285  0.5021
  697MOL0     H96136   1.488   5.996   6.557 -0.6864  0.8964  2.3353
  697MOL0     H96137   1.588   5.930   6.437  0.9749 -1.5004  0.9183
  697MOL0     H96138   1.665   6.158   6.533  2.9660  0.3371  0.3587
  697MOL0     H96139   1.688   6.075   6.686 -1.6657 -0.0819  0.7894
  697MOL0     H96140   1.908   6.109   6.554  0.0028  1.2806 -0.2282
  697MOL0     H96141   1.886   5.951   6.575  1.4028 -1.8724 -3.9563
  697MOL0     H96142   1.950   6.006   6.340 -0.2324  0.5332 -2.2535
  697MOL0     H96143   1.793   5.922   6.343  0.4427  0.8350  0.4982
  697MOL0     H96144   1.649   6.301   6.181  1.1988  0.5096  1.1324
  697MOL0     H96145   1.555   6.333   5.869 -1.6937  0.2895  1.1272
  697MOL0     H96146   1.673   6.470   5.874 -1.1483  1.2466  0.3274
  697MOL0     H96147   1.569   6.436   6.019  0.5910 -2.9197  2.1039
  697MOL0     H96148   2.047   6.234   5.438 -1.5100  2.7435 -0.6321
  697MOL0     H96149   1.995   6.153   5.218  0.1829 -2.0414  0.5150
  697MOL0     H96150   1.863   6.064   5.012 -4.0290  2.0822  3.0097
  697MOL0     H96151   1.962   5.948   5.109 -0.2166 -1.7349 -0.4012
  697MOL0     H96152   1.912   5.848   4.902  0.1032 -1.1844  1.0500
  697MOL0     H96153   1.804   5.772   5.021  0.5887  1.5176  1.3593
  697MOL0     H96154   1.737   5.871   4.768 -2.1986 -0.8022 -0.0582
  697MOL0     H96155   1.710   6.013   4.866  0.3898 -0.1314  0.4133
  697MOL0     H96156   1.555   5.889   5.003 -1.6044  1.7289 -0.7372
  697MOL0     H96157   1.572   5.747   4.892  0.3195  0.1497  0.8361
  697MOL0     H96158   1.472   6.006   4.773 -0.3061  0.2513 -0.3425
  697MOL0     H96159   1.507   5.856   4.707 -2.6221 -1.5519 -1.1193
  697MOL0     H96160   1.314   5.867   4.939 -0.8157  0.7461  0.2674
  697MOL0     H96161   1.337   5.725   4.838 -1.1571  0.6037  4.0669
  697MOL0     H96162   1.271   5.868   4.641 -2.1442 -2.2017 -1.4151
  697MOL0     H96163   1.240   6.002   4.753  1.7586 -0.9207  1.5146
  697MOL0     H96164   1.037   5.913   4.712  2.8503  0.6705 -1.3216
  697MOL0     H96165   1.079   5.885   4.882  2.6295 -2.2418  1.7458
  697MOL0     H96166   1.635   5.964   5.378 -1.8857  1.2777  3.6777
  697MOL0     H96167   1.695   6.040   5.601  0.2711 -0.1144 -0.7105
  697MOL0     H96168   1.927   6.055   5.870 -0.4334 -0.2781  0.0173
  697MOL0     H96169   1.949   6.012   6.128  0.4508 -0.7153 -1.4196
  697MOL0     H96170   2.500   5.013   6.522 -1.4475 -2.1819  0.3629
  697MOL0     H96171   2.669   5.173   6.553 -0.3751 -0.7390 -0.2906
  697MOL0     H96172   2.822   5.546   6.887 -0.0706 -0.4322 -1.8913
  697MOL0     H96173   2.990   5.725   6.862 -0.8750 -1.0200  2.2709
  697MOL0     H96174   3.357   5.678   6.906 -1.2639  0.2076 -1.0324
  697MOL0     H96175   3.401   5.583   6.764 -0.2055 -1.3370  1.3203
  697MOL0     H96176   3.439   5.879   6.799  0.5212 -1.6958  1.2316
  697MOL0     H96177   3.425   5.808   6.637  0.5544  1.0581 -0.0449
  697MOL0     H96178   3.643   5.714   6.845  0.8337  0.7964 -0.4634
  697MOL0     H96179   3.621   5.652   6.690  0.5446 -2.4408  2.9208
  697MOL0     H96180   3.677   5.945   6.749  0.7968  2.2784 -1.8093
  697MOL0     H96181   3.638   5.882   6.590  1.4411 -0.7918 -1.0354
  697MOL0     H96182   4.040   5.734   6.689 -1.1228 -2.7566 -0.8139
  697MOL0     H96183   3.256   5.461   6.655 -0.1900 -0.9980 -0.2123
  697MOL0     H96184   3.018   5.209   6.600  1.5773 -1.3257 -0.0094
  697MOL0     H96185   3.156   5.277   6.540 -2.6190  0.3513 -2.2589
  697MOL0     H96186   3.165   5.188   6.694 -2.2176 -0.6923  1.4776
  698MOL0     O96187   5.195   5.955  11.543  0.0546 -0.0852 -0.0392
  698MOL0     C96188   5.142   6.070  11.554 -0.0340  0.2776  0.3633
  698MOL0     O96189   5.054   6.114  11.653  0.5791 -0.1271 -0.7658
  698MOL0     C96190   5.059   6.044  11.769  0.7029  0.5661  0.0035
  698MOL0     C96191   5.138   6.068  11.872  0.0540 -0.0642  1.1874
  698MOL0     C96192   5.146   5.984  11.975 -0.3225 -0.1552  0.2503
  698MOL0     C96193   5.075   5.866  11.967 -0.1239  0.8520 -0.3876
  698MOL0     O96194   5.086   5.766  12.070  0.6239  0.1179  0.6361
  698MOL0     C96195   5.218   5.721  12.096  0.1165 -0.0523  0.0081
  698MOL0     C96196   5.219   5.660  12.232 -0.0470 -0.6250 -0.0710
  698MOL0     C96197   5.350   5.674  12.294 -0.3983  0.1732  0.2955
  698MOL0     C96198   5.367   5.575  12.411 -0.9611 -0.2258 -1.0354
  698MOL0     C96199   5.496   5.610  12.488  0.5282 -0.5549 -0.5829
  698MOL0     C96200   5.483   5.732  12.588  1.0792 -1.1281  0.0384
  698MOL0     C96201   5.608   5.743  12.690  0.5090 -0.6902  0.4036
  698MOL0     C96202   5.595   5.871  12.779 -0.0258  0.5660 -0.0791
  698MOL0     N96203   5.629   5.994  12.704 -0.4964  0.2050 -0.2220
  698MOL0     C96204   5.539   6.072  12.641 -0.5446  0.4340 -0.0541
  698MOL0     C96205   5.606   6.175  12.594 -0.7630 -0.0826 -0.5445
  698MOL0     C96206   5.559   6.281  12.505  0.4591  0.5103  0.5096
  698MOL0     C96207   5.587   6.248  12.357  0.5733 -0.9957  0.4806
  698MOL0     C96208   5.515   6.127  12.298  0.1729  0.3002 -0.1765
  698MOL0     C96209   5.540   6.120  12.148  0.3315 -0.1885 -0.9834
  698MOL0     O96210   5.467   6.229  12.090  0.3226  0.8546 -0.3382
  698MOL0     C96211   5.512   6.272  11.980  0.5697  0.5569 -0.2010
  698MOL0     C96212   5.485   6.203  11.857  0.3309  0.1182 -0.3443
  698MOL0     C96213   5.515   6.259  11.733  0.6601  0.6716  0.6423
  698MOL0     C96214   5.464   6.189  11.605  0.0223  0.4536 -1.1372
  698MOL0     C96215   5.577   6.390  11.739  0.2028  0.4365  0.8163
  698MOL0     C96216   5.629   6.468  11.629  0.7554 -0.3088 -0.4620
  698MOL0     O96217   5.623   6.402  11.515  0.6016  0.5184 -0.1283
  698MOL0     C96218   5.690   6.439  11.394  1.3074  0.3079 -1.0253
  698MOL0     C96219   5.759   6.555  11.364  0.1105 -0.2372 -1.0672
  698MOL0     C96220   5.813   6.588  11.244 -0.0910  0.7574  0.7521
  698MOL0     C96221   5.788   6.505  11.129  0.9462  1.0158 -0.7536
  698MOL0     O96222   5.826   6.545  11.003  0.9667 -0.2030  0.7043
  698MOL0     C96223   5.908   6.658  10.978 -0.6023 -0.7878 -1.0474
  698MOL0     C96224   5.917   6.684  10.825 -1.0427  0.5001  1.0143
  698MOL0     C96225   5.959   6.572  10.744  0.2031  0.2125  0.3473
  698MOL0     C96226   5.998   6.629  10.601  0.1008 -0.5881  0.4485
  698MOL0     C96227   5.878   6.652  10.514 -0.2130 -0.3686 -0.4627
  698MOL0     C96228   5.902   6.717  10.380  0.4996 -0.1090 -0.3372
  698MOL0     C96229   5.793   6.827  10.344 -0.0235 -0.5866 -0.5539
  698MOL0     C96230   5.643   6.786  10.341 -0.3095  0.2318 -0.8236
  698MOL0    Cl96231   5.614   6.693  10.199 -0.2627 -0.2507  0.0207
  698MOL0     C96232   5.734   6.379  11.167 -0.0206  0.2845  0.1383
  698MOL0     C96233   5.684   6.341  11.293  0.8310 -0.0689 -0.2040
  698MOL0     O96234   5.690   6.573  11.649  0.4428  0.7668  0.5680
  698MOL0     C96235   5.589   6.460  11.866  0.2844  0.6216 -0.2920
  698MOL0     C96236   5.556   6.402  11.982  0.0055  0.1114 -0.1813
  698MOL0     N96237   5.741   6.154  12.617 -0.0204  0.0416 -0.1596
  698MOL0     N96238   5.746   6.055  12.686 -0.0614  0.6886  0.5570
  698MOL0     C96239   4.994   5.835  11.859  0.1233 -0.8242 -0.2644
  698MOL0     C96240   4.988   5.926  11.764  0.1024  0.6553  0.2385
  698MOL0     C96241   5.174   6.162  11.443 -0.0972 -0.5371 -1.0920
  698MOL0     C96242   5.294   6.162  11.366 -0.9184  0.7050  0.2480
  698MOL0     C96243   5.328   6.270  11.283 -0.2059  0.2279  0.2331
  698MOL0     C96244   5.243   6.371  11.258 -0.4037 -0.6434 -0.5084
  698MOL0     O96245   5.269   6.475  11.171 -0.3399  0.2745 -0.1046
  698MOL0     C96246   5.402   6.500  11.117 -0.3436 -0.0407 -0.7123
  698MOL0     C96247   5.390   6.638  11.061 -0.3847 -0.0630  0.4846
  698MOL0     C96248   5.487   6.690  10.953 -0.4461 -0.8690  0.3300
  698MOL0     C96249   5.425   6.781  10.845 -0.3412  0.0324  0.2133
  698MOL0     C96250   5.391   6.923  10.873  0.5640  0.5646  0.1725
  698MOL0     C96251   5.364   7.035  10.900 -0.2328 -0.4115  0.3824
  698MOL0     C96252   5.116   6.364  11.304  0.6469  0.4112 -0.1881
  698MOL0     C96253   5.080   6.263  11.394  0.4739 -0.6818 -0.1536
  698MOL0     C96254   4.935   6.286  11.453 -0.2204 -0.1983 -0.5844
  698MOL0     H96255   5.184   6.165  11.852 -1.3521  1.1022  3.1866
  698MOL0     H96256   5.213   6.016  12.055 -1.8732  0.5009  1.3352
  698MOL0     H96257   5.281   5.811  12.102  2.5588 -1.4443 -2.4832
  698MOL0     H96258   5.259   5.658  12.016  0.0628 -0.9198  0.6511
  698MOL0     H96259   5.151   5.708  12.302  0.2574  1.2691 -0.9938
  698MOL0     H96260   5.195   5.555  12.211  2.3652 -1.3169  0.3976
  698MOL0     H96261   5.429   5.641  12.225  0.4497  1.7636  0.4622
  698MOL0     H96262   5.371   5.778  12.320  0.4042  0.1890 -0.3655
  698MOL0     H96263   5.282   5.555  12.477 -1.1337 -4.8006 -2.2820
  698MOL0     H96264   5.376   5.472  12.373  1.7346 -0.7988  0.8461
  698MOL0     H96265   5.573   5.644  12.417 -0.5830 -0.5640 -1.8326
  698MOL0     H96266   5.528   5.524  12.547 -2.5033  0.7490  3.3566
  698MOL0     H96267   5.454   5.825  12.539  0.3337 -1.6816 -0.5943
  698MOL0     H96268   5.401   5.707  12.655  1.3370 -0.6509  0.5420
  698MOL0     H96269   5.704   5.754  12.638 -0.5175  0.4943 -1.3444
  698MOL0     H96270   5.606   5.657  12.758  3.0648 -2.4519 -1.5556
  698MOL0     H96271   5.489   5.883  12.802 -0.3311 -0.2106 -0.9953
  698MOL0     H96272   5.663   5.854  12.863 -0.8291 -0.4350  0.3785
  698MOL0     H96273   5.431   6.061  12.631 -1.0705  3.1906  1.4876
  698MOL0     H96274   5.605   6.375  12.535  2.8634 -0.5688  0.3941
  698MOL0     H96275   5.450   6.288  12.511 -0.1641 -5.0345  1.4045
  698MOL0     H96276   5.544   6.336  12.309  3.3272 -0.2330 -0.7394
  698MOL0     H96277   5.695   6.256  12.344  0.4611 -1.1395 -0.6121
  698MOL0     H96278   5.556   6.033  12.336  0.6822 -0.6796 -2.9120
  698MOL0     H96279   5.406   6.139  12.305  0.3954  2.4086  0.5928
  698MOL0     H96280   5.647   6.116  12.123  0.5093  3.9493 -1.6387
  698MOL0     H96281   5.482   6.035  12.112 -1.4651  0.4816  0.2096
  698MOL0     H96282   5.439   6.105  11.844  1.0160  0.0041 -2.3312
  698MOL0     H96283   5.372   6.243  11.581  0.6435  0.9602 -2.5001
  698MOL0     H96284   5.447   6.081  11.619 -2.9585  0.6240 -2.6016
  698MOL0     H96285   5.536   6.192  11.522  0.6630  4.9845 -0.6445
  698MOL0     H96286   5.772   6.636  11.436 -1.4449  2.0417 -3.1766
  698MOL0     H96287   5.857   6.687  11.241 -1.0430  1.1981  0.9254
  698MOL0     H96288   5.855   6.745  11.018 -0.6466 -0.6927 -1.3064
  698MOL0     H96289   6.010   6.643  11.012  0.2803 -1.6897 -3.8262
  698MOL0     H96290   5.818   6.713  10.786 -0.2864  1.1406 -0.4984
  698MOL0     H96291   5.974   6.776  10.805  1.0185 -0.6310  1.4467
  698MOL0     H96292   5.883   6.494  10.745 -1.8526  2.0127  4.2829
  698MOL0     H96293   6.053   6.534  10.784  0.7959 -0.0621 -1.2324
  698MOL0     H96294   6.062   6.551  10.558  1.5168 -0.6006  2.4491
  698MOL0     H96295   6.057   6.720  10.600  0.9112 -1.1112 -0.6709
  698MOL0     H96296   5.842   6.549  10.504  2.5451 -1.2558 -2.9604
  698MOL0     H96297   5.802   6.712  10.565 -0.4575 -0.1719 -1.0485
  698MOL0     H96298   5.914   6.638  10.304 -0.5984  0.8751 -1.5700
  698MOL0     H96299   5.997   6.771  10.388  2.0464 -2.7713  1.1015
  698MOL0     H96300   5.830   6.854  10.245 -2.6973  1.2348 -1.1739
  698MOL0     H96301   5.792   6.907  10.419 -3.2131 -1.6130  0.6487
  698MOL0     H96302   5.580   6.875  10.339 -0.5001  0.4323  3.6650
  698MOL0     H96303   5.619   6.727  10.430 -0.1963 -1.9521 -2.1729
  698MOL0     H96304   5.733   6.324  11.073  0.2523  2.3507 -1.1481
  698MOL0     H96305   5.641   6.244  11.310 -0.5516  1.2432  7.2356
  698MOL0     H96306   5.635   6.558  11.871  1.1869  0.2511 -1.0729
  698MOL0     H96307   5.548   6.458  12.075 -1.5153 -1.9406  1.0269
  698MOL0     H96308   4.949   5.737  11.850  0.8167 -1.0026 -2.5411
  698MOL0     H96309   4.919   5.907  11.682 -0.5126 -0.3245  0.9568
  698MOL0     H96310   5.362   6.078  11.380  1.9148  2.7318 -0.2804
  698MOL0     H96311   5.411   6.274  11.213 -1.0593  1.6352 -0.7598
  698MOL0     H96312   5.476   6.491  11.198 -1.2260  4.6357  0.9884
  698MOL0     H96313   5.419   6.424  11.041 -0.2776 -4.6858  3.4751
  698MOL0     H96314   5.389   6.705  11.148  2.7045 -0.2432  0.7928
  698MOL0     H96315   5.295   6.645  11.009  0.1588 -1.2865 -0.7335
  698MOL0     H96316   5.579   6.739  10.988 -0.9311  1.6656 -1.6922
  698MOL0     H96317   5.529   6.601  10.905 -2.3755 -1.5169 -0.2432
  698MOL0     H96318   5.347   6.741  10.781  0.0962 -2.3754  1.0953
  698MOL0     H96319   5.505   6.800  10.772 -2.7538  2.0086 -2.1107
  698MOL0     H96320   5.323   7.134  10.906  0.9621  0.0257  2.2189
  698MOL0     H96321   5.048   6.445  11.280 -1.2323 -0.0440  3.0368
  698MOL0     H96322   4.888   6.195  11.491  0.2983  1.3822  4.6410
  698MOL0     H96323   4.932   6.358  11.536 -0.4381  3.3624 -3.4715
  698MOL0     H96324   4.870   6.336  11.381  2.3861  3.9823 -0.3254
  699MOL0     O96325   2.213   8.882   1.180  0.6279  0.2860  0.0255
  699MOL0     C96326   2.103   8.870   1.232 -0.4305  0.3513  0.8467
  699MOL0     O96327   2.065   8.906   1.354 -0.1164  0.1103 -0.2557
  699MOL0     C96328   2.166   8.952   1.442  0.2788 -0.9523  0.2972
  699MOL0     C96329   2.287   8.881   1.472  0.4824 -0.0831  0.3874
  699MOL0     C96330   2.377   8.931   1.555  0.8827  0.2848  0.4691
  699MOL0     C96331   2.363   9.052   1.622 -0.0290 -0.7310  0.5830
  699MOL0     O96332   2.478   9.094   1.690 -0.0720  0.1061 -0.0717
  699MOL0     C96333   2.515   9.237   1.683 -0.4055 -0.7032 -0.8374
  699MOL0     C96334   2.660   9.253   1.625 -1.0206 -0.0355 -0.3130
  699MOL0     C96335   2.684   9.177   1.491  0.9989 -0.6003 -0.7456
  699MOL0     C96336   2.818   9.224   1.429  0.2933 -0.0052  0.4696
  699MOL0     C96337   2.832   9.167   1.292 -0.8879 -0.0088  0.7850
  699MOL0     C96338   2.968   9.189   1.231 -0.6624  0.2731  0.0744
  699MOL0     C96339   3.013   9.084   1.120  0.2499 -0.5205  0.7677
  699MOL0     C96340   2.908   9.067   1.005 -0.7024  0.2220 -0.8164
  699MOL0     N96341   2.865   9.202   0.965  0.4557  0.3669 -0.0021
  699MOL0     C96342   2.947   9.296   0.910 -0.3974 -1.2306 -0.3463
  699MOL0     C96343   2.866   9.406   0.912 -0.8803 -0.2467  0.7947
  699MOL0     C96344   2.912   9.547   0.876  0.5018  0.0559 -0.1419
  699MOL0     C96345   2.984   9.619   0.997  0.5981  0.3300 -0.1673
  699MOL0     C96346   2.892   9.608   1.123 -0.2831 -0.6871  0.8621
  699MOL0     C96347   2.749   9.666   1.100  0.5154 -0.0663 -0.5185
  699MOL0     O96348   2.697   9.670   1.235 -0.6914  0.6048  0.1076
  699MOL0     C96349   2.590   9.588   1.265  0.6406 -0.3076  0.7960
  699MOL0     C96350   2.563   9.455   1.224  0.3381  0.0576 -0.5473
  699MOL0     C96351   2.437   9.397   1.256  0.0810 -0.7563  0.1485
  699MOL0     C96352   2.414   9.250   1.221  0.6192  0.4820  0.4495
  699MOL0     C96353   2.340   9.471   1.334 -0.4570 -0.5486 -0.5995
  699MOL0     C96354   2.209   9.416   1.381  0.9234  0.7871  0.3607
  699MOL0     O96355   2.140   9.331   1.295 -0.0501 -0.2171 -0.3345
  699MOL0     C96356   2.008   9.347   1.259  0.4156  0.0487  0.1620
  699MOL0     C96357   1.937   9.243   1.206 -0.2933  0.2761 -0.5955
  699MOL0     C96358   1.802   9.263   1.168 -0.0301 -0.1211 -0.4142
  699MOL0     C96359   1.742   9.390   1.164  0.6596  1.3607 -0.0137
  699MOL0     O96360   1.611   9.398   1.121 -0.5149 -0.2289 -0.4357
  699MOL0     C96361   1.535   9.519   1.143  0.0280  0.0654 -0.4987
  699MOL0     C96362   1.391   9.497   1.113 -0.5330  0.5178 -0.5286
  699MOL0     C96363   1.369   9.444   0.971 -0.3482 -0.2404  0.2720
  699MOL0     C96364   1.216   9.446   0.945  0.2859  0.6384  0.1427
  699MOL0     C96365   1.186   9.381   0.807  0.4635 -0.3011  0.4015
  699MOL0     C96366   1.038   9.350   0.789 -1.1035  0.1828 -0.3598
  699MOL0     C96367   1.009   9.249   0.671  0.2376 -0.5210 -0.3278
  699MOL0     C96368   1.126   9.163   0.619 -0.2442  0.0921  0.5108
  699MOL0    Cl96369   1.062   9.053   0.488 -0.0366  0.1560 -0.8538
  699MOL0     C96370   1.818   9.499   1.207 -0.2139 -0.1926  1.2913
  699MOL0     C96371   1.947   9.481   1.259  0.2885 -0.2349  0.8057
  699MOL0     O96372   2.166   9.455   1.486  0.3037 -0.3866  0.7090
  699MOL0     C96373   2.385   9.592   1.394 -0.2609 -0.5273  0.1244
  699MOL0     C96374   2.509   9.649   1.355 -0.4163 -0.6088 -0.2186
  699MOL0     N96375   2.738   9.373   0.936 -0.4343  0.9080 -0.1455
  699MOL0     N96376   2.732   9.251   0.974 -0.0062 -0.8625  0.4821
  699MOL0     C96377   2.242   9.120   1.592 -1.0309 -0.5683 -0.5938
  699MOL0     C96378   2.141   9.077   1.503 -0.4699  0.1809  0.7790
  699MOL0     C96379   1.999   8.808   1.160  0.3017 -0.0839 -0.4151
  699MOL0     C96380   1.812   8.805   1.250 -0.2488  0.3314  0.7350
  699MOL0     C96381   1.640   8.727   1.135 -0.1747  0.5017 -0.6542
  699MOL0     C96382   1.671   8.657   0.936 -0.7344  0.0853 -0.0699
  699MOL0     O96383   1.568   8.615   0.853 -0.5600  0.9168  0.1022
  699MOL0     C96384   1.449   8.598   0.927  0.2538  0.2491 -0.6711
  699MOL0     C96385   1.345   8.715   0.899 -0.2701 -0.5936  0.6399
  699MOL0     C96386   1.197   8.679   0.918  0.8665  0.8332 -1.0080
  699MOL0     C96387   1.109   8.791   0.843 -0.2361  0.1466 -0.5477
  699MOL0     C96388   0.970   8.780   0.893  0.0195 -0.1826  0.0987
  699MOL0     C96389   0.852   8.777   0.930  0.2768 -0.4523  0.4905
  699MOL0     C96390   1.864   8.668   0.849  0.1725 -0.4400 -0.0544
  699MOL0     C96391   2.024   8.737   0.960 -0.6757 -1.1384  0.4017
  699MOL0     C96392   2.155   8.730   0.897  0.7275  0.5723  0.3370
  699MOL0     H96393   2.303   8.779   1.438 -0.1919 -0.3423  0.8216
  699MOL0     H96394   2.469   8.874   1.564 -0.8091 -2.3109  3.5727
  699MOL0     H96395   2.504   9.294   1.776 -0.2920 -1.1229 -0.5657
  699MOL0     H96396   2.450   9.300   1.621 -0.2058  3.5399  2.7096
  699MOL0     H96397   2.662   9.362   1.618 -0.8276 -0.1096 -1.6392
  699MOL0     H96398   2.721   9.211   1.705 -0.8272  0.7179 -0.0570
  699MOL0     H96399   2.682   9.068   1.501  0.4685 -0.4127  2.0762
  699MOL0     H96400   2.603   9.208   1.424  1.6131  1.8321 -0.4506
  699MOL0     H96401   2.815   9.332   1.414  0.0627  0.1532  1.5376
  699MOL0     H96402   2.901   9.204   1.499  0.4151  1.0303  0.6283
  699MOL0     H96403   2.760   9.202   1.218  1.3771  2.5030 -0.4159
  699MOL0     H96404   2.819   9.058   1.290 -4.0737  0.2775  1.4445
  699MOL0     H96405   2.962   9.289   1.188 -1.3387  2.0782  3.8715
  699MOL0     H96406   3.036   9.188   1.316 -0.3832 -2.6930 -0.0581
  699MOL0     H96407   3.045   8.993   1.173  0.1497 -0.5830  0.7203
  699MOL0     H96408   3.104   9.130   1.078  0.1458  1.3724  2.4598
  699MOL0     H96409   2.947   9.008   0.922 -1.8004  2.2971 -2.9586
  699MOL0     H96410   2.826   9.008   1.048  0.4290 -0.7071  0.1316
  699MOL0     H96411   3.054   9.294   0.892 -0.7040  0.0346 -2.5721
  699MOL0     H96412   2.821   9.599   0.843 -2.0421 -1.3325  3.9725
  699MOL0     H96413   2.989   9.542   0.798 -1.1942  2.0519 -2.0831
  699MOL0     H96414   3.079   9.567   1.007  1.9676  2.1990 -2.2996
  699MOL0     H96415   3.003   9.724   0.971  1.9908 -0.0152 -0.5850
  699MOL0     H96416   2.885   9.502   1.149 -1.4721 -0.0515  3.3599
  699MOL0     H96417   2.945   9.663   1.201  0.2287  3.0742 -1.8601
  699MOL0     H96418   2.741   9.770   1.065 -1.3328 -0.1450 -0.3990
  699MOL0     H96419   2.690   9.593   1.044 -1.4199 -3.3154  4.9855
  699MOL0     H96420   2.642   9.408   1.165  0.0197 -1.1190 -0.0529
  699MOL0     H96421   2.352   9.204   1.298 -1.5651  1.1198 -0.8406
  699MOL0     H96422   2.506   9.192   1.207 -1.2948 -2.8019  0.4228
  699MOL0     H96423   2.352   9.242   1.130 -0.0692  1.5691  0.8023
  699MOL0     H96424   1.983   9.145   1.201  0.8778  0.7565  0.2931
  699MOL0     H96425   1.738   9.186   1.125  0.6052  0.0981 -1.8205
  699MOL0     H96426   1.548   9.557   1.245 -1.2467 -0.0711 -0.2623
  699MOL0     H96427   1.570   9.595   1.073  1.8398 -0.8465 -0.6195
  699MOL0     H96428   1.341   9.427   1.180  1.1070  0.7925  1.0845
  699MOL0     H96429   1.341   9.593   1.128 -1.3586 -0.0900  0.7187
  699MOL0     H96430   1.411   9.344   0.959  0.9030  0.3554 -0.4495
  699MOL0     H96431   1.421   9.504   0.895 -1.9682  1.9436  0.7979
  699MOL0     H96432   1.192   9.552   0.957  0.0911  0.4587  1.5571
  699MOL0     H96433   1.166   9.379   1.016 -0.7833  0.7909 -0.4369
  699MOL0     H96434   1.228   9.448   0.731 -0.4760 -2.0991 -1.7954
  699MOL0     H96435   1.247   9.291   0.810  0.7122 -0.1305  2.7593
  699MOL0     H96436   0.977   9.441   0.782 -2.2597 -0.5637 -0.3075
  699MOL0     H96437   1.005   9.297   0.878 -0.5511  1.5520  0.7010
  699MOL0     H96438   0.967   9.315   0.595  2.1209  0.7625 -0.3180
  699MOL0     H96439   0.930   9.178   0.697  1.5490 -0.8873  3.2552
  699MOL0     H96440   1.171   9.094   0.691 -0.6245  0.6649  1.3090
  699MOL0     H96441   1.197   9.234   0.576 -1.1483  1.6113  1.4476
  699MOL0     H96442   1.775   9.599   1.198 -1.2508 -0.7708 -1.3567
  699MOL0     H96443   2.006   9.569   1.281  1.8838 -1.3799  1.3638
  699MOL0     H96444   2.327   9.645   1.468 -0.2161  1.0252 -0.8921
  699MOL0     H96445   2.534   9.739   1.410 -1.4977  0.4726 -1.4266
  699MOL0     H96446   2.228   9.214   1.645  0.4703  0.0475 -1.2293
  699MOL0     H96447   2.046   9.127   1.488  0.3064  2.3079  2.4304
  699MOL0     H96448   1.803   8.853   1.347 -3.7358 -2.2691  1.9163
  699MOL0     H96449   1.542   8.736   1.181  0.9659  4.1532  1.4732
  699MOL0     H96450   1.408   8.505   0.888 -1.0080  1.0113 -1.2167
  699MOL0     H96451   1.461   8.588   1.035  4.1764  4.5794 -0.3467
  699MOL0     H96452   1.353   8.754   0.797 -0.7275  3.6127  2.0222
  699MOL0     H96453   1.373   8.803   0.959 -0.9319 -1.8790  2.9726
  699MOL0     H96454   1.178   8.589   0.859 -0.8499  0.9949 -0.7631
  699MOL0     H96455   1.169   8.668   1.023 -1.2590  1.2503 -1.4662
  699MOL0     H96456   1.097   8.767   0.737 -2.5164  1.4435 -0.6478
  699MOL0     H96457   1.153   8.891   0.851  0.9766 -0.2474 -1.8294
  699MOL0     H96458   0.751   8.776   0.967 -1.1429 -2.4997 -2.9801
  699MOL0     H96459   1.893   8.640   0.748  1.4593 -0.5785  0.3300
  699MOL0     H96460   2.144   8.682   0.799  1.5355 -1.7245  1.3072
  699MOL0     H96461   2.200   8.830   0.890 -0.4933  1.5845  4.2191
  699MOL0     H96462   2.214   8.665   0.962 -0.9599 -1.5608 -0.1604
  700MOL0     O96463   1.991   2.474   3.224  0.7253  0.6856 -0.4223
  700MOL0     C96464   1.954   2.353   3.235  0.6654 -0.1610  0.8629
  700MOL0     O96465   1.842   2.306   3.180  0.2621 -0.7755 -0.1488
  700MOL0     C96466   1.771   2.390   3.098  0.8588  0.7517  0.4563
  700MOL0     C96467   1.725   2.520   3.133  0.9193  0.3466  0.3951
  700MOL0     C96468   1.646   2.580   3.034 -0.3097 -0.5004  0.4920
  700MOL0     C96469   1.609   2.526   2.912  0.3151  0.1989  0.7489
  700MOL0     O96470   1.504   2.580   2.826  0.3062 -0.4935 -0.2906
  700MOL0     C96471   1.526   2.713   2.782 -1.8572 -0.2712 -0.0359
  700MOL0     C96472   1.574   2.705   2.641 -0.8517 -0.1573 -0.7295
  700MOL0     C96473   1.469   2.675   2.547  0.0001 -0.2194  0.3893
  700MOL0     C96474   1.528   2.608   2.411 -0.8636 -0.4061 -0.2213
  700MOL0     C96475   1.639   2.683   2.327  0.0337 -0.2160 -0.1827
  700MOL0     C96476   1.575   2.823   2.283 -0.1536  0.4168  0.9149
  700MOL0     C96477   1.664   2.892   2.163 -0.9141  0.2926  0.5672
  700MOL0     C96478   1.640   2.825   2.024  0.4383 -0.0020 -0.7066
  700MOL0     N96479   1.690   2.900   1.914 -0.0363 -0.4613  0.5781
  700MOL0     C96480   1.826   2.928   1.899  0.3728 -0.5305  0.3136
  700MOL0     C96481   1.829   3.019   1.800  0.0664  0.0267  0.4945
  700MOL0     C96482   1.946   3.092   1.750  0.6768  0.5073 -0.5664
  700MOL0     C96483   1.955   3.090   1.591  0.1085  0.5737  0.4441
  700MOL0     C96484   1.861   3.170   1.513 -0.7958  0.3634  1.1413
  700MOL0     C96485   1.916   3.198   1.369 -0.2570  0.1734 -0.9892
  700MOL0     O96486   1.811   3.269   1.302 -0.0918  0.6109 -0.0555
  700MOL0     C96487   1.809   3.255   1.161  0.2012  0.5940  0.4838
  700MOL0     C96488   1.885   3.170   1.080  0.0606  0.4812 -0.1708
  700MOL0     C96489   1.873   3.162   0.940  0.6935  0.2950 -0.4074
  700MOL0     C96490   1.955   3.059   0.880  0.6990  1.2895  0.5255
  700MOL0     C96491   1.795   3.256   0.878  0.8973  0.4710  0.0077
  700MOL0     C96492   1.790   3.261   0.723  0.5661 -0.2777  0.2073
  700MOL0     O96493   1.893   3.204   0.646  0.1905 -0.4469 -0.0549
  700MOL0     C96494   1.934   3.272   0.538  0.3041 -1.0223 -0.9440
  700MOL0     C96495   1.911   3.401   0.487 -0.0326 -0.7092 -0.6616
  700MOL0     C96496   1.988   3.449   0.381 -0.5483  0.5937 -0.1444
  700MOL0     C96497   2.098   3.386   0.326  0.2109  0.0216 -0.4096
  700MOL0     O96498   2.159   3.443   0.222 -0.9950 -0.7016 -0.1259
  700MOL0     C96499   2.296   3.402   0.191 -0.3881 -0.5148 -0.8295
  700MOL0     C96500   2.346   3.529   0.117 -0.0525 -0.3616  0.8547
  700MOL0     C96501   2.358   3.651   0.211  0.2586  0.7727 -0.3859
  700MOL0     C96502   2.500   3.707   0.230  0.1477 -0.3319  0.5646
  700MOL0     C96503   2.552   3.798   0.113 -0.4065  0.6241 -0.1443
  700MOL0     C96504   2.705   3.801   0.092 -0.5543  0.1482  0.0677
  700MOL0     C96505   2.783   3.843   0.209 -0.0088 -0.0875 -0.6303
  700MOL0     C96506   2.928   3.808   0.178  0.2197  0.4740  0.5509
  700MOL0    Cl96507   3.041   3.872   0.297  0.1051  0.1056 -0.0922
  700MOL0     C96508   2.126   3.255   0.385 -0.4810 -1.3801  0.3846
  700MOL0     C96509   2.043   3.208   0.482 -0.1415 -0.7008 -0.8171
  700MOL0     O96510   1.690   3.318   0.677  0.4426  0.1977 -0.6903
  700MOL0     C96511   1.718   3.350   0.956 -0.0542  0.4936  0.4663
  700MOL0     C96512   1.732   3.345   1.090 -0.4188 -0.2122  0.1952
  700MOL0     N96513   1.701   3.042   1.759  0.4333  0.3652 -0.2647
  700MOL0     N96514   1.618   2.965   1.818  0.5046  0.0097 -0.1988
  700MOL0     C96515   1.667   2.405   2.882  0.6375 -0.5963 -1.1830
  700MOL0     C96516   1.741   2.337   2.977 -0.2173  0.2066  0.2314
  700MOL0     C96517   2.046   2.262   3.313 -0.6122  0.5203  0.2364
  700MOL0     C96518   2.123   2.322   3.414 -0.3110 -0.9211 -0.5123
  700MOL0     C96519   2.209   2.247   3.495  1.2278 -0.3905 -0.7355
  700MOL0     C96520   2.217   2.103   3.477 -0.2171 -1.0830 -0.5584
  700MOL0     O96521   2.313   2.020   3.530  0.8851 -0.0338  0.4890
  700MOL0     C96522   2.356   2.053   3.670  0.8680  0.1908  1.1616
  700MOL0     C96523   2.456   1.937   3.700 -0.2781  0.4901  0.3992
  700MOL0     C96524   2.503   1.971   3.837  0.0517  0.2356 -0.4933
  700MOL0     C96525   2.590   1.856   3.901  0.8817  1.3709 -1.1384
  700MOL0     C96526   2.609   1.873   4.044 -1.1235 -0.2830  0.4258
  700MOL0     C96527   2.642   1.880   4.165  0.4785 -0.4359  0.2051
  700MOL0     C96528   2.144   2.047   3.373 -0.5764 -0.5297 -0.2124
  700MOL0     C96529   2.061   2.115   3.290 -0.1269 -0.4822 -1.0928
  700MOL0     C96530   1.978   2.035   3.194  0.1286 -0.9455 -1.2390
  700MOL0     H96531   1.756   2.566   3.226 -1.4635  1.0404  0.9094
  700MOL0     H96532   1.622   2.685   3.049  0.3960 -0.1590 -0.6274
  700MOL0     H96533   1.598   2.771   2.841 -1.8394 -3.5504  3.6020
  700MOL0     H96534   1.428   2.761   2.785 -1.6517  0.2435  3.8511
  700MOL0     H96535   1.632   2.787   2.598 -2.3293  0.2317 -2.0733
  700MOL0     H96536   1.651   2.627   2.638 -1.7304 -1.0241 -2.7766
  700MOL0     H96537   1.399   2.601   2.587 -1.0726  0.1461 -0.7482
  700MOL0     H96538   1.423   2.773   2.538 -0.2596 -0.3459  0.3461
  700MOL0     H96539   1.571   2.510   2.435  1.4521  0.2417 -1.4522
  700MOL0     H96540   1.442   2.588   2.346 -0.7989  0.7795 -0.7050
  700MOL0     H96541   1.655   2.622   2.238  1.0845 -0.7496  0.3485
  700MOL0     H96542   1.736   2.680   2.377 -0.3859 -0.8078  0.6239
  700MOL0     H96543   1.474   2.807   2.244  1.2041 -0.1785 -2.8234
  700MOL0     H96544   1.573   2.891   2.368 -1.9742  1.5817 -0.0018
  700MOL0     H96545   1.769   2.912   2.190 -1.0299  3.1848 -0.7155
  700MOL0     H96546   1.621   2.993   2.156  1.3797  1.2937 -0.1548
  700MOL0     H96547   1.684   2.725   2.028  0.9047  0.1906  3.2947
  700MOL0     H96548   1.533   2.808   2.011 -0.2057  4.1481 -2.6300
  700MOL0     H96549   1.911   2.898   1.960 -0.4787  0.4195  2.0668
  700MOL0     H96550   2.036   3.053   1.799  1.5232  2.6753 -0.2779
  700MOL0     H96551   1.940   3.198   1.779 -0.8270  1.3139 -3.4474
  700MOL0     H96552   2.057   3.126   1.579  1.0567 -1.4026  1.9978
  700MOL0     H96553   1.944   2.984   1.569  2.5577  0.6156 -1.3453
  700MOL0     H96554   1.768   3.113   1.507 -0.5611  0.0893  0.1211
  700MOL0     H96555   1.847   3.269   1.559 -2.1296  0.3393  0.8376
  700MOL0     H96556   2.008   3.256   1.369 -0.5216  0.6754  0.9472
  700MOL0     H96557   1.940   3.101   1.324  1.3677 -0.7348  1.5900
  700MOL0     H96558   1.953   3.104   1.134  2.0355  5.0175  3.6004
  700MOL0     H96559   2.057   3.098   0.867  0.5165  1.1568 -1.8255
  700MOL0     H96560   1.913   3.023   0.786 -0.8385  2.1596  0.8451
  700MOL0     H96561   1.978   2.976   0.947  3.0927  1.4554 -0.0047
  700MOL0     H96562   1.848   3.478   0.531  3.7411  4.0360 -2.5632
  700MOL0     H96563   1.973   3.551   0.348  0.3725  0.2741 -1.6569
  700MOL0     H96564   2.357   3.390   0.281 -3.1406  0.1729  1.2620
  700MOL0     H96565   2.308   3.321   0.118  0.5259  2.4275 -4.2668
  700MOL0     H96566   2.444   3.503   0.076 -0.2237 -1.5929  1.1880
  700MOL0     H96567   2.290   3.562   0.029 -0.5381  4.0089  2.5518
  700MOL0     H96568   2.316   3.638   0.311 -2.5598  3.7122 -1.0051
  700MOL0     H96569   2.295   3.735   0.178  1.5717  0.4945 -4.1131
  700MOL0     H96570   2.564   3.618   0.236 -0.3879 -1.2611 -4.0605
  700MOL0     H96571   2.483   3.745   0.332 -1.4138 -1.0051  0.5862
  700MOL0     H96572   2.516   3.760   0.017 -2.0292 -1.8409  1.3334
  700MOL0     H96573   2.507   3.897   0.122  2.1775  1.8444  0.4992
  700MOL0     H96574   2.742   3.868   0.014  0.3615 -1.5603 -1.0266
  700MOL0     H96575   2.736   3.704   0.053  1.4205  0.3920  0.8877
  700MOL0     H96576   2.754   3.785   0.297  1.1175  1.1729  0.6330
  700MOL0     H96577   2.770   3.944   0.249 -2.5240  0.2820 -2.2242
  700MOL0     H96578   2.950   3.831   0.074 -0.0063 -2.0651 -0.1408
  700MOL0     H96579   2.938   3.699   0.185  1.5728  0.4072 -1.5572
  700MOL0     H96580   2.204   3.192   0.345  0.7155  1.3786 -1.9821
  700MOL0     H96581   2.053   3.116   0.538 -0.4034  0.8544  1.9610
  700MOL0     H96582   1.640   3.416   0.919 -1.4812 -1.7269 -0.7865
  700MOL0     H96583   1.667   3.408   1.150 -1.6465  1.6735 -2.8536
  700MOL0     H96584   1.633   2.368   2.785 -1.1319  1.1453 -1.2797
  700MOL0     H96585   1.777   2.238   2.953  0.4788 -0.7895  4.6258
  700MOL0     H96586   2.089   2.424   3.432  0.0305 -1.0984  1.3358
  700MOL0     H96587   2.278   2.286   3.569  1.0680 -2.3899  0.5500
  700MOL0     H96588   2.408   2.149   3.676 -2.6687  2.3620 -0.2703
  700MOL0     H96589   2.281   2.045   3.748 -0.2390  1.8339  0.3201
  700MOL0     H96590   2.542   1.928   3.633 -0.6079 -2.5120  0.2508
  700MOL0     H96591   2.422   1.834   3.710  1.1427 -0.2351 -1.5320
  700MOL0     H96592   2.559   2.063   3.817 -1.0462  1.0612  0.0718
  700MOL0     H96593   2.416   1.990   3.900 -0.5919  0.4850 -1.4278
  700MOL0     H96594   2.679   1.836   3.840 -0.9143 -0.1957 -3.4191
  700MOL0     H96595   2.528   1.766   3.897 -0.1427  1.8042  1.9913
  700MOL0     H96596   2.676   1.897   4.265  0.0040  4.7217 -0.2310
  700MOL0     H96597   2.162   1.940   3.371 -2.7661 -0.9427  0.1347
  700MOL0     H96598   1.969   1.933   3.230  0.9971 -0.0333  1.8439
  700MOL0     H96599   1.880   2.081   3.177  0.5923 -0.5373 -2.9932
  700MOL0     H96600   2.042   2.049   3.106  0.6701  2.6188 -0.4490
  701MOL0     O96601   2.705   1.981   2.442 -0.3094  0.4501 -0.2287
  701MOL0     C96602   2.597   2.000   2.497  0.3180  0.2055 -0.6334
  701MOL0     O96603   2.478   1.948   2.461 -0.2989  0.4413 -0.1053
  701MOL0     C96604   2.476   1.887   2.334 -0.2676  0.0031 -0.3527
  701MOL0     C96605   2.470   1.972   2.222  0.1082 -0.4284  0.2781
  701MOL0     C96606   2.480   1.918   2.089 -0.3324  0.0657  0.0675
  701MOL0     C96607   2.518   1.784   2.075 -0.1131  0.3712  0.1863
  701MOL0     O96608   2.535   1.722   1.950  1.2667 -0.0521 -0.3120
  701MOL0     C96609   2.569   1.813   1.842 -0.9998  0.5053 -0.4373
  701MOL0     C96610   2.601   1.743   1.710  0.2632  0.2737 -0.0170
  701MOL0     C96611   2.736   1.706   1.669 -0.2581 -0.2921 -0.0572
  701MOL0     C96612   2.739   1.607   1.549  0.0929  0.4179 -0.6462
  701MOL0     C96613   2.882   1.548   1.537  0.5454 -0.7142 -0.2269
  701MOL0     C96614   2.963   1.635   1.442 -0.5205 -0.2113  0.6333
  701MOL0     C96615   2.923   1.628   1.293 -0.4658 -1.0670  0.0475
  701MOL0     C96616   3.039   1.591   1.200  0.8421  1.0022  0.6610
  701MOL0     N96617   3.113   1.708   1.155 -0.6458  0.4447 -0.1678
  701MOL0     C96618   3.074   1.798   1.061 -1.0745 -0.1082  0.1989
  701MOL0     C96619   3.151   1.912   1.077 -0.3827 -0.0602  0.7529
  701MOL0     C96620   3.117   2.042   0.997 -0.1861 -0.2793  0.3984
  701MOL0     C96621   3.238   2.123   0.972  1.0078  0.1078 -0.6931
  701MOL0     C96622   3.204   2.257   0.897  0.2306 -0.5128 -1.1158
  701MOL0     C96623   3.327   2.343   0.862  1.1744 -0.3223  0.1327
  701MOL0     O96624   3.423   2.379   0.969 -0.5773  0.8782 -0.0642
  701MOL0     C96625   3.379   2.460   1.073  0.1224  0.6481 -0.1085
  701MOL0     C96626   3.262   2.523   1.089 -0.0950  1.0048  0.0829
  701MOL0     C96627   3.214   2.580   1.211 -0.3557 -0.1004  0.2659
  701MOL0     C96628   3.077   2.625   1.216  0.2011  0.6672 -0.3969
  701MOL0     C96629   3.303   2.583   1.323 -0.4487  0.3161  0.0532
  701MOL0     C96630   3.267   2.645   1.453  0.2700 -0.1621 -0.3441
  701MOL0     O96631   3.308   2.569   1.563  0.5334 -0.7520  0.2410
  701MOL0     C96632   3.242   2.613   1.677 -0.2102  0.5084  0.4885
  701MOL0     C96633   3.112   2.567   1.698  0.2618  0.6524  0.6479
  701MOL0     C96634   3.040   2.600   1.816 -0.0607 -0.2657  0.7653
  701MOL0     C96635   3.098   2.698   1.899 -0.1105 -0.4443  0.4519
  701MOL0     O96636   3.020   2.758   1.994  0.6061  0.1965 -0.2972
  701MOL0     C96637   3.056   2.882   2.052  0.0517 -0.0116  0.4748
  701MOL0     C96638   2.944   2.905   2.151  0.9733  0.7951 -0.5296
  701MOL0     C96639   2.944   3.037   2.228  0.9723 -0.2588  0.2795
  701MOL0     C96640   3.048   3.038   2.330  0.8427  0.1974 -0.3124
  701MOL0     C96641   3.054   3.180   2.394 -0.8219 -0.6607 -0.5315
  701MOL0     C96642   3.156   3.190   2.506  0.5631 -0.0041 -0.4787
  701MOL0     C96643   3.305   3.218   2.458 -0.0792  0.1399  0.6741
  701MOL0     C96644   3.392   3.263   2.572  0.2525 -0.8699  0.2946
  701MOL0    Cl96645   3.563   3.281   2.524 -0.1186 -0.3741  0.0577
  701MOL0     C96646   3.230   2.737   1.881  0.8085 -1.1414 -0.3382
  701MOL0     C96647   3.309   2.697   1.771  0.6492  0.1176  0.2759
  701MOL0     O96648   3.195   2.749   1.452 -0.0022 -0.5809 -0.0491
  701MOL0     C96649   3.434   2.543   1.299 -0.2699  0.0373  0.4624
  701MOL0     C96650   3.468   2.489   1.175 -0.1433  0.4813  0.3332
  701MOL0     N96651   3.253   1.881   1.165  0.1070  1.1251 -0.9732
  701MOL0     N96652   3.228   1.757   1.215  0.3220 -0.0331 -0.1521
  701MOL0     C96653   2.534   1.705   2.190 -0.8786  0.8238  0.1192
  701MOL0     C96654   2.517   1.754   2.317  0.6847  0.7336  0.2780
  701MOL0     C96655   2.570   2.108   2.593  0.1062 -0.0443 -0.3808
  701MOL0     C96656   2.472   2.205   2.578 -0.0221 -0.0479  0.4667
  701MOL0     C96657   2.467   2.317   2.666 -0.5253 -0.7074  0.2675
  701MOL0     C96658   2.541   2.322   2.782 -0.2082 -0.4484  0.5458
  701MOL0     O96659   2.529   2.442   2.855 -1.0507 -0.8255  0.0978
  701MOL0     C96660   2.595   2.448   2.983  0.4004  1.3619 -0.3598
  701MOL0     C96661   2.511   2.366   3.086  0.9870 -0.3248  0.0152
  701MOL0     C96662   2.371   2.424   3.106  1.4060 -0.5299 -0.1660
  701MOL0     C96663   2.358   2.532   3.217 -0.3711 -0.2331  0.1725
  701MOL0     C96664   2.433   2.652   3.204  0.9027 -0.2847  0.4755
  701MOL0     C96665   2.496   2.750   3.201  0.2309  0.1837 -0.5563
  701MOL0     C96666   2.642   2.225   2.801 -0.6379  0.6700  0.8313
  701MOL0     C96667   2.655   2.116   2.709 -0.5722  0.0157  1.4655
  701MOL0     C96668   2.767   2.019   2.742  1.0081 -0.8656  1.0463
  701MOL0     H96669   2.456   2.079   2.239  0.3157 -0.2430 -0.6648
  701MOL0     H96670   2.474   1.981   2.001 -2.7971 -1.1831 -0.7742
  701MOL0     H96671   2.659   1.860   1.883 -1.5039 -1.3700  3.2087
  701MOL0     H96672   2.483   1.874   1.816 -0.9823  0.1596 -1.3647
  701MOL0     H96673   2.530   1.659   1.706 -0.4490  0.9010 -3.2100
  701MOL0     H96674   2.566   1.815   1.636  2.6194  1.6981  0.1698
  701MOL0     H96675   2.791   1.799   1.652 -1.4810  0.1959 -1.5681
  701MOL0     H96676   2.786   1.654   1.752 -1.8337 -0.4997  0.8059
  701MOL0     H96677   2.656   1.539   1.570 -0.0104  0.8352  0.3369
  701MOL0     H96678   2.710   1.660   1.458  2.0163 -0.4672 -1.8631
  701MOL0     H96679   2.884   1.449   1.489 -1.5016 -0.6642 -0.4965
  701MOL0     H96680   2.915   1.522   1.638  1.9798 -1.6051 -0.8866
  701MOL0     H96681   2.959   1.738   1.477  1.8595 -0.4447  1.8104
  701MOL0     H96682   3.064   1.594   1.454 -1.4428 -3.6240 -1.7727
  701MOL0     H96683   2.888   1.722   1.250  0.9481 -0.4432  0.2060
  701MOL0     H96684   2.841   1.556   1.286 -0.0519 -1.5466  0.0532
  701MOL0     H96685   3.115   1.520   1.233 -0.7406 -0.7362  0.6894
  701MOL0     H96686   3.002   1.545   1.107  0.4390  1.3898  0.6264
  701MOL0     H96687   2.992   1.779   0.992 -0.4281 -0.5686 -0.4489
  701MOL0     H96688   3.055   2.112   1.055 -1.1369 -1.4412  0.8354
  701MOL0     H96689   3.056   2.012   0.911  2.0879  0.5949 -1.6288
  701MOL0     H96690   3.303   2.127   1.060  0.5422 -0.6089 -0.3094
  701MOL0     H96691   3.294   2.069   0.894  0.3103  0.1153 -1.2101
  701MOL0     H96692   3.151   2.232   0.804 -0.7134 -0.3332 -0.6364
  701MOL0     H96693   3.130   2.310   0.959  0.1326 -2.1319  0.2365
  701MOL0     H96694   3.383   2.286   0.788  0.7131  0.7508 -1.0816
  701MOL0     H96695   3.290   2.441   0.830  0.8351 -0.3222  0.5220
  701MOL0     H96696   3.186   2.517   1.013 -0.4087  3.0790  0.1656
  701MOL0     H96697   3.015   2.573   1.142 -0.3319 -2.8057  2.2334
  701MOL0     H96698   3.072   2.733   1.199  0.1121  0.6211 -0.6690
  701MOL0     H96699   3.035   2.604   1.315  2.0129  0.5717  0.3846
  701MOL0     H96700   3.065   2.498   1.628 -0.6549  3.3358 -1.5683
  701MOL0     H96701   2.935   2.572   1.821 -0.4670  0.9697 -0.2044
  701MOL0     H96702   3.149   2.867   2.107 -0.5685 -3.0196  0.9032
  701MOL0     H96703   3.074   2.955   1.972 -0.1104 -0.3387  0.1396
  701MOL0     H96704   2.854   2.904   2.089  3.0493  3.2787 -3.9563
  701MOL0     H96705   2.927   2.823   2.221 -2.2260  0.7447 -1.2392
  701MOL0     H96706   2.846   3.053   2.274 -1.2478 -0.8213 -3.8007
  701MOL0     H96707   2.957   3.124   2.163 -1.5326  0.0919  0.1265
  701MOL0     H96708   3.144   3.010   2.287 -0.3883 -1.4975 -2.1852
  701MOL0     H96709   3.017   2.957   2.396 -3.2049  0.8143 -1.1579
  701MOL0     H96710   3.089   3.263   2.331  0.5136 -1.0434 -0.3205
  701MOL0     H96711   2.958   3.200   2.442 -0.4918 -0.6140  0.1185
  701MOL0     H96712   3.149   3.105   2.576 -1.7284  0.0293 -0.5898
  701MOL0     H96713   3.120   3.276   2.564 -0.0304 -0.1148 -0.6704
  701MOL0     H96714   3.305   3.281   2.368 -0.8783 -0.8609 -0.0525
  701MOL0     H96715   3.351   3.122   2.432  0.1619 -0.0577  1.7731
  701MOL0     H96716   3.373   3.190   2.652 -4.1792 -2.6813 -2.0613
  701MOL0     H96717   3.360   3.357   2.619  0.3030 -0.1313 -1.1102
  701MOL0     H96718   3.270   2.801   1.959 -0.2400  1.3221 -1.6994
  701MOL0     H96719   3.413   2.723   1.757  0.5982  1.0618  1.5098
  701MOL0     H96720   3.515   2.573   1.364  2.4990  3.1488 -3.8211
  701MOL0     H96721   3.568   2.453   1.155  0.2253  1.1743  0.8596
  701MOL0     H96722   2.547   1.599   2.169 -4.4116  0.2981  0.0851
  701MOL0     H96723   2.516   1.679   2.396  0.1359  0.6333  0.1794
  701MOL0     H96724   2.409   2.218   2.491  1.4788 -1.0840 -0.8351
  701MOL0     H96725   2.405   2.405   2.652  0.3976  0.1814  1.5450
  701MOL0     H96726   2.692   2.398   2.983 -1.3520 -2.3776  0.1109
  701MOL0     H96727   2.601   2.553   3.014 -1.0391  0.6428  2.6971
  701MOL0     H96728   2.573   2.360   3.176  1.2202 -2.5032 -0.2518
  701MOL0     H96729   2.505   2.262   3.055  2.5737 -0.2450 -0.6418
  701MOL0     H96730   2.330   2.467   3.014 -1.6380 -0.8906  0.8963
  701MOL0     H96731   2.310   2.340   3.139 -0.5317  1.8373  2.8948
  701MOL0     H96732   2.398   2.487   3.309 -0.8622 -1.2038 -0.0825
  701MOL0     H96733   2.255   2.564   3.233  0.2250  1.7580  0.3342
  701MOL0     H96734   2.552   2.840   3.187 -0.2416  0.1918 -2.6982
  701MOL0     H96735   2.718   2.232   2.878  1.5288 -1.5416 -0.9236
  701MOL0     H96736   2.728   1.918   2.727  2.9961 -1.6153  0.7127
  701MOL0     H96737   2.853   2.020   2.675 -0.1337 -1.7829 -0.5024
  701MOL0     H96738   2.795   2.025   2.847  2.7069  1.0314  0.5403
  702MOL0     O96739   4.755  11.576   4.697 -0.7217  0.1397  0.4110
  702MOL0     C96740   4.672  11.496   4.746 -0.7346 -0.5940  0.4319
  702MOL0     O96741   4.569  11.435   4.675 -0.2361 -0.5989  0.4228
  702MOL0     C96742   4.530  11.495   4.557  0.5333 -0.4526 -0.6173
  702MOL0     C96743   4.482  11.628   4.549 -0.6730  0.7562 -0.2600
  702MOL0     C96744   4.425  11.676   4.430 -0.4552 -0.5259  0.4364
  702MOL0     C96745   4.443  11.604   4.313 -0.2210 -0.0973  0.3911
  702MOL0     O96746   4.390  11.659   4.200  0.5212 -0.0426 -0.6634
  702MOL0     C96747   4.477  11.668   4.083  1.0533 -0.4647  0.1940
  702MOL0     C96748   4.576  11.784   4.096 -0.7883 -0.3063  0.1778
  702MOL0     C96749   4.532  11.922   4.065  0.5461 -0.9331 -0.8180
  702MOL0     C96750   4.471  11.929   3.920  0.3342  0.2121  0.4440
  702MOL0     C96751   4.550  12.032   3.834  0.2372  0.6103 -0.8572
  702MOL0     C96752   4.681  11.969   3.781  0.2935 -1.0260 -0.1690
  702MOL0     C96753   4.764  12.076   3.698 -0.1862 -0.3519 -0.1305
  702MOL0     C96754   4.889  12.018   3.656  0.1870  0.3859 -0.2403
  702MOL0     N96755   4.941  12.047   3.524  0.8160  0.2187  0.3436
  702MOL0     C96756   4.884  11.995   3.409 -0.4873  0.1146 -0.7786
  702MOL0     C96757   4.947  12.044   3.302 -0.4607  0.3145  0.7141
  702MOL0     C96758   4.942  12.009   3.153 -0.1887  0.8976 -0.7002
  702MOL0     C96759   5.070  11.929   3.130  0.0866  0.0918 -0.5161
  702MOL0     C96760   5.207  11.978   3.191 -0.0451  0.9323  0.0773
  702MOL0     C96761   5.322  11.903   3.129 -0.1496  0.1818  0.3949
  702MOL0     O96762   5.291  11.765   3.167 -0.1773  0.3114 -0.5108
  702MOL0     C96763   5.374  11.664   3.131 -1.4654 -0.8375 -0.7883
  702MOL0     C96764   5.317  11.539   3.143  0.3087  0.2215  0.6862
  702MOL0     C96765   5.374  11.429   3.085  0.6089 -0.0952 -0.0080
  702MOL0     C96766   5.301  11.299   3.117  0.9913  0.2894  0.3480
  702MOL0     C96767   5.475  11.448   2.994 -0.5757 -0.3307  0.0751
  702MOL0     C96768   5.526  11.329   2.925 -0.4641  0.6885 -0.7233
  702MOL0     O96769   5.662  11.314   2.898  0.0329 -0.6229 -0.5699
  702MOL0     C96770   5.715  11.192   2.918  0.2325  0.4178 -0.3138
  702MOL0     C96771   5.831  11.169   2.857  0.0310  0.3835 -0.1776
  702MOL0     C96772   5.888  11.045   2.866 -0.8264 -0.3162  0.3358
  702MOL0     C96773   5.833  10.945   2.948 -0.6780 -0.1893 -1.2368
  702MOL0     O96774   5.908  10.836   2.970  1.3824  0.9958 -0.2619
  702MOL0     C96775   5.822  10.710   2.953  0.1073 -0.7758  0.3775
  702MOL0     C96776   5.766  10.701   2.823 -0.6633 -0.1398  0.3181
  702MOL0     C96777   5.696  10.573   2.799 -0.0884 -0.1168  0.1527
  702MOL0     C96778   5.632  10.573   2.655  0.3059  1.2691 -0.2872
  702MOL0     C96779   5.593  10.420   2.615  0.0210  0.3719  0.4945
  702MOL0     C96780   5.535  10.327   2.727  0.5383 -0.8132  0.1188
  702MOL0     C96781   5.489  10.189   2.669  0.8150 -0.8503 -0.8710
  702MOL0     C96782   5.404  10.106   2.764  0.0867  0.4328  0.3172
  702MOL0    Cl96783   5.495  10.047   2.896 -0.3199  0.3287 -0.3900
  702MOL0     C96784   5.716  10.970   3.016  0.9451  0.7585  0.4816
  702MOL0     C96785   5.653  11.092   2.994 -0.8203  0.2093 -0.5240
  702MOL0     O96786   5.444  11.261   2.866  0.7372  0.3214 -0.1378
  702MOL0     C96787   5.556  11.567   2.998 -0.1025  0.0326  0.9613
  702MOL0     C96788   5.499  11.678   3.060  0.4433 -1.1241 -0.1601
  702MOL0     N96789   5.044  12.133   3.359  0.1127 -0.5657  0.5608
  702MOL0     N96790   5.049  12.120   3.489  0.5266 -0.4831  0.2086
  702MOL0     C96791   4.515  11.475   4.318  0.5565 -0.3836  0.0465
  702MOL0     C96792   4.546  11.419   4.442  0.2689  0.5630 -0.7831
  702MOL0     C96793   4.699  11.436   4.879 -0.8123 -0.4290  0.0920
  702MOL0     C96794   4.588  11.384   4.946  0.1160  0.9867 -1.5192
  702MOL0     C96795   4.608  11.311   5.070 -1.2370  0.0156  1.0539
  702MOL0     C96796   4.734  11.293   5.127 -0.9230  0.4379  0.3776
  702MOL0     O96797   4.744  11.209   5.240 -0.1696 -0.5641 -0.5282
  702MOL0     C96798   4.867  11.145   5.266  0.2783  0.5480  0.0072
  702MOL0     C96799   4.891  11.016   5.185  0.5894 -0.2949  1.0254
  702MOL0     C96800   5.024  10.951   5.222  0.5709  0.3156  0.2556
  702MOL0     C96801   5.054  10.828   5.139 -0.8790  0.4473  0.9381
  702MOL0     C96802   5.147  10.739   5.218  0.2528  0.3002  0.2368
  702MOL0     C96803   5.216  10.663   5.292 -0.1409  1.2813 -0.3676
  702MOL0     C96804   4.838  11.359   5.063  0.0224  0.5963  0.2982
  702MOL0     C96805   4.829  11.431   4.946 -0.3028 -0.4710 -0.2006
  702MOL0     C96806   4.961  11.493   4.888  0.1391 -0.4389 -0.0791
  702MOL0     H96807   4.482  11.685   4.641  2.1117 -1.5771  1.3563
  702MOL0     H96808   4.406  11.782   4.434  0.6281 -0.2840 -0.2190
  702MOL0     H96809   4.408  11.694   4.002 -1.7632 -0.4267  2.4701
  702MOL0     H96810   4.527  11.573   4.063 -0.6501 -1.3607  0.0614
  702MOL0     H96811   4.605  11.768   4.200 -3.0872 -2.7961  0.5440
  702MOL0     H96812   4.667  11.750   4.046 -1.0107  0.3708 -0.7046
  702MOL0     H96813   4.453  11.964   4.128  2.5675  1.6544  0.1439
  702MOL0     H96814   4.607  12.000   4.077 -0.7345 -0.0425  2.2328
  702MOL0     H96815   4.476  11.832   3.869  1.1718  1.3927 -1.8724
  702MOL0     H96816   4.366  11.960   3.929 -0.5700 -1.5043 -2.6436
  702MOL0     H96817   4.573  12.120   3.895  0.7124 -0.8962  1.2488
  702MOL0     H96818   4.483  12.064   3.753 -3.2364  0.8300  1.8609
  702MOL0     H96819   4.741  11.946   3.869 -1.7357 -0.4280  1.4397
  702MOL0     H96820   4.666  11.876   3.725  2.3865 -1.8243  0.4705
  702MOL0     H96821   4.791  12.158   3.765  3.9616 -1.1883 -0.5060
  702MOL0     H96822   4.710  12.107   3.608  0.8101  0.1640 -0.5616
  702MOL0     H96823   4.961  12.035   3.737 -0.7215  0.8847  0.4908
  702MOL0     H96824   4.880  11.909   3.660  2.0311  0.2203  3.3470
  702MOL0     H96825   4.800  11.928   3.396  0.4622 -1.5200  0.9995
  702MOL0     H96826   4.968  12.103   3.104  0.3159  0.7131 -0.7839
  702MOL0     H96827   4.861  11.945   3.116 -0.0404 -0.4200  1.1069
  702MOL0     H96828   5.038  11.834   3.174  0.3224  0.6557  0.9257
  702MOL0     H96829   5.074  11.938   3.021  1.0333 -0.6101 -0.5462
  702MOL0     H96830   5.211  12.086   3.177 -0.2028  1.0218  0.6742
  702MOL0     H96831   5.214  11.958   3.299 -0.4305 -2.4386 -0.4205
  702MOL0     H96832   5.316  11.907   3.020 -2.2422  1.3722  0.5154
  702MOL0     H96833   5.418  11.938   3.169 -0.1528  1.8112 -0.9268
  702MOL0     H96834   5.224  11.541   3.200 -0.5529  2.1305 -0.7240
  702MOL0     H96835   5.261  11.315   3.218 -0.0087  4.4235 -0.5344
  702MOL0     H96836   5.357  11.205   3.115 -2.9695 -2.2604 -1.0716
  702MOL0     H96837   5.212  11.272   3.061 -0.0725  2.5122  0.8636
  702MOL0     H96838   5.879  11.241   2.790  0.8101 -0.7200 -0.8528
  702MOL0     H96839   5.984  11.025   2.819 -0.3945 -0.6381  1.3173
  702MOL0     H96840   5.887  10.624   2.970 -0.2278 -0.5721  3.2601
  702MOL0     H96841   5.739  10.705   3.025 -1.2179  2.1303 -0.7720
  702MOL0     H96842   5.694  10.783   2.814  0.0400  0.5772  1.0816
  702MOL0     H96843   5.855  10.715   2.760 -0.5545  2.5193  0.9322
  702MOL0     H96844   5.622  10.561   2.878  0.9675  0.9258  1.3592
  702MOL0     H96845   5.769  10.491   2.802  0.4112  0.3308  0.5606
  702MOL0     H96846   5.699  10.615   2.579 -0.5374 -1.0881 -2.4907
  702MOL0     H96847   5.541  10.634   2.654 -2.1063 -1.9912 -1.5666
  702MOL0     H96848   5.514  10.437   2.541  1.9454  0.6145 -1.6215
  702MOL0     H96849   5.678  10.371   2.567 -1.8002 -1.2467 -1.2542
  702MOL0     H96850   5.443  10.375   2.761 -0.1023 -1.4174 -0.7312
  702MOL0     H96851   5.606  10.319   2.811  2.1177 -4.2641 -1.3376
  702MOL0     H96852   5.580  10.135   2.644  1.1465  0.4391 -2.7121
  702MOL0     H96853   5.425  10.205   2.581  2.4876  1.0216 -1.8248
  702MOL0     H96854   5.366  10.022   2.705  0.2676  0.8505 -0.4002
  702MOL0     H96855   5.320  10.169   2.794  0.1299  1.1673 -1.0466
  702MOL0     H96856   5.673  10.892   3.079 -0.1441 -1.2527 -2.5409
  702MOL0     H96857   5.563  11.107   3.053 -1.4557 -2.3476 -0.7318
  702MOL0     H96858   5.654  11.577   2.954 -0.4551 -2.1707 -0.5023
  702MOL0     H96859   5.546  11.774   3.046  0.0402 -0.6887  1.2778
  702MOL0     H96860   4.523  11.414   4.229 -3.9372  1.4915 -2.0208
  702MOL0     H96861   4.577  11.315   4.441  1.1219  0.6498  2.8079
  702MOL0     H96862   4.489  11.395   4.901 -2.3086 -1.0264  2.7141
  702MOL0     H96863   4.523  11.263   5.117  0.4466 -1.5990  2.6159
  702MOL0     H96864   4.953  11.212   5.256  1.1759 -0.7404 -1.5193
  702MOL0     H96865   4.867  11.117   5.372  0.0243 -1.6703 -0.5150
  702MOL0     H96866   4.877  11.030   5.077 -3.1375  2.0112  1.6428
  702MOL0     H96867   4.812  10.951   5.222 -1.3949 -0.9062 -3.5225
  702MOL0     H96868   5.098  11.030   5.211 -0.3277  0.9248 -2.1691
  702MOL0     H96869   5.016  10.938   5.331  1.2574  1.2956  0.4264
  702MOL0     H96870   5.089  10.855   5.039 -1.3118  0.0636  0.6787
  702MOL0     H96871   4.965  10.764   5.133 -1.3201  1.1723 -1.3941
  702MOL0     H96872   5.270  10.596   5.355 -0.7233 -0.3179 -1.5179
  702MOL0     H96873   4.938  11.346   5.104 -0.0461 -0.6055  0.1306
  702MOL0     H96874   4.959  11.602   4.881 -0.7363 -0.3564  1.1122
  702MOL0     H96875   5.051  11.457   4.939  0.0821  1.4188  1.4683
  702MOL0     H96876   4.961  11.452   4.787  4.6410  1.6181 -1.1827
  703MOL0     O96877   7.455   4.702   3.936 -0.6394 -0.4431 -0.5305
  703MOL0     C96878   7.540   4.650   4.011  0.1631  0.4784  0.7554
  703MOL0     O96879   7.569   4.692   4.139  0.2082  0.6599  0.0791
  703MOL0     C96880   7.502   4.802   4.172  0.2013 -0.2381  1.0350
  703MOL0     C96881   7.360   4.803   4.205  0.5156 -0.6527  0.0964
  703MOL0     C96882   7.304   4.925   4.257 -0.7757  0.4672  0.1740
  703MOL0     C96883   7.382   5.040   4.275 -0.2288  0.8025  0.0292
  703MOL0     O96884   7.316   5.148   4.326 -0.5450 -0.1719  0.3190
  703MOL0     C96885   7.390   5.253   4.385  0.1223 -0.4255 -0.4713
  703MOL0     C96886   7.292   5.325   4.479 -0.0036 -0.6706 -1.0871
  703MOL0     C96887   7.180   5.420   4.421 -0.0858  0.2269  0.5154
  703MOL0     C96888   7.247   5.540   4.352  0.0859 -1.0543  0.4103
  703MOL0     C96889   7.305   5.644   4.448 -0.7048 -0.3366 -0.6201
  703MOL0     C96890   7.193   5.705   4.539  0.4003 -0.7434  0.6569
  703MOL0     C96891   7.251   5.832   4.594 -0.0018  1.0569  0.3373
  703MOL0     C96892   7.134   5.908   4.659  0.5744 -0.5076  0.4908
  703MOL0     N96893   7.179   6.027   4.735 -0.1235  0.1565  0.0955
  703MOL0     C96894   7.206   6.149   4.683 -0.2462  0.5309 -0.6217
  703MOL0     C96895   7.282   6.218   4.770  0.1044  0.1021  0.4130
  703MOL0     C96896   7.344   6.349   4.744  0.3521 -0.6347  0.4747
  703MOL0     C96897   7.479   6.334   4.670 -0.1881  0.3209  0.5680
  703MOL0     C96898   7.585   6.340   4.770 -1.1421 -0.6458 -0.0412
  703MOL0     C96899   7.722   6.291   4.712 -0.0078 -0.7583  0.0547
  703MOL0     O96900   7.735   6.194   4.606 -0.1610 -0.4319 -0.7218
  703MOL0     C96901   7.718   6.063   4.635 -0.7492  0.9765  0.4659
  703MOL0     C96902   7.746   5.976   4.530  0.6869  0.6204 -0.2406
  703MOL0     C96903   7.727   5.839   4.540 -0.0847 -0.7714  0.7086
  703MOL0     C96904   7.762   5.755   4.414 -0.2456 -0.8202  0.3376
  703MOL0     C96905   7.677   5.779   4.656 -0.6603 -0.6584  0.0967
  703MOL0     C96906   7.632   5.634   4.673  0.3402 -0.6712 -0.8073
  703MOL0     O96907   7.565   5.600   4.786 -0.2469  0.2523 -0.2134
  703MOL0     C96908   7.536   5.468   4.802  0.2347  0.8749  0.0922
  703MOL0     C96909   7.401   5.435   4.819  0.1805 -0.2019  0.0067
  703MOL0     C96910   7.367   5.306   4.839  0.4745 -0.5734  0.7408
  703MOL0     C96911   7.457   5.197   4.835 -0.0091  0.0785 -0.9092
  703MOL0     O96912   7.415   5.066   4.846  0.5620  0.1461 -0.2079
  703MOL0     C96913   7.501   4.963   4.798  0.2651  0.4861  0.0087
  703MOL0     C96914   7.482   4.940   4.647 -0.6354  1.0074 -0.1970
  703MOL0     C96915   7.594   4.844   4.590 -1.0039  0.4849 -0.0954
  703MOL0     C96916   7.638   4.725   4.683 -0.2131  0.3291  0.0704
  703MOL0     C96917   7.752   4.655   4.609 -0.1723 -1.3506  0.3564
  703MOL0     C96918   7.784   4.515   4.671 -0.2913 -0.6044 -0.6733
  703MOL0     C96919   7.906   4.452   4.603  0.3655  0.5733  0.8032
  703MOL0     C96920   7.933   4.313   4.658  0.8387  0.2485  0.0605
  703MOL0    Cl96921   7.971   4.316   4.833  0.0870  0.2819 -0.3579
  703MOL0     C96922   7.604   5.236   4.836  0.3142 -0.1000 -0.1198
  703MOL0     C96923   7.635   5.372   4.820 -1.0717  0.2049 -0.2895
  703MOL0     O96924   7.653   5.558   4.578  0.0287 -0.1775  0.0174
  703MOL0     C96925   7.635   5.874   4.755  0.1081 -0.2023  0.0387
  703MOL0     C96926   7.667   6.010   4.757 -0.1262  0.7245  0.2727
  703MOL0     N96927   7.305   6.137   4.875  0.6610 -0.8566 -0.6574
  703MOL0     N96928   7.250   6.024   4.850  0.0839 -0.6468  0.5604
  703MOL0     C96929   7.511   5.037   4.230  0.7814 -0.3594 -0.5281
  703MOL0     C96930   7.576   4.924   4.172  0.4747 -0.1817  0.2801
  703MOL0     C96931   7.609   4.536   3.951  0.1614 -0.8888 -1.2577
  703MOL0     C96932   7.535   4.428   3.912  0.0362  0.4247  0.4178
  703MOL0     C96933   7.598   4.303   3.874  0.4337 -0.3985 -0.5291
  703MOL0     C96934   7.741   4.291   3.876  0.3192  0.3799 -0.1147
  703MOL0     O96935   7.808   4.178   3.841  0.2932 -0.4496 -0.0949
  703MOL0     C96936   7.852   4.099   3.951 -0.1094 -0.3920 -0.4494
  703MOL0     C96937   7.963   4.003   3.892  0.9080  0.0437 -0.2687
  703MOL0     C96938   7.994   3.874   3.964 -0.3997 -1.0024 -1.0194
  703MOL0     C96939   8.042   3.891   4.116  1.4380 -0.3533  0.0859
  703MOL0     C96940   8.021   3.769   4.187 -0.0167 -0.3902  0.1207
  703MOL0     C96941   7.988   3.676   4.252  0.3234  0.0648 -0.7761
  703MOL0     C96942   7.815   4.415   3.906 -0.7795  1.2505  0.0024
  703MOL0     C96943   7.754   4.534   3.943  0.3563  0.3539 -0.0218
  703MOL0     C96944   7.846   4.650   3.963 -0.6487 -0.4735  0.5909
  703MOL0     H96945   7.305   4.710   4.215  0.7123 -0.7736  0.0506
  703MOL0     H96946   7.205   4.928   4.301 -0.2746 -1.1390  1.5402
  703MOL0     H96947   7.436   5.321   4.312 -2.4050 -0.1695 -1.9700
  703MOL0     H96948   7.472   5.211   4.443  3.2043  3.2034 -1.7150
  703MOL0     H96949   7.227   5.253   4.531 -0.8793  0.5039 -0.4946
  703MOL0     H96950   7.345   5.381   4.557 -1.8861  0.1617 -0.3180
  703MOL0     H96951   7.120   5.361   4.352 -0.1485 -0.3849  1.0797
  703MOL0     H96952   7.109   5.455   4.496 -0.3671  3.4356 -1.1105
  703MOL0     H96953   7.334   5.515   4.291  0.6939  1.6428  0.0142
  703MOL0     H96954   7.187   5.593   4.277  2.8059  2.8064  0.6569
  703MOL0     H96955   7.352   5.718   4.383  1.3716 -1.2648 -0.2803
  703MOL0     H96956   7.384   5.601   4.511  0.9129  1.2047 -1.4810
  703MOL0     H96957   7.117   5.739   4.468  4.0678  2.2191 -2.2884
  703MOL0     H96958   7.157   5.626   4.605 -0.6354 -3.3509 -2.7161
  703MOL0     H96959   7.292   5.895   4.515  0.8637  0.3514  0.2071
  703MOL0     H96960   7.330   5.800   4.662  2.5348 -3.2569 -3.9834
  703MOL0     H96961   7.062   5.934   4.581  0.3398 -1.4351  0.3815
  703MOL0     H96962   7.083   5.846   4.734 -2.8129  0.6248 -0.6829
  703MOL0     H96963   7.161   6.185   4.591  0.0947  2.5374 -0.0380
  703MOL0     H96964   7.365   6.390   4.843 -1.1803 -0.7277  0.8644
  703MOL0     H96965   7.284   6.409   4.675  4.1021  0.3487 -2.2324
  703MOL0     H96966   7.500   6.255   4.599 -0.9786  0.8750 -0.3022
  703MOL0     H96967   7.502   6.424   4.612  2.2777 -0.8528 -0.3925
  703MOL0     H96968   7.598   6.439   4.815 -1.8270 -2.3506  4.4891
  703MOL0     H96969   7.560   6.280   4.858 -2.5087  1.7782  1.3407
  703MOL0     H96970   7.779   6.375   4.673 -0.5182 -0.6678 -0.4995
  703MOL0     H96971   7.786   6.257   4.794  1.8051  0.3841 -0.8323
  703MOL0     H96972   7.781   6.029   4.443  2.4506  2.5853  1.5460
  703MOL0     H96973   7.812   5.820   4.340  1.1023 -3.3192 -1.0764
  703MOL0     H96974   7.674   5.705   4.372  0.3300 -1.5853  0.0126
  703MOL0     H96975   7.849   5.691   4.431  2.5670  2.2390 -1.2316
  703MOL0     H96976   7.317   5.503   4.822 -1.0873 -1.7262  0.7558
  703MOL0     H96977   7.264   5.273   4.848 -0.0074 -0.2551 -2.4841
  703MOL0     H96978   7.608   4.974   4.818 -0.0391  0.9915  1.4262
  703MOL0     H96979   7.474   4.878   4.860  1.2624 -0.6703 -1.0719
  703MOL0     H96980   7.395   4.876   4.628  1.6133 -1.7196 -2.3520
  703MOL0     H96981   7.471   5.027   4.582 -0.4744  0.2691 -1.2438
  703MOL0     H96982   7.675   4.908   4.554 -0.7750  1.6468  2.2851
  703MOL0     H96983   7.562   4.801   4.494 -0.6076 -0.3113  0.1157
  703MOL0     H96984   7.548   4.664   4.678 -1.4611  2.1749 -1.2051
  703MOL0     H96985   7.666   4.750   4.786  2.4753  1.1115 -0.7747
  703MOL0     H96986   7.731   4.646   4.501  1.8130 -1.2341 -0.0778
  703MOL0     H96987   7.832   4.729   4.605 -1.3398 -0.0797 -2.4809
  703MOL0     H96988   7.703   4.444   4.652  1.1022 -2.5468  0.3014
  703MOL0     H96989   7.798   4.528   4.778 -2.7460  0.3468 -0.4205
  703MOL0     H96990   7.986   4.526   4.617  1.5690 -0.2630 -1.2963
  703MOL0     H96991   7.895   4.443   4.495 -1.5134  2.8620  0.7128
  703MOL0     H96992   8.017   4.267   4.605  2.7213  0.3157  2.7512
  703MOL0     H96993   7.844   4.254   4.634 -0.3412  1.0760  2.1268
  703MOL0     H96994   7.686   5.165   4.832  1.2826  0.8336  1.8450
  703MOL0     H96995   7.736   5.410   4.813  0.8472 -3.7482  2.2207
  703MOL0     H96996   7.578   5.841   4.841 -2.2634  0.0550 -1.3545
  703MOL0     H96997   7.634   6.069   4.841  1.8565 -1.0425  2.4310
  703MOL0     H96998   7.566   5.130   4.241 -2.0357  1.1943  1.6677
  703MOL0     H96999   7.683   4.935   4.157  0.1556  4.0501 -0.0970
  703MOL0     H97000   7.427   4.440   3.909 -0.3945 -2.1825  2.0733
  703MOL0     H97001   7.548   4.216   3.831  1.3993 -3.5763  4.0033
  703MOL0     H97002   7.900   4.167   4.022  0.6133 -0.7301 -0.6036
  703MOL0     H97003   7.775   4.050   4.011 -0.4582 -0.5269 -0.9939
  703MOL0     H97004   8.058   4.057   3.886  0.4694  0.7950 -0.6197
  703MOL0     H97005   7.932   3.990   3.788  0.9897  0.4734 -0.3501
  703MOL0     H97006   7.898   3.823   3.972 -1.1646  0.6409  4.8842
  703MOL0     H97007   8.072   3.821   3.908  1.1344  2.3498 -2.3722
  703MOL0     H97008   7.989   3.975   4.162 -0.4949 -1.3306 -0.2617
  703MOL0     H97009   8.149   3.911   4.111  1.3884 -0.1966 -0.4538
  703MOL0     H97010   7.973   3.607   4.332 -2.5955  1.8164  0.3468
  703MOL0     H97011   7.923   4.406   3.908 -0.8792 -0.2723 -0.0565
  703MOL0     H97012   7.794   4.744   3.983 -1.0918 -0.1240 -1.8108
  703MOL0     H97013   7.911   4.634   4.050  0.5672  1.4002  0.0953
  703MOL0     H97014   7.919   4.658   3.881 -1.2997 -1.2785 -0.0943
  704MOL0     O97015  10.373   1.280   0.248  0.7036  0.7985 -0.1423
  704MOL0     C97016  10.455   1.187   0.233 -0.0501  0.1031  0.9702
  704MOL0     O97017  10.569   1.170   0.301 -0.1030  0.0977  1.4792
  704MOL0     C97018  10.634   1.287   0.336  0.2952  0.8730 -0.1279
  704MOL0     C97019  10.731   1.346   0.254 -0.0739 -0.4227  0.3570
  704MOL0     C97020  10.779   1.466   0.296  0.7708 -1.1713 -0.3349
  704MOL0     C97021  10.747   1.535   0.413  0.2413 -0.6376 -0.2092
  704MOL0     O97022  10.794   1.658   0.431  0.4393 -0.4981 -0.6338
  704MOL0     C97023  10.769   1.711   0.573 -0.0862  0.0700  0.8019
  704MOL0     C97024  10.856   1.835   0.584 -0.5991  0.5629 -0.3706
  704MOL0     C97025  11.011   1.805   0.570 -0.9278 -0.3997 -0.2655
  704MOL0     C97026  11.075   1.922   0.492 -0.2298  0.5425  0.8150
  704MOL0     C97027  11.193   1.870   0.389  0.2225 -0.1116 -0.0375
  704MOL0     C97028  11.234   1.967   0.274  0.2309 -0.4723  0.6334
  704MOL0     C97029  11.318   1.898   0.162 -0.0404  0.5151  0.3002
  704MOL0     C97030  11.345   1.985   0.039  0.0075  0.4227 -0.5085
  704MOL0     N97031  11.474   2.044   0.059 -0.1539  0.4181  0.3676
  704MOL0     C97032  11.496   2.154   0.139  0.1987 -0.7997  0.9039
  704MOL0     C97033  11.630   2.148   0.152  0.5035 -1.5084 -0.3536
  704MOL0     C97034  11.711   2.249   0.236  0.8054 -0.5281  1.0506
  704MOL0     C97035  11.864   2.207   0.242 -0.8259 -0.2654  0.3388
  704MOL0     C97036  11.941   2.282   0.129  0.3403  0.2078 -1.2554
  704MOL0     C97037  11.956   2.431   0.142  0.7120 -0.5512 -1.0262
  704MOL0     O97038  12.073   2.473   0.068 -0.7620 -0.2089  0.6213
  704MOL0     C97039  12.073   2.518  -0.063 -0.4550  0.2944 -0.7659
  704MOL0     C97040  12.190   2.578  -0.114 -0.2272  1.0132  0.7157
  704MOL0     C97041  12.185   2.637  -0.234 -0.1225  0.7615 -0.7323
  704MOL0     C97042  12.306   2.733  -0.262  0.0669 -0.3841  0.7175
  704MOL0     C97043  12.073   2.630  -0.324 -0.7748  0.2949 -0.1674
  704MOL0     C97044  12.065   2.699  -0.449  0.5127  0.2800  0.7339
  704MOL0     O97045  11.938   2.707  -0.497 -0.2915  0.0744 -0.2083
  704MOL0     C97046  11.908   2.744  -0.631 -0.5028 -0.2586 -0.3174
  704MOL0     C97047  12.000   2.758  -0.742 -0.0470  0.8776  0.3211
  704MOL0     C97048  11.949   2.803  -0.874  0.4832 -0.5564 -0.2617
  704MOL0     C97049  11.821   2.852  -0.881  0.0022  0.0851 -0.0030
  704MOL0     O97050  11.786   2.909  -1.000 -0.3063 -0.7093 -0.1669
  704MOL0     C97051  11.653   2.889  -1.039  0.6000  0.2983 -0.0674
  704MOL0     C97052  11.632   2.856  -1.187  0.1658 -0.4734 -0.0195
  704MOL0     C97053  11.744   2.758  -1.238  0.0058 -0.2264  0.7617
  704MOL0     C97054  11.726   2.618  -1.181  0.1931 -0.1185  0.5352
  704MOL0     C97055  11.813   2.518  -1.256 -0.5252  0.8752  0.7712
  704MOL0     C97056  11.961   2.547  -1.240 -0.8004  0.2108 -0.1891
  704MOL0     C97057  12.046   2.435  -1.303 -0.6079  0.3453  0.4066
  704MOL0     C97058  12.186   2.505  -1.330 -0.9381  0.1984  0.0259
  704MOL0    Cl97059  12.308   2.383  -1.393  0.2379 -0.6554 -0.0640
  704MOL0     C97060  11.745   2.874  -0.766 -0.1686  0.5272 -1.3287
  704MOL0     C97061  11.783   2.813  -0.641  1.0496  0.2262 -0.0589
  704MOL0     O97062  12.158   2.757  -0.497 -0.8495 -0.1511 -1.0363
  704MOL0     C97063  11.963   2.565  -0.269  1.2530  1.0070  0.1818
  704MOL0     C97064  11.959   2.510  -0.139 -0.8732 -1.1404 -0.2886
  704MOL0     N97065  11.684   2.047   0.072 -0.3388  0.7750  0.4544
  704MOL0     N97066  11.593   1.992   0.011 -0.0888 -0.1246 -0.3175
  704MOL0     C97067  10.666   1.458   0.500 -0.0206 -0.3089  0.4895
  704MOL0     C97068  10.608   1.344   0.457  0.4885  1.5002 -0.7430
  704MOL0     C97069  10.413   1.091   0.124  0.2445  1.2986  0.5007
  704MOL0     C97070  10.398   0.959   0.176  0.4097  0.2879 -0.6854
  704MOL0     C97071  10.354   0.854   0.098  0.8702 -0.2739  0.5618
  704MOL0     C97072  10.323   0.879  -0.036 -0.0683  0.4035  0.5610
  704MOL0     O97073  10.261   0.786  -0.112 -0.3675  0.1280  0.0127
  704MOL0     C97074  10.112   0.790  -0.138 -0.6703  0.4335  0.1410
  704MOL0     C97075  10.028   0.794  -0.012  0.2996 -0.3902 -1.0822
  704MOL0     C97076   9.890   0.734  -0.055  0.5012 -0.0044  0.0636
  704MOL0     C97077   9.772   0.764   0.037  0.1354 -0.7549  0.7314
  704MOL0     C97078   9.690   0.888  -0.001 -0.9935 -0.0720 -0.2774
  704MOL0     C97079   9.624   0.981  -0.038  0.0202  0.2729 -0.1386
  704MOL0     C97080  10.356   1.000  -0.102  0.7717 -0.3148  0.8814
  704MOL0     C97081  10.400   1.106  -0.013 -0.2842  0.0395  0.3958
  704MOL0     C97082  10.441   1.234  -0.077  0.2007 -0.3098 -0.1571
  704MOL0     H97083  10.750   1.305   0.156  1.3006  1.8844 -0.4144
  704MOL0     H97084  10.842   1.512   0.220  2.8673 -0.9489  1.4485
  704MOL0     H97085  10.803   1.644   0.653  1.4200 -0.4337 -0.2206
  704MOL0     H97086  10.670   1.751   0.594 -0.2519  0.0565  0.0527
  704MOL0     H97087  10.819   1.910   0.514 -3.3860  3.0865  3.3977
  704MOL0     H97088  10.857   1.885   0.682 -0.8945 -0.1957  0.0208
  704MOL0     H97089  11.050   1.781   0.669 -2.0206 -3.7215 -0.5139
  704MOL0     H97090  11.021   1.711   0.515  0.3174  1.0123 -2.6243
  704MOL0     H97091  11.003   1.979   0.433  0.8798  1.7825  0.6256
  704MOL0     H97092  11.119   1.994   0.561 -1.3252 -1.6767  4.0927
  704MOL0     H97093  11.169   1.773   0.344  0.4398  0.9185 -2.5104
  704MOL0     H97094  11.283   1.852   0.449  1.2309  0.7593 -1.2364
  704MOL0     H97095  11.136   2.001   0.241 -0.7389 -1.3953  2.3782
  704MOL0     H97096  11.288   2.049   0.321  0.6235 -0.9820  1.0936
  704MOL0     H97097  11.242   1.830   0.122  1.8362 -2.0395  0.8660
  704MOL0     H97098  11.404   1.845   0.203 -0.6976 -0.5870  0.3099
  704MOL0     H97099  11.349   1.916  -0.045  2.6106  1.7433 -1.5796
  704MOL0     H97100  11.269   2.060   0.014 -1.5983 -1.2697 -0.8849
  704MOL0     H97101  11.418   2.201   0.198 -0.6439 -2.5027  1.2046
  704MOL0     H97102  11.675   2.250   0.340  3.2016  1.8671  1.9791
  704MOL0     H97103  11.696   2.348   0.192 -3.1486  1.1258  5.2787
  704MOL0     H97104  11.906   2.246   0.335  0.1840  0.4228 -0.3817
  704MOL0     H97105  11.880   2.099   0.232 -3.3578 -0.6727  0.0366
  704MOL0     H97106  12.044   2.249   0.143  0.0326  0.5395  2.9300
  704MOL0     H97107  11.912   2.255   0.027  2.8310 -0.8215 -1.7534
  704MOL0     H97108  11.862   2.474   0.104 -0.0722 -1.6561 -0.3909
  704MOL0     H97109  11.950   2.460   0.247 -1.2814 -2.5573 -0.5160
  704MOL0     H97110  12.276   2.586  -0.049  0.2026 -1.5789  0.5669
  704MOL0     H97111  12.275   2.838  -0.254  1.0919  0.0633 -0.8144
  704MOL0     H97112  12.349   2.723  -0.362  0.7071  0.6498  0.8733
  704MOL0     H97113  12.371   2.723  -0.175 -1.4642 -4.2102  1.6265
  704MOL0     H97114  12.102   2.722  -0.733  0.0340  1.0927  0.2535
  704MOL0     H97115  12.012   2.786  -0.960  0.6725 -3.6080  0.3614
  704MOL0     H97116  11.620   2.807  -0.975  1.2400  2.1359  2.8136
  704MOL0     H97117  11.584   2.971  -1.016 -0.8365 -0.7315 -0.5750
  704MOL0     H97118  11.536   2.806  -1.200  0.5500 -0.6152 -2.8357
  704MOL0     H97119  11.619   2.948  -1.244 -2.5808 -1.7862 -1.7290
  704MOL0     H97120  11.830   2.814  -1.202 -1.2697  1.3215  1.5085
  704MOL0     H97121  11.740   2.761  -1.347  1.7230  1.2058  0.6929
  704MOL0     H97122  11.619   2.599  -1.184 -0.2901  1.7136 -4.7405
  704MOL0     H97123  11.749   2.620  -1.074 -0.5598  4.5095  0.8260
  704MOL0     H97124  11.786   2.419  -1.218  0.2191  1.3741  2.6923
  704MOL0     H97125  11.774   2.523  -1.358  0.1203 -0.3254  0.4412
  704MOL0     H97126  11.986   2.559  -1.134 -1.2882 -0.7073  0.0460
  704MOL0     H97127  11.981   2.644  -1.286 -2.5976  0.0112 -1.5054
  704MOL0     H97128  11.995   2.398  -1.392 -1.7764  3.9798 -0.5980
  704MOL0     H97129  12.064   2.358  -1.227 -0.1200 -0.2864 -0.3264
  704MOL0     H97130  12.212   2.535  -1.229 -1.8871 -1.1546  0.7134
  704MOL0     H97131  12.193   2.581  -1.408  0.8744 -0.9004 -0.9469
  704MOL0     H97132  11.657   2.936  -0.780  2.3325  4.1752 -2.2894
  704MOL0     H97133  11.726   2.820  -0.549  0.6107 -0.1035 -0.3026
  704MOL0     H97134  11.871   2.553  -0.326  1.0244  0.3845  0.6660
  704MOL0     H97135  11.866   2.466  -0.106 -1.1603 -0.3256  0.0282
  704MOL0     H97136  10.632   1.498   0.595  0.4003  0.0481  0.4932
  704MOL0     H97137  10.536   1.291   0.518  0.5455  0.4657 -1.5506
  704MOL0     H97138  10.394   0.926   0.279 -1.0514  0.7503 -0.5814
  704MOL0     H97139  10.322   0.760   0.140  2.7676 -1.2498 -0.0678
  704MOL0     H97140  10.090   0.869  -0.211  1.2842  1.5111  0.6417
  704MOL0     H97141  10.095   0.695  -0.189 -1.4932  0.8530 -0.3840
  704MOL0     H97142  10.016   0.897   0.023  0.3069 -0.8233  0.2387
  704MOL0     H97143  10.066   0.737   0.073 -0.3128  2.7184  1.4977
  704MOL0     H97144   9.866   0.768  -0.156 -0.1952 -2.3599 -0.6160
  704MOL0     H97145   9.908   0.626  -0.051 -0.2678 -0.1056  0.9056
  704MOL0     H97146   9.810   0.775   0.139 -1.0065  1.3096  0.9880
  704MOL0     H97147   9.705   0.678   0.043 -1.5580  0.4915  0.6313
  704MOL0     H97148   9.555   1.060  -0.060 -2.8993 -2.7092 -2.7905
  704MOL0     H97149  10.334   1.021  -0.206  1.9043  4.5718  1.4155
  704MOL0     H97150  10.364   1.271  -0.145 -0.7889 -1.2136  0.4268
  704MOL0     H97151  10.462   1.311  -0.003 -1.7908  1.6959 -1.5408
  704MOL0     H97152  10.531   1.220  -0.136  2.2402  2.4043  2.0382
  705MOL0     O97153   1.567   3.092  10.024 -0.0325  0.5499 -0.7967
  705MOL0     C97154   1.548   3.160   9.923  0.7107 -0.5066  0.9104
  705MOL0     O97155   1.451   3.143   9.822 -0.3701  0.1744  0.5032
  705MOL0     C97156   1.341   3.068   9.837  0.3046  0.2095 -0.0098
  705MOL0     C97157   1.267   3.074   9.727 -0.1715  0.9136  0.2293
  705MOL0     C97158   1.140   3.023   9.727 -0.8285 -0.8109  1.3265
  705MOL0     C97159   1.080   2.976   9.838  0.1239  1.2626 -0.4138
  705MOL0     O97160   0.944   2.941   9.824 -0.0923 -0.2158  0.4596
  705MOL0     C97161   0.911   2.817   9.887  0.7080  0.6425 -0.7348
  705MOL0     C97162   0.764   2.782   9.861  0.3390 -0.2726 -0.4011
  705MOL0     C97163   0.718   2.656   9.927 -0.6107  0.9908  0.8252
  705MOL0     C97164   0.577   2.622   9.885  0.3282  0.1242  0.7249
  705MOL0     C97165   0.473   2.733   9.937 -0.0208  0.0144 -0.1198
  705MOL0     C97166   0.341   2.699   9.886 -0.1719 -0.6108 -0.1180
  705MOL0     C97167   0.225   2.785   9.945  0.3514 -0.1352  0.1800
  705MOL0     C97168   0.086   2.719   9.917 -0.0757 -0.0078  0.2054
  705MOL0     N97169  -0.025   2.809   9.956  0.1854  0.1777 -1.2079
  705MOL0     C97170  -0.079   2.911   9.881  0.7384  0.4194  0.2745
  705MOL0     C97171  -0.190   2.942   9.952  0.9335 -1.1579  0.2925
  705MOL0     C97172  -0.297   3.025   9.901  0.9404 -0.0132  0.0443
  705MOL0     C97173  -0.289   3.069   9.747 -0.4564 -0.1869 -0.1621
  705MOL0     C97174  -0.381   3.186   9.706 -0.6626 -0.9041  0.1790
  705MOL0     C97175  -0.376   3.210   9.550  0.3180  0.0823  0.5755
  705MOL0     O97176  -0.456   3.327   9.523 -0.4796  0.7959  0.0045
  705MOL0     C97177  -0.459   3.352   9.383 -0.3437 -0.2236 -0.2170
  705MOL0     C97178  -0.406   3.285   9.276 -0.0348  0.6826  0.0316
  705MOL0     C97179  -0.424   3.323   9.145 -0.0183 -0.0806  0.7114
  705MOL0     C97180  -0.346   3.241   9.046 -0.2737 -0.6592 -0.4291
  705MOL0     C97181  -0.502   3.437   9.114  0.9533  0.0107  0.3596
  705MOL0     C97182  -0.523   3.482   8.979  0.0799 -0.0764  0.2894
  705MOL0     O97183  -0.412   3.485   8.907  0.7923  1.0350 -0.1277
  705MOL0     C97184  -0.391   3.530   8.777 -0.9754  1.4522 -0.7101
  705MOL0     C97185  -0.280   3.466   8.717 -0.1969 -0.3055 -0.3092
  705MOL0     C97186  -0.255   3.490   8.580  0.0647 -0.9374 -0.1921
  705MOL0     C97187  -0.339   3.587   8.521  1.0728  0.8689  0.8387
  705MOL0     O97188  -0.327   3.625   8.395 -0.1186  0.3871 -0.5043
  705MOL0     C97189  -0.187   3.647   8.355 -0.0865 -0.2333 -0.4005
  705MOL0     C97190  -0.195   3.795   8.298 -0.1088 -0.4153 -0.0876
  705MOL0     C97191  -0.068   3.835   8.216 -0.1338  0.2580 -0.3868
  705MOL0     C97192  -0.087   3.965   8.136 -0.2946 -1.2868 -1.3402
  705MOL0     C97193   0.037   3.980   8.053  0.3193  1.0155  0.0619
  705MOL0     C97194   0.046   4.121   7.990  0.6140  0.1407 -0.4133
  705MOL0     C97195   0.185   4.141   7.923 -0.6667 -0.1349 -0.3225
  705MOL0     C97196   0.212   4.291   7.893  0.3189 -0.7237 -0.4774
  705MOL0    Cl97197   0.122   4.359   7.759  0.5341  0.1753  0.2732
  705MOL0     C97198  -0.445   3.652   8.584 -0.1295 -0.1867  0.1733
  705MOL0     C97199  -0.472   3.619   8.721 -0.0709 -0.0971  0.7725
  705MOL0     O97200  -0.627   3.533   8.956  0.4511 -0.0394 -0.0962
  705MOL0     C97201  -0.558   3.499   9.222  0.4427 -0.2602 -0.8006
  705MOL0     C97202  -0.539   3.461   9.356  0.0031 -0.2063  0.9393
  705MOL0     N97203  -0.207   2.858  10.060  0.1839 -0.0071 -0.6529
  705MOL0     N97204  -0.109   2.773  10.058 -0.0981 -0.7314  0.2129
  705MOL0     C97205   1.158   2.953   9.945 -0.4858 -0.4563 -0.8174
  705MOL0     C97206   1.302   2.992   9.950  0.4233 -0.0359  0.2829
  705MOL0     C97207   1.637   3.276   9.894  0.0114  0.2103  0.4595
  705MOL0     C97208   1.604   3.368   9.782 -0.0273  0.2564 -0.4640
  705MOL0     C97209   1.668   3.493   9.772 -0.2873  0.4417  1.0348
  705MOL0     C97210   1.775   3.529   9.851 -0.6849 -0.5790  1.4120
  705MOL0     O97211   1.850   3.648   9.842  0.8315 -0.0474 -0.1821
  705MOL0     C97212   1.811   3.762   9.764 -0.8113 -0.3526 -0.2222
  705MOL0     C97213   1.738   3.859   9.848 -0.0271  0.6152  0.3537
  705MOL0     C97214   1.699   3.980   9.772  0.1933  0.4446  0.4936
  705MOL0     C97215   1.600   4.073   9.847  0.3305 -0.3816 -0.6350
  705MOL0     C97216   1.491   4.119   9.766 -0.9434  0.2427  1.3101
  705MOL0     C97217   1.395   4.156   9.710  0.5021  0.0086 -0.3001
  705MOL0     C97218   1.805   3.449   9.955  0.2534  0.1063 -0.5389
  705MOL0     C97219   1.743   3.324   9.981  1.3751  0.6833  0.4611
  705MOL0     C97220   1.777   3.250  10.117  1.6543 -0.2196 -0.1990
  705MOL0     H97221   1.303   3.138   9.647  0.0439  3.1188  1.9730
  705MOL0     H97222   1.080   3.041   9.638 -1.0644 -1.1052  1.4237
  705MOL0     H97223   0.942   2.813   9.992 -0.1727  2.0825 -0.3947
  705MOL0     H97224   0.966   2.744   9.827 -1.7672 -1.9187 -0.0809
  705MOL0     H97225   0.701   2.859   9.906 -0.7987 -0.8428 -0.9710
  705MOL0     H97226   0.743   2.774   9.754  1.3425 -0.9388 -0.5611
  705MOL0     H97227   0.777   2.573   9.887 -0.2172  1.5168  0.2976
  705MOL0     H97228   0.729   2.649  10.036 -0.5124 -4.1468  0.7370
  705MOL0     H97229   0.584   2.611   9.776  0.1291 -2.3420  0.9097
  705MOL0     H97230   0.547   2.523   9.920 -2.1527 -0.1451 -1.7647
  705MOL0     H97231   0.501   2.830   9.895 -1.1841 -0.1191 -1.2849
  705MOL0     H97232   0.462   2.734  10.046  0.8424 -1.7988  0.0307
  705MOL0     H97233   0.337   2.707   9.777  0.9029  3.3787 -0.0188
  705MOL0     H97234   0.312   2.595   9.907 -0.5382 -0.4700  0.0975
  705MOL0     H97235   0.226   2.880   9.891  0.7525 -1.0828 -1.5513
  705MOL0     H97236   0.230   2.802  10.053 -3.3015  2.4662  0.1177
  705MOL0     H97237   0.085   2.690   9.812 -1.0313  0.3477  0.1018
  705MOL0     H97238   0.070   2.628   9.975 -1.7104 -2.4390 -3.6409
  705MOL0     H97239  -0.044   2.944   9.784  4.0686 -0.4477  1.0416
  705MOL0     H97240  -0.276   3.111   9.964  0.8226 -1.6605  2.4608
  705MOL0     H97241  -0.393   2.978   9.926  0.0712 -0.3981 -3.4758
  705MOL0     H97242  -0.190   3.108   9.722 -0.6445  0.9213  0.7506
  705MOL0     H97243  -0.305   2.995   9.669 -2.9157  2.5463 -2.4551
  705MOL0     H97244  -0.477   3.152   9.747 -1.8292  2.5524  0.7112
  705MOL0     H97245  -0.344   3.279   9.749  2.0582 -1.4511 -0.8274
  705MOL0     H97246  -0.276   3.240   9.518 -0.9096  2.6391 -1.1701
  705MOL0     H97247  -0.401   3.122   9.489  5.0372 -0.1773 -1.4298
  705MOL0     H97248  -0.332   3.208   9.298  0.1292  0.1630 -2.0920
  705MOL0     H97249  -0.248   3.287   9.029  0.4101 -2.8856 -3.6127
  705MOL0     H97250  -0.404   3.236   8.953 -2.2600  2.4875  0.4779
  705MOL0     H97251  -0.339   3.141   9.090 -1.7122  1.2820  4.9590
  705MOL0     H97252  -0.207   3.399   8.762  1.1234  3.1039  3.2712
  705MOL0     H97253  -0.166   3.457   8.527  0.0706  0.5163 -1.1596
  705MOL0     H97254  -0.103   3.659   8.423  0.4802 -0.7018 -1.0058
  705MOL0     H97255  -0.165   3.571   8.279 -3.0336 -0.5120 -1.1293
  705MOL0     H97256  -0.289   3.797   8.243  1.4247  0.7428 -2.8272
  705MOL0     H97257  -0.194   3.865   8.382  3.9562 -0.9135  0.4752
  705MOL0     H97258  -0.046   3.755   8.143  3.1241  2.5885 -2.2471
  705MOL0     H97259   0.005   3.841   8.297  0.5889  0.5861 -1.0453
  705MOL0     H97260  -0.094   4.051   8.203  1.7193 -2.4160  0.4778
  705MOL0     H97261  -0.178   3.943   8.080 -2.4621  0.3549  1.2857
  705MOL0     H97262   0.122   3.953   8.116 -1.9306 -0.4184  2.7173
  705MOL0     H97263   0.039   3.907   7.972 -0.4880  0.8660  0.1639
  705MOL0     H97264   0.030   4.195   8.069 -3.3526  0.5375 -1.3619
  705MOL0     H97265  -0.034   4.135   7.916  0.9759  1.0061 -0.6526
  705MOL0     H97266   0.186   4.079   7.833 -1.2888 -1.3823  0.5011
  705MOL0     H97267   0.265   4.105   7.988 -1.2572 -2.6349 -0.8637
  705MOL0     H97268   0.318   4.315   7.881 -0.0573 -0.2074 -3.9675
  705MOL0     H97269   0.182   4.352   7.978  0.1910 -1.8248  0.2890
  705MOL0     H97270  -0.503   3.724   8.527 -0.9045  1.3261  2.6974
  705MOL0     H97271  -0.554   3.664   8.775  0.3999  3.2548 -1.0031
  705MOL0     H97272  -0.625   3.582   9.202  0.7934 -0.1281 -1.4482
  705MOL0     H97273  -0.564   3.525   9.441 -2.8714  0.7480 -0.5028
  705MOL0     H97274   1.126   2.898  10.033  2.9498 -2.7669 -0.7883
  705MOL0     H97275   1.357   2.965  10.039  1.1678 -3.1568 -0.9820
  705MOL0     H97276   1.525   3.334   9.716  1.6604 -0.4888 -2.2042
  705MOL0     H97277   1.638   3.560   9.692  2.3940  1.5156  0.8436
  705MOL0     H97278   1.906   3.808   9.735 -0.5139 -1.5090 -1.1728
  705MOL0     H97279   1.745   3.740   9.679  0.3446  1.4371 -1.6608
  705MOL0     H97280   1.820   3.886   9.916  0.8678 -1.9903  0.4010
  705MOL0     H97281   1.659   3.804   9.899 -0.5466  0.8362 -0.2105
  705MOL0     H97282   1.785   4.036   9.732 -1.0194 -0.4173 -3.9136
  705MOL0     H97283   1.651   3.942   9.681  2.5114  0.8433 -1.0091
  705MOL0     H97284   1.639   4.160   9.899 -0.9696 -0.6356  0.8296
  705MOL0     H97285   1.553   4.009   9.923 -0.6659 -2.3569 -2.7846
  705MOL0     H97286   1.332   4.193   9.631  0.2284  1.4221  0.5457
  705MOL0     H97287   1.888   3.475  10.020  0.8047  0.2209 -1.2690
  705MOL0     H97288   1.868   3.294  10.158  3.4518  0.5543 -4.4795
  705MOL0     H97289   1.688   3.261  10.179  1.7285  0.4852 -0.2168
  705MOL0     H97290   1.798   3.145  10.092 -2.4072 -1.1683 -0.4005
  706MOL0     O97291   7.667   4.768   1.905 -0.2369 -0.0597 -0.0347
  706MOL0     C97292   7.694   4.849   1.997  1.1732  0.8062  0.3376
  706MOL0     O97293   7.730   4.976   1.980  0.4922  0.4265 -0.5462
  706MOL0     C97294   7.694   5.048   1.864 -0.9377 -0.4043 -0.7025
  706MOL0     C97295   7.801   5.129   1.812  0.1050  0.3529  0.1592
  706MOL0     C97296   7.775   5.220   1.702 -0.3308  0.6260  0.0799
  706MOL0     C97297   7.640   5.221   1.646  0.2987  0.1282 -0.6996
  706MOL0     O97298   7.618   5.300   1.539 -0.1527 -0.0099 -0.4713
  706MOL0     C97299   7.563   5.230   1.418  0.1832 -0.3647  0.6288
  706MOL0     C97300   7.617   5.296   1.292 -0.2509  1.1105  0.1463
  706MOL0     C97301   7.582   5.444   1.271  0.5277 -1.1884 -0.5253
  706MOL0     C97302   7.427   5.490   1.271  0.7089 -0.1242  0.3842
  706MOL0     C97303   7.402   5.632   1.214 -1.2143  0.2987  0.0029
  706MOL0     C97304   7.274   5.684   1.260 -0.4319 -0.0230 -0.1449
  706MOL0     C97305   7.237   5.806   1.177  0.7726 -0.4665 -0.2829
  706MOL0     C97306   7.080   5.833   1.178  0.4071  0.0869  0.0821
  706MOL0     N97307   7.014   5.763   1.065 -0.0663  0.6351 -0.0066
  706MOL0     C97308   7.031   5.784   0.935  0.2212 -0.8092  0.0662
  706MOL0     C97309   6.958   5.688   0.884 -0.2272  0.4099  1.1896
  706MOL0     C97310   6.911   5.695   0.739 -0.1293 -0.1916  0.8638
  706MOL0     C97311   7.034   5.718   0.652  0.2105 -0.6831 -0.0841
  706MOL0     C97312   6.994   5.697   0.507 -0.1206  0.2273 -0.2988
  706MOL0     C97313   7.113   5.716   0.415 -0.3791  0.3942  0.1976
  706MOL0     O97314   7.100   5.643   0.287  0.5905  0.1735 -0.0421
  706MOL0     C97315   7.133   5.511   0.283 -0.8936  0.2407  0.0250
  706MOL0     C97316   7.261   5.469   0.317  0.5941  0.6995 -0.2382
  706MOL0     C97317   7.302   5.329   0.337 -0.2544 -0.0706  0.0483
  706MOL0     C97318   7.442   5.314   0.386  0.1236  0.2035 -0.9891
  706MOL0     C97319   7.197   5.224   0.307 -0.6526 -0.7738 -0.9840
  706MOL0     C97320   7.218   5.083   0.338 -0.1320  0.7898 -1.2647
  706MOL0     O97321   7.109   5.017   0.326  0.1819  1.4348  0.2237
  706MOL0     C97322   7.112   4.876   0.340 -0.1901 -1.0586  0.1354
  706MOL0     C97323   7.146   4.795   0.228  0.2702  0.0047 -0.9443
  706MOL0     C97324   7.161   4.656   0.235 -0.5407  0.4358 -0.4033
  706MOL0     C97325   7.147   4.590   0.359 -1.0860 -0.2297 -0.6268
  706MOL0     O97326   7.142   4.452   0.385 -0.3842  0.3345  0.3298
  706MOL0     C97327   7.173   4.358   0.281 -0.2908  0.2135  1.1782
  706MOL0     C97328   7.121   4.224   0.321 -0.0265  0.0717  0.0292
  706MOL0     C97329   7.184   4.151   0.446 -0.2245 -0.3984 -0.1297
  706MOL0     C97330   7.115   4.022   0.480  0.3472  0.2150  0.0466
  706MOL0     C97331   7.206   3.957   0.589  0.0804 -0.0362 -1.1083
  706MOL0     C97332   7.146   3.818   0.620  0.4284  0.2766 -0.2683
  706MOL0     C97333   7.243   3.723   0.680  0.3830  0.9301 -1.3641
  706MOL0     C97334   7.175   3.585   0.696  0.0573  0.8491 -0.6503
  706MOL0    Cl97335   7.172   3.496   0.539 -0.4615  0.1262  0.2480
  706MOL0     C97336   7.115   4.676   0.467 -0.0349 -0.2003  0.4524
  706MOL0     C97337   7.098   4.816   0.459  0.5343  0.3719 -0.4306
  706MOL0     O97338   7.328   5.039   0.379 -0.4545 -0.1928  0.1473
  706MOL0     C97339   7.069   5.277   0.273  0.2723  0.1674 -0.0220
  706MOL0     C97340   7.041   5.414   0.259  0.8554  0.3090 -0.0670
  706MOL0     N97341   6.898   5.605   0.976  0.2288 -0.1449 -0.4171
  706MOL0     N97342   6.930   5.660   1.088  0.1190 -0.7813 -0.6865
  706MOL0     C97343   7.542   5.134   1.698  0.0290 -0.5541  0.2923
  706MOL0     C97344   7.573   5.052   1.810  0.0409  0.1146  0.2286
  706MOL0     C97345   7.682   4.790   2.133  0.4073  0.2984  0.5297
  706MOL0     C97346   7.598   4.674   2.150 -0.0269 -1.0354  0.3245
  706MOL0     C97347   7.590   4.608   2.276 -0.8780 -0.5565  0.3320
  706MOL0     C97348   7.650   4.649   2.392 -0.5391 -1.1174  0.2904
  706MOL0     O97349   7.626   4.575   2.509  0.3159 -1.1819  1.2150
  706MOL0     C97350   7.633   4.630   2.641  0.8753 -0.4162  0.2667
  706MOL0     C97351   7.624   4.505   2.729  0.3760 -0.9278 -0.4918
  706MOL0     C97352   7.750   4.428   2.737  0.6577  0.5643 -0.5550
  706MOL0     C97353   7.762   4.306   2.648 -0.6981 -0.3901  1.6466
  706MOL0     C97354   7.678   4.193   2.680 -0.4228 -0.9304 -0.4302
  706MOL0     C97355   7.599   4.104   2.704  0.3314  0.6266  0.0550
  706MOL0     C97356   7.738   4.761   2.380 -0.2605 -0.5181 -0.0737
  706MOL0     C97357   7.748   4.831   2.253 -0.2706 -0.5126  0.3857
  706MOL0     C97358   7.845   4.949   2.250  0.3474 -1.3452  0.1175
  706MOL0     H97359   7.896   5.140   1.864  0.3549 -4.9955  1.3879
  706MOL0     H97360   7.864   5.275   1.673  0.6685 -1.5218 -1.2547
  706MOL0     H97361   7.454   5.224   1.427  0.0258  1.0769 -0.0759
  706MOL0     H97362   7.596   5.126   1.414 -2.9571 -1.4542  0.2706
  706MOL0     H97363   7.725   5.286   1.276 -0.6551  1.1668 -3.4167
  706MOL0     H97364   7.557   5.238   1.222  0.6774 -3.8387  3.0005
  706MOL0     H97365   7.633   5.508   1.344 -0.6016  0.7357 -1.3445
  706MOL0     H97366   7.633   5.467   1.177  1.6838 -2.2838 -0.1884
  706MOL0     H97367   7.378   5.412   1.212  1.4492 -0.0080 -0.4033
  706MOL0     H97368   7.383   5.477   1.371  0.7076 -2.2882  0.1535
  706MOL0     H97369   7.415   5.634   1.105 -2.4706 -5.9649 -0.6894
  706MOL0     H97370   7.474   5.702   1.255 -0.4944  2.1745 -4.0298
  706MOL0     H97371   7.201   5.604   1.246  2.1224 -3.4456  3.7681
  706MOL0     H97372   7.274   5.704   1.367  0.1669  2.8380 -0.5833
  706MOL0     H97373   7.271   5.805   1.073 -0.2906 -0.3885 -0.6442
  706MOL0     H97374   7.271   5.902   1.217 -0.2192 -0.0667 -0.3707
  706MOL0     H97375   7.036   5.807   1.275  3.0299 -0.7588  1.1290
  706MOL0     H97376   7.066   5.942   1.169 -0.8502 -0.0618  0.0854
  706MOL0     H97377   7.076   5.866   0.881 -0.1187  0.3424  1.4720
  706MOL0     H97378   6.840   5.778   0.727  4.0273  3.9706  1.8813
  706MOL0     H97379   6.863   5.597   0.728  1.8938 -1.3525  1.8470
  706MOL0     H97380   7.081   5.815   0.664 -1.4894  0.6877 -3.2995
  706MOL0     H97381   7.112   5.644   0.671  2.0609  1.1212 -0.3252
  706MOL0     H97382   6.963   5.593   0.498  2.2753 -0.7618  1.6544
  706MOL0     H97383   6.916   5.765   0.472 -3.1170 -2.5387  0.5879
  706MOL0     H97384   7.133   5.823   0.404 -1.4650  0.6785  0.8244
  706MOL0     H97385   7.201   5.672   0.464 -0.7659  0.0108  0.5615
  706MOL0     H97386   7.336   5.543   0.344  0.3922 -0.0678  2.8511
  706MOL0     H97387   7.454   5.308   0.495 -0.7152 -2.0074 -0.9863
  706MOL0     H97388   7.508   5.399   0.362  1.6976 -0.0217  1.9932
  706MOL0     H97389   7.495   5.226   0.349  0.2390 -0.2268  0.1463
  706MOL0     H97390   7.157   4.843   0.131  1.9089  0.5748 -0.5053
  706MOL0     H97391   7.167   4.598   0.143  6.1576  2.3791 -1.7423
  706MOL0     H97392   7.140   4.393   0.182 -1.5518  1.8368  2.1260
  706MOL0     H97393   7.281   4.345   0.292 -0.2413 -1.6036 -0.7637
  706MOL0     H97394   7.014   4.228   0.345 -0.6069  0.2080 -2.3342
  706MOL0     H97395   7.132   4.150   0.241 -0.3934 -1.6285  1.5048
  706MOL0     H97396   7.167   4.209   0.537  0.4391 -1.2070  0.5220
  706MOL0     H97397   7.293   4.150   0.438 -0.2460 -2.2525 -0.5917
  706MOL0     H97398   7.115   3.950   0.398  1.1363 -3.1454  2.7433
  706MOL0     H97399   7.012   4.045   0.509  1.5186  1.7958  3.5245
  706MOL0     H97400   7.311   3.939   0.562  0.7803  2.6777 -0.4646
  706MOL0     H97401   7.190   4.017   0.678  1.2335 -0.9894 -0.2223
  706MOL0     H97402   7.099   3.773   0.532 -1.3037 -1.1997  1.3365
  706MOL0     H97403   7.077   3.842   0.701  0.3669  0.3257 -0.3348
  706MOL0     H97404   7.271   3.761   0.779  2.4485 -0.5747 -1.2997
  706MOL0     H97405   7.337   3.707   0.627  2.4558  1.2188  1.9794
  706MOL0     H97406   7.072   3.608   0.724 -0.5531 -2.1337 -0.1073
  706MOL0     H97407   7.224   3.522   0.771 -0.0148  0.3313 -1.0280
  706MOL0     H97408   7.099   4.627   0.562  0.9063  1.9357  1.8120
  706MOL0     H97409   7.082   4.879   0.546 -2.3878  0.2210 -0.7599
  706MOL0     H97410   6.988   5.205   0.262 -1.6608  2.5320 -3.0706
  706MOL0     H97411   6.937   5.439   0.237  0.6587  1.1587  1.7023
  706MOL0     H97412   7.441   5.133   1.659  0.8150 -1.7481 -1.8693
  706MOL0     H97413   7.493   5.002   1.864  0.2404  2.1252  2.5875
  706MOL0     H97414   7.547   4.628   2.067  3.8147 -4.1129 -0.6277
  706MOL0     H97415   7.512   4.535   2.291 -2.3870  1.3589  2.5130
  706MOL0     H97416   7.727   4.683   2.658  1.2752 -0.3912 -1.8385
  706MOL0     H97417   7.552   4.700   2.662  2.4422  1.8131 -0.7937
  706MOL0     H97418   7.549   4.439   2.685  1.8118 -3.6011  0.8102
  706MOL0     H97419   7.604   4.531   2.834 -0.6250 -0.9073 -0.6772
  706MOL0     H97420   7.832   4.488   2.696  2.3548 -0.8501  0.6174
  706MOL0     H97421   7.774   4.404   2.841  1.7437  3.7869  0.0386
  706MOL0     H97422   7.863   4.265   2.665 -0.8256 -0.6697  1.7367
  706MOL0     H97423   7.745   4.337   2.545  2.4681 -1.3054  0.7057
  706MOL0     H97424   7.528   4.024   2.710  0.9443  0.1868  2.8891
  706MOL0     H97425   7.799   4.791   2.465  0.4674  2.8894 -1.6543
  706MOL0     H97426   7.946   4.935   2.211  1.3784  1.9955  1.2427
  706MOL0     H97427   7.807   5.024   2.180 -0.8515  0.1646  2.2812
  706MOL0     H97428   7.859   4.990   2.351 -0.4555 -0.8212  0.0219
  707MOL0     O97429   1.658  11.616   4.926 -0.7165 -0.2999  0.9013
  707MOL0     C97430   1.673  11.579   4.815  0.2249  0.0588  0.5051
  707MOL0     O97431   1.572  11.567   4.729 -0.0429 -0.3704 -0.2306
  707MOL0     C97432   1.482  11.672   4.711  0.0292  0.4003  0.5984
  707MOL0     C97433   1.440  11.762   4.804  0.4240  0.5132  0.3033
  707MOL0     C97434   1.345  11.853   4.763 -0.0055  0.7161 -0.6823
  707MOL0     C97435   1.299  11.854   4.633 -0.1014 -0.3851  1.0818
  707MOL0     O97436   1.215  11.948   4.585 -0.1576 -0.4727  0.4329
  707MOL0     C97437   1.091  11.967   4.654  0.2774  0.5066  0.5449
  707MOL0     C97438   1.084  12.104   4.726  0.2358  0.9079  0.2233
  707MOL0     C97439   1.177  12.202   4.654  0.1883 -0.4117  0.2526
  707MOL0     C97440   1.139  12.226   4.508 -0.4672 -0.2853 -0.0576
  707MOL0     C97441   1.197  12.352   4.447  0.4187  0.5610 -0.0545
  707MOL0     C97442   1.135  12.377   4.312 -0.3173  0.7964 -0.3296
  707MOL0     C97443   1.233  12.408   4.194  0.0372 -1.1106  0.1750
  707MOL0     C97444   1.147  12.446   4.067 -0.7972 -1.2468 -0.2362
  707MOL0     N97445   1.042  12.355   4.018  0.1289 -0.4138 -0.8663
  707MOL0     C97446   0.912  12.355   4.068  0.4780 -0.8350  0.1036
  707MOL0     C97447   0.869  12.238   4.024  0.4967 -0.1578  0.3523
  707MOL0     C97448   0.729  12.185   4.031 -0.2194  0.3013  0.7576
  707MOL0     C97449   0.716  12.051   4.095  0.0845  0.0930 -0.1201
  707MOL0     C97450   0.715  12.043   4.251 -0.2119  0.6464 -0.6135
  707MOL0     C97451   0.736  12.171   4.324  0.5596  0.4421  0.0029
  707MOL0     O97452   0.753  12.150   4.467 -0.1137  0.3992  0.1316
  707MOL0     C97453   0.650  12.084   4.537 -0.3594 -0.1010  0.5393
  707MOL0     C97454   0.678  11.968   4.620  0.0559 -0.2703 -0.5262
  707MOL0     C97455   0.585  11.916   4.710 -0.3190  0.0326 -0.0997
  707MOL0     C97456   0.624  11.797   4.786 -0.1002  0.6477 -0.3719
  707MOL0     C97457   0.457  11.979   4.725  0.3109  0.2732 -0.6011
  707MOL0     C97458   0.355  11.928   4.828 -0.7812 -0.4012  0.1305
  707MOL0     O97459   0.308  12.026   4.914 -0.4919  0.0359  0.4423
  707MOL0     C97460   0.196  11.997   4.989 -0.8665  0.3264  0.2363
  707MOL0     C97461   0.080  12.074   4.965 -0.1379  1.0301 -0.0500
  707MOL0     C97462  -0.022  12.059   5.055  0.0307 -0.0355 -0.4767
  707MOL0     C97463  -0.017  11.983   5.175  0.4792 -0.0688 -0.1309
  707MOL0     O97464  -0.127  11.988   5.253  0.1194  0.6984  0.1497
  707MOL0     C97465  -0.102  11.939   5.390 -0.2599 -0.7044 -0.0184
  707MOL0     C97466  -0.198  11.994   5.498 -0.3405  0.0937  1.1121
  707MOL0     C97467  -0.344  11.933   5.472  0.1496 -1.2349  0.5128
  707MOL0     C97468  -0.424  12.049   5.399  0.5517  0.2114  0.4064
  707MOL0     C97469  -0.560  11.993   5.341 -0.5606 -0.0006 -0.5416
  707MOL0     C97470  -0.660  11.948   5.445 -0.0629 -0.5431 -0.1561
  707MOL0     C97471  -0.794  11.957   5.385  0.6642 -0.1517 -0.3828
  707MOL0     C97472  -0.848  12.095   5.385  1.1663 -0.9515 -0.2996
  707MOL0    Cl97473  -1.029  12.101   5.367 -0.3692 -0.0682  0.5720
  707MOL0     C97474   0.101  11.904   5.192  0.2222  0.3839 -0.0963
  707MOL0     C97475   0.209  11.909   5.099  0.3706 -0.2015  0.2369
  707MOL0     O97476   0.319  11.812   4.828 -0.5379 -0.1534  0.8191
  707MOL0     C97477   0.435  12.096   4.657 -1.3373 -0.2262  0.2087
  707MOL0     C97478   0.524  12.143   4.562 -0.3302  0.4807  0.0022
  707MOL0     N97479   0.980  12.175   3.961 -0.4814 -0.0076  0.8620
  707MOL0     N97480   1.078  12.249   3.944 -0.9711 -0.2472 -1.1671
  707MOL0     C97481   1.342  11.760   4.540 -0.1254  0.0568 -0.6785
  707MOL0     C97482   1.431  11.667   4.580 -0.1922 -0.1466 -0.1194
  707MOL0     C97483   1.800  11.522   4.786  0.5684 -0.3949  0.8549
  707MOL0     C97484   1.797  11.390   4.727 -0.1313 -0.9582 -0.1747
  707MOL0     C97485   1.917  11.322   4.707  0.7161  0.2704 -0.5553
  707MOL0     C97486   2.037  11.393   4.729 -0.5179  0.6209  0.5195
  707MOL0     O97487   2.158  11.324   4.712 -0.2254 -0.1092 -0.0194
  707MOL0     C97488   2.163  11.200   4.637 -0.5080  0.3272  0.4542
  707MOL0     C97489   2.167  11.074   4.731  0.0484  0.2648  0.9429
  707MOL0     C97490   2.167  10.946   4.649 -0.1475  0.0551 -0.0888
  707MOL0     C97491   2.035  10.919   4.583  0.1031 -0.1442  0.5848
  707MOL0     C97492   1.915  10.894   4.668  0.3890 -0.2374  0.1869
  707MOL0     C97493   1.826  10.880   4.748  0.1970 -0.5165 -0.8018
  707MOL0     C97494   2.035  11.529   4.772 -0.4387 -0.0341 -0.0134
  707MOL0     C97495   1.921  11.591   4.813 -0.0993  0.1167 -0.4901
  707MOL0     C97496   1.930  11.732   4.874  0.4749  0.8705 -0.1215
  707MOL0     H97497   1.483  11.775   4.903 -1.3744  0.6852  1.1065
  707MOL0     H97498   1.289  11.913   4.834  1.0274 -0.0437  0.8406
  707MOL0     H97499   1.056  11.883   4.716  1.4838 -1.9071 -1.8381
  707MOL0     H97500   1.016  11.966   4.574 -2.0546 -1.2507  2.5757
  707MOL0     H97501   0.980  12.135   4.736  1.1328  4.4471 -0.3017
  707MOL0     H97502   1.119  12.099   4.830  1.1631  0.2060 -0.1073
  707MOL0     H97503   1.170  12.303   4.696 -0.1042  0.2076 -1.2249
  707MOL0     H97504   1.282  12.171   4.662  0.3097  0.3755  3.1069
  707MOL0     H97505   1.180  12.144   4.448  2.5136 -1.0039  2.7077
  707MOL0     H97506   1.030  12.223   4.503 -0.4055 -3.1292 -1.2258
  707MOL0     H97507   1.302  12.327   4.427 -0.5574 -1.5957 -3.2600
  707MOL0     H97508   1.184  12.440   4.509 -1.2937 -0.3315  0.9263
  707MOL0     H97509   1.072  12.294   4.280  0.0435 -0.2955  1.6384
  707MOL0     H97510   1.078  12.470   4.324  1.2911  1.4598  4.0001
  707MOL0     H97511   1.281  12.311   4.180 -0.1290 -1.1468 -0.1792
  707MOL0     H97512   1.301  12.492   4.209 -2.0610  0.8999 -0.8367
  707MOL0     H97513   1.092  12.534   4.102 -4.2494 -3.5636  0.6896
  707MOL0     H97514   1.212  12.474   3.984 -0.1464 -0.7723  0.4215
  707MOL0     H97515   0.861  12.434   4.123  0.4927  0.1963 -1.2972
  707MOL0     H97516   0.700  12.167   3.927 -2.5041  0.3228  1.3372
  707MOL0     H97517   0.662  12.257   4.077  2.5428  2.6504  1.4033
  707MOL0     H97518   0.626  12.006   4.054  2.0552 -2.3832 -2.1176
  707MOL0     H97519   0.795  11.979   4.071  0.8804  0.2912  1.7318
  707MOL0     H97520   0.619  11.999   4.280  0.0493  1.2163  1.2805
  707MOL0     H97521   0.795  11.975   4.282 -0.5720 -0.3681 -1.8254
  707MOL0     H97522   0.824  12.224   4.288  2.4720 -0.1598  3.3577
  707MOL0     H97523   0.655  12.245   4.320  1.8591  2.0405  1.6747
  707MOL0     H97524   0.776  11.928   4.598  0.1541 -0.6535  0.5202
  707MOL0     H97525   0.701  11.737   4.737 -1.3095 -1.3719  0.1248
  707MOL0     H97526   0.542  11.727   4.800 -0.4800  1.2445  0.4967
  707MOL0     H97527   0.674  11.829   4.878 -0.7687  0.5455  0.0289
  707MOL0     H97528   0.077  12.137   4.877  4.2232  0.2220 -0.9993
  707MOL0     H97529  -0.114  12.112   5.032 -2.1466 -3.4174 -0.1349
  707MOL0     H97530  -0.099  11.829   5.388 -0.5228 -0.7182 -2.2525
  707MOL0     H97531  -0.007  11.980   5.424 -1.1574  0.3107  1.3132
  707MOL0     H97532  -0.157  11.958   5.593  1.9587  2.0764  0.9594
  707MOL0     H97533  -0.201  12.103   5.488 -3.0783  0.2273  2.4772
  707MOL0     H97534  -0.414  11.913   5.554 -1.7517 -1.0835 -0.9729
  707MOL0     H97535  -0.343  11.842   5.411 -1.5622 -0.7437 -0.3191
  707MOL0     H97536  -0.364  12.092   5.319  1.3014 -3.8816 -1.5428
  707MOL0     H97537  -0.452  12.122   5.475 -0.5327 -0.7207  0.9507
  707MOL0     H97538  -0.590  12.089   5.298 -0.4619 -0.3040 -1.3235
  707MOL0     H97539  -0.534  11.910   5.273  0.9681 -0.2428  0.2876
  707MOL0     H97540  -0.658  12.000   5.541 -1.0873  0.4741 -0.6693
  707MOL0     H97541  -0.629  11.848   5.476  1.3250  0.8778  3.6988
  707MOL0     H97542  -0.878  11.899   5.424  0.4374  1.3947  1.5886
  707MOL0     H97543  -0.787  11.916   5.284 -0.0875 -2.2049  0.3444
  707MOL0     H97544  -0.799  12.150   5.304  1.1807  0.7373  0.8105
  707MOL0     H97545  -0.819  12.136   5.482  2.0138 -0.6379 -0.6693
  707MOL0     H97546   0.107  11.833   5.274 -3.5213 -0.7560 -0.6251
  707MOL0     H97547   0.290  11.842   5.125  0.0308 -0.8101 -0.2526
  707MOL0     H97548   0.339  12.147   4.656 -1.7352 -0.9744  0.0095
  707MOL0     H97549   0.492  12.228   4.503  3.6646  0.8600 -1.9519
  707MOL0     H97550   1.298  11.763   4.441  1.4878  1.4002 -1.4092
  707MOL0     H97551   1.474  11.602   4.504  0.8100  0.4155 -0.0501
  707MOL0     H97552   1.702  11.340   4.707 -0.9087  0.8397 -1.1850
  707MOL0     H97553   1.903  11.217   4.682 -1.9805 -0.3533  2.7371
  707MOL0     H97554   2.088  11.193   4.558  1.7709 -2.4710 -1.6749
  707MOL0     H97555   2.260  11.206   4.586 -0.6704  0.0675  0.1084
  707MOL0     H97556   2.086  11.076   4.805  1.2048 -0.5624  2.2871
  707MOL0     H97557   2.257  11.080   4.792  1.1553 -2.0177 -0.3464
  707MOL0     H97558   2.242  10.943   4.569  1.2873 -2.3309  1.2243
  707MOL0     H97559   2.187  10.868   4.722  0.4718 -0.8768 -1.2225
  707MOL0     H97560   2.042  10.828   4.521 -1.7301  0.7935 -1.1417
  707MOL0     H97561   1.998  11.000   4.519  0.9089  1.3947  2.0079
  707MOL0     H97562   1.748  10.862   4.819 -2.2489  1.6018 -2.7435
  707MOL0     H97563   2.133  11.574   4.785  0.4520 -2.0945  0.8978
  707MOL0     H97564   2.030  11.772   4.893 -0.2537  2.7991 -0.0827
  707MOL0     H97565   1.880  11.811   4.817  1.3442  3.5920  2.6315
  707MOL0     H97566   1.905  11.732   4.981  1.4916  2.0473  0.1419
  708MOL0     O97567   1.844  11.247   9.360 -0.3664 -0.1297  0.8091
  708MOL0     C97568   1.726  11.270   9.366  0.3565 -1.3752  0.0027
  708MOL0     O97569   1.669  11.385   9.321  0.2402  0.6856  0.2635
  708MOL0     C97570   1.747  11.488   9.278 -0.8111 -0.1958 -0.5102
  708MOL0     C97571   1.783  11.593   9.369  0.2045 -0.5572  1.0222
  708MOL0     C97572   1.864  11.698   9.338 -0.5417  0.0503  0.0376
  708MOL0     C97573   1.908  11.703   9.206 -0.0625 -0.0396  0.5645
  708MOL0     O97574   2.009  11.791   9.183 -0.4108 -0.6442  0.6380
  708MOL0     C97575   2.070  11.789   9.050 -0.0397  0.4968  0.3111
  708MOL0     C97576   2.171  11.900   9.031 -1.0352 -0.2083  0.5901
  708MOL0     C97577   2.120  12.039   9.062  0.3211 -0.6824  0.7164
  708MOL0     C97578   2.060  12.132   8.949 -0.7738 -0.2992 -0.0597
  708MOL0     C97579   2.082  12.282   8.989  0.5659 -0.2478 -0.4004
  708MOL0     C97580   2.025  12.387   8.899 -0.2643 -0.3412 -0.9283
  708MOL0     C97581   2.005  12.517   8.973 -0.0885 -0.9499 -1.2731
  708MOL0     C97582   1.973  12.632   8.873  0.4509  0.4453  0.7221
  708MOL0     N97583   1.853  12.616   8.793  0.1255 -0.1443 -0.4533
  708MOL0     C97584   1.724  12.582   8.823  0.3604  0.1321  0.3053
  708MOL0     C97585   1.643  12.621   8.717  0.3484 -0.4064  0.4727
  708MOL0     C97586   1.491  12.617   8.712 -0.5549 -0.3954 -0.2893
  708MOL0     C97587   1.448  12.522   8.600  1.2661  1.4402 -0.6350
  708MOL0     C97588   1.296  12.520   8.559  0.4087 -0.3145 -0.7200
  708MOL0     C97589   1.275  12.426   8.435 -0.9660 -1.1170  0.1825
  708MOL0     O97590   1.292  12.287   8.469 -0.6190 -0.2222  0.0438
  708MOL0     C97591   1.200  12.233   8.556  0.2543 -0.3630 -0.5690
  708MOL0     C97592   1.231  12.206   8.688  0.7408  0.0844 -0.5681
  708MOL0     C97593   1.134  12.159   8.790 -1.2060  0.6259 -0.1760
  708MOL0     C97594   1.172  12.143   8.931 -0.4182 -0.5871 -0.8250
  708MOL0     C97595   1.002  12.146   8.750  1.3496  0.0400 -0.1999
  708MOL0     C97596   0.888  12.110   8.847 -1.0865  0.9129 -0.7636
  708MOL0     O97597   0.905  12.039   8.967  0.8191 -0.6187 -0.0477
  708MOL0     C97598   0.799  11.996   9.034  0.7162 -0.1209 -0.2459
  708MOL0     C97599   0.734  11.878   8.984 -0.1183  0.0637 -0.5210
  708MOL0     C97600   0.622  11.837   9.056 -0.1317  0.0166  0.1669
  708MOL0     C97601   0.572  11.903   9.165  0.8120 -0.2064 -0.2369
  708MOL0     O97602   0.468  11.841   9.230 -0.3667 -0.4338  0.1413
  708MOL0     C97603   0.411  11.895   9.350  0.0139  0.7311  0.3277
  708MOL0     C97604   0.289  11.998   9.331 -0.7946  0.0055  0.3306
  708MOL0     C97605   0.258  12.058   9.474 -0.0237 -0.0619 -0.5768
  708MOL0     C97606   0.115  12.113   9.470  0.1627 -0.4299  0.5375
  708MOL0     C97607   0.074  12.211   9.362 -0.1957 -0.1682  0.0734
  708MOL0     C97608   0.162  12.333   9.351  0.4913 -0.0354 -0.4407
  708MOL0     C97609   0.106  12.436   9.247  0.1464 -1.2358 -0.3329
  708MOL0     C97610  -0.031  12.508   9.267 -0.4766 -0.4295  0.1043
  708MOL0    Cl97611  -0.150  12.400   9.182 -0.4326 -0.4350 -0.2422
  708MOL0     C97612   0.633  12.019   9.208  0.1074 -0.3434 -0.7888
  708MOL0     C97613   0.747  12.069   9.143 -0.6700  0.8478 -1.0343
  708MOL0     O97614   0.777  12.129   8.798 -0.5129  0.2024  0.7161
  708MOL0     C97615   0.967  12.181   8.614  0.2663  0.6366 -0.2216
  708MOL0     C97616   1.066  12.217   8.518  0.5380 -0.5481 -0.3854
  708MOL0     N97617   1.729  12.651   8.613  0.2131  0.0949  0.4305
  708MOL0     N97618   1.852  12.655   8.658  0.0981 -0.1627  0.4848
  708MOL0     C97619   1.862  11.614   9.111 -0.9564  0.4482  0.2888
  708MOL0     C97620   1.780  11.505   9.147  0.6549 -0.4762 -0.4392
  708MOL0     C97621   1.637  11.160   9.411  0.3895  0.3372 -0.1870
  708MOL0     C97622   1.499  11.177   9.423 -0.4215 -0.0626  0.2690
  708MOL0     C97623   1.412  11.071   9.449 -0.2255  0.9009  0.1977
  708MOL0     C97624   1.455  10.934   9.461 -0.2066 -0.4403 -0.4758
  708MOL0     O97625   1.348  10.847   9.471 -0.2850 -0.1543  0.0227
  708MOL0     C97626   1.332  10.750   9.364 -0.5485 -1.5718  0.1431
  708MOL0     C97627   1.259  10.815   9.246  0.2972 -0.4906  0.6772
  708MOL0     C97628   1.241  10.722   9.129 -0.1942  0.1612  0.1151
  708MOL0     C97629   1.200  10.794   8.996 -0.6572  0.1968  0.5857
  708MOL0     C97630   1.067  10.847   9.009 -0.2790  0.4947  0.0487
  708MOL0     C97631   0.967  10.912   9.011  0.4109  0.5703  0.1045
  708MOL0     C97632   1.592  10.909   9.462 -0.0208  0.3289 -0.5873
  708MOL0     C97633   1.682  11.016   9.430  0.0521  0.1764 -0.2216
  708MOL0     C97634   1.827  10.979   9.405 -0.3962  0.2061  0.1600
  708MOL0     H97635   1.722  11.594   9.458 -1.0971 -0.0400  0.1573
  708MOL0     H97636   1.883  11.780   9.406 -1.5619  0.1834  0.1876
  708MOL0     H97637   1.987  11.813   8.983  1.4651  2.8778 -0.8649
  708MOL0     H97638   2.116  11.691   9.037  3.3963  1.7636  1.5058
  708MOL0     H97639   2.259  11.866   9.087 -1.4212 -4.3984 -0.9180
  708MOL0     H97640   2.212  11.881   8.931  3.5318 -1.2154  2.3943
  708MOL0     H97641   2.033  12.045   9.128 -1.2153 -0.7025 -1.2007
  708MOL0     H97642   2.207  12.094   9.099 -0.1178  0.2116  0.4591
  708MOL0     H97643   2.121  12.117   8.860  0.5069 -0.3058  0.8069
  708MOL0     H97644   1.954  12.110   8.932 -0.4234 -4.1417  1.7267
  708MOL0     H97645   2.187  12.297   9.015 -0.1429  0.0036  2.7850
  708MOL0     H97646   2.023  12.292   9.082 -1.2358 -1.5174 -1.3518
  708MOL0     H97647   2.088  12.423   8.818 -0.0559  2.0422  0.2091
  708MOL0     H97648   1.932  12.348   8.855 -1.3256  0.6115  0.3692
  708MOL0     H97649   2.093  12.543   9.033 -1.2070  0.4566 -0.1507
  708MOL0     H97650   1.927  12.511   9.049  1.7558  2.5080  1.1929
  708MOL0     H97651   1.955  12.719   8.937  0.9486  1.1028 -0.0185
  708MOL0     H97652   2.064  12.660   8.819  0.3290 -0.5872 -0.0386
  708MOL0     H97653   1.686  12.557   8.922  2.7681  1.3172  1.6057
  708MOL0     H97654   1.457  12.719   8.691  0.0404 -0.3452 -1.0725
  708MOL0     H97655   1.456  12.581   8.809  1.8971 -0.5364  0.6194
  708MOL0     H97656   1.499  12.553   8.508  0.2881  0.8656 -1.3869
  708MOL0     H97657   1.470  12.420   8.632 -2.8815  0.2683 -1.0124
  708MOL0     H97658   1.227  12.483   8.635  2.4202 -0.5923  1.0645
  708MOL0     H97659   1.265  12.622   8.531 -0.8506 -0.4578  0.0514
  708MOL0     H97660   1.171  12.438   8.402 -1.1026 -0.1543  0.9318
  708MOL0     H97661   1.333  12.445   8.345  2.4498 -1.4628  2.1484
  708MOL0     H97662   1.320  12.239   8.740 -0.3090  1.9063  0.1754
  708MOL0     H97663   1.181  12.038   8.961 -5.5079 -1.5136 -1.7017
  708MOL0     H97664   1.104  12.198   8.996  2.1421 -0.2967  1.8165
  708MOL0     H97665   1.266  12.198   8.941 -1.3873  0.9391  0.3525
  708MOL0     H97666   0.760  11.817   8.897 -3.2842 -2.4024  0.0688
  708MOL0     H97667   0.574  11.744   9.030 -0.3100  0.2305 -0.2835
  708MOL0     H97668   0.383  11.813   9.416  1.2350 -0.7532 -0.9200
  708MOL0     H97669   0.485  11.945   9.413  1.1573  3.7357 -3.0294
  708MOL0     H97670   0.324  12.080   9.269  4.0218 -1.6815  0.3482
  708MOL0     H97671   0.208  11.938   9.288  0.4088 -1.6006  0.2078
  708MOL0     H97672   0.318  12.145   9.501 -1.9223  1.1882 -0.1885
  708MOL0     H97673   0.266  11.984   9.554 -1.0816  0.9434  0.5147
  708MOL0     H97674   0.086  12.155   9.567  1.8727  1.2439  0.3964
  708MOL0     H97675   0.058  12.020   9.472  0.8723 -0.8751  2.4446
  708MOL0     H97676   0.071  12.153   9.269 -1.0657 -3.5503  2.0262
  708MOL0     H97677  -0.027  12.251   9.370  0.8662  3.2449 -1.4918
  708MOL0     H97678   0.263  12.304   9.319  0.5061 -0.5755  0.0795
  708MOL0     H97679   0.162  12.374   9.453 -1.1217 -2.4194  0.6123
  708MOL0     H97680   0.104  12.379   9.154 -0.7989 -1.4766 -0.1769
  708MOL0     H97681   0.181  12.515   9.242 -0.9937 -0.1412 -0.5850
  708MOL0     H97682  -0.030  12.612   9.234  0.3047 -1.1000 -2.2011
  708MOL0     H97683  -0.054  12.528   9.372  0.6151 -0.0383  0.2792
  708MOL0     H97684   0.595  12.086   9.285  0.4163 -0.2377 -0.7282
  708MOL0     H97685   0.798  12.160   9.174  0.7316  0.9640 -3.4192
  708MOL0     H97686   0.867  12.182   8.572  0.1525  3.0250 -0.0105
  708MOL0     H97687   1.042  12.239   8.415 -1.5959  1.3439  0.4216
  708MOL0     H97688   1.893  11.612   9.007  1.5699  3.2614  0.8335
  708MOL0     H97689   1.762  11.422   9.080 -1.9896 -1.2275  1.0291
  708MOL0     H97690   1.450  11.272   9.406 -2.4604 -1.6992 -5.2248
  708MOL0     H97691   1.306  11.095   9.455 -0.0080  2.0533 -0.3882
  708MOL0     H97692   1.426  10.707   9.329  1.2440  1.3544  1.1189
  708MOL0     H97693   1.278  10.662   9.401  1.2917 -3.0188 -0.4284
  708MOL0     H97694   1.326  10.893   9.209 -0.5898  0.9378  1.9585
  708MOL0     H97695   1.165  10.857   9.285  0.8183  2.5007 -0.9515
  708MOL0     H97696   1.336  10.668   9.125  0.4405  1.3099 -0.6068
  708MOL0     H97697   1.167  10.644   9.150 -0.8582  0.3455 -1.4351
  708MOL0     H97698   1.204  10.711   8.925  0.8648  1.3808 -0.7776
  708MOL0     H97699   1.272  10.867   8.960 -1.5549  0.0765 -1.5761
  708MOL0     H97700   0.879  10.969   8.989  1.1612  1.7692  0.1511
  708MOL0     H97701   1.621  10.806   9.483  2.7032  0.2690 -3.8365
  708MOL0     H97702   1.861  10.882   9.443 -1.8643 -1.6908 -2.9366
  708MOL0     H97703   1.862  10.989   9.302 -0.9221 -2.0759 -0.2916
  708MOL0     H97704   1.884  11.047   9.469 -1.3052 -0.5342  1.8289
  709MOL0     O97705   2.114  10.560   6.071 -0.3820 -0.0667  0.4802
  709MOL0     C97706   2.106  10.680   6.102  0.8339  0.2333  0.1414
  709MOL0     O97707   2.055  10.736   6.212  0.1476  0.0162 -0.6326
  709MOL0     C97708   1.977  10.678   6.304  0.2320  0.8083  0.8009
  709MOL0     C97709   1.860  10.592   6.280  0.4180 -0.7652  0.1142
  709MOL0     C97710   1.777  10.544   6.376  0.4008  0.4185 -1.6267
  709MOL0     C97711   1.802  10.581   6.507 -0.7173  0.7824 -0.4893
  709MOL0     O97712   1.734  10.536   6.614  0.0065 -0.0116 -0.2860
  709MOL0     C97713   1.621  10.455   6.599  0.0146  0.3168 -0.1981
  709MOL0     C97714   1.579  10.419   6.739  0.3728 -0.9343  0.3613
  709MOL0     C97715   1.661  10.312   6.806 -0.0309 -0.3996  0.1390
  709MOL0     C97716   1.612  10.282   6.951 -0.2710  0.6587  0.4533
  709MOL0     C97717   1.636  10.409   7.042  0.1862 -0.0039 -0.3531
  709MOL0     C97718   1.572  10.393   7.179  0.1867 -0.3315  0.0331
  709MOL0     C97719   1.640  10.478   7.283  0.5720 -0.0351 -0.1876
  709MOL0     C97720   1.619  10.412   7.419  1.2269  0.0932  0.8851
  709MOL0     N97721   1.474  10.421   7.454  0.2297  0.6666 -0.5332
  709MOL0     C97722   1.399  10.528   7.476 -1.6120 -0.1350 -0.2732
  709MOL0     C97723   1.271  10.484   7.461  0.2543  0.4680 -0.0897
  709MOL0     C97724   1.150  10.578   7.451  0.1635  0.4817 -0.4859
  709MOL0     C97725   1.181  10.708   7.372 -0.6618  0.8527  0.0385
  709MOL0     C97726   1.092  10.818   7.429  1.1285  0.6894 -0.7471
  709MOL0     C97727   1.100  10.948   7.358  0.0231 -0.4335 -0.8169
  709MOL0     O97728   1.041  11.058   7.432  0.2579 -0.1302  0.8270
  709MOL0     C97729   1.109  11.116   7.527 -0.1106 -0.2092 -0.7838
  709MOL0     C97730   1.048  11.210   7.617 -0.4920  0.3603  0.9631
  709MOL0     C97731   1.115  11.286   7.715 -0.2977  0.0055 -0.9423
  709MOL0     C97732   1.033  11.391   7.792 -0.1086 -0.0489  0.2930
  709MOL0     C97733   1.251  11.237   7.744  0.0715 -0.3727  1.2197
  709MOL0     C97734   1.325  11.293   7.859  0.1423  0.0316  0.2072
  709MOL0     O97735   1.265  11.298   7.977 -0.2333  0.2074  0.4656
  709MOL0     C97736   1.329  11.334   8.094 -1.2076  0.2295 -0.0308
  709MOL0     C97737   1.268  11.295   8.211 -0.4297 -0.9085 -0.0602
  709MOL0     C97738   1.324  11.315   8.339 -0.7199 -0.5852  0.4554
  709MOL0     C97739   1.440  11.391   8.352  0.0030 -0.7354 -0.2312
  709MOL0     O97740   1.478  11.398   8.484  0.0303 -0.1937  0.1113
  709MOL0     C97741   1.492  11.533   8.532  0.2157  0.6270 -0.1343
  709MOL0     C97742   1.514  11.540   8.687  1.0396  0.1722  1.0561
  709MOL0     C97743   1.394  11.501   8.771  0.3131  0.2976 -0.6299
  709MOL0     C97744   1.440  11.450   8.908 -0.3934  0.1986 -0.1088
  709MOL0     C97745   1.458  11.300   8.894 -0.0496  0.6001 -0.0572
  709MOL0     C97746   1.479  11.242   9.031 -1.0224  0.4581 -1.6745
  709MOL0     C97747   1.466  11.091   9.033 -0.3629 -0.0226 -0.0281
  709MOL0     C97748   1.585  11.010   8.971  0.8950  0.9327  0.5139
  709MOL0    Cl97749   1.724  11.020   9.076  0.2008 -0.2746  0.1485
  709MOL0     C97750   1.499  11.448   8.235  0.7099  1.1081 -0.9798
  709MOL0     C97751   1.446  11.412   8.109  0.1202  0.2236 -0.3138
  709MOL0     O97752   1.442  11.324   7.836 -0.8206  0.6277 -0.8727
  709MOL0     C97753   1.309  11.137   7.661  0.1365  1.1085  0.1989
  709MOL0     C97754   1.242  11.080   7.559  0.2396 -0.5321  0.5673
  709MOL0     N97755   1.271  10.347   7.466  0.0192  0.2523 -0.4196
  709MOL0     N97756   1.396  10.313   7.436 -0.3582  0.7590 -0.8212
  709MOL0     C97757   1.908  10.660   6.536  0.5367 -0.1422 -0.5949
  709MOL0     C97758   1.990  10.707   6.436  0.8747  0.1136  0.2243
  709MOL0     C97759   2.144  10.771   5.998  1.4490 -0.4091  1.1953
  709MOL0     C97760   2.251  10.731   5.919  0.4924 -0.2382  1.1664
  709MOL0     C97761   2.312  10.819   5.835  0.0375 -0.7760  0.7100
  709MOL0     C97762   2.262  10.956   5.820  0.1347  0.5471 -0.5140
  709MOL0     O97763   2.311  11.042   5.724 -0.0130 -0.3078  0.2581
  709MOL0     C97764   2.368  10.973   5.609  0.7359  0.7938  0.0077
  709MOL0     C97765   2.394  11.057   5.488  0.0066  0.3325 -0.9205
  709MOL0     C97766   2.470  11.188   5.519  0.2438  0.1452  0.0036
  709MOL0     C97767   2.505  11.258   5.384  0.2932  0.1655 -0.8243
  709MOL0     C97768   2.562  11.392   5.415 -0.2087 -0.0256 -0.0149
  709MOL0     C97769   2.595  11.501   5.443  0.2769 -0.9441  0.1843
  709MOL0     C97770   2.148  10.989   5.894 -0.2328  0.3506 -0.4927
  709MOL0     C97771   2.084  10.901   5.981 -0.1684  0.5163  0.2690
  709MOL0     C97772   1.962  10.943   6.058  0.3472 -1.0793  0.4312
  709MOL0     H97773   1.841  10.564   6.176 -2.9023 -1.8822  0.8923
  709MOL0     H97774   1.686  10.487   6.356  0.5761 -2.8614  4.3906
  709MOL0     H97775   1.647  10.357   6.560 -0.1298  0.8825 -1.7792
  709MOL0     H97776   1.539  10.497   6.540 -1.5567 -2.4041 -0.0909
  709MOL0     H97777   1.595  10.515   6.789  0.3952 -0.8448  0.1866
  709MOL0     H97778   1.474  10.390   6.732  0.1796 -0.0036 -1.0733
  709MOL0     H97779   1.670  10.216   6.753  0.5416  0.1637 -0.7968
  709MOL0     H97780   1.762  10.352   6.818 -1.2992  2.7983  1.3053
  709MOL0     H97781   1.505  10.282   6.931 -0.6614 -0.0252  2.3556
  709MOL0     H97782   1.645  10.186   6.994 -1.9931  0.9934  2.7267
  709MOL0     H97783   1.582  10.499   7.011 -1.2111  0.4641  2.9826
  709MOL0     H97784   1.742  10.435   7.053 -0.2957  1.6577  0.8110
  709MOL0     H97785   1.471  10.436   7.178  0.4208  0.2210  0.1075
  709MOL0     H97786   1.564  10.291   7.217  2.8239 -1.3945 -1.9876
  709MOL0     H97787   1.615  10.584   7.277  0.1983 -0.1977 -3.7207
  709MOL0     H97788   1.748  10.475   7.268  1.2045  0.9532  3.2215
  709MOL0     H97789   1.658  10.310   7.408  0.6170  0.0586 -1.7346
  709MOL0     H97790   1.678  10.460   7.497 -0.3213 -0.2071  2.2995
  709MOL0     H97791   1.436  10.630   7.484  0.8023 -0.7884 -2.1385
  709MOL0     H97792   1.106  10.611   7.546  3.7442  1.7734  0.8947
  709MOL0     H97793   1.079  10.519   7.393  2.2129 -1.6881 -0.9558
  709MOL0     H97794   1.289  10.722   7.369  0.1631 -2.8093  3.5627
  709MOL0     H97795   1.148  10.680   7.271  2.2803  0.6345 -0.9599
  709MOL0     H97796   0.987  10.789   7.420  1.3103 -0.5726  0.8370
  709MOL0     H97797   1.123  10.834   7.532  1.1963 -2.0663 -0.2669
  709MOL0     H97798   1.196  10.972   7.311 -0.7122 -1.0633 -2.7183
  709MOL0     H97799   1.034  10.940   7.272 -1.5985 -0.4097  0.3730
  709MOL0     H97800   0.943  11.235   7.608 -0.5047 -0.3357 -1.2805
  709MOL0     H97801   0.996  11.466   7.721  4.2971  2.8392  0.5985
  709MOL0     H97802   1.095  11.449   7.862  2.8780 -0.1361 -2.0727
  709MOL0     H97803   0.953  11.341   7.847  0.8934 -1.4570  0.5076
  709MOL0     H97804   1.174  11.240   8.207 -0.6691 -0.4600 -0.7226
  709MOL0     H97805   1.272  11.284   8.429  1.4563  1.5831  2.5945
  709MOL0     H97806   1.562  11.601   8.482 -0.5253  2.7625  1.5863
  709MOL0     H97807   1.395  11.582   8.520  0.1500  0.5214 -0.0393
  709MOL0     H97808   1.595  11.469   8.706  0.8602 -1.1324 -2.3796
  709MOL0     H97809   1.546  11.642   8.709 -1.0881  0.9844  0.6483
  709MOL0     H97810   1.326  11.429   8.725  2.5071 -1.5841 -1.1696
  709MOL0     H97811   1.337  11.594   8.780 -0.6991 -0.4674  1.7086
  709MOL0     H97812   1.362  11.471   8.981 -0.5549  0.0035 -0.2240
  709MOL0     H97813   1.530  11.502   8.941 -1.4597  1.4501  0.9361
  709MOL0     H97814   1.364  11.265   8.851 -0.7591  2.4575 -0.1091
  709MOL0     H97815   1.538  11.266   8.828  0.4764  1.9211 -0.1375
  709MOL0     H97816   1.408  11.272   9.109 -0.2606 -0.8797 -0.3937
  709MOL0     H97817   1.570  11.276   9.081 -1.7315  3.0419 -2.0404
  709MOL0     H97818   1.372  11.046   8.997 -1.0200 -0.7808  2.4018
  709MOL0     H97819   1.463  11.059   9.138 -2.3778 -0.5311 -0.1947
  709MOL0     H97820   1.599  11.041   8.867 -1.7060 -3.7539 -1.5375
  709MOL0     H97821   1.566  10.903   8.970 -0.6190  1.1269  2.2626
  709MOL0     H97822   1.589  11.507   8.248 -2.1262  5.4130  1.7601
  709MOL0     H97823   1.507  11.449   8.027  0.0836  1.6757  0.2849
  709MOL0     H97824   1.406  11.097   7.690  1.8463  4.6080 -0.2060
  709MOL0     H97825   1.286  10.994   7.509 -1.2868 -1.1085  0.1323
  709MOL0     H97826   1.941  10.689   6.635 -0.5731 -1.9661  0.3746
  709MOL0     H97827   2.061  10.778   6.476 -2.2387  1.6883  3.4526
  709MOL0     H97828   2.298  10.634   5.928  0.3676 -0.2728  1.4652
  709MOL0     H97829   2.392  10.771   5.780 -0.6075 -4.2121  2.4903
  709MOL0     H97830   2.462  10.928   5.643 -1.2347 -3.7615  0.1847
  709MOL0     H97831   2.298  10.890   5.594  2.8751 -1.5383  1.8966
  709MOL0     H97832   2.298  11.079   5.443 -0.0067 -2.0837 -2.2220
  709MOL0     H97833   2.448  10.996   5.416 -4.1202 -2.4345 -1.9724
  709MOL0     H97834   2.419  11.253   5.591  0.6575  0.5538 -0.0637
  709MOL0     H97835   2.565  11.164   5.567  1.3230  1.0316 -1.5708
  709MOL0     H97836   2.424  11.260   5.310 -1.6089  1.1149  1.1855
  709MOL0     H97837   2.593  11.208   5.340  0.4525  1.8561 -2.5773
  709MOL0     H97838   2.622  11.604   5.456  1.6461 -1.3821  1.0058
  709MOL0     H97839   2.120  11.093   5.900  2.7790  1.1833  1.6109
  709MOL0     H97840   1.990  10.981   6.157  0.6124 -1.5094  0.5231
  709MOL0     H97841   1.918  11.026   6.002 -0.6018 -1.1589  1.0455
  709MOL0     H97842   1.883  10.867   6.064  0.3544 -1.1360 -0.1667
  710MOL0     O97843   3.347   6.673   1.745 -0.1351  0.1965  0.4572
  710MOL0     C97844   3.290   6.665   1.640 -0.1425  0.0088  0.9412
  710MOL0     O97845   3.194   6.759   1.591 -0.0792 -0.7358 -0.1455
  710MOL0     C97846   3.171   6.874   1.661  0.3610 -0.3119  0.5261
  710MOL0     C97847   3.191   7.000   1.603  1.3590 -0.0721  0.3140
  710MOL0     C97848   3.141   7.117   1.663  0.0026  0.3643 -1.0393
  710MOL0     C97849   3.069   7.097   1.779 -0.8568  0.0843  0.0471
  710MOL0     O97850   3.024   7.203   1.848 -0.3262 -0.3050  0.0295
  710MOL0     C97851   3.071   7.337   1.822  0.2176  1.1461 -0.3061
  710MOL0     C97852   3.008   7.451   1.895  0.3015  0.3931  0.4167
  710MOL0     C97853   3.041   7.582   1.826  0.2763  0.8223 -0.9155
  710MOL0     C97854   2.993   7.701   1.908 -0.6453  0.2154  0.5506
  710MOL0     C97855   2.842   7.707   1.918 -0.5946 -0.3638 -0.4432
  710MOL0     C97856   2.799   7.843   1.970 -0.4085 -0.1910  0.2104
  710MOL0     C97857   2.803   7.865   2.121 -0.1812  0.1351 -0.0274
  710MOL0     C97858   2.694   7.790   2.200  0.0840 -0.3249  0.1093
  710MOL0     N97859   2.556   7.848   2.175  0.1878 -0.0046 -0.1920
  710MOL0     C97860   2.449   7.770   2.135  0.0177 -0.6317 -0.6593
  710MOL0     C97861   2.360   7.859   2.074  0.6707 -0.3077 -0.2564
  710MOL0     C97862   2.230   7.820   2.016  0.1285 -0.5016 -0.4708
  710MOL0     C97863   2.155   7.767   2.126 -0.4799 -0.2904 -1.2317
  710MOL0     C97864   2.116   7.862   2.239  0.4700 -0.6445 -0.0735
  710MOL0     C97865   2.031   7.803   2.340  0.5615  0.3744 -0.1992
  710MOL0     O97866   2.063   7.865   2.467  0.1607 -0.5486  0.9422
  710MOL0     C97867   1.975   7.837   2.560  0.2892 -0.1505  0.3829
  710MOL0     C97868   1.837   7.862   2.546 -0.7396  0.1333  0.2358
  710MOL0     C97869   1.748   7.833   2.652 -0.7913 -0.4990 -0.6936
  710MOL0     C97870   1.609   7.884   2.632  0.7476  0.1822  0.0290
  710MOL0     C97871   1.805   7.778   2.780 -0.3339  0.6847 -0.0130
  710MOL0     C97872   1.724   7.762   2.906  0.4241 -0.1868  1.0445
  710MOL0     O97873   1.786   7.704   3.014 -0.7450  0.6736 -0.1977
  710MOL0     C97874   1.743   7.703   3.150  0.6198 -0.5087 -0.3577
  710MOL0     C97875   1.728   7.580   3.218  1.0530 -0.0261  0.8916
  710MOL0     C97876   1.686   7.584   3.344  1.0992 -0.4438 -0.4545
  710MOL0     C97877   1.671   7.700   3.425 -0.3892 -0.3239  0.3428
  710MOL0     O97878   1.626   7.703   3.550 -0.1265  0.2118  0.1845
  710MOL0     C97879   1.483   7.685   3.561 -0.7245  0.0298  0.5651
  710MOL0     C97880   1.410   7.811   3.519  0.4459 -0.1921 -0.5112
  710MOL0     C97881   1.268   7.833   3.582  0.2567  0.0025 -0.1739
  710MOL0     C97882   1.180   7.701   3.571  0.7715  0.5355  0.1172
  710MOL0     C97883   1.108   7.670   3.701  0.3729  0.3869 -1.6911
  710MOL0     C97884   1.021   7.543   3.690 -0.4485 -0.1880  0.8579
  710MOL0     C97885   0.948   7.512   3.821 -0.3379 -0.2627  0.7543
  710MOL0     C97886   0.839   7.400   3.814  0.1363  0.0150  0.0605
  710MOL0    Cl97887   0.885   7.260   3.722 -0.2014 -0.2119  0.5217
  710MOL0     C97888   1.681   7.821   3.352  0.7297  0.7640 -0.6673
  710MOL0     C97889   1.718   7.820   3.223  1.1197 -0.4201  0.0979
  710MOL0     O97890   1.611   7.791   2.905  0.0516 -0.5632  0.0786
  710MOL0     C97891   1.947   7.766   2.786 -0.6800  0.6984  1.0167
  710MOL0     C97892   2.025   7.792   2.681  0.3986  0.8846  0.4239
  710MOL0     N97893   2.414   7.990   2.093  0.5970  0.0710  0.0773
  710MOL0     N97894   2.530   7.981   2.157 -0.5282 -0.1892 -0.0481
  710MOL0     C97895   3.057   6.983   1.843  0.0434  0.4069  0.3096
  710MOL0     C97896   3.107   6.871   1.786 -0.5208  0.6993  1.1483
  710MOL0     C97897   3.318   6.552   1.560 -0.3443  0.3603  1.2793
  710MOL0     C97898   3.229   6.516   1.448 -0.6081 -0.1786  1.0360
  710MOL0     C97899   3.256   6.416   1.346 -1.1947  0.2264 -0.0443
  710MOL0     C97900   3.364   6.331   1.365  0.6161  0.0891  0.6560
  710MOL0     O97901   3.383   6.221   1.278  1.1085 -0.0987 -0.3665
  710MOL0     C97902   3.521   6.177   1.258 -0.8438 -0.2459 -0.2892
  710MOL0     C97903   3.530   6.055   1.168  0.2776 -0.2540  0.3251
  710MOL0     C97904   3.675   6.019   1.142  0.6118 -0.3528  0.2385
  710MOL0     C97905   3.694   5.893   1.057  0.0775 -0.1220  0.2177
  710MOL0     C97906   3.841   5.869   1.040  0.5178 -0.1571 -0.0931
  710MOL0     C97907   3.955   5.857   1.020 -0.3725 -0.5742 -0.3045
  710MOL0     C97908   3.432   6.347   1.488 -0.4130 -0.4384 -0.2696
  710MOL0     C97909   3.429   6.460   1.568  0.0232 -0.8361 -0.3244
  710MOL0     C97910   3.540   6.477   1.667  0.3963 -0.4086  0.0078
  710MOL0     H97911   3.243   7.015   1.509 -0.7621 -1.4608 -1.1765
  710MOL0     H97912   3.148   7.214   1.616 -0.9564  0.1067 -1.7426
  710MOL0     H97913   3.078   7.357   1.715  1.4144 -1.8608 -0.9003
  710MOL0     H97914   3.167   7.324   1.874  0.0686 -1.5203 -0.5754
  710MOL0     H97915   2.899   7.448   1.883  0.2377  0.3133  1.0181
  710MOL0     H97916   3.041   7.460   1.999  3.0259 -0.2669 -0.3049
  710MOL0     H97917   3.150   7.594   1.824  0.2802  1.6129  1.0733
  710MOL0     H97918   3.001   7.583   1.724  1.5278 -2.4324 -1.5403
  710MOL0     H97919   3.041   7.698   2.006  0.8893 -1.1427 -0.1947
  710MOL0     H97920   3.040   7.790   1.864 -2.1289  0.4027 -0.7427
  710MOL0     H97921   2.798   7.625   1.974 -4.5479  2.4692  1.0657
  710MOL0     H97922   2.798   7.684   1.820  0.1036 -3.9291 -0.0498
  710MOL0     H97923   2.853   7.925   1.921 -3.2919  0.2303 -2.6423
  710MOL0     H97924   2.694   7.859   1.943  0.0542  0.8528 -1.0880
  710MOL0     H97925   2.788   7.967   2.156 -1.4135 -0.0951  0.1669
  710MOL0     H97926   2.908   7.835   2.136 -0.3262 -2.7781 -3.3622
  710MOL0     H97927   2.695   7.683   2.180 -2.2748 -0.8082  2.1282
  710MOL0     H97928   2.705   7.800   2.309  3.6525 -1.2339 -0.0397
  710MOL0     H97929   2.429   7.667   2.161 -2.7542  0.2342  1.1138
  710MOL0     H97930   2.249   7.736   1.948 -0.4459  0.3868 -1.7666
  710MOL0     H97931   2.177   7.905   1.973  0.0225  1.7693  3.6635
  710MOL0     H97932   2.055   7.736   2.092 -0.9026 -2.7550  1.7657
  710MOL0     H97933   2.206   7.677   2.162  0.2796  0.1815 -1.1058
  710MOL0     H97934   2.204   7.891   2.297 -0.9215  0.9175  1.3728
  710MOL0     H97935   2.067   7.955   2.208  3.6845  0.8300 -1.1134
  710MOL0     H97936   1.925   7.810   2.315  0.4576 -0.8322 -0.1617
  710MOL0     H97937   2.058   7.697   2.350 -1.1332 -0.2725 -1.9014
  710MOL0     H97938   1.794   7.908   2.457 -1.2064 -0.3818  0.1913
  710MOL0     H97939   1.590   7.889   2.525  1.7725  1.1656 -0.1302
  710MOL0     H97940   1.590   7.988   2.660 -2.1252  1.1128 -4.3811
  710MOL0     H97941   1.528   7.825   2.675  0.7283  1.3095  1.6509
  710MOL0     H97942   1.746   7.493   3.155  0.0301  3.0235 -4.1782
  710MOL0     H97943   1.668   7.481   3.376 -0.4085  0.1350  0.6878
  710MOL0     H97944   1.452   7.609   3.489  0.6842  0.7188 -0.8329
  710MOL0     H97945   1.457   7.659   3.664 -0.9075  0.8257  0.7262
  710MOL0     H97946   1.467   7.899   3.548 -1.5499 -0.0874  3.9127
  710MOL0     H97947   1.393   7.814   3.411  1.2065 -1.0517 -0.6681
  710MOL0     H97948   1.214   7.921   3.546  1.1883  0.2462 -1.0083
  710MOL0     H97949   1.277   7.851   3.690 -1.3307 -1.0356  0.1548
  710MOL0     H97950   1.240   7.614   3.542 -2.2087 -1.0509 -1.8625
  710MOL0     H97951   1.111   7.717   3.488 -0.4821 -1.8500  0.6309
  710MOL0     H97952   1.176   7.664   3.786  0.0541  0.2488 -1.4391
  710MOL0     H97953   1.036   7.748   3.730 -2.3579 -2.0398 -1.4789
  710MOL0     H97954   1.088   7.459   3.665  1.5005  1.8594 -1.3896
  710MOL0     H97955   0.951   7.548   3.606 -1.7221 -1.4888  1.7909
  710MOL0     H97956   0.892   7.604   3.841  0.5769 -0.4587  5.3209
  710MOL0     H97957   1.015   7.486   3.904 -1.1820  2.0447  2.2461
  710MOL0     H97958   0.745   7.428   3.766 -0.4784 -3.0109 -0.7400
  710MOL0     H97959   0.806   7.373   3.916 -0.0053 -0.1857 -0.0363
  710MOL0     H97960   1.679   7.912   3.411 -1.2635  0.3258  0.0312
  710MOL0     H97961   1.726   7.917   3.175 -3.5301 -0.4232 -1.1565
  710MOL0     H97962   1.999   7.727   2.873  0.2195 -1.0854 -0.2770
  710MOL0     H97963   2.130   7.767   2.696 -0.3166 -1.0935  3.0368
  710MOL0     H97964   3.003   6.972   1.936 -1.0722  0.4935 -0.3005
  710MOL0     H97965   3.083   6.770   1.819  1.6834 -0.2490  0.0660
  710MOL0     H97966   3.138   6.571   1.426 -1.5739 -0.9296  2.8839
  710MOL0     H97967   3.187   6.401   1.263 -1.6024  1.9141 -0.0505
  710MOL0     H97968   3.571   6.263   1.213 -4.3759  3.5443  2.2591
  710MOL0     H97969   3.575   6.156   1.351 -2.0181  4.9609  1.9017
  710MOL0     H97970   3.470   6.081   1.081 -2.9171 -2.4187  1.7286
  710MOL0     H97971   3.477   5.974   1.218 -2.5519  2.8365  2.7503
  710MOL0     H97972   3.730   6.093   1.083 -0.4825  0.7476  0.5621
  710MOL0     H97973   3.726   6.006   1.239 -1.4172  1.6601  1.6703
  710MOL0     H97974   3.640   5.909   0.963  0.9291 -0.0131 -0.2612
  710MOL0     H97975   3.638   5.817   1.111 -4.3206  1.3938 -1.7293
  710MOL0     H97976   4.059   5.832   1.008  0.2198  2.1931 -1.9628
  710MOL0     H97977   3.514   6.277   1.502  0.5309  0.6461 -0.2158
  710MOL0     H97978   3.508   6.437   1.764 -1.0086 -2.1444 -1.0928
  710MOL0     H97979   3.633   6.431   1.630  0.5633  2.2172 -3.3741
  710MOL0     H97980   3.570   6.581   1.680  1.7216 -0.0870 -4.1032
  711MOL0     O97981   8.242  11.180   4.985 -0.1017  0.5931  0.0736
  711MOL0     C97982   8.137  11.153   4.919 -0.3200 -0.7191 -0.2580
  711MOL0     O97983   8.141  11.102   4.793 -0.6239 -0.2962 -0.4889
  711MOL0     C97984   8.264  11.087   4.737 -1.1068  1.2367 -0.7709
  711MOL0     C97985   8.328  11.205   4.696 -0.5757  1.0972  0.2166
  711MOL0     C97986   8.445  11.200   4.617  0.0429  0.7047 -0.4918
  711MOL0     C97987   8.491  11.073   4.570  0.1245  0.3450  0.6765
  711MOL0     O97988   8.608  11.067   4.507  0.4306 -0.0420 -0.2907
  711MOL0     C97989   8.674  10.941   4.490 -0.8899 -0.4546  0.0139
  711MOL0     C97990   8.811  10.981   4.537 -0.7350  0.9184  0.3082
  711MOL0     C97991   8.913  10.860   4.553  0.0824  0.6186  0.2639
  711MOL0     C97992   9.051  10.883   4.501  0.4729  1.0456  1.2040
  711MOL0     C97993   9.161  10.786   4.541 -0.9177  0.5193 -0.5309
  711MOL0     C97994   9.249  10.854   4.654 -0.2555  0.2512 -0.6165
  711MOL0     C97995   9.373  10.763   4.659  0.2421 -0.2026 -0.3040
  711MOL0     C97996   9.351  10.643   4.760  0.1359 -0.5550  1.3194
  711MOL0     N97997   9.475  10.569   4.792  0.2749  0.4480  0.2162
  711MOL0     C97998   9.583  10.552   4.704  0.8173  0.5114 -0.1017
  711MOL0     C97999   9.678  10.493   4.771 -0.2357  0.0189 -1.5343
  711MOL0     C98000   9.808  10.445   4.716  0.6485  0.2662 -0.0857
  711MOL0     C98001   9.886  10.342   4.811  0.0724  1.2546  0.4282
  711MOL0     C98002  10.002  10.274   4.742  0.6844  0.1346  0.0865
  711MOL0     C98003  10.076  10.198   4.847  0.9304  0.6342 -0.4882
  711MOL0     O98004  10.205  10.167   4.796 -0.5848 -0.5493  0.4913
  711MOL0     C98005  10.292  10.068   4.832  0.1522 -0.0212  0.4284
  711MOL0     C98006  10.263   9.976   4.936 -1.0032  0.6403 -0.7904
  711MOL0     C98007  10.354   9.887   4.992  0.6875 -0.2651  1.2224
  711MOL0     C98008  10.293   9.800   5.101  0.5739 -0.6340 -0.5479
  711MOL0     C98009  10.489   9.892   4.940  0.4171 -0.7257  0.6769
  711MOL0     C98010  10.592   9.809   4.984 -0.7192  0.4435  0.4713
  711MOL0     O98011  10.711   9.821   4.926 -0.4635 -0.3308 -0.3803
  711MOL0     C98012  10.802   9.733   4.974 -0.3239 -0.0871  0.1833
  711MOL0     C98013  10.914   9.791   5.032  0.5459  0.3017  0.5008
  711MOL0     C98014  11.015   9.705   5.065 -0.7959 -0.6597 -0.9112
  711MOL0     C98015  11.020   9.564   5.046  0.5081  0.0960  0.4454
  711MOL0     O98016  11.131   9.483   5.064 -0.3214  0.0620  0.0113
  711MOL0     C98017  11.256   9.557   5.066  0.0132 -0.4088 -0.2911
  711MOL0     C98018  11.371   9.450   5.053 -0.5251 -0.0382  1.5417
  711MOL0     C98019  11.355   9.340   5.151  0.3750 -1.1238 -0.3048
  711MOL0     C98020  11.472   9.247   5.150 -0.6836 -0.2924 -0.2653
  711MOL0     C98021  11.447   9.124   5.237 -0.1634  1.3171 -0.6175
  711MOL0     C98022  11.535   9.002   5.212 -0.5288 -0.4521 -0.9531
  711MOL0     C98023  11.498   8.879   5.299  0.4437  0.8896  0.0122
  711MOL0     C98024  11.586   8.762   5.274 -0.6024  0.6713  0.7187
  711MOL0    Cl98025  11.738   8.802   5.363  0.4738  0.2883  0.5010
  711MOL0     C98026  10.907   9.512   4.981 -0.2205 -0.5238 -0.2933
  711MOL0     C98027  10.798   9.598   4.950 -0.0227  0.2688 -0.1543
  711MOL0     O98028  10.558   9.716   5.054  0.0044 -0.3579 -0.0857
  711MOL0     C98029  10.513   9.974   4.831  0.6742 -0.9344  0.0965
  711MOL0     C98030  10.416  10.066   4.777  0.0841 -0.4360 -0.4039
  711MOL0     N98031   9.632  10.474   4.897 -0.1270  0.0908 -0.2930
  711MOL0     N98032   9.516  10.525   4.918 -0.8391  0.4501  0.6312
  711MOL0     C98033   8.413  10.956   4.602  0.3082 -0.1063 -0.7142
  711MOL0     C98034   8.309  10.965   4.690 -0.0515  0.4774  1.1173
  711MOL0     C98035   8.012  11.190   4.985  0.2934 -0.4574  0.5847
  711MOL0     C98036   8.014  11.271   5.101 -0.0033 -0.3594  0.7002
  711MOL0     C98037   7.902  11.314   5.169  0.6796 -0.0100  0.5978
  711MOL0     C98038   7.774  11.283   5.121 -0.5292  0.0652 -0.0105
  711MOL0     O98039   7.663  11.333   5.178 -0.6345 -0.1355  0.6544
  711MOL0     C98040   7.529  11.302   5.138  0.0403 -0.2051  0.8030
  711MOL0     C98041   7.422  11.343   5.239 -0.1352  0.8785 -0.1501
  711MOL0     C98042   7.456  11.470   5.319 -0.0044  0.4060  0.0944
  711MOL0     C98043   7.331  11.524   5.393 -1.4205  0.1936 -0.2949
  711MOL0     C98044   7.310  11.445   5.513  0.0782  0.0541  0.2496
  711MOL0     C98045   7.288  11.382   5.612  0.3445 -0.8472 -1.4976
  711MOL0     C98046   7.769  11.190   5.020 -0.3562  0.6190 -1.3953
  711MOL0     C98047   7.884  11.147   4.952  0.6131  0.4014 -0.0093
  711MOL0     C98048   7.862  11.047   4.845 -0.4570  0.1371 -0.1385
  711MOL0     H98049   8.280  11.299   4.723 -1.6421  0.5801  0.1657
  711MOL0     H98050   8.494  11.290   4.582  1.6028  0.7609  1.6239
  711MOL0     H98051   8.676  10.915   4.384 -0.3898 -3.7106  0.7146
  711MOL0     H98052   8.646  10.858   4.555 -0.4917  0.9892  2.1417
  711MOL0     H98053   8.849  11.055   4.466  2.2356 -0.4009  0.3741
  711MOL0     H98054   8.793  11.024   4.636 -4.8964 -3.9432  2.1133
  711MOL0     H98055   8.919  10.825   4.657  0.7240 -1.1670 -0.3367
  711MOL0     H98056   8.865  10.778   4.498  0.9407 -0.8460  1.5827
  711MOL0     H98057   9.049  10.866   4.393 -2.0039  1.5557  1.1168
  711MOL0     H98058   9.091  10.982   4.523  2.6381 -0.1709  3.1928
  711MOL0     H98059   9.228  10.761   4.458 -0.8338 -1.5330  0.1195
  711MOL0     H98060   9.127  10.692   4.585  3.5704 -0.8450  0.5501
  711MOL0     H98061   9.277  10.958   4.635 -4.2678  1.6826  0.2603
  711MOL0     H98062   9.190  10.848   4.746  1.2295 -0.1750  0.3551
  711MOL0     H98063   9.464  10.818   4.679 -1.0736  2.7340 -1.7556
  711MOL0     H98064   9.396  10.718   4.561  2.4573 -0.9652  0.5073
  711MOL0     H98065   9.308  10.686   4.851 -1.5190 -1.9130  1.2390
  711MOL0     H98066   9.279  10.574   4.716  2.4947 -2.7046  0.6040
  711MOL0     H98067   9.582  10.541   4.596  0.5303  1.9895 -0.2694
  711MOL0     H98068   9.880  10.527   4.710  0.2526  0.5814 -0.6897
  711MOL0     H98069   9.792  10.400   4.617  0.8708  1.6386 -0.7758
  711MOL0     H98070   9.912  10.383   4.909  0.5554 -3.2745  2.4386
  711MOL0     H98071   9.816  10.263   4.838  1.1844  0.1268  0.0956
  711MOL0     H98072   9.982  10.205   4.660  2.2817  0.8373 -0.9365
  711MOL0     H98073  10.065  10.349   4.693  1.9208 -1.0162 -0.1405
  711MOL0     H98074  10.089  10.254   4.940  2.9981  2.2306 -1.6612
  711MOL0     H98075  10.019  10.107   4.867  2.3933  0.0090  1.0674
  711MOL0     H98076  10.170   9.978   4.992 -0.3673 -0.0524  0.2993
  711MOL0     H98077  10.201   9.838   5.146  1.4434 -1.5917  2.2413
  711MOL0     H98078  10.358   9.783   5.188  0.9279  0.6029 -0.5484
  711MOL0     H98079  10.273   9.701   5.060 -2.8738 -1.1535  1.9246
  711MOL0     H98080  10.902   9.896   5.059 -1.6346  0.8215 -2.0720
  711MOL0     H98081  11.097   9.755   5.115  0.4366 -1.7417 -1.7819
  711MOL0     H98082  11.270   9.623   4.980  1.6971  0.7379  0.7861
  711MOL0     H98083  11.271   9.605   5.163 -0.3397 -3.2051  1.2441
  711MOL0     H98084  11.348   9.396   4.961 -2.5853 -3.7978  4.0000
  711MOL0     H98085  11.472   9.492   5.048 -0.2611 -0.7390  0.7820
  711MOL0     H98086  11.267   9.283   5.119  0.1872 -1.5295  0.8767
  711MOL0     H98087  11.334   9.381   5.251 -1.2408 -1.6472 -0.3971
  711MOL0     H98088  11.570   9.290   5.173 -0.9185 -0.8504  1.9985
  711MOL0     H98089  11.481   9.216   5.046  0.7546 -1.4946  0.1718
  711MOL0     H98090  11.451   9.149   5.343  1.7320 -0.7192 -0.1324
  711MOL0     H98091  11.352   9.079   5.207 -0.1087 -0.3975  1.5335
  711MOL0     H98092  11.642   9.013   5.235 -0.2670 -3.7042 -0.1629
  711MOL0     H98093  11.525   8.976   5.107  2.5716 -4.0811 -0.5748
  711MOL0     H98094  11.398   8.850   5.267  0.9874  1.1206 -2.0060
  711MOL0     H98095  11.487   8.895   5.407  2.8916  0.9174  0.3231
  711MOL0     H98096  11.605   8.747   5.167 -2.3944  3.5108 -0.0967
  711MOL0     H98097  11.544   8.670   5.317  2.3501  0.1809  2.9042
  711MOL0     H98098  10.884   9.409   4.953 -3.6913  0.1531 -0.4234
  711MOL0     H98099  10.716   9.565   4.886  0.9500 -0.0333 -1.2858
  711MOL0     H98100  10.601   9.973   4.768  0.1667 -3.4885 -0.7089
  711MOL0     H98101  10.443  10.140   4.703 -1.8800  1.5108  0.6811
  711MOL0     H98102   8.440  10.851   4.596 -3.8301 -1.7717  3.5635
  711MOL0     H98103   8.250  10.880   4.720 -2.0028  2.0670  2.0652
  711MOL0     H98104   8.111  11.317   5.116 -0.0093  0.2405 -0.9119
  711MOL0     H98105   7.918  11.380   5.255  3.5774  0.9373 -0.5345
  711MOL0     H98106   7.517  11.370   5.052 -0.9904  1.4861  2.2219
  711MOL0     H98107   7.512  11.199   5.105 -2.8865 -0.0888  1.6960
  711MOL0     H98108   7.408  11.263   5.312  0.3944  2.1140  1.3776
  711MOL0     H98109   7.322  11.356   5.197  0.6904  5.0251 -1.3630
  711MOL0     H98110   7.534  11.441   5.390  1.0431  1.2620 -0.6703
  711MOL0     H98111   7.484  11.554   5.254  1.1475  0.1725  0.2722
  711MOL0     H98112   7.240  11.523   5.332 -0.9466  1.7757 -1.0734
  711MOL0     H98113   7.346  11.629   5.417  1.5577  0.2680 -1.8661
  711MOL0     H98114   7.263  11.342   5.708 -0.0988 -0.5164 -1.4714
  711MOL0     H98115   7.668  11.157   4.995 -0.7888  0.6500  0.2299
  711MOL0     H98116   7.760  11.012   4.829 -0.7623  0.8499  0.1854
  711MOL0     H98117   7.877  11.085   4.743  1.4701 -4.9585 -2.1052
  711MOL0     H98118   7.929  10.961   4.847  0.8526  1.0100 -2.3686
  712MOL0     O98119   8.590   0.930   0.433 -0.6075 -0.2785 -0.0486
  712MOL0     C98120   8.643   0.954   0.327  0.1999 -0.7149  1.2846
  712MOL0     O98121   8.573   0.961   0.209  0.4132 -0.0936  0.2966
  712MOL0     C98122   8.455   0.894   0.196  0.4294 -0.6305  0.3845
  712MOL0     C98123   8.398   0.916   0.070 -0.5871  0.1938 -0.4821
  712MOL0     C98124   8.291   0.840   0.024 -1.0214 -0.3525  0.5112
  712MOL0     C98125   8.219   0.764   0.107 -0.6098  1.2679  0.5645
  712MOL0     O98126   8.110   0.703   0.065 -0.2830  0.2685  0.1495
  712MOL0     C98127   7.994   0.740   0.142 -0.1527 -0.1343  0.1134
  712MOL0     C98128   7.880   0.644   0.098 -0.5812 -0.3944  1.2953
  712MOL0     C98129   7.739   0.694   0.137  0.3307  0.0692 -0.2581
  712MOL0     C98130   7.614   0.616   0.091  0.2145 -0.4486 -0.2640
  712MOL0     C98131   7.488   0.703   0.074  0.4324 -0.5712 -0.5141
  712MOL0     C98132   7.422   0.783   0.192  0.4423  0.0205  1.0357
  712MOL0     C98133   7.324   0.701   0.279  1.2493 -0.1914 -0.8171
  712MOL0     C98134   7.175   0.722   0.222  0.2499  0.1122 -0.1622
  712MOL0     N98135   7.133   0.610   0.128  0.0566 -0.6890 -0.0626
  712MOL0     C98136   7.074   0.628   0.001  0.3187  0.7760 -0.6761
  712MOL0     C98137   7.024   0.501  -0.027  1.2679  0.5894  0.8149
  712MOL0     C98138   6.949   0.454  -0.147  0.2860  0.2718  0.0095
  712MOL0     C98139   6.817   0.532  -0.172  0.1956 -0.3579 -0.9318
  712MOL0     C98140   6.718   0.549  -0.044 -0.0159  0.3358  0.1000
  712MOL0     C98141   6.668   0.409  -0.003 -1.4188 -0.6001 -0.1097
  712MOL0     O98142   6.585   0.339  -0.095 -0.3660  0.5099  0.4114
  712MOL0     C98143   6.465   0.399  -0.129  0.3661  1.0532  0.1228
  712MOL0     C98144   6.417   0.369  -0.256  0.0278 -0.4401 -0.7410
  712MOL0     C98145   6.288   0.418  -0.297 -0.0384  0.2242  0.2396
  712MOL0     C98146   6.226   0.379  -0.428 -0.0634  0.1780  0.3319
  712MOL0     C98147   6.217   0.507  -0.208  0.0247 -0.2624 -0.1490
  712MOL0     C98148   6.094   0.571  -0.242  0.9631 -1.0759  0.6500
  712MOL0     O98149   5.984   0.537  -0.161 -0.1358  0.3776  0.0266
  712MOL0     C98150   5.876   0.626  -0.161  1.1125  0.0085  0.4173
  712MOL0     C98151   5.834   0.675  -0.039 -0.2629  0.2335 -0.4897
  712MOL0     C98152   5.716   0.740  -0.005  0.0885 -0.0455 -0.7008
  712MOL0     C98153   5.631   0.764  -0.120 -0.0909 -0.1947 -0.0626
  712MOL0     O98154   5.506   0.827  -0.118 -0.2137  0.1116  0.4776
  712MOL0     C98155   5.422   0.832   0.000 -0.5897  0.2391 -0.4334
  712MOL0     C98156   5.335   0.709   0.001 -0.5853  0.0071  0.2192
  712MOL0     C98157   5.418   0.583   0.040  0.2834  0.4073 -0.4891
  712MOL0     C98158   5.316   0.465   0.081  0.9791  0.0242 -0.2234
  712MOL0     C98159   5.399   0.345   0.144 -0.2414 -0.1163 -0.1183
  712MOL0     C98160   5.329   0.214   0.160 -0.3268  0.1587 -0.5173
  712MOL0     C98161   5.199   0.231   0.236  0.6621  0.0924  0.0153
  712MOL0     C98162   5.133   0.100   0.276 -0.1986  0.3270  0.2429
  712MOL0    Cl98163   5.260  -0.007   0.346 -0.6576  0.2863 -0.4526
  712MOL0     C98164   5.671   0.736  -0.254 -0.7437  0.1667  0.1875
  712MOL0     C98165   5.790   0.658  -0.276 -0.7108  0.3977 -0.7577
  712MOL0     O98166   6.084   0.651  -0.334 -1.5654 -1.2617  0.2469
  712MOL0     C98167   6.263   0.537  -0.083  0.5546  0.6571 -0.3121
  712MOL0     C98168   6.377   0.475  -0.044 -0.6982  0.6532 -0.5880
  712MOL0     N98169   7.037   0.421   0.084  0.6460 -0.7284  0.7486
  712MOL0     N98170   7.090   0.491   0.176 -0.8096 -0.2970  1.2007
  712MOL0     C98171   8.270   0.742   0.236 -0.2807  1.0440 -0.3774
  712MOL0     C98172   8.389   0.802   0.276 -0.0116 -0.6320  0.1586
  712MOL0     C98173   8.790   0.985   0.334 -0.3497  0.5242  0.7845
  712MOL0     C98174   8.848   1.042   0.214  0.2665 -1.1122  0.8450
  712MOL0     C98175   8.989   1.066   0.195  0.3519  0.1000  0.1378
  712MOL0     C98176   9.077   1.035   0.300 -0.2219 -0.3479 -0.5255
  712MOL0     O98177   9.209   1.055   0.273  0.7560 -0.0433  0.1937
  712MOL0     C98178   9.292   1.088   0.383  1.0843  0.4543  0.3363
  712MOL0     C98179   9.426   1.120   0.313 -0.1251  0.0939  1.1361
  712MOL0     C98180   9.445   1.246   0.222 -0.6747 -0.6168 -0.5715
  712MOL0     C98181   9.597   1.262   0.216 -0.6052  0.0361 -0.0000
  712MOL0     C98182   9.625   1.348   0.112 -1.1884 -0.4501  0.4690
  712MOL0     C98183   9.644   1.410   0.012  0.3494  0.0040  0.3584
  712MOL0     C98184   9.024   0.993   0.431  0.0270 -0.4799 -0.1841
  712MOL0     C98185   8.886   0.965   0.442 -0.2684 -0.1439 -0.1423
  712MOL0     C98186   8.848   0.933   0.584  1.3486  0.5218  0.2395
  712MOL0     H98187   8.445   0.994   0.011  2.6354 -0.3394  1.1773
  712MOL0     H98188   8.251   0.855  -0.075 -1.1233  1.9431  0.8664
  712MOL0     H98189   7.966   0.841   0.112  3.1004  1.0057  0.5423
  712MOL0     H98190   8.005   0.735   0.251 -2.1321  2.2019  0.5212
  712MOL0     H98191   7.897   0.637  -0.010  3.1354  0.9518  1.6332
  712MOL0     H98192   7.886   0.544   0.142  2.3921 -2.5811 -3.2914
  712MOL0     H98193   7.735   0.678   0.245  0.3958 -1.2939 -0.4355
  712MOL0     H98194   7.728   0.802   0.126 -0.0632  0.7011  4.3372
  712MOL0     H98195   7.627   0.574  -0.009 -0.7513  1.7545 -1.3801
  712MOL0     H98196   7.590   0.529   0.152 -0.7433 -0.9308 -1.2907
  712MOL0     H98197   7.410   0.645   0.024  1.2881  0.5224 -3.3353
  712MOL0     H98198   7.519   0.780   0.003  1.4267 -0.4023  0.0836
  712MOL0     H98199   7.501   0.832   0.250  0.4193  1.8434 -0.3491
  712MOL0     H98200   7.373   0.866   0.139 -1.4629 -0.5210  1.8934
  712MOL0     H98201   7.321   0.729   0.384 -1.8492  3.2823 -1.6279
  712MOL0     H98202   7.366   0.600   0.290 -0.0431 -0.6343  0.3349
  712MOL0     H98203   7.096   0.726   0.298  0.3439 -1.6929  0.0900
  712MOL0     H98204   7.165   0.818   0.171 -1.5342 -1.2916 -2.6982
  712MOL0     H98205   7.066   0.719  -0.058  0.0145  1.0391 -0.2364
  712MOL0     H98206   6.913   0.352  -0.131  0.0905  0.9486  6.0166
  712MOL0     H98207   7.017   0.461  -0.233  0.2387 -2.1551 -0.2881
  712MOL0     H98208   6.826   0.638  -0.199 -0.7145  0.4554  1.6837
  712MOL0     H98209   6.764   0.478  -0.251  0.0609 -2.1351  0.3186
  712MOL0     H98210   6.780   0.593   0.034 -1.3795 -0.4410  1.6891
  712MOL0     H98211   6.632   0.612  -0.070 -0.2643 -0.1063 -0.1730
  712MOL0     H98212   6.749   0.342   0.026 -2.4693 -1.7686  0.2507
  712MOL0     H98213   6.612   0.430   0.089 -1.3757  1.7419 -0.5649
  712MOL0     H98214   6.478   0.322  -0.333 -1.3889 -0.7075 -1.7327
  712MOL0     H98215   6.278   0.433  -0.508  0.4848 -0.5504  0.1850
  712MOL0     H98216   6.118   0.394  -0.438  0.2373  3.4125  0.7412
  712MOL0     H98217   6.241   0.272  -0.447  2.3425  0.8306 -2.1712
  712MOL0     H98218   5.896   0.645   0.045 -1.4062  1.2488  0.7610
  712MOL0     H98219   5.687   0.778   0.092 -0.8343  2.7386 -1.9676
  712MOL0     H98220   5.479   0.848   0.092 -0.5188 -0.5602 -0.3287
  712MOL0     H98221   5.367   0.927   0.004  1.3866  1.4038  0.6098
  712MOL0     H98222   5.254   0.726   0.073 -0.4965 -2.1136  0.8999
  712MOL0     H98223   5.290   0.698  -0.098  0.8713 -0.5904 -0.4018
  712MOL0     H98224   5.489   0.604   0.121  0.5762 -1.0403 -0.3451
  712MOL0     H98225   5.485   0.555  -0.042  1.1888  3.1707 -0.8029
  712MOL0     H98226   5.247   0.432   0.003  1.0891 -0.3092 -0.1816
  712MOL0     H98227   5.260   0.508   0.165  1.2872 -1.5104  0.8182
  712MOL0     H98228   5.486   0.326   0.080  1.4748 -3.7129  2.8471
  712MOL0     H98229   5.438   0.378   0.241 -0.9613 -0.2431  0.2202
  712MOL0     H98230   5.404   0.147   0.205 -0.0964  0.9285  0.2782
  712MOL0     H98231   5.335   0.185   0.055  1.6705  1.6231 -0.8660
  712MOL0     H98232   5.129   0.281   0.167 -1.1023 -1.8421  0.2931
  712MOL0     H98233   5.213   0.296   0.322  3.2257 -1.5013  0.9065
  712MOL0     H98234   5.090   0.046   0.191 -3.6177  2.2044  0.6026
  712MOL0     H98235   5.043   0.122   0.335 -1.3115  1.3171 -1.7154
  712MOL0     H98236   5.606   0.773  -0.332 -1.0187  3.3275  1.7836
  712MOL0     H98237   5.814   0.621  -0.375  0.2000 -1.7965  0.2072
  712MOL0     H98238   6.210   0.603  -0.015  2.3479 -0.2631  2.1408
  712MOL0     H98239   6.406   0.484   0.060 -0.2953 -2.1459 -0.3833
  712MOL0     H98240   8.228   0.669   0.304  0.0053 -0.0395 -1.3405
  712MOL0     H98241   8.427   0.770   0.372  0.8020 -2.0463 -0.6179
  712MOL0     H98242   8.781   1.062   0.131  1.7498  0.3107 -0.0731
  712MOL0     H98243   9.038   1.113   0.110  0.9140  0.9883  0.9272
  712MOL0     H98244   9.255   1.172   0.441 -2.7196 -1.0740  0.4095
  712MOL0     H98245   9.313   1.000   0.445 -0.4683  2.4278  3.9398
  712MOL0     H98246   9.462   1.028   0.267 -2.2704 -0.6207  0.7566
  712MOL0     H98247   9.503   1.126   0.390  0.9417  2.5092  0.0163
  712MOL0     H98248   9.402   1.247   0.121  1.2654  4.6054 -1.6516
  712MOL0     H98249   9.396   1.325   0.278 -0.3076  0.4586 -1.7307
  712MOL0     H98250   9.635   1.161   0.201 -2.6766 -1.2647  2.6570
  712MOL0     H98251   9.632   1.310   0.308  1.1418  1.5973 -1.4015
  712MOL0     H98252   9.643   1.476  -0.072 -1.2935 -0.4523 -0.0219
  712MOL0     H98253   9.094   0.966   0.509 -1.7962 -0.1401  1.6246
  712MOL0     H98254   8.933   0.964   0.646  2.3979  2.1733 -1.8846
  712MOL0     H98255   8.754   0.984   0.605  3.0054  3.7141  0.4714
  712MOL0     H98256   8.831   0.826   0.597  1.1863  0.3064 -1.4969
  713MOL0     O98257   4.172   7.642   7.733 -0.1738 -0.2400  0.3166
  713MOL0     C98258   4.273   7.681   7.676  0.8440 -0.6553  1.7028
  713MOL0     O98259   4.402   7.680   7.721  0.2435 -0.2697 -0.3579
  713MOL0     C98260   4.431   7.615   7.841  0.6639  0.6130 -0.4789
  713MOL0     C98261   4.514   7.506   7.847 -0.8468 -0.0172  0.0342
  713MOL0     C98262   4.547   7.452   7.971 -1.1965 -0.3574  0.5757
  713MOL0     C98263   4.496   7.507   8.091 -0.1201  0.3514  0.5180
  713MOL0     O98264   4.532   7.463   8.214 -0.9614 -0.6030 -0.3298
  713MOL0     C98265   4.470   7.344   8.256 -0.6446  0.8687 -0.7534
  713MOL0     C98266   4.501   7.322   8.408  0.2211  0.8161  0.5876
  713MOL0     C98267   4.415   7.418   8.497 -0.6307  0.3147 -0.0782
  713MOL0     C98268   4.474   7.412   8.643 -1.5495 -0.4927  1.0633
  713MOL0     C98269   4.406   7.470   8.761  0.5422 -0.3602 -0.5336
  713MOL0     C98270   4.481   7.479   8.895 -0.2724  0.2771 -0.1367
  713MOL0     C98271   4.380   7.537   8.994 -0.6013  0.0439 -0.3034
  713MOL0     C98272   4.457   7.570   9.122 -0.7644  0.1623 -0.4552
  713MOL0     N98273   4.436   7.457   9.218  0.0432 -0.9344  0.4749
  713MOL0     C98274   4.454   7.460   9.358  0.7481  0.5269  0.0784
  713MOL0     C98275   4.465   7.332   9.398  0.2948  0.7556 -0.2091
  713MOL0     C98276   4.491   7.286   9.544  0.3203 -0.4565  0.7941
  713MOL0     C98277   4.381   7.202   9.599  0.0508  0.8431 -0.1139
  713MOL0     C98278   4.432   7.098   9.693  0.0366  0.7886  0.6080
  713MOL0     C98279   4.514   7.160   9.800  0.7563 -0.1568 -0.4944
  713MOL0     O98280   4.576   7.067   9.889  0.3505 -0.5967 -0.3644
  713MOL0     C98281   4.494   7.028   9.994 -0.2555 -0.1554 -0.0189
  713MOL0     C98282   4.504   7.099  10.117  0.0851 -0.1461 -0.4668
  713MOL0     C98283   4.437   7.052  10.237 -0.4655 -0.4249  0.6624
  713MOL0     C98284   4.456   7.118  10.374  0.5942  0.0529  0.1704
  713MOL0     C98285   4.347   6.945  10.219 -0.9676  0.3454  0.5604
  713MOL0     C98286   4.260   6.889  10.323  0.0391 -0.4301  0.2928
  713MOL0     O98287   4.225   6.760  10.302  0.4202 -0.2063  0.5374
  713MOL0     C98288   4.201   6.679  10.416 -0.2992  0.6635 -0.6200
  713MOL0     C98289   4.307   6.631  10.499  0.6681  0.4455  0.3004
  713MOL0     C98290   4.277   6.567  10.626 -0.2140 -0.2709 -0.4840
  713MOL0     C98291   4.144   6.536  10.664 -0.4541  0.8990 -0.2722
  713MOL0     O98292   4.106   6.474  10.779  0.5392 -0.0910  0.4172
  713MOL0     C98293   4.206   6.409  10.865  0.4871 -0.4135  1.2490
  713MOL0     C98294   4.134   6.328  10.966  0.6874 -0.0696  1.0269
  713MOL0     C98295   4.199   6.298  11.092 -0.3008 -1.0216  0.0810
  713MOL0     C98296   4.129   6.169  11.161 -0.7545 -0.2925 -0.2090
  713MOL0     C98297   4.217   6.114  11.276  0.4606 -0.2497  0.0269
  713MOL0     C98298   4.142   6.012  11.361 -0.3628  0.3638 -0.1102
  713MOL0     C98299   4.229   5.955  11.479  0.2213 -0.9852 -0.6509
  713MOL0     C98300   4.221   5.802  11.468  0.0776 -0.2186 -0.3203
  713MOL0    Cl98301   4.340   5.749  11.590 -0.1830 -0.1165 -0.1001
  713MOL0     C98302   4.051   6.568  10.570  0.3910  1.0329 -0.6849
  713MOL0     C98303   4.072   6.635  10.458  0.1439  0.1029  0.5558
  713MOL0     O98304   4.214   6.959  10.413 -0.2128  0.4304 -0.4549
  713MOL0     C98305   4.335   6.882  10.089 -0.2476 -0.6894 -0.2601
  713MOL0     C98306   4.411   6.916   9.982 -1.1583 -0.3173  0.0051
  713MOL0     N98307   4.452   7.250   9.283 -0.2430  0.3738 -1.6187
  713MOL0     N98308   4.443   7.326   9.185 -0.0778  0.9926  0.3531
  713MOL0     C98309   4.426   7.627   8.080  0.7242 -0.6224  0.2833
  713MOL0     C98310   4.402   7.687   7.958 -0.2933  0.3681  0.2862
  713MOL0     C98311   4.250   7.737   7.530  0.0714 -0.9150  0.2578
  713MOL0     C98312   4.362   7.742   7.447  0.5438  0.5290  0.0987
  713MOL0     C98313   4.350   7.792   7.313 -0.6710 -0.4329 -0.4443
  713MOL0     C98314   4.224   7.842   7.275 -0.5401  0.2344  0.0643
  713MOL0     O98315   4.209   7.884   7.145  0.8608 -0.2558  1.5377
  713MOL0     C98316   4.264   8.013   7.129 -0.2246 -1.3106  0.0714
  713MOL0     C98317   4.209   8.063   6.995 -0.6452 -0.7512 -0.3283
  713MOL0     C98318   4.297   8.165   6.928 -0.6614 -0.1292 -0.4821
  713MOL0     C98319   4.217   8.242   6.818  0.1306 -0.0312  1.3088
  713MOL0     C98320   4.258   8.380   6.804 -0.0280 -0.1417 -0.7243
  713MOL0     C98321   4.303   8.495   6.809 -0.2185  0.1811  0.2848
  713MOL0     C98322   4.116   7.841   7.350  0.2653  0.5030  0.5466
  713MOL0     C98323   4.131   7.794   7.484 -1.0744 -0.5008  0.5854
  713MOL0     C98324   4.001   7.803   7.569 -0.3096  0.6141 -0.3203
  713MOL0     H98325   4.546   7.450   7.759 -1.5852  2.1753 -1.7073
  713MOL0     H98326   4.617   7.369   7.979 -1.9686 -0.8561  2.8677
  713MOL0     H98327   4.521   7.265   8.200  0.8282  2.4869 -1.8180
  713MOL0     H98328   4.363   7.341   8.236 -0.6363  1.2231 -0.8508
  713MOL0     H98329   4.467   7.225   8.445 -0.9675  0.8974 -0.2234
  713MOL0     H98330   4.608   7.329   8.429  0.1938  2.1848  0.3712
  713MOL0     H98331   4.414   7.522   8.463 -1.6670  0.7676  1.2361
  713MOL0     H98332   4.313   7.379   8.500  0.0787 -1.5643  0.9985
  713MOL0     H98333   4.478   7.306   8.671 -0.5559 -0.3289  1.5930
  713MOL0     H98334   4.582   7.430   8.646 -1.1030 -2.7707  0.5077
  713MOL0     H98335   4.313   7.417   8.784  0.5726 -0.4431 -0.5990
  713MOL0     H98336   4.366   7.568   8.737 -0.9526 -0.2578  2.0627
  713MOL0     H98337   4.516   7.377   8.911 -0.6745 -0.3537 -2.7410
  713MOL0     H98338   4.558   7.554   8.879 -0.7054  0.6836 -0.3417
  713MOL0     H98339   4.297   7.467   9.007  0.1521 -0.7481  0.3527
  713MOL0     H98340   4.331   7.626   8.953  3.5201  3.0974  0.7621
  713MOL0     H98341   4.563   7.566   9.095 -0.4198  0.0746  0.8826
  713MOL0     H98342   4.426   7.666   9.163  0.6328  2.5132 -4.3324
  713MOL0     H98343   4.454   7.548   9.422  0.9758 -1.3041  2.7258
  713MOL0     H98344   4.502   7.379   9.600  1.4126 -1.8997  3.1154
  713MOL0     H98345   4.579   7.222   9.531  2.2011  2.1589 -0.4172
  713MOL0     H98346   4.304   7.265   9.647  0.6106  0.3994  1.4114
  713MOL0     H98347   4.322   7.163   9.515  2.0736  3.3104 -2.8981
  713MOL0     H98348   4.345   7.045   9.733 -1.4486  4.6617  3.0592
  713MOL0     H98349   4.508   7.042   9.638  0.8104  0.7460  1.6914
  713MOL0     H98350   4.582   7.238   9.763  0.8008  0.1819  0.2885
  713MOL0     H98351   4.437   7.221   9.848 -0.5987 -1.4777 -0.9236
  713MOL0     H98352   4.571   7.184  10.104 -0.5169  0.3338 -0.4651
  713MOL0     H98353   4.368   7.179  10.397  1.1629  0.4243  1.3953
  713MOL0     H98354   4.550   7.174  10.368  1.5148 -1.4499  0.0579
  713MOL0     H98355   4.460   7.034  10.444 -2.5835  0.2435  0.7371
  713MOL0     H98356   4.405   6.673  10.481 -0.1575  2.1031 -0.5185
  713MOL0     H98357   4.351   6.532  10.696 -1.9253 -0.3944  1.3534
  713MOL0     H98358   4.266   6.334  10.812 -0.5071  2.1220 -4.0229
  713MOL0     H98359   4.261   6.487  10.918  1.3476  1.6811 -2.3951
  713MOL0     H98360   4.036   6.368  10.993 -1.2946 -4.4120  1.1805
  713MOL0     H98361   4.114   6.236  10.911 -1.8086  1.4220 -0.8078
  713MOL0     H98362   4.192   6.384  11.159  0.3534 -2.8744  2.7255
  713MOL0     H98363   4.306   6.305  11.069 -1.0941  1.5975 -3.7895
  713MOL0     H98364   4.115   6.085  11.092 -1.9961 -1.5452  1.4931
  713MOL0     H98365   4.030   6.197  11.199  0.3638  3.1215  0.4962
  713MOL0     H98366   4.312   6.083  11.230  1.2066  3.8679 -1.6487
  713MOL0     H98367   4.250   6.198  11.337  1.2381 -1.2805  1.0711
  713MOL0     H98368   4.102   5.932  11.298 -2.5375 -0.3034  1.9659
  713MOL0     H98369   4.052   6.068  11.390 -0.8973 -0.3576 -0.3553
  713MOL0     H98370   4.184   5.989  11.573  1.7484 -0.1774 -0.1887
  713MOL0     H98371   4.332   5.991  11.476 -0.6060  1.6044 -0.3950
  713MOL0     H98372   4.258   5.764  11.373  1.6039 -0.8597  0.4812
  713MOL0     H98373   4.122   5.758  11.480  0.8227 -1.8413  0.0766
  713MOL0     H98374   3.944   6.556  10.581  0.2127  0.1151 -2.9091
  713MOL0     H98375   3.991   6.659  10.390  1.8699 -2.8538 -2.8933
  713MOL0     H98376   4.276   6.791  10.077 -3.7962  1.5468 -1.2907
  713MOL0     H98377   4.408   6.878   9.880  0.8641 -0.4139 -0.0509
  713MOL0     H98378   4.403   7.680   8.172  0.7304 -0.3377  0.1224
  713MOL0     H98379   4.364   7.789   7.968  0.1074  0.6881 -1.2595
  713MOL0     H98380   4.461   7.718   7.482  0.2120  0.5822  1.0971
  713MOL0     H98381   4.437   7.802   7.249 -0.6700  3.7747 -0.0454
  713MOL0     H98382   4.232   8.079   7.210 -0.4027  1.7766 -2.3269
  713MOL0     H98383   4.373   8.016   7.122 -0.2265 -0.5209  0.1945
  713MOL0     H98384   4.110   8.105   7.015 -1.1350 -1.7556 -0.5468
  713MOL0     H98385   4.194   7.970   6.938  0.5641 -1.2977  0.2089
  713MOL0     H98386   4.339   8.243   6.993  0.3908 -0.4364 -0.7761
  713MOL0     H98387   4.382   8.112   6.886  0.8119  0.0800  2.0473
  713MOL0     H98388   4.110   8.235   6.838  0.0068  0.4350  0.8520
  713MOL0     H98389   4.240   8.201   6.719  0.4235  1.4532  0.7326
  713MOL0     H98390   4.330   8.599   6.813 -0.1198  0.2263 -1.0379
  713MOL0     H98391   4.022   7.870   7.305  0.2298  1.2580  1.0957
  713MOL0     H98392   3.958   7.712   7.611  0.8270  0.9724  1.7839
  713MOL0     H98393   4.042   7.849   7.660  2.0567  0.1934 -1.1104
  713MOL0     H98394   3.916   7.860   7.529 -1.0819 -0.7048 -0.6241
  714MOL0     O98395   1.287   8.907   6.269  0.4086  0.0677  0.2371
  714MOL0     C98396   1.366   8.997   6.229 -0.6277  0.9060 -0.7793
  714MOL0     O98397   1.452   9.052   6.308 -0.0468  0.2604 -0.1816
  714MOL0     C98398   1.491   9.001   6.431  1.5340 -0.0778 -1.4758
  714MOL0     C98399   1.468   9.079   6.546 -0.5631  0.4306  0.4676
  714MOL0     C98400   1.529   9.052   6.665  0.8828  0.4045 -0.4960
  714MOL0     C98401   1.600   8.928   6.675 -0.0689  0.4755  0.1106
  714MOL0     O98402   1.669   8.892   6.792 -0.6916 -0.7649 -0.2355
  714MOL0     C98403   1.601   8.797   6.863  0.7915 -0.1052 -0.1654
  714MOL0     C98404   1.673   8.740   6.986  0.1106 -0.4603 -0.2897
  714MOL0     C98405   1.747   8.855   7.070  0.3999 -0.4757  0.7000
  714MOL0     C98406   1.806   8.807   7.203 -0.2847  0.4948  0.6873
  714MOL0     C98407   1.860   8.922   7.297  0.1161  0.0540 -0.7377
  714MOL0     C98408   1.750   9.013   7.353  0.4471 -1.2722  0.0874
  714MOL0     C98409   1.621   8.953   7.399  0.1959  0.8497 -0.0933
  714MOL0     C98410   1.656   8.833   7.496 -0.2175  0.0230 -1.0200
  714MOL0     N98411   1.717   8.879   7.625  0.0742  0.0804 -0.2390
  714MOL0     C98412   1.660   8.977   7.694  0.1994 -0.3540  0.0436
  714MOL0     C98413   1.738   8.996   7.799  0.3305  0.6864 -0.2584
  714MOL0     C98414   1.729   9.101   7.905  0.2667 -0.0533 -0.3231
  714MOL0     C98415   1.616   9.061   8.003 -0.6235 -0.3985  0.2829
  714MOL0     C98416   1.602   9.179   8.107  0.2084 -0.3408 -0.5679
  714MOL0     C98417   1.507   9.123   8.221 -0.6872  1.1383  0.2543
  714MOL0     O98418   1.463   9.225   8.301 -0.1052  0.1994 -0.9085
  714MOL0     C98419   1.411   9.202   8.426  0.1313 -0.6351 -0.6079
  714MOL0     C98420   1.397   9.072   8.488  0.0844  0.0225  0.2867
  714MOL0     C98421   1.343   9.051   8.615 -0.5595 -0.3628  0.7928
  714MOL0     C98422   1.319   8.905   8.655  1.5533 -0.1342  0.0146
  714MOL0     C98423   1.320   9.166   8.697 -0.5138  0.1018 -0.6906
  714MOL0     C98424   1.284   9.167   8.841 -0.2892  0.0244  0.0868
  714MOL0     O98425   1.301   9.284   8.901  0.2303 -0.0267 -0.4083
  714MOL0     C98426   1.265   9.302   9.040 -0.3419  0.3439  0.5965
  714MOL0     C98427   1.290   9.200   9.136 -1.4937  0.1690  0.3304
  714MOL0     C98428   1.270   9.241   9.271 -0.3315  0.3613 -0.0601
  714MOL0     C98429   1.228   9.370   9.300 -0.0229  0.0759  0.1199
  714MOL0     O98430   1.206   9.416   9.426  0.4271  0.2157  0.6285
  714MOL0     C98431   1.148   9.326   9.527 -0.2416 -0.0052 -0.2991
  714MOL0     C98432   1.029   9.399   9.580  0.3177 -0.7541 -0.6165
  714MOL0     C98433   0.972   9.320   9.689 -0.3223  0.3814 -0.6188
  714MOL0     C98434   0.842   9.378   9.747  0.1984 -0.4142  0.1634
  714MOL0     C98435   0.776   9.267   9.831  0.7256  1.2770 -0.2222
  714MOL0     C98436   0.866   9.179   9.912  0.5548 -0.8442 -0.2563
  714MOL0     C98437   0.801   9.081  10.019 -0.2661 -0.4351 -0.1264
  714MOL0     C98438   0.753   9.170  10.136  0.0035  0.2564  0.4287
  714MOL0    Cl98439   0.644   9.089  10.242 -0.3303 -0.1014  0.4883
  714MOL0     C98440   1.211   9.465   9.197  0.1735 -0.2358 -0.6892
  714MOL0     C98441   1.222   9.426   9.070 -0.5211 -0.4373 -0.9291
  714MOL0     O98442   1.219   9.070   8.889 -0.1256  0.3676  0.2849
  714MOL0     C98443   1.329   9.294   8.632 -1.5724  0.3345 -0.5384
  714MOL0     C98444   1.366   9.304   8.502 -2.0355 -0.6321 -0.1592
  714MOL0     N98445   1.841   8.907   7.793 -0.2794  0.2841 -0.8614
  714MOL0     N98446   1.826   8.834   7.686 -1.5565  0.8172 -0.5090
  714MOL0     C98447   1.620   8.838   6.557 -0.4728 -0.4044 -0.7787
  714MOL0     C98448   1.568   8.884   6.440 -0.3908 -0.2723  0.2290
  714MOL0     C98449   1.357   9.061   6.091  0.4525 -0.1171 -0.0200
  714MOL0     C98450   1.476   9.111   6.028  0.4059  0.3522 -0.3492
  714MOL0     C98451   1.473   9.164   5.900  0.5894 -0.4285 -0.4846
  714MOL0     C98452   1.350   9.176   5.835 -0.3139 -0.2293  0.0604
  714MOL0     O98453   1.334   9.248   5.720  0.1828  0.1898 -0.0322
  714MOL0     C98454   1.418   9.236   5.600  0.1564  0.1610  0.3160
  714MOL0     C98455   1.341   9.155   5.495 -0.4693  0.1712 -0.4103
  714MOL0     C98456   1.423   9.142   5.368 -0.8462 -0.8113  0.3144
  714MOL0     C98457   1.398   9.019   5.271  0.7337 -0.3329  0.2268
  714MOL0     C98458   1.491   9.018   5.154 -0.0719  1.3241 -0.0716
  714MOL0     C98459   1.568   9.025   5.060 -0.1625  0.1208  0.4818
  714MOL0     C98460   1.237   9.112   5.892 -0.6591  0.1705  1.1248
  714MOL0     C98461   1.239   9.062   6.017 -0.0339 -0.7359 -0.0646
  714MOL0     C98462   1.109   9.010   6.071 -0.4906 -1.1502 -1.2865
  714MOL0     H98463   1.405   9.166   6.538 -0.8490  0.0471 -2.8044
  714MOL0     H98464   1.515   9.125   6.744  1.5273 -0.8545  0.8289
  714MOL0     H98465   1.583   8.707   6.803  1.6413 -1.8332  2.0567
  714MOL0     H98466   1.505   8.841   6.892  1.2157 -0.2832  1.5621
  714MOL0     H98467   1.596   8.683   7.038 -0.5046  1.4517  0.9802
  714MOL0     H98468   1.755   8.669   6.968  0.0225 -1.1450  1.7404
  714MOL0     H98469   1.835   8.882   7.010 -1.5302 -0.7067 -2.4690
  714MOL0     H98470   1.683   8.944   7.076  2.4621  1.2411 -0.7814
  714MOL0     H98471   1.731   8.750   7.259 -1.3983  1.7487  0.5089
  714MOL0     H98472   1.891   8.740   7.185 -1.1658  0.2314 -3.6620
  714MOL0     H98473   1.938   8.978   7.244  2.2247 -2.6781 -0.7725
  714MOL0     H98474   1.908   8.857   7.371 -0.5961 -1.2723 -1.3948
  714MOL0     H98475   1.797   9.058   7.441  2.5599  0.0259 -1.6104
  714MOL0     H98476   1.719   9.100   7.295 -1.1834 -0.2639  2.3618
  714MOL0     H98477   1.572   8.910   7.311  1.4500 -0.5992 -0.1040
  714MOL0     H98478   1.544   9.017   7.444 -1.1524 -1.6050  1.2837
  714MOL0     H98479   1.568   8.781   7.536  2.5099 -3.1651  1.4271
  714MOL0     H98480   1.723   8.757   7.455  1.2436  0.1472  1.0151
  714MOL0     H98481   1.582   9.048   7.667  2.3214  1.9572 -0.4492
  714MOL0     H98482   1.712   9.194   7.850 -0.1316  0.1183  0.0821
  714MOL0     H98483   1.825   9.121   7.953 -0.1248  1.1065 -0.0005
  714MOL0     H98484   1.526   9.045   7.943  2.0547  0.5688 -4.5462
  714MOL0     H98485   1.631   8.972   8.064 -0.0517 -1.0785 -0.8169
  714MOL0     H98486   1.694   9.227   8.141  0.9693 -3.4718  2.3918
  714MOL0     H98487   1.540   9.254   8.059 -0.0950 -0.0464  0.2601
  714MOL0     H98488   1.416   9.068   8.194 -1.0099  1.1890  1.1978
  714MOL0     H98489   1.569   9.062   8.288  0.2129 -0.5938 -2.0375
  714MOL0     H98490   1.410   8.986   8.423  1.2440  0.8360 -0.6033
  714MOL0     H98491   1.213   8.881   8.639  0.0242  4.4885  1.5221
  714MOL0     H98492   1.333   8.896   8.763 -0.5039 -0.7597  0.2853
  714MOL0     H98493   1.390   8.835   8.609 -1.1762 -2.4533 -0.9859
  714MOL0     H98494   1.333   9.102   9.117 -1.4889 -0.5888  3.5953
  714MOL0     H98495   1.282   9.169   9.353 -1.0124  0.1243 -0.1610
  714MOL0     H98496   1.121   9.224   9.498 -1.5842  0.6984 -1.6269
  714MOL0     H98497   1.219   9.325   9.610  0.0137 -1.6900 -0.4975
  714MOL0     H98498   1.047   9.496   9.626  0.5403 -2.6016  3.6079
  714MOL0     H98499   0.964   9.400   9.492 -0.9099  0.7942  0.2486
  714MOL0     H98500   1.053   9.314   9.763 -0.7206 -0.2074 -0.2268
  714MOL0     H98501   0.958   9.214   9.667 -0.1299  0.2462 -0.1018
  714MOL0     H98502   0.780   9.413   9.663  3.0994  2.0346 -1.1547
  714MOL0     H98503   0.865   9.469   9.803  2.0596  1.5258 -3.3974
  714MOL0     H98504   0.696   9.320   9.884 -0.1207  0.5663 -0.7684
  714MOL0     H98505   0.728   9.192   9.768  1.4690  0.5593  0.0644
  714MOL0     H98506   0.937   9.238   9.970  1.3250 -1.7164 -0.3036
  714MOL0     H98507   0.918   9.117   9.839  1.1574  0.3149 -0.8366
  714MOL0     H98508   0.867   9.004  10.060 -1.5541  1.1594  6.1396
  714MOL0     H98509   0.713   9.032   9.976 -2.6239  1.2942  2.3703
  714MOL0     H98510   0.697   9.257  10.100 -3.6075 -1.1089  2.2189
  714MOL0     H98511   0.851   9.197  10.177  1.5992 -0.4579 -2.6265
  714MOL0     H98512   1.204   9.571   9.221  0.5528 -0.8406  2.4625
  714MOL0     H98513   1.227   9.504   8.995  1.4378 -2.0246 -2.5654
  714MOL0     H98514   1.300   9.387   8.679  3.3349  0.1132  3.7125
  714MOL0     H98515   1.369   9.400   8.452  3.7528 -1.0235 -1.2954
  714MOL0     H98516   1.683   8.749   6.554  0.5956  0.3248 -0.8477
  714MOL0     H98517   1.611   8.837   6.353  1.7955 -0.2407  1.2179
  714MOL0     H98518   1.563   9.114   6.092  0.0133 -0.5652  0.2389
  714MOL0     H98519   1.565   9.212   5.866  1.9736 -0.3086  3.0237
  714MOL0     H98520   1.429   9.340   5.569 -1.6113 -0.0282 -1.0306
  714MOL0     H98521   1.516   9.189   5.618 -0.8679 -2.9865 -1.4934
  714MOL0     H98522   1.243   9.200   5.479 -0.5574  0.5852  1.1633
  714MOL0     H98523   1.322   9.055   5.535 -0.4473  1.0108  1.8132
  714MOL0     H98524   1.406   9.238   5.319 -0.8816  0.5326  2.7879
  714MOL0     H98525   1.526   9.142   5.405 -0.8374  1.9926  0.4774
  714MOL0     H98526   1.296   9.021   5.232  0.4458  1.3052  0.9763
  714MOL0     H98527   1.401   8.924   5.325  1.0787 -0.5494 -0.1661
  714MOL0     H98528   1.643   9.042   4.985 -1.4129  0.5337 -0.7375
  714MOL0     H98529   1.141   9.111   5.841 -1.3357  1.7505  2.2918
  714MOL0     H98530   1.030   9.073   6.029 -0.1400  2.5285  2.8262
  714MOL0     H98531   1.076   8.918   6.023 -0.7152 -0.3354 -2.7418
  714MOL0     H98532   1.084   9.006   6.177  1.4868  0.9984 -0.6517
  715MOL0     O98533   6.471   6.039   0.845 -0.2114  0.0584 -0.2650
  715MOL0     C98534   6.351   6.012   0.863  1.1118  0.6797  0.3986
  715MOL0     O98535   6.252   6.014   0.763 -0.2249 -0.6607  0.0083
  715MOL0     C98536   6.288   6.035   0.636  0.4648  0.0268  0.4706
  715MOL0     C98537   6.286   6.160   0.581 -0.2138  0.5435  0.8381
  715MOL0     C98538   6.331   6.186   0.447 -0.5760 -0.6340 -0.2764
  715MOL0     C98539   6.387   6.083   0.372 -0.1776 -0.6032  0.6370
  715MOL0     O98540   6.435   6.113   0.250  0.1391 -0.7614 -0.1016
  715MOL0     C98541   6.503   6.012   0.167  0.7320 -0.5085  0.7404
  715MOL0     C98542   6.460   6.025   0.014  0.0250 -0.1422 -0.6228
  715MOL0     C98543   6.530   6.141  -0.053  0.3513  0.4319 -0.2235
  715MOL0     C98544   6.688   6.135  -0.067  0.4894  0.2008  0.3752
  715MOL0     C98545   6.727   6.250  -0.160 -0.3089  0.1557  0.0038
  715MOL0     C98546   6.736   6.387  -0.084  0.8599  0.0395  0.0149
  715MOL0     C98547   6.803   6.498  -0.162 -0.3650  0.3218  0.0733
  715MOL0     C98548   6.805   6.628  -0.090  0.6131 -1.1084 -0.0386
  715MOL0     N98549   6.913   6.635   0.006 -0.1641 -0.9491 -0.1839
  715MOL0     C98550   7.024   6.717  -0.010 -1.4533 -0.2337 -0.0018
  715MOL0     C98551   7.090   6.720   0.103 -0.0358  0.6904 -1.0264
  715MOL0     C98552   7.225   6.788   0.115  0.0760  1.1678 -0.0826
  715MOL0     C98553   7.324   6.705   0.187 -0.2347 -0.6858 -0.3051
  715MOL0     C98554   7.457   6.780   0.240  0.5512  0.9612 -0.7475
  715MOL0     C98555   7.567   6.812   0.142  0.5014 -0.1442 -0.8626
  715MOL0     O98556   7.500   6.889   0.040 -0.4719 -0.1836 -0.6688
  715MOL0     C98557   7.507   7.025   0.040  0.5289 -0.7089  1.6123
  715MOL0     C98558   7.432   7.071  -0.061 -1.2009 -0.2969 -0.2873
  715MOL0     C98559   7.390   7.204  -0.074  0.9106  0.6440  0.1402
  715MOL0     C98560   7.320   7.235  -0.208 -0.0200  0.4107 -0.8990
  715MOL0     C98561   7.422   7.300   0.024 -1.1484 -2.0784  0.2281
  715MOL0     C98562   7.367   7.446   0.024 -0.4847 -1.0381  0.1906
  715MOL0     O98563   7.366   7.511   0.146 -0.0902 -0.3376 -0.3633
  715MOL0     C98564   7.289   7.621   0.171  0.7242  0.1599  0.4662
  715MOL0     C98565   7.159   7.603   0.197 -0.4096  0.7962  0.1381
  715MOL0     C98566   7.091   7.696   0.255  0.0917  0.4747 -0.9736
  715MOL0     C98567   7.143   7.828   0.274  0.2251 -0.7068  0.0905
  715MOL0     O98568   7.059   7.927   0.320 -0.2464 -0.0664  0.2870
  715MOL0     C98569   7.102   7.980   0.443 -0.2111 -0.7700 -0.1415
  715MOL0     C98570   6.976   8.009   0.530  0.3017  0.1045 -0.0519
  715MOL0     C98571   6.891   7.879   0.575 -0.1656  0.7120  0.4939
  715MOL0     C98572   6.973   7.790   0.680 -0.3103 -0.4787 -0.3011
  715MOL0     C98573   6.893   7.674   0.739 -0.2891 -0.5429 -0.6601
  715MOL0     C98574   6.896   7.544   0.666  0.8990 -0.2465  0.4991
  715MOL0     C98575   6.809   7.432   0.734 -0.7762  0.3313 -0.0764
  715MOL0     C98576   6.870   7.365   0.858 -0.4288  0.0773 -0.2785
  715MOL0    Cl98577   6.834   7.480   0.984  0.5921 -0.0985 -0.0059
  715MOL0     C98578   7.273   7.864   0.244 -0.2747  0.3431  0.6134
  715MOL0     C98579   7.340   7.756   0.195 -0.2195 -0.6384 -0.2103
  715MOL0     O98580   7.319   7.493  -0.079  0.3018  0.2427  0.3569
  715MOL0     C98581   7.500   7.251   0.129  0.4130 -0.6246 -0.3452
  715MOL0     C98582   7.544   7.116   0.135  0.5973  0.7091  0.9566
  715MOL0     N98583   7.016   6.639   0.189 -0.3396 -0.5342 -0.2431
  715MOL0     N98584   6.903   6.603   0.133  0.1940  0.0820  0.8053
  715MOL0     C98585   6.384   5.955   0.431  0.7114 -0.1850  0.1847
  715MOL0     C98586   6.337   5.935   0.564 -1.7813 -0.0838 -0.5120
  715MOL0     C98587   6.300   5.978   0.998 -0.1542 -0.3598 -0.1320
  715MOL0     C98588   6.167   6.028   1.042 -0.0628 -0.3971  0.1384
  715MOL0     C98589   6.118   5.980   1.167 -0.5500  0.1800  0.1375
  715MOL0     C98590   6.201   5.908   1.251  0.4778 -1.2333  1.2757
  715MOL0     O98591   6.173   5.881   1.382  0.1552 -0.0117 -0.3895
  715MOL0     C98592   6.217   5.970   1.487 -0.1481 -0.4767 -0.1940
  715MOL0     C98593   6.129   6.093   1.494 -0.3471  0.7827  0.6803
  715MOL0     C98594   6.174   6.180   1.617 -0.2980  0.0922 -0.2591
  715MOL0     C98595   6.316   6.237   1.614 -0.5387 -0.7735 -0.2937
  715MOL0     C98596   6.425   6.147   1.663  0.0031  0.2575 -0.2224
  715MOL0     C98597   6.514   6.077   1.704 -0.0828  0.2290 -0.1762
  715MOL0     C98598   6.330   5.879   1.218  0.8115  0.3270 -0.5428
  715MOL0     C98599   6.377   5.902   1.094  0.1104 -0.2303 -0.3867
  715MOL0     C98600   6.518   5.847   1.073  0.7099  0.0110  0.5338
  715MOL0     H98601   6.232   6.246   0.620 -2.4726 -0.3839 -0.0276
  715MOL0     H98602   6.320   6.288   0.412 -0.7555  0.5819  3.0113
  715MOL0     H98603   6.480   5.906   0.181  3.3368 -0.9635  2.1429
  715MOL0     H98604   6.608   6.033   0.190  1.0329  2.8841 -2.6562
  715MOL0     H98605   6.458   5.935  -0.048 -3.1820 -0.8949  0.3719
  715MOL0     H98606   6.356   6.056   0.030  0.9720  2.8750  0.4335
  715MOL0     H98607   6.492   6.147  -0.155  1.9435 -3.3615 -1.2546
  715MOL0     H98608   6.489   6.229  -0.003 -0.8949  0.8656 -1.9308
  715MOL0     H98609   6.736   6.142   0.032  1.2066 -1.3704  0.1815
  715MOL0     H98610   6.724   6.043  -0.114  0.5104  0.7741 -0.7559
  715MOL0     H98611   6.645   6.276  -0.226 -0.1340  0.9153  0.0823
  715MOL0     H98612   6.819   6.228  -0.215  0.5707 -0.7553  1.7403
  715MOL0     H98613   6.636   6.420  -0.055  0.0009 -0.4828 -2.1557
  715MOL0     H98614   6.801   6.366   0.002  0.3740 -1.4198  0.0586
  715MOL0     H98615   6.745   6.513  -0.254  1.2143 -1.9998 -1.3914
  715MOL0     H98616   6.901   6.457  -0.190 -0.9933 -0.3630 -1.2465
  715MOL0     H98617   6.817   6.704  -0.168 -1.9036 -0.6427 -0.0484
  715MOL0     H98618   6.709   6.649  -0.041 -0.8040  2.4424 -3.7297
  715MOL0     H98619   7.064   6.762  -0.100 -0.3165 -1.4459 -0.1354
  715MOL0     H98620   7.204   6.881   0.169  1.3193  1.6992 -0.4840
  715MOL0     H98621   7.264   6.810   0.015 -2.8422  0.5211 -1.4404
  715MOL0     H98622   7.274   6.670   0.277  2.7649 -2.1268  0.9459
  715MOL0     H98623   7.365   6.620   0.131  0.9533 -1.1202  1.1720
  715MOL0     H98624   7.427   6.872   0.291  1.9333 -0.1032  2.1780
  715MOL0     H98625   7.495   6.712   0.317 -1.8159 -3.1911 -2.9274
  715MOL0     H98626   7.657   6.854   0.188 -0.6950  0.5444  0.9688
  715MOL0     H98627   7.592   6.712   0.108 -3.1543 -1.0423 -1.3665
  715MOL0     H98628   7.397   6.992  -0.127 -2.5203 -2.7923  3.0915
  715MOL0     H98629   7.217   7.263  -0.185  0.7316  0.6978  2.8559
  715MOL0     H98630   7.324   7.155  -0.283  1.0696  1.4362 -1.9848
  715MOL0     H98631   7.371   7.321  -0.253  1.6638 -0.4742 -0.7964
  715MOL0     H98632   7.103   7.512   0.175 -2.2790  1.9673 -0.1773
  715MOL0     H98633   6.986   7.670   0.266  0.2128 -0.5064 -1.9433
  715MOL0     H98634   7.165   7.905   0.491  2.4649  0.1470 -2.0015
  715MOL0     H98635   7.163   8.070   0.430  1.2393 -1.5540  0.9680
  715MOL0     H98636   6.986   8.088   0.605  1.6627 -0.9652  0.9542
  715MOL0     H98637   6.902   8.047   0.460 -0.5496  3.6703  2.5408
  715MOL0     H98638   6.853   7.811   0.498 -0.9507  2.6121 -0.8879
  715MOL0     H98639   6.806   7.915   0.634  0.8095  1.5556  1.4119
  715MOL0     H98640   7.002   7.846   0.770  1.7343  0.7330 -1.6390
  715MOL0     H98641   7.053   7.736   0.629 -0.5631  0.9983 -2.3632
  715MOL0     H98642   6.946   7.653   0.832 -1.5955 -2.5920 -0.3211
  715MOL0     H98643   6.790   7.707   0.754  0.8086  3.8357 -1.2321
  715MOL0     H98644   7.000   7.509   0.660  1.1949  0.8562 -2.5193
  715MOL0     H98645   6.856   7.553   0.565 -2.9778  1.3096  1.9702
  715MOL0     H98646   6.806   7.350   0.661 -3.2117  0.0045  0.2940
  715MOL0     H98647   6.705   7.466   0.744 -0.0893  3.0601 -1.4364
  715MOL0     H98648   6.979   7.358   0.845 -0.6683  0.8134 -3.7167
  715MOL0     H98649   6.828   7.267   0.882 -4.1000  0.8293 -2.8921
  715MOL0     H98650   7.313   7.961   0.269 -2.2672  1.1262  0.9627
  715MOL0     H98651   7.447   7.764   0.176 -0.4391  0.8878 -0.9334
  715MOL0     H98652   7.535   7.307   0.215 -1.4625 -1.4788  1.0468
  715MOL0     H98653   7.581   7.076   0.229 -1.1256 -1.0766  0.9471
  715MOL0     H98654   6.430   5.880   0.368 -1.4855  1.1746 -3.4070
  715MOL0     H98655   6.347   5.840   0.616 -4.7503  1.2687  3.0156
  715MOL0     H98656   6.108   6.090   0.975 -0.5789 -0.1721  0.7888
  715MOL0     H98657   6.018   6.006   1.200 -1.0121 -0.7036 -0.5243
  715MOL0     H98658   6.225   5.916   1.582  2.1568 -0.5246 -0.3513
  715MOL0     H98659   6.324   5.985   1.469  0.5732 -1.8857  2.4641
  715MOL0     H98660   6.031   6.051   1.519  0.8189 -1.4062  1.8847
  715MOL0     H98661   6.135   6.155   1.404  2.4880  1.3603  1.1744
  715MOL0     H98662   6.099   6.259   1.627  0.1296  0.6256 -1.1469
  715MOL0     H98663   6.166   6.121   1.708 -1.5786  2.5049  1.2928
  715MOL0     H98664   6.319   6.335   1.663 -0.4308  0.2036 -2.1270
  715MOL0     H98665   6.342   6.279   1.516  1.1408  3.6092  1.7685
  715MOL0     H98666   6.579   6.001   1.742 -0.8636 -0.1812  0.3645
  715MOL0     H98667   6.392   5.825   1.289  0.0068 -1.3238 -1.0303
  715MOL0     H98668   6.581   5.925   1.029  0.8606  0.1523  0.9953
  715MOL0     H98669   6.569   5.798   1.156 -1.5948 -1.2338  1.2981
  715MOL0     H98670   6.512   5.784   0.983 -0.1724  0.2900  0.3912
  716MOL0     O98671   9.558   7.979  10.307 -0.4276 -0.5681 -0.4217
  716MOL0     C98672   9.448   7.958  10.361  0.5689  0.2168  0.1960
  716MOL0     O98673   9.324   8.004  10.317 -0.3894  0.1510  0.2101
  716MOL0     C98674   9.309   8.061  10.193  0.2237  0.1206 -1.2266
  716MOL0     C98675   9.380   8.166  10.149 -0.7920  0.2122 -0.3743
  716MOL0     C98676   9.341   8.243  10.040  0.6271 -0.7552 -0.0262
  716MOL0     C98677   9.237   8.205   9.955  0.8196  0.8413 -0.6915
  716MOL0     O98678   9.202   8.269   9.837  0.4124  0.6962 -0.4695
  716MOL0     C98679   9.286   8.370   9.797  0.2168  0.0562  0.0705
  716MOL0     C98680   9.250   8.444   9.674 -0.0023 -0.2858  0.6168
  716MOL0     C98681   9.221   8.352   9.544  0.2566 -0.3186 -0.0473
  716MOL0     C98682   9.332   8.258   9.512  0.2356  0.4136  0.5950
  716MOL0     C98683   9.300   8.175   9.393 -0.7384 -0.3872 -0.0728
  716MOL0     C98684   9.393   8.047   9.381  0.6205  0.3242  0.1636
  716MOL0     C98685   9.345   7.948   9.270 -0.8626 -0.2262  0.2419
  716MOL0     C98686   9.441   7.949   9.145  0.7337 -0.2707  0.2151
  716MOL0     N98687   9.369   7.899   9.030 -0.2120 -0.5409  0.2331
  716MOL0     C98688   9.303   7.982   8.938  0.1942 -0.4426 -0.6195
  716MOL0     C98689   9.247   7.896   8.850  0.1212  0.1095 -0.3654
  716MOL0     C98690   9.158   7.942   8.736  0.7834 -0.2196 -0.3453
  716MOL0     C98691   9.006   7.920   8.765 -1.1948  0.2514 -0.2556
  716MOL0     C98692   8.910   8.001   8.682  0.4414  0.0954 -0.1843
  716MOL0     C98693   8.762   7.943   8.694 -0.0512  0.5288  0.7928
  716MOL0     O98694   8.743   7.885   8.824  0.9356 -0.3544 -0.6498
  716MOL0     C98695   8.643   7.798   8.831  0.2090 -0.0405 -0.8377
  716MOL0     C98696   8.530   7.792   8.748 -0.2507  0.8533 -0.3195
  716MOL0     C98697   8.438   7.687   8.768  0.5108  0.6424  0.6750
  716MOL0     C98698   8.307   7.690   8.685  0.1928  0.2923  0.2402
  716MOL0     C98699   8.450   7.594   8.877 -0.0244 -0.2265  0.5068
  716MOL0     C98700   8.349   7.478   8.905 -0.3060 -1.0962  0.3629
  716MOL0     O98701   8.262   7.450   8.804 -0.1866 -0.0713 -0.4036
  716MOL0     C98702   8.125   7.464   8.825 -1.0163 -1.0476 -0.5855
  716MOL0     C98703   8.042   7.382   8.745  0.6548 -0.6701 -0.3790
  716MOL0     C98704   7.904   7.393   8.751 -0.1955  0.6381  0.1585
  716MOL0     C98705   7.841   7.470   8.851 -0.2992  0.6764 -0.2111
  716MOL0     O98706   7.706   7.486   8.858  0.1981  1.1137 -0.5638
  716MOL0     C98707   7.645   7.493   8.991 -0.7310 -0.6679 -0.4390
  716MOL0     C98708   7.501   7.489   9.009 -0.0406 -0.0754  0.5374
  716MOL0     C98709   7.421   7.582   8.914  0.0501 -0.2865  0.3731
  716MOL0     C98710   7.283   7.590   8.968  0.7297  0.0909 -0.6791
  716MOL0     C98711   7.167   7.604   8.866 -0.1768  0.8983 -0.4209
  716MOL0     C98712   7.125   7.469   8.805 -0.3329 -0.5318 -0.1527
  716MOL0     C98713   7.012   7.481   8.694  0.4414  0.1010  0.2040
  716MOL0     C98714   7.083   7.433   8.557 -0.5655  0.3755 -0.7706
  716MOL0    Cl98715   6.989   7.459   8.407  0.0988 -0.3483  0.5090
  716MOL0     C98716   7.929   7.551   8.929  1.1485 -0.6251  0.4148
  716MOL0     C98717   8.061   7.551   8.914 -0.5857 -0.3140 -0.3674
  716MOL0     O98718   8.351   7.417   9.007  0.3677 -0.8216  0.1528
  716MOL0     C98719   8.561   7.612   8.963  0.7533 -0.1726 -0.5401
  716MOL0     C98720   8.659   7.702   8.938 -0.4333 -1.1558  1.1175
  716MOL0     N98721   9.274   7.761   8.877  0.4043 -0.5659 -0.8027
  716MOL0     N98722   9.349   7.768   8.990  0.0917  0.5229  0.1872
  716MOL0     C98723   9.172   8.084   9.993  0.0578  0.2484 -0.2957
  716MOL0     C98724   9.198   8.016  10.117 -0.1683 -0.2352 -0.7171
  716MOL0     C98725   9.436   7.875  10.490 -0.4150  1.0947 -0.4431
  716MOL0     C98726   9.315   7.886  10.570 -0.4094  0.0719 -0.2184
  716MOL0     C98727   9.299   7.810  10.691  0.4882  0.5654  0.4106
  716MOL0     C98728   9.399   7.730  10.740  0.2380 -0.3718 -1.0584
  716MOL0     O98729   9.373   7.662  10.856  0.5170  0.3241  0.6117
  716MOL0     C98730   9.421   7.522  10.870  0.0306  0.2978  0.8773
  716MOL0     C98731   9.315   7.427  10.910  0.1006 -0.9013 -0.1035
  716MOL0     C98732   9.321   7.300  10.824 -0.1923  0.0997 -0.6943
  716MOL0     C98733   9.203   7.216  10.858  0.6997  0.2943 -0.6977
  716MOL0     C98734   9.070   7.268  10.819 -0.6628 -0.2779  0.0110
  716MOL0     C98735   8.970   7.328  10.776 -0.3123 -1.6083 -1.0615
  716MOL0     C98736   9.523   7.722  10.663 -0.2061  0.2488 -1.4157
  716MOL0     C98737   9.540   7.795  10.543  1.1984 -0.0439  0.2928
  716MOL0     C98738   9.669   7.764  10.463  0.2118 -0.7077 -0.0219
  716MOL0     H98739   9.469   8.186  10.207 -0.8199  0.4609 -0.4149
  716MOL0     H98740   9.393   8.336  10.022 -3.9481  2.8635  3.1230
  716MOL0     H98741   9.389   8.332   9.792  0.4911 -0.3771  4.9230
  716MOL0     H98742   9.307   8.445   9.873  1.8351  0.7984 -1.0420
  716MOL0     H98743   9.168   8.513   9.693  0.9564  1.5124 -1.3608
  716MOL0     H98744   9.334   8.511   9.654 -0.5612  1.8392  4.5477
  716MOL0     H98745   9.128   8.295   9.551  0.9280 -1.3762  0.5719
  716MOL0     H98746   9.215   8.423   9.461  1.0557  0.4549  0.5286
  716MOL0     H98747   9.424   8.313   9.492  0.1124  0.1114 -0.8737
  716MOL0     H98748   9.347   8.185   9.593 -1.3491 -0.3897  0.2044
  716MOL0     H98749   9.307   8.237   9.304 -0.4089  1.8336  1.4114
  716MOL0     H98750   9.195   8.144   9.390 -0.9543  0.3920 -1.0272
  716MOL0     H98751   9.497   8.082   9.376  1.0893  0.2043  4.7924
  716MOL0     H98752   9.396   7.988   9.473 -0.1258 -0.6261 -0.3977
  716MOL0     H98753   9.242   7.957   9.235 -0.2427  3.0817 -1.1290
  716MOL0     H98754   9.338   7.852   9.321  1.1501 -1.3804 -1.4698
  716MOL0     H98755   9.473   8.051   9.123 -2.3929  0.2936 -2.4701
  716MOL0     H98756   9.532   7.888   9.154 -0.8334 -2.5022  2.1190
  716MOL0     H98757   9.286   8.089   8.932 -0.9849 -0.4529  1.5755
  716MOL0     H98758   9.178   7.892   8.641 -1.9069 -0.9596 -0.6134
  716MOL0     H98759   9.170   8.049   8.717 -1.6976  0.3121  0.6704
  716MOL0     H98760   8.985   7.813   8.758  2.1589 -0.4857 -0.9987
  716MOL0     H98761   8.993   7.935   8.872  1.4209  1.0965  0.0247
  716MOL0     H98762   8.907   8.108   8.706  1.0892  0.3076 -0.9918
  716MOL0     H98763   8.944   7.974   8.582  0.1942  1.4524 -0.6491
  716MOL0     H98764   8.698   8.030   8.677  0.5013  0.4758 -1.9560
  716MOL0     H98765   8.746   7.877   8.608  0.3906  3.0359 -1.3319
  716MOL0     H98766   8.528   7.862   8.665  2.1922  3.5623  1.7323
  716MOL0     H98767   8.216   7.700   8.745  0.6465 -1.4205  1.3023
  716MOL0     H98768   8.304   7.613   8.606 -1.1543  2.7854 -2.3498
  716MOL0     H98769   8.318   7.769   8.610  3.0634 -2.1570 -2.1624
  716MOL0     H98770   8.078   7.317   8.666  0.8506 -1.1952  0.1379
  716MOL0     H98771   7.844   7.337   8.679  0.7055  1.6531 -1.4506
  716MOL0     H98772   7.691   7.413   9.049  0.5660 -1.1125 -2.0098
  716MOL0     H98773   7.671   7.593   9.028  4.0197 -2.0961  0.8104
  716MOL0     H98774   7.474   7.383   9.013 -0.8697  0.0927 -0.1535
  716MOL0     H98775   7.486   7.534   9.108 -0.7181 -0.9017  0.8220
  716MOL0     H98776   7.436   7.550   8.811  0.9392 -1.0469  0.7171
  716MOL0     H98777   7.457   7.685   8.908 -1.1761  0.0826 -1.0124
  716MOL0     H98778   7.275   7.673   9.040  1.5864  1.1782 -1.8030
  716MOL0     H98779   7.250   7.501   9.022 -1.9570  1.1789 -0.3228
  716MOL0     H98780   7.091   7.648   8.932  3.1323  1.8167  3.0829
  716MOL0     H98781   7.184   7.676   8.785 -0.4851 -0.1500 -1.4494
  716MOL0     H98782   7.084   7.401   8.881 -0.6403  1.3602  1.4325
  716MOL0     H98783   7.213   7.433   8.751 -1.1843  0.2532 -2.1847
  716MOL0     H98784   6.988   7.587   8.700  1.5738  0.3039  4.2519
  716MOL0     H98785   6.921   7.426   8.719  0.5713 -0.2724 -0.1299
  716MOL0     H98786   7.095   7.325   8.575  1.2948  0.9024  1.8237
  716MOL0     H98787   7.177   7.489   8.552  1.1413 -1.8999  2.0201
  716MOL0     H98788   7.888   7.624   8.998  0.5083 -1.7941  1.2936
  716MOL0     H98789   8.123   7.612   8.979 -3.5876  0.9827  1.4864
  716MOL0     H98790   8.572   7.544   9.047  0.0133  2.6475  2.0710
  716MOL0     H98791   8.754   7.699   8.989 -0.2407 -1.3095  0.7526
  716MOL0     H98792   9.092   8.046   9.931 -2.7697  1.6603  2.2044
  716MOL0     H98793   9.137   7.934  10.153 -2.0542  2.7848  3.9631
  716MOL0     H98794   9.238   7.955  10.538  0.3590  1.3463  0.5898
  716MOL0     H98795   9.207   7.805  10.748 -0.0718  1.6421 -0.3672
  716MOL0     H98796   9.462   7.492  10.773 -0.2304 -0.4951  1.0068
  716MOL0     H98797   9.507   7.510  10.937  0.3474 -0.9120  0.2757
  716MOL0     H98798   9.224   7.486  10.898  0.3439 -0.7087 -1.1127
  716MOL0     H98799   9.325   7.402  11.016 -0.1366  2.5444  0.8608
  716MOL0     H98800   9.326   7.307  10.715  0.3239 -1.5581 -0.8017
  716MOL0     H98801   9.413   7.245  10.843  0.2451  1.2461  0.6565
  716MOL0     H98802   9.211   7.210  10.967  2.4843  3.5008 -0.5011
  716MOL0     H98803   9.223   7.119  10.814 -0.7025  0.2962 -1.3832
  716MOL0     H98804   8.896   7.381  10.719 -1.3092 -2.2878 -0.4232
  716MOL0     H98805   9.605   7.662  10.699  0.8149  1.1703 -2.1328
  716MOL0     H98806   9.639   7.743  10.359  3.2169  1.1631 -1.4044
  716MOL0     H98807   9.731   7.854  10.466 -1.9145  1.0758 -3.5862
  716MOL0     H98808   9.727   7.684  10.511 -2.7328 -2.6749  0.5042
  717MOL0     O98809   3.262   2.975  10.262 -0.4847  0.2883  0.8228
  717MOL0     C98810   3.149   3.014  10.236  0.0043 -0.1326 -0.3123
  717MOL0     O98811   3.116   3.141  10.198 -0.4001 -0.4843  1.0884
  717MOL0     C98812   3.223   3.233  10.192 -0.6435  0.3714 -0.4187
  717MOL0     C98813   3.299   3.272  10.309  0.8256 -0.3811  0.7612
  717MOL0     C98814   3.401   3.364  10.304 -0.0701  0.7400 -0.1979
  717MOL0     C98815   3.430   3.429  10.191 -0.1667 -0.7957  0.5201
  717MOL0     O98816   3.529   3.529  10.163 -0.3297  0.2848 -0.4385
  717MOL0     C98817   3.573   3.613  10.268  0.6546 -0.0686 -0.2354
  717MOL0     C98818   3.677   3.704  10.214  0.2262 -0.2411 -1.1293
  717MOL0     C98819   3.614   3.805  10.117  1.1807  0.7400 -0.7969
  717MOL0     C98820   3.720   3.850  10.015 -0.0340  0.1612 -0.7585
  717MOL0     C98821   3.675   3.971   9.925  0.4865 -0.2404 -0.3856
  717MOL0     C98822   3.788   4.013   9.837  0.2292  0.3155 -0.1459
  717MOL0     C98823   3.746   4.131   9.745 -0.4409  0.0906 -1.2295
  717MOL0     C98824   3.803   4.139   9.605 -0.1552 -0.0430 -0.3173
  717MOL0     N98825   3.951   4.159   9.624 -0.0585 -0.6292  0.1754
  717MOL0     C98826   4.002   4.277   9.667 -0.4086 -0.3813 -0.5054
  717MOL0     C98827   4.129   4.255   9.680  0.7237  0.4231  0.6582
  717MOL0     C98828   4.243   4.355   9.715 -0.3179  0.6748 -0.3135
  717MOL0     C98829   4.317   4.403   9.593  0.1136 -0.3855  0.4362
  717MOL0     C98830   4.425   4.302   9.545  0.1321 -0.5394 -0.6233
  717MOL0     C98831   4.534   4.383   9.471 -0.2395 -0.2801  0.1852
  717MOL0     O98832   4.622   4.452   9.558 -0.4193 -0.7739 -1.0838
  717MOL0     C98833   4.723   4.538   9.517  0.0230 -0.4161  0.0036
  717MOL0     C98834   4.806   4.601   9.620  0.0949 -0.8293  0.0993
  717MOL0     C98835   4.898   4.696   9.577  0.1708 -0.1761  0.0774
  717MOL0     C98836   4.939   4.790   9.683  0.4281 -0.5718 -0.9795
  717MOL0     C98837   4.927   4.716   9.440 -0.1427 -0.6177 -0.4036
  717MOL0     C98838   5.013   4.820   9.383 -0.7805 -0.0979  0.3043
  717MOL0     O98839   5.107   4.760   9.299  0.2366  0.1652  0.1627
  717MOL0     C98840   5.217   4.831   9.259  0.4416 -0.3133  0.1009
  717MOL0     C98841   5.276   4.947   9.317  0.0343  0.0569 -0.9576
  717MOL0     C98842   5.387   5.007   9.269  0.4602 -0.2560 -0.3266
  717MOL0     C98843   5.451   4.948   9.155 -0.2459 -0.6042 -0.3780
  717MOL0     O98844   5.565   4.988   9.103  0.2385  0.0819 -0.0646
  717MOL0     C98845   5.626   5.107   9.122  0.7937 -0.0666  0.2771
  717MOL0     C98846   5.713   5.161   9.009  1.0080  0.1555 -0.0867
  717MOL0     C98847   5.632   5.188   8.885  0.1513  0.2747  0.5292
  717MOL0     C98848   5.721   5.209   8.765  0.1382  0.3680 -0.1980
  717MOL0     C98849   5.664   5.151   8.640  0.1319  0.6044  0.1521
  717MOL0     C98850   5.718   5.227   8.518 -0.3673  0.3277  0.2713
  717MOL0     C98851   5.692   5.145   8.395 -0.4586  0.4799  0.4210
  717MOL0     C98852   5.626   5.220   8.281 -0.4133 -1.0152 -0.0311
  717MOL0    Cl98853   5.621   5.089   8.155  0.5276 -0.2395 -0.0670
  717MOL0     C98854   5.399   4.834   9.099 -0.1348  0.7141  0.2122
  717MOL0     C98855   5.283   4.778   9.151 -0.5254 -0.4244 -0.6573
  717MOL0     O98856   4.960   4.930   9.365  0.1640  0.1183 -0.4788
  717MOL0     C98857   4.862   4.651   9.339  1.1353 -0.3586  0.4009
  717MOL0     C98858   4.755   4.569   9.380 -0.1836  0.3067 -0.3672
  717MOL0     N98859   4.163   4.124   9.649  0.2101  0.8732  0.3476
  717MOL0     N98860   4.056   4.071   9.598  0.6640  1.1188 -1.1411
  717MOL0     C98861   3.347   3.403  10.076  0.2096 -0.6810  0.0723
  717MOL0     C98862   3.252   3.296  10.071  0.6887 -0.1002 -0.8817
  717MOL0     C98863   3.053   2.913  10.248 -0.1276 -0.2671 -0.1087
  717MOL0     C98864   2.924   2.954  10.293 -0.3686  0.8380  0.4759
  717MOL0     C98865   2.812   2.866  10.317 -0.4616 -0.0808  0.0603
  717MOL0     C98866   2.831   2.731  10.281  1.2438  0.1971  0.2166
  717MOL0     O98867   2.722   2.648  10.297 -0.2182  0.2573  0.0194
  717MOL0     C98868   2.697   2.542  10.206  0.2901  0.9508 -0.5988
  717MOL0     C98869   2.683   2.591  10.060  0.9310  0.5415  0.1340
  717MOL0     C98870   2.572   2.710  10.047  0.5173  1.2808  0.0219
  717MOL0     C98871   2.604   2.795   9.923 -0.6324  1.2219  0.6236
  717MOL0     C98872   2.726   2.875   9.925  0.8246  0.9180  0.1022
  717MOL0     C98873   2.831   2.939   9.947 -0.1506 -0.1466  0.5048
  717MOL0     C98874   2.957   2.690  10.231  0.3769 -0.0417 -0.5781
  717MOL0     C98875   3.070   2.773  10.233 -0.2481 -0.2660  0.2385
  717MOL0     C98876   3.197   2.700  10.209 -0.7256 -0.3789  0.7258
  717MOL0     H98877   3.267   3.230  10.403 -1.4110  1.1000  0.7364
  717MOL0     H98878   3.461   3.379  10.393 -2.0187 -0.6948  1.4618
  717MOL0     H98879   3.618   3.546  10.342  0.5637 -4.3764 -3.7005
  717MOL0     H98880   3.490   3.673  10.307  0.9236  0.6286 -0.7045
  717MOL0     H98881   3.712   3.760  10.301  0.3690 -1.6511 -0.2547
  717MOL0     H98882   3.761   3.661  10.159 -0.6075 -0.2749 -2.4243
  717MOL0     H98883   3.531   3.757  10.064 -0.6278  2.0098  0.7237
  717MOL0     H98884   3.580   3.883  10.186  1.8744  0.6803 -0.3780
  717MOL0     H98885   3.811   3.878  10.070  1.8289 -0.8088 -3.1717
  717MOL0     H98886   3.746   3.762   9.955 -0.6185 -0.3978 -0.2109
  717MOL0     H98887   3.647   4.050   9.996 -2.3009 -1.0188 -0.5085
  717MOL0     H98888   3.581   3.942   9.877 -1.4554  1.1448  2.3067
  717MOL0     H98889   3.871   4.037   9.905  2.0078  0.7734 -2.3622
  717MOL0     H98890   3.821   3.928   9.776  0.9982 -1.0809  2.0726
  717MOL0     H98891   3.770   4.231   9.784  1.7510 -0.2446 -1.5618
  717MOL0     H98892   3.638   4.114   9.746 -0.3935 -0.5278  1.5315
  717MOL0     H98893   3.788   4.042   9.557 -0.2557 -0.7145  1.0129
  717MOL0     H98894   3.756   4.219   9.547  1.9649  1.1027 -0.5498
  717MOL0     H98895   3.939   4.364   9.684 -1.2584 -0.7996 -1.4561
  717MOL0     H98896   4.310   4.295   9.777 -0.5007  0.2382 -0.5286
  717MOL0     H98897   4.208   4.444   9.768 -0.6439 -0.2822  1.1301
  717MOL0     H98898   4.253   4.431   9.509 -0.8081 -4.0345 -0.2214
  717MOL0     H98899   4.364   4.497   9.625  0.5808 -0.2040 -0.7140
  717MOL0     H98900   4.479   4.255   9.627  1.5215 -1.1982 -1.8623
  717MOL0     H98901   4.364   4.227   9.494 -0.6892  0.9713 -1.9944
  717MOL0     H98902   4.598   4.319   9.410 -1.1169 -0.2003 -0.8592
  717MOL0     H98903   4.480   4.451   9.404 -2.5018 -1.2422  0.9183
  717MOL0     H98904   4.802   4.579   9.726 -1.9531  0.8272  0.4367
  717MOL0     H98905   4.893   4.764   9.779  1.0716  1.8954  0.0496
  717MOL0     H98906   4.912   4.893   9.661  0.4189 -0.3784 -0.0682
  717MOL0     H98907   5.046   4.788   9.704  0.4786  1.9647 -0.6982
  717MOL0     H98908   5.251   4.986   9.415  3.9049 -2.8963  1.5200
  717MOL0     H98909   5.426   5.093   9.323 -1.3115  0.1396  0.3956
  717MOL0     H98910   5.564   5.191   9.157  0.8374 -0.3630  1.1037
  717MOL0     H98911   5.688   5.099   9.212  2.0279 -1.8104 -0.6740
  717MOL0     H98912   5.752   5.257   9.043 -1.3107  0.5705  1.6427
  717MOL0     H98913   5.796   5.091   8.994  2.5211  1.3557  2.0492
  717MOL0     H98914   5.575   5.281   8.889  1.5507  1.2328 -0.5384
  717MOL0     H98915   5.567   5.103   8.863  0.2195  0.6096 -1.0653
  717MOL0     H98916   5.811   5.155   8.795 -1.2484 -0.7606  2.3651
  717MOL0     H98917   5.723   5.318   8.753 -5.9537  0.8893  0.3092
  717MOL0     H98918   5.689   5.044   8.641  0.0293  0.4832  4.1123
  717MOL0     H98919   5.556   5.168   8.639  0.5245  3.7628 -0.8510
  717MOL0     H98920   5.826   5.247   8.517 -0.2653 -0.2088 -0.6737
  717MOL0     H98921   5.668   5.324   8.513 -3.1959 -1.0099  0.4786
  717MOL0     H98922   5.639   5.049   8.406 -1.7036  0.9499 -1.0615
  717MOL0     H98923   5.790   5.117   8.356 -1.1132 -1.0311 -0.2397
  717MOL0     H98924   5.680   5.311   8.250  1.1372 -2.1025 -0.6574
  717MOL0     H98925   5.524   5.237   8.317 -1.2902 -1.2635 -2.2128
  717MOL0     H98926   5.444   4.779   9.017  0.7089  1.8361 -0.1026
  717MOL0     H98927   5.259   4.684   9.102  2.5079 -1.1924 -0.9089
  717MOL0     H98928   4.889   4.679   9.238 -1.2438  1.0536  0.0681
  717MOL0     H98929   4.721   4.513   9.293 -0.1382  0.5105 -0.5165
  717MOL0     H98930   3.346   3.472   9.992 -2.1106  2.2681  2.2975
  717MOL0     H98931   3.192   3.287   9.981  3.2790  0.4091 -2.7910
  717MOL0     H98932   2.909   3.061  10.305 -2.7165  0.4483  1.4969
  717MOL0     H98933   2.716   2.893  10.360 -0.8088 -2.5548  1.0441
  717MOL0     H98934   2.780   2.470  10.204  1.3760  2.1087 -4.1478
  717MOL0     H98935   2.598   2.502  10.234  1.8360 -1.4109  2.1077
  717MOL0     H98936   2.648   2.515   9.989  0.5501  1.6124 -0.8479
  717MOL0     H98937   2.783   2.618  10.025  1.2649 -2.3949 -1.4851
  717MOL0     H98938   2.472   2.664  10.046  1.0672 -0.0278  1.4408
  717MOL0     H98939   2.576   2.773  10.136  0.0666 -3.3071  3.6578
  717MOL0     H98940   2.513   2.851   9.899 -2.3035 -0.3875  2.7600
  717MOL0     H98941   2.620   2.729   9.838 -3.1845  0.1902  0.8545
  717MOL0     H98942   2.921   2.994   9.963  0.0650  0.2273 -1.6306
  717MOL0     H98943   2.970   2.589  10.194  1.1860  0.0885 -0.6549
  717MOL0     H98944   3.224   2.716  10.104  2.2790 -2.0107  1.1203
  717MOL0     H98945   3.286   2.740  10.259 -0.6702  0.0353  0.2985
  717MOL0     H98946   3.190   2.591  10.218 -2.0546 -0.5459 -1.6583
  718MOL0     O98947  10.107   4.952   3.520 -0.1367  0.3541 -0.4043
  718MOL0     C98948  10.046   4.983   3.622 -1.1253  0.4563 -0.3554
  718MOL0     O98949   9.931   5.056   3.628  0.3925  0.9407  0.2896
  718MOL0     C98950   9.901   5.166   3.560 -0.6303  0.0223 -0.0712
  718MOL0     C98951   9.956   5.204   3.439 -0.0658  0.2782  0.9625
  718MOL0     C98952   9.920   5.323   3.383 -0.1054 -0.1518 -0.0819
  718MOL0     C98953   9.823   5.406   3.443  0.1707 -1.5671 -0.2022
  718MOL0     O98954   9.773   5.527   3.400  0.4067 -0.2306  0.0987
  718MOL0     C98955   9.840   5.598   3.287  0.2908  0.3244  0.0474
  718MOL0     C98956   9.772   5.732   3.272 -0.5141 -0.2977  0.4650
  718MOL0     C98957   9.803   5.808   3.141  0.6113  1.5013  0.9997
  718MOL0     C98958   9.752   5.948   3.126  0.1526 -0.6091 -0.1712
  718MOL0     C98959   9.830   6.060   3.197 -0.1239  0.7782  0.0678
  718MOL0     C98960   9.766   6.189   3.237  0.0939 -0.0181 -0.1991
  718MOL0     C98961   9.866   6.288   3.309 -0.2112  0.0080  0.4904
  718MOL0     C98962   9.794   6.403   3.382 -0.1258 -0.6862 -0.7744
  718MOL0     N98963   9.670   6.454   3.323  0.1859  1.0665  0.0031
  718MOL0     C98964   9.660   6.538   3.214  0.3106 -0.1337 -0.4564
  718MOL0     C98965   9.540   6.581   3.199 -0.1980  0.9905  0.5361
  718MOL0     C98966   9.491   6.682   3.101 -0.1702  0.3984 -0.2695
  718MOL0     C98967   9.381   6.774   3.153  0.4607  0.2965 -0.0949
  718MOL0     C98968   9.327   6.877   3.042 -0.1744  0.1193 -0.8394
  718MOL0     C98969   9.438   6.957   2.979  0.5132  0.1733  1.1189
  718MOL0     O98970   9.500   6.874   2.883  0.7712 -1.1135  0.5939
  718MOL0     C98971   9.640   6.893   2.865 -0.2529  1.0596  0.6363
  718MOL0     C98972   9.694   7.018   2.863 -0.3683  0.5806 -0.4525
  718MOL0     C98973   9.836   7.031   2.833  1.1689 -0.8364  0.1398
  718MOL0     C98974   9.888   7.167   2.835  0.1912 -0.0334 -1.3504
  718MOL0     C98975   9.910   6.919   2.799 -0.1684 -0.3182 -0.7578
  718MOL0     C98976  10.049   6.920   2.749 -0.1667  0.1533  0.1097
  718MOL0     O98977  10.132   6.818   2.794 -0.7085 -0.7411 -0.5564
  718MOL0     C98978  10.255   6.808   2.740 -0.3341 -0.4471 -0.6195
  718MOL0     C98979  10.350   6.915   2.726 -0.4200  0.5941 -0.6877
  718MOL0     C98980  10.472   6.893   2.670 -0.5340  0.2556 -0.0239
  718MOL0     C98981  10.498   6.767   2.614  1.0688 -0.4380  0.3160
  718MOL0     O98982  10.598   6.753   2.531 -0.0763  0.3637 -0.1530
  718MOL0     C98983  10.561   6.743   2.393  0.3025  0.0324  0.2402
  718MOL0     C98984  10.608   6.607   2.347  1.0336  0.2976  0.3733
  718MOL0     C98985  10.589   6.586   2.194 -1.2300  0.0481 -0.0715
  718MOL0     C98986  10.691   6.648   2.102 -0.2459 -0.8199  0.2568
  718MOL0     C98987  10.645   6.606   1.962  0.0741 -0.1276  0.3175
  718MOL0     C98988  10.752   6.624   1.854  0.6812  0.3127 -1.0367
  718MOL0     C98989  10.705   6.613   1.710 -0.3242  1.1795 -0.4629
  718MOL0     C98990  10.644   6.739   1.656 -0.1098  0.1511 -0.4414
  718MOL0    Cl98991  10.777   6.842   1.586  0.2013  0.3705  0.2851
  718MOL0     C98992  10.416   6.659   2.634  0.2233  0.2310 -0.2422
  718MOL0     C98993  10.287   6.679   2.698 -0.0559 -0.8184  0.3790
  718MOL0     O98994  10.079   7.003   2.663  0.6753 -0.2758  0.0207
  718MOL0     C98995   9.856   6.785   2.822  0.2336 -0.1801  0.7225
  718MOL0     C98996   9.718   6.778   2.842 -0.0679 -0.4264  0.2888
  718MOL0     N98997   9.468   6.522   3.303  0.0205  0.9296  0.3565
  718MOL0     N98998   9.549   6.442   3.374  0.6345 -0.3675  0.0100
  718MOL0     C98999   9.761   5.361   3.563  0.0434  0.4768 -0.4144
  718MOL0     C99000   9.798   5.237   3.619  0.0324 -0.7467 -0.9239
  718MOL0     C99001  10.109   4.911   3.746 -0.3112  0.1773 -0.0936
  718MOL0     C99002  10.024   4.888   3.851 -0.2525  0.6138 -0.4288
  718MOL0     C99003  10.065   4.824   3.964  0.0786  0.4313 -0.7934
  718MOL0     C99004  10.195   4.777   3.985 -0.7855  1.1895 -0.6684
  718MOL0     O99005  10.242   4.710   4.110 -0.8352 -0.3312  0.1858
  718MOL0     C99006  10.383   4.684   4.122  1.4219  0.5471 -1.0733
  718MOL0     C99007  10.416   4.615   4.253 -1.4609 -0.1033 -0.0617
  718MOL0     C99008  10.344   4.467   4.265 -0.7089 -0.2886 -0.6017
  718MOL0     C99009  10.226   4.462   4.349 -0.0711  0.7512 -0.2743
  718MOL0     C99010  10.094   4.495   4.286  0.4618  0.1526  0.8138
  718MOL0     C99011   9.986   4.515   4.225 -0.4256 -0.5131  0.6014
  718MOL0     C99012  10.281   4.824   3.885 -0.3844  0.5741 -0.1924
  718MOL0     C99013  10.244   4.876   3.762 -0.4285 -0.1636  0.1967
  718MOL0     C99014  10.350   4.918   3.671 -0.0596  0.5842 -0.3454
  718MOL0     H99015  10.023   5.136   3.389 -3.2935 -3.2471  0.9513
  718MOL0     H99016   9.963   5.364   3.292 -1.7218  1.2602 -0.2763
  718MOL0     H99017   9.834   5.538   3.195 -0.5518 -1.9014  1.4641
  718MOL0     H99018   9.945   5.611   3.317  0.6847  0.0306 -1.1474
  718MOL0     H99019   9.666   5.704   3.268  0.1371 -2.9424 -1.9578
  718MOL0     H99020   9.792   5.796   3.358  2.3375 -2.0788  1.2300
  718MOL0     H99021   9.912   5.814   3.130  0.5892  0.0900 -0.3675
  718MOL0     H99022   9.749   5.750   3.066  0.4422  1.2184  1.3377
  718MOL0     H99023   9.731   5.985   3.025 -2.9288 -0.7217  0.3166
  718MOL0     H99024   9.653   5.933   3.171  0.9022 -0.6396  1.5654
  718MOL0     H99025   9.916   6.084   3.134  1.4007 -1.1742  1.2814
  718MOL0     H99026   9.876   6.018   3.287  0.2279  2.3223  0.6495
  718MOL0     H99027   9.735   6.242   3.146  2.3976  0.4368 -0.8001
  718MOL0     H99028   9.681   6.162   3.300 -0.8749 -1.4879 -2.0423
  718MOL0     H99029   9.932   6.333   3.233  4.0412 -1.5278  2.9309
  718MOL0     H99030   9.935   6.241   3.380 -2.2886 -0.2726  2.4028
  718MOL0     H99031   9.757   6.369   3.479 -1.9445  0.3394 -1.0612
  718MOL0     H99032   9.864   6.484   3.406 -0.4500  0.0602 -2.2024
  718MOL0     H99033   9.736   6.566   3.141 -2.0655 -1.2791 -3.6160
  718MOL0     H99034   9.465   6.632   3.007  0.8103  0.9770 -0.8786
  718MOL0     H99035   9.584   6.732   3.070 -0.0593  1.2899  1.3600
  718MOL0     H99036   9.298   6.707   3.181  0.4009 -0.8714 -2.7765
  718MOL0     H99037   9.412   6.830   3.241  1.5038  0.1229 -0.3473
  718MOL0     H99038   9.255   6.835   2.971 -0.0297 -0.5183 -0.6198
  718MOL0     H99039   9.266   6.937   3.110  1.9769  1.5289 -0.0183
  718MOL0     H99040   9.391   7.040   2.926 -1.9719 -1.5407  0.4623
  718MOL0     H99041   9.506   6.987   3.059  2.0718 -1.7210  0.5772
  718MOL0     H99042   9.629   7.104   2.873 -1.8313 -0.3889 -1.2372
  718MOL0     H99043   9.818   7.217   2.903  0.1285 -1.4926 -0.2977
  718MOL0     H99044   9.885   7.217   2.738 -1.1757  2.1592 -0.2574
  718MOL0     H99045   9.989   7.170   2.877 -0.4764 -1.5858  0.5378
  718MOL0     H99046  10.327   7.020   2.746 -0.1026  1.2239 -3.2904
  718MOL0     H99047  10.557   6.958   2.648  1.5901 -2.0415  0.8734
  718MOL0     H99048  10.454   6.757   2.373  0.9021  2.7950 -1.6011
  718MOL0     H99049  10.618   6.815   2.334  0.5271 -1.9072 -2.0664
  718MOL0     H99050  10.713   6.592   2.372  1.4854 -1.8833 -2.2765
  718MOL0     H99051  10.550   6.529   2.399 -1.7331  1.4738 -0.7519
  718MOL0     H99052  10.487   6.617   2.173 -1.2817  0.2784  0.5058
  718MOL0     H99053  10.595   6.479   2.169  1.2717  0.5730 -2.1831
  718MOL0     H99054  10.794   6.609   2.107 -0.0943 -0.7842 -1.7386
  718MOL0     H99055  10.712   6.754   2.116  1.6456 -0.8985 -1.4419
  718MOL0     H99056  10.611   6.502   1.958  1.3397 -0.5403 -1.6648
  718MOL0     H99057  10.560   6.659   1.920 -1.5100 -1.8785  1.1918
  718MOL0     H99058  10.831   6.549   1.859 -0.2842 -0.6298  1.5979
  718MOL0     H99059  10.796   6.724   1.860 -3.7879  2.4605  1.4651
  718MOL0     H99060  10.620   6.544   1.707  1.5780 -1.3906  1.0828
  718MOL0     H99061  10.796   6.591   1.654 -0.2441  3.0871 -1.1466
  718MOL0     H99062  10.596   6.789   1.741 -1.1831 -0.8017 -0.4655
  718MOL0     H99063  10.566   6.711   1.585 -0.3333  0.3221 -0.2661
  718MOL0     H99064  10.447   6.569   2.582 -0.0825  0.6479 -1.1686
  718MOL0     H99065  10.215   6.598   2.697  3.2017 -3.9291  1.0272
  718MOL0     H99066   9.907   6.690   2.809  0.0028 -0.5073  2.0458
  718MOL0     H99067   9.665   6.684   2.856 -1.0428  0.3258  1.9092
  718MOL0     H99068   9.693   5.421   3.623  0.6394 -0.3027  1.0992
  718MOL0     H99069   9.756   5.199   3.711 -2.0285  2.8570 -0.1954
  718MOL0     H99070   9.919   4.913   3.842 -0.0242  0.8365 -3.1367
  718MOL0     H99071   9.998   4.806   4.048 -2.6392  2.4927 -2.3456
  718MOL0     H99072  10.409   4.621   4.036  0.2742  0.3983 -1.3286
  718MOL0     H99073  10.445   4.773   4.115  1.2100  0.6449 -1.7839
  718MOL0     H99074  10.374   4.671   4.337 -1.7462 -1.7310  0.9224
  718MOL0     H99075  10.525   4.618   4.259 -1.2328  2.7995 -2.9350
  718MOL0     H99076  10.317   4.434   4.164  2.5662  1.2794 -2.1347
  718MOL0     H99077  10.412   4.402   4.320  0.9709  0.3422 -1.8408
  718MOL0     H99078  10.231   4.520   4.442 -5.1124 -0.1079  0.8133
  718MOL0     H99079  10.224   4.359   4.385  0.1425  0.4842 -1.0006
  718MOL0     H99080   9.898   4.518   4.165  0.2662 -0.6035 -0.4628
  718MOL0     H99081  10.388   4.814   3.896 -0.1123 -0.9725 -3.2484
  718MOL0     H99082  10.445   4.943   3.718  0.3479 -0.9013 -0.3406
  718MOL0     H99083  10.368   4.837   3.600  0.7204  2.4864 -2.4224
  718MOL0     H99084  10.325   5.006   3.611 -0.9456 -1.1993 -2.7266
  719MOL0     O99085   8.882   2.448   9.385 -0.3197  0.2311  0.7727
  719MOL0     C99086   8.768   2.415   9.403 -0.1906 -0.3621  0.0862
  719MOL0     O99087   8.711   2.297   9.353 -0.1536  0.0210  0.1445
  719MOL0     C99088   8.784   2.228   9.263 -0.1616 -0.6987  1.3905
  719MOL0     C99089   8.801   2.092   9.298 -0.6874  0.4295  0.8548
  719MOL0     C99090   8.855   2.004   9.205  0.2287 -0.2589 -0.0786
  719MOL0     C99091   8.900   2.041   9.081 -0.8405 -0.3181 -0.7178
  719MOL0     O99092   8.948   1.941   8.994 -0.8429 -0.1531  0.2850
  719MOL0     C99093   8.943   1.971   8.852  0.1833  0.6211  0.2986
  719MOL0     C99094   8.963   1.835   8.770 -0.4330  0.2871  0.4061
  719MOL0     C99095   8.913   1.849   8.615  0.1502  0.3012  0.6542
  719MOL0     C99096   8.977   1.957   8.531 -0.6112  0.1423 -0.5282
  719MOL0     C99097   8.903   1.984   8.395  0.0684  0.4195 -0.2578
  719MOL0     C99098   9.018   2.015   8.297 -0.6057  0.0408  0.1175
  719MOL0     C99099   8.965   2.023   8.151 -0.0558 -0.3534 -0.1028
  719MOL0     C99100   8.873   2.141   8.118  0.1461 -0.1218 -0.4005
  719MOL0     N99101   8.853   2.174   7.973 -0.2423 -0.4918 -0.1600
  719MOL0     C99102   8.840   2.082   7.862 -0.1336  0.1032 -0.2460
  719MOL0     C99103   8.877   2.145   7.748  0.2886  0.4336  0.4509
  719MOL0     C99104   8.865   2.104   7.604  0.2004 -0.3849  0.2643
  719MOL0     C99105   8.722   2.050   7.576  0.4890  0.1230 -0.0439
  719MOL0     C99106   8.705   2.011   7.426 -0.1960  0.9339 -0.1113
  719MOL0     C99107   8.756   1.865   7.385  0.0382 -0.7435  0.8751
  719MOL0     O99108   8.748   1.822   7.252  0.0507 -0.4212  0.6070
  719MOL0     C99109   8.637   1.770   7.191 -0.4950  0.1335 -0.2059
  719MOL0     C99110   8.520   1.735   7.268 -0.3777 -0.0738  0.3573
  719MOL0     C99111   8.402   1.683   7.211  0.1741 -0.8229 -0.4824
  719MOL0     C99112   8.295   1.645   7.310 -0.0741  0.2366  0.5196
  719MOL0     C99113   8.404   1.667   7.066 -0.8524  0.2149 -1.5153
  719MOL0     C99114   8.294   1.625   6.987  0.7014  0.1471 -0.2300
  719MOL0     O99115   8.321   1.570   6.868  0.3476  0.7602 -0.7588
  719MOL0     C99116   8.251   1.458   6.822  0.1636 -0.3730 -0.4204
  719MOL0     C99117   8.325   1.345   6.782 -0.3022 -0.8907  0.9783
  719MOL0     C99118   8.269   1.232   6.726  0.0343 -0.6818  0.0194
  719MOL0     C99119   8.131   1.227   6.701 -0.1336  0.6410  0.3793
  719MOL0     O99120   8.076   1.116   6.647  0.3010  0.1657  0.4899
  719MOL0     C99121   7.956   1.117   6.574  0.2705  0.1669  0.7064
  719MOL0     C99122   7.988   1.036   6.438  0.0000 -0.6039  0.3403
  719MOL0     C99123   7.877   1.022   6.337 -0.5548 -0.3007 -0.1398
  719MOL0     C99124   7.931   0.951   6.207 -0.1387  0.0039 -1.3206
  719MOL0     C99125   7.825   0.925   6.102  0.2437  0.8273  0.5884
  719MOL0     C99126   7.886   0.897   5.969 -0.1922 -0.0428  1.0204
  719MOL0     C99127   7.781   0.835   5.871  0.0704  0.4610  0.6415
  719MOL0     C99128   7.834   0.821   5.729  0.3447  0.3962 -0.4181
  719MOL0    Cl99129   7.723   0.728   5.614  0.2757  0.3044 -0.1625
  719MOL0     C99130   8.059   1.341   6.738  0.2575 -0.4985 -0.2358
  719MOL0     C99131   8.109   1.458   6.790  0.0283  0.1822 -0.1520
  719MOL0     O99132   8.182   1.632   7.048  0.6580 -0.0957  0.6728
  719MOL0     C99133   8.524   1.694   6.994  0.5225  1.1141  0.4541
  719MOL0     C99134   8.635   1.744   7.054 -0.0052  0.2507  0.6459
  719MOL0     N99135   8.922   2.274   7.785 -0.6798  0.0249  0.3660
  719MOL0     N99136   8.908   2.287   7.918 -0.2014  0.0369  0.9511
  719MOL0     C99137   8.891   2.182   9.048 -1.0507 -0.3667  0.2750
  719MOL0     C99138   8.831   2.276   9.134  0.1498 -0.1561 -0.6022
  719MOL0     C99139   8.675   2.512   9.474 -0.4246 -0.1066  0.0064
  719MOL0     C99140   8.535   2.499   9.461 -0.4681 -0.2663 -0.5723
  719MOL0     C99141   8.451   2.594   9.527  0.1525 -0.7274 -0.3595
  719MOL0     C99142   8.501   2.683   9.613  0.4830 -0.2278  0.0101
  719MOL0     O99143   8.427   2.779   9.678  0.2142 -0.0508  0.4892
  719MOL0     C99144   8.306   2.732   9.741 -0.6784 -0.7031 -0.1971
  719MOL0     C99145   8.359   2.677   9.870  0.9793 -0.3312 -1.0898
  719MOL0     C99146   8.253   2.678   9.985  0.2955  0.1831  0.4150
  719MOL0     C99147   8.314   2.677  10.125  0.3736 -0.6635  0.0124
  719MOL0     C99148   8.204   2.676  10.218  0.0105 -0.3136 -0.0423
  719MOL0     C99149   8.121   2.681  10.304  1.0047 -0.7049 -0.5561
  719MOL0     C99150   8.635   2.684   9.641  0.7161  0.1612  0.9139
  719MOL0     C99151   8.720   2.605   9.568 -0.1281 -0.6297  0.0606
  719MOL0     C99152   8.867   2.601   9.619 -0.6117  0.4419 -0.9498
  719MOL0     H99153   8.739   2.058   9.381 -3.2319  1.2128 -0.5992
  719MOL0     H99154   8.833   1.904   9.239 -1.5051  1.2968  4.0799
  719MOL0     H99155   9.023   2.034   8.813 -1.1774  1.1703 -1.7848
  719MOL0     H99156   8.839   1.994   8.826 -0.5774 -2.9101 -0.2767
  719MOL0     H99157   9.070   1.812   8.769 -0.5252 -0.1587  0.1768
  719MOL0     H99158   8.903   1.751   8.808 -1.1124  0.2635 -0.6673
  719MOL0     H99159   8.945   1.763   8.555 -0.4990  1.2700 -1.1755
  719MOL0     H99160   8.803   1.851   8.616  0.0478 -1.1107 -1.5400
  719MOL0     H99161   8.960   2.052   8.583  2.0766  0.2133  0.3456
  719MOL0     H99162   9.083   1.932   8.527 -1.2182 -2.6437 -1.6547
  719MOL0     H99163   8.822   2.055   8.416 -1.7177 -2.0516  1.9653
  719MOL0     H99164   8.850   1.893   8.364 -1.6659  1.3250 -0.0833
  719MOL0     H99165   9.057   2.113   8.325 -1.7519  0.4287  0.4521
  719MOL0     H99166   9.088   1.931   8.307  0.4413  0.6029 -2.0457
  719MOL0     H99167   8.912   1.933   8.119  0.9174 -1.9983  2.5457
  719MOL0     H99168   9.051   2.029   8.083  0.3067  0.0982  0.3840
  719MOL0     H99169   8.780   2.113   8.168  1.0446 -2.8707 -0.0814
  719MOL0     H99170   8.918   2.232   8.159  1.3850 -1.0663  0.4098
  719MOL0     H99171   8.801   1.981   7.867  1.9175 -0.7497 -0.4661
  719MOL0     H99172   8.924   2.013   7.587 -2.2642 -2.2117  0.8590
  719MOL0     H99173   8.898   2.196   7.555  3.0522  1.6985  5.3397
  719MOL0     H99174   8.695   1.956   7.626  1.8090  0.7577  1.9947
  719MOL0     H99175   8.644   2.122   7.604 -0.9065 -1.3564  0.0684
  719MOL0     H99176   8.600   2.025   7.399 -0.2688  1.6466  0.4852
  719MOL0     H99177   8.759   2.082   7.362  2.6296 -2.0942 -1.3752
  719MOL0     H99178   8.862   1.859   7.412  0.4276 -0.3503 -0.5222
  719MOL0     H99179   8.706   1.793   7.450  3.4783 -2.7496  1.6005
  719MOL0     H99180   8.519   1.762   7.373  0.0927  3.8102 -0.4751
  719MOL0     H99181   8.217   1.721   7.310 -0.9779 -0.5932 -1.5256
  719MOL0     H99182   8.321   1.621   7.413  1.8023 -0.5084 -0.0671
  719MOL0     H99183   8.257   1.547   7.279  1.5125 -0.2740  0.0542
  719MOL0     H99184   8.433   1.344   6.792  0.1998  0.4774 -2.8303
  719MOL0     H99185   8.325   1.147   6.688  0.1820 -0.8384  0.5707
  719MOL0     H99186   7.881   1.077   6.643  2.6992 -2.2614  2.1321
  719MOL0     H99187   7.933   1.221   6.552  3.2339  0.2857 -2.6929
  719MOL0     H99188   8.075   1.090   6.398 -0.5272  2.1319  2.5913
  719MOL0     H99189   8.014   0.934   6.469  1.2146 -0.4256 -0.0120
  719MOL0     H99190   7.849   1.126   6.317 -2.6590 -0.8119 -0.1363
  719MOL0     H99191   7.784   0.975   6.371  0.0928 -1.0419  0.6776
  719MOL0     H99192   7.964   0.857   6.253 -1.3737  0.6331  0.9691
  719MOL0     H99193   8.015   1.004   6.161 -0.7601  1.0752 -1.2539
  719MOL0     H99194   7.754   0.846   6.127  3.4882 -2.8322 -0.7767
  719MOL0     H99195   7.760   1.012   6.092  1.6762  1.7459 -1.3270
  719MOL0     H99196   7.974   0.831   5.974 -1.6042 -2.2826 -1.2707
  719MOL0     H99197   7.939   0.986   5.933 -0.7546  0.7860  2.1710
  719MOL0     H99198   7.690   0.895   5.865 -1.1078 -1.3442 -0.3576
  719MOL0     H99199   7.766   0.729   5.894 -2.0665  0.1277 -1.8118
  719MOL0     H99200   7.931   0.772   5.717  0.6282  0.9303 -0.3463
  719MOL0     H99201   7.848   0.925   5.700 -0.9328  1.2391  1.7200
  719MOL0     H99202   7.952   1.342   6.722  0.6146  1.4854 -3.4441
  719MOL0     H99203   8.043   1.540   6.817  0.3703  0.0802  1.0509
  719MOL0     H99204   8.524   1.695   6.885  4.7000  2.2032  0.2801
  719MOL0     H99205   8.722   1.760   6.992 -0.5719  0.4268 -0.1301
  719MOL0     H99206   8.922   2.224   8.952  0.6093 -1.5359  0.2531
  719MOL0     H99207   8.807   2.377   9.100 -0.3433  0.1877  0.7090
  719MOL0     H99208   8.482   2.424   9.404 -2.3044 -0.3123  1.0756
  719MOL0     H99209   8.344   2.591   9.509 -0.2754 -0.5515  1.9219
  719MOL0     H99210   8.245   2.820   9.763  0.2972  0.4952 -1.9766
  719MOL0     H99211   8.252   2.654   9.685  2.5497 -1.9012 -1.9038
  719MOL0     H99212   8.448   2.731   9.904  1.4081 -0.7231 -1.5699
  719MOL0     H99213   8.395   2.576   9.851  1.0105 -0.4795 -0.2755
  719MOL0     H99214   8.193   2.769   9.975  0.7013  0.4823  0.7045
  719MOL0     H99215   8.187   2.591   9.971  0.3200  0.0372  1.1754
  719MOL0     H99216   8.383   2.761  10.139 -2.5674  2.3161 -1.7630
  719MOL0     H99217   8.371   2.585  10.138 -0.2534 -1.4087 -2.0038
  719MOL0     H99218   8.051   2.675  10.386 -2.5044  1.7305 -3.1069
  719MOL0     H99219   8.683   2.749   9.713  0.0065  1.0793  0.5657
  719MOL0     H99220   8.878   2.637   9.721  0.6553 -4.7193  1.0370
  719MOL0     H99221   8.908   2.501   9.632 -1.6892  0.2263  1.1653
  719MOL0     H99222   8.928   2.666   9.555 -0.9776 -0.8425 -2.6954
  720MOL0     O99223   3.312   8.544   0.611  0.4610 -0.7059  0.7635
  720MOL0     C99224   3.423   8.573   0.559 -0.6065  1.1255  0.6238
  720MOL0     O99225   3.462   8.692   0.524 -0.5782  0.3064 -0.5368
  720MOL0     C99226   3.364   8.781   0.508  0.2754  0.2487  0.9449
  720MOL0     C99227   3.305   8.807   0.382 -0.1841  0.3572 -0.2453
  720MOL0     C99228   3.197   8.893   0.371  0.8695  0.5498  0.2356
  720MOL0     C99229   3.133   8.946   0.487 -0.8721  0.5965 -0.1354
  720MOL0     O99230   3.025   9.028   0.475  0.3845 -0.5248  0.6547
  720MOL0     C99231   2.907   8.999   0.557  1.0254  0.1395  0.3558
  720MOL0     C99232   2.825   9.127   0.550 -0.4090 -0.6048  0.2770
  720MOL0     C99233   2.689   9.131   0.608  0.8999  0.7107 -0.1030
  720MOL0     C99234   2.631   9.277   0.608 -0.4784  0.3308 -0.7848
  720MOL0     C99235   2.489   9.286   0.658 -0.8568 -0.3778  0.4137
  720MOL0     C99236   2.436   9.428   0.619 -0.7802  0.0719 -1.0046
  720MOL0     C99237   2.497   9.542   0.707  0.6705 -0.3363  0.8129
  720MOL0     C99238   2.397   9.653   0.741 -0.8758 -0.4305 -0.2594
  720MOL0     N99239   2.469   9.773   0.796 -0.6778 -0.1226  0.1946
  720MOL0     C99240   2.519   9.875   0.717 -0.3427  1.0984  0.0506
  720MOL0     C99241   2.589   9.955   0.812 -1.0869  0.4324 -1.2552
  720MOL0     C99242   2.681  10.080   0.783  0.8464  0.4328 -0.3693
  720MOL0     C99243   2.790  10.099   0.894 -0.0435 -0.8766  0.3190
  720MOL0     C99244   2.874  10.226   0.852 -0.0010 -0.0274 -0.2105
  720MOL0     C99245   2.980  10.246   0.964 -1.0776 -0.7787  0.1016
  720MOL0     O99246   2.915  10.290   1.082 -0.9693  0.5808 -0.2441
  720MOL0     C99247   2.954  10.225   1.199 -1.0275 -0.1231  0.0571
  720MOL0     C99248   2.883  10.107   1.238  0.0914  0.1140 -0.5928
  720MOL0     C99249   2.929  10.049   1.358  0.0414  0.0077 -0.3966
  720MOL0     C99250   2.837   9.938   1.403 -0.4290 -0.1829 -1.0906
  720MOL0     C99251   3.028  10.110   1.438 -0.1435  1.1321 -0.9214
  720MOL0     C99252   3.061  10.076   1.582  0.3331  0.1832  0.4128
  720MOL0     O99253   3.175  10.138   1.639  0.6407 -0.2239  0.1370
  720MOL0     C99254   3.211  10.087   1.755 -0.1616  0.1162  0.9364
  720MOL0     C99255   3.265   9.960   1.773 -0.3857 -0.3591 -0.0931
  720MOL0     C99256   3.274   9.895   1.894 -0.6118 -0.5434  0.3097
  720MOL0     C99257   3.238   9.960   2.013  0.6070 -1.1155 -0.0243
  720MOL0     O99258   3.240   9.882   2.127  0.2422 -1.0002 -0.2606
  720MOL0     C99259   3.238   9.947   2.255  0.0834  0.4951  0.5197
  720MOL0     C99260   3.216   9.850   2.383  0.2218  0.5575  0.3238
  720MOL0     C99261   3.335   9.758   2.405 -0.3775 -0.9444 -0.2529
  720MOL0     C99262   3.297   9.610   2.434  0.5747 -0.1845 -0.3789
  720MOL0     C99263   3.411   9.516   2.407 -0.3180  1.2909  0.1473
  720MOL0     C99264   3.362   9.365   2.442 -0.5118  0.0028  0.3938
  720MOL0     C99265   3.405   9.325   2.588 -0.0445 -0.7292 -0.0855
  720MOL0     C99266   3.555   9.300   2.575 -0.1142  0.5145  0.0040
  720MOL0    Cl99267   3.591   9.281   2.751 -0.3400  0.1179  0.6818
  720MOL0     C99268   3.202  10.101   2.004 -0.2157  0.4157 -0.3676
  720MOL0     C99269   3.190  10.157   1.877 -0.1781 -0.1158 -0.2726
  720MOL0     O99270   2.982  10.003   1.642 -0.5018  0.3838  1.0234
  720MOL0     C99271   3.101  10.218   1.382 -0.1229 -0.1413  0.8710
  720MOL0     C99272   3.069  10.276   1.267  0.5000 -0.1402 -0.1023
  720MOL0     N99273   2.564   9.899   0.937 -0.0387 -0.5685  0.2092
  720MOL0     N99274   2.489   9.796   0.925 -0.4836 -0.9994  0.1752
  720MOL0     C99275   3.194   8.925   0.610  0.0144  0.5309 -0.3481
  720MOL0     C99276   3.306   8.849   0.614 -0.1593  1.0610  0.1298
  720MOL0     C99277   3.513   8.452   0.541  0.1994 -0.3734 -0.4494
  720MOL0     C99278   3.482   8.329   0.613  0.5765  0.6042  0.0880
  720MOL0     C99279   3.549   8.211   0.584  0.8194 -0.0819 -0.4503
  720MOL0     C99280   3.633   8.206   0.478 -0.2298  0.8215  0.4619
  720MOL0     O99281   3.699   8.098   0.429  0.1266  0.0527 -0.0153
  720MOL0     C99282   3.646   7.966   0.457  0.5479  0.0408  0.5173
  720MOL0     C99283   3.719   7.847   0.388  0.3051 -0.0841  1.2231
  720MOL0     C99284   3.651   7.711   0.426 -0.0955  0.5035  0.5709
  720MOL0     C99285   3.710   7.574   0.391 -0.3210  0.1064  0.8992
  720MOL0     C99286   3.605   7.470   0.397 -0.6914 -0.6698 -0.5051
  720MOL0     C99287   3.528   7.380   0.427 -0.5426  0.3626 -0.6297
  720MOL0     C99288   3.677   8.322   0.420 -0.7574 -0.4626 -0.1738
  720MOL0     C99289   3.616   8.447   0.458 -0.6292  0.2399  0.0066
  720MOL0     C99290   3.706   8.558   0.414 -0.2764 -0.4931  0.0882
  720MOL0     H99291   3.350   8.781   0.287  0.6866  2.4193 -0.4523
  720MOL0     H99292   3.153   8.918   0.275  0.0374  1.1176  0.7487
  720MOL0     H99293   2.929   8.984   0.663  0.5393  2.4538  0.8357
  720MOL0     H99294   2.858   8.916   0.505  0.1933  1.5082 -1.1365
  720MOL0     H99295   2.881   9.215   0.584  1.0687 -1.1097 -0.7504
  720MOL0     H99296   2.810   9.138   0.442 -0.1010 -0.5645  0.2397
  720MOL0     H99297   2.621   9.072   0.547 -2.8498  2.1580  2.3134
  720MOL0     H99298   2.700   9.099   0.712  0.1025  2.3466  0.5186
  720MOL0     H99299   2.698   9.350   0.654  0.1211 -0.9119  0.4123
  720MOL0     H99300   2.624   9.294   0.500  1.0587 -1.7632 -1.2795
  720MOL0     H99301   2.479   9.266   0.765  1.3036  4.8857  1.9158
  720MOL0     H99302   2.423   9.214   0.609 -0.9439  0.7065 -1.1393
  720MOL0     H99303   2.460   9.451   0.514  0.4540  0.7938 -0.5902
  720MOL0     H99304   2.327   9.430   0.621 -0.8741 -2.4592 -0.5177
  720MOL0     H99305   2.569   9.593   0.642 -0.4353  1.0803  0.6332
  720MOL0     H99306   2.541   9.499   0.798  1.2595 -0.9455  0.2504
  720MOL0     H99307   2.338   9.663   0.650 -1.0642 -0.6964 -0.1696
  720MOL0     H99308   2.324   9.611   0.811  0.9549 -0.9899  1.4284
  720MOL0     H99309   2.501   9.905   0.614  1.4419  0.4478 -0.4938
  720MOL0     H99310   2.624  10.171   0.759 -2.5884 -1.9485 -2.0673
  720MOL0     H99311   2.736  10.054   0.693  2.3636  1.9203  0.0829
  720MOL0     H99312   2.739  10.117   0.989  0.7726  1.3032  0.4076
  720MOL0     H99313   2.852  10.010   0.907 -1.0076 -2.0355 -2.3525
  720MOL0     H99314   2.916  10.209   0.752  1.6172  2.6584 -0.0828
  720MOL0     H99315   2.819  10.320   0.840 -3.1003 -1.8391 -1.4442
  720MOL0     H99316   3.037  10.153   0.973 -3.1068 -2.5055 -2.9559
  720MOL0     H99317   3.053  10.324   0.942  1.8709 -3.1144  0.9716
  720MOL0     H99318   2.802  10.069   1.176 -0.1498  1.9787 -1.4884
  720MOL0     H99319   2.776   9.962   1.491 -1.6363 -2.2726 -1.2992
  720MOL0     H99320   2.883   9.841   1.421  0.9590  0.9017  2.0863
  720MOL0     H99321   2.763   9.917   1.326  1.5808  1.5518 -3.6645
  720MOL0     H99322   3.288   9.904   1.683 -0.8195  3.1256 -2.5531
  720MOL0     H99323   3.317   9.795   1.899 -1.0796 -0.7070  1.3204
  720MOL0     H99324   3.337   9.993   2.264  0.6675  0.7515 -4.6325
  720MOL0     H99325   3.155  10.018   2.251 -1.0671 -0.7571 -4.6889
  720MOL0     H99326   3.199   9.919   2.466 -0.1824  0.6524  0.1666
  720MOL0     H99327   3.124   9.792   2.369  0.2619  0.5583  0.0624
  720MOL0     H99328   3.409   9.791   2.478  0.0606 -2.3384 -0.0381
  720MOL0     H99329   3.401   9.753   2.318  4.6393 -2.6069  3.1976
  720MOL0     H99330   3.217   9.575   2.368 -2.4435  0.3062  2.7320
  720MOL0     H99331   3.260   9.596   2.536  2.6507  2.0787  0.8034
  720MOL0     H99332   3.442   9.510   2.302 -1.5839  3.1667 -0.3916
  720MOL0     H99333   3.490   9.548   2.475 -0.9589  0.0118  1.5356
  720MOL0     H99334   3.408   9.289   2.377  0.8377  1.3109 -0.2367
  720MOL0     H99335   3.254   9.354   2.426 -0.4636 -1.1173  0.7344
  720MOL0     H99336   3.349   9.235   2.612 -1.9104  0.0051 -1.4733
  720MOL0     H99337   3.385   9.401   2.665  0.3175  2.1843 -2.6925
  720MOL0     H99338   3.611   9.387   2.540 -1.8494  1.3457 -0.8650
  720MOL0     H99339   3.580   9.211   2.516 -1.1607 -1.6131  2.5902
  720MOL0     H99340   3.180  10.155   2.096  0.7429  0.6790 -0.2791
  720MOL0     H99341   3.154  10.258   1.861 -1.3983 -0.6332 -0.8971
  720MOL0     H99342   3.181  10.266   1.437  1.0322 -0.1752 -0.7151
  720MOL0     H99343   3.134  10.351   1.222 -0.5841  0.4796 -0.6752
  720MOL0     H99344   3.167   8.974   0.703 -1.0310 -3.0751  1.4215
  720MOL0     H99345   3.340   8.821   0.713 -0.4001  2.3930  0.6013
  720MOL0     H99346   3.404   8.313   0.687  1.4419 -1.6816  0.5820
  720MOL0     H99347   3.527   8.119   0.637  2.2331 -0.2494 -0.1019
  720MOL0     H99348   3.641   7.938   0.563 -3.4843 -2.3117 -0.0903
  720MOL0     H99349   3.538   7.977   0.438  0.1387 -1.1367  1.9778
  720MOL0     H99350   3.826   7.853   0.408  1.0089  2.2558 -2.3728
  720MOL0     H99351   3.707   7.856   0.280 -0.6977  3.2475  1.4975
  720MOL0     H99352   3.634   7.716   0.534 -0.3259 -1.7244  0.6854
  720MOL0     H99353   3.550   7.705   0.383 -0.4876 -0.9688  1.6081
  720MOL0     H99354   3.801   7.547   0.445 -0.4514  0.2996  1.2233
  720MOL0     H99355   3.755   7.580   0.292 -0.9187  0.8879  0.6681
  720MOL0     H99356   3.464   7.295   0.434 -0.5910 -0.0091 -3.8674
  720MOL0     H99357   3.753   8.294   0.348 -1.2399  0.1592 -0.9393
  720MOL0     H99358   3.742   8.611   0.502 -3.4616 -0.5051  1.5488
  720MOL0     H99359   3.793   8.518   0.360 -0.3601 -3.0557  1.6484
  720MOL0     H99360   3.653   8.630   0.351 -1.4099 -2.3668 -1.2472
  721MOL0     O99361   9.956   0.216  10.029  0.0959  0.1435 -0.1572
  721MOL0     C99362   9.933   0.097  10.020 -0.4494 -0.0179 -0.5458
  721MOL0     O99363   9.919   0.024   9.905  0.4428 -0.2588  0.7869
  721MOL0     C99364   9.929   0.081   9.777 -0.3120 -0.2058 -0.4524
  721MOL0     C99365   9.976  -0.006   9.676 -0.7739 -1.1077  0.1844
  721MOL0     C99366   9.992   0.040   9.540  0.0882 -0.0710 -0.6047
  721MOL0     C99367   9.951   0.171   9.507  1.1222 -0.4609 -0.9457
  721MOL0     O99368   9.946   0.203   9.375 -0.6930 -0.2695  0.7294
  721MOL0     C99369   9.932   0.107   9.262 -0.4022  0.5474 -0.5007
  721MOL0     C99370   9.921   0.178   9.137 -0.5053  0.9091  0.2965
  721MOL0     C99371  10.039   0.150   9.041  0.5613 -0.3940 -0.0410
  721MOL0     C99372  10.178   0.216   9.071 -0.1396 -1.3268 -0.8475
  721MOL0     C99373  10.212   0.321   8.964  0.7528  0.7358 -0.0610
  721MOL0     C99374  10.130   0.451   9.007  0.9812 -0.7150 -0.3378
  721MOL0     C99375  10.196   0.563   8.939 -1.0653 -0.8597  0.1139
  721MOL0     C99376  10.133   0.699   8.983  0.4567  0.8126 -0.1074
  721MOL0     N99377  10.168   0.787   8.877 -0.6482 -0.2700  0.1805
  721MOL0     C99378  10.257   0.895   8.896 -1.3271  0.3553 -0.0926
  721MOL0     C99379  10.237   0.960   8.780  0.5958  0.2406 -0.1004
  721MOL0     C99380  10.302   1.100   8.752 -0.3673 -0.6835 -0.2609
  721MOL0     C99381  10.302   1.119   8.594  0.7385 -0.3916 -0.1105
  721MOL0     C99382  10.334   1.268   8.556 -0.4232  0.0225  0.4640
  721MOL0     C99383  10.431   1.279   8.450 -1.1603 -1.4147 -0.1019
  721MOL0     O99384  10.413   1.411   8.383  0.1912 -1.0562  0.0256
  721MOL0     C99385  10.475   1.433   8.262  0.3056 -0.4189 -0.0344
  721MOL0     C99386  10.567   1.347   8.197  0.1424 -0.0012  1.0981
  721MOL0     C99387  10.642   1.392   8.093 -0.9117  0.7327  0.5362
  721MOL0     C99388  10.724   1.278   8.031  0.8358  0.0120  0.4045
  721MOL0     C99389  10.633   1.529   8.044  0.4542  0.5541 -0.5395
  721MOL0     C99390  10.736   1.581   7.949  0.3744 -0.2196  0.4280
  721MOL0     O99391  10.866   1.531   7.942  0.2944  0.2763 -0.0387
  721MOL0     C99392  10.952   1.605   7.871 -0.4117 -0.2241 -0.3588
  721MOL0     C99393  11.055   1.661   7.945  0.8709  0.4339 -0.7605
  721MOL0     C99394  11.168   1.723   7.890  0.4649 -0.2116 -1.1563
  721MOL0     C99395  11.162   1.758   7.755  0.2336  0.1119 -0.4352
  721MOL0     O99396  11.274   1.820   7.704  0.0108  0.0493  0.4264
  721MOL0     C99397  11.300   1.950   7.754 -0.7197 -0.7324 -0.9345
  721MOL0     C99398  11.381   2.038   7.651 -0.9488  0.7563  0.3416
  721MOL0     C99399  11.422   2.167   7.723 -0.7028 -0.6337  1.0256
  721MOL0     C99400  11.315   2.277   7.711 -0.1395 -0.0022 -0.0803
  721MOL0     C99401  11.367   2.414   7.765 -0.2587  0.5319 -0.1567
  721MOL0     C99402  11.307   2.533   7.687  0.0236 -0.6231  0.1900
  721MOL0     C99403  11.359   2.665   7.748  0.7447 -0.8018 -0.4434
  721MOL0     C99404  11.507   2.687   7.762  0.5984 -0.0019  0.6983
  721MOL0    Cl99405  11.571   2.621   7.914  0.0104  0.0896 -0.2539
  721MOL0     C99406  11.068   1.692   7.678  0.1508 -1.0529  0.3875
  721MOL0     C99407  10.965   1.620   7.729 -0.5044  1.2958  0.0527
  721MOL0     O99408  10.694   1.686   7.901 -0.0634  0.0530 -0.5655
  721MOL0     C99409  10.513   1.596   8.084 -0.3500  0.5345 -0.5371
  721MOL0     C99410  10.442   1.557   8.198  0.4771  0.8810 -0.4513
  721MOL0     N99411  10.146   0.900   8.701 -0.7412 -0.7731 -0.6424
  721MOL0     N99412  10.098   0.796   8.763  0.1871 -0.2448  0.6863
  721MOL0     C99413   9.906   0.265   9.606 -0.6890  0.1312 -0.3779
  721MOL0     C99414   9.894   0.214   9.748 -0.7128  0.0183 -0.0823
  721MOL0     C99415   9.893   0.019  10.145  0.4891 -0.8675  0.1726
  721MOL0     C99416   9.873  -0.117  10.135 -1.3215  0.3071  0.2915
  721MOL0     C99417   9.863  -0.206  10.243  0.0253  0.8935  0.0527
  721MOL0     C99418   9.859  -0.154  10.369 -1.1591 -0.6848  0.0668
  721MOL0     O99419   9.849  -0.236  10.481 -0.0061  0.1487  0.5058
  721MOL0     C99420   9.970  -0.308  10.505  0.1572  0.8960 -1.2767
  721MOL0     C99421   9.990  -0.321  10.659 -0.2736 -0.1655 -0.6775
  721MOL0     C99422   9.998  -0.189  10.746 -0.1778 -0.7349 -0.1767
  721MOL0     C99423  10.135  -0.116  10.738  0.4452  0.2688 -0.3492
  721MOL0     C99424  10.186  -0.074  10.873  0.2828  0.0562  0.9324
  721MOL0     C99425  10.225  -0.023  10.970  0.1023 -0.8847  0.1009
  721MOL0     C99426   9.863  -0.014  10.389  0.8996  0.1168 -0.4087
  721MOL0     C99427   9.871   0.076  10.279 -0.2273  0.4044 -0.9552
  721MOL0     C99428   9.864   0.222  10.315  0.0468  0.2607 -0.1956
  721MOL0     H99429  10.008  -0.105   9.707 -0.4673 -1.1439 -0.2353
  721MOL0     H99430  10.008  -0.037   9.465 -3.1400 -2.0422  0.5292
  721MOL0     H99431   9.833   0.065   9.282  0.1305 -0.0942  0.8833
  721MOL0     H99432  10.002   0.023   9.260  0.0255  0.7958  1.8686
  721MOL0     H99433   9.829   0.134   9.095 -0.4954 -1.2537  2.3391
  721MOL0     H99434   9.927   0.285   9.157  1.1087  0.8804  0.1339
  721MOL0     H99435  10.051   0.042   9.049  0.4529 -0.3169  1.3919
  721MOL0     H99436  10.007   0.182   8.941  2.0842 -1.6885 -0.9805
  721MOL0     H99437  10.195   0.250   9.174 -0.7533 -1.8755 -0.5573
  721MOL0     H99438  10.255   0.140   9.058  3.7537  1.9508  0.8854
  721MOL0     H99439  10.184   0.283   8.865  1.0204  2.2619 -0.7508
  721MOL0     H99440  10.318   0.345   8.960  0.6403  1.0651 -3.4655
  721MOL0     H99441  10.026   0.439   8.975 -0.5646  3.7027  2.2541
  721MOL0     H99442  10.114   0.469   9.113 -3.1370  1.5498 -1.1206
  721MOL0     H99443  10.185   0.550   8.831 -1.0700  2.5606 -0.4108
  721MOL0     H99444  10.300   0.573   8.971 -1.9883  2.1560  2.8430
  721MOL0     H99445  10.024   0.684   8.980  0.8303 -2.9802  0.3008
  721MOL0     H99446  10.162   0.732   9.084 -1.8558  3.0262 -0.0742
  721MOL0     H99447  10.314   0.921   8.984  1.4503  2.7092 -2.3732
  721MOL0     H99448  10.406   1.090   8.784 -1.0761 -3.2386  1.6751
  721MOL0     H99449  10.242   1.174   8.804 -0.5436 -2.5948  2.5130
  721MOL0     H99450  10.374   1.054   8.542  2.3640  2.5663 -1.8306
  721MOL0     H99451  10.201   1.092   8.565 -0.7034  2.9050  1.2876
  721MOL0     H99452  10.238   1.310   8.524 -1.8323 -2.8621  0.6035
  721MOL0     H99453  10.363   1.326   8.644 -2.3296 -1.8060  2.4091
  721MOL0     H99454  10.535   1.278   8.485 -1.1818 -1.4640 -0.0403
  721MOL0     H99455  10.419   1.201   8.374 -3.0788 -2.1774  0.9000
  721MOL0     H99456  10.599   1.252   8.236 -1.7134 -2.3006 -2.3978
  721MOL0     H99457  10.831   1.283   8.051  0.8796 -2.6912  1.2622
  721MOL0     H99458  10.712   1.278   7.922 -1.7527  1.1064  0.6226
  721MOL0     H99459  10.680   1.181   8.056  1.4497 -0.0355  1.3602
  721MOL0     H99460  11.038   1.652   8.051 -0.6692  0.1265 -1.0132
  721MOL0     H99461  11.243   1.753   7.962  1.1994 -0.4972 -1.7922
  721MOL0     H99462  11.213   2.008   7.783 -1.2463 -2.7338  1.9606
  721MOL0     H99463  11.355   1.935   7.848 -1.4199  3.4997  0.3422
  721MOL0     H99464  11.475   1.991   7.623  0.1792  1.7572  2.2762
  721MOL0     H99465  11.322   2.057   7.561 -1.6148 -0.5069  0.4895
  721MOL0     H99466  11.507   2.194   7.659 -2.1350 -0.2483 -0.8030
  721MOL0     H99467  11.466   2.155   7.823 -0.2053 -0.6029  0.8130
  721MOL0     H99468  11.226   2.242   7.766  0.7391 -2.4944 -0.1121
  721MOL0     H99469  11.297   2.291   7.604  3.2084 -0.4987 -0.8144
  721MOL0     H99470  11.321   2.428   7.864 -2.1225 -1.1320 -0.7103
  721MOL0     H99471  11.476   2.410   7.774 -0.0833  5.1469  3.7535
  721MOL0     H99472  11.199   2.525   7.701 -0.4002  1.8836 -0.9313
  721MOL0     H99473  11.335   2.535   7.581 -2.1533  5.4968 -0.7133
  721MOL0     H99474  11.317   2.681   7.848  0.6651 -0.0138 -0.5929
  721MOL0     H99475  11.322   2.746   7.684 -0.5118 -0.7956  0.2673
  721MOL0     H99476  11.545   2.789   7.750  3.7911 -1.0487  0.9896
  721MOL0     H99477  11.550   2.631   7.679  1.0407  0.3421  0.6922
  721MOL0     H99478  11.088   1.693   7.571  0.4389  0.6076  0.4216
  721MOL0     H99479  10.895   1.568   7.665 -0.3199  1.9574 -0.7137
  721MOL0     H99480  10.493   1.700   8.061  1.4488  0.8156 -0.9911
  721MOL0     H99481  10.360   1.610   8.246 -0.0889 -0.8566  0.6033
  721MOL0     H99482   9.900   0.371   9.584  0.7260  0.7351  1.7817
  721MOL0     H99483   9.868   0.285   9.826  0.3843 -0.6420  0.9303
  721MOL0     H99484   9.890  -0.167  10.040 -0.6798  2.2444 -0.6837
  721MOL0     H99485   9.852  -0.313  10.230  1.8156  0.4662  1.6572
  721MOL0     H99486   9.954  -0.408  10.464  0.2276 -0.9270  2.6041
  721MOL0     H99487  10.050  -0.257  10.451  1.9472  0.7333  1.0555
  721MOL0     H99488  10.079  -0.381  10.680 -0.3274  0.6955  2.6870
  721MOL0     H99489   9.903  -0.368  10.705 -0.3549 -0.3510 -1.0191
  721MOL0     H99490   9.922  -0.117  10.714  0.2864  0.0828  0.5056
  721MOL0     H99491   9.971  -0.207  10.851 -0.3748  1.9529  0.2955
  721MOL0     H99492  10.133  -0.036  10.663  1.7706  1.0080  0.3683
  721MOL0     H99493  10.210  -0.184  10.697  1.4707  1.6817 -0.8899
  721MOL0     H99494  10.257   0.021  11.062 -4.0137 -0.6504  1.5900
  721MOL0     H99495   9.838   0.044  10.478 -0.0358  1.1218 -1.2944
  721MOL0     H99496   9.800   0.239  10.401 -1.7885 -1.7899 -1.0586
  721MOL0     H99497   9.960   0.273  10.325 -0.5070  0.8877  2.8874
  721MOL0     H99498   9.819   0.280  10.233  0.6866  0.1679 -0.6220
  722MOL0     O99499  10.774  10.809   5.392  0.5408  0.2152  0.5807
  722MOL0     C99500  10.879  10.743   5.377  0.0444  0.7518 -1.3423
  722MOL0     O99501  10.979  10.740   5.465 -0.5911 -0.6731 -0.3459
  722MOL0     C99502  10.963  10.806   5.590  0.2300  0.0427  0.2000
  722MOL0     C99503  11.075  10.884   5.636 -1.0906 -0.0275 -0.1758
  722MOL0     C99504  11.058  10.960   5.751 -0.8373  0.2765 -0.7019
  722MOL0     C99505  10.940  10.959   5.822  0.0209 -0.3853  0.3598
  722MOL0     O99506  10.933  11.018   5.939  0.1344 -0.1842 -0.0856
  722MOL0     C99507  11.005  11.140   5.963  0.9958  0.0769  0.2911
  722MOL0     C99508  10.949  11.191   6.097  0.9571 -0.1449 -0.2848
  722MOL0     C99509  10.801  11.220   6.108 -1.0225  0.4195 -0.5192
  722MOL0     C99510  10.750  11.309   5.997  0.4646  0.0788 -0.0078
  722MOL0     C99511  10.634  11.398   6.017  0.0561  0.3238 -0.1781
  722MOL0     C99512  10.510  11.329   6.078  0.0540  0.4446 -0.6914
  722MOL0     C99513  10.376  11.406   6.027 -0.0583  0.2234  0.5673
  722MOL0     C99514  10.369  11.556   6.066  0.3216 -0.0422  0.0852
  722MOL0     N99515  10.354  11.596   6.207  0.3006  0.4307 -0.3695
  722MOL0     C99516  10.277  11.530   6.304  0.8350 -0.5317 -0.5334
  722MOL0     C99517  10.260  11.623   6.403 -0.3991  0.0045 -1.5649
  722MOL0     C99518  10.153  11.634   6.519 -0.2098  0.2509  0.7311
  722MOL0     C99519  10.121  11.768   6.588  0.2624  0.0034  0.4643
  722MOL0     C99520  10.064  11.877   6.494 -0.2873 -0.1225  0.1417
  722MOL0     C99521   9.974  11.820   6.382  0.1107  0.2229 -0.2730
  722MOL0     O99522   9.841  11.785   6.431 -0.1845  0.4936  0.5878
  722MOL0     C99523   9.767  11.736   6.326 -0.6475 -0.2885 -0.7741
  722MOL0     C99524   9.739  11.817   6.221 -0.6214 -0.0424  0.2136
  722MOL0     C99525   9.668  11.770   6.103  0.7168 -0.0422  0.9779
  722MOL0     C99526   9.651  11.874   5.995  0.3256 -1.4136 -0.6126
  722MOL0     C99527   9.629  11.641   6.099  0.0823  0.8568  0.3356
  722MOL0     C99528   9.564  11.572   5.984 -0.0623 -0.5678  0.4943
  722MOL0     O99529   9.578  11.434   5.965  0.1576 -0.4375  0.5638
  722MOL0     C99530   9.499  11.372   5.876 -0.0697  0.1128  0.1487
  722MOL0     C99531   9.554  11.347   5.752 -0.1392 -0.4247  0.6770
  722MOL0     C99532   9.483  11.272   5.658 -0.6942 -0.4166  0.5353
  722MOL0     C99533   9.360  11.222   5.687  0.5037 -0.0834 -0.2839
  722MOL0     O99534   9.305  11.144   5.589 -0.6924  0.1322 -0.6315
  722MOL0     C99535   9.193  11.055   5.612  0.1819  1.0302 -0.0271
  722MOL0     C99536   9.127  11.005   5.485  0.9319  0.1340 -0.0539
  722MOL0     C99537   8.979  11.048   5.480  0.9493  0.0580 -0.1892
  722MOL0     C99538   8.898  10.930   5.417  0.1415 -0.3623  0.1744
  722MOL0     C99539   8.751  10.969   5.415 -0.0025 -1.0166 -0.3148
  722MOL0     C99540   8.674  10.856   5.333  0.3421  0.2422 -0.4009
  722MOL0     C99541   8.522  10.882   5.341 -0.7622 -0.1649  1.0813
  722MOL0     C99542   8.453  10.806   5.231  0.1682  0.0420 -1.2061
  722MOL0    Cl99543   8.484  10.638   5.278  0.3445  0.5715  0.1208
  722MOL0     C99544   9.304  11.247   5.816 -0.4599  0.5595 -0.4154
  722MOL0     C99545   9.376  11.318   5.912  0.1266 -0.0240 -0.5163
  722MOL0     O99546   9.499  11.651   5.909  0.1248  0.3844 -0.3260
  722MOL0     C99547   9.658  11.551   6.206  0.6749  0.2387  0.1295
  722MOL0     C99548   9.729  11.605   6.322  0.3897  1.0062 -0.9353
  722MOL0     N99549  10.331  11.736   6.364  0.4859 -0.8266 -0.5264
  722MOL0     N99550  10.389  11.712   6.249 -0.4659 -0.6200  0.2901
  722MOL0     C99551  10.830  10.895   5.776  0.2555 -0.2538  0.9464
  722MOL0     C99552  10.842  10.809   5.662 -0.8411 -0.3527  0.3587
  722MOL0     C99553  10.920  10.687   5.252  1.0304  0.3324  0.4845
  722MOL0     C99554  11.049  10.718   5.202 -0.4221 -1.0181  1.0745
  722MOL0     C99555  11.099  10.668   5.089  0.5493 -0.7191  0.1990
  722MOL0     C99556  11.035  10.567   5.015 -0.6856 -0.4973  0.2273
  722MOL0     O99557  11.094  10.512   4.909  0.7244 -0.3880 -0.4396
  722MOL0     C99558  11.017  10.444   4.816  0.6577  0.2272  0.4601
  722MOL0     C99559  11.024  10.286   4.841  0.7411  0.7468 -1.5662
  722MOL0     C99560  10.949  10.202   4.737 -0.2241  0.7243 -0.1010
  722MOL0     C99561  10.897  10.062   4.793 -0.7217 -0.4023  0.1371
  722MOL0     C99562  10.891   9.961   4.690  0.4256  0.6702 -0.1765
  722MOL0     C99563  10.904   9.879   4.604  0.0128 -0.1121  0.2856
  722MOL0     C99564  10.900  10.534   5.065 -0.6954  0.3640 -0.9891
  722MOL0     C99565  10.837  10.595   5.174 -0.5738  0.2753 -0.0394
  722MOL0     C99566  10.694  10.557   5.223 -0.1351  0.0783  0.0874
  722MOL0     H99567  11.173  10.879   5.591 -1.5595  1.0138 -1.3523
  722MOL0     H99568  11.152  10.990   5.797 -0.4650 -0.2826 -1.0841
  722MOL0     H99569  10.975  11.215   5.888  2.2035  0.6035  0.3153
  722MOL0     H99570  11.110  11.114   5.953  0.4427 -1.8530 -1.0008
  722MOL0     H99571  10.990  11.115   6.165 -0.8578 -0.9749 -0.0423
  722MOL0     H99572  11.002  11.284   6.116  0.1161  0.2965 -0.0273
  722MOL0     H99573  10.759  11.119   6.109  2.2941 -1.1254 -1.8176
  722MOL0     H99574  10.783  11.257   6.209  2.7547 -1.4793  1.0374
  722MOL0     H99575  10.826  11.373   5.952  0.7792 -0.0658  0.3152
  722MOL0     H99576  10.711  11.237   5.924 -0.9471 -0.5849  1.3283
  722MOL0     H99577  10.597  11.443   5.924  0.6779 -0.2162 -0.6994
  722MOL0     H99578  10.668  11.476   6.086 -1.7731  0.8041  0.2274
  722MOL0     H99579  10.513  11.223   6.051 -0.0814  1.0106 -3.2121
  722MOL0     H99580  10.518  11.319   6.186 -1.8719 -1.5817 -0.6522
  722MOL0     H99581  10.282  11.366   6.065  0.4502  0.5546  2.2177
  722MOL0     H99582  10.385  11.382   5.920 -0.8099 -3.5922  1.2308
  722MOL0     H99583  10.458  11.603   6.024 -0.5995  1.2294 -0.4962
  722MOL0     H99584  10.278  11.605   6.031  0.2987  0.6793  1.0933
  722MOL0     H99585  10.228  11.436   6.283 -0.0042 -0.6087  1.5147
  722MOL0     H99586  10.195  11.568   6.596  1.8948 -0.1159 -0.6326
  722MOL0     H99587  10.054  11.597   6.490 -0.4230  1.1522  0.2964
  722MOL0     H99588  10.045  11.747   6.664 -1.7680  1.5128 -1.0500
  722MOL0     H99589  10.210  11.807   6.639  0.3160  0.4098  0.0673
  722MOL0     H99590  10.028  11.955   6.561  0.4136  1.5843 -1.3782
  722MOL0     H99591  10.146  11.922   6.437  0.3077  1.2964  2.0177
  722MOL0     H99592   9.956  11.902   6.312 -2.3247  0.1552  0.1630
  722MOL0     H99593  10.016  11.734   6.329 -2.9950 -0.3335 -2.0949
  722MOL0     H99594   9.777  11.918   6.230 -0.4498 -0.1057  0.1989
  722MOL0     H99595   9.568  11.944   6.006  2.0154  0.4524  1.1524
  722MOL0     H99596   9.665  11.832   5.895  1.0982 -2.1457 -0.2110
  722MOL0     H99597   9.731  11.946   6.012 -0.5053 -0.4576 -0.6438
  722MOL0     H99598   9.653  11.386   5.731  0.8287 -2.1701  1.7919
  722MOL0     H99599   9.513  11.248   5.557 -1.6358 -2.4950  0.6896
  722MOL0     H99600   9.238  10.979   5.676  1.1902  1.2722 -0.4377
  722MOL0     H99601   9.120  11.111   5.672 -0.8596 -0.5110  0.2124
  722MOL0     H99602   9.180  11.042   5.397  0.7639 -0.4844 -0.4229
  722MOL0     H99603   9.136  10.896   5.483  0.5284  0.1007  0.0007
  722MOL0     H99604   8.967  11.142   5.425 -1.4887 -0.7632 -1.1820
  722MOL0     H99605   8.946  11.053   5.584  0.6789  4.4680 -0.2631
  722MOL0     H99606   8.906  10.834   5.468 -2.4413 -1.0210 -0.5154
  722MOL0     H99607   8.927  10.906   5.314  1.4559  0.6018  0.2846
  722MOL0     H99608   8.702  10.983   5.512 -0.1829  1.1525 -0.6634
  722MOL0     H99609   8.750  11.065   5.363  1.5378 -0.9794 -0.3245
  722MOL0     H99610   8.694  10.761   5.384  0.1576  0.4683  0.0998
  722MOL0     H99611   8.715  10.851   5.232  1.9518 -3.6505  0.2434
  722MOL0     H99612   8.505  10.988   5.321 -0.4761 -0.0412  1.4625
  722MOL0     H99613   8.483  10.869   5.443 -2.9358  0.7878  0.4365
  722MOL0     H99614   8.504  10.819   5.136  4.9663 -0.2731  1.0222
  722MOL0     H99615   8.346  10.825   5.216 -0.4608  2.5093  4.0496
  722MOL0     H99616   9.207  11.203   5.838  1.0230 -1.3630  3.1449
  722MOL0     H99617   9.343  11.341   6.012 -1.2500  1.9093 -1.3588
  722MOL0     H99618   9.626  11.447   6.212  0.9126  0.1766  0.3766
  722MOL0     H99619   9.742  11.537   6.405 -2.1283 -2.5969 -3.1901
  722MOL0     H99620  10.735  10.887   5.829  0.8785  1.3591  2.4143
  722MOL0     H99621  10.758  10.745   5.634 -0.4316  0.1736 -2.3436
  722MOL0     H99622  11.112  10.786   5.258  0.4584 -0.5000 -0.5089
  722MOL0     H99623  11.194  10.709   5.055 -0.2837  2.1683  1.0552
  722MOL0     H99624  10.910  10.465   4.822  0.5816 -0.0384  0.0879
  722MOL0     H99625  11.046  10.463   4.712  0.9695  1.1069  0.6930
  722MOL0     H99626  10.965  10.267   4.931  0.7595 -0.6742 -1.8320
  722MOL0     H99627  11.128  10.256   4.859  0.3765  0.1186 -0.3518
  722MOL0     H99628  10.859  10.259   4.712 -1.3127  1.9747  5.2923
  722MOL0     H99629  11.013  10.178   4.652 -0.2871 -2.8517  0.6836
  722MOL0     H99630  10.803  10.087   4.843  1.0673  1.7618  2.7435
  722MOL0     H99631  10.965  10.024   4.870  1.2706 -2.4996 -2.4310
  722MOL0     H99632  10.915   9.798   4.535 -0.7971 -0.3215  0.3867
  722MOL0     H99633  10.848  10.459   5.007  0.2740 -2.1259  1.1462
  722MOL0     H99634  10.701  10.506   5.320  1.0995  2.2472  1.2010
  722MOL0     H99635  10.621  10.638   5.211 -0.5107 -0.3932 -0.9282
  722MOL0     H99636  10.658  10.480   5.154 -0.0101 -0.3742  0.5176
  723MOL0     O99637   3.930  10.959   0.913  0.6434  0.2138  1.1635
  723MOL0     C99638   3.805  10.948   0.922  0.1313 -0.1003 -0.4422
  723MOL0     O99639   3.725  10.879   0.826  1.1421 -0.1828 -0.8226
  723MOL0     C99640   3.786  10.843   0.706 -0.7507 -0.3258  0.3184
  723MOL0     C99641   3.833  10.942   0.613 -0.3853  0.4430 -0.4000
  723MOL0     C99642   3.878  10.902   0.484  0.5175  0.2064 -0.1864
  723MOL0     C99643   3.903  10.767   0.458 -0.5025  0.5822  0.4548
  723MOL0     O99644   3.980  10.715   0.363  0.3571 -0.6022  0.7663
  723MOL0     C99645   4.071  10.794   0.286  0.2695  0.4426  1.0160
  723MOL0     C99646   4.156  10.702   0.198 -0.2032 -0.0242  0.6745
  723MOL0     C99647   4.289  10.764   0.152 -0.0919 -0.7970 -0.2059
  723MOL0     C99648   4.355  10.691   0.028 -0.5318  0.0038  0.3781
  723MOL0     C99649   4.485  10.767  -0.026 -0.0895 -0.2625 -0.7689
  723MOL0     C99650   4.563  10.701  -0.135 -0.8076 -0.9885 -0.6678
  723MOL0     C99651   4.712  10.745  -0.140 -1.2608  0.0229  0.1730
  723MOL0     C99652   4.730  10.884  -0.186 -0.2861  0.1828 -0.2648
  723MOL0     N99653   4.712  10.883  -0.329  0.4901  0.1403 -0.7531
  723MOL0     C99654   4.597  10.909  -0.392 -0.1116  0.5372 -1.1538
  723MOL0     C99655   4.625  10.899  -0.521 -0.2884  0.2849 -0.1532
  723MOL0     C99656   4.532  10.904  -0.632  0.9742  0.7004  0.4943
  723MOL0     C99657   4.543  11.037  -0.714  0.0540 -0.4733 -0.4331
  723MOL0     C99658   4.525  11.021  -0.864  0.9063 -0.3118  0.3285
  723MOL0     C99659   4.645  10.957  -0.938 -0.4903  0.7769 -0.5599
  723MOL0     O99660   4.684  11.033  -1.054  0.1322 -0.3028 -0.8742
  723MOL0     C99661   4.799  10.997  -1.109 -0.1080 -0.1834  0.1803
  723MOL0     C99662   4.841  10.865  -1.120 -0.2481  0.5420 -0.5839
  723MOL0     C99663   4.955  10.828  -1.193 -0.1712 -0.2943 -1.4046
  723MOL0     C99664   4.994  10.682  -1.169  0.0216 -0.1712  1.6143
  723MOL0     C99665   5.032  10.933  -1.257 -0.0069  0.0802 -0.9773
  723MOL0     C99666   5.149  10.913  -1.345  0.1440  0.1668 -0.8570
  723MOL0     O99667   5.186  11.027  -1.415 -0.2640 -0.0924 -0.2922
  723MOL0     C99668   5.294  11.032  -1.502  0.2983 -0.0381 -1.1074
  723MOL0     C99669   5.359  10.927  -1.568 -0.7377  0.3535  0.1960
  723MOL0     C99670   5.475  10.944  -1.644  0.4692 -0.9561 -0.1091
  723MOL0     C99671   5.543  11.064  -1.638  0.6859  0.1913  0.1507
  723MOL0     O99672   5.665  11.061  -1.706 -0.1295  0.2318 -0.3032
  723MOL0     C99673   5.732  11.183  -1.711 -0.9678 -1.0534 -0.0748
  723MOL0     C99674   5.686  11.283  -1.820 -0.9253 -0.1296 -0.4259
  723MOL0     C99675   5.748  11.433  -1.816  0.7454  0.6587 -0.4125
  723MOL0     C99676   5.904  11.425  -1.825  0.7253  0.5880  0.0467
  723MOL0     C99677   5.980  11.562  -1.809  0.3408 -0.4025 -0.1672
  723MOL0     C99678   5.965  11.649  -1.939  0.1306 -0.0211 -0.1911
  723MOL0     C99679   5.998  11.802  -1.917  1.2972 -0.6000  0.8771
  723MOL0     C99680   6.145  11.848  -1.915 -0.4370  0.0006 -1.2987
  723MOL0    Cl99681   6.241  11.792  -2.048 -0.3554 -0.1055  0.0208
  723MOL0     C99682   5.488  11.160  -1.566 -0.3515 -0.0943  0.2661
  723MOL0     C99683   5.360  11.154  -1.503  0.5992 -0.3720 -0.0938
  723MOL0     O99684   5.184  10.801  -1.385 -0.1651  0.1578 -0.0867
  723MOL0     C99685   4.985  11.063  -1.232 -0.1388  0.1146  0.7960
  723MOL0     C99686   4.881  11.100  -1.158  0.6084  0.7149  0.5057
  723MOL0     N99687   4.756  10.885  -0.538 -0.0345 -0.1372  0.1225
  723MOL0     N99688   4.806  10.863  -0.422 -0.6485 -0.7166 -0.0265
  723MOL0     C99689   3.846  10.673   0.540  0.5301  0.5365 -0.7885
  723MOL0     C99690   3.790  10.712   0.672 -0.0100  0.1089 -0.1718
  723MOL0     C99691   3.747  11.019   1.044  0.2294  0.7345  1.0057
  723MOL0     C99692   3.835  11.038   1.147  0.2619 -0.3636  0.6505
  723MOL0     C99693   3.791  11.102   1.266  0.0749 -0.3011  1.0282
  723MOL0     C99694   3.651  11.126   1.295  0.2067  0.2690 -0.1590
  723MOL0     O99695   3.608  11.153   1.426 -0.1929  0.1421 -0.4649
  723MOL0     C99696   3.479  11.104   1.463  0.7476  0.7582  1.2967
  723MOL0     C99697   3.454  11.132   1.608  0.1029  0.2512 -0.3020
  723MOL0     C99698   3.566  11.072   1.700  0.0256  0.3129  0.7728
  723MOL0     C99699   3.542  11.099   1.848 -0.6293 -0.7845 -0.6132
  723MOL0     C99700   3.540  10.978   1.931  0.6975  0.8167  0.3245
  723MOL0     C99701   3.522  10.873   1.981 -0.3768 -0.8166 -0.3831
  723MOL0     C99702   3.565  11.100   1.187  0.1468 -0.0653  0.3763
  723MOL0     C99703   3.606  11.052   1.062 -0.3431 -0.3231 -0.6710
  723MOL0     C99704   3.500  10.996   0.970 -0.2747 -0.1831  0.2550
  723MOL0     H99705   3.821  11.043   0.650 -1.6112 -0.0918  0.7873
  723MOL0     H99706   3.890  10.980   0.410  3.0689  1.7057  1.6320
  723MOL0     H99707   4.135  10.856   0.350 -1.9414  1.0128  2.8079
  723MOL0     H99708   4.017  10.866   0.224 -0.8930  2.5195  4.1319
  723MOL0     H99709   4.178  10.611   0.253 -0.3533 -0.1779  0.4828
  723MOL0     H99710   4.096  10.678   0.110 -1.1770  1.7461  0.7988
  723MOL0     H99711   4.279  10.868   0.118 -0.8173 -1.2763 -1.5041
  723MOL0     H99712   4.363  10.748   0.230  0.4299 -1.9188 -0.9155
  723MOL0     H99713   4.376  10.587   0.055 -0.4793  0.2519  1.3349
  723MOL0     H99714   4.292  10.689  -0.061 -0.6080 -2.2518  0.4411
  723MOL0     H99715   4.556  10.794   0.053  1.4743 -0.9329 -1.8924
  723MOL0     H99716   4.453  10.865  -0.062 -1.5828 -0.3952  0.0848
  723MOL0     H99717   4.563  10.592  -0.125 -2.1209 -0.9062  0.6885
  723MOL0     H99718   4.523  10.732  -0.231  2.1858 -1.2378 -2.0935
  723MOL0     H99719   4.752  10.674  -0.213 -2.9593 -0.3637 -0.4461
  723MOL0     H99720   4.754  10.727  -0.040  0.8187  1.5591 -0.3614
  723MOL0     H99721   4.674  10.952  -0.121 -0.4826 -1.7677  1.7117
  723MOL0     H99722   4.835  10.915  -0.176  0.0232 -0.9760  0.2391
  723MOL0     H99723   4.505  10.929  -0.338  0.3703 -3.1583  1.4400
  723MOL0     H99724   4.429  10.890  -0.595  1.3045 -0.6189  1.0021
  723MOL0     H99725   4.554  10.830  -0.710 -0.8170  1.6702 -1.0121
  723MOL0     H99726   4.468  11.107  -0.676  1.8249  0.7907  0.8776
  723MOL0     H99727   4.640  11.083  -0.695 -0.6420  1.9188 -2.1354
  723MOL0     H99728   4.435  10.962  -0.881  0.4945  0.6296 -0.9138
  723MOL0     H99729   4.515  11.121  -0.907  1.7182 -0.2345  0.3036
  723MOL0     H99730   4.738  10.932  -0.887  0.1203 -0.2286 -2.0724
  723MOL0     H99731   4.609  10.858  -0.967 -1.5938  1.5104 -1.8463
  723MOL0     H99732   4.795  10.785  -1.064 -0.2113  0.1134 -1.1549
  723MOL0     H99733   5.091  10.664  -1.215 -0.0966  1.4869  0.6446
  723MOL0     H99734   4.919  10.627  -1.227 -0.3029  1.2440  0.6485
  723MOL0     H99735   4.989  10.650  -1.064 -1.2018 -2.8175  0.8181
  723MOL0     H99736   5.309  10.831  -1.572  0.2318 -0.2511  1.8226
  723MOL0     H99737   5.521  10.858  -1.691  1.1942  0.1075 -1.4157
  723MOL0     H99738   5.737  11.222  -1.609  0.7447 -0.8370 -0.2195
  723MOL0     H99739   5.833  11.153  -1.740 -0.8745  0.7301 -1.7521
  723MOL0     H99740   5.719  11.238  -1.914  0.1597 -3.7046  1.4662
  723MOL0     H99741   5.577  11.293  -1.813 -0.5856  5.6813  3.5262
  723MOL0     H99742   5.720  11.477  -1.720 -4.9727  0.2687 -1.5673
  723MOL0     H99743   5.707  11.495  -1.896  1.3386 -0.5982 -1.7479
  723MOL0     H99744   5.930  11.374  -1.919 -3.6242 -0.8111 -0.6482
  723MOL0     H99745   5.940  11.368  -1.739 -2.3195 -0.5802  0.6817
  723MOL0     H99746   5.937  11.618  -1.726 -1.5290 -1.0963 -0.6063
  723MOL0     H99747   6.088  11.548  -1.806  0.2107 -2.0380 -1.3843
  723MOL0     H99748   5.864  11.644  -1.981 -0.3141  0.1233  0.8280
  723MOL0     H99749   6.040  11.613  -2.009  1.7494  0.0950  1.4152
  723MOL0     H99750   5.944  11.848  -1.834  1.9746 -0.5164  1.2793
  723MOL0     H99751   5.955  11.857  -2.001  2.1383 -1.4860 -0.1543
  723MOL0     H99752   6.189  11.809  -1.823 -2.5124  1.1460  0.2760
  723MOL0     H99753   6.156  11.957  -1.906  3.4522  0.0031 -3.6313
  723MOL0     H99754   5.534  11.258  -1.560 -1.1380  0.3520 -0.8213
  723MOL0     H99755   5.309  11.235  -1.451  0.9148 -1.9833  2.9739
  723MOL0     H99756   5.042  11.149  -1.266 -1.1607 -0.0145 -1.4344
  723MOL0     H99757   4.851  11.203  -1.147  0.0565  0.6358 -0.1447
  723MOL0     H99758   3.860  10.567   0.522 -1.8200 -0.4925  2.4349
  723MOL0     H99759   3.760  10.629   0.735  0.6998  1.0154  1.4242
  723MOL0     H99760   3.936  11.002   1.129  0.0482 -0.0538 -1.3706
  723MOL0     H99761   3.853  11.132   1.350 -0.0122  4.8604 -0.3717
  723MOL0     H99762   3.406  11.147   1.393  3.2427 -2.1757 -3.6631
  723MOL0     H99763   3.478  10.996   1.444 -0.2430  0.3318  3.4935
  723MOL0     H99764   3.353  11.095   1.626  0.7470 -1.9511 -0.8596
  723MOL0     H99765   3.456  11.241   1.610 -0.7007  0.2690  1.8404
  723MOL0     H99766   3.579  10.965   1.681  3.3995  0.6671  0.3872
  723MOL0     H99767   3.658  11.123   1.669  0.8879 -0.0084  2.6695
  723MOL0     H99768   3.445  11.147   1.862 -0.4243 -0.0478 -1.6349
  723MOL0     H99769   3.620  11.165   1.887  0.4159 -1.6255 -1.2485
  723MOL0     H99770   3.499  10.784   2.035 -6.6483  0.4431 -0.2465
  723MOL0     H99771   3.457  11.114   1.189 -0.1724 -0.2861 -4.3777
  723MOL0     H99772   3.505  10.887   0.980  0.1114 -0.0205  2.4874
  723MOL0     H99773   3.402  11.024   1.009 -0.6010 -0.3204 -0.4664
  723MOL0     H99774   3.508  11.032   0.867 -0.5368  0.1442  0.3478
  724MOL0     O99775   7.975   3.183  10.353 -0.3932  0.1582 -0.2915
  724MOL0     C99776   7.936   3.298  10.330 -0.1320  0.2136  0.2460
  724MOL0     O99777   7.956   3.360  10.208  0.0015 -0.1158  0.6748
  724MOL0     C99778   7.983   3.280  10.096  0.5770 -0.2005 -0.0114
  724MOL0     C99779   7.894   3.284   9.987  0.2429  0.8121 -0.0186
  724MOL0     C99780   7.902   3.188   9.877 -0.1845 -0.3505 -0.1114
  724MOL0     C99781   8.009   3.089   9.883  0.1242 -1.3768  1.2706
  724MOL0     O99782   8.009   3.000   9.784  0.1489 -0.4786  1.1191
  724MOL0     C99783   7.896   2.911   9.782  0.1064 -0.2355 -0.3847
  724MOL0     C99784   7.907   2.796   9.675  0.1318 -0.5130 -0.4086
  724MOL0     C99785   7.908   2.848   9.526  0.5704 -0.1544 -0.8152
  724MOL0     C99786   8.043   2.818   9.451  0.8611  0.5868 -0.2035
  724MOL0     C99787   8.081   2.672   9.443  0.0323 -0.8266  0.1650
  724MOL0     C99788   7.986   2.591   9.351  0.3020 -0.2386 -0.7136
  724MOL0     C99789   8.001   2.623   9.206 -0.0750 -0.1278 -0.3431
  724MOL0     C99790   7.977   2.508   9.105  1.1641 -0.0446 -0.3714
  724MOL0     N99791   8.064   2.392   9.128 -0.1993  0.3970  0.6587
  724MOL0     C99792   8.200   2.396   9.128 -0.1150  1.4402  0.1145
  724MOL0     C99793   8.251   2.272   9.090 -0.7163  0.5620 -0.1884
  724MOL0     C99794   8.397   2.245   9.057 -0.5101  0.3398 -0.2596
  724MOL0     C99795   8.406   2.168   8.919  0.1394 -0.0954 -0.1593
  724MOL0     C99796   8.541   2.096   8.904  0.4880 -0.0101  0.1873
  724MOL0     C99797   8.533   2.003   8.781 -0.9032  0.0145 -0.0735
  724MOL0     O99798   8.527   2.094   8.670  0.3673 -0.5199 -0.3198
  724MOL0     C99799   8.527   2.057   8.537 -0.1843 -0.9575  0.2435
  724MOL0     C99800   8.545   1.922   8.495 -0.0792  0.9427 -0.7436
  724MOL0     C99801   8.513   1.884   8.364  0.2604  0.0691  0.4946
  724MOL0     C99802   8.515   1.737   8.323  0.8849  0.4832  0.7490
  724MOL0     C99803   8.487   1.989   8.270  0.0406 -0.4318 -0.8449
  724MOL0     C99804   8.475   1.964   8.127 -0.3415 -0.3704 -0.0033
  724MOL0     O99805   8.414   2.068   8.046 -0.2362  0.2482 -0.5731
  724MOL0     C99806   8.401   2.039   7.914  0.0691  0.7089 -0.4217
  724MOL0     C99807   8.332   1.929   7.865  0.3217  0.3534  0.7050
  724MOL0     C99808   8.308   1.913   7.724 -0.0654 -1.2865 -0.4160
  724MOL0     C99809   8.341   2.010   7.631 -0.2365 -0.5472 -0.1523
  724MOL0     O99810   8.320   1.997   7.496  0.0849  0.3130  0.8668
  724MOL0     C99811   8.197   1.951   7.437  0.5691  0.5413 -0.7024
  724MOL0     C99812   8.077   2.041   7.471 -0.6502  0.4046 -0.3049
  724MOL0     C99813   8.091   2.187   7.419  0.2858 -0.3506  0.0801
  724MOL0     C99814   7.968   2.258   7.445  0.2758 -0.3630 -0.0460
  724MOL0     C99815   7.967   2.374   7.343 -0.2466  0.4089 -0.0837
  724MOL0     C99816   7.838   2.457   7.343 -1.3855  0.3478  1.0006
  724MOL0     C99817   7.822   2.546   7.224 -0.3493 -0.7972  0.2679
  724MOL0     C99818   7.761   2.486   7.090 -1.0359 -0.9005 -0.3137
  724MOL0    Cl99819   7.606   2.402   7.120  0.1727  0.6246  0.1071
  724MOL0     C99820   8.418   2.109   7.676 -0.1329  0.1834  0.3410
  724MOL0     C99821   8.443   2.125   7.810  0.9174  0.3109  0.0216
  724MOL0     O99822   8.534   1.868   8.081 -0.4548 -0.0238  0.1151
  724MOL0     C99823   8.469   2.119   8.315 -0.5859 -0.2631  0.7676
  724MOL0     C99824   8.490   2.154   8.450  0.3068  1.0744  0.6714
  724MOL0     N99825   8.135   2.189   9.104 -0.3579  0.0968  0.4833
  724MOL0     N99826   8.021   2.262   9.116 -0.5454 -0.3822  0.2962
  724MOL0     C99827   8.105   3.098   9.981 -0.2912 -0.1765  0.3443
  724MOL0     C99828   8.090   3.186  10.085  0.0056  0.7004  0.0901
  724MOL0     C99829   7.896   3.379  10.438  0.8892 -0.4638 -0.8577
  724MOL0     C99830   7.912   3.332  10.570 -0.4623 -0.2980 -0.3245
  724MOL0     C99831   7.895   3.418  10.679 -0.4743  0.1746  1.0480
  724MOL0     C99832   7.865   3.549  10.650 -0.1707  0.3825 -0.0651
  724MOL0     O99833   7.857   3.648  10.756  0.7715 -0.0033 -0.3295
  724MOL0     C99834   7.945   3.630  10.866  0.7046  0.7665 -0.0348
  724MOL0     C99835   7.975   3.769  10.949  0.6520  0.9379 -0.0608
  724MOL0     C99836   7.995   3.884  10.858  0.8109  0.3071 -0.1329
  724MOL0     C99837   7.981   4.016  10.941  0.2369 -0.1335  0.2202
  724MOL0     C99838   7.954   4.125  10.844 -0.4751  0.1167  0.0726
  724MOL0     C99839   7.917   4.230  10.794  0.0964  0.6236 -0.6371
  724MOL0     C99840   7.842   3.596  10.530  0.0223 -0.1036  0.2711
  724MOL0     C99841   7.849   3.515  10.421 -0.2776 -0.3534 -0.1007
  724MOL0     C99842   7.813   3.582  10.288  0.7837 -0.2465 -0.1368
  724MOL0     H99843   7.810   3.353   9.985 -0.2864  0.3795  2.6140
  724MOL0     H99844   7.828   3.201   9.799 -2.1258 -0.3045  1.6426
  724MOL0     H99845   7.814   2.975   9.751 -1.3420 -1.0238  1.6272
  724MOL0     H99846   7.873   2.862   9.877 -1.2288  0.8574 -0.1245
  724MOL0     H99847   7.994   2.739   9.706  1.0887  2.0095  1.9329
  724MOL0     H99848   7.823   2.726   9.681  0.8100 -1.2120  1.6510
  724MOL0     H99849   7.836   2.783   9.477 -1.1562 -0.7896  2.3086
  724MOL0     H99850   7.878   2.953   9.519  0.1976 -0.2825 -1.1724
  724MOL0     H99851   8.041   2.862   9.351 -0.0672  0.2197 -0.3527
  724MOL0     H99852   8.118   2.871   9.511 -0.3963  0.5811  1.4421
  724MOL0     H99853   8.078   2.621   9.540  1.3651  0.4831  0.9441
  724MOL0     H99854   8.179   2.652   9.399 -1.0676 -2.7479 -1.5697
  724MOL0     H99855   8.014   2.486   9.357  0.8145 -0.1434 -1.3991
  724MOL0     H99856   7.879   2.598   9.372  0.0912 -1.5465 -1.2809
  724MOL0     H99857   8.099   2.655   9.169 -0.8226 -0.7062 -3.0792
  724MOL0     H99858   7.929   2.703   9.186 -3.3643 -2.0831  2.5781
  724MOL0     H99859   7.873   2.475   9.108  0.2419  2.0382 -3.7963
  724MOL0     H99860   7.995   2.549   9.005 -1.0560  0.3464 -0.6673
  724MOL0     H99861   8.264   2.483   9.129  0.5938  0.9307  1.3264
  724MOL0     H99862   8.452   2.173   9.118  2.1363  0.7558 -1.9589
  724MOL0     H99863   8.454   2.338   9.046 -2.5442  1.5589 -1.1068
  724MOL0     H99864   8.329   2.090   8.920  0.7548 -0.9342 -4.1568
  724MOL0     H99865   8.396   2.232   8.831 -1.2326 -1.4354 -1.0247
  724MOL0     H99866   8.625   2.167   8.903  0.1111  0.4436  0.4049
  724MOL0     H99867   8.564   2.035   8.993 -0.3234 -0.3288  0.1802
  724MOL0     H99868   8.631   1.955   8.771  0.3188  2.1529  0.7223
  724MOL0     H99869   8.452   1.931   8.791 -3.4902  2.4627 -1.8317
  724MOL0     H99870   8.566   1.847   8.571  1.2483  1.0067 -1.0192
  724MOL0     H99871   8.614   1.731   8.277  0.9882 -2.3234  1.1827
  724MOL0     H99872   8.436   1.723   8.249  2.0971  0.5863 -0.6079
  724MOL0     H99873   8.498   1.671   8.408  2.9929 -1.9076 -0.5626
  724MOL0     H99874   8.305   1.844   7.926  1.5457 -2.1089 -1.9619
  724MOL0     H99875   8.251   1.829   7.687 -1.1817 -0.2836 -1.0283
  724MOL0     H99876   8.198   1.951   7.328  0.1628  0.4483 -0.7078
  724MOL0     H99877   8.201   1.848   7.475 -0.8347  0.8408  0.3668
  724MOL0     H99878   7.987   1.989   7.437 -0.3313  0.3731 -1.1272
  724MOL0     H99879   8.071   2.045   7.580 -3.2649 -2.4153 -0.2065
  724MOL0     H99880   8.114   2.193   7.312  1.3537  0.4087  0.3320
  724MOL0     H99881   8.169   2.241   7.473  0.2012  2.5458 -2.3985
  724MOL0     H99882   7.966   2.300   7.546 -1.3659  0.9919 -0.5834
  724MOL0     H99883   7.879   2.197   7.431 -0.7680  1.4847 -2.1117
  724MOL0     H99884   8.051   2.434   7.379 -0.3052  0.5118 -0.1164
  724MOL0     H99885   7.994   2.340   7.243 -1.0332  1.7281 -0.7773
  724MOL0     H99886   7.840   2.507   7.440  1.0742  0.8339  0.7598
  724MOL0     H99887   7.752   2.388   7.346 -2.2486  0.7300 -4.3587
  724MOL0     H99888   7.918   2.597   7.218 -1.8547  2.2123 -0.1371
  724MOL0     H99889   7.746   2.614   7.263  0.0121  0.4058 -1.0314
  724MOL0     H99890   7.829   2.420   7.034  3.9314  2.7043  0.8055
  724MOL0     H99891   7.739   2.568   7.021 -0.9431 -0.5102  0.1223
  724MOL0     H99892   8.448   2.192   7.613  0.0806 -0.3711 -0.3016
  724MOL0     H99893   8.499   2.216   7.832  3.7180 -1.0629 -0.9602
  724MOL0     H99894   8.438   2.185   8.235  1.0862 -3.0092 -2.3903
  724MOL0     H99895   8.453   2.247   8.492 -0.3932  0.7120  0.8806
  724MOL0     H99896   8.178   3.018   9.987  2.5514  1.9862 -1.7162
  724MOL0     H99897   8.161   3.178  10.167  2.7739 -0.0879 -2.2169
  724MOL0     H99898   7.952   3.232  10.582  4.2094  1.4331  0.8501
  724MOL0     H99899   7.924   3.372  10.773 -3.2989  2.8077  3.4175
  724MOL0     H99900   7.908   3.558  10.939  1.7785 -0.7080 -0.8900
  724MOL0     H99901   8.039   3.586  10.831 -0.2179 -0.3051 -1.2532
  724MOL0     H99902   8.057   3.753  11.019  1.0071  0.7832 -0.5023
  724MOL0     H99903   7.886   3.799  11.005  0.2568  1.1569 -0.7894
  724MOL0     H99904   8.090   3.879  10.804 -0.0628 -0.0347 -1.7017
  724MOL0     H99905   7.928   3.880  10.772 -0.1420  0.2353  0.6081
  724MOL0     H99906   8.065   4.050  11.003 -1.3618  2.2619  1.1996
  724MOL0     H99907   7.889   4.018  11.000  0.8180  2.2688  1.1444
  724MOL0     H99908   7.883   4.326  10.760 -0.8758  1.9174  3.4340
  724MOL0     H99909   7.835   3.704  10.521  0.7195  0.0280  1.1300
  724MOL0     H99910   7.753   3.517  10.224  1.0202  2.2251 -3.0318
  724MOL0     H99911   7.750   3.670  10.305  0.0891 -1.1312  2.4270
  724MOL0     H99912   7.903   3.627  10.245  0.8299  0.0408  0.2512
  725MOL0     O99913   3.059   3.249  10.648 -0.6983  0.7716  0.4203
  725MOL0     C99914   3.072   3.139  10.703  0.0581 -0.3259 -0.1482
  725MOL0     O99915   3.190   3.098  10.767 -0.1070 -0.4415  0.3784
  725MOL0     C99916   3.305   3.162  10.726 -0.1610 -0.4921  0.1188
  725MOL0     C99917   3.376   3.123  10.619  0.6154  0.1135  0.9624
  725MOL0     C99918   3.496   3.186  10.578  0.0362 -0.9849 -0.7171
  725MOL0     C99919   3.548   3.283  10.671  0.2765  0.5368  0.1052
  725MOL0     O99920   3.666   3.343  10.632 -0.2378 -0.6962 -0.4599
  725MOL0     C99921   3.673   3.486  10.643  0.1982 -0.4192  0.0878
  725MOL0     C99922   3.746   3.528  10.771  0.6961 -0.6367 -0.7130
  725MOL0     C99923   3.885   3.461  10.763  0.2791 -0.4177  0.1836
  725MOL0     C99924   3.926   3.414  10.900 -0.5847  0.4083  0.8893
  725MOL0     C99925   4.071   3.365  10.899 -0.6009  0.1934 -0.0057
  725MOL0     C99926   4.094   3.235  10.828  1.0570 -0.5797  0.4189
  725MOL0     C99927   3.998   3.125  10.848  0.7156 -0.9726 -0.4142
  725MOL0     C99928   4.031   3.010  10.741 -0.2127 -0.6392 -0.3221
  725MOL0     N99929   3.926   2.905  10.745 -0.8283  0.2324 -0.2973
  725MOL0     C99930   3.834   2.895  10.650  0.5073  0.4994 -0.5358
  725MOL0     C99931   3.788   2.768  10.660  0.5854 -0.5038 -0.7726
  725MOL0     C99932   3.669   2.723  10.585 -0.6592 -0.5058  0.3191
  725MOL0     C99933   3.658   2.576  10.556  0.5104 -0.4408 -0.4455
  725MOL0     C99934   3.552   2.558  10.447  0.2248 -0.1413  0.3866
  725MOL0     C99935   3.444   2.444  10.442 -0.1049 -0.3029  0.7117
  725MOL0     O99936   3.521   2.325  10.438  0.1447 -0.1169 -0.3585
  725MOL0     C99937   3.461   2.206  10.393 -0.1667 -0.6951  0.8300
  725MOL0     C99938   3.538   2.082  10.397 -0.4332 -0.4112 -0.7047
  725MOL0     C99939   3.487   1.959  10.365 -0.7855  0.9639 -0.6994
  725MOL0     C99940   3.578   1.834  10.394 -0.8320 -0.2752 -0.2295
  725MOL0     C99941   3.356   1.954  10.309  0.1021 -0.5446  0.1539
  725MOL0     C99942   3.296   1.826  10.270 -0.5618 -0.2705  0.0465
  725MOL0     O99943   3.384   1.723  10.226 -0.3213 -0.8268  0.1688
  725MOL0     C99944   3.313   1.608  10.199 -0.3452  0.3861 -0.8146
  725MOL0     C99945   3.290   1.515  10.308 -0.5740 -0.6769 -0.8348
  725MOL0     C99946   3.217   1.397  10.281 -0.2785 -0.5220 -0.1737
  725MOL0     C99947   3.163   1.369  10.153  1.1357 -0.2327 -0.8940
  725MOL0     O99948   3.083   1.264  10.118 -0.3855  0.2659  0.0006
  725MOL0     C99949   3.034   1.172  10.221  0.6080 -0.2818  0.4956
  725MOL0     C99950   2.957   1.048  10.155  0.2625 -0.6698 -0.8303
  725MOL0     C99951   2.917   0.951  10.263  0.5881  0.9180 -0.2417
  725MOL0     C99952   2.859   0.822  10.201 -0.9875 -0.2312 -0.9585
  725MOL0     C99953   2.830   0.724  10.312  0.4621  0.4744  0.0570
  725MOL0     C99954   2.731   0.616  10.269 -1.3409 -0.4036 -1.1497
  725MOL0     C99955   2.717   0.500  10.374 -0.5473 -0.1521 -0.0846
  725MOL0     C99956   2.617   0.391  10.341 -0.6005  1.7852 -0.8198
  725MOL0    Cl99957   2.464   0.458  10.329 -0.1437 -0.0669  0.0159
  725MOL0     C99958   3.183   1.462  10.054  0.4531 -0.0458  0.4477
  725MOL0     C99959   3.254   1.584  10.080 -0.7569 -0.6472 -0.7407
  725MOL0     O99960   3.170   1.825  10.261  0.0411 -0.4900 -0.2195
  725MOL0     C99961   3.279   2.072  10.307  0.2255 -0.2411  0.0318
  725MOL0     C99962   3.334   2.198  10.337 -0.7105  0.4275  0.2672
  725MOL0     N99963   3.854   2.707  10.770 -0.0669 -0.0642  0.6475
  725MOL0     N99964   3.928   2.796  10.826 -0.3409 -1.3208  0.3860
  725MOL0     C99965   3.485   3.311  10.797  0.1350  1.1464 -0.0193
  725MOL0     C99966   3.360   3.257  10.817  0.2440  0.0381  0.3303
  725MOL0     C99967   2.968   3.030  10.703  0.2941 -0.5057  0.6189
  725MOL0     C99968   3.009   2.898  10.731  0.3587  0.6926 -0.2199
  725MOL0     C99969   2.913   2.798  10.748  0.4490 -0.1084  0.3934
  725MOL0     C99970   2.777   2.813  10.719 -0.5135 -1.4049  0.0988
  725MOL0     O99971   2.697   2.705  10.729  0.0143  1.1256 -0.1908
  725MOL0     C99972   2.591   2.680  10.633  0.0039  0.1184 -0.2634
  725MOL0     C99973   2.543   2.539  10.628 -0.2597  0.0267 -0.3415
  725MOL0     C99974   2.659   2.438  10.603  0.2309  0.3255  0.4793
  725MOL0     C99975   2.615   2.297  10.583 -0.2284  0.8113 -0.3326
  725MOL0     C99976   2.524   2.270  10.462 -0.1969  1.1689 -0.9396
  725MOL0     C99977   2.442   2.268  10.368  0.3778 -0.1472  0.4595
  725MOL0     C99978   2.731   2.939  10.674  0.5129 -0.3781 -0.2348
  725MOL0     C99979   2.828   3.039  10.664 -0.1054 -0.3256 -0.4108
  725MOL0     C99980   2.783   3.167  10.600  1.0011  0.6511  0.7916
  725MOL0     H99981   3.345   3.056  10.539  0.8355  1.9542 -0.7413
  725MOL0     H99982   3.539   3.179  10.479  0.4755 -0.5971 -0.5589
  725MOL0     H99983   3.579   3.538  10.628  1.6755  2.5517  0.3835
  725MOL0     H99984   3.726   3.531  10.559  1.9880 -0.6336  1.0386
  725MOL0     H99985   3.756   3.637  10.780 -1.1199 -0.5372  0.7034
  725MOL0     H99986   3.702   3.490  10.864 -2.1650 -0.8105 -2.0319
  725MOL0     H99987   3.889   3.378  10.692  1.2340  0.9965 -1.5139
  725MOL0     H99988   3.953   3.541  10.731 -0.4957  0.2240  0.0917
  725MOL0     H99989   3.929   3.503  10.963 -0.6146  1.0943 -0.0477
  725MOL0     H99990   3.851   3.347  10.942 -0.3467  0.6409  1.6951
  725MOL0     H99991   4.101   3.349  11.003 -2.6997 -0.7863  0.5062
  725MOL0     H99992   4.145   3.426  10.848 -0.2604  0.4016  0.7227
  725MOL0     H99993   4.095   3.266  10.723 -0.9101  4.2900  1.5714
  725MOL0     H99994   4.196   3.194  10.826  0.7483 -1.6838 -4.1120
  725MOL0     H99995   3.892   3.152  10.842  0.4375 -2.3206 -2.1992
  725MOL0     H99996   4.010   3.082  10.948  1.1514 -2.5554 -1.1139
  725MOL0     H99997   4.037   3.052  10.640 -2.0744  0.8374  0.1129
  725MOL0     H99998   4.129   2.968  10.764  0.5660  2.3460  2.8860
  725MOL0     H99999   3.792   2.971  10.586 -2.2032 -0.8111 -0.4418
  725MOL0     H    0   3.666   2.780  10.491  2.2425 -1.1153 -0.2532
  725MOL0     H    1   3.582   2.741  10.649  0.6353 -1.4370  2.4169
  725MOL0     H    2   3.753   2.529  10.530  1.0857 -0.2223  1.1446
  725MOL0     H    3   3.624   2.521  10.644  0.6168 -1.3380 -0.9551
  725MOL0     H    4   3.488   2.646  10.450  0.7500  0.2363  0.7711
  725MOL0     H    5   3.602   2.556  10.350  3.3054  0.3274  1.8118
  725MOL0     H    6   3.365   2.446  10.518  0.0729  1.0231  0.8973
  725MOL0     H    7   3.393   2.463  10.347 -1.7212  0.2056  1.6255
  725MOL0     H    8   3.637   2.086  10.442 -0.3273 -0.7175 -0.9104
  725MOL0     H    9   3.648   1.855  10.476 -1.4280  0.5889  0.0762
  725MOL0     H   10   3.622   1.785  10.307 -2.2333 -1.6062 -0.2201
  725MOL0     H   11   3.512   1.759  10.437  1.9338 -2.3493  0.6815
  725MOL0     H   12   3.348   1.533  10.398  0.0479 -1.1306 -1.1433
  725MOL0     H   13   3.222   1.317  10.355 -3.0416 -1.6524 -1.0595
  725MOL0     H   14   3.110   1.140  10.293 -1.6778  1.2678  3.8249
  725MOL0     H   15   2.952   1.217  10.278 -0.2179 -1.9179  0.6577
  725MOL0     H   16   2.875   1.090  10.097  0.1883  1.8110  0.8900
  725MOL0     H   17   3.031   1.003  10.089  2.3376 -1.8561  2.0667
  725MOL0     H   18   2.824   0.994  10.303 -0.6302  1.9667 -3.8462
  725MOL0     H   19   3.001   0.927  10.328  1.5059 -0.9335 -2.0186
  725MOL0     H   20   2.948   0.788  10.146 -0.0255  2.7603 -1.4451
  725MOL0     H   21   2.783   0.845  10.126  1.7168  1.7065 -3.3563
  725MOL0     H   22   2.923   0.678  10.346 -0.4904 -0.9136  0.9145
  725MOL0     H   23   2.788   0.781  10.396  0.3680  0.8476 -0.2431
  725MOL0     H   24   2.763   0.574  10.173 -0.2991 -0.6805 -0.6954
  725MOL0     H   25   2.638   0.669  10.250  0.3451  2.3608 -2.3545
  725MOL0     H   26   2.679   0.539  10.469  0.6032 -2.7778  1.5513
  725MOL0     H   27   2.815   0.453  10.381  0.1598  1.2565 -0.1744
  725MOL0     H   28   2.614   0.303  10.405 -3.6705  2.7619  0.5399
  725MOL0     H   29   2.652   0.347  10.247  0.3417 -1.1739  0.7826
  725MOL0     H   30   3.132   1.443   9.961 -3.2127  4.9217  1.0180
  725MOL0     H   31   3.259   1.663  10.007  1.4590  0.0214  0.0619
  725MOL0     H   32   3.175   2.059  10.279  0.5303 -1.0456 -0.8265
  725MOL0     H   33   3.260   2.277  10.328 -2.8901 -1.1376  2.9680
  725MOL0     H   34   3.525   3.384  10.867  0.4964  0.5684  0.3894
  725MOL0     H   35   3.293   3.284  10.898  0.1015  0.8576 -0.0427
  725MOL0     H   36   3.107   2.876  10.772  0.3388  1.3859  0.2188
  725MOL0     H   37   2.941   2.697  10.778  1.0791  0.4262  1.6932
  725MOL0     H   38   2.515   2.749  10.671 -2.5744 -4.1753  3.3863
  725MOL0     H   39   2.617   2.704  10.529 -3.2635 -1.9541 -1.7196
  725MOL0     H   40   2.467   2.529  10.550 -0.6407  1.0297 -0.1075
  725MOL0     H   41   2.492   2.505  10.718  0.7303 -0.4829  0.0446
  725MOL0     H   42   2.716   2.472  10.516 -1.9473 -2.3889 -2.2347
  725MOL0     H   43   2.716   2.429  10.695 -2.4481 -1.7315  2.0906
  725MOL0     H   44   2.573   2.266  10.679  2.1001 -0.1325  0.4506
  725MOL0     H   45   2.706   2.241  10.562 -1.0114  0.1487 -2.2007
  725MOL0     H   46   2.381   2.252  10.281 -0.1625 -0.6768  0.9300
  725MOL0     H   47   2.629   2.961  10.642  1.1015 -2.2819 -4.0010
  725MOL0     H   48   2.681   3.150  10.564  1.1364 -0.2200  0.8028
  725MOL0     H   49   2.784   3.250  10.672 -1.3368  0.8047  0.7379
  725MOL0     H   50   2.836   3.184  10.506 -3.0740 -1.8381 -2.3096
  726MOL0     O   51   3.555   3.364   8.143 -0.1228 -0.4089 -0.3504
  726MOL0     C   52   3.541   3.478   8.186 -0.9846 -0.2515  0.1060
  726MOL0     O   53   3.611   3.591   8.141  0.0698  0.1068 -0.2453
  726MOL0     C   54   3.680   3.582   8.021  0.0056  0.2835 -0.8331
  726MOL0     C   55   3.625   3.535   7.900  0.9326  0.4321 -1.0064
  726MOL0     C   56   3.699   3.536   7.784  0.1298 -1.0021 -0.2810
  726MOL0     C   57   3.830   3.583   7.787  0.0414  0.0360  0.6804
  726MOL0     O   58   3.893   3.592   7.659  0.4457 -0.5759 -0.3777
  726MOL0     C   59   4.020   3.523   7.649  0.4307  0.6881  0.2990
  726MOL0     C   60   4.074   3.526   7.508 -0.5846 -0.5955  0.0619
  726MOL0     C   61   3.989   3.436   7.422  0.0398  0.6340  0.6214
  726MOL0     C   62   4.018   3.447   7.273 -0.7881  0.6564 -0.4547
  726MOL0     C   63   3.943   3.341   7.194  0.3907 -0.0464 -0.0739
  726MOL0     C   64   3.998   3.345   7.054  1.0438  0.4591  0.1895
  726MOL0     C   65   3.954   3.471   6.985  0.7892 -0.8491  0.1840
  726MOL0     C   66   4.070   3.558   6.932  0.6042  0.0024 -0.9339
  726MOL0     N   67   4.023   3.678   6.857  0.0172  0.0812 -0.4826
  726MOL0     C   68   4.026   3.698   6.719 -0.0341 -0.6849 -0.1955
  726MOL0     C   69   3.977   3.825   6.693 -0.5985 -0.9080 -0.0053
  726MOL0     C   70   3.951   3.898   6.567 -0.2717  0.5437 -0.0019
  726MOL0     C   71   3.899   3.822   6.450 -0.5877  0.4361 -0.5918
  726MOL0     C   72   3.841   3.902   6.336 -0.7881  0.6674 -0.2667
  726MOL0     C   73   3.736   4.000   6.376  0.1802 -1.1678  0.0175
  726MOL0     O   74   3.642   3.949   6.471 -0.2119  0.0725 -0.4806
  726MOL0     C   75   3.523   3.901   6.433 -0.2451 -0.6451  0.3370
  726MOL0     C   76   3.434   3.869   6.531  0.4581  0.8594  0.4165
  726MOL0     C   77   3.297   3.825   6.494 -0.2350  0.2740  1.3396
  726MOL0     C   78   3.202   3.788   6.608 -0.6976  0.2046  0.2548
  726MOL0     C   79   3.260   3.807   6.357  0.1878 -0.6704 -0.1312
  726MOL0     C   80   3.129   3.760   6.300  0.4448 -0.4145 -0.9189
  726MOL0     O   81   3.008   3.748   6.379 -1.3097 -0.3454  0.2251
  726MOL0     C   82   2.886   3.743   6.319  0.8995  0.3528  0.1447
  726MOL0     C   83   2.793   3.845   6.343  0.6526 -0.2900  0.9728
  726MOL0     C   84   2.661   3.842   6.291  0.2747 -0.5166 -0.1620
  726MOL0     C   85   2.618   3.740   6.202 -0.1145  0.0370 -0.2817
  726MOL0     O   86   2.487   3.751   6.158 -0.0621  0.1566 -0.1279
  726MOL0     C   87   2.463   3.722   6.017 -0.5689  0.0810 -0.9310
  726MOL0     C   88   2.318   3.752   5.995  0.3165 -0.4783 -0.0909
  726MOL0     C   89   2.285   3.722   5.853  0.5467  0.8989  0.2268
  726MOL0     C   90   2.137   3.768   5.825 -0.3849  0.1158  0.0491
  726MOL0     C   91   2.127   3.806   5.677 -0.2531  0.3527  0.9786
  726MOL0     C   92   2.137   3.705   5.574  0.6030  0.0046 -0.7666
  726MOL0     C   93   2.095   3.767   5.440 -0.2009  0.4950  0.1536
  726MOL0     C   94   2.056   3.670   5.332 -0.7124 -0.1918 -0.1140
  726MOL0    Cl   95   1.889   3.599   5.361  0.1321  0.1211 -0.1265
  726MOL0     C   96   2.707   3.632   6.178  0.1500  0.2337  0.3912
  726MOL0     C   97   2.838   3.640   6.232 -0.7930  0.4868 -0.2939
  726MOL0     O   98   3.134   3.734   6.183 -0.1713 -0.0216 -0.4011
  726MOL0     C   99   3.363   3.844   6.261  0.7485 -0.7266 -0.2752
  726MOL0     C  100   3.490   3.880   6.305  0.2833  0.3702 -0.0741
  726MOL0     N  101   3.929   3.871   6.817  0.9551 -0.0170 -1.1638
  726MOL0     N  102   3.961   3.784   6.911 -0.1237 -0.0083 -0.4075
  726MOL0     C  103   3.881   3.624   7.901  0.2605 -0.3944 -1.8632
  726MOL0     C  104   3.808   3.624   8.023  0.5731 -0.8421 -0.5927
  726MOL0     C  105   3.453   3.491   8.303 -0.0357 -0.2247  0.5896
  726MOL0     C  106   3.333   3.417   8.296  0.3754 -0.1787 -0.2523
  726MOL0     C  107   3.247   3.406   8.405  0.0764 -0.0993 -0.0143
  726MOL0     C  108   3.263   3.475   8.526  0.1379  0.1578  0.0149
  726MOL0     O  109   3.160   3.479   8.627 -0.0844 -0.3489  0.2955
  726MOL0     C  110   3.199   3.473   8.763  0.6901 -0.2129  0.5914
  726MOL0     C  111   3.201   3.329   8.832 -0.1515  0.4996  0.8859
  726MOL0     C  112   3.281   3.226   8.758 -0.2864  1.1059 -0.4617
  726MOL0     C  113   3.351   3.129   8.854  0.5498 -0.1106  0.6903
  726MOL0     C  114   3.482   3.186   8.892  0.9770  0.2590  0.1717
  726MOL0     C  115   3.590   3.224   8.930  0.0194 -0.2916  0.1710
  726MOL0     C  116   3.378   3.551   8.531 -1.3859  0.0691 -0.3979
  726MOL0     C  117   3.473   3.567   8.423 -0.6239  1.3485  0.5283
  726MOL0     C  118   3.606   3.644   8.444 -0.3684 -0.0448 -0.2803
  726MOL0     H  119   3.531   3.489   7.928  2.0661 -2.2113 -1.2262
  726MOL0     H  120   3.652   3.494   7.696  2.2746  0.8010 -2.3896
  726MOL0     H  121   3.999   3.418   7.674  1.4504  0.1155 -1.1247
  726MOL0     H  122   4.094   3.565   7.719  0.3340  3.0707 -0.9316
  726MOL0     H  123   4.067   3.627   7.467  2.8472 -0.0735  0.5043
  726MOL0     H  124   4.178   3.493   7.511 -0.0481  1.0584  2.5763
  726MOL0     H  125   4.014   3.335   7.457 -0.6931  0.5731  0.9881
  726MOL0     H  126   3.882   3.456   7.427  0.0975  1.7586 -1.6786
  726MOL0     H  127   3.992   3.547   7.237  0.4769  0.4489 -2.0151
  726MOL0     H  128   4.125   3.428   7.260 -0.0828  2.9363  1.2774
  726MOL0     H  129   3.835   3.356   7.199  0.5905  3.0078 -1.7656
  726MOL0     H  130   3.958   3.239   7.229 -1.7581 -0.7225 -0.9476
  726MOL0     H  131   4.106   3.334   7.043  0.7795 -0.6230 -1.7356
  726MOL0     H  132   3.954   3.260   7.001  0.0952  0.3806  1.0793
  726MOL0     H  133   3.904   3.544   7.049  0.0428 -2.4718  1.5545
  726MOL0     H  134   3.883   3.445   6.906  1.0439  0.4701 -0.5028
  726MOL0     H  135   4.129   3.584   7.020 -2.8401 -0.0658  1.5798
  726MOL0     H  136   4.143   3.505   6.869  2.7357 -0.3713  1.6441
  726MOL0     H  137   4.082   3.647   6.641 -0.7777 -0.8781 -0.6032
  726MOL0     H  138   4.050   3.937   6.543 -0.3699  0.6891 -0.1673
  726MOL0     H  139   3.891   3.982   6.603  1.7824  2.9289 -1.7797
  726MOL0     H  140   3.988   3.766   6.423  0.3394  1.8374 -0.5314
  726MOL0     H  141   3.821   3.750   6.477  0.1628 -0.0631  0.2651
  726MOL0     H  142   3.916   3.951   6.273  0.0192 -2.0015 -1.5367
  726MOL0     H  143   3.799   3.825   6.270 -0.2392  0.9805 -0.9942
  726MOL0     H  144   3.787   4.089   6.415 -2.9396  0.1822  1.3705
  726MOL0     H  145   3.687   4.049   6.291  1.7473  1.1106  0.3335
  726MOL0     H  146   3.458   3.885   6.636 -1.6962 -3.1725  1.7336
  726MOL0     H  147   3.109   3.843   6.588 -1.2168 -0.4198  0.8687
  726MOL0     H  148   3.246   3.809   6.706  2.0020 -2.8401 -0.1392
  726MOL0     H  149   3.171   3.683   6.608 -0.5046  0.1466  0.4003
  726MOL0     H  150   2.814   3.929   6.409  0.3350  1.5260 -1.1136
  726MOL0     H  151   2.602   3.931   6.309  0.6005  0.3792 -3.0186
  726MOL0     H  152   2.512   3.801   5.960 -0.9227 -2.1918 -4.7297
  726MOL0     H  153   2.493   3.619   5.994  0.1696 -0.2550  1.2777
  726MOL0     H  154   2.247   3.703   6.062 -0.6722 -1.3551 -1.7279
  726MOL0     H  155   2.315   3.861   6.006  1.3072 -0.4901  0.4038
  726MOL0     H  156   2.292   3.616   5.826 -1.5225  0.6746  0.3483
  726MOL0     H  157   2.357   3.767   5.785  0.2718  1.3012  0.1953
  726MOL0     H  158   2.113   3.855   5.887  0.1247  2.4328 -2.7928
  726MOL0     H  159   2.055   3.698   5.847 -0.9252  1.0248  0.9890
  726MOL0     H  160   2.027   3.851   5.670 -0.2452  0.1562 -1.2501
  726MOL0     H  161   2.188   3.895   5.657 -3.5092  2.8552  1.1298
  726MOL0     H  162   2.078   3.620   5.610  1.6326  0.4090  2.0691
  726MOL0     H  163   2.239   3.667   5.567  1.4213  1.8073  0.7526
  726MOL0     H  164   2.183   3.825   5.407  0.5821 -1.2383 -0.9261
  726MOL0     H  165   2.011   3.836   5.453 -0.8929 -0.1026 -1.0212
  726MOL0     H  166   2.121   3.584   5.311 -3.2441 -1.6938 -2.5465
  726MOL0     H  167   2.052   3.713   5.232 -0.7761 -1.1726 -0.5446
  726MOL0     H  168   2.678   3.552   6.111 -0.8869  0.5089  0.4881
  726MOL0     H  169   2.907   3.559   6.209 -0.5289  0.5241  0.3314
  726MOL0     H  170   3.344   3.824   6.156  2.7268 -4.8153 -0.0517
  726MOL0     H  171   3.548   3.895   6.215 -0.6333 -0.9887 -0.9397
  726MOL0     H  172   3.985   3.658   7.900  0.5726 -1.2616 -0.6576
  726MOL0     H  173   3.849   3.670   8.112 -0.5755 -0.6682 -0.1366
  726MOL0     H  174   3.312   3.361   8.205 -2.1136  0.7584 -0.3264
  726MOL0     H  175   3.153   3.351   8.403 -0.1846  0.3570 -0.7687
  726MOL0     H  176   3.298   3.515   8.780 -0.0603  1.3667  1.3018
  726MOL0     H  177   3.145   3.548   8.821  1.4104 -0.6904  1.9097
  726MOL0     H  178   3.099   3.290   8.836 -0.3707  0.8130 -0.9099
  726MOL0     H  179   3.236   3.335   8.936 -0.5626  1.5017  0.9748
  726MOL0     H  180   3.204   3.185   8.692 -2.7545  3.4175  0.7896
  726MOL0     H  181   3.365   3.272   8.706  0.9208 -1.6979 -1.2212
  726MOL0     H  182   3.366   3.039   8.794  2.7190  0.5193  0.2042
  726MOL0     H  183   3.295   3.105   8.945 -1.4710  4.6816  1.0309
  726MOL0     H  184   3.688   3.241   8.969 -0.1907 -0.7386  0.9012
  726MOL0     H  185   3.414   3.609   8.616 -0.6085  0.9441 -1.3116
  726MOL0     H  186   3.595   3.753   8.450  2.1339  0.1987  2.7537
  726MOL0     H  187   3.652   3.605   8.535 -1.3763 -2.0514 -0.5939
  726MOL0     H  188   3.691   3.618   8.380  0.6154 -1.5995  1.5311
  727MOL0     O  189   7.844  11.212   0.853 -0.4126  0.6416 -0.2392
  727MOL0     C  190   7.857  11.253   0.965  0.0468 -0.5748 -0.3670
  727MOL0     O  191   7.780  11.212   1.073 -0.1420 -0.5731 -0.0151
  727MOL0     C  192   7.695  11.101   1.066  0.8693  0.4722 -1.1833
  727MOL0     C  193   7.726  10.977   1.010  0.3470 -0.2113  1.0592
  727MOL0     C  194   7.634  10.874   0.997  0.1304  0.5254 -0.3760
  727MOL0     C  195   7.510  10.888   1.055 -0.3628  0.0784 -0.4649
  727MOL0     O  196   7.423  10.782   1.060  0.8572 -0.0698  0.4071
  727MOL0     C  197   7.472  10.646   1.024  0.5655 -0.7371 -0.9496
  727MOL0     C  198   7.363  10.548   1.083  0.3503 -0.6330 -0.1273
  727MOL0     C  199   7.233  10.550   0.999  0.0144  1.1411 -0.4905
  727MOL0     C  200   7.144  10.434   1.053 -0.4385  0.8472 -0.3378
  727MOL0     C  201   7.002  10.446   1.014 -0.4502  0.1542  1.1909
  727MOL0     C  202   6.981  10.436   0.865 -0.2121 -0.1316  1.2413
  727MOL0     C  203   6.834  10.454   0.801  0.9367  0.1705  0.8116
  727MOL0     C  204   6.740  10.379   0.898 -0.4515  0.9312 -0.6206
  727MOL0     N  205   6.608  10.371   0.828 -1.7808  0.1529  0.2966
  727MOL0     C  206   6.505  10.462   0.844 -0.3274 -0.0066  0.4935
  727MOL0     C  207   6.403  10.410   0.767  0.9834 -0.4518 -0.2803
  727MOL0     C  208   6.264  10.464   0.793 -0.5533  0.1582  0.6019
  727MOL0     C  209   6.226  10.554   0.670  0.3758  0.3799  0.6091
  727MOL0     C  210   6.084  10.598   0.681 -0.2916  1.3279  0.1612
  727MOL0     C  211   6.032  10.660   0.550  0.1461 -0.4860  0.7542
  727MOL0     O  212   6.076  10.796   0.533  0.4321  0.1899 -0.5017
  727MOL0     C  213   6.013  10.878   0.447 -0.5375 -0.5793  0.1859
  727MOL0     C  214   5.992  10.846   0.314  0.7817 -0.1212  0.1217
  727MOL0     C  215   5.959  10.949   0.213 -1.0289  0.7128  0.1653
  727MOL0     C  216   5.973  10.904   0.063  0.8467 -0.1863 -0.0206
  727MOL0     C  217   5.926  11.081   0.266 -0.6730 -0.0210  0.0329
  727MOL0     C  218   5.856  11.182   0.178 -0.3487  0.3512  0.4171
  727MOL0     O  219   5.847  11.306   0.233 -0.0917 -0.0662 -1.2569
  727MOL0     C  220   5.787  11.410   0.165 -0.0100 -0.3329  0.3766
  727MOL0     C  221   5.663  11.387   0.096  0.7329 -0.5707  0.1004
  727MOL0     C  222   5.610  11.490   0.015 -0.8165  0.9325  0.5251
  727MOL0     C  223   5.670  11.614   0.015  0.2483 -0.4100  1.2721
  727MOL0     O  224   5.648  11.719  -0.071  0.0589  0.6216 -0.7197
  727MOL0     C  225   5.657  11.671  -0.204 -0.5124  0.0682  0.1489
  727MOL0     C  226   5.712  11.773  -0.304 -0.1326 -0.8275  0.3581
  727MOL0     C  227   5.615  11.824  -0.410  0.3549  0.6108  0.5627
  727MOL0     C  228   5.510  11.919  -0.352  0.4322 -0.5138 -0.1880
  727MOL0     C  229   5.383  11.915  -0.429  0.7027  0.3719 -0.9902
  727MOL0     C  230   5.282  12.028  -0.378 -1.2995  0.2145 -0.1174
  727MOL0     C  231   5.148  12.004  -0.458 -0.7974 -0.3917  0.3679
  727MOL0     C  232   5.058  12.127  -0.462  0.1753 -1.0160  0.0453
  727MOL0    Cl  233   5.076  12.207  -0.621  0.5910  0.2923 -0.0367
  727MOL0     C  234   5.774  11.639   0.105 -0.3421  0.1726  0.2487
  727MOL0     C  235   5.840  11.537   0.171 -0.6564 -0.2587 -0.2786
  727MOL0     O  236   5.835  11.161   0.063  0.9119  0.5887 -0.3381
  727MOL0     C  237   5.957  11.111   0.392  1.2680 -0.9076  0.1200
  727MOL0     C  238   5.997  11.014   0.486  0.2142  0.1497 -0.7864
  727MOL0     N  239   6.437  10.280   0.729 -0.3870 -0.5131 -0.0140
  727MOL0     N  240   6.563  10.264   0.746 -0.5066 -0.2086 -0.2054
  727MOL0     C  241   7.487  11.009   1.123 -0.2765 -0.6967  1.3033
  727MOL0     C  242   7.572  11.117   1.128  1.0350  0.1081  0.0634
  727MOL0     C  243   7.953  11.369   0.992  0.2694  0.2650 -0.5911
  727MOL0     C  244   7.922  11.442   1.114 -0.1793  0.3454  1.1150
  727MOL0     C  245   7.996  11.556   1.142  0.3939  0.0836  0.3786
  727MOL0     C  246   8.113  11.582   1.087  0.2864 -0.4145  0.0577
  727MOL0     O  247   8.199  11.678   1.144 -0.4498 -0.0989 -0.3232
  727MOL0     C  248   8.154  11.807   1.134  0.0887 -0.7881  0.3894
  727MOL0     C  249   8.265  11.907   1.165 -0.3088  0.1356 -0.1729
  727MOL0     C  250   8.378  11.902   1.069  0.8447 -0.2210 -0.5434
  727MOL0     C  251   8.487  11.986   1.118  0.2272  0.1155  1.1494
  727MOL0     C  252   8.453  12.129   1.110 -0.2871  0.6616  0.5171
  727MOL0     C  253   8.405  12.240   1.129 -0.6281  1.1906 -0.9373
  727MOL0     C  254   8.151  11.504   0.980 -0.2854 -0.8837 -0.2515
  727MOL0     C  255   8.069  11.409   0.914  0.1088 -0.3503 -0.1464
  727MOL0     C  256   8.104  11.366   0.772  1.1069  0.2351  1.4627
  727MOL0     H  257   7.819  10.975   0.954 -0.6482  1.8957 -0.8416
  727MOL0     H  258   7.662  10.794   0.929 -0.3893  1.3678 -1.6122
  727MOL0     H  259   7.567  10.623   1.073  2.0523  1.8868 -2.3995
  727MOL0     H  260   7.465  10.642   0.915  3.2954 -0.1017 -1.2028
  727MOL0     H  261   7.407  10.448   1.073 -1.1564 -1.1675 -1.7509
  727MOL0     H  262   7.347  10.578   1.187 -1.3691 -4.5429  0.8841
  727MOL0     H  263   7.185  10.647   1.012 -3.0042 -0.2772 -0.0042
  727MOL0     H  264   7.262  10.521   0.898  2.8339 -3.6769  1.3517
  727MOL0     H  265   7.187  10.347   1.002 -0.2970  0.9635 -0.4145
  727MOL0     H  266   7.142  10.412   1.160  1.2332 -0.0462 -0.4523
  727MOL0     H  267   6.958  10.537   1.055 -1.0152 -0.0793  1.1217
  727MOL0     H  268   6.949  10.359   1.055 -1.6913  1.1195  1.7051
  727MOL0     H  269   7.037  10.516   0.815  0.5960 -1.2187  0.3840
  727MOL0     H  270   7.014  10.343   0.819  2.0160  1.7105 -1.2705
  727MOL0     H  271   6.829  10.418   0.698 -1.6923  0.1227  0.8765
  727MOL0     H  272   6.811  10.561   0.802  0.1715  0.0862 -1.5313
  727MOL0     H  273   6.783  10.279   0.911 -0.9810  0.4780 -2.1210
  727MOL0     H  274   6.741  10.436   0.991  3.0551 -0.7737  0.5543
  727MOL0     H  275   6.509  10.553   0.902 -0.1245 -1.3098  2.6545
  727MOL0     H  276   6.259  10.510   0.892 -3.1147  1.7712 -0.1726
  727MOL0     H  277   6.189  10.387   0.809  0.3579 -0.3106  3.0528
  727MOL0     H  278   6.306  10.629   0.672 -1.0150  1.8991  2.2693
  727MOL0     H  279   6.246  10.499   0.577 -0.4099  1.7461 -0.3857
  727MOL0     H  280   6.026  10.516   0.723 -1.5482  2.1141  0.0366
  727MOL0     H  281   6.063  10.677   0.754 -0.9399  2.7645 -1.5116
  727MOL0     H  282   6.074  10.593   0.475  0.5160  0.5455  0.0046
  727MOL0     H  283   5.924  10.648   0.558 -0.0745  1.6661  1.8147
  727MOL0     H  284   6.002  10.741   0.286  2.8170 -0.3131  1.4023
  727MOL0     H  285   6.066  10.953   0.034 -0.7877  3.4524  0.2166
  727MOL0     H  286   5.882  10.929   0.008  0.5053 -1.1741  0.0714
  727MOL0     H  287   5.992  10.797   0.052  0.3829 -0.4936  1.8408
  727MOL0     H  288   5.615  11.290   0.095 -0.4691 -0.0133  1.1613
  727MOL0     H  289   5.523  11.492  -0.049 -0.1978  1.1409 -0.3243
  727MOL0     H  290   5.722  11.582  -0.212  0.9185  1.2206 -2.3563
  727MOL0     H  291   5.560  11.636  -0.239  0.0261 -0.2401 -1.0904
  727MOL0     H  292   5.754  11.853  -0.242  0.0407 -1.4716  1.0871
  727MOL0     H  293   5.792  11.721  -0.358 -0.2852  1.5513 -2.4331
  727MOL0     H  294   5.566  11.741  -0.461 -0.4606 -1.4654  4.3533
  727MOL0     H  295   5.670  11.885  -0.482  4.3771 -0.7863  2.1768
  727MOL0     H  296   5.551  12.020  -0.354 -1.6610  0.3640 -0.1809
  727MOL0     H  297   5.487  11.891  -0.249  0.0612 -0.4940 -0.2642
  727MOL0     H  298   5.394  11.921  -0.538  2.0810 -2.6375 -1.1188
  727MOL0     H  299   5.331  11.821  -0.405  3.3783 -1.0048 -0.1591
  727MOL0     H  300   5.331  12.119  -0.415 -1.4488 -0.0503 -0.9909
  727MOL0     H  301   5.275  12.025  -0.269  2.3924 -0.2788  0.2509
  727MOL0     H  302   5.095  11.924  -0.405 -2.5671 -0.1247 -0.8964
  727MOL0     H  303   5.179  11.967  -0.556  7.1116  0.7563  1.7330
  727MOL0     H  304   5.088  12.185  -0.375 -0.1899 -3.0301  1.5991
  727MOL0     H  305   4.956  12.091  -0.448 -1.0536  1.9816 -0.4860
  727MOL0     H  306   5.823  11.736   0.111  6.2059 -2.5796  0.0287
  727MOL0     H  307   5.934  11.545   0.226 -0.1755 -1.2354 -0.9324
  727MOL0     H  308   5.950  11.214   0.426  0.9577 -0.4200 -1.3634
  727MOL0     H  309   6.033  11.036   0.587 -0.6336 -1.1911 -0.1621
  727MOL0     H  310   7.385  11.007   1.160 -1.3369 -0.2223 -1.4005
  727MOL0     H  311   7.534  11.210   1.170  1.7212  0.4739 -0.1158
  727MOL0     H  312   7.836  11.404   1.168 -0.8672  1.1292  0.5928
  727MOL0     H  313   7.969  11.610   1.232 -1.3892  1.5530 -0.9579
  727MOL0     H  314   8.121  11.826   1.031 -0.1833 -1.4365  0.3491
  727MOL0     H  315   8.073  11.827   1.204  1.1649  0.9484  1.1878
  727MOL0     H  316   8.310  11.872   1.258  3.6476  1.0801 -1.5478
  727MOL0     H  317   8.235  12.012   1.176  1.0032  0.5406 -0.2678
  727MOL0     H  318   8.422  11.802   1.076  0.1970 -0.3902  1.9492
  727MOL0     H  319   8.344  11.935   0.970 -1.9654 -0.4077  0.2585
  727MOL0     H  320   8.575  11.969   1.055 -0.4115  0.4583  0.1659
  727MOL0     H  321   8.520  11.972   1.222 -0.1619  0.1139  1.2735
  727MOL0     H  322   8.369  12.337   1.158  0.2927  1.3176 -0.1842
  727MOL0     H  323   8.250  11.519   0.938 -0.7203 -1.3356 -1.4730
  727MOL0     H  324   8.136  11.261   0.765  0.7723  0.0889  2.0542
  727MOL0     H  325   8.011  11.353   0.717  2.5031 -1.6163 -0.6486
  727MOL0     H  326   8.172  11.431   0.716  1.0166 -1.7471 -1.1352
  728MOL0     O  327   2.626   3.441  10.489 -0.3923  0.1970 -0.1372
  728MOL0     C  328   2.579   3.518  10.574  0.7813 -0.5375 -0.5779
  728MOL0     O  329   2.472   3.486  10.661 -0.2177  0.7460 -0.2095
  728MOL0     C  330   2.427   3.353  10.652  0.8254 -0.1367 -0.1473
  728MOL0     C  331   2.479   3.256  10.737  0.9339  0.8153 -0.5692
  728MOL0     C  332   2.402   3.138  10.756  0.2551 -0.5402 -0.2725
  728MOL0     C  333   2.282   3.117  10.688  0.6092  0.2825 -0.0861
  728MOL0     O  334   2.198   3.011  10.725  0.4704  0.3047 -0.3718
  728MOL0     C  335   2.251   2.884  10.691 -0.0023 -0.6479  1.4039
  728MOL0     C  336   2.136   2.783  10.692  0.7949 -0.0223  0.6209
  728MOL0     C  337   2.051   2.771  10.567  0.0524  0.1946  0.4047
  728MOL0     C  338   1.999   2.910  10.501 -0.9283 -0.4623 -0.6894
  728MOL0     C  339   1.890   2.885  10.387 -0.3457 -0.4356 -1.1025
  728MOL0     C  340   1.750   2.853  10.450  0.1892 -0.3215  0.0222
  728MOL0     C  341   1.640   2.836  10.353  0.6829 -0.1069 -0.4247
  728MOL0     C  342   1.515   2.805  10.439  0.0933 -0.3506  0.2540
  728MOL0     N  343   1.393   2.781  10.361 -0.5711 -0.2899 -0.7723
  728MOL0     C  344   1.288   2.698  10.401  0.2905 -0.2219  1.1246
  728MOL0     C  345   1.178   2.743  10.333 -0.1747  0.0178 -0.6109
  728MOL0     C  346   1.043   2.696  10.341  0.1139  0.3624 -0.0281
  728MOL0     C  347   0.970   2.770  10.460 -0.3362  0.2150  0.3604
  728MOL0     C  348   0.818   2.773  10.449 -0.2713 -0.9138  0.1339
  728MOL0     C  349   0.771   2.883  10.345 -0.5764  0.2348  0.1769
  728MOL0     O  350   0.637   2.859  10.319  0.0039 -0.2681  0.8818
  728MOL0     C  351   0.580   2.957  10.251  0.0596 -0.4599  0.1627
  728MOL0     C  352   0.441   2.968  10.250  0.2680  0.9101 -0.1594
  728MOL0     C  353   0.368   3.074  10.187 -0.5944 -0.0650  0.2375
  728MOL0     C  354   0.217   3.068  10.210  0.4614  0.3650  0.3742
  728MOL0     C  355   0.436   3.166  10.104 -0.5393 -0.1776  0.1889
  728MOL0     C  356   0.359   3.279  10.027 -0.5790 -0.3081 -0.9780
  728MOL0     O  357   0.222   3.275  10.016 -0.5422  0.0615 -0.3103
  728MOL0     C  358   0.156   3.369   9.937 -0.0982 -0.1439 -0.1146
  728MOL0     C  359   0.149   3.506   9.973 -0.1247  0.9588 -0.4242
  728MOL0     C  360   0.066   3.577   9.885  0.3373  0.4813  0.0520
  728MOL0     C  361  -0.008   3.522   9.779 -1.1376 -0.3245 -1.2804
  728MOL0     O  362  -0.074   3.603   9.700 -0.7026  0.5510 -0.2167
  728MOL0     C  363  -0.007   3.702   9.638  0.0341 -0.4965  1.3131
  728MOL0     C  364   0.085   3.632   9.530 -0.2421 -0.3069 -0.4923
  728MOL0     C  365   0.011   3.609   9.398  0.1207 -0.0020 -0.3152
  728MOL0     C  366  -0.126   3.523   9.401 -0.9652 -0.1888 -0.1612
  728MOL0     C  367  -0.229   3.630   9.381  1.4190 -0.1159  0.0268
  728MOL0     C  368  -0.239   3.679   9.233 -0.3592  0.3979 -0.0734
  728MOL0     C  369  -0.326   3.801   9.206 -0.5358  0.9108 -0.5399
  728MOL0     C  370  -0.275   3.890   9.105 -0.3716 -0.6162 -0.3460
  728MOL0    Cl  371  -0.258   3.803   8.943  0.0987 -0.3287 -0.5522
  728MOL0     C  372   0.006   3.384   9.747 -0.3641 -0.5023  0.4138
  728MOL0     C  373   0.097   3.312   9.822  0.0098  0.1008  0.1504
  728MOL0     O  374   0.417   3.373   9.982 -0.0308 -0.4829  0.2370
  728MOL0     C  375   0.577   3.160  10.112 -0.1330  0.3488  1.2934
  728MOL0     C  376   0.646   3.047  10.160  1.0774 -0.7570  0.7494
  728MOL0     N  377   1.226   2.828  10.240 -0.6964  0.1214  0.9309
  728MOL0     N  378   1.354   2.860  10.257 -0.0716  0.7848  0.4606
  728MOL0     C  379   2.237   3.215  10.597  0.7255 -0.5672 -0.1033
  728MOL0     C  380   2.315   3.330  10.569 -0.8000 -1.1759 -0.7141
  728MOL0     C  381   2.634   3.668  10.571  0.2977  0.3887  0.1513
  728MOL0     C  382   2.764   3.696  10.520  0.1113 -0.2120 -0.3848
  728MOL0     C  383   2.826   3.817  10.542 -0.9068  0.7449 -0.9176
  728MOL0     C  384   2.752   3.920  10.596  0.3764 -0.3390  0.6231
  728MOL0     O  385   2.820   4.039  10.588  0.2145  0.0303 -0.3128
  728MOL0     C  386   2.778   4.138  10.675  0.4186  0.0800 -1.0219
  728MOL0     C  387   2.888   4.250  10.674  0.3944 -0.2219 -0.1621
  728MOL0     C  388   3.023   4.191  10.732  0.4976 -0.4570  0.1997
  728MOL0     C  389   3.125   4.303  10.733 -0.2984 -0.7955  0.3159
  728MOL0     C  390   3.249   4.251  10.794  1.0300 -0.5415  0.4663
  728MOL0     C  391   3.336   4.213  10.871  0.8417  0.3289  0.9042
  728MOL0     C  392   2.626   3.898  10.647  0.2508  0.3808  0.3134
  728MOL0     C  393   2.562   3.778  10.630  1.4200 -0.2705 -0.2614
  728MOL0     C  394   2.416   3.770  10.666 -0.3155 -0.5941  0.3424
  728MOL0     H  395   2.569   3.289  10.788  0.6122  4.1465 -1.8929
  728MOL0     H  396   2.428   3.062  10.829 -1.3935 -2.7997 -1.8644
  728MOL0     H  397   2.319   2.854  10.771 -1.2889  0.5064  2.9743
  728MOL0     H  398   2.300   2.879  10.593  0.8939  0.2638  1.7958
  728MOL0     H  399   2.171   2.681  10.708 -1.1581 -0.6712  1.0602
  728MOL0     H  400   2.066   2.808  10.772 -0.4075  1.3421 -0.7763
  728MOL0     H  401   2.112   2.724  10.490  0.0153  0.5551  0.1523
  728MOL0     H  402   1.968   2.702  10.586 -1.0128  1.4626  0.5372
  728MOL0     H  403   1.957   2.969  10.583 -0.1659  4.3445 -3.3737
  728MOL0     H  404   2.080   2.973  10.461 -0.2008 -0.1222  1.2223
  728MOL0     H  405   1.922   2.805  10.319  0.1698  0.8237 -2.3946
  728MOL0     H  406   1.894   2.976  10.326  1.1729  2.9334  3.3958
  728MOL0     H  407   1.759   2.761  10.509 -0.1103  0.1489  0.8311
  728MOL0     H  408   1.708   2.940  10.503  0.0080  0.3497 -1.1871
  728MOL0     H  409   1.656   2.759  10.277  1.8267  2.1895 -2.6915
  728MOL0     H  410   1.621   2.926  10.293  2.1038 -0.3985 -1.3651
  728MOL0     H  411   1.525   2.725  10.513 -0.7517 -0.1384  0.6128
  728MOL0     H  412   1.487   2.895  10.494 -1.3657 -1.2577  1.0594
  728MOL0     H  413   1.291   2.609  10.462 -2.3867 -0.1839  1.4148
  728MOL0     H  414   1.041   2.590  10.367  0.3125 -0.3572 -2.6664
  728MOL0     H  415   0.990   2.714  10.247 -1.8444 -1.9562  0.5399
  728MOL0     H  416   0.988   2.724  10.558 -1.9162  0.7961  0.9564
  728MOL0     H  417   1.005   2.874  10.461 -0.5130  0.2777  0.0483
  728MOL0     H  418   0.763   2.680  10.430 -2.4416 -0.1281  2.0695
  728MOL0     H  419   0.786   2.817  10.544 -2.3033 -0.5452 -0.6697
  728MOL0     H  420   0.784   2.978  10.398 -1.7990  0.9805 -0.8062
  728MOL0     H  421   0.818   2.874  10.247 -0.5742 -1.3868  0.3096
  728MOL0     H  422   0.378   2.895  10.298 -1.5038  1.3562 -1.6889
  728MOL0     H  423   0.163   3.058  10.115 -1.9302 -0.2078  1.7132
  728MOL0     H  424   0.187   3.164  10.252  0.6931 -0.3700  2.2922
  728MOL0     H  425   0.186   2.993  10.283 -1.4829 -0.2183 -0.9550
  728MOL0     H  426   0.208   3.554  10.050  1.3425 -2.6802  0.9485
  728MOL0     H  427   0.056   3.684   9.901 -1.5094  0.8493 -2.8251
  728MOL0     H  428  -0.080   3.773   9.598  1.0473  2.5093  4.2751
  728MOL0     H  429   0.053   3.766   9.703 -1.2502 -0.7372  2.8024
  728MOL0     H  430   0.165   3.704   9.510 -2.1339  1.2809 -3.0705
  728MOL0     H  431   0.121   3.536   9.568 -0.2107  1.2881  4.1339
  728MOL0     H  432   0.073   3.545   9.334  0.1435 -0.6386  0.3359
  728MOL0     H  433   0.007   3.703   9.341  0.5063 -0.6920 -1.5174
  728MOL0     H  434  -0.136   3.465   9.493 -1.1894 -2.0613 -1.3062
  728MOL0     H  435  -0.127   3.451   9.319  0.0891 -1.6957  1.0872
  728MOL0     H  436  -0.329   3.592   9.405  1.7404  0.1613  1.9866
  728MOL0     H  437  -0.215   3.716   9.447 -2.4197  0.4536  0.3150
  728MOL0     H  438  -0.280   3.592   9.180  1.4870 -1.5511  1.5475
  728MOL0     H  439  -0.141   3.706   9.195 -1.7792  2.1482 -2.8572
  728MOL0     H  440  -0.335   3.863   9.296 -0.9989  0.6750 -0.4219
  728MOL0     H  441  -0.420   3.761   9.167  1.2410  0.8592 -5.4058
  728MOL0     H  442  -0.180   3.924   9.147 -0.8458 -1.7841  1.8407
  728MOL0     H  443  -0.336   3.980   9.096  0.1215 -0.4145 -1.8232
  728MOL0     H  444  -0.052   3.333   9.671 -2.3380  1.7166  0.2961
  728MOL0     H  445   0.105   3.208   9.792  0.0304  0.2233 -0.2768
  728MOL0     H  446   0.642   3.238  10.074  0.4030 -0.6563  0.0381
  728MOL0     H  447   0.754   3.039  10.152  0.9897 -1.3853  0.1069
  728MOL0     H  448   2.146   3.213  10.538  1.9694  0.2038 -2.1278
  728MOL0     H  449   2.289   3.406  10.496  0.0772 -0.9550 -0.8083
  728MOL0     H  450   2.818   3.616  10.469  2.3035 -1.3744  3.3294
  728MOL0     H  451   2.933   3.821  10.523 -0.7257 -0.6758 -0.3090
  728MOL0     H  452   2.688   4.180  10.629 -0.4606 -2.2720 -1.6201
  728MOL0     H  453   2.757   4.101  10.776 -0.8220  1.3667 -0.7797
  728MOL0     H  454   2.857   4.329  10.744  1.4185  0.6374 -0.6380
  728MOL0     H  455   2.889   4.297  10.575 -0.3593  0.6207  0.2172
  728MOL0     H  456   3.003   4.160  10.835 -3.2140  0.2917 -0.1348
  728MOL0     H  457   3.054   4.104  10.675 -0.6375 -0.1358 -0.9430
  728MOL0     H  458   3.101   4.396  10.786  1.9354  0.1450 -0.2018
  728MOL0     H  459   3.149   4.345  10.635  2.3297 -4.7497 -0.9817
  728MOL0     H  460   3.426   4.200  10.928  0.2506 -2.1463  1.3831
  728MOL0     H  461   2.570   3.984  10.682 -0.0926  0.7489 -1.0733
  728MOL0     H  462   2.376   3.872  10.674 -3.9487 -1.8329 -0.1742
  728MOL0     H  463   2.348   3.716  10.599 -1.8340 -0.1444  1.4639
  728MOL0     H  464   2.410   3.727  10.766  1.9447 -0.2004  0.6909
  729MOL0     O  465   6.250   0.745   3.445  0.0597 -0.8587  0.0867
  729MOL0     C  466   6.282   0.723   3.559 -0.6521  0.0415 -0.2829
  729MOL0     O  467   6.410   0.716   3.611 -0.4330 -0.3551 -0.2604
  729MOL0     C  468   6.505   0.772   3.529  0.2002 -0.4607 -0.7777
  729MOL0     C  469   6.539   0.700   3.414  0.2606 -0.2507  0.0721
  729MOL0     C  470   6.628   0.760   3.318  0.0753  0.2633  0.2905
  729MOL0     C  471   6.672   0.888   3.317  0.2097 -0.0573 -0.6843
  729MOL0     O  472   6.740   0.924   3.204 -0.8254 -0.1250 -0.1717
  729MOL0     C  473   6.770   1.062   3.186  0.7614 -0.4060 -1.4780
  729MOL0     C  474   6.889   1.089   3.081  0.3196 -0.5748 -0.4248
  729MOL0     C  475   6.887   1.229   3.032  0.2880 -0.8868  0.1141
  729MOL0     C  476   7.019   1.269   2.960  0.2281  0.8613 -0.1041
  729MOL0     C  477   7.147   1.275   3.049 -0.5854 -0.8157 -1.1369
  729MOL0     C  478   7.240   1.403   3.050 -0.0094  0.5204  0.2110
  729MOL0     C  479   7.172   1.535   3.083  0.4348 -0.1178 -0.0283
  729MOL0     C  480   7.148   1.519   3.230  0.2087 -0.0585 -0.8126
  729MOL0     N  481   7.122   1.649   3.282 -1.0598 -0.6925  0.7993
  729MOL0     C  482   7.068   1.762   3.213 -0.3456  1.2955  1.1812
  729MOL0     C  483   7.075   1.859   3.304 -0.3268 -0.0113  0.5016
  729MOL0     C  484   7.041   2.003   3.300  0.7863 -0.5773  0.4231
  729MOL0     C  485   7.130   2.089   3.390  0.2175  0.4467 -0.4220
  729MOL0     C  486   7.142   2.229   3.340 -0.1948 -0.2520  0.4856
  729MOL0     C  487   7.214   2.253   3.214 -0.1938  0.1653 -0.7514
  729MOL0     O  488   7.357   2.230   3.249  0.4762  0.2328 -0.5722
  729MOL0     C  489   7.442   2.285   3.157  0.0547 -0.2607 -0.1228
  729MOL0     C  490   7.572   2.301   3.207 -0.1474 -0.4118  0.0857
  729MOL0     C  491   7.672   2.350   3.129 -0.6020  0.7074 -0.5461
  729MOL0     C  492   7.807   2.365   3.199  0.8562  0.5828  0.4989
  729MOL0     C  493   7.654   2.398   2.998 -0.8881  0.1205  0.1858
  729MOL0     C  494   7.760   2.465   2.910 -0.2335 -0.2449 -0.5226
  729MOL0     O  495   7.703   2.512   2.795  0.8473  0.9579  0.2906
  729MOL0     C  496   7.770   2.582   2.699 -0.3915  0.4751  0.0840
  729MOL0     C  497   7.905   2.569   2.669 -0.5028  0.4223  0.9157
  729MOL0     C  498   7.968   2.650   2.575 -0.3231 -0.5854 -0.3331
  729MOL0     C  499   7.891   2.749   2.502 -0.2837  0.3950  0.7230
  729MOL0     O  500   7.942   2.815   2.395  0.0290  0.8351  0.1294
  729MOL0     C  501   8.073   2.871   2.406 -0.2873  0.3348 -0.3457
  729MOL0     C  502   8.074   3.018   2.464 -0.1766  0.0281 -0.0065
  729MOL0     C  503   8.213   3.088   2.465 -0.3435  0.1291 -0.5526
  729MOL0     C  504   8.206   3.246   2.477  0.8309 -0.1029  0.0339
  729MOL0     C  505   8.325   3.315   2.531 -0.3905 -1.2473  0.0156
  729MOL0     C  506   8.295   3.458   2.553 -0.4084 -0.2476  0.1153
  729MOL0     C  507   8.418   3.538   2.604  0.6311 -0.6856  1.1558
  729MOL0     C  508   8.401   3.679   2.546 -0.0042 -0.2306  0.3289
  729MOL0    Cl  509   8.507   3.779   2.652  0.0571 -0.1141  0.1475
  729MOL0     C  510   7.763   2.772   2.540  0.1862  0.1489 -0.7013
  729MOL0     C  511   7.699   2.689   2.638 -0.1233  0.5629 -1.9041
  729MOL0     O  512   7.879   2.474   2.944  0.4078 -0.1715 -0.3374
  729MOL0     C  513   7.518   2.388   2.946 -0.2018  1.3407  0.1919
  729MOL0     C  514   7.419   2.333   3.022 -0.2736 -0.2173 -0.7898
  729MOL0     N  515   7.120   1.806   3.425 -0.2664  0.6116  0.3205
  729MOL0     N  516   7.154   1.682   3.411 -0.5820  0.3369 -0.2267
  729MOL0     C  517   6.637   0.958   3.440  0.2959 -0.6288  0.7784
  729MOL0     C  518   6.560   0.896   3.545 -0.1618 -0.0038  0.5176
  729MOL0     C  519   6.182   0.674   3.657  1.6478 -0.0029 -1.0951
  729MOL0     C  520   6.228   0.614   3.778 -0.3330 -0.4885  0.4977
  729MOL0     C  521   6.144   0.588   3.885  0.4886  1.1246  0.0763
  729MOL0     C  522   6.009   0.606   3.878  0.2074  0.0960 -0.4837
  729MOL0     O  523   5.928   0.569   3.986 -0.7010 -0.0942  0.7606
  729MOL0     C  524   5.811   0.651   4.022 -0.6343  0.1168 -0.1802
  729MOL0     C  525   5.849   0.770   4.119  0.4460  0.2863  0.3042
  729MOL0     C  526   5.940   0.879   4.049 -0.2277 -0.8442 -0.0022
  729MOL0     C  527   5.931   1.016   4.107  0.4539  0.3846 -0.1361
  729MOL0     C  528   5.995   1.027   4.244 -0.2273  0.2229  0.5848
  729MOL0     C  529   6.057   1.028   4.345  0.2637  0.0067 -0.7448
  729MOL0     C  530   5.956   0.661   3.761 -0.2669 -0.5682  0.2337
  729MOL0     C  531   6.034   0.690   3.649  0.3301  0.0732 -0.3980
  729MOL0     C  532   5.967   0.766   3.534 -0.1387 -0.1977 -0.2340
  729MOL0     H  533   6.502   0.601   3.391  0.0833  0.0623 -1.1111
  729MOL0     H  534   6.662   0.697   3.236 -0.2184 -1.7754  1.6621
  729MOL0     H  535   6.789   1.100   3.287 -0.9474  0.3051 -1.3928
  729MOL0     H  536   6.675   1.104   3.151 -0.1991 -1.0049  0.2777
  729MOL0     H  537   6.982   1.075   3.137 -0.4582 -3.1014  0.3258
  729MOL0     H  538   6.881   1.018   2.998 -1.5574 -0.1376 -0.6674
  729MOL0     H  539   6.814   1.234   2.951  3.4435 -0.5369 -2.9777
  729MOL0     H  540   6.862   1.283   3.124 -2.6929 -0.0462 -1.0787
  729MOL0     H  541   7.041   1.197   2.882 -0.2035 -1.7115  2.0110
  729MOL0     H  542   7.003   1.362   2.904 -1.5882  1.0208  0.5914
  729MOL0     H  543   7.212   1.195   3.011  1.4055  0.4523 -0.5580
  729MOL0     H  544   7.115   1.266   3.153  0.1704 -1.3460 -0.9475
  729MOL0     H  545   7.321   1.391   3.122 -1.1919 -2.3667  1.1801
  729MOL0     H  546   7.279   1.420   2.949 -1.9593  0.0250 -0.6754
  729MOL0     H  547   7.085   1.538   3.016  1.0504 -1.5660 -0.9519
  729MOL0     H  548   7.237   1.621   3.067 -1.6193  1.4655 -0.3150
  729MOL0     H  549   7.058   1.461   3.253  0.5831  0.6164  3.0783
  729MOL0     H  550   7.228   1.492   3.299 -0.8889  0.4093  0.7098
  729MOL0     H  551   7.042   1.765   3.108  1.0521 -1.6005  0.6425
  729MOL0     H  552   6.938   2.021   3.331  0.3010 -1.9990 -0.3200
  729MOL0     H  553   7.043   2.033   3.195  1.5082 -1.6532  0.1082
  729MOL0     H  554   7.092   2.083   3.493  1.9578  1.5134  0.3195
  729MOL0     H  555   7.231   2.048   3.388 -0.1215 -1.8783  5.9477
  729MOL0     H  556   7.040   2.264   3.323 -1.6311 -4.5031 -0.7979
  729MOL0     H  557   7.175   2.293   3.422 -3.7362 -3.0725  4.5197
  729MOL0     H  558   7.174   2.183   3.140  1.6483 -2.7971  0.8583
  729MOL0     H  559   7.207   2.353   3.170  3.2280 -0.5696 -3.4622
  729MOL0     H  560   7.581   2.249   3.301 -0.0514 -1.4394 -0.4836
  729MOL0     H  561   7.874   2.309   3.133 -3.7308 -3.8711 -0.9661
  729MOL0     H  562   7.796   2.311   3.294 -2.6245  1.0487  0.4714
  729MOL0     H  563   7.842   2.469   3.205  1.0929  0.5561 -0.3513
  729MOL0     H  564   7.965   2.485   2.703 -2.3241 -1.3784 -0.1151
  729MOL0     H  565   8.067   2.612   2.550 -0.6116 -0.4153 -1.8098
  729MOL0     H  566   8.131   2.815   2.481 -0.6061  0.4282 -0.0280
  729MOL0     H  567   8.143   2.862   2.322 -1.2926 -1.5000 -1.0465
  729MOL0     H  568   8.001   3.070   2.401  2.6352  1.0683 -2.7001
  729MOL0     H  569   8.036   3.008   2.566  0.0024 -0.5226  0.0073
  729MOL0     H  570   8.259   3.058   2.370 -1.5783 -2.7687 -0.3417
  729MOL0     H  571   8.274   3.055   2.549  0.2165 -0.3767 -1.1503
  729MOL0     H  572   8.126   3.259   2.550  0.4754 -0.3149 -0.3092
  729MOL0     H  573   8.175   3.282   2.378 -1.6207  0.1286  0.8116
  729MOL0     H  574   8.356   3.271   2.626 -0.8753 -0.4302  0.5608
  729MOL0     H  575   8.401   3.302   2.453  1.5256 -2.5685  1.9618
  729MOL0     H  576   8.214   3.470   2.625 -0.0879  2.8963  0.0675
  729MOL0     H  577   8.256   3.497   2.458 -2.3809  1.9541  1.7347
  729MOL0     H  578   8.513   3.500   2.566  0.2530  0.5539 -1.2478
  729MOL0     H  579   8.431   3.540   2.712  1.3582 -0.7653  1.0688
  729MOL0     H  580   8.303   3.728   2.543 -0.3505 -0.7498  2.2021
  729MOL0     H  581   8.432   3.674   2.441 -0.3224 -0.3513  0.2366
  729MOL0     H  582   7.702   2.841   2.482 -0.0457 -0.8830 -1.7183
  729MOL0     H  583   7.596   2.709   2.668 -0.4630 -0.6656 -2.1817
  729MOL0     H  584   7.494   2.425   2.847  0.9687  0.2200 -0.5528
  729MOL0     H  585   7.323   2.333   2.971  0.4005  2.3124 -2.2639
  729MOL0     H  586   6.653   1.063   3.463  1.9380 -0.9609  1.2780
  729MOL0     H  587   6.515   0.952   3.626 -0.2249 -2.8136  2.5621
  729MOL0     H  588   6.334   0.594   3.790  0.6623  3.2392 -0.5265
  729MOL0     H  589   6.191   0.552   3.976 -2.3653 -0.0797  1.1769
  729MOL0     H  590   5.757   0.695   3.938 -1.7620  0.0165  0.4660
  729MOL0     H  591   5.736   0.588   4.072  0.8956 -2.0636 -0.4831
  729MOL0     H  592   5.893   0.740   4.214  0.6701 -0.4496 -0.0212
  729MOL0     H  593   5.756   0.820   4.147  2.0534  1.9494  3.1614
  729MOL0     H  594   6.042   0.839   4.058  1.2885  2.7303  0.2099
  729MOL0     H  595   5.911   0.895   3.945 -2.7243 -1.3152  0.5521
  729MOL0     H  596   5.828   1.052   4.113  0.0463 -0.7366 -0.1422
  729MOL0     H  597   5.982   1.083   4.037 -1.3147  0.8140 -1.0611
  729MOL0     H  598   6.113   1.031   4.437 -2.3973 -1.9666  1.1020
  729MOL0     H  599   5.852   0.691   3.755  0.0065  1.1258  2.5838
  729MOL0     H  600   5.963   0.705   3.444  1.3105  0.7547 -0.9802
  729MOL0     H  601   5.865   0.797   3.561  0.3671  0.2101  1.3418
  729MOL0     H  602   6.017   0.860   3.510  2.8179 -0.6522  3.1986
  730MOL0     O  603   4.492   4.982   4.053 -1.0840  0.1608  0.2002
  730MOL0     C  604   4.590   4.986   3.978  0.0516  0.0282  0.4555
  730MOL0     O  605   4.712   5.060   3.998  0.5853  0.0939 -0.0037
  730MOL0     C  606   4.732   5.113   4.120 -0.6114 -0.0681 -0.3478
  730MOL0     C  607   4.807   5.229   4.124 -0.4079  0.5941 -0.1070
  730MOL0     C  608   4.844   5.277   4.248 -0.3199  0.5563 -0.2538
  730MOL0     C  609   4.808   5.208   4.365 -0.6552 -0.0883 -0.4162
  730MOL0     O  610   4.857   5.240   4.492  0.1455 -0.0367  0.4748
  730MOL0     C  611   4.957   5.341   4.497  0.9632  1.1582  0.2665
  730MOL0     C  612   5.012   5.329   4.629  0.7146 -0.7074  0.3810
  730MOL0     C  613   4.920   5.361   4.745  0.1042  0.3031  0.1790
  730MOL0     C  614   4.990   5.340   4.878  0.4760  0.2485  0.4714
  730MOL0     C  615   5.070   5.471   4.918  0.0727 -0.7274  1.2039
  730MOL0     C  616   5.152   5.458   5.048  0.1019  0.0588  0.3154
  730MOL0     C  617   5.067   5.465   5.172 -0.2299 -0.0510 -0.4685
  730MOL0     C  618   5.011   5.607   5.201  0.5324  0.6966  0.7345
  730MOL0     N  619   4.965   5.621   5.336  1.2379  0.4195 -0.2415
  730MOL0     C  620   4.989   5.534   5.444  0.1587  0.3584 -0.3457
  730MOL0     C  621   4.917   5.589   5.547 -0.2311 -0.3134 -0.6802
  730MOL0     C  622   4.944   5.542   5.695  0.4607 -0.2878  0.1636
  730MOL0     C  623   4.981   5.665   5.789  0.1301  0.0248  0.3663
  730MOL0     C  624   4.960   5.629   5.942 -0.5668 -1.0231  0.1961
  730MOL0     C  625   5.092   5.595   6.014 -0.0922 -0.5072  0.3466
  730MOL0     O  626   5.071   5.599   6.152  0.5629 -0.8953 -0.3443
  730MOL0     C  627   5.166   5.564   6.241 -0.0429  0.8336 -0.5785
  730MOL0     C  628   5.294   5.517   6.214  0.0722  0.0550 -0.0538
  730MOL0     C  629   5.395   5.492   6.321 -0.6771  0.1549  0.3268
  730MOL0     C  630   5.539   5.466   6.290 -0.2991  0.0238 -0.0985
  730MOL0     C  631   5.355   5.514   6.452  0.7380  0.8814 -1.2754
  730MOL0     C  632   5.445   5.503   6.581 -0.4171 -0.3058 -0.1376
  730MOL0     O  633   5.385   5.558   6.691 -0.5443 -0.1802  0.0523
  730MOL0     C  634   5.464   5.568   6.801 -0.7908 -0.1809  1.1383
  730MOL0     C  635   5.450   5.487   6.906  0.5579 -0.2936 -0.5958
  730MOL0     C  636   5.532   5.488   7.024  0.6655 -1.1919  0.4914
  730MOL0     C  637   5.624   5.588   7.031 -0.5106 -0.4007  0.0247
  730MOL0     O  638   5.693   5.626   7.145 -0.4927  0.5081 -0.4660
  730MOL0     C  639   5.742   5.521   7.236  0.0497  0.1724  0.0337
  730MOL0     C  640   5.818   5.587   7.356 -0.2620  0.4066  1.2463
  730MOL0     C  641   5.905   5.473   7.421  0.1406 -0.1135 -0.1602
  730MOL0     C  642   6.015   5.534   7.504 -0.5690  0.0427 -0.6545
  730MOL0     C  643   6.092   5.423   7.581 -0.8178  1.4218 -0.6460
  730MOL0     C  644   6.141   5.479   7.708 -0.5803 -0.5474 -0.4281
  730MOL0     C  645   6.210   5.382   7.795 -0.4255 -0.0416  0.1741
  730MOL0     C  646   6.238   5.430   7.934  0.8944 -0.1385  1.0791
  730MOL0    Cl  647   6.281   5.276   8.018 -0.3992 -0.3982  0.9627
  730MOL0     C  648   5.637   5.685   6.931  0.1912  0.2358  1.1735
  730MOL0     C  649   5.566   5.667   6.811 -0.8576  0.1802  0.2336
  730MOL0     O  650   5.557   5.447   6.583  0.7685 -0.5626 -0.0851
  730MOL0     C  651   5.225   5.538   6.474  0.4717  0.0853 -0.3150
  730MOL0     C  652   5.133   5.560   6.373 -0.0177  0.7054 -0.1239
  730MOL0     N  653   4.847   5.706   5.509  0.4339 -0.3001  1.1408
  730MOL0     N  654   4.874   5.723   5.375  0.4703 -0.1213  0.4984
  730MOL0     C  655   4.723   5.109   4.370  0.4670  0.6267 -0.7278
  730MOL0     C  656   4.683   5.055   4.245 -0.2378  0.0529  0.6387
  730MOL0     C  657   4.593   4.898   3.863  0.2687 -0.1157  0.5832
  730MOL0     C  658   4.709   4.881   3.788 -0.7680 -0.5020 -0.5083
  730MOL0     C  659   4.727   4.798   3.671 -0.3051  0.0127 -0.0429
  730MOL0     C  660   4.614   4.732   3.624  0.8486  0.1722  0.2008
  730MOL0     O  661   4.645   4.642   3.526 -0.3076 -0.0821  0.2578
  730MOL0     C  662   4.538   4.570   3.459  0.5117 -0.3914 -0.6493
  730MOL0     C  663   4.584   4.450   3.371  0.3691 -0.6782 -0.0040
  730MOL0     C  664   4.619   4.329   3.451 -1.1662  0.0988 -0.3330
  730MOL0     C  665   4.623   4.192   3.369  0.1843 -0.7836  0.2054
  730MOL0     C  666   4.728   4.198   3.269  0.3043  0.2606  1.0056
  730MOL0     C  667   4.814   4.209   3.186 -0.6192  1.0902  0.4375
  730MOL0     C  668   4.489   4.755   3.687 -0.0703  0.4564 -0.2538
  730MOL0     C  669   4.474   4.831   3.807 -1.1955  0.9091  0.1391
  730MOL0     C  670   4.332   4.854   3.852  0.2662  1.5883  0.8948
  730MOL0     H  671   4.837   5.279   4.032  4.2011  1.8821  1.7741
  730MOL0     H  672   4.907   5.364   4.261  1.2105 -0.3838 -1.1258
  730MOL0     H  673   4.921   5.442   4.474 -0.7273  0.5411  0.0893
  730MOL0     H  674   5.044   5.314   4.436  1.6279  4.0738 -0.2631
  730MOL0     H  675   5.045   5.225   4.638  0.5117 -0.8864 -0.8106
  730MOL0     H  676   5.101   5.391   4.635  0.5049 -0.4957  1.7139
  730MOL0     H  677   4.885   5.464   4.742  0.8968  0.5705 -0.2725
  730MOL0     H  678   4.832   5.296   4.743  0.2128  0.1320  0.8182
  730MOL0     H  679   4.929   5.307   4.963  2.9238 -0.6853  1.9699
  730MOL0     H  680   5.062   5.258   4.867  2.9139  1.4927  4.8160
  730MOL0     H  681   5.007   5.559   4.933  0.1847 -0.4326  0.0238
  730MOL0     H  682   5.138   5.480   4.833 -3.3154  0.6520 -1.6237
  730MOL0     H  683   5.193   5.357   5.033 -1.9234 -0.4196 -3.2705
  730MOL0     H  684   5.238   5.525   5.059 -0.8510  1.0296  2.1774
  730MOL0     H  685   5.137   5.423   5.245 -1.5998 -2.9556 -0.7021
  730MOL0     H  686   4.981   5.398   5.174 -0.9139  0.7940  1.8283
  730MOL0     H  687   5.097   5.672   5.183  1.1728 -1.0557 -3.6970
  730MOL0     H  688   4.920   5.626   5.143 -0.5834 -1.7605  1.5408
  730MOL0     H  689   5.050   5.444   5.447 -2.8806 -1.8205  0.3142
  730MOL0     H  690   5.020   5.463   5.696  0.3695 -0.3811  1.0428
  730MOL0     H  691   4.865   5.484   5.745  2.3966 -1.7376  1.6861
  730MOL0     H  692   5.081   5.701   5.765  0.1559  1.1442  2.0373
  730MOL0     H  693   4.913   5.747   5.764 -0.3299 -0.6790 -0.8046
  730MOL0     H  694   4.937   5.729   5.982  1.4264 -0.2948 -0.3886
  730MOL0     H  695   4.882   5.552   5.949 -1.9435  0.2269 -0.7263
  730MOL0     H  696   5.141   5.502   5.981 -0.0945 -0.9090  1.4164
  730MOL0     H  697   5.160   5.675   5.984 -2.2402  0.2459 -3.0913
  730MOL0     H  698   5.322   5.487   6.113 -3.5117 -1.8748 -0.6329
  730MOL0     H  699   5.577   5.375   6.339  2.8524  0.0658 -2.1736
  730MOL0     H  700   5.600   5.553   6.315 -0.2656  0.8562 -2.7081
  730MOL0     H  701   5.545   5.451   6.181  1.7347 -0.8303  0.0700
  730MOL0     H  702   5.373   5.411   6.896  0.9253 -0.5621 -1.4252
  730MOL0     H  703   5.510   5.406   7.091 -3.7957 -1.8905 -1.5079
  730MOL0     H  704   5.662   5.452   7.264 -0.7611 -0.4880 -3.4672
  730MOL0     H  705   5.822   5.475   7.177  1.2495  0.4113  1.4362
  730MOL0     H  706   5.886   5.666   7.324 -0.8553  1.3848  2.3405
  730MOL0     H  707   5.754   5.625   7.436 -0.5898 -1.4923  1.9498
  730MOL0     H  708   5.946   5.413   7.340  0.4302  0.5856 -0.5356
  730MOL0     H  709   5.839   5.413   7.485  1.2130 -1.0700  0.0619
  730MOL0     H  710   5.983   5.616   7.569  2.2756  2.6789 -2.3246
  730MOL0     H  711   6.091   5.583   7.444 -1.7141 -0.1088 -2.3062
  730MOL0     H  712   6.017   5.347   7.606  1.2342 -0.9811 -1.3984
  730MOL0     H  713   6.166   5.382   7.512 -1.7584  1.8340 -1.9444
  730MOL0     H  714   6.067   5.523   7.775 -1.4203 -1.9757 -0.3623
  730MOL0     H  715   6.216   5.554   7.681 -2.1838  1.5689  0.6888
  730MOL0     H  716   6.306   5.353   7.751  1.8165  3.3568  2.3207
  730MOL0     H  717   6.151   5.290   7.807 -0.7951  0.3942  2.0425
  730MOL0     H  718   6.143   5.463   7.977  0.5566  0.6138 -0.2046
  730MOL0     H  719   6.320   5.500   7.950  1.6283  0.3111 -3.4007
  730MOL0     H  720   5.697   5.774   6.943 -0.2417  1.0838 -1.9410
  730MOL0     H  721   5.571   5.751   6.742  1.0405 -0.6549 -0.6998
  730MOL0     H  722   5.174   5.556   6.569  1.1580 -0.5531  0.1832
  730MOL0     H  723   5.034   5.596   6.401 -1.1856  0.0553 -3.0103
  730MOL0     H  724   4.692   5.068   4.465 -2.1491 -0.1721 -1.8368
  730MOL0     H  725   4.632   4.961   4.257  0.4419 -0.3535  0.4148
  730MOL0     H  726   4.796   4.936   3.819  0.4666 -1.5050 -2.0101
  730MOL0     H  727   4.824   4.777   3.627 -0.1031  0.2222  0.2948
  730MOL0     H  728   4.463   4.529   3.527 -0.1152  0.2934 -0.9172
  730MOL0     H  729   4.501   4.660   3.408  1.0186 -0.7146 -1.6169
  730MOL0     H  730   4.671   4.465   3.306 -0.0246 -1.9135 -0.8473
  730MOL0     H  731   4.501   4.415   3.309 -0.3156  3.0356 -1.4165
  730MOL0     H  732   4.710   4.325   3.511  0.9048  0.0584 -3.2434
  730MOL0     H  733   4.543   4.312   3.527  1.3152 -2.4154  1.8369
  730MOL0     H  734   4.529   4.169   3.320  1.7345  0.3954 -3.7591
  730MOL0     H  735   4.652   4.116   3.442  1.5156 -0.1922  0.3373
  730MOL0     H  736   4.886   4.231   3.110 -0.4823  4.4199  1.3552
  730MOL0     H  737   4.403   4.696   3.655 -1.0097  1.7806 -0.2310
  730MOL0     H  738   4.306   4.959   3.868  1.3192  2.3583 -1.7977
  730MOL0     H  739   4.263   4.828   3.771 -1.1167  0.4362  2.3992
  730MOL0     H  740   4.313   4.800   3.945 -0.9959  3.2029  1.6299
  731MOL0     O  741   1.174   4.777   9.969 -0.3202 -0.4106  0.2941
  731MOL0     C  742   1.244   4.677   9.980 -0.7249 -0.5167  0.2106
  731MOL0     O  743   1.377   4.673   9.985  0.8694  0.3476 -0.1622
  731MOL0     C  744   1.448   4.785   9.950 -0.4446 -0.6362 -0.0292
  731MOL0     C  745   1.429   4.909  10.002  0.4500  0.2165 -0.1432
  731MOL0     C  746   1.496   5.027   9.968  0.1161 -0.1893  0.6097
  731MOL0     C  747   1.598   5.023   9.870  0.7933 -1.0914  0.1022
  731MOL0     O  748   1.679   5.127   9.845 -0.3412  1.0445  0.2384
  731MOL0     C  749   1.685   5.241   9.923 -0.5118 -0.1614 -0.7361
  731MOL0     C  750   1.766   5.228  10.051 -1.0242  0.9503 -0.2434
  731MOL0     C  751   1.922   5.237  10.027 -0.1161  0.7418  1.0420
  731MOL0     C  752   1.988   5.287  10.154 -0.1307 -1.3209  0.0896
  731MOL0     C  753   2.134   5.340  10.145  0.1956  0.5642 -0.4513
  731MOL0     C  754   2.170   5.407  10.278 -0.7927 -0.7446  0.1384
  731MOL0     C  755   2.323   5.436  10.288  0.2544  0.1000 -1.1305
  731MOL0     C  756   2.391   5.506  10.173 -0.2667 -0.7769 -0.5177
  731MOL0     N  757   2.541   5.504  10.200 -0.4654  0.6308 -0.4719
  731MOL0     C  758   2.626   5.605  10.247 -0.3002 -0.1802  0.7029
  731MOL0     C  759   2.748   5.539  10.242  0.7117 -0.6669  0.2296
  731MOL0     C  760   2.876   5.586  10.285 -0.2131 -0.5172  0.0379
  731MOL0     C  761   2.893   5.619  10.436 -0.3832 -0.1077  0.3155
  731MOL0     C  762   3.037   5.609  10.472  0.5303  0.4761 -0.2803
  731MOL0     C  763   3.063   5.675  10.600 -0.7522  0.8659 -0.4060
  731MOL0     O  764   3.185   5.634  10.670 -0.0798 -0.4680  0.7437
  731MOL0     C  765   3.163   5.591  10.791 -0.2050  0.0680 -1.0032
  731MOL0     C  766   3.212   5.471  10.843 -0.2433  0.1966 -0.6438
  731MOL0     C  767   3.175   5.423  10.968 -0.2179 -0.6547  0.7044
  731MOL0     C  768   3.220   5.285  11.003  0.5116 -0.1085  0.4433
  731MOL0     C  769   3.085   5.506  11.050 -0.7015 -0.2143  0.8047
  731MOL0     C  770   3.045   5.472  11.190 -0.3595 -0.2327  0.9480
  731MOL0     O  771   2.985   5.563  11.269 -0.3410 -0.3729 -0.1016
  731MOL0     C  772   2.964   5.522  11.402  0.2221 -0.3272 -0.0731
  731MOL0     C  773   2.999   5.619  11.496 -0.5805  0.0134  0.6290
  731MOL0     C  774   2.990   5.608  11.635 -0.0052  0.1065 -0.1187
  731MOL0     C  775   2.931   5.489  11.685 -0.1995 -0.7884 -0.5393
  731MOL0     O  776   2.915   5.478  11.822  1.3985  0.1583 -0.3646
  731MOL0     C  777   2.950   5.346  11.867  0.2614 -1.5224 -0.0128
  731MOL0     C  778   3.004   5.371  11.996 -0.0659  0.3247  0.8207
  731MOL0     C  779   3.084   5.260  12.071  0.8172 -0.2618 -0.0401
  731MOL0     C  780   3.183   5.329  12.165  0.6295 -0.5629  0.1071
  731MOL0     C  781   3.244   5.225  12.259  0.6440  0.1616  0.4154
  731MOL0     C  782   3.352   5.138  12.195  0.0595 -0.1323  0.2369
  731MOL0     C  783   3.418   5.047  12.305  0.0825 -1.2261 -0.0912
  731MOL0     C  784   3.355   4.906  12.331  0.1052  0.1119  0.1570
  731MOL0    Cl  785   3.226   4.910  12.442 -0.1682  0.3521  0.1407
  731MOL0     C  786   2.883   5.394  11.599  0.9856 -0.2100  0.7440
  731MOL0     C  787   2.888   5.408  11.454 -0.5832 -0.0306  0.1688
  731MOL0     O  788   3.064   5.357  11.218  0.6680  0.5371  0.4950
  731MOL0     C  789   3.056   5.636  11.007  0.5385 -0.6928  0.3913
  731MOL0     C  790   3.097   5.677  10.880  0.2072  0.0649 -0.6393
  731MOL0     N  791   2.727   5.409  10.209 -0.1181 -0.2978  0.0364
  731MOL0     N  792   2.608   5.387  10.174  0.1618  0.0360  0.0659
  731MOL0     C  793   1.618   4.891   9.821  0.2989 -1.2873  0.8119
  731MOL0     C  794   1.556   4.774   9.862 -0.1726  0.2877  0.8527
  731MOL0     C  795   1.173   4.550   9.980 -1.0359 -0.2658 -0.8189
  731MOL0     C  796   1.298   4.370   9.984  0.0102 -0.3137 -0.6308
  731MOL0     C  797   1.205   4.180   9.986 -0.3998 -0.7036 -0.7490
  731MOL0     C  798   1.001   4.166   9.990  0.1590 -0.8137  1.0237
  731MOL0     O  799   0.948   4.045   9.971 -0.0029  0.1056 -0.5375
  731MOL0     C  800   0.813   4.048   9.933 -0.1493  0.3187  0.5681
  731MOL0     C  801   0.777   3.904   9.901  0.1038  0.5195  0.1775
  731MOL0     C  802   0.823   3.846   9.763 -0.2738  0.3395  0.7593
  731MOL0     C  803   0.729   3.887   9.652  0.0927 -0.3428  1.0630
  731MOL0     C  804   0.796   3.993   9.578 -0.8200 -0.4946  0.6145
  731MOL0     C  805   0.853   4.077   9.519 -0.0525  0.1367 -0.0365
  731MOL0     C  806   0.879   4.338   9.982  0.2832  0.6975 -1.0308
  731MOL0     C  807   0.960   4.529   9.981 -0.2580  0.6347 -0.2003
  731MOL0     C  808   0.870   4.643   9.953 -0.1729 -0.2906  0.2204
  731MOL0     H  809   1.366   4.914  10.091  2.0717 -2.8838  1.3607
  731MOL0     H  810   1.458   5.104  10.033 -0.1540 -1.1703  1.6417
  731MOL0     H  811   1.584   5.274   9.949  0.3436  2.5051 -0.4695
  731MOL0     H  812   1.734   5.323   9.869  0.2732  1.8840  2.7503
  731MOL0     H  813   1.739   5.295  10.133  1.1772 -0.1928  1.5170
  731MOL0     H  814   1.746   5.127  10.086  1.4831  0.0396 -1.2125
  731MOL0     H  815   1.971   5.143  10.002 -0.4251  1.2664 -2.0611
  731MOL0     H  816   1.947   5.304   9.943 -4.2887  0.3374 -0.7787
  731MOL0     H  817   1.936   5.377  10.186 -0.9083 -2.1900  1.3601
  731MOL0     H  818   1.985   5.220  10.240 -0.6649  1.5059  2.3838
  731MOL0     H  819   2.146   5.397  10.053 -0.9199  0.0316 -0.9475
  731MOL0     H  820   2.193   5.248  10.134  0.8897  0.9165  0.2164
  731MOL0     H  821   2.105   5.495  10.288 -0.8501 -0.6465 -0.9784
  731MOL0     H  822   2.144   5.345  10.364  2.1335  2.8399  3.9870
  731MOL0     H  823   2.374   5.348  10.327 -2.2123 -0.9419 -0.0226
  731MOL0     H  824   2.325   5.512  10.368  3.0167 -1.7494  0.7118
  731MOL0     H  825   2.370   5.444  10.085  2.1064 -0.0814 -1.6366
  731MOL0     H  826   2.342   5.603  10.162 -1.2442 -1.1192  0.4919
  731MOL0     H  827   2.611   5.710  10.266  2.0946  0.3761 -0.1228
  731MOL0     H  828   2.903   5.674  10.225  0.1629  0.6923  1.8899
  731MOL0     H  829   2.954   5.510  10.274  0.4687 -0.0641  1.4292
  731MOL0     H  830   2.881   5.725  10.463 -0.2461  0.2371 -0.9260
  731MOL0     H  831   2.824   5.562  10.500 -1.4207  0.8086  0.0441
  731MOL0     H  832   3.065   5.505  10.492 -2.0633 -0.0565  0.8852
  731MOL0     H  833   3.103   5.657  10.398  1.2050 -0.2465 -0.1613
  731MOL0     H  834   3.088   5.780  10.583  0.3273  0.7374  0.3242
  731MOL0     H  835   2.975   5.670  10.666 -0.5554 -2.5862 -0.2226
  731MOL0     H  836   3.274   5.414  10.774 -1.4349  1.5972 -2.9837
  731MOL0     H  837   3.140   5.211  11.001  3.0549 -3.0366 -1.2317
  731MOL0     H  838   3.258   5.282  11.106 -0.6726 -2.7245  0.8867
  731MOL0     H  839   3.307   5.253  10.946  1.1473 -0.5459  1.6133
  731MOL0     H  840   3.042   5.704  11.444  1.1771 -0.8881  0.5313
  731MOL0     H  841   3.019   5.685  11.705  2.8908 -0.7464 -0.2216
  731MOL0     H  842   2.868   5.274  11.872 -3.1152  1.7075 -3.0695
  731MOL0     H  843   3.030   5.299  11.811  1.6056  1.4008 -0.7281
  731MOL0     H  844   3.070   5.458  11.991 -2.7289  2.6781  3.0057
  731MOL0     H  845   2.914   5.384  12.058 -0.1143  0.8495  0.6449
  731MOL0     H  846   3.138   5.198  11.999  1.0332 -2.1250  1.6647
  731MOL0     H  847   3.020   5.184  12.115 -1.9176  1.8350 -0.0995
  731MOL0     H  848   3.132   5.408  12.221  0.9544  1.4535 -2.2680
  731MOL0     H  849   3.257   5.380  12.103 -1.2660 -0.6563 -2.3686
  731MOL0     H  850   3.280   5.279  12.347 -0.8006 -1.3828  2.0370
  731MOL0     H  851   3.164   5.158  12.292  0.3874 -1.7754 -3.5908
  731MOL0     H  852   3.427   5.212  12.165 -0.8372 -0.3674 -2.8520
  731MOL0     H  853   3.306   5.083  12.113 -0.1036  1.9460 -1.1292
  731MOL0     H  854   3.425   5.101  12.400  1.8832  3.2608 -2.4810
  731MOL0     H  855   3.524   5.028  12.290  0.9813 -1.1369  4.6229
  731MOL0     H  856   3.434   4.842  12.371  0.3986  0.3144 -0.0896
  731MOL0     H  857   3.317   4.855  12.241 -2.5711 -0.1999  1.3661
  731MOL0     H  858   2.843   5.303  11.644  2.1696 -2.3164 -2.1130
  731MOL0     H  859   2.837   5.343  11.384  0.6087 -0.7379 -0.0764
  731MOL0     H  860   2.995   5.704  11.065 -2.5027 -2.0633 -1.0042
  731MOL0     H  861   3.065   5.778  10.859  1.9788  1.3036  2.0832
  731MOL0     H  862   1.693   4.884   9.743  3.1178 -1.8791  3.4045
  731MOL0     H  863   1.592   4.677   9.828  0.3562  0.2001  1.6423
  731MOL0     H  864   1.402   4.382  10.011 -0.6344 -2.7997  3.8747
  731MOL0     H  865   1.261   4.087   9.986  0.0452 -0.4665 -2.2076
  731MOL0     H  866   0.758   4.095  10.015  2.9104  5.6961 -0.0266
  731MOL0     H  867   0.811   4.112   9.844  0.2654  0.4706  0.6649
  731MOL0     H  868   0.668   3.909   9.903 -0.0167  0.3501 -2.3215
  731MOL0     H  869   0.821   3.846   9.982 -1.6562  1.2534  1.7106
  731MOL0     H  870   0.926   3.880   9.747 -0.3634  1.3567  2.1750
  731MOL0     H  871   0.820   3.737   9.754  1.9021  0.3321 -0.7809
  731MOL0     H  872   0.632   3.903   9.700 -0.4514 -1.1261  0.2675
  731MOL0     H  873   0.713   3.804   9.582  0.2223 -0.0748  0.7159
  731MOL0     H  874   0.907   4.155   9.470  2.9029 -1.8786 -0.2499
  731MOL0     H  875   0.772   4.325   9.976  0.2317  1.6609 -3.9561
  731MOL0     H  876   0.909   4.695   9.865  2.3488 -0.6771  1.0173
  731MOL0     H  877   0.776   4.589   9.944  0.4544 -1.5133  0.8234
  731MOL0     H  878   0.853   4.703  10.043 -2.1484  0.3970 -0.5589
  732MOL0     O  879   0.460  10.220   6.484 -0.0480 -0.1763 -0.2593
  732MOL0     C  880   0.371  10.191   6.404  0.3380 -0.1225 -0.0906
  732MOL0     O  881   0.386  10.197   6.269 -0.8929  0.1293 -0.7204
  732MOL0     C  882   0.509  10.261   6.228  0.9877 -0.5619 -0.0979
  732MOL0     C  883   0.495  10.398   6.202 -0.9580  0.9870  0.3872
  732MOL0     C  884   0.595  10.485   6.149  0.5952  0.2249 -0.6359
  732MOL0     C  885   0.725  10.422   6.132 -0.4666 -0.9513  0.2407
  732MOL0     O  886   0.810  10.504   6.065 -0.5330  0.8982  0.6380
  732MOL0     C  887   0.941  10.458   6.038  0.9595 -0.2029 -0.5833
  732MOL0     C  888   1.020  10.555   5.941  0.1810  0.2165 -0.8162
  732MOL0     C  889   0.945  10.639   5.835  0.0092 -0.1259 -0.3178
  732MOL0     C  890   1.043  10.734   5.756  0.8999  0.5143  0.8487
  732MOL0     C  891   0.992  10.788   5.623  0.3679 -0.5267  0.3848
  732MOL0     C  892   0.871  10.873   5.646 -0.3863  0.3028  0.1068
  732MOL0     C  893   0.865  10.999   5.552 -0.2445  0.1544 -0.8547
  732MOL0     C  894   0.747  11.095   5.582  0.2481 -0.0993 -0.6952
  732MOL0     N  895   0.756  11.167   5.705 -0.6464  0.2027 -0.2886
  732MOL0     C  896   0.860  11.202   5.782 -0.7401 -0.6869  0.1830
  732MOL0     C  897   0.819  11.228   5.910 -0.4930  0.1202 -0.6876
  732MOL0     C  898   0.904  11.292   6.018  0.5162  0.1384  0.0719
  732MOL0     C  899   1.001  11.200   6.098  0.3274 -0.4719 -0.1248
  732MOL0     C  900   1.114  11.135   6.011 -0.1022  0.0898 -0.3604
  732MOL0     C  901   1.197  11.026   6.092  0.8487 -0.1995  0.6062
  732MOL0     O  902   1.096  10.930   6.140 -0.6385  0.4523 -0.3445
  732MOL0     C  903   1.127  10.848   6.251  0.1688  0.3976  0.0205
  732MOL0     C  904   1.023  10.758   6.298 -1.5116 -0.3428  0.0122
  732MOL0     C  905   1.043  10.656   6.393 -0.6232  0.7947  0.4990
  732MOL0     C  906   0.936  10.556   6.401 -0.1892 -0.0732  0.4838
  732MOL0     C  907   1.168  10.647   6.453  0.7151  0.4481 -0.0748
  732MOL0     C  908   1.198  10.552   6.563  0.7918 -0.0061 -0.2385
  732MOL0     O  909   1.103  10.475   6.620 -0.7331  0.5995 -0.1149
  732MOL0     C  910   1.115  10.413   6.747 -0.1621 -0.5896  0.4444
  732MOL0     C  911   1.194  10.465   6.848 -0.1925 -0.6511  0.2117
  732MOL0     C  912   1.204  10.398   6.970  0.2473  0.1016  0.0432
  732MOL0     C  913   1.125  10.286   6.998  1.6176 -0.3378 -0.0446
  732MOL0     O  914   1.140  10.224   7.118  0.0034  0.5638 -0.9137
  732MOL0     C  915   1.107  10.078   7.134 -0.1452  0.5634 -0.0140
  732MOL0     C  916   1.133  10.024   7.273  0.6697  0.0969  0.1963
  732MOL0     C  917   1.287   9.997   7.292  0.9146  0.0527 -0.3572
  732MOL0     C  918   1.363   9.924   7.186  0.0583  0.6928 -0.4469
  732MOL0     C  919   1.487   9.854   7.228 -0.0180  0.1611  0.3770
  732MOL0     C  920   1.597   9.834   7.116  0.7379  0.3869  0.6430
  732MOL0     C  921   1.548   9.744   6.997  0.7626  1.1858 -0.0591
  732MOL0     C  922   1.646   9.729   6.879 -0.0684 -0.2883  0.6137
  732MOL0    Cl  923   1.615   9.599   6.768 -0.3349  0.3885 -0.1356
  732MOL0     C  924   1.045  10.234   6.900  0.5166  0.0834  0.1486
  732MOL0     C  925   1.041  10.301   6.771  0.4515  0.4108 -0.4959
  732MOL0     O  926   1.317  10.562   6.603  0.8973  0.0155 -0.1278
  732MOL0     C  927   1.269  10.744   6.414  0.5125  0.7433 -0.2878
  732MOL0     C  928   1.245  10.840   6.319 -0.3236 -0.8326  1.4009
  732MOL0     N  929   0.684  11.226   5.901 -0.7268  0.1552 -0.1529
  732MOL0     N  930   0.645  11.187   5.786 -0.1856  0.5171 -0.3718
  732MOL0     C  931   0.741  10.281   6.173 -0.2878 -0.0863 -0.2415
  732MOL0     C  932   0.634  10.208   6.217  0.7901  0.0047  0.0844
  732MOL0     C  933   0.239  10.141   6.467 -0.1957 -0.6613  0.1586
  732MOL0     C  934   0.165  10.049   6.390 -0.1237 -0.9180 -0.6501
  732MOL0     C  935   0.048   9.994   6.436 -0.3778 -0.1150 -0.4025
  732MOL0     C  936   0.004  10.015   6.568  0.2117  0.9537  0.5038
  732MOL0     O  937  -0.103   9.970   6.641 -0.1192  0.0427  0.2997
  732MOL0     C  938  -0.226   9.956   6.574 -0.6625 -0.1344  0.5173
  732MOL0     C  939  -0.343  10.040   6.629  0.0863 -0.1666  0.0239
  732MOL0     C  940  -0.366  10.000   6.775  0.3953 -0.1854  0.4723
  732MOL0     C  941  -0.493  10.075   6.823  0.4275  0.3604 -0.4125
  732MOL0     C  942  -0.627  10.038   6.771  0.0232  0.1873 -0.3865
  732MOL0     C  943  -0.734  10.007   6.718  0.4229  0.4688 -0.2729
  732MOL0     C  944   0.100  10.079   6.640 -1.2085  0.4620 -0.5645
  732MOL0     C  945   0.200  10.156   6.602 -0.2548 -0.2249  0.1496
  732MOL0     C  946   0.278  10.224   6.701  0.0085  0.7236  0.2589
  732MOL0     H  947   0.394  10.431   6.221 -1.2501  0.9931 -1.0684
  732MOL0     H  948   0.571  10.590   6.141  1.9803  0.4705 -2.0914
  732MOL0     H  949   0.927  10.371   5.973  2.2910 -1.4943  0.7676
  732MOL0     H  950   1.000  10.433   6.127 -0.3580  0.1111  0.4078
  732MOL0     H  951   1.062  10.637   6.000  1.2938  0.1912 -1.5497
  732MOL0     H  952   1.089  10.486   5.891 -1.5821 -2.7631  0.5404
  732MOL0     H  953   0.903  10.563   5.768  0.3160  0.0882 -0.7544
  732MOL0     H  954   0.861  10.695   5.876  0.2926 -0.5122  0.8247
  732MOL0     H  955   1.094  10.808   5.819  6.8984  0.7073 -3.3912
  732MOL0     H  956   1.135  10.679   5.736 -0.0469 -0.6041 -0.6566
  732MOL0     H  957   0.955  10.707   5.560  0.0254 -0.8788  1.0373
  732MOL0     H  958   1.072  10.842   5.572 -0.2977  1.1632  1.0556
  732MOL0     H  959   0.780  10.817   5.625  0.7860 -2.0789  1.0351
  732MOL0     H  960   0.861  10.902   5.752 -5.0405  0.3935 -0.1434
  732MOL0     H  961   0.843  10.965   5.450 -3.3136 -1.8578  0.3624
  732MOL0     H  962   0.964  11.043   5.568  2.3211 -2.1718 -7.0185
  732MOL0     H  963   0.744  11.166   5.500 -2.2521 -0.4695 -0.9959
  732MOL0     H  964   0.652  11.040   5.581  1.1964 -1.9146  1.1428
  732MOL0     H  965   0.964  11.220   5.754 -0.6441  0.3507  1.0868
  732MOL0     H  966   0.832  11.344   6.082 -0.1843  0.5811 -1.0337
  732MOL0     H  967   0.971  11.373   5.988  0.7651 -0.3250 -0.6679
  732MOL0     H  968   1.048  11.270   6.168 -0.8562  1.0971 -0.8355
  732MOL0     H  969   0.956  11.123   6.162  2.3160 -0.1622  1.7546
  732MOL0     H  970   1.063  11.089   5.927 -1.1469  1.0459 -0.2675
  732MOL0     H  971   1.178  11.212   5.965  1.2911 -1.1830 -0.6363
  732MOL0     H  972   1.270  10.980   6.024 -0.8939 -1.4001 -0.5122
  732MOL0     H  973   1.253  11.067   6.176 -1.6530 -1.2492  2.8995
  732MOL0     H  974   0.929  10.768   6.245 -1.8679  0.9348  0.8438
  732MOL0     H  975   0.956  10.452   6.373 -2.4000 -0.5074  0.3285
  732MOL0     H  976   0.863  10.584   6.325 -0.3242  0.6327  0.8601
  732MOL0     H  977   0.897  10.563   6.504 -0.2892  0.9247  0.3870
  732MOL0     H  978   1.257  10.550   6.828  0.9246 -0.8712  2.4231
  732MOL0     H  979   1.269  10.441   7.046  0.2745 -0.5316  0.3866
  732MOL0     H  980   0.999  10.063   7.135  0.3308 -4.8426 -1.0642
  732MOL0     H  981   1.155  10.020   7.054 -0.8116  2.5100 -1.9353
  732MOL0     H  982   1.104  10.100   7.346 -1.8055  0.0803 -0.6877
  732MOL0     H  983   1.079   9.931   7.289  1.7723 -0.3210  1.7472
  732MOL0     H  984   1.292   9.955   7.392  1.5219  2.6070  0.7704
  732MOL0     H  985   1.337  10.091   7.318  2.4362 -1.3881  2.3287
  732MOL0     H  986   1.380   9.997   7.107 -0.8911  1.6179  0.1770
  732MOL0     H  987   1.293   9.846   7.154 -0.6600  0.5952  1.2147
  732MOL0     H  988   1.544   9.911   7.302  0.5775 -0.5481  0.4821
  732MOL0     H  989   1.458   9.758   7.272  0.3418 -1.2306 -2.2013
  732MOL0     H  990   1.692   9.809   7.164  1.9024 -1.2753 -2.3078
  732MOL0     H  991   1.614   9.928   7.062 -1.3321  0.4733  0.0748
  732MOL0     H  992   1.454   9.787   6.960  1.3489  2.2073 -0.4242
  732MOL0     H  993   1.539   9.644   7.038 -0.3970  1.5518  0.6169
  732MOL0     H  994   1.747   9.726   6.921 -0.7305  0.0451  2.3085
  732MOL0     H  995   1.661   9.824   6.827 -0.7142  1.0823  2.8137
  732MOL0     H  996   0.988  10.145   6.925 -0.5150  0.7927  0.3877
  732MOL0     H  997   0.979  10.263   6.691 -0.7854  1.5715 -0.1093
  732MOL0     H  998   1.371  10.731   6.447 -0.5651 -3.5911  2.1285
  732MOL0     H  999   1.318  10.910   6.280 -2.4115  1.0427  0.6352
  732MOL0     H 1000   0.835  10.228   6.160 -0.4958 -0.5829  0.2773
  732MOL0     H 1001   0.647  10.102   6.236 -2.2966 -0.9519 -2.4153
  732MOL0     H 1002   0.187  10.029   6.285 -1.0573 -1.1981 -0.8003
  732MOL0     H 1003  -0.016   9.927   6.378 -1.2498 -1.2385  1.7638
  732MOL0     H 1004  -0.227   9.999   6.474  3.5776  0.7842  0.6855
  732MOL0     H 1005  -0.249   9.849   6.574 -1.6323  0.0511 -0.8382
  732MOL0     H 1006  -0.439  10.021   6.579 -0.2964 -0.4807  0.8675
  732MOL0     H 1007  -0.327  10.148   6.625  0.9156 -0.2092  1.7226
  732MOL0     H 1008  -0.384   9.892   6.785 -1.7796  0.1936  1.0197
  732MOL0     H 1009  -0.279  10.032   6.832 -0.6217  0.1800  1.8478
  732MOL0     H 1010  -0.485  10.181   6.796 -1.2043  0.8282  0.8186
  732MOL0     H 1011  -0.490  10.054   6.930 -1.8374 -1.2356 -0.5827
  732MOL0     H 1012  -0.827   9.980   6.673 -0.3760  1.3574  0.8005
  732MOL0     H 1013   0.072  10.074   6.745  0.0807  1.0926 -0.1647
  732MOL0     H 1014   0.221  10.204   6.793  0.3687 -0.7223  0.1907
  732MOL0     H 1015   0.383  10.197   6.694 -0.0428  0.9397 -1.8090
  732MOL0     H 1016   0.284  10.329   6.672  1.8669  0.3334 -0.9012
  733MOL0     O 1017   1.490   7.516   6.913 -0.1819  0.4169 -0.7095
  733MOL0     C 1018   1.422   7.418   6.927 -0.0214  0.4854 -0.0253
  733MOL0     O 1019   1.291   7.418   6.957  0.0326  0.2610  0.6313
  733MOL0     C 1020   1.235   7.523   7.021  0.3709 -0.7028  0.4022
  733MOL0     C 1021   1.301   7.637   7.088  0.9578 -1.0437 -0.4891
  733MOL0     C 1022   1.220   7.733   7.158  1.2651 -0.2680  0.8330
  733MOL0     C 1023   1.085   7.727   7.155 -0.1011 -0.9148  0.2296
  733MOL0     O 1024   1.028   7.801   7.252 -0.0953 -0.4197 -0.0471
  733MOL0     C 1025   0.895   7.828   7.250 -0.0672  0.3227 -0.4372
  733MOL0     C 1026   0.864   7.937   7.349 -0.4502  0.5346  0.1036
  733MOL0     C 1027   0.931   8.064   7.328  0.1416 -0.6702  0.1751
  733MOL0     C 1028   0.921   8.157   7.450 -0.0546  0.0884 -0.1230
  733MOL0     C 1029   0.783   8.224   7.460 -0.0829 -0.7801 -0.1128
  733MOL0     C 1030   0.756   8.311   7.591  0.0866 -0.2633  0.5326
  733MOL0     C 1031   0.604   8.348   7.600  0.1131  0.1808 -0.0478
  733MOL0     C 1032   0.589   8.439   7.718  0.0649  0.3477 -0.1346
  733MOL0     N 1033   0.621   8.379   7.844  0.1125 -0.2117 -0.2303
  733MOL0     C 1034   0.561   8.276   7.897 -0.5925 -0.2756 -0.5362
  733MOL0     C 1035   0.636   8.240   8.010 -1.0117 -0.3933 -0.5171
  733MOL0     C 1036   0.629   8.109   8.079 -1.7059  0.7190 -1.0175
  733MOL0     C 1037   0.630   7.978   7.988 -0.1697 -0.1650 -0.4861
  733MOL0     C 1038   0.766   7.970   7.936 -0.1886 -0.3025  0.4454
  733MOL0     C 1039   0.772   7.845   7.850 -0.1008  0.3488 -0.3028
  733MOL0     O 1040   0.715   7.864   7.722  0.0332  0.4670 -0.4360
  733MOL0     C 1041   0.678   7.757   7.641 -0.2480  0.4707  0.4760
  733MOL0     C 1042   0.610   7.778   7.522 -0.1557 -0.4829  0.4515
  733MOL0     C 1043   0.592   7.679   7.425 -0.1617  0.2673 -0.1553
  733MOL0     C 1044   0.524   7.730   7.293  1.6703  0.1836  0.3112
  733MOL0     C 1045   0.649   7.557   7.440 -0.5665  0.2288 -0.0401
  733MOL0     C 1046   0.658   7.458   7.330  0.9139 -0.2742  0.1890
  733MOL0     O 1047   0.633   7.325   7.373  0.5626  0.7444 -0.3437
  733MOL0     C 1048   0.624   7.239   7.274  0.2342  0.1882 -0.0531
  733MOL0     C 1049   0.504   7.237   7.212  0.4268 -0.1922 -0.0389
  733MOL0     C 1050   0.485   7.144   7.112 -0.0483  0.6798 -0.5921
  733MOL0     C 1051   0.583   7.050   7.086  0.9742 -0.7792 -0.6237
  733MOL0     O 1052   0.561   6.960   6.988  0.0163  0.7458  0.2360
  733MOL0     C 1053   0.654   6.866   6.931  0.0027  0.5085  0.6125
  733MOL0     C 1054   0.616   6.853   6.778 -0.5540  0.3712  0.1028
  733MOL0     C 1055   0.698   6.746   6.709  0.0946  0.1916 -0.0751
  733MOL0     C 1056   0.627   6.714   6.576 -0.2773 -0.8992  0.4428
  733MOL0     C 1057   0.707   6.617   6.487  0.8355 -0.5577  0.1144
  733MOL0     C 1058   0.633   6.585   6.362 -0.2911  0.1249 -0.8233
  733MOL0     C 1059   0.689   6.455   6.315 -0.0519  0.0383  0.8395
  733MOL0     C 1060   0.810   6.472   6.232  0.8652  0.4286  0.2576
  733MOL0    Cl 1061   0.776   6.535   6.063 -0.1528  0.0298  0.0217
  733MOL0     C 1062   0.707   7.055   7.145  0.2216 -0.0764 -0.5397
  733MOL0     C 1063   0.728   7.151   7.238 -0.5883 -0.1666  0.3581
  733MOL0     O 1064   0.673   7.494   7.213 -0.1614 -0.2855 -0.1853
  733MOL0     C 1065   0.727   7.536   7.558  0.4379 -0.6288  0.7093
  733MOL0     C 1066   0.738   7.630   7.662 -0.9087 -1.0943 -0.3053
  733MOL0     N 1067   0.735   8.337   8.015  0.6388 -0.2694 -0.7404
  733MOL0     N 1068   0.727   8.419   7.921  0.3844  0.0354 -0.0933
  733MOL0     C 1069   1.027   7.628   7.077  0.7189  0.0160  0.4817
  733MOL0     C 1070   1.091   7.527   7.009  0.0462 -0.1249 -0.6993
  733MOL0     C 1071   1.490   7.281   6.917  0.7084 -0.3487  0.8334
  733MOL0     C 1072   1.425   7.167   6.955 -0.2287  0.1455  0.6518
  733MOL0     C 1073   1.490   7.044   6.960  0.0611 -0.8141  0.2120
  733MOL0     C 1074   1.621   7.030   6.899  0.6425  0.9165 -0.8308
  733MOL0     O 1075   1.676   6.904   6.876 -0.4933  0.3114  0.1904
  733MOL0     C 1076   1.588   6.803   6.813  0.7679  0.5738  0.0725
  733MOL0     C 1077   1.682   6.697   6.737  0.1648  0.9253 -0.4520
  733MOL0     C 1078   1.596   6.604   6.647 -0.0155 -0.6177 -0.3964
  733MOL0     C 1079   1.563   6.465   6.703  0.5191  0.1716 -0.0741
  733MOL0     C 1080   1.690   6.388   6.734 -0.4638 -0.6303  0.1945
  733MOL0     C 1081   1.794   6.328   6.746 -0.1883 -1.5605  0.6858
  733MOL0     C 1082   1.684   7.143   6.852  0.2148 -0.2835 -0.2507
  733MOL0     C 1083   1.624   7.266   6.869  0.2122 -0.0080  0.1074
  733MOL0     C 1084   1.710   7.373   6.817  0.6658 -0.2382  0.2059
  733MOL0     H 1085   1.409   7.638   7.105  0.4200  0.7900  4.3196
  733MOL0     H 1086   1.275   7.816   7.201 -3.2718  2.6974  1.5946
  733MOL0     H 1087   0.849   7.733   7.279 -0.3745 -0.6046 -3.5511
  733MOL0     H 1088   0.848   7.863   7.158 -0.1585  1.3629 -0.0054
  733MOL0     H 1089   0.757   7.955   7.334 -0.6823 -1.2864 -0.8134
  733MOL0     H 1090   0.889   7.902   7.449  0.7368 -0.0743 -0.3874
  733MOL0     H 1091   1.040   8.055   7.322  0.2364 -0.5621  1.3252
  733MOL0     H 1092   0.898   8.120   7.240  1.6838  0.9193  0.5482
  733MOL0     H 1093   0.950   8.102   7.540  1.1643 -0.5280 -0.8575
  733MOL0     H 1094   1.000   8.231   7.429  1.6231 -0.9755  2.0461
  733MOL0     H 1095   0.709   8.144   7.460  1.7755 -2.5827 -0.8858
  733MOL0     H 1096   0.761   8.281   7.369  1.7815  0.9626  0.4561
  733MOL0     H 1097   0.784   8.244   7.673 -1.8123 -0.0159  1.4188
  733MOL0     H 1098   0.804   8.408   7.575  1.9751 -1.4285 -1.3961
  733MOL0     H 1099   0.549   8.254   7.610 -1.5476  0.8914 -1.9732
  733MOL0     H 1100   0.561   8.394   7.511 -0.0152 -3.1357 -1.8920
  733MOL0     H 1101   0.653   8.525   7.700  2.9830 -1.9198 -1.5852
  733MOL0     H 1102   0.490   8.484   7.723  0.3160  0.9069  4.1363
  733MOL0     H 1103   0.483   8.207   7.867 -0.2344 -1.8918  1.9711
  733MOL0     H 1104   0.535   8.114   8.134 -1.4126 -3.0509  0.0744
  733MOL0     H 1105   0.719   8.096   8.140 -2.5815 -1.4488 -0.0971
  733MOL0     H 1106   0.589   7.892   8.042 -4.1905  2.6848  1.5135
  733MOL0     H 1107   0.560   7.997   7.907 -1.7252 -3.4742 -0.0611
  733MOL0     H 1108   0.783   8.056   7.869  1.9763 -1.2524 -0.3187
  733MOL0     H 1109   0.845   7.966   8.012 -0.1532 -1.0629  0.3727
  733MOL0     H 1110   0.878   7.820   7.838 -0.4044 -1.7850  0.9786
  733MOL0     H 1111   0.730   7.755   7.896  0.7035  0.7978  1.4014
  733MOL0     H 1112   0.581   7.876   7.486  3.3159  0.5247  0.0148
  733MOL0     H 1113   0.461   7.658   7.240  1.1632  2.2544 -2.0853
  733MOL0     H 1114   0.598   7.763   7.219 -0.3151 -1.3190 -2.5040
  733MOL0     H 1115   0.461   7.818   7.311 -1.5079 -1.7700 -0.6436
  733MOL0     H 1116   0.426   7.308   7.238  0.0972 -0.4362 -0.3537
  733MOL0     H 1117   0.396   7.138   7.050 -0.6464 -0.6625  0.3458
  733MOL0     H 1118   0.759   6.893   6.946  0.3683 -1.5247  2.0050
  733MOL0     H 1119   0.656   6.770   6.983 -1.2028 -0.9852 -1.8728
  733MOL0     H 1120   0.509   6.835   6.764 -0.8426 -0.3684  2.7135
  733MOL0     H 1121   0.640   6.950   6.734  2.7425 -0.6840 -0.7257
  733MOL0     H 1122   0.698   6.654   6.767 -1.0561 -1.3760 -2.4079
  733MOL0     H 1123   0.799   6.783   6.688 -0.1556  0.2104 -1.3391
  733MOL0     H 1124   0.618   6.802   6.511  0.7920 -0.4880  0.8343
  733MOL0     H 1125   0.522   6.686   6.589  0.1709 -2.1880  1.4682
  733MOL0     H 1126   0.808   6.653   6.467 -0.2571  2.3718 -0.6482
  733MOL0     H 1127   0.718   6.520   6.537 -0.4861 -0.3383  0.8793
  733MOL0     H 1128   0.645   6.664   6.288 -0.0136  1.2547  0.3918
  733MOL0     H 1129   0.529   6.573   6.393  0.4863  3.5976  4.4617
  733MOL0     H 1130   0.618   6.409   6.245  1.8747  1.2098 -2.0293
  733MOL0     H 1131   0.714   6.376   6.387  4.4913 -0.9693 -1.5034
  733MOL0     H 1132   0.859   6.374   6.225 -1.5494 -0.7932 -0.8085
  733MOL0     H 1133   0.882   6.533   6.287  2.8670 -2.9885  1.7650
  733MOL0     H 1134   0.787   6.986   7.122  2.4996  1.3551  2.3815
  733MOL0     H 1135   0.826   7.162   7.283  0.3886  1.9574 -2.0226
  733MOL0     H 1136   0.792   7.449   7.563  0.1674 -0.8776  0.1081
  733MOL0     H 1137   0.793   7.598   7.749 -0.8663  0.8192  0.4264
  733MOL0     H 1138   0.919   7.619   7.071  0.8512 -0.8795 -0.7805
  733MOL0     H 1139   1.038   7.448   6.958  1.5375 -1.2619 -0.5333
  733MOL0     H 1140   1.323   7.175   6.991 -0.9484 -0.9248 -1.0265
  733MOL0     H 1141   1.445   6.954   7.000 -0.3455 -0.4748  0.5192
  733MOL0     H 1142   1.527   6.756   6.890 -1.6410 -0.1251 -2.1097
  733MOL0     H 1143   1.521   6.857   6.745 -1.4224 -0.2565  1.4884
  733MOL0     H 1144   1.748   6.636   6.798  0.7714 -0.9385 -2.8100
  733MOL0     H 1145   1.754   6.752   6.675 -1.1186  1.2476 -1.7192
  733MOL0     H 1146   1.496   6.640   6.623  0.1926 -0.0309 -0.4061
  733MOL0     H 1147   1.648   6.596   6.551 -1.9819 -1.7938 -1.4179
  733MOL0     H 1148   1.498   6.405   6.639 -2.4869  0.1526  2.7620
  733MOL0     H 1149   1.508   6.473   6.797 -0.5939  0.6065 -0.7445
  733MOL0     H 1150   1.885   6.273   6.759  1.1843  0.5845  0.5334
  733MOL0     H 1151   1.778   7.133   6.798  2.0014  2.3745  2.0857
  733MOL0     H 1152   1.740   7.457   6.881  1.6886  1.9539 -2.8809
  733MOL0     H 1153   1.802   7.346   6.764 -1.2109 -1.2656 -2.7771
  733MOL0     H 1154   1.653   7.432   6.745  0.2910 -1.8968 -0.9066
  734MOL0     O 1155   0.167   2.330   1.577 -0.6895  0.0396  0.4674
  734MOL0     C 1156   0.239   2.380   1.664  0.7434  0.4840 -1.1369
  734MOL0     O 1157   0.238   2.509   1.695  0.0524 -0.1370  0.6997
  734MOL0     C 1158   0.174   2.615   1.624 -1.1495 -0.8325 -0.9549
  734MOL0     C 1159   0.203   2.754   1.673  0.6137  0.7839 -0.3362
  734MOL0     C 1160   0.127   2.864   1.616  0.0290  0.4910  0.2690
  734MOL0     C 1161   0.034   2.838   1.517  1.0348  0.8529 -0.2072
  734MOL0     O 1162  -0.043   2.926   1.445 -0.8079 -0.5318  0.1438
  734MOL0     C 1163  -0.080   3.042   1.525  0.2772 -0.0014 -0.2263
  734MOL0     C 1164  -0.153   3.134   1.427  0.5472 -0.5974  0.1762
  734MOL0     C 1165  -0.056   3.198   1.339  0.1204  0.9577 -0.9983
  734MOL0     C 1166  -0.013   3.334   1.395 -0.1072  0.8609 -0.7632
  734MOL0     C 1167   0.083   3.402   1.298 -0.4294 -0.2523  0.2087
  734MOL0     C 1168   0.016   3.504   1.203  0.5067 -0.8531  0.7217
  734MOL0     C 1169   0.110   3.552   1.092 -0.1347  0.3913 -0.3463
  734MOL0     C 1170   0.081   3.689   1.038  0.2949 -0.6875  0.3114
  734MOL0     N 1171  -0.049   3.704   0.979  0.3652  0.2678 -0.1819
  734MOL0     C 1172  -0.093   3.665   0.859  0.2682  0.2417 -0.9148
  734MOL0     C 1173  -0.221   3.711   0.856  0.1022  0.6606 -0.7029
  734MOL0     C 1174  -0.315   3.702   0.731 -0.9695  0.3153  0.0713
  734MOL0     C 1175  -0.380   3.570   0.697 -0.1331 -0.8364  0.0740
  734MOL0     C 1176  -0.310   3.435   0.724 -0.8410 -1.0823 -0.2769
  734MOL0     C 1177  -0.227   3.400   0.604 -0.0761  0.3515 -0.2167
  734MOL0     O 1178  -0.130   3.495   0.577  0.7011  0.4853 -0.2361
  734MOL0     C 1179  -0.087   3.515   0.453  0.1051 -0.8912  0.2488
  734MOL0     C 1180  -0.012   3.625   0.426 -0.3100  0.4297  0.0183
  734MOL0     C 1181   0.054   3.648   0.306  1.1109  0.1205 -0.7291
  734MOL0     C 1182   0.138   3.775   0.304  0.7966 -0.4309  1.3233
  734MOL0     C 1183   0.041   3.554   0.204 -0.8696  0.0373 -0.4640
  734MOL0     C 1184   0.101   3.573   0.071 -0.3233  0.0076  0.4790
  734MOL0     O 1185   0.033   3.512  -0.030 -0.1468 -0.3314  0.3917
  734MOL0     C 1186   0.051   3.558  -0.165 -0.2673 -0.1403  0.0466
  734MOL0     C 1187   0.027   3.459  -0.256  0.1935  0.1143  0.0835
  734MOL0     C 1188   0.036   3.488  -0.388  0.2140  0.8575  0.4206
  734MOL0     C 1189   0.097   3.601  -0.440  0.3552  0.0430  0.2904
  734MOL0     O 1190   0.105   3.619  -0.583  0.3890  0.1488 -0.3150
  734MOL0     C 1191   0.117   3.742  -0.651 -0.0564  0.5743  0.3676
  734MOL0     C 1192   0.063   3.728  -0.796 -0.0559  0.2157  0.5750
  734MOL0     C 1193  -0.095   3.714  -0.804  0.0116 -0.8447  0.2708
  734MOL0     C 1194  -0.162   3.759  -0.937 -1.3464  0.0479 -0.2539
  734MOL0     C 1195  -0.316   3.767  -0.923 -0.7196 -0.9225  0.7779
  734MOL0     C 1196  -0.386   3.635  -0.908  0.4837 -0.9108  1.0320
  734MOL0     C 1197  -0.541   3.648  -0.912 -0.4252 -0.1392  0.6315
  734MOL0     C 1198  -0.596   3.506  -0.928 -0.1202  0.0872 -0.6235
  734MOL0    Cl 1199  -0.557   3.394  -0.788 -0.0290 -0.5750  0.1760
  734MOL0     C 1200   0.127   3.703  -0.341  0.2221 -0.1164 -0.4876
  734MOL0     C 1201   0.100   3.677  -0.207  0.0497 -0.5287  0.3959
  734MOL0     O 1202   0.205   3.638   0.055  0.5003 -0.7487  0.4584
  734MOL0     C 1203  -0.040   3.441   0.224 -0.1383  0.4067 -0.3250
  734MOL0     C 1204  -0.086   3.420   0.356 -0.7398  0.7719  0.7776
  734MOL0     N 1205  -0.258   3.765   0.977 -0.5449 -0.1721  0.5016
  734MOL0     N 1206  -0.154   3.752   1.057  0.2619 -1.0170  0.5560
  734MOL0     C 1207   0.021   2.704   1.481  0.8323 -0.7394 -0.0607
  734MOL0     C 1208   0.083   2.601   1.525  0.2871  0.7128 -0.7869
  734MOL0     C 1209   0.320   2.291   1.750  0.0238  0.7010  0.9640
  734MOL0     C 1210   0.324   2.324   1.887  0.0337  0.7041  0.2701
  734MOL0     C 1211   0.374   2.233   1.985  0.1332  0.3941 -0.1260
  734MOL0     C 1212   0.421   2.105   1.946  0.8282 -0.1782  1.0216
  734MOL0     O 1213   0.476   2.005   2.023  1.0837  0.4814  0.0935
  734MOL0     C 1214   0.495   2.032   2.158  0.1981 -1.0160  0.8002
  734MOL0     C 1215   0.616   1.957   2.185 -0.2864 -0.0834  0.7691
  734MOL0     C 1216   0.590   1.801   2.208  0.4831 -0.1197 -0.2018
  734MOL0     C 1217   0.694   1.707   2.255 -0.8882 -0.0787  0.1773
  734MOL0     C 1218   0.727   1.726   2.396  1.4591 -0.8089 -1.0391
  734MOL0     C 1219   0.761   1.733   2.513  0.5711 -1.1989 -0.3093
  734MOL0     C 1220   0.413   2.075   1.809  0.3855 -0.5909 -0.1274
  734MOL0     C 1221   0.367   2.161   1.701  0.4980 -0.1925 -0.2141
  734MOL0     C 1222   0.399   2.131   1.557  0.4454 -0.1705 -0.1455
  734MOL0     H 1223   0.274   2.788   1.747 -1.7250  0.1866  2.3597
  734MOL0     H 1224   0.159   2.966   1.631  1.0408  0.9087 -3.5881
  734MOL0     H 1225   0.005   3.098   1.564 -0.2559 -1.5274  3.6411
  734MOL0     H 1226  -0.143   3.012   1.610  1.9940 -0.1071  1.0739
  734MOL0     H 1227  -0.212   3.065   1.367  0.2078  0.0979 -0.2991
  734MOL0     H 1228  -0.215   3.204   1.483 -0.8893 -0.8994 -0.9794
  734MOL0     H 1229   0.035   3.138   1.329 -0.6377  0.0018 -2.4757
  734MOL0     H 1230  -0.094   3.211   1.237  0.1506  0.0318 -1.1342
  734MOL0     H 1231  -0.097   3.400   1.416 -0.6647 -0.4134  1.3289
  734MOL0     H 1232   0.050   3.322   1.484  2.6791  4.0468 -2.0809
  734MOL0     H 1233   0.146   3.324   1.254  2.6645  1.8146  0.7088
  734MOL0     H 1234   0.147   3.456   1.368  2.4601 -2.3168 -0.6341
  734MOL0     H 1235  -0.074   3.456   1.165  1.7119 -2.3437 -0.4136
  734MOL0     H 1236  -0.016   3.595   1.253  4.8383  2.0176 -1.1567
  734MOL0     H 1237   0.117   3.483   1.007  1.6647 -0.4529  0.4417
  734MOL0     H 1238   0.209   3.528   1.132 -1.1799 -1.9275  1.0209
  734MOL0     H 1239   0.086   3.755   1.126  1.2412 -3.8423  2.8098
  734MOL0     H 1240   0.162   3.719   0.970  0.3078  0.1352  0.6731
  734MOL0     H 1241  -0.039   3.603   0.788 -3.8902 -2.6412 -1.9120
  734MOL0     H 1242  -0.250   3.730   0.647  1.3759  0.7048  1.9033
  734MOL0     H 1243  -0.395   3.775   0.747  0.1956  1.2289  2.2223
  734MOL0     H 1244  -0.471   3.561   0.756 -1.7253  1.6409 -1.8116
  734MOL0     H 1245  -0.400   3.570   0.589  3.1150  0.7127 -0.6793
  734MOL0     H 1246  -0.246   3.442   0.812  0.6020  0.0996 -1.3872
  734MOL0     H 1247  -0.382   3.355   0.744  0.4534 -2.3120 -0.3720
  734MOL0     H 1248  -0.171   3.307   0.621 -1.3238 -0.1501  1.4993
  734MOL0     H 1249  -0.300   3.378   0.526  0.2259  2.7783 -1.2779
  734MOL0     H 1250  -0.016   3.694   0.510 -2.4502 -0.2486  0.5382
  734MOL0     H 1251   0.097   3.835   0.222  0.8311  0.8401  2.2079
  734MOL0     H 1252   0.244   3.755   0.283  0.3645 -0.9193 -0.6600
  734MOL0     H 1253   0.143   3.838   0.394  0.4398  0.1293  0.9602
  734MOL0     H 1254  -0.004   3.363  -0.217  2.2161 -0.1696  1.1611
  734MOL0     H 1255  -0.014   3.422  -0.458 -0.9686  2.5548 -0.4024
  734MOL0     H 1256   0.048   3.810  -0.600 -2.5783 -0.0168 -2.0027
  734MOL0     H 1257   0.213   3.793  -0.656  1.2874 -1.6465 -6.0522
  734MOL0     H 1258   0.069   3.819  -0.857 -3.0027  0.2741  0.2659
  734MOL0     H 1259   0.120   3.649  -0.846 -1.7587 -1.2545  0.8784
  734MOL0     H 1260  -0.139   3.775  -0.725  0.9319  0.0976  0.0831
  734MOL0     H 1261  -0.119   3.608  -0.787 -3.0962  0.0467  2.3327
  734MOL0     H 1262  -0.139   3.692  -1.020  0.0046  2.8672 -2.3105
  734MOL0     H 1263  -0.123   3.859  -0.955  2.1210 -1.4702 -2.0924
  734MOL0     H 1264  -0.337   3.815  -0.827  4.0050 -1.4946  2.3591
  734MOL0     H 1265  -0.351   3.823  -1.010  2.3787 -3.2868 -2.2440
  734MOL0     H 1266  -0.359   3.577  -0.819 -0.5914 -6.5230 -1.8413
  734MOL0     H 1267  -0.351   3.587  -1.000  0.8588  0.5056  0.4218
  734MOL0     H 1268  -0.573   3.716  -0.991 -0.7308  1.4189  2.0212
  734MOL0     H 1269  -0.564   3.695  -0.815 -1.1558  1.6448 -0.3612
  734MOL0     H 1270  -0.547   3.467  -1.018  0.5469 -0.2944 -0.1027
  734MOL0     H 1271  -0.700   3.507  -0.962 -0.3105  2.9128 -0.2126
  734MOL0     H 1272   0.167   3.797  -0.378 -0.9169  0.9102  0.7956
  734MOL0     H 1273   0.099   3.760  -0.137  1.3222  0.0183 -0.1874
  734MOL0     H 1274  -0.062   3.378   0.139 -2.5910 -0.2002  0.6462
  734MOL0     H 1275  -0.109   3.316   0.376  1.8809 -0.0972 -0.3284
  734MOL0     H 1276  -0.055   2.686   1.405 -2.0781 -0.8596  2.6664
  734MOL0     H 1277   0.045   2.504   1.491 -0.0627  0.7550 -0.5261
  734MOL0     H 1278   0.277   2.419   1.914  1.2499  1.1831  0.7751
  734MOL0     H 1279   0.365   2.265   2.088  2.6592  2.2681 -0.4012
  734MOL0     H 1280   0.526   2.134   2.184  1.0047 -1.2693  0.8511
  734MOL0     H 1281   0.412   2.007   2.225  0.3132  1.9364  2.2065
  734MOL0     H 1282   0.658   2.010   2.271  0.7224  1.3188 -0.5295
  734MOL0     H 1283   0.690   1.982   2.108 -0.1092  2.0309  1.5642
  734MOL0     H 1284   0.500   1.782   2.266 -2.2288 -1.0079 -4.2498
  734MOL0     H 1285   0.557   1.757   2.113  1.4872 -1.1764 -0.0944
  734MOL0     H 1286   0.787   1.718   2.199 -0.4287 -0.8100  0.7711
  734MOL0     H 1287   0.650   1.606   2.250 -2.5854  0.4073  2.9651
  734MOL0     H 1288   0.787   1.749   2.616  1.1999  2.3454 -0.8990
  734MOL0     H 1289   0.472   1.987   1.784  0.2850 -0.3993 -1.0482
  734MOL0     H 1290   0.400   2.220   1.495  0.8072  1.4106  2.0151
  734MOL0     H 1291   0.497   2.084   1.547  1.5665  1.7602  1.1387
  734MOL0     H 1292   0.336   2.052   1.515  1.7509 -0.0592 -2.4669
  735MOL0     O 1293   0.464   4.049  10.185 -0.4686  0.2353  0.1346
  735MOL0     C 1294   0.345   4.035  10.208  0.0390 -0.9612 -0.1598
  735MOL0     O 1295   0.263   3.958  10.130  0.2147  0.1322  0.4843
  735MOL0     C 1296   0.318   3.908  10.015 -0.1556  0.0619 -0.2488
  735MOL0     C 1297   0.416   3.814  10.027  0.5000 -0.0257 -0.5375
  735MOL0     C 1298   0.466   3.740   9.919 -0.3996  1.0443 -0.5634
  735MOL0     C 1299   0.412   3.765   9.792 -0.9151 -0.0550 -0.6582
  735MOL0     O 1300   0.453   3.708   9.669 -0.6112 -0.1414  0.0429
  735MOL0     C 1301   0.475   3.566   9.681  0.6115  0.9966  0.3602
  735MOL0     C 1302   0.470   3.497   9.539  0.3847  0.7971  0.0945
  735MOL0     C 1303   0.576   3.558   9.440  0.6369  0.5899 -0.2692
  735MOL0     C 1304   0.585   3.468   9.316 -0.4073 -0.3144 -0.2811
  735MOL0     C 1305   0.457   3.456   9.231 -0.0326 -0.3214  0.0728
  735MOL0     C 1306   0.477   3.348   9.129  0.0116  0.1171  1.2841
  735MOL0     C 1307   0.495   3.201   9.182 -0.3774 -0.1796 -0.4919
  735MOL0     C 1308   0.536   3.111   9.075  0.3869 -0.2917  0.8466
  735MOL0     N 1309   0.507   2.969   9.104  0.0407 -0.9929 -0.0375
  735MOL0     C 1310   0.597   2.872   9.091 -0.4341  0.3388  0.3211
  735MOL0     C 1311   0.524   2.758   9.140 -0.1244 -0.0061  0.0070
  735MOL0     C 1312   0.596   2.625   9.149 -0.2843 -0.3424 -1.2508
  735MOL0     C 1313   0.715   2.621   9.251 -0.8687 -0.8931  0.0347
  735MOL0     C 1314   0.681   2.583   9.392  0.6527  0.4099  0.4091
  735MOL0     C 1315   0.612   2.439   9.407 -0.2902 -0.1633 -0.6946
  735MOL0     O 1316   0.560   2.421   9.542  0.1104 -0.2803  0.6492
  735MOL0     C 1317   0.428   2.424   9.575 -0.4472 -0.3011 -0.3027
  735MOL0     C 1318   0.378   2.332   9.675  0.5277 -0.1793  0.2191
  735MOL0     C 1319   0.237   2.322   9.690  0.0260  0.2809  0.3333
  735MOL0     C 1320   0.180   2.216   9.782 -0.1588 -0.4196  0.0919
  735MOL0     C 1321   0.153   2.422   9.637  0.0837 -0.0295 -0.4061
  735MOL0     C 1322   0.006   2.427   9.647  0.8091  0.9179  0.6894
  735MOL0     O 1323  -0.063   2.539   9.612 -0.1034 -0.4883 -0.0631
  735MOL0     C 1324  -0.185   2.576   9.674  0.1178 -0.2720 -0.1683
  735MOL0     C 1325  -0.213   2.543   9.811 -0.1798 -0.0530  0.3204
  735MOL0     C 1326  -0.318   2.598   9.884 -0.4296  0.5067 -0.7594
  735MOL0     C 1327  -0.409   2.680   9.817 -0.6916 -0.1897  0.3641
  735MOL0     O 1328  -0.522   2.740   9.869 -0.4803 -0.2724 -0.7748
  735MOL0     C 1329  -0.557   2.721  10.005 -0.0955 -0.4067 -0.5423
  735MOL0     C 1330  -0.691   2.787  10.026  0.5115  1.0396 -0.7605
  735MOL0     C 1331  -0.711   2.835  10.178 -0.4213  0.8182  0.5018
  735MOL0     C 1332  -0.853   2.894  10.179 -0.0507  0.7962 -0.5983
  735MOL0     C 1333  -0.880   2.979  10.317  0.3204 -0.0449 -0.5287
  735MOL0     C 1334  -0.876   2.896  10.448  0.7712  0.1419 -0.4392
  735MOL0     C 1335  -0.935   2.972  10.577  0.0342 -0.9977  0.3504
  735MOL0     C 1336  -0.862   3.103  10.614 -0.1957  1.4062 -0.5417
  735MOL0    Cl 1337  -0.782   3.093  10.781  0.4063  0.0257  0.7592
  735MOL0     C 1338  -0.379   2.716   9.679 -0.7129 -0.3460 -0.6793
  735MOL0     C 1339  -0.265   2.670   9.610 -0.1078 -0.7229 -0.1407
  735MOL0     O 1340  -0.042   2.312   9.652 -0.6530 -0.1771 -0.6200
  735MOL0     C 1341   0.214   2.511   9.558  0.7155  0.0728  0.4032
  735MOL0     C 1342   0.342   2.519   9.521 -0.5685  0.3948  1.1449
  735MOL0     N 1343   0.399   2.809   9.191 -0.7927  0.0319 -0.2908
  735MOL0     N 1344   0.387   2.932   9.156  0.1243  0.1643 -0.1842
  735MOL0     C 1345   0.317   3.865   9.777 -1.1267  0.5697  1.2467
  735MOL0     C 1346   0.265   3.927   9.890 -0.5106  0.3961  0.1520
  735MOL0     C 1347   0.304   4.075  10.347  0.0509  0.2304  0.7650
  735MOL0     C 1348   0.169   4.063  10.379 -0.2878  0.0652  0.1537
  735MOL0     C 1349   0.124   4.104  10.503 -0.0497 -0.7762 -0.4546
  735MOL0     C 1350   0.214   4.152  10.595  0.2760  0.1060 -0.6007
  735MOL0     O 1351   0.166   4.183  10.714  0.1857 -0.8516 -0.3709
  735MOL0     C 1352   0.214   4.302  10.786  0.0378  0.3684 -0.6656
  735MOL0     C 1353   0.139   4.311  10.919  0.0322 -0.0956 -0.2037
  735MOL0     C 1354   0.138   4.172  10.980 -0.4341 -0.0450 -0.0471
  735MOL0     C 1355   0.095   4.156  11.125 -0.5630 -0.4111 -0.2584
  735MOL0     C 1356  -0.032   4.228  11.143 -0.0404 -0.1820 -1.0040
  735MOL0     C 1357  -0.141   4.282  11.154  0.5919 -1.1786 -0.9811
  735MOL0     C 1358   0.353   4.157  10.573 -0.7291  0.3665  0.9223
  735MOL0     C 1359   0.397   4.127  10.443  1.0304  0.2305  0.3285
  735MOL0     C 1360   0.544   4.134  10.427  0.0859  0.0324 -0.6451
  735MOL0     H 1361   0.443   3.776  10.125 -0.2228  3.1921  1.0427
  735MOL0     H 1362   0.538   3.660   9.931 -0.1548  0.6929 -3.5764
  735MOL0     H 1363   0.391   3.528   9.739 -1.2708  3.8737 -0.2754
  735MOL0     H 1364   0.570   3.551   9.734  1.0817 -0.8265 -0.9073
  735MOL0     H 1365   0.501   3.394   9.556 -0.0936  0.4846 -0.8379
  735MOL0     H 1366   0.366   3.504   9.506  1.1102  3.7533 -2.0348
  735MOL0     H 1367   0.558   3.664   9.422  0.1202  0.9334  1.9136
  735MOL0     H 1368   0.672   3.553   9.492 -0.0307  3.2207  1.4498
  735MOL0     H 1369   0.674   3.487   9.255  0.8013 -1.5319  1.0067
  735MOL0     H 1370   0.618   3.371   9.356 -0.3686 -0.0855  0.2397
  735MOL0     H 1371   0.432   3.548   9.179 -1.9258  0.3065  1.9562
  735MOL0     H 1372   0.376   3.421   9.296  0.0595 -1.1068 -0.2234
  735MOL0     H 1373   0.388   3.344   9.065  0.2041 -0.5253  1.0453
  735MOL0     H 1374   0.553   3.382   9.059 -3.0018  1.5445 -1.6061
  735MOL0     H 1375   0.403   3.172   9.235 -0.1806 -0.1938 -0.1567
  735MOL0     H 1376   0.565   3.190   9.265  0.3586  0.4169 -1.0166
  735MOL0     H 1377   0.462   3.132   8.997  3.3768 -1.6804 -2.6096
  735MOL0     H 1378   0.640   3.115   9.042 -0.1235 -1.2247 -1.0043
  735MOL0     H 1379   0.698   2.869   9.052 -0.3738 -0.1921  0.5007
  735MOL0     H 1380   0.629   2.591   9.050  2.1627  2.6514 -1.6215
  735MOL0     H 1381   0.520   2.556   9.185  0.6943 -0.1533  1.3954
  735MOL0     H 1382   0.783   2.545   9.212  0.2056  0.3998 -0.6684
  735MOL0     H 1383   0.755   2.722   9.261 -3.1243 -0.1009  2.2711
  735MOL0     H 1384   0.775   2.584   9.447  3.0731 -1.6675 -3.3185
  735MOL0     H 1385   0.607   2.648   9.441  3.7953  2.8912  2.2242
  735MOL0     H 1386   0.521   2.431   9.348 -1.8405  1.5306  1.3236
  735MOL0     H 1387   0.684   2.359   9.387  0.8760  1.4294 -3.4511
  735MOL0     H 1388   0.436   2.250   9.717 -0.7884 -1.0568  0.3857
  735MOL0     H 1389   0.101   2.155   9.738 -2.4097 -0.2572  3.4778
  735MOL0     H 1390   0.126   2.250   9.871 -0.9830 -2.7487  0.5437
  735MOL0     H 1391   0.260   2.151   9.819  0.1359  0.5841  1.2773
  735MOL0     H 1392  -0.139   2.472   9.846  1.5389  0.9519 -1.0790
  735MOL0     H 1393  -0.343   2.584   9.989  0.7389  0.9828 -0.4022
  735MOL0     H 1394  -0.566   2.613  10.023 -1.1497 -0.0635  1.2126
  735MOL0     H 1395  -0.476   2.762  10.067  0.4822  0.2546 -1.6896
  735MOL0     H 1396  -0.717   2.871   9.961 -1.0311 -0.3188 -1.9799
  735MOL0     H 1397  -0.759   2.705  10.001  1.9330  0.1935 -2.0230
  735MOL0     H 1398  -0.639   2.913  10.202 -1.3688  0.9195  3.4034
  735MOL0     H 1399  -0.710   2.756  10.254 -0.3287  0.3401  0.0154
  735MOL0     H 1400  -0.935   2.822  10.182 -1.0694  1.9306 -0.8005
  735MOL0     H 1401  -0.878   2.945  10.086 -0.1118  2.5087  0.3127
  735MOL0     H 1402  -0.809   3.063  10.320  1.5322 -1.0110 -1.0648
  735MOL0     H 1403  -0.970   3.037  10.298  1.1289  1.9729  1.3238
  735MOL0     H 1404  -0.774   2.856  10.457  0.2116 -1.5234 -1.2399
  735MOL0     H 1405  -0.934   2.806  10.426  2.3695 -1.0565 -0.0122
  735MOL0     H 1406  -0.945   2.921  10.673 -0.8757  2.2306  2.1323
  735MOL0     H 1407  -1.039   3.002  10.562  0.5458  0.0259 -1.4401
  735MOL0     H 1408  -0.949   3.170  10.617 -1.7177 -0.4804  3.1995
  735MOL0     H 1409  -0.797   3.148  10.538  3.0731 -1.1534  0.4969
  735MOL0     H 1410  -0.439   2.794   9.631 -0.7208 -0.6806 -1.2176
  735MOL0     H 1411  -0.246   2.688   9.504 -2.5875 -2.3241 -0.9322
  735MOL0     H 1412   0.151   2.573   9.496  1.9786 -0.3507 -1.3973
  735MOL0     H 1413   0.360   2.604   9.456 -2.6026 -0.1351 -0.2230
  735MOL0     H 1414   0.258   3.880   9.687 -1.9029  1.0140  1.8162
  735MOL0     H 1415   0.185   4.000   9.887 -1.7341 -0.7465  2.4448
  735MOL0     H 1416   0.095   4.028  10.307 -0.9793 -1.3320  1.4774
  735MOL0     H 1417   0.019   4.099  10.529 -0.2693  3.6299  0.2485
  735MOL0     H 1418   0.320   4.305  10.811  0.4126  0.7062 -2.2184
  735MOL0     H 1419   0.200   4.392  10.726 -2.0598 -1.7222 -3.6032
  735MOL0     H 1420   0.043   4.357  10.893  0.1229 -1.4271 -3.3274
  735MOL0     H 1421   0.200   4.382  10.975 -0.1003 -0.1543  0.0153
  735MOL0     H 1422   0.079   4.105  10.917  1.9919 -3.0611  0.6219
  735MOL0     H 1423   0.237   4.128  10.968 -0.1909  1.2211 -4.0771
  735MOL0     H 1424   0.169   4.197  11.194 -4.6596  1.2812  3.6407
  735MOL0     H 1425   0.077   4.048  11.136 -1.1266 -0.1800  1.3138
  735MOL0     H 1426  -0.235   4.333  11.152  0.1517 -1.9405 -0.2380
  735MOL0     H 1427   0.413   4.186  10.659 -0.2114 -0.9714  1.0301
  735MOL0     H 1428   0.579   4.033  10.405 -1.5966 -0.6534 -0.2797
  735MOL0     H 1429   0.566   4.208  10.350  0.6462  1.5531  0.9050
  735MOL0     H 1430   0.587   4.168  10.522  0.2000 -0.4424 -0.5270
  736MOL0     O 1431   8.833   8.823   9.238 -0.4268  0.0987 -0.0779
  736MOL0     C 1432   8.735   8.780   9.293  0.5043 -0.1698  1.6480
  736MOL0     O 1433   8.667   8.862   9.372  1.0277 -0.6765 -0.8999
  736MOL0     C 1434   8.671   8.998   9.375 -1.6431 -0.0762 -1.1198
  736MOL0     C 1435   8.662   9.065   9.499 -0.4335  0.3022  0.9740
  736MOL0     C 1436   8.640   9.203   9.508  0.1389 -0.6171 -0.3624
  736MOL0     C 1437   8.631   9.278   9.390  0.3704  0.9654 -0.5176
  736MOL0     O 1438   8.586   9.409   9.412 -0.5192 -0.5073 -0.1478
  736MOL0     C 1439   8.624   9.496   9.294 -1.0595 -0.1086  0.3618
  736MOL0     C 1440   8.608   9.644   9.325 -0.4663  0.4171 -0.3097
  736MOL0     C 1441   8.665   9.718   9.208 -0.1958  0.6743 -0.4054
  736MOL0     C 1442   8.611   9.864   9.183 -1.5257  0.4409 -0.0157
  736MOL0     C 1443   8.463   9.862   9.118  0.6213 -0.5462  0.0857
  736MOL0     C 1444   8.480   9.848   8.970 -0.0962  0.0171  1.3861
  736MOL0     C 1445   8.350   9.837   8.896 -0.4506 -0.1766  0.6415
  736MOL0     C 1446   8.382   9.800   8.748  1.0659 -0.1881  0.8413
  736MOL0     N 1447   8.488   9.694   8.714  0.3291 -0.3745  0.7713
  736MOL0     C 1448   8.470   9.556   8.744 -0.2286 -0.0235  0.6347
  736MOL0     C 1449   8.584   9.498   8.710  0.1442 -0.2740  0.6843
  736MOL0     C 1450   8.630   9.368   8.761  0.4864 -0.1953  0.2079
  736MOL0     C 1451   8.737   9.301   8.679  0.4165 -0.9090 -0.0753
  736MOL0     C 1452   8.753   9.158   8.736  0.1200 -1.0838  0.3440
  736MOL0     C 1453   8.874   9.077   8.676 -0.9451 -0.0245 -0.1134
  736MOL0     O 1454   9.005   9.125   8.714 -1.3016  0.0552  0.0498
  736MOL0     C 1455   9.074   9.094   8.823  0.0021  0.1606 -0.2757
  736MOL0     C 1456   9.208   9.120   8.820 -0.2732  0.1534  0.5175
  736MOL0     C 1457   9.299   9.094   8.932  0.2936  0.2415 -0.5479
  736MOL0     C 1458   9.443   9.104   8.914 -0.3131  0.0366  0.4564
  736MOL0     C 1459   9.243   9.045   9.053  0.5504  1.0601 -0.0154
  736MOL0     C 1460   9.310   9.023   9.182  0.1424 -0.2828  0.3455
  736MOL0     O 1461   9.269   8.911   9.250 -0.4929  0.2522  0.2299
  736MOL0     C 1462   9.316   8.885   9.382  0.1008 -0.2627 -0.5428
  736MOL0     C 1463   9.441   8.916   9.437  0.1225 -0.4174  0.0411
  736MOL0     C 1464   9.475   8.877   9.562 -0.1224  0.3460 -0.1577
  736MOL0     C 1465   9.380   8.821   9.651  0.3260 -0.9716  0.4386
  736MOL0     O 1466   9.431   8.787   9.776 -0.1176  0.2269 -0.1840
  736MOL0     C 1467   9.560   8.712   9.800  0.4778  0.9577 -0.8276
  736MOL0     C 1468   9.603   8.705   9.949  0.1722  0.3673  0.5005
  736MOL0     C 1469   9.520   8.608  10.037 -0.7184 -0.8108 -0.6770
  736MOL0     C 1470   9.531   8.621  10.194 -0.7058  0.2331  0.1237
  736MOL0     C 1471   9.505   8.493  10.265  0.4322 -0.0511  0.3143
  736MOL0     C 1472   9.526   8.501  10.417  0.4426 -0.7254 -0.7641
  736MOL0     C 1473   9.496   8.360  10.473  0.6390 -0.1745 -0.1655
  736MOL0     C 1474   9.534   8.336  10.617 -0.2635  0.4571  0.2301
  736MOL0    Cl 1475   9.590   8.160  10.639  0.0939  0.3289  0.1163
  736MOL0     C 1476   9.257   8.797   9.611 -0.8856 -0.3165  0.0868
  736MOL0     C 1477   9.222   8.823   9.474  0.0144 -0.0829  0.0386
  736MOL0     O 1478   9.403   9.098   9.214  0.3783  0.0296 -0.0569
  736MOL0     C 1479   9.102   9.007   9.052 -0.2256  0.5861  0.8098
  736MOL0     C 1480   9.015   9.037   8.944 -0.4251  0.6663 -0.2349
  736MOL0     N 1481   8.660   9.584   8.638  0.1852 -0.2100 -0.2464
  736MOL0     N 1482   8.595   9.697   8.629 -0.2075 -0.2977 -0.3079
  736MOL0     C 1483   8.644   9.222   9.270 -0.5930 -0.1702 -0.0797
  736MOL0     C 1484   8.663   9.074   9.260 -0.1761 -0.5195  0.4190
  736MOL0     C 1485   8.688   8.642   9.260 -0.4042 -0.0953  0.2247
  736MOL0     C 1486   8.555   8.612   9.290  0.1940 -0.2879  0.4126
  736MOL0     C 1487   8.501   8.486   9.260  1.3330  0.1270 -0.3556
  736MOL0     C 1488   8.579   8.389   9.192  0.5473 -0.6565  0.2675
  736MOL0     O 1489   8.518   8.269   9.173  0.4658  0.3353 -0.0269
  736MOL0     C 1490   8.533   8.211   9.043  0.1448 -0.4300  0.6591
  736MOL0     C 1491   8.434   8.095   9.041  0.5175  0.0816  0.3606
  736MOL0     C 1492   8.449   7.986   9.142  0.4800 -0.6068 -0.0992
  736MOL0     C 1493   8.342   7.879   9.113 -0.4727 -0.4326 -0.3337
  736MOL0     C 1494   8.349   7.775   9.217 -0.1466  0.2774 -0.1063
  736MOL0     C 1495   8.366   7.701   9.309  0.2457 -0.1974  0.0034
  736MOL0     C 1496   8.710   8.417   9.158  1.0333 -0.0929  0.5145
  736MOL0     C 1497   8.769   8.540   9.195  1.8215  0.8287 -0.4212
  736MOL0     C 1498   8.912   8.553   9.148  0.4830 -0.2387  0.3284
  736MOL0     H 1499   8.663   9.012   9.594  2.1923 -0.9181  0.3577
  736MOL0     H 1500   8.596   9.252   9.594  0.9081 -2.7285  1.3347
  736MOL0     H 1501   8.563   9.468   9.208 -1.8392  1.4148  0.3691
  736MOL0     H 1502   8.728   9.470   9.272 -0.8147 -1.3254  2.6774
  736MOL0     H 1503   8.508   9.681   9.350 -1.1720 -2.8914  2.7439
  736MOL0     H 1504   8.666   9.663   9.416 -1.1855 -0.5969  0.3928
  736MOL0     H 1505   8.773   9.730   9.226  0.1592 -0.6840 -1.4716
  736MOL0     H 1506   8.659   9.658   9.117  2.2163 -2.3317  1.1858
  736MOL0     H 1507   8.601   9.908   9.282  2.0857  1.5035  0.0214
  736MOL0     H 1508   8.678   9.925   9.121  2.9975 -2.9651  0.9638
  736MOL0     H 1509   8.406   9.948   9.153  1.1216 -1.3906  3.3325
  736MOL0     H 1510   8.400   9.780   9.156  3.6782 -2.9234  0.4401
  736MOL0     H 1511   8.531   9.940   8.938  0.6954 -0.9321 -0.2416
  736MOL0     H 1512   8.542   9.760   8.949 -3.2423 -1.7666 -1.4814
  736MOL0     H 1513   8.295   9.931   8.887  3.3302  2.0667 -1.4033
  736MOL0     H 1514   8.280   9.766   8.941 -0.4916 -1.7643 -1.7098
  736MOL0     H 1515   8.284   9.785   8.702  1.9115 -0.9620 -0.7907
  736MOL0     H 1516   8.421   9.888   8.695 -1.7474  0.3006 -0.6079
  736MOL0     H 1517   8.396   9.513   8.811  0.3449 -1.3414  0.4466
  736MOL0     H 1518   8.543   9.302   8.752  1.4016 -1.1417 -4.0833
  736MOL0     H 1519   8.657   9.375   8.867 -0.2115 -1.5029  0.4976
  736MOL0     H 1520   8.716   9.311   8.572  0.2978  0.6442  0.0758
  736MOL0     H 1521   8.830   9.358   8.690  0.0428  0.0955 -1.7430
  736MOL0     H 1522   8.782   9.176   8.840 -1.6924  3.3972  0.3184
  736MOL0     H 1523   8.658   9.104   8.729 -0.4635 -0.7250  3.7601
  736MOL0     H 1524   8.868   8.969   8.688 -2.8291 -0.1264 -1.4845
  736MOL0     H 1525   8.858   9.083   8.568 -0.8762  1.4039 -0.0658
  736MOL0     H 1526   9.234   9.157   8.722  2.9640  1.0649  1.5811
  736MOL0     H 1527   9.467   9.177   8.836  2.6109 -1.9812 -0.7031
  736MOL0     H 1528   9.496   9.011   8.896  0.9260  0.5400  1.4286
  736MOL0     H 1529   9.492   9.150   9.000 -2.8699  0.8418  1.5774
  736MOL0     H 1530   9.517   8.959   9.372 -0.0627  0.5393  0.4484
  736MOL0     H 1531   9.567   8.923   9.597  1.2548  0.3873 -3.5018
  736MOL0     H 1532   9.558   8.605   9.779  1.1603  0.4748  1.2593
  736MOL0     H 1533   9.639   8.768   9.749  0.8459  2.5933  1.3594
  736MOL0     H 1534   9.706   8.668   9.945 -0.9635 -3.0536  0.2861
  736MOL0     H 1535   9.598   8.807   9.990  4.1018  1.7018 -1.7738
  736MOL0     H 1536   9.531   8.503  10.008 -1.6109 -0.8976 -0.7518
  736MOL0     H 1537   9.411   8.621  10.030 -0.8867 -0.5195  1.4987
  736MOL0     H 1538   9.460   8.696  10.227 -0.5706  0.6025 -0.4084
  736MOL0     H 1539   9.634   8.641  10.225  0.5736 -1.4451 -2.5960
  736MOL0     H 1540   9.405   8.458  10.237  0.7062 -1.5740  1.1288
  736MOL0     H 1541   9.588   8.433  10.225  0.6726  1.0930 -0.9926
  736MOL0     H 1542   9.463   8.578  10.464 -0.5530 -1.9130 -0.0821
  736MOL0     H 1543   9.632   8.516  10.440  0.7751 -0.5101 -2.3182
  736MOL0     H 1544   9.552   8.286  10.414  1.7261  1.1063 -0.7982
  736MOL0     H 1545   9.389   8.344  10.457  0.6387  1.2216 -1.8941
  736MOL0     H 1546   9.452   8.373  10.680  0.4957 -0.7919  2.0160
  736MOL0     H 1547   9.619   8.401  10.639 -1.9148  1.5279  4.3405
  736MOL0     H 1548   9.178   8.752   9.670 -0.4092 -3.9068 -1.7605
  736MOL0     H 1549   9.118   8.798   9.456 -0.3780 -0.1897  2.2370
  736MOL0     H 1550   9.052   8.951   9.130 -2.4657 -2.9777 -2.8299
  736MOL0     H 1551   8.909   9.022   8.963  0.1650 -1.6576  1.7017
  736MOL0     H 1552   8.629   9.282   9.181  0.6745  0.3066  0.0088
  736MOL0     H 1553   8.664   9.032   9.160  1.6131  2.2731 -0.8525
  736MOL0     H 1554   8.501   8.691   9.341  2.0591 -0.0377  2.1476
  736MOL0     H 1555   8.412   8.446   9.308  2.9597 -3.4013  0.0579
  736MOL0     H 1556   8.502   8.287   8.970  2.3542 -0.1392 -0.0471
  736MOL0     H 1557   8.635   8.182   9.018 -1.4781 -3.8217 -3.2723
  736MOL0     H 1558   8.435   8.047   8.943 -3.2648 -2.1014  1.1967
  736MOL0     H 1559   8.342   8.154   9.047  2.0812  3.2513 -3.1414
  736MOL0     H 1560   8.548   7.939   9.137  0.3878 -0.7170 -0.8753
  736MOL0     H 1561   8.421   8.028   9.239 -4.4754 -0.1269 -1.4602
  736MOL0     H 1562   8.351   7.843   9.010  3.0272 -0.1754 -0.2250
  736MOL0     H 1563   8.244   7.928   9.123  0.6482  2.0842 -0.7788
  736MOL0     H 1564   8.378   7.639   9.396  0.2396  0.4976  0.5153
  736MOL0     H 1565   8.776   8.342   9.115 -0.3261 -1.8384  1.3520
  736MOL0     H 1566   8.949   8.632   9.214  0.0712  0.0599  0.2024
  736MOL0     H 1567   8.972   8.467   9.180 -2.6092 -1.4204  3.6888
  736MOL0     H 1568   8.918   8.570   9.041  1.6805  0.1335  0.4387
  737MOL0     O 1569  11.479   9.647   1.033 -0.3823 -0.5411  0.4502
  737MOL0     C 1570  11.573   9.679   0.966  0.1737  0.3298 -0.2772
  737MOL0     O 1571  11.642   9.600   0.874  0.3116  0.2040 -0.3855
  737MOL0     C 1572  11.598   9.475   0.833  0.1695 -1.1276  0.0183
  737MOL0     C 1573  11.698   9.411   0.754  0.2658 -0.0607  0.1153
  737MOL0     C 1574  11.659   9.294   0.685  0.0481 -0.1682 -0.9238
  737MOL0     C 1575  11.536   9.240   0.693 -0.1786 -0.7684 -0.3200
  737MOL0     O 1576  11.496   9.144   0.612 -0.3122 -0.3927  0.1677
  737MOL0     C 1577  11.589   9.049   0.559 -0.5523  0.1796 -0.6790
  737MOL0     C 1578  11.518   8.931   0.486 -0.5137  0.0420  0.6858
  737MOL0     C 1579  11.520   8.810   0.577 -0.2872 -0.2798  0.9142
  737MOL0     C 1580  11.425   8.695   0.535  0.1671 -0.1862 -0.3035
  737MOL0     C 1581  11.425   8.660   0.382  0.6850  0.5956 -0.1961
  737MOL0     C 1582  11.341   8.531   0.343  0.4959  0.3596  0.0986
  737MOL0     C 1583  11.373   8.492   0.197  0.0832 -0.2885  0.3403
  737MOL0     C 1584  11.271   8.385   0.146  0.9886 -0.3597 -0.6584
  737MOL0     N 1585  11.285   8.348   0.009  0.2563 -0.6579  0.7627
  737MOL0     C 1586  11.286   8.439  -0.095 -0.1469  0.7911 -0.2687
  737MOL0     C 1587  11.297   8.362  -0.204 -0.6509 -0.3097 -0.3680
  737MOL0     C 1588  11.287   8.416  -0.338  0.0442 -0.0776  0.9565
  737MOL0     C 1589  11.193   8.338  -0.426 -0.7635  0.5120  0.1023
  737MOL0     C 1590  11.233   8.349  -0.578 -0.4021 -0.2794 -0.2294
  737MOL0     C 1591  11.338   8.234  -0.622  0.8556 -0.1388  0.3074
  737MOL0     O 1592  11.470   8.278  -0.648  0.1488  0.0458 -0.2933
  737MOL0     C 1593  11.497   8.329  -0.775 -0.5207 -0.3942 -0.3693
  737MOL0     C 1594  11.624   8.386  -0.791 -0.7615 -0.1995  0.6246
  737MOL0     C 1595  11.670   8.445  -0.906  0.0240  0.0003 -1.0721
  737MOL0     C 1596  11.795   8.525  -0.899  0.1858 -0.3362  0.0313
  737MOL0     C 1597  11.583   8.444  -1.018 -0.3154 -0.4472 -1.2594
  737MOL0     C 1598  11.599   8.505  -1.150 -0.0329 -0.5031 -0.2276
  737MOL0     O 1599  11.494   8.523  -1.229 -0.2330 -0.7172 -0.1228
  737MOL0     C 1600  11.519   8.581  -1.354  0.2881  0.3739 -0.2848
  737MOL0     C 1601  11.493   8.711  -1.381  0.0308  0.2179  0.2060
  737MOL0     C 1602  11.528   8.769  -1.504 -1.2932 -0.6727  0.2004
  737MOL0     C 1603  11.578   8.696  -1.602 -0.3239 -0.4099  0.1172
  737MOL0     O 1604  11.626   8.776  -1.700 -0.3169 -0.2170 -0.4892
  737MOL0     C 1605  11.679   8.718  -1.813 -0.0671  0.3878  0.1768
  737MOL0     C 1606  11.713   8.829  -1.917 -0.0976  0.9076  0.4059
  737MOL0     C 1607  11.730   8.778  -2.058 -0.8992  1.1062 -0.2986
  737MOL0     C 1608  11.594   8.757  -2.120 -1.3006  0.6765 -0.3795
  737MOL0     C 1609  11.615   8.633  -2.201 -0.0142  0.0470  0.2309
  737MOL0     C 1610  11.503   8.603  -2.306 -0.2972 -0.4806  0.1800
  737MOL0     C 1611  11.516   8.464  -2.367  0.1397  1.1294 -0.4097
  737MOL0     C 1612  11.648   8.425  -2.437  0.5011 -0.3953  0.3650
  737MOL0    Cl 1613  11.614   8.280  -2.543 -0.3581  0.5878 -0.0348
  737MOL0     C 1614  11.602   8.562  -1.591  0.4987  0.7377 -0.5971
  737MOL0     C 1615  11.575   8.502  -1.460 -0.2021 -0.2517 -0.0677
  737MOL0     O 1616  11.717   8.538  -1.179  0.2000  0.0282 -1.1362
  737MOL0     C 1617  11.462   8.370  -1.004  0.4102 -0.3282 -0.8966
  737MOL0     C 1618  11.420   8.324  -0.884 -0.8042 -0.0416 -0.3632
  737MOL0     N 1619  11.320   8.235  -0.170  0.7095  0.2778 -0.4186
  737MOL0     N 1620  11.309   8.222  -0.042 -0.5104 -0.1415 -0.6047
  737MOL0     C 1621  11.438   9.297   0.778  0.7757  0.1444  0.5182
  737MOL0     C 1622  11.470   9.416   0.842 -0.3574  0.2836 -0.3528
  737MOL0     C 1623  11.617   9.815   0.988 -0.6906 -0.4175 -0.0946
  737MOL0     C 1624  11.632   9.869   1.116  0.1485  0.3223  0.1400
  737MOL0     C 1625  11.676   9.989   1.146  0.1990 -0.0242 -0.1887
  737MOL0     C 1626  11.729  10.065   1.038 -0.5631  0.6444 -0.4074
  737MOL0     O 1627  11.791  10.189   1.071  0.0669  0.4085  0.0401
  737MOL0     C 1628  11.836  10.224   1.203 -0.4977  0.9866  0.2658
  737MOL0     C 1629  11.748  10.332   1.255 -0.2631  0.6425 -0.4561
  737MOL0     C 1630  11.711  10.437   1.160  0.0812  0.0268 -0.0680
  737MOL0     C 1631  11.649  10.561   1.229  0.4708  0.2255 -0.0699
  737MOL0     C 1632  11.522  10.543   1.304  1.1574 -0.4360 -0.0333
  737MOL0     C 1633  11.422  10.521   1.369 -0.2092 -0.6043  0.1952
  737MOL0     C 1634  11.728  10.013   0.903  0.3568  0.1927 -0.1166
  737MOL0     C 1635  11.671   9.893   0.877 -0.1067 -0.2755 -0.8378
  737MOL0     C 1636  11.658   9.849   0.735 -1.1672  0.3493 -1.1840
  737MOL0     H 1637  11.791   9.457   0.723  0.7122 -1.3656 -0.5533
  737MOL0     H 1638  11.743   9.241   0.640  2.8352 -2.3168  5.6534
  737MOL0     H 1639  11.659   9.017   0.636  0.6426 -2.2628 -2.6294
  737MOL0     H 1640  11.652   9.090   0.479  0.4892 -2.9561 -1.6363
  737MOL0     H 1641  11.424   8.971   0.446  0.6792  3.7469  1.2173
  737MOL0     H 1642  11.583   8.920   0.399  0.6343  1.5665  1.3100
  737MOL0     H 1643  11.622   8.774   0.589 -0.5267 -1.2560  0.1260
  737MOL0     H 1644  11.491   8.845   0.677  0.5010  2.7688  0.1860
  737MOL0     H 1645  11.454   8.607   0.592 -3.2424  0.0663  2.1196
  737MOL0     H 1646  11.325   8.726   0.567  1.7498  0.7803  4.5361
  737MOL0     H 1647  11.526   8.649   0.342  0.6547 -0.3902 -0.0308
  737MOL0     H 1648  11.382   8.736   0.316 -2.2116 -0.6082  0.1433
  737MOL0     H 1649  11.356   8.444   0.408  0.9973  0.5996  0.3137
  737MOL0     H 1650  11.239   8.565   0.359  0.7326  1.0393  0.2194
  737MOL0     H 1651  11.469   8.440   0.193 -0.2565 -0.9255  0.3315
  737MOL0     H 1652  11.382   8.577   0.129 -0.0308 -0.5013  0.0555
  737MOL0     H 1653  11.269   8.295   0.209  1.5832 -0.9510 -1.4574
  737MOL0     H 1654  11.171   8.426   0.160 -0.1694 -3.5340  1.5406
  737MOL0     H 1655  11.271   8.546  -0.088  1.5532  1.0673 -0.2683
  737MOL0     H 1656  11.381   8.418  -0.394 -1.1744 -1.7439 -1.2981
  737MOL0     H 1657  11.254   8.520  -0.341  3.0886  0.9618 -0.9415
  737MOL0     H 1658  11.192   8.236  -0.388 -3.1697  0.1637 -0.7689
  737MOL0     H 1659  11.093   8.376  -0.402 -0.1931  1.2862  1.3842
  737MOL0     H 1660  11.148   8.342  -0.647  0.1252 -0.9607 -0.8294
  737MOL0     H 1661  11.263   8.452  -0.603  0.1359  0.5649  3.3349
  737MOL0     H 1662  11.347   8.158  -0.543 -1.9361 -2.2103 -1.1654
  737MOL0     H 1663  11.300   8.185  -0.712  1.1922  0.9797 -0.4556
  737MOL0     H 1664  11.698   8.377  -0.712  0.4245  2.3118 -0.1059
  737MOL0     H 1665  11.837   8.518  -0.799  0.6012 -1.3503 -0.2104
  737MOL0     H 1666  11.776   8.630  -0.924  0.7744 -0.5555 -1.4244
  737MOL0     H 1667  11.867   8.482  -0.968 -0.7494 -3.8907  1.0630
  737MOL0     H 1668  11.447   8.772  -1.304 -2.2611  0.1524 -1.0445
  737MOL0     H 1669  11.523   8.878  -1.505  1.1860 -0.5137  0.3132
  737MOL0     H 1670  11.767   8.662  -1.779 -0.6584 -1.6026 -1.4114
  737MOL0     H 1671  11.604   8.651  -1.853 -0.3099 -0.4345  1.8974
  737MOL0     H 1672  11.639   8.909  -1.911 -0.4755  0.5333  0.7625
  737MOL0     H 1673  11.810   8.865  -1.879 -0.5286  0.0658  2.4247
  737MOL0     H 1674  11.771   8.678  -2.040 -0.9039  1.0678 -0.4971
  737MOL0     H 1675  11.802   8.837  -2.116 -1.2963  5.3561  3.0496
  737MOL0     H 1676  11.568   8.839  -2.187 -0.3767  3.2646  2.2250
  737MOL0     H 1677  11.516   8.737  -2.047 -2.1539 -2.0597 -1.8704
  737MOL0     H 1678  11.711   8.624  -2.253  0.2842  2.2063  0.2850
  737MOL0     H 1679  11.611   8.554  -2.126 -0.3520 -2.6734 -2.4531
  737MOL0     H 1680  11.507   8.673  -2.390  2.1217 -3.7848 -2.7631
  737MOL0     H 1681  11.406   8.604  -2.255  0.0044 -2.0330  0.8500
  737MOL0     H 1682  11.430   8.438  -2.430  0.2837 -3.0101  0.7922
  737MOL0     H 1683  11.489   8.407  -2.277 -0.0594 -2.6489 -2.6227
  737MOL0     H 1684  11.721   8.400  -2.359 -0.3838 -3.0662  0.4514
  737MOL0     H 1685  11.687   8.503  -2.503  1.4361 -1.5941 -0.5596
  737MOL0     H 1686  11.651   8.509  -1.672 -1.4223 -2.0362 -0.1122
  737MOL0     H 1687  11.612   8.402  -1.440 -0.9904  0.0529  3.9188
  737MOL0     H 1688  11.389   8.344  -1.080 -0.9743  1.0243 -0.0827
  737MOL0     H 1689  11.320   8.281  -0.874 -0.5265 -0.6197 -0.0203
  737MOL0     H 1690  11.335   9.262   0.790  0.9623  0.0304  2.0832
  737MOL0     H 1691  11.399   9.457   0.913  1.2145  2.1104  0.2571
  737MOL0     H 1692  11.591   9.803   1.191 -1.9581  0.1357 -1.0959
  737MOL0     H 1693  11.669  10.019   1.250  1.9128 -2.4091  0.7066
  737MOL0     H 1694  11.844  10.148   1.281 -0.1052  0.1891 -0.5274
  737MOL0     H 1695  11.940  10.256   1.194  0.7543 -2.8430 -0.8195
  737MOL0     H 1696  11.804  10.385   1.332  1.4667  0.4061 -1.5076
  737MOL0     H 1697  11.675  10.273   1.312  1.4636 -0.1582  1.0258
  737MOL0     H 1698  11.802  10.437   1.100  0.2238 -4.7640 -0.2106
  737MOL0     H 1699  11.654  10.408   1.071  0.5061  0.2692 -0.4307
  737MOL0     H 1700  11.609  10.637   1.161  1.6827  2.2096  1.3064
  737MOL0     H 1701  11.724  10.604   1.297  2.5409 -1.5052 -1.1633
  737MOL0     H 1702  11.329  10.507   1.419 -1.6944 -0.2406 -2.3332
  737MOL0     H 1703  11.778  10.072   0.827 -1.1798  3.5622  1.2830
  737MOL0     H 1704  11.565   9.792   0.722 -0.9477  0.4590 -3.7708
  737MOL0     H 1705  11.657   9.942   0.678  1.5629  0.8210 -0.5996
  737MOL0     H 1706  11.739   9.777   0.718 -1.0079  0.8456 -2.6294
  738MOL0     O 1707   2.962  11.383  10.831  0.4877 -0.6474  0.3025
  738MOL0     C 1708   2.991  11.383  10.949 -0.6704  0.5518  0.1527
  738MOL0     O 1709   2.968  11.272  11.037 -1.2201 -0.4709  0.4986
  738MOL0     C 1710   2.918  11.157  10.978  0.9657 -0.1368 -0.3898
  738MOL0     C 1711   2.794  11.118  11.027  0.4276 -0.2303 -0.1013
  738MOL0     C 1712   2.723  11.010  10.976  0.1844 -0.0708  0.6405
  738MOL0     C 1713   2.774  10.927  10.878  0.8310  0.2972 -0.0508
  738MOL0     O 1714   2.699  10.821  10.822  0.0115  0.2522 -0.1110
  738MOL0     C 1715   2.563  10.841  10.797 -0.6269 -0.7490 -0.4804
  738MOL0     C 1716   2.515  10.734  10.698 -0.0024 -0.5116  0.7415
  738MOL0     C 1717   2.512  10.592  10.750  0.5118  1.0107  0.0103
  738MOL0     C 1718   2.435  10.493  10.646 -0.1810 -0.7989 -0.3614
  738MOL0     C 1719   2.441  10.346  10.693  0.7642 -0.4808  0.3085
  738MOL0     C 1720   2.339  10.275  10.616  0.1165 -0.0042 -0.5416
  738MOL0     C 1721   2.188  10.304  10.653 -0.3265 -0.0531 -0.4912
  738MOL0     C 1722   2.095  10.337  10.542 -0.2143 -0.0495 -0.9966
  738MOL0     N 1723   2.138  10.450  10.462  0.2520 -0.0302  0.2842
  738MOL0     C 1724   2.117  10.577  10.496 -0.5402 -0.3389 -0.4498
  738MOL0     C 1725   2.176  10.646  10.395  0.6145  0.5292 -0.3261
  738MOL0     C 1726   2.181  10.790  10.371  0.2066  0.7508  0.1037
  738MOL0     C 1727   2.075  10.871  10.452 -0.4216 -0.2628 -0.0806
  738MOL0     C 1728   2.054  11.011  10.411  0.4531 -0.4277 -0.3992
  738MOL0     C 1729   2.171  11.102  10.449  0.0086  0.1746  1.0073
  738MOL0     O 1730   2.146  11.235  10.409  0.4997  0.7408 -0.7323
  738MOL0     C 1731   2.242  11.326  10.453  0.3966  0.2213  0.8068
  738MOL0     C 1732   2.311  11.397  10.353  0.7237 -0.6017  0.5808
  738MOL0     C 1733   2.413  11.493  10.384  1.3596  0.1704 -0.2936
  738MOL0     C 1734   2.474  11.571  10.261  0.7723 -0.3710  0.6414
  738MOL0     C 1735   2.456  11.510  10.524 -0.0826  0.4865  0.3120
  738MOL0     C 1736   2.571  11.596  10.554 -0.0512 -0.0135  0.3308
  738MOL0     O 1737   2.600  11.623  10.692 -0.8732 -0.0668  0.2942
  738MOL0     C 1738   2.623  11.748  10.740  0.7279  0.0159  0.1918
  738MOL0     C 1739   2.543  11.779  10.847 -0.1882  0.3593 -0.7959
  738MOL0     C 1740   2.533  11.908  10.905 -0.4523  0.1138  0.1331
  738MOL0     C 1741   2.625  12.004  10.856 -0.3688 -0.1212  0.9708
  738MOL0     O 1742   2.656  12.125  10.916 -0.1874  0.1008 -0.5903
  738MOL0     C 1743   2.555  12.176  11.008  0.2006 -0.3325 -1.1687
  738MOL0     C 1744   2.545  12.326  10.989  0.6356  0.8008  0.7071
  738MOL0     C 1745   2.428  12.365  10.883  0.5455  0.0397  0.1181
  738MOL0     C 1746   2.464  12.338  10.738  0.5717  0.6140 -0.8481
  738MOL0     C 1747   2.388  12.426  10.636 -0.6271 -0.7662  0.0891
  738MOL0     C 1748   2.253  12.383  10.606  0.2792 -0.3007 -0.6802
  738MOL0     C 1749   2.249  12.249  10.530 -1.0019  0.1949  0.7724
  738MOL0     C 1750   2.112  12.219  10.466  0.2875 -0.0982 -0.5186
  738MOL0    Cl 1751   1.995  12.182  10.609 -0.9669 -0.5112  0.4800
  738MOL0     C 1752   2.707  11.977  10.749  0.1850  1.3602  0.9496
  738MOL0     C 1753   2.712  11.849  10.692 -0.6628 -0.2591  0.3414
  738MOL0     O 1754   2.636  11.640  10.462 -0.4709 -0.2046  0.4861
  738MOL0     C 1755   2.385  11.435  10.622  0.4835 -0.7664  0.6610
  738MOL0     C 1756   2.278  11.346  10.582 -0.3123  0.1627 -0.2348
  738MOL0     N 1757   2.223  10.559  10.300 -0.4215  0.0248  0.3763
  738MOL0     N 1758   2.207  10.444  10.344  0.4387  0.9322 -0.3881
  738MOL0     C 1759   2.912  10.951  10.835 -0.2561  0.0480  0.2179
  738MOL0     C 1760   2.978  11.073  10.878  0.1605  0.1465 -1.3477
  738MOL0     C 1761   3.055  11.507  11.000  0.5815  0.0121 -0.4073
  738MOL0     C 1762   3.066  11.512  11.142 -0.0029  0.3104 -0.4889
  738MOL0     C 1763   3.122  11.629  11.207  0.1352  0.4270 -0.4385
  738MOL0     C 1764   3.174  11.736  11.132 -0.0829 -0.5304 -0.0996
  738MOL0     O 1765   3.216  11.853  11.189  0.3877 -0.3423  0.0263
  738MOL0     C 1766   3.345  11.845  11.257 -1.3266 -0.4770  0.2432
  738MOL0     C 1767   3.305  11.873  11.397  0.1045  0.3039 -0.6511
  738MOL0     C 1768   3.418  11.833  11.487 -0.2646 -0.0732 -0.0557
  738MOL0     C 1769   3.428  11.930  11.605  1.1250  0.2655  0.1128
  738MOL0     C 1770   3.302  11.915  11.685  0.4538 -0.4688  0.0774
  738MOL0     C 1771   3.191  11.895  11.735  0.6411  0.6928  0.0497
  738MOL0     C 1772   3.146  11.723  10.994  0.7914 -0.8068 -0.4779
  738MOL0     C 1773   3.094  11.614  10.923 -0.3362  0.8408 -0.9410
  738MOL0     C 1774   3.078  11.627  10.770 -1.0361 -0.0078 -0.4882
  738MOL0     H 1775   2.746  11.167  11.111  2.2596  0.9724  0.3039
  738MOL0     H 1776   2.627  10.985  11.020  1.4380 -3.2399  1.8689
  738MOL0     H 1777   2.552  10.935  10.741  2.6068 -1.0790 -1.8795
  738MOL0     H 1778   2.508  10.839  10.891  1.1298 -0.5638  0.5756
  738MOL0     H 1779   2.411  10.756  10.673  0.3601  1.3556  0.7493
  738MOL0     H 1780   2.586  10.743  10.616 -1.0574 -2.8593 -0.5296
  738MOL0     H 1781   2.618  10.568  10.758  0.2057 -0.7239 -0.7186
  738MOL0     H 1782   2.464  10.588  10.848  2.0042  0.6369  0.7566
  738MOL0     H 1783   2.335  10.530  10.622  0.4185  0.5955 -0.7979
  738MOL0     H 1784   2.496  10.497  10.556  1.2008  0.5334  0.5984
  738MOL0     H 1785   2.430  10.329  10.801  3.1889  0.4068  0.7519
  738MOL0     H 1786   2.540  10.306  10.670  1.2788  0.3820  0.9467
  738MOL0     H 1787   2.366  10.254  10.512  1.5411 -3.2547  0.3638
  738MOL0     H 1788   2.361  10.176  10.658 -0.0447  0.8521  1.7171
  738MOL0     H 1789   2.184  10.387  10.725  2.7263 -0.2331  0.0394
  738MOL0     H 1790   2.148  10.216  10.703 -0.0945 -0.1728 -0.5181
  738MOL0     H 1791   2.107  10.255  10.472 -2.8346 -0.6990 -0.7745
  738MOL0     H 1792   1.990  10.336  10.572  0.2465 -5.3518  1.6454
  738MOL0     H 1793   2.081  10.620  10.589 -1.3877 -0.3334 -0.7672
  738MOL0     H 1794   2.151  10.802  10.267  1.1586  0.0633 -0.2631
  738MOL0     H 1795   2.281  10.830  10.389 -0.1191  1.4733  0.3551
  738MOL0     H 1796   1.982  10.814  10.443  0.1204 -1.0059 -1.1853
  738MOL0     H 1797   2.110  10.874  10.556  0.7423  1.2333 -0.4786
  738MOL0     H 1798   2.045  11.025  10.303 -1.1062  0.3044 -0.2055
  738MOL0     H 1799   1.960  11.048  10.454  2.7701  0.1418  4.8316
  738MOL0     H 1800   2.165  11.100  10.558  0.5454 -0.3560  1.0322
  738MOL0     H 1801   2.271  11.067  10.420 -0.3535 -1.9585  2.1465
  738MOL0     H 1802   2.277  11.382  10.252 -1.7289 -1.2796  1.4383
  738MOL0     H 1803   2.412  11.540  10.176 -0.9469  0.7832  1.4390
  738MOL0     H 1804   2.580  11.547  10.242  0.3190 -3.0820  1.0787
  738MOL0     H 1805   2.454  11.676  10.281 -0.9694 -0.9329  2.0720
  738MOL0     H 1806   2.490  11.701  10.901 -1.5160  1.1353 -0.9265
  738MOL0     H 1807   2.486  11.909  11.002  1.5263  1.4820  1.1609
  738MOL0     H 1808   2.453  12.141  10.989 -0.8375  1.7535  0.1761
  738MOL0     H 1809   2.590  12.153  11.109 -1.7765  0.4088 -0.2479
  738MOL0     H 1810   2.533  12.379  11.084  0.6597  0.6564  0.7932
  738MOL0     H 1811   2.634  12.366  10.940 -1.1359 -0.7113 -4.4453
  738MOL0     H 1812   2.419  12.474  10.886  0.7216  0.1899 -2.6691
  738MOL0     H 1813   2.331  12.322  10.910 -0.2714  3.2802  3.1817
  738MOL0     H 1814   2.452  12.233  10.709  1.3092 -0.1550  1.3970
  738MOL0     H 1815   2.570  12.363  10.740  0.9781 -0.9861  0.8343
  738MOL0     H 1816   2.378  12.526  10.680  0.4655 -1.7311  2.7058
  738MOL0     H 1817   2.447  12.423  10.544  0.4097  0.9343  0.6451
  738MOL0     H 1818   2.208  12.454  10.536 -1.1670  2.9640  3.1748
  738MOL0     H 1819   2.189  12.381  10.695  3.1322  0.6603  1.5675
  738MOL0     H 1820   2.272  12.168  10.601  3.1443  0.6823  0.2696
  738MOL0     H 1821   2.321  12.254  10.448 -1.4771  1.6774  0.4256
  738MOL0     H 1822   2.109  12.135  10.395 -1.2959  0.5080 -1.2223
  738MOL0     H 1823   2.066  12.299  10.408 -0.0130 -1.1735 -1.8210
  738MOL0     H 1824   2.761  12.063  10.711  2.5569  0.2047  1.4518
  738MOL0     H 1825   2.774  11.841  10.604  0.2776 -0.0682  0.9724
  738MOL0     H 1826   2.413  11.443  10.726  0.6687 -2.6149  0.7843
  738MOL0     H 1827   2.235  11.287  10.663 -0.9519 -0.2452 -0.8558
  738MOL0     H 1828   2.961  10.882  10.767  0.2586 -1.2713  1.8411
  738MOL0     H 1829   3.078  11.096  10.841  0.9369 -3.1300 -1.6112
  738MOL0     H 1830   3.034  11.429  11.204  0.4753 -1.8091 -2.8820
  738MOL0     H 1831   3.116  11.626  11.315  2.3217  0.6097 -0.2594
  738MOL0     H 1832   3.403  11.753  11.244 -0.1623  0.4002 -1.1136
  738MOL0     H 1833   3.411  11.927  11.227 -3.2701  0.0521 -3.0964
  738MOL0     H 1834   3.214  11.822  11.430  0.7145 -0.3637  0.0188
  738MOL0     H 1835   3.280  11.979  11.409 -1.9744 -0.2009 -0.2056
  738MOL0     H 1836   3.430  11.728  11.517  0.0610 -0.8285 -2.5782
  738MOL0     H 1837   3.501  11.854  11.419 -2.3941  1.7391 -2.2728
  738MOL0     H 1838   3.439  12.036  11.581  1.2724  0.4545  0.9608
  738MOL0     H 1839   3.517  11.902  11.662  1.2540  1.1039  0.3365
  738MOL0     H 1840   3.099  11.883  11.789  0.5355  1.1270 -0.0266
  738MOL0     H 1841   3.172  11.809  10.932 -1.7236  2.5400  2.6523
  738MOL0     H 1842   2.978  11.641  10.728 -2.4408 -2.2523  1.7539
  738MOL0     H 1843   3.138  11.712  10.738 -2.1484  1.5424  1.3163
  738MOL0     H 1844   3.110  11.537  10.717  0.5203  0.7039 -0.8261
  739MOL0     O 1845   8.062   6.015  10.934 -0.0896  0.0846  0.1995
  739MOL0     C 1846   8.105   6.064  11.036 -0.1802 -0.9371  0.5503
  739MOL0     O 1847   8.174   6.185  11.054  0.1120  0.5679 -0.0618
  739MOL0     C 1848   8.185   6.278  10.950 -0.2340  0.8188  1.1424
  739MOL0     C 1849   8.088   6.383  10.944 -0.4754 -1.2369  0.1553
  739MOL0     C 1850   8.109   6.480  10.847 -0.0525 -0.2005  0.0819
  739MOL0     C 1851   8.202   6.454  10.742  0.6619  0.0304  0.1725
  739MOL0     O 1852   8.211   6.543  10.637 -0.0321 -0.0456  0.1156
  739MOL0     C 1853   8.314   6.631  10.623 -0.0798 -0.9658 -0.1838
  739MOL0     C 1854   8.278   6.750  10.542 -0.4272 -0.5880  0.2563
  739MOL0     C 1855   8.368   6.874  10.527  0.0370  0.5049  0.5439
  739MOL0     C 1856   8.310   6.962  10.414 -0.0634 -0.0120 -0.3671
  739MOL0     C 1857   8.178   7.045  10.449 -0.0459 -0.2314  0.2058
  739MOL0     C 1858   8.163   7.157  10.339  1.4469  0.1038 -0.6833
  739MOL0     C 1859   8.042   7.256  10.367 -0.1619 -0.0802  0.3540
  739MOL0     C 1860   7.907   7.186  10.371  0.1435  1.0004 -0.0561
  739MOL0     N 1861   7.854   7.154  10.509 -0.0028  0.0179 -0.2796
  739MOL0     C 1862   7.849   7.028  10.547  0.8181  0.5271  0.1027
  739MOL0     C 1863   7.803   7.033  10.673 -0.9927 -0.0994  0.5297
  739MOL0     C 1864   7.793   6.928  10.774 -0.3890 -0.3392 -0.4532
  739MOL0     C 1865   7.920   6.866  10.825 -0.2497 -1.0436  0.5450
  739MOL0     C 1866   8.001   6.970  10.919 -0.2075  0.7206  0.2970
  739MOL0     C 1867   8.099   6.899  11.013  0.1617 -0.1345  0.1906
  739MOL0     O 1868   8.123   6.991  11.117  0.2723 -0.1458 -0.1204
  739MOL0     C 1869   8.236   7.072  11.112  0.6738  0.6129  0.6817
  739MOL0     C 1870   8.300   7.107  10.991 -1.0453 -0.0757  0.3032
  739MOL0     C 1871   8.415   7.189  10.996  0.5016  0.2535  0.4626
  739MOL0     C 1872   8.470   7.229  10.856 -0.6763  0.3546  1.0281
  739MOL0     C 1873   8.462   7.239  11.119  0.3146 -0.6621  0.3796
  739MOL0     C 1874   8.560   7.347  11.134 -0.2306 -1.3064  0.2053
  739MOL0     O 1875   8.664   7.322  11.221 -0.8677  0.1175  0.1453
  739MOL0     C 1876   8.766   7.413  11.219  0.3887  0.1928  0.3413
  739MOL0     C 1877   8.869   7.407  11.117  0.1450  0.9794 -0.0061
  739MOL0     C 1878   8.982   7.489  11.136 -0.1447 -0.0911 -0.1265
  739MOL0     C 1879   8.981   7.588  11.236 -0.3865 -0.3292 -0.5408
  739MOL0     O 1880   9.088   7.674  11.268 -0.3931  0.2298  0.0644
  739MOL0     C 1881   9.208   7.668  11.192 -0.2975  0.4682  1.3232
  739MOL0     C 1882   9.318   7.746  11.260  0.4768  0.3534 -0.9287
  739MOL0     C 1883   9.453   7.746  11.179 -0.4288  0.2000 -0.3518
  739MOL0     C 1884   9.543   7.863  11.231  0.6084  0.1183  0.1078
  739MOL0     C 1885   9.664   7.898  11.145 -0.7104 -1.0189  0.2564
  739MOL0     C 1886   9.629   7.968  11.011  0.6867  0.0880 -0.1035
  739MOL0     C 1887   9.573   8.104  11.012  0.7905 -0.1485 -0.1520
  739MOL0     C 1888   9.682   8.203  10.982  0.2520 -1.0138 -0.8260
  739MOL0    Cl 1889   9.813   8.204  11.101  0.1472 -0.3316 -0.4219
  739MOL0     C 1890   8.869   7.596  11.328 -0.3941  0.0906  0.8773
  739MOL0     C 1891   8.763   7.510  11.312  0.2803  0.6854 -0.0253
  739MOL0     O 1892   8.553   7.442  11.057  0.0202 -0.3798  0.5528
  739MOL0     C 1893   8.398   7.193  11.236  0.1741  0.2153  1.0258
  739MOL0     C 1894   8.298   7.101  11.228  0.4501  0.0650 -0.8642
  739MOL0     N 1895   7.758   7.160  10.699  0.2006  0.0751  0.4178
  739MOL0     N 1896   7.798   7.241  10.604 -0.2818  0.7571  0.2158
  739MOL0     C 1897   8.288   6.342  10.743 -0.5361 -0.5144  0.4003
  739MOL0     C 1898   8.274   6.254  10.850 -0.1467 -0.4125  0.8747
  739MOL0     C 1899   8.091   5.998  11.172  0.0824  0.7916 -0.2473
  739MOL0     C 1900   8.192   6.017  11.260 -0.5013 -0.5967  0.1957
  739MOL0     C 1901   8.193   5.977  11.391  0.6449  0.1721 -0.6124
  739MOL0     C 1902   8.089   5.882  11.431 -0.0653 -0.4521 -0.1631
  739MOL0     O 1903   8.092   5.809  11.549  0.2957 -0.0745 -0.2125
  739MOL0     C 1904   8.189   5.846  11.654 -0.2209 -0.5585  0.2034
  739MOL0     C 1905   8.157   5.775  11.788  1.0142  0.0573 -0.6469
  739MOL0     C 1906   8.187   5.628  11.780 -0.4494 -1.0837 -1.2414
  739MOL0     C 1907   8.123   5.569  11.902 -0.3755  0.7472 -0.0182
  739MOL0     C 1908   8.139   5.420  11.897  0.2310  0.5865 -0.5009
  739MOL0     C 1909   8.168   5.307  11.931 -0.7721  0.1195  0.4895
  739MOL0     C 1910   7.989   5.852  11.335 -0.2197 -0.7862 -0.4544
  739MOL0     C 1911   7.986   5.913  11.204  0.3683 -0.3606 -1.0097
  739MOL0     C 1912   7.875   5.886  11.106  0.1117 -0.6751  0.4935
  739MOL0     H 1913   7.999   6.377  11.006 -0.2718 -0.8243  0.4950
  739MOL0     H 1914   8.044   6.567  10.846 -1.8351 -1.4001  2.3983
  739MOL0     H 1915   8.400   6.587  10.572  2.6244  2.1125  1.3175
  739MOL0     H 1916   8.348   6.674  10.718  1.8792 -0.7136 -0.9406
  739MOL0     H 1917   8.258   6.711  10.442  0.7732 -0.2679 -0.1293
  739MOL0     H 1918   8.177   6.775  10.576 -0.9637 -3.2863  0.8353
  739MOL0     H 1919   8.395   6.931  10.616  1.3343 -0.7492  1.0066
  739MOL0     H 1920   8.465   6.835  10.494  0.8393  0.4938  2.7372
  739MOL0     H 1921   8.382   7.036  10.378 -2.3684  1.8545 -1.4171
  739MOL0     H 1922   8.285   6.907  10.323 -1.2158  1.6799 -1.1184
  739MOL0     H 1923   8.202   7.092  10.545 -3.5990 -2.4450  2.4178
  739MOL0     H 1924   8.081   6.995  10.457 -0.7656  1.0872  0.0334
  739MOL0     H 1925   8.250   7.223  10.329  0.7675  0.8917 -1.5164
  739MOL0     H 1926   8.156   7.103  10.245  1.0753 -2.9885  0.9861
  739MOL0     H 1927   8.038   7.341  10.299 -0.3032  0.1323  0.6275
  739MOL0     H 1928   8.058   7.306  10.463  2.3096 -1.9809  1.0263
  739MOL0     H 1929   7.828   7.247  10.326  1.8477  1.6159 -2.4314
  739MOL0     H 1930   7.909   7.094  10.312 -0.0984  1.1887 -0.3628
  739MOL0     H 1931   7.888   6.936  10.505 -1.2905  0.8991 -2.9601
  739MOL0     H 1932   7.726   6.856  10.727 -0.4310 -0.3948 -0.3094
  739MOL0     H 1933   7.747   6.960  10.868  1.6763 -0.1614  0.5507
  739MOL0     H 1934   7.896   6.771  10.873  0.4591 -1.0471  0.9157
  739MOL0     H 1935   7.990   6.829  10.749  2.4223 -0.2176  2.4510
  739MOL0     H 1936   8.060   7.051  10.875 -0.1705  0.1886 -0.6460
  739MOL0     H 1937   7.929   7.020  10.985 -1.4549 -3.6799  2.7135
  739MOL0     H 1938   8.048   6.808  11.047  0.8897 -1.1660 -1.3824
  739MOL0     H 1939   8.188   6.856  10.966  0.2602  1.9579 -1.7142
  739MOL0     H 1940   8.286   7.055  10.897 -0.3187 -1.0536  0.7083
  739MOL0     H 1941   8.408   7.184  10.777  0.7079 -1.9224  1.1440
  739MOL0     H 1942   8.577   7.209  10.847 -0.4615  1.6262  0.5778
  739MOL0     H 1943   8.456   7.334  10.832 -1.6316 -0.0814 -0.5401
  739MOL0     H 1944   8.869   7.334  11.037 -1.3532  3.4795 -2.4488
  739MOL0     H 1945   9.058   7.475  11.059  0.0540 -1.6719  0.3220
  739MOL0     H 1946   9.241   7.564  11.188  0.7885  0.8314 -2.0890
  739MOL0     H 1947   9.194   7.702  11.089  1.1401 -2.4336  0.0627
  739MOL0     H 1948   9.283   7.849  11.275 -0.9993  0.0992 -2.2939
  739MOL0     H 1949   9.324   7.696  11.356 -1.6245 -1.8016 -1.8073
  739MOL0     H 1950   9.443   7.755  11.071  0.4827  1.6568 -0.3400
  739MOL0     H 1951   9.497   7.647  11.187 -0.4303  0.1734 -0.6657
  739MOL0     H 1952   9.565   7.830  11.333 -2.3464 -2.1189  0.1274
  739MOL0     H 1953   9.477   7.950  11.233  0.3873 -0.0192 -0.8577
  739MOL0     H 1954   9.726   7.965  11.206  0.4801  0.2329 -2.2003
  739MOL0     H 1955   9.714   7.806  11.113 -0.7368 -0.7841 -0.4594
  739MOL0     H 1956   9.568   7.899  10.952  2.1281 -1.5955  0.2905
  739MOL0     H 1957   9.725   7.964  10.959  0.1128 -2.3321 -1.0867
  739MOL0     H 1958   9.520   8.122  11.106 -1.1603 -2.0346 -0.7991
  739MOL0     H 1959   9.488   8.097  10.943  1.3842 -3.3059 -0.7114
  739MOL0     H 1960   9.635   8.302  10.974  0.1654 -0.9998 -0.1958
  739MOL0     H 1961   9.729   8.176  10.887 -1.1501 -2.2702 -1.1955
  739MOL0     H 1962   8.870   7.678  11.400 -1.1842  0.1309  0.8497
  739MOL0     H 1963   8.685   7.529  11.385 -0.6495  1.8229 -1.2847
  739MOL0     H 1964   8.441   7.231  11.328 -0.1238 -0.5958  1.5120
  739MOL0     H 1965   8.256   7.063  11.320 -1.4804  1.7312 -0.9898
  739MOL0     H 1966   8.374   6.328  10.679 -1.0446  0.4046 -0.5144
  739MOL0     H 1967   8.343   6.172  10.869  2.5518  1.3769 -0.5457
  739MOL0     H 1968   8.284   6.051  11.213 -0.5599 -0.0985  0.4363
  739MOL0     H 1969   8.286   5.988  11.446  0.9965 -0.5590 -1.0442
  739MOL0     H 1970   8.292   5.837  11.617  0.6748 -0.5395  2.5318
  739MOL0     H 1971   8.172   5.954  11.667  0.3827 -0.3467 -0.6322
  739MOL0     H 1972   8.053   5.787  11.820  1.0569 -3.3854  1.2632
  739MOL0     H 1973   8.222   5.816  11.866  1.1435 -2.0852  0.4551
  739MOL0     H 1974   8.145   5.590  11.686 -3.2874 -0.0514 -0.4836
  739MOL0     H 1975   8.296   5.624  11.785 -0.2222  2.3553 -0.7858
  739MOL0     H 1976   8.015   5.585  11.898 -0.4685 -0.1208 -1.7137
  739MOL0     H 1977   8.164   5.605  11.997 -3.0167  0.7231  1.2278
  739MOL0     H 1978   8.171   5.210  11.976  0.1745  0.1366  0.4804
  739MOL0     H 1979   7.915   5.781  11.368 -0.1244 -0.6969 -0.0436
  739MOL0     H 1980   7.787   5.843  11.154 -0.6442  0.4307  0.1414
  739MOL0     H 1981   7.855   5.975  11.046  1.3287 -0.2675  0.6596
  739MOL0     H 1982   7.908   5.806  11.040 -1.5132  0.3704 -1.7031
  740MOL0     O 1983   2.188   4.707   4.494  0.2608  0.0189 -0.2258
  740MOL0     C 1984   2.153   4.765   4.602 -0.9494  0.7153 -0.0671
  740MOL0     O 1985   2.112   4.894   4.611 -0.0465  0.2346 -0.0542
  740MOL0     C 1986   2.025   4.951   4.522 -0.5158 -0.2267 -0.1724
  740MOL0     C 1987   2.008   5.092   4.543  0.4878 -0.4618  0.1603
  740MOL0     C 1988   1.923   5.157   4.450 -0.1479 -1.0817  0.6446
  740MOL0     C 1989   1.856   5.097   4.345  0.8241  0.0655  0.8113
  740MOL0     O 1990   1.760   5.149   4.246 -0.0859  0.9823 -0.1488
  740MOL0     C 1991   1.773   5.282   4.200 -0.6072  0.7079  0.4431
  740MOL0     C 1992   1.665   5.320   4.097 -0.1545 -0.0816  0.0227
  740MOL0     C 1993   1.537   5.385   4.158  0.1178  0.1042 -0.3051
  740MOL0     C 1994   1.469   5.465   4.044 -0.0319  0.0658  0.7318
  740MOL0     C 1995   1.323   5.490   4.078 -0.4650 -0.3713 -0.0105
  740MOL0     C 1996   1.266   5.613   4.015 -0.0272  0.3283 -0.2769
  740MOL0     C 1997   1.116   5.618   4.051  0.0238  0.2942  0.0069
  740MOL0     C 1998   1.065   5.627   4.200 -0.0101  0.6552  0.5558
  740MOL0     N 1999   1.113   5.755   4.246 -0.2125  0.2756  0.3757
  740MOL0     C 2000   1.054   5.880   4.241 -0.2743 -0.0930 -0.4118
  740MOL0     C 2001   1.150   5.975   4.275 -1.1202 -0.1538 -0.3156
  740MOL0     C 2002   1.152   6.128   4.263  0.1417  0.7629 -0.6635
  740MOL0     C 2003   1.105   6.164   4.121 -0.0336 -0.0843  0.0235
  740MOL0     C 2004   1.187   6.129   4.005  0.0454  0.4237 -0.0669
  740MOL0     C 2005   1.319   6.211   4.010  0.3103  0.2189  0.3459
  740MOL0     O 2006   1.399   6.182   3.893  0.2478  0.7508  0.0271
  740MOL0     C 2007   1.456   6.287   3.839  0.4637  0.0127  0.5733
  740MOL0     C 2008   1.376   6.381   3.777 -0.7401 -0.0672 -0.5987
  740MOL0     C 2009   1.425   6.499   3.722  0.4743 -1.0803  0.1780
  740MOL0     C 2010   1.332   6.605   3.669  0.1241 -0.2137  1.3609
  740MOL0     C 2011   1.566   6.515   3.717  0.1922  0.2592  0.3679
  740MOL0     C 2012   1.631   6.637   3.664 -0.8909  0.0755  0.7385
  740MOL0     O 2013   1.761   6.626   3.620 -0.3619 -0.1483 -0.8218
  740MOL0     C 2014   1.811   6.728   3.539  1.5772  0.2972  0.2268
  740MOL0     C 2015   1.858   6.705   3.416  0.1824 -0.2709 -0.0070
  740MOL0     C 2016   1.923   6.799   3.332  0.1932 -1.1588  0.1041
  740MOL0     C 2017   1.945   6.925   3.387 -0.2088 -0.2469 -0.4564
  740MOL0     O 2018   2.005   7.013   3.302  0.7448 -0.7696 -0.7516
  740MOL0     C 2019   2.003   7.160   3.322  0.4416 -0.4744  0.1895
  740MOL0     C 2020   2.120   7.218   3.241  0.1785 -0.7296  0.1301
  740MOL0     C 2021   2.121   7.366   3.260  0.0629 -0.2882  0.4489
  740MOL0     C 2022   2.253   7.420   3.193 -0.0283 -0.4748 -0.0338
  740MOL0     C 2023   2.257   7.573   3.214 -0.3970 -0.2253  0.9624
  740MOL0     C 2024   2.373   7.640   3.129 -0.9062  0.0363  1.3531
  740MOL0     C 2025   2.374   7.793   3.126  0.4009  0.7141 -0.3332
  740MOL0     C 2026   2.448   7.849   3.009 -0.5598 -0.1462 -0.1578
  740MOL0    Cl 2027   2.513   8.019   3.047 -0.5874 -0.5198  0.2786
  740MOL0     C 2028   1.896   6.950   3.525  0.3265  0.2719  0.2167
  740MOL0     C 2029   1.831   6.849   3.603  0.0216 -0.7624  0.8227
  740MOL0     O 2030   1.566   6.740   3.660 -0.4793  0.5186  0.0655
  740MOL0     C 2031   1.645   6.417   3.785 -0.6310 -0.2378 -0.7347
  740MOL0     C 2032   1.595   6.300   3.838 -0.2333 -0.6271 -0.5752
  740MOL0     N 2033   1.256   5.903   4.324  0.1582  1.0828  0.2060
  740MOL0     N 2034   1.230   5.777   4.317 -0.2903 -0.2965 -0.1950
  740MOL0     C 2035   1.876   4.961   4.320 -0.1052 -0.0169 -0.3943
  740MOL0     C 2036   1.961   4.893   4.409 -1.0033 -0.3656  1.1921
  740MOL0     C 2037   2.194   4.699   4.729  1.1992  0.6649  0.0794
  740MOL0     C 2038   2.188   4.776   4.849  0.3195 -0.2569 -0.7029
  740MOL0     C 2039   2.226   4.721   4.973 -0.4389  0.6692  0.1273
  740MOL0     C 2040   2.291   4.596   4.978 -0.1125 -0.7618  0.2681
  740MOL0     O 2041   2.331   4.541   5.087  0.2213  0.7831  0.1390
  740MOL0     C 2042   2.357   4.618   5.203  0.5826  0.4422 -1.3282
  740MOL0     C 2043   2.414   4.535   5.330  0.1465  0.8593 -0.7902
  740MOL0     C 2044   2.549   4.476   5.305  1.3038 -0.5717  0.0682
  740MOL0     C 2045   2.674   4.562   5.322 -0.1291  0.1531 -0.5972
  740MOL0     C 2046   2.801   4.499   5.280  1.4843  0.5655  0.1217
  740MOL0     C 2047   2.910   4.450   5.244  0.5410 -0.6760 -0.4882
  740MOL0     C 2048   2.308   4.520   4.859  0.9723  0.4969  0.3222
  740MOL0     C 2049   2.248   4.566   4.740  0.5032 -0.2871 -0.5580
  740MOL0     C 2050   2.274   4.467   4.625 -0.8021  0.1381  0.2828
  740MOL0     H 2051   2.062   5.148   4.618  0.7896  1.1003 -1.1702
  740MOL0     H 2052   1.891   5.259   4.467 -1.1195 -0.2417 -4.5881
  740MOL0     H 2053   1.875   5.278   4.162 -0.5316 -3.1041  0.7200
  740MOL0     H 2054   1.761   5.360   4.277 -2.3690  2.7012 -1.6956
  740MOL0     H 2055   1.716   5.387   4.027  0.6630 -0.0008  0.6710
  740MOL0     H 2056   1.639   5.227   4.046  1.6734 -1.1577  0.9433
  740MOL0     H 2057   1.468   5.306   4.191  2.1680 -1.4969  0.3501
  740MOL0     H 2058   1.559   5.461   4.234 -0.0358 -0.5228  0.3757
  740MOL0     H 2059   1.522   5.559   4.029 -2.3047  1.0968 -1.8099
  740MOL0     H 2060   1.471   5.410   3.950 -0.4072 -3.8913  2.8297
  740MOL0     H 2061   1.312   5.494   4.186 -0.5877 -1.2284  0.0129
  740MOL0     H 2062   1.269   5.406   4.033  0.2781 -0.3613 -0.9549
  740MOL0     H 2063   1.309   5.707   4.049  0.2042  0.7346 -1.6145
  740MOL0     H 2064   1.285   5.606   3.907  3.4667  0.0647  0.2422
  740MOL0     H 2065   1.072   5.528   4.009 -0.4457 -0.6963  2.4774
  740MOL0     H 2066   1.092   5.715   4.006  3.7370  1.7639  0.7458
  740MOL0     H 2067   0.956   5.618   4.203  0.1199 -1.0160  1.7311
  740MOL0     H 2068   1.105   5.542   4.255  1.1418 -1.1496 -2.7710
  740MOL0     H 2069   0.959   5.906   4.196  0.4752 -0.9103 -2.5792
  740MOL0     H 2070   1.252   6.166   4.288  1.0238 -1.7630  0.0180
  740MOL0     H 2071   1.091   6.165   4.345  0.8674 -1.4203  0.9739
  740MOL0     H 2072   1.014   6.106   4.105  2.0430 -3.0452 -2.0103
  740MOL0     H 2073   1.096   6.272   4.137  4.4471  0.2237  1.9907
  740MOL0     H 2074   1.214   6.023   4.005 -0.6083  0.2512  0.3673
  740MOL0     H 2075   1.137   6.157   3.912 -2.3012 -1.5659  0.4949
  740MOL0     H 2076   1.288   6.316   4.021  0.4326  0.2799  0.1220
  740MOL0     H 2077   1.381   6.189   4.097  0.6607 -1.4759 -0.3034
  740MOL0     H 2078   1.269   6.367   3.770 -0.6342 -0.1130 -2.3111
  740MOL0     H 2079   1.365   6.634   3.569 -2.2229  0.1380  0.6275
  740MOL0     H 2080   1.356   6.685   3.739  1.7900 -1.6346  2.4840
  740MOL0     H 2081   1.226   6.577   3.680 -0.0089 -0.1102  0.4933
  740MOL0     H 2082   1.826   6.615   3.364  1.7777 -1.5411  1.1122
  740MOL0     H 2083   1.962   6.774   3.234 -1.3069  1.3747 -1.2634
  740MOL0     H 2084   1.920   7.193   3.259  0.9203  0.2191 -0.1009
  740MOL0     H 2085   1.993   7.187   3.427 -1.4602  2.7079 -0.6636
  740MOL0     H 2086   2.212   7.193   3.294  0.6484  0.4469 -0.1044
  740MOL0     H 2087   2.124   7.186   3.136  7.0971 -2.6805  0.5359
  740MOL0     H 2088   2.129   7.385   3.367  3.2072 -1.0982  0.4779
  740MOL0     H 2089   2.027   7.406   3.222  1.0436  2.7947  1.0622
  740MOL0     H 2090   2.264   7.383   3.090  0.8000  2.0761 -0.9287
  740MOL0     H 2091   2.343   7.384   3.244  0.3840 -0.6093 -0.8478
  740MOL0     H 2092   2.154   7.606   3.194 -0.5812 -1.1951  0.2597
  740MOL0     H 2093   2.265   7.594   3.321  0.0670  2.1813  0.5123
  740MOL0     H 2094   2.360   7.604   3.026 -3.4361  2.2852  0.7485
  740MOL0     H 2095   2.468   7.600   3.162 -0.3316  1.2264  1.2008
  740MOL0     H 2096   2.422   7.828   3.218 -0.4726  0.6889  0.1467
  740MOL0     H 2097   2.272   7.828   3.111 -0.7051 -0.9488  2.5517
  740MOL0     H 2098   2.385   7.865   2.921 -0.8049  2.0667  0.3548
  740MOL0     H 2099   2.535   7.788   2.983 -0.1798  1.2239 -2.3212
  740MOL0     H 2100   1.903   7.049   3.568  1.1909  0.5059 -0.4539
  740MOL0     H 2101   1.793   6.868   3.703  2.1527  1.5362  1.2823
  740MOL0     H 2102   1.751   6.436   3.781 -1.0012  1.8484 -1.7704
  740MOL0     H 2103   1.661   6.225   3.878  1.2942  1.2405  0.6045
  740MOL0     H 2104   1.823   4.916   4.237 -1.5892  1.1598 -0.1151
  740MOL0     H 2105   1.964   4.786   4.387 -1.7643  0.0833 -1.5130
  740MOL0     H 2106   2.144   4.875   4.851  4.4679  1.7980  1.2336
  740MOL0     H 2107   2.193   4.780   5.058  1.1407  4.2718 -1.5378
  740MOL0     H 2108   2.431   4.694   5.176  1.0303  1.7292  2.8043
  740MOL0     H 2109   2.272   4.675   5.241  1.2300 -0.3755  1.5712
  740MOL0     H 2110   2.346   4.451   5.347 -0.4194  1.7619  1.7352
  740MOL0     H 2111   2.403   4.602   5.415 -1.2869 -0.0462 -0.2315
  740MOL0     H 2112   2.555   4.393   5.375 -0.3094 -0.4671  0.3665
  740MOL0     H 2113   2.544   4.444   5.200 -2.0041  3.5623 -1.3150
  740MOL0     H 2114   2.694   4.574   5.429 -2.2682  0.3133 -0.1669
  740MOL0     H 2115   2.660   4.659   5.274  0.7989 -1.1881 -3.8481
  740MOL0     H 2116   2.996   4.410   5.195  0.6698 -0.5425 -0.3721
  740MOL0     H 2117   2.374   4.434   4.864  1.4637  0.8915  0.7576
  740MOL0     H 2118   2.188   4.460   4.559 -0.8206  1.5449  0.1189
  740MOL0     H 2119   2.355   4.514   4.568  0.6190 -3.2796 -0.7685
  740MOL0     H 2120   2.314   4.369   4.652  2.9451  1.0770 -1.2645
  741MOL0     O 2121  10.563   9.349   7.427  0.3406  0.5071  0.1768
  741MOL0     C 2122  10.494   9.424   7.363  0.7287 -0.4012 -0.1232
  741MOL0     O 2123  10.419   9.398   7.258  0.0653  0.1307 -0.0371
  741MOL0     C 2124  10.428   9.265   7.212  0.2515  0.2162  0.4054
  741MOL0     C 2125  10.338   9.172   7.255  0.1488 -0.6127  0.1929
  741MOL0     C 2126  10.334   9.039   7.205  0.3386 -0.0977 -0.2679
  741MOL0     C 2127  10.424   9.002   7.106  0.7551  0.0181 -0.3289
  741MOL0     O 2128  10.429   8.882   7.039  0.5006  0.0389 -0.3371
  741MOL0     C 2129  10.326   8.781   7.050 -0.6897  0.2464 -1.3290
  741MOL0     C 2130  10.362   8.667   6.960 -0.1431  0.3756  1.0617
  741MOL0     C 2131  10.243   8.579   6.927  0.3095  0.4634 -0.2554
  741MOL0     C 2132  10.294   8.438   6.892 -0.7357  0.3525 -0.9778
  741MOL0     C 2133  10.202   8.341   6.826  0.1702  1.4448 -0.3997
  741MOL0     C 2134  10.119   8.388   6.713  0.1185  0.2798  0.5949
  741MOL0     C 2135  10.088   8.275   6.628  0.0023  0.6560  0.4744
  741MOL0     C 2136   9.998   8.292   6.493  0.2818 -0.1407 -1.2082
  741MOL0     N 2137   9.872   8.351   6.529  0.0342 -0.8588  0.4538
  741MOL0     C 2138   9.825   8.480   6.516 -0.3566 -0.8355  0.9944
  741MOL0     C 2139   9.691   8.465   6.521 -1.5538 -0.1188 -0.2790
  741MOL0     C 2140   9.581   8.555   6.480 -0.1473  0.5986  0.8989
  741MOL0     C 2141   9.457   8.530   6.547 -0.3628  0.3922  0.3027
  741MOL0     C 2142   9.350   8.634   6.523  0.2197  0.8220 -0.7050
  741MOL0     C 2143   9.216   8.604   6.608  1.0370  0.4022  0.2670
  741MOL0     O 2144   9.165   8.473   6.561  0.3003 -0.0185 -0.0769
  741MOL0     C 2145   9.074   8.455   6.466 -0.0314 -0.0192  0.4370
  741MOL0     C 2146   9.009   8.331   6.465  0.7103  0.2629 -0.7590
  741MOL0     C 2147   8.918   8.295   6.369  0.6769  0.7110 -0.0329
  741MOL0     C 2148   8.879   8.150   6.374 -0.1218  0.5976  0.1455
  741MOL0     C 2149   8.882   8.392   6.267  0.4959  0.4091 -0.8913
  741MOL0     C 2150   8.770   8.365   6.175  0.7773 -0.0522 -0.0919
  741MOL0     O 2151   8.691   8.253   6.172  0.2360  0.4317 -0.4262
  741MOL0     C 2152   8.574   8.255   6.101 -0.1820 -1.1185  0.3466
  741MOL0     C 2153   8.468   8.334   6.145 -0.1008  0.4234  0.0401
  741MOL0     C 2154   8.345   8.321   6.075 -0.3316  0.2048 -0.4075
  741MOL0     C 2155   8.332   8.248   5.957  0.0096 -0.3083  0.4161
  741MOL0     O 2156   8.214   8.223   5.889  0.4030  0.2852 -0.5523
  741MOL0     C 2157   8.095   8.301   5.918 -0.0599 -0.8950  0.0640
  741MOL0     C 2158   8.022   8.223   6.029  0.7226 -0.0747 -0.2896
  741MOL0     C 2159   8.000   8.072   5.992 -0.5607  0.1493  0.3400
  741MOL0     C 2160   7.849   8.044   6.028 -0.2290  0.6385 -0.5892
  741MOL0     C 2161   7.812   8.029   6.177 -1.7222  0.2598  0.1751
  741MOL0     C 2162   7.664   8.041   6.195  1.1342  0.1854 -0.9553
  741MOL0     C 2163   7.625   8.002   6.340 -0.0137  0.4887 -0.3183
  741MOL0     C 2164   7.541   7.875   6.369 -0.7032 -0.7295  0.0187
  741MOL0    Cl 2165   7.369   7.900   6.338  0.0480  0.1191 -0.2481
  741MOL0     C 2166   8.445   8.192   5.906 -0.5829  0.1381 -0.1547
  741MOL0     C 2167   8.568   8.193   5.975 -0.1315  0.8537 -0.0218
  741MOL0     O 2168   8.747   8.473   6.106 -0.0819  0.0220  0.4777
  741MOL0     C 2169   8.952   8.508   6.269  0.3447  0.0253 -0.0494
  741MOL0     C 2170   9.051   8.541   6.362 -0.3524  0.2388 -0.1284
  741MOL0     N 2171   9.659   8.332   6.542 -0.3190  0.0707 -0.4872
  741MOL0     N 2172   9.765   8.270   6.555 -0.0237 -0.1326  0.7973
  741MOL0     C 2173  10.523   9.097   7.062 -0.8483 -0.1601 -0.2824
  741MOL0     C 2174  10.522   9.231   7.113  0.3129 -0.8437  0.8453
  741MOL0     C 2175  10.486   9.564   7.422 -0.0245  0.8538  0.1222
  741MOL0     C 2176  10.537   9.590   7.546 -0.2708  0.2882  0.3589
  741MOL0     C 2177  10.532   9.708   7.607  0.1486  0.3959 -0.2791
  741MOL0     C 2178  10.470   9.812   7.553  0.0561 -0.0010 -0.2132
  741MOL0     O 2179  10.479   9.934   7.615 -0.5437 -0.0804 -0.0260
  741MOL0     C 2180  10.371  10.022   7.604 -1.2816 -0.0436 -0.4645
  741MOL0     C 2181  10.347  10.069   7.748 -0.6987 -0.1390 -0.3855
  741MOL0     C 2182  10.220  10.156   7.752  0.4884 -0.4810  0.0162
  741MOL0     C 2183  10.129  10.131   7.874 -0.8385  1.0635 -0.9129
  741MOL0     C 2184  10.030  10.234   7.879  0.1278 -0.1352 -0.6750
  741MOL0     C 2185   9.938  10.316   7.883 -1.0468  0.1732  0.6577
  741MOL0     C 2186  10.401   9.791   7.428 -0.4116 -0.3093  0.0114
  741MOL0     C 2187  10.422   9.678   7.357  1.0613  0.4160 -0.2642
  741MOL0     C 2188  10.365   9.674   7.218  0.0648 -1.0336 -0.2786
  741MOL0     H 2189  10.266   9.195   7.333  0.5735 -1.0330  0.7140
  741MOL0     H 2190  10.253   8.972   7.230 -0.7378  1.1434 -0.2909
  741MOL0     H 2191  10.238   8.836   7.016 -0.4540  1.9072  0.5944
  741MOL0     H 2192  10.304   8.748   7.152  0.3124 -3.1738 -2.0827
  741MOL0     H 2193  10.410   8.703   6.869  3.0988  0.0846  2.5301
  741MOL0     H 2194  10.434   8.599   7.005 -2.3870 -3.0964 -0.1813
  741MOL0     H 2195  10.179   8.575   7.016 -1.7543 -1.4438 -1.7324
  741MOL0     H 2196  10.178   8.617   6.848  0.8803 -2.0236 -2.0045
  741MOL0     H 2197  10.379   8.459   6.827  3.2141 -2.0008  2.8975
  741MOL0     H 2198  10.322   8.386   6.984 -0.3173  1.3941 -0.4944
  741MOL0     H 2199  10.135   8.316   6.909 -0.2859  2.4588 -0.4542
  741MOL0     H 2200  10.253   8.249   6.797 -0.4458  0.4848  1.3711
  741MOL0     H 2201  10.026   8.437   6.743 -0.1850  1.2313 -1.6718
  741MOL0     H 2202  10.177   8.462   6.657  0.5363  0.5317  1.3523
  741MOL0     H 2203  10.037   8.205   6.694 -1.5188  1.3106  0.0515
  741MOL0     H 2204  10.184   8.234   6.595 -0.7594 -0.4913 -0.4192
  741MOL0     H 2205  10.042   8.346   6.409 -0.0653  3.5893  0.8166
  741MOL0     H 2206   9.984   8.193   6.448  6.7656 -1.7456 -0.5842
  741MOL0     H 2207   9.889   8.560   6.481  0.0375 -1.8345 -0.6450
  741MOL0     H 2208   9.562   8.525   6.376  5.6412  0.1229 -0.3606
  741MOL0     H 2209   9.620   8.658   6.477 -0.6411  0.7689 -0.5826
  741MOL0     H 2210   9.420   8.434   6.511  0.9280 -0.4405  1.0979
  741MOL0     H 2211   9.471   8.506   6.653 -0.5430 -2.7900 -0.2951
  741MOL0     H 2212   9.385   8.727   6.570  0.4814 -0.3496  1.5369
  741MOL0     H 2213   9.331   8.663   6.419 -1.3592  2.5095 -0.0095
  741MOL0     H 2214   9.251   8.600   6.711  4.8469  3.8765 -0.6188
  741MOL0     H 2215   9.133   8.672   6.589 -0.4308 -1.4156 -0.0678
  741MOL0     H 2216   9.044   8.260   6.539 -0.5970  3.3893  3.2323
  741MOL0     H 2217   8.961   8.089   6.412 -1.1306 -1.4952 -0.8607
  741MOL0     H 2218   8.855   8.104   6.277 -2.5503 -1.2208  1.5074
  741MOL0     H 2219   8.788   8.148   6.434 -0.7620  2.3656 -0.7054
  741MOL0     H 2220   8.473   8.397   6.233  0.1164  1.0040 -0.3795
  741MOL0     H 2221   8.263   8.367   6.131  0.1631 -0.5026  0.9358
  741MOL0     H 2222   8.112   8.404   5.951  0.0355 -0.0505 -2.3878
  741MOL0     H 2223   8.026   8.307   5.833  1.6379  0.5283 -1.3090
  741MOL0     H 2224   8.069   8.231   6.127  1.3110 -0.0957 -0.5623
  741MOL0     H 2225   7.929   8.280   6.031  0.9865  0.3468  0.5430
  741MOL0     H 2226   8.072   8.012   6.047  0.9777  2.0423  0.5239
  741MOL0     H 2227   8.018   8.056   5.886  1.0848  2.0607  0.2585
  741MOL0     H 2228   7.823   7.955   5.970  0.5507 -1.5278  2.1998
  741MOL0     H 2229   7.792   8.129   5.989 -0.7356  0.4252 -0.3245
  741MOL0     H 2230   7.844   7.933   6.219  0.5643  1.0469  0.3934
  741MOL0     H 2231   7.862   8.108   6.234  0.4143  0.3455 -1.7003
  741MOL0     H 2232   7.615   7.985   6.115  0.1628  0.5776 -0.6478
  741MOL0     H 2233   7.650   8.146   6.167  0.3179  0.1103 -0.8521
  741MOL0     H 2234   7.575   8.084   6.393 -1.4451 -0.6514  0.1834
  741MOL0     H 2235   7.721   7.990   6.391  1.8144  3.1064 -2.8368
  741MOL0     H 2236   7.557   7.857   6.476  0.4273 -0.9972 -0.1803
  741MOL0     H 2237   7.586   7.792   6.313 -0.0055 -1.4644  1.6100
  741MOL0     H 2238   8.451   8.130   5.817 -0.6697 -1.7042  1.0563
  741MOL0     H 2239   8.654   8.137   5.938 -1.5419 -0.7562 -1.0218
  741MOL0     H 2240   8.933   8.572   6.184 -1.0189 -3.9072 -3.0390
  741MOL0     H 2241   9.092   8.641   6.346 -1.7012  0.9448  0.6623
  741MOL0     H 2242  10.601   9.072   6.991  2.5481  0.1341  3.0245
  741MOL0     H 2243  10.591   9.311   7.089 -2.4669  2.3389  2.5685
  741MOL0     H 2244  10.556   9.504   7.611  0.1559  1.5834  2.0174
  741MOL0     H 2245  10.572   9.719   7.707  1.3432 -0.9885 -0.5698
  741MOL0     H 2246  10.397  10.102   7.535 -3.3219 -1.9991 -3.7888
  741MOL0     H 2247  10.279   9.971   7.574 -2.3165  0.8102  1.1289
  741MOL0     H 2248  10.426  10.131   7.792 -0.2753 -0.4988 -0.6311
  741MOL0     H 2249  10.322   9.978   7.803 -1.2187 -0.0653 -0.4961
  741MOL0     H 2250  10.242  10.263   7.752  0.9478 -0.5344 -2.0076
  741MOL0     H 2251  10.162  10.128   7.664 -1.9443  0.2708  1.2907
  741MOL0     H 2252  10.196  10.133   7.961  1.6206  0.5484 -2.6612
  741MOL0     H 2253  10.084  10.032   7.866 -1.5425  1.3719 -0.8234
  741MOL0     H 2254   9.861  10.387   7.860  1.4321  2.3461 -1.5974
  741MOL0     H 2255  10.345   9.869   7.378 -2.2419 -3.3300 -3.0778
  741MOL0     H 2256  10.284   9.603   7.198  0.2529 -1.4214  0.3260
  741MOL0     H 2257  10.326   9.774   7.198 -2.4209 -1.5841  1.3772
  741MOL0     H 2258  10.458   9.659   7.162  1.2577 -2.0292  1.8308
  742MOL0     O 2259   4.798   8.481  11.482 -1.1246 -0.3950  0.8362
  742MOL0     C 2260   4.725   8.422  11.554  0.0563 -0.0361  0.4713
  742MOL0     O 2261   4.599   8.463  11.580 -0.0237 -0.6296  0.0817
  742MOL0     C 2262   4.537   8.538  11.476  0.1474  0.2299 -0.2588
  742MOL0     C 2263   4.564   8.514  11.341  0.6900  0.2499 -0.9054
  742MOL0     C 2264   4.501   8.590  11.243  0.1230 -0.3759 -0.9034
  742MOL0     C 2265   4.409   8.692  11.282  0.3215 -0.5971  1.0592
  742MOL0     O 2266   4.358   8.756  11.168  0.0594  0.5933 -0.8077
  742MOL0     C 2267   4.233   8.830  11.164 -0.2044 -0.8017 -0.2200
  742MOL0     C 2268   4.240   8.921  11.047  0.0089 -0.5034  0.3445
  742MOL0     C 2269   4.120   9.002  11.020 -0.4060  0.4973 -0.9997
  742MOL0     C 2270   4.110   9.035  10.875  0.0606 -0.0072 -0.2758
  742MOL0     C 2271   3.987   9.117  10.836 -0.0755  0.3658  0.6206
  742MOL0     C 2272   3.959   9.104  10.686 -0.0621 -1.0104  0.7383
  742MOL0     C 2273   3.838   9.202  10.659  0.3662 -0.9525  0.1314
  742MOL0     C 2274   3.769   9.170  10.523 -0.2947  0.0120  0.2076
  742MOL0     N 2275   3.659   9.268  10.490  0.1672  0.3523  0.1617
  742MOL0     C 2276   3.672   9.396  10.438 -0.4343 -0.9289 -0.8669
  742MOL0     C 2277   3.542   9.445  10.445  1.3222 -0.1624 -0.6502
  742MOL0     C 2278   3.536   9.590  10.413 -0.1780 -0.4361  0.4997
  742MOL0     C 2279   3.444   9.606  10.288  1.0795  0.0921  0.7565
  742MOL0     C 2280   3.423   9.752  10.243  0.8025 -0.0790  0.8375
  742MOL0     C 2281   3.355   9.836  10.347 -1.0337  0.1337  0.2723
  742MOL0     O 2282   3.364   9.975  10.321  0.4493 -1.0617 -0.4153
  742MOL0     C 2283   3.481  10.038  10.346 -0.1241 -0.0570 -0.8146
  742MOL0     C 2284   3.595   9.988  10.412  0.0133 -0.0194  0.7935
  742MOL0     C 2285   3.707  10.062  10.432 -0.3279 -0.5189 -0.1274
  742MOL0     C 2286   3.831   9.998  10.494 -0.3185 -0.0304  0.0668
  742MOL0     C 2287   3.697  10.199  10.394  0.1620 -0.3717  0.1270
  742MOL0     C 2288   3.820  10.282  10.413  0.3311 -0.4276 -0.0887
  742MOL0     O 2289   3.870  10.336  10.299 -0.2822  0.3146  0.3152
  742MOL0     C 2290   3.987  10.404  10.292 -0.2155  0.4624 -0.0761
  742MOL0     C 2291   4.084  10.437  10.400 -0.3553 -0.3250  1.4564
  742MOL0     C 2292   4.206  10.504  10.362  0.7964 -0.3318  0.2707
  742MOL0     C 2293   4.229  10.567  10.245 -0.1908 -0.6266  0.4197
  742MOL0     O 2294   4.335  10.641  10.196  0.1721  0.8424 -0.4642
  742MOL0     C 2295   4.470  10.636  10.238 -0.2921 -0.2197 -1.1354
  742MOL0     C 2296   4.573  10.713  10.149  0.8097  0.2680 -0.1245
  742MOL0     C 2297   4.581  10.640  10.012  0.3619  0.3902  0.0544
  742MOL0     C 2298   4.662  10.722   9.910 -0.6354  1.2232 -0.9944
  742MOL0     C 2299   4.666  10.658   9.771 -0.5245 -0.8133 -0.7434
  742MOL0     C 2300   4.747  10.723   9.662  0.9322 -0.4652 -0.6026
  742MOL0     C 2301   4.763  10.628   9.536 -1.3015 -0.2925 -0.6038
  742MOL0     C 2302   4.634  10.602   9.459 -0.5005  0.3294 -0.0892
  742MOL0    Cl 2303   4.688  10.449   9.361  0.2753 -0.1341 -0.2223
  742MOL0     C 2304   4.135  10.538  10.147 -0.7115 -0.1429 -0.1137
  742MOL0     C 2305   4.023  10.453  10.170 -0.1901  0.1161 -0.1884
  742MOL0     O 2306   3.857  10.311  10.527  0.0927 -0.4918 -0.4750
  742MOL0     C 2307   3.586  10.257  10.335 -0.3081  0.8182  0.4963
  742MOL0     C 2308   3.479  10.178  10.313  0.1898  0.0922 -0.8358
  742MOL0     N 2309   3.448   9.347  10.492 -0.1970 -0.1411  0.6356
  742MOL0     N 2310   3.521   9.244  10.513 -0.9383  0.5712  0.5372
  742MOL0     C 2311   4.360   8.697  11.420  0.0845 -0.9149 -0.0562
  742MOL0     C 2312   4.436   8.625  11.517  0.0316 -0.4301  0.4894
  742MOL0     C 2313   4.782   8.328  11.655  0.1910  0.2061 -0.5424
  742MOL0     C 2314   4.758   8.353  11.791  0.2353  0.9338 -0.4059
  742MOL0     C 2315   4.811   8.269  11.891 -0.6956 -0.6406  0.0818
  742MOL0     C 2316   4.885   8.151  11.856  0.3351 -0.3161  0.7037
  742MOL0     O 2317   4.942   8.065  11.947  0.4861 -0.6102  0.8576
  742MOL0     C 2318   4.943   8.094  12.090  0.0608  0.4560  0.3108
  742MOL0     C 2319   5.064   8.036  12.150 -0.4446  0.2638  0.1241
  742MOL0     C 2320   5.074   8.089  12.292  1.3609  0.4633  1.2575
  742MOL0     C 2321   5.003   7.982  12.376  0.6849 -0.3491  0.5778
  742MOL0     C 2322   4.996   8.046  12.515  0.2032 -0.6734  0.7267
  742MOL0     C 2323   4.977   8.121  12.611  0.0130  0.6935  0.9124
  742MOL0     C 2324   4.904   8.124  11.724 -0.1492  0.1132 -0.7990
  742MOL0     C 2325   4.854   8.215  11.614 -0.2921  0.4545 -0.8229
  742MOL0     C 2326   4.866   8.170  11.474  0.2595  1.4296  0.3278
  742MOL0     H 2327   4.627   8.430  11.312 -2.5341 -2.8190  0.2475
  742MOL0     H 2328   4.529   8.577  11.139  3.5206 -0.9390 -0.0473
  742MOL0     H 2329   4.214   8.894  11.251  4.0382 -1.3147  1.3496
  742MOL0     H 2330   4.155   8.754  11.158 -0.5163 -0.4605 -0.5017
  742MOL0     H 2331   4.320   8.996  11.052  0.7221 -1.3320  2.8441
  742MOL0     H 2332   4.263   8.859  10.959 -1.0348 -0.7507  0.2360
  742MOL0     H 2333   4.031   8.940  11.036 -0.4336  0.3076 -1.8286
  742MOL0     H 2334   4.117   9.092  11.081  3.9531  2.3372 -3.0680
  742MOL0     H 2335   4.200   9.083  10.837 -0.8915  1.2236 -1.0617
  742MOL0     H 2336   4.088   8.939  10.828  0.4941  0.9147 -2.4746
  742MOL0     H 2337   4.007   9.222  10.861  1.6917  1.2603 -3.5842
  742MOL0     H 2338   3.903   9.075  10.892  1.3556 -1.0224  1.8001
  742MOL0     H 2339   4.048   9.119  10.625 -0.0150 -2.9886  0.2490
  742MOL0     H 2340   3.937   9.000  10.661 -0.5779 -0.6975 -0.1802
  742MOL0     H 2341   3.871   9.306  10.655  3.1847 -1.8011 -1.0348
  742MOL0     H 2342   3.766   9.175  10.737 -1.0175 -3.8322 -1.9644
  742MOL0     H 2343   3.846   9.171  10.444  0.8597  0.8583  1.2960
  742MOL0     H 2344   3.733   9.067  10.522 -1.4576  0.4040  0.7868
  742MOL0     H 2345   3.762   9.449  10.410  1.7750 -3.6161  0.6089
  742MOL0     H 2346   3.635   9.632  10.395 -0.8324  0.5966 -0.9538
  742MOL0     H 2347   3.484   9.652  10.486 -1.9294  0.9024 -1.7164
  742MOL0     H 2348   3.491   9.569  10.196  0.8636  1.2953  0.1501
  742MOL0     H 2349   3.340   9.572  10.291 -1.1073  5.6841 -0.1058
  742MOL0     H 2350   3.517   9.797  10.207  0.8110  0.6026  1.6870
  742MOL0     H 2351   3.340   9.761  10.173 -1.0767 -0.8897  2.8745
  742MOL0     H 2352   3.248   9.814  10.359 -0.8923 -1.3088 -0.9227
  742MOL0     H 2353   3.401   9.819  10.445 -2.8559 -0.6039  1.0616
  742MOL0     H 2354   3.601   9.883  10.436  1.4720 -0.0517  0.3883
  742MOL0     H 2355   3.847  10.047  10.591 -0.8985  1.2140 -0.4541
  742MOL0     H 2356   3.919  10.008  10.429 -1.4794 -0.6180 -1.6541
  742MOL0     H 2357   3.812   9.891  10.501 -2.8265  0.4010  0.6194
  742MOL0     H 2358   4.081  10.395  10.500 -2.8962  0.5489  1.8075
  742MOL0     H 2359   4.273  10.513  10.447 -2.3629 -1.8480  3.1811
  742MOL0     H 2360   4.460  10.677  10.339  0.3981 -4.4372  0.8674
  742MOL0     H 2361   4.506  10.534  10.253 -1.8187 -0.5809  0.4418
  742MOL0     H 2362   4.540  10.816  10.133  1.7270  0.9149  1.8781
  742MOL0     H 2363   4.671  10.709  10.196 -0.3055 -6.3864  2.8082
  742MOL0     H 2364   4.478  10.639   9.974  0.2132  2.2640  0.3208
  742MOL0     H 2365   4.621  10.540  10.028  2.0585  0.8624 -0.9812
  742MOL0     H 2366   4.763  10.712   9.950 -0.5105  2.7602 -0.8734
  742MOL0     H 2367   4.629  10.826   9.904  2.3885  2.2693 -1.4032
  742MOL0     H 2368   4.714  10.560   9.771  1.1783 -0.0746 -2.8814
  742MOL0     H 2369   4.562  10.642   9.743 -0.5064 -0.8414 -0.7987
  742MOL0     H 2370   4.851  10.735   9.696  0.4489 -0.3014  0.9006
  742MOL0     H 2371   4.687  10.813   9.647 -0.4697 -1.0953  0.9316
  742MOL0     H 2372   4.805  10.535   9.576 -2.7456 -0.3494  0.9069
  742MOL0     H 2373   4.842  10.678   9.480 -2.2893  0.8451 -1.0341
  742MOL0     H 2374   4.590  10.682   9.399 -2.8934 -1.3148 -0.6939
  742MOL0     H 2375   4.566  10.551   9.529  1.4974  0.3272  1.9579
  742MOL0     H 2376   4.149  10.589  10.052  0.1826  2.2225  1.1748
  742MOL0     H 2377   3.959  10.419  10.090 -0.6206  1.9164 -0.6485
  742MOL0     H 2378   3.586  10.361  10.303  2.0212  0.9442  0.6965
  742MOL0     H 2379   3.391  10.214  10.261 -2.3016 -1.3395  2.0425
  742MOL0     H 2380   4.273   8.759  11.438  0.5716 -0.3412  0.3696
  742MOL0     H 2381   4.421   8.631  11.625  2.2714 -0.7968  0.8589
  742MOL0     H 2382   4.688   8.432  11.815 -0.5554  0.1177  0.0570
  742MOL0     H 2383   4.786   8.300  11.991 -1.3084  0.2869 -0.3450
  742MOL0     H 2384   4.945   8.203  12.102  1.1768  0.7348 -1.9527
  742MOL0     H 2385   4.846   8.060  12.129  1.1015 -0.8058  1.9406
  742MOL0     H 2386   5.151   8.066  12.090 -1.3264  1.5238 -0.5680
  742MOL0     H 2387   5.072   7.927  12.143  2.3057  0.3433  0.6461
  742MOL0     H 2388   5.178   8.099  12.327  3.0486  2.2673 -3.4234
  742MOL0     H 2389   5.026   8.187  12.303 -1.7630 -1.0138  1.6984
  742MOL0     H 2390   5.058   7.888  12.364  1.5580  0.4694 -3.0418
  742MOL0     H 2391   4.901   7.977  12.336  0.5391  3.8053  0.0198
  742MOL0     H 2392   4.959   8.203  12.679 -1.0583  1.1372  0.1136
  742MOL0     H 2393   4.943   8.028  11.693 -2.0097 -1.0172  0.1782
  742MOL0     H 2394   4.927   8.242  11.419  2.0968  0.0115  0.4136
  742MOL0     H 2395   4.916   8.073  11.481 -3.7362 -1.4344 -4.5494
  742MOL0     H 2396   4.776   8.155  11.415  1.8346 -0.2556 -1.8167
  743MOL0     O 2397  11.320   6.202   5.804 -1.0809  0.2118 -0.4091
  743MOL0     C 2398  11.302   6.100   5.873 -0.7117 -0.0832  0.2271
  743MOL0     O 2399  11.402   6.039   5.943 -0.0946 -0.3485  0.9010
  743MOL0     C 2400  11.526   6.082   5.921 -0.1815 -0.0096 -0.6317
  743MOL0     C 2401  11.571   6.201   5.971 -0.3834 -0.5727  0.3983
  743MOL0     C 2402  11.692   6.250   5.922 -0.8313  1.1851 -0.5368
  743MOL0     C 2403  11.777   6.164   5.844 -0.4531 -0.2560 -0.3688
  743MOL0     O 2404  11.899   6.214   5.808  0.3566 -0.1136  0.0945
  743MOL0     C 2405  12.005   6.118   5.821  0.7735 -1.0469  0.6059
  743MOL0     C 2406  12.132   6.203   5.798 -0.7308 -0.6344  0.4515
  743MOL0     C 2407  12.266   6.119   5.805 -0.1337  0.7661 -1.3633
  743MOL0     C 2408  12.393   6.205   5.805 -0.0154 -0.5909 -0.0113
  743MOL0     C 2409  12.531   6.147   5.815  0.5770  0.3572 -0.3548
  743MOL0     C 2410  12.639   6.254   5.788 -0.1054 -0.0166 -0.0022
  743MOL0     C 2411  12.657   6.349   5.904 -0.0056 -0.6109  0.0154
  743MOL0     C 2412  12.757   6.451   5.860 -1.3883  0.0115 -1.3471
  743MOL0     N 2413  12.800   6.539   5.970  0.0054 -0.1159  0.4012
  743MOL0     C 2414  12.921   6.601   5.992  0.6932  0.9642 -0.2669
  743MOL0     C 2415  12.916   6.650   6.122 -0.2822  0.1313  1.2329
  743MOL0     C 2416  13.041   6.698   6.202  0.6687  1.0908 -1.0205
  743MOL0     C 2417  13.070   6.856   6.179 -0.7141 -0.5376  0.5858
  743MOL0     C 2418  13.209   6.895   6.228 -0.6185 -0.5984 -0.1078
  743MOL0     C 2419  13.320   6.825   6.145  0.2859 -0.2842  0.0818
  743MOL0     O 2420  13.363   6.710   6.219 -0.5270  0.4377 -0.6662
  743MOL0     C 2421  13.466   6.644   6.155  1.1115  0.1142  0.5453
  743MOL0     C 2422  13.521   6.695   6.025  0.4952  0.1923 -0.1155
  743MOL0     C 2423  13.620   6.622   5.960 -1.0674  0.3201 -0.4595
  743MOL0     C 2424  13.660   6.681   5.834  0.6070  0.8682  0.7023
  743MOL0     C 2425  13.667   6.497   6.019  0.0907 -0.9756 -0.3158
  743MOL0     C 2426  13.788   6.429   5.962  1.0507  0.2116 -0.1977
  743MOL0     O 2427  13.855   6.484   5.859  0.0903  0.2497  0.2989
  743MOL0     C 2428  13.958   6.436   5.797 -0.3053  0.7025 -0.7508
  743MOL0     C 2429  14.056   6.350   5.848 -0.4625 -0.4740  0.5617
  743MOL0     C 2430  14.174   6.320   5.778  0.4245 -0.1185  1.3518
  743MOL0     C 2431  14.200   6.379   5.654  0.2630 -0.2325  0.6899
  743MOL0     O 2432  14.316   6.334   5.595  0.5027 -0.3627 -0.2478
  743MOL0     C 2433  14.346   6.401   5.474 -0.1617  0.0002 -0.2926
  743MOL0     C 2434  14.487   6.377   5.445  0.1528  0.1359 -0.7036
  743MOL0     C 2435  14.525   6.222   5.439  0.0462  0.4446  0.1063
  743MOL0     C 2436  14.470   6.139   5.322  0.4374 -0.5049  0.6537
  743MOL0     C 2437  14.469   5.995   5.359  0.3681  0.7641 -0.2980
  743MOL0     C 2438  14.603   5.938   5.408  0.4848  0.0763 -0.8393
  743MOL0     C 2439  14.611   5.787   5.426  0.0865 -0.2464  0.2571
  743MOL0     C 2440  14.555   5.724   5.555  0.0151 -0.0527 -0.1443
  743MOL0    Cl 2441  14.431   5.821   5.624  0.1735 -0.2489 -0.0431
  743MOL0     C 2442  14.099   6.458   5.597  0.2031  0.0681  0.7702
  743MOL0     C 2443  13.979   6.483   5.668 -0.3504  0.1301 -0.3744
  743MOL0     O 2444  13.803   6.315   6.014  0.0187 -0.9744 -0.0835
  743MOL0     C 2445  13.612   6.447   6.142 -0.0191 -0.2377 -0.2557
  743MOL0     C 2446  13.509   6.522   6.201  0.4816  0.5004  0.0675
  743MOL0     N 2447  12.791   6.637   6.167  0.1598  0.4055 -0.2528
  743MOL0     N 2448  12.723   6.571   6.068  0.6043 -0.9183 -1.1195
  743MOL0     C 2449  11.726   6.046   5.792  0.5799  0.9803 -0.6009
  743MOL0     C 2450  11.600   6.004   5.843  0.8133  0.2979  0.0184
  743MOL0     C 2451  11.173   6.038   5.893  0.1349  0.2900 -0.1671
  743MOL0     C 2452  11.065   6.127   5.892  0.2131  0.2465 -1.0976
  743MOL0     C 2453  10.934   6.071   5.896 -0.2590 -0.4451  0.4473
  743MOL0     C 2454  10.907   5.936   5.900 -0.4241 -0.6737 -0.1899
  743MOL0     O 2455  10.787   5.870   5.914 -0.3159 -0.0416  0.2650
  743MOL0     C 2456  10.665   5.952   5.916 -0.9534 -0.0522  0.0368
  743MOL0     C 2457  10.558   5.857   5.981  0.3007  0.2889 -0.0433
  743MOL0     C 2458  10.446   5.953   6.038 -0.1454 -0.1452 -0.8363
  743MOL0     C 2459  10.363   5.891   6.151 -0.6268  0.3441 -0.0293
  743MOL0     C 2460  10.442   5.867   6.273  0.4371 -0.3297  0.3829
  743MOL0     C 2461  10.501   5.861   6.381  0.1974  0.1135  0.9440
  743MOL0     C 2462  11.017   5.857   5.901 -0.0827  0.3365  0.7499
  743MOL0     C 2463  11.149   5.899   5.903 -0.1894  0.5403  0.3064
  743MOL0     C 2464  11.251   5.785   5.890 -0.3481 -0.3605  0.2367
  743MOL0     H 2465  11.510   6.256   6.042  1.1201  0.5839  0.8375
  743MOL0     H 2466  11.725   6.349   5.950 -2.1583  0.9791  2.0986
  743MOL0     H 2467  12.002   6.036   5.749  0.6954 -1.4325  1.0426
  743MOL0     H 2468  12.004   6.079   5.923  2.0080  1.5683  1.7315
  743MOL0     H 2469  12.133   6.253   5.701 -2.8874 -0.1098  0.6400
  743MOL0     H 2470  12.140   6.291   5.863  0.7981 -0.4097 -0.0022
  743MOL0     H 2471  12.261   6.049   5.889  1.1027  1.1508 -0.9467
  743MOL0     H 2472  12.267   6.051   5.719 -0.7279  0.5284 -1.1854
  743MOL0     H 2473  12.394   6.256   5.708  1.3244  0.6021  0.5899
  743MOL0     H 2474  12.377   6.274   5.889 -0.5319  0.2313 -0.7730
  743MOL0     H 2475  12.531   6.071   5.736 -4.2413  4.3944 -5.0141
  743MOL0     H 2476  12.548   6.104   5.914  2.1001  1.9079  0.0957
  743MOL0     H 2477  12.735   6.202   5.787  0.4453  0.9707  0.3885
  743MOL0     H 2478  12.626   6.306   5.693 -0.0693  2.4923  1.2855
  743MOL0     H 2479  12.685   6.294   5.994  1.1344  0.2430  0.1967
  743MOL0     H 2480  12.555   6.386   5.922  0.0316 -1.6239  2.6807
  743MOL0     H 2481  12.847   6.403   5.821  0.2325  0.9134  1.0474
  743MOL0     H 2482  12.716   6.516   5.783  0.8752  0.7752 -1.9711
  743MOL0     H 2483  13.013   6.603   5.936  0.2623  2.2476 -0.9886
  743MOL0     H 2484  13.126   6.641   6.164 -0.2553  0.5893 -2.3850
  743MOL0     H 2485  13.021   6.676   6.308 -1.9983 -1.0360 -1.8568
  743MOL0     H 2486  13.064   6.884   6.074 -0.0770  0.7671  0.8773
  743MOL0     H 2487  12.997   6.913   6.238 -2.1522  0.1779 -1.7849
  743MOL0     H 2488  13.222   7.002   6.210  0.1570 -0.9131 -1.5381
  743MOL0     H 2489  13.228   6.863   6.331 -0.8278 -0.5064 -0.0399
  743MOL0     H 2490  13.287   6.803   6.043 -1.4179  0.4113  0.4561
  743MOL0     H 2491  13.398   6.902   6.142  0.9326 -0.6524  3.7051
  743MOL0     H 2492  13.496   6.789   5.977 -0.7105 -0.5775 -1.0583
  743MOL0     H 2493  13.676   6.613   5.750 -3.4302 -0.6736  0.9541
  743MOL0     H 2494  13.759   6.724   5.847  0.3591  0.9634  2.4264
  743MOL0     H 2495  13.592   6.753   5.786  0.5236  1.0907  1.1481
  743MOL0     H 2496  14.062   6.305   5.947  2.9634  1.2634  1.3177
  743MOL0     H 2497  14.246   6.243   5.804  0.5971 -0.5439 -0.3063
  743MOL0     H 2498  14.283   6.364   5.393  2.3676 -0.5178 -2.1232
  743MOL0     H 2499  14.333   6.509   5.492  2.9962  0.4323  0.0250
  743MOL0     H 2500  14.509   6.427   5.350  0.5315  0.3603 -0.4995
  743MOL0     H 2501  14.540   6.440   5.517  0.5047  0.0431 -0.8766
  743MOL0     H 2502  14.494   6.174   5.532 -2.1611  2.5022  0.5178
  743MOL0     H 2503  14.634   6.217   5.431  0.0735 -0.0314  0.6750
  743MOL0     H 2504  14.535   6.143   5.235  1.5608  3.9021  1.4582
  743MOL0     H 2505  14.365   6.159   5.299  0.4590 -1.7549 -0.6345
  743MOL0     H 2506  14.397   5.983   5.441 -0.2438  0.5193 -0.8577
  743MOL0     H 2507  14.416   5.940   5.281  1.3138  0.5849 -0.8265
  743MOL0     H 2508  14.631   5.982   5.504  0.3452  0.8890 -1.1647
  743MOL0     H 2509  14.679   5.979   5.342 -0.9309  1.1459 -1.8773
  743MOL0     H 2510  14.714   5.755   5.408  0.2793  0.2373  0.4600
  743MOL0     H 2511  14.549   5.748   5.345  0.1750  2.4968 -1.2475
  743MOL0     H 2512  14.623   5.709   5.639 -2.9431  2.0861  2.9284
  743MOL0     H 2513  14.514   5.624   5.535 -0.5031 -0.2488  1.7193
  743MOL0     H 2514  14.102   6.506   5.500  0.2745  0.6280  1.0471
  743MOL0     H 2515  13.908   6.547   5.617 -3.6613 -2.6977  0.3360
  743MOL0     H 2516  13.637   6.351   6.187 -2.2224 -0.9865 -0.5096
  743MOL0     H 2517  13.468   6.484   6.294  2.8661  1.6591  1.6665
  743MOL0     H 2518  11.789   5.979   5.734  0.2764  1.9207 -2.0814
  743MOL0     H 2519  11.545   5.916   5.811 -0.0996  0.7616  0.2673
  743MOL0     H 2520  11.092   6.232   5.895  3.1619 -0.4693  1.0921
  743MOL0     H 2521  10.846   6.135   5.892 -1.9679 -2.5262 -5.3843
  743MOL0     H 2522  10.677   6.044   5.973 -4.7875  1.0892 -0.7631
  743MOL0     H 2523  10.630   5.965   5.813 -1.4338 -0.7043  0.1128
  743MOL0     H 2524  10.614   5.813   6.063  1.6996  0.6392 -0.7869
  743MOL0     H 2525  10.514   5.789   5.907  0.5840  3.7695 -3.8314
  743MOL0     H 2526  10.495   6.032   6.096  1.1529 -1.8784  0.5368
  743MOL0     H 2527  10.381   5.991   5.959 -0.0681  1.1727 -0.2931
  743MOL0     H 2528  10.326   5.793   6.117 -0.5828  0.3495 -0.0927
  743MOL0     H 2529  10.283   5.962   6.176 -1.2393  0.1538 -1.3402
  743MOL0     H 2530  10.530   5.843   6.482 -2.0796  1.7087  1.9570
  743MOL0     H 2531  10.984   5.754   5.907 -0.7053  0.5151  0.4961
  743MOL0     H 2532  11.207   5.685   5.902  1.9193 -1.4358  0.2158
  743MOL0     H 2533  11.302   5.789   5.793  1.4800  2.7827  1.1674
  743MOL0     H 2534  11.325   5.782   5.971  0.7708  1.7207 -0.6210
  744MOL0     O 2535   8.855  10.955   3.318 -0.6312  0.1728  0.1507
  744MOL0     C 2536   8.924  10.944   3.212  0.2302 -0.3165 -0.4793
  744MOL0     O 2537   8.992  10.833   3.177 -0.2819  0.0575  0.8542
  744MOL0     C 2538   8.969  10.719   3.246 -0.0584 -0.0106 -0.6531
  744MOL0     C 2539   9.075  10.679   3.325 -1.0384  0.7349 -0.3806
  744MOL0     C 2540   9.061  10.556   3.396  0.1856 -0.4909  0.4537
  744MOL0     C 2541   8.941  10.487   3.407 -0.1250 -0.7714  0.5253
  744MOL0     O 2542   8.927  10.377   3.494  0.0696 -0.1899 -0.0311
  744MOL0     C 2543   8.815  10.299   3.492  0.3203  0.5897  0.0485
  744MOL0     C 2544   8.863  10.161   3.535  0.2515 -0.0656  0.0873
  744MOL0     C 2545   8.920  10.151   3.683  0.7374  0.1964  0.5518
  744MOL0     C 2546   9.015  10.044   3.683  0.1747 -0.5128  0.0277
  744MOL0     C 2547   9.060  10.029   3.834 -0.1655 -0.3519 -0.2906
  744MOL0     C 2548   8.993   9.907   3.888 -0.1458  0.2168 -0.2765
  744MOL0     C 2549   9.073   9.850   4.004  0.1322  0.1763 -0.1548
  744MOL0     C 2550   9.034   9.706   4.041 -0.3130 -0.7045  0.2312
  744MOL0     N 2551   8.898   9.692   4.103  1.4388  0.0294  0.1615
  744MOL0     C 2552   8.794   9.611   4.048 -0.7702  0.3229  0.2506
  744MOL0     C 2553   8.686   9.656   4.114  0.6142 -0.1239  0.1241
  744MOL0     C 2554   8.545   9.590   4.102 -0.2044  0.7003 -0.1489
  744MOL0     C 2555   8.478   9.624   3.975  0.3054 -0.0784 -0.7304
  744MOL0     C 2556   8.428   9.770   3.958  1.0367 -0.5599  0.2408
  744MOL0     C 2557   8.296   9.808   4.021  0.5886 -0.7915 -0.8590
  744MOL0     O 2558   8.188   9.756   3.947  0.6890 -0.0503 -0.1700
  744MOL0     C 2559   8.083   9.710   4.001 -0.2872 -0.1560 -1.2189
  744MOL0     C 2560   8.075   9.573   4.025  0.3900 -1.0028  0.2953
  744MOL0     C 2561   7.979   9.526   4.119  0.8197 -0.3929  0.3755
  744MOL0     C 2562   7.979   9.382   4.175  0.5544 -0.7480  0.6014
  744MOL0     C 2563   7.881   9.613   4.179  0.6226 -0.1497  0.5506
  744MOL0     C 2564   7.776   9.576   4.275  0.0388 -0.4071 -0.6271
  744MOL0     O 2565   7.669   9.652   4.257  0.8761 -1.1011 -0.6468
  744MOL0     C 2566   7.555   9.636   4.335  0.2369  0.5355 -1.3799
  744MOL0     C 2567   7.503   9.516   4.384 -0.4292  0.4020 -0.0915
  744MOL0     C 2568   7.389   9.513   4.466  0.2895  0.1748  0.4470
  744MOL0     C 2569   7.316   9.629   4.489 -0.1573  0.7878  0.0489
  744MOL0     O 2570   7.197   9.629   4.570 -0.4428  0.0322 -0.0252
  744MOL0     C 2571   7.205   9.545   4.689  0.9698  0.0739  0.0606
  744MOL0     C 2572   7.108   9.581   4.803 -0.0961  0.8662  0.6499
  744MOL0     C 2573   7.095   9.473   4.913  0.4035  0.0651  0.3915
  744MOL0     C 2574   7.225   9.439   4.984 -0.3482 -0.2086 -0.0338
  744MOL0     C 2575   7.222   9.363   5.111 -0.5093  0.7510  0.7814
  744MOL0     C 2576   7.362   9.307   5.143 -0.2444  1.1203 -1.2001
  744MOL0     C 2577   7.367   9.218   5.275 -1.0427  1.1818  0.0736
  744MOL0     C 2578   7.478   9.113   5.291 -0.5365  0.4165 -0.6469
  744MOL0    Cl 2579   7.630   9.189   5.363  0.3213  0.0722  0.1647
  744MOL0     C 2580   7.356   9.741   4.428  1.1207 -0.4537 -0.4235
  744MOL0     C 2581   7.474   9.747   4.356  0.3435  0.2804  0.0278
  744MOL0     O 2582   7.798   9.511   4.372  0.1613  0.0916  0.0223
  744MOL0     C 2583   7.898   9.753   4.149  0.0269  0.3490  0.4657
  744MOL0     C 2584   8.001   9.801   4.069  0.2637 -0.2607 -0.3711
  744MOL0     N 2585   8.717   9.767   4.189  0.1212 -0.4039 -0.3171
  744MOL0     N 2586   8.844   9.786   4.179 -0.1310  0.1330 -0.4295
  744MOL0     C 2587   8.828  10.544   3.344 -0.6270  0.2572  0.6524
  744MOL0     C 2588   8.846  10.652   3.261  0.4742 -0.4407  0.1654
  744MOL0     C 2589   8.869  11.022   3.100 -0.7591  0.1289 -0.3972
  744MOL0     C 2590   8.850  10.955   2.976 -0.7527  0.5968 -0.7767
  744MOL0     C 2591   8.811  11.026   2.866  0.3262  0.4595 -0.1505
  744MOL0     C 2592   8.789  11.166   2.874  1.0773  0.2760  0.0059
  744MOL0     O 2593   8.750  11.226   2.760 -0.3500  0.2720  0.0300
  744MOL0     C 2594   8.639  11.310   2.772 -0.7083 -0.2095  0.1600
  744MOL0     C 2595   8.552  11.325   2.646  0.4246 -0.5367 -0.5556
  744MOL0     C 2596   8.499  11.188   2.607  0.9414  0.1438 -0.1354
  744MOL0     C 2597   8.402  11.123   2.708 -0.8164  0.4006 -1.0169
  744MOL0     C 2598   8.392  10.978   2.685 -0.0926  0.9720  0.3263
  744MOL0     C 2599   8.391  10.858   2.666  0.2158  0.4181  1.0427
  744MOL0     C 2600   8.812  11.232   2.994  0.7133 -1.1808 -0.9137
  744MOL0     C 2601   8.855  11.159   3.100 -1.0686  0.4073 -0.0788
  744MOL0     C 2602   8.913  11.246   3.213  0.5973  0.7432  0.6002
  744MOL0     H 2603   9.171  10.727   3.310  1.1486 -2.4420  2.0206
  744MOL0     H 2604   9.158  10.530   3.438  1.2605  0.5130 -1.2713
  744MOL0     H 2605   8.778  10.297   3.389  2.2797  2.8014 -0.7736
  744MOL0     H 2606   8.733  10.338   3.553  1.0170  2.9887 -0.4350
  744MOL0     H 2607   8.779  10.092   3.528  0.3076  0.0207 -2.1393
  744MOL0     H 2608   8.948  10.131   3.472  0.4905 -1.5836  1.0649
  744MOL0     H 2609   8.961  10.249   3.710 -2.6246  2.3359 -1.2972
  744MOL0     H 2610   8.838  10.123   3.750 -2.2282 -0.4563 -3.0319
  744MOL0     H 2611   8.995   9.951   3.629  1.8600 -1.2733  0.6461
  744MOL0     H 2612   9.097  10.087   3.626 -0.4567 -0.5119 -0.8991
  744MOL0     H 2613   9.030  10.113   3.898 -0.1304 -1.2828  0.9692
  744MOL0     H 2614   9.166  10.011   3.854 -0.6895  0.2680  3.9121
  744MOL0     H 2615   8.888   9.925   3.913  0.0256 -1.5015  1.9614
  744MOL0     H 2616   8.979   9.823   3.819 -1.8433  0.3308 -0.0955
  744MOL0     H 2617   9.062   9.916   4.091  2.4238  2.5399 -1.5483
  744MOL0     H 2618   9.176   9.837   3.972  0.5352 -2.1517  1.7927
  744MOL0     H 2619   9.039   9.639   3.955 -1.0309 -0.1165 -0.2793
  744MOL0     H 2620   9.113   9.674   4.109  2.1005  0.6201 -1.8096
  744MOL0     H 2621   8.806   9.520   3.990 -3.3722 -0.6718  1.0879
  744MOL0     H 2622   8.484   9.611   4.190 -1.5789 -1.9327 -0.3729
  744MOL0     H 2623   8.554   9.484   4.125  0.4089  1.0073  1.0877
  744MOL0     H 2624   8.556   9.619   3.898  0.4183 -3.5568 -0.5382
  744MOL0     H 2625   8.406   9.549   3.943  0.3141  0.4154 -1.9578
  744MOL0     H 2626   8.499   9.847   3.990 -0.4905  2.7788 -3.6271
  744MOL0     H 2627   8.433   9.795   3.852  2.5870  2.9529  1.0047
  744MOL0     H 2628   8.297   9.781   4.127  0.5738 -1.3405 -0.9950
  744MOL0     H 2629   8.299   9.917   4.032 -1.0537 -0.8521  0.7464
  744MOL0     H 2630   8.142   9.513   3.964  0.6365  1.7212 -2.3403
  744MOL0     H 2631   8.055   9.320   4.127  1.6965 -0.2466  1.7256
  744MOL0     H 2632   7.887   9.326   4.153  1.5180 -1.1360 -3.3240
  744MOL0     H 2633   8.011   9.374   4.279 -0.7221 -2.6590  0.8991
  744MOL0     H 2634   7.557   9.425   4.406 -2.0260 -0.4037  0.7237
  744MOL0     H 2635   7.370   9.413   4.503  0.2467 -0.1182 -0.3524
  744MOL0     H 2636   7.184   9.442   4.659  1.5143  0.7820 -3.1085
  744MOL0     H 2637   7.306   9.532   4.728  1.1508  0.6007 -0.2297
  744MOL0     H 2638   7.123   9.674   4.858 -3.2728  0.3602  2.6447
  744MOL0     H 2639   7.009   9.592   4.756 -0.1723  1.8254  1.0302
  744MOL0     H 2640   7.052   9.379   4.878  1.1694 -0.7042  1.4522
  744MOL0     H 2641   7.037   9.517   4.995  1.5880 -2.3172  2.6645
  744MOL0     H 2642   7.269   9.533   5.020  0.6989 -0.8208  0.3154
  744MOL0     H 2643   7.285   9.392   4.905  0.8962  1.6208 -0.2545
  744MOL0     H 2644   7.187   9.432   5.188 -0.9246  0.4241  0.8886
  744MOL0     H 2645   7.151   9.281   5.112 -0.1201  0.4100  1.4786
  744MOL0     H 2646   7.437   9.387   5.147 -0.8320  1.7963 -2.8707
  744MOL0     H 2647   7.393   9.229   5.073  3.4946 -0.9877  2.3371
  744MOL0     H 2648   7.272   9.164   5.277  1.0593 -2.9413 -0.5255
  744MOL0     H 2649   7.360   9.275   5.369 -1.6583 -3.1345  2.9235
  744MOL0     H 2650   7.508   9.057   5.202 -0.5745  1.5790 -1.4121
  744MOL0     H 2651   7.451   9.033   5.360  3.6991 -1.8388 -1.2825
  744MOL0     H 2652   7.289   9.825   4.440 -1.9781 -2.3262 -3.1741
  744MOL0     H 2653   7.507   9.840   4.313  0.6505 -0.5253 -1.5551
  744MOL0     H 2654   7.826   9.828   4.176 -3.9789 -1.7563 -3.0874
  744MOL0     H 2655   8.011   9.908   4.054  0.2989 -0.3603 -1.1218
  744MOL0     H 2656   8.729  10.499   3.356 -0.8492  0.4874 -0.2415
  744MOL0     H 2657   8.768  10.691   3.196  1.4328  1.9200  0.3461
  744MOL0     H 2658   8.858  10.847   2.969  0.2694  0.4236  2.0186
  744MOL0     H 2659   8.769  10.972   2.782 -1.5984  1.3069  0.2070
  744MOL0     H 2660   8.574  11.274   2.852 -3.1274  1.6732 -0.8074
  744MOL0     H 2661   8.681  11.409   2.795  0.2952 -0.8072  0.9610
  744MOL0     H 2662   8.611  11.369   2.565  0.9333  1.5257  0.8501
  744MOL0     H 2663   8.472  11.392   2.679  0.7411 -0.8658  0.9719
  744MOL0     H 2664   8.455  11.197   2.507 -1.2379 -1.9668  0.5194
  744MOL0     H 2665   8.584  11.122   2.591  0.7895 -1.0288  3.2358
  744MOL0     H 2666   8.307  11.178   2.700 -0.6455  0.6359 -1.4915
  744MOL0     H 2667   8.446  11.138   2.807  0.8358 -2.9351 -1.0920
  744MOL0     H 2668   8.395  10.753   2.648 -2.2039  0.7803 -2.7529
  744MOL0     H 2669   8.816  11.340   2.993  2.1493 -1.1842  0.3224
  744MOL0     H 2670   8.853  11.230   3.303 -2.1702  1.0834 -1.0782
  744MOL0     H 2671   9.017  11.212   3.225  0.5187  0.0435 -0.5397
  744MOL0     H 2672   8.908  11.354   3.201 -0.3940  0.8489  1.7674
  745MOL0     O 2673   3.229   3.772   0.790 -0.3611 -0.0587  0.6751
  745MOL0     C 2674   3.274   3.687   0.719 -0.1645  0.1405  0.4734
  745MOL0     O 2675   3.206   3.593   0.651 -0.4390  0.2101 -0.1837
  745MOL0     C 2676   3.071   3.581   0.686 -0.0132 -0.2339 -0.8122
  745MOL0     C 2677   2.963   3.657   0.644 -0.8382 -0.0782 -0.1565
  745MOL0     C 2678   2.841   3.634   0.689 -0.0535  0.6664  1.0077
  745MOL0     C 2679   2.806   3.525   0.774 -0.0238  0.2776  0.7804
  745MOL0     O 2680   2.678   3.506   0.818 -0.1169  0.2009 -0.6727
  745MOL0     C 2681   2.570   3.595   0.780  0.0168  0.3259 -0.7523
  745MOL0     C 2682   2.436   3.528   0.810 -1.0116  0.3981  0.7285
  745MOL0     C 2683   2.313   3.627   0.788 -0.0802  0.0520  0.1124
  745MOL0     C 2684   2.248   3.599   0.656  0.2658 -0.9445  0.5437
  745MOL0     C 2685   2.112   3.656   0.629  0.8685  0.2969 -0.3361
  745MOL0     C 2686   2.080   3.797   0.677 -0.2358  0.0777  0.9186
  745MOL0     C 2687   1.937   3.831   0.632  0.1370 -0.6491  0.9637
  745MOL0     C 2688   1.915   3.861   0.478  0.6509  0.5025  0.1513
  745MOL0     N 2689   1.771   3.846   0.433  0.5532 -0.0651 -0.4432
  745MOL0     C 2690   1.680   3.947   0.456  0.3088 -0.1077  0.3565
  745MOL0     C 2691   1.569   3.905   0.395 -0.9427 -0.3854  1.3170
  745MOL0     C 2692   1.439   3.967   0.356 -0.4256  0.9677  0.4684
  745MOL0     C 2693   1.328   3.936   0.462  0.1537  0.5771 -1.6272
  745MOL0     C 2694   1.188   4.004   0.430 -0.1618  0.2892 -0.7408
  745MOL0     C 2695   1.185   4.156   0.405  0.0873 -0.1536  0.0706
  745MOL0     O 2696   1.203   4.222   0.529  0.3333  0.5212 -0.3215
  745MOL0     C 2697   1.252   4.347   0.523 -0.1498  1.6384 -0.0792
  745MOL0     C 2698   1.362   4.367   0.612 -0.6567 -1.0731 -0.7417
  745MOL0     C 2699   1.444   4.474   0.607 -0.0002 -0.4892  0.8424
  745MOL0     C 2700   1.551   4.486   0.708 -1.1173  0.2957  0.3127
  745MOL0     C 2701   1.426   4.569   0.503 -0.1586 -0.5755 -0.3243
  745MOL0     C 2702   1.504   4.704   0.488  1.1580  0.7381 -0.5468
  745MOL0     O 2703   1.412   4.808   0.483 -0.6804 -0.0851  0.3816
  745MOL0     C 2704   1.469   4.931   0.495 -0.8521 -0.1775 -0.1676
  745MOL0     C 2705   1.468   5.018   0.389 -0.5662  0.4585  0.1712
  745MOL0     C 2706   1.527   5.138   0.405 -0.0999  0.3917  0.0132
  745MOL0     C 2707   1.588   5.168   0.526 -0.1465 -0.5314 -0.0579
  745MOL0     O 2708   1.659   5.278   0.529  0.3041 -0.7559 -0.8860
  745MOL0     C 2709   1.734   5.328   0.648 -0.8830 -0.2508  0.3546
  745MOL0     C 2710   1.809   5.457   0.619  0.2895 -0.0739  0.5580
  745MOL0     C 2711   1.727   5.569   0.562 -0.5575 -0.2659  0.0267
  745MOL0     C 2712   1.802   5.706   0.566  0.7533 -0.3605  0.4338
  745MOL0     C 2713   1.717   5.808   0.486  0.2714  1.1738 -1.0443
  745MOL0     C 2714   1.783   5.950   0.499 -0.2208 -0.0480  0.3872
  745MOL0     C 2715   1.931   5.965   0.459 -0.0304  0.0974 -0.9931
  745MOL0     C 2716   1.967   5.930   0.318  1.0509  0.3685  0.1512
  745MOL0    Cl 2717   2.140   5.918   0.303  0.0330  0.2723 -0.3753
  745MOL0     C 2718   1.575   5.083   0.635  0.0979 -0.0091  0.7212
  745MOL0     C 2719   1.517   4.963   0.629  1.1094  0.4964  0.3892
  745MOL0     O 2720   1.621   4.714   0.499  0.1037 -0.5698  0.3630
  745MOL0     C 2721   1.319   4.550   0.412 -0.1331 -0.8184  0.7801
  745MOL0     C 2722   1.224   4.441   0.423  0.2560  0.5483  0.0434
  745MOL0     N 2723   1.596   3.789   0.340 -0.1710  1.4742  0.7260
  745MOL0     N 2724   1.723   3.742   0.363 -0.0151  0.4974 -0.1043
  745MOL0     C 2725   2.905   3.431   0.808  0.6545 -0.2405 -0.1638
  745MOL0     C 2726   3.037   3.467   0.758  0.3823  0.2136  1.2961
  745MOL0     C 2727   3.423   3.652   0.718 -0.6515 -1.2050 -0.1664
  745MOL0     C 2728   3.467   3.526   0.688  0.0607 -0.3366  0.3441
  745MOL0     C 2729   3.599   3.484   0.681 -0.1470  0.2783  1.3681
  745MOL0     C 2730   3.695   3.584   0.696 -0.1998  0.2813 -1.0640
  745MOL0     O 2731   3.832   3.556   0.688  0.0866  0.6818 -0.5195
  745MOL0     C 2732   3.875   3.510   0.558 -1.1350 -0.0267 -0.4692
  745MOL0     C 2733   3.901   3.352   0.542 -0.3833 -0.2614 -0.1583
  745MOL0     C 2734   4.000   3.290   0.653  0.5976 -0.3821  0.1089
  745MOL0     C 2735   3.912   3.240   0.786 -0.5018 -0.9009  0.4344
  745MOL0     C 2736   3.821   3.146   0.736 -0.5209  0.1074 -0.2190
  745MOL0     C 2737   3.751   3.050   0.708  0.1116  0.3671  1.3686
  745MOL0     C 2738   3.653   3.712   0.738 -0.4547  0.4158  0.0462
  745MOL0     C 2739   3.522   3.752   0.752 -0.5843  0.2305  0.8519
  745MOL0     C 2740   3.487   3.892   0.798  0.2555 -0.6776  1.0492
  745MOL0     H 2741   2.992   3.737   0.577  2.1549 -1.3804 -0.5546
  745MOL0     H 2742   2.762   3.701   0.655 -3.1855 -2.7616  0.9669
  745MOL0     H 2743   2.573   3.616   0.672 -0.8288  2.1893 -0.4479
  745MOL0     H 2744   2.567   3.686   0.840 -0.1648 -0.1597 -0.0225
  745MOL0     H 2745   2.420   3.451   0.734  0.0405 -0.4623  1.3585
  745MOL0     H 2746   2.421   3.482   0.908 -2.5119 -1.7410 -0.4183
  745MOL0     H 2747   2.230   3.606   0.857 -1.1023  1.7469 -0.5266
  745MOL0     H 2748   2.346   3.731   0.794 -0.1768  0.0676  0.4042
  745MOL0     H 2749   2.325   3.618   0.580 -0.5562  0.2949 -0.0179
  745MOL0     H 2750   2.240   3.490   0.662 -0.6475 -0.8848  0.4992
  745MOL0     H 2751   2.032   3.590   0.663  0.5491  0.2262 -1.1971
  745MOL0     H 2752   2.107   3.656   0.519  1.3975  0.5189 -0.3642
  745MOL0     H 2753   2.099   3.816   0.783  1.2270  2.7695  0.2485
  745MOL0     H 2754   2.149   3.855   0.615 -0.1148 -2.7759 -1.9125
  745MOL0     H 2755   1.910   3.918   0.693 -2.8044 -1.8419  1.5262
  745MOL0     H 2756   1.878   3.749   0.673  0.7649 -0.9091  1.3640
  745MOL0     H 2757   1.951   3.963   0.462 -0.8203  0.8686 -1.0022
  745MOL0     H 2758   1.976   3.794   0.416  1.5069  0.5215  0.9538
  745MOL0     H 2759   1.701   4.041   0.506 -2.2193 -0.0847  1.5778
  745MOL0     H 2760   1.410   3.936   0.255 -0.7109 -1.1116  1.1546
  745MOL0     H 2761   1.449   4.076   0.352 -1.0506  1.0215  0.2524
  745MOL0     H 2762   1.317   3.828   0.477  0.9078  0.7490  0.5285
  745MOL0     H 2763   1.348   3.977   0.562 -1.1239 -2.1419 -0.1297
  745MOL0     H 2764   1.167   3.962   0.331  3.3626  0.6186 -1.7710
  745MOL0     H 2765   1.107   3.973   0.498  0.9968 -0.5930  0.3016
  745MOL0     H 2766   1.256   4.196   0.332 -0.5761 -0.7030 -0.9175
  745MOL0     H 2767   1.092   4.201   0.371  0.6416  1.5128  0.6944
  745MOL0     H 2768   1.375   4.276   0.670  1.9260  0.1720  0.8149
  745MOL0     H 2769   1.516   4.564   0.777 -0.5158 -0.2015  1.1964
  745MOL0     H 2770   1.653   4.499   0.670 -0.2796 -1.2012  1.9013
  745MOL0     H 2771   1.559   4.397   0.770 -3.2086 -0.7181 -0.7854
  745MOL0     H 2772   1.428   4.997   0.290  2.5720 -0.1521 -1.1151
  745MOL0     H 2773   1.526   5.213   0.326  2.0085 -0.6729 -1.1387
  745MOL0     H 2774   1.668   5.345   0.733  0.0251  1.7614  0.7330
  745MOL0     H 2775   1.803   5.247   0.672  0.1051  0.2602 -0.6361
  745MOL0     H 2776   1.866   5.497   0.703  1.0381 -0.9546  0.4950
  745MOL0     H 2777   1.880   5.432   0.540 -0.3970 -1.8466  0.4514
  745MOL0     H 2778   1.624   5.577   0.597 -0.1257  1.2850  1.0576
  745MOL0     H 2779   1.726   5.552   0.454 -0.0334 -0.6796  0.0841
  745MOL0     H 2780   1.899   5.696   0.517  0.3038  1.4242 -0.9355
  745MOL0     H 2781   1.819   5.752   0.664  1.5465 -1.9071  1.0499
  745MOL0     H 2782   1.732   5.776   0.383  0.8253  1.5957 -1.1007
  745MOL0     H 2783   1.609   5.810   0.506  0.3028  1.9446 -0.9229
  745MOL0     H 2784   1.777   5.980   0.604  3.0010  3.5447 -0.2105
  745MOL0     H 2785   1.729   6.019   0.434  1.2946 -0.1946 -1.1081
  745MOL0     H 2786   1.993   5.908   0.529  2.3278  0.7157 -2.4783
  745MOL0     H 2787   1.957   6.071   0.468 -2.5575  0.6526  0.9688
  745MOL0     H 2788   1.944   6.020   0.258 -0.6122  0.0857  0.3272
  745MOL0     H 2789   1.911   5.847   0.276  2.8605 -0.2828 -1.1354
  745MOL0     H 2790   1.611   5.111   0.733 -0.0904 -1.9582  1.3896
  745MOL0     H 2791   1.513   4.887   0.706  0.5133  0.1536  0.0303
  745MOL0     H 2792   1.300   4.611   0.324  1.1919 -0.8528  0.4413
  745MOL0     H 2793   1.149   4.430   0.346  0.0058  0.3282  0.3199
  745MOL0     H 2794   2.881   3.349   0.874  1.5439  0.6372  1.3038
  745MOL0     H 2795   3.120   3.399   0.774  1.1496 -0.1330 -2.9556
  745MOL0     H 2796   3.408   3.435   0.677  0.9762 -0.7492 -1.7571
  745MOL0     H 2797   3.624   3.379   0.668  1.8827  0.7682  0.9189
  745MOL0     H 2798   3.811   3.541   0.475 -0.7180  2.9553  0.2398
  745MOL0     H 2799   3.974   3.555   0.544 -0.1317 -1.8713  0.3130
  745MOL0     H 2800   3.948   3.342   0.444  1.8755 -1.4020  0.9833
  745MOL0     H 2801   3.805   3.298   0.539 -1.0793  0.8784  0.7081
  745MOL0     H 2802   4.057   3.206   0.610  1.3141 -0.9758  2.1251
  745MOL0     H 2803   4.073   3.366   0.683  2.4134 -2.1622  0.4382
  745MOL0     H 2804   3.859   3.324   0.831  0.2737 -1.1116  1.7967
  745MOL0     H 2805   3.962   3.204   0.877 -2.7664 -1.1389  1.6557
  745MOL0     H 2806   3.685   2.975   0.669 -1.0468  1.7539  0.5764
  745MOL0     H 2807   3.727   3.785   0.769  1.5338 -1.1422 -0.8249
  745MOL0     H 2808   3.579   3.950   0.801  0.0419 -0.1802  5.7763
  745MOL0     H 2809   3.411   3.932   0.730 -0.3759 -2.8443  0.4087
  745MOL0     H 2810   3.441   3.895   0.898  0.1691 -0.0552  0.9948
  746MOL0     O 2811   0.626   8.960   5.681  0.4477  0.3884  0.3232
  746MOL0     C 2812   0.567   9.019   5.766  0.5667  1.1322 -0.2033
  746MOL0     O 2813   0.588   9.146   5.799  0.1932 -0.0426 -0.6160
  746MOL0     C 2814   0.693   9.213   5.740 -0.1041  0.5310  0.2239
  746MOL0     C 2815   0.817   9.166   5.696 -1.5695 -0.7161  0.2702
  746MOL0     C 2816   0.913   9.256   5.641  1.8036 -0.0978 -0.0384
  746MOL0     C 2817   0.886   9.391   5.628  0.4122 -0.5692 -0.4391
  746MOL0     O 2818   0.971   9.486   5.580 -0.2214 -0.0236  0.1039
  746MOL0     C 2819   1.109   9.465   5.543  0.9710 -1.4266  0.0938
  746MOL0     C 2820   1.178   9.583   5.610  0.0542  0.5652 -0.1077
  746MOL0     C 2821   1.145   9.716   5.548 -1.0191  0.2600 -0.0496
  746MOL0     C 2822   1.251   9.818   5.576 -0.5132  0.1198  1.0031
  746MOL0     C 2823   1.229   9.950   5.502  0.1666  0.9171  0.1999
  746MOL0     C 2824   1.367  10.006   5.462 -0.4156 -0.0008 -0.3630
  746MOL0     C 2825   1.477  10.030   5.566  0.5979 -1.0255 -0.9842
  746MOL0     C 2826   1.599  10.109   5.517  0.5347 -0.8860  0.9374
  746MOL0     N 2827   1.567  10.254   5.484 -0.3704 -0.8693 -0.1534
  746MOL0     C 2828   1.533  10.304   5.364 -0.0008 -1.0674  0.0073
  746MOL0     C 2829   1.534  10.435   5.390 -0.2779  0.7037  0.0771
  746MOL0     C 2830   1.506  10.535   5.281 -0.1416  0.2021  1.0027
  746MOL0     C 2831   1.413  10.651   5.325  0.0906 -0.4137  0.4387
  746MOL0     C 2832   1.277  10.639   5.243  0.9914  0.3801  0.0348
  746MOL0     C 2833   1.204  10.516   5.284  0.9162 -0.3641  0.1648
  746MOL0     O 2834   1.148  10.543   5.413  0.2128 -0.7429 -0.2163
  746MOL0     C 2835   1.131  10.438   5.506  0.5774 -1.2329 -0.0924
  746MOL0     C 2836   1.015  10.366   5.509  0.1015  1.2141 -1.0172
  746MOL0     C 2837   0.995  10.274   5.608  0.8297  0.9623  0.5366
  746MOL0     C 2838   0.849  10.227   5.612 -0.4423  0.8382  0.9580
  746MOL0     C 2839   1.090  10.264   5.714  0.4250  0.1135  0.0319
  746MOL0     C 2840   1.078  10.174   5.836 -0.5063  0.6152 -0.6939
  746MOL0     O 2841   1.019  10.048   5.822  0.4858 -0.2379  0.1471
  746MOL0     C 2842   0.970   9.966   5.916 -0.6550 -0.2193  0.4025
  746MOL0     C 2843   0.993   9.970   6.056  0.6751  0.0246  0.4987
  746MOL0     C 2844   0.917   9.883   6.138 -0.2385  0.3851 -0.0787
  746MOL0     C 2845   0.820   9.801   6.086  0.0462 -0.5197  0.4625
  746MOL0     O 2846   0.730   9.729   6.159 -0.0072  0.3526 -0.1654
  746MOL0     C 2847   0.798   9.650   6.262 -0.7336 -0.3131 -0.4708
  746MOL0     C 2848   0.733   9.517   6.282  0.2536 -0.2992 -0.4015
  746MOL0     C 2849   0.738   9.429   6.153 -0.0963 -0.5996 -0.3482
  746MOL0     C 2850   0.645   9.314   6.149 -0.7357 -0.2317  0.1137
  746MOL0     C 2851   0.494   9.348   6.142 -0.5647 -0.2150  0.3707
  746MOL0     C 2852   0.391   9.233   6.105  0.2940 -0.1932  0.5223
  746MOL0     C 2853   0.249   9.286   6.111  0.4650 -0.2648  0.0969
  746MOL0     C 2854   0.147   9.175   6.093 -0.4878  0.8185 -0.2804
  746MOL0    Cl 2855  -0.025   9.233   6.091  0.1844  0.2958 -0.2864
  746MOL0     C 2856   0.802   9.795   5.953  0.2420  0.5346  0.1088
  746MOL0     C 2857   0.883   9.871   5.860 -0.6269  0.3340 -0.8849
  746MOL0     O 2858   1.115  10.229   5.939  0.9124  0.9173 -1.1227
  746MOL0     C 2859   1.214  10.327   5.705  0.3467 -0.4646 -0.0994
  746MOL0     C 2860   1.234  10.414   5.597  0.0254 -0.4945 -0.3196
  746MOL0     N 2861   1.567  10.467   5.518 -0.1954 -0.4771  0.3328
  746MOL0     N 2862   1.594  10.354   5.574 -0.0716 -0.3090 -0.6697
  746MOL0     C 2863   0.751   9.429   5.656 -0.3487 -0.8235  0.3864
  746MOL0     C 2864   0.656   9.344   5.712 -1.0407 -1.4404 -0.6851
  746MOL0     C 2865   0.442   8.951   5.807  0.2637  1.0429  0.8577
  746MOL0     C 2866   0.331   9.028   5.778  0.7803  0.1018 -0.0365
  746MOL0     C 2867   0.202   8.974   5.796  0.9776  1.2738  0.0970
  746MOL0     C 2868   0.182   8.837   5.833  0.5041  0.5586  0.9584
  746MOL0     O 2869   0.062   8.771   5.854  0.1313 -0.1794 -0.3910
  746MOL0     C 2870  -0.064   8.830   5.860 -0.9046  0.3774 -0.1104
  746MOL0     C 2871  -0.093   8.867   6.005 -0.5308 -0.7401  0.0807
  746MOL0     C 2872  -0.234   8.821   6.063  0.3534 -0.4160 -0.1804
  746MOL0     C 2873  -0.258   8.882   6.199  0.1914 -0.4669 -0.0340
  746MOL0     C 2874  -0.293   9.024   6.194  0.5831 -0.3442 -0.0403
  746MOL0     C 2875  -0.320   9.141   6.180  0.0716  0.6016  1.4744
  746MOL0     C 2876   0.295   8.764   5.860  0.0003 -0.0275  0.6368
  746MOL0     C 2877   0.424   8.816   5.859 -0.2524 -0.1005  0.4279
  746MOL0     C 2878   0.529   8.743   5.931 -0.2129 -0.2289  0.4070
  746MOL0     H 2879   0.850   9.064   5.714  2.1394  0.9748  4.9146
  746MOL0     H 2880   1.004   9.200   5.624  3.0480  0.4522  3.7453
  746MOL0     H 2881   1.118   9.461   5.434 -2.4843  3.3667 -0.6559
  746MOL0     H 2882   1.147   9.369   5.579  1.9682 -0.2667  2.3173
  746MOL0     H 2883   1.155   9.599   5.716 -1.5599 -3.1321  0.2321
  746MOL0     H 2884   1.286   9.570   5.624  0.2119  0.8652 -1.0174
  746MOL0     H 2885   1.143   9.705   5.439  3.2181 -1.5081 -0.1347
  746MOL0     H 2886   1.049   9.761   5.576 -0.0952  3.1769 -1.1635
  746MOL0     H 2887   1.251   9.833   5.685 -0.6995 -0.8976  1.1608
  746MOL0     H 2888   1.347   9.777   5.543 -0.9673  0.1545 -0.4072
  746MOL0     H 2889   1.178  10.031   5.554 -0.0999 -0.4598  2.1676
  746MOL0     H 2890   1.172   9.923   5.413  2.7204 -2.3640 -0.6659
  746MOL0     H 2891   1.411   9.934   5.393  2.3245 -1.5241  2.6797
  746MOL0     H 2892   1.345  10.095   5.403 -1.5581 -0.3482 -0.4795
  746MOL0     H 2893   1.508   9.935   5.610  0.1916 -1.1400 -0.9427
  746MOL0     H 2894   1.446  10.099   5.645 -1.4278 -0.1240 -2.4903
  746MOL0     H 2895   1.677  10.115   5.593  2.0085  2.7095 -0.6215
  746MOL0     H 2896   1.639  10.063   5.426 -0.9099  1.8548 -1.2372
  746MOL0     H 2897   1.511  10.257   5.268 -5.0208  2.7586 -1.1902
  746MOL0     H 2898   1.461  10.488   5.194  2.6767 -3.0478  1.0779
  746MOL0     H 2899   1.601  10.579   5.250 -0.7899  0.3662 -0.8412
  746MOL0     H 2900   1.384  10.656   5.430  0.4187  2.6102  0.4853
  746MOL0     H 2901   1.457  10.751   5.318  0.3492 -0.4596  1.2897
  746MOL0     H 2902   1.209  10.724   5.236  0.9418  0.5457  2.0228
  746MOL0     H 2903   1.298  10.627   5.136  1.8360 -1.2294  0.3491
  746MOL0     H 2904   1.129  10.491   5.208  0.5369  1.0403  0.0521
  746MOL0     H 2905   1.275  10.433   5.286  3.0298  1.1485 -3.2902
  746MOL0     H 2906   0.935  10.391   5.441 -0.5258 -0.8857 -1.1352
  746MOL0     H 2907   0.844  10.122   5.644 -4.0350  1.1628  1.8874
  746MOL0     H 2908   0.807  10.227   5.511  0.2109  0.8774  0.6782
  746MOL0     H 2909   0.783  10.296   5.665 -2.1593 -0.4461  0.5671
  746MOL0     H 2910   1.072  10.033   6.095  0.5614  0.0648  0.6682
  746MOL0     H 2911   0.930   9.888   6.246  1.2191  2.8162 -0.2939
  746MOL0     H 2912   0.895   9.620   6.221 -0.9860 -1.7765 -0.0792
  746MOL0     H 2913   0.811   9.695   6.361  1.1364  1.5254 -1.4818
  746MOL0     H 2914   0.774   9.461   6.366 -0.4614 -3.1340 -1.8434
  746MOL0     H 2915   0.631   9.527   6.320  1.0049  2.5582  1.2188
  746MOL0     H 2916   0.840   9.388   6.152  0.1398 -0.2588  2.0190
  746MOL0     H 2917   0.704   9.480   6.063 -2.4333  0.3003  0.9615
  746MOL0     H 2918   0.666   9.249   6.234  1.1401  1.7583  1.2753
  746MOL0     H 2919   0.652   9.250   6.061 -3.5304  2.0440 -1.9880
  746MOL0     H 2920   0.470   9.368   6.247  0.1205 -0.3573  0.5591
  746MOL0     H 2921   0.473   9.434   6.079 -2.8448 -0.3145  0.9245
  746MOL0     H 2922   0.395   9.138   6.158  0.5956 -1.9915 -2.4898
  746MOL0     H 2923   0.422   9.217   6.001  1.3280 -2.0968  1.0939
  746MOL0     H 2924   0.238   9.364   6.035  1.1770 -0.4399 -0.1892
  746MOL0     H 2925   0.233   9.335   6.208  0.2256 -0.9280  0.4017
  746MOL0     H 2926   0.157   9.106   6.177 -1.7114  2.2671  1.1330
  746MOL0     H 2927   0.172   9.107   6.012  0.0187 -1.6449  1.8320
  746MOL0     H 2928   0.721   9.731   5.921  1.4924  0.7771 -4.1443
  746MOL0     H 2929   0.860   9.857   5.754 -0.3160  1.4811 -1.1212
  746MOL0     H 2930   1.294  10.295   5.771 -0.1337 -1.8015 -0.1269
  746MOL0     H 2931   1.331  10.459   5.581 -0.5176  0.1960 -1.8528
  746MOL0     H 2932   0.714   9.530   5.635 -2.1901 -1.4549  0.3804
  746MOL0     H 2933   0.557   9.365   5.749 -1.4553 -3.7718 -0.3302
  746MOL0     H 2934   0.348   9.131   5.750 -0.9482 -0.0625 -1.8756
  746MOL0     H 2935   0.121   9.044   5.781 -0.9835 -1.0873 -0.8641
  746MOL0     H 2936  -0.066   8.915   5.791 -0.9101  1.8784  1.6484
  746MOL0     H 2937  -0.135   8.754   5.827 -1.5389  1.0568 -0.3657
  746MOL0     H 2938  -0.086   8.975   5.990  5.1870 -0.8608 -0.2007
  746MOL0     H 2939  -0.016   8.821   6.068 -3.2298 -4.5149  1.0153
  746MOL0     H 2940  -0.313   8.850   5.993  1.7750 -1.2452 -2.2375
  746MOL0     H 2941  -0.235   8.712   6.068 -3.3934 -0.5724 -0.9583
  746MOL0     H 2942  -0.175   8.866   6.268 -1.0679 -3.0540  0.9905
  746MOL0     H 2943  -0.345   8.825   6.233 -1.0878  0.5639 -1.4428
  746MOL0     H 2944  -0.345   9.245   6.176  3.1649  1.5861  3.7569
  746MOL0     H 2945   0.282   8.661   5.894 -0.5304 -0.0289  0.4420
  746MOL0     H 2946   0.628   8.788   5.922 -0.4683  0.2918  0.2049
  746MOL0     H 2947   0.503   8.715   6.034  0.2916 -0.3253  0.5102
  746MOL0     H 2948   0.544   8.647   5.880 -3.4862 -0.5080 -0.2526
  747MOL0     O 2949   3.223   3.278   7.578  0.8681  0.9152 -0.3482
  747MOL0     C 2950   3.158   3.276   7.476  0.4042 -0.0382  0.2010
  747MOL0     O 2951   3.022   3.272   7.461  0.3460  0.0210  0.1940
  747MOL0     C 2952   2.951   3.263   7.577 -0.0642 -0.7327 -0.5616
  747MOL0     C 2953   2.956   3.366   7.663 -0.8376  0.0129 -0.5737
  747MOL0     C 2954   2.892   3.362   7.782  0.7605 -0.2489  1.0340
  747MOL0     C 2955   2.828   3.243   7.830  0.4591  0.0329 -0.9039
  747MOL0     O 2956   2.763   3.257   7.956  0.7543 -0.9579  0.5945
  747MOL0     C 2957   2.678   3.151   7.987 -1.1747  0.4828  0.3630
  747MOL0     C 2958   2.626   3.159   8.132 -0.6943 -0.4320  0.3362
  747MOL0     C 2959   2.550   3.042   8.190  0.6403 -1.0689  0.8014
  747MOL0     C 2960   2.616   2.909   8.187  0.6207 -0.6321  0.6070
  747MOL0     C 2961   2.526   2.804   8.254 -0.0928 -0.3661 -0.1453
  747MOL0     C 2962   2.565   2.665   8.210  0.2562  0.1929  1.1475
  747MOL0     C 2963   2.440   2.598   8.143  0.6279  0.3359  0.6003
  747MOL0     C 2964   2.366   2.669   8.026  0.5420  0.2224  0.0606
  747MOL0     N 2965   2.450   2.730   7.917 -0.3819 -0.0668 -0.1676
  747MOL0     C 2966   2.542   2.656   7.849 -0.6454  1.1819  0.8676
  747MOL0     C 2967   2.613   2.750   7.783 -0.0022  0.6375  0.4590
  747MOL0     C 2968   2.739   2.731   7.704  0.3797 -0.0137  0.2538
  747MOL0     C 2969   2.854   2.721   7.786 -0.5298 -0.3241  0.9131
  747MOL0     C 2970   2.977   2.743   7.707 -0.1229 -0.3235  1.0640
  747MOL0     C 2971   3.100   2.688   7.785  0.0343  0.8559 -0.2187
  747MOL0     O 2972   3.097   2.544   7.819 -0.2510 -0.5030  0.0479
  747MOL0     C 2973   3.227   2.505   7.838  1.0436 -0.3460 -0.9036
  747MOL0     C 2974   3.309   2.551   7.941 -0.6524 -0.6995  0.3937
  747MOL0     C 2975   3.440   2.508   7.954 -1.0026 -0.6142 -0.2535
  747MOL0     C 2976   3.523   2.546   8.070 -0.9131 -0.0636 -1.2324
  747MOL0     C 2977   3.487   2.401   7.870  0.2353 -0.3425 -0.5124
  747MOL0     C 2978   3.633   2.365   7.857  0.1475 -0.5215 -0.5061
  747MOL0     O 2979   3.724   2.460   7.897  0.0184  1.7449 -0.2356
  747MOL0     C 2980   3.863   2.447   7.887  0.0761  0.7128  0.5579
  747MOL0     C 2981   3.939   2.335   7.867 -0.5836  0.2695 -1.5720
  747MOL0     C 2982   4.084   2.344   7.852 -0.6818  0.1762  0.2124
  747MOL0     C 2983   4.139   2.468   7.828  0.6777  0.1560  0.7643
  747MOL0     O 2984   4.265   2.493   7.786 -0.2835  0.5289 -0.5544
  747MOL0     C 2985   4.274   2.515   7.644 -0.5775  0.5206 -1.1595
  747MOL0     C 2986   4.406   2.579   7.599  0.4818 -0.9098  0.3843
  747MOL0     C 2987   4.450   2.700   7.685 -0.6138 -0.4379  0.7580
  747MOL0     C 2988   4.370   2.830   7.652 -0.2627  0.8629  0.4067
  747MOL0     C 2989   4.416   2.937   7.756 -0.0946  0.0247 -0.0994
  747MOL0     C 2990   4.373   3.080   7.731  0.0419 -1.1849 -0.1065
  747MOL0     C 2991   4.415   3.177   7.837 -0.4642  0.0847  0.3724
  747MOL0     C 2992   4.378   3.319   7.799  0.3074 -0.5714  0.0147
  747MOL0    Cl 2993   4.439   3.423   7.943 -0.2802  0.2124 -0.2115
  747MOL0     C 2994   4.059   2.585   7.834  1.3303  0.4009 -0.1590
  747MOL0     C 2995   3.924   2.577   7.872 -0.1405  0.0954 -0.2174
  747MOL0     O 2996   3.658   2.256   7.807 -0.2029  0.9014 -0.4759
  747MOL0     C 2997   3.396   2.354   7.774  0.0552  0.3345  1.0501
  747MOL0     C 2998   3.266   2.402   7.756 -0.2602 -0.7782  0.4298
  747MOL0     N 2999   2.554   2.869   7.805  0.0463 -0.0694 -0.5661
  747MOL0     N 3000   2.458   2.858   7.893 -0.5948 -0.1897  0.4972
  747MOL0     C 3001   2.830   3.134   7.744 -0.0500  0.5377 -0.2939
  747MOL0     C 3002   2.888   3.144   7.617 -0.5712  0.1054  0.2473
  747MOL0     C 3003   3.227   3.303   7.353 -1.2525 -0.4985  0.1458
  747MOL0     C 3004   3.317   3.411   7.347 -0.5771  0.8844 -0.7880
  747MOL0     C 3005   3.370   3.454   7.230 -0.4745  0.3641 -0.3626
  747MOL0     C 3006   3.337   3.387   7.110  0.1301  0.3978  0.2474
  747MOL0     O 3007   3.395   3.417   6.994  0.7112 -0.3393  0.5109
  747MOL0     C 3008   3.484   3.527   6.968 -0.0070 -0.2607 -0.8222
  747MOL0     C 3009   3.556   3.530   6.833  0.7393  0.3082 -1.0935
  747MOL0     C 3010   3.471   3.545   6.709  0.3966  1.0276  0.4430
  747MOL0     C 3011   3.383   3.428   6.685  0.2599 -0.2552  0.5263
  747MOL0     C 3012   3.327   3.454   6.548 -1.0723 -0.3024  0.7410
  747MOL0     C 3013   3.304   3.466   6.428  0.1971 -0.4566  0.3369
  747MOL0     C 3014   3.262   3.263   7.117  0.0637 -0.5372 -0.4634
  747MOL0     C 3015   3.198   3.231   7.237  0.1403  0.6420  0.1130
  747MOL0     C 3016   3.114   3.105   7.241  0.1109 -0.8589  0.3910
  747MOL0     H 3017   3.006   3.455   7.626 -0.3124 -0.9321 -2.2466
  747MOL0     H 3018   2.886   3.446   7.851  1.1239 -0.0585  0.8418
  747MOL0     H 3019   2.742   3.062   7.978 -0.9554  0.5559  1.0916
  747MOL0     H 3020   2.589   3.142   7.924 -0.3856  1.1387 -0.8937
  747MOL0     H 3021   2.715   3.164   8.196 -1.4093 -1.0068  1.4033
  747MOL0     H 3022   2.569   3.252   8.138 -0.3704  0.3076 -4.1629
  747MOL0     H 3023   2.497   3.059   8.284 -2.7764  0.9380 -1.2623
  747MOL0     H 3024   2.464   3.041   8.122  2.8527  1.2883 -2.2702
  747MOL0     H 3025   2.639   2.883   8.084  2.0493  0.7800  0.5170
  747MOL0     H 3026   2.709   2.916   8.245  0.3643 -0.7064  1.0313
  747MOL0     H 3027   2.422   2.829   8.230  0.3603  2.3549  0.4281
  747MOL0     H 3028   2.531   2.824   8.361  0.8131  0.5353 -0.3326
  747MOL0     H 3029   2.646   2.663   8.137 -0.2635 -0.0604  0.5711
  747MOL0     H 3030   2.586   2.604   8.299 -1.0393 -1.6190  0.2665
  747MOL0     H 3031   2.370   2.574   8.224  0.4940 -1.0967  0.0881
  747MOL0     H 3032   2.458   2.497   8.105  1.6131  0.7825 -0.1445
  747MOL0     H 3033   2.297   2.597   7.981  2.0398 -1.4719  0.3424
  747MOL0     H 3034   2.305   2.750   8.066 -0.2702 -0.7434  0.8107
  747MOL0     H 3035   2.570   2.551   7.856  1.3002  1.6114  0.1516
  747MOL0     H 3036   2.749   2.807   7.626  2.5670  0.9794  1.4160
  747MOL0     H 3037   2.736   2.639   7.645  2.3331  1.0453 -1.6272
  747MOL0     H 3038   2.848   2.789   7.872  1.4355 -0.2441  1.0331
  747MOL0     H 3039   2.855   2.620   7.827 -1.0320 -0.7804 -0.1619
  747MOL0     H 3040   2.974   2.671   7.625 -0.7615 -1.6858  2.2418
  747MOL0     H 3041   2.985   2.851   7.690 -2.7357  0.5017  4.0780
  747MOL0     H 3042   3.192   2.718   7.734  0.9773  0.1816  1.0196
  747MOL0     H 3043   3.102   2.749   7.876  2.9522  0.0924  0.3303
  747MOL0     H 3044   3.283   2.638   8.000 -0.1188  0.3817 -0.9007
  747MOL0     H 3045   3.460   2.585   8.151 -1.2173 -2.4863 -0.1805
  747MOL0     H 3046   3.599   2.618   8.040 -0.1046 -1.4530 -2.6166
  747MOL0     H 3047   3.568   2.454   8.108  0.3409  1.3852  1.0193
  747MOL0     H 3048   3.893   2.237   7.877  1.2143 -0.4190  0.7810
  747MOL0     H 3049   4.143   2.254   7.848 -1.4485 -0.3451  0.4923
  747MOL0     H 3050   4.271   2.415   7.600 -4.8143  0.8168 -1.9225
  747MOL0     H 3051   4.188   2.576   7.616 -0.3593  2.3198  1.6473
  747MOL0     H 3052   4.485   2.507   7.621 -0.5632 -1.0650  4.2523
  747MOL0     H 3053   4.402   2.588   7.490  1.8421  2.1530  0.4892
  747MOL0     H 3054   4.558   2.708   7.671 -0.6951 -1.1718 -0.4209
  747MOL0     H 3055   4.421   2.677   7.788 -0.4730  1.9012  1.3815
  747MOL0     H 3056   4.264   2.803   7.661  0.3821 -1.6715  1.3611
  747MOL0     H 3057   4.391   2.871   7.553  0.3157  1.2272  0.6759
  747MOL0     H 3058   4.387   2.910   7.858  0.7849  0.8370  0.3840
  747MOL0     H 3059   4.525   2.943   7.748 -0.2692  0.9047 -2.2797
  747MOL0     H 3060   4.264   3.084   7.736  0.1451  0.4074  2.4616
  747MOL0     H 3061   4.415   3.131   7.644 -0.9606  3.1701  1.7001
  747MOL0     H 3062   4.523   3.175   7.850 -0.1320  1.7437 -1.6839
  747MOL0     H 3063   4.369   3.147   7.932 -0.1654  0.1549  0.5427
  747MOL0     H 3064   4.270   3.329   7.786  0.5212 -0.4449 -1.9250
  747MOL0     H 3065   4.433   3.344   7.708 -1.6553  1.5435 -0.7177
  747MOL0     H 3066   4.096   2.682   7.800 -1.7401  2.1836  1.1261
  747MOL0     H 3067   3.863   2.667   7.878 -3.9919 -1.9808 -3.5128
  747MOL0     H 3068   3.437   2.286   7.701  2.8640  3.3906 -0.4793
  747MOL0     H 3069   3.196   2.384   7.675 -0.4444 -1.1194  0.6654
  747MOL0     H 3070   2.787   3.037   7.766  0.0252 -0.4355 -3.8117
  747MOL0     H 3071   2.886   3.050   7.564 -1.7072 -1.9480  3.5895
  747MOL0     H 3072   3.357   3.465   7.433 -1.4048 -0.2428  0.3425
  747MOL0     H 3073   3.436   3.540   7.226 -2.8152  2.4273  1.8920
  747MOL0     H 3074   3.426   3.618   6.983  1.2930  0.6245 -1.0608
  747MOL0     H 3075   3.559   3.522   7.048 -0.5685 -2.3295 -0.3662
  747MOL0     H 3076   3.611   3.436   6.820  0.6756  0.0558  0.3966
  747MOL0     H 3077   3.620   3.618   6.845  0.4781  0.1385  2.1884
  747MOL0     H 3078   3.409   3.635   6.715 -1.3612  0.0195 -1.4376
  747MOL0     H 3079   3.541   3.543   6.626 -1.3690 -3.6006 -1.3160
  747MOL0     H 3080   3.296   3.431   6.752 -1.4090 -0.8276 -1.4853
  747MOL0     H 3081   3.435   3.333   6.699 -1.9869 -1.3782  1.9530
  747MOL0     H 3082   3.303   3.476   6.322  2.3749  1.5724  0.4258
  747MOL0     H 3083   3.236   3.211   7.025 -0.2912 -1.5128  0.1759
  747MOL0     H 3084   3.146   3.035   7.163 -4.1821 -3.9016  1.0151
  747MOL0     H 3085   3.112   3.047   7.333 -5.8253 -1.4800  0.2712
  747MOL0     H 3086   3.006   3.125   7.236  0.0600 -1.3144 -0.6326
  748MOL0     O 3087  10.081   4.843   9.622 -0.0801 -0.1822  0.2681
  748MOL0     C 3088  10.092   4.966   9.618  0.2998 -0.0631  0.6072
  748MOL0     O 3089  10.190   5.030   9.688 -0.0439  0.1151  0.8850
  748MOL0     C 3090  10.241   4.968   9.793 -0.2053 -1.3016  1.2529
  748MOL0     C 3091  10.193   5.006   9.922 -0.7833  1.3273 -0.0230
  748MOL0     C 3092  10.239   4.931  10.031  1.1582  0.3391 -0.5462
  748MOL0     C 3093  10.336   4.824  10.022  0.8811 -1.3207 -0.0730
  748MOL0     O 3094  10.367   4.746  10.134 -0.3088 -1.3908  0.8544
  748MOL0     C 3095  10.324   4.609  10.121  0.9366  0.3364 -0.3461
  748MOL0     C 3096  10.163   4.591  10.128 -0.6735 -0.9933 -0.2368
  748MOL0     C 3097  10.100   4.463  10.084  0.0884 -0.2110 -0.9629
  748MOL0     C 3098  10.058   4.463   9.943 -0.6002 -0.2810 -0.0163
  748MOL0     C 3099  10.169   4.489   9.849  0.3555  0.1297 -0.3114
  748MOL0     C 3100  10.129   4.465   9.704  0.1077  0.5769 -0.4282
  748MOL0     C 3101  10.210   4.557   9.611 -1.1145 -0.0056  0.1900
  748MOL0     C 3102  10.346   4.492   9.569 -0.0571  0.2103 -1.3822
  748MOL0     N 3103  10.418   4.563   9.457 -0.1886 -0.8548  1.0200
  748MOL0     C 3104  10.495   4.493   9.359  0.1304 -0.6169 -0.8007
  748MOL0     C 3105  10.558   4.587   9.284 -0.1152 -0.5908 -0.1970
  748MOL0     C 3106  10.660   4.577   9.179 -0.3796 -0.0103 -0.5300
  748MOL0     C 3107  10.647   4.676   9.056 -0.2315  0.0808 -0.6785
  748MOL0     C 3108  10.784   4.686   8.977  0.0397  1.2642  0.4147
  748MOL0     C 3109  10.778   4.802   8.873  0.0206 -0.0923  0.9065
  748MOL0     O 3110  10.799   4.921   8.942 -0.6901  0.3105  1.5969
  748MOL0     C 3111  10.769   5.039   8.891  0.3832 -0.6349  0.3928
  748MOL0     C 3112  10.762   5.147   8.979  0.7383 -0.4975 -0.1796
  748MOL0     C 3113  10.743   5.277   8.937  0.1190  0.5183 -0.2218
  748MOL0     C 3114  10.717   5.372   9.050 -0.1723  0.0413  0.8140
  748MOL0     C 3115  10.734   5.312   8.799 -0.2186  0.1166  0.8380
  748MOL0     C 3116  10.727   5.455   8.737 -0.2666 -0.1874  0.1467
  748MOL0     O 3117  10.678   5.477   8.609  0.8215  0.2884 -0.4191
  748MOL0     C 3118  10.700   5.597   8.541  0.3688  0.5022 -0.0573
  748MOL0     C 3119  10.822   5.645   8.524 -0.9401 -0.7877 -0.6525
  748MOL0     C 3120  10.849   5.744   8.421  0.0775  0.2751  0.7908
  748MOL0     C 3121  10.745   5.817   8.360 -0.3443 -0.1237 -0.8835
  748MOL0     O 3122  10.772   5.930   8.289  0.0076 -0.4514 -0.0101
  748MOL0     C 3123  10.902   5.976   8.252  0.1058  0.2292 -0.7381
  748MOL0     C 3124  10.916   6.082   8.143  0.9826 -0.1547 -0.7623
  748MOL0     C 3125  10.897   6.046   7.996 -0.4390  0.2769  0.1770
  748MOL0     C 3126  10.901   6.168   7.892  0.4408 -1.0388  0.1415
  748MOL0     C 3127  10.955   6.124   7.749 -0.2030 -0.4260  0.1711
  748MOL0     C 3128  10.926   6.230   7.643  0.7798 -0.6381 -0.1944
  748MOL0     C 3129  10.926   6.182   7.506 -0.9104  0.4585  0.7989
  748MOL0     C 3130  10.912   6.299   7.402  0.2560  0.0066  0.1397
  748MOL0    Cl 3131  10.748   6.371   7.393 -0.0083 -0.0430  0.2345
  748MOL0     C 3132  10.613   5.773   8.392 -0.0913 -0.4720  0.0650
  748MOL0     C 3133  10.596   5.664   8.477 -0.1396 -0.6128  0.3211
  748MOL0     O 3134  10.756   5.551   8.803 -0.3488 -0.1135  0.5233
  748MOL0     C 3135  10.757   5.207   8.711  1.0623  0.1635  1.0612
  748MOL0     C 3136  10.766   5.070   8.752  0.0437 -0.3363 -0.1410
  748MOL0     N 3137  10.525   4.706   9.344  0.3291 -0.1403 -0.3752
  748MOL0     N 3138  10.432   4.695   9.434  0.0403  0.2920  0.6458
  748MOL0     C 3139  10.376   4.799   9.887  0.0453 -0.0783 -0.9195
  748MOL0     C 3140  10.339   4.870   9.780  0.1080 -0.4237  0.3522
  748MOL0     C 3141   9.999   5.034   9.522 -0.4834 -0.1696  0.1673
  748MOL0     C 3142   9.892   4.971   9.456 -1.2175  0.4952  1.1290
  748MOL0     C 3143   9.812   5.040   9.367  0.7911  0.3575  0.0280
  748MOL0     C 3144   9.837   5.171   9.338 -0.2010  0.3319  0.6014
  748MOL0     O 3145   9.754   5.234   9.249 -0.3970 -0.5057  0.3143
  748MOL0     C 3146   9.822   5.305   9.139  0.6920  0.4589  0.0874
  748MOL0     C 3147   9.757   5.270   8.999  0.0555 -0.7802  0.3603
  748MOL0     C 3148   9.829   5.329   8.867  0.5534  2.2214 -1.0577
  748MOL0     C 3149   9.865   5.477   8.870 -0.5725 -0.5639 -0.0150
  748MOL0     C 3150   9.750   5.565   8.861 -0.4422 -0.6462  0.1801
  748MOL0     C 3151   9.656   5.637   8.875 -0.2373  0.7028  1.1972
  748MOL0     C 3152   9.950   5.233   9.389 -0.1576  0.3831  0.8792
  748MOL0     C 3153  10.028   5.172   9.478  0.3482  0.1500  0.6397
  748MOL0     C 3154  10.156   5.247   9.518 -0.8829 -0.2028 -0.6109
  748MOL0     H 3155  10.114   5.080   9.928 -3.8723 -1.8530  1.9244
  748MOL0     H 3156  10.199   4.956  10.129  2.1143  0.6607 -0.2256
  748MOL0     H 3157  10.362   4.570  10.216 -0.4875  3.4029  1.6369
  748MOL0     H 3158  10.369   4.559  10.034  0.0452  4.0135 -3.1741
  748MOL0     H 3159  10.137   4.605  10.233  0.7046 -2.4653  0.3394
  748MOL0     H 3160  10.118   4.671  10.067 -2.1136 -1.0039  0.7556
  748MOL0     H 3161  10.162   4.375  10.104  0.2553 -0.7905 -3.6604
  748MOL0     H 3162  10.009   4.454  10.144 -1.2458  4.6135 -1.8099
  748MOL0     H 3163  10.018   4.365   9.916 -2.1898  0.0143  1.1659
  748MOL0     H 3164   9.980   4.538   9.933  2.0869  2.6196 -0.7606
  748MOL0     H 3165  10.260   4.445   9.889 -0.6529 -0.2405  1.6971
  748MOL0     H 3166  10.196   4.595   9.854  2.4029 -0.3865  0.3190
  748MOL0     H 3167  10.144   4.361   9.673  1.1729  0.9971 -1.3801
  748MOL0     H 3168  10.023   4.486   9.684  0.1889  0.5232 -0.9297
  748MOL0     H 3169  10.223   4.657   9.654  0.3556  0.0845 -0.3963
  748MOL0     H 3170  10.148   4.562   9.521  1.4054  0.0964 -1.6706
  748MOL0     H 3171  10.409   4.487   9.658 -1.6245 -1.6071 -0.2914
  748MOL0     H 3172  10.330   4.386   9.550  0.2232 -0.0420 -0.2842
  748MOL0     H 3173  10.513   4.387   9.346  1.6789 -0.7179  1.6021
  748MOL0     H 3174  10.653   4.478   9.133  2.4037 -1.5021  1.9101
  748MOL0     H 3175  10.760   4.581   9.223 -1.1412  2.4351  1.2291
  748MOL0     H 3176  10.566   4.645   8.990 -1.3528  0.8578  0.2952
  748MOL0     H 3177  10.613   4.778   9.077 -1.8080 -0.1301 -2.0653
  748MOL0     H 3178  10.872   4.704   9.039  0.8286 -1.1357  0.1217
  748MOL0     H 3179  10.802   4.596   8.917  2.6625  0.2046  2.5932
  748MOL0     H 3180  10.842   4.809   8.785  1.5999  0.3718  2.0405
  748MOL0     H 3181  10.678   4.798   8.829  0.2583 -1.7837  0.4593
  748MOL0     H 3182  10.754   5.117   9.082 -0.4745 -0.6170 -0.3000
  748MOL0     H 3183  10.730   5.478   9.025 -2.5891  0.4919  1.2172
  748MOL0     H 3184  10.783   5.352   9.135  0.8086 -0.4617 -0.0422
  748MOL0     H 3185  10.609   5.368   9.069 -0.7394  0.1304 -1.9402
  748MOL0     H 3186  10.899   5.591   8.578 -0.1247 -2.7925 -3.5589
  748MOL0     H 3187  10.951   5.778   8.404 -0.3595  2.8677  2.7077
  748MOL0     H 3188  10.942   6.023   8.342  1.0218  1.0474 -1.5422
  748MOL0     H 3189  10.961   5.888   8.225 -1.4550 -0.8468 -0.7169
  748MOL0     H 3190  10.841   6.161   8.147  0.9892 -0.1750 -0.2294
  748MOL0     H 3191  11.017   6.123   8.156 -1.5644  6.2262  3.4797
  748MOL0     H 3192  10.799   5.999   7.985 -0.9006  1.0248  0.9722
  748MOL0     H 3193  10.972   5.971   7.970 -1.8684 -1.1493  0.0239
  748MOL0     H 3194  10.952   6.256   7.933 -1.4714  0.5839 -0.7994
  748MOL0     H 3195  10.800   6.207   7.885 -0.3043 -2.4011  2.1299
  748MOL0     H 3196  11.063   6.108   7.739  0.0575  1.8318 -1.3222
  748MOL0     H 3197  10.909   6.033   7.709 -0.4717 -0.1367 -0.1800
  748MOL0     H 3198  10.990   6.318   7.648 -0.4452  0.2502  0.6559
  748MOL0     H 3199  10.825   6.268   7.664  1.6250  1.1629  0.8097
  748MOL0     H 3200  10.847   6.110   7.485  0.4590 -0.9781  0.4319
  748MOL0     H 3201  11.014   6.127   7.474 -3.1176 -3.5306  0.9830
  748MOL0     H 3202  10.942   6.264   7.303 -1.7372  0.5437 -0.7028
  748MOL0     H 3203  10.991   6.373   7.417 -0.2980  0.7270 -0.4422
  748MOL0     H 3204  10.530   5.825   8.344 -2.0005 -2.1831  1.3577
  748MOL0     H 3205  10.495   5.625   8.485  0.4486 -2.1596  0.4317
  748MOL0     H 3206  10.759   5.220   8.603  2.9577  0.6372  1.1076
  748MOL0     H 3207  10.750   4.993   8.677  1.6257  1.4905 -2.5400
  748MOL0     H 3208  10.449   4.720   9.870  1.2816  0.5711  1.0711
  748MOL0     H 3209  10.368   4.833   9.682  1.9145  0.4611  0.5249
  748MOL0     H 3210   9.867   4.866   9.462  2.3019 -0.5996 -0.7973
  748MOL0     H 3211   9.723   4.997   9.322  0.0802  0.3325  1.4125
  748MOL0     H 3212   9.823   5.413   9.158  1.2490  0.7662 -1.5077
  748MOL0     H 3213   9.928   5.278   9.147 -0.2051 -2.9247  3.9964
  748MOL0     H 3214   9.655   5.309   8.995  0.5987  0.6555 -0.3116
  748MOL0     H 3215   9.743   5.164   8.977 -1.9549 -0.3288 -0.8138
  748MOL0     H 3216   9.927   5.282   8.875 -0.0952  1.1775  2.6374
  748MOL0     H 3217   9.785   5.312   8.769 -0.1409  1.7239 -0.6679
  748MOL0     H 3218   9.934   5.496   8.788 -2.4415  0.1745 -1.4886
  748MOL0     H 3219   9.913   5.502   8.965 -2.5836 -0.9828  1.1855
  748MOL0     H 3220   9.584   5.716   8.874 -1.3128 -0.0799 -2.9349
  748MOL0     H 3221   9.967   5.337   9.364 -0.3640 -0.2842 -2.6787
  748MOL0     H 3222  10.150   5.292   9.618  0.6431 -1.0192 -0.1341
  748MOL0     H 3223  10.244   5.183   9.526 -0.3024  0.8036  2.1707
  748MOL0     H 3224  10.182   5.322   9.442  2.2920 -1.6089 -1.0410
  749MOL0     O 3225   3.160  11.386   3.948  0.2877  0.3333 -0.2342
  749MOL0     C 3226   3.181  11.314   3.852 -0.1835  0.0047 -0.4771
  749MOL0     O 3227   3.184  11.356   3.724  0.1714  0.2674  0.1704
  749MOL0     C 3228   3.178  11.492   3.705 -0.8631  0.6836 -0.8351
  749MOL0     C 3229   3.067  11.567   3.668 -0.0014 -0.3208 -0.5791
  749MOL0     C 3230   3.076  11.708   3.661  0.8828 -0.6821  0.0871
  749MOL0     C 3231   3.198  11.776   3.663  0.2454  0.4973 -0.5565
  749MOL0     O 3232   3.196  11.909   3.641  0.8995 -0.8535  0.3268
  749MOL0     C 3233   3.271  11.994   3.724  0.8337  0.1683  0.4448
  749MOL0     C 3234   3.278  12.121   3.659 -0.8293 -0.5598  0.6488
  749MOL0     C 3235   3.334  12.229   3.758 -0.2274 -0.4526  0.5996
  749MOL0     C 3236   3.359  12.355   3.675  0.4309  0.3027 -0.1399
  749MOL0     C 3237   3.404  12.480   3.757  0.4832  1.4162  0.1497
  749MOL0     C 3238   3.424  12.590   3.657  0.6990  0.4541 -0.6495
  749MOL0     C 3239   3.443  12.726   3.716  0.3972 -0.9084  0.0919
  749MOL0     C 3240   3.349  12.827   3.657 -0.4849 -0.3517 -1.0710
  749MOL0     N 3241   3.361  12.957   3.725 -0.5244 -0.8725 -0.0185
  749MOL0     C 3242   3.424  13.068   3.667  0.1085  0.1001  0.5548
  749MOL0     C 3243   3.447  13.147   3.768 -0.3359  0.1084 -0.1808
  749MOL0     C 3244   3.495  13.297   3.774 -0.3857 -0.1743 -0.4610
  749MOL0     C 3245   3.608  13.336   3.673 -0.6928 -0.8145  1.3274
  749MOL0     C 3246   3.554  13.382   3.531 -0.4423 -0.2493  0.0926
  749MOL0     C 3247   3.485  13.517   3.537  0.4498  0.7441 -0.3441
  749MOL0     O 3248   3.443  13.554   3.408  0.2072  0.3456 -0.0084
  749MOL0     C 3249   3.415  13.689   3.386  0.6167 -0.2406  0.0953
  749MOL0     C 3250   3.420  13.796   3.476  0.2322  0.6278  0.4164
  749MOL0     C 3251   3.412  13.931   3.439  0.3732  1.8726  0.4143
  749MOL0     C 3252   3.399  14.037   3.556  0.6219 -0.0875 -0.1643
  749MOL0     C 3253   3.397  13.964   3.298 -0.6350 -0.7804 -0.5092
  749MOL0     C 3254   3.410  14.104   3.235  0.4038  0.0185  0.6327
  749MOL0     O 3255   3.360  14.133   3.110 -0.0692  0.5471  0.2830
  749MOL0     C 3256   3.358  14.257   3.070 -1.2995 -0.2611 -0.2270
  749MOL0     C 3257   3.460  14.305   2.985  0.5896 -0.9600  0.4233
  749MOL0     C 3258   3.465  14.446   2.972  0.1586 -0.2469 -0.3940
  749MOL0     C 3259   3.373  14.531   3.027  0.8608  0.1369 -0.2973
  749MOL0     O 3260   3.402  14.667   3.006  0.7141  0.0206  0.2718
  749MOL0     C 3261   3.342  14.760   3.097  0.3636  0.0820 -0.0148
  749MOL0     C 3262   3.225  14.832   3.028 -0.0239  0.3812 -0.6809
  749MOL0     C 3263   3.262  14.898   2.882  0.2292  0.4202 -0.3812
  749MOL0     C 3264   3.197  15.033   2.887 -0.2730 -0.1471 -0.1947
  749MOL0     C 3265   3.314  15.125   2.949  0.6193 -1.2450  0.5496
  749MOL0     C 3266   3.259  15.266   2.940 -0.1673  0.7104  0.4878
  749MOL0     C 3267   3.346  15.359   3.025  0.0422  1.5177 -0.2064
  749MOL0     C 3268   3.284  15.492   3.042  0.5280  0.2748 -0.3755
  749MOL0    Cl 3269   3.254  15.562   2.870 -0.4459  0.1891 -0.2896
  749MOL0     C 3270   3.259  14.478   3.091 -0.3342  0.9618  0.3566
  749MOL0     C 3271   3.265  14.343   3.121  0.6565  0.5288 -0.2444
  749MOL0     O 3272   3.465  14.189   3.304 -0.8240 -1.0654 -0.2342
  749MOL0     C 3273   3.397  13.855   3.211  0.4451 -0.0535  0.9919
  749MOL0     C 3274   3.396  13.724   3.259  0.2316 -0.0369  0.3864
  749MOL0     N 3275   3.414  13.082   3.886 -0.5642 -0.1015  0.0744
  749MOL0     N 3276   3.354  12.975   3.859  0.2569  0.1832 -0.1569
  749MOL0     C 3277   3.309  11.696   3.700  0.4636 -1.2508 -0.3203
  749MOL0     C 3278   3.299  11.560   3.717  0.0860 -0.1999  0.4761
  749MOL0     C 3279   3.199  11.170   3.872  0.6258 -0.2125 -0.0229
  749MOL0     C 3280   3.285  11.106   3.774 -0.0408  0.5696 -0.4041
  749MOL0     C 3281   3.311  10.970   3.784 -0.0915  0.7197 -0.8086
  749MOL0     C 3282   3.256  10.897   3.885 -0.5749  0.2417  0.9929
  749MOL0     O 3283   3.274  10.756   3.886  0.4797  0.0469  0.2878
  749MOL0     C 3284   3.366  10.701   3.978 -0.2172 -1.1130 -0.7893
  749MOL0     C 3285   3.426  10.563   3.952 -0.7535  0.4533 -0.6097
  749MOL0     C 3286   3.503  10.550   3.823 -0.2443  1.1201 -0.3923
  749MOL0     C 3287   3.624  10.454   3.843  0.7958 -1.1522  1.2375
  749MOL0     C 3288   3.718  10.494   3.733  0.8838 -0.0119  0.5281
  749MOL0     C 3289   3.784  10.521   3.632  0.2385  0.3900 -0.4834
  749MOL0     C 3290   3.174  10.953   3.981  0.2792 -0.2483  0.1118
  749MOL0     C 3291   3.146  11.089   3.976  0.8802  0.0278  0.3725
  749MOL0     C 3292   3.052  11.137   4.078 -0.8295 -0.2798  1.5657
  749MOL0     H 3293   2.974  11.514   3.656 -0.5121  0.2184  0.8474
  749MOL0     H 3294   2.991  11.771   3.635  0.2397 -1.7413 -0.4498
  749MOL0     H 3295   3.378  11.976   3.738  0.7459 -0.5254  0.2311
  749MOL0     H 3296   3.219  11.992   3.820 -1.4008  0.1168 -0.6999
  749MOL0     H 3297   3.338  12.107   3.569 -1.2626  1.1194  0.0500
  749MOL0     H 3298   3.182  12.158   3.620  0.6377 -0.0975 -2.8897
  749MOL0     H 3299   3.258  12.240   3.836 -0.4958 -1.1362  0.4385
  749MOL0     H 3300   3.433  12.210   3.801  1.4641  5.0017 -0.1489
  749MOL0     H 3301   3.436  12.318   3.607  0.4389 -0.8580  0.4701
  749MOL0     H 3302   3.272  12.376   3.612 -1.4446 -1.8589  1.5516
  749MOL0     H 3303   3.506  12.461   3.790  0.6575  2.7815  0.4610
  749MOL0     H 3304   3.340  12.493   3.844  0.9820  1.6452  0.4845
  749MOL0     H 3305   3.504  12.582   3.582  0.2878  1.0727 -1.1654
  749MOL0     H 3306   3.333  12.594   3.596 -0.0996 -1.9375  0.2848
  749MOL0     H 3307   3.543  12.760   3.687  0.7847 -3.8233 -2.4965
  749MOL0     H 3308   3.422  12.714   3.823 -0.7902 -2.2889 -0.2629
  749MOL0     H 3309   3.352  12.837   3.548 -4.0607 -0.5652 -1.3088
  749MOL0     H 3310   3.246  12.800   3.681  0.0214 -0.2909  1.4056
  749MOL0     H 3311   3.437  13.089   3.561 -0.3480  0.5270  0.5774
  749MOL0     H 3312   3.537  13.306   3.875  0.6499  0.7654 -0.9577
  749MOL0     H 3313   3.415  13.372   3.772 -0.3023  0.0449  1.6824
  749MOL0     H 3314   3.654  13.424   3.719 -2.5782  2.8422 -2.9934
  749MOL0     H 3315   3.680  13.254   3.666 -0.2807 -0.3560 -0.5981
  749MOL0     H 3316   3.640  13.391   3.465 -0.5258  0.6225  0.0997
  749MOL0     H 3317   3.482  13.307   3.497 -3.0395  1.0956  2.2481
  749MOL0     H 3318   3.404  13.510   3.610  3.2074  1.8906  3.1883
  749MOL0     H 3319   3.559  13.588   3.578  5.4277 -2.2738 -3.0926
  749MOL0     H 3320   3.451  13.776   3.578  2.2198 -1.5389 -0.5300
  749MOL0     H 3321   3.481  14.109   3.553 -1.1040  1.9951  0.2194
  749MOL0     H 3322   3.389  13.988   3.653  1.2577 -3.2090 -1.5267
  749MOL0     H 3323   3.306  14.093   3.542 -0.0335 -1.0930  0.0376
  749MOL0     H 3324   3.524  14.236   2.932  1.7329  0.6895 -0.4653
  749MOL0     H 3325   3.528  14.485   2.893  1.0630  0.2311  0.5320
  749MOL0     H 3326   3.299  14.706   3.182 -0.9654  1.1976  0.0685
  749MOL0     H 3327   3.417  14.821   3.147 -0.2491 -1.0256  2.4288
  749MOL0     H 3328   3.139  14.765   3.017  2.2637 -3.0092  0.3017
  749MOL0     H 3329   3.195  14.910   3.098 -1.4796 -0.5173 -0.2551
  749MOL0     H 3330   3.219  14.843   2.798  1.2044  1.3205 -1.4936
  749MOL0     H 3331   3.370  14.906   2.872  0.5473  1.0875  2.5816
  749MOL0     H 3332   3.104  15.029   2.945  0.7305 -2.2470  1.3992
  749MOL0     H 3333   3.191  15.073   2.785  4.0511 -1.6658 -1.2350
  749MOL0     H 3334   3.322  15.107   3.056  1.6671 -2.9154  0.2271
  749MOL0     H 3335   3.402  15.107   2.886  1.0892 -0.5747  1.0106
  749MOL0     H 3336   3.153  15.279   2.963 -0.1962  2.3148 -0.4637
  749MOL0     H 3337   3.285  15.301   2.840  1.6525 -2.1016 -0.1518
  749MOL0     H 3338   3.441  15.370   2.971 -0.8261 -0.6578 -2.3403
  749MOL0     H 3339   3.364  15.313   3.123 -1.5841  4.0289  1.3982
  749MOL0     H 3340   3.337  15.560   3.109  2.4945  0.8767 -2.4310
  749MOL0     H 3341   3.190  15.465   3.091  1.7381 -1.6046  1.0527
  749MOL0     H 3342   3.173  14.539   3.116 -0.9404  0.9932 -1.6642
  749MOL0     H 3343   3.188  14.293   3.179 -0.7272  0.9512 -1.6272
  749MOL0     H 3344   3.398  13.874   3.104 -2.3812  0.5609  0.9987
  749MOL0     H 3345   3.390  13.640   3.190  0.5437 -0.9153  1.4202
  749MOL0     H 3346   3.406  11.744   3.704  0.7636 -1.4873 -2.9222
  749MOL0     H 3347   3.386  11.504   3.752  0.9026  0.0289 -1.1263
  749MOL0     H 3348   3.344  11.169   3.708 -0.8627  2.5809  0.7039
  749MOL0     H 3349   3.377  10.914   3.719 -0.2595 -0.5093  0.0349
  749MOL0     H 3350   3.450  10.770   3.961  0.8445 -1.5821  1.9896
  749MOL0     H 3351   3.336  10.690   4.083  2.9166 -1.7174  0.1321
  749MOL0     H 3352   3.358  10.480   3.974 -1.2144  0.6057 -1.4620
  749MOL0     H 3353   3.505  10.549   4.027 -1.3941 -1.8789 -0.2821
  749MOL0     H 3354   3.432  10.511   3.750  1.5507 -1.8580 -0.7058
  749MOL0     H 3355   3.532  10.648   3.784  1.9132  0.3357 -0.8956
  749MOL0     H 3356   3.582  10.354   3.826 -0.3896 -0.5408  0.3863
  749MOL0     H 3357   3.681  10.459   3.936 -0.0811 -1.7166  1.8206
  749MOL0     H 3358   3.829  10.528   3.535  2.8419  1.1133  0.6668
  749MOL0     H 3359   3.132  10.881   4.050 -1.7496  0.0646 -0.7430
  749MOL0     H 3360   3.094  11.214   4.144  3.6124  1.3852 -2.6041
  749MOL0     H 3361   2.966  11.181   4.026  1.4090  2.0677 -0.4526
  749MOL0     H 3362   3.016  11.049   4.132  0.8581 -0.9207  1.6913
  750MOL0     O 3363   3.853   5.434   6.638  0.3370  0.6935  0.5480
  750MOL0     C 3364   3.924   5.447   6.729  1.0868  0.8860 -0.6813
  750MOL0     O 3365   4.069   5.451   6.729  0.4635  0.4585  0.0595
  750MOL0     C 3366   4.130   5.416   6.618  0.6093 -0.6149  0.0745
  750MOL0     C 3367   4.189   5.288   6.617 -0.4841 -0.7868  0.1300
  750MOL0     C 3368   4.248   5.247   6.501 -0.7407 -0.2425 -0.3616
  750MOL0     C 3369   4.259   5.330   6.393  0.5457 -0.0014 -0.8362
  750MOL0     O 3370   4.337   5.292   6.284  0.1061  0.7830  0.4895
  750MOL0     C 3371   4.262   5.304   6.158 -1.3594 -0.2583  0.2309
  750MOL0     C 3372   4.141   5.212   6.146  0.0941 -0.1112  0.0889
  750MOL0     C 3373   4.103   5.201   6.001  0.0706 -0.2270  0.0418
  750MOL0     C 3374   3.976   5.112   5.972  0.5390  0.3506 -0.7513
  750MOL0     C 3375   4.005   4.966   6.026 -0.3163 -0.2016 -0.7968
  750MOL0     C 3376   4.125   4.896   5.958  0.1384  1.3291 -0.4840
  750MOL0     C 3377   4.116   4.846   5.807  0.0535 -0.7206  0.4888
  750MOL0     C 3378   4.235   4.764   5.776 -0.2925 -0.4109 -0.9356
  750MOL0     N 3379   4.350   4.822   5.702  1.0912  0.0434 -0.5096
  750MOL0     C 3380   4.428   4.919   5.766 -0.4142 -0.6795  0.2986
  750MOL0     C 3381   4.498   4.976   5.666 -0.1351 -0.4406  0.4084
  750MOL0     C 3382   4.607   5.084   5.685 -0.7410  0.0908 -0.2277
  750MOL0     C 3383   4.662   5.092   5.833  0.0982 -0.0456  1.0041
  750MOL0     C 3384   4.783   5.190   5.860  1.0147 -0.6121  0.5497
  750MOL0     C 3385   4.924   5.144   5.822  0.7816  0.2606  0.1549
  750MOL0     O 3386   5.030   5.234   5.848 -0.2295  0.0975  0.4350
  750MOL0     C 3387   5.090   5.220   5.978 -0.6893  0.3036  0.0299
  750MOL0     C 3388   5.229   5.174   5.984  0.3671  0.3234  0.6438
  750MOL0     C 3389   5.296   5.157   6.107 -1.1005  0.2298 -0.9549
  750MOL0     C 3390   5.435   5.099   6.114  0.2504 -0.4225  0.5955
  750MOL0     C 3391   5.226   5.178   6.225 -0.3338  0.0210  0.4532
  750MOL0     C 3392   5.268   5.138   6.366  0.8284 -0.9583  0.9366
  750MOL0     O 3393   5.179   5.172   6.471 -0.0047 -0.1948  0.1524
  750MOL0     C 3394   5.220   5.116   6.593  0.1345  0.8044 -0.0275
  750MOL0     C 3395   5.122   5.064   6.675 -0.4086 -0.4492 -1.1110
  750MOL0     C 3396   5.141   5.036   6.804  0.3266  0.1796 -0.3065
  750MOL0     C 3397   5.266   5.068   6.864 -0.6146 -0.1798 -0.0118
  750MOL0     O 3398   5.304   5.058   7.000  0.2142 -0.6818 -0.2219
  750MOL0     C 3399   5.220   4.971   7.079 -0.8003  0.0561 -0.2329
  750MOL0     C 3400   5.264   4.978   7.224 -0.2606  0.7210 -0.0909
  750MOL0     C 3401   5.406   4.966   7.233 -0.4177  1.2876  0.1203
  750MOL0     C 3402   5.478   5.101   7.262  0.5301  0.9414  0.5284
  750MOL0     C 3403   5.635   5.092   7.289  1.0011 -0.0029 -0.2828
  750MOL0     C 3404   5.718   5.070   7.168  0.1732  0.0660 -0.7808
  750MOL0     C 3405   5.861   5.015   7.200 -0.6964  0.5549 -0.0763
  750MOL0     C 3406   5.947   5.114   7.277  0.2048 -0.2431 -0.7324
  750MOL0    Cl 3407   6.070   5.024   7.368 -0.1798  0.1502 -0.0431
  750MOL0     C 3408   5.365   5.125   6.780  0.5145 -0.6006  0.3047
  750MOL0     C 3409   5.338   5.148   6.650  0.6824 -0.0023 -0.0981
  750MOL0     O 3410   5.375   5.083   6.381 -0.5747 -0.7674 -0.7418
  750MOL0     C 3411   5.095   5.235   6.214  0.2947  0.5896 -0.6474
  750MOL0     C 3412   5.022   5.258   6.095  1.4809 -0.2124 -0.3303
  750MOL0     N 3413   4.472   4.907   5.548 -0.2406  0.3152 -0.3106
  750MOL0     N 3414   4.384   4.809   5.566  0.0880 -0.1914 -0.7428
  750MOL0     C 3415   4.211   5.455   6.397  0.3030 -0.1514 -0.7554
  750MOL0     C 3416   4.131   5.495   6.500 -0.1488 -0.0662 -0.0116
  750MOL0     C 3417   3.869   5.478   6.863  0.0108 -0.5380 -0.2845
  750MOL0     C 3418   3.950   5.537   6.967 -0.6301 -1.1585  0.2272
  750MOL0     C 3419   3.900   5.561   7.094 -0.5777 -0.9545 -1.0833
  750MOL0     C 3420   3.766   5.549   7.120 -0.4115  0.2673 -0.1586
  750MOL0     O 3421   3.723   5.557   7.247 -0.6007  0.0851 -0.1672
  750MOL0     C 3422   3.591   5.606   7.285  0.8681  0.1035 -0.2060
  750MOL0     C 3423   3.605   5.650   7.426  0.4383 -0.1797 -1.0371
  750MOL0     C 3424   3.630   5.550   7.534  0.7867  0.8326 -0.6415
  750MOL0     C 3425   3.547   5.421   7.525  0.0046  0.2310  0.1803
  750MOL0     C 3426   3.607   5.323   7.616  0.4229  0.2200 -0.1495
  750MOL0     C 3427   3.662   5.247   7.690 -0.5181  0.9963  0.3796
  750MOL0     C 3428   3.682   5.494   7.031  0.2251  0.0592  0.4689
  750MOL0     C 3429   3.734   5.449   6.905 -0.0533 -0.3052 -0.4185
  750MOL0     C 3430   3.639   5.372   6.818  0.5370 -0.6852 -0.0185
  750MOL0     H 3431   4.199   5.221   6.702 -1.6746 -3.1677 -1.4873
  750MOL0     H 3432   4.311   5.159   6.489 -1.1330 -0.2247 -3.3432
  750MOL0     H 3433   4.334   5.281   6.080  0.6701  1.7919  1.4037
  750MOL0     H 3434   4.240   5.407   6.128  4.4399  0.3135 -3.6423
  750MOL0     H 3435   4.172   5.114   6.184 -0.5228 -1.8128 -3.3721
  750MOL0     H 3436   4.057   5.244   6.208  1.0911  1.1492  0.8319
  750MOL0     H 3437   4.084   5.307   5.981  1.1158 -0.0613 -0.0930
  750MOL0     H 3438   4.195   5.169   5.952 -0.0060  1.5872 -1.4225
  750MOL0     H 3439   3.887   5.155   6.020  2.0293  1.1262  1.4464
  750MOL0     H 3440   3.948   5.112   5.866  1.4995 -0.2319 -1.0171
  750MOL0     H 3441   3.931   4.887   6.007  0.3786 -0.5996 -1.9465
  750MOL0     H 3442   4.023   4.967   6.134  0.4720  1.4678 -0.9244
  750MOL0     H 3443   4.224   4.941   5.967  0.4979  0.1198  2.7618
  750MOL0     H 3444   4.149   4.795   5.994  1.3449  0.8552 -2.4107
  750MOL0     H 3445   4.131   4.933   5.741 -1.2088  0.1989  1.3428
  750MOL0     H 3446   4.023   4.796   5.779 -0.3490  0.4488 -0.3670
  750MOL0     H 3447   4.279   4.708   5.859 -0.2261 -0.1676 -0.8055
  750MOL0     H 3448   4.191   4.684   5.716 -3.9493  1.9505 -1.7250
  750MOL0     H 3449   4.436   4.949   5.870  3.1217 -0.2074  0.0228
  750MOL0     H 3450   4.569   5.176   5.639  0.2600 -0.7324 -2.8293
  750MOL0     H 3451   4.685   5.051   5.616 -2.8362 -4.4601 -0.7592
  750MOL0     H 3452   4.576   5.128   5.891 -1.0438 -1.0663 -0.0038
  750MOL0     H 3453   4.698   4.995   5.869 -1.4409 -1.1874 -0.3785
  750MOL0     H 3454   4.763   5.272   5.790 -2.9696 -0.6372  1.3974
  750MOL0     H 3455   4.765   5.227   5.961 -1.1503 -0.9090  0.3332
  750MOL0     H 3456   4.936   5.048   5.873 -1.0751  1.2370  2.6041
  750MOL0     H 3457   4.921   5.135   5.713 -1.3431  0.8766  0.1139
  750MOL0     H 3458   5.268   5.148   5.886 -1.6571 -0.8506  0.0643
  750MOL0     H 3459   5.430   5.001   6.162  0.7776 -0.3469  0.8051
  750MOL0     H 3460   5.491   5.179   6.163  5.3946 -2.1211 -1.8626
  750MOL0     H 3461   5.472   5.080   6.013  0.6249 -0.9456  0.8304
  750MOL0     H 3462   5.023   5.062   6.631 -1.1175  0.2853  0.4095
  750MOL0     H 3463   5.052   5.019   6.864 -0.3974  2.8534 -0.4924
  750MOL0     H 3464   5.118   5.010   7.067 -1.1487 -0.8037 -0.1425
  750MOL0     H 3465   5.219   4.868   7.042 -0.9985  0.5665 -1.6979
  750MOL0     H 3466   5.224   5.075   7.252 -0.1182  1.4169 -2.1411
  750MOL0     H 3467   5.214   4.903   7.286  1.3788 -0.9225 -0.6659
  750MOL0     H 3468   5.461   4.919   7.151  0.4619 -0.7539  1.7984
  750MOL0     H 3469   5.430   4.900   7.317 -0.3322 -5.9353 -4.7204
  750MOL0     H 3470   5.436   5.152   7.349  0.0010 -1.6847  1.9099
  750MOL0     H 3471   5.479   5.164   7.172 -2.2615  1.1707  0.5853
  750MOL0     H 3472   5.672   5.188   7.325  3.3211 -1.3153  1.0358
  750MOL0     H 3473   5.659   5.016   7.364  2.3606 -1.1048 -1.7766
  750MOL0     H 3474   5.724   5.156   7.101  0.0108 -0.0399 -0.9317
  750MOL0     H 3475   5.673   4.990   7.109  1.7770  0.5757 -2.8562
  750MOL0     H 3476   5.922   4.986   7.115 -0.7052 -1.4451  0.5379
  750MOL0     H 3477   5.871   4.920   7.253  0.6698  2.0962  2.6899
  750MOL0     H 3478   5.875   5.166   7.341  1.7391 -0.3863  1.1908
  750MOL0     H 3479   5.996   5.182   7.207  0.9319  1.3712  1.2550
  750MOL0     H 3480   5.460   5.149   6.827  1.2388 -1.6884 -0.5462
  750MOL0     H 3481   5.413   5.196   6.587  1.1291  1.2075  1.3052
  750MOL0     H 3482   5.045   5.247   6.309 -0.5588 -0.2471 -0.9854
  750MOL0     H 3483   4.928   5.312   6.107  1.8872  0.0987  1.7754
  750MOL0     H 3484   4.237   5.516   6.311  0.0443 -2.1321 -2.3304
  750MOL0     H 3485   4.073   5.586   6.491  1.0604  0.5623 -2.2343
  750MOL0     H 3486   4.056   5.553   6.953 -0.8400  1.3570  0.9613
  750MOL0     H 3487   3.962   5.599   7.175 -2.0170  3.3891 -1.7179
  750MOL0     H 3488   3.566   5.690   7.221  0.7203 -0.7509 -1.3005
  750MOL0     H 3489   3.518   5.529   7.260  1.4928 -0.6452  0.1923
  750MOL0     H 3490   3.515   5.703   7.459 -0.8138 -0.6401 -3.5079
  750MOL0     H 3491   3.685   5.724   7.422 -2.9542  3.8890 -0.9688
  750MOL0     H 3492   3.736   5.529   7.522  0.5720 -1.5553  0.8595
  750MOL0     H 3493   3.615   5.594   7.633  0.5727 -1.9746  0.6794
  750MOL0     H 3494   3.560   5.382   7.424 -0.5220  2.4891 -0.8209
  750MOL0     H 3495   3.443   5.439   7.557  0.1034  2.9101 -0.7942
  750MOL0     H 3496   3.726   5.187   7.751 -1.2362  0.9335  1.0843
  750MOL0     H 3497   3.579   5.474   7.059  0.1136 -3.0998 -1.6704
  750MOL0     H 3498   3.545   5.348   6.868  0.9513 -0.1447  1.0445
  750MOL0     H 3499   3.621   5.415   6.719  0.4670 -1.0961 -0.1873
  750MOL0     H 3500   3.687   5.276   6.795  2.9542  0.7165 -1.2229
  751MOL0     O 3501   6.483   6.994   0.014  0.5639  0.3520  0.1380
  751MOL0     C 3502   6.514   7.004   0.135  0.0500 -0.8534  0.4844
  751MOL0     O 3503   6.618   7.077   0.176  0.1467  0.4681 -0.4794
  751MOL0     C 3504   6.675   7.038   0.293  0.2874  0.3414 -0.2155
  751MOL0     C 3505   6.774   6.937   0.294 -0.5453  0.2815  0.2913
  751MOL0     C 3506   6.846   6.905   0.413  0.6148  0.5234  0.7384
  751MOL0     C 3507   6.803   6.962   0.533 -0.2559  0.5154 -0.2232
  751MOL0     O 3508   6.873   6.924   0.648 -0.5484  1.0621  0.4440
  751MOL0     C 3509   6.912   7.035   0.736 -0.1417  0.4129  0.3509
  751MOL0     C 3510   7.034   7.016   0.825  0.4619 -0.5120 -0.6263
  751MOL0     C 3511   7.167   7.030   0.753  0.5293 -0.2495 -0.4859
  751MOL0     C 3512   7.161   7.128   0.635 -0.3352 -1.2421  0.9981
  751MOL0     C 3513   7.297   7.116   0.568  0.3921 -0.7354  0.2242
  751MOL0     C 3514   7.431   7.150   0.642  0.4128 -0.0967 -0.3511
  751MOL0     C 3515   7.538   7.089   0.570  0.2240  0.6829  0.0903
  751MOL0     C 3516   7.579   6.956   0.622  0.2498  0.7655  0.3217
  751MOL0     N 3517   7.619   6.958   0.767  0.5462  0.4790  0.6117
  751MOL0     C 3518   7.563   6.887   0.876  0.6593 -0.1982  0.1248
  751MOL0     C 3519   7.633   6.940   0.977  0.3854 -0.1773  0.2619
  751MOL0     C 3520   7.604   6.911   1.119 -0.3342  0.7534 -0.7869
  751MOL0     C 3521   7.496   6.997   1.185 -0.0972  0.5739  0.2424
  751MOL0     C 3522   7.536   7.146   1.219  0.7061 -0.1562 -0.3847
  751MOL0     C 3523   7.477   7.186   1.354 -0.0443  0.0280 -1.2900
  751MOL0     O 3524   7.522   7.100   1.459  0.0953  0.3891  0.0052
  751MOL0     C 3525   7.592   7.159   1.554  0.4422 -0.2220 -0.9169
  751MOL0     C 3526   7.545   7.262   1.636  0.1967 -0.4632  0.0867
  751MOL0     C 3527   7.619   7.308   1.743 -0.5495  0.5125  0.5498
  751MOL0     C 3528   7.567   7.424   1.826  0.3194 -0.5982 -0.6994
  751MOL0     C 3529   7.750   7.249   1.765 -0.0097  0.2787 -0.1877
  751MOL0     C 3530   7.833   7.281   1.889  0.4201 -0.3536 -0.6868
  751MOL0     O 3531   7.960   7.280   1.877  0.1254  0.4188  0.0799
  751MOL0     C 3532   8.028   7.337   1.983 -0.6664  1.5981  0.2590
  751MOL0     C 3533   8.090   7.457   1.966 -0.0937 -0.0615  0.4144
  751MOL0     C 3534   8.153   7.514   2.083  0.6838  0.2656  0.4362
  751MOL0     C 3535   8.166   7.447   2.206 -0.0300 -0.5038  0.8272
  751MOL0     O 3536   8.212   7.507   2.316  0.0649  0.7063  0.0652
  751MOL0     C 3537   8.284   7.421   2.406 -0.2750 -0.5328  0.2014
  751MOL0     C 3538   8.367   7.513   2.491 -0.6266  0.9082  0.0024
  751MOL0     C 3539   8.293   7.584   2.601  0.8711 -0.4668 -0.0858
  751MOL0     C 3540   8.368   7.699   2.664  0.2286 -0.2984 -0.1907
  751MOL0     C 3541   8.278   7.813   2.728  0.8235 -0.8184  0.0965
  751MOL0     C 3542   8.360   7.919   2.807  1.2558  0.0193  0.3887
  751MOL0     C 3543   8.273   8.005   2.892  0.1967 -0.4204  0.6007
  751MOL0     C 3544   8.350   8.128   2.944 -0.2958  0.6327  0.3883
  751MOL0    Cl 3545   8.422   8.211   2.808 -0.1340 -0.0190 -0.3020
  751MOL0     C 3546   8.098   7.326   2.224  0.5287 -0.1139  0.2428
  751MOL0     C 3547   8.037   7.267   2.112  0.0087  0.0502 -0.4740
  751MOL0     O 3548   7.772   7.305   1.995 -0.1079  0.4085 -0.7946
  751MOL0     C 3549   7.796   7.142   1.689 -0.1549 -0.6363 -0.3191
  751MOL0     C 3550   7.712   7.099   1.585 -0.2157  0.0223  0.8416
  751MOL0     N 3551   7.725   7.040   0.939 -0.5208  0.7395  0.3007
  751MOL0     N 3552   7.722   7.044   0.811 -0.2815  0.4350  0.0539
  751MOL0     C 3553   6.690   7.037   0.539 -0.6621 -0.4346  0.1227
  751MOL0     C 3554   6.636   7.091   0.420  0.7020  0.1316 -1.1129
  751MOL0     C 3555   6.423   6.919   0.223 -0.0810  1.0407  0.4049
  751MOL0     C 3556   6.450   6.781   0.242  0.4790 -0.1835  0.0008
  751MOL0     C 3557   6.369   6.707   0.327  1.0937  0.8017 -0.3078
  751MOL0     C 3558   6.263   6.761   0.397 -0.1796  0.3001  1.0577
  751MOL0     O 3559   6.210   6.693   0.498  0.1505 -0.0362 -0.8095
  751MOL0     C 3560   6.213   6.764   0.624  0.9227 -0.6553 -0.3331
  751MOL0     C 3561   6.223   6.671   0.745 -0.0451 -0.0543  0.0873
  751MOL0     C 3562   6.365   6.599   0.748  0.1659 -0.4799  0.1753
  751MOL0     C 3563   6.381   6.484   0.854  1.3455  1.3929  0.1710
  751MOL0     C 3564   6.327   6.528   0.990  0.1339  1.6171  0.5056
  751MOL0     C 3565   6.309   6.577   1.104  0.2469  0.4654 -0.2630
  751MOL0     C 3566   6.226   6.895   0.354 -0.4309 -1.0093 -0.6688
  751MOL0     C 3567   6.302   6.978   0.268  0.1756 -0.7769 -0.6833
  751MOL0     C 3568   6.259   7.125   0.245 -0.2101  0.3312  0.1168
  751MOL0     H 3569   6.800   6.884   0.203  0.9417 -0.3130  1.0235
  751MOL0     H 3570   6.927   6.833   0.415  2.4294  2.4637  2.6327
  751MOL0     H 3571   6.822   7.034   0.798 -1.2737 -1.2712 -1.2152
  751MOL0     H 3572   6.909   7.131   0.683 -2.8271  1.2779  1.8894
  751MOL0     H 3573   7.032   7.097   0.899  1.5842 -1.9846  1.0983
  751MOL0     H 3574   7.017   6.922   0.879 -2.1202  0.0090 -0.3985
  751MOL0     H 3575   7.235   7.055   0.835 -0.2017 -2.2330  0.8075
  751MOL0     H 3576   7.199   6.931   0.719  0.3936 -0.4224 -0.1173
  751MOL0     H 3577   7.087   7.103   0.558 -0.2373 -0.2479  0.5659
  751MOL0     H 3578   7.156   7.232   0.668  1.1528 -1.3481  1.6350
  751MOL0     H 3579   7.299   7.182   0.481  0.1666  0.5695  1.1704
  751MOL0     H 3580   7.311   7.009   0.549 -0.5330 -1.1076  1.4714
  751MOL0     H 3581   7.446   7.258   0.636  3.8022 -0.4375 -0.1447
  751MOL0     H 3582   7.431   7.124   0.748  1.4476  2.7252  0.4289
  751MOL0     H 3583   7.625   7.155   0.580  0.7600  0.0943 -0.6180
  751MOL0     H 3584   7.516   7.085   0.463 -0.0677  1.4724  0.1114
  751MOL0     H 3585   7.499   6.883   0.608  2.7784 -2.6884  2.3681
  751MOL0     H 3586   7.650   6.904   0.558 -0.0995 -0.8919  1.2116
  751MOL0     H 3587   7.489   6.808   0.877  2.1823 -1.6827 -0.4693
  751MOL0     H 3588   7.693   6.917   1.182 -0.8091 -4.6185  0.9079
  751MOL0     H 3589   7.557   6.813   1.126 -2.2734  1.7401  1.4248
  751MOL0     H 3590   7.418   6.994   1.108  1.5847  0.0163 -1.5268
  751MOL0     H 3591   7.438   6.946   1.263 -1.5862 -0.7803 -1.6390
  751MOL0     H 3592   7.645   7.156   1.225  0.6505 -0.4388  2.4552
  751MOL0     H 3593   7.506   7.215   1.139 -0.8993  0.8250  1.0015
  751MOL0     H 3594   7.513   7.289   1.361  1.0606 -0.4611  2.3587
  751MOL0     H 3595   7.368   7.187   1.361  0.0452 -0.3009  2.7783
  751MOL0     H 3596   7.446   7.304   1.620  0.9697  1.5998  0.3993
  751MOL0     H 3597   7.535   7.384   1.922  1.2935 -2.1657 -0.9906
  751MOL0     H 3598   7.477   7.464   1.779  0.3772 -1.6357 -1.7532
  751MOL0     H 3599   7.627   7.513   1.846 -3.4394  2.1815 -0.6428
  751MOL0     H 3600   8.061   7.505   1.873 -1.4257  0.6491  1.1799
  751MOL0     H 3601   8.196   7.614   2.085  0.7320  0.2882 -0.8343
  751MOL0     H 3602   8.205   7.381   2.470 -1.2814  0.7366 -0.2070
  751MOL0     H 3603   8.343   7.348   2.348 -0.5507 -1.0588  0.5764
  751MOL0     H 3604   8.453   7.460   2.532 -0.6464 -0.2384 -1.3401
  751MOL0     H 3605   8.395   7.602   2.434 -3.2531  2.7771  1.4038
  751MOL0     H 3606   8.265   7.510   2.677 -0.3077  0.5286  0.4726
  751MOL0     H 3607   8.192   7.618   2.578  2.6791  4.8317 -1.4727
  751MOL0     H 3608   8.432   7.752   2.593 -0.9321  0.3550 -0.7697
  751MOL0     H 3609   8.424   7.648   2.743  1.2429 -0.7837 -1.1875
  751MOL0     H 3610   8.219   7.857   2.647 -1.9688 -2.1149  1.2940
  751MOL0     H 3611   8.201   7.769   2.793  1.7457  0.6844  2.3392
  751MOL0     H 3612   8.421   7.980   2.740 -0.6936  1.4331 -0.2022
  751MOL0     H 3613   8.423   7.867   2.880 -1.6713  0.4583  3.4695
  751MOL0     H 3614   8.240   7.948   2.979 -0.3256  2.0258  2.1107
  751MOL0     H 3615   8.199   8.035   2.817  0.5204 -1.6481 -0.2380
  751MOL0     H 3616   8.423   8.093   3.017 -0.2210  1.9857  0.9900
  751MOL0     H 3617   8.277   8.191   2.995 -1.2554  0.3140 -0.5509
  751MOL0     H 3618   8.081   7.277   2.319 -2.0550 -2.9126 -1.4514
  751MOL0     H 3619   7.978   7.177   2.129  1.1446 -0.5778  0.3559
  751MOL0     H 3620   7.887   7.092   1.724  0.3666  2.2028  3.0333
  751MOL0     H 3621   7.740   7.010   1.531 -1.1918 -0.8981  1.8100
  751MOL0     H 3622   6.668   7.078   0.637  1.9831 -1.9387  1.5004
  751MOL0     H 3623   6.555   7.163   0.422  0.3427 -0.2920  0.1146
  751MOL0     H 3624   6.546   6.747   0.203  1.7577  0.0927  2.6965
  751MOL0     H 3625   6.397   6.608   0.361  1.1982  0.9776  0.1374
  751MOL0     H 3626   6.305   6.823   0.634  1.1047 -0.4222 -2.8214
  751MOL0     H 3627   6.118   6.815   0.641 -0.5635 -3.5640  0.8750
  751MOL0     H 3628   6.141   6.599   0.735 -1.4104  1.6727 -2.0034
  751MOL0     H 3629   6.206   6.716   0.843 -0.3387 -1.7006  0.8265
  751MOL0     H 3630   6.373   6.545   0.653 -4.2744  1.5004 -1.6114
  751MOL0     H 3631   6.440   6.678   0.761  0.4357 -0.3256 -1.8736
  751MOL0     H 3632   6.483   6.447   0.869  0.7913  0.3913  1.6338
  751MOL0     H 3633   6.328   6.392   0.828 -0.0235  1.3770  2.7320
  751MOL0     H 3634   6.274   6.618   1.196 -1.0124 -0.9181 -0.0808
  751MOL0     H 3635   6.141   6.949   0.395 -0.2713 -0.6931 -0.7494
  751MOL0     H 3636   6.153   7.140   0.265 -0.0034  0.8652  0.8265
  751MOL0     H 3637   6.318   7.201   0.297 -2.8194  2.3379  0.3378
  751MOL0     H 3638   6.268   7.158   0.141 -2.8785  2.2248  0.3814
  752MOL0     O 3639   9.644  10.657   7.537 -0.0338  0.2892  0.3429
  752MOL0     C 3640   9.602  10.739   7.614 -0.1798 -0.4238  0.0154
  752MOL0     O 3641   9.548  10.709   7.738  0.5895  0.2737  0.5961
  752MOL0     C 3642   9.522  10.578   7.769  0.3460  0.3378 -1.0642
  752MOL0     C 3643   9.437  10.497   7.692  0.7087  0.1355  0.3563
  752MOL0     C 3644   9.389  10.371   7.739  0.5900  0.1178 -0.0352
  752MOL0     C 3645   9.433  10.328   7.864 -0.3285  0.5141 -0.5023
  752MOL0     O 3646   9.408  10.197   7.887 -0.2449  0.7456 -0.2646
  752MOL0     C 3647   9.505  10.133   7.973 -0.7472  0.6646  1.0483
  752MOL0     C 3648   9.475   9.985   7.966  0.1878 -0.2436 -0.1732
  752MOL0     C 3649   9.571   9.899   8.059 -0.3813 -0.2788 -0.8875
  752MOL0     C 3650   9.495   9.774   8.104 -0.4781 -0.3306  0.1992
  752MOL0     C 3651   9.477   9.675   7.978  0.5056 -0.2272 -0.3357
  752MOL0     C 3652   9.324   9.612   7.979  0.5391 -0.0886  0.3528
  752MOL0     C 3653   9.293   9.571   7.835  0.8122  0.9347  0.3481
  752MOL0     C 3654   9.343   9.424   7.804  0.2699  0.5952  0.0129
  752MOL0     N 3655   9.252   9.327   7.866  0.3264 -0.1442  0.2797
  752MOL0     C 3656   9.116   9.334   7.860  0.8630  0.0845  1.0653
  752MOL0     C 3657   9.074   9.236   7.946  0.3311 -0.3108  0.1095
  752MOL0     C 3658   8.938   9.195   7.966  0.3626 -0.0459  0.0974
  752MOL0     C 3659   8.854   9.173   7.844  0.4006 -0.9988  0.7316
  752MOL0     C 3660   8.925   9.087   7.748 -1.1317 -0.6748  0.2517
  752MOL0     C 3661   8.977   8.953   7.805  0.8489 -0.9002 -0.8460
  752MOL0     O 3662   8.864   8.903   7.869  1.0213  0.4363  0.0200
  752MOL0     C 3663   8.864   8.777   7.921 -0.3842  0.7861  0.1041
  752MOL0     C 3664   8.734   8.741   7.960 -0.5839  0.2285 -0.0213
  752MOL0     C 3665   8.726   8.614   8.020  0.1290  0.0236  0.1967
  752MOL0     C 3666   8.587   8.584   8.063 -0.1982  1.2678 -0.4789
  752MOL0     C 3667   8.836   8.526   8.040 -0.0680 -0.3536 -0.5382
  752MOL0     C 3668   8.820   8.397   8.105  0.3959  0.3439 -0.4033
  752MOL0     O 3669   8.706   8.338   8.088  0.2294 -0.1866  0.0965
  752MOL0     C 3670   8.673   8.229   8.160  0.2297 -0.1686 -0.3704
  752MOL0     C 3671   8.712   8.219   8.295 -0.1276  0.0756 -0.6820
  752MOL0     C 3672   8.683   8.098   8.347 -0.0939  0.6716 -0.2550
  752MOL0     C 3673   8.598   7.993   8.288  0.0952 -0.7873  0.0371
  752MOL0     O 3674   8.571   7.887   8.367  0.2380  0.5136 -0.7301
  752MOL0     C 3675   8.600   7.753   8.316  0.8327 -0.6190  0.2718
  752MOL0     C 3676   8.635   7.654   8.425  0.0163  0.8069 -0.7000
  752MOL0     C 3677   8.642   7.506   8.373  0.6575 -0.5173  0.6383
  752MOL0     C 3678   8.687   7.412   8.485 -0.3992 -0.6940  0.9813
  752MOL0     C 3679   8.669   7.264   8.452 -0.0026 -0.8035 -0.0826
  752MOL0     C 3680   8.563   7.208   8.550  1.0118  0.2329  0.4519
  752MOL0     C 3681   8.418   7.271   8.553 -0.7053  0.8805 -0.6757
  752MOL0     C 3682   8.343   7.264   8.421  0.2660  0.5905 -0.2167
  752MOL0    Cl 3683   8.198   7.379   8.432  0.4178  0.1732 -0.4162
  752MOL0     C 3684   8.563   8.007   8.157 -0.5479  0.0200 -0.9329
  752MOL0     C 3685   8.601   8.125   8.093  0.1562 -0.7472  0.8136
  752MOL0     O 3686   8.917   8.347   8.163  0.3279  0.1111 -0.3920
  752MOL0     C 3687   8.965   8.571   8.002 -0.1715 -0.1780 -0.1758
  752MOL0     C 3688   8.982   8.695   7.939 -0.2823 -0.4532 -1.0607
  752MOL0     N 3689   9.185   9.185   8.006  0.0641  0.2303  1.0885
  752MOL0     N 3690   9.287   9.240   7.961  0.2424  0.6537  0.6250
  752MOL0     C 3691   9.514  10.417   7.950  0.8257  0.7292 -0.6448
  752MOL0     C 3692   9.565  10.535   7.893  0.8413 -0.0343  0.0325
  752MOL0     C 3693   9.633  10.881   7.583 -0.7231 -0.5631 -0.3009
  752MOL0     C 3694   9.746  10.939   7.644  0.6947 -0.2924  0.4250
  752MOL0     C 3695   9.793  11.064   7.586 -0.2777  0.6567  0.6614
  752MOL0     C 3696   9.715  11.141   7.501  0.4811 -0.0743 -1.4959
  752MOL0     O 3697   9.756  11.259   7.463 -0.2040 -0.6007  0.0531
  752MOL0     C 3698   9.717  11.307   7.340  0.4843 -0.7651  0.9375
  752MOL0     C 3699   9.723  11.462   7.336 -0.4562 -0.1785 -0.2059
  752MOL0     C 3700   9.674  11.530   7.465  0.3760 -0.8018 -0.5572
  752MOL0     C 3701   9.696  11.680   7.453 -0.9252 -0.1460  0.3153
  752MOL0     C 3702   9.590  11.767   7.517 -0.6084  0.7024 -0.0794
  752MOL0     C 3703   9.502  11.827   7.569 -0.6969 -0.2461 -1.2139
  752MOL0     C 3704   9.599  11.074   7.455 -0.0989 -0.5148  0.2523
  752MOL0     C 3705   9.556  10.944   7.484  0.0400 -0.8937  0.7674
  752MOL0     C 3706   9.431  10.885   7.412  0.0744 -0.6964  0.3767
  752MOL0     H 3707   9.389  10.546   7.608  1.0338 -0.4968 -0.2053
  752MOL0     H 3708   9.339  10.305   7.668  2.1569  0.8693 -1.9127
  752MOL0     H 3709   9.493  10.166   8.076 -1.5950  0.2585  1.0896
  752MOL0     H 3710   9.607  10.148   7.934 -1.5795  2.3139 -0.6517
  752MOL0     H 3711   9.370   9.964   7.990 -0.0874 -0.0320 -1.1723
  752MOL0     H 3712   9.494   9.958   7.862  0.3842  3.1472 -1.1418
  752MOL0     H 3713   9.652   9.866   7.994 -1.3882 -3.2803 -0.7866
  752MOL0     H 3714   9.615   9.959   8.140  1.9881 -1.7315 -1.0132
  752MOL0     H 3715   9.560   9.734   8.183  3.1261  2.3234 -1.1423
  752MOL0     H 3716   9.405   9.805   8.159  0.1422  1.3056  0.3254
  752MOL0     H 3717   9.560   9.604   7.969 -0.0607 -1.3034  2.2121
  752MOL0     H 3718   9.480   9.735   7.887 -4.4032  0.8461 -0.0545
  752MOL0     H 3719   9.311   9.533   8.054 -1.5535  2.4151  2.8064
  752MOL0     H 3720   9.257   9.691   8.015  1.3652  0.8410 -0.1253
  752MOL0     H 3721   9.349   9.633   7.764  3.5365 -3.7907 -2.1265
  752MOL0     H 3722   9.185   9.572   7.821  0.6930  0.1104  1.1046
  752MOL0     H 3723   9.343   9.407   7.695  1.8843 -1.5937  0.2772
  752MOL0     H 3724   9.448   9.417   7.833  0.7447  2.2332 -1.1653
  752MOL0     H 3725   9.058   9.393   7.791  3.0601  0.4874 -0.5246
  752MOL0     H 3726   8.892   9.273   8.027 -0.9232  0.4947 -1.4929
  752MOL0     H 3727   8.940   9.101   8.022  3.5579  0.4150  0.9244
  752MOL0     H 3728   8.758   9.125   7.863  2.1475 -5.0370  0.3242
  752MOL0     H 3729   8.830   9.269   7.798 -0.5723 -1.2184  0.7622
  752MOL0     H 3730   8.848   9.071   7.672  0.7027 -0.9214 -1.6772
  752MOL0     H 3731   9.010   9.140   7.703 -1.3968  1.5670  2.2161
  752MOL0     H 3732   9.017   8.890   7.725  3.2539 -0.9095  0.2776
  752MOL0     H 3733   9.059   8.971   7.875 -0.1236  1.1728 -0.1589
  752MOL0     H 3734   8.646   8.804   7.958 -1.5184 -1.0378 -1.6683
  752MOL0     H 3735   8.523   8.671   8.084 -1.5324 -0.5019  4.0012
  752MOL0     H 3736   8.585   8.546   8.166  2.3225  1.0252 -0.4641
  752MOL0     H 3737   8.547   8.508   7.996  0.6078  0.7642 -0.4012
  752MOL0     H 3738   8.777   8.287   8.348 -0.6932  1.1249 -1.2893
  752MOL0     H 3739   8.730   8.067   8.441  0.0241  0.8085 -0.2695
  752MOL0     H 3740   8.508   7.717   8.268 -1.8461  3.3032  1.8955
  752MOL0     H 3741   8.672   7.748   8.235  2.2266  1.9700  1.2355
  752MOL0     H 3742   8.730   7.684   8.469 -0.9061  2.8372  0.0546
  752MOL0     H 3743   8.553   7.653   8.498  0.6359 -1.2443  0.0085
  752MOL0     H 3744   8.712   7.512   8.289  1.1822  0.5796  1.1253
  752MOL0     H 3745   8.549   7.485   8.321  1.7354  1.0456 -2.1527
  752MOL0     H 3746   8.638   7.446   8.576 -1.7601  2.7777 -0.8598
  752MOL0     H 3747   8.794   7.436   8.486 -0.8157  1.7001 -1.0553
  752MOL0     H 3748   8.631   7.249   8.351  2.0701  2.9807 -1.6351
  752MOL0     H 3749   8.761   7.205   8.460 -1.4839 -3.0702  1.6149
  752MOL0     H 3750   8.599   7.215   8.654 -1.8624  1.8626  1.4515
  752MOL0     H 3751   8.553   7.099   8.553 -0.3250  0.3262  3.8843
  752MOL0     H 3752   8.421   7.375   8.586  2.9536  0.1664  1.8378
  752MOL0     H 3753   8.365   7.214   8.630  0.9388  2.1793  1.5581
  752MOL0     H 3754   8.305   7.162   8.412  1.3270  0.2542 -1.0606
  752MOL0     H 3755   8.393   7.285   8.326 -1.0852  0.2197 -1.0426
  752MOL0     H 3756   8.508   7.933   8.100 -3.0378 -0.7691  2.1767
  752MOL0     H 3757   8.584   8.151   7.989  0.0062 -0.8597  0.8092
  752MOL0     H 3758   9.054   8.511   8.020  1.1563  1.6640 -0.3845
  752MOL0     H 3759   9.076   8.743   7.915  0.4957 -1.6595 -0.5139
  752MOL0     H 3760   9.562  10.401   8.046 -1.9768  0.7723  0.8660
  752MOL0     H 3761   9.607  10.610   7.960  1.3033  0.0138 -0.3088
  752MOL0     H 3762   9.815  10.889   7.711  0.0735  0.5382  1.7340
  752MOL0     H 3763   9.891  11.097   7.616  0.9542  0.9363 -3.1030
  752MOL0     H 3764   9.750  11.252   7.251 -4.2381  0.2447 -1.7364
  752MOL0     H 3765   9.609  11.294   7.341  0.2966 -0.5830 -3.0993
  752MOL0     H 3766   9.665  11.490   7.247  0.1802  0.9067 -0.2996
  752MOL0     H 3767   9.828  11.489   7.324 -0.5931  1.2336  1.4203
  752MOL0     H 3768   9.568  11.507   7.473  0.0755  0.9973  2.3855
  752MOL0     H 3769   9.733  11.497   7.551  3.6198  1.1499 -1.8190
  752MOL0     H 3770   9.710  11.704   7.347  0.3785  3.5374  1.1681
  752MOL0     H 3771   9.791  11.700   7.503 -0.1069 -0.6188 -0.9983
  752MOL0     H 3772   9.424  11.874   7.626  0.9165  0.2069  0.7180
  752MOL0     H 3773   9.540  11.123   7.378 -2.2107 -2.7126  0.3643
  752MOL0     H 3774   9.359  10.857   7.489 -0.9668  1.2150  0.1766
  752MOL0     H 3775   9.382  10.954   7.342  1.0264 -1.1208 -0.7420
  752MOL0     H 3776   9.453  10.795   7.354 -3.5118 -1.6566  0.2771
  753MOL0     O 3777   3.862   7.958   1.684 -0.2339  0.0759  0.4253
  753MOL0     C 3778   3.889   8.059   1.749  0.0077  0.6710  0.1895
  753MOL0     O 3779   3.909   8.061   1.882  0.5834  0.0007  0.0266
  753MOL0     C 3780   3.890   7.947   1.956 -0.2788  0.3548  1.8522
  753MOL0     C 3781   3.976   7.837   1.936  0.6683 -0.0684  1.1159
  753MOL0     C 3782   3.963   7.719   2.015  0.5765 -0.7890 -0.6466
  753MOL0     C 3783   3.847   7.707   2.094 -0.5192 -0.3054 -0.7600
  753MOL0     O 3784   3.833   7.578   2.137 -0.0874 -0.5016 -0.3206
  753MOL0     C 3785   3.728   7.543   2.233 -0.7450  0.9124  0.1429
  753MOL0     C 3786   3.751   7.398   2.278 -0.1006 -0.3702  0.3243
  753MOL0     C 3787   3.658   7.353   2.381  0.2529 -0.2632  0.6063
  753MOL0     C 3788   3.655   7.444   2.499  1.0696  0.0190 -0.0292
  753MOL0     C 3789   3.542   7.550   2.505 -0.4145  0.1515  0.2234
  753MOL0     C 3790   3.460   7.555   2.637 -0.4561 -0.5259 -0.2833
  753MOL0     C 3791   3.324   7.505   2.602 -0.0515  1.0894  0.3369
  753MOL0     C 3792   3.327   7.365   2.545  0.4395 -0.5324  0.0985
  753MOL0     N 3793   3.188   7.306   2.514  0.0254  0.6683  0.5556
  753MOL0     C 3794   3.172   7.219   2.407  0.0471  0.1961 -0.5023
  753MOL0     C 3795   3.037   7.213   2.395  0.0739 -0.2217  0.1001
  753MOL0     C 3796   2.963   7.161   2.277 -0.7014 -0.1383  0.4829
  753MOL0     C 3797   2.857   7.262   2.238 -0.1324  0.8117 -0.3387
  753MOL0     C 3798   2.782   7.201   2.117 -0.3354 -0.4660 -0.7245
  753MOL0     C 3799   2.697   7.319   2.049  0.6139 -0.4492 -0.6585
  753MOL0     O 3800   2.580   7.350   2.124  0.3138  0.4027 -0.5538
  753MOL0     C 3801   2.487   7.251   2.151 -0.0988 -0.4224 -1.1032
  753MOL0     C 3802   2.440   7.154   2.061  1.1440  0.1818  0.7930
  753MOL0     C 3803   2.330   7.072   2.087  0.2711  0.0434 -1.3547
  753MOL0     C 3804   2.292   6.970   1.979 -0.6999  0.2294  0.2026
  753MOL0     C 3805   2.257   7.095   2.210  0.5568  0.7094  0.4809
  753MOL0     C 3806   2.142   7.007   2.250 -1.4964  0.2763  0.4841
  753MOL0     O 3807   2.135   6.978   2.380  0.2866 -0.0330  0.4954
  753MOL0     C 3808   2.045   6.884   2.430 -0.1768 -0.1899  0.5463
  753MOL0     C 3809   2.039   6.751   2.398 -0.7027 -0.2135  0.9954
  753MOL0     C 3810   1.963   6.655   2.456  0.8308  0.7060  0.0981
  753MOL0     C 3811   1.874   6.695   2.552  0.3799  0.4415 -0.3700
  753MOL0     O 3812   1.791   6.605   2.619 -0.2067 -0.7062  0.1485
  753MOL0     C 3813   1.710   6.533   2.527 -0.3334 -0.0350  0.8212
  753MOL0     C 3814   1.603   6.436   2.585 -1.1669  0.0544 -0.0935
  753MOL0     C 3815   1.503   6.489   2.683  0.1839 -0.3971  0.2732
  753MOL0     C 3816   1.366   6.485   2.615 -0.4784 -0.9795 -0.3986
  753MOL0     C 3817   1.276   6.604   2.674 -0.1139 -0.1674  0.2376
  753MOL0     C 3818   1.228   6.553   2.813 -0.3319 -0.6604 -0.2278
  753MOL0     C 3819   1.212   6.678   2.911 -0.2805 -0.1998 -1.2044
  753MOL0     C 3820   1.120   6.649   3.023  1.0299  1.0350  0.3245
  753MOL0    Cl 3821   0.967   6.645   2.945 -0.5224  0.2684  0.0491
  753MOL0     C 3822   1.874   6.831   2.590  0.2769 -0.0788  0.4006
  753MOL0     C 3823   1.956   6.928   2.532 -0.1522 -0.1121 -0.5080
  753MOL0     O 3824   2.057   6.983   2.167  0.0265  0.4247 -0.5843
  753MOL0     C 3825   2.309   7.187   2.301 -0.6782 -0.3101 -0.0895
  753MOL0     C 3826   2.423   7.259   2.273 -0.4868 -0.5083  0.6967
  753MOL0     N 3827   2.978   7.274   2.505 -1.5843 -0.0179 -0.4347
  753MOL0     N 3828   3.067   7.345   2.564 -0.4863  1.3376 -0.0690
  753MOL0     C 3829   3.752   7.811   2.105 -0.1267  0.0979  0.7290
  753MOL0     C 3830   3.779   7.936   2.042 -0.8382  0.4591 -0.3241
  753MOL0     C 3831   3.911   8.187   1.689 -0.5105 -0.3487  0.1494
  753MOL0     C 3832   3.961   8.187   1.552  0.4651 -0.2033 -0.8713
  753MOL0     C 3833   3.990   8.301   1.486  0.1857 -0.5120 -0.4112
  753MOL0     C 3834   3.967   8.427   1.538  0.9415 -0.2130  0.4711
  753MOL0     O 3835   3.994   8.544   1.463 -0.1762 -0.2233  0.1104
  753MOL0     C 3836   4.026   8.675   1.522 -0.9794 -0.5532  0.0473
  753MOL0     C 3837   4.139   8.653   1.619  0.4564  0.3808 -0.6851
  753MOL0     C 3838   4.200   8.782   1.676  0.4033  0.2588 -0.9306
  753MOL0     C 3839   4.099   8.879   1.754 -0.2875  0.1383  0.4850
  753MOL0     C 3840   4.001   8.810   1.835 -0.2339  1.0551 -1.2363
  753MOL0     C 3841   3.914   8.780   1.915 -0.6687  0.1455  1.1977
  753MOL0     C 3842   3.911   8.432   1.664 -0.1163  0.6815 -0.8885
  753MOL0     C 3843   3.893   8.316   1.747  0.6113  0.6070 -0.7134
  753MOL0     C 3844   3.812   8.322   1.867  1.2453 -1.0986 -0.3657
  753MOL0     H 3845   4.060   7.859   1.872  2.3237 -2.3491  2.3380
  753MOL0     H 3846   4.029   7.634   2.007 -0.2113 -1.9262  2.9966
  753MOL0     H 3847   3.629   7.545   2.187 -0.2599 -3.2915 -1.5099
  753MOL0     H 3848   3.738   7.614   2.315 -0.1135  3.7170 -2.1922
  753MOL0     H 3849   3.759   7.335   2.189 -0.0126  0.2110 -0.0887
  753MOL0     H 3850   3.850   7.413   2.323  1.4011 -0.0050 -2.8265
  753MOL0     H 3851   3.560   7.325   2.343 -0.6540 -0.0796  2.6553
  753MOL0     H 3852   3.689   7.257   2.423 -1.0577 -1.7905 -1.6995
  753MOL0     H 3853   3.626   7.383   2.585 -1.1127 -1.1616 -1.4948
  753MOL0     H 3854   3.754   7.487   2.515  2.1646 -2.4472  0.3491
  753MOL0     H 3855   3.474   7.542   2.419 -1.9268  1.9744  1.1902
  753MOL0     H 3856   3.582   7.652   2.511 -1.8487  0.9313 -1.8556
  753MOL0     H 3857   3.502   7.488   2.712 -0.4556 -0.1019  0.0988
  753MOL0     H 3858   3.456   7.650   2.690 -2.0116 -0.9289  0.3980
  753MOL0     H 3859   3.283   7.574   2.528  3.8812  3.3798 -0.0255
  753MOL0     H 3860   3.255   7.509   2.687 -2.9876  2.6109 -1.9527
  753MOL0     H 3861   3.375   7.355   2.448  0.1349  0.3276 -0.1445
  753MOL0     H 3862   3.379   7.320   2.630 -1.2321  0.8926  1.9915
  753MOL0     H 3863   3.250   7.183   2.341  3.8618 -0.9596  4.0795
  753MOL0     H 3864   2.916   7.066   2.305  1.2991 -0.9231  1.3501
  753MOL0     H 3865   3.035   7.148   2.195 -1.0914  1.6779 -0.2151
  753MOL0     H 3866   2.797   7.296   2.323  3.3374  3.2944  1.4054
  753MOL0     H 3867   2.916   7.347   2.201  2.3960 -1.0059 -0.7227
  753MOL0     H 3868   2.857   7.180   2.040 -0.2427  1.4910 -1.2121
  753MOL0     H 3869   2.728   7.112   2.152  0.0995 -0.0391  1.1512
  753MOL0     H 3870   2.754   7.412   2.058 -0.3579  0.2344 -1.4565
  753MOL0     H 3871   2.672   7.303   1.944 -0.7647  2.3185 -0.8394
  753MOL0     H 3872   2.499   7.113   1.980 -1.6486 -0.3942 -1.0835
  753MOL0     H 3873   2.340   6.879   2.016 -0.5838  0.9715  1.9230
  753MOL0     H 3874   2.346   6.978   1.884 -1.3395  1.8731 -0.0493
  753MOL0     H 3875   2.185   6.952   1.962 -1.5183  0.0059  4.4841
  753MOL0     H 3876   2.103   6.716   2.319 -0.9001  0.3427  0.5808
  753MOL0     H 3877   1.980   6.551   2.428  2.0973  0.3797  1.9365
  753MOL0     H 3878   1.667   6.598   2.451 -0.6881  0.3902  1.3812
  753MOL0     H 3879   1.772   6.460   2.474 -1.9771 -0.5286 -0.5294
  753MOL0     H 3880   1.560   6.378   2.503 -1.7660 -1.9932  1.5715
  753MOL0     H 3881   1.660   6.358   2.636 -0.1419  1.2506  0.6547
  753MOL0     H 3882   1.536   6.592   2.697 -0.1800 -0.0030 -1.4796
  753MOL0     H 3883   1.496   6.433   2.777 -1.8972 -1.0064 -0.1826
  753MOL0     H 3884   1.310   6.394   2.636  0.7707 -2.1384 -1.9129
  753MOL0     H 3885   1.377   6.511   2.510  0.7963  2.4366  0.4216
  753MOL0     H 3886   1.342   6.690   2.684  2.0287 -1.1683 -3.3215
  753MOL0     H 3887   1.202   6.630   2.598  0.9139  2.5414  0.0758
  753MOL0     H 3888   1.302   6.483   2.853  0.7493  1.5852  2.0210
  753MOL0     H 3889   1.134   6.498   2.806 -0.8033 -0.2165  1.9121
  753MOL0     H 3890   1.184   6.764   2.850 -0.2467  0.1070 -0.7931
  753MOL0     H 3891   1.311   6.698   2.954 -1.1098 -0.0256  0.7553
  753MOL0     H 3892   1.124   6.730   3.097 -3.4200 -0.4410  2.5758
  753MOL0     H 3893   1.139   6.549   3.062  1.2903  0.7630 -0.4883
  753MOL0     H 3894   1.818   6.852   2.681  1.2832 -1.8341  1.4630
  753MOL0     H 3895   1.960   7.023   2.585  0.1518 -0.6520  0.4541
  753MOL0     H 3896   2.259   7.201   2.396 -1.1785  1.3267 -0.5613
  753MOL0     H 3897   2.444   7.327   2.355 -2.0237  1.7179 -0.6710
  753MOL0     H 3898   3.656   7.797   2.152 -0.2237  1.9598  1.1568
  753MOL0     H 3899   3.701   8.011   2.039 -1.7529 -0.4918 -0.9315
  753MOL0     H 3900   3.982   8.086   1.516  1.0254 -0.6951  0.7215
  753MOL0     H 3901   4.035   8.289   1.388  0.7250  0.8858 -0.3447
  753MOL0     H 3902   4.063   8.749   1.451 -0.0895  0.0316  1.0899
  753MOL0     H 3903   3.940   8.728   1.563  0.3520  1.3562  0.4903
  753MOL0     H 3904   4.216   8.603   1.560  0.9580  1.9391 -1.4249
  753MOL0     H 3905   4.108   8.587   1.700 -2.3334 -1.6913 -3.1952
  753MOL0     H 3906   4.269   8.754   1.756 -0.0250 -2.9272 -1.5253
  753MOL0     H 3907   4.250   8.836   1.596  2.7602 -0.5842 -0.0964
  753MOL0     H 3908   4.045   8.941   1.682  0.7164  0.9908  0.4481
  753MOL0     H 3909   4.154   8.943   1.822  0.2583 -0.1110  0.2847
  753MOL0     H 3910   3.850   8.780   2.001 -0.9006  0.9168  1.0404
  753MOL0     H 3911   3.893   8.521   1.723 -4.0910 -0.7559  0.4284
  753MOL0     H 3912   3.736   8.244   1.855  0.9694 -0.4292 -4.4292
  753MOL0     H 3913   3.861   8.321   1.965  3.0524  5.4556 -0.6747
  753MOL0     H 3914   3.756   8.417   1.869 -1.4442 -2.5891  1.1530
  754MOL0     O 3915  11.290   5.563  10.787  0.7431  0.1118 -0.1227
  754MOL0     C 3916  11.232   5.476  10.846  0.2757  0.1843 -0.1744
  754MOL0     O 3917  11.138   5.388  10.790  0.0852 -0.8369 -1.0707
  754MOL0     C 3918  11.068   5.417  10.680  0.4966  0.2594 -0.2507
  754MOL0     C 3919  11.091   5.515  10.586 -0.4465 -1.0892 -0.4907
  754MOL0     C 3920  11.029   5.514  10.457 -0.0776  0.0927 -0.7949
  754MOL0     C 3921  10.943   5.406  10.429  0.2636  0.0669  0.2647
  754MOL0     O 3922  10.877   5.413  10.307  0.3984  0.5230 -0.1650
  754MOL0     C 3923  10.827   5.289  10.253 -0.2560 -0.3089 -0.5784
  754MOL0     C 3924  10.782   5.322  10.109  0.3900 -0.0363 -0.1597
  754MOL0     C 3925  10.720   5.195  10.044  0.9129 -0.5784 -0.7131
  754MOL0     C 3926  10.662   5.248   9.911 -0.0647 -0.4202 -0.4844
  754MOL0     C 3927  10.647   5.121   9.816  0.3839 -1.0414 -0.6901
  754MOL0     C 3928  10.588   5.168   9.683 -0.3412  1.3540  0.7875
  754MOL0     C 3929  10.615   5.061   9.571  0.9821  0.0051 -0.1193
  754MOL0     C 3930  10.528   5.102   9.454 -0.5082  0.1500 -0.6337
  754MOL0     N 3931  10.557   5.245   9.404  0.6214 -0.3999 -0.6537
  754MOL0     C 3932  10.470   5.343   9.355  0.3485 -0.7568  0.1436
  754MOL0     C 3933  10.538   5.457   9.330  0.2301 -0.1187  0.1662
  754MOL0     C 3934  10.492   5.591   9.269  0.3563  0.5215  0.2917
  754MOL0     C 3935  10.368   5.560   9.177 -0.1150 -0.6241  0.3906
  754MOL0     C 3936  10.293   5.686   9.133  0.4877  0.2728  0.4597
  754MOL0     C 3937  10.158   5.672   9.047 -0.6250 -0.1009 -0.2278
  754MOL0     O 3938  10.106   5.807   9.012 -0.1987  0.2678 -0.3698
  754MOL0     C 3939   9.976   5.820   9.059 -0.5523 -0.8343 -0.2550
  754MOL0     C 3940   9.899   5.912   8.988 -0.5288  0.0933  0.2556
  754MOL0     C 3941   9.762   5.926   9.013 -0.6304  0.2625 -0.1767
  754MOL0     C 3942   9.676   6.021   8.920  0.2899 -0.2598  0.4535
  754MOL0     C 3943   9.696   5.854   9.116 -0.6542  0.3792 -0.0451
  754MOL0     C 3944   9.545   5.845   9.132 -0.2618  0.1176  0.1310
  754MOL0     O 3945   9.463   5.957   9.154 -0.0531  0.1805  0.9137
  754MOL0     C 3946   9.334   5.940   9.116  0.0575 -0.0743  0.8417
  754MOL0     C 3947   9.242   6.012   9.185 -0.7840 -0.6343 -0.0511
  754MOL0     C 3948   9.107   6.010   9.140  0.2740 -0.3698 -0.2769
  754MOL0     C 3949   9.064   5.943   9.033  0.6266  0.4694  0.4594
  754MOL0     O 3950   8.932   5.962   8.987  0.1488 -0.6821  0.0493
  754MOL0     C 3951   8.821   5.954   9.073  0.1169 -0.2382  0.5371
  754MOL0     C 3952   8.684   5.967   9.002 -0.9272  0.6404  0.6509
  754MOL0     C 3953   8.570   5.915   9.096  0.3322 -0.2060  0.7221
  754MOL0     C 3954   8.431   5.981   9.064  0.0634  0.0872 -0.3251
  754MOL0     C 3955   8.319   5.950   9.170  0.4687  0.4141  0.7030
  754MOL0     C 3956   8.341   6.015   9.300  0.6172 -0.4443 -0.2986
  754MOL0     C 3957   8.198   6.021   9.377 -0.2037 -1.1857  0.6993
  754MOL0     C 3958   8.142   5.902   9.450  0.6079 -0.0359  0.4381
  754MOL0    Cl 3959   8.229   5.873   9.606  0.4551 -0.0377  0.2566
  754MOL0     C 3960   9.159   5.874   8.956  0.5219 -0.8228 -0.8666
  754MOL0     C 3961   9.293   5.873   8.997  0.0849  0.5228  1.3324
  754MOL0     O 3962   9.510   5.733   9.162 -0.1402 -0.7579 -0.6288
  754MOL0     C 3963   9.773   5.774   9.194 -0.2441  0.2009  0.6956
  754MOL0     C 3964   9.914   5.767   9.167  0.5878 -0.6703 -0.5201
  754MOL0     N 3965  10.668   5.429   9.366 -0.1179 -0.5403  0.1243
  754MOL0     N 3966  10.683   5.304   9.394 -0.3525 -0.5022 -0.6239
  754MOL0     C 3967  10.916   5.309  10.523  0.4236  0.2483 -0.4071
  754MOL0     C 3968  10.992   5.309  10.645  0.8127  0.7213 -0.7744
  754MOL0     C 3969  11.275   5.442  10.979  0.2896  0.4922 -0.0437
  754MOL0     C 3970  11.179   5.388  11.063 -0.5104  0.0282 -0.4332
  754MOL0     C 3971  11.209   5.338  11.182 -0.0393  1.0200 -0.4821
  754MOL0     C 3972  11.341   5.351  11.234 -0.3022 -0.6995  0.9651
  754MOL0     O 3973  11.366   5.301  11.363  0.1440 -0.7785  0.4145
  754MOL0     C 3974  11.504   5.310  11.418 -0.0904 -0.5855 -0.7363
  754MOL0     C 3975  11.501   5.223  11.548 -1.8167 -0.0321 -0.0005
  754MOL0     C 3976  11.462   5.071  11.522 -0.2020  0.5854  0.1272
  754MOL0     C 3977  11.480   4.982  11.638 -0.8327 -0.6343 -0.5020
  754MOL0     C 3978  11.625   4.979  11.684 -0.6152  0.9620 -0.4646
  754MOL0     C 3979  11.740   4.973  11.721  0.0157 -0.7724  0.4298
  754MOL0     C 3980  11.441   5.413  11.158  0.3899  0.4571  0.3084
  754MOL0     C 3981  11.413   5.455  11.028  1.8198 -0.5223  0.4661
  754MOL0     C 3982  11.521   5.515  10.949  0.1209 -0.4493  0.3209
  754MOL0     H 3983  11.149   5.604  10.606 -0.5112 -0.6982 -1.9188
  754MOL0     H 3984  11.046   5.576  10.370 -0.5620 -0.1095 -1.0419
  754MOL0     H 3985  10.745   5.236  10.303  0.4611 -2.2677 -1.3868
  754MOL0     H 3986  10.915   5.224  10.249  2.5628  3.1555 -0.5690
  754MOL0     H 3987  10.715   5.409  10.116  3.2925  2.3472  0.0099
  754MOL0     H 3988  10.872   5.349  10.054  1.2435 -0.3583  1.0439
  754MOL0     H 3989  10.804   5.127  10.026 -0.5087 -1.9968 -2.3718
  754MOL0     H 3990  10.640   5.140  10.092 -2.7226  2.2457 -2.9974
  754MOL0     H 3991  10.564   5.293   9.932 -0.6891 -2.4937  1.5775
  754MOL0     H 3992  10.728   5.312   9.853 -1.7900  1.2322 -0.7331
  754MOL0     H 3993  10.567   5.061   9.859 -1.0262 -0.1876 -2.0430
  754MOL0     H 3994  10.742   5.068   9.800 -0.3283 -2.1810 -1.3088
  754MOL0     H 3995  10.480   5.186   9.689 -0.4538  0.8651  0.2980
  754MOL0     H 3996  10.649   5.254   9.655 -1.3293  1.6830 -0.4127
  754MOL0     H 3997  10.588   4.960   9.604 -3.1006  0.0091 -2.6745
  754MOL0     H 3998  10.720   5.061   9.542  0.6928 -2.2049 -1.4393
  754MOL0     H 3999  10.534   5.024   9.377 -3.6110 -2.5344  1.5533
  754MOL0     H 4000  10.424   5.091   9.486 -0.1013  1.4848  1.3557
  754MOL0     H 4001  10.364   5.330   9.333  0.6992 -1.2538 -1.4284
  754MOL0     H 4002  10.570   5.645   9.214  1.6072  1.0297  2.4590
  754MOL0     H 4003  10.463   5.654   9.354 -2.9507  1.3351 -1.2596
  754MOL0     H 4004  10.390   5.498   9.090  0.3926 -0.1897  0.2033
  754MOL0     H 4005  10.297   5.497   9.231  0.1559 -2.8812 -1.7554
  754MOL0     H 4006  10.261   5.730   9.228  1.8658  1.8289  0.2330
  754MOL0     H 4007  10.350   5.765   9.084 -1.6770  1.1513 -0.7841
  754MOL0     H 4008  10.190   5.604   8.967 -0.6901 -1.5428  0.9336
  754MOL0     H 4009  10.101   5.612   9.118  2.0359 -3.2810 -0.5364
  754MOL0     H 4010   9.938   5.955   8.897 -0.9259 -1.6236 -0.7696
  754MOL0     H 4011   9.588   5.965   8.887  1.9615 -2.3857 -0.6247
  754MOL0     H 4012   9.743   6.057   8.841  0.1531 -2.4489 -0.7318
  754MOL0     H 4013   9.639   6.106   8.978 -0.1198 -0.2138  0.1340
  754MOL0     H 4014   9.277   6.067   9.272  0.8404 -3.3576  1.1787
  754MOL0     H 4015   9.030   6.069   9.189  0.4605 -0.8307  0.6017
  754MOL0     H 4016   8.821   5.865   9.135 -0.8443  0.1886  1.1745
  754MOL0     H 4017   8.826   6.033   9.148 -2.4501 -0.6447  1.2354
  754MOL0     H 4018   8.666   6.070   8.973 -1.3419 -0.2576 -2.5953
  754MOL0     H 4019   8.673   5.908   8.911  2.3339  0.5057  0.2251
  754MOL0     H 4020   8.590   5.910   9.203  1.8104 -1.5345  0.4260
  754MOL0     H 4021   8.557   5.809   9.074  3.1732 -0.4674 -0.1647
  754MOL0     H 4022   8.392   5.936   8.973  0.4215  0.6563 -0.7718
  754MOL0     H 4023   8.439   6.090   9.052  3.5234 -0.0974 -0.7220
  754MOL0     H 4024   8.229   5.993   9.124  0.8778  0.4540 -0.0666
  754MOL0     H 4025   8.303   5.843   9.188 -0.3994  0.7872  2.3079
  754MOL0     H 4026   8.368   6.120   9.283 -1.3688 -0.1383 -1.9359
  754MOL0     H 4027   8.420   5.967   9.358  0.8679 -2.9371 -2.5562
  754MOL0     H 4028   8.121   6.052   9.306  3.9235 -0.2482 -3.9089
  754MOL0     H 4029   8.210   6.111   9.437 -2.1405  0.2110 -0.8602
  754MOL0     H 4030   8.138   5.802   9.406 -3.4334 -1.8562  4.1765
  754MOL0     H 4031   8.037   5.911   9.477  1.0637  0.7240  2.0773
  754MOL0     H 4032   9.133   5.825   8.862  4.4420 -3.2396 -0.9522
  754MOL0     H 4033   9.365   5.820   8.936  0.1092 -0.5271  2.2423
  754MOL0     H 4034   9.738   5.725   9.284 -1.5603 -2.5572 -1.1543
  754MOL0     H 4035   9.959   5.703   9.243 -1.8789 -0.6841  1.0352
  754MOL0     H 4036  10.861   5.217  10.505  1.1437 -0.6563  1.7406
  754MOL0     H 4037  10.967   5.225  10.709 -1.5181  0.0574 -2.4112
  754MOL0     H 4038  11.077   5.384  11.026 -0.2185  2.2675 -1.6991
  754MOL0     H 4039  11.144   5.287  11.253  0.8367 -0.3564 -0.6355
  754MOL0     H 4040  11.563   5.259  11.341  1.7039  0.3490 -0.0391
  754MOL0     H 4041  11.536   5.414  11.432  0.1017 -0.7084 -0.2699
  754MOL0     H 4042  11.440   5.268  11.627  0.6528  3.2741  0.1940
  754MOL0     H 4043  11.602   5.229  11.588 -1.0084  0.6083 -2.0578
  754MOL0     H 4044  11.354   5.068  11.505 -0.3291 -2.4865  0.8529
  754MOL0     H 4045  11.506   5.028  11.432  0.2684  0.6754  0.3163
  754MOL0     H 4046  11.445   4.881  11.618 -0.2373 -0.7528 -0.9749
  754MOL0     H 4047  11.438   5.032  11.726  3.0241  0.9056  0.6962
  754MOL0     H 4048  11.843   4.978  11.749 -0.8741 -2.2022  4.8348
  754MOL0     H 4049  11.545   5.409  11.190  0.9297  0.4964 -1.3424
  754MOL0     H 4050  11.525   5.624  10.958 -1.5813  0.0808 -3.5502
  754MOL0     H 4051  11.612   5.473  10.992 -0.4476 -0.3517  1.6791
  754MOL0     H 4052  11.509   5.487  10.844  1.7598 -0.7440  0.1927
  755MOL0     O 4053   7.917   7.430   7.265 -0.5840  0.2619  0.1508
  755MOL0     C 4054   7.945   7.496   7.362 -0.0024  0.1339  0.0817
  755MOL0     O 4055   7.931   7.447   7.491  0.1923  0.7166  0.2782
  755MOL0     C 4056   7.912   7.311   7.494 -0.8810 -0.2243 -0.3561
  755MOL0     C 4057   7.805   7.248   7.574 -0.3349  0.5769 -0.1932
  755MOL0     C 4058   7.801   7.104   7.601  0.2423  0.0091  0.5120
  755MOL0     C 4059   7.908   7.027   7.562  0.3399 -0.0408  0.2992
  755MOL0     O 4060   7.929   6.895   7.598  0.3351  0.1736 -0.0415
  755MOL0     C 4061   7.881   6.801   7.500 -0.4273  0.1672  0.1855
  755MOL0     C 4062   7.836   6.680   7.573  0.6733 -0.2183  0.3357
  755MOL0     C 4063   7.943   6.617   7.657  1.3898  0.0562 -0.0426
  755MOL0     C 4064   8.049   6.563   7.567  0.4963 -0.0809 -0.3178
  755MOL0     C 4065   8.152   6.468   7.642  0.2984 -0.6891 -0.9927
  755MOL0     C 4066   8.203   6.527   7.776 -0.5859 -0.3857  0.6877
  755MOL0     C 4067   8.300   6.648   7.752  0.8127 -1.2400  1.0738
  755MOL0     C 4068   8.229   6.780   7.804 -0.7591 -0.3408  0.4589
  755MOL0     N 4069   8.161   6.778   7.930 -0.2213  0.6972  0.2832
  755MOL0     C 4070   8.066   6.874   7.972  1.0204  0.2278 -0.2792
  755MOL0     C 4071   8.021   6.840   8.093 -0.4464  0.4681 -0.2986
  755MOL0     C 4072   7.930   6.926   8.173  1.2127  0.6649  0.8090
  755MOL0     C 4073   7.991   7.058   8.215 -0.3532 -0.1794 -0.3982
  755MOL0     C 4074   7.888   7.135   8.301  0.3530 -0.4694 -0.5034
  755MOL0     C 4075   7.788   7.220   8.206  0.5358  0.1520  1.0699
  755MOL0     O 4076   7.840   7.298   8.097 -0.8017 -0.4587 -0.6679
  755MOL0     C 4077   7.892   7.422   8.117  0.0027 -0.3498 -0.4050
  755MOL0     C 4078   7.928   7.484   8.239  0.5060 -1.4038  0.3501
  755MOL0     C 4079   7.981   7.622   8.242  1.1912  0.3053  0.6279
  755MOL0     C 4080   8.008   7.669   8.377 -0.4481 -0.6351 -0.4962
  755MOL0     C 4081   7.989   7.691   8.120 -0.6603 -0.0010 -0.2113
  755MOL0     C 4082   8.057   7.826   8.107  1.1772 -0.5761 -0.2709
  755MOL0     O 4083   8.025   7.918   8.206  0.3253  0.2860  0.9643
  755MOL0     C 4084   8.050   8.049   8.175 -0.6980 -0.9247 -0.0691
  755MOL0     C 4085   8.178   8.093   8.214  0.0872 -1.0926 -0.0084
  755MOL0     C 4086   8.233   8.223   8.175 -0.2378  0.8084  0.2100
  755MOL0     C 4087   8.144   8.318   8.114  1.2991  0.2846 -0.6086
  755MOL0     O 4088   8.171   8.455   8.104  0.0519  0.2416 -0.5196
  755MOL0     C 4089   8.084   8.554   8.062  0.5551  0.4006  1.2770
  755MOL0     C 4090   8.155   8.693   8.075 -0.3405 -0.4056 -0.5781
  755MOL0     C 4091   8.063   8.804   8.033  0.6139 -1.6899 -0.7663
  755MOL0     C 4092   8.131   8.939   8.060  0.5938 -0.3426 -0.3131
  755MOL0     C 4093   8.052   9.061   8.033  0.4585 -0.8052  0.4353
  755MOL0     C 4094   8.017   9.080   7.882  0.0382  0.2076 -0.3058
  755MOL0     C 4095   8.089   9.190   7.815 -0.3268  0.0037 -0.7066
  755MOL0     C 4096   8.094   9.181   7.667  0.3815  0.2480  0.5802
  755MOL0    Cl 4097   7.947   9.268   7.599  0.9452  0.2453 -0.3842
  755MOL0     C 4098   8.009   8.274   8.086  0.1857  1.0856 -0.9998
  755MOL0     C 4099   7.970   8.142   8.112  0.1684 -0.4332 -0.4900
  755MOL0     O 4100   8.148   7.839   8.027  0.0240  0.1366  0.0309
  755MOL0     C 4101   7.943   7.639   8.002  0.3774 -0.3949 -0.5813
  755MOL0     C 4102   7.890   7.502   8.002 -0.4453  0.2429  0.3176
  755MOL0     N 4103   8.104   6.741   8.143  0.2133  0.4508  0.6253
  755MOL0     N 4104   8.180   6.709   8.044 -0.1531  0.4681 -0.1448
  755MOL0     C 4105   8.016   7.090   7.486 -0.2434  0.6291  0.2122
  755MOL0     C 4106   8.007   7.222   7.447 -0.0598 -1.5388  0.5207
  755MOL0     C 4107   7.983   7.635   7.349  0.6264 -1.8641  0.5033
  755MOL0     C 4108   7.931   7.701   7.233 -0.5197 -0.0520  0.4138
  755MOL0     C 4109   7.961   7.840   7.223  0.6992 -0.0399 -0.0572
  755MOL0     C 4110   8.049   7.910   7.310  0.9104 -0.1041  0.3293
  755MOL0     O 4111   8.066   8.043   7.280 -0.0358 -0.4893  0.3789
  755MOL0     C 4112   8.142   8.131   7.364  0.8090 -0.0075 -0.2773
  755MOL0     C 4113   8.255   8.189   7.281  0.6364  0.1268  0.0990
  755MOL0     C 4114   8.330   8.094   7.180  0.6063  0.3437 -0.1920
  755MOL0     C 4115   8.418   7.998   7.269 -0.3645  0.4982  0.0760
  755MOL0     C 4116   8.413   7.858   7.211 -0.0988  0.0753 -0.0085
  755MOL0     C 4117   8.420   7.736   7.172  0.7869 -0.5863 -0.4269
  755MOL0     C 4118   8.098   7.841   7.423 -0.2218 -0.7344 -0.3011
  755MOL0     C 4119   8.073   7.702   7.439 -0.3456 -0.4862 -0.2102
  755MOL0     C 4120   8.138   7.642   7.559  0.0128  0.1218 -0.3311
  755MOL0     H 4121   7.731   7.317   7.612 -0.8830 -0.5721  0.8976
  755MOL0     H 4122   7.720   7.065   7.662  1.5582  1.2585  3.2298
  755MOL0     H 4123   7.958   6.768   7.431 -1.0074  4.0915 -2.6344
  755MOL0     H 4124   7.799   6.855   7.453 -0.8924  1.5221  2.3962
  755MOL0     H 4125   7.751   6.708   7.636  0.0333 -3.7119  1.2607
  755MOL0     H 4126   7.797   6.603   7.506 -0.5993 -0.6610  1.5318
  755MOL0     H 4127   7.984   6.691   7.727  1.8562  0.0561 -0.3069
  755MOL0     H 4128   7.908   6.537   7.722  1.0221  1.0646  1.0263
  755MOL0     H 4129   8.005   6.514   7.480 -3.3153  1.4318  0.5386
  755MOL0     H 4130   8.106   6.646   7.523  0.3524  1.4871  2.2109
  755MOL0     H 4131   8.240   6.428   7.590  0.6524 -4.8643  2.2569
  755MOL0     H 4132   8.094   6.379   7.666 -3.3068  1.7315  0.0574
  755MOL0     H 4133   8.120   6.539   7.847 -2.0246 -0.9278 -0.8480
  755MOL0     H 4134   8.269   6.447   7.812  4.7686  3.5477  0.8718
  755MOL0     H 4135   8.331   6.659   7.648 -0.6177  0.5320  0.7720
  755MOL0     H 4136   8.393   6.633   7.808 -0.5973  2.3557  4.9215
  755MOL0     H 4137   8.306   6.858   7.807 -0.5542 -0.1825 -3.3625
  755MOL0     H 4138   8.155   6.813   7.730 -1.1147 -0.4393  0.7656
  755MOL0     H 4139   8.031   6.959   7.915 -2.2153 -2.0443 -1.9932
  755MOL0     H 4140   7.902   6.871   8.263 -0.6824  2.8691  1.6862
  755MOL0     H 4141   7.833   6.936   8.124 -0.7298  0.1539  4.2471
  755MOL0     H 4142   8.086   7.034   8.264 -0.1169  1.5452  0.0589
  755MOL0     H 4143   8.018   7.119   8.128  1.0320  1.7576  1.2838
  755MOL0     H 4144   7.832   7.068   8.366 -0.5689  1.3654  0.6816
  755MOL0     H 4145   7.936   7.208   8.367  0.6439 -0.9102 -0.2207
  755MOL0     H 4146   7.721   7.149   8.156  0.3408  1.5447 -0.7174
  755MOL0     H 4147   7.732   7.282   8.277  0.0811  0.4320  0.4716
  755MOL0     H 4148   7.921   7.424   8.330  0.5988 -0.8365  0.7402
  755MOL0     H 4149   7.930   7.743   8.399  1.0411  0.3261  2.0555
  755MOL0     H 4150   8.102   7.724   8.391 -1.8892  2.1629 -1.1298
  755MOL0     H 4151   8.000   7.583   8.445  0.2689 -0.4937 -0.2199
  755MOL0     H 4152   8.226   8.009   8.264 -1.3280 -2.4262 -0.8077
  755MOL0     H 4153   8.335   8.252   8.200  0.9573 -1.0572 -2.1192
  755MOL0     H 4154   8.070   8.520   7.959 -0.1914 -4.3842  2.6683
  755MOL0     H 4155   7.988   8.542   8.114 -1.4766 -0.1399 -2.2566
  755MOL0     H 4156   8.205   8.702   8.172 -0.1838 -0.1694 -0.6816
  755MOL0     H 4157   8.245   8.686   8.014  1.1172 -0.7426  1.4980
  755MOL0     H 4158   7.968   8.802   8.088 -0.0184  1.3603 -1.5217
  755MOL0     H 4159   8.044   8.788   7.927  3.7366 -0.6244 -1.5965
  755MOL0     H 4160   8.224   8.940   8.002  0.6998 -1.6717 -0.1924
  755MOL0     H 4161   8.166   8.945   8.164  0.6892 -1.3764 -0.2730
  755MOL0     H 4162   7.969   9.071   8.103  1.4742  1.1801  1.4467
  755MOL0     H 4163   8.115   9.146   8.062 -1.2409  0.2092  1.2700
  755MOL0     H 4164   7.911   9.085   7.858  0.1315  2.2543 -0.4925
  755MOL0     H 4165   8.044   8.989   7.827  2.0713  0.1092  0.7495
  755MOL0     H 4166   8.196   9.188   7.841 -0.3053  0.8181 -0.6957
  755MOL0     H 4167   8.045   9.285   7.846 -2.5468 -0.9581 -0.7368
  755MOL0     H 4168   8.100   9.078   7.630 -4.9798  0.0559 -0.5543
  755MOL0     H 4169   8.188   9.229   7.637  2.1742 -2.0542  2.1314
  755MOL0     H 4170   7.933   8.330   8.032 -1.9519 -0.7960 -0.0918
  755MOL0     H 4171   7.869   8.130   8.075  0.2999  1.6763 -1.6539
  755MOL0     H 4172   7.940   7.713   7.922  4.2553 -0.2486 -0.7770
  755MOL0     H 4173   7.866   7.460   7.905 -2.0614  2.7560 -0.4694
  755MOL0     H 4174   8.091   7.016   7.462 -1.3197  0.0960 -1.7278
  755MOL0     H 4175   8.087   7.267   7.388  0.9698 -1.4520  1.9478
  755MOL0     H 4176   7.857   7.657   7.167 -0.3085 -0.9471  0.7619
  755MOL0     H 4177   7.904   7.895   7.149 -1.3147  1.8732  2.6813
  755MOL0     H 4178   8.069   8.208   7.392 -0.6505 -1.7176  0.8214
  755MOL0     H 4179   8.179   8.082   7.454 -2.3432  1.0595  1.7732
  755MOL0     H 4180   8.331   8.238   7.343  1.4110  1.8134 -2.0692
  755MOL0     H 4181   8.190   8.264   7.234  1.7111  0.9819 -0.0703
  755MOL0     H 4182   8.264   8.035   7.116 -0.5786  0.0542  1.2261
  755MOL0     H 4183   8.391   8.155   7.113 -0.8066  3.4080  1.0770
  755MOL0     H 4184   8.372   8.001   7.368 -1.1973  5.5532 -0.1929
  755MOL0     H 4185   8.524   8.022   7.282 -0.4552  0.5379  0.8074
  755MOL0     H 4186   8.435   7.637   7.133  0.8961 -1.8083  2.4052
  755MOL0     H 4187   8.159   7.896   7.493  1.7379 -3.0725 -0.0550
  755MOL0     H 4188   8.247   7.650   7.550 -0.0269 -0.2062 -1.1199
  755MOL0     H 4189   8.092   7.682   7.650  0.0276  1.2370 -0.7966
  755MOL0     H 4190   8.127   7.534   7.576  0.6181 -0.1207 -1.3863
  756MOL0     O 4191   9.374   6.019   0.798 -0.1279  0.4413 -0.2436
  756MOL0     C 4192   9.268   5.983   0.762 -0.6176  0.0897 -0.1073
  756MOL0     O 4193   9.179   6.057   0.679 -0.0029 -0.1171  0.2103
  756MOL0     C 4194   9.234   6.174   0.626  0.1159  0.4375  1.0404
  756MOL0     C 4195   9.203   6.293   0.675  0.4208 -0.4601  0.1871
  756MOL0     C 4196   9.250   6.418   0.624 -0.0377  0.2460  0.4763
  756MOL0     C 4197   9.304   6.420   0.498  0.0923  0.2084  0.3010
  756MOL0     O 4198   9.321   6.540   0.442 -0.7973  1.1336 -0.0854
  756MOL0     C 4199   9.424   6.540   0.346 -0.0415  0.6423 -0.4870
  756MOL0     C 4200   9.443   6.684   0.297 -0.0370 -0.3273  0.1492
  756MOL0     C 4201   9.492   6.685   0.148  0.2896 -0.3240  0.8295
  756MOL0     C 4202   9.633   6.614   0.129 -0.0702  0.5306 -0.6902
  756MOL0     C 4203   9.658   6.607  -0.031  0.7857  0.0357  0.6331
  756MOL0     C 4204   9.783   6.523  -0.064 -0.6341 -0.2641  0.2008
  756MOL0     C 4205   9.848   6.534  -0.203  1.2089 -0.6589 -0.4391
  756MOL0     C 4206   9.985   6.460  -0.198  0.1563  0.2233  0.4828
  756MOL0     N 4207  10.087   6.557  -0.161 -0.8536  0.1304  0.5218
  756MOL0     C 4208  10.160   6.624  -0.249  0.9254 -1.1494  0.6112
  756MOL0     C 4209  10.269   6.676  -0.174 -0.6523  0.2872  0.3780
  756MOL0     C 4210  10.383   6.767  -0.212 -0.4520 -0.6194 -0.1552
  756MOL0     C 4211  10.337   6.879  -0.315 -0.1898  1.0850  0.5390
  756MOL0     C 4212  10.268   6.989  -0.231 -0.7354  0.2917  0.3817
  756MOL0     C 4213  10.369   7.099  -0.179 -0.0016 -1.5573  0.0397
  756MOL0     O 4214  10.409   7.050  -0.049  0.3887 -0.4845  0.7928
  756MOL0     C 4215  10.466   7.139   0.046  0.1568 -0.1585 -1.2008
  756MOL0     C 4216  10.564   7.092   0.135  0.3436  0.0195 -0.3821
  756MOL0     C 4217  10.640   7.172   0.219  0.1406  0.2520 -0.6263
  756MOL0     C 4218  10.733   7.100   0.313 -0.2554  0.1387  0.4000
  756MOL0     C 4219  10.604   7.302   0.223  0.0457 -0.2807  0.1378
  756MOL0     C 4220  10.650   7.380   0.330  0.7317 -0.1696 -0.8021
  756MOL0     O 4221  10.615   7.347   0.457 -0.1808 -0.4095 -0.7728
  756MOL0     C 4222  10.639   7.449   0.546  0.7523 -0.3482 -0.6602
  756MOL0     C 4223  10.561   7.559   0.567  0.6655 -0.0086 -0.9087
  756MOL0     C 4224  10.592   7.657   0.662  0.1171  0.0940 -0.1637
  756MOL0     C 4225  10.707   7.657   0.745  0.4761  0.0894  0.6204
  756MOL0     O 4226  10.747   7.735   0.850  0.4479 -0.7352 -0.4680
  756MOL0     C 4227  10.664   7.850   0.881 -1.0125 -1.6847 -0.0681
  756MOL0     C 4228  10.571   7.822   1.003  0.0882 -0.5335  1.2744
  756MOL0     C 4229  10.451   7.744   0.953 -0.3084 -0.4126 -0.3244
  756MOL0     C 4230  10.365   7.705   1.080 -0.1801  0.3745 -0.0457
  756MOL0     C 4231  10.247   7.613   1.062 -0.1906 -0.7740  0.0211
  756MOL0     C 4232  10.132   7.675   0.971 -0.2255  0.5984 -0.3050
  756MOL0     C 4233  10.055   7.793   1.040 -0.4853  0.3332 -0.8746
  756MOL0     C 4234   9.959   7.876   0.939  0.3588  0.5649 -1.4273
  756MOL0    Cl 4235  10.032   7.971   0.811 -0.0864  0.2556 -0.2908
  756MOL0     C 4236  10.791   7.555   0.714  0.2269  0.1358 -0.1969
  756MOL0     C 4237  10.760   7.458   0.617 -0.3040 -0.5951  0.6246
  756MOL0     O 4238  10.704   7.489   0.298  0.7906  0.8684  0.6834
  756MOL0     C 4239  10.511   7.354   0.136 -0.5890 -0.8455 -0.1154
  756MOL0     C 4240  10.450   7.274   0.042  0.1829 -1.4235  0.5596
  756MOL0     N 4241  10.247   6.637  -0.042 -0.0209 -0.2311 -0.3195
  756MOL0     N 4242  10.134   6.582  -0.037  0.1723  0.0871  0.3559
  756MOL0     C 4243   9.329   6.294   0.439 -0.3593  0.9530  1.0272
  756MOL0     C 4244   9.294   6.168   0.495 -0.7251 -0.1770 -0.7959
  756MOL0     C 4245   9.230   5.841   0.791 -0.4100  0.7582 -0.3246
  756MOL0     C 4246   9.115   5.790   0.718  0.1292  0.7605 -0.1629
  756MOL0     C 4247   9.045   5.667   0.758 -1.2055 -0.1002  0.5863
  756MOL0     C 4248   9.084   5.602   0.869 -0.1789 -0.5966  0.2127
  756MOL0     O 4249   9.008   5.490   0.899  0.3058  0.2495 -0.4300
  756MOL0     C 4250   9.029   5.406   1.018  1.1884 -0.0384  0.1805
  756MOL0     C 4251   8.941   5.457   1.132 -0.5313 -0.2946 -0.2986
  756MOL0     C 4252   8.981   5.407   1.266  1.1869  0.0734  0.3900
  756MOL0     C 4253   8.882   5.441   1.383 -1.4925  0.0735  0.8405
  756MOL0     C 4254   8.899   5.390   1.514 -0.3312  0.3010 -0.1295
  756MOL0     C 4255   8.916   5.367   1.628 -0.3457 -0.3475  0.8938
  756MOL0     C 4256   9.197   5.656   0.942  0.9615  0.8967 -0.1104
  756MOL0     C 4257   9.273   5.760   0.900 -0.2963 -0.1143 -0.6233
  756MOL0     C 4258   9.397   5.789   0.972 -0.0517  0.2292 -1.1013
  756MOL0     H 4259   9.127   6.288   0.752 -2.6172  2.5842 -2.3015
  756MOL0     H 4260   9.216   6.509   0.673  0.2557  0.3720  0.4485
  756MOL0     H 4261   9.399   6.489   0.252 -0.0468 -0.0840 -0.0998
  756MOL0     H 4262   9.519   6.492   0.371 -0.6508 -0.5395 -0.3521
  756MOL0     H 4263   9.342   6.726   0.308 -1.2038 -2.6424 -0.9121
  756MOL0     H 4264   9.520   6.727   0.361  2.1587 -0.3124 -2.3512
  756MOL0     H 4265   9.417   6.636   0.084  1.2075 -0.1581 -0.4086
  756MOL0     H 4266   9.502   6.789   0.117 -2.7384 -0.1059  0.2210
  756MOL0     H 4267   9.713   6.661   0.188 -1.6560 -0.1498  2.2070
  756MOL0     H 4268   9.627   6.512   0.166 -3.2498  0.1675 -1.9277
  756MOL0     H 4269   9.663   6.709  -0.070  2.0868 -0.4117 -0.4588
  756MOL0     H 4270   9.573   6.551  -0.071  0.2461  0.7546  0.7709
  756MOL0     H 4271   9.849   6.566   0.012 -2.1248  1.9261  0.3469
  756MOL0     H 4272   9.767   6.417  -0.045  0.1531 -0.6310 -1.0434
  756MOL0     H 4273   9.866   6.638  -0.229 -3.7931  0.4996 -0.4042
  756MOL0     H 4274   9.775   6.492  -0.273  1.3064  0.8923 -1.5198
  756MOL0     H 4275   9.981   6.377  -0.126 -0.2219 -0.8358 -0.7200
  756MOL0     H 4276  10.008   6.426  -0.299  1.1784 -0.1040  0.8091
  756MOL0     H 4277  10.152   6.629  -0.357  0.0533 -1.7278  0.6439
  756MOL0     H 4278  10.460   6.717  -0.272 -0.3905  1.8056 -2.2478
  756MOL0     H 4279  10.431   6.824  -0.132 -2.1142  3.3215 -1.6922
  756MOL0     H 4280  10.418   6.931  -0.368  0.5783  1.1999  1.7873
  756MOL0     H 4281  10.273   6.839  -0.394 -0.7040  4.0637 -0.7052
  756MOL0     H 4282  10.209   7.042  -0.306  3.8539 -0.3611 -4.2572
  756MOL0     H 4283  10.207   6.945  -0.152 -1.0222  0.6249  0.3471
  756MOL0     H 4284  10.447   7.125  -0.250  1.1389 -1.8916  1.1245
  756MOL0     H 4285  10.300   7.181  -0.154 -2.7199 -3.9694  1.0560
  756MOL0     H 4286  10.588   6.986   0.133  2.2025  0.4004 -2.6580
  756MOL0     H 4287  10.784   7.162   0.387 -1.2405  1.1789  0.2250
  756MOL0     H 4288  10.810   7.058   0.248 -1.9913 -0.0393 -1.6495
  756MOL0     H 4289  10.675   7.014   0.348  1.0365 -2.2176 -2.7256
  756MOL0     H 4290  10.469   7.565   0.510  0.5913  1.7816 -0.6466
  756MOL0     H 4291  10.513   7.731   0.664  0.3312  0.5161 -3.1230
  756MOL0     H 4292  10.732   7.934   0.901 -1.8272 -0.2495 -2.7519
  756MOL0     H 4293  10.603   7.890   0.799 -0.7268  0.4175  0.6661
  756MOL0     H 4294  10.639   7.800   1.086  1.1761  2.3008  1.2455
  756MOL0     H 4295  10.541   7.922   1.037  1.5676  0.1407  0.6833
  756MOL0     H 4296  10.468   7.645   0.910  1.8601  0.6060 -2.0606
  756MOL0     H 4297  10.392   7.796   0.876 -1.9537  1.9828  2.3594
  756MOL0     H 4298  10.329   7.801   1.117  3.4533  1.5938  0.7160
  756MOL0     H 4299  10.427   7.648   1.150 -1.9471 -0.0716  1.2474
  756MOL0     H 4300  10.270   7.518   1.014 -0.0499 -0.1272 -1.2365
  756MOL0     H 4301  10.199   7.602   1.160 -0.8942  0.0693 -0.2155
  756MOL0     H 4302  10.062   7.595   0.946 -1.4678  1.2256  0.9663
  756MOL0     H 4303  10.165   7.713   0.874  1.0520 -0.9951 -0.5334
  756MOL0     H 4304  10.119   7.866   1.091  0.0094 -0.3712 -0.4727
  756MOL0     H 4305   9.992   7.758   1.122  0.1691  3.5300  1.1582
  756MOL0     H 4306   9.909   7.946   1.007 -1.8090 -0.1233 -2.2445
  756MOL0     H 4307   9.883   7.801   0.918 -0.2591 -0.5438  3.4690
  756MOL0     H 4308  10.885   7.560   0.769 -1.2451  0.9728  2.4004
  756MOL0     H 4309  10.836   7.380   0.612  0.7916  0.4876 -0.3247
  756MOL0     H 4310  10.476   7.457   0.144 -0.2024 -0.8744  2.6976
  756MOL0     H 4311  10.381   7.315  -0.031 -0.6725 -1.9515  1.0555
  756MOL0     H 4312   9.360   6.288   0.335 -0.4064  1.2713  0.9939
  756MOL0     H 4313   9.291   6.075   0.439 -0.9101 -1.5221  1.3291
  756MOL0     H 4314   9.074   5.837   0.629  1.4617 -3.3833 -3.2554
  756MOL0     H 4315   8.960   5.645   0.695 -0.6910  1.2415 -0.6218
  756MOL0     H 4316   9.015   5.298   1.004  4.2013 -0.8331  2.3725
  756MOL0     H 4317   9.131   5.412   1.057  0.9765 -0.7253  0.8830
  756MOL0     H 4318   8.835   5.449   1.106 -0.2118  1.2305 -2.2797
  756MOL0     H 4319   8.966   5.563   1.144 -3.6679  0.2508  4.0914
  756MOL0     H 4320   8.993   5.299   1.270  1.6739  0.1514  1.9607
  756MOL0     H 4321   9.082   5.442   1.291  1.1462 -0.1782  0.9406
  756MOL0     H 4322   8.781   5.412   1.350 -0.0911 -3.0892 -1.1224
  756MOL0     H 4323   8.886   5.550   1.391 -1.0002  0.3511 -2.0879
  756MOL0     H 4324   8.912   5.340   1.731  0.3784 -1.1648  0.7225
  756MOL0     H 4325   9.228   5.603   1.031  6.6240  0.5512 -1.8841
  756MOL0     H 4326   9.381   5.866   1.047  2.7801  0.3064 -0.4704
  756MOL0     H 4327   9.438   5.699   1.019 -1.0518 -0.7238 -1.9706
  756MOL0     H 4328   9.470   5.836   0.904 -0.5725  3.1897  0.2364
  757MOL0     O 4329   7.391   1.138   4.737  0.4175  0.2983  0.2194
  757MOL0     C 4330   7.416   1.018   4.772  0.5549 -0.3989 -1.0027
  757MOL0     O 4331   7.319   0.929   4.797 -0.7720 -0.0265 -0.3864
  757MOL0     C 4332   7.197   0.969   4.848  0.4606  0.1136  0.4144
  757MOL0     C 4333   7.082   0.912   4.797  0.3518  0.0526  0.1036
  757MOL0     C 4334   6.956   0.949   4.845 -0.8856  0.2862 -0.2885
  757MOL0     C 4335   6.940   1.046   4.945 -0.5106 -0.4769 -0.3050
  757MOL0     O 4336   6.817   1.085   4.986 -0.1691 -0.3695 -0.5367
  757MOL0     C 4337   6.795   1.161   5.102 -0.1573  0.3414  0.1699
  757MOL0     C 4338   6.766   1.066   5.217 -0.0131 -0.1466  0.0416
  757MOL0     C 4339   6.892   1.033   5.304 -0.7839 -0.0810  0.2041
  757MOL0     C 4340   6.848   1.000   5.447 -0.2119  1.4493  0.3816
  757MOL0     C 4341   6.957   0.913   5.534  0.4688 -0.5865  0.2888
  757MOL0     C 4342   7.095   0.981   5.514  0.3443  0.4776 -0.2076
  757MOL0     C 4343   7.114   1.123   5.572  0.2233  0.6808 -0.1088
  757MOL0     C 4344   7.085   1.117   5.721 -0.0054 -0.9924 -0.8873
  757MOL0     N 4345   7.117   1.241   5.792 -0.0618  0.3553  0.3442
  757MOL0     C 4346   7.036   1.298   5.876  0.5179 -0.4906  0.0738
  757MOL0     C 4347   7.101   1.415   5.913 -0.2869 -0.3196  0.7806
  757MOL0     C 4348   7.044   1.516   6.004  0.3845  0.3422  0.2292
  757MOL0     C 4349   7.114   1.528   6.141  0.1351  0.0403  1.6037
  757MOL0     C 4350   7.244   1.602   6.112 -0.6794  1.0995 -1.0125
  757MOL0     C 4351   7.255   1.739   6.181  0.1021  0.0490 -0.0063
  757MOL0     O 4352   7.228   1.738   6.321  0.4752 -0.8071 -0.7559
  757MOL0     C 4353   7.244   1.851   6.399 -0.2559 -0.8190  0.2376
  757MOL0     C 4354   7.273   1.827   6.531  0.3216  0.0692 -0.2396
  757MOL0     C 4355   7.288   1.925   6.625  0.4041  0.1441  0.8217
  757MOL0     C 4356   7.320   1.894   6.770  0.2112 -0.4074  1.1115
  757MOL0     C 4357   7.268   2.060   6.606 -0.6015  1.0034  0.5221
  757MOL0     C 4358   7.252   2.166   6.717 -0.5388  0.6962 -0.3722
  757MOL0     O 4359   7.273   2.144   6.847 -0.4623  0.2036 -0.0817
  757MOL0     C 4360   7.219   2.221   6.948  0.1912  0.7287 -0.4474
  757MOL0     C 4361   7.278   2.339   6.985  0.2714 -0.1905  0.2775
  757MOL0     C 4362   7.221   2.420   7.085 -0.6556  1.2083  0.3037
  757MOL0     C 4363   7.107   2.377   7.154 -0.7640 -1.3170  0.7405
  757MOL0     O 4364   7.036   2.453   7.250 -0.2362  0.3781  0.2045
  757MOL0     C 4365   7.017   2.596   7.219  0.4521  0.0090  0.8391
  757MOL0     C 4366   6.949   2.670   7.340 -0.2316 -0.2731  0.2698
  757MOL0     C 4367   7.044   2.717   7.444 -0.1515 -0.6187  0.2136
  757MOL0     C 4368   6.982   2.771   7.576  0.5320  0.1453 -1.3442
  757MOL0     C 4369   7.072   2.784   7.698 -0.0393 -0.3310  0.3362
  757MOL0     C 4370   7.176   2.900   7.679 -0.7485  0.0814 -0.6208
  757MOL0     C 4371   7.121   3.041   7.646 -1.0936 -0.0162  0.3257
  757MOL0     C 4372   7.208   3.149   7.701 -0.0366 -0.2856 -0.5289
  757MOL0    Cl 4373   7.380   3.121   7.652 -0.2903 -0.4336  0.5494
  757MOL0     C 4374   7.053   2.254   7.119  0.6820 -0.4075  0.2020
  757MOL0     C 4375   7.103   2.167   7.019 -0.3382  0.1438 -0.2653
  757MOL0     O 4376   7.216   2.273   6.681 -0.7791 -0.7998  0.9873
  757MOL0     C 4377   7.245   2.081   6.468  0.4162 -0.1857 -0.5204
  757MOL0     C 4378   7.230   1.983   6.362 -0.0334  1.0574 -0.2246
  757MOL0     N 4379   7.226   1.421   5.856  0.2658  0.3228  0.0407
  757MOL0     N 4380   7.233   1.320   5.785  0.4337  1.7541  0.0453
  757MOL0     C 4381   7.054   1.103   4.998  0.0954 -0.6641  0.0171
  757MOL0     C 4382   7.177   1.070   4.945  1.3994  0.0654 -0.2904
  757MOL0     C 4383   7.558   0.975   4.804  0.8279 -0.0443  0.9209
  757MOL0     C 4384   7.663   1.069   4.809  0.2140 -0.7624 -0.8202
  757MOL0     C 4385   7.796   1.027   4.820 -0.7842  0.2532  0.0506
  757MOL0     C 4386   7.836   0.892   4.824 -0.0706 -0.5248 -0.8393
  757MOL0     O 4387   7.968   0.851   4.828 -0.3759 -0.0421 -0.2996
  757MOL0     C 4388   8.066   0.924   4.900 -0.7719 -0.2497 -0.5490
  757MOL0     C 4389   8.060   0.889   5.044 -1.4885 -0.5265 -0.0245
  757MOL0     C 4390   8.173   0.783   5.072  0.2071  0.4528  0.4678
  757MOL0     C 4391   8.206   0.774   5.220 -0.1546 -0.8991  0.4645
  757MOL0     C 4392   8.093   0.721   5.305 -1.0049  0.0514 -1.0679
  757MOL0     C 4393   7.999   0.671   5.362 -0.5969 -0.5236  0.1868
  757MOL0     C 4394   7.740   0.801   4.814  0.4829  0.1196 -0.0830
  757MOL0     C 4395   7.603   0.834   4.799 -0.3571  0.4501  0.3294
  757MOL0     C 4396   7.512   0.712   4.794  0.7526  0.2552 -0.3571
  757MOL0     H 4397   7.086   0.830   4.727 -0.3311 -1.8312  2.1495
  757MOL0     H 4398   6.874   0.889   4.806  0.3142  1.1634 -4.7312
  757MOL0     H 4399   6.708   1.225   5.083  0.0660  0.9045  1.0184
  757MOL0     H 4400   6.862   1.240   5.135 -5.5879  6.0541 -0.6385
  757MOL0     H 4401   6.696   1.119   5.282  0.1474 -1.1792  1.0996
  757MOL0     H 4402   6.723   0.977   5.170 -1.0659  0.2825  0.1626
  757MOL0     H 4403   6.942   0.960   5.240  2.3858  4.2240 -2.8161
  757MOL0     H 4404   6.960   1.118   5.302 -0.1383 -0.4944  2.0079
  757MOL0     H 4405   6.827   1.098   5.492  0.3067  2.3553 -1.2694
  757MOL0     H 4406   6.757   0.940   5.443 -1.2459  3.0237 -0.6744
  757MOL0     H 4407   6.962   0.809   5.499 -2.0261  0.4111 -3.6652
  757MOL0     H 4408   6.920   0.924   5.636 -3.2552  1.0733 -1.0569
  757MOL0     H 4409   7.157   0.912   5.573 -1.4034  0.3126  1.5685
  757MOL0     H 4410   7.125   0.981   5.409 -0.6396 -0.8576 -0.5175
  757MOL0     H 4411   7.049   1.198   5.525 -0.8958 -0.2493 -0.0858
  757MOL0     H 4412   7.214   1.164   5.553  0.8566 -1.0728 -0.7297
  757MOL0     H 4413   6.980   1.094   5.739 -0.4910  2.9541  2.8797
  757MOL0     H 4414   7.151   1.035   5.752  1.0678 -0.4595 -1.6900
  757MOL0     H 4415   6.940   1.257   5.905  1.1143 -1.2881  0.9800
  757MOL0     H 4416   6.937   1.500   6.020  0.4588 -1.9762 -1.1448
  757MOL0     H 4417   7.049   1.613   5.955  0.5912 -0.3099 -1.0733
  757MOL0     H 4418   7.045   1.593   6.196 -1.6623  0.2840 -0.7817
  757MOL0     H 4419   7.124   1.432   6.194 -0.4356  0.4244  2.4343
  757MOL0     H 4420   7.319   1.545   6.167 -1.6575 -0.5703 -1.3431
  757MOL0     H 4421   7.281   1.598   6.009 -2.2240 -0.6049 -1.5672
  757MOL0     H 4422   7.356   1.771   6.153  0.5420  0.3628  1.7889
  757MOL0     H 4423   7.181   1.799   6.129 -1.6819 -0.9256  1.2742
  757MOL0     H 4424   7.298   1.722   6.545 -1.9072 -0.8309 -2.2830
  757MOL0     H 4425   7.401   1.957   6.809  0.4782  2.4469 -3.3874
  757MOL0     H 4426   7.350   1.790   6.782 -2.9769 -2.1917 -3.6751
  757MOL0     H 4427   7.226   1.907   6.826 -0.0826  3.9985 -0.0473
  757MOL0     H 4428   7.367   2.382   6.939 -0.4298 -0.8349 -1.7669
  757MOL0     H 4429   7.274   2.510   7.115 -1.9671  1.2203  2.8185
  757MOL0     H 4430   7.115   2.645   7.218  0.3540  0.2235  1.4339
  757MOL0     H 4431   6.961   2.596   7.124 -0.8151  0.4472  1.5543
  757MOL0     H 4432   6.906   2.762   7.301  1.2503  2.0630  3.6960
  757MOL0     H 4433   6.874   2.601   7.381  1.1332 -3.0539 -1.6440
  757MOL0     H 4434   7.105   2.796   7.399 -0.2481  1.3827  3.2830
  757MOL0     H 4435   7.102   2.628   7.469 -1.0555 -0.0034  5.9862
  757MOL0     H 4436   6.912   2.693   7.607 -1.2162  0.1182 -4.8189
  757MOL0     H 4437   6.918   2.857   7.552 -4.2546 -2.4653  0.6096
  757MOL0     H 4438   7.014   2.807   7.788 -0.6696 -1.2837  0.1897
  757MOL0     H 4439   7.118   2.687   7.715 -1.4984 -1.1440 -0.1416
  757MOL0     H 4440   7.258   2.869   7.614 -0.3256  0.7835 -0.4271
  757MOL0     H 4441   7.216   2.908   7.781  0.4018  2.4516 -1.2086
  757MOL0     H 4442   7.018   3.048   7.682 -1.4670 -0.7002 -0.5864
  757MOL0     H 4443   7.121   3.068   7.540 -0.4883 -0.7896  0.1207
  757MOL0     H 4444   7.195   3.165   7.809  0.0838 -2.9789 -0.0600
  757MOL0     H 4445   7.174   3.246   7.663  0.7404  1.6440  3.1659
  757MOL0     H 4446   6.971   2.205   7.170  2.7806 -2.2082  2.0556
  757MOL0     H 4447   7.067   2.068   6.994 -4.4560  1.2566  0.4547
  757MOL0     H 4448   7.222   2.186   6.458  0.9534  0.3487  2.6725
  757MOL0     H 4449   7.212   2.028   6.265 -0.8594  0.5050 -0.3337
  757MOL0     H 4450   7.047   1.184   5.070 -4.7617 -0.6646 -0.1633
  757MOL0     H 4451   7.269   1.111   4.985  0.1389  0.6041  2.1953
  757MOL0     H 4452   7.633   1.174   4.812  0.1211 -0.7890 -0.8109
  757MOL0     H 4453   7.870   1.107   4.814  0.6922 -1.1259 -1.2123
  757MOL0     H 4454   8.160   0.887   4.856  1.3382 -0.0997  3.3648
  757MOL0     H 4455   8.071   1.032   4.889  4.3970 -0.3000 -1.6267
  757MOL0     H 4456   7.967   0.848   5.083 -2.5979 -0.5686 -2.5829
  757MOL0     H 4457   8.086   0.983   5.095  0.9041 -1.4219  0.5416
  757MOL0     H 4458   8.139   0.683   5.043  2.8120  0.0674 -1.5761
  757MOL0     H 4459   8.263   0.802   5.014  0.4632  0.1503  0.7622
  757MOL0     H 4460   8.228   0.876   5.253 -2.9608  0.5211 -1.6216
  757MOL0     H 4461   8.296   0.713   5.237  0.6087  0.6652  2.3936
  757MOL0     H 4462   7.914   0.640   5.420 -1.2300  2.5079  1.0766
  757MOL0     H 4463   7.774   0.698   4.807 -0.1946  0.0156 -3.5384
  757MOL0     H 4464   7.458   0.719   4.699 -0.7804  3.2391  0.5729
  757MOL0     H 4465   7.554   0.611   4.794  1.6343  0.6116 -0.7158
  757MOL0     H 4466   7.434   0.710   4.870 -2.0887  2.6833 -2.9156
  758MOL0     O 4467   3.951   0.312   6.913  0.4081 -0.2435 -0.5620
  758MOL0     C 4468   4.042   0.329   6.829  0.0105 -0.2315  0.0591
  758MOL0     O 4469   4.139   0.238   6.802 -0.6981  0.7156  0.4611
  758MOL0     C 4470   4.134   0.106   6.847 -0.1502  0.4172 -0.3291
  758MOL0     C 4471   4.138   0.014   6.745  0.0126 -0.3684  0.0340
  758MOL0     C 4472   4.113  -0.119   6.781  0.5640  0.4819  0.6146
  758MOL0     C 4473   4.091  -0.169   6.911  0.1545 -0.1222  1.3277
  758MOL0     O 4474   4.066  -0.297   6.951  0.1128  0.2362 -0.3511
  758MOL0     C 4475   4.015  -0.406   6.867  0.0618 -0.2610 -0.5832
  758MOL0     C 4476   4.126  -0.502   6.816 -0.0442  0.0394 -0.1602
  758MOL0     C 4477   4.235  -0.421   6.737 -0.6597  0.5922 -0.9839
  758MOL0     C 4478   4.353  -0.514   6.696 -0.6947  0.6519 -0.5547
  758MOL0     C 4479   4.454  -0.417   6.634  0.7818  0.0315 -0.3411
  758MOL0     C 4480   4.593  -0.475   6.622  0.5114 -0.8067  0.2828
  758MOL0     C 4481   4.679  -0.364   6.553 -0.8698 -0.8349  0.5027
  758MOL0     C 4482   4.833  -0.396   6.580 -1.2676  0.4274 -0.2927
  758MOL0     N 4483   4.874  -0.390   6.721  0.6258 -0.0570  0.0888
  758MOL0     C 4484   4.877  -0.272   6.781  0.3155 -0.2299 -0.5438
  758MOL0     C 4485   4.961  -0.292   6.884  0.3126  0.4701  0.0290
  758MOL0     C 4486   4.998  -0.188   6.989  0.0506 -0.1871 -0.2960
  758MOL0     C 4487   4.905  -0.166   7.107 -0.3390  0.5102 -0.5273
  758MOL0     C 4488   4.933  -0.282   7.199  0.6298  0.4310 -0.7505
  758MOL0     C 4489   4.881  -0.245   7.335  0.1528 -0.4062  0.1624
  758MOL0     O 4490   4.852  -0.361   7.406  0.4712 -0.0567  0.6060
  758MOL0     C 4491   4.782  -0.340   7.528 -0.7256 -1.0380  0.8515
  758MOL0     C 4492   4.847  -0.316   7.641 -0.9864 -1.1071 -1.3770
  758MOL0     C 4493   4.764  -0.292   7.757 -1.6955  0.9021 -1.0774
  758MOL0     C 4494   4.840  -0.269   7.889 -0.1638 -0.1186  1.0666
  758MOL0     C 4495   4.632  -0.329   7.749  0.7407 -0.4797  0.8311
  758MOL0     C 4496   4.543  -0.320   7.866 -0.5127  0.1806  0.1100
  758MOL0     O 4497   4.488  -0.436   7.908  0.9435  0.2994  0.1838
  758MOL0     C 4498   4.539  -0.565   7.883 -0.0790  0.0668 -0.1716
  758MOL0     C 4499   4.446  -0.670   7.839 -0.7333 -0.3074 -0.1716
  758MOL0     C 4500   4.486  -0.789   7.812  0.4834  1.2479  0.6236
  758MOL0     C 4501   4.620  -0.831   7.823  0.7664  0.5741  0.0969
  758MOL0     O 4502   4.659  -0.961   7.800  0.0381  0.1132  0.3262
  758MOL0     C 4503   4.660  -1.018   7.671  0.0911 -0.8860 -0.3751
  758MOL0     C 4504   4.525  -1.091   7.641  0.6097 -0.2615 -0.0080
  758MOL0     C 4505   4.538  -1.175   7.516 -0.3554  0.0812  0.4574
  758MOL0     C 4506   4.408  -1.257   7.487 -0.5614 -0.3880  0.2994
  758MOL0     C 4507   4.382  -1.279   7.335 -0.0678 -0.9432  0.5399
  758MOL0     C 4508   4.231  -1.294   7.319 -0.4247 -0.2214 -0.6785
  758MOL0     C 4509   4.205  -1.387   7.189 -0.3685  0.0520 -1.6103
  758MOL0     C 4510   4.073  -1.459   7.189  0.4719 -0.2772 -0.4146
  758MOL0    Cl 4511   4.076  -1.585   7.313  0.0341 -0.4484 -0.2955
  758MOL0     C 4512   4.716  -0.749   7.876  0.0458 -0.6860  0.0843
  758MOL0     C 4513   4.678  -0.609   7.903  0.0054 -0.0833  0.1765
  758MOL0     O 4514   4.520  -0.210   7.912  0.2611 -0.4387 -0.0231
  758MOL0     C 4515   4.580  -0.355   7.632 -0.5949 -0.6191  0.2448
  758MOL0     C 4516   4.656  -0.349   7.520  0.9348  0.4147  0.1630
  758MOL0     N 4517   5.002  -0.419   6.893 -0.1742 -0.2455 -0.2096
  758MOL0     N 4518   4.948  -0.479   6.788 -0.6519  0.3663  0.6359
  758MOL0     C 4519   4.103  -0.065   7.009  0.4446 -0.4258  0.3293
  758MOL0     C 4520   4.125   0.071   6.977  0.1983  0.6287  0.1555
  758MOL0     C 4521   4.041   0.465   6.762 -0.6459 -0.2453  0.2224
  758MOL0     C 4522   3.956   0.560   6.798  1.0131 -0.2340  0.2520
  758MOL0     C 4523   3.952   0.673   6.718 -0.3018 -0.6670 -0.4751
  758MOL0     C 4524   4.044   0.697   6.616  0.6275  1.1524  0.1139
  758MOL0     O 4525   4.060   0.812   6.552 -0.1925 -0.2216  0.3637
  758MOL0     C 4526   3.943   0.874   6.509 -0.2564 -0.1093  0.0290
  758MOL0     C 4527   3.939   1.015   6.576  1.4145 -0.4912 -0.3261
  758MOL0     C 4528   3.849   1.115   6.512 -0.4711  0.0356  1.0337
  758MOL0     C 4529   3.847   1.234   6.613  0.2375  0.1508  0.5176
  758MOL0     C 4530   3.777   1.351   6.568 -0.4876  0.0799  0.8267
  758MOL0     C 4531   3.713   1.435   6.512  0.6077  0.5992  0.0880
  758MOL0     C 4532   4.135   0.607   6.588 -0.2035 -0.2787 -0.6400
  758MOL0     C 4533   4.139   0.487   6.655  0.6200 -0.5253  1.5440
  758MOL0     C 4534   4.241   0.383   6.600  0.5107 -1.1614 -0.2675
  758MOL0     H 4535   4.154   0.051   6.644  1.0724  0.7488  0.5904
  758MOL0     H 4536   4.113  -0.190   6.698 -1.5660  0.4223  0.5928
  758MOL0     H 4537   3.950  -0.359   6.793 -2.2540 -0.9473  0.8794
  758MOL0     H 4538   3.947  -0.466   6.928  0.7767  0.0021  0.5171
  758MOL0     H 4539   4.175  -0.555   6.897  2.1295  0.8793 -0.8653
  758MOL0     H 4540   4.069  -0.567   6.748 -2.6003  2.6586 -0.7626
  758MOL0     H 4541   4.188  -0.378   6.648 -3.0010 -0.4847 -0.3564
  758MOL0     H 4542   4.252  -0.327   6.791  0.0393  1.3494 -2.4948
  758MOL0     H 4543   4.399  -0.569   6.779 -0.6862  1.5140  0.0176
  758MOL0     H 4544   4.323  -0.587   6.619  1.6589 -0.0984 -0.8483
  758MOL0     H 4545   4.472  -0.336   6.705  1.6217 -1.7807  1.6628
  758MOL0     H 4546   4.417  -0.394   6.534  1.1165 -4.5882 -1.7600
  758MOL0     H 4547   4.643  -0.502   6.716  1.4331 -1.5772 -0.4097
  758MOL0     H 4548   4.597  -0.561   6.554  0.7201  0.0591 -0.8245
  758MOL0     H 4549   4.648  -0.265   6.588 -1.8075 -0.8909 -0.1246
  758MOL0     H 4550   4.660  -0.359   6.445 -0.8274  0.8345  0.5369
  758MOL0     H 4551   4.882  -0.486   6.542 -0.6403  0.4568  0.4219
  758MOL0     H 4552   4.888  -0.313   6.535  0.2584 -0.2780  0.1955
  758MOL0     H 4553   4.832  -0.178   6.753  0.7367 -0.1193 -0.8658
  758MOL0     H 4554   4.985  -0.091   6.939 -1.7904 -0.9338 -1.3776
  758MOL0     H 4555   5.096  -0.202   7.035  0.9866  2.2969 -1.3703
  758MOL0     H 4556   4.911  -0.071   7.160 -0.1957  0.0453  0.3020
  758MOL0     H 4557   4.801  -0.174   7.074 -2.0351  0.4616  4.1093
  758MOL0     H 4558   4.859  -0.357   7.170 -1.0909  1.6377  0.3190
  758MOL0     H 4559   5.036  -0.316   7.211 -0.6614 -2.9253  2.9857
  758MOL0     H 4560   4.967  -0.198   7.384 -0.6450  1.9129 -0.5320
  758MOL0     H 4561   4.795  -0.178   7.338 -0.1711 -0.6436  5.5481
  758MOL0     H 4562   4.954  -0.297   7.643 -1.5302  2.8119  1.7359
  758MOL0     H 4563   4.789  -0.199   7.956 -4.0229  1.0463 -2.6145
  758MOL0     H 4564   4.935  -0.224   7.861 -0.9935 -1.1161 -4.5759
  758MOL0     H 4565   4.857  -0.363   7.942 -0.8458  0.4235  2.2873
  758MOL0     H 4566   4.346  -0.633   7.821 -0.1822  0.6682 -1.4330
  758MOL0     H 4567   4.430  -0.874   7.773  2.8216 -0.9323  1.6916
  758MOL0     H 4568   4.683  -0.943   7.594 -1.4401 -0.8884 -0.8746
  758MOL0     H 4569   4.745  -1.085   7.662  1.9306  1.4106 -1.3499
  758MOL0     H 4570   4.508  -1.158   7.726  1.4228  0.8345  1.0547
  758MOL0     H 4571   4.441  -1.021   7.632  1.0472  0.4479  1.1842
  758MOL0     H 4572   4.636  -1.223   7.514 -1.0674 -1.4476 -1.9518
  758MOL0     H 4573   4.554  -1.099   7.438  2.9765 -1.7502 -0.8614
  758MOL0     H 4574   4.326  -1.197   7.527  0.6978  0.4837  1.6630
  758MOL0     H 4575   4.409  -1.353   7.540 -1.1544 -0.1777  0.7054
  758MOL0     H 4576   4.420  -1.196   7.275  1.9100  0.4743  3.5502
  758MOL0     H 4577   4.427  -1.376   7.310  0.4057 -0.4338 -0.6635
  758MOL0     H 4578   4.195  -1.192   7.299  1.1996  0.3164 -1.1171
  758MOL0     H 4579   4.184  -1.338   7.407  0.7534  0.9397  0.5933
  758MOL0     H 4580   4.291  -1.455   7.184 -0.7264 -0.3986 -1.7097
  758MOL0     H 4581   4.219  -1.325   7.100  2.7816 -0.4913 -1.6385
  758MOL0     H 4582   4.060  -1.510   7.093 -1.2558  0.8863 -0.8491
  758MOL0     H 4583   3.991  -1.389   7.208  2.2946  2.6619 -2.6192
  758MOL0     H 4584   4.820  -0.770   7.900  0.6828  2.7808  0.9060
  758MOL0     H 4585   4.764  -0.547   7.929  1.3604 -0.2520 -3.3734
  758MOL0     H 4586   4.472  -0.353   7.620 -0.5378  0.1722 -0.2738
  758MOL0     H 4587   4.613  -0.363   7.422  1.0666 -1.4137  0.3382
  758MOL0     H 4588   4.085  -0.082   7.114  0.6469 -1.1068  0.2565
  758MOL0     H 4589   4.116   0.151   7.050  2.1948  0.9649  0.1076
  758MOL0     H 4590   3.890   0.545   6.883  0.1171 -0.9311 -0.5413
  758MOL0     H 4591   3.881   0.751   6.743 -0.9437 -0.8552 -1.6271
  758MOL0     H 4592   3.974   0.888   6.405 -2.3831 -2.1036 -0.9716
  758MOL0     H 4593   3.849   0.818   6.519  0.6218 -1.6333 -0.0082
  758MOL0     H 4594   4.037   1.060   6.593  1.3431 -0.9519  1.5349
  758MOL0     H 4595   3.890   0.995   6.672 -3.6277  0.6401 -2.3616
  758MOL0     H 4596   3.893   1.153   6.419  0.0489 -0.5408  1.0389
  758MOL0     H 4597   3.747   1.080   6.489 -0.9589 -0.0789  3.1688
  758MOL0     H 4598   3.951   1.259   6.636  0.5506 -0.5212 -0.1060
  758MOL0     H 4599   3.793   1.214   6.707  0.4070  0.9607  0.7924
  758MOL0     H 4600   3.651   1.510   6.465 -0.1724  1.5367  2.4620
  758MOL0     H 4601   4.197   0.636   6.504  0.3579  1.9503  0.4876
  758MOL0     H 4602   4.201   0.291   6.556 -3.6618 -0.5424  1.7514
  758MOL0     H 4603   4.300   0.439   6.527  0.4651 -1.8669 -0.8543
  758MOL0     H 4604   4.311   0.355   6.679  0.5064  1.7913  0.9071
  759MOL0     O 4605   7.936   2.666   1.791  0.3034  0.3229 -0.0011
  759MOL0     C 4606   7.982   2.652   1.906 -0.4015 -0.3091  0.0453
  759MOL0     O 4607   8.080   2.720   1.957  0.6477 -0.7237  0.9908
  759MOL0     C 4608   8.139   2.820   1.883  0.0531 -0.5438 -1.1039
  759MOL0     C 4609   8.230   2.792   1.789  0.8259  0.7547  0.2857
  759MOL0     C 4610   8.273   2.893   1.703  0.8427  0.1845 -1.0696
  759MOL0     C 4611   8.216   3.024   1.708 -0.6921  1.0881 -0.2200
  759MOL0     O 4612   8.271   3.119   1.619  0.3951  0.4905 -0.4017
  759MOL0     C 4613   8.182   3.221   1.573 -0.7183 -0.0683 -0.2560
  759MOL0     C 4614   8.243   3.303   1.452  0.4680 -0.5047 -0.1657
  759MOL0     C 4615   8.369   3.372   1.499 -0.0553 -1.2013 -0.2358
  759MOL0     C 4616   8.442   3.452   1.388  0.7511  0.5165 -0.1603
  759MOL0     C 4617   8.585   3.506   1.431  0.8887 -0.1420  0.8403
  759MOL0     C 4618   8.675   3.556   1.318  0.2162 -0.9245  0.5283
  759MOL0     C 4619   8.716   3.452   1.212 -0.5300 -0.2907 -0.7232
  759MOL0     C 4620   8.860   3.484   1.153  0.1921  0.8720 -0.1164
  759MOL0     N 4621   8.884   3.619   1.092  0.3811  0.2476 -0.0954
  759MOL0     C 4622   8.863   3.641   0.956 -0.1484  0.1820 -0.0416
  759MOL0     C 4623   8.883   3.779   0.953  0.1819 -0.8060 -0.0990
  759MOL0     C 4624   8.859   3.859   0.831 -0.0057 -0.6200  0.6266
  759MOL0     C 4625   8.935   3.801   0.700 -0.2409  1.1559 -0.8405
  759MOL0     C 4626   8.853   3.791   0.570  0.6486  0.1349  0.1007
  759MOL0     C 4627   8.943   3.753   0.451  0.6575 -0.5240 -0.0411
  759MOL0     O 4628   9.030   3.641   0.465  0.2486  0.9990  0.3438
  759MOL0     C 4629   9.129   3.620   0.384  0.2520 -0.2893 -0.4426
  759MOL0     C 4630   9.249   3.569   0.429 -0.3678 -0.0667 -0.0355
  759MOL0     C 4631   9.365   3.558   0.352  1.0545  0.4480 -0.5887
  759MOL0     C 4632   9.481   3.516   0.430 -0.4261  0.0708 -0.3753
  759MOL0     C 4633   9.368   3.586   0.215  0.8862  0.0083 -0.7728
  759MOL0     C 4634   9.485   3.576   0.130  0.2268 -0.1549  0.2027
  759MOL0     O 4635   9.480   3.628   0.003  0.7657 -0.0451  0.2732
  759MOL0     C 4636   9.594   3.631  -0.073 -0.1612 -0.6447 -1.2547
  759MOL0     C 4637   9.645   3.522  -0.134 -0.5198  1.1633 -0.5334
  759MOL0     C 4638   9.743   3.518  -0.222 -0.0279  0.0653 -0.7018
  759MOL0     C 4639   9.799   3.643  -0.254 -0.3290  0.3094  0.3159
  759MOL0     O 4640   9.911   3.663  -0.340  0.3688 -0.2065 -0.2106
  759MOL0     C 4641   9.965   3.553  -0.419  0.2133 -0.5487  0.2259
  759MOL0     C 4642   9.875   3.508  -0.541 -0.2247 -0.2391  1.2879
  759MOL0     C 4643   9.830   3.618  -0.640 -0.0783 -0.9611  0.5671
  759MOL0     C 4644   9.951   3.704  -0.674  0.1211 -0.2541 -0.1080
  759MOL0     C 4645   9.923   3.790  -0.792 -0.0789  0.9344  0.8918
  759MOL0     C 4646  10.046   3.766  -0.883  0.2395  0.1735 -0.2665
  759MOL0     C 4647  10.044   3.817  -1.031  0.0957  0.8358  0.0010
  759MOL0     C 4648  10.171   3.787  -1.099  0.0896 -0.4255  1.2455
  759MOL0    Cl 4649  10.124   3.722  -1.268 -0.8249  0.1786 -0.1288
  759MOL0     C 4650   9.740   3.763  -0.210 -0.3771 -0.8868 -0.8751
  759MOL0     C 4651   9.637   3.758  -0.116  0.8411  0.7011  0.4819
  759MOL0     O 4652   9.581   3.515   0.173 -0.6002 -0.3022 -0.8563
  759MOL0     C 4653   9.246   3.639   0.170 -0.0110  1.0712 -0.1118
  759MOL0     C 4654   9.130   3.655   0.246 -0.8136  0.3868 -0.3457
  759MOL0     N 4655   8.926   3.835   1.073 -0.5747 -0.1951  0.0540
  759MOL0     N 4656   8.931   3.736   1.161 -0.4150  0.6938 -0.2709
  759MOL0     C 4657   8.125   3.055   1.808 -0.5703 -0.0229 -0.3469
  759MOL0     C 4658   8.089   2.951   1.899 -0.4855 -0.3894 -1.0167
  759MOL0     C 4659   7.936   2.540   1.989 -0.3025  0.5638  0.0902
  759MOL0     C 4660   8.010   2.513   2.103  0.5734  0.3362  0.2087
  759MOL0     C 4661   7.953   2.445   2.201  0.0920  0.2157 -0.5372
  759MOL0     C 4662   7.818   2.417   2.203  1.0577  0.7207 -0.9598
  759MOL0     O 4663   7.773   2.358   2.321 -0.3087 -0.4981  0.2431
  759MOL0     C 4664   7.643   2.378   2.357  0.4000  0.4547 -0.2504
  759MOL0     C 4665   7.636   2.310   2.493  0.5519 -0.3207 -0.1104
  759MOL0     C 4666   7.674   2.161   2.500  1.1251 -0.5940 -0.7238
  759MOL0     C 4667   7.824   2.126   2.526  0.2985  0.3814 -0.4827
  759MOL0     C 4668   7.866   2.171   2.663  0.2876 -0.2297 -0.7482
  759MOL0     C 4669   7.890   2.185   2.779  0.3123 -1.3920 -0.5535
  759MOL0     C 4670   7.746   2.420   2.092  0.4108 -1.0807  1.5323
  759MOL0     C 4671   7.801   2.484   1.981 -0.5437  0.3617 -0.9845
  759MOL0     C 4672   7.710   2.479   1.862  0.4501  0.5792 -0.0893
  759MOL0     H 4673   8.268   2.690   1.785 -0.1860  0.2383  2.3926
  759MOL0     H 4674   8.345   2.870   1.625  2.2335 -2.4496  0.8062
  759MOL0     H 4675   8.173   3.294   1.653  1.7013  2.6677 -2.2463
  759MOL0     H 4676   8.084   3.187   1.540 -0.7261 -0.4508  0.1550
  759MOL0     H 4677   8.273   3.238   1.369 -0.1137 -1.0777  0.0691
  759MOL0     H 4678   8.177   3.385   1.425 -0.3283 -0.8275  0.7524
  759MOL0     H 4679   8.343   3.436   1.585 -0.5625 -0.0924 -1.1935
  759MOL0     H 4680   8.433   3.292   1.537  0.3440 -1.0218 -0.5237
  759MOL0     H 4681   8.447   3.381   1.306 -0.4409  0.8665 -0.5599
  759MOL0     H 4682   8.392   3.541   1.347  2.6313  1.7064  0.0220
  759MOL0     H 4683   8.633   3.428   1.492 -1.0113 -2.6096 -0.6351
  759MOL0     H 4684   8.576   3.592   1.498 -1.4373 -0.9589  1.6831
  759MOL0     H 4685   8.629   3.637   1.260  1.1867  0.4780  1.6552
  759MOL0     H 4686   8.768   3.593   1.362  1.1030 -0.5405 -1.5365
  759MOL0     H 4687   8.642   3.444   1.133 -0.9934  1.4967 -0.5311
  759MOL0     H 4688   8.716   3.350   1.250 -0.2238 -0.5093 -1.3043
  759MOL0     H 4689   8.942   3.456   1.220  1.0109 -3.5391 -2.6209
  759MOL0     H 4690   8.873   3.410   1.074  2.1827  0.2406  0.7465
  759MOL0     H 4691   8.835   3.584   0.868  0.6479 -4.4771  2.4091
  759MOL0     H 4692   8.891   3.961   0.853 -0.3473 -0.7101  1.6105
  759MOL0     H 4693   8.751   3.861   0.810  0.0514  0.8181  0.3946
  759MOL0     H 4694   9.012   3.877   0.683  2.8923 -1.6438 -0.0935
  759MOL0     H 4695   8.980   3.704   0.720 -0.0655  1.2973 -0.5447
  759MOL0     H 4696   8.766   3.724   0.574  1.3913 -0.9586 -1.0720
  759MOL0     H 4697   8.800   3.886   0.559 -3.6995 -1.6113  3.0392
  759MOL0     H 4698   8.883   3.752   0.360  0.6639  2.4537 -0.1658
  759MOL0     H 4699   9.013   3.837   0.442 -1.1314  1.7609  4.3969
  759MOL0     H 4700   9.254   3.539   0.533  2.0837  4.3307  1.3908
  759MOL0     H 4701   9.471   3.529   0.538 -0.2566 -1.6797 -0.1303
  759MOL0     H 4702   9.560   3.585   0.399 -2.4188  2.2208 -0.9822
  759MOL0     H 4703   9.517   3.414   0.414  3.3579  1.0687  0.8275
  759MOL0     H 4704   9.604   3.432  -0.089  1.2072  0.2638 -0.6846
  759MOL0     H 4705   9.763   3.419  -0.262 -4.4790 -0.5260 -1.9176
  759MOL0     H 4706  10.066   3.582  -0.449 -0.1711 -1.0361 -1.6757
  759MOL0     H 4707   9.982   3.467  -0.353 -1.6117 -0.5728  0.7213
  759MOL0     H 4708   9.933   3.440  -0.604 -0.2607  1.1430 -0.2922
  759MOL0     H 4709   9.791   3.452  -0.499  0.2704 -1.5897  0.5468
  759MOL0     H 4710   9.743   3.674  -0.604 -2.1277 -1.4694 -3.0923
  759MOL0     H 4711   9.778   3.570  -0.723  0.7655 -0.0470 -0.5102
  759MOL0     H 4712  10.027   3.627  -0.694 -1.3871 -2.1269  1.0235
  759MOL0     H 4713   9.976   3.760  -0.584 -2.0364 -0.2389  0.5483
  759MOL0     H 4714   9.828   3.771  -0.843 -1.0952  0.2027  2.9535
  759MOL0     H 4715   9.928   3.894  -0.759  0.7426  0.6747  1.6007
  759MOL0     H 4716  10.071   3.660  -0.889 -4.2928 -1.0419 -0.6363
  759MOL0     H 4717  10.133   3.814  -0.836  0.4588 -2.5920  2.4562
  759MOL0     H 4718  10.025   3.924  -1.043 -4.9191  0.1677 -0.1977
  759MOL0     H 4719   9.963   3.764  -1.081  0.0540 -0.3970  1.2986
  759MOL0     H 4720  10.226   3.717  -1.035 -1.0766 -0.8223  1.8298
  759MOL0     H 4721  10.230   3.880  -1.096 -1.1639  0.3768  3.1042
  759MOL0     H 4722   9.776   3.859  -0.244 -1.8075  0.2560  0.6630
  759MOL0     H 4723   9.598   3.846  -0.066 -2.5555 -1.0837  1.2510
  759MOL0     H 4724   9.251   3.669   0.066  0.8975 -3.7622 -1.6867
  759MOL0     H 4725   9.040   3.698   0.202 -1.9112 -1.8776 -0.4610
  759MOL0     H 4726   8.080   3.153   1.797  0.1217  0.3758  0.3087
  759MOL0     H 4727   8.024   2.982   1.980 -0.3235 -0.7233 -0.7541
  759MOL0     H 4728   8.115   2.539   2.103  0.2259  1.9055 -1.1658
  759MOL0     H 4729   8.011   2.402   2.281  0.4707 -0.3897 -1.1262
  759MOL0     H 4730   7.626   2.485   2.370 -1.8685  0.5886 -3.3303
  759MOL0     H 4731   7.570   2.351   2.281  0.3935  4.3521 -1.8460
  759MOL0     H 4732   7.530   2.314   2.522  0.6826 -0.8146  0.4696
  759MOL0     H 4733   7.693   2.363   2.570 -1.0745 -1.9526  2.3790
  759MOL0     H 4734   7.616   2.110   2.578 -0.0768  1.5344 -0.1501
  759MOL0     H 4735   7.648   2.115   2.405  0.3932  1.1739 -1.4113
  759MOL0     H 4736   7.890   2.183   2.459  1.3231  0.3993  0.5119
  759MOL0     H 4737   7.826   2.018   2.508 -0.6009  0.0717  1.0993
  759MOL0     H 4738   7.917   2.182   2.883  3.0142  0.8693 -1.0659
  759MOL0     H 4739   7.644   2.384   2.081  0.1531  0.0367 -0.0928
  759MOL0     H 4740   7.650   2.569   1.842 -1.8680 -1.7151 -5.3999
  759MOL0     H 4741   7.765   2.464   1.768  3.4704  3.7396  0.9280
  759MOL0     H 4742   7.639   2.397   1.873  1.7215 -0.2374  2.9849
  760MOL0     O 4743   6.711   5.418   0.464 -0.1117 -0.1629 -1.2793
  760MOL0     C 4744   6.610   5.469   0.427 -0.8893 -0.8651 -0.2348
  760MOL0     O 4745   6.505   5.483   0.510 -0.5425  0.2804 -0.2364
  760MOL0     C 4746   6.521   5.458   0.638  0.2132  0.6000 -0.2246
  760MOL0     C 4747   6.562   5.559   0.735 -0.4280  1.0327  0.7888
  760MOL0     C 4748   6.580   5.514   0.866  0.2845  0.3645  0.6919
  760MOL0     C 4749   6.535   5.390   0.912 -0.3850 -0.7916  0.0227
  760MOL0     O 4750   6.533   5.348   1.048  0.4550  0.0655  0.2933
  760MOL0     C 4751   6.624   5.409   1.146 -0.1437  0.5970 -0.0262
  760MOL0     C 4752   6.566   5.511   1.237  0.0557  0.1321  0.0805
  760MOL0     C 4753   6.680   5.592   1.320  1.3960  0.8984 -1.0205
  760MOL0     C 4754   6.619   5.645   1.454 -0.1527  0.1592  0.0526
  760MOL0     C 4755   6.684   5.774   1.502 -0.8093 -0.1008  0.2049
  760MOL0     C 4756   6.844   5.761   1.514 -0.3205  0.0049 -0.9948
  760MOL0     C 4757   6.922   5.890   1.527 -0.0145 -0.8023  0.0067
  760MOL0     C 4758   7.069   5.878   1.570  0.5903 -0.8190 -1.1350
  760MOL0     N 4759   7.114   6.014   1.585  0.1822  0.4276 -0.2084
  760MOL0     C 4760   7.121   6.119   1.489 -0.3502 -0.0463 -0.0622
  760MOL0     C 4761   7.169   6.226   1.561 -0.2791  0.1249 -0.2842
  760MOL0     C 4762   7.206   6.370   1.514 -0.0951  1.2622  0.1636
  760MOL0     C 4763   7.095   6.412   1.416 -1.3473  0.6285 -0.0883
  760MOL0     C 4764   7.118   6.557   1.399  0.2666 -0.1060 -0.8506
  760MOL0     C 4765   7.034   6.619   1.291  0.1524 -0.2437  0.6513
  760MOL0     O 4766   7.053   6.757   1.289 -0.1705  0.2358  0.5653
  760MOL0     C 4767   6.960   6.834   1.218 -0.7437 -0.6774 -0.9019
  760MOL0     C 4768   6.850   6.784   1.155 -0.9157  0.8366  0.0340
  760MOL0     C 4769   6.753   6.864   1.087 -0.3360 -0.5280  0.2393
  760MOL0     C 4770   6.620   6.809   1.061  0.0306  1.0476  0.6659
  760MOL0     C 4771   6.778   7.000   1.095 -0.2536  0.2417  0.8611
  760MOL0     C 4772   6.671   7.105   1.037 -1.1045  0.4672  0.2119
  760MOL0     O 4773   6.582   7.058   0.947 -0.1907 -0.0358 -0.3821
  760MOL0     C 4774   6.505   7.146   0.870  0.2309 -0.3174  0.1420
  760MOL0     C 4775   6.504   7.290   0.865  0.1003 -0.7496  0.4438
  760MOL0     C 4776   6.424   7.352   0.769  0.6845 -0.3204  0.7776
  760MOL0     C 4777   6.324   7.289   0.698 -0.0815 -0.0349  0.4305
  760MOL0     O 4778   6.243   7.364   0.615 -0.3871 -0.5488  0.5714
  760MOL0     C 4779   6.116   7.320   0.561  0.7372 -0.3450 -0.1374
  760MOL0     C 4780   6.039   7.432   0.477 -0.3249  0.0809  0.6712
  760MOL0     C 4781   6.104   7.465   0.341 -0.0205  0.0961 -0.8190
  760MOL0     C 4782   6.232   7.554   0.374  0.1386  0.8092 -0.2739
  760MOL0     C 4783   6.246   7.649   0.255  0.0915  0.2940  0.3851
  760MOL0     C 4784   6.324   7.572   0.144  0.8885 -0.2449 -0.0689
  760MOL0     C 4785   6.341   7.659   0.020 -0.8247 -0.2462 -0.7069
  760MOL0     C 4786   6.369   7.586  -0.110 -0.1602  0.0572 -0.6258
  760MOL0    Cl 4787   6.231   7.494  -0.161 -0.2901  0.5563 -0.4617
  760MOL0     C 4788   6.320   7.150   0.701 -0.4705  0.1336  0.5897
  760MOL0     C 4789   6.418   7.084   0.775 -0.3936 -0.1973 -1.2521
  760MOL0     O 4790   6.682   7.223   1.063  1.1863  0.5474 -0.2423
  760MOL0     C 4791   6.894   7.047   1.152  0.6026  0.4064 -0.0609
  760MOL0     C 4792   6.979   6.971   1.227  0.4941 -0.0230  0.4272
  760MOL0     N 4793   7.202   6.188   1.687  0.7807 -0.7614 -0.7289
  760MOL0     N 4794   7.163   6.065   1.700  0.3769 -0.1931  0.2421
  760MOL0     C 4795   6.468   5.308   0.817 -0.0433  0.0250  0.6049
  760MOL0     C 4796   6.463   5.341   0.677 -0.6337 -0.6734 -1.3080
  760MOL0     C 4797   6.639   5.563   0.312  0.2511 -0.7985  0.2021
  760MOL0     C 4798   6.681   5.699   0.336 -1.4614  0.3148 -0.2630
  760MOL0     C 4799   6.722   5.776   0.228  0.1371  0.2307 -0.1384
  760MOL0     C 4800   6.723   5.723   0.101 -0.2095 -0.0446  0.4102
  760MOL0     O 4801   6.758   5.800  -0.002 -0.6963 -0.6818  0.0274
  760MOL0     C 4802   6.896   5.774  -0.034 -0.2848  0.5726  0.2288
  760MOL0     C 4803   6.937   5.828  -0.169  0.7762 -0.4019  0.0894
  760MOL0     C 4804   6.919   5.741  -0.291  0.4803 -0.1774  0.5507
  760MOL0     C 4805   6.765   5.696  -0.327  0.0436  0.0317 -1.2213
  760MOL0     C 4806   6.670   5.807  -0.338 -0.9730  0.4943 -0.6527
  760MOL0     C 4807   6.598   5.903  -0.369  0.1903 -0.1801  0.0498
  760MOL0     C 4808   6.697   5.588   0.079 -0.1895 -1.0278  0.4813
  760MOL0     C 4809   6.651   5.504   0.181 -0.0340 -0.4715  0.2037
  760MOL0     C 4810   6.600   5.366   0.145  0.6659  0.1059 -0.6451
  760MOL0     H 4811   6.597   5.661   0.723  1.7547  0.3390  0.8844
  760MOL0     H 4812   6.617   5.586   0.937 -0.9225  1.5097  0.2005
  760MOL0     H 4813   6.714   5.444   1.096  1.6821  0.0807  2.6966
  760MOL0     H 4814   6.670   5.331   1.207  0.2597 -1.6829 -2.9760
  760MOL0     H 4815   6.496   5.577   1.185 -1.8552  0.8561  3.2967
  760MOL0     H 4816   6.510   5.466   1.320 -0.5978 -2.2184 -1.5332
  760MOL0     H 4817   6.766   5.529   1.344 -0.0334 -1.1258 -1.0388
  760MOL0     H 4818   6.718   5.676   1.259  0.5144  0.5829 -2.0351
  760MOL0     H 4819   6.515   5.678   1.441  0.9706  5.3025  1.7054
  760MOL0     H 4820   6.613   5.573   1.536 -4.1499 -0.6251 -0.7247
  760MOL0     H 4821   6.642   5.807   1.597  1.2397  2.2344  0.4192
  760MOL0     H 4822   6.657   5.855   1.433  2.7435  2.7539  1.8114
  760MOL0     H 4823   6.859   5.701   1.605  0.2890 -0.1959 -1.2246
  760MOL0     H 4824   6.890   5.704   1.432  0.4694  1.0929 -1.3199
  760MOL0     H 4825   6.870   5.953   1.600  1.1469  0.1927  0.0056
  760MOL0     H 4826   6.915   5.937   1.429  2.9590  0.2212  0.2090
  760MOL0     H 4827   7.078   5.828   1.667 -1.0180 -0.3386 -0.7147
  760MOL0     H 4828   7.123   5.820   1.494  1.3492  1.3195 -2.3077
  760MOL0     H 4829   7.097   6.103   1.385  2.0017 -2.1504 -0.3931
  760MOL0     H 4830   7.303   6.368   1.465 -0.6433  0.0366 -0.9317
  760MOL0     H 4831   7.199   6.436   1.601  0.5275  1.3166  0.1760
  760MOL0     H 4832   7.108   6.368   1.316  1.8870  1.9810 -0.3580
  760MOL0     H 4833   6.992   6.383   1.442 -2.3477  1.8291 -2.4285
  760MOL0     H 4834   7.096   6.607   1.494 -0.8361  0.9614 -1.6439
  760MOL0     H 4835   7.222   6.573   1.368 -0.1403  3.5621 -0.8275
  760MOL0     H 4836   7.047   6.570   1.194 -0.0856  0.1663  0.4107
  760MOL0     H 4837   6.930   6.592   1.316  1.2945 -2.3326  3.9138
  760MOL0     H 4838   6.839   6.676   1.159  0.9366  0.4892 -1.9528
  760MOL0     H 4839   6.582   6.794   0.959 -0.5802  0.0918  1.0204
  760MOL0     H 4840   6.540   6.856   1.118 -0.1549  2.7680 -0.9033
  760MOL0     H 4841   6.621   6.704   1.093 -1.3454  0.6727 -0.4138
  760MOL0     H 4842   6.551   7.353   0.940  0.5665  0.1519 -0.5677
  760MOL0     H 4843   6.417   7.458   0.791 -0.9777 -0.3274  0.4702
  760MOL0     H 4844   6.136   7.234   0.497  0.7242  0.5741 -1.4096
  760MOL0     H 4845   6.064   7.278   0.648  0.3657 -2.4590 -1.3111
  760MOL0     H 4846   5.934   7.406   0.458 -0.5622 -1.9269  3.9505
  760MOL0     H 4847   6.045   7.517   0.546  0.2323  1.3709 -0.9112
  760MOL0     H 4848   6.038   7.525   0.279  1.0445  2.1522 -0.0731
  760MOL0     H 4849   6.120   7.370   0.289 -3.7225  0.3710 -2.7865
  760MOL0     H 4850   6.316   7.487   0.391  0.5290  1.8937  2.5460
  760MOL0     H 4851   6.222   7.611   0.467 -1.9748 -1.9698  1.4136
  760MOL0     H 4852   6.149   7.684   0.221  1.4373  1.4784 -2.5458
  760MOL0     H 4853   6.307   7.738   0.272  1.3679 -0.3998 -0.3953
  760MOL0     H 4854   6.275   7.478   0.117  0.2968 -0.7622  2.4897
  760MOL0     H 4855   6.425   7.556   0.183  0.5960 -0.2646  0.6902
  760MOL0     H 4856   6.429   7.721   0.036  0.6575 -2.4315  0.0398
  760MOL0     H 4857   6.261   7.733   0.011 -0.6326  0.5657  2.7092
  760MOL0     H 4858   6.459   7.525  -0.099 -0.6741 -0.4228  1.2141
  760MOL0     H 4859   6.387   7.658  -0.191 -1.8423  1.7186  0.4233
  760MOL0     H 4860   6.253   7.094   0.636 -1.7393 -1.7400  3.3398
  760MOL0     H 4861   6.427   6.976   0.771 -1.1321 -0.9802  5.8120
  760MOL0     H 4862   6.915   7.153   1.160 -3.7197  1.2986  3.1448
  760MOL0     H 4863   7.050   7.025   1.288  0.8588 -0.3113  0.2627
  760MOL0     H 4864   6.435   5.208   0.842 -2.6409 -0.1385 -2.8162
  760MOL0     H 4865   6.405   5.272   0.617 -0.2406 -0.6782 -1.6836
  760MOL0     H 4866   6.694   5.736   0.437  1.8207 -0.3753 -0.3147
  760MOL0     H 4867   6.769   5.873   0.239  0.5807 -0.0516  0.4679
  760MOL0     H 4868   6.955   5.829   0.040 -4.2728  2.5611  2.2748
  760MOL0     H 4869   6.922   5.668  -0.031 -0.8844  0.3988 -0.4523
  760MOL0     H 4870   7.044   5.853  -0.166  0.6348  0.3675  4.2836
  760MOL0     H 4871   6.884   5.922  -0.187 -1.4517 -1.6368 -0.1635
  760MOL0     H 4872   6.954   5.795  -0.379 -0.6398  2.5439  1.6610
  760MOL0     H 4873   6.985   5.654  -0.276  0.4786 -0.0222  1.5236
  760MOL0     H 4874   6.729   5.612  -0.267 -4.0695  2.0656 -0.4752
  760MOL0     H 4875   6.769   5.650  -0.426 -0.5596 -1.0697 -0.7475
  760MOL0     H 4876   6.521   5.974  -0.393  1.1744  0.4046 -1.5877
  760MOL0     H 4877   6.691   5.560  -0.025 -1.9308  0.0986  0.2291
  760MOL0     H 4878   6.659   5.281   0.182 -0.6138 -1.4053 -1.8905
  760MOL0     H 4879   6.496   5.337   0.165  2.4175 -7.0664  1.2171
  760MOL0     H 4880   6.605   5.362   0.035  2.5474  1.6840 -0.6736
  761MOL0     O 4881   2.208   7.649   6.780  0.0892 -0.8476 -0.1106
  761MOL0     C 4882   2.231   7.706   6.881  0.1588 -1.0734 -0.8181
  761MOL0     O 4883   2.147   7.802   6.945  0.8680 -0.0428  0.7385
  761MOL0     C 4884   2.037   7.833   6.869 -0.4316 -0.5645 -0.6040
  761MOL0     C 4885   1.919   7.763   6.889  0.7840  0.2773  0.1691
  761MOL0     C 4886   1.802   7.799   6.811 -0.3529 -1.1419 -0.7142
  761MOL0     C 4887   1.811   7.891   6.707 -0.6030  0.1078  0.1829
  761MOL0     O 4888   1.692   7.903   6.643  0.0969  0.3225 -0.5546
  761MOL0     C 4889   1.686   8.023   6.561  0.7695 -0.7574 -0.6306
  761MOL0     C 4890   1.574   8.025   6.453  0.3954  0.2450 -0.7336
  761MOL0     C 4891   1.588   8.150   6.355 -0.1651 -0.1375  0.3474
  761MOL0     C 4892   1.471   8.174   6.268  0.3404 -0.1247  0.4687
  761MOL0     C 4893   1.340   8.192   6.344 -0.4097 -0.7449  0.5158
  761MOL0     C 4894   1.217   8.174   6.250  0.0980 -0.0574  0.5861
  761MOL0     C 4895   1.209   8.031   6.191 -0.1403  0.5770  1.2390
  761MOL0     C 4896   1.161   7.934   6.300 -0.0726 -0.5887 -0.7917
  761MOL0     N 4897   1.177   7.789   6.262  0.9813 -0.0891 -0.0139
  761MOL0     C 4898   1.292   7.721   6.224  0.7349  1.3658  0.4732
  761MOL0     C 4899   1.247   7.611   6.157 -0.8258  0.0363 -0.6906
  761MOL0     C 4900   1.337   7.509   6.095  0.0854 -0.1967 -0.1849
  761MOL0     C 4901   1.286   7.376   6.135 -0.2301  0.1225  0.3990
  761MOL0     C 4902   1.377   7.254   6.085  0.3168  0.5475 -0.2618
  761MOL0     C 4903   1.369   7.250   5.933 -1.0738 -0.1008  0.8877
  761MOL0     O 4904   1.382   7.114   5.897  1.3026  0.7963 -0.2247
  761MOL0     C 4905   1.450   7.113   5.783  0.2469  0.4369  0.2458
  761MOL0     C 4906   1.588   7.104   5.772 -0.5599 -1.1436  0.1882
  761MOL0     C 4907   1.657   7.105   5.643  0.8948  0.0003 -0.2926
  761MOL0     C 4908   1.812   7.103   5.647  0.2091 -0.4499 -0.2309
  761MOL0     C 4909   1.574   7.123   5.534 -0.0341 -0.3140  0.7603
  761MOL0     C 4910   1.620   7.134   5.391  0.2807 -0.1296  0.1392
  761MOL0     O 4911   1.730   7.066   5.359 -0.0748  0.4743  0.4773
  761MOL0     C 4912   1.779   7.063   5.234  0.5739 -0.3349  0.4286
  761MOL0     C 4913   1.827   7.181   5.168 -0.1433 -0.4718 -0.7018
  761MOL0     C 4914   1.872   7.168   5.031 -0.1535 -0.4164  0.0311
  761MOL0     C 4915   1.886   7.041   4.976  0.0464  0.6136  0.4053
  761MOL0     O 4916   1.931   7.033   4.841  0.8850 -0.1234  0.8670
  761MOL0     C 4917   1.986   6.903   4.805 -0.1272 -0.2384 -0.1124
  761MOL0     C 4918   2.054   6.917   4.681  0.1227  0.1532 -0.2747
  761MOL0     C 4919   2.098   6.781   4.626 -0.4314 -0.2432 -0.7998
  761MOL0     C 4920   1.991   6.679   4.624  0.4670 -0.2679 -0.1213
  761MOL0     C 4921   2.048   6.543   4.576  0.1288  0.8038  0.1708
  761MOL0     C 4922   1.933   6.433   4.573  0.4797 -0.5929  0.0986
  761MOL0     C 4923   1.875   6.403   4.705  0.3322  0.5673 -0.2783
  761MOL0     C 4924   1.814   6.259   4.727  0.1346 -0.0996 -0.7436
  761MOL0    Cl 4925   1.923   6.131   4.650  0.2929  0.3190 -0.0983
  761MOL0     C 4926   1.843   6.930   5.046 -0.2779  0.9087 -0.3286
  761MOL0     C 4927   1.805   6.938   5.176  0.9713 -0.9955 -0.8494
  761MOL0     O 4928   1.566   7.210   5.315 -0.2084 -0.1335 -0.0419
  761MOL0     C 4929   1.437   7.133   5.546 -0.4789  0.3793 -0.6495
  761MOL0     C 4930   1.369   7.128   5.669 -0.2079  0.8706 -0.6043
  761MOL0     N 4931   1.110   7.626   6.150 -0.0712  0.2604  0.6345
  761MOL0     N 4932   1.071   7.726   6.214 -0.1674 -0.6825  0.4518
  761MOL0     C 4933   1.935   7.954   6.681 -0.2789 -0.9763 -0.6615
  761MOL0     C 4934   2.048   7.918   6.761 -0.2468 -0.4664 -1.0443
  761MOL0     C 4935   2.360   7.693   6.949  0.2294 -0.8273 -0.2125
  761MOL0     C 4936   2.366   7.711   7.086  0.2283  0.1079 -0.2267
  761MOL0     C 4937   2.488   7.689   7.160 -0.4552  0.3233 -0.2285
  761MOL0     C 4938   2.607   7.663   7.097 -0.2549 -0.4411 -0.3674
  761MOL0     O 4939   2.728   7.638   7.159 -0.1598  0.7227  0.0371
  761MOL0     C 4940   2.732   7.592   7.290 -0.8860 -1.6355 -0.1277
  761MOL0     C 4941   2.850   7.491   7.292  0.0699 -0.6025  0.4913
  761MOL0     C 4942   2.962   7.547   7.370  0.5025  0.4775 -0.7779
  761MOL0     C 4943   3.064   7.632   7.288 -0.7950 -0.2855 -0.0666
  761MOL0     C 4944   3.118   7.569   7.168 -0.3883  0.9991  0.6205
  761MOL0     C 4945   3.145   7.538   7.054 -0.5214 -0.1875 -0.5103
  761MOL0     C 4946   2.604   7.648   6.955 -0.2061 -0.7774 -0.4124
  761MOL0     C 4947   2.480   7.650   6.887 -0.5920  0.0132  0.1202
  761MOL0     C 4948   2.499   7.608   6.743 -0.0107 -0.1787 -0.8026
  761MOL0     H 4949   1.922   7.676   6.953  1.2688 -2.0916 -2.8640
  761MOL0     H 4950   1.719   7.730   6.822  0.0012 -1.3934  0.5468
  761MOL0     H 4951   1.780   8.039   6.507 -0.3477  0.2847 -2.3825
  761MOL0     H 4952   1.670   8.104   6.633 -2.0828 -2.9413  1.4096
  761MOL0     H 4953   1.567   7.932   6.396  0.4076  2.0250 -3.9275
  761MOL0     H 4954   1.476   8.031   6.501  0.2802 -2.3067 -0.5556
  761MOL0     H 4955   1.595   8.242   6.415 -0.5156  0.8383 -1.0667
  761MOL0     H 4956   1.674   8.137   6.289  1.4460 -2.3820  2.6568
  761MOL0     H 4957   1.476   8.259   6.200 -1.5087 -0.8320 -0.6508
  761MOL0     H 4958   1.455   8.107   6.183 -0.6968  3.1470 -2.1116
  761MOL0     H 4959   1.346   8.298   6.372 -0.8096 -0.2237 -1.2368
  761MOL0     H 4960   1.324   8.133   6.435  0.4029 -1.7905  0.0040
  761MOL0     H 4961   1.125   8.199   6.304 -0.9323  1.0485 -1.5307
  761MOL0     H 4962   1.231   8.247   6.170 -2.6816 -1.6764 -1.5714
  761MOL0     H 4963   1.305   8.000   6.149  0.3686  2.3406  1.0274
  761MOL0     H 4964   1.139   8.030   6.107  1.8541  1.3194 -0.5089
  761MOL0     H 4965   1.209   7.966   6.393  1.2682 -0.9663 -1.3313
  761MOL0     H 4966   1.054   7.954   6.312  0.0955 -0.6801  1.1133
  761MOL0     H 4967   1.394   7.749   6.252  0.5362 -1.6656  5.3564
  761MOL0     H 4968   1.440   7.520   6.130 -1.2356  1.4952  3.8214
  761MOL0     H 4969   1.333   7.524   5.987 -2.6162  1.6180  0.0421
  761MOL0     H 4970   1.283   7.390   6.244 -1.5111  3.8546  0.0479
  761MOL0     H 4971   1.182   7.363   6.103 -0.8180  1.7903  1.5011
  761MOL0     H 4972   1.481   7.253   6.119  0.0291  0.2432  0.6476
  761MOL0     H 4973   1.324   7.165   6.120  1.8919 -0.4457 -0.3108
  761MOL0     H 4974   1.279   7.294   5.890  1.4879  2.2662 -2.5433
  761MOL0     H 4975   1.448   7.312   5.891  1.1110 -1.3333  2.9043
  761MOL0     H 4976   1.651   7.113   5.860  0.1717  0.5380 -0.4877
  761MOL0     H 4977   1.846   7.084   5.749 -0.4917 -2.7530 -0.3818
  761MOL0     H 4978   1.867   7.188   5.605  0.6136 -0.0010  1.1306
  761MOL0     H 4979   1.849   7.018   5.590 -0.2472  0.5231 -2.0715
  761MOL0     H 4980   1.821   7.279   5.214  0.5154 -0.9067  0.3478
  761MOL0     H 4981   1.907   7.258   4.983  1.6164  0.6486  3.0387
  761MOL0     H 4982   2.058   6.869   4.880  0.3624  1.5347  0.2817
  761MOL0     H 4983   1.899   6.842   4.780  1.1384 -1.3502 -2.0479
  761MOL0     H 4984   1.988   6.962   4.607  0.0247 -0.1514 -0.3774
  761MOL0     H 4985   2.140   6.983   4.696 -0.9707  1.7459 -0.7522
  761MOL0     H 4986   2.184   6.740   4.680  0.5426  0.4417 -1.7891
  761MOL0     H 4987   2.139   6.785   4.525  1.2838 -4.8277 -0.5274
  761MOL0     H 4988   1.914   6.703   4.550  0.0532 -1.3778 -0.0718
  761MOL0     H 4989   1.937   6.656   4.716 -0.4493 -0.0796 -0.5966
  761MOL0     H 4990   2.090   6.560   4.477 -1.7076 -1.3520 -1.0648
  761MOL0     H 4991   2.133   6.509   4.637 -1.6810  2.1774  3.7388
  761MOL0     H 4992   1.975   6.340   4.534 -1.2641 -1.3632 -0.0303
  761MOL0     H 4993   1.860   6.462   4.497 -0.1738 -3.0714 -0.2967
  761MOL0     H 4994   1.801   6.482   4.720  1.8373  1.7843  1.2004
  761MOL0     H 4995   1.953   6.416   4.781 -1.9774  0.0896  2.2996
  761MOL0     H 4996   1.717   6.257   4.676 -1.4477  0.8272  2.0239
  761MOL0     H 4997   1.798   6.248   4.835  3.1514 -1.5007 -0.3545
  761MOL0     H 4998   1.850   6.829   5.008  0.5429  0.1343  1.7183
  761MOL0     H 4999   1.789   6.849   5.235  1.1321  1.2122  2.8845
  761MOL0     H 5000   1.374   7.134   5.457 -2.4218 -1.0220  0.6348
  761MOL0     H 5001   1.265   7.158   5.665 -0.3246  0.9386  1.6647
  761MOL0     H 5002   1.963   8.036   6.616  3.1689  1.0065  2.9044
  761MOL0     H 5003   2.143   7.955   6.725  0.0371 -0.6719 -0.5109
  761MOL0     H 5004   2.283   7.736   7.152  0.6428  2.1290 -0.4010
  761MOL0     H 5005   2.485   7.702   7.268 -1.7669  0.0800 -0.2108
  761MOL0     H 5006   2.731   7.670   7.367  0.4005 -0.7980 -0.8994
  761MOL0     H 5007   2.643   7.533   7.311  0.3002 -3.2632  0.6344
  761MOL0     H 5008   2.880   7.474   7.188 -1.5554  2.8990 -0.7005
  761MOL0     H 5009   2.807   7.408   7.349  1.2327 -0.0594  2.2021
  761MOL0     H 5010   2.916   7.605   7.451 -2.4243  0.3043 -2.2101
  761MOL0     H 5011   3.018   7.464   7.414  1.5456  0.3050 -2.3566
  761MOL0     H 5012   3.147   7.649   7.357 -0.6438  2.5533 -0.8262
  761MOL0     H 5013   3.015   7.727   7.266 -0.5126 -0.0851  0.1669
  761MOL0     H 5014   3.167   7.510   6.953  0.5307 -1.0372 -0.0606
  761MOL0     H 5015   2.690   7.605   6.904 -1.2412 -3.1254 -0.3258
  761MOL0     H 5016   2.600   7.607   6.701  0.2115 -0.1414 -0.2735
  761MOL0     H 5017   2.446   7.515   6.717 -1.3799  0.6899 -1.2479
  761MOL0     H 5018   2.444   7.675   6.676  2.3272 -1.1590 -3.9612
  762MOL0     O 5019   4.184   9.557   2.088  0.0317 -0.4057 -0.4831
  762MOL0     C 5020   4.139   9.503   2.181 -1.1042  0.2244 -0.6861
  762MOL0     O 5021   4.126   9.560   2.306 -0.1420 -0.4652 -0.1564
  762MOL0     C 5022   4.197   9.680   2.336 -0.2225 -0.6482 -0.4771
  762MOL0     C 5023   4.145   9.742   2.444 -0.4305  0.7091 -0.1620
  762MOL0     C 5024   4.204   9.852   2.503  0.0687 -0.4570  0.7420
  762MOL0     C 5025   4.320   9.904   2.446 -0.0770  0.3075  0.6707
  762MOL0     O 5026   4.382  10.009   2.496 -0.0404 -0.7984 -0.2759
  762MOL0     C 5027   4.419   9.999   2.637  0.0698 -0.0164 -0.3941
  762MOL0     C 5028   4.511  10.127   2.658  1.1994  0.3444 -0.4443
  762MOL0     C 5029   4.626  10.110   2.557  0.2804  0.5084 -0.3714
  762MOL0     C 5030   4.741  10.212   2.566 -0.1500  0.6879  0.2074
  762MOL0     C 5031   4.817  10.217   2.430  0.8037  0.0163 -0.3524
  762MOL0     C 5032   4.893  10.087   2.393 -0.3086 -0.3100  0.1527
  762MOL0     C 5033   4.938  10.075   2.244  0.5577 -0.3433 -0.7437
  762MOL0     C 5034   4.822  10.051   2.152 -0.6488  0.6221 -0.6541
  762MOL0     N 5035   4.794   9.909   2.140  0.2615  0.0233 -0.8997
  762MOL0     C 5036   4.741   9.819   2.229  0.3652 -0.3580 -1.0341
  762MOL0     C 5037   4.734   9.700   2.161  0.7361  0.2670  0.7780
  762MOL0     C 5038   4.661   9.591   2.215 -0.2981 -0.6728 -0.3302
  762MOL0     C 5039   4.736   9.513   2.315 -1.2594  0.8330 -0.4044
  762MOL0     C 5040   4.663   9.382   2.356 -0.8738 -0.4067  0.7507
  762MOL0     C 5041   4.531   9.416   2.437  0.8028 -0.1983  1.4950
  762MOL0     O 5042   4.560   9.510   2.537  0.0762 -0.0626  0.0835
  762MOL0     C 5043   4.455   9.554   2.615  0.3023  0.1664  0.5856
  762MOL0     C 5044   4.481   9.637   2.720  0.3013 -0.0598 -0.4513
  762MOL0     C 5045   4.386   9.683   2.812  1.3095  0.1049 -0.3858
  762MOL0     C 5046   4.430   9.796   2.899 -0.4262 -0.2754 -0.1445
  762MOL0     C 5047   4.255   9.617   2.813  0.0605 -0.8516  0.0362
  762MOL0     C 5048   4.136   9.653   2.892 -0.6858 -0.3913 -0.8277
  762MOL0     O 5049   4.013   9.596   2.861 -0.0936 -0.0656 -0.5391
  762MOL0     C 5050   3.900   9.610   2.933  0.6595  1.0109 -0.8864
  762MOL0     C 5051   3.786   9.556   2.867  0.6204 -0.4306 -1.2049
  762MOL0     C 5052   3.658   9.563   2.934  1.2490  0.0615 -0.0050
  762MOL0     C 5053   3.641   9.618   3.061 -0.1728  0.3143  0.3025
  762MOL0     O 5054   3.513   9.630   3.105  0.5665  0.3803  0.1370
  762MOL0     C 5055   3.488   9.732   3.202 -1.5900 -0.3032  0.9410
  762MOL0     C 5056   3.345   9.777   3.177 -0.0695  1.8063 -0.2470
  762MOL0     C 5057   3.252   9.679   3.256  0.0665 -1.3246  1.2767
  762MOL0     C 5058   3.104   9.721   3.231  0.4548  0.0402  0.0152
  762MOL0     C 5059   2.987   9.619   3.260  0.3955 -1.2850 -0.9760
  762MOL0     C 5060   3.012   9.472   3.237  0.3694  0.4556  0.1946
  762MOL0     C 5061   3.057   9.434   3.096 -0.2108  1.0759 -0.4467
  762MOL0     C 5062   3.009   9.287   3.056 -0.9888  0.0899 -0.0985
  762MOL0    Cl 5063   3.110   9.220   2.932  0.1333  0.2711 -0.4104
  762MOL0     C 5064   3.760   9.649   3.124 -0.8545  0.3396  0.5454
  762MOL0     C 5065   3.887   9.651   3.065 -0.1162  0.1251 -0.3548
  762MOL0     O 5066   4.157   9.731   2.987  0.2381  0.5464  0.9169
  762MOL0     C 5067   4.229   9.529   2.710  0.3832  0.3750  0.0316
  762MOL0     C 5068   4.324   9.492   2.610  0.0399 -0.5639 -0.2302
  762MOL0     N 5069   4.803   9.721   2.041  0.6739 -0.4629  0.1900
  762MOL0     N 5070   4.842   9.843   2.029 -0.3801 -1.0992 -0.9600
  762MOL0     C 5071   4.376   9.846   2.328 -0.2325 -0.6962 -0.6631
  762MOL0     C 5072   4.315   9.729   2.277  0.3924  0.4327 -0.3626
  762MOL0     C 5073   4.061   9.372   2.161 -0.3084 -0.9267  0.7776
  762MOL0     C 5074   3.962   9.331   2.251  0.7845 -0.7234  0.9649
  762MOL0     C 5075   3.879   9.222   2.224  0.6882 -0.0893 -0.7531
  762MOL0     C 5076   3.903   9.153   2.110  0.3969  0.3013 -0.5291
  762MOL0     O 5077   3.822   9.047   2.085  0.1372 -0.2130 -0.0346
  762MOL0     C 5078   3.686   9.039   2.113 -0.5320  0.0890 -0.9210
  762MOL0     C 5079   3.605   9.120   2.009 -0.6419 -0.2402  0.7455
  762MOL0     C 5080   3.542   9.249   2.064  0.4606 -0.4175 -0.2573
  762MOL0     C 5081   3.448   9.309   1.962  0.1120  0.7233  0.5593
  762MOL0     C 5082   3.399   9.432   2.019  0.3245  0.7855 -0.0914
  762MOL0     C 5083   3.334   9.520   2.079 -0.3329 -0.7805 -0.4149
  762MOL0     C 5084   4.010   9.175   2.023 -0.4841 -0.0344  0.4353
  762MOL0     C 5085   4.092   9.295   2.051 -0.9455  0.1229  0.6934
  762MOL0     C 5086   4.196   9.328   1.938 -0.8971 -0.7699  0.2526
  762MOL0     H 5087   4.053   9.711   2.493 -0.0069 -0.6571 -0.1868
  762MOL0     H 5088   4.158   9.901   2.588 -0.8321  1.6895 -0.8926
  762MOL0     H 5089   4.463   9.903   2.663 -0.1267 -0.5706 -2.0104
  762MOL0     H 5090   4.334  10.009   2.706  1.7428 -0.6512  1.8690
  762MOL0     H 5091   4.452  10.216   2.638  0.8041  0.2828  0.4323
  762MOL0     H 5092   4.547  10.125   2.761  1.5131  1.6777 -0.5188
  762MOL0     H 5093   4.658  10.010   2.585 -2.1649 -0.2698 -0.1503
  762MOL0     H 5094   4.584  10.105   2.457 -2.2811 -2.3992  0.7120
  762MOL0     H 5095   4.708  10.310   2.602 -2.2338  0.1238 -0.0303
  762MOL0     H 5096   4.796  10.171   2.651 -1.9082 -1.0009  0.6085
  762MOL0     H 5097   4.887  10.301   2.437 -0.2054  1.0595 -2.1179
  762MOL0     H 5098   4.743  10.253   2.358 -2.8400  0.8041  3.3998
  762MOL0     H 5099   4.975  10.093   2.465 -3.5976 -0.1410  4.2105
  762MOL0     H 5100   4.834   9.999   2.422  0.7342 -1.0122  0.2054
  762MOL0     H 5101   5.019  10.005   2.219  0.2821 -1.2344  0.7205
  762MOL0     H 5102   4.988  10.170   2.222  4.8594 -1.9917  0.7547
  762MOL0     H 5103   4.733  10.101   2.191  0.1755  2.0462 -0.5253
  762MOL0     H 5104   4.854  10.079   2.051 -0.4136  0.8740 -0.5118
  762MOL0     H 5105   4.711   9.830   2.333 -1.5918 -0.0126 -1.6098
  762MOL0     H 5106   4.636   9.524   2.131  1.5615 -1.9751  0.1068
  762MOL0     H 5107   4.571   9.631   2.264  1.4143  1.4700  1.2688
  762MOL0     H 5108   4.836   9.486   2.277 -0.8343  0.7819  0.7255
  762MOL0     H 5109   4.749   9.577   2.402  0.2910 -2.6463  2.1978
  762MOL0     H 5110   4.655   9.307   2.278 -1.4884  1.5499 -1.1540
  762MOL0     H 5111   4.730   9.338   2.431 -0.1494  1.2940  1.1468
  762MOL0     H 5112   4.464   9.466   2.366  2.4809 -0.5320 -0.4300
  762MOL0     H 5113   4.490   9.326   2.483  1.1449  0.0986  2.4078
  762MOL0     H 5114   4.578   9.685   2.718  0.0754  0.4615  0.4127
  762MOL0     H 5115   4.448   9.766   3.002  3.0743  0.9918 -0.2415
  762MOL0     H 5116   4.351   9.872   2.894 -3.4578 -3.2587 -3.0849
  762MOL0     H 5117   4.522   9.839   2.858 -0.7140  1.0740  0.5861
  762MOL0     H 5118   3.777   9.531   2.762 -1.8165  1.2200 -1.4743
  762MOL0     H 5119   3.564   9.531   2.891  2.2672  0.0951 -2.4248
  762MOL0     H 5120   3.513   9.697   3.302 -0.4706  0.7392  1.0599
  762MOL0     H 5121   3.550   9.822   3.195  2.3866 -2.7442  1.5657
  762MOL0     H 5122   3.345   9.876   3.224  1.8957  0.0983  3.8254
  762MOL0     H 5123   3.325   9.784   3.070 -0.9801 -0.7676 -0.2997
  762MOL0     H 5124   3.264   9.708   3.361  1.7340  1.2318  0.4928
  762MOL0     H 5125   3.275   9.574   3.235  2.2411 -0.7155  0.2918
  762MOL0     H 5126   3.096   9.758   3.129  2.0217  0.6942  0.0981
  762MOL0     H 5127   3.087   9.805   3.300  0.7338  1.4664 -1.5938
  762MOL0     H 5128   2.950   9.646   3.359  0.3933  0.8125 -1.5085
  762MOL0     H 5129   2.904   9.642   3.193 -0.4764  2.4614  1.1182
  762MOL0     H 5130   2.916   9.423   3.259  0.8442  0.0577  1.4903
  762MOL0     H 5131   3.086   9.429   3.305 -0.6223 -1.1713  0.3087
  762MOL0     H 5132   3.166   9.423   3.096 -0.4473 -2.0386 -1.5536
  762MOL0     H 5133   3.025   9.511   3.025 -1.4255  1.6726  0.6871
  762MOL0     H 5134   2.905   9.284   3.023 -1.2456 -0.1109  0.6975
  762MOL0     H 5135   3.001   9.220   3.143 -1.3277 -0.8466 -0.8348
  762MOL0     H 5136   3.749   9.692   3.223 -2.0538  1.0613  0.1148
  762MOL0     H 5137   3.969   9.694   3.122  0.2874 -1.6496  0.4540
  762MOL0     H 5138   4.137   9.472   2.699  0.8313 -1.1582  3.2052
  762MOL0     H 5139   4.283   9.426   2.534  0.6671 -1.3687  0.1214
  762MOL0     H 5140   4.459   9.900   2.283 -1.2998  0.7644 -0.9357
  762MOL0     H 5141   4.354   9.687   2.184 -2.4813  1.1024 -1.9974
  762MOL0     H 5142   3.952   9.394   2.339  1.3433  1.5078 -0.4992
  762MOL0     H 5143   3.803   9.209   2.300  0.2227  1.0696 -1.0053
  762MOL0     H 5144   3.654   8.934   2.113  1.1310 -0.4545 -1.8511
  762MOL0     H 5145   3.657   9.078   2.211 -0.5943 -1.2248 -0.4031
  762MOL0     H 5146   3.524   9.060   1.969 -1.1248 -0.5868  2.1946
  762MOL0     H 5147   3.662   9.160   1.924  1.3167  0.9643  2.5051
  762MOL0     H 5148   3.486   9.224   2.154 -0.9449  0.8745 -0.7186
  762MOL0     H 5149   3.621   9.320   2.087  0.9602  0.2571 -3.5040
  762MOL0     H 5150   3.360   9.244   1.953  0.0376  1.0178 -1.4082
  762MOL0     H 5151   3.481   9.314   1.858 -2.2600 -0.8354 -0.3683
  762MOL0     H 5152   3.275   9.591   2.132  0.8683  0.0013 -0.0725
  762MOL0     H 5153   4.026   9.109   1.938  2.9244 -0.3572  1.1628
  762MOL0     H 5154   4.203   9.252   1.860 -0.0449 -0.6534  0.2038
  762MOL0     H 5155   4.164   9.422   1.892 -0.8976 -0.4942  0.8062
  762MOL0     H 5156   4.301   9.333   1.966 -0.8961 -2.6408  0.6773
  763MOL0     O 5157  10.880   1.435   7.310  0.3035  0.4299 -0.1111
  763MOL0     C 5158  10.770   1.493   7.346 -1.1870  0.1041 -0.2519
  763MOL0     O 5159  10.664   1.434   7.413 -0.0740  0.2139 -0.7931
  763MOL0     C 5160  10.650   1.306   7.446  0.2036  1.3476  0.2071
  763MOL0     C 5161  10.683   1.270   7.577 -0.0599  0.5658  0.0681
  763MOL0     C 5162  10.661   1.139   7.617  0.5498 -0.1415  0.3914
  763MOL0     C 5163  10.602   1.046   7.530  0.2614  0.4068  0.0079
  763MOL0     O 5164  10.576   0.919   7.588  0.1259 -0.0798  0.2643
  763MOL0     C 5165  10.644   0.805   7.517 -0.0059 -0.2898 -0.5557
  763MOL0     C 5166  10.649   0.680   7.605  0.1627  0.5321 -0.0826
  763MOL0     C 5167  10.755   0.701   7.717 -0.2686 -0.2339 -0.1967
  763MOL0     C 5168  10.819   0.590   7.788  1.1924 -0.5100  0.4556
  763MOL0     C 5169  10.947   0.625   7.863  0.1394 -1.1601  0.3168
  763MOL0     C 5170  10.923   0.736   7.975  0.6227  0.5518  1.1355
  763MOL0     C 5171  10.813   0.690   8.071  0.0518  0.6335 -0.0986
  763MOL0     C 5172  10.766   0.810   8.150  1.2568 -0.7892 -0.6489
  763MOL0     N 5173  10.663   0.780   8.253  0.1309 -0.9153  0.2720
  763MOL0     C 5174  10.619   0.657   8.291 -1.1564 -0.1855 -0.2602
  763MOL0     C 5175  10.509   0.683   8.366 -0.6388 -0.5726 -1.2198
  763MOL0     C 5176  10.418   0.588   8.443 -0.6270  0.4480 -0.4763
  763MOL0     C 5177  10.295   0.576   8.362  0.8529  0.7312 -0.5392
  763MOL0     C 5178  10.170   0.527   8.435 -0.1040 -1.1251  0.4938
  763MOL0     C 5179  10.182   0.396   8.493 -0.4395 -0.3224 -0.4335
  763MOL0     O 5180  10.221   0.301   8.392  0.0243  0.4054  0.3924
  763MOL0     C 5181  10.212   0.168   8.434  0.4969  0.0428  0.6475
  763MOL0     C 5182  10.285   0.115   8.550 -0.4089 -0.2142 -0.3714
  763MOL0     C 5183  10.264  -0.017   8.598  0.2172  0.2131 -0.2940
  763MOL0     C 5184  10.340  -0.055   8.720  1.0334 -0.3453 -0.2108
  763MOL0     C 5185  10.181  -0.106   8.516 -0.7606  0.3283 -0.1933
  763MOL0     C 5186  10.164  -0.256   8.537  0.3425  2.1384 -0.0743
  763MOL0     O 5187  10.259  -0.324   8.601  0.2675  0.5131 -0.3225
  763MOL0     C 5188  10.252  -0.455   8.625  1.0222  0.3887 -1.1122
  763MOL0     C 5189  10.364  -0.543   8.601 -0.6783  0.5410 -0.5989
  763MOL0     C 5190  10.362  -0.685   8.621  0.1125 -0.7876  0.8377
  763MOL0     C 5191  10.237  -0.735   8.672 -0.1174 -0.6251 -1.1334
  763MOL0     O 5192  10.251  -0.867   8.718 -0.3705  0.5366 -0.0145
  763MOL0     C 5193  10.141  -0.961   8.754 -0.3282  1.3679 -0.2724
  763MOL0     C 5194  10.200  -1.073   8.851 -0.2757  0.2813  0.3237
  763MOL0     C 5195  10.313  -1.151   8.784 -0.3350  0.4804 -0.3062
  763MOL0     C 5196  10.354  -1.287   8.847  1.0179  0.2633  0.5511
  763MOL0     C 5197  10.451  -1.357   8.760 -0.3707  0.2172  0.6826
  763MOL0     C 5198  10.597  -1.306   8.764 -1.7901 -0.7088 -1.0716
  763MOL0     C 5199  10.697  -1.381   8.674 -0.4525  0.0801  0.5561
  763MOL0     C 5200  10.843  -1.376   8.713 -0.4421 -0.5044  0.0713
  763MOL0    Cl 5201  10.958  -1.463   8.601 -0.1488 -0.1294  0.1151
  763MOL0     C 5202  10.119  -0.650   8.685  0.2020  1.2940  1.1178
  763MOL0     C 5203  10.126  -0.512   8.664  0.8481  1.4005  0.2986
  763MOL0     O 5204  10.062  -0.299   8.490  0.3790  1.0565 -0.0317
  763MOL0     C 5205  10.116  -0.051   8.403 -0.4823  0.2139 -0.2809
  763MOL0     C 5206  10.131   0.078   8.365 -0.9029 -0.3706 -0.2842
  763MOL0     N 5207  10.494   0.825   8.369 -0.7931  0.4754 -0.7956
  763MOL0     N 5208  10.595   0.881   8.306 -0.4092  0.5675 -0.0241
  763MOL0     C 5209  10.579   1.079   7.395  0.4355  0.9235 -0.1017
  763MOL0     C 5210  10.609   1.210   7.355  0.4704  0.0186  1.0617
  763MOL0     C 5211  10.778   1.638   7.321  0.5710  0.0296  0.5573
  763MOL0     C 5212  10.812   1.671   7.189 -0.3562 -0.0933  0.0883
  763MOL0     C 5213  10.818   1.800   7.138 -0.0530  0.4270  0.0282
  763MOL0     C 5214  10.742   1.896   7.210  0.2050  0.3246  0.5913
  763MOL0     O 5215  10.712   2.020   7.161 -0.5075  0.7185  0.9781
  763MOL0     C 5216  10.815   2.089   7.092 -0.2923 -0.1661  0.0528
  763MOL0     C 5217  10.759   2.134   6.970 -0.6663 -0.5976  0.3100
  763MOL0     C 5218  10.840   2.247   6.908  0.6433  0.7565 -0.2404
  763MOL0     C 5219  10.991   2.221   6.877  0.0849 -0.1272  0.2435
  763MOL0     C 5220  11.011   2.131   6.763  0.0306 -0.1503  0.1196
  763MOL0     C 5221  11.012   2.081   6.654 -0.0007  0.0367  0.0455
  763MOL0     C 5222  10.700   1.862   7.338 -0.2120 -0.3402 -0.4969
  763MOL0     C 5223  10.721   1.737   7.403  0.1817  0.0383  0.2304
  763MOL0     C 5224  10.675   1.722   7.551  0.8462 -0.3973  0.4675
  763MOL0     H 5225  10.723   1.344   7.646 -0.4702  0.5480  0.3319
  763MOL0     H 5226  10.677   1.101   7.717  0.2980  4.1375  2.3159
  763MOL0     H 5227  10.750   0.828   7.498  0.1746  0.2983  1.0126
  763MOL0     H 5228  10.589   0.780   7.426 -1.0953  3.0059 -0.9264
  763MOL0     H 5229  10.549   0.662   7.646 -0.1593  1.7518 -0.3048
  763MOL0     H 5230  10.687   0.595   7.548 -0.6734 -0.4754  0.8142
  763MOL0     H 5231  10.833   0.765   7.675  0.6321 -3.3517 -3.8137
  763MOL0     H 5232  10.707   0.763   7.793  2.3738  2.2648 -0.4221
  763MOL0     H 5233  10.745   0.532   7.844  0.3411  0.8013  0.7211
  763MOL0     H 5234  10.851   0.525   7.705 -0.0729 -2.4175  1.3897
  763MOL0     H 5235  11.025   0.649   7.790  0.4652 -2.5143  0.2009
  763MOL0     H 5236  10.992   0.539   7.913  0.6644 -0.5663  0.8841
  763MOL0     H 5237  11.012   0.767   8.031  0.1957  1.0311  1.5625
  763MOL0     H 5238  10.894   0.826   7.920  0.6568 -1.2798 -2.0767
  763MOL0     H 5239  10.844   0.601   8.127  0.5814 -0.0187 -1.3924
  763MOL0     H 5240  10.727   0.643   8.022  0.2334  0.9377 -0.7049
  763MOL0     H 5241  10.852   0.857   8.199  0.7465  0.3132 -0.7966
  763MOL0     H 5242  10.723   0.884   8.082 -1.4835  0.9257  2.6732
  763MOL0     H 5243  10.655   0.558   8.266 -0.5144  0.8193 -3.8797
  763MOL0     H 5244  10.389   0.618   8.544  1.0476 -1.0325  0.4931
  763MOL0     H 5245  10.468   0.492   8.457  1.5736  1.6376  0.3682
  763MOL0     H 5246  10.261   0.667   8.311  0.7480  0.6587 -0.6021
  763MOL0     H 5247  10.315   0.515   8.273 -0.2965  3.0304 -2.4817
  763MOL0     H 5248  10.135   0.611   8.497 -0.4000 -1.4729  0.8003
  763MOL0     H 5249  10.089   0.525   8.361  1.5553  1.0596 -1.5579
  763MOL0     H 5250  10.246   0.405   8.581  2.5577 -0.2064 -2.4704
  763MOL0     H 5251  10.090   0.354   8.534  0.3681 -2.2144 -0.4737
  763MOL0     H 5252  10.350   0.175   8.613  0.9764 -1.7526 -0.2861
  763MOL0     H 5253  10.380   0.033   8.772 -0.0285 -1.8847  3.4946
  763MOL0     H 5254  10.415  -0.132   8.702  1.3117  0.1481 -1.1884
  763MOL0     H 5255  10.263  -0.103   8.782 -0.0647 -1.4918 -2.3498
  763MOL0     H 5256  10.447  -0.488   8.559 -0.8686  1.9373  0.7689
  763MOL0     H 5257  10.454  -0.735   8.593  1.0489  1.1525  0.2778
  763MOL0     H 5258  10.051  -0.916   8.796  0.7336  2.7560  0.6322
  763MOL0     H 5259  10.115  -1.012   8.662 -2.0571  1.3285  0.2082
  763MOL0     H 5260  10.240  -1.030   8.943  1.0426 -1.5897  0.6710
  763MOL0     H 5261  10.121  -1.137   8.892  0.0029  1.2328  2.4665
  763MOL0     H 5262  10.402  -1.087   8.782 -1.1397  1.7023  1.0686
  763MOL0     H 5263  10.289  -1.170   8.679 -0.9176  0.5225 -0.1832
  763MOL0     H 5264  10.273  -1.359   8.866  2.4135 -0.9849  2.1184
  763MOL0     H 5265  10.400  -1.271   8.945  5.0839 -1.1425 -0.9453
  763MOL0     H 5266  10.456  -1.465   8.779  0.2247 -0.1627 -1.3939
  763MOL0     H 5267  10.417  -1.344   8.657 -0.6093  0.1736  0.7578
  763MOL0     H 5268  10.642  -1.324   8.861  2.3818 -0.7734 -2.8029
  763MOL0     H 5269  10.609  -1.199   8.745  1.0934 -0.3409  2.0048
  763MOL0     H 5270  10.680  -1.344   8.572 -4.0946 -3.2742 -0.2779
  763MOL0     H 5271  10.667  -1.481   8.645  1.0216 -0.3448  0.3972
  763MOL0     H 5272  10.840  -1.430   8.808 -0.9432 -0.4096  0.1154
  763MOL0     H 5273  10.882  -1.277   8.737 -2.3584  0.6018 -1.0290
  763MOL0     H 5274  10.039  -0.702   8.738  2.0217 -0.3622  2.3799
  763MOL0     H 5275  10.046  -0.441   8.686 -2.4772 -0.9636 -2.9078
  763MOL0     H 5276  10.038  -0.098   8.343 -1.0907  0.8670 -0.0135
  763MOL0     H 5277  10.090   0.101   8.267 -5.6922  0.2105  1.5990
  763MOL0     H 5278  10.544   0.996   7.333 -0.6201 -0.1766  1.8645
  763MOL0     H 5279  10.600   1.244   7.252  5.1321 -3.5347 -0.8879
  763MOL0     H 5280  10.836   1.585   7.128  4.9413  0.4460  0.8921
  763MOL0     H 5281  10.851   1.807   7.035 -5.4707 -3.1727 -2.4206
  763MOL0     H 5282  10.844   2.176   7.152  2.4322 -0.0108 -1.3610
  763MOL0     H 5283  10.905   2.030   7.074 -1.3882 -1.6535 -0.7454
  763MOL0     H 5284  10.657   2.173   6.977 -0.5724 -0.2598 -0.1626
  763MOL0     H 5285  10.756   2.046   6.904  0.6467  0.6266 -1.4823
  763MOL0     H 5286  10.786   2.285   6.821 -2.8209 -1.2842  0.8350
  763MOL0     H 5287  10.834   2.335   6.974 -3.7406  0.0993  0.5237
  763MOL0     H 5288  11.038   2.199   6.973 -1.3908 -1.6213  0.6720
  763MOL0     H 5289  11.038   2.314   6.841 -1.0536  1.2438  2.1390
  763MOL0     H 5290  10.998   2.030   6.561 -1.8150  0.2510  0.1637
  763MOL0     H 5291  10.650   1.946   7.386  2.3212 -0.1445  2.0216
  763MOL0     H 5292  10.640   1.620   7.568 -1.9883  0.1266 -1.5107
  763MOL0     H 5293  10.762   1.754   7.608  2.7581  0.3600 -2.6286
  763MOL0     H 5294  10.592   1.789   7.575 -0.3634 -2.5875  2.8038
  764MOL0     O 5295   2.168   4.769  10.510 -0.0968 -0.7715  0.1078
  764MOL0     C 5296   2.251   4.724  10.431 -0.0104 -0.8588 -0.0495
  764MOL0     O 5297   2.259   4.588  10.401  0.2968  0.8511 -0.5336
  764MOL0     C 5298   2.183   4.492  10.457  0.7741  1.0258 -0.5307
  764MOL0     C 5299   2.156   4.381  10.372 -0.9119 -0.1115 -0.3469
  764MOL0     C 5300   2.096   4.266  10.413  0.2887  0.4304 -0.3267
  764MOL0     C 5301   2.078   4.249  10.552  0.8834  0.6673  0.5602
  764MOL0     O 5302   2.037   4.120  10.585  0.4640 -0.0520  0.2979
  764MOL0     C 5303   2.016   4.087  10.724 -1.2662 -0.0892 -0.3238
  764MOL0     C 5304   2.019   3.932  10.731  0.2431 -0.3914  0.6328
  764MOL0     C 5305   1.894   3.871  10.673  0.4620  0.2384 -0.3947
  764MOL0     C 5306   1.867   3.723  10.691  0.1597  0.3079  0.5289
  764MOL0     C 5307   1.923   3.648  10.561 -0.0725 -0.4731 -0.2181
  764MOL0     C 5308   1.931   3.497  10.579  0.0866  0.4245  0.3658
  764MOL0     C 5309   1.797   3.436  10.609 -0.0242  0.0567 -0.0761
  764MOL0     C 5310   1.831   3.289  10.669 -0.6853  0.7874  0.2620
  764MOL0     N 5311   1.878   3.301  10.812 -0.4771  1.1103 -0.5840
  764MOL0     C 5312   1.957   3.203  10.880 -0.2610 -0.6564  0.2734
  764MOL0     C 5313   1.987   3.242  11.004 -0.4368 -0.4370 -0.6763
  764MOL0     C 5314   2.066   3.171  11.112 -0.0039 -0.2104  0.3953
  764MOL0     C 5315   2.214   3.198  11.094 -0.5190  0.4356 -0.4094
  764MOL0     C 5316   2.250   3.343  11.135 -0.0575 -0.2188 -0.9438
  764MOL0     C 5317   2.276   3.344  11.293 -0.5185 -0.7890  0.3685
  764MOL0     O 5318   2.363   3.454  11.320  0.1511 -0.4130  0.2973
  764MOL0     C 5319   2.335   3.573  11.250 -0.2422  0.8252 -0.0864
  764MOL0     C 5320   2.211   3.637  11.227  0.7475  0.3777  0.5047
  764MOL0     C 5321   2.191   3.745  11.149  0.4803 -0.5538 -0.2097
  764MOL0     C 5322   2.056   3.804  11.143  0.2114 -0.5239  0.2708
  764MOL0     C 5323   2.310   3.810  11.099  0.1292  0.1917  0.5668
  764MOL0     C 5324   2.314   3.950  11.026  0.0636  0.6527  0.0253
  764MOL0     O 5325   2.440   3.988  10.984  0.1410 -0.0176 -0.7793
  764MOL0     C 5326   2.459   4.122  10.943  0.1099 -0.3295  0.0949
  764MOL0     C 5327   2.545   4.204  11.020  0.2668 -0.1200 -0.4865
  764MOL0     C 5328   2.575   4.333  10.968  0.2478  0.9490 -0.6372
  764MOL0     C 5329   2.518   4.372  10.851 -0.5751  0.1790  0.1850
  764MOL0     O 5330   2.533   4.498  10.809  0.3948  0.2093  0.1488
  764MOL0     C 5331   2.545   4.525  10.673 -1.0340 -0.9163  0.4061
  764MOL0     C 5332   2.639   4.639  10.651  0.3417 -0.2496  0.3473
  764MOL0     C 5333   2.777   4.605  10.686  0.4621 -0.3626  0.2730
  764MOL0     C 5334   2.861   4.725  10.702 -0.3587  0.4926 -0.8000
  764MOL0     C 5335   3.016   4.694  10.719 -0.5637  0.2156  0.3398
  764MOL0     C 5336   3.107   4.808  10.691 -0.6531  0.8368 -0.2808
  764MOL0     C 5337   3.085   4.930  10.769  0.0492  0.5319 -0.2637
  764MOL0     C 5338   3.175   5.036  10.725  0.2001  0.0349  0.7751
  764MOL0    Cl 5339   3.347   4.983  10.744  0.0280 -0.0662 -0.1929
  764MOL0     C 5340   2.437   4.286  10.773 -0.4827 -0.0784  0.2595
  764MOL0     C 5341   2.408   4.157  10.821 -0.1090 -0.2972  0.2482
  764MOL0     O 5342   2.213   4.010  11.001 -0.1304  0.3424  0.5502
  764MOL0     C 5343   2.438   3.749  11.123  0.8214 -0.4387 -0.3145
  764MOL0     C 5344   2.445   3.632  11.193  0.4902  0.7650  0.2043
  764MOL0     N 5345   1.920   3.367  11.017  0.2794  0.1342 -0.5154
  764MOL0     N 5346   1.863   3.400  10.908 -0.5813 -0.4545 -0.4307
  764MOL0     C 5347   2.105   4.351  10.638 -0.1906  0.3559  0.2513
  764MOL0     C 5348   2.148   4.475  10.587  0.2022 -0.2578 -0.3595
  764MOL0     C 5349   2.346   4.820  10.364  0.1164  1.1504  0.1873
  764MOL0     C 5350   2.442   4.755  10.286 -0.1222  0.0758 -0.2255
  764MOL0     C 5351   2.544   4.819  10.219 -0.3509  1.0808  0.0847
  764MOL0     C 5352   2.548   4.963  10.220  0.5706  0.2631  1.0392
  764MOL0     O 5353   2.635   5.064  10.165 -0.4150  0.3928  0.0608
  764MOL0     C 5354   2.691   5.027  10.037 -0.1732 -0.0077 -0.1756
  764MOL0     C 5355   2.712   5.150   9.958  0.0687 -0.0986  0.5086
  764MOL0     C 5356   2.817   5.133   9.841 -0.0243  0.1680  0.1389
  764MOL0     C 5357   2.840   5.257   9.758 -0.4611 -0.4274  0.6024
  764MOL0     C 5358   2.729   5.304   9.684 -0.2313  0.0081  0.4894
  764MOL0     C 5359   2.635   5.350   9.624 -0.8058 -0.6097  0.1932
  764MOL0     C 5360   2.447   5.024  10.294  0.5151  0.3301 -0.0748
  764MOL0     C 5361   2.351   4.955  10.380 -0.3071  0.1919  1.3819
  764MOL0     C 5362   2.250   5.037  10.451 -0.1752  0.3360  0.1542
  764MOL0     H 5363   2.193   4.394  10.271  3.4585 -0.6711  0.9669
  764MOL0     H 5364   2.063   4.194  10.338 -0.3828 -2.7373  2.7585
  764MOL0     H 5365   1.914   4.123  10.742 -2.2350 -3.0958  0.7716
  764MOL0     H 5366   2.072   4.140  10.802 -3.0679  0.8363  0.4328
  764MOL0     H 5367   2.110   3.888  10.690 -0.5952 -3.1265  1.4894
  764MOL0     H 5368   2.029   3.896  10.834  2.3192 -3.4058 -0.4745
  764MOL0     H 5369   1.820   3.909  10.744 -0.2059  0.1969 -1.0674
  764MOL0     H 5370   1.878   3.894  10.567 -2.0978  1.5002  0.1976
  764MOL0     H 5371   1.903   3.695  10.790  0.3790  1.2777  0.7385
  764MOL0     H 5372   1.759   3.704  10.696 -0.1110  1.0245 -1.5315
  764MOL0     H 5373   2.021   3.690  10.536  0.0762 -0.3075  0.5851
  764MOL0     H 5374   1.873   3.656  10.465 -0.1965 -1.8103 -0.2746
  764MOL0     H 5375   1.972   3.458  10.486 -0.3002  1.3531 -0.2045
  764MOL0     H 5376   1.999   3.488  10.664 -0.0260 -0.4243  0.3707
  764MOL0     H 5377   1.746   3.419  10.514  1.2102  0.2051 -0.7783
  764MOL0     H 5378   1.730   3.494  10.674  1.1094  0.5989  0.6314
  764MOL0     H 5379   1.739   3.231  10.662 -3.3591  4.0117  3.9354
  764MOL0     H 5380   1.905   3.245  10.602 -0.6105  0.8473  0.3051
  764MOL0     H 5381   1.996   3.115  10.830  1.2884 -0.8033  1.6350
  764MOL0     H 5382   2.040   3.065  11.107  1.2651 -0.4840 -2.3858
  764MOL0     H 5383   2.023   3.216  11.201 -0.3265 -1.8330  1.0981
  764MOL0     H 5384   2.278   3.129  11.150  0.8781 -0.2618 -2.7240
  764MOL0     H 5385   2.242   3.185  10.989  1.2738 -2.0765  0.2781
  764MOL0     H 5386   2.330   3.373  11.067 -1.4410  0.2624 -2.4509
  764MOL0     H 5387   2.161   3.405  11.121  0.6929  1.2775  0.5737
  764MOL0     H 5388   2.189   3.335  11.358  0.2446 -0.2421  1.5088
  764MOL0     H 5389   2.342   3.258  11.306  0.6878  0.1133  0.4738
  764MOL0     H 5390   2.128   3.595  11.284 -1.4738  2.5792 -0.8698
  764MOL0     H 5391   2.005   3.777  11.236  0.8440 -2.0616  0.2058
  764MOL0     H 5392   2.006   3.756  11.058  3.5513 -1.7421 -1.1534
  764MOL0     H 5393   2.048   3.912  11.131 -1.3263 -0.4807  1.3145
  764MOL0     H 5394   2.576   4.160  11.114 -3.2264  1.1269  1.4396
  764MOL0     H 5395   2.639   4.402  11.021 -2.4470  2.6611  0.5958
  764MOL0     H 5396   2.579   4.442  10.611  0.2160  1.7877 -2.7900
  764MOL0     H 5397   2.454   4.561  10.624 -0.7824  0.3179  0.7934
  764MOL0     H 5398   2.635   4.669  10.546  0.5787 -0.4588  0.2762
  764MOL0     H 5399   2.611   4.717  10.722  0.5818 -0.7391  0.9883
  764MOL0     H 5400   2.819   4.549  10.601 -1.4957  1.3120 -1.9443
  764MOL0     H 5401   2.781   4.555  10.783  2.3324 -2.5677 -0.8599
  764MOL0     H 5402   2.824   4.783  10.786  0.8301  0.4008 -0.1795
  764MOL0     H 5403   2.846   4.793  10.618  1.7710  0.3923 -1.3337
  764MOL0     H 5404   3.028   4.647  10.817 -1.1343  1.2615  0.9323
  764MOL0     H 5405   3.050   4.609  10.659  1.6380  2.5606 -2.0467
  764MOL0     H 5406   3.101   4.828  10.583  1.2941 -2.3482 -1.1043
  764MOL0     H 5407   3.200   4.759  10.721 -3.1840 -2.3891  3.2123
  764MOL0     H 5408   3.100   4.913  10.876  0.4710 -1.9952 -0.6564
  764MOL0     H 5409   2.977   4.947  10.766 -0.3415 -1.1742  1.5332
  764MOL0     H 5410   3.157   5.123  10.789  0.2986  0.5399  0.1353
  764MOL0     H 5411   3.147   5.054  10.621 -1.4717 -1.5281  0.9052
  764MOL0     H 5412   2.393   4.317  10.678 -1.8147 -3.1222 -0.2309
  764MOL0     H 5413   2.328   4.104  10.770 -1.0555  0.9875  0.3472
  764MOL0     H 5414   2.530   3.798  11.092  0.5979  0.0752 -0.1760
  764MOL0     H 5415   2.540   3.589  11.221  0.6586  1.8559  1.4332
  764MOL0     H 5416   2.102   4.336  10.745 -0.4769 -1.6554  0.0103
  764MOL0     H 5417   2.175   4.542  10.669  0.9809 -0.0558 -0.7760
  764MOL0     H 5418   2.458   4.649  10.273 -1.0284  0.0073 -0.8678
  764MOL0     H 5419   2.613   4.763  10.156 -1.7111 -3.1103  2.0196
  764MOL0     H 5420   2.791   4.982  10.048  0.3132  0.1003 -3.2276
  764MOL0     H 5421   2.625   4.952   9.991 -1.4165  0.1468  1.2825
  764MOL0     H 5422   2.733   5.244  10.009 -1.9173  0.1798  0.9008
  764MOL0     H 5423   2.620   5.182   9.907 -0.0801 -0.0971  0.7754
  764MOL0     H 5424   2.903   5.106   9.904 -1.0021 -1.6468  0.7545
  764MOL0     H 5425   2.796   5.050   9.773  1.1916 -1.1175  1.2548
  764MOL0     H 5426   2.899   5.221   9.674 -1.9536 -0.4951 -0.4376
  764MOL0     H 5427   2.897   5.340   9.801 -1.1997  2.3006 -3.2074
  764MOL0     H 5428   2.542   5.392   9.591  0.1778 -0.2513 -2.3476
  764MOL0     H 5429   2.446   5.133  10.289 -3.5120  0.4303  0.1141
  764MOL0     H 5430   2.262   5.145  10.448 -3.6363  0.8279 -2.2668
  764MOL0     H 5431   2.152   5.034  10.403 -0.3460 -1.0637  0.5414
  764MOL0     H 5432   2.231   5.025  10.558 -1.6428  1.5414  0.0515
  765MOL0     O 5433   5.095   6.103   2.425  0.3595  0.3770  0.4474
  765MOL0     C 5434   5.147   6.011   2.363  0.0368 -0.9468 -0.2389
  765MOL0     O 5435   5.086   5.941   2.261 -0.1213  0.5603 -0.3277
  765MOL0     C 5436   5.158   5.849   2.191 -0.8437  0.4563  0.0750
  765MOL0     C 5437   5.184   5.726   2.253 -0.4251 -0.0838 -0.0133
  765MOL0     C 5438   5.262   5.629   2.190  0.9111  0.7784 -0.1568
  765MOL0     C 5439   5.295   5.651   2.058 -0.7715 -0.0695 -0.1821
  765MOL0     O 5440   5.360   5.553   1.996 -0.1355 -0.0638 -0.5853
  765MOL0     C 5441   5.305   5.518   1.857  0.3719  0.0155 -0.4604
  765MOL0     C 5442   5.269   5.368   1.878  0.9997 -0.2998  0.3206
  765MOL0     C 5443   5.197   5.320   1.999 -0.1031  0.5905 -0.2874
  765MOL0     C 5444   5.152   5.166   1.975 -0.4626  0.4799  0.0302
  765MOL0     C 5445   5.062   5.127   2.095 -0.4187  0.1016 -0.5447
  765MOL0     C 5446   4.935   5.027   2.069 -1.3380 -1.0662 -0.4597
  765MOL0     C 5447   4.835   5.033   2.176  0.1850 -0.0533 -0.6991
  765MOL0     C 5448   4.729   4.923   2.180 -0.9455  0.1075  0.3646
  765MOL0     N 5449   4.629   4.951   2.274  0.0366  0.7065 -0.9813
  765MOL0     C 5450   4.631   4.924   2.413 -0.0959  0.7829 -1.3992
  765MOL0     C 5451   4.503   4.911   2.452  0.0111  0.0837  0.0924
  765MOL0     C 5452   4.464   4.856   2.581  0.6720  0.4863  0.5928
  765MOL0     C 5453   4.329   4.913   2.626 -0.3333  0.8352 -0.6987
  765MOL0     C 5454   4.308   4.878   2.772  0.3459  0.5309 -0.5558
  765MOL0     C 5455   4.420   4.902   2.879  0.4895 -0.6068 -1.0479
  765MOL0     O 5456   4.423   5.036   2.932  0.1240 -0.3945  0.7841
  765MOL0     C 5457   4.509   5.070   3.034  0.2256  1.2333  0.0552
  765MOL0     C 5458   4.594   4.987   3.111 -0.0456 -1.1206  0.7143
  765MOL0     C 5459   4.677   5.033   3.213 -0.5438  0.9672 -0.2825
  765MOL0     C 5460   4.770   4.922   3.259 -0.8040  0.4154  0.1192
  765MOL0     C 5461   4.682   5.170   3.240  0.3793 -0.3246 -0.1382
  765MOL0     C 5462   4.769   5.242   3.337  0.1117  0.7933  1.0039
  765MOL0     O 5463   4.789   5.374   3.321 -0.4257  0.4029 -0.4355
  765MOL0     C 5464   4.899   5.413   3.391 -1.0021  0.2742  0.4427
  765MOL0     C 5465   5.030   5.406   3.326  1.0645  0.9247  0.8012
  765MOL0     C 5466   5.144   5.434   3.399 -0.2929  0.3704  0.4208
  765MOL0     C 5467   5.146   5.481   3.527  0.2910 -0.2678  0.3947
  765MOL0     O 5468   5.274   5.497   3.585 -0.4488 -0.3197 -0.6038
  765MOL0     C 5469   5.278   5.568   3.713  0.0074  0.0818  0.3360
  765MOL0     C 5470   5.414   5.581   3.772 -0.0753  0.5469  0.0950
  765MOL0     C 5471   5.464   5.454   3.854 -0.1232 -0.5363  0.6089
  765MOL0     C 5472   5.453   5.322   3.776  0.2612  0.0206 -0.6832
  765MOL0     C 5473   5.514   5.203   3.866  0.3812  0.4180  0.3740
  765MOL0     C 5474   5.518   5.071   3.781  0.0579 -0.7434 -0.8921
  765MOL0     C 5475   5.554   4.970   3.886 -0.1674  0.5367 -0.2118
  765MOL0     C 5476   5.620   4.845   3.833 -0.4721 -0.9328  0.0632
  765MOL0    Cl 5477   5.660   4.744   3.974  0.0171 -0.5977  0.1609
  765MOL0     C 5478   5.018   5.480   3.595 -0.5434 -0.6933  0.1101
  765MOL0     C 5479   4.901   5.452   3.526 -0.4266  0.0156 -0.8282
  765MOL0     O 5480   4.826   5.169   3.423  0.9540 -0.8203 -0.1124
  765MOL0     C 5481   4.601   5.260   3.165 -1.1369  0.2060  0.1867
  765MOL0     C 5482   4.517   5.207   3.065  0.1044  0.5382  0.3255
  765MOL0     N 5483   4.420   4.928   2.338  0.7120  0.2610 -1.0804
  765MOL0     N 5484   4.494   4.958   2.242 -0.1294  0.0994  0.3504
  765MOL0     C 5485   5.254   5.769   1.993 -0.1651  0.2125  0.5883
  765MOL0     C 5486   5.188   5.868   2.059 -0.4536  0.5007  0.3463
  765MOL0     C 5487   5.279   5.957   2.407  0.4293  0.4013  1.0907
  765MOL0     C 5488   5.287   5.862   2.506 -0.9326 -0.3352 -0.8189
  765MOL0     C 5489   5.412   5.811   2.552  0.3237 -1.4512  0.7707
  765MOL0     C 5490   5.528   5.872   2.506  0.3315  0.3998 -0.3204
  765MOL0     O 5491   5.652   5.852   2.550 -0.9234  0.6771  0.1043
  765MOL0     C 5492   5.670   5.808   2.685  1.0421 -0.2919  0.4112
  765MOL0     C 5493   5.619   5.899   2.792 -0.3206  0.3309  0.0135
  765MOL0     C 5494   5.667   5.848   2.934 -0.4035 -0.2071  0.6194
  765MOL0     C 5495   5.627   5.937   3.047 -0.0246 -1.3344 -0.6608
  765MOL0     C 5496   5.704   5.909   3.169  0.6964  0.6205  0.1330
  765MOL0     C 5497   5.781   5.885   3.259  0.3603 -1.1882 -0.2773
  765MOL0     C 5498   5.514   5.961   2.404  0.8695 -0.3199  0.0213
  765MOL0     C 5499   5.395   6.003   2.344 -0.2371 -0.1910  1.8037
  765MOL0     C 5500   5.395   6.100   2.223 -0.1453  0.0548 -0.1807
  765MOL0     H 5501   5.141   5.698   2.348 -3.3740 -0.8008 -1.4204
  765MOL0     H 5502   5.292   5.535   2.235 -1.3694 -1.0882 -2.2465
  765MOL0     H 5503   5.393   5.530   1.792 -0.0917  3.5070 -0.6375
  765MOL0     H 5504   5.228   5.585   1.818  0.9904  1.3187  0.4680
  765MOL0     H 5505   5.215   5.325   1.793 -0.8555 -1.0411  1.8040
  765MOL0     H 5506   5.370   5.327   1.876  1.2473  0.3169 -0.7104
  765MOL0     H 5507   5.259   5.324   2.089 -1.5524 -1.9763  0.9296
  765MOL0     H 5508   5.111   5.386   2.013 -1.4299 -0.4408 -2.8675
  765MOL0     H 5509   5.102   5.132   1.885  1.2839 -4.6913  0.6779
  765MOL0     H 5510   5.244   5.107   1.969  0.0805  1.1665  1.2192
  765MOL0     H 5511   5.022   5.217   2.142 -2.6701 -1.1172  0.0108
  765MOL0     H 5512   5.113   5.094   2.186  1.0536  2.5494 -0.3894
  765MOL0     H 5513   4.894   5.061   1.973 -2.0026  3.6716  1.2539
  765MOL0     H 5514   4.967   4.922   2.064 -3.5762 -1.8461  0.5508
  765MOL0     H 5515   4.783   5.128   2.162 -1.3878 -1.0216 -1.8086
  765MOL0     H 5516   4.888   5.043   2.271  0.2257  1.8479 -0.8792
  765MOL0     H 5517   4.696   4.922   2.076 -1.9201  1.3928  0.6326
  765MOL0     H 5518   4.782   4.830   2.204 -1.4700 -0.1412  0.5606
  765MOL0     H 5519   4.718   4.922   2.477 -0.1488  3.2834 -1.1667
  765MOL0     H 5520   4.545   4.881   2.650 -0.0617  2.4216  0.8241
  765MOL0     H 5521   4.455   4.748   2.569  2.1150  0.4118 -0.0499
  765MOL0     H 5522   4.317   5.021   2.624 -2.2313  0.7517  1.6984
  765MOL0     H 5523   4.242   4.884   2.567 -1.9718  5.0208 -0.6376
  765MOL0     H 5524   4.224   4.940   2.805 -1.3576  0.1451 -3.7276
  765MOL0     H 5525   4.278   4.773   2.772  1.7833  0.0256 -3.2541
  765MOL0     H 5526   4.392   4.830   2.958 -1.5939  1.0374 -0.2041
  765MOL0     H 5527   4.518   4.870   2.842  0.3730 -2.5009  0.1177
  765MOL0     H 5528   4.610   4.884   3.080  3.6370 -1.3205  2.7009
  765MOL0     H 5529   4.867   4.964   3.289 -0.2268  0.0485 -1.1686
  765MOL0     H 5530   4.807   4.852   3.183  0.6173  0.1939  0.9684
  765MOL0     H 5531   4.728   4.863   3.341 -0.6621 -1.3809 -1.0338
  765MOL0     H 5532   5.041   5.377   3.223 -0.7073 -0.8159  1.0501
  765MOL0     H 5533   5.234   5.407   3.345 -0.7847  1.1528 -0.8257
  765MOL0     H 5534   5.238   5.669   3.712 -0.8036 -0.1079  3.2380
  765MOL0     H 5535   5.214   5.514   3.785 -0.9899  0.4303 -0.2669
  765MOL0     H 5536   5.491   5.610   3.699  1.5977 -1.1082  1.1398
  765MOL0     H 5537   5.413   5.657   3.851  1.1035  0.7620 -0.0696
  765MOL0     H 5538   5.410   5.437   3.948 -1.4632 -1.6406 -0.3102
  765MOL0     H 5539   5.569   5.479   3.874 -0.6906  0.8148  2.2248
  765MOL0     H 5540   5.524   5.328   3.693  1.9081  1.6564  0.7421
  765MOL0     H 5541   5.350   5.304   3.745 -0.2616 -0.5461  1.2351
  765MOL0     H 5542   5.615   5.238   3.887  0.1584  0.7142  0.9962
  765MOL0     H 5543   5.467   5.203   3.965  1.4962  1.3401  0.9214
  765MOL0     H 5544   5.592   5.080   3.700 -0.9369 -0.1730 -1.7712
  765MOL0     H 5545   5.418   5.050   3.741 -0.2745  0.4062 -0.6946
  765MOL0     H 5546   5.458   4.940   3.930  0.5725 -3.0704 -0.7581
  765MOL0     H 5547   5.615   5.014   3.965  1.7411 -2.2539  0.0175
  765MOL0     H 5548   5.710   4.865   3.775 -0.4007 -1.3302  0.0362
  765MOL0     H 5549   5.552   4.801   3.759 -0.2930 -1.6039  0.2916
  765MOL0     H 5550   5.027   5.501   3.701 -0.4582  3.6883 -0.5995
  765MOL0     H 5551   4.808   5.447   3.582  0.4802  2.7462  1.1003
  765MOL0     H 5552   4.617   5.367   3.179  1.8991 -0.0305 -0.6575
  765MOL0     H 5553   4.458   5.280   3.010  0.5807  0.6465 -0.0460
  765MOL0     H 5554   5.275   5.782   1.887  0.4741 -0.0761  0.6728
  765MOL0     H 5555   5.159   5.969   2.034  1.8607  1.3808  0.9017
  765MOL0     H 5556   5.196   5.817   2.545 -0.9031 -1.2889 -1.8047
  765MOL0     H 5557   5.417   5.728   2.621 -0.2255 -2.8923 -0.8479
  765MOL0     H 5558   5.622   5.710   2.698  1.5750 -0.4973  0.8756
  765MOL0     H 5559   5.778   5.800   2.701  1.3196  1.8778 -0.0182
  765MOL0     H 5560   5.510   5.912   2.796 -0.0505  3.1755  3.6191
  765MOL0     H 5561   5.650   5.999   2.762 -2.5542  0.8495 -0.8146
  765MOL0     H 5562   5.632   5.746   2.952 -0.6922  0.6072  6.8125
  765MOL0     H 5563   5.775   5.835   2.921 -0.0785  2.6253 -0.0509
  765MOL0     H 5564   5.523   5.909   3.063 -1.1072  2.3923 -0.0175
  765MOL0     H 5565   5.638   6.043   3.023 -0.9612 -1.0569  0.0444
  765MOL0     H 5566   5.850   5.875   3.340 -1.0055 -2.0544  0.8056
  765MOL0     H 5567   5.602   6.006   2.360  0.0298  1.2498 -0.1406
  765MOL0     H 5568   5.389   6.035   2.136  1.6717  2.6050 -2.3986
  765MOL0     H 5569   5.312   6.172   2.223 -1.2992 -1.0304 -4.1190
  765MOL0     H 5570   5.479   6.166   2.202 -1.2274  1.5413 -0.0298
  766MOL0     O 5571  10.629   2.256   9.695  0.5504 -0.0633  0.3073
  766MOL0     C 5572  10.630   2.192   9.803  0.3511  0.1811 -0.1881
  766MOL0     O 5573  10.530   2.114   9.828 -0.4360  0.1563  0.2568
  766MOL0     C 5574  10.424   2.125   9.744  0.5773  0.0959  0.2244
  766MOL0     C 5575  10.347   2.243   9.753  0.4225  1.0657  0.0370
  766MOL0     C 5576  10.232   2.258   9.686 -0.6837 -0.4942  0.6235
  766MOL0     C 5577  10.198   2.155   9.597  0.0725 -0.4532  0.3970
  766MOL0     O 5578  10.070   2.167   9.537  0.0888 -0.3597  0.0971
  766MOL0     C 5579  10.009   2.051   9.481 -0.4621  0.4051  0.2066
  766MOL0     C 5580   9.949   1.947   9.577  0.3171  0.0043 -1.2733
  766MOL0     C 5581   9.847   2.014   9.674  0.5218 -0.5703 -0.6322
  766MOL0     C 5582   9.759   1.906   9.749  1.2650 -1.1246  0.7801
  766MOL0     C 5583   9.635   1.965   9.832 -0.4999  0.1203 -0.0629
  766MOL0     C 5584   9.590   1.846   9.919 -1.7689  0.1797  0.3427
  766MOL0     C 5585   9.521   1.883  10.053  0.1494  0.3459  0.7333
  766MOL0     C 5586   9.388   1.962  10.024 -0.8863 -0.1857 -0.2784
  766MOL0     N 5587   9.332   2.016  10.146 -0.7765  0.5248 -0.0058
  766MOL0     C 5588   9.290   1.941  10.262 -0.7330  0.4926  0.3848
  766MOL0     C 5589   9.232   2.035  10.346 -0.0656  1.3201 -0.0065
  766MOL0     C 5590   9.158   2.004  10.476 -1.4739  0.1284  0.3913
  766MOL0     C 5591   9.187   2.101  10.586  0.7607 -0.0890  0.4001
  766MOL0     C 5592   9.317   2.178  10.604  0.0212 -0.0363  0.4648
  766MOL0     C 5593   9.451   2.115  10.579 -0.0125  0.7591 -0.0813
  766MOL0     O 5594   9.448   1.990  10.663  0.6297 -0.5416 -0.2754
  766MOL0     C 5595   9.542   1.901  10.650 -0.5362 -0.5194  0.8859
  766MOL0     C 5596   9.568   1.815  10.758 -0.4209 -0.4835  0.2000
  766MOL0     C 5597   9.676   1.720  10.742  0.5848 -0.1646 -0.1537
  766MOL0     C 5598   9.699   1.633  10.855  0.2888  0.6399  0.8877
  766MOL0     C 5599   9.758   1.711  10.630  0.5523  0.7089 -0.1468
  766MOL0     C 5600   9.860   1.600  10.612 -0.1724  0.9942 -0.3338
  766MOL0     O 5601   9.927   1.559  10.726 -0.8422 -0.4636 -0.3010
  766MOL0     C 5602  10.026   1.469  10.709  0.0693  0.1208 -0.2474
  766MOL0     C 5603  10.161   1.517  10.711 -0.5057 -0.0229 -1.7166
  766MOL0     C 5604  10.266   1.434  10.680 -1.3288  1.7218 -0.5988
  766MOL0     C 5605  10.238   1.302  10.649 -1.7374  0.1023 -0.4806
  766MOL0     O 5606  10.340   1.212  10.634  0.1412 -0.7873  0.2401
  766MOL0     C 5607  10.340   1.087  10.706  0.7952 -0.3532 -0.1813
  766MOL0     C 5608  10.428   0.982  10.632 -0.0377  0.3219  0.0169
  766MOL0     C 5609  10.339   0.910  10.527  0.1489 -0.0807  0.7850
  766MOL0     C 5610  10.387   0.763  10.501  0.3936  0.0492 -0.2362
  766MOL0     C 5611  10.311   0.705  10.382 -0.2477 -0.0243 -0.3209
  766MOL0     C 5612  10.155   0.705  10.392  0.1675 -0.4326  0.0392
  766MOL0     C 5613  10.103   0.631  10.524 -0.5228  0.1428 -0.1228
  766MOL0     C 5614  10.115   0.483  10.516 -0.4791  0.2763 -0.2349
  766MOL0    Cl 5615  10.014   0.416  10.651 -0.1638 -0.1997  0.3643
  766MOL0     C 5616  10.111   1.259  10.640 -0.8269  0.0619 -0.6911
  766MOL0     C 5617   9.999   1.338  10.671 -0.0245  0.2215  0.9620
  766MOL0     O 5618   9.869   1.546  10.500 -0.3537  0.2101 -0.5157
  766MOL0     C 5619   9.722   1.782  10.528 -0.1708 -1.1060  0.6230
  766MOL0     C 5620   9.623   1.887  10.536 -0.2842  0.4357  0.0989
  766MOL0     N 5621   9.223   2.150  10.270 -0.1875 -0.0645  0.2499
  766MOL0     N 5622   9.306   2.146  10.170  0.3375 -0.0763  0.2048
  766MOL0     C 5623  10.270   2.033   9.583  0.4602 -0.6495 -0.4792
  766MOL0     C 5624  10.383   2.026   9.658 -0.8000  0.3283 -0.4587
  766MOL0     C 5625  10.738   2.214   9.913 -0.1077 -0.8376  0.3539
  766MOL0     C 5626  10.727   2.160  10.042  1.0226 -0.1058  1.4325
  766MOL0     C 5627  10.830   2.165  10.134 -0.3940  0.3690 -0.2273
  766MOL0     C 5628  10.944   2.226  10.096 -0.1969 -0.5973 -0.2282
  766MOL0     O 5629  11.046   2.238  10.193  0.2037 -0.5824  0.5848
  766MOL0     C 5630  11.179   2.228  10.148  0.2251  0.2987  0.4596
  766MOL0     C 5631  11.283   2.216  10.259  0.4350  0.2907  0.1010
  766MOL0     C 5632  11.414   2.166  10.203  0.2892  0.0532  0.2675
  766MOL0     C 5633  11.511   2.291  10.156  0.5004 -0.5718 -0.4443
  766MOL0     C 5634  11.648   2.252  10.155  0.0003 -0.9024 -0.6767
  766MOL0     C 5635  11.759   2.212  10.145 -0.9221 -0.9220  0.1369
  766MOL0     C 5636  10.956   2.289   9.974  0.0318 -0.1467  0.0402
  766MOL0     C 5637  10.858   2.290   9.888  0.1189 -0.4540  0.5242
  766MOL0     C 5638  10.880   2.378   9.767 -0.7015  0.5148 -0.0669
  766MOL0     H 5639  10.388   2.323   9.814  1.9002  0.3880 -0.0252
  766MOL0     H 5640  10.171   2.348   9.692  0.6521  0.4448  0.7007
  766MOL0     H 5641  10.065   1.995   9.405 -0.9215  0.7061 -0.3546
  766MOL0     H 5642   9.922   2.092   9.430  0.9255 -1.1556 -3.8481
  766MOL0     H 5643   9.910   1.862   9.521 -2.9851 -1.5022  2.7438
  766MOL0     H 5644  10.026   1.905   9.643 -0.4925  0.7863  0.2248
  766MOL0     H 5645   9.893   2.081   9.748 -0.0559 -1.5784  0.6812
  766MOL0     H 5646   9.787   2.089   9.620 -0.0201 -0.6772 -0.1857
  766MOL0     H 5647   9.728   1.822   9.685 -1.0617 -2.1711  3.1069
  766MOL0     H 5648   9.819   1.870   9.833  1.8466  3.2684  2.4741
  766MOL0     H 5649   9.547   1.994   9.773  0.3264  0.0729 -1.3540
  766MOL0     H 5650   9.671   2.042   9.902  0.6688 -0.6989  0.2591
  766MOL0     H 5651   9.539   1.764   9.868 -0.1335 -0.3832 -0.4628
  766MOL0     H 5652   9.678   1.794   9.957  0.2652  3.8978  1.2365
  766MOL0     H 5653   9.593   1.945  10.107 -1.6401  1.1783  2.2699
  766MOL0     H 5654   9.507   1.782  10.093 -1.0217 -0.2849 -1.1385
  766MOL0     H 5655   9.408   2.051   9.965  0.3593  1.4699  2.4654
  766MOL0     H 5656   9.309   1.897   9.984 -1.9672  0.2383  1.0981
  766MOL0     H 5657   9.313   1.843  10.300  3.4799  2.0432  2.4343
  766MOL0     H 5658   9.188   1.903  10.506  3.1914  1.6603  1.8502
  766MOL0     H 5659   9.049   2.005  10.467 -1.7897 -2.2274  2.5112
  766MOL0     H 5660   9.120   2.179  10.550  3.2220  1.0117 -2.2274
  766MOL0     H 5661   9.155   2.040  10.671 -0.7146  0.5002  0.2829
  766MOL0     H 5662   9.312   2.258  10.530 -0.4792 -1.3824 -1.0178
  766MOL0     H 5663   9.325   2.224  10.703  2.6073 -1.9799  1.3055
  766MOL0     H 5664   9.458   2.093  10.472  0.3039 -1.2570  0.3261
  766MOL0     H 5665   9.523   2.188  10.617 -1.1347  0.7617  2.2342
  766MOL0     H 5666   9.499   1.812  10.841  2.2983  3.0026  2.9235
  766MOL0     H 5667   9.610   1.623  10.918 -1.3552  1.3482 -1.2094
  766MOL0     H 5668   9.794   1.654  10.905 -0.6824  1.2912  2.5603
  766MOL0     H 5669   9.716   1.531  10.820 -0.7539 -0.1986  2.6925
  766MOL0     H 5670  10.179   1.618  10.745  1.2095 -1.2077  1.4306
  766MOL0     H 5671  10.367   1.474  10.683 -0.8872  0.6344 -0.4177
  766MOL0     H 5672  10.387   1.109  10.803 -1.3048  0.7717  0.6522
  766MOL0     H 5673  10.244   1.037  10.719  0.0730  1.4475  2.3012
  766MOL0     H 5674  10.515   1.025  10.582  0.9258  1.1604  2.2548
  766MOL0     H 5675  10.451   0.915  10.716 -0.4484  0.7749  0.5057
  766MOL0     H 5676  10.335   0.966  10.434  2.5441 -0.5872  0.3107
  766MOL0     H 5677  10.233   0.905  10.552 -0.1738 -4.0315 -0.5872
  766MOL0     H 5678  10.377   0.704  10.593  0.3248 -0.2985 -0.4678
  766MOL0     H 5679  10.492   0.765  10.474  0.5379 -0.4577  0.2662
  766MOL0     H 5680  10.332   0.779  10.305  1.3331  1.8398  1.7987
  766MOL0     H 5681  10.350   0.603  10.372  1.1126  0.4179  0.3551
  766MOL0     H 5682  10.122   0.656  10.300  1.4844  1.1164 -1.3524
  766MOL0     H 5683  10.105   0.802  10.402 -2.3585 -1.2021 -3.2211
  766MOL0     H 5684  10.000   0.666  10.534 -0.6331 -0.0981 -0.4057
  766MOL0     H 5685  10.154   0.677  10.609 -0.6318 -0.9075  0.5246
  766MOL0     H 5686  10.215   0.438  10.526 -0.6308 -0.2476 -0.9317
  766MOL0     H 5687  10.073   0.449  10.420  4.2373 -1.5599 -1.9674
  766MOL0     H 5688  10.092   1.159  10.602 -0.5029  0.3682 -1.6969
  766MOL0     H 5689   9.893   1.313  10.673  0.0525 -0.2391  4.1910
  766MOL0     H 5690   9.779   1.804  10.438 -2.2864  3.0726  0.0435
  766MOL0     H 5691   9.615   1.949  10.447 -1.2976 -0.3206 -0.3604
  766MOL0     H 5692  10.240   1.944   9.528 -0.6764 -0.5483 -0.0442
  766MOL0     H 5693  10.448   1.939   9.656  0.4889  1.2482 -0.0636
  766MOL0     H 5694  10.641   2.103  10.076 -0.7776  1.6477  0.0740
  766MOL0     H 5695  10.816   2.134  10.237  0.5156  1.5225  0.2639
  766MOL0     H 5696  11.190   2.130  10.100  1.1055 -0.1028  1.4492
  766MOL0     H 5697  11.195   2.318  10.087 -2.5420  0.5304 -0.0347
  766MOL0     H 5698  11.250   2.141  10.331  2.4353 -0.7336  0.0231
  766MOL0     H 5699  11.292   2.309  10.316  0.1604  0.3038  0.1224
  766MOL0     H 5700  11.472   2.114  10.280  1.8497  2.9394  1.1733
  766MOL0     H 5701  11.408   2.102  10.115  0.2038 -2.5687  2.0734
  766MOL0     H 5702  11.494   2.369  10.231 -1.7572 -0.6086 -0.8426
  766MOL0     H 5703  11.476   2.338  10.063 -2.4041 -0.3857  0.6487
  766MOL0     H 5704  11.857   2.170  10.136  0.3487  1.3153  2.3389
  766MOL0     H 5705  11.047   2.337   9.939 -2.8215  5.2167 -1.1527
  766MOL0     H 5706  10.911   2.305   9.692 -4.7441 -2.7208  1.0697
  766MOL0     H 5707  10.791   2.432   9.735 -0.8212 -0.1949 -0.9919
  766MOL0     H 5708  10.956   2.453   9.790  0.6915 -0.1055 -2.3355
  767MOL0     O 5709   4.927   5.640  10.365  0.0097 -0.5411 -0.2606
  767MOL0     C 5710   4.840   5.703  10.425  0.2381  0.3831 -0.2870
  767MOL0     O 5711   4.713   5.665  10.435 -0.1088  0.0693  0.4499
  767MOL0     C 5712   4.669   5.577  10.341  1.0605  0.6460 -0.0587
  767MOL0     C 5713   4.685   5.605  10.196 -0.9810  1.1289 -1.2529
  767MOL0     C 5714   4.655   5.513  10.096 -0.2247 -0.9113  0.4081
  767MOL0     C 5715   4.628   5.379  10.133 -0.5041  0.1566 -0.0669
  767MOL0     O 5716   4.614   5.300  10.029  0.4559  0.7046  0.6501
  767MOL0     C 5717   4.637   5.164  10.049  0.1439  0.4117  0.1440
  767MOL0     C 5718   4.547   5.097   9.946 -0.5207 -0.2978  0.5709
  767MOL0     C 5719   4.596   4.955   9.905  0.1206 -0.1544 -0.3686
  767MOL0     C 5720   4.474   4.882   9.834  0.2930 -0.0104 -0.2624
  767MOL0     C 5721   4.481   4.727   9.830  0.7360  0.5266  1.2421
  767MOL0     C 5722   4.510   4.661   9.966 -0.2723  0.4018  0.2984
  767MOL0     C 5723   4.561   4.515   9.938 -0.2196  0.0097  0.0197
  767MOL0     C 5724   4.623   4.450  10.060 -0.0069  0.5006 -0.6597
  767MOL0     N 5725   4.529   4.431  10.169  0.4725  0.5391  0.0865
  767MOL0     C 5726   4.495   4.521  10.263 -0.1501  0.3766  1.1346
  767MOL0     C 5727   4.421   4.450  10.346  0.8388  0.2126 -0.6398
  767MOL0     C 5728   4.366   4.498  10.476  0.5992 -0.7013 -1.0168
  767MOL0     C 5729   4.343   4.643  10.489  0.4184 -0.6700 -0.2112
  767MOL0     C 5730   4.259   4.671  10.619  0.0037 -0.0829 -0.5582
  767MOL0     C 5731   4.264   4.820  10.660  0.8321 -0.8892  0.6370
  767MOL0     O 5732   4.151   4.877  10.595  0.4545 -0.5025  0.6608
  767MOL0     C 5733   4.086   4.980  10.658 -0.0073 -0.1159  0.7819
  767MOL0     C 5734   4.143   5.069  10.750 -0.5678 -0.3234 -0.2200
  767MOL0     C 5735   4.061   5.145  10.836  0.1458  1.5848  0.6176
  767MOL0     C 5736   4.126   5.200  10.962 -0.6181 -0.8289  0.0969
  767MOL0     C 5737   3.922   5.146  10.810 -0.7266 -0.0214  1.1660
  767MOL0     C 5738   3.830   5.233  10.888  1.0969  0.3211 -0.3014
  767MOL0     O 5739   3.711   5.266  10.826  0.2737  0.1516  0.0438
  767MOL0     C 5740   3.619   5.354  10.896 -0.0835 -0.3823 -1.1098
  767MOL0     C 5741   3.599   5.486  10.843  0.3514 -0.0045  0.9179
  767MOL0     C 5742   3.527   5.577  10.924  0.1989  0.1495 -0.1131
  767MOL0     C 5743   3.483   5.540  11.055 -0.0184 -0.8519 -0.3163
  767MOL0     O 5744   3.424   5.646  11.125  0.2903  0.3905  0.5811
  767MOL0     C 5745   3.367   5.616  11.252  0.0103 -0.6158  0.9498
  767MOL0     C 5746   3.313   5.742  11.326 -0.9651 -1.0126 -0.7324
  767MOL0     C 5747   3.219   5.834  11.237 -0.2951  0.2271 -0.0866
  767MOL0     C 5748   3.223   5.987  11.284  0.7337 -1.2293  0.9601
  767MOL0     C 5749   3.099   6.066  11.230  0.2045  0.8994  0.3482
  767MOL0     C 5750   3.094   6.203  11.288 -0.2319  0.5207  0.5034
  767MOL0     C 5751   3.006   6.286  11.204  0.1442  0.0998 -0.3848
  767MOL0     C 5752   2.992   6.269  11.050 -0.5321  0.3610 -0.8120
  767MOL0    Cl 5753   2.915   6.409  10.973  0.0969  0.1017  0.4300
  767MOL0     C 5754   3.516   5.419  11.101  1.1643 -0.8167 -2.0223
  767MOL0     C 5755   3.578   5.320  11.024 -0.6023 -0.0241  0.0270
  767MOL0     O 5756   3.865   5.270  10.999  0.1481 -0.4698 -0.1875
  767MOL0     C 5757   3.869   5.067  10.709  0.2528  0.0537  0.4095
  767MOL0     C 5758   3.948   4.998  10.619 -0.0268 -0.5830 -0.2992
  767MOL0     N 5759   4.385   4.330  10.289 -0.0541  1.0191 -0.5278
  767MOL0     N 5760   4.454   4.317  10.183  1.0139  0.2898  0.0717
  767MOL0     C 5761   4.591   5.347  10.270 -0.0851 -0.2216  0.8308
  767MOL0     C 5762   4.623   5.447  10.371 -0.1232  0.2530  0.8101
  767MOL0     C 5763   4.892   5.833  10.492 -0.6791  0.0619 -0.9543
  767MOL0     C 5764   4.812   5.947  10.491 -0.8665 -0.4004 -0.4809
  767MOL0     C 5765   4.852   6.074  10.530  0.3654 -0.0457 -0.3366
  767MOL0     C 5766   4.980   6.083  10.579  0.2209  0.0467 -0.8457
  767MOL0     O 5767   5.036   6.193  10.642 -0.7202 -0.0300 -0.1245
  767MOL0     C 5768   5.024   6.328  10.586 -0.4226 -0.1542  0.0246
  767MOL0     C 5769   5.125   6.431  10.632  0.4215 -0.7834  0.9053
  767MOL0     C 5770   5.260   6.420  10.555  0.8983 -0.1135  0.3785
  767MOL0     C 5771   5.343   6.295  10.586  0.3437  0.1474 -0.3302
  767MOL0     C 5772   5.414   6.310  10.715 -0.5198  0.3378  0.8883
  767MOL0     C 5773   5.478   6.312  10.814 -0.3780 -0.4741  0.4058
  767MOL0     C 5774   5.066   5.959  10.592  0.2086 -1.7425  0.8476
  767MOL0     C 5775   5.025   5.837  10.549  0.7927 -0.1276 -0.5641
  767MOL0     C 5776   5.102   5.720  10.579 -0.6980  0.6223 -0.4283
  767MOL0     H 5777   4.720   5.705  10.174 -0.9332  2.0248  2.3867
  767MOL0     H 5778   4.667   5.539   9.991  1.2925 -2.1375  0.2540
  767MOL0     H 5779   4.619   5.123  10.149 -1.0497  1.3604  0.3407
  767MOL0     H 5780   4.740   5.144  10.020 -0.5283 -1.1591 -1.3340
  767MOL0     H 5781   4.448   5.109   9.989  0.4901  0.8240  2.7687
  767MOL0     H 5782   4.542   5.157   9.856 -2.7770  4.3677  3.4387
  767MOL0     H 5783   4.670   4.942   9.825  0.9240 -2.9155  0.7131
  767MOL0     H 5784   4.633   4.910   9.997  0.7402  2.1565  0.5912
  767MOL0     H 5785   4.381   4.905   9.887  0.4072 -1.6572  0.7258
  767MOL0     H 5786   4.463   4.918   9.731 -1.4931  1.2703  0.3296
  767MOL0     H 5787   4.556   4.697   9.756  0.4075 -1.9236  1.8226
  767MOL0     H 5788   4.381   4.699   9.796  0.5245  4.1189 -1.6760
  767MOL0     H 5789   4.592   4.711  10.019 -0.7074  1.4958 -0.0416
  767MOL0     H 5790   4.423   4.649  10.031 -0.3336 -3.3474 -0.2217
  767MOL0     H 5791   4.643   4.510   9.866  0.1261 -1.1032  0.4673
  767MOL0     H 5792   4.480   4.460   9.891  1.2199 -0.3037 -2.2338
  767MOL0     H 5793   4.666   4.354  10.032  1.2561  0.1426  2.1270
  767MOL0     H 5794   4.712   4.494  10.106  1.5123  0.3474 -3.2703
  767MOL0     H 5795   4.541   4.619  10.272  2.5981 -0.3796 -2.2320
  767MOL0     H 5796   4.430   4.484  10.563  2.3784  0.8615 -2.0137
  767MOL0     H 5797   4.270   4.448  10.495  1.2742 -1.5930  0.2234
  767MOL0     H 5798   4.442   4.687  10.498  0.2403  0.6204 -3.2497
  767MOL0     H 5799   4.292   4.690  10.404  2.4134  2.7987  0.3481
  767MOL0     H 5800   4.155   4.640  10.610 -0.2200  0.6243 -0.4654
  767MOL0     H 5801   4.305   4.614  10.700  2.0097  0.5827 -1.1487
  767MOL0     H 5802   4.253   4.831  10.768  1.0281  0.1668  0.5574
  767MOL0     H 5803   4.361   4.865  10.637  1.1530 -0.8871  1.9430
  767MOL0     H 5804   4.250   5.056  10.766 -0.6117 -1.7290 -0.9359
  767MOL0     H 5805   4.235   5.184  10.960 -0.2815  0.9075  1.3663
  767MOL0     H 5806   4.079   5.151  11.048 -2.5130  1.2813  0.3468
  767MOL0     H 5807   4.122   5.307  10.985 -1.6136 -0.6090 -1.0472
  767MOL0     H 5808   3.621   5.518  10.742 -1.4599 -1.9970 -0.2129
  767MOL0     H 5809   3.493   5.673  10.887  0.2122 -0.3346 -1.4239
  767MOL0     H 5810   3.288   5.546  11.224  0.7564 -1.7289  1.5591
  767MOL0     H 5811   3.441   5.570  11.318  0.2110 -0.9298  0.5036
  767MOL0     H 5812   3.250   5.724  11.414 -0.9099 -0.1690 -0.5105
  767MOL0     H 5813   3.399   5.797  11.366 -0.0317 -1.9014 -1.4591
  767MOL0     H 5814   3.115   5.801  11.242 -0.4852  1.0108  2.8029
  767MOL0     H 5815   3.260   5.825  11.136  0.5239  1.0058  0.1694
  767MOL0     H 5816   3.317   6.039  11.266 -0.0860 -0.5625 -1.9084
  767MOL0     H 5817   3.216   5.996  11.392  1.7985 -0.6125  0.9938
  767MOL0     H 5818   3.098   6.057  11.121  1.5886 -1.3803  0.4465
  767MOL0     H 5819   3.014   6.013  11.272  0.2442  2.0800  2.0382
  767MOL0     H 5820   3.196   6.243  11.290  0.6956 -1.3050 -3.0199
  767MOL0     H 5821   3.052   6.186  11.388 -2.1592 -0.7664 -0.4470
  767MOL0     H 5822   3.039   6.388  11.225 -1.8077  0.8143 -0.5066
  767MOL0     H 5823   2.900   6.286  11.234 -0.7396  2.9647 -2.9498
  767MOL0     H 5824   2.934   6.180  11.026 -0.0880 -0.5634  1.2922
  767MOL0     H 5825   3.093   6.249  11.014 -0.2258  0.4762 -0.0268
  767MOL0     H 5826   3.492   5.396  11.204 -0.7950  0.4801 -2.1400
  767MOL0     H 5827   3.603   5.218  11.052 -1.0386 -1.0652 -3.0182
  767MOL0     H 5828   3.760   5.073  10.712  0.3279  1.4595  1.6959
  767MOL0     H 5829   3.904   4.943  10.537 -3.5124 -2.4034  2.4935
  767MOL0     H 5830   4.554   5.248  10.291 -0.0932 -0.0305  1.7540
  767MOL0     H 5831   4.609   5.420  10.475  1.3028  2.3602  1.6098
  767MOL0     H 5832   4.712   5.948  10.449 -1.0530 -3.6014 -0.4116
  767MOL0     H 5833   4.780   6.155  10.530 -2.0899 -1.9871 -3.5038
  767MOL0     H 5834   5.020   6.328  10.476 -1.6345  0.7410  0.0571
  767MOL0     H 5835   4.926   6.362  10.618 -0.3780 -0.1170  0.1190
  767MOL0     H 5836   5.142   6.433  10.740  1.9016 -1.0398  0.7036
  767MOL0     H 5837   5.083   6.525  10.596  1.3233 -0.2553  1.1996
  767MOL0     H 5838   5.236   6.413  10.449  0.9486  3.8270 -0.0515
  767MOL0     H 5839   5.325   6.508  10.566  0.4578  0.1387  1.0215
  767MOL0     H 5840   5.415   6.283  10.505  1.1349 -0.4844  0.4397
  767MOL0     H 5841   5.275   6.211  10.602 -0.0781  0.9066  2.4561
  767MOL0     H 5842   5.537   6.318  10.903  1.2763  0.1912 -0.6897
  767MOL0     H 5843   5.166   5.966  10.633  0.5177  0.1028 -0.0758
  767MOL0     H 5844   5.185   5.743  10.648 -1.5980 -1.2521  1.4029
  767MOL0     H 5845   5.042   5.637  10.618 -2.7231  0.6801 -3.1928
  767MOL0     H 5846   5.126   5.675  10.483 -2.6283 -1.1833 -0.1401
  768MOL0     O 5847   8.703   7.574   4.555  0.1694  0.7127  0.6214
  768MOL0     C 5848   8.695   7.464   4.506  0.2968 -0.4567  0.9388
  768MOL0     O 5849   8.797   7.375   4.485 -1.0870 -0.7157  0.1113
  768MOL0     C 5850   8.911   7.420   4.530  0.9619  0.7422  0.2755
  768MOL0     C 5851   9.007   7.475   4.446 -0.6278  1.0004  0.8399
  768MOL0     C 5852   9.127   7.519   4.508  0.2443 -0.4922 -0.5207
  768MOL0     C 5853   9.166   7.490   4.644  0.1621 -0.2185 -1.0591
  768MOL0     O 5854   9.284   7.532   4.697  0.0555  0.1473 -0.4590
  768MOL0     C 5855   9.401   7.510   4.619 -0.2716 -0.4975 -1.8561
  768MOL0     C 5856   9.456   7.644   4.564 -0.1463  0.4107 -0.4993
  768MOL0     C 5857   9.467   7.763   4.669  0.6620  0.1459  1.0582
  768MOL0     C 5858   9.572   7.732   4.785  0.6899  0.9893  1.0981
  768MOL0     C 5859   9.626   7.859   4.848  0.1905  0.1420  0.8775
  768MOL0     C 5860   9.517   7.937   4.931  0.0999 -0.2533  0.1171
  768MOL0     C 5861   9.584   8.058   4.996 -0.3605  0.2400  0.3421
  768MOL0     C 5862   9.483   8.163   5.044  0.4832 -0.0231 -0.2090
  768MOL0     N 5863   9.456   8.259   4.934 -0.2437 -0.7314 -0.6511
  768MOL0     C 5864   9.538   8.361   4.894  0.7849  0.3281 -0.3013
  768MOL0     C 5865   9.460   8.448   4.827  0.1799 -0.4614  0.3521
  768MOL0     C 5866   9.513   8.565   4.752 -0.0318 -0.3926 -0.2637
  768MOL0     C 5867   9.623   8.513   4.652  0.0679  0.4945 -0.2580
  768MOL0     C 5868   9.584   8.378   4.570  0.4676  0.2473  0.3382
  768MOL0     C 5869   9.653   8.371   4.429  0.2218  0.4563 -0.2215
  768MOL0     O 5870   9.795   8.358   4.467 -0.2693 -0.7289 -0.1529
  768MOL0     C 5871   9.846   8.232   4.502  0.9993 -0.3653  0.1185
  768MOL0     C 5872   9.806   8.106   4.450  1.4213 -0.6363 -1.2316
  768MOL0     C 5873   9.856   7.985   4.495  1.0322  0.5255  0.9096
  768MOL0     C 5874   9.806   7.855   4.427  0.0816  0.5845 -1.0317
  768MOL0     C 5875   9.956   7.984   4.582  0.2225 -0.5968 -0.4602
  768MOL0     C 5876  10.027   7.859   4.624  0.5569  0.7422  1.3268
  768MOL0     O 5877  10.104   7.875   4.733  0.3863 -0.2118 -0.0640
  768MOL0     C 5878  10.175   7.765   4.771 -0.2391  0.0724 -0.9063
  768MOL0     C 5879  10.311   7.777   4.766 -0.8774  0.0366 -0.5184
  768MOL0     C 5880  10.385   7.667   4.792 -0.7614  0.3313  0.2703
  768MOL0     C 5881  10.328   7.543   4.835  0.9230  0.1249 -0.5122
  768MOL0     O 5882  10.393   7.430   4.860 -0.2034  0.1490  0.4315
  768MOL0     C 5883  10.542   7.422   4.861 -0.1595 -1.1407  0.3363
  768MOL0     C 5884  10.592   7.286   4.924 -0.6518 -0.0934  0.0068
  768MOL0     C 5885  10.736   7.265   4.879  0.4584  0.1752 -1.0204
  768MOL0     C 5886  10.792   7.146   4.949 -0.7166 -0.2700 -1.0115
  768MOL0     C 5887  10.932   7.102   4.889 -0.1806 -0.0586 -0.6689
  768MOL0     C 5888  11.000   6.987   4.977  0.2246  1.2710  0.9873
  768MOL0     C 5889  11.135   7.012   5.048 -0.9373  0.1497  0.6884
  768MOL0     C 5890  11.259   7.046   4.953 -0.1809 -0.3568  0.5816
  768MOL0    Cl 5891  11.312   6.891   4.881  0.1478 -0.5295  0.9269
  768MOL0     C 5892  10.187   7.544   4.861 -0.0629 -0.7503  0.8132
  768MOL0     C 5893  10.107   7.646   4.813 -0.9490  0.2898  0.2746
  768MOL0     O 5894  10.026   7.756   4.552 -0.2036 -0.2333 -0.3416
  768MOL0     C 5895  10.010   8.110   4.630  0.0196  0.8705  0.3114
  768MOL0     C 5896   9.960   8.233   4.590  0.5807  0.4527  0.0166
  768MOL0     N 5897   9.329   8.399   4.816 -0.1740 -0.2229 -0.7782
  768MOL0     N 5898   9.334   8.289   4.878  0.5647 -0.1732 -1.4195
  768MOL0     C 5899   9.075   7.420   4.717 -0.2459  0.7155 -1.2033
  768MOL0     C 5900   8.941   7.388   4.664 -0.2385 -0.8056 -0.3323
  768MOL0     C 5901   8.565   7.418   4.455  0.0748 -0.3750 -0.4597
  768MOL0     C 5902   8.565   7.284   4.406  0.9569  0.0997  0.2378
  768MOL0     C 5903   8.444   7.219   4.384  0.3324  0.8461 -0.0348
  768MOL0     C 5904   8.324   7.284   4.407  1.7102  0.1625  0.7362
  768MOL0     O 5905   8.214   7.196   4.400  1.1819 -0.1259 -0.3632
  768MOL0     C 5906   8.097   7.234   4.478  0.2021 -0.0967  0.3867
  768MOL0     C 5907   8.032   7.115   4.553  0.6714 -0.0448 -0.5292
  768MOL0     C 5908   7.962   7.016   4.462 -0.8126  0.2603 -0.5799
  768MOL0     C 5909   7.863   7.086   4.370  0.3895 -0.0103 -0.5767
  768MOL0     C 5910   7.912   7.137   4.236 -0.1316 -0.3430 -0.8314
  768MOL0     C 5911   7.959   7.172   4.129  0.3013 -1.3007  0.7508
  768MOL0     C 5912   8.318   7.422   4.451 -0.1196 -1.1404  0.5911
  768MOL0     C 5913   8.439   7.483   4.471  0.0734 -1.0214 -0.4257
  768MOL0     C 5914   8.423   7.627   4.504 -0.0490  0.0113 -0.2781
  768MOL0     H 5915   8.990   7.500   4.341 -2.2595 -0.4553  0.7072
  768MOL0     H 5916   9.209   7.565   4.454 -0.8962 -0.2003 -2.0849
  768MOL0     H 5917   9.400   7.443   4.533 -0.8626 -1.4577 -1.1189
  768MOL0     H 5918   9.477   7.474   4.690 -5.1192 -2.8751  2.8201
  768MOL0     H 5919   9.558   7.625   4.527  0.4547  2.5612 -0.0770
  768MOL0     H 5920   9.405   7.679   4.473  0.8186  1.5033 -0.6540
  768MOL0     H 5921   9.494   7.856   4.618 -0.8412  0.8310  1.4549
  768MOL0     H 5922   9.369   7.770   4.718 -0.3261  0.5571 -0.8516
  768MOL0     H 5923   9.535   7.650   4.848 -1.3515 -1.6027 -3.0608
  768MOL0     H 5924   9.655   7.678   4.739  1.7878  1.1563  2.7690
  768MOL0     H 5925   9.670   7.928   4.775 -1.3675 -1.5963 -1.8990
  768MOL0     H 5926   9.708   7.825   4.913  0.0666  1.6158  1.8308
  768MOL0     H 5927   9.443   7.978   4.862  0.9731  1.3390  0.0804
  768MOL0     H 5928   9.463   7.871   4.999 -2.7267  2.4329  0.7412
  768MOL0     H 5929   9.656   8.100   4.925  1.6846  0.2600  2.3229
  768MOL0     H 5930   9.630   8.014   5.085 -0.2482  0.4048  0.3650
  768MOL0     H 5931   9.397   8.104   5.075 -2.0601  1.8509 -3.0820
  768MOL0     H 5932   9.525   8.218   5.128 -3.5251 -0.7612  2.5350
  768MOL0     H 5933   9.645   8.369   4.912  0.7033 -0.7164  0.6938
  768MOL0     H 5934   9.558   8.632   4.826 -1.2083  1.0861 -0.8533
  768MOL0     H 5935   9.429   8.618   4.707  0.8566 -1.5503 -3.5944
  768MOL0     H 5936   9.640   8.584   4.571 -2.2672  1.9329  0.4159
  768MOL0     H 5937   9.717   8.501   4.707 -1.1072 -1.3793  1.4549
  768MOL0     H 5938   9.603   8.283   4.621 -1.9944 -1.7202 -2.1075
  768MOL0     H 5939   9.476   8.385   4.557  0.1246 -0.4250  2.4323
  768MOL0     H 5940   9.628   8.285   4.366 -1.0159  0.1425  0.6703
  768MOL0     H 5941   9.624   8.461   4.373 -1.7235  0.9120  1.4332
  768MOL0     H 5942   9.717   8.102   4.388 -1.6190  2.8868  2.3396
  768MOL0     H 5943   9.784   7.804   4.521  0.4845  4.8610  1.6812
  768MOL0     H 5944   9.878   7.809   4.359 -0.4172 -1.5027 -0.2258
  768MOL0     H 5945   9.717   7.863   4.365 -0.2979 -1.2056 -0.7768
  768MOL0     H 5946  10.346   7.877   4.740  1.7133  0.0476  2.4975
  768MOL0     H 5947  10.492   7.663   4.776 -0.5678 -2.9022  1.6094
  768MOL0     H 5948  10.580   7.439   4.760 -0.4779 -0.3348  0.3492
  768MOL0     H 5949  10.592   7.503   4.915 -1.5224  0.3537 -0.5671
  768MOL0     H 5950  10.590   7.291   5.033  4.1466 -0.4623  0.2952
  768MOL0     H 5951  10.546   7.190   4.897  2.2138 -1.9564  1.3234
  768MOL0     H 5952  10.793   7.356   4.898  0.5291 -0.0523 -0.0845
  768MOL0     H 5953  10.739   7.244   4.771  3.6895 -1.0460 -0.7787
  768MOL0     H 5954  10.714   7.068   4.946 -2.5981  1.3843  1.1532
  768MOL0     H 5955  10.802   7.179   5.052  3.6667  2.5401 -2.0765
  768MOL0     H 5956  10.924   7.061   4.788 -0.2892  3.9937 -2.5086
  768MOL0     H 5957  10.996   7.191   4.888 -0.3991  0.1748  1.5598
  768MOL0     H 5958  11.016   6.907   4.904 -1.7734  0.6265  1.1940
  768MOL0     H 5959  10.925   6.946   5.045 -0.1074  0.1464 -0.0227
  768MOL0     H 5960  11.155   6.927   5.114 -0.1635  0.3414  0.7073
  768MOL0     H 5961  11.132   7.103   5.107  0.6536 -1.0191  2.7011
  768MOL0     H 5962  11.342   7.086   5.011 -1.2014 -0.6935  2.3219
  768MOL0     H 5963  11.229   7.119   4.878  0.4620 -0.5416  0.1375
  768MOL0     H 5964  10.145   7.449   4.894 -1.9519 -1.4730 -3.0675
  768MOL0     H 5965   9.999   7.652   4.801 -1.0863  4.0574  1.9983
  768MOL0     H 5966  10.093   8.125   4.698  0.0651  2.9889 -0.1241
  768MOL0     H 5967   9.994   8.327   4.631  0.6878  0.6690 -0.5685
  768MOL0     H 5968   9.111   7.404   4.818  2.4277 -0.8615 -2.3101
  768MOL0     H 5969   8.864   7.345   4.727  0.1666  1.6695  2.0046
  768MOL0     H 5970   8.651   7.219   4.388  1.2626  1.1485 -2.7212
  768MOL0     H 5971   8.440   7.113   4.364  1.4952  0.5538  1.1501
  768MOL0     H 5972   8.111   7.301   4.563  0.0502  3.1711 -1.9631
  768MOL0     H 5973   8.018   7.271   4.411  0.0993 -3.4344 -1.5431
  768MOL0     H 5974   7.965   7.143   4.635  0.9171  3.3416 -1.3332
  768MOL0     H 5975   8.109   7.063   4.611 -1.7587 -2.1179  1.0526
  768MOL0     H 5976   8.035   6.951   4.414 -0.9117  0.0017 -0.3830
  768MOL0     H 5977   7.908   6.947   4.527  1.6413  0.6515  2.0819
  768MOL0     H 5978   7.796   7.151   4.426 -2.5316 -1.0510 -2.6285
  768MOL0     H 5979   7.800   7.001   4.344 -3.8665  3.6811 -3.9328
  768MOL0     H 5980   7.990   7.205   4.032 -0.3066  0.8970  1.2419
  768MOL0     H 5981   8.218   7.458   4.473  0.4708  1.3306 -0.4687
  768MOL0     H 5982   8.505   7.671   4.446  1.5521 -2.2566  0.1421
  768MOL0     H 5983   8.326   7.665   4.470  0.1217 -0.9134 -1.8799
  768MOL0     H 5984   8.439   7.644   4.611 -0.5344  1.2353 -0.3777
  769MOL0     O 5985   3.129   1.950  11.435 -0.1983  0.1336 -0.4694
  769MOL0     C 5986   3.063   2.044  11.397  0.9796 -0.0402 -0.2252
  769MOL0     O 5987   2.961   2.027  11.310 -0.7279 -0.4075 -0.2597
  769MOL0     C 5988   2.965   1.934  11.213 -0.3491  0.1364  0.3168
  769MOL0     C 5989   2.843   1.917  11.146  0.1857  0.3085  0.8265
  769MOL0     C 5990   2.830   1.818  11.048 -0.8923  1.0256  0.4168
  769MOL0     C 5991   2.940   1.736  11.012  0.9416 -0.3845  0.6780
  769MOL0     O 5992   2.948   1.642  10.920 -0.3412  0.4916  0.0731
  769MOL0     C 5993   2.954   1.687  10.785  0.0502 -0.2081 -0.2277
  769MOL0     C 5994   3.088   1.720  10.737  0.1913 -1.3492  1.1200
  769MOL0     C 5995   3.185   1.606  10.761  0.5550 -0.3480 -0.2813
  769MOL0     C 5996   3.325   1.651  10.714 -0.0240 -0.6463 -0.0207
  769MOL0     C 5997   3.447   1.558  10.752  0.5913 -0.3719  0.2609
  769MOL0     C 5998   3.563   1.603  10.669  0.9434 -0.1380  0.2147
  769MOL0     C 5999   3.688   1.574  10.754  0.5361 -0.1046 -0.6066
  769MOL0     C 6000   3.730   1.666  10.855 -0.7084  0.1505  0.2009
  769MOL0     N 6001   3.863   1.621  10.917 -0.5927 -0.5616  0.1112
  769MOL0     C 6002   3.884   1.509  11.005 -0.0724 -0.2524  0.7421
  769MOL0     C 6003   4.021   1.478  10.996 -0.2347  0.0241 -0.5513
  769MOL0     C 6004   4.088   1.353  11.070  0.3824 -0.1279  0.0674
  769MOL0     C 6005   4.223   1.386  11.124 -0.1083  0.5435  0.1935
  769MOL0     C 6006   4.302   1.261  11.176 -0.2202 -0.8137  0.1359
  769MOL0     C 6007   4.406   1.302  11.272 -0.3215 -0.1406 -0.8662
  769MOL0     O 6008   4.529   1.253  11.226  0.5399  0.0001  0.3188
  769MOL0     C 6009   4.643   1.308  11.281  0.4686  0.1797 -0.7343
  769MOL0     C 6010   4.645   1.343  11.416  0.3831  0.0358  0.3617
  769MOL0     C 6011   4.759   1.402  11.470  0.1048 -0.3873  0.2578
  769MOL0     C 6012   4.748   1.445  11.610  0.0490 -0.2310 -0.1662
  769MOL0     C 6013   4.873   1.421  11.398  0.0024 -0.1772 -0.1983
  769MOL0     C 6014   5.005   1.452  11.465  0.3416 -0.1828 -0.3012
  769MOL0     O 6015   5.010   1.538  11.569 -0.0719 -0.0039 -0.3710
  769MOL0     C 6016   5.133   1.550  11.627 -0.0832 -0.0682  0.3657
  769MOL0     C 6017   5.162   1.504  11.752 -0.4171  0.2817 -0.0008
  769MOL0     C 6018   5.295   1.526  11.803  0.2419  0.4277  0.0777
  769MOL0     C 6019   5.390   1.588  11.715 -0.1333 -0.3647  0.0364
  769MOL0     O 6020   5.517   1.597  11.773 -0.0503  0.3975  0.5015
  769MOL0     C 6021   5.610   1.683  11.709 -0.1893 -0.0579  0.4305
  769MOL0     C 6022   5.584   1.824  11.776 -0.0935 -0.3565  0.4938
  769MOL0     C 6023   5.611   1.819  11.925  0.6711 -0.4247  0.1116
  769MOL0     C 6024   5.758   1.840  11.967  0.1072  0.6403  0.3269
  769MOL0     C 6025   5.767   1.868  12.106 -0.3509  0.4133  0.0768
  769MOL0     C 6026   5.895   1.950  12.134 -0.0355  0.2923 -1.2363
  769MOL0     C 6027   5.964   1.918  12.272  0.4663  0.2524  0.5734
  769MOL0     C 6028   6.097   1.989  12.320 -0.4818 -0.1165 -0.4212
  769MOL0    Cl 6029   6.179   1.884  12.447 -0.1934 -0.2831  0.1310
  769MOL0     C 6030   5.359   1.635  11.587 -0.1363  0.0226 -0.4166
  769MOL0     C 6031   5.228   1.617  11.542 -0.5804 -0.3730 -0.5834
  769MOL0     O 6032   5.104   1.391  11.420  0.7279 -0.0118 -0.2165
  769MOL0     C 6033   4.881   1.371  11.268 -0.3587  0.2048  0.0159
  769MOL0     C 6034   4.763   1.321  11.200  0.4852 -1.3877 -1.6476
  769MOL0     N 6035   4.069   1.568  10.912 -0.1355 -0.3488  0.7327
  769MOL0     N 6036   3.980   1.648  10.862 -0.4965  0.0673 -0.3037
  769MOL0     C 6037   3.063   1.755  11.082 -0.1523  0.4916  1.0590
  769MOL0     C 6038   3.080   1.848  11.181  0.1008  0.0313  0.4143
  769MOL0     C 6039   3.111   2.183  11.413  0.0805  0.5908  0.2342
  769MOL0     C 6040   3.090   2.278  11.316 -0.6207  0.5536 -0.1161
  769MOL0     C 6041   3.135   2.412  11.315 -0.3974 -0.2484  0.4560
  769MOL0     C 6042   3.215   2.453  11.417  0.9189  0.6223  0.1699
  769MOL0     O 6043   3.273   2.577  11.396  0.0281 -0.1075 -0.5241
  769MOL0     C 6044   3.359   2.614  11.503 -0.1526  0.4314  0.1043
  769MOL0     C 6045   3.404   2.752  11.472  0.1062 -0.5104  0.6478
  769MOL0     C 6046   3.301   2.879  11.483  0.0411  0.1697  0.5442
  769MOL0     C 6047   3.189   2.848  11.574  0.3534 -0.4798 -0.0590
  769MOL0     C 6048   3.102   2.969  11.578  0.5726 -0.1081 -0.2003
  769MOL0     C 6049   3.034   3.075  11.567 -0.2985 -0.7771 -1.2268
  769MOL0     C 6050   3.229   2.361  11.534  0.4176  0.3437 -0.4056
  769MOL0     C 6051   3.183   2.228  11.536  0.5811 -0.1555  0.5677
  769MOL0     C 6052   3.193   2.129  11.648 -0.4360 -0.3284  0.1203
  769MOL0     H 6053   2.759   1.975  11.182 -1.0569 -1.8746  1.6320
  769MOL0     H 6054   2.742   1.798  10.988  0.8534 -2.0973 -1.3785
  769MOL0     H 6055   2.879   1.766  10.775 -1.6719 -1.2668  3.0273
  769MOL0     H 6056   2.920   1.604  10.722 -2.7033  0.0789  0.7153
  769MOL0     H 6057   3.076   1.753  10.633 -1.9673 -0.0428  1.6961
  769MOL0     H 6058   3.119   1.813  10.786 -0.8506  2.1361 -3.9973
  769MOL0     H 6059   3.192   1.586  10.868  1.5592 -0.3059 -0.3298
  769MOL0     H 6060   3.145   1.528  10.694 -2.4140  0.7184  0.1137
  769MOL0     H 6061   3.331   1.647  10.604 -0.4766 -1.5590 -0.0246
  769MOL0     H 6062   3.337   1.755  10.744  1.3145 -0.6982 -0.3039
  769MOL0     H 6063   3.426   1.453  10.732 -2.7599 -0.1540  2.0136
  769MOL0     H 6064   3.473   1.558  10.858 -0.2412  0.5115  0.4767
  769MOL0     H 6065   3.567   1.534  10.584 -1.2898  2.5447 -2.2918
  769MOL0     H 6066   3.540   1.706  10.638 -0.5170 -0.7504 -0.8409
  769MOL0     H 6067   3.762   1.584  10.674  1.7985 -1.6891  0.3072
  769MOL0     H 6068   3.698   1.469  10.783 -0.1114 -0.6194 -2.1229
  769MOL0     H 6069   3.760   1.760  10.808 -0.2196  0.5135  1.1820
  769MOL0     H 6070   3.653   1.667  10.933 -0.8352  0.5818  0.0738
  769MOL0     H 6071   3.801   1.449  11.041 -1.6213  0.2256 -1.7865
  769MOL0     H 6072   4.096   1.271  10.998 -0.0556 -0.0593 -0.0565
  769MOL0     H 6073   4.029   1.312  11.153  1.0309 -0.9187  0.1515
  769MOL0     H 6074   4.285   1.423  11.042  3.9401 -0.6714  2.4595
  769MOL0     H 6075   4.208   1.455  11.207 -0.0446  0.6876  0.0868
  769MOL0     H 6076   4.232   1.199  11.231 -0.6871 -0.9205 -0.5755
  769MOL0     H 6077   4.330   1.189  11.099 -1.4651 -1.7543  0.5388
  769MOL0     H 6078   4.418   1.408  11.296 -0.2633 -0.2887 -0.2352
  769MOL0     H 6079   4.390   1.240  11.360  3.0638 -1.8366 -1.2944
  769MOL0     H 6080   4.560   1.329  11.482 -0.3806  3.4512  0.2817
  769MOL0     H 6081   4.780   1.550  11.619  0.9802 -0.4411 -0.8824
  769MOL0     H 6082   4.804   1.395  11.689 -0.3538  0.4258  0.5474
  769MOL0     H 6083   4.643   1.438  11.641 -0.4736  0.4675 -1.6896
  769MOL0     H 6084   5.086   1.472  11.823  2.2298 -1.6417  2.1838
  769MOL0     H 6085   5.315   1.488  11.902 -2.0962 -2.8798 -0.5302
  769MOL0     H 6086   5.713   1.649  11.723  0.0855  0.0893 -1.1596
  769MOL0     H 6087   5.601   1.690  11.601  0.3984  3.2086  0.4755
  769MOL0     H 6088   5.652   1.896  11.729  0.4164  0.4080  2.3241
  769MOL0     H 6089   5.479   1.842  11.755 -0.3037 -1.8209  0.1969
  769MOL0     H 6090   5.572   1.729  11.973 -0.9152 -1.4979 -2.9316
  769MOL0     H 6091   5.558   1.905  11.966  0.5297 -0.8021  0.7437
  769MOL0     H 6092   5.795   1.918  11.900  0.6233 -1.0680 -1.4682
  769MOL0     H 6093   5.820   1.754  11.939 -1.0471  0.1877 -0.9550
  769MOL0     H 6094   5.686   1.935  12.138 -1.2545 -0.7189  0.2266
  769MOL0     H 6095   5.765   1.770  12.154  3.3229  0.2384  0.1266
  769MOL0     H 6096   5.880   2.057  12.118 -2.5175 -0.3832 -4.3638
  769MOL0     H 6097   5.975   1.919  12.067  0.6795 -1.7513  0.4378
  769MOL0     H 6098   5.991   1.813  12.285 -1.9364 -0.0901  4.2261
  769MOL0     H 6099   5.887   1.915  12.349  2.8783 -2.3488  3.1333
  769MOL0     H 6100   6.076   2.085  12.367  1.2404 -0.5031  1.2604
  769MOL0     H 6101   6.170   1.999  12.239  1.7253 -1.3912  1.2948
  769MOL0     H 6102   5.428   1.690  11.525  0.0088  1.0348  0.6109
  769MOL0     H 6103   5.196   1.668  11.452  3.9349  2.9959 -0.6249
  769MOL0     H 6104   4.975   1.356  11.217  0.6739  0.2089  1.8462
  769MOL0     H 6105   4.768   1.286  11.097  1.2338 -2.8300 -1.1500
  769MOL0     H 6106   3.151   1.694  11.066 -0.0310  1.3619 -2.0398
  769MOL0     H 6107   3.180   1.848  11.223  0.1730  0.2591  0.2453
  769MOL0     H 6108   3.032   2.249  11.229  3.1945 -0.6757 -2.5229
  769MOL0     H 6109   3.119   2.477  11.229  3.7471  0.0069 -0.3358
  769MOL0     H 6110   3.321   2.612  11.605  1.6480 -1.6546  0.8048
  769MOL0     H 6111   3.441   2.541  11.501  0.1324  0.6704 -3.7707
  769MOL0     H 6112   3.442   2.749  11.369 -2.0032 -6.1299 -0.3093
  769MOL0     H 6113   3.490   2.777  11.536  1.5706  0.8264 -1.6859
  769MOL0     H 6114   3.345   2.971  11.521 -4.0546  1.3826  3.0531
  769MOL0     H 6115   3.262   2.912  11.386 -2.0138 -0.5162  1.0875
  769MOL0     H 6116   3.227   2.833  11.676 -0.9737 -0.1211  0.5198
  769MOL0     H 6117   3.116   2.776  11.536 -0.0662  1.4240 -3.1411
  769MOL0     H 6118   2.987   3.171  11.576 -0.7240 -1.1261  0.9754
  769MOL0     H 6119   3.288   2.394  11.619 -0.3751 -1.5469  0.9376
  769MOL0     H 6120   3.103   2.070  11.663 -0.1882 -1.0908 -1.2272
  769MOL0     H 6121   3.278   2.062  11.632  0.4127  0.8923 -0.7287
  769MOL0     H 6122   3.202   2.197  11.733  2.3277  0.3096 -0.5716
  770MOL0     O 6123   7.291  10.978   5.298  0.4553  0.1640  0.2145
  770MOL0     C 6124   7.343  10.985   5.408 -0.3968 -0.0545  0.5756
  770MOL0     O 6125   7.478  10.965   5.429 -0.1905 -0.8155  0.9794
  770MOL0     C 6126   7.574  10.935   5.336  0.1662 -0.8482 -0.2846
  770MOL0     C 6127   7.697  11.001   5.344  0.3936 -0.0821  0.1716
  770MOL0     C 6128   7.801  10.963   5.259  0.5412  0.2550  0.4719
  770MOL0     C 6129   7.786  10.862   5.160 -0.4729 -0.0848 -0.3324
  770MOL0     O 6130   7.888  10.824   5.083  0.3313 -0.1617  0.7450
  770MOL0     C 6131   7.928  10.690   5.086  0.5524  0.4144  0.5202
  770MOL0     C 6132   8.035  10.680   5.197  0.4145 -0.0427  0.2075
  770MOL0     C 6133   8.070  10.529   5.203  0.2946 -0.5419  0.3279
  770MOL0     C 6134   8.159  10.488   5.324 -0.3633 -0.3655 -0.6237
  770MOL0     C 6135   8.163  10.335   5.345 -0.1109 -0.3060  0.2761
  770MOL0     C 6136   8.042  10.259   5.383  0.8110  0.5144  0.6561
  770MOL0     C 6137   8.056  10.171   5.501  0.1718  0.1635 -0.3044
  770MOL0     C 6138   8.148  10.058   5.486  0.2332  0.1290 -0.0787
  770MOL0     N 6139   8.136   9.960   5.595 -0.6693  0.3860  0.1765
  770MOL0     C 6140   8.064   9.844   5.606 -0.3052  0.6355  0.8220
  770MOL0     C 6141   8.092   9.787   5.726 -1.9189 -1.2313 -0.0861
  770MOL0     C 6142   8.054   9.651   5.778  0.3811  0.1845  0.2045
  770MOL0     C 6143   7.915   9.646   5.839 -0.1411 -0.8277  0.2552
  770MOL0     C 6144   7.875   9.513   5.901  0.1226 -0.3310  0.3574
  770MOL0     C 6145   7.956   9.489   6.035  0.4574 -0.3533  0.0174
  770MOL0     O 6146   7.927   9.347   6.059  0.3075  0.3145  0.4220
  770MOL0     C 6147   7.831   9.302   6.144 -0.8749 -0.1104 -0.8300
  770MOL0     C 6148   7.750   9.377   6.233 -0.4720  0.0488 -0.0622
  770MOL0     C 6149   7.648   9.321   6.317 -0.6659  0.0385  0.9294
  770MOL0     C 6150   7.575   9.400   6.417 -0.3205 -0.3226 -0.3034
  770MOL0     C 6151   7.641   9.176   6.311  0.3621 -0.8472 -0.1161
  770MOL0     C 6152   7.549   9.100   6.394  0.2338  0.4347  0.3703
  770MOL0     O 6153   7.418   9.131   6.399 -0.3494 -0.1313 -0.0842
  770MOL0     C 6154   7.354   9.193   6.292  0.8662 -0.2404 -0.5040
  770MOL0     C 6155   7.233   9.263   6.327  0.3743 -0.2896 -0.3816
  770MOL0     C 6156   7.165   9.340   6.237  0.0428 -0.0257  0.7410
  770MOL0     C 6157   7.212   9.349   6.109  0.4637  0.5644 -0.5242
  770MOL0     O 6158   7.148   9.424   6.024 -0.2924  0.3288  0.0407
  770MOL0     C 6159   7.080   9.345   5.922 -0.6103  0.5889  0.2389
  770MOL0     C 6160   6.982   9.428   5.837 -0.1696  1.0858 -0.1581
  770MOL0     C 6161   7.028   9.477   5.693  0.4454 -0.7060  0.4999
  770MOL0     C 6162   6.921   9.569   5.643  0.4018  0.2313 -0.5660
  770MOL0     C 6163   6.931   9.575   5.492  0.0339 -0.3195 -1.0166
  770MOL0     C 6164   7.060   9.637   5.442 -0.4770  0.3338  0.5274
  770MOL0     C 6165   7.040   9.669   5.285  0.2780  0.9084  0.3285
  770MOL0     C 6166   7.168   9.742   5.229  0.2268 -0.2541 -0.3275
  770MOL0    Cl 6167   7.313   9.653   5.243  0.4324 -0.2214 -0.4844
  770MOL0     C 6168   7.325   9.282   6.072 -0.1736  0.4714 -0.4456
  770MOL0     C 6169   7.390   9.205   6.162 -0.0672 -1.3007 -0.1000
  770MOL0     O 6170   7.592   8.999   6.454  0.5832 -0.3335  0.4829
  770MOL0     C 6171   7.731   9.097   6.235  0.2217  0.2339  0.2646
  770MOL0     C 6172   7.824   9.168   6.153 -0.6904 -0.0571  0.1552
  770MOL0     N 6173   8.178   9.888   5.788 -0.1399 -0.5507  0.3120
  770MOL0     N 6174   8.210   9.985   5.705  0.9366  1.2750 -0.5979
  770MOL0     C 6175   7.661  10.796   5.146 -0.1697  0.3431 -0.6496
  770MOL0     C 6176   7.561  10.838   5.231  0.2302 -0.2929  0.4816
  770MOL0     C 6177   7.262  11.006   5.527  0.9569 -0.3354 -0.0101
  770MOL0     C 6178   7.307  10.978   5.658 -0.4530  0.0057  0.1627
  770MOL0     C 6179   7.229  10.965   5.772  0.8612 -0.1931 -0.3289
  770MOL0     C 6180   7.101  11.009   5.772  0.5782 -1.0193 -0.8456
  770MOL0     O 6181   7.025  11.017   5.885  0.7832  0.2697  1.2691
  770MOL0     C 6182   6.973  11.149   5.930  0.2327  0.0043 -0.9909
  770MOL0     C 6183   6.827  11.132   5.954 -0.2473 -0.1177  0.2889
  770MOL0     C 6184   6.753  11.092   5.821  0.2419 -0.6532  0.2785
  770MOL0     C 6185   6.607  11.136   5.834 -0.2260 -0.6646 -0.1488
  770MOL0     C 6186   6.598  11.284   5.843 -0.9388 -0.3218  0.3122
  770MOL0     C 6187   6.603  11.403   5.871  0.0502 -0.0305 -0.0070
  770MOL0     C 6188   7.052  11.044   5.644  0.6997  1.0856  0.5358
  770MOL0     C 6189   7.127  11.038   5.521  1.1488  0.1561  0.1785
  770MOL0     C 6190   7.045  11.092   5.396 -0.8113  0.1043 -0.0276
  770MOL0     H 6191   7.716  11.077   5.419  0.8860  1.9008 -1.8535
  770MOL0     H 6192   7.902  11.001   5.266 -0.6935  3.5265  2.6385
  770MOL0     H 6193   7.971  10.652   4.993  0.7951 -0.7819  1.0955
  770MOL0     H 6194   7.847  10.624   5.119  1.2491  0.0661  1.5947
  770MOL0     H 6195   8.116  10.744   5.163 -0.7949  0.8379 -1.1535
  770MOL0     H 6196   7.996  10.715   5.293 -0.5087  0.8025 -0.4509
  770MOL0     H 6197   7.978  10.470   5.214 -0.7581  1.1413  0.9101
  770MOL0     H 6198   8.122  10.505   5.110 -0.5131 -1.9126  0.1913
  770MOL0     H 6199   8.263  10.520   5.315  0.9561 -2.5281  4.0514
  770MOL0     H 6200   8.107  10.530   5.410 -1.1378  0.3902 -1.4448
  770MOL0     H 6201   8.233  10.323   5.427  0.8493 -1.8912 -0.7284
  770MOL0     H 6202   8.194  10.283   5.253 -0.7515 -0.4788  0.1525
  770MOL0     H 6203   7.961  10.328   5.409  1.4142  1.6414 -0.3097
  770MOL0     H 6204   8.009  10.194   5.301 -1.6543  0.3680  1.6904
  770MOL0     H 6205   7.958  10.132   5.527  0.0174  1.0263  0.4588
  770MOL0     H 6206   8.098  10.220   5.590  0.0534  1.2109 -0.8145
  770MOL0     H 6207   8.144  10.011   5.387  2.1371 -1.2238  0.4170
  770MOL0     H 6208   8.246  10.100   5.508 -0.0393  0.1780  1.0884
  770MOL0     H 6209   8.010   9.800   5.523 -0.0877  3.6125 -1.0537
  770MOL0     H 6210   8.135   9.612   5.841  0.5759 -1.6690 -1.1111
  770MOL0     H 6211   8.045   9.578   5.698  1.7926 -0.3541  0.5000
  770MOL0     H 6212   7.906   9.716   5.923  1.4222 -1.0323  0.6295
  770MOL0     H 6213   7.841   9.665   5.760  0.8021  0.5129 -0.3319
  770MOL0     H 6214   7.768   9.504   5.924 -0.6817 -1.1075 -3.1481
  770MOL0     H 6215   7.884   9.431   5.829 -0.1665  0.3436 -0.4667
  770MOL0     H 6216   8.063   9.496   6.014  1.2207  2.0351  3.7919
  770MOL0     H 6217   7.930   9.555   6.118 -1.5193 -1.3733  0.2748
  770MOL0     H 6218   7.765   9.484   6.228  0.8680 -0.0562  0.9983
  770MOL0     H 6219   7.510   9.469   6.363  0.7348 -0.8963 -2.4017
  770MOL0     H 6220   7.632   9.464   6.485  0.2647 -1.1912  0.0379
  770MOL0     H 6221   7.518   9.330   6.478  0.6914 -0.0472  1.0241
  770MOL0     H 6222   7.205   9.257   6.431 -0.6650 -1.3271 -0.6942
  770MOL0     H 6223   7.074   9.383   6.277  0.3837  0.4751  0.9755
  770MOL0     H 6224   7.157   9.299   5.859 -0.2375 -0.7631  1.6011
  770MOL0     H 6225   7.018   9.271   5.974 -0.8156 -0.2575 -1.1426
  770MOL0     H 6226   6.896   9.363   5.819  0.2948 -0.5850  2.9519
  770MOL0     H 6227   6.961   9.513   5.904 -0.5937 -0.1781  1.3803
  770MOL0     H 6228   7.047   9.391   5.628 -2.9724 -0.7863 -0.5543
  770MOL0     H 6229   7.123   9.532   5.692 -0.7553  1.4826  0.8540
  770MOL0     H 6230   6.933   9.661   5.701 -1.6616 -0.1372  0.5135
  770MOL0     H 6231   6.829   9.524   5.680  0.6382 -2.6715 -3.1341
  770MOL0     H 6232   6.920   9.476   5.447  0.5526 -0.7102 -0.3059
  770MOL0     H 6233   6.843   9.629   5.457 -0.6775 -0.8884 -0.1543
  770MOL0     H 6234   7.148   9.573   5.460 -0.2518  0.4745 -0.0599
  770MOL0     H 6235   7.080   9.736   5.483  0.6785  0.8540 -1.1660
  770MOL0     H 6236   6.951   9.728   5.265 -0.2021  0.0532 -0.1226
  770MOL0     H 6237   7.038   9.580   5.222  2.8748  2.3179 -1.9935
  770MOL0     H 6238   7.187   9.846   5.259  0.3086 -0.9895  2.3458
  770MOL0     H 6239   7.168   9.751   5.120  0.6590 -0.5254 -0.3507
  770MOL0     H 6240   7.366   9.307   5.975  1.0454 -1.2166 -0.4158
  770MOL0     H 6241   7.478   9.153   6.125  1.7598  0.6262  1.3392
  770MOL0     H 6242   7.719   8.990   6.232  0.5605  0.0529  2.9156
  770MOL0     H 6243   7.881   9.100   6.090  0.8932  1.5511 -0.2223
  770MOL0     H 6244   7.651  10.704   5.088  2.3169 -0.0186 -0.6234
  770MOL0     H 6245   7.469  10.780   5.233 -0.5424  0.6851 -2.3484
  770MOL0     H 6246   7.398  10.919   5.656 -0.3160  0.0400  2.6922
  770MOL0     H 6247   7.298  10.933   5.850 -0.6170 -1.1999  0.6295
  770MOL0     H 6248   7.017  11.191   6.021 -3.7010  0.5994  0.8606
  770MOL0     H 6249   6.980  11.220   5.847  0.9765 -1.6866 -2.4253
  770MOL0     H 6250   6.795  11.231   5.987  0.6571  0.4387 -0.4558
  770MOL0     H 6251   6.814  11.050   6.026 -1.7249 -0.8642 -0.7752
  770MOL0     H 6252   6.794  11.134   5.729  0.6260 -1.8591 -0.1137
  770MOL0     H 6253   6.755  10.983   5.812  0.6779 -0.4686 -2.7794
  770MOL0     H 6254   6.564  11.091   5.924 -0.1976 -2.7691 -1.1255
  770MOL0     H 6255   6.547  11.110   5.746 -2.7570  3.6225  0.0185
  770MOL0     H 6256   6.610  11.503   5.906  3.1865  0.1706 -0.9231
  770MOL0     H 6257   6.944  11.050   5.629  0.0987 -1.8618  2.8638
  770MOL0     H 6258   6.947  11.134   5.421 -2.3146 -1.2377 -3.0542
  770MOL0     H 6259   7.104  11.167   5.343  4.6222 -3.4061  0.3262
  770MOL0     H 6260   7.028  11.022   5.313  2.8258 -1.0794  0.0607
  771MOL0     O 6261  10.940   7.211   8.561 -0.4973  0.1418  0.0069
  771MOL0     C 6262  10.926   7.331   8.550 -0.6597  0.2072  0.6980
  771MOL0     O 6263  10.854   7.408   8.624 -0.6003  0.0393  0.6032
  771MOL0     C 6264  10.776   7.346   8.721 -0.0185  0.0690  1.4620
  771MOL0     C 6265  10.634   7.333   8.705  0.4278 -0.5743  0.3146
  771MOL0     C 6266  10.558   7.264   8.797  0.2588 -0.5837  0.4714
  771MOL0     C 6267  10.621   7.202   8.908 -0.2184  0.2764  0.6919
  771MOL0     O 6268  10.529   7.135   8.987  0.4135  0.5683  0.0170
  771MOL0     C 6269  10.559   7.104   9.121 -0.3926  0.2598 -0.0313
  771MOL0     C 6270  10.591   7.229   9.203 -0.6340  0.4058 -1.5055
  771MOL0     C 6271  10.492   7.337   9.176 -0.0067 -0.2247 -0.1588
  771MOL0     C 6272  10.551   7.472   9.240  0.0303  0.6801  0.6803
  771MOL0     C 6273  10.443   7.572   9.209 -0.4533 -0.2007  0.3741
  771MOL0     C 6274  10.500   7.716   9.234  0.0131 -0.5785  0.3503
  771MOL0     C 6275  10.467   7.820   9.123 -0.2395  0.3682 -0.1495
  771MOL0     C 6276  10.330   7.889   9.134  0.4118  0.4432  0.5238
  771MOL0     N 6277  10.333   7.987   9.244  0.6604  0.0113 -0.2447
  771MOL0     C 6278  10.296   7.958   9.376 -0.7528 -0.5169 -0.3026
  771MOL0     C 6279  10.314   8.076   9.434  0.7292 -0.2902  0.0558
  771MOL0     C 6280  10.270   8.111   9.577  0.6946  0.3778  0.8555
  771MOL0     C 6281  10.375   8.076   9.684 -0.3148  0.5593  0.2149
  771MOL0     C 6282  10.387   7.924   9.713 -0.1541 -0.0209  0.3452
  771MOL0     C 6283  10.449   7.902   9.847  0.3401 -0.1500 -1.2930
  771MOL0     O 6284  10.407   7.781   9.905  1.3496 -0.2932 -0.3523
  771MOL0     C 6285  10.404   7.759  10.048 -0.4930 -1.0505  0.2878
  771MOL0     C 6286  10.290   7.797  10.110  0.5815 -0.8331 -0.7524
  771MOL0     C 6287  10.278   7.779  10.250 -0.2256 -0.1524  0.1297
  771MOL0     C 6288  10.166   7.852  10.319  0.1727 -0.2238 -0.2607
  771MOL0     C 6289  10.381   7.715  10.321 -0.1408  0.1250 -0.2214
  771MOL0     C 6290  10.380   7.697  10.468  0.3507  0.2118 -0.5981
  771MOL0     O 6291  10.467   7.783  10.541 -0.4750 -0.1673 -0.2375
  771MOL0     C 6292  10.451   7.785  10.680 -0.5323 -0.0104  0.6249
  771MOL0     C 6293  10.562   7.775  10.752 -0.2879 -1.1834  0.9114
  771MOL0     C 6294  10.557   7.793  10.892  0.2058 -0.0035 -0.1638
  771MOL0     C 6295  10.443   7.842  10.956  0.0646  0.4217  0.1521
  771MOL0     O 6296  10.440   7.864  11.092  0.3440  0.3913  0.4378
  771MOL0     C 6297  10.550   7.894  11.179  0.9293  0.4580 -1.1903
  771MOL0     C 6298  10.534   7.790  11.298  0.0663  0.2941  0.4430
  771MOL0     C 6299  10.632   7.669  11.272  0.0522  1.4351 -0.3722
  771MOL0     C 6300  10.645   7.583  11.410 -0.1804 -0.4742  0.6930
  771MOL0     C 6301  10.744   7.467  11.395 -0.0671 -0.6108  0.8141
  771MOL0     C 6302  10.805   7.425  11.529 -0.4338  0.5829 -0.5515
  771MOL0     C 6303  10.862   7.281  11.531  0.4280 -0.3628  0.0679
  771MOL0     C 6304  10.956   7.250  11.650  0.0499 -0.4443  0.4317
  771MOL0    Cl 6305  11.028   7.089  11.609  0.2346  0.0403  0.1446
  771MOL0     C 6306  10.327   7.847  10.878  0.3357 -0.0378 -0.4984
  771MOL0     C 6307  10.332   7.827  10.740  1.0118  1.0166 -0.8331
  771MOL0     O 6308  10.301   7.612  10.514  0.2504  0.2149  0.2207
  771MOL0     C 6309  10.492   7.675  10.251  0.0915 -0.3568  0.1113
  771MOL0     C 6310  10.500   7.700  10.118 -0.7070 -0.2881 -0.6478
  771MOL0     N 6311  10.360   8.177   9.340 -0.1875  1.2095 -1.1498
  771MOL0     N 6312  10.364   8.118   9.227 -0.3214 -0.4371 -0.0489
  771MOL0     C 6313  10.763   7.223   8.923 -0.0962  0.0342 -0.1086
  771MOL0     C 6314  10.838   7.299   8.830  1.3121 -0.6140 -0.4248
  771MOL0     C 6315  10.989   7.396   8.433 -0.1811  0.4276  0.8237
  771MOL0     C 6316  11.132   7.377   8.415  0.1260  1.1514 -0.8642
  771MOL0     C 6317  11.189   7.415   8.296  0.8109 -1.6271  0.5146
  771MOL0     C 6318  11.121   7.502   8.203 -1.1784 -0.2917  0.0319
  771MOL0     O 6319  11.191   7.563   8.092 -0.2101 -0.7331  0.4850
  771MOL0     C 6320  11.332   7.586   8.105 -0.4747 -0.2531 -0.4294
  771MOL0     C 6321  11.372   7.720   8.048 -0.7620 -0.5900  0.2877
  771MOL0     C 6322  11.501   7.763   8.109 -0.0783  1.4116 -0.5561
  771MOL0     C 6323  11.496   7.857   8.228 -0.1272 -0.0159  0.7753
  771MOL0     C 6324  11.623   7.846   8.293  0.7264  0.3467  0.1421
  771MOL0     C 6325  11.741   7.837   8.321 -0.8803 -0.4259  0.2237
  771MOL0     C 6326  10.986   7.525   8.221 -0.7085  0.5720 -0.3412
  771MOL0     C 6327  10.917   7.459   8.322  0.5376  0.6022  0.0037
  771MOL0     C 6328  10.761   7.465   8.311  0.7601  0.3997 -0.7649
  771MOL0     H 6329  10.594   7.384   8.618  2.8121  2.3616  0.7558
  771MOL0     H 6330  10.450   7.271   8.786  0.4694  0.3145 -1.5031
  771MOL0     H 6331  10.635   7.027   9.138 -1.5415 -0.6011  1.2978
  771MOL0     H 6332  10.470   7.063   9.169  1.3200  0.0012  3.1714
  771MOL0     H 6333  10.585   7.202   9.309  3.4925 -3.2097 -1.9428
  771MOL0     H 6334  10.692   7.263   9.181  0.5894 -2.8430 -1.3820
  771MOL0     H 6335  10.502   7.359   9.069 -0.4682  1.1527  0.0600
  771MOL0     H 6336  10.390   7.301   9.197 -1.0838  1.8129 -1.5214
  771MOL0     H 6337  10.578   7.482   9.345 -0.4426  2.4124  0.6574
  771MOL0     H 6338  10.636   7.490   9.173  0.3255  2.4729  1.4998
  771MOL0     H 6339  10.348   7.557   9.261 -1.3789 -0.6160 -1.3634
  771MOL0     H 6340  10.406   7.563   9.107 -2.0665 -0.2791  0.9396
  771MOL0     H 6341  10.465   7.765   9.325  1.3926  0.2349  0.4687
  771MOL0     H 6342  10.610   7.716   9.239 -0.0189  0.2656  1.2148
  771MOL0     H 6343  10.471   7.773   9.025  3.2774  1.2132 -0.5233
  771MOL0     H 6344  10.548   7.894   9.123  1.1125 -1.0429  1.0491
  771MOL0     H 6345  10.306   7.946   9.044  1.2874  2.2949  1.3916
  771MOL0     H 6346  10.253   7.817   9.163 -0.7513  1.4759  0.0829
  771MOL0     H 6347  10.266   7.867   9.429 -0.3138 -2.4041 -3.0717
  771MOL0     H 6348  10.174   8.066   9.604  1.2087  0.2471  2.5989
  771MOL0     H 6349  10.266   8.220   9.586  1.8682  0.4404  0.7792
  771MOL0     H 6350  10.473   8.121   9.668  1.5444 -2.6432  1.4743
  771MOL0     H 6351  10.336   8.109   9.781 -0.4055 -1.8325  1.0785
  771MOL0     H 6352  10.292   7.874   9.733  0.2812  0.0988  3.1855
  771MOL0     H 6353  10.438   7.874   9.631  0.6481  2.0811 -0.5027
  771MOL0     H 6354  10.556   7.897   9.825  0.5424 -0.6152 -0.2572
  771MOL0     H 6355  10.443   7.989   9.914  1.1475 -1.9670  1.2969
  771MOL0     H 6356  10.206   7.844  10.060  2.1767  3.5842  0.3342
  771MOL0     H 6357  10.178   7.960  10.305 -0.3183  0.0056  0.9874
  771MOL0     H 6358  10.151   7.828  10.424  0.9863 -0.3687 -0.1694
  771MOL0     H 6359  10.075   7.838  10.259  0.5920  1.0880 -1.2668
  771MOL0     H 6360  10.661   7.753  10.712  0.6311  4.8788 -1.2273
  771MOL0     H 6361  10.649   7.801  10.950  0.4758 -0.5193 -0.5087
  771MOL0     H 6362  10.651   7.887  11.139  1.3332 -0.7694 -0.0266
  771MOL0     H 6363  10.543   7.996  11.220  3.1168  1.7407 -3.7187
  771MOL0     H 6364  10.572   7.835  11.390  1.2068  1.6401 -0.6372
  771MOL0     H 6365  10.435   7.754  11.329  0.6592 -1.1562  0.7374
  771MOL0     H 6366  10.731   7.710  11.249  1.5551 -1.3440  0.6257
  771MOL0     H 6367  10.587   7.600  11.199 -3.3585  0.6318  2.2305
  771MOL0     H 6368  10.550   7.533  11.429 -0.6052 -0.7167 -1.7477
  771MOL0     H 6369  10.678   7.651  11.489 -1.6874  3.6791 -1.9233
  771MOL0     H 6370  10.696   7.388  11.337 -0.0579  1.5215 -2.3336
  771MOL0     H 6371  10.824   7.512  11.336 -1.4060  1.2358  0.2983
  771MOL0     H 6372  10.718   7.430  11.595 -1.2395 -2.8541 -1.1374
  771MOL0     H 6373  10.880   7.493  11.569  1.6793 -1.7566 -0.2806
  771MOL0     H 6374  10.935   7.257  11.452  0.0421 -3.1270  0.4305
  771MOL0     H 6375  10.775   7.215  11.535 -1.2457  1.7678  0.1628
  771MOL0     H 6376  10.904   7.264  11.745  1.7635  0.2815  1.2976
  771MOL0     H 6377  11.034   7.325  11.638 -1.1183  0.4556 -2.5411
  771MOL0     H 6378  10.236   7.886  10.922  0.5883 -1.8618  1.8036
  771MOL0     H 6379  10.250   7.819  10.669 -0.1030  0.6458  0.4713
  771MOL0     H 6380  10.576   7.620  10.292  0.2126  0.7602  1.4290
  771MOL0     H 6381  10.597   7.682  10.073 -0.4156  1.0586 -0.6006
  771MOL0     H 6382  10.820   7.181   9.005  1.2597 -1.0889 -1.5576
  771MOL0     H 6383  10.942   7.314   8.855  1.4122  1.2427 -1.6984
  771MOL0     H 6384  11.176   7.316   8.494 -0.9549 -0.4723 -1.4638
  771MOL0     H 6385  11.292   7.382   8.296  1.6370  0.7519 -0.5403
  771MOL0     H 6386  11.356   7.583   8.212  1.5343 -0.5021 -0.8594
  771MOL0     H 6387  11.396   7.511   8.057 -0.0081 -0.6081  0.7183
  771MOL0     H 6388  11.296   7.796   8.072 -1.0918 -1.3872  1.9105
  771MOL0     H 6389  11.388   7.710   7.941  2.4057 -0.8352  0.6831
  771MOL0     H 6390  11.552   7.670   8.136 -1.0929  0.2280 -2.4608
  771MOL0     H 6391  11.553   7.814   8.028 -2.1373  0.6356 -2.4632
  771MOL0     H 6392  11.415   7.832   8.298 -0.9580  1.5907  0.4369
  771MOL0     H 6393  11.478   7.957   8.188  2.5706  0.1059 -0.3666
  771MOL0     H 6394  11.846   7.837   8.339 -1.2305 -1.9069  2.6606
  771MOL0     H 6395  10.943   7.580   8.138 -0.3746  2.8615  0.9362
  771MOL0     H 6396  10.719   7.561   8.341  2.3375  1.1819 -0.9417
  771MOL0     H 6397  10.737   7.450   8.205  0.3894  0.2139 -0.6558
  771MOL0     H 6398  10.720   7.383   8.372 -2.1431  2.3287  0.0401
  772MOL0     O 6399   1.266   8.832   2.445  0.5474 -0.4371  1.1494
  772MOL0     C 6400   1.364   8.842   2.516 -0.0369  0.2785  0.3289
  772MOL0     O 6401   1.458   8.933   2.501 -0.6821  1.2005 -0.6379
  772MOL0     C 6402   1.468   9.029   2.412  0.1184  0.0472 -0.2312
  772MOL0     C 6403   1.521   9.005   2.282  0.3554  0.1851 -0.3017
  772MOL0     C 6404   1.521   9.100   2.181  0.4191  1.1027  0.6257
  772MOL0     C 6405   1.462   9.220   2.209 -0.7514 -0.0031  0.6090
  772MOL0     O 6406   1.475   9.304   2.097 -0.1000 -0.0831  0.1885
  772MOL0     C 6407   1.384   9.417   2.092 -0.5648  0.5878  0.6596
  772MOL0     C 6408   1.383   9.461   1.948 -0.5551 -0.7351  0.0692
  772MOL0     C 6409   1.525   9.530   1.911 -0.1756 -0.2407 -0.3931
  772MOL0     C 6410   1.519   9.684   1.904  0.7146  0.6324  1.6166
  772MOL0     C 6411   1.658   9.740   1.873  0.5823  0.6623  0.9101
  772MOL0     C 6412   1.667   9.898   1.855 -0.3447  0.3652 -0.1855
  772MOL0     C 6413   1.597   9.955   1.727  0.1878 -0.5157 -0.6034
  772MOL0     C 6414   1.560  10.097   1.747 -0.6462 -0.2860 -0.2331
  772MOL0     N 6415   1.483  10.129   1.624 -0.0525  0.0910  0.2845
  772MOL0     C 6416   1.346  10.111   1.612 -0.7178  0.1756 -0.3278
  772MOL0     C 6417   1.314  10.189   1.508  0.5149  0.6563  0.4344
  772MOL0     C 6418   1.183  10.217   1.431 -0.1009  0.8670  0.3106
  772MOL0     C 6419   1.066  10.132   1.492 -0.2788  0.4359  0.0131
  772MOL0     C 6420   0.936  10.202   1.453  0.4306  0.0878  0.1354
  772MOL0     C 6421   0.808  10.138   1.496 -0.4951 -0.7091 -0.1281
  772MOL0     O 6422   0.702  10.223   1.485  0.1200 -0.1389  0.3216
  772MOL0     C 6423   0.618  10.198   1.590  0.3624  0.2643  0.4315
  772MOL0     C 6424   0.493  10.134   1.570 -0.0552 -0.2780 -0.9017
  772MOL0     C 6425   0.399  10.127   1.678 -0.7396 -0.4886 -0.2971
  772MOL0     C 6426   0.265  10.058   1.665 -0.2394  0.3471  0.3218
  772MOL0     C 6427   0.432  10.181   1.805  0.5529 -0.3658 -0.3703
  772MOL0     C 6428   0.344  10.184   1.936 -0.5387  0.6536  0.2683
  772MOL0     O 6429   0.242  10.105   1.935  0.0348  0.2425  0.1210
  772MOL0     C 6430   0.162  10.082   2.048 -0.1844 -0.8236  0.0516
  772MOL0     C 6431   0.151   9.954   2.097  0.3498  0.4478 -0.3763
  772MOL0     C 6432   0.075   9.917   2.204  1.4164  0.4305  0.0085
  772MOL0     C 6433   0.005  10.014   2.277 -0.6337  0.6010  0.1568
  772MOL0     O 6434  -0.084   9.979   2.376 -0.1589 -0.6372 -0.0209
  772MOL0     C 6435  -0.032   9.896   2.478  0.0094  0.0780 -0.7033
  772MOL0     C 6436  -0.119   9.774   2.503 -0.1552 -1.0914 -0.5983
  772MOL0     C 6437  -0.264   9.804   2.524  1.6408 -0.4225 -0.3569
  772MOL0     C 6438  -0.347   9.675   2.534 -0.1325 -0.8165  0.7719
  772MOL0     C 6439  -0.494   9.716   2.551  0.2497 -0.6667 -0.1191
  772MOL0     C 6440  -0.596   9.599   2.548  0.1759  0.1270 -1.0238
  772MOL0     C 6441  -0.746   9.650   2.530 -0.4562 -0.8464 -0.0225
  772MOL0     C 6442  -0.794   9.760   2.621  1.4073 -0.8330 -0.5158
  772MOL0    Cl 6443  -0.823   9.727   2.805 -0.1371  0.2277  0.5687
  772MOL0     C 6444   0.012  10.151   2.232  0.0221  0.9160 -0.3914
  772MOL0     C 6445   0.088  10.185   2.116 -0.7096  0.3476 -0.3984
  772MOL0     O 6446   0.404  10.234   2.036  0.3284  0.2914 -0.9771
  772MOL0     C 6447   0.551  10.253   1.818 -0.0371  0.3957  0.7489
  772MOL0     C 6448   0.637  10.263   1.709 -0.9480  1.1104 -0.0440
  772MOL0     N 6449   1.434  10.228   1.451 -0.1611 -0.0157 -0.0746
  772MOL0     N 6450   1.535  10.200   1.523 -0.1469 -0.3679 -0.2645
  772MOL0     C 6451   1.415   9.250   2.328 -1.1572 -0.2205 -0.5371
  772MOL0     C 6452   1.414   9.159   2.429 -0.6579  0.1576 -1.0499
  772MOL0     C 6453   1.366   8.727   2.625 -0.6700 -0.9162  0.6947
  772MOL0     C 6454   1.290   8.617   2.584  0.0250  0.2238 -0.6666
  772MOL0     C 6455   1.296   8.498   2.651 -0.7997 -0.1165 -0.3098
  772MOL0     C 6456   1.377   8.482   2.764 -0.0522  1.4493  1.1289
  772MOL0     O 6457   1.402   8.364   2.833 -0.2425 -0.4308 -0.3345
  772MOL0     C 6458   1.340   8.241   2.817 -0.1461 -0.7430  0.9912
  772MOL0     C 6459   1.405   8.128   2.902  0.6240 -0.8071  1.5925
  772MOL0     C 6460   1.319   8.057   3.007  0.3229 -0.5302 -0.1993
  772MOL0     C 6461   1.364   7.925   3.049  0.1815 -0.0124 -0.3561
  772MOL0     C 6462   1.280   7.850   3.142  0.6214  0.7466  0.2485
  772MOL0     C 6463   1.196   7.811   3.207  0.2776 -0.1574 -0.8888
  772MOL0     C 6464   1.447   8.594   2.817 -0.1976 -0.0773  0.6056
  772MOL0     C 6465   1.447   8.718   2.738 -0.6551  0.1804  0.5889
  772MOL0     C 6466   1.542   8.836   2.787 -0.8982 -0.4416 -0.0004
  772MOL0     H 6467   1.568   8.911   2.255  1.4127  1.5063 -3.5748
  772MOL0     H 6468   1.544   9.070   2.079 -4.8371 -3.0628  0.1765
  772MOL0     H 6469   1.420   9.498   2.156 -1.2436  2.5608 -1.3221
  772MOL0     H 6470   1.284   9.391   2.128 -1.7632  0.1092 -2.6777
  772MOL0     H 6471   1.387   9.373   1.884 -4.3782 -1.0968  0.1123
  772MOL0     H 6472   1.300   9.528   1.923  1.4889  2.4231  1.1386
  772MOL0     H 6473   1.607   9.509   1.980 -0.4914  0.5977  0.2571
  772MOL0     H 6474   1.551   9.491   1.812 -1.6243  0.6281 -1.1601
  772MOL0     H 6475   1.462   9.703   1.812  2.9156  1.4740  0.3481
  772MOL0     H 6476   1.476   9.718   1.999 -2.3590  0.1707  0.5229
  772MOL0     H 6477   1.692   9.688   1.783  0.3962  2.8304 -0.5133
  772MOL0     H 6478   1.728   9.716   1.953  0.9405  3.0668  1.4045
  772MOL0     H 6479   1.633   9.945   1.948 -2.1326 -5.9430  2.9402
  772MOL0     H 6480   1.771   9.931   1.849 -0.5376  0.9129 -0.5334
  772MOL0     H 6481   1.501   9.905   1.712  0.5439 -1.0910 -0.9892
  772MOL0     H 6482   1.661   9.956   1.638 -0.9208  2.2464 -1.4748
  772MOL0     H 6483   1.498  10.120   1.834  0.2826 -5.5545  2.1892
  772MOL0     H 6484   1.650  10.156   1.766  0.1729 -0.2225 -3.6783
  772MOL0     H 6485   1.274  10.066   1.681  2.9041 -0.8359  3.1614
  772MOL0     H 6486   1.192  10.190   1.326 -2.7769  1.2483 -0.1044
  772MOL0     H 6487   1.168  10.325   1.439  2.1705  1.2031  0.6327
  772MOL0     H 6488   1.059  10.025   1.473  0.5375  0.3989 -0.1191
  772MOL0     H 6489   1.069  10.136   1.601  2.2726 -1.7857  0.1178
  772MOL0     H 6490   0.945  10.298   1.504 -0.9533 -0.3810  1.3380
  772MOL0     H 6491   0.931  10.221   1.345 -1.5275 -0.7153  0.0362
  772MOL0     H 6492   0.784  10.045   1.444  1.2329  0.4023 -3.2247
  772MOL0     H 6493   0.831  10.099   1.596 -1.6798 -0.3055  0.3149
  772MOL0     H 6494   0.451  10.092   1.480  0.0464 -0.9501 -0.6418
  772MOL0     H 6495   0.262  10.001   1.571 -0.0564  1.3428 -0.3024
  772MOL0     H 6496   0.178  10.122   1.680 -4.0299 -4.0346 -0.7356
  772MOL0     H 6497   0.256   9.978   1.739 -0.0937  1.5622  1.6885
  772MOL0     H 6498   0.189   9.875   2.033 -2.3599  1.5102 -3.6653
  772MOL0     H 6499   0.062   9.810   2.213 -4.2297  0.9581  1.8003
  772MOL0     H 6500   0.068   9.851   2.468 -1.1858 -2.6860 -1.1610
  772MOL0     H 6501  -0.026   9.958   2.568  3.0211  1.2178 -1.5529
  772MOL0     H 6502  -0.120   9.699   2.423 -3.9138 -2.2731  0.3419
  772MOL0     H 6503  -0.080   9.718   2.588 -0.6225 -0.0398  0.3353
  772MOL0     H 6504  -0.309   9.873   2.453 -2.4318 -0.5073  1.8515
  772MOL0     H 6505  -0.274   9.863   2.616  2.9235 -2.6769  1.3656
  772MOL0     H 6506  -0.319   9.617   2.622  2.0233 -0.0850  0.6457
  772MOL0     H 6507  -0.338   9.615   2.443 -0.8077 -2.2615  1.6215
  772MOL0     H 6508  -0.506   9.764   2.648  1.0240 -0.6184 -0.0376
  772MOL0     H 6509  -0.523   9.783   2.469 -1.9502 -1.4565 -0.0358
  772MOL0     H 6510  -0.569   9.534   2.631 -0.5905 -1.4420 -1.9569
  772MOL0     H 6511  -0.562   9.541   2.462  0.9083 -1.3924  0.2538
  772MOL0     H 6512  -0.803   9.557   2.546  1.8491 -2.2027  0.7711
  772MOL0     H 6513  -0.766   9.684   2.428 -0.2267 -1.3077 -0.2258
  772MOL0     H 6514  -0.893   9.774   2.577  1.7967  1.4002 -0.7764
  772MOL0     H 6515  -0.751   9.859   2.606 -1.8026  1.3346  3.0381
  772MOL0     H 6516  -0.052  10.229   2.271 -2.2754 -1.3747  0.7665
  772MOL0     H 6517   0.090  10.283   2.070  2.6195 -0.8819 -3.3843
  772MOL0     H 6518   0.585  10.300   1.910 -0.2684 -2.2533  2.2805
  772MOL0     H 6519   0.725  10.324   1.722 -2.4530  2.9275  2.9307
  772MOL0     H 6520   1.372   9.349   2.344  0.2496  0.3002  0.1552
  772MOL0     H 6521   1.367   9.181   2.524  0.8811  2.5202 -0.7571
  772MOL0     H 6522   1.233   8.611   2.492 -4.9899 -4.4091  2.1472
  772MOL0     H 6523   1.250   8.411   2.604 -1.8405  0.6123 -0.6670
  772MOL0     H 6524   1.233   8.255   2.838  0.2968  2.3348  1.7718
  772MOL0     H 6525   1.344   8.212   2.712  0.8620  0.7051  0.5911
  772MOL0     H 6526   1.506   8.149   2.939  0.8074  0.5973  0.3550
  772MOL0     H 6527   1.423   8.052   2.825 -1.5551  0.8329 -0.6847
  772MOL0     H 6528   1.300   8.122   3.093  1.1679 -0.5934  0.0498
  772MOL0     H 6529   1.218   8.046   2.967  0.6782  0.9034 -1.6062
  772MOL0     H 6530   1.461   7.939   3.097 -0.7727  3.2640  0.9028
  772MOL0     H 6531   1.370   7.868   2.956  1.1447  0.1307 -0.3897
  772MOL0     H 6532   1.124   7.766   3.272  0.3164 -0.7678 -1.2632
  772MOL0     H 6533   1.515   8.591   2.901  4.3489 -3.3069 -2.6954
  772MOL0     H 6534   1.629   8.806   2.846 -0.3997 -1.7636 -1.3337
  772MOL0     H 6535   1.579   8.901   2.707 -0.6995 -0.9256 -0.3066
  772MOL0     H 6536   1.483   8.902   2.850 -0.1345  1.1264 -0.8643
  773MOL0     O 6537   1.991   3.190   5.209 -0.7034  0.2209  0.2057
  773MOL0     C 6538   2.073   3.193   5.121  0.4969 -0.3917  0.0451
  773MOL0     O 6539   2.199   3.243   5.138 -0.7691  0.3341  0.1546
  773MOL0     C 6540   2.259   3.299   5.253 -0.3655 -0.3589 -0.2163
  773MOL0     C 6541   2.204   3.311   5.378  0.7332  0.0213  0.2084
  773MOL0     C 6542   2.276   3.383   5.481 -0.2350  0.6424  1.3044
  773MOL0     C 6543   2.404   3.444   5.456 -0.4179  0.3044  0.4209
  773MOL0     O 6544   2.446   3.512   5.557 -0.9001 -0.5228  0.1678
  773MOL0     C 6545   2.592   3.519   5.566  0.3072 -0.6245 -0.3954
  773MOL0     C 6546   2.636   3.608   5.675 -0.1175  0.3136 -0.5474
  773MOL0     C 6547   2.786   3.635   5.690  0.5199  0.0228  0.5424
  773MOL0     C 6548   2.810   3.665   5.842  0.0077 -0.1142 -0.4104
  773MOL0     C 6549   2.952   3.707   5.870  0.0033  1.0201 -0.0176
  773MOL0     C 6550   3.013   3.836   5.818 -0.7654 -0.6688 -0.2053
  773MOL0     C 6551   2.914   3.952   5.836  0.3016  0.0190 -0.2064
  773MOL0     C 6552   2.915   3.999   5.989 -0.0746 -0.1111  0.4582
  773MOL0     N 6553   2.809   4.100   6.007  0.0659  0.2211 -0.3514
  773MOL0     C 6554   2.686   4.091   5.951  0.0729 -0.3779 -0.0688
  773MOL0     C 6555   2.609   4.170   6.034  0.0508 -0.3418 -0.1172
  773MOL0     C 6556   2.457   4.189   6.037  0.1320  0.1415 -0.1090
  773MOL0     C 6557   2.389   4.179   6.170 -1.1359  0.4310  0.5612
  773MOL0     C 6558   2.237   4.168   6.153 -0.2694 -0.9175  0.4197
  773MOL0     C 6559   2.170   4.100   6.270  0.8329 -0.3416  0.7010
  773MOL0     O 6560   2.244   4.112   6.389 -0.2411  0.4928  0.3863
  773MOL0     C 6561   2.210   4.207   6.474  0.4653  0.1745 -1.3489
  773MOL0     C 6562   2.088   4.282   6.483 -0.3970 -0.9316 -1.0513
  773MOL0     C 6563   2.070   4.367   6.595  0.4402  0.7364 -0.5039
  773MOL0     C 6564   1.941   4.430   6.625  0.1661 -0.0801  1.1062
  773MOL0     C 6565   2.188   4.394   6.679  0.2150 -0.2521 -0.8604
  773MOL0     C 6566   2.187   4.500   6.790  0.3945 -0.8339 -0.6458
  773MOL0     O 6567   2.300   4.501   6.868 -0.7979  0.2731  0.2605
  773MOL0     C 6568   2.336   4.615   6.948  0.7708  0.0095 -0.4615
  773MOL0     C 6569   2.429   4.711   6.904 -0.0087  0.2350 -0.3377
  773MOL0     C 6570   2.457   4.816   6.994 -0.7598  0.3772  0.0009
  773MOL0     C 6571   2.397   4.831   7.121 -1.1028 -0.1954  0.3190
  773MOL0     O 6572   2.424   4.949   7.187  0.1888 -0.1926  0.4355
  773MOL0     C 6573   2.461   4.955   7.319  0.4828  0.3080 -0.1202
  773MOL0     C 6574   2.365   5.034   7.419  0.0212  0.1407  0.4480
  773MOL0     C 6575   2.308   5.164   7.382  0.2278 -0.8236 -0.5645
  773MOL0     C 6576   2.194   5.147   7.288 -0.2204 -0.0583  0.7538
  773MOL0     C 6577   2.092   5.260   7.278  0.5052  0.0972  0.5664
  773MOL0     C 6578   2.146   5.406   7.266  0.9351 -0.6597 -0.0492
  773MOL0     C 6579   2.234   5.441   7.140 -0.3949  0.2754  0.5240
  773MOL0     C 6580   2.153   5.391   7.021  0.7513  0.9970  0.2536
  773MOL0    Cl 6581   2.001   5.463   7.003 -0.1657 -0.1014 -0.3655
  773MOL0     C 6582   2.308   4.725   7.169 -0.0539  0.3800  0.7763
  773MOL0     C 6583   2.288   4.612   7.078 -0.6967 -0.2963 -0.4313
  773MOL0     O 6584   2.089   4.570   6.808 -0.2982  0.1316 -0.6989
  773MOL0     C 6585   2.304   4.329   6.656 -0.3386  0.1681  0.4348
  773MOL0     C 6586   2.316   4.236   6.557  0.5205 -0.2251 -1.0451
  773MOL0     N 6587   2.694   4.223   6.133 -0.8559  0.8450  0.9546
  773MOL0     N 6588   2.808   4.176   6.116  0.3489  0.0076  0.4159
  773MOL0     C 6589   2.469   3.416   5.326  0.3309 -0.4198 -1.9937
  773MOL0     C 6590   2.387   3.351   5.229 -1.1454  0.7760 -0.0471
  773MOL0     C 6591   2.032   3.138   4.987 -0.1849 -0.6871 -0.1071
  773MOL0     C 6592   2.118   3.168   4.880  0.2559  0.5355  0.0311
  773MOL0     C 6593   2.076   3.148   4.747 -0.3039  0.0522 -0.7519
  773MOL0     C 6594   1.972   3.070   4.722 -0.2319 -0.2832 -0.5516
  773MOL0     O 6595   1.945   3.023   4.602  0.4903 -0.4265 -0.4006
  773MOL0     C 6596   2.000   2.890   4.580  0.5706 -0.3302 -0.1126
  773MOL0     C 6597   2.067   2.895   4.443  0.6150  0.5909  0.0026
  773MOL0     C 6598   2.142   2.762   4.421 -0.2365  0.5042 -0.1867
  773MOL0     C 6599   2.179   2.759   4.270 -0.0620 -0.4987  0.0152
  773MOL0     C 6600   2.257   2.639   4.242 -0.4798  0.2501 -0.2443
  773MOL0     C 6601   2.334   2.543   4.227  0.9513  0.8619 -0.4362
  773MOL0     C 6602   1.895   3.019   4.831  0.3068 -0.5937  0.2324
  773MOL0     C 6603   1.922   3.058   4.960 -0.5911  0.2464 -0.7534
  773MOL0     C 6604   1.836   2.985   5.067 -0.6846 -0.0876  0.2819
  773MOL0     H 6605   2.104   3.278   5.402  1.1598 -0.3829  1.5421
  773MOL0     H 6606   2.228   3.391   5.578 -2.1114 -3.6058  0.9437
  773MOL0     H 6607   2.633   3.542   5.467  3.0736 -0.9214  0.5993
  773MOL0     H 6608   2.631   3.417   5.577 -2.0734 -1.4644  1.1220
  773MOL0     H 6609   2.588   3.705   5.667 -0.2879  0.1430 -1.7067
  773MOL0     H 6610   2.605   3.553   5.765 -1.6345 -2.3398 -2.5242
  773MOL0     H 6611   2.848   3.554   5.652 -2.3594 -2.7267  1.3331
  773MOL0     H 6612   2.798   3.722   5.624 -2.1954 -1.1241 -1.6752
  773MOL0     H 6613   2.735   3.738   5.874 -1.2629 -1.4634 -0.1906
  773MOL0     H 6614   2.784   3.579   5.904  4.4099  0.3381  2.4614
  773MOL0     H 6615   3.017   3.626   5.835 -0.4167  0.4909  0.4116
  773MOL0     H 6616   2.977   3.700   5.976 -3.6811 -4.1952  0.9403
  773MOL0     H 6617   3.115   3.847   5.855  0.1533 -1.5029 -2.3505
  773MOL0     H 6618   3.025   3.817   5.711  3.7109 -4.3276  0.6250
  773MOL0     H 6619   2.813   3.932   5.801  0.8715  0.6680 -2.3731
  773MOL0     H 6620   2.941   4.036   5.772  2.0531 -1.8767 -2.0898
  773MOL0     H 6621   2.890   3.909   6.044  2.2235 -1.1359 -0.0904
  773MOL0     H 6622   3.013   4.034   6.022 -1.1529  3.2782  0.5330
  773MOL0     H 6623   2.657   4.024   5.870 -1.6526  0.3742 -0.1089
  773MOL0     H 6624   2.414   4.107   5.978 -2.1665  1.0187  0.2489
  773MOL0     H 6625   2.434   4.279   5.979 -0.6925 -1.4063 -2.3603
  773MOL0     H 6626   2.422   4.092   6.228  2.3519  2.2600  1.5743
  773MOL0     H 6627   2.419   4.264   6.231  0.4060  1.4310 -1.4739
  773MOL0     H 6628   2.197   4.268   6.132  0.6253  0.0810  3.0477
  773MOL0     H 6629   2.220   4.112   6.061  1.2546  1.8181 -1.7037
  773MOL0     H 6630   2.072   4.149   6.271  1.4489  1.0629 -1.0265
  773MOL0     H 6631   2.145   3.995   6.252 -1.5179  0.4954 -1.5744
  773MOL0     H 6632   2.007   4.261   6.413  0.5913 -0.0917 -2.5127
  773MOL0     H 6633   1.905   4.426   6.728 -5.4187  0.1805 -0.5033
  773MOL0     H 6634   1.862   4.376   6.571  2.0485 -0.8863 -0.9941
  773MOL0     H 6635   1.946   4.538   6.604 -1.0209 -0.2660 -0.3679
  773MOL0     H 6636   2.471   4.697   6.804 -1.3272 -2.7991 -0.5871
  773MOL0     H 6637   2.517   4.898   6.955  2.9576 -0.3589  3.4992
  773MOL0     H 6638   2.480   4.856   7.362 -1.7868 -0.7416 -1.3710
  773MOL0     H 6639   2.563   4.995   7.317  0.9407 -0.8378 -0.1424
  773MOL0     H 6640   2.285   4.962   7.440  0.9998 -1.2290 -0.3275
  773MOL0     H 6641   2.418   5.054   7.512 -1.5691  1.9838  1.0156
  773MOL0     H 6642   2.390   5.224   7.340 -0.1727  0.0720 -0.0998
  773MOL0     H 6643   2.270   5.211   7.473 -2.8412 -1.9553 -1.1733
  773MOL0     H 6644   2.140   5.056   7.314  0.2406 -0.4432  0.3869
  773MOL0     H 6645   2.247   5.139   7.192 -0.3549  0.5380  0.6262
  773MOL0     H 6646   2.023   5.243   7.194  3.3399 -4.3749 -1.2837
  773MOL0     H 6647   2.035   5.253   7.371  0.2889 -1.2215  0.3613
  773MOL0     H 6648   2.215   5.419   7.351 -1.2219  1.2725  1.5015
  773MOL0     H 6649   2.066   5.479   7.274 -1.3272 -3.2008  4.4615
  773MOL0     H 6650   2.330   5.389   7.130 -2.1312 -3.3685  0.9372
  773MOL0     H 6651   2.255   5.548   7.139 -0.7925  0.3833  1.5930
  773MOL0     H 6652   2.139   5.282   7.020 -0.2839  1.0750  2.1920
  773MOL0     H 6653   2.217   5.404   6.933 -0.3618 -1.8539 -1.0881
  773MOL0     H 6654   2.271   4.734   7.271  0.4451 -2.1373  1.2637
  773MOL0     H 6655   2.220   4.539   7.121 -0.4479 -1.6400 -2.2068
  773MOL0     H 6656   2.390   4.351   6.719 -0.8133  2.6128  0.3413
  773MOL0     H 6657   2.414   4.191   6.547  0.2243 -1.5967  1.4209
  773MOL0     H 6658   2.570   3.448   5.302  0.9603 -1.7875 -1.2860
  773MOL0     H 6659   2.429   3.331   5.131  2.9862 -2.7061  2.1267
  773MOL0     H 6660   2.203   3.231   4.902 -0.1940  0.6080  1.7234
  773MOL0     H 6661   2.136   3.180   4.661 -1.6533 -1.1004 -2.1625
  773MOL0     H 6662   2.077   2.860   4.652  0.9153 -1.3922 -0.8946
  773MOL0     H 6663   1.922   2.820   4.612  1.1436 -0.1957  1.6998
  773MOL0     H 6664   2.147   2.970   4.442  0.1476  1.1395  1.3787
  773MOL0     H 6665   1.990   2.910   4.367 -0.6397 -3.2281  0.2747
  773MOL0     H 6666   2.236   2.755   4.476 -0.4740 -0.8212  0.0785
  773MOL0     H 6667   2.094   2.672   4.460 -1.5984  1.6811  1.0097
  773MOL0     H 6668   2.226   2.844   4.219 -0.3673 -0.8275 -0.8390
  773MOL0     H 6669   2.084   2.754   4.216 -1.4231  0.2193  2.2054
  773MOL0     H 6670   2.397   2.458   4.209 -0.9116 -0.4519 -1.0688
  773MOL0     H 6671   1.809   2.959   4.804  0.2703 -0.4118 -0.0653
  773MOL0     H 6672   1.895   2.980   5.159  3.0524  0.7242 -1.8677
  773MOL0     H 6673   1.737   3.029   5.085  0.8159  2.4247  3.2256
  773MOL0     H 6674   1.813   2.889   5.019  0.6980 -0.8047  1.0049
  774MOL0     O 6675   9.460   7.446   2.247  0.0883  0.2856  0.3107
  774MOL0     C 6676   9.407   7.461   2.134 -0.6186 -0.4967  0.6559
  774MOL0     O 6677   9.439   7.380   2.016  0.4180  0.2100 -0.3201
  774MOL0     C 6678   9.527   7.275   2.039  0.4178  0.0311 -0.0438
  774MOL0     C 6679   9.487   7.149   2.017  0.2721 -0.5924  0.3643
  774MOL0     C 6680   9.573   7.041   2.040  0.1498  0.7353 -0.8721
  774MOL0     C 6681   9.715   7.066   2.071  0.0235  0.4610  0.8718
  774MOL0     O 6682   9.807   6.958   2.084  1.0104 -0.5767  0.5279
  774MOL0     C 6683   9.796   6.852   1.984 -0.0799  0.0104  0.4621
  774MOL0     C 6684   9.816   6.713   2.040 -1.1419 -0.2725 -0.1889
  774MOL0     C 6685   9.873   6.626   1.932 -0.4223 -0.3561  0.6690
  774MOL0     C 6686   9.842   6.486   1.969 -0.5937 -0.0682  0.1624
  774MOL0     C 6687   9.900   6.387   1.875  0.6065  0.2529  0.9380
  774MOL0     C 6688   9.844   6.250   1.911 -0.1779  0.2371  0.1525
  774MOL0     C 6689   9.942   6.154   1.843 -0.6812  0.3001 -0.8319
  774MOL0     C 6690   9.938   6.004   1.897 -0.0553 -0.6828 -0.0989
  774MOL0     N 6691  10.024   5.923   1.813 -0.0523 -0.6991  0.7382
  774MOL0     C 6692  10.013   5.913   1.676 -0.6665  0.0514 -0.5884
  774MOL0     C 6693  10.120   5.843   1.642  0.2822  0.8762  0.5185
  774MOL0     C 6694  10.148   5.832   1.492 -0.7077 -1.0515  0.5214
  774MOL0     C 6695  10.138   5.685   1.446  0.4154  0.4232  1.5899
  774MOL0     C 6696  10.249   5.645   1.340  0.8012  0.1871 -0.2938
  774MOL0     C 6697  10.252   5.718   1.203  0.2734  0.7822 -0.4597
  774MOL0     O 6698  10.362   5.679   1.117 -0.2287  0.0321  0.6376
  774MOL0     C 6699  10.332   5.583   1.024  1.0318 -1.5344 -0.1033
  774MOL0     C 6700  10.212   5.576   0.939 -0.0199 -0.4968 -0.5689
  774MOL0     C 6701  10.177   5.475   0.863 -0.6840  0.9032  0.1771
  774MOL0     C 6702  10.059   5.491   0.770 -0.9059 -0.6493  0.3343
  774MOL0     C 6703  10.264   5.354   0.857  0.3504  0.3344 -0.3640
  774MOL0     C 6704  10.242   5.231   0.764 -0.3253  0.0975 -0.3442
  774MOL0     O 6705  10.344   5.136   0.779 -0.8379 -0.4865 -0.1710
  774MOL0     C 6706  10.332   5.021   0.703 -0.0420 -0.3361 -0.4147
  774MOL0     C 6707  10.327   5.023   0.561  0.2485 -0.9821  0.4618
  774MOL0     C 6708  10.312   4.897   0.498 -0.0704  0.1003  0.1503
  774MOL0     C 6709  10.294   4.775   0.565 -0.5981  0.7964  0.1606
  774MOL0     O 6710  10.265   4.659   0.489 -0.4114 -0.3184 -0.0867
  774MOL0     C 6711  10.229   4.544   0.570 -0.6276 -0.1888  0.3815
  774MOL0     C 6712  10.232   4.427   0.472  0.2620  0.0377 -0.3988
  774MOL0     C 6713  10.352   4.420   0.375 -0.4468 -0.6634  1.1959
  774MOL0     C 6714  10.389   4.288   0.313 -0.0880 -0.3213 -0.7035
  774MOL0     C 6715  10.523   4.284   0.229 -0.3570  0.7071 -0.5427
  774MOL0     C 6716  10.531   4.175   0.123  0.1260  0.3992 -0.6161
  774MOL0     C 6717  10.645   4.162   0.020  1.1408  0.0212 -0.0400
  774MOL0     C 6718  10.583   4.137  -0.103  1.0247 -0.0622  0.0159
  774MOL0    Cl 6719  10.520   4.278  -0.195  0.5439  0.2051 -0.3392
  774MOL0     C 6720  10.333   4.777   0.699 -0.4239 -0.1341  1.0536
  774MOL0     C 6721  10.347   4.897   0.765 -0.0642 -0.0202 -0.3776
  774MOL0     O 6722  10.149   5.223   0.689 -0.3415  0.8006 -0.1739
  774MOL0     C 6723  10.379   5.358   0.944 -0.5129  0.1662 -0.3857
  774MOL0     C 6724  10.413   5.474   1.021 -0.1611 -0.4719 -0.0026
  774MOL0     N 6725  10.182   5.801   1.756  0.4851 -0.6679  0.4144
  774MOL0     N 6726  10.123   5.846   1.853  0.0727 -0.3069 -0.8900
  774MOL0     C 6727   9.750   7.197   2.110 -1.2372  0.2171 -0.3880
  774MOL0     C 6728   9.657   7.295   2.091 -0.4849 -1.1762  0.1233
  774MOL0     C 6729   9.304   7.567   2.109  0.2069  0.5912  0.1400
  774MOL0     C 6730   9.253   7.578   1.974  0.8130 -0.6061  0.1839
  774MOL0     C 6731   9.170   7.679   1.935  0.2246  0.3521 -0.6823
  774MOL0     C 6732   9.134   7.777   2.028  0.6327 -0.4087  0.8539
  774MOL0     O 6733   9.066   7.893   1.997 -0.2354  0.1838  0.6670
  774MOL0     C 6734   9.019   7.889   1.859 -0.8645  0.6839 -1.0056
  774MOL0     C 6735   8.918   8.003   1.833 -0.2748  0.2787 -0.0128
  774MOL0     C 6736   8.985   8.127   1.883  0.0620  0.4833  0.1118
  774MOL0     C 6737   8.912   8.256   1.825 -0.0886 -0.2688  0.8401
  774MOL0     C 6738   8.771   8.273   1.862 -0.2762 -0.0170  0.0418
  774MOL0     C 6739   8.656   8.281   1.874 -0.5615  1.3940 -0.3935
  774MOL0     C 6740   9.176   7.769   2.161 -0.4907 -0.2203 -0.0133
  774MOL0     C 6741   9.269   7.666   2.202 -0.3666  0.2638 -0.3566
  774MOL0     C 6742   9.326   7.682   2.339  0.3075  0.1212 -1.4904
  774MOL0     H 6743   9.379   7.135   2.008  0.1285  0.3439  0.4946
  774MOL0     H 6744   9.519   6.948   2.033 -0.9019  0.7390  3.9235
  774MOL0     H 6745   9.875   6.874   1.912  1.0840 -1.5345  1.2187
  774MOL0     H 6746   9.706   6.851   1.921 -0.1654 -0.5070  0.5876
  774MOL0     H 6747   9.886   6.717   2.124  0.8294 -1.3624 -1.7028
  774MOL0     H 6748   9.718   6.681   2.077 -2.3754  1.8947 -1.3680
  774MOL0     H 6749   9.827   6.644   1.834  0.1601 -1.2603  0.2205
  774MOL0     H 6750   9.981   6.642   1.924 -0.0591 -1.0520  3.2254
  774MOL0     H 6751   9.887   6.466   2.066 -0.0836  1.1372  0.2012
  774MOL0     H 6752   9.733   6.477   1.979 -0.7992 -0.7176 -2.0290
  774MOL0     H 6753  10.008   6.400   1.883  1.2090 -1.8735 -2.2880
  774MOL0     H 6754   9.869   6.408   1.772 -2.3870 -4.5748  0.5678
  774MOL0     H 6755   9.846   6.239   2.020 -2.3880  2.9496  0.5741
  774MOL0     H 6756   9.741   6.242   1.874 -0.4479  1.0361  0.7174
  774MOL0     H 6757  10.045   6.187   1.863 -0.6302  0.9446 -2.0781
  774MOL0     H 6758   9.918   6.168   1.738  0.4500  0.7689 -1.0420
  774MOL0     H 6759   9.977   6.011   1.999 -2.6884  5.5071  0.9155
  774MOL0     H 6760   9.833   5.971   1.904 -0.5987  0.5040 -1.9793
  774MOL0     H 6761   9.939   5.969   1.619 -1.4488  0.5131  0.8147
  774MOL0     H 6762  10.244   5.863   1.449 -1.2601 -2.4532 -1.8437
  774MOL0     H 6763  10.086   5.896   1.429  0.4927 -0.1799  0.1794
  774MOL0     H 6764  10.146   5.618   1.531  1.3818  0.8974  1.8817
  774MOL0     H 6765  10.038   5.667   1.404  2.2257 -0.5395 -2.8568
  774MOL0     H 6766  10.348   5.650   1.387  0.5516 -0.7239  0.3772
  774MOL0     H 6767  10.237   5.537   1.331 -1.2510  0.1768  1.6369
  774MOL0     H 6768  10.155   5.697   1.158  0.2632 -2.6708  0.8582
  774MOL0     H 6769  10.268   5.824   1.228 -2.4780  1.8594 -2.6851
  774MOL0     H 6770  10.131   5.648   0.941  1.6052  1.4260  1.8580
  774MOL0     H 6771   9.975   5.438   0.817  0.2569 -2.5961  0.3084
  774MOL0     H 6772  10.080   5.470   0.665 -3.7510 -0.1331 -0.4274
  774MOL0     H 6773  10.032   5.597   0.773  2.9578  0.4764  0.4396
  774MOL0     H 6774  10.312   5.113   0.503  0.1334 -1.1884  0.1650
  774MOL0     H 6775  10.308   4.877   0.391 -1.5568 -0.7224  0.3344
  774MOL0     H 6776  10.311   4.516   0.637  0.4740 -0.5727 -1.0674
  774MOL0     H 6777  10.131   4.560   0.617  0.3871 -0.1861  2.6389
  774MOL0     H 6778  10.227   4.337   0.534 -1.5740 -0.6121 -1.4130
  774MOL0     H 6779  10.145   4.422   0.406  0.3497 -1.1621 -0.4460
  774MOL0     H 6780  10.440   4.465   0.421 -1.1495  2.8776 -0.5548
  774MOL0     H 6781  10.343   4.491   0.292  3.0925 -0.7241  0.6021
  774MOL0     H 6782  10.309   4.254   0.245  1.2526 -0.2858 -2.3647
  774MOL0     H 6783  10.397   4.219   0.397 -1.3561  0.6161  0.2266
  774MOL0     H 6784  10.546   4.376   0.174  2.3598  0.8289  0.6009
  774MOL0     H 6785  10.608   4.266   0.296  0.2282  2.1958 -0.8336
  774MOL0     H 6786  10.442   4.199   0.065  2.9949  1.1604 -5.1865
  774MOL0     H 6787  10.510   4.080   0.172 -1.4162 -0.5761 -3.0285
  774MOL0     H 6788  10.704   4.075   0.048  0.2106 -0.7704 -0.4605
  774MOL0     H 6789  10.704   4.254   0.018  0.2784  0.6448 -3.0846
  774MOL0     H 6790  10.499   4.067  -0.099  0.6824  0.0971 -2.7649
  774MOL0     H 6791  10.662   4.086  -0.158  1.6377  1.9417 -1.0477
  774MOL0     H 6792  10.361   4.689   0.756  2.2843 -0.7841 -1.0502
  774MOL0     H 6793  10.370   4.895   0.871 -3.5741  1.6810  0.5774
  774MOL0     H 6794  10.435   5.265   0.948 -1.1739 -0.1843  0.9948
  774MOL0     H 6795  10.507   5.467   1.074  0.4343 -0.2270 -1.0000
  774MOL0     H 6796   9.855   7.204   2.139 -1.2017 -4.0356  1.2409
  774MOL0     H 6797   9.695   7.395   2.111 -0.8889 -1.1375  0.7403
  774MOL0     H 6798   9.283   7.512   1.893  1.1284 -0.7952  0.4535
  774MOL0     H 6799   9.131   7.670   1.834 -2.9928 -1.4722  0.5577
  774MOL0     H 6800   9.108   7.898   1.797  1.4367 -1.5940  1.6851
  774MOL0     H 6801   8.963   7.797   1.840  0.2510 -0.1043 -0.5596
  774MOL0     H 6802   8.822   7.979   1.880 -2.0547  2.0190 -2.5092
  774MOL0     H 6803   8.903   7.999   1.725  2.6198 -2.9590 -0.4868
  774MOL0     H 6804   8.980   8.135   1.992  0.2033  1.0509  0.0819
  774MOL0     H 6805   9.093   8.121   1.867 -0.1856 -2.2511 -0.9532
  774MOL0     H 6806   8.930   8.260   1.718 -3.2160  0.3264  0.2401
  774MOL0     H 6807   8.962   8.345   1.867 -3.4028  3.0855 -1.6729
  774MOL0     H 6808   8.549   8.284   1.884 -0.7151 -0.5378 -1.0998
  774MOL0     H 6809   9.165   7.857   2.223  3.3087  2.0816 -2.2806
  774MOL0     H 6810   9.266   7.752   2.397 -1.6588 -1.1677 -1.8793
  774MOL0     H 6811   9.316   7.595   2.404 -2.0190  0.7122 -0.9693
  774MOL0     H 6812   9.430   7.718   2.334  0.5115 -0.1695  0.1233
  775MOL0     O 6813   3.340   8.640   1.836 -0.5845  0.5214  0.4169
  775MOL0     C 6814   3.401   8.533   1.833  0.6571 -0.4331 -0.8719
  775MOL0     O 6815   3.447   8.468   1.722  0.2928 -0.2868  0.6893
  775MOL0     C 6816   3.455   8.541   1.602  0.2217  0.4394 -1.2674
  775MOL0     C 6817   3.569   8.538   1.530 -0.1429  0.1490  0.2055
  775MOL0     C 6818   3.570   8.617   1.418 -0.2378 -1.2063  0.0698
  775MOL0     C 6819   3.460   8.683   1.364 -0.3081  0.0679 -0.8669
  775MOL0     O 6820   3.475   8.762   1.258 -0.2537 -0.0518  0.7820
  775MOL0     C 6821   3.371   8.844   1.216  1.7379 -0.5366  0.8065
  775MOL0     C 6822   3.427   8.928   1.108 -0.3115 -0.9860  0.3966
  775MOL0     C 6823   3.476   8.847   0.989  1.2362  0.6895  0.9405
  775MOL0     C 6824   3.630   8.831   1.001  1.1397 -0.6192  0.5564
  775MOL0     C 6825   3.716   8.782   0.884 -0.3726 -0.0637 -0.2231
  775MOL0     C 6826   3.679   8.655   0.817  0.4332  0.3408  0.4215
  775MOL0     C 6827   3.697   8.535   0.915  0.0433 -0.1408 -0.9022
  775MOL0     C 6828   3.838   8.479   0.924 -0.0538 -0.2875 -0.5928
  775MOL0     N 6829   3.862   8.367   0.838  0.6947  0.0480 -0.1041
  775MOL0     C 6830   3.955   8.368   0.741 -0.2780  0.5858  0.1861
  775MOL0     C 6831   3.953   8.241   0.686 -0.3329 -1.5642 -0.2670
  775MOL0     C 6832   4.060   8.188   0.589 -0.4762 -0.5797 -0.7418
  775MOL0     C 6833   4.059   8.035   0.574  0.3047  0.4572  0.4099
  775MOL0     C 6834   4.098   7.951   0.699 -0.5981 -0.4461 -0.5149
  775MOL0     C 6835   4.096   7.801   0.679 -0.4104 -0.2482  0.9250
  775MOL0     O 6836   4.217   7.753   0.617 -0.0903  0.0702  0.2466
  775MOL0     C 6837   4.288   7.680   0.713 -1.5784  0.3856  0.6643
  775MOL0     C 6838   4.339   7.734   0.833  0.0764 -1.1888 -0.5373
  775MOL0     C 6839   4.420   7.663   0.921 -0.0481  0.5219 -1.3569
  775MOL0     C 6840   4.463   7.730   1.050  0.2556  0.7576  0.0548
  775MOL0     C 6841   4.459   7.532   0.892  0.0995  0.8591  0.5666
  775MOL0     C 6842   4.546   7.451   0.984  0.1333  1.0290  0.7255
  775MOL0     O 6843   4.615   7.358   0.906 -0.0916  0.7348  0.0697
  775MOL0     C 6844   4.688   7.253   0.952  0.4378  0.0718  1.2391
  775MOL0     C 6845   4.768   7.185   0.867  0.4263  0.3734  0.5851
  775MOL0     C 6846   4.841   7.074   0.897  1.7953 -0.5519 -0.6528
  775MOL0     C 6847   4.840   7.028   1.032  1.0133 -0.3143  0.5625
  775MOL0     O 6848   4.904   6.920   1.072 -0.1581 -0.1377 -0.0467
  775MOL0     C 6849   5.032   6.882   1.025 -0.5731 -0.0600  0.1126
  775MOL0     C 6850   5.038   6.733   1.013 -1.0238 -0.0222  0.7270
  775MOL0     C 6851   5.048   6.665   1.144 -0.5302  0.1272  0.6749
  775MOL0     C 6852   5.072   6.511   1.136 -0.5137  0.4439 -0.0472
  775MOL0     C 6853   5.103   6.446   1.281 -0.1598  0.0263  0.6308
  775MOL0     C 6854   5.231   6.502   1.363  1.0313 -0.0238  1.0932
  775MOL0     C 6855   5.260   6.434   1.495 -0.1502 -1.0385  0.4848
  775MOL0     C 6856   5.156   6.433   1.590  0.1876  0.1819 -0.1105
  775MOL0    Cl 6857   5.215   6.323   1.717  0.0265 -0.2667  0.2194
  775MOL0     C 6858   4.758   7.099   1.123  0.4174  0.5852 -0.4388
  775MOL0     C 6859   4.680   7.206   1.082 -0.5412 -0.5067 -0.6337
  775MOL0     O 6860   4.547   7.460   1.107 -0.6508  0.4253  0.2970
  775MOL0     C 6861   4.408   7.471   0.775  0.5505 -0.2022  0.0945
  775MOL0     C 6862   4.332   7.546   0.682 -0.1953 -0.6492  0.0234
  775MOL0     N 6863   3.851   8.175   0.740 -0.8248 -0.4097  0.3845
  775MOL0     N 6864   3.793   8.251   0.830 -0.0359 -0.5495 -0.4196
  775MOL0     C 6865   3.343   8.667   1.431  1.1157  0.5435 -0.3171
  775MOL0     C 6866   3.338   8.597   1.549 -1.6031  0.2436  0.0165
  775MOL0     C 6867   3.429   8.452   1.960 -0.2970 -0.5265  1.0908
  775MOL0     C 6868   3.393   8.320   1.980  0.1620  0.7306 -0.1805
  775MOL0     C 6869   3.415   8.254   2.102 -0.1451 -0.5116  0.9723
  775MOL0     C 6870   3.472   8.330   2.217 -0.3514  0.8701 -1.0328
  775MOL0     O 6871   3.494   8.270   2.343 -0.3673 -0.5972 -0.0169
  775MOL0     C 6872   3.439   8.141   2.372  0.4531 -0.3112  0.4522
  775MOL0     C 6873   3.551   8.036   2.344 -1.0758  0.2029 -0.7914
  775MOL0     C 6874   3.524   7.901   2.416 -2.0377 -0.5023  1.1304
  775MOL0     C 6875   3.395   7.836   2.367  0.0068  0.1703  0.5650
  775MOL0     C 6876   3.398   7.782   2.230 -1.4123 -0.4107  0.3004
  775MOL0     C 6877   3.402   7.739   2.121 -0.6870 -0.3724 -0.1470
  775MOL0     C 6878   3.503   8.456   2.192  0.2071 -0.5123 -0.2738
  775MOL0     C 6879   3.479   8.523   2.066 -0.6080  1.2437 -0.4530
  775MOL0     C 6880   3.507   8.666   2.058 -0.4467 -0.6512 -0.2195
  775MOL0     H 6881   3.662   8.495   1.566  0.2113 -1.9699 -2.7936
  775MOL0     H 6882   3.669   8.625   1.374  0.0470 -2.5808  0.3898
  775MOL0     H 6883   3.333   8.900   1.302  0.8544 -0.4534  0.3655
  775MOL0     H 6884   3.296   8.780   1.170  1.8432 -1.3078  1.6796
  775MOL0     H 6885   3.351   9.004   1.087 -0.0740 -0.0824  2.5345
  775MOL0     H 6886   3.502   8.996   1.150  1.0028 -0.2589 -2.8544
  775MOL0     H 6887   3.419   8.755   0.985 -2.3032  2.7452 -2.5439
  775MOL0     H 6888   3.451   8.901   0.898  1.7280  1.3427  1.1800
  775MOL0     H 6889   3.663   8.932   1.028 -0.6267  0.7039 -1.8400
  775MOL0     H 6890   3.656   8.769   1.087  0.5224 -2.7191 -0.6903
  775MOL0     H 6891   3.820   8.764   0.912 -1.3240 -2.1564  2.3932
  775MOL0     H 6892   3.701   8.860   0.808  0.4899 -0.3008 -0.6500
  775MOL0     H 6893   3.573   8.672   0.796  0.0191 -0.6370  1.5962
  775MOL0     H 6894   3.727   8.632   0.722  1.5251  0.2469  0.9765
  775MOL0     H 6895   3.622   8.462   0.881  0.4326 -0.3236 -1.3757
  775MOL0     H 6896   3.659   8.567   1.012 -3.1340  2.7109 -2.8325
  775MOL0     H 6897   3.906   8.564   0.911 -2.0144  1.7579  1.4986
  775MOL0     H 6898   3.859   8.436   1.021  3.5786  1.8742 -0.2489
  775MOL0     H 6899   4.014   8.454   0.711  0.4203  0.0448 -0.0187
  775MOL0     H 6900   4.156   8.227   0.624  0.0735 -2.9175  0.5154
  775MOL0     H 6901   4.043   8.246   0.498 -1.1080  0.3767 -0.0406
  775MOL0     H 6902   3.964   7.999   0.534  2.3164 -2.9668 -1.8444
  775MOL0     H 6903   4.137   8.003   0.505 -0.6753  1.6964 -1.3512
  775MOL0     H 6904   4.198   7.978   0.734 -0.2608 -3.2621  1.0315
  775MOL0     H 6905   4.029   7.962   0.783 -2.7647  0.3966 -2.2968
  775MOL0     H 6906   4.088   7.758   0.779  2.3823 -0.2066  1.2584
  775MOL0     H 6907   4.006   7.780   0.621 -0.2012 -2.5303  1.3563
  775MOL0     H 6908   4.319   7.838   0.855  2.7338 -1.1703  2.5391
  775MOL0     H 6909   4.566   7.706   1.078  1.0760  2.5502 -1.1848
  775MOL0     H 6910   4.395   7.719   1.134  4.8326 -0.8449  3.9843
  775MOL0     H 6911   4.464   7.838   1.031  2.1822  0.6390 -0.8680
  775MOL0     H 6912   4.770   7.197   0.759 -2.1498 -2.6783  0.0371
  775MOL0     H 6913   4.912   7.041   0.821  0.0809  1.8908 -3.5713
  775MOL0     H 6914   5.070   6.933   0.936  0.4639 -0.9103  0.0439
  775MOL0     H 6915   5.106   6.923   1.094 -0.4823 -0.1916  0.0932
  775MOL0     H 6916   4.955   6.693   0.953  0.5122 -0.6300 -1.1200
  775MOL0     H 6917   5.123   6.716   0.947 -1.2001 -0.1934  0.5383
  775MOL0     H 6918   4.955   6.689   1.197  0.1370  3.0430  0.6653
  775MOL0     H 6919   5.125   6.712   1.205 -1.8177  0.3636  2.1841
  775MOL0     H 6920   5.162   6.505   1.074  0.7468 -0.6971  1.8054
  775MOL0     H 6921   4.984   6.470   1.086 -2.6229  2.6591  1.5735
  775MOL0     H 6922   5.011   6.452   1.339  0.3333 -5.8800  2.6610
  775MOL0     H 6923   5.108   6.338   1.265 -2.6576 -0.8693  4.4960
  775MOL0     H 6924   5.225   6.612   1.365  1.7918  0.5339 -5.5249
  775MOL0     H 6925   5.313   6.480   1.294  0.1182  0.1379 -0.0716
  775MOL0     H 6926   5.346   6.490   1.533  2.3950 -3.4165 -1.4105
  775MOL0     H 6927   5.301   6.334   1.478 -0.6756 -1.1912  0.0751
  775MOL0     H 6928   5.071   6.383   1.543 -0.4997  1.6409 -0.4606
  775MOL0     H 6929   5.126   6.532   1.624 -3.2182 -0.9546  0.5771
  775MOL0     H 6930   4.758   7.061   1.225  0.9695 -1.5143 -1.1678
  775MOL0     H 6931   4.610   7.254   1.150 -0.8658 -0.5735 -0.9202
  775MOL0     H 6932   4.432   7.370   0.742  0.9605  0.8696 -3.1467
  775MOL0     H 6933   4.291   7.499   0.593  1.6479 -1.6231 -0.3680
  775MOL0     H 6934   3.246   8.697   1.393  0.1499 -0.9278  0.8885
  775MOL0     H 6935   3.240   8.576   1.593 -2.0928 -0.1256 -1.2061
  775MOL0     H 6936   3.351   8.272   1.891  1.0126  0.3806 -0.3990
  775MOL0     H 6937   3.384   8.150   2.104 -3.0828  0.1587 -1.7196
  775MOL0     H 6938   3.409   8.137   2.477 -0.1056  0.0031  0.3088
  775MOL0     H 6939   3.345   8.134   2.318  0.2221  3.4685  0.0720
  775MOL0     H 6940   3.648   8.072   2.381 -1.8798  1.1352  0.4814
  775MOL0     H 6941   3.574   8.027   2.238  4.8977 -1.7449  0.2224
  775MOL0     H 6942   3.610   7.840   2.388  0.3234  3.2440 -0.7198
  775MOL0     H 6943   3.508   7.924   2.521 -0.2883 -2.7866  1.9735
  775MOL0     H 6944   3.320   7.916   2.373 -3.6851 -2.5941 -3.1185
  775MOL0     H 6945   3.355   7.760   2.435  0.6909  0.3970  1.2373
  775MOL0     H 6946   3.389   7.704   2.021  0.2990  0.8160 -0.7218
  775MOL0     H 6947   3.558   8.518   2.262  3.1797  0.0674 -2.8719
  775MOL0     H 6948   3.566   8.695   1.972  0.2732  0.5485  0.6554
  775MOL0     H 6949   3.419   8.731   2.062  2.3151  3.4851 -0.4310
  775MOL0     H 6950   3.572   8.689   2.143 -1.1500 -0.2423  0.2155
  776MOL0     O 6951  10.866   8.237   4.895  0.1077 -1.0887  0.2539
  776MOL0     C 6952  10.974   8.288   4.866  0.1103  0.1609  0.6353
  776MOL0     O 6953  11.083   8.259   4.925 -0.6304  0.3749 -0.1319
  776MOL0     C 6954  11.108   8.163   5.016  0.4166 -0.3816 -0.9180
  776MOL0     C 6955  11.207   8.176   5.108 -0.7836 -0.2818 -0.7957
  776MOL0     C 6956  11.249   8.075   5.199 -0.1271  0.4865 -0.1125
  776MOL0     C 6957  11.187   7.954   5.202 -0.3946 -1.2372  0.1966
  776MOL0     O 6958  11.209   7.854   5.291 -0.2990  0.1282  0.3659
  776MOL0     C 6959  11.306   7.877   5.393 -0.9029  0.7612  0.3760
  776MOL0     C 6960  11.346   7.750   5.453  0.4299  0.9157 -0.0753
  776MOL0     C 6961  11.410   7.766   5.592 -0.2250  0.7079 -0.3293
  776MOL0     C 6962  11.304   7.786   5.708  0.1667 -0.6093 -0.4159
  776MOL0     C 6963  11.285   7.647   5.788 -1.0466  0.3194 -0.3679
  776MOL0     C 6964  11.414   7.609   5.863  0.2637 -0.6856 -0.3680
  776MOL0     C 6965  11.399   7.494   5.966  0.2921 -0.6901  0.4777
  776MOL0     C 6966  11.518   7.465   6.037 -0.2632 -0.1736 -0.1387
  776MOL0     N 6967  11.515   7.342   6.119  1.0041  0.6328 -0.8438
  776MOL0     C 6968  11.517   7.216   6.075  0.0457 -0.7383 -1.2680
  776MOL0     C 6969  11.483   7.135   6.177  0.3979 -0.9503 -0.0914
  776MOL0     C 6970  11.456   6.985   6.178  0.3530 -1.2541 -0.4963
  776MOL0     C 6971  11.469   6.938   6.316  0.7720  0.7320 -0.1967
  776MOL0     C 6972  11.461   6.781   6.351 -0.2645  1.1571 -0.3704
  776MOL0     C 6973  11.485   6.753   6.501  0.0371  0.3517 -0.2961
  776MOL0     O 6974  11.513   6.615   6.520 -0.0813  1.0794  0.0464
  776MOL0     C 6975  11.516   6.564   6.645  0.1646  0.1352  0.0435
  776MOL0     C 6976  11.505   6.429   6.664 -0.4019 -0.2998 -0.1229
  776MOL0     C 6977  11.529   6.364   6.787  0.2254 -0.6572 -0.2871
  776MOL0     C 6978  11.518   6.218   6.792 -0.7544  0.3003 -0.3851
  776MOL0     C 6979  11.570   6.447   6.897 -0.2057 -0.7800 -0.1454
  776MOL0     C 6980  11.586   6.390   7.030  0.7456  0.1204 -0.3606
  776MOL0     O 6981  11.713   6.401   7.093 -0.1084  0.8207  0.2710
  776MOL0     C 6982  11.738   6.355   7.225  1.1587 -0.8057 -0.0221
  776MOL0     C 6983  11.833   6.261   7.246  0.7215 -0.6482  0.6456
  776MOL0     C 6984  11.862   6.219   7.382  0.0544  0.2336  1.0151
  776MOL0     C 6985  11.790   6.275   7.495  0.3330  0.4967  0.6049
  776MOL0     O 6986  11.809   6.256   7.632 -0.2912  0.2297  0.4225
  776MOL0     C 6987  11.928   6.198   7.669 -0.1602 -0.1676 -0.4183
  776MOL0     C 6988  11.925   6.225   7.814 -0.4194 -0.1341  0.6117
  776MOL0     C 6989  12.056   6.164   7.878 -0.0023  0.0189 -0.5897
  776MOL0     C 6990  12.180   6.258   7.862  0.4890 -0.1639 -0.8263
  776MOL0     C 6991  12.302   6.177   7.912 -0.3119 -0.4813  1.1039
  776MOL0     C 6992  12.428   6.241   7.862 -0.8694 -0.2332  0.0079
  776MOL0     C 6993  12.552   6.174   7.925 -0.1728 -0.4179 -0.0748
  776MOL0     C 6994  12.609   6.063   7.838  0.1697 -0.4198  0.5333
  776MOL0    Cl 6995  12.508   5.920   7.833 -0.0224  0.3028  0.5224
  776MOL0     C 6996  11.680   6.370   7.468 -0.6068  0.5322  0.0816
  776MOL0     C 6997  11.663   6.413   7.333  0.2953 -0.5334  0.5586
  776MOL0     O 6998  11.487   6.338   7.085 -0.1377 -1.4407 -0.2095
  776MOL0     C 6999  11.596   6.583   6.877  1.2152  0.5230 -0.6144
  776MOL0     C 7000  11.569   6.636   6.750  0.3128  0.7206 -0.8686
  776MOL0     N 7001  11.441   7.224   6.277  0.6176  0.9363  0.2068
  776MOL0     N 7002  11.465   7.342   6.247 -0.0054 -0.2792  1.0698
  776MOL0     C 7003  11.084   7.942   5.110 -0.2571 -0.8784  0.3009
  776MOL0     C 7004  11.051   8.042   5.015 -0.3084  0.4385 -0.2351
  776MOL0     C 7005  10.981   8.384   4.757  0.5993  0.3765 -0.7349
  776MOL0     C 7006  10.855   8.418   4.700 -0.7202  0.7928 -0.9135
  776MOL0     C 7007  10.844   8.515   4.609  0.5259  0.9065 -0.4486
  776MOL0     C 7008  10.951   8.583   4.566 -0.8420  0.4771 -0.0807
  776MOL0     O 7009  10.930   8.679   4.475  0.9531 -0.3651 -0.6742
  776MOL0     C 7010  10.930   8.809   4.522 -0.3693 -0.3728  0.6169
  776MOL0     C 7011  10.831   8.896   4.447 -1.2356 -0.6894 -0.3741
  776MOL0     C 7012  10.855   8.895   4.301 -0.9538  0.4760  0.3794
  776MOL0     C 7013  10.823   9.033   4.234  1.0495  0.0870  0.0669
  776MOL0     C 7014  10.679   9.044   4.237  0.2232 -0.1618 -0.1465
  776MOL0     C 7015  10.556   9.036   4.255  0.7797  0.2292 -0.7971
  776MOL0     C 7016  11.078   8.553   4.611 -0.4993 -0.0159 -0.6450
  776MOL0     C 7017  11.097   8.442   4.706  0.2885  0.7234 -1.0776
  776MOL0     C 7018  11.240   8.421   4.745 -0.1698  0.4365  0.0150
  776MOL0     H 7019  11.258   8.271   5.096 -0.2800 -0.3226  0.7720
  776MOL0     H 7020  11.334   8.096   5.263  0.5958 -1.5001 -0.3529
  776MOL0     H 7021  11.266   7.951   5.463 -1.5932  0.9470 -0.2009
  776MOL0     H 7022  11.400   7.918   5.353 -1.5544  2.6168  0.6789
  776MOL0     H 7023  11.261   7.683   5.466  1.0081  0.6523  3.0129
  776MOL0     H 7024  11.419   7.712   5.380  1.3426  0.6490  0.9444
  776MOL0     H 7025  11.462   7.671   5.607 -0.6001  0.8991  2.8912
  776MOL0     H 7026  11.486   7.845   5.590 -1.3987  1.9688  1.4045
  776MOL0     H 7027  11.343   7.856   5.783  1.1466 -2.6165  1.0395
  776MOL0     H 7028  11.208   7.824   5.669  0.8259  0.3139 -1.1954
  776MOL0     H 7029  11.251   7.568   5.721 -1.5843 -0.3987  0.7127
  776MOL0     H 7030  11.203   7.652   5.861  2.7496 -0.8051  4.4894
  776MOL0     H 7031  11.495   7.582   5.794 -0.8663 -0.3239 -1.9140
  776MOL0     H 7032  11.446   7.700   5.913 -0.1197 -1.3041  1.0390
  776MOL0     H 7033  11.374   7.413   5.897 -0.2941 -0.5110  0.4732
  776MOL0     H 7034  11.313   7.520   6.028 -0.3536  0.3219 -0.7996
  776MOL0     H 7035  11.592   7.449   5.959  3.9302  1.8074  2.9721
  776MOL0     H 7036  11.563   7.552   6.087 -1.7355  0.6802 -0.2412
  776MOL0     H 7037  11.538   7.174   5.976  1.2983 -0.8427 -0.9837
  776MOL0     H 7038  11.516   6.932   6.102  1.4724  0.3929 -0.8233
  776MOL0     H 7039  11.351   6.964   6.159  0.1086 -2.7416  2.0405
  776MOL0     H 7040  11.572   6.965   6.341  1.3778 -0.7239 -1.0019
  776MOL0     H 7041  11.400   7.001   6.374 -2.5547 -0.5930 -2.3703
  776MOL0     H 7042  11.363   6.743   6.319  1.3022 -1.8013 -2.0351
  776MOL0     H 7043  11.545   6.736   6.298 -0.8818 -1.0607  0.4389
  776MOL0     H 7044  11.567   6.812   6.543  2.3361 -2.1470 -0.9874
  776MOL0     H 7045  11.395   6.792   6.550  1.0369  2.3809  0.0188
  776MOL0     H 7046  11.487   6.362   6.580  1.9810 -0.7841 -0.3059
  776MOL0     H 7047  11.414   6.199   6.822 -0.6077  2.0323  1.3503
  776MOL0     H 7048  11.590   6.169   6.858  0.5422  3.4480  0.7175
  776MOL0     H 7049  11.525   6.165   6.696 -2.0239  0.0601 -0.3666
  776MOL0     H 7050  11.882   6.210   7.164  4.5161  1.6306  1.3024
  776MOL0     H 7051  11.945   6.149   7.391 -0.8303 -1.3196 -1.6341
  776MOL0     H 7052  11.918   6.091   7.646  2.3036 -0.3863 -0.7686
  776MOL0     H 7053  12.016   6.236   7.615  0.4681 -1.8905 -0.6839
  776MOL0     H 7054  11.891   6.327   7.837 -2.9989 -1.0136  1.0057
  776MOL0     H 7055  11.841   6.159   7.837  0.2606 -1.1038  0.3517
  776MOL0     H 7056  12.079   6.076   7.817  0.0245 -0.7087  0.4542
  776MOL0     H 7057  12.030   6.144   7.982 -3.9963 -1.3242 -1.6451
  776MOL0     H 7058  12.166   6.348   7.922 -0.3740  1.0751 -2.7797
  776MOL0     H 7059  12.187   6.300   7.761  2.3592  3.4108  0.6093
  776MOL0     H 7060  12.305   6.166   8.021  0.1762 -1.6041  0.9884
  776MOL0     H 7061  12.287   6.074   7.878 -1.1211  0.1326 -0.4792
  776MOL0     H 7062  12.427   6.346   7.891  1.6687 -0.6319  1.7883
  776MOL0     H 7063  12.424   6.251   7.753 -1.4198  2.0472  0.1949
  776MOL0     H 7064  12.537   6.135   8.026 -1.4012 -2.8771 -1.1319
  776MOL0     H 7065  12.626   6.254   7.928 -2.5270  2.1217 -2.9045
  776MOL0     H 7066  12.706   6.039   7.882 -0.8278 -2.4020  1.7694
  776MOL0     H 7067  12.622   6.092   7.733 -0.2904  2.1868  1.1365
  776MOL0     H 7068  11.626   6.407   7.554  1.3048 -0.2756  1.7145
  776MOL0     H 7069  11.581   6.480   7.313  1.5874  0.8047 -0.5429
  776MOL0     H 7070  11.619   6.641   6.966 -0.6858 -0.2145  0.4091
  776MOL0     H 7071  11.585   6.743   6.736 -0.8779  0.8048 -1.6666
  776MOL0     H 7072  11.037   7.846   5.095 -0.7881 -0.3972 -1.4314
  776MOL0     H 7073  10.979   8.013   4.939 -0.0124  0.4637 -0.5272
  776MOL0     H 7074  10.765   8.386   4.752  1.8126 -2.5004  1.9784
  776MOL0     H 7075  10.746   8.547   4.575 -0.7372 -1.0252  1.1299
  776MOL0     H 7076  10.910   8.812   4.630  0.1475  0.2514  0.7012
  776MOL0     H 7077  11.034   8.838   4.503 -0.0396 -0.7313  1.8003
  776MOL0     H 7078  10.827   8.999   4.483  1.5267 -1.4337  2.4734
  776MOL0     H 7079  10.729   8.860   4.464 -2.1739  1.8675 -0.1855
  776MOL0     H 7080  10.958   8.872   4.273 -0.5952  0.4261  1.6770
  776MOL0     H 7081  10.792   8.817   4.258  0.7642  0.5354 -2.5029
  776MOL0     H 7082  10.859   9.032   4.131 -1.5527 -0.4233 -0.9115
  776MOL0     H 7083  10.859   9.120   4.290 -4.6885  0.9649  3.2820
  776MOL0     H 7084  10.450   9.039   4.271  0.2225 -2.4009 -3.2095
  776MOL0     H 7085  11.154   8.604   4.554 -0.4607 -2.1346 -2.6131
  776MOL0     H 7086  11.298   8.512   4.724 -0.1444 -0.0367 -2.2537
  776MOL0     H 7087  11.262   8.409   4.851  1.5061  5.5748  0.5533
  776MOL0     H 7088  11.269   8.329   4.695 -1.0066  0.0032  0.3147
  777MOL0     O 7089   8.974   8.657   9.832 -0.1011 -0.3205  0.8478
  777MOL0     C 7090   8.863   8.616   9.794 -1.1425 -0.3854  0.0391
  777MOL0     O 7091   8.745   8.694   9.796  0.2248  0.5115  0.4971
  777MOL0     C 7092   8.751   8.830   9.813 -0.0203 -1.2752 -0.2393
  777MOL0     C 7093   8.838   8.913   9.754 -0.0507  0.5588  0.9550
  777MOL0     C 7094   8.850   9.053   9.768  0.1145 -0.5739 -0.1759
  777MOL0     C 7095   8.749   9.118   9.849  0.4562  0.0905  0.7083
  777MOL0     O 7096   8.756   9.245   9.883  0.7133 -0.3132  0.2335
  777MOL0     C 7097   8.826   9.332   9.791  0.3010  0.1542  0.4297
  777MOL0     C 7098   8.758   9.461   9.800 -0.0311  0.3442  0.9628
  777MOL0     C 7099   8.837   9.574   9.725  0.1460 -0.0441 -0.9486
  777MOL0     C 7100   8.756   9.706   9.709 -0.0934 -0.6752 -0.7384
  777MOL0     C 7101   8.756   9.783   9.838 -0.7310 -0.1545 -0.4912
  777MOL0     C 7102   8.700   9.927   9.826 -0.3492  1.1539 -0.1213
  777MOL0     C 7103   8.800  10.034   9.761  1.1315  0.2937 -0.5743
  777MOL0     C 7104   8.932  10.044   9.842  0.3150  0.6367  0.4351
  777MOL0     N 7105   9.006  10.157   9.790  0.5001 -0.5410  0.4304
  777MOL0     C 7106   9.079  10.147   9.670 -0.7855 -0.5051 -0.7514
  777MOL0     C 7107   9.115  10.276   9.653 -0.0552 -0.0774 -0.5205
  777MOL0     C 7108   9.205  10.337   9.556  0.0618  0.4733  0.2715
  777MOL0     C 7109   9.126  10.449   9.482 -0.7746  0.2084  0.6094
  777MOL0     C 7110   9.192  10.478   9.346  1.1730 -0.6473 -0.0855
  777MOL0     C 7111   9.330  10.529   9.360  0.4485  0.4662  0.4071
  777MOL0     O 7112   9.337  10.647   9.439  0.6961  0.5122  0.7387
  777MOL0     C 7113   9.425  10.646   9.543 -0.2197  0.0229  0.6054
  777MOL0     C 7114   9.546  10.569   9.542  0.1771  0.8738  0.8081
  777MOL0     C 7115   9.634  10.562   9.657 -0.2657  0.6815 -0.2304
  777MOL0     C 7116   9.752  10.472   9.626 -0.1930 -0.2253 -0.8822
  777MOL0     C 7117   9.599  10.625   9.776  0.5391  0.2653  0.4932
  777MOL0     C 7118   9.678  10.599   9.905  0.7860 -0.2731  0.3852
  777MOL0     O 7119   9.792  10.534   9.902 -0.3663 -0.2312 -0.7109
  777MOL0     C 7120   9.887  10.548  10.002 -0.0696 -0.0121  0.5300
  777MOL0     C 7121   9.947  10.430  10.029 -0.6574 -0.0019  1.0992
  777MOL0     C 7122  10.054  10.427  10.114  0.0239 -0.7747 -0.6298
  777MOL0     C 7123  10.100  10.537  10.184 -0.6833 -0.8296  0.0341
  777MOL0     O 7124  10.201  10.534  10.269 -0.2957  0.6000  0.3212
  777MOL0     C 7125  10.297  10.424  10.280  0.2211  0.0584  0.3155
  777MOL0     C 7126  10.223  10.302  10.346  0.9244 -0.4174  1.0057
  777MOL0     C 7127  10.338  10.214  10.395  0.1422 -0.0239  0.4746
  777MOL0     C 7128  10.300  10.184  10.552 -1.1107  0.4689 -0.3310
  777MOL0     C 7129  10.398  10.079  10.602  0.0990  0.3043  0.0366
  777MOL0     C 7130  10.527  10.149  10.660  0.1600  0.2157 -0.2852
  777MOL0     C 7131  10.502  10.179  10.814 -0.4169  0.3451  0.2827
  777MOL0     C 7132  10.603  10.284  10.864 -0.2663  0.8390 -0.1405
  777MOL0    Cl 7133  10.575  10.288  11.043  0.2018  0.0434 -0.2656
  777MOL0     C 7134  10.028  10.659  10.171  0.1738  0.3602  0.8003
  777MOL0     C 7135   9.918  10.662  10.079  0.6892  0.4122 -0.7176
  777MOL0     O 7136   9.619  10.635  10.010  0.3529 -0.8493 -0.1624
  777MOL0     C 7137   9.486  10.706   9.771 -0.2356  0.3067  0.0480
  777MOL0     C 7138   9.394  10.713   9.662 -1.0942  0.6306  0.0475
  777MOL0     N 7139   9.053  10.360   9.755 -1.3954 -0.9571  0.7847
  777MOL0     N 7140   8.980  10.285   9.829  0.3070 -0.0351  0.4829
  777MOL0     C 7141   8.651   9.043   9.903  0.4861 -0.3904 -0.1250
  777MOL0     C 7142   8.650   8.898   9.888 -0.7690  0.0028 -0.0333
  777MOL0     C 7143   8.862   8.485   9.738  0.9251  0.5295  0.2716
  777MOL0     C 7144   8.838   8.483   9.596 -1.1368 -0.3324  0.0986
  777MOL0     C 7145   8.836   8.362   9.522 -0.6862  0.6688 -0.1935
  777MOL0     C 7146   8.849   8.239   9.594 -0.0636 -0.8608  0.5750
  777MOL0     O 7147   8.830   8.119   9.529  0.1105  0.4802 -0.3374
  777MOL0     C 7148   8.771   8.104   9.403  0.0427 -1.2040 -0.6848
  777MOL0     C 7149   8.770   7.958   9.345  0.0531 -0.6721  0.1905
  777MOL0     C 7150   8.907   7.887   9.367  1.2354 -0.2709 -0.9000
  777MOL0     C 7151   8.922   7.748   9.312 -0.2801  0.2444  0.9779
  777MOL0     C 7152   9.060   7.700   9.307  0.6743 -0.6984 -0.0141
  777MOL0     C 7153   9.172   7.653   9.310 -0.1957 -0.7542  0.3749
  777MOL0     C 7154   8.881   8.238   9.736 -0.6617  0.4339  0.7333
  777MOL0     C 7155   8.886   8.364   9.804  0.2651 -0.2102 -0.9889
  777MOL0     C 7156   8.911   8.359   9.960 -0.0812 -0.2274  0.2107
  777MOL0     H 7157   8.913   8.872   9.688  1.2348  1.6129  1.7253
  777MOL0     H 7158   8.918   9.118   9.714  0.9534 -0.5049  0.9332
  777MOL0     H 7159   8.809   9.294   9.690  0.8700 -3.4021  1.5072
  777MOL0     H 7160   8.932   9.337   9.817 -0.0789 -0.9825  2.4343
  777MOL0     H 7161   8.656   9.450   9.762 -0.0853  2.4877  0.3249
  777MOL0     H 7162   8.759   9.493   9.904 -0.3339 -0.8531  1.3443
  777MOL0     H 7163   8.942   9.581   9.752 -0.1394 -1.5515  0.6986
  777MOL0     H 7164   8.859   9.540   9.623  1.2452 -2.0876 -0.0763
  777MOL0     H 7165   8.806   9.766   9.632  3.1212 -0.0122  1.6377
  777MOL0     H 7166   8.654   9.693   9.673 -0.0197  4.5571 -3.8927
  777MOL0     H 7167   8.859   9.779   9.874  1.7337  1.1370 -6.1893
  777MOL0     H 7168   8.693   9.724   9.905 -1.7318  2.9111  1.4535
  777MOL0     H 7169   8.603   9.919   9.776  0.8851  0.2196 -2.5153
  777MOL0     H 7170   8.677   9.975   9.922 -0.6634  1.4392 -0.3340
  777MOL0     H 7171   8.746  10.130   9.760  1.5061  0.6302  2.3659
  777MOL0     H 7172   8.825  10.004   9.659  0.5972  2.9722 -1.5972
  777MOL0     H 7173   8.911  10.071   9.946 -1.1159 -0.0990  0.3604
  777MOL0     H 7174   9.005   9.963   9.841  1.7225  1.7829  2.4653
  777MOL0     H 7175   9.095  10.054   9.616  1.3137 -0.0800 -0.9254
  777MOL0     H 7176   9.239  10.258   9.489 -2.5466  0.3304 -1.0375
  777MOL0     H 7177   9.282  10.390   9.613 -1.4443  2.6341  0.4507
  777MOL0     H 7178   9.027  10.408   9.461 -0.0915  0.2785 -3.6366
  777MOL0     H 7179   9.128  10.543   9.538  1.5103  0.2806  0.5142
  777MOL0     H 7180   9.183  10.379   9.300  1.9817 -0.9437  0.3840
  777MOL0     H 7181   9.144  10.553   9.281  4.0444 -1.1225 -3.0149
  777MOL0     H 7182   9.383  10.439   9.391 -1.4856 -0.5491  0.9322
  777MOL0     H 7183   9.364  10.546   9.257  1.6127  1.9209  0.9948
  777MOL0     H 7184   9.576  10.514   9.453 -1.4591  2.5801 -0.8915
  777MOL0     H 7185   9.773  10.460   9.519 -1.2633  1.1833 -1.2779
  777MOL0     H 7186   9.743  10.377   9.679  1.2650  0.2256  0.2467
  777MOL0     H 7187   9.847  10.514   9.663  0.5478 -0.3022 -2.5907
  777MOL0     H 7188   9.908  10.335   9.995 -1.4096  0.8235 -0.4366
  777MOL0     H 7189  10.097  10.327  10.118  0.9048 -0.4004 -0.5486
  777MOL0     H 7190  10.324  10.394  10.179 -2.0732 -2.2127  0.2770
  777MOL0     H 7191  10.385  10.464  10.330  0.0267  2.7828 -1.3290
  777MOL0     H 7192  10.173  10.340  10.436 -1.0997  2.8030 -1.2952
  777MOL0     H 7193  10.153  10.248  10.283  2.3165 -1.6283  0.4221
  777MOL0     H 7194  10.435  10.264  10.385 -0.4545  0.7560 -2.7725
  777MOL0     H 7195  10.347  10.127  10.328 -0.8583  0.7111 -0.6371
  777MOL0     H 7196  10.196  10.150  10.557 -1.5689  2.0244  1.8696
  777MOL0     H 7197  10.314  10.273  10.613  2.8355  0.9443 -1.6187
  777MOL0     H 7198  10.340  10.023  10.676 -0.7276  0.4163 -0.5111
  777MOL0     H 7199  10.416   9.997  10.532 -0.8772 -0.5679  0.7772
  777MOL0     H 7200  10.550  10.246  10.614 -0.7480  1.0084  0.8792
  777MOL0     H 7201  10.620  10.091  10.661 -0.1269 -0.3147  2.0804
  777MOL0     H 7202  10.502  10.086  10.870  2.6684 -0.5193 -0.9599
  777MOL0     H 7203  10.405  10.228  10.829  0.1764  1.7574 -0.2627
  777MOL0     H 7204  10.603  10.385  10.822  2.2328  0.5361 -1.0304
  777MOL0     H 7205  10.703  10.241  10.855 -1.7713 -2.7048 -2.3582
  777MOL0     H 7206  10.054  10.745  10.231 -1.2652  2.0918 -0.9125
  777MOL0     H 7207   9.854  10.745  10.054  0.4031  1.7321  3.6113
  777MOL0     H 7208   9.438  10.754   9.856  1.2632  0.3086  0.9251
  777MOL0     H 7209   9.302  10.758   9.698 -0.2115  0.8581  2.2264
  777MOL0     H 7210   8.580   9.095   9.967 -0.4769 -1.9024  0.0714
  777MOL0     H 7211   8.563   8.849   9.929 -1.0031 -1.6032 -2.2701
  777MOL0     H 7212   8.835   8.575   9.539  0.1152  0.7266  1.6478
  777MOL0     H 7213   8.844   8.373   9.414 -0.3457  3.1216  0.0200
  777MOL0     H 7214   8.665   8.132   9.403 -0.1825 -1.9358 -2.6536
  777MOL0     H 7215   8.801   8.175   9.325  1.0641 -0.6624  0.1632
  777MOL0     H 7216   8.734   7.955   9.242 -1.1650  0.5828  0.5428
  777MOL0     H 7217   8.685   7.913   9.397 -0.3878  1.5701  1.5790
  777MOL0     H 7218   8.984   7.952   9.325 -0.8652  1.0865 -2.9390
  777MOL0     H 7219   8.923   7.892   9.475 -3.5963 -1.5335  0.1278
  777MOL0     H 7220   8.878   7.751   9.212 -1.8196 -0.1260  1.6116
  777MOL0     H 7221   8.867   7.670   9.367 -0.4067  0.2936  0.9232
  777MOL0     H 7222   9.260   7.593   9.322  0.5047 -0.4511 -2.4629
  777MOL0     H 7223   8.895   8.150   9.798  1.7321 -0.3461 -0.7759
  777MOL0     H 7224   8.917   8.453  10.015  5.4897  0.3551 -0.8283
  777MOL0     H 7225   8.833   8.296  10.003 -0.4190 -0.0098 -0.0749
  777MOL0     H 7226   9.005   8.309   9.983  1.0163 -0.0943 -3.3661
  778MOL0     O 7227   6.128  10.047   9.092 -0.3152  0.1791 -0.1118
  778MOL0     C 7228   6.170   9.931   9.059  0.1577  0.9232 -0.2493
  778MOL0     O 7229   6.088   9.813   9.054 -0.5248  0.0194  0.6827
  778MOL0     C 7230   5.956   9.814   9.076 -0.3774 -1.4065 -0.2922
  778MOL0     C 7231   5.899   9.770   9.198 -0.3266 -0.6419 -1.1126
  778MOL0     C 7232   5.758   9.762   9.204 -0.2139 -0.1821  0.3281
  778MOL0     C 7233   5.678   9.814   9.096  0.2613 -0.3881 -0.2465
  778MOL0     O 7234   5.537   9.789   9.092  0.4924 -0.2181 -0.5495
  778MOL0     C 7235   5.465   9.777   9.212  0.1594  0.3733 -0.9997
  778MOL0     C 7236   5.317   9.791   9.180 -0.0901 -0.3763  0.4283
  778MOL0     C 7237   5.276   9.681   9.090  0.0498 -0.3935 -0.2035
  778MOL0     C 7238   5.139   9.688   9.031 -0.2230 -0.0085 -0.3972
  778MOL0     C 7239   5.031   9.719   9.137  0.1200  0.4452 -0.1468
  778MOL0     C 7240   4.896   9.708   9.065 -0.1321 -0.7093  0.3689
  778MOL0     C 7241   4.795   9.790   9.138 -0.5744 -0.6063  0.7704
  778MOL0     C 7242   4.654   9.737   9.115 -0.0983  0.0960  0.8328
  778MOL0     N 7243   4.551   9.810   9.196  0.0723 -0.3375  0.2376
  778MOL0     C 7244   4.509   9.937   9.157 -0.4091 -0.4934  0.3108
  778MOL0     C 7245   4.398   9.971   9.237  0.0194  0.1149 -0.1524
  778MOL0     C 7246   4.329  10.107   9.238  0.0565 -0.6886  0.2608
  778MOL0     C 7247   4.259  10.134   9.381  0.5562 -1.4545 -0.3934
  778MOL0     C 7248   4.196  10.271   9.388 -0.7200  0.2129 -0.2433
  778MOL0     C 7249   4.048  10.270   9.341 -0.9032 -0.0218  0.4344
  778MOL0     O 7250   3.967  10.181   9.424 -0.9286  0.0427  0.0258
  778MOL0     C 7251   3.920  10.230   9.542 -0.6550  0.1941  0.2907
  778MOL0     C 7252   3.951  10.345   9.615 -0.6003  0.4289 -0.1560
  778MOL0     C 7253   3.886  10.373   9.742  0.8187 -0.3906 -0.2785
  778MOL0     C 7254   3.924  10.507   9.811 -0.0401  0.5001 -0.9174
  778MOL0     C 7255   3.782  10.296   9.791 -0.2594 -0.0435  0.0691
  778MOL0     C 7256   3.709  10.335   9.912 -0.3931 -0.1711 -1.3152
  778MOL0     O 7257   3.621  10.439   9.903  0.1723 -0.1660  0.0796
  778MOL0     C 7258   3.571  10.486  10.022 -0.3258  0.4613  0.8861
  778MOL0     C 7259   3.636  10.566  10.117 -0.2222 -0.0633 -0.5956
  778MOL0     C 7260   3.557  10.630  10.216  0.1872  0.0767 -0.0948
  778MOL0     C 7261   3.424  10.600  10.233  0.4626 -0.0460 -0.1665
  778MOL0     O 7262   3.368  10.663  10.339  0.6417  0.7838  0.3671
  778MOL0     C 7263   3.280  10.770  10.290  0.4252  0.4966 -1.1623
  778MOL0     C 7264   3.208  10.836  10.405  0.4173  0.6069 -0.1923
  778MOL0     C 7265   3.292  10.908  10.507 -0.8003 -1.2371 -0.3750
  778MOL0     C 7266   3.399  10.823  10.579  0.7777  0.0124 -0.0212
  778MOL0     C 7267   3.367  10.692  10.662 -0.4731  0.8494  0.7065
  778MOL0     C 7268   3.248  10.703  10.765 -0.9693 -0.7343 -0.3972
  778MOL0     C 7269   3.270  10.824  10.867  0.0870  0.7580 -0.4054
  778MOL0     C 7270   3.202  10.798  11.013 -0.9560 -0.2307  0.4615
  778MOL0    Cl 7271   3.042  10.709  11.005  0.2956 -0.1702 -0.1337
  778MOL0     C 7272   3.364  10.503  10.154  0.2992 -0.7155  0.1104
  778MOL0     C 7273   3.435  10.447  10.045 -0.7998 -0.9784 -0.1392
  778MOL0     O 7274   3.719  10.253  10.005 -0.3700 -0.8277  0.0435
  778MOL0     C 7275   3.755  10.182   9.717  0.5450 -0.2404  0.8335
  778MOL0     C 7276   3.825  10.146   9.599 -0.0539 -0.2498  0.0558
  778MOL0     N 7277   4.368   9.858   9.314  0.2336  0.5745 -0.8979
  778MOL0     N 7278   4.467   9.768   9.296  0.2372  0.4252 -0.0170
  778MOL0     C 7279   5.743   9.867   8.988  0.0383 -0.2926 -0.0351
  778MOL0     C 7280   5.880   9.886   8.987  0.2346  0.4248  0.8677
  778MOL0     C 7281   6.317   9.931   9.018 -0.1677 -1.1194 -0.7221
  778MOL0     C 7282   6.359   9.835   8.929  0.0615 -0.1221  0.5228
  778MOL0     C 7283   6.488   9.839   8.872 -0.4212 -0.2727 -1.0295
  778MOL0     C 7284   6.582   9.939   8.910 -0.4509  0.6560 -0.0058
  778MOL0     O 7285   6.699   9.935   8.846  0.8032 -0.3833  0.3270
  778MOL0     C 7286   6.817   9.998   8.894 -0.4246 -0.1961 -0.3449
  778MOL0     C 7287   6.918   9.957   8.783 -0.8214 -0.3398 -0.6117
  778MOL0     C 7288   7.048  10.022   8.837 -0.3485 -1.0020 -0.4397
  778MOL0     C 7289   7.157  10.032   8.730 -0.2733 -0.1405  0.5499
  778MOL0     C 7290   7.276  10.086   8.796 -0.4365 -0.0168 -1.0741
  778MOL0     C 7291   7.377  10.116   8.855  0.1164 -0.2518  0.2479
  778MOL0     C 7292   6.548  10.020   9.007 -0.0864 -0.3617  0.4806
  778MOL0     C 7293   6.415  10.023   9.064 -0.4507  0.8805 -0.3481
  778MOL0     C 7294   6.398  10.096   9.192  0.8150 -0.1569 -0.2188
  778MOL0     H 7295   5.962   9.713   9.266  1.1135 -0.4907 -2.2702
  778MOL0     H 7296   5.706   9.721   9.290  1.1273  0.4860  1.4951
  778MOL0     H 7297   5.492   9.853   9.286 -0.7100  0.0427 -0.3362
  778MOL0     H 7298   5.486   9.680   9.258 -4.2816 -0.4017 -0.1296
  778MOL0     H 7299   5.250   9.788   9.266 -0.9521 -1.2939 -0.2493
  778MOL0     H 7300   5.302   9.892   9.140  1.7270 -0.0168  0.5594
  778MOL0     H 7301   5.341   9.683   9.001  0.7705  1.0868  0.3205
  778MOL0     H 7302   5.270   9.589   9.148 -1.4447  2.2504  4.2907
  778MOL0     H 7303   5.140   9.768   8.956  0.1627  1.4104  1.0617
  778MOL0     H 7304   5.109   9.590   8.992 -0.7679 -0.0185  0.0297
  778MOL0     H 7305   5.050   9.818   9.178  0.8941 -0.3891  1.6255
  778MOL0     H 7306   5.035   9.655   9.226 -0.5463  0.1644 -0.3119
  778MOL0     H 7307   4.911   9.747   8.964  1.5571 -0.8656  0.5327
  778MOL0     H 7308   4.864   9.604   9.053 -1.3805 -0.1519 -1.6584
  778MOL0     H 7309   4.801   9.895   9.107 -0.7520 -1.0636 -0.9589
  778MOL0     H 7310   4.805   9.771   9.245  2.9998  1.4704  0.9758
  778MOL0     H 7311   4.621   9.741   9.011  1.5465  1.8784  0.3321
  778MOL0     H 7312   4.648   9.634   9.152 -0.3211 -0.1076  0.2347
  778MOL0     H 7313   4.566  10.006   9.095  0.2069  1.5068  2.9112
  778MOL0     H 7314   4.255  10.113   9.158  0.6108 -0.0733 -0.2201
  778MOL0     H 7315   4.388  10.196   9.213 -0.4713 -1.0713 -2.7231
  778MOL0     H 7316   4.172  10.068   9.383 -1.2431  0.7664 -0.9921
  778MOL0     H 7317   4.320  10.096   9.464  0.1435 -1.7332 -0.2138
  778MOL0     H 7318   4.203  10.307   9.491 -4.1812  0.5972 -0.0329
  778MOL0     H 7319   4.251  10.348   9.332 -1.2890  1.2250  0.5473
  778MOL0     H 7320   4.014  10.374   9.340 -1.5575 -0.2292  0.7405
  778MOL0     H 7321   4.030  10.240   9.238  0.7725  1.6196 -0.4055
  778MOL0     H 7322   4.018  10.414   9.566 -1.0917  1.7366  0.9612
  778MOL0     H 7323   3.910  10.517   9.919  0.7068  1.4524 -0.8923
  778MOL0     H 7324   3.851  10.582   9.778 -0.9561  3.5125  6.1106
  778MOL0     H 7325   4.027  10.542   9.799  0.2190  0.0107 -0.2060
  778MOL0     H 7326   3.733  10.596  10.078 -0.9579  1.8192 -1.0440
  778MOL0     H 7327   3.605  10.686  10.295  1.7016 -0.5137 -0.5437
  778MOL0     H 7328   3.338  10.845  10.236  0.2067  2.6387  1.3742
  778MOL0     H 7329   3.200  10.726  10.230  2.3184 -0.9042 -2.7663
  778MOL0     H 7330   3.130  10.907  10.374  2.1080  3.0113  0.7486
  778MOL0     H 7331   3.152  10.758  10.457 -1.3279  2.6411  1.1885
  778MOL0     H 7332   3.219  10.959  10.571 -0.5815  0.6174 -1.5477
  778MOL0     H 7333   3.350  10.990  10.466 -0.1436 -0.9332  1.0878
  778MOL0     H 7334   3.439  10.887  10.658 -1.5755 -0.8614  2.0184
  778MOL0     H 7335   3.478  10.807  10.505 -2.7438 -0.8066 -4.0313
  778MOL0     H 7336   3.349  10.608  10.594 -1.0125  1.5234 -0.0048
  778MOL0     H 7337   3.455  10.655  10.714  0.2146 -2.1718 -2.2649
  778MOL0     H 7338   3.232  10.618  10.831  1.9954 -1.3629 -0.3248
  778MOL0     H 7339   3.158  10.710  10.704  0.5791  1.2547 -2.7060
  778MOL0     H 7340   3.228  10.914  10.821  0.5025  2.4674  2.3756
  778MOL0     H 7341   3.376  10.844  10.884 -0.1809  1.7302  0.2143
  778MOL0     H 7342   3.186  10.898  11.054  0.3917  1.0403 -1.8883
  778MOL0     H 7343   3.279  10.746  11.071 -2.3942 -0.9949  1.7481
  778MOL0     H 7344   3.262  10.470  10.165 -0.6692  0.8813 -2.7935
  778MOL0     H 7345   3.394  10.369   9.981 -1.0997 -1.6695  0.8772
  778MOL0     H 7346   3.663  10.127   9.733 -1.5223  3.0815  1.3047
  778MOL0     H 7347   3.792  10.055   9.551 -0.4132 -0.8198  1.3543
  778MOL0     H 7348   5.661   9.898   8.924 -1.3423  0.2596  1.9290
  778MOL0     H 7349   5.925   9.933   8.900 -2.0937  1.4466  0.1251
  778MOL0     H 7350   6.287   9.759   8.902 -0.0130  0.8427 -2.3352
  778MOL0     H 7351   6.514   9.761   8.802 -0.5599  0.4891 -1.9510
  778MOL0     H 7352   6.803  10.106   8.885 -1.6929 -0.4215 -1.2790
  778MOL0     H 7353   6.841   9.980   9.000 -3.1300  0.5232  0.4738
  778MOL0     H 7354   6.889   9.986   8.682 -1.0785  3.5063  0.4024
  778MOL0     H 7355   6.938   9.850   8.791  0.7367  0.0297  1.0820
  778MOL0     H 7356   7.027  10.122   8.878  0.4847 -0.3740 -1.4918
  778MOL0     H 7357   7.082   9.960   8.920 -0.1966 -2.4919 -1.5895
  778MOL0     H 7358   7.134  10.100   8.647  0.2575 -3.2065 -2.3562
  778MOL0     H 7359   7.177   9.934   8.686 -1.3784 -0.5955  1.0532
  778MOL0     H 7360   7.473  10.131   8.901  0.0934  2.3690 -0.4166
  778MOL0     H 7361   6.619  10.083   9.060  0.6673 -0.4777 -0.3748
  778MOL0     H 7362   6.344  10.036   9.266  0.7049  0.5815  0.3110
  778MOL0     H 7363   6.491  10.119   9.246  1.6318 -2.6361 -0.4294
  778MOL0     H 7364   6.355  10.195   9.176  2.3463  0.2361 -2.4138
  779MOL0     O 7365   5.810  10.442   0.990  0.3914 -1.1458  1.2426
  779MOL0     C 7366   5.892  10.513   1.040 -0.5940  0.3554 -0.4143
  779MOL0     O 7367   6.007  10.466   1.090  0.0014 -0.5240  0.5176
  779MOL0     C 7368   6.045  10.330   1.087 -0.0658 -0.9301 -0.0041
  779MOL0     C 7369   6.183  10.301   1.081  0.6007 -0.2105  0.7696
  779MOL0     C 7370   6.227  10.169   1.091 -0.8147 -0.4579 -0.2691
  779MOL0     C 7371   6.145  10.061   1.103  0.3575  0.0633  0.7341
  779MOL0     O 7372   6.198   9.933   1.078  0.2586 -1.3405 -1.8216
  779MOL0     C 7373   6.280   9.876   1.193  0.6614 -0.3014  0.6576
  779MOL0     C 7374   6.361   9.747   1.159  0.1935  0.5202 -0.1652
  779MOL0     C 7375   6.512   9.771   1.120 -0.6154 -0.1940  0.5063
  779MOL0     C 7376   6.525   9.855   0.990 -0.3730 -0.1372 -0.4221
  779MOL0     C 7377   6.663   9.910   0.960  0.9080 -0.1164  0.7101
  779MOL0     C 7378   6.756   9.801   0.894 -0.4697 -0.3409  0.2157
  779MOL0     C 7379   6.891   9.774   0.966  1.1390  0.1299  0.2474
  779MOL0     C 7380   6.992   9.883   0.945 -0.3583 -0.5992  0.0642
  779MOL0     N 7381   7.006   9.938   0.808 -0.5485 -0.3458  0.1799
  779MOL0     C 7382   7.010   9.857   0.692  0.0860 -0.1687 -0.2276
  779MOL0     C 7383   7.051   9.947   0.588 -0.3574  0.5665 -0.5115
  779MOL0     C 7384   7.064   9.917   0.440  0.1121  0.3114 -0.0924
  779MOL0     C 7385   7.036  10.040   0.336  0.3051  0.3386 -0.0354
  779MOL0     C 7386   7.133  10.154   0.352  1.5391 -0.1830  0.4484
  779MOL0     C 7387   7.280  10.108   0.333  0.8499 -0.2709  0.1563
  779MOL0     O 7388   7.366  10.218   0.301 -0.1437 -1.0151  0.0192
  779MOL0     C 7389   7.501  10.196   0.276  0.7985  1.1767 -0.5951
  779MOL0     C 7390   7.558  10.291   0.198 -0.2596 -0.2014  0.0543
  779MOL0     C 7391   7.696  10.282   0.156 -1.1469 -0.6315  0.3390
  779MOL0     C 7392   7.733  10.403   0.068 -0.2273 -0.3362 -0.0442
  779MOL0     C 7393   7.772  10.166   0.182 -0.0261  0.3210 -0.7597
  779MOL0     C 7394   7.908  10.137   0.146 -0.1316  0.9700  0.2462
  779MOL0     O 7395   7.962  10.011   0.171  0.0462 -0.3818  0.0283
  779MOL0     C 7396   8.077   9.955   0.114 -0.3564  0.8916 -0.2885
  779MOL0     C 7397   8.091   9.813   0.125  0.7563 -0.5712 -0.6257
  779MOL0     C 7398   8.202   9.738   0.094 -0.1916  0.5799 -0.7613
  779MOL0     C 7399   8.313   9.809   0.041  0.4764 -0.0491  0.8841
  779MOL0     O 7400   8.433   9.753   0.021  0.2898  0.3186 -0.3802
  779MOL0     C 7401   8.459   9.738  -0.115  0.1618  0.6839  0.9029
  779MOL0     C 7402   8.590   9.646  -0.139 -0.0583 -0.2919 -1.2490
  779MOL0     C 7403   8.609   9.628  -0.292 -0.1845  0.8337  0.8598
  779MOL0     C 7404   8.753   9.594  -0.347  0.3527 -0.3722  0.6921
  779MOL0     C 7405   8.756   9.592  -0.505 -0.8112  0.7537 -0.6634
  779MOL0     C 7406   8.779   9.727  -0.579  0.0668 -0.3838 -0.4743
  779MOL0     C 7407   8.906   9.794  -0.530  0.0885 -0.2988  0.7569
  779MOL0     C 7408   8.927   9.915  -0.621  0.2613 -0.4603  0.0663
  779MOL0    Cl 7409   9.097   9.982  -0.598  0.2017  0.0792  0.4448
  779MOL0     C 7410   8.304   9.954   0.024 -0.5512 -0.3507 -0.5759
  779MOL0     C 7411   8.188  10.024   0.066 -0.6039 -1.1340  0.8326
  779MOL0     O 7412   7.983  10.231   0.114 -0.3255  0.0159  0.9149
  779MOL0     C 7413   7.705  10.071   0.268 -0.2916 -0.2929  0.8365
  779MOL0     C 7414   7.581  10.088   0.314 -0.1812 -0.1014 -0.2224
  779MOL0     N 7415   7.060  10.073   0.653  0.0753 -0.0780  0.2570
  779MOL0     N 7416   7.033  10.066   0.778  0.4317 -0.0536 -0.8430
  779MOL0     C 7417   6.008  10.094   1.113 -0.0382 -0.4173  0.0350
  779MOL0     C 7418   5.961  10.226   1.104 -0.2541 -0.1177 -0.9925
  779MOL0     C 7419   5.860  10.652   1.065  0.1752 -0.0694  1.1022
  779MOL0     C 7420   5.923  10.715   1.176 -0.3927 -0.4963 -0.5635
  779MOL0     C 7421   5.889  10.849   1.222 -0.3301 -0.1353  0.2048
  779MOL0     C 7422   5.791  10.917   1.144 -0.0858 -1.0985 -0.6552
  779MOL0     O 7423   5.739  11.042   1.160 -0.0400 -0.2910 -0.6403
  779MOL0     C 7424   5.816  11.132   1.247  0.8944  0.3176  0.1266
  779MOL0     C 7425   5.744  11.270   1.245  0.4868  1.1200 -0.1812
  779MOL0     C 7426   5.750  11.338   1.387  0.0120 -1.0063  0.1193
  779MOL0     C 7427   5.676  11.481   1.394  0.0491  0.2398  0.0480
  779MOL0     C 7428   5.745  11.572   1.304 -0.1369 -0.4841 -0.7967
  779MOL0     C 7429   5.825  11.652   1.261 -0.7394  0.2335  0.9835
  779MOL0     C 7430   5.735  10.858   1.031  0.4705  0.4592 -0.4457
  779MOL0     C 7431   5.759  10.729   0.988 -0.5943 -0.0270 -0.7630
  779MOL0     C 7432   5.702  10.690   0.856  0.6006 -0.0779  0.4224
  779MOL0     H 7433   6.250  10.386   1.078  2.0851 -1.3100  1.3206
  779MOL0     H 7434   6.333  10.157   1.069 -0.8686  0.3690 -1.0554
  779MOL0     H 7435   6.209   9.862   1.275 -0.7577  1.7045 -0.1516
  779MOL0     H 7436   6.352   9.954   1.223 -0.8622  2.1235 -1.5374
  779MOL0     H 7437   6.348   9.676   1.241 -1.0932  1.7197  0.7231
  779MOL0     H 7438   6.316   9.694   1.075  1.0041 -1.7877  0.7635
  779MOL0     H 7439   6.559   9.822   1.205 -1.3366 -0.3455  1.0066
  779MOL0     H 7440   6.567   9.678   1.103  1.1557  0.6990  1.0707
  779MOL0     H 7441   6.497   9.792   0.905 -3.5810 -1.3172  1.3366
  779MOL0     H 7442   6.454   9.939   0.998 -3.9838 -2.9733 -0.1486
  779MOL0     H 7443   6.704   9.950   1.053 -0.6236 -1.9728  2.2853
  779MOL0     H 7444   6.655   9.993   0.889  2.5208  0.4651  1.1486
  779MOL0     H 7445   6.700   9.708   0.884 -2.7125  0.9181  0.3738
  779MOL0     H 7446   6.779   9.827   0.790  0.0582 -0.4169  0.3134
  779MOL0     H 7447   6.929   9.680   0.925 -0.3726  0.8058 -3.0325
  779MOL0     H 7448   6.874   9.760   1.073  0.1233 -0.0423  0.0776
  779MOL0     H 7449   6.949   9.959   1.012 -2.4763 -3.4691  2.2166
  779MOL0     H 7450   7.094   9.855   0.972  0.3946  0.5270 -1.4711
  779MOL0     H 7451   6.989   9.751   0.683  0.3555 -0.5727  2.8979
  779MOL0     H 7452   6.978   9.851   0.428 -1.5948  2.1782  1.1056
  779MOL0     H 7453   7.161   9.868   0.427 -0.8769 -1.7077 -0.2983
  779MOL0     H 7454   7.034  10.009   0.231 -0.5007  3.0283 -0.8939
  779MOL0     H 7455   6.932  10.071   0.334  0.3821  0.5809 -1.5607
  779MOL0     H 7456   7.106  10.224   0.273  2.5246 -1.7144 -1.3201
  779MOL0     H 7457   7.129  10.201   0.451  6.1235  1.3095  0.1656
  779MOL0     H 7458   7.308  10.063   0.429 -0.7321 -1.4343  0.1074
  779MOL0     H 7459   7.299  10.039   0.251 -1.2200 -0.2984 -0.3465
  779MOL0     H 7460   7.491  10.375   0.180 -1.3831 -0.9017  0.8554
  779MOL0     H 7461   7.816  10.440   0.129 -1.4438 -1.2037  2.2617
  779MOL0     H 7462   7.659  10.483   0.064  2.7056  2.5830 -0.6567
  779MOL0     H 7463   7.766  10.380  -0.034  1.7551 -3.6132  1.1740
  779MOL0     H 7464   7.999   9.768   0.163  0.9726 -2.0501 -1.7746
  779MOL0     H 7465   8.206   9.633   0.123  0.1124  0.2314 -2.0344
  779MOL0     H 7466   8.377   9.702  -0.177  1.1271 -1.7612  0.9404
  779MOL0     H 7467   8.490   9.833  -0.160  0.2119 -0.1964 -1.0460
  779MOL0     H 7468   8.671   9.702  -0.091 -1.2689  0.6400 -0.2035
  779MOL0     H 7469   8.578   9.551  -0.086 -2.5727 -0.6985 -2.3902
  779MOL0     H 7470   8.570   9.719  -0.340  0.9013  1.7907  1.7451
  779MOL0     H 7471   8.546   9.552  -0.338  3.1408 -3.4981  2.7581
  779MOL0     H 7472   8.793   9.502  -0.303 -2.1709 -1.7516  0.3341
  779MOL0     H 7473   8.819   9.675  -0.315  2.7478 -2.5052  1.4797
  779MOL0     H 7474   8.840   9.527  -0.530 -0.0958  0.8625  1.2763
  779MOL0     H 7475   8.667   9.544  -0.547  0.0517 -1.5453 -0.0366
  779MOL0     H 7476   8.696   9.798  -0.574 -0.3901 -0.6077 -3.1978
  779MOL0     H 7477   8.786   9.710  -0.687 -0.5381  2.0767 -0.9557
  779MOL0     H 7478   8.989   9.724  -0.528 -0.8439 -1.9524 -4.4028
  779MOL0     H 7479   8.893   9.820  -0.424  1.0950 -0.1867  0.8545
  779MOL0     H 7480   8.860   9.991  -0.579 -2.1800 -1.9615 -0.9227
  779MOL0     H 7481   8.912   9.901  -0.728 -1.7957  0.9281  0.1222
  779MOL0     H 7482   8.392  10.001  -0.020  1.4676  0.6696  3.9841
  779MOL0     H 7483   8.190  10.131   0.047 -0.7456 -1.0781  1.1297
  779MOL0     H 7484   7.750   9.976   0.296 -0.2696 -1.0280 -1.5177
  779MOL0     H 7485   7.543  10.007   0.375  3.9564 -2.8812 -0.9959
  779MOL0     H 7486   5.936  10.014   1.128  0.7890 -0.5367  4.6759
  779MOL0     H 7487   5.854  10.239   1.109 -0.1411  0.5998 -0.3226
  779MOL0     H 7488   5.993  10.661   1.239  0.2729 -0.1828 -1.0260
  779MOL0     H 7489   5.925  10.885   1.317 -2.1666  0.0672  0.8691
  779MOL0     H 7490   5.815  11.094   1.350 -0.4212  0.5856  0.2305
  779MOL0     H 7491   5.918  11.138   1.209  0.2027 -1.2190 -2.1830
  779MOL0     H 7492   5.643  11.256   1.206  0.6663  0.0255 -0.2741
  779MOL0     H 7493   5.786  11.336   1.168 -4.4457  1.3881 -3.0317
  779MOL0     H 7494   5.688  11.282   1.457 -0.7450 -1.7977 -1.1359
  779MOL0     H 7495   5.852  11.347   1.425 -1.3448 -0.7915  4.1988
  779MOL0     H 7496   5.675  11.521   1.495  2.5430 -0.9667  0.6283
  779MOL0     H 7497   5.571  11.467   1.367 -0.1288  2.9570 -1.0245
  779MOL0     H 7498   5.907  11.710   1.224  0.4235 -0.7606  1.9167
  779MOL0     H 7499   5.652  10.913   0.988  1.4805  0.9219 -1.8393
  779MOL0     H 7500   5.781  10.648   0.793  0.0573 -0.3438 -0.1052
  779MOL0     H 7501   5.608  10.633   0.853  0.7278 -0.2596 -1.5679
  779MOL0     H 7502   5.674  10.778   0.796 -0.5086  1.4658  3.0405
  780MOL0     O 7503   4.740   7.494   6.043 -0.2532  0.5345  0.4263
  780MOL0     C 7504   4.747   7.407   5.957  0.6615  0.6433  0.9761
  780MOL0     O 7505   4.792   7.275   5.970 -0.5154 -0.0979 -0.8568
  780MOL0     C 7506   4.832   7.240   6.093 -0.1891  0.6494 -0.3700
  780MOL0     C 7507   4.969   7.252   6.129 -0.9702  0.1985 -0.5600
  780MOL0     C 7508   5.011   7.195   6.246  0.1007 -1.1725 -0.1700
  780MOL0     C 7509   4.931   7.164   6.347 -0.4422 -0.0960  0.3012
  780MOL0     O 7510   4.992   7.137   6.473  0.3796  0.1533  0.6772
  780MOL0     C 7511   4.913   7.182   6.571  0.5456 -1.7280  0.2988
  780MOL0     C 7512   4.999   7.187   6.711  0.4706  0.0643  0.5621
  780MOL0     C 7513   5.002   7.040   6.762  0.0451 -0.0181 -0.9059
  780MOL0     C 7514   5.102   7.029   6.874 -0.6391 -0.1743  0.2874
  780MOL0     C 7515   5.062   6.920   6.973  0.6179 -0.2427  1.4728
  780MOL0     C 7516   5.066   6.781   6.914 -0.7611  0.3126  0.1950
  780MOL0     C 7517   5.075   6.682   7.024 -0.6182 -0.2049  0.1699
  780MOL0     C 7518   5.063   6.538   6.965  0.1692 -0.0399  0.5127
  780MOL0     N 7519   5.125   6.434   7.047 -0.6583 -0.3238 -0.0439
  780MOL0     C 7520   5.143   6.432   7.182 -0.8725 -0.0841  1.0008
  780MOL0     C 7521   5.202   6.305   7.202  0.7519 -0.5883  0.0216
  780MOL0     C 7522   5.269   6.254   7.330  0.3405  0.0754 -0.5619
  780MOL0     C 7523   5.157   6.225   7.440  0.3144  0.0582  0.9415
  780MOL0     C 7524   5.079   6.097   7.405  0.1131  0.6178 -0.1603
  780MOL0     C 7525   4.965   6.063   7.496  0.0943  0.0158 -0.9121
  780MOL0     O 7526   5.020   6.056   7.632 -0.0655  0.7142  0.5221
  780MOL0     C 7527   4.926   6.026   7.727 -0.3019  0.1036 -0.7570
  780MOL0     C 7528   4.793   6.073   7.723  0.0883 -0.6119 -0.9239
  780MOL0     C 7529   4.704   6.066   7.832  0.1421 -0.6861 -0.0561
  780MOL0     C 7530   4.574   6.146   7.820 -0.5576  1.0804  0.5880
  780MOL0     C 7531   4.737   5.971   7.942 -0.1625 -0.0037  1.0831
  780MOL0     C 7532   4.654   5.942   8.046  0.6700  0.7984  0.1987
  780MOL0     O 7533   4.679   5.821   8.097 -0.3839  0.5109 -0.2217
  780MOL0     C 7534   4.600   5.744   8.172  0.9635  0.4727  0.0999
  780MOL0     C 7535   4.650   5.697   8.288 -0.1097 -0.6093 -0.4797
  780MOL0     C 7536   4.573   5.622   8.379  0.2402 -0.4759  0.0971
  780MOL0     C 7537   4.442   5.590   8.347 -0.0048 -0.3141 -0.4634
  780MOL0     O 7538   4.360   5.503   8.417  0.8671 -0.5048 -0.0254
  780MOL0     C 7539   4.408   5.446   8.540 -0.6992 -0.4634  0.0160
  780MOL0     C 7540   4.288   5.410   8.620 -0.4565 -0.4350  1.1679
  780MOL0     C 7541   4.338   5.313   8.727  0.1537  1.2898  0.3124
  780MOL0     C 7542   4.217   5.254   8.796 -0.2601  0.2103 -0.0244
  780MOL0     C 7543   4.252   5.157   8.915  0.6214 -1.3969  0.9495
  780MOL0     C 7544   4.330   5.049   8.848 -0.9285 -0.0759  0.9316
  780MOL0     C 7545   4.322   4.938   8.948  0.0267  0.0642 -1.3837
  780MOL0     C 7546   4.364   4.802   8.891  0.6914  0.4452  1.0210
  780MOL0    Cl 7547   4.392   4.686   9.019  0.5536 -0.2035 -0.4685
  780MOL0     C 7548   4.394   5.628   8.223 -0.2608 -0.4828  0.0333
  780MOL0     C 7549   4.471   5.709   8.133 -0.0601 -0.1071  0.3818
  780MOL0     O 7550   4.570   6.022   8.082  0.2971  0.4788  0.3430
  780MOL0     C 7551   4.870   5.915   7.935  0.0964 -0.1300  0.0968
  780MOL0     C 7552   4.957   5.950   7.841 -0.4665  0.0893  0.3655
  780MOL0     N 7553   5.191   6.230   7.086 -0.3439 -0.5711 -0.1649
  780MOL0     N 7554   5.143   6.312   6.989 -0.1129 -0.5093 -0.5808
  780MOL0     C 7555   4.795   7.155   6.315  0.1642 -0.5430 -0.4394
  780MOL0     C 7556   4.742   7.185   6.183  0.7678  0.5559 -0.5048
  780MOL0     C 7557   4.691   7.445   5.821  0.1093  0.4485  0.6156
  780MOL0     C 7558   4.660   7.344   5.723  0.6751 -0.1716  0.7504
  780MOL0     C 7559   4.618   7.380   5.591 -0.6738 -0.4130  0.8055
  780MOL0     C 7560   4.596   7.513   5.550  0.7009  0.2046 -0.4082
  780MOL0     O 7561   4.551   7.561   5.424 -0.4032 -0.0726  0.5650
  780MOL0     C 7562   4.469   7.487   5.335  0.5852 -0.6205 -0.2672
  780MOL0     C 7563   4.517   7.478   5.191  0.1477  0.5538  0.1193
  780MOL0     C 7564   4.563   7.616   5.146  0.0635 -0.7295  0.8670
  780MOL0     C 7565   4.549   7.636   4.995  0.3792  0.2635 -0.2584
  780MOL0     C 7566   4.405   7.654   4.951  0.0283 -0.1196  0.4075
  780MOL0     C 7567   4.292   7.680   4.913  0.2172  1.0418 -0.5243
  780MOL0     C 7568   4.620   7.609   5.650  0.1528 -0.3156  0.2344
  780MOL0     C 7569   4.673   7.582   5.781 -0.4138  0.1076  0.1448
  780MOL0     C 7570   4.707   7.716   5.864  0.1540 -0.2383  0.3080
  780MOL0     H 7571   5.025   7.308   6.055 -2.3528  0.4420 -1.4541
  780MOL0     H 7572   5.116   7.205   6.272  0.0686 -0.9616 -0.1203
  780MOL0     H 7573   4.832   7.108   6.580  1.1392 -2.4702 -0.3165
  780MOL0     H 7574   4.862   7.276   6.549 -0.1754 -1.4522  2.7593
  780MOL0     H 7575   5.097   7.234   6.695  0.6667 -0.2586  0.8087
  780MOL0     H 7576   4.952   7.244   6.792  1.4862 -1.3367  2.1911
  780MOL0     H 7577   4.903   7.015   6.799 -0.1030  0.9853 -0.5860
  780MOL0     H 7578   5.045   6.973   6.687 -0.2793 -0.4107 -0.7420
  780MOL0     H 7579   5.202   6.998   6.840  0.1933  2.3572  0.1886
  780MOL0     H 7580   5.107   7.131   6.913  1.8589  1.3696 -3.4715
  780MOL0     H 7581   4.960   6.933   7.010  0.9008 -1.2356  2.6721
  780MOL0     H 7582   5.124   6.935   7.062 -1.9691  0.4532  3.2765
  780MOL0     H 7583   4.979   6.765   6.849 -1.7141  0.5296  1.3831
  780MOL0     H 7584   5.150   6.778   6.844 -1.4530 -1.2356 -0.6151
  780MOL0     H 7585   5.000   6.697   7.102  0.6902  0.3442  1.3530
  780MOL0     H 7586   5.171   6.685   7.076  0.9524  1.4218 -2.5908
  780MOL0     H 7587   4.954   6.528   6.959 -0.0634  2.1324  0.2162
  780MOL0     H 7588   5.106   6.536   6.864 -1.1842 -2.3639 -0.1019
  780MOL0     H 7589   5.138   6.512   7.255  0.7621 -0.8049  1.9698
  780MOL0     H 7590   5.349   6.325   7.354  0.4985  0.7580 -2.8523
  780MOL0     H 7591   5.323   6.164   7.298  0.9252 -0.5890  2.0825
  780MOL0     H 7592   5.205   6.209   7.537  0.3778 -0.6017  0.8100
  780MOL0     H 7593   5.097   6.316   7.447  1.4815  0.8627  0.6133
  780MOL0     H 7594   5.042   6.120   7.305  2.9239  4.0041 -0.5988
  780MOL0     H 7595   5.134   6.003   7.390 -0.9464 -0.1514  0.5616
  780MOL0     H 7596   4.889   6.141   7.487 -0.5915 -0.6827 -1.1903
  780MOL0     H 7597   4.928   5.963   7.474  3.1613 -2.1088  2.4764
  780MOL0     H 7598   4.756   6.141   7.647  1.2400  0.8818 -0.2081
  780MOL0     H 7599   4.489   6.080   7.838  0.7954 -0.9949 -0.3150
  780MOL0     H 7600   4.547   6.169   7.716 -2.6688 -3.5689 -0.1286
  780MOL0     H 7601   4.561   6.233   7.885 -0.0073  1.3942  0.2788
  780MOL0     H 7602   4.748   5.740   8.304 -0.6138  1.2367 -1.9986
  780MOL0     H 7603   4.618   5.600   8.476  0.3815 -0.9167 -0.0652
  780MOL0     H 7604   4.475   5.367   8.506 -1.2778 -0.8064 -0.3377
  780MOL0     H 7605   4.459   5.520   8.602 -2.5492  0.1653  0.8578
  780MOL0     H 7606   4.253   5.508   8.652  1.8812  1.9273 -2.6957
  780MOL0     H 7607   4.220   5.355   8.554  1.4304 -1.7685  0.2295
  780MOL0     H 7608   4.388   5.368   8.807  0.7199  2.1676 -0.6269
  780MOL0     H 7609   4.406   5.241   8.682  0.3536  1.0553  0.9752
  780MOL0     H 7610   4.146   5.199   8.735 -0.7005 -1.0640  1.5781
  780MOL0     H 7611   4.172   5.345   8.838  0.9672  2.1897 -2.6543
  780MOL0     H 7612   4.312   5.212   8.988 -1.6638  0.2300  1.7277
  780MOL0     H 7613   4.156   5.120   8.953 -0.5950  0.3241 -0.2355
  780MOL0     H 7614   4.436   5.069   8.828 -1.0725  0.1246  0.3242
  780MOL0     H 7615   4.298   5.018   8.748  2.7120  1.4821 -0.9351
  780MOL0     H 7616   4.222   4.924   8.988  0.2513  2.7521  0.3573
  780MOL0     H 7617   4.381   4.967   9.035 -2.0872  2.2645 -0.5680
  780MOL0     H 7618   4.452   4.804   8.826 -1.2881 -1.6273 -1.9944
  780MOL0     H 7619   4.286   4.760   8.827  0.7426 -1.3705  2.0705
  780MOL0     H 7620   4.300   5.586   8.188  0.7825 -0.4151 -3.0901
  780MOL0     H 7621   4.424   5.737   8.039  1.9562  0.9907 -0.3836
  780MOL0     H 7622   4.913   5.846   8.007 -0.6622  2.1183  2.9368
  780MOL0     H 7623   5.053   5.899   7.840 -0.1306  0.6999 -1.0765
  780MOL0     H 7624   4.723   7.122   6.389 -0.6572  1.7088 -0.1541
  780MOL0     H 7625   4.638   7.165   6.162  0.3369  0.0438  1.9325
  780MOL0     H 7626   4.683   7.240   5.744  3.3228 -0.4766 -2.6143
  780MOL0     H 7627   4.599   7.300   5.519 -1.0885 -1.3240  1.8964
  780MOL0     H 7628   4.442   7.385   5.365  3.2720 -1.1545  0.5718
  780MOL0     H 7629   4.376   7.542   5.317  2.0231  1.7248 -0.9678
  780MOL0     H 7630   4.440   7.441   5.122  1.4199  1.3124 -1.8039
  780MOL0     H 7631   4.591   7.399   5.176 -1.8386 -0.8006 -4.3399
  780MOL0     H 7632   4.496   7.686   5.197 -1.9286 -1.6037 -0.4423
  780MOL0     H 7633   4.662   7.646   5.183  1.9477 -2.9692 -1.8640
  780MOL0     H 7634   4.593   7.551   4.942  0.1085  1.3586 -2.3758
  780MOL0     H 7635   4.597   7.721   4.947 -0.0622  0.2052 -0.8192
  780MOL0     H 7636   4.196   7.702   4.872  0.5596  2.8353 -0.4562
  780MOL0     H 7637   4.587   7.712   5.643 -0.6651 -0.3367  2.8664
  780MOL0     H 7638   4.611   7.745   5.909 -1.3619 -4.5185  0.2444
  780MOL0     H 7639   4.789   7.692   5.932 -1.5735 -2.0573  1.8703
  780MOL0     H 7640   4.739   7.803   5.805  0.7099  0.5961  1.7893
  781MOL0     O 7641   6.513   2.401   4.866  0.3186 -0.2542  0.2372
  781MOL0     C 7642   6.635   2.404   4.893  0.5970 -0.1420  0.9315
  781MOL0     O 7643   6.724   2.458   4.813 -0.4985  0.2009 -0.3446
  781MOL0     C 7644   6.677   2.510   4.696 -0.0142  0.0486 -1.0356
  781MOL0     C 7645   6.656   2.641   4.681  0.4118  0.1319 -0.0160
  781MOL0     C 7646   6.615   2.690   4.561  1.1740 -0.2865 -0.1316
  781MOL0     C 7647   6.595   2.603   4.457 -0.4671  1.3010 -0.5440
  781MOL0     O 7648   6.549   2.648   4.334 -0.3954  0.6385 -0.2759
  781MOL0     C 7649   6.429   2.731   4.327 -0.0636 -1.1516 -0.2009
  781MOL0     C 7650   6.320   2.683   4.230  0.4721  0.6810 -0.6846
  781MOL0     C 7651   6.361   2.700   4.086  0.2228 -0.2266 -0.2601
  781MOL0     C 7652   6.300   2.590   3.997 -0.4264  0.1430 -1.0400
  781MOL0     C 7653   6.289   2.603   3.849 -0.5834  0.3090  0.7679
  781MOL0     C 7654   6.190   2.497   3.801  0.1539 -0.0478 -0.8041
  781MOL0     C 7655   6.042   2.537   3.812  0.8116 -0.0720  0.9928
  781MOL0     C 7656   5.957   2.406   3.816  0.3079  0.0229 -0.2695
  781MOL0     N 7657   5.965   2.321   3.689 -0.4348  0.4631 -0.0327
  781MOL0     C 7658   5.939   2.184   3.679  0.2014  0.7400  1.1664
  781MOL0     C 7659   5.987   2.156   3.556  0.2174 -0.4548 -0.1205
  781MOL0     C 7660   5.996   2.008   3.502  0.0586  0.7470  0.3344
  781MOL0     C 7661   6.102   1.925   3.570  0.0512 -0.0577  0.1728
  781MOL0     C 7662   6.100   1.776   3.511  0.1865  0.8661 -0.2725
  781MOL0     C 7663   6.189   1.679   3.593  0.1500 -0.1126 -0.0115
  781MOL0     O 7664   6.195   1.555   3.531  0.0278  0.4462 -0.0260
  781MOL0     C 7665   6.250   1.447   3.603 -0.9770  0.8488 -1.3924
  781MOL0     C 7666   6.345   1.459   3.711  0.8384 -0.6195 -0.1673
  781MOL0     C 7667   6.379   1.343   3.785  0.8107 -0.6747  0.6971
  781MOL0     C 7668   6.461   1.355   3.902 -0.3891 -0.1934  0.7534
  781MOL0     C 7669   6.321   1.211   3.747 -0.2527 -0.6224 -0.3983
  781MOL0     C 7670   6.339   1.081   3.819 -0.8076  0.7227  0.5095
  781MOL0     O 7671   6.398   1.076   3.943  0.0150 -0.0632  0.1487
  781MOL0     C 7672   6.395   0.957   4.008  0.5596  0.1221  0.4162
  781MOL0     C 7673   6.309   0.949   4.122  0.0080  0.6005  0.6222
  781MOL0     C 7674   6.299   0.826   4.193  0.3999 -0.6228  0.2169
  781MOL0     C 7675   6.363   0.709   4.146  0.7132 -0.0348 -0.0217
  781MOL0     O 7676   6.355   0.575   4.187  0.6275 -0.3384 -0.6338
  781MOL0     C 7677   6.286   0.537   4.304 -0.2310  0.0344  0.3613
  781MOL0     C 7678   6.152   0.489   4.280  0.4473  0.0619  0.1632
  781MOL0     C 7679   6.140   0.364   4.194  0.2180  0.2596 -0.5284
  781MOL0     C 7680   6.000   0.306   4.194 -0.1147  0.0516 -0.0029
  781MOL0     C 7681   5.991   0.214   4.067  0.6718 -0.4761  0.1236
  781MOL0     C 7682   5.873   0.123   4.055  0.4265  0.4660  0.4531
  781MOL0     C 7683   5.899   0.044   3.921  0.8626  0.3022  0.3646
  781MOL0     C 7684   5.794  -0.047   3.882  0.2275  0.5921 -0.4910
  781MOL0    Cl 7685   5.643   0.032   3.823 -0.5695  0.2009 -0.2380
  781MOL0     C 7686   6.434   0.716   4.037 -0.8968  1.2909  0.1703
  781MOL0     C 7687   6.468   0.837   3.970 -0.3747  0.2170  0.3783
  781MOL0     O 7688   6.284   0.988   3.760  0.2902 -0.5817 -0.1437
  781MOL0     C 7689   6.234   1.213   3.640 -0.2643 -0.4600 -0.8410
  781MOL0     C 7690   6.210   1.326   3.572  0.4352  0.4750  0.5633
  781MOL0     N 7691   6.021   2.274   3.494 -0.3884  0.0298  0.0791
  781MOL0     N 7692   6.006   2.373   3.571  0.5895  0.8725 -0.5167
  781MOL0     C 7693   6.636   2.472   4.463  0.1145  0.1184  0.6346
  781MOL0     C 7694   6.684   2.421   4.583  0.1890  0.5159  0.0990
  781MOL0     C 7695   6.676   2.324   5.004  0.7847 -0.3523  0.3393
  781MOL0     C 7696   6.622   2.199   5.015 -0.5198  0.9604 -0.0177
  781MOL0     C 7697   6.678   2.111   5.110  0.4951  0.1342  0.2756
  781MOL0     C 7698   6.789   2.149   5.186 -0.0325  1.2851  0.3333
  781MOL0     O 7699   6.838   2.060   5.280  0.0608  0.3132  0.2880
  781MOL0     C 7700   6.963   2.085   5.349  0.3472 -0.2275  1.0311
  781MOL0     C 7701   7.017   1.960   5.429  0.2314 -0.0848 -0.7476
  781MOL0     C 7702   7.124   2.011   5.540  0.0607  0.5647  0.3514
  781MOL0     C 7703   7.173   1.888   5.616  0.8242 -0.7049 -0.7231
  781MOL0     C 7704   7.259   1.933   5.731  0.0975  0.3043 -0.0718
  781MOL0     C 7705   7.315   1.973   5.826 -0.1493 -1.0187  0.4219
  781MOL0     C 7706   6.843   2.272   5.165 -0.7458 -0.4754  1.2053
  781MOL0     C 7707   6.787   2.366   5.076 -0.5409  0.1478 -1.1726
  781MOL0     C 7708   6.832   2.508   5.079  0.6041  0.7260  0.2049
  781MOL0     H 7709   6.656   2.698   4.773  1.8512 -0.0552  0.1234
  781MOL0     H 7710   6.570   2.788   4.569  3.2881  0.7441 -0.2540
  781MOL0     H 7711   6.452   2.834   4.299 -0.3412 -1.2624 -0.8700
  781MOL0     H 7712   6.389   2.722   4.428 -1.7789 -0.3004 -0.7590
  781MOL0     H 7713   6.302   2.576   4.244 -1.5933  1.0022 -0.5201
  781MOL0     H 7714   6.223   2.729   4.252 -0.7519 -2.4105  1.1107
  781MOL0     H 7715   6.334   2.799   4.049 -0.4024 -0.7572 -1.2743
  781MOL0     H 7716   6.471   2.703   4.083  0.2560 -1.0178 -3.5885
  781MOL0     H 7717   6.355   2.500   4.025 -0.6456 -0.6904 -3.0644
  781MOL0     H 7718   6.196   2.576   4.026 -0.1666 -0.5328 -0.4008
  781MOL0     H 7719   6.384   2.595   3.796 -3.1024  0.7796 -4.4907
  781MOL0     H 7720   6.256   2.699   3.809 -0.5414 -0.1274 -0.3620
  781MOL0     H 7721   6.207   2.482   3.694  0.1309  1.3566 -1.0155
  781MOL0     H 7722   6.215   2.404   3.852 -0.2492 -1.7973 -3.5403
  781MOL0     H 7723   5.996   2.598   3.734  0.3964 -2.5680 -0.8614
  781MOL0     H 7724   6.024   2.583   3.909 -2.5347  0.8054  0.0674
  781MOL0     H 7725   5.995   2.337   3.891 -2.2345 -3.7221 -2.1216
  781MOL0     H 7726   5.850   2.421   3.833  0.5478 -0.4304  1.9363
  781MOL0     H 7727   5.886   2.120   3.748 -0.2468 -1.7510 -1.3220
  781MOL0     H 7728   5.997   2.002   3.393 -1.7738  1.1711  0.2599
  781MOL0     H 7729   5.901   1.963   3.533  1.3832 -1.4582  1.4592
  781MOL0     H 7730   6.200   1.970   3.560 -0.1378  0.8616  2.0398
  781MOL0     H 7731   6.077   1.932   3.677 -1.2001  0.6030 -0.1386
  781MOL0     H 7732   5.995   1.745   3.518  0.6662 -0.6458  0.8617
  781MOL0     H 7733   6.137   1.777   3.408  0.2606  0.7047 -0.2480
  781MOL0     H 7734   6.291   1.719   3.593  0.7594 -1.6133  0.2774
  781MOL0     H 7735   6.152   1.678   3.696  0.6766  1.8867  0.2535
  781MOL0     H 7736   6.389   1.555   3.734 -0.2778 -0.7911  3.2507
  781MOL0     H 7737   6.421   1.324   3.999 -4.1182  1.4207 -0.0912
  781MOL0     H 7738   6.493   1.456   3.929  0.9219 -0.1163 -0.9453
  781MOL0     H 7739   6.551   1.299   3.876  1.2019  2.0249  1.2264
  781MOL0     H 7740   6.254   1.039   4.147  0.4694  1.4399 -1.2542
  781MOL0     H 7741   6.229   0.807   4.274 -0.9838 -2.4774 -1.3238
  781MOL0     H 7742   6.345   0.453   4.342  0.4466  0.5626  0.4847
  781MOL0     H 7743   6.281   0.612   4.384 -0.7832  0.3214  0.0647
  781MOL0     H 7744   6.105   0.463   4.375 -3.1657  1.2641 -1.1088
  781MOL0     H 7745   6.085   0.568   4.244  1.7305  0.8451 -0.5879
  781MOL0     H 7746   6.219   0.294   4.223  0.9829 -0.0249 -3.0582
  781MOL0     H 7747   6.174   0.389   4.093 -3.3182 -0.7344 -2.1123
  781MOL0     H 7748   5.919   0.379   4.197  0.2456  0.5667  4.7767
  781MOL0     H 7749   5.986   0.253   4.288 -0.3605  2.1928  1.2459
  781MOL0     H 7750   5.991   0.283   3.982 -1.9726 -2.9950 -2.1605
  781MOL0     H 7751   6.080   0.150   4.066 -0.1873 -1.7348 -1.0541
  781MOL0     H 7752   5.777   0.174   4.041  0.8220  0.3274 -4.5230
  781MOL0     H 7753   5.876   0.056   4.142 -0.4474 -0.8580 -0.4974
  781MOL0     H 7754   5.989  -0.015   3.942  2.1148  2.4118  1.2314
  781MOL0     H 7755   5.933   0.107   3.839  4.7770 -1.3620  0.4746
  781MOL0     H 7756   5.769  -0.104   3.972  1.7277  3.5465  2.0037
  781MOL0     H 7757   5.828  -0.112   3.801 -0.0137  3.0729 -2.7197
  781MOL0     H 7758   6.467   0.622   3.995 -4.0084  0.8299 -1.5642
  781MOL0     H 7759   6.532   0.833   3.882  0.0185  0.4242  0.6509
  781MOL0     H 7760   6.176   1.127   3.608 -3.1254  1.3039 -0.7356
  781MOL0     H 7761   6.140   1.334   3.490  2.7846  2.7883 -1.3884
  781MOL0     H 7762   6.622   2.398   4.386  1.7271 -0.2005  0.6118
  781MOL0     H 7763   6.722   2.320   4.572 -0.3369  0.0190  2.3398
  781MOL0     H 7764   6.552   2.168   4.937  0.5293 -0.1251 -0.5500
  781MOL0     H 7765   6.650   2.008   5.128  2.3216 -0.2335  1.2713
  781MOL0     H 7766   7.038   2.130   5.282 -2.1982 -1.2520 -2.8105
  781MOL0     H 7767   6.949   2.163   5.425  1.4942 -0.3193  1.3693
  781MOL0     H 7768   7.083   1.905   5.360  2.5856  2.6114 -0.8580
  781MOL0     H 7769   6.941   1.897   5.475  1.6722 -0.6306  0.9952
  781MOL0     H 7770   7.203   2.060   5.482 -1.0829 -0.1173 -1.9110
  781MOL0     H 7771   7.072   2.071   5.614  0.2970 -2.1009  2.8494
  781MOL0     H 7772   7.236   1.821   5.557  1.9947 -1.6521  1.4536
  781MOL0     H 7773   7.093   1.835   5.669  1.2216  1.4839  2.3545
  781MOL0     H 7774   7.374   2.010   5.906 -1.4324  1.5735  0.2944
  781MOL0     H 7775   6.918   2.310   5.234 -0.9021  1.8988  0.1665
  781MOL0     H 7776   6.910   2.543   5.011  3.7095 -0.1296  3.0533
  781MOL0     H 7777   6.749   2.577   5.062  1.0399  0.7391 -2.1812
  781MOL0     H 7778   6.875   2.517   5.179  4.1091 -1.1043 -0.9668
  782MOL0     O 7779  10.849   9.871   2.149 -1.1185  0.4581  0.2789
  782MOL0     C 7780  10.733   9.846   2.148 -0.6300 -0.1344 -0.5409
  782MOL0     O 7781  10.673   9.795   2.039 -0.7464  0.2132  0.4007
  782MOL0     C 7782  10.742   9.717   1.947  0.3443  0.5698  0.1982
  782MOL0     C 7783  10.851   9.631   1.975  0.0922 -0.5647 -1.0668
  782MOL0     C 7784  10.918   9.559   1.883  0.0299 -0.2062  0.6889
  782MOL0     C 7785  10.877   9.552   1.752  0.1894 -0.7858  0.0262
  782MOL0     O 7786  10.931   9.480   1.654  0.0068 -0.3122  0.6123
  782MOL0     C 7787  11.054   9.408   1.674 -0.2695  0.1153  0.3312
  782MOL0     C 7788  11.036   9.269   1.730  0.8783  0.3380  0.1287
  782MOL0     C 7789  10.927   9.190   1.651  0.4308 -0.3579  0.3555
  782MOL0     C 7790  10.856   9.076   1.730 -0.8717  0.5045  0.4993
  782MOL0     C 7791  10.755   9.131   1.825  0.4991 -0.2768  0.4204
  782MOL0     C 7792  10.692   9.017   1.900 -0.4415 -0.1762 -0.8203
  782MOL0     C 7793  10.790   8.945   1.993 -0.3650  1.0018 -0.0732
  782MOL0     C 7794  10.839   9.028   2.110 -0.0920 -0.2621 -1.5768
  782MOL0     N 7795  10.943   8.956   2.194 -0.5813  0.6678  0.3540
  782MOL0     C 7796  10.920   8.871   2.292 -1.2278 -0.3623 -0.0786
  782MOL0     C 7797  11.041   8.821   2.324  0.5602 -0.1637  0.4671
  782MOL0     C 7798  11.063   8.739   2.446 -0.3560  0.3793  0.1192
  782MOL0     C 7799  11.181   8.787   2.530 -0.7045  0.2875 -0.1429
  782MOL0     C 7800  11.159   8.701   2.666  0.3014  0.4010  0.3984
  782MOL0     C 7801  11.221   8.772   2.786  0.8881  1.0986 -0.5189
  782MOL0     O 7802  11.195   8.910   2.789  0.3911  0.1912 -0.4733
  782MOL0     C 7803  11.077   8.976   2.804 -0.3788  1.0162 -0.9003
  782MOL0     C 7804  11.060   9.109   2.759  0.0130 -1.1370 -0.4940
  782MOL0     C 7805  10.942   9.179   2.770 -0.4437  0.5612  0.1464
  782MOL0     C 7806  10.935   9.329   2.735 -1.1700  0.3855 -0.6325
  782MOL0     C 7807  10.831   9.113   2.823  0.2903  0.0149  0.2935
  782MOL0     C 7808  10.693   9.168   2.838  0.0745 -0.2293 -0.0578
  782MOL0     O 7809  10.667   9.247   2.954 -0.2334  0.4534  0.2128
  782MOL0     C 7810  10.539   9.251   3.011  1.4309  0.0131  0.0146
  782MOL0     C 7811  10.408   9.243   2.936 -0.2426 -0.1768 -0.2962
  782MOL0     C 7812  10.294   9.246   3.009  0.9319 -0.3798  0.8927
  782MOL0     C 7813  10.285   9.263   3.151  0.0987  0.8385  0.3579
  782MOL0     O 7814  10.164   9.262   3.220 -0.0402  0.0871 -0.3212
  782MOL0     C 7815  10.065   9.161   3.180  0.2136  0.0068 -0.0703
  782MOL0     C 7816  10.014   9.062   3.293 -0.0201 -0.2982 -0.3921
  782MOL0     C 7817   9.889   9.114   3.370  0.7428 -0.0139 -0.2805
  782MOL0     C 7818   9.835   9.008   3.481  0.0578 -0.0803  0.0269
  782MOL0     C 7819   9.691   9.006   3.515  0.9035  0.6702 -0.4612
  782MOL0     C 7820   9.645   9.148   3.560 -0.0507 -0.1763  0.6149
  782MOL0     C 7821   9.512   9.187   3.604  0.3286  0.2430  0.2077
  782MOL0     C 7822   9.507   9.338   3.619  0.2791 -0.0244  0.1171
  782MOL0    Cl 7823   9.533   9.411   3.457 -0.3863 -0.0294  0.7228
  782MOL0     C 7824  10.404   9.283   3.222  0.1736 -0.6425 -0.0917
  782MOL0     C 7825  10.527   9.268   3.156 -0.0080  0.3328  0.1654
  782MOL0     O 7826  10.607   9.115   2.759 -0.4583 -0.1643 -0.0491
  782MOL0     C 7827  10.844   8.984   2.875 -0.1620 -1.0098 -0.2549
  782MOL0     C 7828  10.963   8.915   2.862  0.0529  1.4909  0.5831
  782MOL0     N 7829  11.138   8.876   2.243 -0.3590 -0.9088  0.2206
  782MOL0     N 7830  11.074   8.938   2.155 -0.4149  0.0790  0.1871
  782MOL0     C 7831  10.767   9.631   1.723  1.4018  0.2834 -0.5103
  782MOL0     C 7832  10.703   9.714   1.808 -0.0339 -1.0232 -0.1203
  782MOL0     C 7833  10.651   9.870   2.267  0.7276 -0.1335 -0.0053
  782MOL0     C 7834  10.555   9.770   2.307 -1.0634 -0.0851  0.6007
  782MOL0     C 7835  10.464   9.783   2.403 -0.7361  0.0048 -0.6573
  782MOL0     C 7836  10.456   9.903   2.463 -0.4478 -0.3784  0.9779
  782MOL0     O 7837  10.365   9.916   2.563  0.5043 -0.1895  0.0880
  782MOL0     C 7838  10.427   9.936   2.692  0.0294  0.5713 -1.2668
  782MOL0     C 7839  10.338   9.976   2.814 -0.1148  0.7481 -0.1513
  782MOL0     C 7840  10.202   9.903   2.845  0.1078  0.9050 -0.0589
  782MOL0     C 7841  10.199   9.754   2.828  0.5834 -0.4466  0.1709
  782MOL0     C 7842  10.243   9.670   2.941 -0.1127 -0.2957 -0.3973
  782MOL0     C 7843  10.271   9.609   3.045 -0.2021 -0.1318  0.4909
  782MOL0     C 7844  10.537  10.015   2.422 -0.5243 -0.0083 -0.4004
  782MOL0     C 7845  10.635  10.002   2.321  0.5519  0.5609  0.0450
  782MOL0     C 7846  10.722  10.120   2.283  0.3950 -0.7247 -0.4336
  782MOL0     H 7847  10.895   9.626   2.074 -0.1530 -2.1904 -1.0069
  782MOL0     H 7848  11.000   9.501   1.925 -1.0652 -1.4396  1.1818
  782MOL0     H 7849  11.120   9.461   1.743 -3.1279  1.1821  2.4715
  782MOL0     H 7850  11.102   9.404   1.576 -1.4605  1.3214 -0.3306
  782MOL0     H 7851  11.134   9.220   1.729  0.6901 -0.0386 -0.3341
  782MOL0     H 7852  11.013   9.283   1.836  0.7866 -1.0774  0.3132
  782MOL0     H 7853  10.848   9.255   1.613  1.0642 -0.2384 -0.8034
  782MOL0     H 7854  10.959   9.148   1.555 -2.1648 -1.8841  0.0523
  782MOL0     H 7855  10.822   9.010   1.649  0.4222  2.0100 -1.3562
  782MOL0     H 7856  10.930   9.019   1.787  0.4982  1.9036  0.1656
  782MOL0     H 7857  10.674   9.172   1.765  1.2900  3.1384  1.4443
  782MOL0     H 7858  10.796   9.200   1.900  0.5227  0.8780 -0.6245
  782MOL0     H 7859  10.609   9.051   1.963 -1.1249 -1.1937 -1.1401
  782MOL0     H 7860  10.648   8.955   1.821 -0.8706  1.7127 -2.1428
  782MOL0     H 7861  10.886   8.911   1.953 -0.2165 -1.0152  1.7990
  782MOL0     H 7862  10.737   8.866   2.048  1.8445 -0.4611  0.0765
  782MOL0     H 7863  10.878   9.123   2.073  1.2362  0.4708  1.4294
  782MOL0     H 7864  10.748   9.047   2.167  0.8460 -0.5828  0.0965
  782MOL0     H 7865  10.822   8.860   2.336 -0.4441  0.2877  1.9398
  782MOL0     H 7866  11.069   8.632   2.424 -2.5204  0.5927 -1.9984
  782MOL0     H 7867  10.968   8.765   2.494 -1.6065  1.9424 -2.8775
  782MOL0     H 7868  11.277   8.766   2.482 -0.2238 -3.3091  1.9533
  782MOL0     H 7869  11.169   8.894   2.546 -2.0390 -0.0620  1.6264
  782MOL0     H 7870  11.055   8.674   2.686  0.7519 -4.7780 -2.4491
  782MOL0     H 7871  11.212   8.605   2.662  0.2413  0.3947 -3.4777
  782MOL0     H 7872  11.189   8.725   2.879 -2.0006 -0.4958 -2.1501
  782MOL0     H 7873  11.328   8.750   2.785  0.0287 -4.7107 -1.3089
  782MOL0     H 7874  11.141   9.167   2.715  2.1334 -1.9929  2.0355
  782MOL0     H 7875  10.968   9.337   2.631 -0.5863 -0.1393 -0.4956
  782MOL0     H 7876  10.993   9.394   2.801 -2.5427  0.6009  0.3875
  782MOL0     H 7877  10.833   9.364   2.751 -0.7931  0.4837  1.9412
  782MOL0     H 7878  10.409   9.239   2.827  0.3379 -0.2389 -0.2933
  782MOL0     H 7879  10.206   9.234   2.948  1.0172  0.0591  0.6780
  782MOL0     H 7880   9.979   9.221   3.148  0.9393  2.7779  2.7010
  782MOL0     H 7881  10.106   9.099   3.100  1.3253  0.4435  0.1334
  782MOL0     H 7882   9.979   8.971   3.243 -3.8022  1.1473 -0.6724
  782MOL0     H 7883  10.094   9.038   3.364  1.2388 -0.4398 -1.7915
  782MOL0     H 7884   9.815   9.131   3.291  1.5709  0.1961 -1.0230
  782MOL0     H 7885   9.908   9.211   3.418  1.3079  0.3286 -1.1618
  782MOL0     H 7886   9.900   9.024   3.568  0.1134 -2.6348  0.5119
  782MOL0     H 7887   9.869   8.911   3.446  5.6184  0.2687  3.1633
  782MOL0     H 7888   9.625   8.980   3.431  1.4848 -1.2599 -0.3579
  782MOL0     H 7889   9.671   8.938   3.599  0.1169  5.1798  3.4249
  782MOL0     H 7890   9.674   9.219   3.481 -0.1781  1.2757  1.8157
  782MOL0     H 7891   9.716   9.182   3.636  1.6115  1.2217 -1.4593
  782MOL0     H 7892   9.492   9.146   3.704 -4.2514  3.0207  0.7344
  782MOL0     H 7893   9.440   9.152   3.530  0.0528  2.1105 -0.4744
  782MOL0     H 7894   9.586   9.373   3.686 -0.3780  2.2611 -0.2289
  782MOL0     H 7895   9.411   9.369   3.660  0.8647 -1.0288  2.4439
  782MOL0     H 7896  10.403   9.293   3.330  0.2529  2.0179 -0.2742
  782MOL0     H 7897  10.619   9.274   3.212  0.7911 -1.6152 -0.8560
  782MOL0     H 7898  10.759   8.940   2.926 -1.0918 -2.2210 -2.6736
  782MOL0     H 7899  10.975   8.813   2.895  2.6885  1.0541 -1.3914
  782MOL0     H 7900  10.717   9.603   1.631 -3.7210  2.1119  1.3702
  782MOL0     H 7901  10.619   9.772   1.769  1.9334 -0.4588 -4.0905
  782MOL0     H 7902  10.563   9.673   2.257  1.0250 -0.5348  1.6746
  782MOL0     H 7903  10.392   9.702   2.411  1.7150 -2.2046  0.4423
  782MOL0     H 7904  10.477   9.841   2.715  1.8578  1.6058 -0.8121
  782MOL0     H 7905  10.504  10.013   2.683  0.3602  0.6964  1.6135
  782MOL0     H 7906  10.312  10.083   2.818 -0.5686  0.5954  2.3200
  782MOL0     H 7907  10.401   9.976   2.904  1.2856 -0.7573 -1.0728
  782MOL0     H 7908  10.182   9.923   2.951  1.7337 -1.9234  0.9022
  782MOL0     H 7909  10.125   9.945   2.780 -0.8423 -0.7131 -0.0380
  782MOL0     H 7910  10.248   9.726   2.734 -0.7941  1.9788 -1.3855
  782MOL0     H 7911  10.092   9.735   2.826 -0.4402  3.9453  1.7039
  782MOL0     H 7912  10.276   9.556   3.137 -0.2516 -0.3041  0.3950
  782MOL0     H 7913  10.522  10.113   2.468 -0.7302  0.2119 -0.9306
  782MOL0     H 7914  10.692  10.203   2.347  2.2732 -1.2769  1.2529
  782MOL0     H 7915  10.826  10.095   2.304  0.8309  0.8169 -0.6631
  782MOL0     H 7916  10.721  10.132   2.174  2.1342  0.0632 -0.3893
  783MOL0     O 7917   6.585   6.503   4.434 -0.5778 -0.0804  0.9188
  783MOL0     C 7918   6.684   6.498   4.508 -0.0945 -0.7001  0.1085
  783MOL0     O 7919   6.778   6.597   4.521  0.3337  0.1070 -0.1100
  783MOL0     C 7920   6.753   6.725   4.487  0.0674 -0.4239 -0.5473
  783MOL0     C 7921   6.682   6.772   4.383 -0.3956  0.1035 -0.4456
  783MOL0     C 7922   6.669   6.909   4.357  0.5988  0.1837 -0.6142
  783MOL0     C 7923   6.730   7.007   4.440  0.0770  0.4477  0.0100
  783MOL0     O 7924   6.708   7.133   4.401  0.0336  0.3443  0.6334
  783MOL0     C 7925   6.786   7.232   4.460  0.9768  0.5426 -0.8751
  783MOL0     C 7926   6.737   7.360   4.403  0.9981 -1.3106 -0.4789
  783MOL0     C 7927   6.740   7.363   4.248 -0.4725  0.2067 -0.5652
  783MOL0     C 7928   6.882   7.371   4.189 -0.0670  0.3137  0.3250
  783MOL0     C 7929   6.888   7.383   4.039 -0.2591 -0.2067 -0.2778
  783MOL0     C 7930   6.826   7.262   3.969 -1.1343  0.5000  1.3555
  783MOL0     C 7931   6.892   7.126   4.009 -0.2531  0.1260  0.3107
  783MOL0     C 7932   7.047   7.110   4.005  0.9737  0.2023  1.1865
  783MOL0     N 7933   7.113   7.158   3.886 -0.4891 -1.3836  0.5887
  783MOL0     C 7934   7.238   7.220   3.887 -0.1229 -0.3916  0.4020
  783MOL0     C 7935   7.258   7.239   3.753  0.3926  1.1551  0.8503
  783MOL0     C 7936   7.380   7.296   3.686 -0.1717  0.1720 -0.4132
  783MOL0     C 7937   7.351   7.368   3.555  0.2791 -0.4162 -0.0140
  783MOL0     C 7938   7.475   7.410   3.481 -0.8037 -0.4442 -1.0485
  783MOL0     C 7939   7.451   7.433   3.324  0.0381  0.1177 -0.1537
  783MOL0     O 7940   7.577   7.458   3.268  0.1649 -0.9234 -0.6231
  783MOL0     C 7941   7.655   7.567   3.301  0.6510  0.0828 -0.3981
  783MOL0     C 7942   7.612   7.694   3.346 -0.0257 -0.7135  0.5269
  783MOL0     C 7943   7.699   7.802   3.353 -0.3826 -0.1941  1.2916
  783MOL0     C 7944   7.637   7.935   3.388 -0.9061 -1.0804  0.9377
  783MOL0     C 7945   7.834   7.788   3.334 -0.8842  0.4284 -0.2699
  783MOL0     C 7946   7.937   7.908   3.335  0.9908 -0.3797 -0.1389
  783MOL0     O 7947   8.060   7.876   3.286  0.3776  0.3490  0.0725
  783MOL0     C 7948   8.164   7.965   3.284 -0.0633 -0.7878 -0.3735
  783MOL0     C 7949   8.153   8.104   3.271  0.0815  0.1089 -0.0070
  783MOL0     C 7950   8.275   8.181   3.275  0.0906 -0.3392 -0.0557
  783MOL0     C 7951   8.399   8.114   3.299 -0.8531 -0.1227  1.7789
  783MOL0     O 7952   8.507   8.201   3.284  0.1666  0.9188 -0.8014
  783MOL0     C 7953   8.633   8.138   3.285 -0.3487  0.2029 -0.5789
  783MOL0     C 7954   8.740   8.227   3.257  0.1225 -0.2945 -0.4532
  783MOL0     C 7955   8.757   8.253   3.114 -0.3399 -0.8569 -0.2076
  783MOL0     C 7956   8.830   8.388   3.099  0.3336 -0.0137 -0.3253
  783MOL0     C 7957   8.848   8.410   2.950  0.3704 -1.2595 -0.0045
  783MOL0     C 7958   8.886   8.560   2.913 -0.4544 -0.4127  0.2650
  783MOL0     C 7959   8.952   8.570   2.772 -0.2850 -0.1025  0.3726
  783MOL0     C 7960   8.973   8.710   2.729  0.7649  0.2327 -0.2108
  783MOL0    Cl 7961   9.118   8.754   2.803 -0.6724 -0.3490  0.0066
  783MOL0     C 7962   8.405   7.963   3.303  0.2514 -0.4429  0.2040
  783MOL0     C 7963   8.287   7.897   3.294 -0.0173  0.5644  0.6017
  783MOL0     O 7964   7.906   8.011   3.397 -0.4075  0.0023  0.8147
  783MOL0     C 7965   7.880   7.660   3.295  0.4552  0.2976  0.1620
  783MOL0     C 7966   7.793   7.549   3.280  1.1979  0.6686  0.1584
  783MOL0     N 7967   7.158   7.174   3.673  0.9275  0.5280 -0.7039
  783MOL0     N 7968   7.076   7.128   3.766  0.9322 -0.1438  1.5131
  783MOL0     C 7969   6.811   6.963   4.539 -0.0656 -0.0785 -1.0431
  783MOL0     C 7970   6.825   6.823   4.554 -0.0711 -0.1548 -0.2513
  783MOL0     C 7971   6.725   6.367   4.577  0.0015  0.1099 -0.0756
  783MOL0     C 7972   6.760   6.258   4.490  0.5668  0.1668  0.7914
  783MOL0     C 7973   6.788   6.127   4.543 -1.0646 -0.7196  0.3025
  783MOL0     C 7974   6.778   6.109   4.679  0.1042  0.5459  0.2720
  783MOL0     O 7975   6.800   5.988   4.738 -0.3092  0.1263 -0.1665
  783MOL0     C 7976   6.689   5.918   4.787 -0.6324 -0.1309  0.7841
  783MOL0     C 7977   6.739   5.805   4.869 -0.2933  0.2059 -0.2356
  783MOL0     C 7978   6.818   5.702   4.793  0.0855  1.0274  0.3170
  783MOL0     C 7979   6.908   5.609   4.884  0.2673  0.2682  0.4672
  783MOL0     C 7980   6.973   5.506   4.794 -0.0368  0.0829  0.8559
  783MOL0     C 7981   7.018   5.411   4.729  0.2967 -0.0363 -0.5267
  783MOL0     C 7982   6.739   6.220   4.764 -0.0992  0.2116  0.2870
  783MOL0     C 7983   6.729   6.346   4.711 -0.0185 -0.1345  0.1017
  783MOL0     C 7984   6.705   6.457   4.807 -0.0962 -0.3083  0.4072
  783MOL0     H 7985   6.629   6.706   4.316 -3.7632 -0.2357  2.3072
  783MOL0     H 7986   6.617   6.937   4.266 -1.8673 -0.4810  0.5090
  783MOL0     H 7987   6.892   7.222   4.433  0.5962  0.6970 -2.5141
  783MOL0     H 7988   6.770   7.239   4.568  0.8432 -2.5549 -0.6121
  783MOL0     H 7989   6.640   7.384   4.448  1.1657  0.4490 -0.9599
  783MOL0     H 7990   6.800   7.444   4.435 -0.2614 -0.9785  1.2593
  783MOL0     H 7991   6.682   7.277   4.213 -0.2410 -0.1320 -0.1213
  783MOL0     H 7992   6.676   7.446   4.217 -2.1099 -0.8170 -0.0455
  783MOL0     H 7993   6.930   7.461   4.228  2.2417 -0.7886  0.2121
  783MOL0     H 7994   6.934   7.285   4.231 -0.1253  1.0707  2.0194
  783MOL0     H 7995   6.992   7.404   4.011  0.5826 -4.7361 -1.2555
  783MOL0     H 7996   6.825   7.471   4.024 -1.2622 -0.6368  1.2683
  783MOL0     H 7997   6.719   7.247   3.980 -1.0167 -4.4004 -1.1353
  783MOL0     H 7998   6.843   7.287   3.864  4.6619 -0.9906  1.5524
  783MOL0     H 7999   6.856   7.051   3.938  0.7550  0.5906 -0.7201
  783MOL0     H 8000   6.860   7.098   4.110  0.9765  0.4868  0.8226
  783MOL0     H 8001   7.085   7.156   4.096  1.2267  0.7286  0.8216
  783MOL0     H 8002   7.078   7.005   4.006 -0.1454 -0.1667 -0.0960
  783MOL0     H 8003   7.302   7.250   3.969 -0.5833  0.9178  0.3124
  783MOL0     H 8004   7.458   7.220   3.681  0.2954  0.5920  0.2385
  783MOL0     H 8005   7.420   7.376   3.749 -1.3225  1.9500 -1.8356
  783MOL0     H 8006   7.301   7.301   3.485  0.0803 -0.6970  0.3889
  783MOL0     H 8007   7.295   7.460   3.571 -1.3140 -1.3495 -0.0322
  783MOL0     H 8008   7.523   7.496   3.529  1.6267 -1.2303 -1.9312
  783MOL0     H 8009   7.549   7.330   3.491  0.2435  0.5846 -0.3449
  783MOL0     H 8010   7.407   7.337   3.295 -1.5991  0.0761  2.2063
  783MOL0     H 8011   7.367   7.502   3.312 -0.8513 -0.5172  1.9361
  783MOL0     H 8012   7.507   7.709   3.371 -0.3596 -2.3316  0.2392
  783MOL0     H 8013   7.531   7.947   3.363 -0.1892 -1.1191 -2.6122
  783MOL0     H 8014   7.687   8.016   3.334  0.4339 -0.5869  2.7964
  783MOL0     H 8015   7.652   7.950   3.495 -1.3607 -1.6948  1.0930
  783MOL0     H 8016   8.058   8.152   3.254 -0.4950 -0.9109  0.2492
  783MOL0     H 8017   8.273   8.289   3.265 -1.0980 -0.3643 -0.2797
  783MOL0     H 8018   8.653   8.111   3.389  2.1378  0.0772 -1.0193
  783MOL0     H 8019   8.634   8.058   3.211 -1.5501 -0.7479  0.3857
  783MOL0     H 8020   8.723   8.322   3.310 -0.1638  0.1289 -1.2852
  783MOL0     H 8021   8.827   8.179   3.304 -0.3614  0.1480  0.9638
  783MOL0     H 8022   8.664   8.273   3.061  0.8649 -2.4704 -3.1018
  783MOL0     H 8023   8.813   8.168   3.074  2.7101  1.3952 -1.1313
  783MOL0     H 8024   8.927   8.379   3.150 -0.1051  0.4308  0.6126
  783MOL0     H 8025   8.782   8.481   3.129  4.5025  2.2096  0.2653
  783MOL0     H 8026   8.920   8.338   2.911  0.4346 -0.7964 -0.7478
  783MOL0     H 8027   8.754   8.378   2.903 -0.1887 -2.8435  2.0242
  783MOL0     H 8028   8.951   8.608   2.986  0.8195 -0.7398 -0.6283
  783MOL0     H 8029   8.793   8.618   2.909  1.1964  2.3836  0.1968
  783MOL0     H 8030   8.890   8.520   2.696  0.1876  1.9593 -1.4955
  783MOL0     H 8031   9.048   8.522   2.752  1.5279  3.1749  0.4656
  783MOL0     H 8032   8.891   8.774   2.764 -0.0578 -0.4088 -0.8904
  783MOL0     H 8033   8.970   8.719   2.620 -3.2620 -1.6482 -0.4680
  783MOL0     H 8034   8.503   7.919   3.319 -0.4377 -1.3673  2.3563
  783MOL0     H 8035   8.279   7.790   3.306 -0.0491  0.5657  0.5927
  783MOL0     H 8036   7.987   7.653   3.280  0.6711  0.6888  1.3323
  783MOL0     H 8037   7.843   7.460   3.246  3.0615  1.4092  0.8149
  783MOL0     H 8038   6.856   7.024   4.617 -1.6083  0.6236 -0.6642
  783MOL0     H 8039   6.902   6.778   4.615  0.1741 -0.7846 -1.0099
  783MOL0     H 8040   6.752   6.253   4.382 -0.8289 -2.7154  0.9306
  783MOL0     H 8041   6.808   6.039   4.482 -2.9339  0.2101 -1.8021
  783MOL0     H 8042   6.609   5.979   4.830  0.0318  2.5666 -1.5359
  783MOL0     H 8043   6.644   5.882   4.695  2.9703 -3.5001  0.0683
  783MOL0     H 8044   6.655   5.749   4.910  1.0013 -1.3465  0.3911
  783MOL0     H 8045   6.797   5.859   4.944 -1.9912  3.7278 -1.2109
  783MOL0     H 8046   6.743   5.636   4.748  1.0934 -0.4450  0.7288
  783MOL0     H 8047   6.885   5.749   4.721 -1.0477  0.9727 -0.7966
  783MOL0     H 8048   6.862   5.569   4.975  0.2995  2.2347  1.4043
  783MOL0     H 8049   6.991   5.667   4.926  2.9515 -4.3537  2.3200
  783MOL0     H 8050   7.049   5.337   4.657 -1.4938  0.9309 -2.4168
  783MOL0     H 8051   6.732   6.197   4.870 -0.0764 -1.6184 -0.0609
  783MOL0     H 8052   6.597   6.467   4.823 -0.1503 -0.0279 -0.1038
  783MOL0     H 8053   6.744   6.451   4.908 -0.8602  3.7434  1.1014
  783MOL0     H 8054   6.748   6.552   4.773 -0.6101 -0.9233 -2.1889
  784MOL0     O 8055   9.872   7.388  10.720 -0.2149 -0.7537 -1.0815
  784MOL0     C 8056   9.912   7.478  10.646  0.0366 -0.4434 -0.1098
  784MOL0     O 8057   9.979   7.591  10.682 -0.1792  0.4307  0.9253
  784MOL0     C 8058   9.995   7.639  10.807  0.2588 -0.7667 -0.2108
  784MOL0     C 8059  10.002   7.572  10.932  0.3715  0.8799  0.4236
  784MOL0     C 8060  10.011   7.639  11.056 -0.0544 -0.3901  0.5646
  784MOL0     C 8061  10.004   7.781  11.051 -0.5895  0.4043 -0.2783
  784MOL0     O 8062   9.991   7.843  11.165  0.4045  0.7140 -0.4817
  784MOL0     C 8063  10.102   7.824  11.261  0.3764  0.1403  0.5847
  784MOL0     C 8064  10.086   7.947  11.355  1.1443  0.2126 -0.5619
  784MOL0     C 8065  10.214   8.036  11.336  0.5461 -0.3416 -0.4785
  784MOL0     C 8066  10.232   8.159  11.420  0.4465 -0.8397  0.4666
  784MOL0     C 8067  10.372   8.225  11.409  0.2812 -0.4666 -0.0832
  784MOL0     C 8068  10.365   8.346  11.509 -0.6181  0.7972 -0.3753
  784MOL0     C 8069  10.404   8.313  11.649 -0.6718  0.7077 -0.2643
  784MOL0     C 8070  10.345   8.396  11.758  0.5924  0.0290 -0.4449
  784MOL0     N 8071  10.204   8.432  11.741  0.2108 -0.0638  0.6226
  784MOL0     C 8072  10.154   8.545  11.675 -0.1388  0.0903  0.8045
  784MOL0     C 8073  10.020   8.527  11.665  0.5864 -0.4554 -1.0717
  784MOL0     C 8074   9.926   8.608  11.589  0.6689 -0.2694  0.1168
  784MOL0     C 8075   9.856   8.709  11.677 -0.3220 -1.4337  0.2137
  784MOL0     C 8076   9.739   8.652  11.759  0.3984  0.3383  0.5366
  784MOL0     C 8077   9.651   8.774  11.806 -0.2104 -0.1158 -0.0975
  784MOL0     O 8078   9.525   8.731  11.862  0.4320 -0.7728 -0.3198
  784MOL0     C 8079   9.508   8.697  11.997  0.1147 -0.0329 -0.1892
  784MOL0     C 8080   9.616   8.685  12.088  0.5941  0.3142  0.3309
  784MOL0     C 8081   9.590   8.660  12.224 -0.0991  0.0512 -0.8116
  784MOL0     C 8082   9.702   8.637  12.321  0.6252 -0.0102  0.5288
  784MOL0     C 8083   9.454   8.645  12.267 -0.0825  0.1499  1.0429
  784MOL0     C 8084   9.404   8.600  12.396  0.2658 -0.1447  0.0378
  784MOL0     O 8085   9.466   8.662  12.501 -0.6319  0.0436  0.0720
  784MOL0     C 8086   9.459   8.597  12.625 -0.3693 -0.3064 -0.7926
  784MOL0     C 8087   9.446   8.673  12.739 -1.7022 -0.2891  0.1832
  784MOL0     C 8088   9.440   8.621  12.871 -0.3657  0.7284  0.4007
  784MOL0     C 8089   9.436   8.480  12.891  1.1094  0.0167 -0.3468
  784MOL0     O 8090   9.412   8.433  13.017  0.1085 -0.0529  1.0383
  784MOL0     C 8091   9.486   8.322  13.060  0.8863 -0.2358  0.2328
  784MOL0     C 8092   9.404   8.261  13.177  0.2344 -0.3233  0.0917
  784MOL0     C 8093   9.299   8.156  13.146  0.5786 -0.0658 -0.3290
  784MOL0     C 8094   9.169   8.223  13.102 -0.3414  0.2426 -0.9788
  784MOL0     C 8095   9.058   8.123  13.079 -1.0505  0.9905  0.1957
  784MOL0     C 8096   8.958   8.168  12.980  0.4688  0.7490  0.4130
  784MOL0     C 8097   8.863   8.048  12.963 -0.3264  0.9353 -0.6382
  784MOL0     C 8098   8.720   8.090  12.922 -0.1614  0.4156 -0.0525
  784MOL0    Cl 8099   8.751   8.110  12.744 -0.5615  0.1424  0.0887
  784MOL0     C 8100   9.433   8.404  12.770 -0.2738  0.4327  0.5262
  784MOL0     C 8101   9.455   8.457  12.645 -0.3768  0.3250  0.6541
  784MOL0     O 8102   9.300   8.543  12.399  0.1866 -0.3159  0.8072
  784MOL0     C 8103   9.353   8.674  12.170  0.2822  0.6429 -0.6528
  784MOL0     C 8104   9.376   8.693  12.040  0.7004  0.3970 -0.2970
  784MOL0     N 8105   9.983   8.403  11.724 -0.7648 -0.3535  0.1190
  784MOL0     N 8106  10.091   8.349  11.768  0.2398  0.0030  0.2121
  784MOL0     C 8107   9.985   7.846  10.931 -0.9950  0.8619 -0.6760
  784MOL0     C 8108   9.990   7.777  10.812 -0.6168  0.2049 -0.6657
  784MOL0     C 8109   9.903   7.452  10.503 -0.0669 -0.3143 -0.1482
  784MOL0     C 8110  10.014   7.474  10.428 -0.4226 -0.1885  0.2779
  784MOL0     C 8111  10.028   7.429  10.295 -0.2939  0.7924 -0.0603
  784MOL0     C 8112   9.929   7.363  10.228 -1.1572 -0.0684 -0.0264
  784MOL0     O 8113   9.935   7.309  10.095  0.1755 -0.1151  0.0119
  784MOL0     C 8114  10.064   7.310  10.022 -0.2122 -0.0460 -0.0519
  784MOL0     C 8115  10.099   7.451   9.973 -0.1846  0.8425  0.0014
  784MOL0     C 8116   9.980   7.517   9.906 -0.0413 -1.0284  0.6188
  784MOL0     C 8117   9.988   7.665   9.860  0.2821 -0.0860 -0.1921
  784MOL0     C 8118  10.039   7.665   9.724 -0.3053  0.4267  0.6077
  784MOL0     C 8119  10.091   7.684   9.617 -0.1022 -0.1986  0.7907
  784MOL0     C 8120   9.811   7.341  10.302  0.4031  0.3793 -0.2435
  784MOL0     C 8121   9.797   7.383  10.435 -0.2183 -0.8834 -0.9961
  784MOL0     C 8122   9.654   7.360  10.493  0.2876  0.8274  0.3904
  784MOL0     H 8123  10.011   7.465  10.941  0.2440  0.6218 -1.9375
  784MOL0     H 8124  10.008   7.586  11.150  1.4193 -0.8446  0.3759
  784MOL0     H 8125  10.198   7.830  11.209 -0.9929  4.8980 -1.9755
  784MOL0     H 8126  10.085   7.738  11.326 -1.2292 -0.5647 -0.6811
  784MOL0     H 8127   9.992   8.002  11.350  2.4244  2.5671 -0.2606
  784MOL0     H 8128  10.096   7.912  11.458  0.7827  0.4776 -0.4371
  784MOL0     H 8129  10.305   7.977  11.347  0.6465  0.1508  1.7264
  784MOL0     H 8130  10.211   8.065  11.230  0.4433  1.5755  0.0039
  784MOL0     H 8131  10.151   8.226  11.389  2.5537  2.4397  1.4674
  784MOL0     H 8132  10.208   8.129  11.522 -0.8238 -0.5154  0.2746
  784MOL0     H 8133  10.378   8.260  11.306  2.2586  0.1745  0.1964
  784MOL0     H 8134  10.447   8.149  11.433 -0.3001 -1.1874 -0.5315
  784MOL0     H 8135  10.433   8.422  11.470 -0.9500  0.9768 -0.6078
  784MOL0     H 8136  10.263   8.387  11.508 -1.7302 -1.7819 -0.1718
  784MOL0     H 8137  10.512   8.331  11.656 -0.8517  3.2547 -2.4455
  784MOL0     H 8138  10.384   8.208  11.672  1.4239 -0.3756 -2.8721
  784MOL0     H 8139  10.347   8.336  11.850  1.0562  0.2032 -0.3377
  784MOL0     H 8140  10.400   8.489  11.776 -2.5617  1.7472  1.1211
  784MOL0     H 8141  10.227   8.619  11.645  0.9960  0.9249  5.0116
  784MOL0     H 8142   9.847   8.542  11.555 -3.5973  3.8706  0.8550
  784MOL0     H 8143   9.974   8.648  11.499 -0.1759  0.6063  0.0361
  784MOL0     H 8144   9.934   8.765  11.729 -0.1252  0.8937 -2.3415
  784MOL0     H 8145   9.812   8.779  11.604  2.0287  1.1677  1.1182
  784MOL0     H 8146   9.686   8.580  11.695  0.6647 -1.3308  2.1279
  784MOL0     H 8147   9.772   8.610  11.854 -0.3978  0.6119  0.9362
  784MOL0     H 8148   9.716   8.829  11.874  1.3763 -0.8727 -0.9359
  784MOL0     H 8149   9.637   8.832  11.714 -1.6109  0.8290  0.6753
  784MOL0     H 8150   9.722   8.691  12.064  1.0481  0.3853  2.2270
  784MOL0     H 8151   9.681   8.657  12.427 -0.3206  3.0649 -0.1170
  784MOL0     H 8152   9.779   8.714  12.318  2.0551 -1.3647  1.1654
  784MOL0     H 8153   9.747   8.541  12.297 -0.8316 -0.4026 -0.7869
  784MOL0     H 8154   9.436   8.779  12.718  0.7169  0.3955  2.0874
  784MOL0     H 8155   9.437   8.699  12.946 -1.1932  0.5719  0.5354
  784MOL0     H 8156   9.500   8.249  12.979 -2.3613 -2.2310  1.2895
  784MOL0     H 8157   9.585   8.345  13.102  0.5301  0.3652  0.7725
  784MOL0     H 8158   9.467   8.224  13.258 -2.2838  1.0521  2.9057
  784MOL0     H 8159   9.363   8.350  13.228  0.6525 -0.1382  0.1039
  784MOL0     H 8160   9.280   8.097  13.237  1.3007 -2.1606 -1.4581
  784MOL0     H 8161   9.336   8.081  13.075 -1.8558 -1.2793 -0.4065
  784MOL0     H 8162   9.192   8.273  13.008 -0.1541  2.7921  0.3219
  784MOL0     H 8163   9.131   8.294  13.176 -0.6193 -0.0461 -0.8410
  784MOL0     H 8164   9.101   8.031  13.038 -1.1528  1.9325 -2.2185
  784MOL0     H 8165   9.017   8.103  13.178  2.5983  0.9153  1.8329
  784MOL0     H 8166   9.009   8.201  12.889 -0.0412 -1.7231 -0.8665
  784MOL0     H 8167   8.911   8.250  13.035  1.0834  0.1388  1.9089
  784MOL0     H 8168   8.854   7.990  13.055 -2.3285 -0.0313 -1.3946
  784MOL0     H 8169   8.897   7.988  12.878 -2.6488  1.6725 -2.1654
  784MOL0     H 8170   8.693   8.189  12.959 -1.3061  1.7385 -3.9320
  784MOL0     H 8171   8.639   8.021  12.944 -1.2663  1.0226 -1.9699
  784MOL0     H 8172   9.427   8.299  12.796 -1.3675 -0.0285 -1.4144
  784MOL0     H 8173   9.451   8.393  12.557  0.1879  1.7429 -0.4300
  784MOL0     H 8174   9.256   8.691  12.214 -0.2115 -3.8943  0.5227
  784MOL0     H 8175   9.295   8.706  11.968  0.7420 -0.8173 -0.5818
  784MOL0     H 8176   9.984   7.955  10.928  1.6245  0.9684  0.1444
  784MOL0     H 8177   9.988   7.831  10.718 -1.3613  0.6896 -0.3852
  784MOL0     H 8178  10.096   7.531  10.469 -1.0946  0.3411  0.9140
  784MOL0     H 8179  10.127   7.450  10.257 -0.2257  0.2396 -0.2012
  784MOL0     H 8180  10.133   7.273  10.098 -0.7356 -1.2793 -0.1544
  784MOL0     H 8181  10.065   7.232   9.945  0.6363  1.2262 -1.3731
  784MOL0     H 8182  10.184   7.437   9.904 -0.6594 -2.0127 -0.1033
  784MOL0     H 8183  10.143   7.509  10.055  0.6529  1.3421 -0.7782
  784MOL0     H 8184   9.955   7.448   9.825  0.9570  1.6521 -2.1493
  784MOL0     H 8185   9.896   7.527   9.975  0.7120  3.2394  1.1752
  784MOL0     H 8186  10.054   7.721   9.927 -0.7897  1.8661 -0.6798
  784MOL0     H 8187   9.887   7.707   9.851  0.7728  1.2675  0.3590
  784MOL0     H 8188  10.144   7.679   9.524  1.8241 -1.7131  1.8643
  784MOL0     H 8189   9.722   7.299  10.257 -0.1543  0.4524  0.7549
  784MOL0     H 8190   9.635   7.386  10.598 -1.5398 -0.8347  0.5344
  784MOL0     H 8191   9.572   7.406  10.438 -1.0101 -1.4139  0.3267
  784MOL0     H 8192   9.647   7.251  10.490  4.6086  0.3847  0.3582
  785MOL0     O 8193   7.777   0.399   5.368 -0.1334 -0.2630 -0.0951
  785MOL0     C 8194   7.812   0.283   5.362 -0.2627  0.3852  0.0941
  785MOL0     O 8195   7.906   0.244   5.272  0.0285  0.9002 -0.4120
  785MOL0     C 8196   7.925   0.314   5.152 -0.1681  0.6232  0.1774
  785MOL0     C 8197   8.050   0.351   5.104 -0.6913  1.3083 -0.9969
  785MOL0     C 8198   8.068   0.410   4.983 -0.1274  0.4877  1.3985
  785MOL0     C 8199   7.957   0.449   4.901  0.5783  0.3368 -0.7110
  785MOL0     O 8200   7.972   0.535   4.792 -0.7527  0.2843  0.8048
  785MOL0     C 8201   7.918   0.491   4.670 -0.0526  0.0093  0.5426
  785MOL0     C 8202   7.964   0.591   4.556  0.1315 -0.2290  0.5804
  785MOL0     C 8203   8.114   0.592   4.535  0.1943  0.7772  0.2960
  785MOL0     C 8204   8.139   0.662   4.398 -0.0289  0.5341  0.3966
  785MOL0     C 8205   8.286   0.700   4.378  0.6265 -0.1803  0.4387
  785MOL0     C 8206   8.307   0.744   4.235  0.8383  0.5074 -0.1702
  785MOL0     C 8207   8.229   0.866   4.198 -0.2675 -1.3087  0.1844
  785MOL0     C 8208   8.304   0.946   4.082 -0.0599 -0.1662 -0.6604
  785MOL0     N 8209   8.246   0.916   3.957 -0.2758 -0.4786  0.0759
  785MOL0     C 8210   8.310   0.867   3.847  0.4411  0.2629  0.6669
  785MOL0     C 8211   8.220   0.861   3.741 -0.2191 -0.6831 -0.4940
  785MOL0     C 8212   8.245   0.825   3.601 -0.3209 -0.4588  1.1746
  785MOL0     C 8213   8.313   0.937   3.517  0.9182 -0.1256 -1.1226
  785MOL0     C 8214   8.321   0.885   3.369  0.7688 -0.5365 -1.2945
  785MOL0     C 8215   8.182   0.874   3.303 -0.2348  0.5137 -0.1192
  785MOL0     O 8216   8.192   0.820   3.176  0.3183  0.4194 -0.3644
  785MOL0     C 8217   8.189   0.909   3.073  0.0357 -0.1639 -0.4461
  785MOL0     C 8218   8.311   0.972   3.040  0.0045  0.0042  0.9287
  785MOL0     C 8219   8.313   1.072   2.946 -0.1750 -0.7400  1.0595
  785MOL0     C 8220   8.450   1.109   2.893  0.0858  0.2590 -0.2526
  785MOL0     C 8221   8.196   1.134   2.892  0.5793 -0.2203 -0.0104
  785MOL0     C 8222   8.205   1.248   2.794  0.7233 -0.0195  0.8045
  785MOL0     O 8223   8.303   1.345   2.787  0.1722  0.0459  0.0655
  785MOL0     C 8224   8.311   1.437   2.682  0.1209  0.2462  0.3155
  785MOL0     C 8225   8.389   1.412   2.568  0.3869  0.2306 -0.4124
  785MOL0     C 8226   8.417   1.504   2.477 -0.0294  0.8381  0.0045
  785MOL0     C 8227   8.351   1.628   2.488  0.2325  1.1205  0.8332
  785MOL0     O 8228   8.377   1.713   2.387 -0.7414  0.4807  0.2033
  785MOL0     C 8229   8.382   1.851   2.430  0.6664  0.4702 -0.3435
  785MOL0     C 8230   8.471   1.915   2.318  0.7538 -1.2167 -0.4869
  785MOL0     C 8231   8.512   2.066   2.327  0.0150 -0.1022  0.0970
  785MOL0     C 8232   8.534   2.126   2.189 -0.3585 -0.4930  0.0747
  785MOL0     C 8233   8.553   2.275   2.185  1.0131 -0.5379  1.3430
  785MOL0     C 8234   8.656   2.326   2.069 -0.3584  0.3778 -0.1426
  785MOL0     C 8235   8.651   2.479   2.067  0.6468 -0.0410  0.5810
  785MOL0     C 8236   8.721   2.529   1.942 -0.8513 -0.1253 -0.2859
  785MOL0    Cl 8237   8.903   2.529   1.975 -0.4208  0.0492 -0.1025
  785MOL0     C 8238   8.270   1.653   2.606  0.0731 -0.1631 -0.5284
  785MOL0     C 8239   8.242   1.558   2.701 -0.0366  0.3176 -0.3978
  785MOL0     O 8240   8.114   1.250   2.712  1.1953 -0.0145 -0.4820
  785MOL0     C 8241   8.070   1.076   2.936 -0.9492  0.1599  0.2515
  785MOL0     C 8242   8.068   0.966   3.030  0.1899 -0.3574  0.6053
  785MOL0     N 8243   8.098   0.915   3.791 -0.0946 -0.4443  0.6280
  785MOL0     N 8244   8.122   0.953   3.911  0.3241  1.0257 -0.2636
  785MOL0     C 8245   7.827   0.412   4.950 -1.2884 -0.1995  0.1602
  785MOL0     C 8246   7.812   0.347   5.071 -0.9974  0.8332  0.4663
  785MOL0     C 8247   7.764   0.175   5.451 -0.7604  0.7700  0.1172
  785MOL0     C 8248   7.784   0.043   5.397  0.6622  0.2822 -1.2520
  785MOL0     C 8249   7.755  -0.075   5.476  0.7112 -0.5628  0.6164
  785MOL0     C 8250   7.686  -0.054   5.597  0.4093  0.5009 -0.8663
  785MOL0     O 8251   7.628  -0.158   5.676 -0.2240  0.3344 -0.4102
  785MOL0     C 8252   7.666  -0.292   5.644 -0.1785 -0.6212 -0.3058
  785MOL0     C 8253   7.593  -0.392   5.737 -0.3613  0.0396  0.2648
  785MOL0     C 8254   7.591  -0.336   5.883 -0.0080 -1.3326  0.2261
  785MOL0     C 8255   7.563  -0.447   5.985 -0.2067 -0.0304  0.4043
  785MOL0     C 8256   7.699  -0.504   6.013  0.8559  0.9985 -0.1254
  785MOL0     C 8257   7.810  -0.547   6.046  0.5851 -0.2145 -0.3623
  785MOL0     C 8258   7.646   0.066   5.641  0.1903 -0.6972  0.2891
  785MOL0     C 8259   7.694   0.185   5.576  0.3245  0.1466  0.1755
  785MOL0     C 8260   7.666   0.311   5.652  0.2063  0.0028 -0.3637
  785MOL0     H 8261   8.131   0.313   5.165 -3.2542 -3.0415  0.1661
  785MOL0     H 8262   8.163   0.437   4.937 -1.1044  0.8893 -0.4844
  785MOL0     H 8263   7.811   0.508   4.683  0.0579  1.5756 -0.3357
  785MOL0     H 8264   7.941   0.386   4.648  3.0029  0.8509 -0.8556
  785MOL0     H 8265   7.911   0.564   4.464 -0.9150 -0.3093  1.1885
  785MOL0     H 8266   7.929   0.694   4.571 -2.7121 -1.2322  1.5444
  785MOL0     H 8267   8.162   0.645   4.618 -1.3630  0.6948  1.2834
  785MOL0     H 8268   8.154   0.491   4.521 -0.2773  1.0231 -4.2592
  785MOL0     H 8269   8.091   0.603   4.319 -0.0117  0.5684  0.3608
  785MOL0     H 8270   8.088   0.758   4.409  0.5785  1.3056 -2.4993
  785MOL0     H 8271   8.331   0.601   4.388 -2.0063 -1.9567 -3.2439
  785MOL0     H 8272   8.322   0.774   4.450 -0.0064  0.9042 -0.3272
  785MOL0     H 8273   8.413   0.757   4.211  1.0099 -1.6463 -0.8621
  785MOL0     H 8274   8.271   0.664   4.170 -1.0450  0.2729  1.0680
  785MOL0     H 8275   8.242   0.935   4.282 -1.7451 -0.0007 -0.6190
  785MOL0     H 8276   8.123   0.838   4.192 -0.3393 -1.1032  0.4767
  785MOL0     H 8277   8.284   1.051   4.106 -4.2509 -1.6384  3.8106
  785MOL0     H 8278   8.412   0.925   4.087 -0.1448 -0.3709  2.6041
  785MOL0     H 8279   8.418   0.856   3.848  0.7693  2.9656  1.8078
  785MOL0     H 8280   8.147   0.793   3.565 -1.7369  1.3016  3.1689
  785MOL0     H 8281   8.307   0.736   3.600  2.2528  1.2236  1.5661
  785MOL0     H 8282   8.263   1.034   3.518 -0.3335 -0.7172  1.4775
  785MOL0     H 8283   8.417   0.962   3.541  1.3640 -2.9898  0.4239
  785MOL0     H 8284   8.383   0.958   3.316  1.5817 -0.8806 -0.8271
  785MOL0     H 8285   8.370   0.788   3.364 -0.2977 -1.1152 -0.9020
  785MOL0     H 8286   8.126   0.810   3.372 -0.4038  3.2528  2.5401
  785MOL0     H 8287   8.147   0.975   3.280  1.8506  1.1811 -0.5769
  785MOL0     H 8288   8.399   0.927   3.085  0.0455 -3.0194 -1.7884
  785MOL0     H 8289   8.466   1.210   2.932  0.9238  1.7786 -4.0448
  785MOL0     H 8290   8.440   1.123   2.785 -2.7575  0.4089 -0.0576
  785MOL0     H 8291   8.523   1.034   2.925  1.1368  1.3329 -0.0723
  785MOL0     H 8292   8.426   1.310   2.574  0.5635  0.2883 -0.5062
  785MOL0     H 8293   8.473   1.478   2.388 -2.0197 -1.3407 -0.7200
  785MOL0     H 8294   8.287   1.906   2.429  0.7728  0.6898  0.6386
  785MOL0     H 8295   8.434   1.873   2.523  3.4047  0.9334 -1.8762
  785MOL0     H 8296   8.565   1.861   2.306  2.5436  1.6869 -0.3278
  785MOL0     H 8297   8.405   1.918   2.231 -2.6529  4.2845  1.8074
  785MOL0     H 8298   8.595   2.079   2.397  1.7745 -1.4741 -1.6270
  785MOL0     H 8299   8.431   2.128   2.368 -0.4124 -0.6237  0.0529
  785MOL0     H 8300   8.457   2.106   2.114 -0.3614  0.3140 -0.1431
  785MOL0     H 8301   8.624   2.074   2.153  0.7027 -0.9232  3.0962
  785MOL0     H 8302   8.456   2.326   2.181 -0.9684 -3.8077  2.7788
  785MOL0     H 8303   8.598   2.314   2.277 -1.2300 -2.7296  3.5719
  785MOL0     H 8304   8.624   2.277   1.977 -2.0820 -1.5664  1.3968
  785MOL0     H 8305   8.757   2.290   2.089 -1.0638 -2.0686 -0.7079
  785MOL0     H 8306   8.687   2.522   2.160 -0.8260 -2.3351  2.3158
  785MOL0     H 8307   8.547   2.513   2.059  0.6418  0.4796  2.4759
  785MOL0     H 8308   8.700   2.632   1.913  0.2681  0.4171  0.7453
  785MOL0     H 8309   8.692   2.462   1.860  0.1485  1.9603 -2.4285
  785MOL0     H 8310   8.220   1.749   2.614 -2.6843 -1.6163  0.8571
  785MOL0     H 8311   8.174   1.569   2.785 -0.5338 -1.4690 -0.5180
  785MOL0     H 8312   7.976   1.119   2.903 -1.3692 -0.8406  0.1080
  785MOL0     H 8313   7.972   0.937   3.071  0.6458 -0.8954  1.3162
  785MOL0     H 8314   7.732   0.440   4.905 -1.2725  0.3203  0.4502
  785MOL0     H 8315   7.709   0.314   5.084 -1.5608  1.4614 -1.9532
  785MOL0     H 8316   7.848   0.038   5.310  1.6299  4.9527 -1.1128
  785MOL0     H 8317   7.787  -0.161   5.419  0.0501 -0.1450 -0.4120
  785MOL0     H 8318   7.647  -0.318   5.539  1.2250 -0.9757 -0.4865
  785MOL0     H 8319   7.772  -0.295   5.671  1.1777  1.1821 -4.5137
  785MOL0     H 8320   7.646  -0.488   5.740 -3.0886 -1.5601  1.9432
  785MOL0     H 8321   7.491  -0.418   5.708  0.4767 -2.2496 -0.8268
  785MOL0     H 8322   7.681  -0.278   5.901  1.0430 -2.3804 -1.3878
  785MOL0     H 8323   7.504  -0.271   5.898  2.9059  2.8547  0.6923
  785MOL0     H 8324   7.500  -0.530   5.953  1.0135 -1.6305  1.9488
  785MOL0     H 8325   7.516  -0.405   6.074  1.7289  2.4088  0.3756
  785MOL0     H 8326   7.898  -0.591   6.089  1.0227  2.3901  1.6144
  785MOL0     H 8327   7.584   0.079   5.730  2.4067 -0.4328  1.8901
  785MOL0     H 8328   7.743   0.386   5.673  0.5301 -0.7424  1.3153
  785MOL0     H 8329   7.592   0.356   5.586  0.7992 -0.2787 -1.2454
  785MOL0     H 8330   7.625   0.286   5.750  0.8146 -1.5203 -0.4640
  786MOL0     O 8331   8.485  10.635   3.241  0.6741  0.3139 -0.2197
  786MOL0     C 8332   8.390  10.692   3.302  0.9824  0.6617  1.2127
  786MOL0     O 8333   8.341  10.676   3.424 -0.7051  0.0124 -1.9245
  786MOL0     C 8334   8.402  10.612   3.525  0.9511  0.8594  0.4875
  786MOL0     C 8335   8.333  10.557   3.630  0.7947  0.4169 -0.1944
  786MOL0     C 8336   8.407  10.515   3.743 -0.2433 -0.4588 -0.4188
  786MOL0     C 8337   8.547  10.520   3.757  0.3521  0.8072 -0.7595
  786MOL0     O 8338   8.611  10.466   3.867  0.3423 -0.5660  0.2772
  786MOL0     C 8339   8.561  10.336   3.900 -0.4730  0.2006 -0.7818
  786MOL0     C 8340   8.678  10.293   3.982  0.2226 -0.1154 -0.3821
  786MOL0     C 8341   8.660  10.145   4.006  0.4149 -0.6730  0.0661
  786MOL0     C 8342   8.767  10.105   4.104 -0.5855 -0.4929 -0.2202
  786MOL0     C 8343   8.790  10.191   4.235  0.1098  0.6143  0.6540
  786MOL0     C 8344   8.878  10.124   4.336 -0.5083  0.1023  0.1977
  786MOL0     C 8345   8.907  10.214   4.457 -0.5558  0.8446  0.1618
  786MOL0     C 8346   9.009  10.138   4.543  0.3322  1.0652 -0.6242
  786MOL0     N 8347   9.049  10.218   4.660  0.2282  0.3149  0.3608
  786MOL0     C 8348   8.967  10.243   4.762 -0.5428 -0.1510 -0.1536
  786MOL0     C 8349   9.047  10.305   4.861  0.2786  0.3119 -0.9205
  786MOL0     C 8350   9.007  10.354   5.003 -0.0963  0.6961 -0.2107
  786MOL0     C 8351   8.955  10.231   5.075 -0.4412  0.1627 -1.3189
  786MOL0     C 8352   8.892  10.252   5.214 -0.3521 -0.1296 -0.2539
  786MOL0     C 8353   8.982  10.317   5.318 -1.5908 -0.3957  0.7462
  786MOL0     O 8354   8.903  10.383   5.417  0.3034  0.2225 -0.2962
  786MOL0     C 8355   8.963  10.475   5.508  0.8970 -0.5665  0.4555
  786MOL0     C 8356   8.871  10.504   5.617 -0.9159  1.2295  0.4904
  786MOL0     C 8357   8.912  10.586   5.720  0.6954  0.5797  0.1517
  786MOL0     C 8358   8.805  10.600   5.836  0.1397 -0.6447 -0.0554
  786MOL0     C 8359   9.052  10.614   5.734 -0.3447  0.3055  0.0937
  786MOL0     C 8360   9.115  10.683   5.846 -0.4413  0.3172  0.4764
  786MOL0     O 8361   9.247  10.735   5.824 -0.0320  0.6291  0.0291
  786MOL0     C 8362   9.305  10.805   5.923 -0.0402  0.4844 -1.0075
  786MOL0     C 8363   9.255  10.916   5.999 -0.1195 -0.4858  0.4170
  786MOL0     C 8364   9.325  10.990   6.098  0.4333  0.3588 -0.3479
  786MOL0     C 8365   9.441  10.939   6.151  0.0027  0.0594  0.4760
  786MOL0     O 8366   9.518  10.997   6.248 -1.0573 -0.2837 -0.4187
  786MOL0     C 8367   9.441  11.047   6.355  0.2616  1.0912 -0.7109
  786MOL0     C 8368   9.530  11.062   6.479 -0.3198  1.2472 -0.5654
  786MOL0     C 8369   9.463  11.127   6.601 -0.3960 -0.4291 -0.7621
  786MOL0     C 8370   9.575  11.175   6.704  0.3310  0.5777 -0.7417
  786MOL0     C 8371   9.642  11.300   6.668  0.6155  0.1708 -0.6062
  786MOL0     C 8372   9.703  11.378   6.782 -0.0024  0.2515 -0.2167
  786MOL0     C 8373   9.807  11.491   6.755  0.2819 -0.8010 -0.5656
  786MOL0     C 8374   9.821  11.581   6.884 -0.5983 -1.1028  0.1379
  786MOL0    Cl 8375   9.824  11.501   7.041 -0.2989  0.6992  0.5018
  786MOL0     C 8376   9.499  10.831   6.076 -1.0487  0.3282 -1.0079
  786MOL0     C 8377   9.436  10.768   5.966 -0.3462 -0.3807 -0.7504
  786MOL0     O 8378   9.051  10.695   5.950  0.0702 -0.0650  0.1586
  786MOL0     C 8379   9.139  10.579   5.629  0.6338 -0.4047 -0.3859
  786MOL0     C 8380   9.098  10.509   5.518  0.3689  1.2836  0.5515
  786MOL0     N 8381   9.178  10.318   4.809 -0.5273  0.1999  1.1524
  786MOL0     N 8382   9.179  10.248   4.693  0.0444 -0.9072 -0.2446
  786MOL0     C 8383   8.615  10.570   3.645  0.1408  0.4932  0.4929
  786MOL0     C 8384   8.538  10.621   3.535 -0.3410 -0.7598  0.5720
  786MOL0     C 8385   8.301  10.782   3.223 -0.2364  1.1050  0.8165
  786MOL0     C 8386   8.165  10.808   3.247  0.4252  0.4362 -0.3739
  786MOL0     C 8387   8.093  10.899   3.166 -0.3083 -0.4761 -0.7682
  786MOL0     C 8388   8.148  10.963   3.062  0.1406 -0.7446  0.5531
  786MOL0     O 8389   8.069  11.043   2.981  0.5393 -0.2330 -0.2645
  786MOL0     C 8390   7.981  10.977   2.891 -0.2659  0.5687 -1.1420
  786MOL0     C 8391   8.027  10.995   2.738  0.4254  0.4872 -1.2918
  786MOL0     C 8392   7.939  10.908   2.642  0.7976  0.0243  0.0193
  786MOL0     C 8393   7.987  10.901   2.503 -0.5634 -1.1412  0.7669
  786MOL0     C 8394   7.958  11.019   2.422 -0.9615  0.5145  0.6227
  786MOL0     C 8395   7.933  11.127   2.379 -0.1760 -0.5422 -0.1334
  786MOL0     C 8396   8.279  10.942   3.032  0.0989 -0.5338  0.9278
  786MOL0     C 8397   8.361  10.855   3.105  0.8383  0.0743  0.9531
  786MOL0     C 8398   8.509  10.849   3.063  0.9252 -0.1007 -0.2192
  786MOL0     H 8399   8.226  10.573   3.640  0.8790 -0.4921  3.1343
  786MOL0     H 8400   8.364  10.496   3.841  2.6045 -2.0383  0.6452
  786MOL0     H 8401   8.544  10.270   3.815 -0.7244 -0.6096 -0.1240
  786MOL0     H 8402   8.471  10.327   3.962  1.2486 -0.6072  1.7504
  786MOL0     H 8403   8.779  10.313   3.947  2.0381 -2.2429  3.0791
  786MOL0     H 8404   8.673  10.352   4.074  0.7295 -3.1960  1.7754
  786MOL0     H 8405   8.558  10.112   4.028 -0.3392  2.6372  2.1168
  786MOL0     H 8406   8.689  10.106   3.908 -0.4917  1.5390 -1.1353
  786MOL0     H 8407   8.752   9.999   4.129 -0.7771  0.1567  2.8863
  786MOL0     H 8408   8.868  10.106   4.061  0.3758 -3.6495  1.5923
  786MOL0     H 8409   8.694  10.216   4.281  0.3928  0.9216  1.0879
  786MOL0     H 8410   8.832  10.289   4.211 -2.7583  2.1366  1.3570
  786MOL0     H 8411   8.835  10.031   4.373 -0.2949 -0.1904 -0.2852
  786MOL0     H 8412   8.969  10.090   4.286 -1.6113 -1.1692 -1.0148
  786MOL0     H 8413   8.810  10.224   4.506 -0.1463  0.7067  1.0205
  786MOL0     H 8414   8.929  10.320   4.438  1.5845  0.3757 -0.2442
  786MOL0     H 8415   8.979  10.035   4.565 -1.3413  2.0899  2.4212
  786MOL0     H 8416   9.109  10.126   4.501  0.3857  1.7978 -0.7085
  786MOL0     H 8417   8.863  10.214   4.765 -0.7118 -0.2718 -3.7504
  786MOL0     H 8418   8.932  10.433   4.995 -2.0226 -0.7955  1.9427
  786MOL0     H 8419   9.094  10.398   5.052  0.0291 -1.1145  1.2837
  786MOL0     H 8420   8.871  10.191   5.017 -0.2904 -1.3470 -0.5369
  786MOL0     H 8421   9.046  10.176   5.101 -0.6674  0.7400  0.8964
  786MOL0     H 8422   8.813  10.327   5.198  0.7335  1.0804 -0.1394
  786MOL0     H 8423   8.848  10.161   5.256 -2.7185 -1.1660 -4.3911
  786MOL0     H 8424   9.050  10.240   5.357 -0.5064 -0.5785 -1.3458
  786MOL0     H 8425   9.043  10.396   5.273  1.3962 -2.9280  0.0168
  786MOL0     H 8426   8.773  10.460   5.603  0.2504 -1.9823  1.3950
  786MOL0     H 8427   8.850  10.550   5.922 -1.1215 -2.4691 -0.3969
  786MOL0     H 8428   8.714  10.547   5.808 -2.0681  1.1541  3.1069
  786MOL0     H 8429   8.768  10.700   5.860  1.6695 -0.8446  3.8377
  786MOL0     H 8430   9.151  10.937   5.974 -1.2320 -6.3288 -1.4464
  786MOL0     H 8431   9.281  11.067   6.161  4.0765  0.1075  2.9155
  786MOL0     H 8432   9.402  11.145   6.329 -0.5638  0.4651 -1.9109
  786MOL0     H 8433   9.363  10.972   6.370  0.0660  1.5806  0.8971
  786MOL0     H 8434   9.555  10.961   6.512  0.4516  2.1875  2.0563
  786MOL0     H 8435   9.617  11.112   6.435  1.3031 -0.5218  0.4730
  786MOL0     H 8436   9.384  11.066   6.647 -2.9423  2.3931 -1.0992
  786MOL0     H 8437   9.417  11.216   6.558  2.5080  1.0012 -1.1117
  786MOL0     H 8438   9.641  11.090   6.725  0.0806  0.1292 -1.7130
  786MOL0     H 8439   9.514  11.181   6.795  1.0670 -1.8560  0.0060
  786MOL0     H 8440   9.720  11.284   6.593  0.9128  0.8543 -0.4525
  786MOL0     H 8441   9.569  11.366   6.621 -0.9561 -0.0598  1.3818
  786MOL0     H 8442   9.737  11.298   6.849  0.2086  0.3858 -0.1631
  786MOL0     H 8443   9.622  11.420   6.841 -0.1596 -0.8340  0.3760
  786MOL0     H 8444   9.777  11.552   6.670 -0.8342  0.9161  0.9807
  786MOL0     H 8445   9.903  11.453   6.719  1.2323  2.8566 -2.3398
  786MOL0     H 8446   9.738  11.651   6.874 -0.6878 -0.7974  2.5725
  786MOL0     H 8447   9.913  11.639   6.874 -2.3365  1.7064 -0.5664
  786MOL0     H 8448   9.590  10.791   6.119 -1.4230  0.9524  0.4265
  786MOL0     H 8449   9.473  10.681   5.912 -0.0286 -0.7219  0.0001
  786MOL0     H 8450   9.244  10.608   5.631  1.3930 -3.0334  1.0576
  786MOL0     H 8451   9.165  10.492   5.434 -2.0465 -0.4543 -1.1595
  786MOL0     H 8452   8.724  10.560   3.643 -0.0849 -3.3609  0.9571
  786MOL0     H 8453   8.587  10.658   3.445 -2.4546  0.7130 -0.0519
  786MOL0     H 8454   8.119  10.765   3.335  0.1388  1.5612  0.0518
  786MOL0     H 8455   7.987  10.915   3.185 -0.1882  1.2058 -1.4158
  786MOL0     H 8456   7.972  10.874   2.927 -1.1942  1.4809  1.4662
  786MOL0     H 8457   7.879  11.016   2.894 -0.5465 -0.1273  2.0195
  786MOL0     H 8458   8.129  10.957   2.745  2.3704  5.0158 -1.5192
  786MOL0     H 8459   8.027  11.103   2.721 -2.6105  1.8077  4.4463
  786MOL0     H 8460   7.933  10.808   2.686  2.8338  1.1527  3.2647
  786MOL0     H 8461   7.837  10.947   2.636 -0.5132 -2.9315  1.3492
  786MOL0     H 8462   7.945  10.811   2.459  2.5148 -1.7566 -1.2185
  786MOL0     H 8463   8.094  10.886   2.515 -0.0518  0.9123 -0.7288
  786MOL0     H 8464   7.919  11.230   2.354 -0.3973  0.2922  3.0079
  786MOL0     H 8465   8.324  11.006   2.957  0.5180  0.0512  1.6646
  786MOL0     H 8466   8.520  10.756   3.007  3.5205 -0.4636  0.7596
  786MOL0     H 8467   8.547  10.928   2.998 -1.3461  0.2627 -1.2050
  786MOL0     H 8468   8.568  10.847   3.155  0.4796 -0.3463  0.0686
  787MOL0     O 8469   0.549   7.202   5.721  0.1965 -0.1126 -0.6278
  787MOL0     C 8470   0.624   7.246   5.633 -0.3081  0.1947 -0.8649
  787MOL0     O 8471   0.714   7.352   5.642  0.8150  0.1076 -0.4646
  787MOL0     C 8472   0.683   7.471   5.720 -0.0180  0.2752  0.1259
  787MOL0     C 8473   0.563   7.539   5.723 -0.1197  0.5434  1.7111
  787MOL0     C 8474   0.551   7.663   5.777  1.5865  0.5204 -0.2660
  787MOL0     C 8475   0.659   7.729   5.834  0.8271 -0.1746 -0.1242
  787MOL0     O 8476   0.646   7.836   5.918  1.0576  0.3899  0.5775
  787MOL0     C 8477   0.717   7.955   5.883  0.4022 -0.1547 -0.4155
  787MOL0     C 8478   0.709   8.053   6.010 -0.2819  0.3454  0.9268
  787MOL0     C 8479   0.783   8.189   5.993  0.1361 -0.1985 -0.0162
  787MOL0     C 8480   0.740   8.267   6.109  1.1676  0.7743  0.4105
  787MOL0     C 8481   0.842   8.382   6.124 -0.1338 -0.6923  0.5436
  787MOL0     C 8482   0.794   8.493   6.231  0.4076 -0.6741 -0.5655
  787MOL0     C 8483   0.877   8.621   6.219  0.3164 -0.2072  0.6364
  787MOL0     C 8484   0.850   8.728   6.329  0.8533 -0.7491  0.6810
  787MOL0     N 8485   0.717   8.790   6.326  0.4895 -0.1737  0.2796
  787MOL0     C 8486   0.594   8.744   6.375  0.8730 -0.0321  0.2439
  787MOL0     C 8487   0.499   8.838   6.334 -0.4817 -0.1795  0.5377
  787MOL0     C 8488   0.347   8.832   6.348 -0.5950 -1.0210  0.3441
  787MOL0     C 8489   0.295   8.943   6.448 -0.3963  0.2626  0.0639
  787MOL0     C 8490   0.234   8.881   6.573  0.0740 -1.0237  0.3397
  787MOL0     C 8491   0.110   8.784   6.543 -0.5966  1.0265  0.3240
  787MOL0     O 8492  -0.003   8.807   6.623 -0.7648 -0.0902  0.2409
  787MOL0     C 8493  -0.079   8.924   6.625  0.2596 -0.0813 -0.0236
  787MOL0     C 8494  -0.159   8.940   6.731  0.8300  0.3300 -0.6139
  787MOL0     C 8495  -0.249   9.053   6.748  0.2808  1.0236  0.3446
  787MOL0     C 8496  -0.340   9.059   6.878 -0.5413 -0.1635 -0.4333
  787MOL0     C 8497  -0.253   9.157   6.644  0.7948  0.1586  0.3804
  787MOL0     C 8498  -0.350   9.277   6.639  0.2152  0.2746 -0.6146
  787MOL0     O 8499  -0.324   9.388   6.552  0.1258  0.7363  0.0691
  787MOL0     C 8500  -0.411   9.493   6.539 -0.8294  0.4046 -0.9715
  787MOL0     C 8501  -0.451   9.566   6.644 -0.1855  0.2935 -0.7099
  787MOL0     C 8502  -0.526   9.679   6.624 -0.0457 -0.3355  0.2001
  787MOL0     C 8503  -0.562   9.711   6.487 -0.8763  0.1407  0.4885
  787MOL0     O 8504  -0.628   9.828   6.464 -0.0677  0.0712 -0.2395
  787MOL0     C 8505  -0.754   9.827   6.393  0.3796 -0.2058  0.2317
  787MOL0     C 8506  -0.841   9.715   6.436  0.7678  0.6014 -0.6097
  787MOL0     C 8507  -0.990   9.745   6.400  0.2941 -0.1046 -0.1729
  787MOL0     C 8508  -1.094   9.639   6.419 -0.3676 -0.0758  0.2068
  787MOL0     C 8509  -1.220   9.672   6.340 -0.0009  0.1000  0.4526
  787MOL0     C 8510  -1.280   9.817   6.358  0.4840  0.2778 -0.4797
  787MOL0     C 8511  -1.394   9.827   6.261 -0.0124  1.1681 -0.3185
  787MOL0     C 8512  -1.475   9.945   6.308  1.6118 -0.1929  0.8088
  787MOL0    Cl 8513  -1.644   9.955   6.241 -0.0381  0.3098  0.3136
  787MOL0     C 8514  -0.534   9.627   6.383  0.4494 -0.0307 -0.8853
  787MOL0     C 8515  -0.440   9.521   6.408 -0.4661  0.8119 -0.2300
  787MOL0     O 8516  -0.443   9.275   6.725  0.0438  0.1459 -0.1270
  787MOL0     C 8517  -0.166   9.137   6.537  0.0322 -0.2502  0.3386
  787MOL0     C 8518  -0.073   9.034   6.532 -1.2307 -0.3877  0.0121
  787MOL0     N 8519   0.571   8.935   6.281 -0.4823 -0.6650 -0.5485
  787MOL0     N 8520   0.699   8.901   6.266  0.7899 -0.0256 -0.1046
  787MOL0     C 8521   0.783   7.667   5.828 -0.3000 -0.7942 -0.1805
  787MOL0     C 8522   0.795   7.542   5.765  0.1185 -0.3299 -0.7386
  787MOL0     C 8523   0.631   7.169   5.501 -0.8956  0.1055 -0.1258
  787MOL0     C 8524   0.750   7.191   5.426 -0.7594 -0.1006  0.7985
  787MOL0     C 8525   0.757   7.137   5.293 -0.7652  0.5014  0.2471
  787MOL0     C 8526   0.651   7.041   5.254 -0.5768 -0.3854  0.6717
  787MOL0     O 8527   0.659   7.004   5.121  0.7067  0.5963  0.7980
  787MOL0     C 8528   0.544   7.016   5.042 -0.5539  0.2587 -1.2601
  787MOL0     C 8529   0.533   6.896   4.958  0.6406  0.4600  0.9658
  787MOL0     C 8530   0.653   6.883   4.852  0.5843  0.0724 -0.0578
  787MOL0     C 8531   0.635   6.771   4.755 -0.0465 -0.0865 -0.0445
  787MOL0     C 8532   0.694   6.659   4.818  0.2077 -0.1288  0.6928
  787MOL0     C 8533   0.769   6.579   4.874  0.3320 -0.1741 -0.3986
  787MOL0     C 8534   0.549   7.006   5.332  0.3835  0.5131 -0.0368
  787MOL0     C 8535   0.531   7.070   5.457 -0.0426 -0.2704  0.4876
  787MOL0     C 8536   0.409   7.031   5.533  0.5280  0.2006 -0.8507
  787MOL0     H 8537   0.482   7.489   5.672  0.0943  1.9558 -0.1169
  787MOL0     H 8538   0.456   7.711   5.794  0.8596 -0.1752 -2.0355
  787MOL0     H 8539   0.692   8.001   5.788  0.3688 -0.7386 -0.6929
  787MOL0     H 8540   0.821   7.922   5.887  0.2496 -0.9852 -2.3057
  787MOL0     H 8541   0.604   8.070   6.036  0.0550 -0.6709  3.1104
  787MOL0     H 8542   0.758   7.999   6.091  0.2096 -3.0340 -1.3774
  787MOL0     H 8543   0.891   8.182   6.006  0.0697  0.3095  0.9552
  787MOL0     H 8544   0.761   8.243   5.900 -0.6841  2.0410  1.4039
  787MOL0     H 8545   0.639   8.294   6.077  1.5919 -0.8782 -2.6937
  787MOL0     H 8546   0.742   8.206   6.200 -1.1283  0.7372  0.4845
  787MOL0     H 8547   0.874   8.428   6.030 -1.4897 -1.0526 -0.1173
  787MOL0     H 8548   0.929   8.326   6.158  1.4794  0.0401 -2.1240
  787MOL0     H 8549   0.689   8.522   6.238  0.1697 -1.8034  4.6820
  787MOL0     H 8550   0.815   8.442   6.325 -1.7231  0.9050  0.8456
  787MOL0     H 8551   0.847   8.662   6.122 -3.6888 -0.2266  1.6911
  787MOL0     H 8552   0.983   8.594   6.209 -0.2537 -1.7904 -2.5296
  787MOL0     H 8553   0.855   8.675   6.425  2.1852 -0.0320  1.0310
  787MOL0     H 8554   0.918   8.813   6.318 -2.3948  1.7878 -1.6790
  787MOL0     H 8555   0.579   8.649   6.425  0.9525 -0.3711 -0.3620
  787MOL0     H 8556   0.313   8.733   6.380 -1.1830  0.1290  3.6893
  787MOL0     H 8557   0.310   8.861   6.250  0.0498  3.5418  1.2097
  787MOL0     H 8558   0.382   9.002   6.479 -1.2990  0.2708  2.8406
  787MOL0     H 8559   0.229   9.017   6.402  1.2897  0.0668 -2.9636
  787MOL0     H 8560   0.312   8.819   6.619  1.7299  0.7842  0.0656
  787MOL0     H 8561   0.211   8.958   6.647  2.1550 -1.2582  1.3119
  787MOL0     H 8562   0.088   8.788   6.436 -1.1814  1.9090  0.4667
  787MOL0     H 8563   0.151   8.685   6.567  3.5642  2.4620 -0.1326
  787MOL0     H 8564  -0.156   8.856   6.800 -1.0170 -0.1818 -1.0873
  787MOL0     H 8565  -0.348   9.160   6.920 -1.8095 -0.3003 -0.3063
  787MOL0     H 8566  -0.327   8.981   6.954 -1.2699  1.4552  1.4456
  787MOL0     H 8567  -0.441   9.047   6.839 -0.5525  1.0762 -0.8437
  787MOL0     H 8568  -0.434   9.545   6.749 -0.1360  5.0582  0.4651
  787MOL0     H 8569  -0.561   9.736   6.709  0.7546 -2.2171  1.8646
  787MOL0     H 8570  -0.809   9.921   6.407 -1.6317 -1.2938  0.0411
  787MOL0     H 8571  -0.742   9.828   6.284 -2.1315 -1.7971 -0.1510
  787MOL0     H 8572  -0.804   9.621   6.395  0.4466 -0.8972  2.3120
  787MOL0     H 8573  -0.832   9.717   6.545 -0.1448  2.1742 -0.5244
  787MOL0     H 8574  -0.981   9.773   6.294  3.3441  0.9962  0.2700
  787MOL0     H 8575  -1.013   9.836   6.456 -0.4706 -0.3473 -0.0914
  787MOL0     H 8576  -1.107   9.610   6.523  2.2447  3.3712  1.6769
  787MOL0     H 8577  -1.042   9.552   6.378  1.8563  1.1903  0.2081
  787MOL0     H 8578  -1.193   9.669   6.234 -2.0387  0.1562 -0.1008
  787MOL0     H 8579  -1.309   9.610   6.352  0.6554 -1.7824 -3.0615
  787MOL0     H 8580  -1.220   9.905   6.336 -2.5787  2.4579 -0.7484
  787MOL0     H 8581  -1.323   9.822   6.459  1.9222  2.6675  0.0915
  787MOL0     H 8582  -1.462   9.741   6.256  1.4367 -0.0857  0.6407
  787MOL0     H 8583  -1.350   9.833   6.161  0.9277  0.5437  0.0474
  787MOL0     H 8584  -1.424  10.036   6.275  1.6847 -0.8245 -0.9641
  787MOL0     H 8585  -1.487   9.954   6.416 -1.5890  3.8438  0.3693
  787MOL0     H 8586  -0.582   9.659   6.291 -1.4941  0.7777  0.3375
  787MOL0     H 8587  -0.407   9.460   6.325 -1.7363  1.7512 -1.4797
  787MOL0     H 8588  -0.183   9.206   6.455 -0.8494  1.2177  1.6933
  787MOL0     H 8589  -0.018   9.013   6.441 -0.9539  1.7423 -0.3582
  787MOL0     H 8590   0.865   7.718   5.878 -1.9535  1.2599  0.5682
  787MOL0     H 8591   0.896   7.501   5.763  1.0860  1.9132 -1.1138
  787MOL0     H 8592   0.839   7.247   5.452 -0.4551  1.7605 -3.3196
  787MOL0     H 8593   0.836   7.171   5.226 -1.9214  0.6512 -1.0833
  787MOL0     H 8594   0.449   7.031   5.095 -0.0812  1.5656 -0.7281
  787MOL0     H 8595   0.560   7.099   4.972 -0.0350  0.6552 -0.6806
  787MOL0     H 8596   0.444   6.901   4.894  1.7424  0.7125 -0.5824
  787MOL0     H 8597   0.533   6.805   5.019 -2.5934  0.9293  1.8896
  787MOL0     H 8598   0.644   6.972   4.789 -4.3416  0.9942  1.5320
  787MOL0     H 8599   0.753   6.884   4.895  0.4861  1.5417  0.1831
  787MOL0     H 8600   0.688   6.797   4.663  2.4950 -0.8756  1.1056
  787MOL0     H 8601   0.527   6.761   4.739 -0.2828 -0.4015  1.5309
  787MOL0     H 8602   0.832   6.503   4.914  0.6132  0.5636  0.5968
  787MOL0     H 8603   0.477   6.933   5.297  0.7335  0.3781 -0.4885
  787MOL0     H 8604   0.346   6.967   5.470  2.7659 -2.2584 -0.7470
  787MOL0     H 8605   0.431   6.958   5.611 -0.3242 -1.8301 -2.3929
  787MOL0     H 8606   0.348   7.112   5.573 -0.0767 -0.3299 -0.6753
  788MOL0     O 8607   2.091   4.668   8.041 -0.1667  0.0205 -0.0397
  788MOL0     C 8608   2.053   4.765   7.977 -0.5033 -0.3030  0.2969
  788MOL0     O 8609   2.139   4.860   7.913  0.1711  0.4877 -0.2709
  788MOL0     C 8610   2.273   4.836   7.940 -0.1941 -0.4939  0.9521
  788MOL0     C 8611   2.340   4.809   7.816  0.6319 -1.0600  0.0787
  788MOL0     C 8612   2.478   4.795   7.811  0.1441  0.7554 -0.0859
  788MOL0     C 8613   2.552   4.781   7.941  1.3198 -0.2066  1.1458
  788MOL0     O 8614   2.686   4.737   7.949 -0.3985 -0.1624  0.0422
  788MOL0     C 8615   2.734   4.678   7.836 -0.3373  1.1445  0.7035
  788MOL0     C 8616   2.690   4.525   7.845 -0.6055 -0.7693  0.4831
  788MOL0     C 8617   2.767   4.461   7.966  0.6965  0.3421  1.0422
  788MOL0     C 8618   2.735   4.309   7.968  0.5644 -0.9499  0.4860
  788MOL0     C 8619   2.781   4.226   8.085  0.2784  0.5379 -0.1547
  788MOL0     C 8620   2.703   4.260   8.219 -0.5902  0.2727  0.7049
  788MOL0     C 8621   2.700   4.150   8.314  0.2238 -0.6407  0.0588
  788MOL0     C 8622   2.671   4.195   8.462  0.0066  0.9742  0.5920
  788MOL0     N 8623   2.776   4.279   8.520  0.2868  0.2407 -0.3380
  788MOL0     C 8624   2.904   4.248   8.517 -0.6163  0.4312  0.3212
  788MOL0     C 8625   2.964   4.370   8.539  0.4461  0.5164 -0.3745
  788MOL0     C 8626   3.109   4.414   8.523 -0.2664  1.0947  0.2334
  788MOL0     C 8627   3.111   4.559   8.487 -0.1590 -0.4921 -0.2237
  788MOL0     C 8628   3.216   4.582   8.380  0.4803 -0.7212 -0.5476
  788MOL0     C 8629   3.147   4.582   8.243  0.4540 -0.3487 -0.3671
  788MOL0     O 8630   3.255   4.572   8.146  0.8756  0.2648 -0.3336
  788MOL0     C 8631   3.304   4.693   8.105  0.9319  0.0822  0.5798
  788MOL0     C 8632   3.399   4.680   8.000  0.2542 -0.3874  0.1941
  788MOL0     C 8633   3.474   4.793   7.966 -0.1922 -0.7151 -0.6502
  788MOL0     C 8634   3.578   4.777   7.860  0.3302 -0.9619 -0.5051
  788MOL0     C 8635   3.461   4.917   8.038 -0.7422 -0.1187 -0.6143
  788MOL0     C 8636   3.563   5.029   8.025 -0.5783  1.3864  0.4395
  788MOL0     O 8637   3.521   5.147   8.070 -0.0844  0.2185  0.8290
  788MOL0     C 8638   3.616   5.247   8.098  0.5769 -0.2007 -0.2608
  788MOL0     C 8639   3.738   5.228   8.165  0.1734 -0.5234  0.6923
  788MOL0     C 8640   3.816   5.337   8.202 -0.4747  0.6092  0.4390
  788MOL0     C 8641   3.773   5.464   8.171  0.0272 -0.1643 -0.2275
  788MOL0     O 8642   3.849   5.567   8.219  0.4719 -0.0741 -0.0485
  788MOL0     C 8643   3.984   5.565   8.154  1.0090 -0.5709 -0.7959
  788MOL0     C 8644   4.030   5.713   8.151 -0.3089  0.2980  0.2205
  788MOL0     C 8645   4.092   5.772   8.281  0.5661  0.1256 -0.5873
  788MOL0     C 8646   4.182   5.896   8.241  0.9283 -0.8537  1.3947
  788MOL0     C 8647   4.266   5.936   8.366  0.5162 -0.1670 -0.4068
  788MOL0     C 8648   4.362   6.045   8.347 -0.7337 -1.1120  0.5117
  788MOL0     C 8649   4.284   6.178   8.325  0.1911  0.0371  0.4937
  788MOL0     C 8650   4.359   6.303   8.353 -0.3611 -0.9222  0.6216
  788MOL0    Cl 8651   4.433   6.293   8.522 -0.0208 -0.5579 -0.6219
  788MOL0     C 8652   3.659   5.476   8.092 -0.4926 -0.9897 -0.5609
  788MOL0     C 8653   3.569   5.375   8.066 -0.1781 -0.2663 -0.0308
  788MOL0     O 8654   3.682   5.002   7.996 -0.6233 -0.3240 -0.3013
  788MOL0     C 8655   3.353   4.930   8.129 -0.6351 -0.1013 -1.2215
  788MOL0     C 8656   3.283   4.815   8.175 -0.5225 -0.7178  0.3165
  788MOL0     N 8657   2.865   4.466   8.564  0.0353 -0.7770 -0.1085
  788MOL0     N 8658   2.747   4.410   8.553 -0.1718 -0.0789  0.0743
  788MOL0     C 8659   2.486   4.804   8.058  0.8584  0.2186 -0.9014
  788MOL0     C 8660   2.353   4.845   8.055 -0.7626 -0.1402  0.3192
  788MOL0     C 8661   1.911   4.802   7.970 -0.2278  0.8265  0.5679
  788MOL0     C 8662   1.886   4.936   8.020  0.6179 -0.0097 -0.2301
  788MOL0     C 8663   1.750   4.966   8.035  0.7349 -0.1082  0.1845
  788MOL0     C 8664   1.649   4.881   8.012  0.1922  0.8688 -0.6079
  788MOL0     O 8665   1.525   4.928   8.041 -0.4992 -0.8677 -0.6768
  788MOL0     C 8666   1.414   4.861   7.985  0.4823 -0.3302  0.9739
  788MOL0     C 8667   1.290   4.942   8.049 -1.1106  0.1514  0.3097
  788MOL0     C 8668   1.162   4.896   7.989 -0.7056 -0.2394 -0.4499
  788MOL0     C 8669   1.058   4.986   8.040  0.7691  0.5141  0.0986
  788MOL0     C 8670   1.010   4.956   8.173  0.7828  1.4838 -0.8341
  788MOL0     C 8671   0.989   4.922   8.283 -0.2086 -0.5804 -0.1407
  788MOL0     C 8672   1.679   4.746   7.981 -0.2272 -0.2697 -0.1006
  788MOL0     C 8673   1.807   4.710   7.952 -0.2791 -0.8662  0.3827
  788MOL0     C 8674   1.830   4.576   7.892  0.7972  0.3947  0.0885
  788MOL0     H 8675   2.280   4.802   7.725  0.5638 -1.7274  0.1652
  788MOL0     H 8676   2.514   4.776   7.711 -0.4087 -1.7879  0.1158
  788MOL0     H 8677   2.843   4.667   7.836 -0.2816  1.4748 -1.0639
  788MOL0     H 8678   2.721   4.733   7.742 -0.1988  0.6985  0.4207
  788MOL0     H 8679   2.582   4.511   7.856 -0.1851 -3.9693  1.5145
  788MOL0     H 8680   2.717   4.476   7.751 -1.8802  0.6025 -0.6508
  788MOL0     H 8681   2.874   4.480   7.959  1.0543 -1.2817  1.6958
  788MOL0     H 8682   2.727   4.512   8.054 -0.1290  0.1752  0.7809
  788MOL0     H 8683   2.628   4.289   7.960  0.2994  0.8431 -1.5410
  788MOL0     H 8684   2.782   4.265   7.879  2.1225 -0.1783  0.8884
  788MOL0     H 8685   2.885   4.250   8.111 -0.2896 -0.3715  3.6172
  788MOL0     H 8686   2.781   4.120   8.060 -3.3914  0.7198 -1.5098
  788MOL0     H 8687   2.758   4.345   8.262  0.7444 -1.1224  1.9082
  788MOL0     H 8688   2.601   4.292   8.198 -1.0563  0.1146  2.5343
  788MOL0     H 8689   2.787   4.086   8.302 -0.1166 -0.7549 -2.3353
  788MOL0     H 8690   2.612   4.093   8.283 -0.2477 -0.5496  1.1820
  788MOL0     H 8691   2.576   4.248   8.462 -0.7026 -0.2325 -0.9152
  788MOL0     H 8692   2.650   4.102   8.517  1.7157 -0.3404 -0.8602
  788MOL0     H 8693   2.941   4.147   8.500 -1.7485  0.5681 -4.1416
  788MOL0     H 8694   3.156   4.343   8.454 -0.7249 -2.9313  3.6511
  788MOL0     H 8695   3.157   4.406   8.621  0.2099  0.8174 -0.0187
  788MOL0     H 8696   3.016   4.601   8.453 -0.8018 -0.5809  1.3898
  788MOL0     H 8697   3.137   4.619   8.575  0.7969 -3.2058  1.4565
  788MOL0     H 8698   3.262   4.680   8.396 -0.9570  0.0955 -1.2139
  788MOL0     H 8699   3.285   4.498   8.390  2.1969  0.6011 -0.8027
  788MOL0     H 8700   3.101   4.485   8.219  1.2015 -0.8876  0.3253
  788MOL0     H 8701   3.071   4.658   8.225  1.2697 -0.2293 -4.4401
  788MOL0     H 8702   3.432   4.578   7.980 -0.6884 -0.8734  1.0141
  788MOL0     H 8703   3.545   4.697   7.793 -0.5724 -1.8855  0.9781
  788MOL0     H 8704   3.672   4.751   7.911  0.7689 -1.2399 -1.4480
  788MOL0     H 8705   3.588   4.869   7.802  1.7356  0.1612  1.3771
  788MOL0     H 8706   3.768   5.126   8.188  5.0092  0.8091  1.4104
  788MOL0     H 8707   3.915   5.323   8.246 -0.1634  2.7212  0.5239
  788MOL0     H 8708   4.048   5.507   8.222  1.0819  0.2733 -0.1322
  788MOL0     H 8709   3.992   5.518   8.056 -2.1025  0.6467 -1.7474
  788MOL0     H 8710   4.119   5.721   8.087 -0.2664  1.9473  0.4307
  788MOL0     H 8711   3.957   5.784   8.111 -0.9604 -1.6879 -2.3512
  788MOL0     H 8712   4.160   5.698   8.324  2.7866  1.4852 -1.6056
  788MOL0     H 8713   4.009   5.778   8.352 -0.1948 -3.1222 -1.0277
  788MOL0     H 8714   4.114   5.968   8.195  1.3764 -1.3381 -0.0853
  788MOL0     H 8715   4.253   5.853   8.169  1.1078  0.9195  0.4504
  788MOL0     H 8716   4.195   5.944   8.448 -0.0658 -0.2148 -0.8946
  788MOL0     H 8717   4.330   5.850   8.387  1.3576  0.0717 -1.8034
  788MOL0     H 8718   4.419   6.006   8.262 -0.1220 -3.1150  1.7782
  788MOL0     H 8719   4.439   6.056   8.424  2.2650  0.0237 -2.4015
  788MOL0     H 8720   4.197   6.164   8.390 -0.0381  0.1753  0.2219
  788MOL0     H 8721   4.243   6.175   8.223 -1.7655 -1.1380  1.2707
  788MOL0     H 8722   4.299   6.395   8.358  2.2484  0.8700  1.3768
  788MOL0     H 8723   4.436   6.329   8.279  0.5349 -0.8890  1.5438
  788MOL0     H 8724   3.646   5.580   8.062  0.7605 -0.5454  0.3400
  788MOL0     H 8725   3.480   5.391   8.007  0.5737  3.3864 -0.4127
  788MOL0     H 8726   3.333   5.033   8.158 -0.4563 -0.2726 -0.4783
  788MOL0     H 8727   3.228   4.818   8.268  0.0903 -0.6041  0.6810
  788MOL0     H 8728   2.544   4.800   8.149  0.8522  0.5011 -0.8821
  788MOL0     H 8729   2.288   4.854   8.142 -3.0055 -3.2850 -0.8122
  788MOL0     H 8730   1.965   5.002   8.056 -1.4371  1.4523  1.8933
  788MOL0     H 8731   1.722   5.057   8.088 -1.1562 -1.4279  1.6027
  788MOL0     H 8732   1.409   4.873   7.877 -1.3339 -1.4510  0.8878
  788MOL0     H 8733   1.420   4.752   7.997  2.8013 -0.8760 -3.1427
  788MOL0     H 8734   1.315   5.048   8.041  1.2439 -0.3598 -0.0357
  788MOL0     H 8735   1.277   4.901   8.150 -0.4319  1.3105  0.8898
  788MOL0     H 8736   1.170   4.910   7.881  0.8852  0.1436 -0.3057
  788MOL0     H 8737   1.137   4.793   8.017 -0.7555  0.6806  3.5306
  788MOL0     H 8738   0.971   4.988   7.973 -1.5629 -0.3427  2.8636
  788MOL0     H 8739   1.092   5.090   8.044  0.4975  0.5995  0.2848
  788MOL0     H 8740   0.973   4.904   8.387 -4.0453 -1.3969 -0.7096
  788MOL0     H 8741   1.610   4.665   7.962 -1.4302  1.1208 -2.0991
  788MOL0     H 8742   1.826   4.495   7.966 -0.1488 -2.3953 -2.7878
  788MOL0     H 8743   1.753   4.559   7.816  1.8955  0.9391 -1.1947
  788MOL0     H 8744   1.931   4.573   7.849  0.5813  0.8845 -0.4622
  789MOL0     O 8745   5.612   3.778   4.197  0.3999 -0.0842  0.1228
  789MOL0     C 8746   5.531   3.752   4.284  0.5528  1.4496 -0.2312
  789MOL0     O 8747   5.486   3.837   4.384 -0.3255  0.2425 -0.3132
  789MOL0     C 8748   5.553   3.953   4.403  0.5346 -0.2481 -0.1535
  789MOL0     C 8749   5.531   4.073   4.341  0.1965 -1.6750  0.3020
  789MOL0     C 8750   5.586   4.196   4.386 -0.8023  0.1705 -0.3840
  789MOL0     C 8751   5.680   4.186   4.492  0.6258  0.3738 -0.3004
  789MOL0     O 8752   5.722   4.304   4.539 -0.4689 -0.1398 -0.3204
  789MOL0     C 8753   5.809   4.372   4.449  0.7187 -0.0420  0.7894
  789MOL0     C 8754   5.898   4.479   4.512  0.3920  0.3224 -0.7012
  789MOL0     C 8755   6.018   4.429   4.602  0.4532 -0.3665 -0.1509
  789MOL0     C 8756   6.119   4.369   4.509 -0.4528 -1.0263  0.5780
  789MOL0     C 8757   6.243   4.336   4.596 -0.6477 -0.5662 -0.6180
  789MOL0     C 8758   6.363   4.308   4.498  0.4715  0.2466  0.3326
  789MOL0     C 8759   6.431   4.429   4.444  0.6791  0.3389 -0.2749
  789MOL0     C 8760   6.546   4.395   4.357 -0.5417  0.1101  0.9656
  789MOL0     N 8761   6.614   4.529   4.331  0.6924 -0.3352  0.5181
  789MOL0     C 8762   6.578   4.630   4.239 -0.4300 -0.4522  0.2081
  789MOL0     C 8763   6.680   4.720   4.249  0.0433  0.6161  0.2536
  789MOL0     C 8764   6.699   4.856   4.179 -0.3705 -0.0090  0.9495
  789MOL0     C 8765   6.826   4.836   4.085  0.1838 -1.0871 -0.5533
  789MOL0     C 8766   6.875   4.966   4.003 -1.1200 -0.6377 -0.3918
  789MOL0     C 8767   6.765   5.041   3.920  0.1351 -0.0629 -0.7460
  789MOL0     O 8768   6.700   4.948   3.834  0.1612  0.0964  0.1255
  789MOL0     C 8769   6.583   4.979   3.767  0.3408 -0.2117  0.0743
  789MOL0     C 8770   6.524   5.102   3.753  0.4407  1.0257 -0.2950
  789MOL0     C 8771   6.397   5.123   3.701  0.6689 -0.2964  0.2570
  789MOL0     C 8772   6.334   5.260   3.718  0.2127 -0.8618 -0.3076
  789MOL0     C 8773   6.322   5.013   3.636 -0.8104  0.4047  0.2667
  789MOL0     C 8774   6.187   5.020   3.579  0.7867  1.2261  0.3028
  789MOL0     O 8775   6.138   4.894   3.547 -0.7128  1.0933 -0.2618
  789MOL0     C 8776   6.028   4.877   3.467  0.1024  0.9312  0.1651
  789MOL0     C 8777   5.955   4.763   3.495 -0.3045  0.3674 -0.3972
  789MOL0     C 8778   5.828   4.741   3.436  0.4524 -0.3756 -0.7866
  789MOL0     C 8779   5.765   4.843   3.360 -0.0301 -0.2562 -0.0853
  789MOL0     O 8780   5.637   4.822   3.333  0.2956  0.2254  0.8988
  789MOL0     C 8781   5.567   4.912   3.247  0.5856  0.0771 -0.1565
  789MOL0     C 8782   5.414   4.880   3.252 -0.4097 -0.7371 -0.0081
  789MOL0     C 8783   5.343   4.903   3.390 -0.3727  0.4030  0.5600
  789MOL0     C 8784   5.191   4.931   3.366  0.0911  0.8886 -0.1414
  789MOL0     C 8785   5.115   4.921   3.497  0.6182  0.0103 -0.4524
  789MOL0     C 8786   5.132   5.032   3.596 -1.4123  0.0996 -0.1245
  789MOL0     C 8787   5.013   5.035   3.692 -0.5272  0.1990 -0.1768
  789MOL0     C 8788   5.023   5.159   3.782 -0.8345  0.1688  0.3656
  789MOL0    Cl 8789   5.126   5.115   3.922  0.1517 -0.0330  0.3344
  789MOL0     C 8790   5.835   4.959   3.332 -0.1001 -0.6370 -0.5460
  789MOL0     C 8791   5.965   4.964   3.379 -0.5043  0.4352 -0.0165
  789MOL0     O 8792   6.135   5.122   3.548 -0.0981  0.1084 -0.5031
  789MOL0     C 8793   6.400   4.896   3.627  0.9140  0.0453  0.6501
  789MOL0     C 8794   6.518   4.882   3.687 -0.6147 -0.5178 -0.4077
  789MOL0     N 8795   6.764   4.676   4.356 -0.3374  0.6804 -0.0655
  789MOL0     N 8796   6.732   4.560   4.388 -0.1253 -0.1994  0.0760
  789MOL0     C 8797   5.703   4.066   4.557 -0.7830  0.1784 -0.4055
  789MOL0     C 8798   5.642   3.953   4.514 -0.0817 -1.1423  0.1437
  789MOL0     C 8799   5.465   3.609   4.268 -0.9395 -0.1929 -0.3024
  789MOL0     C 8800   5.331   3.600   4.320 -0.3509  0.5491  0.5850
  789MOL0     C 8801   5.269   3.480   4.298 -0.0162  0.8675 -0.0398
  789MOL0     C 8802   5.330   3.363   4.240 -0.2928 -0.1020  0.2356
  789MOL0     O 8803   5.260   3.245   4.228 -0.2866 -0.5384 -0.3727
  789MOL0     C 8804   5.310   3.124   4.287 -0.8609 -0.7140 -0.3097
  789MOL0     C 8805   5.347   3.120   4.437 -0.1878 -0.2532 -1.1845
  789MOL0     C 8806   5.410   2.991   4.480 -0.0541  0.2102 -0.1409
  789MOL0     C 8807   5.336   2.857   4.492  0.4786 -0.5971 -0.2996
  789MOL0     C 8808   5.195   2.883   4.528  1.1086  0.1437 -0.5866
  789MOL0     C 8809   5.080   2.889   4.571 -0.9486 -0.6346  0.4827
  789MOL0     C 8810   5.458   3.375   4.199  0.1521  0.6635  0.3605
  789MOL0     C 8811   5.527   3.499   4.201 -0.3233  0.9071 -0.0362
  789MOL0     C 8812   5.663   3.506   4.134  0.7663  0.2414  0.4264
  789MOL0     H 8813   5.461   4.076   4.258 -0.2681 -2.2205  0.6731
  789MOL0     H 8814   5.566   4.293   4.342  4.3353  1.8132  0.3596
  789MOL0     H 8815   5.752   4.429   4.374  0.6040  0.8153  1.5145
  789MOL0     H 8816   5.871   4.300   4.395 -0.5013 -0.7011  0.2229
  789MOL0     H 8817   5.940   4.520   4.420  2.1470 -4.1906 -2.1840
  789MOL0     H 8818   5.835   4.554   4.560 -0.6341  1.2016 -3.2409
  789MOL0     H 8819   6.067   4.512   4.653 -1.2125 -0.9819  2.6723
  789MOL0     H 8820   5.987   4.354   4.676  3.2976 -2.1479 -0.5967
  789MOL0     H 8821   6.081   4.277   4.464  0.9211  0.3259 -3.8671
  789MOL0     H 8822   6.128   4.445   4.431 -2.9016 -0.3460  0.8928
  789MOL0     H 8823   6.207   4.247   4.650 -0.6870 -1.4018 -1.9771
  789MOL0     H 8824   6.275   4.413   4.667  1.0497  0.7192 -2.6658
  789MOL0     H 8825   6.435   4.240   4.544 -0.5210  0.3262  2.0712
  789MOL0     H 8826   6.328   4.248   4.414 -1.8487 -0.4744  1.7459
  789MOL0     H 8827   6.465   4.484   4.532 -2.2328  1.9147 -0.0232
  789MOL0     H 8828   6.362   4.491   4.387  0.2421  0.0419 -0.0753
  789MOL0     H 8829   6.612   4.324   4.406  0.2244 -1.1469 -1.7107
  789MOL0     H 8830   6.518   4.349   4.262  0.3791  0.1970  0.6424
  789MOL0     H 8831   6.491   4.633   4.174  0.9413  3.8875 -1.8068
  789MOL0     H 8832   6.714   4.930   4.259  0.3780  0.4622  0.3845
  789MOL0     H 8833   6.610   4.873   4.118  1.8065 -1.1444 -2.8720
  789MOL0     H 8834   6.905   4.816   4.159  0.6896 -4.4446 -1.8178
  789MOL0     H 8835   6.820   4.746   4.023  2.4587 -1.0615 -0.9203
  789MOL0     H 8836   6.924   5.037   4.070  1.3031 -3.4799  1.0699
  789MOL0     H 8837   6.947   4.940   3.926 -1.8285  0.2773 -1.3929
  789MOL0     H 8838   6.700   5.086   3.995 -1.5572  0.3095 -2.3668
  789MOL0     H 8839   6.812   5.124   3.865 -0.9178  0.1093 -1.4112
  789MOL0     H 8840   6.568   5.190   3.799  2.2253  0.6359 -1.1803
  789MOL0     H 8841   6.226   5.254   3.739  0.3239 -2.7872 -0.1684
  789MOL0     H 8842   6.352   5.322   3.629 -0.6166 -0.3769 -0.1471
  789MOL0     H 8843   6.373   5.310   3.807 -0.3564 -0.2866 -0.3667
  789MOL0     H 8844   6.006   4.691   3.559 -1.5130  0.0335  0.2186
  789MOL0     H 8845   5.772   4.649   3.451  2.1458 -1.8717 -2.9989
  789MOL0     H 8846   5.576   5.015   3.283 -0.9938 -0.6987  2.7155
  789MOL0     H 8847   5.590   4.900   3.140  0.3930  1.4307 -0.3730
  789MOL0     H 8848   5.356   4.932   3.175 -1.4881 -1.2848  0.4224
  789MOL0     H 8849   5.410   4.775   3.223 -2.4320 -0.8324  0.4330
  789MOL0     H 8850   5.386   4.991   3.440  0.3844  1.5302 -1.9006
  789MOL0     H 8851   5.372   4.825   3.461  0.2227  0.6943  0.6411
  789MOL0     H 8852   5.149   4.854   3.300 -0.2083 -1.6414  2.7664
  789MOL0     H 8853   5.169   5.023   3.310  1.3353  1.2402 -0.0787
  789MOL0     H 8854   5.010   4.908   3.470  0.4789  2.6862 -1.4807
  789MOL0     H 8855   5.150   4.834   3.554  1.5398  1.3319  1.0588
  789MOL0     H 8856   5.132   5.126   3.538  0.9958 -0.4807 -1.1684
  789MOL0     H 8857   5.223   5.030   3.656 -1.5765  1.0979  0.1772
  789MOL0     H 8858   5.025   4.943   3.750 -2.0029 -0.5175 -0.9501
  789MOL0     H 8859   4.921   5.028   3.633 -0.9899  1.9488  0.2870
  789MOL0     H 8860   4.925   5.190   3.819 -1.3584  4.9769 -3.8410
  789MOL0     H 8861   5.071   5.240   3.726  1.9153 -1.6713 -0.1279
  789MOL0     H 8862   5.783   5.038   3.280 -4.1064 -3.1645 -0.8103
  789MOL0     H 8863   6.019   5.056   3.355  2.0624 -1.2253 -1.0091
  789MOL0     H 8864   6.351   4.825   3.562 -3.1952  1.6730  1.6833
  789MOL0     H 8865   6.550   4.780   3.674 -4.6168 -1.8459 -1.3377
  789MOL0     H 8866   5.767   4.070   4.645 -2.6990  3.0131  0.9830
  789MOL0     H 8867   5.673   3.866   4.571  0.7243 -0.5342  0.6582
  789MOL0     H 8868   5.282   3.685   4.365 -0.7575 -0.7526  2.7559
  789MOL0     H 8869   5.169   3.466   4.339  1.1614 -2.8516  2.1633
  789MOL0     H 8870   5.228   3.053   4.277 -1.7804  0.3304 -0.2767
  789MOL0     H 8871   5.404   3.108   4.232  3.2559  3.1008  4.5667
  789MOL0     H 8872   5.253   3.136   4.489 -0.7065  2.2397 -2.7151
  789MOL0     H 8873   5.395   3.217   4.458 -0.2398 -0.4439 -0.1481
  789MOL0     H 8874   5.496   2.964   4.419 -1.3986 -3.1433 -0.7837
  789MOL0     H 8875   5.435   3.017   4.583 -1.4728 -0.1714  0.3344
  789MOL0     H 8876   5.379   2.781   4.558  1.4762  1.7617  1.9081
  789MOL0     H 8877   5.351   2.806   4.396 -0.4854 -2.4394  0.4668
  789MOL0     H 8878   4.979   2.890   4.607 -0.4383 -0.1726  1.9723
  789MOL0     H 8879   5.512   3.292   4.154  2.6888  2.6089 -0.3413
  789MOL0     H 8880   5.704   3.407   4.113  1.7411  0.7748 -0.2257
  789MOL0     H 8881   5.649   3.556   4.038  2.0403 -1.1471 -0.5118
  789MOL0     H 8882   5.735   3.548   4.205  0.4216  2.2373 -0.3294
  790MOL0     O 8883   1.604   9.477   0.144  0.7973 -0.4075  0.9654
  790MOL0     C 8884   1.504   9.410   0.166 -0.2337 -0.9378 -0.1328
  790MOL0     O 8885   1.404   9.393   0.075  0.4158  0.0466  0.1315
  790MOL0     C 8886   1.431   9.433  -0.053 -0.1877  0.2903 -0.2505
  790MOL0     C 8887   1.419   9.566  -0.092  0.2556  0.2266 -1.0996
  790MOL0     C 8888   1.456   9.596  -0.226 -0.9571 -0.0307 -1.4639
  790MOL0     C 8889   1.495   9.500  -0.315 -0.4607 -0.4581  0.1844
  790MOL0     O 8890   1.492   9.509  -0.447 -0.5497 -0.0091  0.2974
  790MOL0     C 8891   1.602   9.577  -0.508 -0.4136 -0.0549  0.3788
  790MOL0     C 8892   1.581   9.587  -0.665  0.0576  0.1074  0.6456
  790MOL0     C 8893   1.702   9.664  -0.728 -0.2419  1.0762 -0.4732
  790MOL0     C 8894   1.677   9.682  -0.886 -0.9355 -0.2967  0.2996
  790MOL0     C 8895   1.751   9.790  -0.961 -0.5070 -0.0888  0.2479
  790MOL0     C 8896   1.902   9.804  -0.927 -0.0122  0.4569  0.1889
  790MOL0     C 8897   1.997   9.685  -0.956  0.1640  0.3080  0.5389
  790MOL0     C 8898   1.987   9.635  -1.100 -0.0204  0.0685  0.5727
  790MOL0     N 8899   2.126   9.627  -1.150  0.5148 -0.9783  0.6228
  790MOL0     C 8900   2.200   9.737  -1.208 -0.1903  0.4044  0.0134
  790MOL0     C 8901   2.308   9.672  -1.258  0.7653 -0.9353 -0.1136
  790MOL0     C 8902   2.392   9.737  -1.359 -0.9435  0.8230 -0.2023
  790MOL0     C 8903   2.347   9.771  -1.506  1.2175  0.4811 -0.5953
  790MOL0     C 8904   2.282   9.913  -1.513 -0.5362  0.3083 -0.2510
  790MOL0     C 8905   2.250   9.959  -1.657 -0.0691  0.8065  0.3261
  790MOL0     O 8906   2.360   9.914  -1.745  0.9405  0.8667 -0.5131
  790MOL0     C 8907   2.379   9.974  -1.870 -0.3426 -0.0366 -0.2617
  790MOL0     C 8908   2.297  10.072  -1.920 -0.4483 -0.5456 -0.4282
  790MOL0     C 8909   2.320  10.115  -2.051 -0.5219  0.2823 -0.4444
  790MOL0     C 8910   2.218  10.219  -2.106  0.1626  0.2073 -0.2457
  790MOL0     C 8911   2.436  10.073  -2.123 -0.0716  0.5834 -0.4967
  790MOL0     C 8912   2.469  10.111  -2.261 -0.8567 -0.4521  0.3157
  790MOL0     O 8913   2.574  10.034  -2.324  0.1781 -0.5539 -0.9358
  790MOL0     C 8914   2.585  10.013  -2.464  0.8094 -0.6344  0.8357
  790MOL0     C 8915   2.708   9.990  -2.528  1.4145 -0.8185 -0.2454
  790MOL0     C 8916   2.721   9.976  -2.666 -0.7127 -0.0420  0.2470
  790MOL0     C 8917   2.608   9.982  -2.752 -0.8059 -0.1770  0.4567
  790MOL0     O 8918   2.623   9.951  -2.884  0.8995 -1.0274 -0.4979
  790MOL0     C 8919   2.521   9.894  -2.958  0.3848  0.8961 -0.4955
  790MOL0     C 8920   2.479   9.753  -2.927  0.4750  0.4519 -0.1903
  790MOL0     C 8921   2.410   9.683  -3.044 -0.8845  0.1028  0.5885
  790MOL0     C 8922   2.427   9.539  -3.005 -0.2632 -0.5928  0.1967
  790MOL0     C 8923   2.330   9.448  -3.069  0.0701  0.6157 -0.1050
  790MOL0     C 8924   2.350   9.413  -3.219  0.1012 -0.6461  0.7004
  790MOL0     C 8925   2.488   9.355  -3.238  0.2495 -0.3695 -0.1041
  790MOL0     C 8926   2.483   9.246  -3.343 -0.0697  0.7505 -0.2491
  790MOL0    Cl 8927   2.474   9.288  -3.518 -0.4963 -0.0105 -0.0371
  790MOL0     C 8928   2.482  10.001  -2.689  0.3379 -0.4766  0.3869
  790MOL0     C 8929   2.476  10.017  -2.551  0.6238 -0.6008 -1.0239
  790MOL0     O 8930   2.408  10.196  -2.314 -0.0866  0.0727  0.5937
  790MOL0     C 8931   2.512   9.971  -2.071  0.2843  0.2758 -0.0167
  790MOL0     C 8932   2.489   9.927  -1.939 -0.0799 -0.1040  1.4333
  790MOL0     N 8933   2.302   9.537  -1.243 -0.1583 -0.4196  0.3936
  790MOL0     N 8934   2.192   9.510  -1.175 -0.9052 -0.2630 -0.0123
  790MOL0     C 8935   1.518   9.369  -0.261 -0.8146 -0.3020  0.5243
  790MOL0     C 8936   1.488   9.339  -0.132 -1.6690 -1.0599  0.1533
  790MOL0     C 8937   1.502   9.343   0.300 -0.8660  0.2624 -0.5760
  790MOL0     C 8938   1.580   9.399   0.394 -0.4026 -0.8695 -0.1440
  790MOL0     C 8939   1.592   9.344   0.523  0.1922 -1.0892 -0.2420
  790MOL0     C 8940   1.516   9.230   0.561 -0.5652 -0.3538 -0.2763
  790MOL0     O 8941   1.538   9.185   0.690  0.2977 -0.0456  0.4029
  790MOL0     C 8942   1.503   9.051   0.725  0.9740 -0.5144 -0.4326
  790MOL0     C 8943   1.635   8.996   0.763 -0.2164  0.0754 -0.3642
  790MOL0     C 8944   1.664   9.013   0.913  0.5311  0.2974 -0.8839
  790MOL0     C 8945   1.805   8.964   0.966  0.5928  0.7808 -1.0830
  790MOL0     C 8946   1.815   8.825   1.021  0.6336  0.0612  0.7451
  790MOL0     C 8947   1.850   8.646   1.080  0.1857  0.5950 -0.5635
  790MOL0     C 8948   1.436   9.177   0.463  0.9781  0.1751 -0.1238
  790MOL0     C 8949   1.426   9.225   0.332  0.1678 -0.0331 -0.1192
  790MOL0     C 8950   1.340   9.141   0.243  0.5145 -0.0234 -0.4405
  790MOL0     H 8951   1.371   9.641  -0.031  1.3371 -0.8018  1.1373
  790MOL0     H 8952   1.428   9.696  -0.259  1.2957  1.2347  0.1778
  790MOL0     H 8953   1.696   9.527  -0.482 -0.1732  1.3626  2.4607
  790MOL0     H 8954   1.604   9.682  -0.479 -1.9575  0.7343 -2.1326
  790MOL0     H 8955   1.595   9.483  -0.696  2.9528  0.5045  0.3448
  790MOL0     H 8956   1.490   9.641  -0.693 -0.1446 -1.5214 -2.2362
  790MOL0     H 8957   1.705   9.760  -0.675 -2.4083  1.3366 -0.7453
  790MOL0     H 8958   1.791   9.606  -0.703  0.9087  2.1532 -1.8861
  790MOL0     H 8959   1.702   9.589  -0.938  1.4516  0.3238  0.2413
  790MOL0     H 8960   1.573   9.708  -0.907  0.7721  5.1451 -3.7002
  790MOL0     H 8961   1.705   9.885  -0.936  2.7190  2.2412 -1.8723
  790MOL0     H 8962   1.749   9.774  -1.069  2.0341 -2.5187  0.4240
  790MOL0     H 8963   1.951   9.882  -0.986 -4.3888  0.5437 -3.8883
  790MOL0     H 8964   1.919   9.830  -0.822  0.4753 -1.2543  0.5773
  790MOL0     H 8965   1.997   9.593  -0.897 -2.7204 -0.8648 -1.0834
  790MOL0     H 8966   2.099   9.717  -0.930  1.2808  0.2675 -3.2594
  790MOL0     H 8967   1.940   9.536  -1.091  2.4281 -1.4726 -1.9876
  790MOL0     H 8968   1.931   9.700  -1.167  0.5320  0.5570  0.5795
  790MOL0     H 8969   2.183   9.840  -1.237  6.3878  2.3254  1.3624
  790MOL0     H 8970   2.489   9.686  -1.362  0.7258  3.7195 -3.5875
  790MOL0     H 8971   2.411   9.838  -1.321 -1.0453  0.6037  0.4477
  790MOL0     H 8972   2.439   9.775  -1.564  2.0432  1.4736  0.7117
  790MOL0     H 8973   2.283   9.686  -1.531 -0.9257  1.4581  1.1721
  790MOL0     H 8974   2.192   9.900  -1.451  0.6207 -0.0192  1.4297
  790MOL0     H 8975   2.354   9.990  -1.484  2.1552 -0.9733 -3.0536
  790MOL0     H 8976   2.154   9.916  -1.686 -0.6022 -0.3831  3.5251
  790MOL0     H 8977   2.240  10.068  -1.647  0.5683  0.9190 -0.1972
  790MOL0     H 8978   2.211  10.102  -1.860 -1.5406  0.6446 -2.4517
  790MOL0     H 8979   2.164  10.262  -2.022  0.2602  2.0788 -1.1061
  790MOL0     H 8980   2.158  10.163  -2.179 -0.4441 -2.1102  1.8841
  790MOL0     H 8981   2.261  10.308  -2.152  1.1882 -0.0262  0.2221
  790MOL0     H 8982   2.797   9.972  -2.468  1.3807  0.5528  0.2559
  790MOL0     H 8983   2.819   9.966  -2.713 -0.8899 -0.2142 -0.0935
  790MOL0     H 8984   2.435   9.960  -2.962 -1.8782 -1.7994  0.3272
  790MOL0     H 8985   2.552   9.888  -3.063 -2.9726  2.9750 -1.7329
  790MOL0     H 8986   2.563   9.696  -2.888  4.0080  5.7371  0.8767
  790MOL0     H 8987   2.408   9.752  -2.844  1.1522  1.6685  0.4236
  790MOL0     H 8988   2.460   9.703  -3.139 -4.2441 -0.6142 -1.4724
  790MOL0     H 8989   2.306   9.716  -3.045 -1.3395 -1.2414  1.0357
  790MOL0     H 8990   2.401   9.530  -2.899 -0.2190  1.8034  0.4578
  790MOL0     H 8991   2.532   9.508  -3.008  0.6266  1.9237  2.3875
  790MOL0     H 8992   2.331   9.351  -3.018  2.9056  0.9545  0.6668
  790MOL0     H 8993   2.228   9.486  -3.070 -1.1021 -2.1271 -3.3992
  790MOL0     H 8994   2.347   9.505  -3.279  1.3498 -0.8152  0.3463
  790MOL0     H 8995   2.270   9.344  -3.245 -0.1682 -0.2304  0.4018
  790MOL0     H 8996   2.525   9.318  -3.142  0.7470  0.2517 -0.0509
  790MOL0     H 8997   2.564   9.431  -3.258  0.6732 -1.0075 -0.9982
  790MOL0     H 8998   2.389   9.192  -3.333  0.1873  0.3220 -0.1189
  790MOL0     H 8999   2.565   9.174  -3.335  0.9821  1.8349 -0.8306
  790MOL0     H 9000   2.386   9.989  -2.739 -0.8111  1.6102  1.9450
  790MOL0     H 9001   2.375  10.046  -2.524  0.3423 -1.7041 -0.8404
  790MOL0     H 9002   2.602   9.938  -2.122  0.1470  2.4344 -1.8525
  790MOL0     H 9003   2.546   9.845  -1.896 -1.6641 -1.0153  1.8523
  790MOL0     H 9004   1.547   9.293  -0.333  0.7741  1.4251 -0.7573
  790MOL0     H 9005   1.507   9.240  -0.091  1.2000 -0.4874  0.3817
  790MOL0     H 9006   1.630   9.492   0.369  1.4917 -1.8309 -0.0511
  790MOL0     H 9007   1.657   9.400   0.589 -1.3091 -2.3635  2.4751
  790MOL0     H 9008   1.438   9.054   0.813  1.6690  0.6892  0.0681
  790MOL0     H 9009   1.461   8.980   0.653 -1.8348 -0.0167  0.5869
  790MOL0     H 9010   1.718   9.046   0.711 -0.4904  1.4604  0.4670
  790MOL0     H 9011   1.628   8.887   0.754 -3.2081 -0.2060  3.1864
  790MOL0     H 9012   1.669   9.120   0.939  2.5399  0.0497 -0.0848
  790MOL0     H 9013   1.586   8.964   0.972 -0.4072 -1.2733 -3.2905
  790MOL0     H 9014   1.816   9.011   1.065  2.1143  0.5907 -1.1418
  790MOL0     H 9015   1.893   8.992   0.908  2.4344 -1.4504  0.4667
  790MOL0     H 9016   1.864   8.543   1.108  3.5599  1.4207  1.4080
  790MOL0     H 9017   1.388   9.082   0.486  0.9387  0.7281  2.3439
  790MOL0     H 9018   1.245   9.130   0.295 -0.5040  1.3607 -1.9222
  790MOL0     H 9019   1.313   9.197   0.153  3.0410  0.7706 -0.8027
  790MOL0     H 9020   1.378   9.039   0.228  0.7026  0.0846 -0.7184
  791MOL0     O 9021  11.212   3.232   8.203 -0.3144 -0.1193  0.6321
  791MOL0     C 9022  11.114   3.306   8.200 -0.6043 -0.5686 -0.4223
  791MOL0     O 9023  11.031   3.343   8.301 -0.3576 -0.6794  0.3119
  791MOL0     C 9024  11.035   3.247   8.399 -0.0147  0.0311 -0.4329
  791MOL0     C 9025  11.094   3.269   8.520  0.2082 -1.1315  0.1402
  791MOL0     C 9026  11.103   3.178   8.623 -0.4331  0.6207  0.8436
  791MOL0     C 9027  11.052   3.054   8.606 -0.4706  0.5059  0.4475
  791MOL0     O 9028  11.058   2.980   8.724 -0.3895  0.6245  0.4422
  791MOL0     C 9029  11.046   2.838   8.714  0.9629  0.5759  0.0353
  791MOL0     C 9030  11.146   2.766   8.812  0.2048  0.0919 -0.1583
  791MOL0     C 9031  11.137   2.612   8.824 -0.4104 -0.3530  0.0591
  791MOL0     C 9032  11.007   2.561   8.872  0.5994  0.9170  0.4099
  791MOL0     C 9033  11.002   2.405   8.896 -1.0305 -0.8755 -0.3753
  791MOL0     C 9034  10.867   2.365   8.931  0.5345  0.2804  0.7985
  791MOL0     C 9035  10.855   2.225   8.957 -0.6915  0.8412 -0.1346
  791MOL0     C 9036  10.856   2.120   8.839 -0.2885 -0.5514 -0.2931
  791MOL0     N 9037  10.834   1.976   8.876 -0.5684 -0.9036  0.3346
  791MOL0     C 9038  10.915   1.901   8.957  0.9068 -0.7485  0.0645
  791MOL0     C 9039  10.880   1.773   8.934 -0.9492 -0.2708  0.6395
  791MOL0     C 9040  10.958   1.657   8.989  0.4016  0.2863 -0.3193
  791MOL0     C 9041  10.938   1.640   9.134 -0.0501 -0.2864 -1.1817
  791MOL0     C 9042  11.030   1.520   9.186 -1.1081 -0.6290 -0.2012
  791MOL0     C 9043  11.177   1.556   9.176 -0.1756 -0.1842  0.6620
  791MOL0     O 9044  11.253   1.442   9.207  0.5486  0.1444  0.0981
  791MOL0     C 9045  11.382   1.441   9.249  0.0306 -0.6387  0.1372
  791MOL0     C 9046  11.460   1.552   9.300  0.2954 -0.1913  0.2796
  791MOL0     C 9047  11.597   1.552   9.338  1.0828  0.6125 -0.0201
  791MOL0     C 9048  11.670   1.676   9.386  0.4280 -0.2861 -0.0415
  791MOL0     C 9049  11.651   1.424   9.342  0.8156  0.1516  0.0567
  791MOL0     C 9050  11.794   1.406   9.381  0.3120  0.0951  0.3654
  791MOL0     O 9051  11.889   1.492   9.333  0.6626 -0.0654 -0.1118
  791MOL0     C 9052  12.017   1.439   9.349 -0.1684 -0.8715  0.0438
  791MOL0     C 9053  12.090   1.370   9.238  0.0283 -0.1090 -0.1995
  791MOL0     C 9054  12.222   1.332   9.258 -0.4017 -0.8012 -0.1850
  791MOL0     C 9055  12.293   1.364   9.375 -0.2703 -0.3974  0.4921
  791MOL0     O 9056  12.424   1.322   9.376 -0.7853  0.4358  0.5446
  791MOL0     C 9057  12.501   1.336   9.497 -0.5099 -0.0386 -1.2324
  791MOL0     C 9058  12.548   1.475   9.522 -0.2649 -0.8430  0.1956
  791MOL0     C 9059  12.671   1.480   9.611  0.0352  0.2430  0.0240
  791MOL0     C 9060  12.726   1.627   9.622 -0.0338  0.9866 -0.3170
  791MOL0     C 9061  12.849   1.632   9.716 -0.3835  0.6878  0.4648
  791MOL0     C 9062  12.896   1.781   9.731  0.4432  0.7482  0.4583
  791MOL0     C 9063  13.013   1.794   9.828  0.3799 -0.1324  0.7197
  791MOL0     C 9064  13.112   1.675   9.811 -0.2469 -0.2043  0.2577
  791MOL0    Cl 9065  13.270   1.696   9.886 -0.3008 -0.0319 -0.4975
  791MOL0     C 9066  12.220   1.417   9.478  0.3160 -0.4945 -0.8605
  791MOL0     C 9067  12.094   1.465   9.467 -0.1108  0.1080 -0.3427
  791MOL0     O 9068  11.819   1.306   9.450 -0.3000  0.2193 -0.0516
  791MOL0     C 9069  11.577   1.312   9.303 -0.4016 -0.0313  0.1985
  791MOL0     C 9070  11.441   1.317   9.255  0.3996 -0.4653  0.5465
  791MOL0     N 9071  10.777   1.771   8.840  0.0156 -1.2471  0.1655
  791MOL0     N 9072  10.750   1.895   8.805  0.0406 -0.2899 -0.1908
  791MOL0     C 9073  10.987   3.022   8.487  0.7923 -0.9729  0.5088
  791MOL0     C 9074  10.978   3.116   8.376 -0.5151 -0.7717 -0.5902
  791MOL0     C 9075  11.068   3.339   8.064  0.8571 -0.0827 -0.5406
  791MOL0     C 9076  10.972   3.268   8.002  0.7383  0.3788  0.5260
  791MOL0     C 9077  10.902   3.320   7.894  0.1596  0.7781 -0.0202
  791MOL0     C 9078  10.934   3.442   7.836 -0.0759  0.3663  0.5381
  791MOL0     O 9079  10.871   3.494   7.730  0.5469  0.1655  0.1775
  791MOL0     C 9080  10.758   3.417   7.685  0.7878 -0.6529  0.6933
  791MOL0     C 9081  10.659   3.504   7.609 -0.2650  0.3707  0.7430
  791MOL0     C 9082  10.536   3.430   7.551 -0.0775 -0.2676 -0.1171
  791MOL0     C 9083  10.441   3.524   7.469  0.0226  0.9110 -0.8138
  791MOL0     C 9084  10.511   3.592   7.363 -0.0930 -0.7183 -0.1865
  791MOL0     C 9085  10.572   3.649   7.285  0.5221 -0.9130 -0.7154
  791MOL0     C 9086  11.028   3.522   7.904  0.1800  0.0837  0.3590
  791MOL0     C 9087  11.099   3.468   8.016  0.0850  0.8257  0.6602
  791MOL0     C 9088  11.208   3.562   8.077  0.1289 -0.1086  0.4393
  791MOL0     H 9089  11.113   3.375   8.532  1.3221 -1.4108  0.9536
  791MOL0     H 9090  11.143   3.199   8.722 -4.3789  0.3599  2.6905
  791MOL0     H 9091  11.071   2.811   8.611 -1.1516  0.6879 -0.5542
  791MOL0     H 9092  10.940   2.817   8.728  0.6843  2.0113  0.3072
  791MOL0     H 9093  11.247   2.797   8.781 -0.5406  0.0715 -2.8399
  791MOL0     H 9094  11.133   2.806   8.913  1.9612  0.9829 -0.2368
  791MOL0     H 9095  11.151   2.569   8.725  1.5134  3.6343 -1.6711
  791MOL0     H 9096  11.225   2.575   8.877  0.4133  0.9250 -0.3544
  791MOL0     H 9097  10.983   2.611   8.966  2.7262 -0.2257  1.6368
  791MOL0     H 9098  10.930   2.594   8.802  1.5288 -0.6371 -1.4624
  791MOL0     H 9099  11.053   2.382   8.990  1.4184  2.5905 -0.6901
  791MOL0     H 9100  11.050   2.349   8.816  0.2831 -0.8192  0.3449
  791MOL0     H 9101  10.843   2.434   9.013  1.5777  1.9812 -0.2565
  791MOL0     H 9102  10.796   2.392   8.852  0.1096 -2.0473  0.3016
  791MOL0     H 9103  10.764   2.205   9.016 -0.1865 -0.0101  0.3834
  791MOL0     H 9104  10.934   2.192   9.024  1.2709  0.9416 -2.2921
  791MOL0     H 9105  10.768   2.146   8.779 -1.6678 -1.7578  1.1078
  791MOL0     H 9106  10.950   2.125   8.784  0.1664 -2.7706  0.1903
  791MOL0     H 9107  10.994   1.928   9.026 -0.0215 -1.3330  1.4173
  791MOL0     H 9108  11.064   1.672   8.967  0.4713 -0.5029 -0.5668
  791MOL0     H 9109  10.923   1.567   8.937  4.0372 -1.0485 -0.7296
  791MOL0     H 9110  10.966   1.727   9.193  0.6098 -1.2286 -0.0535
  791MOL0     H 9111  10.830   1.626   9.145  0.2671 -2.4813 -0.2747
  791MOL0     H 9112  10.996   1.485   9.284 -1.3330 -1.0601 -0.4297
  791MOL0     H 9113  11.015   1.433   9.121 -0.1192  2.0594 -4.3821
  791MOL0     H 9114  11.209   1.576   9.073 -0.2782 -2.4112  0.1539
  791MOL0     H 9115  11.202   1.636   9.247  3.4648  1.4211 -2.0673
  791MOL0     H 9116  11.420   1.652   9.313  2.9713  1.1517 -0.9917
  791MOL0     H 9117  11.621   1.772   9.363 -0.3357 -0.9557 -1.3174
  791MOL0     H 9118  11.762   1.691   9.327  0.8586 -1.9302  0.1733
  791MOL0     H 9119  11.695   1.676   9.492  4.0396 -0.0680 -0.7636
  791MOL0     H 9120  12.042   1.339   9.145 -2.9735  2.1424  0.4227
  791MOL0     H 9121  12.277   1.283   9.178 -1.5950 -0.1386 -1.4577
  791MOL0     H 9122  12.447   1.295   9.582  2.7957  0.2507  1.2197
  791MOL0     H 9123  12.581   1.265   9.475  0.2185  1.3505 -3.4555
  791MOL0     H 9124  12.563   1.533   9.431  0.8076 -0.1442  0.7947
  791MOL0     H 9125  12.465   1.523   9.574 -1.6264 -2.2127 -0.6421
  791MOL0     H 9126  12.753   1.417   9.574 -0.7587 -1.3659  0.8995
  791MOL0     H 9127  12.653   1.436   9.710  1.6440  0.3629  0.4043
  791MOL0     H 9128  12.650   1.688   9.672  0.9653  2.2563 -0.2962
  791MOL0     H 9129  12.759   1.678   9.531  5.0122  0.9146  1.2091
  791MOL0     H 9130  12.836   1.579   9.811  2.9523  2.1643  1.8978
  791MOL0     H 9131  12.929   1.574   9.668  0.0020  1.6300 -0.0508
  791MOL0     H 9132  12.803   1.825   9.768 -1.0991 -0.0234 -2.1664
  791MOL0     H 9133  12.929   1.813   9.632 -0.2000  1.4480  0.4654
  791MOL0     H 9134  12.972   1.806   9.929  2.0355 -0.6622  1.4798
  791MOL0     H 9135  13.060   1.892   9.817 -2.0473  1.5018  3.3139
  791MOL0     H 9136  13.137   1.657   9.706  0.5019  1.9682  0.0093
  791MOL0     H 9137  13.078   1.577   9.847  2.1374 -2.3413 -2.7312
  791MOL0     H 9138  12.270   1.430   9.574 -2.2765 -0.3115  0.5554
  791MOL0     H 9139  12.058   1.531   9.545 -2.1773 -0.3310 -0.8665
  791MOL0     H 9140  11.633   1.219   9.308  0.8338  0.5070 -2.1198
  791MOL0     H 9141  11.391   1.230   9.212  0.1821  0.1562 -0.4875
  791MOL0     H 9142  10.933   2.928   8.487 -2.3364  0.6633  1.3689
  791MOL0     H 9143  10.930   3.108   8.279 -3.3656  2.9455  0.2683
  791MOL0     H 9144  10.952   3.166   8.031 -2.3908  0.3556 -1.3644
  791MOL0     H 9145  10.833   3.252   7.844  1.1353 -1.3209  1.3413
  791MOL0     H 9146  10.794   3.336   7.620  1.1734  0.5770 -0.6926
  791MOL0     H 9147  10.704   3.370   7.767  3.6355 -0.4593  2.8012
  791MOL0     H 9148  10.715   3.560   7.533 -2.3985 -0.8155 -1.9059
  791MOL0     H 9149  10.615   3.581   7.672 -0.2861  1.8395 -0.9998
  791MOL0     H 9150  10.577   3.348   7.490  1.7490 -2.0812  3.2441
  791MOL0     H 9151  10.472   3.389   7.630  0.3105 -1.9462 -0.6273
  791MOL0     H 9152  10.403   3.593   7.544  0.0886 -3.9534  4.3712
  791MOL0     H 9153  10.356   3.468   7.427 -1.7867  2.5200  0.5071
  791MOL0     H 9154  10.624   3.705   7.209  1.2904 -0.8242 -0.1370
  791MOL0     H 9155  11.060   3.619   7.867  0.4774  0.0330  0.4837
  791MOL0     H 9156  11.264   3.631   8.013  0.0997 -1.3961 -1.0484
  791MOL0     H 9157  11.158   3.627   8.149  0.1026  1.6283 -1.0560
  791MOL0     H 9158  11.281   3.492   8.119  1.7868  0.2442 -1.6977
  792MOL0     O 9159   9.893   8.344   3.901  0.0135 -0.3065  0.1187
  792MOL0     C 9160   9.940   8.243   3.953  0.5633 -0.5908 -1.0558
  792MOL0     O 9161   9.878   8.113   3.957  0.7244 -0.4230  0.4034
  792MOL0     C 9162   9.763   8.083   3.899 -0.3199 -1.0387  0.2499
  792MOL0     C 9163   9.749   7.943   3.875 -0.5785 -0.6764 -0.0114
  792MOL0     C 9164   9.642   7.914   3.797  0.8364  0.3975  0.6213
  792MOL0     C 9165   9.534   7.999   3.763 -0.3799  0.4454 -0.0548
  792MOL0     O 9166   9.415   7.970   3.699  0.7832 -0.5444  0.4688
  792MOL0     C 9167   9.394   7.842   3.642 -0.2307 -0.9525 -0.1974
  792MOL0     C 9168   9.358   7.846   3.490  0.9575  0.0290  0.4590
  792MOL0     C 9169   9.329   7.701   3.440  1.0834 -0.5319 -0.0828
  792MOL0     C 9170   9.259   7.716   3.303 -0.1267 -0.3725  0.1768
  792MOL0     C 9171   9.194   7.584   3.250 -1.1773 -0.6079 -0.0161
  792MOL0     C 9172   9.283   7.469   3.239  0.9486  0.6886  0.2403
  792MOL0     C 9173   9.385   7.496   3.128 -0.9219  0.1177 -0.5186
  792MOL0     C 9174   9.459   7.364   3.080  1.1881 -0.3972  0.1343
  792MOL0     N 9175   9.493   7.371   2.936  0.4200 -0.7395 -0.0403
  792MOL0     C 9176   9.438   7.296   2.841  0.9260 -0.0050 -0.3024
  792MOL0     C 9177   9.502   7.323   2.728  0.4893  0.6089 -0.4489
  792MOL0     C 9178   9.448   7.294   2.591  0.3149  0.1271  0.8453
  792MOL0     C 9179   9.515   7.175   2.531 -0.1581  0.2899 -0.0701
  792MOL0     C 9180   9.664   7.168   2.534 -0.8679 -0.0593  0.8236
  792MOL0     C 9181   9.715   7.047   2.464 -0.2129  0.2447  0.1677
  792MOL0     O 9182   9.693   6.936   2.544  0.1224  0.3768  0.0919
  792MOL0     C 9183   9.761   6.820   2.502 -0.2647 -0.0252 -0.1212
  792MOL0     C 9184   9.696   6.704   2.513 -1.2131  0.0255  1.0587
  792MOL0     C 9185   9.743   6.584   2.463 -0.1101  0.6102 -1.1249
  792MOL0     C 9186   9.647   6.466   2.459  0.4741 -0.2995  0.2903
  792MOL0     C 9187   9.876   6.578   2.410 -0.3361  0.5363 -0.0099
  792MOL0     C 9188   9.948   6.451   2.364  0.6224  1.1685 -0.6662
  792MOL0     O 9189  10.090   6.462   2.353 -0.2334 -0.8732  0.0876
  792MOL0     C 9190  10.163   6.368   2.282 -0.2520 -0.4282 -0.5342
  792MOL0     C 9191  10.116   6.262   2.203 -0.0232 -0.6112  0.2323
  792MOL0     C 9192  10.206   6.171   2.149 -0.6367 -1.1368 -0.0566
  792MOL0     C 9193  10.341   6.188   2.173  0.2391  0.2855 -1.1205
  792MOL0     O 9194  10.438   6.099   2.133 -0.5796  0.1696 -0.4254
  792MOL0     C 9195  10.418   5.975   2.069 -0.0481 -0.5434 -0.4468
  792MOL0     C 9196  10.547   5.883   2.074 -0.3561 -0.7099 -0.3114
  792MOL0     C 9197  10.636   5.932   1.957 -1.2855 -0.1753  0.1856
  792MOL0     C 9198  10.761   5.835   1.949 -0.1314 -0.6591  0.4102
  792MOL0     C 9199  10.724   5.712   1.870 -0.5909 -0.4328  1.0377
  792MOL0     C 9200  10.687   5.719   1.714 -0.2919 -1.1258 -0.5520
  792MOL0     C 9201  10.687   5.572   1.666 -0.8280  0.2141  0.8466
  792MOL0     C 9202  10.641   5.541   1.524  0.0085 -0.6321  0.5882
  792MOL0    Cl 9203  10.775   5.564   1.402  0.0812 -0.4801  0.0904
  792MOL0     C 9204  10.392   6.298   2.248 -0.1543  0.2288  0.5391
  792MOL0     C 9205  10.304   6.389   2.303  0.2110 -0.4960  0.0953
  792MOL0     O 9206   9.879   6.348   2.336  0.0003 -0.2612  1.0004
  792MOL0     C 9207   9.958   6.696   2.414  0.6912 -0.4337  0.5694
  792MOL0     C 9208   9.895   6.820   2.462 -0.2326  0.1369 -0.3817
  792MOL0     N 9209   9.608   7.408   2.757  0.0825  0.2296 -0.0938
  792MOL0     N 9210   9.600   7.427   2.886 -0.9491  0.1503 -0.6221
  792MOL0     C 9211   9.541   8.125   3.806 -0.2442  0.0039 -1.0677
  792MOL0     C 9212   9.655   8.171   3.871 -0.4924  0.3919 -0.3366
  792MOL0     C 9213  10.062   8.268   4.032 -0.2578  0.2949  0.1710
  792MOL0     C 9214  10.079   8.181   4.141  0.4251 -0.5579  0.4503
  792MOL0     C 9215  10.191   8.196   4.228 -0.7553  0.6554  0.1058
  792MOL0     C 9216  10.298   8.285   4.191  0.3488  1.0006  0.0589
  792MOL0     O 9217  10.414   8.302   4.267  0.0652  0.0644  0.3436
  792MOL0     C 9218  10.538   8.277   4.192 -0.5313  0.1937  0.6138
  792MOL0     C 9219  10.656   8.342   4.273  1.2406  0.2404 -1.0446
  792MOL0     C 9220  10.665   8.496   4.268  0.1900  1.0654  0.7727
  792MOL0     C 9221  10.640   8.566   4.130  0.3570  0.2072 -0.1229
  792MOL0     C 9222  10.712   8.519   4.017  0.2196 -0.8819  0.5071
  792MOL0     C 9223  10.787   8.481   3.935  0.1911  0.5125 -0.4125
  792MOL0     C 9224  10.281   8.361   4.079 -0.4820 -0.2564 -0.1952
  792MOL0     C 9225  10.165   8.358   3.998  0.2742  0.1266  1.0239
  792MOL0     C 9226  10.178   8.451   3.874 -0.1778 -0.4456  0.1652
  792MOL0     H 9227   9.825   7.877   3.914 -0.6938 -0.9331 -0.2219
  792MOL0     H 9228   9.644   7.808   3.773 -0.6288  0.9475 -2.4236
  792MOL0     H 9229   9.310   7.784   3.680 -2.6590  0.2308 -3.2752
  792MOL0     H 9230   9.475   7.771   3.660 -1.2711 -2.3085 -0.7144
  792MOL0     H 9231   9.269   7.909   3.484  2.7677  2.6881 -0.2908
  792MOL0     H 9232   9.433   7.895   3.427 -1.3532  2.2507 -0.7560
  792MOL0     H 9233   9.422   7.644   3.443  1.4559  0.0406 -0.5685
  792MOL0     H 9234   9.262   7.651   3.511  0.7959 -1.1965 -0.8193
  792MOL0     H 9235   9.172   7.782   3.311 -0.0492  0.1038 -2.0680
  792MOL0     H 9236   9.331   7.758   3.232 -1.8453 -0.8536 -1.9736
  792MOL0     H 9237   9.153   7.605   3.151  5.2133  0.2367 -3.0019
  792MOL0     H 9238   9.111   7.545   3.309  0.8689 -3.3738  1.3090
  792MOL0     H 9239   9.320   7.444   3.339  0.7873 -0.8515 -0.0672
  792MOL0     H 9240   9.223   7.383   3.207  0.1421  1.1919  0.3721
  792MOL0     H 9241   9.456   7.571   3.164 -1.3036  0.7250 -1.0137
  792MOL0     H 9242   9.332   7.531   3.039  2.6245  0.5223 -2.6686
  792MOL0     H 9243   9.545   7.344   3.145 -0.1737  0.6989  2.3900
  792MOL0     H 9244   9.378   7.292   3.091 -0.7603  1.5474 -0.7199
  792MOL0     H 9245   9.356   7.225   2.853  0.5385  0.2586 -1.2913
  792MOL0     H 9246   9.466   7.380   2.525 -0.5600  0.5751  1.1715
  792MOL0     H 9247   9.340   7.280   2.606 -0.0577  0.9850 -0.7528
  792MOL0     H 9248   9.488   7.087   2.590  2.5610 -0.5198  0.1207
  792MOL0     H 9249   9.468   7.166   2.433 -2.1586 -1.7571  0.9831
  792MOL0     H 9250   9.692   7.256   2.474  0.4180  0.5164  2.2000
  792MOL0     H 9251   9.693   7.181   2.638 -2.7181 -0.0782  1.3726
  792MOL0     H 9252   9.660   7.034   2.370 -0.9658  0.2043  0.6040
  792MOL0     H 9253   9.816   7.063   2.427 -0.8443  1.3983 -1.1328
  792MOL0     H 9254   9.594   6.710   2.549 -2.0912  0.0590 -1.2532
  792MOL0     H 9255   9.553   6.498   2.505  0.3940  1.1614 -0.7947
  792MOL0     H 9256   9.685   6.377   2.510  0.1751 -0.9120 -0.5329
  792MOL0     H 9257   9.629   6.437   2.355 -3.2020 -0.9307  0.9544
  792MOL0     H 9258  10.011   6.253   2.179 -0.4070 -0.9464  1.9354
  792MOL0     H 9259  10.173   6.085   2.091 -3.8581 -1.3970  1.8567
  792MOL0     H 9260  10.331   5.938   2.124  0.1173  2.4486  2.1074
  792MOL0     H 9261  10.378   5.989   1.968 -1.2947  0.3337  0.1388
  792MOL0     H 9262  10.597   5.896   2.170 -2.2960  1.3823  0.5199
  792MOL0     H 9263  10.512   5.780   2.071  2.3371 -1.7756  1.5540
  792MOL0     H 9264  10.669   6.036   1.966  0.1272 -0.5179 -0.7266
  792MOL0     H 9265  10.574   5.910   1.870 -1.5152 -0.2816  0.3726
  792MOL0     H 9266  10.780   5.803   2.051  3.0605  3.6476  1.4511
  792MOL0     H 9267  10.844   5.896   1.911 -0.4312 -0.1175  0.6161
  792MOL0     H 9268  10.818   5.657   1.879  1.5348  1.9296 -3.2158
  792MOL0     H 9269  10.639   5.664   1.919 -1.1809  0.4345  0.8851
  792MOL0     H 9270  10.768   5.775   1.666 -0.1456 -0.8467  0.0163
  792MOL0     H 9271  10.592   5.767   1.688 -0.3830 -2.3638 -2.7150
  792MOL0     H 9272  10.633   5.492   1.717  0.1606 -2.9079 -2.5228
  792MOL0     H 9273  10.794   5.546   1.667 -0.0955  2.7220 -0.8481
  792MOL0     H 9274  10.565   5.616   1.500 -1.5292 -2.4295 -0.4190
  792MOL0     H 9275  10.596   5.442   1.510 -0.6460 -0.0904 -1.4888
  792MOL0     H 9276  10.500   6.296   2.256 -0.2669 -2.1628  4.7348
  792MOL0     H 9277  10.334   6.489   2.330  0.8183 -0.6097 -0.1330
  792MOL0     H 9278  10.066   6.693   2.419  0.6554 -1.7169  4.3146
  792MOL0     H 9279   9.943   6.917   2.460  0.2638 -0.0143 -4.2636
  792MOL0     H 9280   9.464   8.198   3.783 -0.2996 -0.2478 -1.7129
  792MOL0     H 9281   9.663   8.278   3.889 -3.3908  0.7751 -0.9601
  792MOL0     H 9282  10.007   8.104   4.166 -0.1013 -0.6318 -1.1499
  792MOL0     H 9283  10.217   8.132   4.312  0.6045  0.5046 -0.4106
  792MOL0     H 9284  10.547   8.169   4.180  0.0058  0.0871  1.8330
  792MOL0     H 9285  10.557   8.302   4.088  2.1347 -2.8337  0.2465
  792MOL0     H 9286  10.745   8.284   4.245  1.0036 -0.8497  0.3301
  792MOL0     H 9287  10.647   8.324   4.381  4.7925  2.4272 -0.2085
  792MOL0     H 9288  10.591   8.534   4.339 -3.0384 -1.1278 -1.1600
  792MOL0     H 9289  10.766   8.523   4.301  1.4700  0.1728 -2.0890
  792MOL0     H 9290  10.672   8.669   4.144  1.2815 -0.0196 -0.4533
  792MOL0     H 9291  10.533   8.579   4.112 -0.0350  3.8066  3.5098
  792MOL0     H 9292  10.847   8.431   3.860  1.9568  0.7290  0.8048
  792MOL0     H 9293  10.358   8.434   4.055 -1.3618 -0.0239 -2.6637
  792MOL0     H 9294  10.260   8.418   3.808 -0.7742  3.1691 -2.7050
  792MOL0     H 9295  10.087   8.441   3.814 -1.1918  0.1532  1.5500
  792MOL0     H 9296  10.199   8.557   3.893 -1.3546 -0.3174  0.8069
  793MOL0     O 9297   5.616   7.352   9.970  0.0593  0.5283 -0.2045
  793MOL0     C 9298   5.728   7.359   9.915  0.0959  0.4621  0.3121
  793MOL0     O 9299   5.791   7.477   9.875 -0.2724  0.8810  0.4087
  793MOL0     C 9300   5.715   7.586   9.907  0.6040 -0.3296 -0.9366
  793MOL0     C 9301   5.608   7.629   9.823 -0.6438  0.1565 -0.0546
  793MOL0     C 9302   5.559   7.763   9.831  0.2501  1.2676 -0.3437
  793MOL0     C 9303   5.599   7.840   9.933 -0.0314 -0.3867  0.4289
  793MOL0     O 9304   5.575   7.973   9.950  0.0824  0.1135 -0.3395
  793MOL0     C 9305   5.434   8.018   9.937  0.1790 -0.3753  0.5470
  793MOL0     C 9306   5.412   8.155   9.997 -0.2290 -0.5604  0.1576
  793MOL0     C 9307   5.473   8.276   9.933 -0.1537  0.2299 -0.0544
  793MOL0     C 9308   5.419   8.326   9.799  0.1464  0.0042  1.0877
  793MOL0     C 9309   5.463   8.243   9.666  0.7112  0.5885 -0.5753
  793MOL0     C 9310   5.607   8.184   9.646 -0.2661  0.3296 -0.6632
  793MOL0     C 9311   5.623   8.118   9.508  0.3466  0.0380 -0.4265
  793MOL0     C 9312   5.707   8.198   9.412  1.1192 -0.1300  0.8110
  793MOL0     N 9313   5.702   8.124   9.283 -1.1248 -0.2630 -0.2168
  793MOL0     C 9314   5.784   8.024   9.243 -0.2229 -0.2833  0.2039
  793MOL0     C 9315   5.741   8.007   9.110 -0.4912  1.3641 -0.7650
  793MOL0     C 9316   5.760   7.880   9.026  0.1431 -0.3415 -0.4769
  793MOL0     C 9317   5.654   7.774   9.064 -0.6659 -1.1255 -0.6120
  793MOL0     C 9318   5.652   7.648   8.972 -0.3339  0.3740  0.0585
  793MOL0     C 9319   5.782   7.564   8.987  0.4804  0.8546  1.1705
  793MOL0     O 9320   5.785   7.519   9.120 -0.5171  0.0122  0.5069
  793MOL0     C 9321   5.897   7.447   9.161  0.1481  0.3677  0.1081
  793MOL0     C 9322   5.898   7.406   9.285 -0.0766  0.9572  1.0684
  793MOL0     C 9323   6.010   7.328   9.339  0.2740  0.8264 -0.2468
  793MOL0     C 9324   6.004   7.301   9.493  0.4770 -0.0256  1.3820
  793MOL0     C 9325   6.125   7.292   9.262 -0.4147  0.5907  0.1915
  793MOL0     C 9326   6.249   7.225   9.315 -0.2835  0.3381  0.5071
  793MOL0     O 9327   6.235   7.114   9.386  0.7480  0.0627 -0.7568
  793MOL0     C 9328   6.345   7.038   9.427 -0.4400  0.0517  0.1037
  793MOL0     C 9329   6.471   7.014   9.366 -0.6064 -0.3186  0.0455
  793MOL0     C 9330   6.565   6.929   9.440  0.0410 -0.4058  0.2342
  793MOL0     C 9331   6.543   6.883   9.568  0.6220  0.0522 -0.1447
  793MOL0     O 9332   6.631   6.817   9.651  0.2920 -0.6793 -0.1202
  793MOL0     C 9333   6.766   6.802   9.602  0.6985  0.2860 -0.8742
  793MOL0     C 9334   6.865   6.752   9.719 -0.3271 -1.0808  0.9598
  793MOL0     C 9335   7.008   6.716   9.680 -0.0242 -0.1176  1.0281
  793MOL0     C 9336   7.088   6.844   9.680 -0.2185 -0.0374 -0.1270
  793MOL0     C 9337   7.241   6.819   9.706 -0.3314  0.5473 -0.7927
  793MOL0     C 9338   7.314   6.958   9.672 -0.3482  0.3586  0.4097
  793MOL0     C 9339   7.309   7.002   9.524  0.8707  0.1368  0.3807
  793MOL0     C 9340   7.401   6.918   9.435  0.9263 -0.0521  0.2583
  793MOL0    Cl 9341   7.563   6.932   9.496 -0.3374 -0.1548 -0.1083
  793MOL0     C 9342   6.418   6.903   9.629  0.4970 -0.0977  0.1298
  793MOL0     C 9343   6.324   6.993   9.554 -0.3352  1.2197 -0.5226
  793MOL0     O 9344   6.368   7.273   9.275  0.5760  0.4181  0.6906
  793MOL0     C 9345   6.121   7.336   9.137 -0.1585  0.9406  0.3996
  793MOL0     C 9346   6.009   7.414   9.075 -0.3098  0.0313  0.5873
  793MOL0     N 9347   5.632   8.087   9.088  0.1000 -0.5473 -0.4263
  793MOL0     N 9348   5.612   8.156   9.190  0.6306  0.1887 -0.3584
  793MOL0     C 9349   5.700   7.789  10.027  0.7240  0.4844  0.4015
  793MOL0     C 9350   5.754   7.665  10.019  0.6570  0.9417  0.0443
  793MOL0     C 9351   5.802   7.236   9.887 -0.4301  0.6165  0.3456
  793MOL0     C 9352   5.924   7.235   9.830 -0.4782 -0.3113  0.4820
  793MOL0     C 9353   6.005   7.119   9.813 -0.5391  0.0704 -0.5572
  793MOL0     C 9354   5.964   6.991   9.846 -0.1720 -0.2388 -0.2609
  793MOL0     O 9355   6.042   6.883   9.814  0.6017  1.0498  0.1697
  793MOL0     C 9356   6.032   6.766   9.900 -0.3747  0.0194 -0.0402
  793MOL0     C 9357   6.152   6.683   9.876 -0.1932 -0.4425 -0.3381
  793MOL0     C 9358   6.171   6.563   9.968  0.7381 -0.3566  0.3108
  793MOL0     C 9359   6.063   6.456   9.930  0.8199 -0.4409  0.1206
  793MOL0     C 9360   5.929   6.492   9.979  0.3052  0.2350  0.2863
  793MOL0     C 9361   5.812   6.502  10.022 -0.2126  0.2907 -0.1528
  793MOL0     C 9362   5.832   6.985   9.902  0.0757  0.6683 -0.1587
  793MOL0     C 9363   5.751   7.100   9.913 -0.2641  0.8562  0.2454
  793MOL0     C 9364   5.615   7.075   9.949 -0.0864 -0.4549 -1.1136
  793MOL0     H 9365   5.562   7.562   9.750 -6.3129  0.4411  2.6991
  793MOL0     H 9366   5.492   7.801   9.754  0.7121  2.8102 -0.0356
  793MOL0     H 9367   5.359   7.945   9.968 -0.6619 -1.9659 -4.3783
  793MOL0     H 9368   5.424   8.029   9.828  3.2154  3.4348  0.4238
  793MOL0     H 9369   5.306   8.167  10.021 -0.2209 -2.1513  1.1696
  793MOL0     H 9370   5.461   8.143  10.095  0.1746  3.2039  0.5716
  793MOL0     H 9371   5.461   8.370   9.987 -0.7181  0.0506  0.1275
  793MOL0     H 9372   5.582   8.264   9.939 -0.1583 -1.4597 -2.0289
  793MOL0     H 9373   5.311   8.338   9.809  0.1383  2.6102 -1.1393
  793MOL0     H 9374   5.467   8.422   9.781  0.5369 -0.1976  1.0245
  793MOL0     H 9375   5.454   8.309   9.579  0.4962  2.1405  0.5864
  793MOL0     H 9376   5.384   8.169   9.654  1.5379 -0.6340  1.0619
  793MOL0     H 9377   5.676   8.269   9.652  1.1414 -0.7463 -1.1002
  793MOL0     H 9378   5.627   8.113   9.727 -2.3362  2.4203  1.8595
  793MOL0     H 9379   5.525   8.097   9.462 -0.1140  2.0730 -0.4710
  793MOL0     H 9380   5.679   8.024   9.517  2.2307  1.0022 -1.4275
  793MOL0     H 9381   5.670   8.301   9.403  2.3674  0.3827  1.2740
  793MOL0     H 9382   5.811   8.214   9.443  1.9399  0.6290 -2.0484
  793MOL0     H 9383   5.858   7.986   9.313  0.8900  0.2578 -0.6468
  793MOL0     H 9384   5.857   7.833   9.048  0.2016 -0.7422 -1.4974
  793MOL0     H 9385   5.763   7.899   8.918  1.0668  0.8341 -0.2685
  793MOL0     H 9386   5.662   7.742   9.169  0.8203 -3.2466 -1.2965
  793MOL0     H 9387   5.557   7.823   9.062 -0.8799 -1.2612  2.0819
  793MOL0     H 9388   5.562   7.592   8.999 -1.7671  1.7848 -1.5399
  793MOL0     H 9389   5.620   7.673   8.870 -4.5066 -1.2906  0.7330
  793MOL0     H 9390   5.784   7.485   8.911  2.2314  1.4773  0.5147
  793MOL0     H 9391   5.858   7.638   8.962 -0.9109  2.7839  2.3864
  793MOL0     H 9392   5.813   7.441   9.343 -1.8581 -2.8005  1.0585
  793MOL0     H 9393   6.105   7.329   9.525  1.3360 -2.0627  0.5958
  793MOL0     H 9394   5.986   7.196   9.513 -0.1424 -0.1202  0.3945
  793MOL0     H 9395   5.932   7.365   9.545 -0.6637  0.2002 -0.3650
  793MOL0     H 9396   6.497   7.041   9.264 -0.3002 -2.0524 -0.3571
  793MOL0     H 9397   6.660   6.915   9.389  1.9996 -1.2422  3.8131
  793MOL0     H 9398   6.772   6.736   9.516  3.3951 -2.7251  1.3849
  793MOL0     H 9399   6.804   6.897   9.564  3.4049 -1.2744 -2.3878
  793MOL0     H 9400   6.873   6.827   9.798  1.4427 -1.9138  1.6301
  793MOL0     H 9401   6.822   6.662   9.766 -0.2590 -1.2925  0.6208
  793MOL0     H 9402   7.010   6.665   9.583 -1.2068 -0.1857  1.0205
  793MOL0     H 9403   7.052   6.648   9.753  1.9339  0.4995  0.5012
  793MOL0     H 9404   7.055   6.891   9.773 -0.1935 -0.5527  0.1469
  793MOL0     H 9405   7.065   6.916   9.601  3.7969  1.8049  0.1064
  793MOL0     H 9406   7.247   6.794   9.812 -2.8203  1.8293 -0.2664
  793MOL0     H 9407   7.275   6.746   9.633 -1.9937 -0.0366 -1.0231
  793MOL0     H 9408   7.407   6.949   9.728 -0.5967  1.2299  0.9866
  793MOL0     H 9409   7.259   7.027   9.737  0.2118  0.5677  0.6663
  793MOL0     H 9410   7.339   7.107   9.523  3.4143 -0.5228  0.3931
  793MOL0     H 9411   7.206   6.994   9.489  0.7171  0.3269  0.7919
  793MOL0     H 9412   7.398   6.954   9.331 -0.2648 -1.8238 -0.3820
  793MOL0     H 9413   7.365   6.816   9.417  0.4139  0.5130 -2.5258
  793MOL0     H 9414   6.392   6.871   9.729  1.8383  1.7514  1.1390
  793MOL0     H 9415   6.235   7.027   9.606 -0.7547  2.8329 -2.1740
  793MOL0     H 9416   6.206   7.316   9.072 -1.8755 -0.2955 -1.6195
  793MOL0     H 9417   6.019   7.437   8.970 -1.8552 -0.0905  0.3908
  793MOL0     H 9418   5.732   7.861  10.102  3.2041 -0.2521  0.1257
  793MOL0     H 9419   5.833   7.621  10.080 -0.1714 -3.5550 -1.6947
  793MOL0     H 9420   5.962   7.329   9.790  2.5609 -2.4629 -2.1462
  793MOL0     H 9421   6.106   7.128   9.774 -0.0785 -0.3306  0.5153
  793MOL0     H 9422   6.012   6.801  10.002 -4.2969 -0.1084 -0.6246
  793MOL0     H 9423   5.944   6.711   9.865  0.0561 -0.4589 -0.3928
  793MOL0     H 9424   6.239   6.746   9.892 -1.3212  0.7159  1.7825
  793MOL0     H 9425   6.148   6.653   9.771 -2.9278 -0.2129 -0.3959
  793MOL0     H 9426   6.275   6.529   9.960  0.3098 -1.8195  0.8027
  793MOL0     H 9427   6.168   6.600  10.071  0.4510  2.6766 -0.6732
  793MOL0     H 9428   6.088   6.357   9.970  0.0818 -0.6148  0.1677
  793MOL0     H 9429   6.064   6.447   9.821 -0.5519 -0.3407  0.0881
  793MOL0     H 9430   5.715   6.515  10.065  0.2325  5.3110 -0.1305
  793MOL0     H 9431   5.783   6.891   9.925 -2.8852  2.3584  1.0995
  793MOL0     H 9432   5.556   7.128   9.873  2.0170  1.1353 -1.7642
  793MOL0     H 9433   5.596   6.968   9.957  2.2984 -1.1894 -3.7009
  793MOL0     H 9434   5.597   7.112  10.050  1.0904 -0.8667 -0.7374
  794MOL0     O 9435  11.026  11.090   0.332 -0.4979 -0.0668 -0.5161
  794MOL0     C 9436  10.991  10.978   0.361  0.4151 -0.2720  0.1837
  794MOL0     O 9437  11.012  10.867   0.277  0.0457 -0.0930 -0.0796
  794MOL0     C 9438  11.128  10.866   0.203 -0.5584  0.1926  0.4959
  794MOL0     C 9439  11.248  10.904   0.251  0.3043 -0.3887  0.3693
  794MOL0     C 9440  11.362  10.902   0.167  0.0561  0.0175  0.4935
  794MOL0     C 9441  11.353  10.863   0.035  0.0688 -0.6491  0.7286
  794MOL0     O 9442  11.469  10.889  -0.028 -0.1959 -0.2477 -0.3143
  794MOL0     C 9443  11.459  10.889  -0.171  0.0389 -0.1661  0.5320
  794MOL0     C 9444  11.579  10.963  -0.237  0.3851  0.5394 -0.0025
  794MOL0     C 9445  11.697  10.866  -0.224 -0.1467  0.0199  0.2201
  794MOL0     C 9446  11.822  10.912  -0.304 -0.2804 -0.3870  1.0633
  794MOL0     C 9447  11.907  11.025  -0.238  0.0525  1.2875 -0.3664
  794MOL0     C 9448  12.003  10.957  -0.138 -0.0218 -0.9661  0.5018
  794MOL0     C 9449  12.072  11.052  -0.041  0.5562  0.0691  0.1292
  794MOL0     C 9450  12.158  11.165  -0.102  0.1654  0.7565 -0.1014
  794MOL0     N 9451  12.255  11.218  -0.002 -0.1525 -0.0202  0.3342
  794MOL0     C 9452  12.242  11.340   0.056  1.1478  1.2464 -0.0046
  794MOL0     C 9453  12.369  11.356   0.101  0.2722  0.0999 -1.0346
  794MOL0     C 9454  12.397  11.474   0.184 -0.5085  1.1593  0.5708
  794MOL0     C 9455  12.419  11.606   0.111  0.4958  0.3328  0.1317
  794MOL0     C 9456  12.467  11.708   0.222  0.6879 -0.2667 -0.9265
  794MOL0     C 9457  12.446  11.851   0.167  0.0514 -1.0702 -0.7310
  794MOL0     O 9458  12.304  11.888   0.175  1.3116  0.4234 -0.0824
  794MOL0     C 9459  12.283  12.014   0.214 -0.6186  0.2319  0.0301
  794MOL0     C 9460  12.351  12.128   0.168  0.1765 -0.0366  0.5919
  794MOL0     C 9461  12.317  12.256   0.212 -0.5324 -0.1124  0.0591
  794MOL0     C 9462  12.399  12.377   0.154 -0.8253  0.3785 -0.1745
  794MOL0     C 9463  12.206  12.270   0.298  0.4086  0.4058 -1.1523
  794MOL0     C 9464  12.164  12.406   0.344  0.1839  0.3353  0.4791
  794MOL0     O 9465  12.121  12.490   0.247  0.0371  0.5066 -0.0533
  794MOL0     C 9466  12.054  12.611   0.283 -0.2701  0.2994 -0.8948
  794MOL0     C 9467  12.073  12.688   0.402  0.0839  0.7946 -0.0558
  794MOL0     C 9468  11.978  12.783   0.432 -0.4705  0.8736 -0.5650
  794MOL0     C 9469  11.875  12.821   0.345  0.5048 -0.3414  0.5883
  794MOL0     O 9470  11.785  12.911   0.383  0.0131 -0.5771  0.1571
  794MOL0     C 9471  11.785  13.034   0.309  0.1764 -0.6761  0.2778
  794MOL0     C 9472  11.745  13.135   0.410 -0.1951 -0.2388  0.2307
  794MOL0     C 9473  11.780  13.272   0.346 -0.1930  0.1983  0.3961
  794MOL0     C 9474  11.780  13.392   0.442  0.1681  0.3233  0.0913
  794MOL0     C 9475  11.639  13.429   0.489  0.1579  0.6191 -0.2874
  794MOL0     C 9476  11.647  13.556   0.569  0.4736  0.1744 -0.6227
  794MOL0     C 9477  11.527  13.596   0.636 -0.0846 -0.0431 -0.5251
  794MOL0     C 9478  11.534  13.740   0.686  0.4524  0.0966 -0.2135
  794MOL0    Cl 9479  11.528  13.867   0.555 -0.4955  0.5211  0.4083
  794MOL0     C 9480  11.857  12.751   0.226  0.0758  0.8465  0.2554
  794MOL0     C 9481  11.953  12.647   0.200  1.3804 -0.8778  0.2744
  794MOL0     O 9482  12.160  12.419   0.468  0.7930  0.0499 -0.3487
  794MOL0     C 9483  12.141  12.151   0.344  0.4159  0.2054  0.6410
  794MOL0     C 9484  12.177  12.021   0.297  0.1000 -0.4562 -1.5296
  794MOL0     N 9485  12.442  11.246   0.076  0.3002  0.5555 -0.3546
  794MOL0     N 9486  12.372  11.164   0.014  0.1997  0.0538 -0.3213
  794MOL0     C 9487  11.228  10.806  -0.008 -0.4327 -0.1395 -0.1526
  794MOL0     C 9488  11.122  10.818   0.077 -0.5117  0.8954 -0.3272
  794MOL0     C 9489  10.900  10.950   0.474 -0.3786  0.5080 -0.5445
  794MOL0     C 9490  10.820  10.834   0.468  0.0551 -0.5096  0.5506
  794MOL0     C 9491  10.737  10.799   0.572 -0.3105  0.3214  0.2470
  794MOL0     C 9492  10.725  10.883   0.684 -0.3550 -0.6373 -0.0867
  794MOL0     O 9493  10.633  10.862   0.789  0.3163  0.3178  1.3784
  794MOL0     C 9494  10.505  10.807   0.764  0.3086  0.9098 -0.6639
  794MOL0     C 9495  10.422  10.880   0.655  0.9782 -1.1730 -0.7129
  794MOL0     C 9496  10.398  11.029   0.677 -0.0341 -0.8018 -0.2302
  794MOL0     C 9497  10.338  11.075   0.810 -0.2833  0.3469 -0.9425
  794MOL0     C 9498  10.212  11.012   0.849 -0.5954  0.5317 -0.5900
  794MOL0     C 9499  10.102  10.980   0.889 -0.5210  0.4361 -0.5399
  794MOL0     C 9500  10.802  11.000   0.697  0.3421  0.6377  0.4777
  794MOL0     C 9501  10.890  11.035   0.594  0.8242  0.1059  0.0188
  794MOL0     C 9502  10.985  11.156   0.614 -0.3504 -0.2051  0.6359
  794MOL0     H 9503  11.262  10.941   0.352  1.2204  3.0645 -0.8747
  794MOL0     H 9504  11.457  10.937   0.204  2.4573 -6.3961  1.6520
  794MOL0     H 9505  11.366  10.934  -0.208 -1.1197 -0.5626  2.7934
  794MOL0     H 9506  11.458  10.786  -0.208  4.4590 -0.8683  1.7804
  794MOL0     H 9507  11.548  10.978  -0.341  0.6944 -0.4228 -0.2424
  794MOL0     H 9508  11.593  11.059  -0.187  1.9214 -0.1929  1.0415
  794MOL0     H 9509  11.734  10.868  -0.121  1.2720  0.8622 -0.2779
  794MOL0     H 9510  11.654  10.766  -0.240 -2.5513  0.7001  1.8678
  794MOL0     H 9511  11.875  10.828  -0.350  0.0837  0.8775 -0.9484
  794MOL0     H 9512  11.790  10.953  -0.400  1.3938  3.3617  1.9011
  794MOL0     H 9513  11.841  11.099  -0.194 -0.1895  0.2771  1.0621
  794MOL0     H 9514  11.969  11.078  -0.311  4.1965 -0.9702  1.1506
  794MOL0     H 9515  11.946  10.888  -0.075  0.5708 -0.4387  1.6535
  794MOL0     H 9516  12.084  10.912  -0.196  1.1275  0.9678  0.5440
  794MOL0     H 9517  12.104  10.988   0.042 -1.4014 -2.7597 -1.1053
  794MOL0     H 9518  11.998  11.117   0.007  0.0182  0.1230 -0.7443
  794MOL0     H 9519  12.202  11.112  -0.186 -0.3517 -2.2606  1.3925
  794MOL0     H 9520  12.097  11.248  -0.139  0.0810  0.2624 -1.1061
  794MOL0     H 9521  12.154  11.403   0.059 -0.5823 -1.0462  0.1707
  794MOL0     H 9522  12.481  11.455   0.251 -1.0423 -1.7815  0.5312
  794MOL0     H 9523  12.317  11.487   0.257 -0.1659  3.3376  0.6343
  794MOL0     H 9524  12.485  11.604   0.024  1.1439  2.6807  0.5029
  794MOL0     H 9525  12.324  11.629   0.061 -1.4714 -2.5982  2.1644
  794MOL0     H 9526  12.408  11.692   0.312 -1.7458 -0.6186 -2.4883
  794MOL0     H 9527  12.574  11.695   0.243  0.6681  1.4569  0.4612
  794MOL0     H 9528  12.506  11.911   0.236 -0.7259 -1.6028  0.4497
  794MOL0     H 9529  12.484  11.858   0.065 -1.9862 -4.0564 -1.8254
  794MOL0     H 9530  12.427  12.116   0.091  0.0398 -0.6655  0.5512
  794MOL0     H 9531  12.432  12.442   0.235  0.3108 -0.1462 -0.1925
  794MOL0     H 9532  12.336  12.433   0.085  0.5924 -0.0688 -1.8920
  794MOL0     H 9533  12.494  12.342   0.113  0.0242  0.7758  1.3570
  794MOL0     H 9534  12.142  12.675   0.485 -0.8823 -0.6620  0.5570
  794MOL0     H 9535  11.992  12.843   0.521  2.6705 -2.0919  1.1318
  794MOL0     H 9536  11.891  13.056   0.291  0.0988 -1.1290 -0.7952
  794MOL0     H 9537  11.727  13.037   0.217  0.8659  1.8229 -0.1550
  794MOL0     H 9538  11.640  13.139   0.441  0.2559  0.1874  1.8442
  794MOL0     H 9539  11.795  13.110   0.505  0.2038  1.5831  0.5403
  794MOL0     H 9540  11.700  13.297   0.275  1.1941  0.0853 -1.2824
  794MOL0     H 9541  11.877  13.255   0.299  1.7058  0.0412  4.0694
  794MOL0     H 9542  11.830  13.465   0.379 -0.3277 -1.1160 -2.0856
  794MOL0     H 9543  11.831  13.376   0.537  0.9525 -1.5620 -0.5955
  794MOL0     H 9544  11.577  13.446   0.400  1.6940 -1.0222 -1.7681
  794MOL0     H 9545  11.601  13.341   0.541 -0.0417  0.4332 -0.7426
  794MOL0     H 9546  11.678  13.633   0.498  1.3299 -0.2833 -0.7656
  794MOL0     H 9547  11.727  13.550   0.643 -0.2077 -0.0616  0.1118
  794MOL0     H 9548  11.502  13.529   0.719 -2.9549  1.3961 -0.1115
  794MOL0     H 9549  11.449  13.571   0.564 -1.6423 -0.7070  1.3047
  794MOL0     H 9550  11.625  13.749   0.747 -1.2697 -2.7218  3.1569
  794MOL0     H 9551  11.442  13.745   0.744 -0.2296 -2.0540 -1.0395
  794MOL0     H 9552  11.762  12.768   0.175  0.8254 -0.7169 -1.7794
  794MOL0     H 9553  11.927  12.579   0.119 -3.2574  2.4925 -1.5238
  794MOL0     H 9554  12.046  12.162   0.395  1.7008  0.2362  3.2143
  794MOL0     H 9555  12.132  11.927   0.328 -1.3960  0.6093 -0.3027
  794MOL0     H 9556  11.216  10.764  -0.108 -1.3188 -1.5720  0.5220
  794MOL0     H 9557  11.028  10.772   0.049 -1.3464  1.5132  1.3070
  794MOL0     H 9558  10.823  10.767   0.383  3.7677  1.4475 -1.0624
  794MOL0     H 9559  10.652  10.732   0.568 -3.8358  3.8891  4.6984
  794MOL0     H 9560  10.518  10.701   0.741  1.4697  0.6204  1.0864
  794MOL0     H 9561  10.443  10.809   0.854  0.5541  0.8780 -0.4922
  794MOL0     H 9562  10.326  10.832   0.634 -0.2764  0.8326  0.1409
  794MOL0     H 9563  10.481  10.859   0.565  0.8690 -1.2361 -0.7696
  794MOL0     H 9564  10.499  11.067   0.664 -0.5397  0.3084 -1.0666
  794MOL0     H 9565  10.334  11.076   0.601 -3.3556 -0.0179  2.7770
  794MOL0     H 9566  10.346  11.185   0.812  1.0630  0.2744  1.2299
  794MOL0     H 9567  10.412  11.023   0.871 -2.7947 -4.5848 -1.6285
  794MOL0     H 9568  10.006  10.963   0.934 -0.4564 -1.5854 -1.0766
  794MOL0     H 9569  10.774  11.070   0.775 -1.3378  1.2814 -0.6239
  794MOL0     H 9570  10.974  11.204   0.711  0.9246 -2.6620  2.0954
  794MOL0     H 9571  11.088  11.120   0.617  0.0751  0.9936  1.1017
  794MOL0     H 9572  10.983  11.237   0.540  0.6984  2.4898  3.3508
  795MOL0     O 9573   6.734   4.390   1.905  0.3065  0.7216 -0.7708
  795MOL0     C 9574   6.686   4.283   1.938  0.2352  0.3810 -0.8579
  795MOL0     O 9575   6.752   4.167   1.940  0.4299  0.0857 -0.1875
  795MOL0     C 9576   6.886   4.167   1.905  0.4988 -0.2677  0.5428
  795MOL0     C 9577   6.930   4.038   1.863 -0.8750  0.2186  0.6505
  795MOL0     C 9578   7.063   4.003   1.824 -0.0898 -0.7259  0.3326
  795MOL0     C 9579   7.154   4.106   1.823  1.6496 -0.0164 -0.3304
  795MOL0     O 9580   7.289   4.082   1.803 -0.4401  0.3768 -0.8789
  795MOL0     C 9581   7.343   4.153   1.689  1.1268 -0.1066  1.0878
  795MOL0     C 9582   7.269   4.104   1.564 -0.4270  0.0726  0.4492
  795MOL0     C 9583   7.310   4.177   1.429 -0.3393  0.1066  0.1181
  795MOL0     C 9584   7.204   4.154   1.327 -0.4297 -0.3522 -0.4783
  795MOL0     C 9585   7.254   4.148   1.187 -0.6809 -0.1479 -0.5722
  795MOL0     C 9586   7.154   4.066   1.104  0.1645 -0.1411  0.2240
  795MOL0     C 9587   7.165   3.919   1.140 -1.0772  0.5620 -1.0213
  795MOL0     C 9588   7.211   3.830   1.030 -0.8512  0.2454  0.0400
  795MOL0     N 9589   7.205   3.689   1.066  0.3633 -0.0268  0.4211
  795MOL0     C 9590   7.089   3.615   1.070  0.0883 -0.2087  0.2056
  795MOL0     C 9591   7.133   3.489   1.091  0.2523 -0.3007  0.4621
  795MOL0     C 9592   7.053   3.370   1.093  0.5819 -0.3498  0.7971
  795MOL0     C 9593   7.025   3.331   1.231 -0.0509  0.1788 -0.4605
  795MOL0     C 9594   6.881   3.362   1.244  1.0711 -0.6640  1.0287
  795MOL0     C 9595   6.826   3.304   1.381 -0.3038 -0.3630  0.4782
  795MOL0     O 9596   6.688   3.356   1.393 -0.4256  0.6281 -0.4190
  795MOL0     C 9597   6.643   3.326   1.519 -0.3536  0.0465  0.8633
  795MOL0     C 9598   6.626   3.194   1.567 -0.4637  0.7792  0.9164
  795MOL0     C 9599   6.582   3.164   1.698  1.0516 -0.1243  0.6892
  795MOL0     C 9600   6.571   3.033   1.744  0.7679  1.0552  0.7671
  795MOL0     C 9601   6.535   3.286   1.777 -0.0096  0.9418  0.7629
  795MOL0     C 9602   6.477   3.262   1.912 -0.3220 -0.2170  0.6707
  795MOL0     O 9603   6.376   3.351   1.940 -0.2242 -0.1353  0.2218
  795MOL0     C 9604   6.320   3.374   2.063 -0.1442  0.7434 -0.0072
  795MOL0     C 9605   6.402   3.375   2.179 -0.0544 -0.1585 -0.4691
  795MOL0     C 9606   6.353   3.377   2.305  1.0853 -0.2049  0.2717
  795MOL0     C 9607   6.214   3.379   2.326 -0.1905 -1.1710 -0.8427
  795MOL0     O 9608   6.156   3.382   2.449  0.3041 -0.4254 -1.3080
  795MOL0     C 9609   6.227   3.428   2.561 -0.1560  0.4859  0.5171
  795MOL0     C 9610   6.121   3.482   2.660 -1.1355 -0.2535  0.0876
  795MOL0     C 9611   6.022   3.383   2.719  1.0557 -0.1908 -0.4099
  795MOL0     C 9612   6.069   3.246   2.767  0.3486 -0.4347 -1.7424
  795MOL0     C 9613   6.111   3.229   2.909  0.5460 -0.5424 -0.3052
  795MOL0     C 9614   6.234   3.316   2.962  0.2030 -0.4080 -0.2097
  795MOL0     C 9615   6.376   3.303   2.892  1.3607 -0.4932 -1.1692
  795MOL0     C 9616   6.462   3.169   2.909  0.8232 -0.4732 -0.7462
  795MOL0    Cl 9617   6.507   3.149   3.080 -0.2035 -0.1608 -0.0244
  795MOL0     C 9618   6.130   3.390   2.212  0.8804  0.4510 -0.0728
  795MOL0     C 9619   6.175   3.388   2.082  0.3003  0.0592  0.2279
  795MOL0     O 9620   6.541   3.195   1.988  0.2711  0.3455 -1.1236
  795MOL0     C 9621   6.546   3.414   1.719  0.1679  0.8281 -0.5101
  795MOL0     C 9622   6.611   3.428   1.593  0.7256 -0.3402  0.8662
  795MOL0     N 9623   7.272   3.488   1.089 -0.0755 -0.0812 -0.2115
  795MOL0     N 9624   7.314   3.608   1.078 -0.3218  0.6974  0.0872
  795MOL0     C 9625   7.120   4.236   1.872  0.3648  0.6324 -0.4769
  795MOL0     C 9626   6.983   4.269   1.902 -0.3484  0.0123  1.5352
  795MOL0     C 9627   6.550   4.272   1.993 -0.1610 -1.1547  0.3347
  795MOL0     C 9628   6.535   4.204   2.118  0.3136 -0.0097 -0.3109
  795MOL0     C 9629   6.410   4.208   2.188  0.3681  0.2524  1.0599
  795MOL0     C 9630   6.297   4.279   2.138 -0.1153 -0.3906  0.6140
  795MOL0     O 9631   6.173   4.290   2.210 -0.1400  0.1110 -0.0106
  795MOL0     C 9632   6.133   4.183   2.290  0.0243  0.3360 -0.4448
  795MOL0     C 9633   5.977   4.199   2.336  0.5019  0.7417 -0.0825
  795MOL0     C 9634   5.867   4.184   2.223 -1.4496 -0.1422 -0.0642
  795MOL0     C 9635   5.727   4.228   2.283  0.4014  0.1421 -0.0143
  795MOL0     C 9636   5.612   4.207   2.195  1.4376 -0.5522 -0.8408
  795MOL0     C 9637   5.528   4.176   2.118  0.3875 -0.0038  0.4870
  795MOL0     C 9638   6.323   4.351   2.024  0.7769  0.3487 -0.2751
  795MOL0     C 9639   6.439   4.345   1.950  0.0862 -0.1070 -0.1094
  795MOL0     C 9640   6.443   4.442   1.835 -0.0596  0.7643 -1.1085
  795MOL0     H 9641   6.860   3.955   1.865 -1.2521  0.3259 -2.7705
  795MOL0     H 9642   7.087   3.903   1.789 -0.0337 -0.1070 -1.5553
  795MOL0     H 9643   7.446   4.118   1.678  1.0954 -1.0426  3.2182
  795MOL0     H 9644   7.337   4.262   1.698  2.1577  0.0246  0.4147
  795MOL0     H 9645   7.278   3.995   1.552 -4.9339 -0.3190 -1.5218
  795MOL0     H 9646   7.165   4.135   1.582  0.2763  2.6417  0.3797
  795MOL0     H 9647   7.315   4.286   1.439 -0.8931  0.1601 -0.2007
  795MOL0     H 9648   7.407   4.145   1.389  0.2308  1.8406  0.0148
  795MOL0     H 9649   7.161   4.059   1.357  0.2485 -0.6772 -0.5217
  795MOL0     H 9650   7.129   4.234   1.332  0.0264  0.0220  0.9460
  795MOL0     H 9651   7.360   4.121   1.184 -0.1783  1.4816  0.9355
  795MOL0     H 9652   7.263   4.251   1.150  0.3659 -0.2543 -0.6549
  795MOL0     H 9653   7.052   4.102   1.121  0.6752  1.8317 -0.5097
  795MOL0     H 9654   7.167   4.069   0.995 -2.4513 -0.9714 -0.1736
  795MOL0     H 9655   7.064   3.894   1.172  0.1962 -0.7365  2.4679
  795MOL0     H 9656   7.235   3.897   1.221 -1.7372 -2.4461 -1.1640
  795MOL0     H 9657   7.143   3.836   0.945 -1.8381  1.3838  0.8864
  795MOL0     H 9658   7.311   3.862   0.997 -0.2983 -1.5351 -0.1144
  795MOL0     H 9659   6.990   3.657   1.058  0.0365 -0.4602 -0.2823
  795MOL0     H 9660   7.113   3.292   1.046  2.8883  0.5149  2.1567
  795MOL0     H 9661   6.965   3.372   1.028 -3.1865  2.6041  5.3131
  795MOL0     H 9662   7.049   3.225   1.244 -0.8696 -0.0640 -0.8358
  795MOL0     H 9663   7.084   3.396   1.295 -2.7023  0.8851  1.4381
  795MOL0     H 9664   6.863   3.469   1.241 -1.7977 -1.0743  0.7687
  795MOL0     H 9665   6.814   3.318   1.169 -0.9602  1.5624  1.4149
  795MOL0     H 9666   6.835   3.196   1.367  0.7111  0.0891 -3.1349
  795MOL0     H 9667   6.888   3.318   1.470 -2.0481 -1.4087  1.9322
  795MOL0     H 9668   6.664   3.111   1.508  0.4115 -1.4838  4.3688
  795MOL0     H 9669   6.554   2.967   1.658  3.3103 -1.1642  1.8022
  795MOL0     H 9670   6.481   3.013   1.802  0.7407 -0.8826  0.1449
  795MOL0     H 9671   6.659   2.998   1.800 -0.2070  0.5243  1.9984
  795MOL0     H 9672   6.510   3.373   2.169  0.4463  2.6790  2.6708
  795MOL0     H 9673   6.418   3.379   2.392  0.5646 -2.8823  0.7875
  795MOL0     H 9674   6.296   3.350   2.597  0.3009 -0.9725 -3.1168
  795MOL0     H 9675   6.289   3.510   2.524  1.8691 -1.3529 -0.3848
  795MOL0     H 9676   6.173   3.533   2.742 -1.4432  0.1880  0.0095
  795MOL0     H 9677   6.058   3.555   2.608 -1.3377 -1.2639 -1.1312
  795MOL0     H 9678   5.956   3.368   2.632  0.0728  3.7557 -0.5473
  795MOL0     H 9679   5.967   3.437   2.796 -0.5357 -0.7653 -1.1017
  795MOL0     H 9680   6.154   3.210   2.709  1.2127 -0.6207 -0.3991
  795MOL0     H 9681   5.993   3.168   2.764  2.3987 -2.8597  1.7431
  795MOL0     H 9682   6.019   3.262   2.959  0.1977 -2.6358  0.5269
  795MOL0     H 9683   6.135   3.130   2.950  1.5105 -0.2217 -0.0655
  795MOL0     H 9684   6.243   3.296   3.069  3.1265  0.5515 -0.1833
  795MOL0     H 9685   6.211   3.423   2.954 -1.0209 -0.5721  0.8597
  795MOL0     H 9686   6.440   3.372   2.948  0.8713 -1.3335  0.4907
  795MOL0     H 9687   6.375   3.311   2.783  1.9487 -2.9417 -1.4017
  795MOL0     H 9688   6.551   3.177   2.846  0.7143  0.7966 -0.7631
  795MOL0     H 9689   6.395   3.088   2.878  0.3295 -0.1804 -0.4639
  795MOL0     H 9690   6.027   3.392   2.246  1.2971  2.0547  1.2402
  795MOL0     H 9691   6.112   3.377   1.995 -1.1673  2.7315  0.8692
  795MOL0     H 9692   6.497   3.498   1.768 -0.7523 -0.8901  1.6714
  795MOL0     H 9693   6.625   3.524   1.545 -0.3908 -0.6949 -0.2053
  795MOL0     H 9694   7.195   4.315   1.863 -0.7470  1.6033 -1.5900
  795MOL0     H 9695   6.949   4.368   1.933 -2.5000 -0.1955  0.0653
  795MOL0     H 9696   6.616   4.159   2.175  0.9825  0.7262 -0.6577
  795MOL0     H 9697   6.403   4.158   2.284 -1.0381  1.6657  1.7571
  795MOL0     H 9698   6.137   4.091   2.231 -2.6460 -0.2816  0.2102
  795MOL0     H 9699   6.197   4.167   2.377 -1.2966 -2.4972  0.1206
  795MOL0     H 9700   5.969   4.299   2.379 -0.5765  0.8641 -0.5208
  795MOL0     H 9701   5.957   4.126   2.415  1.5876 -1.0294 -1.3685
  795MOL0     H 9702   5.882   4.242   2.132  0.7028  3.4703  2.3488
  795MOL0     H 9703   5.869   4.075   2.211  0.5037 -0.2555  0.9841
  795MOL0     H 9704   5.730   4.333   2.316 -1.3676  0.8069 -1.7919
  795MOL0     H 9705   5.700   4.161   2.365 -1.4960 -1.9385 -2.2019
  795MOL0     H 9706   5.449   4.144   2.054 -0.5552 -2.2938  2.6470
  795MOL0     H 9707   6.237   4.408   1.989 -0.0570  0.8654  2.4101
  795MOL0     H 9708   6.480   4.536   1.878  1.8613 -0.5260  0.1934
  795MOL0     H 9709   6.518   4.402   1.766  0.1887 -0.0760 -0.3593
  795MOL0     H 9710   6.347   4.460   1.785 -1.6229  0.3036  1.5330
  796MOL0     O 9711   0.091   4.028   5.137 -0.5411  0.2400 -0.6383
  796MOL0     C 9712   0.146   3.956   5.213  0.4271  0.2655  0.0844
  796MOL0     O 9713   0.112   3.825   5.248  0.2563 -0.0175  0.8016
  796MOL0     C 9714   0.058   3.745   5.153  0.4410  0.6836 -0.0482
  796MOL0     C 9715  -0.057   3.677   5.181  0.4598  0.3920 -0.2429
  796MOL0     C 9716  -0.106   3.576   5.097 -0.3034  0.3175  0.0889
  796MOL0     C 9717  -0.031   3.535   4.978  0.0103  0.0690  0.1155
  796MOL0     O 9718  -0.060   3.442   4.882 -0.1349 -0.5169 -0.9846
  796MOL0     C 9719  -0.113   3.319   4.940 -0.2294  0.3631  0.8452
  796MOL0     C 9720  -0.132   3.219   4.833 -0.1299  0.1063  1.3398
  796MOL0     C 9721   0.007   3.178   4.782 -0.2216 -0.1730 -0.0825
  796MOL0     C 9722   0.094   3.104   4.892 -0.4487 -0.6546  0.1295
  796MOL0     C 9723   0.241   3.093   4.848  0.3767 -0.1357 -0.8075
  796MOL0     C 9724   0.267   3.000   4.720 -0.2222  0.5343  0.3019
  796MOL0     C 9725   0.391   2.919   4.736 -0.9455 -1.1184 -0.2096
  796MOL0     C 9726   0.371   2.801   4.828 -0.0841  0.1856  0.4896
  796MOL0     N 9727   0.494   2.742   4.866  0.2878  0.7768 -0.4733
  796MOL0     C 9728   0.561   2.766   4.985  0.3838  0.4722 -0.6723
  796MOL0     C 9729   0.657   2.674   4.987 -0.5003 -0.1081 -0.1790
  796MOL0     C 9730   0.780   2.646   5.066 -0.0856 -1.1983 -0.1594
  796MOL0     C 9731   0.732   2.657   5.215  0.4575 -0.0648  0.1837
  796MOL0     C 9732   0.848   2.627   5.304  0.8096  0.3018 -0.1571
  796MOL0     C 9733   0.815   2.627   5.450 -0.9299  0.0931  0.2318
  796MOL0     O 9734   0.698   2.556   5.480 -0.4075 -0.1762 -0.3859
  796MOL0     C 9735   0.622   2.614   5.575  0.0283 -0.3613 -1.2636
  796MOL0     C 9736   0.671   2.631   5.713  0.3380 -0.2366 -1.0016
  796MOL0     C 9737   0.584   2.666   5.817  0.9893  0.2013  1.0665
  796MOL0     C 9738   0.641   2.694   5.945 -1.2538  0.0580  0.0881
  796MOL0     C 9739   0.443   2.681   5.793  0.3838 -0.5170  0.2078
  796MOL0     C 9740   0.345   2.729   5.881  0.6085  0.9801  0.2973
  796MOL0     O 9741   0.242   2.817   5.836 -0.1481  0.3663  0.4082
  796MOL0     C 9742   0.163   2.876   5.938 -0.3645 -0.7432 -0.4405
  796MOL0     C 9743   0.218   2.944   6.047 -0.1525 -0.6751 -0.1785
  796MOL0     C 9744   0.142   3.013   6.137 -0.4304 -0.2610 -1.3469
  796MOL0     C 9745   0.005   3.021   6.120 -0.1113  0.4782 -1.0242
  796MOL0     O 9746  -0.057   3.098   6.221 -0.5718 -0.0496  0.9272
  796MOL0     C 9747  -0.187   3.057   6.266 -0.0750  1.1382  0.4815
  796MOL0     C 9748  -0.226   3.141   6.392 -1.1016  0.6939  0.6386
  796MOL0     C 9749  -0.371   3.147   6.418 -0.4344  0.8559 -0.0706
  796MOL0     C 9750  -0.453   3.223   6.312 -0.4262  1.3639 -0.3707
  796MOL0     C 9751  -0.600   3.240   6.370 -0.4070  0.1596  0.1802
  796MOL0     C 9752  -0.702   3.317   6.281 -0.0004  0.5072  0.1380
  796MOL0     C 9753  -0.679   3.465   6.291 -0.9129 -0.4770 -0.5868
  796MOL0     C 9754  -0.772   3.538   6.209 -0.4692  0.1495  0.4609
  796MOL0    Cl 9755  -0.941   3.484   6.243 -0.0711  0.0679 -0.1114
  796MOL0     C 9756  -0.057   2.963   6.006 -0.5745 -0.2100  0.1400
  796MOL0     C 9757   0.027   2.901   5.915 -0.5532 -0.0271 -0.6514
  796MOL0     O 9758   0.336   2.675   5.986 -0.1354 -0.1887  0.1352
  796MOL0     C 9759   0.401   2.648   5.658  0.8982  0.8696  0.0542
  796MOL0     C 9760   0.488   2.615   5.551  0.3491  0.7872 -0.2579
  796MOL0     N 9761   0.642   2.594   4.876  0.2680 -0.0821 -0.0821
  796MOL0     N 9762   0.536   2.630   4.804  0.4940  0.6105 -1.0487
  796MOL0     C 9763   0.080   3.615   4.953 -0.2959  0.1360  0.1477
  796MOL0     C 9764   0.128   3.708   5.043 -0.0869  1.8142  0.7590
  796MOL0     C 9765   0.254   4.006   5.300  0.1359  0.5955  0.1257
  796MOL0     C 9766   0.251   3.962   5.437  0.2921 -0.2574 -0.2806
  796MOL0     C 9767   0.347   4.009   5.538  0.7998  0.1037 -0.7777
  796MOL0     C 9768   0.448   4.090   5.499 -0.3518  0.1365 -0.0699
  796MOL0     O 9769   0.559   4.125   5.574  0.0754 -0.6160 -0.1239
  796MOL0     C 9770   0.544   4.145   5.717  1.4139  0.7958  0.4287
  796MOL0     C 9771   0.660   4.226   5.776 -0.1343  0.2282  0.0916
  796MOL0     C 9772   0.641   4.387   5.754  0.4364 -0.0419  0.1694
  796MOL0     C 9773   0.579   4.451   5.876  0.1714  0.5260 -0.5502
  796MOL0     C 9774   0.698   4.479   5.973  0.0981  0.7113 -0.6061
  796MOL0     C 9775   0.785   4.488   6.063  0.4767 -0.3884  0.8839
  796MOL0     C 9776   0.460   4.133   5.362 -0.3329 -1.2507  0.8080
  796MOL0     C 9777   0.358   4.098   5.269 -0.6326 -0.7361 -0.1245
  796MOL0     C 9778   0.356   4.170   5.140  1.0243 -0.1684 -0.5436
  796MOL0     H 9779  -0.107   3.684   5.277 -1.5193 -1.3530 -1.0909
  796MOL0     H 9780  -0.196   3.517   5.114  0.8443 -1.9187 -1.1790
  796MOL0     H 9781  -0.212   3.344   4.979  0.5692  0.8104  2.7536
  796MOL0     H 9782  -0.052   3.270   5.018  0.8098 -1.8724 -1.2426
  796MOL0     H 9783  -0.183   3.132   4.874 -1.0785  0.8350  1.7285
  796MOL0     H 9784  -0.195   3.253   4.750  2.0883  1.2452  0.0026
  796MOL0     H 9785   0.012   3.117   4.692  1.0467 -2.1329  1.2509
  796MOL0     H 9786   0.060   3.263   4.739  2.7346 -1.4585  0.7845
  796MOL0     H 9787   0.107   3.169   4.979 -6.0371  0.0704  0.7398
  796MOL0     H 9788   0.045   3.009   4.914  0.0951 -0.8275  0.6291
  796MOL0     H 9789   0.304   3.067   4.933  0.0542 -1.1381 -0.8575
  796MOL0     H 9790   0.275   3.194   4.823 -0.2486  0.2373 -0.1803
  796MOL0     H 9791   0.191   2.925   4.694  1.4603 -0.5297 -1.9266
  796MOL0     H 9792   0.270   3.073   4.638 -1.2158 -2.2472 -2.4162
  796MOL0     H 9793   0.469   2.989   4.767 -2.2922 -0.3429  1.5658
  796MOL0     H 9794   0.429   2.901   4.634  2.1608 -0.6975  0.7687
  796MOL0     H 9795   0.321   2.841   4.917 -0.2689 -1.2367  1.0441
  796MOL0     H 9796   0.303   2.727   4.786  4.2221 -3.9666 -0.0346
  796MOL0     H 9797   0.546   2.848   5.054 -3.1241 -0.2963 -0.3158
  796MOL0     H 9798   0.855   2.721   5.038 -0.0475 -0.8082  0.9436
  796MOL0     H 9799   0.830   2.552   5.043  1.0351 -0.7000  0.1841
  796MOL0     H 9800   0.682   2.751   5.240 -3.6999 -2.1784  0.7172
  796MOL0     H 9801   0.656   2.579   5.218  0.3733 -0.0567 -1.0985
  796MOL0     H 9802   0.888   2.531   5.272 -0.0552 -0.9276  2.1829
  796MOL0     H 9803   0.933   2.695   5.304  0.2776  1.0502  2.0111
  796MOL0     H 9804   0.897   2.583   5.508 -0.6350 -1.5623 -1.3499
  796MOL0     H 9805   0.811   2.729   5.489  0.1398  0.4673 -0.6007
  796MOL0     H 9806   0.776   2.629   5.740 -0.0816  1.1923  0.9925
  796MOL0     H 9807   0.628   2.613   6.017  0.2422  0.3863  0.7733
  796MOL0     H 9808   0.603   2.784   5.994 -0.0299 -0.0634  1.3092
  796MOL0     H 9809   0.750   2.698   5.931 -1.4988 -0.9118 -2.7075
  796MOL0     H 9810   0.326   2.936   6.060 -0.4556 -1.0486  2.6597
  796MOL0     H 9811   0.190   3.068   6.218 -0.9171  0.3656 -1.4766
  796MOL0     H 9812  -0.253   3.063   6.179  1.0865  1.6231 -0.3883
  796MOL0     H 9813  -0.173   2.951   6.287  2.7022 -0.1422 -5.7411
  796MOL0     H 9814  -0.167   3.093   6.471  3.0282  0.1041 -2.4450
  796MOL0     H 9815  -0.202   3.245   6.368 -0.7011 -0.2201 -3.7422
  796MOL0     H 9816  -0.383   3.193   6.517 -0.7351  0.0414  0.2795
  796MOL0     H 9817  -0.422   3.050   6.419  1.3766 -0.2532 -3.2389
  796MOL0     H 9818  -0.444   3.162   6.222  2.7318 -1.0089  1.3820
  796MOL0     H 9819  -0.407   3.317   6.279  2.3770  2.1924  4.8723
  796MOL0     H 9820  -0.635   3.137   6.385  2.2613 -1.0013 -0.9646
  796MOL0     H 9821  -0.604   3.286   6.469 -1.7195 -0.4424  0.4391
  796MOL0     H 9822  -0.796   3.290   6.328  1.6956 -0.7673  3.0187
  796MOL0     H 9823  -0.719   3.285   6.177 -1.2665 -3.1989  1.3533
  796MOL0     H 9824  -0.576   3.492   6.267 -1.2349  1.9479  0.4583
  796MOL0     H 9825  -0.684   3.504   6.393 -0.4771  0.5118 -0.9274
  796MOL0     H 9826  -0.741   3.514   6.107  0.4781  1.6948  0.3405
  796MOL0     H 9827  -0.759   3.645   6.232 -3.4471  1.5413 -3.2249
  796MOL0     H 9828  -0.160   2.933   5.997 -0.8474  1.1150 -1.8537
  796MOL0     H 9829  -0.022   2.857   5.829 -2.8965  1.4377 -0.1412
  796MOL0     H 9830   0.297   2.656   5.631  1.1152  2.1382 -0.4711
  796MOL0     H 9831   0.446   2.593   5.454 -1.4992 -1.1899  0.9033
  796MOL0     H 9832   0.131   3.600   4.859  2.6070 -2.3765  1.9258
  796MOL0     H 9833   0.225   3.753   5.029  0.2789  0.2427 -2.7012
  796MOL0     H 9834   0.179   3.898   5.487 -0.6848  1.2553  0.2991
  796MOL0     H 9835   0.331   3.974   5.639 -2.8505 -0.5271 -1.4077
  796MOL0     H 9836   0.443   4.181   5.740  2.4209  4.3562 -0.1672
  796MOL0     H 9837   0.549   4.041   5.752 -1.3365 -0.4654 -2.3933
  796MOL0     H 9838   0.751   4.189   5.729 -0.0040  1.4699 -0.6600
  796MOL0     H 9839   0.649   4.211   5.884 -0.1990  2.3755  0.4370
  796MOL0     H 9840   0.736   4.432   5.726  0.8738 -0.8073  0.4118
  796MOL0     H 9841   0.578   4.409   5.667 -1.6690  0.8527  1.8081
  796MOL0     H 9842   0.505   4.391   5.929 -0.2333 -0.9579 -2.6978
  796MOL0     H 9843   0.541   4.549   5.846 -0.7852  0.3576  0.0814
  796MOL0     H 9844   0.867   4.485   6.132  0.9986  1.5732  0.4156
  796MOL0     H 9845   0.542   4.196   5.329 -1.0266 -0.0107  1.4088
  796MOL0     H 9846   0.461   4.194   5.124  0.9816  1.1536  0.9288
  796MOL0     H 9847   0.315   4.106   5.061 -1.2732 -0.2388  0.6176
  796MOL0     H 9848   0.293   4.260   5.147  0.7266 -0.3836 -0.4199
  797MOL0     O 9849  11.337   5.392   4.655 -0.3073  0.1791 -0.0329
  797MOL0     C 9850  11.243   5.337   4.712  0.0706  0.8245  1.1736
  797MOL0     O 9851  11.121   5.393   4.751  0.3049  0.5056 -0.7310
  797MOL0     C 9852  11.108   5.525   4.722  0.4140  0.2008 -0.4706
  797MOL0     C 9853  11.063   5.614   4.820  0.6855 -0.3882 -0.4418
  797MOL0     C 9854  11.077   5.753   4.797  0.5089 -0.2895 -0.6831
  797MOL0     C 9855  11.114   5.814   4.674 -0.5044  0.4151 -0.1511
  797MOL0     O 9856  11.129   5.947   4.651  0.0757 -0.1842 -1.1307
  797MOL0     C 9857  11.074   6.038   4.746 -0.3173 -0.0748 -0.4956
  797MOL0     C 9858  11.075   6.190   4.705 -0.4703 -0.0585 -0.2901
  797MOL0     C 9859  11.001   6.298   4.792 -0.0795 -0.3116 -1.0442
  797MOL0     C 9860  11.048   6.290   4.937 -1.1181  0.6587  0.7184
  797MOL0     C 9861  11.010   6.408   5.025 -0.7330  0.0644 -0.9670
  797MOL0     C 9862  11.100   6.408   5.158  0.6172 -0.3680  0.4921
  797MOL0     C 9863  11.072   6.532   5.245 -0.5159  0.8199  0.5021
  797MOL0     C 9864  10.924   6.571   5.247 -0.7122  0.1234 -0.0231
  797MOL0     N 9865  10.915   6.679   5.342 -0.5091  0.7896 -1.2040
  797MOL0     C 9866  10.853   6.675   5.463  0.8061 -0.3715 -0.3670
  797MOL0     C 9867  10.839   6.806   5.491 -0.4162  0.4110  0.1375
  797MOL0     C 9868  10.764   6.856   5.600  0.5823  0.0341  0.4270
  797MOL0     C 9869  10.613   6.859   5.556 -0.9839  0.9073  0.0140
  797MOL0     C 9870  10.529   6.723   5.559  0.1971 -0.4005  0.3889
  797MOL0     C 9871  10.474   6.691   5.419 -0.3728  0.7503 -0.6611
  797MOL0     O 9872  10.574   6.684   5.321  0.5556  0.2438 -0.1289
  797MOL0     C 9873  10.581   6.587   5.234  0.2851  0.2127  0.0291
  797MOL0     C 9874  10.586   6.635   5.103  1.1369 -0.0179  0.3415
  797MOL0     C 9875  10.598   6.550   4.986  1.8077  0.1570  0.0875
  797MOL0     C 9876  10.639   6.616   4.852  0.6809  0.3745  0.2334
  797MOL0     C 9877  10.597   6.413   5.013 -0.0952 -0.5978  0.6892
  797MOL0     C 9878  10.608   6.310   4.907  0.5723 -0.2395  0.7800
  797MOL0     O 9879  10.628   6.185   4.941  0.1226 -0.6692  0.3576
  797MOL0     C 9880  10.617   6.074   4.853 -0.6325 -1.4719 -0.2118
  797MOL0     C 9881  10.704   5.970   4.879  0.2800 -0.5360  0.1324
  797MOL0     C 9882  10.700   5.851   4.809 -0.1422  0.4638 -0.5853
  797MOL0     C 9883  10.599   5.824   4.706 -0.5119 -0.0143 -0.6454
  797MOL0     O 9884  10.596   5.717   4.630  0.2125  0.7854  0.6238
  797MOL0     C 9885  10.700   5.615   4.652  0.1276  0.4436  0.3231
  797MOL0     C 9886  10.647   5.481   4.592 -0.2130 -0.1642  0.8815
  797MOL0     C 9887  10.750   5.367   4.585  0.0264  0.3480  0.4897
  797MOL0     C 9888  10.721   5.273   4.463  0.1820 -0.1924  0.9436
  797MOL0     C 9889  10.844   5.169   4.445  0.2341  0.1202  0.0248
  797MOL0     C 9890  10.973   5.228   4.394  0.1718  0.3041 -0.2403
  797MOL0     C 9891  11.076   5.119   4.391  0.1919 -0.1396  0.6518
  797MOL0     C 9892  11.207   5.166   4.331 -0.5272 -0.6862  1.1166
  797MOL0    Cl 9893  11.195   5.206   4.161 -0.1860 -0.6407  0.1175
  797MOL0     C 9894  10.501   5.919   4.688 -0.3278 -0.9483  0.1530
  797MOL0     C 9895  10.517   6.043   4.756  0.0497  0.5003  0.3826
  797MOL0     O 9896  10.579   6.339   4.789 -0.4432  0.4054 -0.1719
  797MOL0     C 9897  10.606   6.372   5.145  0.8000  0.0765  0.1816
  797MOL0     C 9898  10.596   6.456   5.258 -0.3667  0.1444  0.1800
  797MOL0     N 9899  10.915   6.881   5.406  1.2233 -0.1696  0.4282
  797MOL0     N 9900  10.959   6.803   5.312 -0.6149  0.4471 -0.2924
  797MOL0     C 9901  11.134   5.729   4.566 -0.4535  0.0320 -0.7214
  797MOL0     C 9902  11.130   5.581   4.593 -0.0717 -0.7816  0.4144
  797MOL0     C 9903  11.273   5.183   4.711 -0.1637  0.0578  0.3282
  797MOL0     C 9904  11.396   5.134   4.665  0.8164  0.6050  0.3779
  797MOL0     C 9905  11.417   4.989   4.669 -0.3915  0.3219 -0.9163
  797MOL0     C 9906  11.320   4.897   4.733  0.4685 -0.8301  0.1248
  797MOL0     O 9907  11.339   4.766   4.744  0.5965 -0.5655  0.5114
  797MOL0     C 9908  11.449   4.704   4.692  0.0995  0.6475 -0.6026
  797MOL0     C 9909  11.432   4.560   4.665  0.5390  0.7413  0.4450
  797MOL0     C 9910  11.426   4.477   4.791 -0.8828  0.6623 -0.3227
  797MOL0     C 9911  11.413   4.328   4.776  0.4929 -0.1311  0.8657
  797MOL0     C 9912  11.416   4.268   4.913  0.9057 -0.5574  0.5375
  797MOL0     C 9913  11.399   4.235   5.031 -0.8625  0.1231  0.5501
  797MOL0     C 9914  11.209   4.958   4.796 -0.1359 -0.1460  0.3956
  797MOL0     C 9915  11.177   5.093   4.776  0.1758 -0.2780 -0.7519
  797MOL0     C 9916  11.040   5.133   4.840  0.2150 -0.7368  0.0504
  797MOL0     H 9917  11.036   5.578   4.919  1.1818 -3.8423 -1.4081
  797MOL0     H 9918  11.074   5.825   4.878  2.4736 -1.4435  0.5056
  797MOL0     H 9919  11.139   6.030   4.835 -0.4445 -1.2570 -0.4893
  797MOL0     H 9920  10.974   6.007   4.777  0.5807 -2.5297  0.2036
  797MOL0     H 9921  11.177   6.225   4.685 -0.5816  1.3151  1.2413
  797MOL0     H 9922  11.029   6.188   4.606 -0.3637  1.0611 -0.3799
  797MOL0     H 9923  11.026   6.398   4.756 -1.5329  1.2491  1.8831
  797MOL0     H 9924  10.893   6.284   4.777 -0.1308  0.3962 -1.3113
  797MOL0     H 9925  11.002   6.200   4.978  1.8091  0.0287  2.9476
  797MOL0     H 9926  11.156   6.274   4.938 -1.2066 -0.0885 -0.3333
  797MOL0     H 9927  10.907   6.387   5.055 -0.5156  1.4820  0.9596
  797MOL0     H 9928  11.036   6.499   4.970 -2.6359  0.5374 -1.1369
  797MOL0     H 9929  11.089   6.316   5.217 -1.5365 -1.6751 -1.7420
  797MOL0     H 9930  11.204   6.401   5.126 -0.1275 -5.2361 -1.7698
  797MOL0     H 9931  11.137   6.617   5.224  0.6543 -0.1190  0.2208
  797MOL0     H 9932  11.103   6.511   5.348  0.6592 -0.4738 -0.0833
  797MOL0     H 9933  10.894   6.596   5.145  0.8023  0.6769 -0.3494
  797MOL0     H 9934  10.866   6.480   5.268  0.5093 -0.1624  2.5256
  797MOL0     H 9935  10.802   6.586   5.499 -0.2744  0.2426 -0.3326
  797MOL0     H 9936  10.778   6.962   5.624 -0.9611  0.4649 -0.4788
  797MOL0     H 9937  10.773   6.786   5.684  2.0201 -1.4759 -0.9090
  797MOL0     H 9938  10.562   6.931   5.622  1.4861  1.5449  1.3531
  797MOL0     H 9939  10.604   6.900   5.455 -0.4054  0.2788 -0.2929
  797MOL0     H 9940  10.572   6.641   5.618 -0.4204  0.4799  2.1466
  797MOL0     H 9941  10.433   6.732   5.610 -0.8198 -3.7756 -0.6377
  797MOL0     H 9942  10.418   6.597   5.424  0.7471  0.1246  1.1356
  797MOL0     H 9943  10.407   6.771   5.386  0.3712  0.4636 -3.0701
  797MOL0     H 9944  10.594   6.743   5.098  1.2477  0.1426  2.6739
  797MOL0     H 9945  10.736   6.585   4.811  1.0825 -0.3283  1.6571
  797MOL0     H 9946  10.641   6.725   4.862  1.8040  0.3947 -0.0483
  797MOL0     H 9947  10.561   6.583   4.782  1.2422 -1.6096  0.4672
  797MOL0     H 9948  10.786   5.971   4.950 -1.6900 -0.2822  2.5403
  797MOL0     H 9949  10.783   5.782   4.824  0.1735 -0.2404 -4.6000
  797MOL0     H 9950  10.796   5.634   4.604 -0.0347  1.4818  0.3968
  797MOL0     H 9951  10.731   5.593   4.755  0.9147  1.5593  0.3421
  797MOL0     H 9952  10.554   5.446   4.639 -0.1504 -1.8904 -0.1542
  797MOL0     H 9953  10.626   5.499   4.486  2.5879  2.1292  0.5999
  797MOL0     H 9954  10.748   5.298   4.670 -2.5797 -2.6801 -1.7928
  797MOL0     H 9955  10.849   5.409   4.564  0.3625  0.6405  2.4177
  797MOL0     H 9956  10.694   5.329   4.373 -3.7265  3.4806  4.0017
  797MOL0     H 9957  10.630   5.218   4.490  0.7793 -0.9279  1.5161
  797MOL0     H 9958  10.856   5.124   4.545 -4.8461  1.7058  1.6730
  797MOL0     H 9959  10.814   5.091   4.375 -1.8452 -0.3533  1.3505
  797MOL0     H 9960  11.010   5.301   4.465  1.2395  1.4726 -1.9157
  797MOL0     H 9961  10.963   5.284   4.300 -1.6711 -1.0979 -0.9401
  797MOL0     H 9962  11.042   5.027   4.343  0.2033 -0.0304  0.4355
  797MOL0     H 9963  11.090   5.096   4.498  1.6434  2.0015  0.9791
  797MOL0     H 9964  11.279   5.084   4.337 -1.7212 -2.2088 -2.5340
  797MOL0     H 9965  11.247   5.257   4.377  1.7518 -1.0364 -0.0606
  797MOL0     H 9966  10.421   5.892   4.619 -0.2208 -0.4698 -0.1596
  797MOL0     H 9967  10.443   6.117   4.726 -0.6541 -0.5218 -0.4457
  797MOL0     H 9968  10.622   6.267   5.171 -0.1386 -0.1255 -0.0102
  797MOL0     H 9969  10.619   6.405   5.351  0.9783 -2.6252 -1.5191
  797MOL0     H 9970  11.137   5.770   4.466 -1.5327  0.7248 -0.4865
  797MOL0     H 9971  11.139   5.512   4.510  0.3529 -3.6333  2.6548
  797MOL0     H 9972  11.472   5.197   4.621  0.1876  0.5128 -0.8866
  797MOL0     H 9973  11.500   4.938   4.620  0.5389 -0.1368  1.0322
  797MOL0     H 9974  11.490   4.747   4.600  1.3400  1.0585  0.1174
  797MOL0     H 9975  11.526   4.715   4.768 -0.0569 -0.1533 -0.3261
  797MOL0     H 9976  11.511   4.516   4.604 -0.9734 -2.0647  0.3566
  797MOL0     H 9977  11.329   4.547   4.631  1.3383  0.4344 -2.0533
  797MOL0     H 9978  11.515   4.505   4.846  1.4699 -1.2147 -2.8844
  797MOL0     H 9979  11.350   4.517   4.859 -0.6837  0.9938 -0.2955
  797MOL0     H 9980  11.499   4.292   4.718  0.2336 -1.0886  1.0629
  797MOL0     H 9981  11.322   4.324   4.715  0.4045  2.6922  0.6887
  797MOL0     H 9982  11.360   4.214   5.129  1.2339 -0.7733  1.2403
  797MOL0     H 9983  11.139   4.901   4.857  0.7308  0.0005  1.5711
  797MOL0     H 9984  10.980   5.042   4.853 -3.6154  1.0967 -2.8417
  797MOL0     H 9985  11.048   5.199   4.926 -2.1118 -1.3591  0.7980
  797MOL0     H 9986  10.972   5.174   4.765  0.4420 -2.0324 -0.9222
  798MOL0     O 9987  11.390  10.737   5.457  0.1666 -0.3474 -0.6390
  798MOL0     C 9988  11.492  10.759   5.393 -0.8054 -0.2098 -1.0849
  798MOL0     O 9989  11.560  10.878   5.404 -0.2913 -0.1409 -0.6443
  798MOL0     C 9990  11.498  10.977   5.470 -0.4828  0.0856  0.4888
  798MOL0     C 9991  11.402  11.045   5.400 -0.0791 -0.0306  0.4419
  798MOL0     C 9992  11.350  11.161   5.461  0.5266  0.3553 -0.3213
  798MOL0     C 9993  11.388  11.200   5.588  0.7550 -0.6741 -0.2147
  798MOL0     O 9994  11.320  11.297   5.661  0.0823  0.7440  0.1112
  798MOL0     C 9995  11.322  11.435   5.620 -0.4051  0.1467 -0.3852
  798MOL0     C 9996  11.264  11.532   5.720 -1.1093  0.4116 -0.6464
  798MOL0     C 9997  11.115  11.513   5.735 -1.6573  0.9243  0.2383
  798MOL0     C 9998  11.032  11.535   5.610 -0.8787 -1.3359 -0.0905
  798MOL0     C 9999  10.887  11.479   5.628  0.1914 -0.7134 -0.2631
  798MOL0     C10000  10.865  11.331   5.609  0.3089 -0.6306  1.2381
  798MOL0     C10001  10.920  11.278   5.471  0.0146 -0.2677 -0.6106
  798MOL0     C10002  10.845  11.150   5.437  0.6808  0.3535  0.3817
  798MOL0     N10003  10.901  11.101   5.312  0.6806 -0.0132  0.3341
  798MOL0     C10004  10.825  11.041   5.211  0.4076  1.0754  0.3599
  798MOL0     C10005  10.921  11.014   5.124 -0.5741  0.8467  0.1893
  798MOL0     C10006  10.888  10.962   4.993  0.8405 -0.6982 -0.0206
  798MOL0     C10007  10.883  11.075   4.894 -0.2346  0.1344 -0.1035
  798MOL0     C10008  10.862  11.035   4.746 -0.1998 -0.9165 -0.4848
  798MOL0     C10009  10.926  10.899   4.703 -0.0888  0.7626 -0.4769
  798MOL0     O10010  10.894  10.878   4.570 -0.2721  0.3395 -0.2954
  798MOL0     C10011  10.977  10.948   4.479  1.3487 -0.1323 -0.4316
  798MOL0     C10012  11.087  11.033   4.515 -0.4117 -0.7109  0.9465
  798MOL0     C10013  11.171  11.074   4.413 -0.6120  0.6404  0.6120
  798MOL0     C10014  11.296  11.127   4.467 -0.0794  0.9321 -0.6035
  798MOL0     C10015  11.140  11.054   4.273 -0.1862  0.0435 -0.0703
  798MOL0     C10016  11.236  11.086   4.169 -0.1567  0.5068  0.0539
  798MOL0     O10017  11.170  11.137   4.051 -0.8299 -0.8657 -0.4334
  798MOL0     C10018  11.269  11.165   3.948  0.3040  0.7976  0.1685
  798MOL0     C10019  11.324  11.059   3.866 -0.8240  1.1496  0.1157
  798MOL0     C10020  11.418  11.088   3.763 -0.7928 -0.7843 -0.4271
  798MOL0     C10021  11.462  11.220   3.749 -0.6794 -0.3437  0.0638
  798MOL0     O10022  11.550  11.272   3.663  0.4760 -0.8198  0.8979
  798MOL0     C10023  11.552  11.201   3.540 -0.0002  0.5983 -0.3417
  798MOL0     C10024  11.622  11.267   3.423  1.0617 -0.3604  0.4953
  798MOL0     C10025  11.595  11.416   3.406  0.4517 -0.5225 -0.0716
  798MOL0     C10026  11.628  11.476   3.266  1.3632  0.1547  0.1109
  798MOL0     C10027  11.773  11.533   3.239  0.5592  0.2557  0.1596
  798MOL0     C10028  11.879  11.425   3.247 -0.5888  0.1503  1.0877
  798MOL0     C10029  12.014  11.489   3.220  0.0164 -0.7660  0.3105
  798MOL0     C10030  12.135  11.393   3.228 -0.6396 -0.6943  0.0988
  798MOL0    Cl10031  12.230  11.442   3.376 -0.1829 -0.0274 -0.4318
  798MOL0     C10032  11.408  11.323   3.836 -0.3011  0.4954 -0.0160
  798MOL0     C10033  11.308  11.292   3.928 -0.1428 -0.0742 -0.5940
  798MOL0     O10034  11.362  11.076   4.183 -1.0674  0.6962  1.2092
  798MOL0     C10035  11.015  10.994   4.250  0.5688  0.5027 -0.7095
  798MOL0     C10036  10.935  10.927   4.346  0.6561  0.5086 -0.1641
  798MOL0     N10037  11.045  11.047   5.172 -0.0823 -1.4515  0.2628
  798MOL0     N10038  11.032  11.096   5.286  0.4817 -0.1353 -0.2270
  798MOL0     C10039  11.481  11.125   5.658  0.4430  0.8554 -0.3055
  798MOL0     C10040  11.537  11.014   5.596 -0.4991 -0.1705  0.0624
  798MOL0     C10041  11.557  10.662   5.305  0.8190  0.0904 -0.0403
  798MOL0     C10042  11.675  10.693   5.241  0.1671  1.0163  0.2575
  798MOL0     C10043  11.720  10.611   5.138  0.5074  0.7448 -0.2119
  798MOL0     C10044  11.652  10.503   5.084 -0.0901  0.1730  0.1913
  798MOL0     O10045  11.698  10.409   4.995  0.5288 -0.3482 -0.1514
  798MOL0     C10046  11.834  10.407   4.959 -0.5708  0.9483  0.2744
  798MOL0     C10047  11.912  10.320   5.065 -0.0784  1.2027 -0.2988
  798MOL0     C10048  12.049  10.281   5.040  0.4122  0.9037 -0.9931
  798MOL0     C10049  12.095  10.214   4.917 -0.1204  0.2581  0.2345
  798MOL0     C10050  12.048  10.078   4.898  0.7614 -0.2393 -0.6680
  798MOL0     C10051  12.014   9.963   4.893  0.2658 -0.2035  0.7904
  798MOL0     C10052  11.535  10.476   5.142  0.9591  0.6764 -0.1049
  798MOL0     C10053  11.483  10.552   5.246 -0.9882  0.5116  0.8414
  798MOL0     C10054  11.353  10.508   5.305  0.2038  0.1461  0.9803
  798MOL0     H10055  11.369  11.009   5.303  2.5514 -0.5203 -0.3575
  798MOL0     H10056  11.260  11.203   5.418  0.2353 -1.8777 -2.0833
  798MOL0     H10057  11.271  11.452   5.525  2.3503  3.7115 -1.4555
  798MOL0     H10058  11.425  11.456   5.590 -0.6011 -0.4161 -1.4959
  798MOL0     H10059  11.325  11.519   5.810 -2.9053 -1.5080  0.3655
  798MOL0     H10060  11.275  11.635   5.684  1.6622 -0.4376 -2.5884
  798MOL0     H10061  11.076  11.421   5.780 -4.4674  1.3744 -1.0334
  798MOL0     H10062  11.105  11.588   5.814 -1.3012  4.0099 -2.4422
  798MOL0     H10063  11.019  11.643   5.610 -2.7912 -1.5295 -0.1416
  798MOL0     H10064  11.081  11.499   5.519 -2.0593 -2.4682 -0.3169
  798MOL0     H10065  10.823  11.533   5.558  0.6133  0.4586  0.2236
  798MOL0     H10066  10.848  11.510   5.726  0.5182 -0.8094 -0.1000
  798MOL0     H10067  10.918  11.274   5.686  2.8798  0.6374  0.5233
  798MOL0     H10068  10.760  11.307   5.624 -1.2444  2.2094 -3.0116
  798MOL0     H10069  11.025  11.246   5.479 -0.1082 -0.4789  0.2710
  798MOL0     H10070  10.915  11.345   5.385  2.0987 -2.1072 -2.2743
  798MOL0     H10071  10.860  11.083   5.522  1.3265 -2.5625 -1.8672
  798MOL0     H10072  10.738  11.170   5.429  0.5844 -0.5675 -0.9574
  798MOL0     H10073  10.721  11.009   5.214  0.6434  0.1513 -0.6998
  798MOL0     H10074  10.790  10.914   4.984  0.1791  0.8387 -1.8293
  798MOL0     H10075  10.961  10.892   4.951 -0.1956 -0.7455 -1.8367
  798MOL0     H10076  10.795  11.135   4.918  0.6949  1.8708 -0.7959
  798MOL0     H10077  10.970  11.141   4.908  0.1363 -0.0803 -1.2789
  798MOL0     H10078  10.757  11.047   4.719 -0.0834 -0.8549 -0.9198
  798MOL0     H10079  10.912  11.115   4.689 -0.8811 -0.8407 -0.9832
  798MOL0     H10080  11.032  10.883   4.720 -0.3668 -1.6699 -0.6003
  798MOL0     H10081  10.891  10.819   4.770  0.8839  0.5283 -0.2322
  798MOL0     H10082  11.110  11.053   4.619  0.9636 -0.5721  0.6427
  798MOL0     H10083  11.276  11.165   4.568 -2.9269  0.8198 -1.0617
  798MOL0     H10084  11.346  11.204   4.407  1.9618  0.2712  0.1620
  798MOL0     H10085  11.370  11.047   4.476 -0.6894  0.5300  1.1659
  798MOL0     H10086  11.283  10.961   3.888 -1.6033  1.6550  0.9516
  798MOL0     H10087  11.467  11.011   3.705  0.2438 -0.9978  0.6932
  798MOL0     H10088  11.586  11.100   3.564 -2.0335 -0.1485 -0.4249
  798MOL0     H10089  11.451  11.180   3.504  0.0843 -0.6593  0.0884
  798MOL0     H10090  11.728  11.262   3.452  1.0758  4.1441  2.1481
  798MOL0     H10091  11.599  11.216   3.330  0.8055  2.9523 -1.4166
  798MOL0     H10092  11.643  11.474   3.486 -0.6973 -1.3060  1.2263
  798MOL0     H10093  11.489  11.440   3.414  0.7979  0.4273  3.6484
  798MOL0     H10094  11.564  11.565   3.263  0.2438 -0.5839  1.0876
  798MOL0     H10095  11.593  11.423   3.177 -0.8140 -0.1230  1.0542
  798MOL0     H10096  11.766  11.563   3.134 -1.6738 -1.0837 -0.1516
  798MOL0     H10097  11.784  11.622   3.301 -0.0794 -1.6263  3.2009
  798MOL0     H10098  11.861  11.350   3.169  2.8956  0.5744 -0.3263
  798MOL0     H10099  11.884  11.379   3.346  2.8739  0.0768  0.9923
  798MOL0     H10100  12.028  11.584   3.271  3.1931 -0.4394 -0.9274
  798MOL0     H10101  12.004  11.508   3.113 -1.1836  1.3238  0.7548
  798MOL0     H10102  12.200  11.405   3.141  0.5023 -0.5398  0.9588
  798MOL0     H10103  12.100  11.292   3.252  3.1336 -1.5771  2.8198
  798MOL0     H10104  11.449  11.420   3.811 -0.4335 -0.0226 -2.5046
  798MOL0     H10105  11.259  11.360   3.996 -0.5509 -1.7923  0.8822
  798MOL0     H10106  10.999  10.976   4.144  0.4661 -0.3493 -0.5606
  798MOL0     H10107  10.854  10.859   4.321  0.7567  0.1695  0.4182
  798MOL0     H10108  11.506  11.144   5.762 -1.2038 -1.9722  0.7406
  798MOL0     H10109  11.615  10.961   5.651 -1.3343  1.3557  2.8948
  798MOL0     H10110  11.728  10.780   5.279  0.7080 -0.1660  2.3367
  798MOL0     H10111  11.810  10.632   5.082 -0.2586  1.0745 -1.3411
  798MOL0     H10112  11.840  10.345   4.869  0.7361  0.8873  0.3828
  798MOL0     H10113  11.879  10.506   4.942  1.0511  0.3119  0.6560
  798MOL0     H10114  11.858  10.225   5.059  0.2794  1.0842 -2.4970
  798MOL0     H10115  11.902  10.349   5.170 -0.4593 -0.4124  0.1453
  798MOL0     H10116  12.109  10.371   5.054  1.7230 -0.3551  2.5519
  798MOL0     H10117  12.087  10.225   5.126  4.2722  2.5921 -1.3646
  798MOL0     H10118  12.204  10.208   4.917 -0.1474 -0.2210  0.5911
  798MOL0     H10119  12.059  10.271   4.831 -4.0089 -3.0822 -0.6476
  798MOL0     H10120  11.970   9.866   4.902 -0.1877 -0.2231 -1.3190
  798MOL0     H10121  11.470  10.395   5.109 -3.6419  2.5436  3.2232
  798MOL0     H10122  11.270  10.577   5.287  1.8916  1.7480 -0.9603
  798MOL0     H10123  11.326  10.419   5.247 -0.9468  0.1213  1.5151
  798MOL0     H10124  11.346  10.482   5.411 -0.3412  0.8954  1.1311
  799MOL0     O10125   3.695   2.210   3.652  0.7614 -0.1220 -0.1620
  799MOL0     C10126   3.812   2.173   3.641 -0.5694  0.2106  0.0383
  799MOL0     O10127   3.884   2.146   3.531 -0.1376 -0.2442  0.2556
  799MOL0     C10128   3.826   2.199   3.415 -0.4710  0.6772  0.7008
  799MOL0     C10129   3.780   2.332   3.402  0.1896  0.2962  0.1886
  799MOL0     C10130   3.746   2.385   3.272 -0.2466 -0.2271  0.9788
  799MOL0     C10131   3.763   2.311   3.159  0.5090 -0.0779 -0.3280
  799MOL0     O10132   3.728   2.374   3.044  0.0666  0.3208  0.4672
  799MOL0     C10133   3.833   2.402   2.945 -0.1598  0.7868  0.0694
  799MOL0     C10134   3.773   2.405   2.800  0.2725 -0.5943 -0.5845
  799MOL0     C10135   3.759   2.270   2.720  0.0760 -0.0700 -0.2425
  799MOL0     C10136   3.668   2.168   2.797 -0.7940 -1.0401  0.0500
  799MOL0     C10137   3.610   2.073   2.693 -0.9008 -0.1117 -0.7457
  799MOL0     C10138   3.532   1.953   2.760 -1.1879 -0.0278  0.5277
  799MOL0     C10139   3.439   1.996   2.867  0.2212 -0.6385 -0.0068
  799MOL0     C10140   3.324   1.904   2.902  0.4486  0.2353 -0.6548
  799MOL0     N10141   3.218   1.969   2.987 -0.2042  0.1050  0.2621
  799MOL0     C10142   3.130   2.076   2.962 -0.2024  0.1425 -0.6220
  799MOL0     C10143   3.046   2.067   3.073 -0.3760  0.1385 -0.5480
  799MOL0     C10144   2.919   2.147   3.091 -0.2106  0.5883  0.1186
  799MOL0     C10145   2.908   2.221   3.224  0.3342 -0.7302 -1.0712
  799MOL0     C10146   3.027   2.313   3.250  0.0164 -0.7607  0.6086
  799MOL0     C10147   3.038   2.414   3.128 -0.8250 -0.5297 -0.2262
  799MOL0     O10148   2.931   2.501   3.118  1.1237 -0.3143 -0.0995
  799MOL0     C10149   2.927   2.618   3.054  0.6260  0.0237  0.9820
  799MOL0     C10150   3.024   2.654   2.951  0.2211  0.2855  0.2763
  799MOL0     C10151   3.011   2.782   2.892  0.1149  0.3561  0.3082
  799MOL0     C10152   3.113   2.811   2.785  0.8612 -0.4576 -0.9740
  799MOL0     C10153   2.906   2.871   2.931  0.0559 -0.1268  0.4174
  799MOL0     C10154   2.891   3.011   2.858 -1.1342 -0.1345 -1.0384
  799MOL0     O10155   2.870   3.117   2.941  0.3244 -0.7258  0.5155
  799MOL0     C10156   2.831   3.243   2.904 -0.5680  0.4012  0.1016
  799MOL0     C10157   2.754   3.259   2.789  0.5960  0.8718 -0.6974
  799MOL0     C10158   2.730   3.386   2.755  1.1097 -0.0220  0.3405
  799MOL0     C10159   2.752   3.488   2.839  0.3355  0.7720  0.5912
  799MOL0     O10160   2.718   3.615   2.801  1.0672 -0.5016  0.2911
  799MOL0     C10161   2.824   3.709   2.775  0.2068 -0.8123  0.4120
  799MOL0     C10162   2.779   3.818   2.671  0.0248 -0.1116  0.1115
  799MOL0     C10163   2.892   3.922   2.674  0.3678 -0.4035  0.1342
  799MOL0     C10164   2.850   4.014   2.562 -1.0377  0.2877 -0.1803
  799MOL0     C10165   2.940   4.144   2.558 -0.0775  0.9145  0.1590
  799MOL0     C10166   2.967   4.199   2.410 -0.7371 -0.1134  0.4186
  799MOL0     C10167   3.029   4.345   2.416  0.7290 -0.0048 -0.4371
  799MOL0     C10168   3.067   4.402   2.290  0.2674  0.0221  1.7344
  799MOL0    Cl10169   3.188   4.302   2.214 -0.1766 -0.3171  0.4405
  799MOL0     C10170   2.802   3.466   2.963 -0.1246  0.1827  0.4872
  799MOL0     C10171   2.842   3.342   3.004  0.2327 -0.7875 -0.0255
  799MOL0     O10172   2.909   3.012   2.735 -0.3872 -0.7537 -0.8872
  799MOL0     C10173   2.829   2.842   3.035 -0.5168  0.1722 -0.9682
  799MOL0     C10174   2.828   2.712   3.094  0.4240 -0.1015  0.9645
  799MOL0     N10175   3.076   1.962   3.152 -0.0420 -0.4229  0.4914
  799MOL0     N10176   3.186   1.915   3.106  0.9045 -0.2740  0.3576
  799MOL0     C10177   3.800   2.182   3.168  0.6653  0.5334  0.2120
  799MOL0     C10178   3.835   2.126   3.297 -0.3529 -0.7232  0.3214
  799MOL0     C10179   3.891   2.148   3.763 -0.1559  0.3104  0.2743
  799MOL0     C10180   3.978   2.041   3.759  0.3607 -0.0361  0.2044
  799MOL0     C10181   4.064   2.011   3.863 -0.4235 -0.9809 -0.2557
  799MOL0     C10182   4.076   2.096   3.977  0.5773 -0.5238 -0.1632
  799MOL0     O10183   4.163   2.074   4.081  0.7246 -0.5242  0.3018
  799MOL0     C10184   4.155   1.949   4.146 -0.0759 -0.4254 -0.3176
  799MOL0     C10185   4.301   1.911   4.185 -0.9117  0.4546  0.3254
  799MOL0     C10186   4.422   1.930   4.081  1.2675  0.8306 -0.3213
  799MOL0     C10187   4.385   1.879   3.939 -0.3507 -0.1051  0.1867
  799MOL0     C10188   4.499   1.850   3.855 -0.2845  0.2218  0.0401
  799MOL0     C10189   4.590   1.812   3.790 -0.0833 -1.0443 -0.1159
  799MOL0     C10190   3.995   2.210   3.975 -0.6831  1.2858 -1.0445
  799MOL0     C10191   3.904   2.244   3.868 -0.6552  0.8116  0.8888
  799MOL0     C10192   3.838   2.379   3.866  0.2475  0.1449 -0.2340
  799MOL0     H10193   3.775   2.403   3.483 -3.3072  1.2110 -0.6502
  799MOL0     H10194   3.699   2.483   3.264  0.0992 -0.0050  1.6110
  799MOL0     H10195   3.917   2.333   2.953 -0.5889  0.4794  3.0347
  799MOL0     H10196   3.876   2.502   2.959  2.7631 -0.6570  2.5108
  799MOL0     H10197   3.678   2.456   2.818  0.4105 -0.7630  0.7680
  799MOL0     H10198   3.833   2.476   2.743  0.5300  1.5063  2.1144
  799MOL0     H10199   3.694   2.298   2.636 -0.1659  0.7980  0.2316
  799MOL0     H10200   3.858   2.230   2.692 -0.1028  0.2028 -1.3049
  799MOL0     H10201   3.716   2.110   2.877 -0.6230  1.7672  2.1431
  799MOL0     H10202   3.583   2.215   2.846 -0.4845 -0.4045 -0.0135
  799MOL0     H10203   3.685   2.033   2.623  2.9573 -1.9156  3.8764
  799MOL0     H10204   3.533   2.135   2.646 -1.4477  0.9891  1.4814
  799MOL0     H10205   3.476   1.915   2.674 -0.6979 -2.2791  1.1387
  799MOL0     H10206   3.594   1.866   2.783 -2.2730 -0.3204  2.6634
  799MOL0     H10207   3.394   2.088   2.829 -1.9841 -2.5474 -2.4754
  799MOL0     H10208   3.501   2.016   2.955 -0.4574  2.0400 -0.0686
  799MOL0     H10209   3.284   1.860   2.810  0.5506 -2.2898  0.4168
  799MOL0     H10210   3.367   1.820   2.958  2.4779 -0.0517 -2.5221
  799MOL0     H10211   3.120   2.137   2.872 -0.9702 -3.1232 -2.9332
  799MOL0     H10212   2.837   2.076   3.076  1.8450 -1.4984 -2.1850
  799MOL0     H10213   2.905   2.213   3.005  0.8530  2.3068  1.1993
  799MOL0     H10214   2.820   2.286   3.215  0.5387 -0.3817 -0.5798
  799MOL0     H10215   2.903   2.154   3.310  0.0208 -0.4823 -0.8940
  799MOL0     H10216   3.000   2.378   3.333 -0.9225 -0.6401  0.2307
  799MOL0     H10217   3.116   2.253   3.269  1.4349  0.4155 -1.8993
  799MOL0     H10218   3.131   2.467   3.151  0.2492 -2.0764 -0.8087
  799MOL0     H10219   3.046   2.357   3.034 -1.3867 -0.7877 -0.1219
  799MOL0     H10220   3.115   2.596   2.941  0.8049  1.1867  0.3380
  799MOL0     H10221   3.189   2.732   2.783 -0.5427 -2.1148  2.3959
  799MOL0     H10222   3.178   2.897   2.801  0.7124 -0.4429 -0.4318
  799MOL0     H10223   3.073   2.824   2.684  1.6919 -0.8790 -1.3732
  799MOL0     H10224   2.731   3.184   2.714  0.1541 -1.1575  1.3588
  799MOL0     H10225   2.696   3.410   2.654  4.1281 -0.2359 -0.8398
  799MOL0     H10226   2.847   3.760   2.869  3.0681 -3.5220  1.3756
  799MOL0     H10227   2.917   3.662   2.742 -0.9961 -1.6473 -2.0035
  799MOL0     H10228   2.760   3.772   2.574 -1.7372 -1.3631  0.9852
  799MOL0     H10229   2.679   3.850   2.702 -0.2271  0.7395 -1.4434
  799MOL0     H10230   2.993   3.886   2.655  0.9179  2.2291 -2.8326
  799MOL0     H10231   2.877   3.980   2.766 -1.6044 -2.6423  1.3285
  799MOL0     H10232   2.742   4.032   2.567 -1.1736 -0.8212  1.5971
  799MOL0     H10233   2.874   3.960   2.470 -0.7372 -0.6641  0.4403
  799MOL0     H10234   2.889   4.209   2.629 -2.0758 -1.9283  1.5408
  799MOL0     H10235   3.034   4.117   2.609  0.5144  0.6901 -1.0058
  799MOL0     H10236   2.873   4.190   2.355 -1.7710  2.4068  1.5909
  799MOL0     H10237   3.028   4.118   2.369 -1.2730 -0.8891  1.1330
  799MOL0     H10238   3.113   4.358   2.485 -1.1682  1.5836  1.6875
  799MOL0     H10239   2.953   4.410   2.460  2.8894  3.1183 -0.9356
  799MOL0     H10240   3.100   4.506   2.301  1.8668 -0.5872  3.2649
  799MOL0     H10241   2.986   4.407   2.217  2.1219  1.0075 -0.3813
  799MOL0     H10242   2.825   3.558   3.016  1.2645  0.8644 -1.2008
  799MOL0     H10243   2.895   3.332   3.098 -1.3760 -4.1461  0.6280
  799MOL0     H10244   2.752   2.917   3.052 -0.0919  0.6006 -0.9017
  799MOL0     H10245   2.760   2.693   3.176 -2.1541  2.0332 -0.5212
  799MOL0     H10246   3.792   2.118   3.081 -1.4055 -0.5388  1.1414
  799MOL0     H10247   3.886   2.031   3.297 -1.2276 -1.2127  1.2556
  799MOL0     H10248   3.974   1.967   3.680  0.0962  0.8747 -0.6523
  799MOL0     H10249   4.132   1.927   3.869 -0.7849 -1.1821  2.1754
  799MOL0     H10250   4.102   1.966   4.240 -0.1831  0.0906 -0.4684
  799MOL0     H10251   4.110   1.877   4.077  0.3319  2.1062 -3.4628
  799MOL0     H10252   4.297   1.803   4.201  3.3973  0.0170 -0.3894
  799MOL0     H10253   4.316   1.954   4.285 -2.9367 -1.2175  1.4428
  799MOL0     H10254   4.454   2.033   4.069 -2.1037  1.9430 -0.7182
  799MOL0     H10255   4.502   1.871   4.128  0.3968 -0.1880 -0.0799
  799MOL0     H10256   4.327   1.960   3.895  0.5627 -0.7868 -2.5154
  799MOL0     H10257   4.331   1.785   3.954  1.4812 -1.7358 -2.4875
  799MOL0     H10258   4.665   1.778   3.723 -2.5031 -1.1012 -3.0048
  799MOL0     H10259   4.012   2.281   4.056  1.8184  0.8571 -1.1320
  799MOL0     H10260   3.853   2.444   3.779 -0.6542  0.0965 -0.4381
  799MOL0     H10261   3.732   2.352   3.877  0.0776  1.1865  1.0146
  799MOL0     H10262   3.856   2.437   3.957 -1.8543  1.1973 -0.4359
  800MOL0     O10263   6.681   4.697   6.964 -0.7373 -0.1218 -0.4181
  800MOL0     C10264   6.700   4.734   6.849 -0.6039  0.3157 -0.6194
  800MOL0     O10265   6.790   4.680   6.770  0.1113  0.3814  0.9024
  800MOL0     C10266   6.887   4.599   6.825  0.9026  0.7877  0.5223
  800MOL0     C10267   6.916   4.488   6.752 -0.4141  0.3120  0.3349
  800MOL0     C10268   7.008   4.388   6.800  0.8197 -0.0923  0.2920
  800MOL0     C10269   7.073   4.402   6.921 -0.1294 -0.1453  0.7968
  800MOL0     O10270   7.136   4.285   6.956 -0.2942 -0.0184 -0.3361
  800MOL0     C10271   7.189   4.294   7.081 -0.3369  0.0042 -0.1433
  800MOL0     C10272   7.232   4.154   7.130 -0.5408 -0.1327 -0.7829
  800MOL0     C10273   7.310   4.080   7.018  0.1816  0.4249  0.2707
  800MOL0     C10274   7.370   3.956   7.077  0.7482 -0.5379 -0.0674
  800MOL0     C10275   7.434   3.853   6.977 -0.1735 -0.2500 -0.2644
  800MOL0     C10276   7.549   3.930   6.915  0.4436  0.3830  0.2333
  800MOL0     C10277   7.646   3.847   6.831 -0.6285 -0.0091  1.2486
  800MOL0     C10278   7.760   3.940   6.781  1.2827  1.6590 -0.1723
  800MOL0     N10279   7.831   3.885   6.669 -0.6745  1.0169 -0.1466
  800MOL0     C10280   7.789   3.881   6.536 -0.7847  0.0191  0.6067
  800MOL0     C10281   7.908   3.872   6.468  0.2354 -0.6705 -0.1856
  800MOL0     C10282   7.932   3.889   6.315  0.7426  0.4297 -1.1960
  800MOL0     C10283   8.030   3.770   6.278  0.4563  0.7478 -0.1349
  800MOL0     C10284   7.984   3.617   6.290 -0.2878 -0.1961  1.0461
  800MOL0     C10285   8.101   3.516   6.295  0.5621 -0.2949  0.5827
  800MOL0     O10286   8.036   3.393   6.311 -0.9317  0.2827  0.3950
  800MOL0     C10287   8.102   3.298   6.383  0.4925  0.1499 -0.0650
  800MOL0     C10288   8.034   3.178   6.420  0.1044  0.9155 -0.5115
  800MOL0     C10289   8.103   3.069   6.475 -0.0838  0.6514 -0.4735
  800MOL0     C10290   8.009   2.955   6.536 -0.1130 -0.7662  0.1259
  800MOL0     C10291   8.246   3.077   6.497  0.5739  0.0782 -0.7328
  800MOL0     C10292   8.324   2.962   6.563  0.6916  0.6287 -0.4941
  800MOL0     O10293   8.457   2.981   6.579  0.1968 -0.3013 -0.0558
  800MOL0     C10294   8.547   2.879   6.569 -0.8656  0.2381  1.7687
  800MOL0     C10295   8.680   2.911   6.598 -1.1347 -0.3697 -0.0411
  800MOL0     C10296   8.790   2.816   6.604  0.1115 -1.2678 -0.7816
  800MOL0     C10297   8.756   2.686   6.566 -0.1681 -0.8526  0.2595
  800MOL0     O10298   8.864   2.599   6.553  0.4473  0.4861  0.1823
  800MOL0     C10299   8.846   2.452   6.537  0.1135 -0.2442 -0.9753
  800MOL0     C10300   8.956   2.370   6.607  0.0829  0.4890 -0.1014
  800MOL0     C10301   8.936   2.379   6.758  0.5004 -0.5300  0.0530
  800MOL0     C10302   9.048   2.312   6.834 -0.1638 -0.4029  0.2363
  800MOL0     C10303   9.042   2.327   6.987  1.0806 -0.6140 -0.1800
  800MOL0     C10304   9.094   2.208   7.053  0.6680  0.2703 -0.1759
  800MOL0     C10305   9.083   2.229   7.200 -0.0619  0.2402 -0.3144
  800MOL0     C10306   9.141   2.108   7.279 -1.5503  1.0437 -0.1402
  800MOL0    Cl10307   9.322   2.101   7.251  0.2902  0.0477 -0.1804
  800MOL0     C10308   8.622   2.654   6.534  0.9772  0.2611  0.5558
  800MOL0     C10309   8.519   2.746   6.540  0.0713  0.8931  0.5644
  800MOL0     O10310   8.260   2.858   6.601  0.8533  0.1502  0.0363
  800MOL0     C10311   8.307   3.196   6.467  1.0649 -1.1994 -0.5285
  800MOL0     C10312   8.239   3.304   6.409 -0.0937  0.5308 -0.5438
  800MOL0     N10313   8.014   3.866   6.555  0.2583  0.5974 -0.5587
  800MOL0     N10314   7.968   3.871   6.677 -0.2058  0.0250 -0.1354
  800MOL0     C10315   7.067   4.529   6.981  0.0438 -0.8335  0.5903
  800MOL0     C10316   6.970   4.620   6.930 -0.5211 -0.3661 -0.3252
  800MOL0     C10317   6.611   4.837   6.792  0.2446  1.0054  0.3190
  800MOL0     C10318   6.619   4.854   6.655  0.2445 -0.7604  0.5573
  800MOL0     C10319   6.533   4.944   6.584 -1.1417  0.7281 -0.2770
  800MOL0     C10320   6.438   5.020   6.649  0.3000 -0.9803  0.9343
  800MOL0     O10321   6.356   5.104   6.570  0.3576 -0.9758  0.5445
  800MOL0     C10322   6.245   5.185   6.621 -0.4661  0.4445  0.0395
  800MOL0     C10323   6.185   5.274   6.522 -0.6937 -0.0146 -0.3125
  800MOL0     C10324   6.068   5.358   6.570 -0.1918 -0.8442  0.3047
  800MOL0     C10325   6.016   5.462   6.468  0.6307  0.0277 -0.5041
  800MOL0     C10326   6.111   5.572   6.443 -0.1610  0.0626  0.0242
  800MOL0     C10327   6.179   5.662   6.398 -0.5492 -0.5083 -0.8902
  800MOL0     C10328   6.425   5.008   6.785 -0.7001 -0.5926 -0.3124
  800MOL0     C10329   6.513   4.914   6.859  0.8368 -0.8820  0.3101
  800MOL0     C10330   6.505   4.931   7.010 -1.1077  0.1647  0.5383
  800MOL0     H10331   6.856   4.476   6.663  1.0082  1.5959 -0.8697
  800MOL0     H10332   7.006   4.299   6.739 -0.0526 -0.5074  0.9027
  800MOL0     H10333   7.104   4.325   7.143 -0.7526  0.9285 -1.1553
  800MOL0     H10334   7.274   4.363   7.090 -1.3523  1.6755 -2.3917
  800MOL0     H10335   7.299   4.174   7.214  1.5736  1.2316 -2.6505
  800MOL0     H10336   7.153   4.089   7.168  1.5362  0.0688  4.7266
  800MOL0     H10337   7.242   4.054   6.937  0.3258 -1.9224  0.8467
  800MOL0     H10338   7.386   4.145   6.973 -1.6308  3.3356  1.1549
  800MOL0     H10339   7.456   3.977   7.142  0.7864 -2.6330  0.6582
  800MOL0     H10340   7.295   3.893   7.126 -1.2895 -0.2866 -2.6926
  800MOL0     H10341   7.362   3.809   6.906 -0.4824 -1.5538  0.8189
  800MOL0     H10342   7.466   3.762   7.028 -3.6248 -1.4421  0.0969
  800MOL0     H10343   7.507   4.015   6.860 -0.6342 -0.2039  0.1169
  800MOL0     H10344   7.609   3.976   6.994  4.7278 -0.6342 -2.1184
  800MOL0     H10345   7.593   3.822   6.739  2.3196 -1.8128 -0.0922
  800MOL0     H10346   7.680   3.755   6.877 -1.0907 -1.1104 -0.5141
  800MOL0     H10347   7.724   4.042   6.762  0.5466  0.8822 -3.6246
  800MOL0     H10348   7.824   3.951   6.869  0.3530  2.7119  0.4064
  800MOL0     H10349   7.689   3.896   6.497  0.2065  0.6693 -1.8867
  800MOL0     H10350   7.976   3.988   6.302 -1.5415  1.6890 -0.0705
  800MOL0     H10351   7.835   3.893   6.263 -0.1837 -2.1763  0.1500
  800MOL0     H10352   8.051   3.773   6.170  0.1158 -0.5991 -0.2544
  800MOL0     H10353   8.123   3.786   6.334  0.4910  1.5031 -0.3980
  800MOL0     H10354   7.920   3.592   6.375 -1.3534 -1.7327 -0.1613
  800MOL0     H10355   7.913   3.606   6.208  1.1255 -1.6468 -0.0307
  800MOL0     H10356   8.174   3.519   6.214  2.6264 -2.9340  2.1771
  800MOL0     H10357   8.160   3.551   6.380  0.7793 -1.7355  1.0482
  800MOL0     H10358   7.927   3.190   6.412  0.0309  1.8024  1.4051
  800MOL0     H10359   8.033   2.863   6.482 -3.5010 -2.1136  0.6572
  800MOL0     H10360   7.904   2.975   6.514  0.0133 -1.3918 -1.1470
  800MOL0     H10361   8.020   2.949   6.644  0.4284  3.7665  0.5030
  800MOL0     H10362   8.701   3.013   6.629  3.2105 -0.0949 -2.9944
  800MOL0     H10363   8.890   2.843   6.637  0.1076 -0.7000 -1.2167
  800MOL0     H10364   8.749   2.421   6.576  0.2283 -2.5566 -2.3451
  800MOL0     H10365   8.851   2.429   6.430  1.2150 -2.8595 -0.4528
  800MOL0     H10366   8.941   2.268   6.571 -1.9573  1.1094 -1.1977
  800MOL0     H10367   9.055   2.412   6.586  0.8266 -1.8009 -1.5015
  800MOL0     H10368   8.841   2.329   6.779  1.3602 -1.0495  3.1137
  800MOL0     H10369   8.923   2.484   6.787 -0.9299 -0.2240 -1.5235
  800MOL0     H10370   9.140   2.359   6.797 -0.5350 -1.8493 -2.8264
  800MOL0     H10371   9.051   2.206   6.809  1.6493 -0.0616 -1.2564
  800MOL0     H10372   9.107   2.408   7.020 -0.6244 -0.1096  2.1859
  800MOL0     H10373   8.943   2.355   7.021  1.5262  0.1821  0.4923
  800MOL0     H10374   9.192   2.183   7.010  1.5333  1.4088  1.0384
  800MOL0     H10375   9.038   2.119   7.024 -0.9119  1.0827  0.2942
  800MOL0     H10376   8.979   2.246   7.229 -0.1630 -1.1687  0.2219
  800MOL0     H10377   9.137   2.319   7.231 -1.7459  1.7078 -1.4372
  800MOL0     H10378   9.097   2.011   7.254 -3.4930  1.3289  1.7802
  800MOL0     H10379   9.118   2.110   7.386 -0.5671 -3.7257  0.4033
  800MOL0     H10380   8.608   2.549   6.510  2.8647 -0.3175  1.7879
  800MOL0     H10381   8.424   2.698   6.515 -0.0766  0.1846  2.3326
  800MOL0     H10382   8.412   3.214   6.490  0.9474 -0.1723 -0.7180
  800MOL0     H10383   8.304   3.388   6.385 -0.5955  2.0580  2.8613
  800MOL0     H10384   7.130   4.554   7.066 -0.3522  0.3177  0.5703
  800MOL0     H10385   6.955   4.709   6.991 -1.4180  0.5239 -1.8002
  800MOL0     H10386   6.697   4.810   6.593  0.1629  2.4075 -2.0995
  800MOL0     H10387   6.533   4.949   6.476 -2.0080  0.5692 -0.2963
  800MOL0     H10388   6.169   5.122   6.670 -0.3183  0.6215  0.5035
  800MOL0     H10389   6.274   5.245   6.708 -2.2234  0.3623  0.7217
  800MOL0     H10390   6.148   5.204   6.446 -1.4363  1.1338 -1.0387
  800MOL0     H10391   6.254   5.341   6.470  1.0237 -0.3694  1.3885
  800MOL0     H10392   5.986   5.286   6.575 -3.0613  1.8651 -2.3339
  800MOL0     H10393   6.081   5.407   6.667 -0.8359  0.7299 -0.3663
  800MOL0     H10394   5.925   5.505   6.511  0.7888 -0.5532  0.4389
  800MOL0     H10395   5.992   5.414   6.373 -2.5759  2.3586 -1.0394
  800MOL0     H10396   6.247   5.728   6.349 -0.0373  0.1069  0.5916
  800MOL0     H10397   6.366   5.086   6.832 -0.3186  0.8571 -2.1370
  800MOL0     H10398   6.440   5.017   7.027  2.6334  3.2886  0.6558
  800MOL0     H10399   6.482   4.833   7.053  2.0390 -0.4940  0.9828
  800MOL0     H10400   6.605   4.968   7.037 -0.2915 -1.2489 -0.4138
  801MOL0     O10401   9.975   8.071   8.789  0.0387  0.5257  0.7780
  801MOL0     C10402   9.979   8.167   8.871 -0.6861  0.1778  0.6365
  801MOL0     O10403  10.029   8.288   8.839 -0.6383  0.0856  0.0688
  801MOL0     C10404  10.042   8.330   8.708  0.2521  0.6278  0.1947
  801MOL0     C10405  10.155   8.392   8.665 -0.2732 -0.3214 -0.6375
  801MOL0     C10406  10.174   8.451   8.543  0.0111 -0.0104 -0.0938
  801MOL0     C10407  10.079   8.419   8.444  0.4857 -0.2971  0.0114
  801MOL0     O10408  10.115   8.452   8.306  0.0715  0.1246  0.1795
  801MOL0     C10409  10.027   8.431   8.196 -0.3995  0.5270 -0.6125
  801MOL0     C10410  10.101   8.438   8.066 -0.1698 -0.2052 -1.0365
  801MOL0     C10411  10.019   8.416   7.937 -0.6740  0.3347 -0.8972
  801MOL0     C10412  10.085   8.306   7.862 -0.5009 -0.1198  0.0708
  801MOL0     C10413   9.998   8.255   7.748 -0.4021  0.9772 -0.0187
  801MOL0     C10414   9.951   8.350   7.632 -0.5022  0.4055 -0.0141
  801MOL0     C10415  10.069   8.373   7.538 -0.8352 -0.0183  0.2481
  801MOL0     C10416  10.039   8.505   7.460 -0.1637 -0.3638  0.3244
  801MOL0     N10417  10.149   8.599   7.464 -0.0421  0.1830  0.0010
  801MOL0     C10418  10.203   8.654   7.581 -0.1258  0.2017 -0.0034
  801MOL0     C10419  10.297   8.729   7.529  0.1049 -0.4377 -0.5278
  801MOL0     C10420  10.404   8.798   7.607 -0.2339 -0.8150 -0.2735
  801MOL0     C10421  10.531   8.788   7.526 -0.3721 -0.5798  0.2979
  801MOL0     C10422  10.639   8.882   7.583  0.1496  0.3392  0.2335
  801MOL0     C10423  10.701   8.828   7.717 -0.6625 -0.5910 -0.1265
  801MOL0     O10424  10.824   8.911   7.724 -0.5853 -0.2602 -0.1324
  801MOL0     C10425  10.905   8.883   7.827 -0.2410 -0.6196  0.1332
  801MOL0     C10426  10.905   8.775   7.918  0.4732 -0.1729 -0.3200
  801MOL0     C10427  11.006   8.761   8.015 -1.3248  0.2014 -0.6829
  801MOL0     C10428  11.026   8.623   8.072 -0.5677 -0.5754  0.6925
  801MOL0     C10429  11.108   8.860   8.031  0.0291 -0.5587 -0.3464
  801MOL0     C10430  11.222   8.853   8.140 -0.1082  0.1636 -0.0597
  801MOL0     O10431  11.322   8.941   8.130 -0.4752  1.2003  1.0496
  801MOL0     C10432  11.414   8.947   8.225  0.5977 -0.4774 -0.4371
  801MOL0     C10433  11.475   8.840   8.286  0.2745 -0.3875  0.1920
  801MOL0     C10434  11.569   8.857   8.379 -0.7665 -0.2925 -0.7143
  801MOL0     C10435  11.596   8.986   8.435  0.1460  0.4513  0.0341
  801MOL0     O10436  11.676   8.993   8.548  1.5074  0.0054  0.9513
  801MOL0     C10437  11.773   9.096   8.559  0.2219 -0.1614 -0.3788
  801MOL0     C10438  11.912   9.079   8.523 -0.2789  0.3150  0.5994
  801MOL0     C10439  11.934   9.054   8.369 -0.6603  0.4182  0.5574
  801MOL0     C10440  11.894   9.186   8.290 -0.8632  0.6740  0.5330
  801MOL0     C10441  11.880   9.162   8.134 -0.3372 -0.4788  0.8372
  801MOL0     C10442  11.743   9.114   8.095  0.5191  0.4069  0.0206
  801MOL0     C10443  11.721   9.119   7.942 -0.8830  0.4000 -0.7464
  801MOL0     C10444  11.576   9.077   7.903 -0.8141 -0.9947 -0.2477
  801MOL0    Cl10445  11.468   9.227   7.860  0.2003 -0.1167  0.4718
  801MOL0     C10446  11.534   9.091   8.375  0.1445  0.4735 -0.2431
  801MOL0     C10447  11.440   9.078   8.277 -0.0086 -0.1579 -0.0334
  801MOL0     O10448  11.196   8.796   8.247 -0.6474  0.4749  0.2221
  801MOL0     C10449  11.101   8.971   7.949  0.8912  0.0681  0.7949
  801MOL0     C10450  11.004   8.975   7.851  0.0206 -1.0274  0.2503
  801MOL0     N10451  10.288   8.735   7.395 -0.1539 -0.7903 -0.0560
  801MOL0     N10452  10.202   8.652   7.352 -0.2319 -0.0038 -0.1589
  801MOL0     C10453   9.950   8.362   8.478 -0.5439 -0.2475  0.1512
  801MOL0     C10454   9.939   8.311   8.605  0.3959 -0.2506 -0.7894
  801MOL0     C10455   9.951   8.116   9.011  0.5204 -0.8833 -0.1923
  801MOL0     C10456  10.040   8.160   9.117 -0.1193 -0.4139  0.0720
  801MOL0     C10457  10.033   8.107   9.243  0.5591 -0.3180  0.6511
  801MOL0     C10458   9.932   8.017   9.277 -0.0642  0.7967  0.0305
  801MOL0     O10459   9.934   8.004   9.410 -0.0685 -0.8741 -0.6180
  801MOL0     C10460   9.857   7.906   9.480  0.2217  0.5687  0.9266
  801MOL0     C10461   9.718   7.957   9.523  0.0292  0.7319 -0.4023
  801MOL0     C10462   9.750   8.025   9.655  0.0960 -1.0844 -0.3021
  801MOL0     C10463   9.640   8.123   9.689  0.1696 -0.4210  0.7289
  801MOL0     C10464   9.684   8.223   9.785 -0.3099  0.7366 -0.2896
  801MOL0     C10465   9.716   8.313   9.867  0.2784 -0.5260  0.3587
  801MOL0     C10466   9.834   7.979   9.184  0.1838 -0.5791  0.2935
  801MOL0     C10467   9.854   8.018   9.048 -0.6238  0.1148  0.0888
  801MOL0     C10468   9.745   7.967   8.957 -1.0191  0.2383  0.3940
  801MOL0     H10469  10.237   8.417   8.731  1.7667  0.3159 -3.2466
  801MOL0     H10470  10.272   8.489   8.515 -0.7706  1.1053 -1.4237
  801MOL0     H10471   9.938   8.495   8.198 -1.8728 -1.4192  1.4718
  801MOL0     H10472   9.990   8.329   8.208  0.6256  0.2058 -0.0762
  801MOL0     H10473  10.147   8.538   8.061  1.9453 -1.0752 -0.3602
  801MOL0     H10474  10.188   8.372   8.071  0.2134  0.2768 -1.2080
  801MOL0     H10475   9.913   8.394   7.954 -0.6761 -0.0005 -1.3258
  801MOL0     H10476  10.021   8.505   7.872 -0.2993  0.3183 -0.9078
  801MOL0     H10477  10.184   8.326   7.818  1.5152  0.2275  4.2977
  801MOL0     H10478  10.090   8.217   7.925 -0.4371  0.2256  0.5533
  801MOL0     H10479   9.916   8.199   7.793  1.3852 -1.3076  0.6245
  801MOL0     H10480  10.058   8.179   7.697  1.0698  2.9740 -1.4751
  801MOL0     H10481   9.864   8.309   7.580 -0.9645  0.4411  0.7144
  801MOL0     H10482   9.917   8.445   7.675 -0.5987  0.0871  0.6275
  801MOL0     H10483  10.084   8.279   7.486  3.4950 -1.2368  3.1850
  801MOL0     H10484  10.153   8.390   7.605 -2.2973 -0.6462  2.3328
  801MOL0     H10485  10.004   8.487   7.358  1.2618 -1.2854 -0.0196
  801MOL0     H10486   9.973   8.572   7.516  1.5597 -0.9240  3.2896
  801MOL0     H10487  10.181   8.624   7.684 -0.2171 -1.8433 -0.5668
  801MOL0     H10488  10.415   8.747   7.703  0.4440  1.3553  0.8633
  801MOL0     H10489  10.370   8.896   7.642 -1.8537 -0.7734 -1.8263
  801MOL0     H10490  10.570   8.685   7.522  2.6307  0.3533  2.2730
  801MOL0     H10491  10.523   8.838   7.429 -0.1923  1.0036  1.0765
  801MOL0     H10492  10.715   8.887   7.505  2.8748  1.7767  2.8091
  801MOL0     H10493  10.595   8.981   7.595 -0.6273 -0.0895  1.0429
  801MOL0     H10494  10.633   8.863   7.795  1.2265  0.3528  1.1910
  801MOL0     H10495  10.721   8.721   7.715  0.3781 -0.4037 -0.3801
  801MOL0     H10496  10.838   8.689   7.919  3.6377 -2.8407  0.6875
  801MOL0     H10497  10.964   8.546   8.026 -0.0191 -0.1277 -0.8679
  801MOL0     H10498  11.016   8.624   8.181  2.8867  0.4786  1.1328
  801MOL0     H10499  11.130   8.594   8.050 -1.4064 -1.5173 -2.6349
  801MOL0     H10500  11.453   8.741   8.249  3.4354  0.3598 -4.6678
  801MOL0     H10501  11.630   8.780   8.425  0.7545  2.4597  2.1874
  801MOL0     H10502  11.730   9.191   8.527 -0.9599 -0.0033  1.5199
  801MOL0     H10503  11.769   9.113   8.667 -2.7393 -0.2823 -0.3657
  801MOL0     H10504  11.968   9.169   8.547 -2.4665  1.5115  1.4996
  801MOL0     H10505  11.959   9.008   8.592  0.7758  2.0701  1.7666
  801MOL0     H10506  11.864   8.980   8.330 -0.1251  0.2892 -0.1879
  801MOL0     H10507  12.032   9.018   8.339 -1.5455 -0.4286 -1.5318
  801MOL0     H10508  11.975   9.254   8.317 -0.0889 -0.5422  1.4040
  801MOL0     H10509  11.798   9.214   8.334 -1.9572 -1.4534 -0.3548
  801MOL0     H10510  11.897   9.253   8.077 -3.0441 -0.4783 -0.1108
  801MOL0     H10511  11.948   9.083   8.102 -2.7796 -3.3568  2.1638
  801MOL0     H10512  11.667   9.187   8.127  0.1530  1.6222 -3.2596
  801MOL0     H10513  11.720   9.019   8.143 -0.1278  1.7237  2.4787
  801MOL0     H10514  11.798   9.060   7.891  0.1436  2.7242 -2.0714
  801MOL0     H10515  11.730   9.225   7.919 -3.5130  1.1070  1.0262
  801MOL0     H10516  11.527   9.011   7.976  0.3826 -1.9985 -0.3338
  801MOL0     H10517  11.596   9.015   7.816 -0.1978 -2.5044  0.9231
  801MOL0     H10518  11.545   9.191   8.415 -2.0039  0.1500  1.3471
  801MOL0     H10519  11.382   9.160   8.237  0.7024  0.8971  1.0481
  801MOL0     H10520  11.167   9.056   7.959  0.7456 -0.0205  3.1247
  801MOL0     H10521  11.009   9.058   7.781  2.5262 -0.0024  1.5316
  801MOL0     H10522   9.880   8.345   8.397  0.1642 -1.2733 -0.2822
  801MOL0     H10523   9.849   8.271   8.651  1.0366 -0.4906  0.2793
  801MOL0     H10524  10.127   8.223   9.102  1.0705 -1.6277  1.4590
  801MOL0     H10525  10.100   8.150   9.316  0.1572  2.2116 -0.3663
  801MOL0     H10526   9.833   7.822   9.415  1.1419  0.0884  1.1825
  801MOL0     H10527   9.928   7.885   9.561  0.1928  1.1155  1.0971
  801MOL0     H10528   9.656   7.873   9.557 -2.9141  3.9220  2.8722
  801MOL0     H10529   9.660   8.014   9.450 -2.1151 -0.7119  0.0983
  801MOL0     H10530   9.761   7.952   9.736  1.1102 -1.0928 -0.4293
  801MOL0     H10531   9.838   8.090   9.644 -0.9564  0.3804 -0.3294
  801MOL0     H10532   9.549   8.071   9.718 -1.1051  1.5096  0.3534
  801MOL0     H10533   9.622   8.172   9.593 -1.2652 -0.3003  1.0328
  801MOL0     H10534   9.747   8.375   9.949 -0.1627  1.2030 -0.7327
  801MOL0     H10535   9.747   7.923   9.218 -0.2555  0.9618  1.8701
  801MOL0     H10536   9.672   8.049   8.962 -0.1817  1.0226  0.0820
  801MOL0     H10537   9.772   7.957   8.851 -1.9052  0.1658  0.1664
  801MOL0     H10538   9.701   7.869   8.976 -0.9185 -0.5127 -2.6348
  802MOL0     O10539   7.584   1.786   3.898  0.1174 -0.0790  0.0345
  802MOL0     C10540   7.589   1.677   3.962 -0.8671 -0.4187 -0.8057
  802MOL0     O10541   7.473   1.609   4.009 -0.6622 -0.0411 -0.7034
  802MOL0     C10542   7.348   1.642   3.959 -0.1607  0.5046  0.3795
  802MOL0     C10543   7.243   1.646   4.036 -0.1975  1.4030 -0.7111
  802MOL0     C10544   7.111   1.680   3.990 -0.0420  0.0622 -0.7648
  802MOL0     C10545   7.092   1.722   3.861 -0.1924  0.2348  0.2132
  802MOL0     O10546   6.957   1.757   3.830 -0.7020  0.0444 -0.0451
  802MOL0     C10547   6.929   1.764   3.685 -0.1767 -0.0899 -0.2369
  802MOL0     C10548   6.777   1.752   3.653  0.1235 -0.2976 -0.8124
  802MOL0     C10549   6.773   1.740   3.502  0.5618  0.5117 -0.1910
  802MOL0     C10550   6.617   1.757   3.467 -0.6416 -1.9623  0.7555
  802MOL0     C10551   6.585   1.727   3.321  0.7468 -0.6823 -0.4950
  802MOL0     C10552   6.591   1.578   3.279  0.9007  0.9284 -0.3483
  802MOL0     C10553   6.497   1.488   3.366  0.3532 -0.0199 -1.2199
  802MOL0     C10554   6.524   1.345   3.323  0.3446 -0.1509 -1.3561
  802MOL0     N10555   6.462   1.304   3.194 -0.0453  0.0156  0.1836
  802MOL0     C10556   6.330   1.269   3.178  0.0381  0.5041  0.3418
  802MOL0     C10557   6.307   1.270   3.046  0.0146 -0.1842  0.0773
  802MOL0     C10558   6.180   1.230   2.968 -0.9593  0.2489 -0.6802
  802MOL0     C10559   6.074   1.335   2.921 -0.3270 -1.1053 -1.3153
  802MOL0     C10560   6.145   1.462   2.864 -0.0165  0.3757  0.1188
  802MOL0     C10561   6.226   1.437   2.731 -0.8963 -0.8866 -0.4819
  802MOL0     O10562   6.141   1.402   2.628  0.2580  0.0733  0.7302
  802MOL0     C10563   6.073   1.495   2.558 -0.0451 -0.0365  1.1750
  802MOL0     C10564   5.969   1.455   2.471  0.6453 -0.8415  0.0665
  802MOL0     C10565   5.891   1.542   2.400 -0.2124 -0.2368 -1.0591
  802MOL0     C10566   5.778   1.464   2.325 -0.3541 -0.0168  0.0814
  802MOL0     C10567   5.903   1.680   2.408  0.2333  0.5969  0.8394
  802MOL0     C10568   5.825   1.781   2.344  0.3937 -0.2353 -0.2608
  802MOL0     O10569   5.863   1.914   2.370  0.5730  0.6187 -0.0003
  802MOL0     C10570   5.796   2.006   2.307 -0.4177 -0.0939 -1.0233
  802MOL0     C10571   5.782   2.015   2.164  0.1056 -0.2623 -0.2932
  802MOL0     C10572   5.711   2.130   2.115 -0.1901  0.1517 -0.2144
  802MOL0     C10573   5.653   2.228   2.199 -0.6068  1.5375  0.2830
  802MOL0     O10574   5.595   2.342   2.150 -0.6143 -0.6697  0.1193
  802MOL0     C10575   5.503   2.328   2.045  0.4177  0.6885  0.0850
  802MOL0     C10576   5.409   2.444   2.046 -0.1014 -0.4626 -0.1337
  802MOL0     C10577   5.308   2.432   1.914 -0.2576  0.3307  0.0111
  802MOL0     C10578   5.184   2.523   1.942  0.1570 -0.8730 -0.1097
  802MOL0     C10579   5.102   2.554   1.818  0.0341 -0.8543 -0.8158
  802MOL0     C10580   5.044   2.438   1.755 -0.0109  0.0278  0.7719
  802MOL0     C10581   4.992   2.325   1.845  0.3599  0.6933 -0.5711
  802MOL0     C10582   4.906   2.239   1.758  0.3464 -0.3267  0.5085
  802MOL0    Cl10583   4.844   2.086   1.826  0.0427 -0.2776 -0.2441
  802MOL0     C10584   5.672   2.222   2.339 -0.5543 -0.4182  0.6924
  802MOL0     C10585   5.751   2.113   2.388 -0.5743 -0.8269 -0.8029
  802MOL0     O10586   5.715   1.746   2.292 -0.9087  0.2145 -0.1110
  802MOL0     C10587   6.010   1.725   2.493  1.0447  0.0019 -0.4465
  802MOL0     C10588   6.089   1.635   2.568 -0.0731 -0.2830  0.3473
  802MOL0     N10589   6.420   1.315   2.977 -0.3625  0.1602 -0.1188
  802MOL0     N10590   6.508   1.334   3.071 -0.1991 -0.1336  0.4421
  802MOL0     C10591   7.202   1.719   3.777  0.0555 -0.9846 -0.0062
  802MOL0     C10592   7.330   1.679   3.823 -0.1764 -0.1811  0.7780
  802MOL0     C10593   7.719   1.633   4.016 -1.2882 -1.2314  0.0493
  802MOL0     C10594   7.719   1.592   4.155  0.1834  0.4841 -0.3395
  802MOL0     C10595   7.835   1.555   4.213 -0.0265 -0.0834  0.9666
  802MOL0     C10596   7.959   1.562   4.143 -0.6157  1.0479 -0.5775
  802MOL0     O10597   8.075   1.537   4.215 -0.5897 -0.1579 -1.1582
  802MOL0     C10598   8.103   1.402   4.239  0.4331  0.2678 -0.2495
  802MOL0     C10599   8.145   1.310   4.119  0.1247  0.3022 -0.0828
  802MOL0     C10600   8.265   1.370   4.035 -0.4177  0.1526 -1.4401
  802MOL0     C10601   8.402   1.396   4.107  0.9922  0.0792 -0.6120
  802MOL0     C10602   8.433   1.284   4.197 -0.3291  0.2817  0.8152
  802MOL0     C10603   8.487   1.188   4.255 -0.1456 -1.0035  0.6849
  802MOL0     C10604   7.958   1.599   4.007 -0.0427  0.6885  0.9310
  802MOL0     C10605   7.838   1.634   3.945  1.0391  0.2397  0.3602
  802MOL0     C10606   7.846   1.664   3.795  0.0786 -0.5074  0.2599
  802MOL0     H10607   7.253   1.619   4.140  1.1614  1.0061 -0.9317
  802MOL0     H10608   7.025   1.681   4.055  0.6183 -0.7699  0.1579
  802MOL0     H10609   6.975   1.677   3.639 -0.8061  0.3557 -1.7558
  802MOL0     H10610   6.974   1.857   3.649 -1.7450  0.3588 -1.1087
  802MOL0     H10611   6.733   1.668   3.708  1.0896 -0.6144 -0.4996
  802MOL0     H10612   6.734   1.841   3.698 -0.8445 -2.0187  1.9366
  802MOL0     H10613   6.836   1.815   3.454  2.7132  0.2819  2.0604
  802MOL0     H10614   6.805   1.640   3.471 -1.6776 -0.5818  0.7905
  802MOL0     H10615   6.548   1.697   3.527 -2.8130 -1.5772 -1.2229
  802MOL0     H10616   6.583   1.860   3.481  3.7102 -0.2716  0.2461
  802MOL0     H10617   6.658   1.786   3.264  2.9194  0.5818  3.2954
  802MOL0     H10618   6.480   1.753   3.308  0.2833 -2.2328 -0.0896
  802MOL0     H10619   6.554   1.584   3.176 -0.6221  4.9851  0.2653
  802MOL0     H10620   6.689   1.532   3.262 -0.0079 -2.0655  1.5838
  802MOL0     H10621   6.394   1.513   3.340  0.1158 -1.5111 -1.7817
  802MOL0     H10622   6.527   1.505   3.470 -3.1112 -3.9783  0.6796
  802MOL0     H10623   6.631   1.333   3.301  0.3897  0.6317 -1.5880
  802MOL0     H10624   6.510   1.271   3.402  2.9843  0.7122  0.0352
  802MOL0     H10625   6.255   1.245   3.252  1.6705 -0.6804  1.6758
  802MOL0     H10626   6.129   1.147   3.018  0.4747 -1.0444 -1.2998
  802MOL0     H10627   6.208   1.191   2.870 -1.7170  1.1155 -1.2552
  802MOL0     H10628   6.005   1.291   2.849  0.2772 -4.9190  0.2005
  802MOL0     H10629   6.005   1.372   2.998  1.6813 -2.1417  1.1347
  802MOL0     H10630   6.063   1.531   2.843  0.0342 -0.4967 -3.6722
  802MOL0     H10631   6.215   1.505   2.936 -1.4546 -1.3424  2.7007
  802MOL0     H10632   6.287   1.525   2.709 -1.2917  0.1628  2.1957
  802MOL0     H10633   6.301   1.358   2.744  0.6142  0.6198  0.2727
  802MOL0     H10634   5.962   1.347   2.467  3.3333 -1.0488 -0.5796
  802MOL0     H10635   5.781   1.356   2.338  2.4911 -0.0199  0.1670
  802MOL0     H10636   5.795   1.496   2.222  0.6462  0.5786  0.4135
  802MOL0     H10637   5.679   1.498   2.358 -0.3210  1.9470 -1.6231
  802MOL0     H10638   5.798   1.930   2.098 -0.8454  0.3764 -1.3998
  802MOL0     H10639   5.701   2.139   2.007 -0.6288 -0.1825 -0.2026
  802MOL0     H10640   5.561   2.328   1.953  0.1420 -0.5181 -0.1004
  802MOL0     H10641   5.448   2.235   2.060  0.3765 -0.0830 -3.8723
  802MOL0     H10642   5.356   2.442   2.142  0.4598 -2.5552  0.1812
  802MOL0     H10643   5.457   2.542   2.048  1.9455 -1.3777  3.3056
  802MOL0     H10644   5.271   2.331   1.896 -0.7973  0.7409 -1.2950
  802MOL0     H10645   5.359   2.476   1.828  1.3086 -2.2891 -0.4872
  802MOL0     H10646   5.214   2.624   1.969 -2.4472  0.4615 -1.7624
  802MOL0     H10647   5.111   2.492   2.018 -2.2103  1.3410 -1.3220
  802MOL0     H10648   5.018   2.617   1.846  0.2664 -1.9561  3.0160
  802MOL0     H10649   5.170   2.602   1.747  2.0745  0.4232  1.8042
  802MOL0     H10650   5.121   2.396   1.689  0.8812  2.7233 -0.0156
  802MOL0     H10651   4.965   2.482   1.694  0.9719 -0.8761 -1.2685
  802MOL0     H10652   4.938   2.365   1.932  1.5421 -0.9301  0.9865
  802MOL0     H10653   5.083   2.274   1.878  0.6358  0.7933 -1.1674
  802MOL0     H10654   4.939   2.197   1.663 -3.4475 -1.3095 -0.5673
  802MOL0     H10655   4.820   2.302   1.732 -2.0111 -3.4482  0.1046
  802MOL0     H10656   5.633   2.297   2.408 -0.6060 -2.4496  3.0253
  802MOL0     H10657   5.761   2.104   2.495  0.1455 -1.4896 -0.9095
  802MOL0     H10658   6.033   1.831   2.502  0.5876  0.2339 -1.8479
  802MOL0     H10659   6.163   1.685   2.630  0.2110  1.4304 -1.2558
  802MOL0     H10660   7.202   1.752   3.674  1.0151 -0.1564  0.2516
  802MOL0     H10661   7.417   1.672   3.759 -2.6950 -0.4643 -2.9182
  802MOL0     H10662   7.625   1.603   4.208  0.8887  1.8450  0.6555
  802MOL0     H10663   7.836   1.512   4.313  3.1480 -0.9842  0.6567
  802MOL0     H10664   8.181   1.386   4.313 -2.1583 -0.7547  2.4795
  802MOL0     H10665   8.012   1.356   4.279 -0.4227  0.8168 -1.5154
  802MOL0     H10666   8.068   1.296   4.043 -0.3174 -0.0157  0.4160
  802MOL0     H10667   8.180   1.210   4.148  0.4102 -0.1912 -1.9788
  802MOL0     H10668   8.275   1.286   3.965  0.3737 -1.8500  0.9522
  802MOL0     H10669   8.237   1.461   3.980  4.2573  1.9780 -1.2725
  802MOL0     H10670   8.391   1.489   4.164 -3.6925  0.0653 -1.0716
  802MOL0     H10671   8.482   1.414   4.034  3.4402 -1.8671  1.4247
  802MOL0     H10672   8.539   1.102   4.291 -2.3672 -2.9350 -0.4898
  802MOL0     H10673   8.053   1.607   3.955  1.2554 -0.5794  2.9780
  802MOL0     H10674   7.894   1.760   3.772  1.0541 -0.7962  1.0176
  802MOL0     H10675   7.899   1.584   3.742  1.0347  1.3387 -1.7856
  802MOL0     H10676   7.744   1.671   3.755  0.5247 -0.3722 -0.9016
  803MOL0     O10677   9.575   0.743   2.919  0.2990 -0.2294 -0.2156
  803MOL0     C10678   9.556   0.840   2.851  0.7988 -0.1442 -0.1135
  803MOL0     O10679   9.451   0.862   2.768 -0.6464 -0.8108 -0.0753
  803MOL0     C10680   9.368   0.754   2.723 -0.4505 -1.3168 -0.0764
  803MOL0     C10681   9.400   0.615   2.734 -0.3757 -0.9424  0.3375
  803MOL0     C10682   9.311   0.518   2.690 -0.3488  0.0180 -0.8081
  803MOL0     C10683   9.180   0.558   2.645 -0.1784  0.2332  0.2317
  803MOL0     O10684   9.081   0.474   2.603  0.1759  0.7775 -0.7399
  803MOL0     C10685   8.954   0.471   2.665 -0.3484 -0.0194  0.2965
  803MOL0     C10686   8.930   0.345   2.742 -0.5089 -0.0758 -0.4638
  803MOL0     C10687   8.990   0.350   2.882  0.0141 -0.0720 -0.5201
  803MOL0     C10688   8.888   0.404   2.977  1.0423  0.1754 -0.3923
  803MOL0     C10689   8.941   0.492   3.087  0.6145 -0.6870  0.4194
  803MOL0     C10690   9.039   0.425   3.180  0.7841 -0.5436  0.7997
  803MOL0     C10691   9.060   0.516   3.294 -0.0860  0.3160 -1.3199
  803MOL0     C10692   9.143   0.448   3.411 -0.2878 -0.0347 -0.0190
  803MOL0     N10693   9.146   0.527   3.531  0.5079  0.4302 -0.3651
  803MOL0     C10694   9.025   0.542   3.596  0.1155  0.0019 -1.0372
  803MOL0     C10695   9.055   0.631   3.693  0.4137 -0.7851  1.2601
  803MOL0     C10696   8.953   0.671   3.796 -0.1957  0.2067 -0.2876
  803MOL0     C10697   8.878   0.793   3.732 -0.7325 -0.8121  0.2803
  803MOL0     C10698   8.763   0.756   3.627  0.7687 -0.5620 -0.0010
  803MOL0     C10699   8.788   0.790   3.485 -0.9401 -0.0160 -0.4952
  803MOL0     O10700   8.799   0.931   3.446 -0.7395  0.4434  0.0804
  803MOL0     C10701   8.832   0.953   3.310  0.2528 -1.2368 -0.6704
  803MOL0     C10702   8.846   1.082   3.268  0.0547  1.0408 -0.3387
  803MOL0     C10703   8.871   1.120   3.140 -0.0766 -0.3396  0.2313
  803MOL0     C10704   8.873   1.268   3.116 -0.0944  0.2636  0.3794
  803MOL0     C10705   8.869   1.016   3.036 -0.3229  0.0395 -0.5905
  803MOL0     C10706   8.849   1.050   2.896  0.2223  0.7854  0.9676
  803MOL0     O10707   8.901   0.951   2.809 -0.2157 -0.2727  0.5919
  803MOL0     C10708   8.913   0.996   2.678  0.1032 -0.4717 -0.1486
  803MOL0     C10709   8.851   0.920   2.576 -0.0075  0.7671  0.7424
  803MOL0     C10710   8.871   0.967   2.443 -0.3602 -0.5430  0.1295
  803MOL0     C10711   8.950   1.079   2.413  0.5440 -0.4053  0.7355
  803MOL0     O10712   8.948   1.115   2.281 -0.3532 -0.2908  0.4733
  803MOL0     C10713   9.012   1.221   2.215 -0.1267 -0.6108 -0.2697
  803MOL0     C10714   9.164   1.188   2.196  0.4496  0.3424 -0.0435
  803MOL0     C10715   9.240   1.291   2.103  0.2135 -0.4546 -0.0479
  803MOL0     C10716   9.321   1.212   2.006  0.1761 -0.7969  1.1351
  803MOL0     C10717   9.378   1.305   1.890 -0.2307 -0.4227 -0.2510
  803MOL0     C10718   9.488   1.239   1.802  0.4951  0.5253  0.6924
  803MOL0     C10719   9.519   1.286   1.657 -0.7552 -0.0970 -0.3694
  803MOL0     C10720   9.566   1.172   1.571 -0.7087 -0.2527 -0.2215
  803MOL0    Cl10721   9.692   1.070   1.644 -0.1032 -0.1287 -0.3631
  803MOL0     C10722   9.024   1.142   2.515  0.8092 -0.2234 -0.4783
  803MOL0     C10723   8.996   1.108   2.647 -0.1831 -0.4275 -0.5986
  803MOL0     O10724   8.789   1.157   2.860 -0.7776  0.2957  0.3224
  803MOL0     C10725   8.864   0.879   3.084  0.8618 -0.4650 -1.1332
  803MOL0     C10726   8.851   0.850   3.221 -0.0925  0.2002  0.1316
  803MOL0     N10727   9.189   0.676   3.689  0.8969  0.9624  0.1223
  803MOL0     N10728   9.246   0.615   3.580  0.5892 -0.2904 -0.1731
  803MOL0     C10729   9.152   0.698   2.631  0.8330  0.4308 -0.1348
  803MOL0     C10730   9.238   0.796   2.684  0.2392 -0.4597  0.1717
  803MOL0     C10731   9.645   0.956   2.869  0.0615  0.0642  0.2262
  803MOL0     C10732   9.641   1.064   2.774  0.7133 -0.3125 -0.0690
  803MOL0     C10733   9.715   1.174   2.798 -0.2579 -0.7668  0.7890
  803MOL0     C10734   9.801   1.199   2.903 -0.6088  0.8894  0.4998
  803MOL0     O10735   9.878   1.315   2.920  0.1388  0.2102 -0.6405
  803MOL0     C10736   9.865   1.428   2.824  0.2229 -0.3112  0.0939
  803MOL0     C10737   9.963   1.395   2.698 -0.5571 -0.1810 -0.2333
  803MOL0     C10738   9.942   1.480   2.577 -1.0380 -0.0336  0.2074
  803MOL0     C10739   9.995   1.626   2.581  0.3820  0.1506 -0.5107
  803MOL0     C10740   9.994   1.690   2.447 -0.1106 -0.0139  0.4399
  803MOL0     C10741  10.000   1.733   2.333 -0.2640  0.5035  0.6128
  803MOL0     C10742   9.819   1.088   2.986  0.1664  0.0794  0.7081
  803MOL0     C10743   9.746   0.968   2.966 -0.2220  0.3561 -0.3073
  803MOL0     C10744   9.762   0.870   3.090  0.6399  0.0238  1.1082
  803MOL0     H10745   9.490   0.570   2.773  1.1830  1.7318  0.0786
  803MOL0     H10746   9.352   0.418   2.699  3.8838  1.5649 -0.4790
  803MOL0     H10747   8.889   0.478   2.577  1.2740 -0.8084 -1.0418
  803MOL0     H10748   8.929   0.557   2.727 -3.6221  0.7493 -1.8457
  803MOL0     H10749   8.821   0.343   2.739 -0.6126  0.8820 -5.2678
  803MOL0     H10750   8.974   0.257   2.694  3.6393 -0.8624  3.9554
  803MOL0     H10751   8.999   0.245   2.911  4.4446  0.0492 -0.6663
  803MOL0     H10752   9.090   0.394   2.886 -1.5078  3.8118 -1.0159
  803MOL0     H10753   8.805   0.450   2.923 -0.0782  0.0347  1.1354
  803MOL0     H10754   8.857   0.317   3.036  1.4261  2.1311  2.9379
  803MOL0     H10755   8.860   0.534   3.148 -0.3306 -2.2614  0.3025
  803MOL0     H10756   8.996   0.573   3.037  0.6287 -2.1797 -2.1695
  803MOL0     H10757   8.997   0.332   3.218  0.7013  0.1402  2.4581
  803MOL0     H10758   9.130   0.418   3.120  1.4500  1.7493  1.4224
  803MOL0     H10759   8.966   0.542   3.343  2.2443  0.9604  3.4304
  803MOL0     H10760   9.101   0.613   3.264  1.6370 -0.2429 -0.8528
  803MOL0     H10761   9.100   0.349   3.428  1.1145 -1.1443 -2.3681
  803MOL0     H10762   9.246   0.422   3.383 -0.5580 -1.4811  0.2551
  803MOL0     H10763   8.929   0.493   3.580 -0.9587  1.6101  0.1850
  803MOL0     H10764   8.981   0.691   3.900 -1.8134  3.0903 -0.3078
  803MOL0     H10765   8.895   0.581   3.820 -0.2818  1.0071  2.9564
  803MOL0     H10766   8.836   0.857   3.811 -0.2482  1.3999 -1.1412
  803MOL0     H10767   8.949   0.845   3.666  0.0513 -1.5049  0.5601
  803MOL0     H10768   8.732   0.652   3.642 -1.4978  0.3943  3.0703
  803MOL0     H10769   8.671   0.809   3.654  0.5377  0.0434 -1.8181
  803MOL0     H10770   8.888   0.749   3.470 -0.1687  0.7889  1.9456
  803MOL0     H10771   8.719   0.732   3.423 -0.7505 -0.4382 -0.3142
  803MOL0     H10772   8.841   1.161   3.341  1.2088  2.1241 -1.3714
  803MOL0     H10773   8.938   1.287   3.029 -2.5345  1.6515 -1.2806
  803MOL0     H10774   8.915   1.306   3.210  2.5173 -2.6858  0.5737
  803MOL0     H10775   8.773   1.309   3.100  0.3189  0.9747 -0.5172
  803MOL0     H10776   8.809   0.823   2.601  0.7202 -0.6463 -2.9766
  803MOL0     H10777   8.804   0.924   2.369 -0.6915 -2.4600  1.4706
  803MOL0     H10778   8.978   1.230   2.112  1.2620  0.6401 -0.6565
  803MOL0     H10779   9.003   1.319   2.262  0.5808 -1.3411  1.4719
  803MOL0     H10780   9.216   1.184   2.292  5.5506 -0.3072 -2.4751
  803MOL0     H10781   9.183   1.084   2.167  2.4641 -0.0709  2.3635
  803MOL0     H10782   9.297   1.360   2.166  0.3892  1.0881 -1.8088
  803MOL0     H10783   9.163   1.348   2.051  0.4679  0.0821  0.1537
  803MOL0     H10784   9.266   1.136   1.951  0.0352  0.7136 -0.9214
  803MOL0     H10785   9.407   1.169   2.059  2.2048 -0.6715 -1.7878
  803MOL0     H10786   9.293   1.336   1.830 -0.5160 -3.0000 -1.2992
  803MOL0     H10787   9.413   1.399   1.934 -4.0134  1.2232 -0.3607
  803MOL0     H10788   9.455   1.135   1.798 -3.1031  1.5472  0.3315
  803MOL0     H10789   9.579   1.251   1.862  0.8045 -0.8118  0.5227
  803MOL0     H10790   9.595   1.365   1.667 -0.2140 -0.7036  0.4235
  803MOL0     H10791   9.437   1.334   1.602  1.1061  0.2472 -3.0306
  803MOL0     H10792   9.595   1.223   1.479  1.2673  1.1402  1.0879
  803MOL0     H10793   9.481   1.107   1.546 -1.4414  0.6658 -0.1609
  803MOL0     H10794   9.088   1.227   2.494  1.1903  0.5131  3.0745
  803MOL0     H10795   9.050   1.154   2.729  0.3695 -0.1951 -1.0814
  803MOL0     H10796   8.858   0.792   3.020 -0.1271 -0.0220 -1.6774
  803MOL0     H10797   8.833   0.748   3.252 -1.4404  0.6509  0.9305
  803MOL0     H10798   9.055   0.725   2.591  1.2493 -0.2342 -1.6779
  803MOL0     H10799   9.215   0.901   2.670 -1.1150 -0.9438 -1.6329
  803MOL0     H10800   9.579   1.063   2.685  0.2202 -0.9820  0.2741
  803MOL0     H10801   9.718   1.243   2.715 -4.2850  0.2777  1.3299
  803MOL0     H10802   9.761   1.446   2.796 -0.2594 -3.5051 -0.5087
  803MOL0     H10803   9.904   1.517   2.875 -1.7001  0.1530  0.8507
  803MOL0     H10804   9.927   1.293   2.677 -2.0534 -0.0341  1.3907
  803MOL0     H10805  10.070   1.389   2.720 -0.3081 -0.8441 -1.5223
  803MOL0     H10806  10.001   1.427   2.502 -1.7317  1.7036 -1.6513
  803MOL0     H10807   9.836   1.477   2.548 -0.8508 -0.1112 -0.4931
  803MOL0     H10808  10.088   1.624   2.637 -0.3170  1.9587  0.8127
  803MOL0     H10809   9.924   1.676   2.648  2.1063 -0.5452  1.9853
  803MOL0     H10810  10.001   1.766   2.231  0.2216 -0.0343  0.4329
  803MOL0     H10811   9.894   1.095   3.065  0.8261  0.1101  0.0864
  803MOL0     H10812   9.666   0.860   3.142  1.3737  0.3519  2.5578
  803MOL0     H10813   9.777   0.766   3.061  0.1694  0.2427 -0.0040
  803MOL0     H10814   9.838   0.909   3.157  0.7957  4.7134 -1.3467
  804MOL0     O10815   1.769  11.074   4.270 -0.3599 -0.7457 -0.6042
  804MOL0     C10816   1.664  11.009   4.237 -0.2424  0.1306 -0.3210
  804MOL0     O10817   1.665  10.876   4.208  0.1988 -0.4528 -0.1835
  804MOL0     C10818   1.780  10.801   4.210 -0.0476 -1.6262  0.0137
  804MOL0     C10819   1.857  10.815   4.097  0.1987  1.3340 -0.8115
  804MOL0     C10820   1.962  10.720   4.076  1.1364  0.7243  0.3249
  804MOL0     C10821   1.997  10.624   4.174 -0.3919 -0.4016 -0.4357
  804MOL0     O10822   2.083  10.519   4.159 -0.7573  0.1970  0.1764
  804MOL0     C10823   2.165  10.516   4.034 -0.1451  0.0052 -0.2861
  804MOL0     C10824   2.296  10.602   4.038  0.1734 -1.1113  0.1170
  804MOL0     C10825   2.357  10.616   3.895  0.0436 -0.5981  0.1646
  804MOL0     C10826   2.413  10.487   3.827 -0.3107 -0.2041  0.3133
  804MOL0     C10827   2.493  10.519   3.694  0.8877 -0.7094 -0.4162
  804MOL0     C10828   2.411  10.615   3.599  0.3519 -0.9251  0.3163
  804MOL0     C10829   2.268  10.572   3.563 -0.3311 -1.0315  0.9350
  804MOL0     C10830   2.248  10.424   3.502 -0.4723 -0.8443 -0.5895
  804MOL0     N10831   2.098  10.400   3.516 -0.6709 -0.2387 -0.0771
  804MOL0     C10832   2.044  10.324   3.620 -0.8522  0.4266 -0.0016
  804MOL0     C10833   1.909  10.320   3.586 -0.3540 -0.2564 -0.8295
  804MOL0     C10834   1.816  10.270   3.696 -0.3412  0.6994  0.1348
  804MOL0     C10835   1.735  10.384   3.755 -0.2631  0.4185 -0.2328
  804MOL0     C10836   1.807  10.448   3.880  0.2494  0.1641 -0.0729
  804MOL0     C10837   1.806  10.363   4.005 -0.5342  1.0216 -0.7009
  804MOL0     O10838   1.676  10.349   4.046  0.0127  0.3928  0.4976
  804MOL0     C10839   1.635  10.286   4.161 -1.2808  0.2236 -1.3200
  804MOL0     C10840   1.721  10.256   4.266 -0.4457 -0.7220  0.5068
  804MOL0     C10841   1.676  10.207   4.387 -0.6028 -1.0000  0.5265
  804MOL0     C10842   1.782  10.186   4.494  0.5128  0.2277 -0.6412
  804MOL0     C10843   1.542  10.163   4.400 -0.5802 -0.4699  0.7005
  804MOL0     C10844   1.480  10.123   4.534 -0.4992 -0.0462 -0.2465
  804MOL0     O10845   1.349  10.099   4.532  1.0309 -0.3959 -0.3926
  804MOL0     C10846   1.285  10.099   4.657 -0.1367 -0.1648 -0.1683
  804MOL0     C10847   1.254   9.983   4.730  0.1335 -0.6701  0.2269
  804MOL0     C10848   1.230   9.984   4.877 -0.4648  0.7914  0.8375
  804MOL0     C10849   1.203  10.107   4.936  0.0766 -0.4081 -0.6924
  804MOL0     O10850   1.184  10.110   5.074 -0.6227  0.0761  0.0444
  804MOL0     C10851   1.086  10.200   5.117 -0.3262  0.9327  0.3939
  804MOL0     C10852   0.947  10.162   5.069 -0.5266  0.0227 -0.3909
  804MOL0     C10853   0.907  10.027   5.128 -0.9530  0.5537 -0.1622
  804MOL0     C10854   0.760  10.020   5.163  0.7549  0.2301 -0.4801
  804MOL0     C10855   0.738   9.888   5.236  0.2522 -0.5536 -1.0260
  804MOL0     C10856   0.589   9.884   5.264  0.4054 -0.2378 -0.2280
  804MOL0     C10857   0.543   9.740   5.311  0.0291 -0.5850 -0.4309
  804MOL0     C10858   0.438   9.741   5.435  0.0441  0.4037  0.3480
  804MOL0    Cl10859   0.540   9.779   5.571 -0.1118  0.3392 -0.0040
  804MOL0     C10860   1.209  10.225   4.856 -0.3998  0.7602  1.6548
  804MOL0     C10861   1.253  10.224   4.718 -0.5190  1.4607 -0.5425
  804MOL0     O10862   1.548  10.111   4.635 -0.2681 -0.4086 -0.3858
  804MOL0     C10863   1.456  10.181   4.291 -0.1486 -0.1667  0.4361
  804MOL0     C10864   1.503  10.245   4.170  0.0200 -0.0103  0.0629
  804MOL0     N10865   1.891  10.401   3.477  0.1167  0.3603  0.7983
  804MOL0     N10866   2.000  10.441   3.431  0.6681 -0.2402 -0.1596
  804MOL0     C10867   1.923  10.633   4.292  0.0200 -0.1207 -0.2967
  804MOL0     C10868   1.813  10.719   4.311 -0.1547  0.7522 -1.0490
  804MOL0     C10869   1.532  11.076   4.236  0.3129 -0.2271 -0.8311
  804MOL0     C10870   1.423  11.032   4.151 -0.8289 -0.0437  0.2455
  804MOL0     C10871   1.295  11.091   4.148 -0.3695 -0.2749  0.3603
  804MOL0     C10872   1.272  11.203   4.231 -0.3188 -0.1528  0.5264
  804MOL0     O10873   1.142  11.251   4.222  0.7371 -0.1271  0.1481
  804MOL0     C10874   1.131  11.393   4.212  0.7475 -0.2500 -0.2277
  804MOL0     C10875   1.093  11.473   4.344 -0.7295  0.6836 -0.0622
  804MOL0     C10876   1.029  11.609   4.319  0.6221 -0.2312  0.2709
  804MOL0     C10877   0.990  11.693   4.444  0.1744  1.9841  0.3578
  804MOL0     C10878   0.860  11.636   4.491 -0.0517 -0.4225  0.1850
  804MOL0     C10879   0.761  11.571   4.513  1.0423  0.1820  0.2313
  804MOL0     C10880   1.378  11.244   4.322  0.0681  0.5385 -1.0918
  804MOL0     C10881   1.505  11.182   4.324 -0.2653 -0.4390 -0.0335
  804MOL0     C10882   1.590  11.233   4.435  0.3168  0.2507  0.9856
  804MOL0     H10883   1.830  10.877   4.012  2.0983  1.5515 -1.3005
  804MOL0     H10884   2.017  10.719   3.982 -0.1144  3.8668 -0.5979
  804MOL0     H10885   2.102  10.538   3.947 -1.1138 -0.2197  0.3430
  804MOL0     H10886   2.178  10.411   4.005 -4.1426 -0.6872 -0.1068
  804MOL0     H10887   2.268  10.702   4.072  0.9109 -0.1397 -1.9488
  804MOL0     H10888   2.362  10.541   4.100 -0.6882 -0.2133  1.9910
  804MOL0     H10889   2.300  10.681   3.828  2.1010  1.6918  0.4942
  804MOL0     H10890   2.440  10.685   3.912 -0.6924  1.0821 -2.4762
  804MOL0     H10891   2.487  10.442   3.893 -0.8754 -1.7945 -0.1037
  804MOL0     H10892   2.334  10.416   3.802 -0.1916  0.2947 -1.6961
  804MOL0     H10893   2.516  10.432   3.633  2.9652 -1.5931  1.4648
  804MOL0     H10894   2.588  10.568   3.720  0.8736 -1.4800  1.2456
  804MOL0     H10895   2.421  10.715   3.642  0.5108 -1.0653  0.6119
  804MOL0     H10896   2.470  10.625   3.508 -0.8859 -2.8448 -0.7403
  804MOL0     H10897   2.238  10.647   3.490  1.1322  1.1779  2.4812
  804MOL0     H10898   2.209  10.575   3.655 -0.1558  1.8644  1.0323
  804MOL0     H10899   2.281  10.415   3.398 -1.5001  0.9714 -1.1081
  804MOL0     H10900   2.313  10.362   3.565  2.3698  1.8065 -0.6734
  804MOL0     H10901   2.097  10.280   3.704  2.3284  1.1799 -1.4403
  804MOL0     H10902   1.878  10.229   3.776  1.2688  0.3012 -1.2654
  804MOL0     H10903   1.738  10.202   3.659  0.5523  0.5652 -1.6398
  804MOL0     H10904   1.711  10.458   3.678 -1.5477 -0.3320 -0.5798
  804MOL0     H10905   1.644  10.332   3.787  0.3228  0.1332  1.0205
  804MOL0     H10906   1.914  10.466   3.864  0.8877 -0.8519  2.5209
  804MOL0     H10907   1.768  10.548   3.902  3.9272  2.4292 -2.7364
  804MOL0     H10908   1.856  10.266   3.996  0.1149  1.1644  0.9900
  804MOL0     H10909   1.860  10.430   4.073 -3.6443 -0.7320  3.9937
  804MOL0     H10910   1.823  10.291   4.275 -0.3896 -0.9957  0.9600
  804MOL0     H10911   1.776  10.098   4.559 -4.1653  0.6878 -0.1211
  804MOL0     H10912   1.793  10.270   4.563  1.1917 -1.2897  1.1914
  804MOL0     H10913   1.879  10.173   4.445  0.4755 -2.9178 -0.0889
  804MOL0     H10914   1.280   9.888   4.682  1.4450 -0.9529  1.4565
  804MOL0     H10915   1.230   9.888   4.927  0.0002 -1.3799 -2.9517
  804MOL0     H10916   1.081  10.209   5.226 -0.1394  0.7742  0.4164
  804MOL0     H10917   1.100  10.303   5.086  3.9374  0.2318 -0.6617
  804MOL0     H10918   0.868  10.226   5.110  0.0053  0.4369 -0.0037
  804MOL0     H10919   0.931  10.153   4.962 -1.0715 -4.1851 -0.1532
  804MOL0     H10920   0.966  10.016   5.220 -2.0480  2.1483  0.7928
  804MOL0     H10921   0.932   9.942   5.065  1.5099  1.3427 -0.3604
  804MOL0     H10922   0.695  10.018   5.075  0.1629  1.6764 -0.1051
  804MOL0     H10923   0.725  10.105   5.222 -0.2868  0.9781 -2.1041
  804MOL0     H10924   0.774   9.803   5.179  0.8421 -1.5497  0.7578
  804MOL0     H10925   0.784   9.883   5.335  1.2577 -2.0078 -1.5461
  804MOL0     H10926   0.529   9.895   5.173  0.5585  0.5139 -0.2373
  804MOL0     H10927   0.555   9.966   5.327 -3.1534 -2.0634  0.5485
  804MOL0     H10928   0.623   9.673   5.343 -1.2267 -1.5375  0.8624
  804MOL0     H10929   0.497   9.692   5.224 -2.2804  2.0626 -0.8330
  804MOL0     H10930   0.395   9.641   5.449  0.3472  0.1572 -0.3962
  804MOL0     H10931   0.364   9.819   5.415  1.1480  1.8727  1.7557
  804MOL0     H10932   1.196  10.322   4.903 -0.1685  2.1416 -0.9360
  804MOL0     H10933   1.298  10.308   4.665  0.4636  0.6563 -1.0193
  804MOL0     H10934   1.354  10.146   4.284 -0.4954  0.9329 -0.2163
  804MOL0     H10935   1.428  10.254   4.092  3.1678 -3.3176 -3.7893
  804MOL0     H10936   1.941  10.578   4.384 -0.4114 -2.8862 -1.7507
  804MOL0     H10937   1.742  10.705   4.391 -1.9701 -0.2758 -2.7305
  804MOL0     H10938   1.443  10.941   4.096  1.1913  0.8476 -0.6049
  804MOL0     H10939   1.223  11.045   4.081  0.3353  2.2948 -2.3580
  804MOL0     H10940   1.218  11.445   4.171  0.4186 -0.1237 -0.7717
  804MOL0     H10941   1.059  11.402   4.131 -1.9869 -1.4190  1.9231
  804MOL0     H10942   1.186  11.495   4.397  0.3275 -5.0533  1.1402
  804MOL0     H10943   1.040  11.407   4.412  0.2094  0.0391  0.0697
  804MOL0     H10944   1.091  11.672   4.254  0.8896 -2.0535 -1.3406
  804MOL0     H10945   0.943  11.600   4.253  0.3385 -0.3398  0.6542
  804MOL0     H10946   0.975  11.797   4.414 -0.0502  1.6702 -0.6448
  804MOL0     H10947   1.056  11.689   4.532 -0.5787  1.7286  0.9262
  804MOL0     H10948   0.677  11.506   4.525 -0.3306  1.6352 -1.0215
  804MOL0     H10949   1.355  11.321   4.396  2.9968 -0.9794  1.6363
  804MOL0     H10950   1.677  11.289   4.399  0.8200 -1.8697 -1.4276
  804MOL0     H10951   1.541  11.293   4.512  3.4939  2.3786  1.5157
  804MOL0     H10952   1.623  11.146   4.493 -1.8428 -1.1549  0.2771
  805MOL0     O10953   8.704   4.880  11.341  0.3248  0.3490 -0.3400
  805MOL0     C10954   8.733   4.986  11.282 -0.2513  0.9880  0.2971
  805MOL0     O10955   8.839   5.058  11.313  0.7174 -0.3903 -0.9547
  805MOL0     C10956   8.894   5.017  11.430  0.0089 -0.2088  0.0742
  805MOL0     C10957   8.845   5.063  11.558  0.0428  0.0942 -0.7786
  805MOL0     C10958   8.908   5.033  11.678  0.8636 -0.5352 -0.0399
  805MOL0     C10959   9.015   4.950  11.679 -0.8314  0.3770  0.6764
  805MOL0     O10960   9.077   4.900  11.792  0.4964 -0.6154 -0.5570
  805MOL0     C10961   8.992   4.810  11.860  0.6744  0.1979 -0.2479
  805MOL0     C10962   9.056   4.782  11.990 -0.9099 -0.3201 -1.6848
  805MOL0     C10963   8.969   4.694  12.084  0.1338  0.0804 -0.6483
  805MOL0     C10964   8.976   4.541  12.072  0.0119  0.1011 -0.8002
  805MOL0     C10965   8.876   4.470  12.152 -0.0917 -0.1315  0.2951
  805MOL0     C10966   8.902   4.322  12.140  0.5544 -0.0609  0.7226
  805MOL0     C10967   8.807   4.238  12.226  1.2684 -0.8318 -0.7167
  805MOL0     C10968   8.676   4.217  12.141 -0.1914 -0.0041  0.1012
  805MOL0     N10969   8.561   4.140  12.202 -0.4608  0.1184 -0.7301
  805MOL0     C10970   8.486   4.178  12.310  0.2746 -0.7671 -0.2026
  805MOL0     C10971   8.412   4.075  12.337 -1.0362  0.5478 -0.5426
  805MOL0     C10972   8.313   4.065  12.443 -0.0581 -0.8334  0.0137
  805MOL0     C10973   8.331   3.937  12.530  0.7229  0.7624  1.1258
  805MOL0     C10974   8.474   3.906  12.590  0.5398 -1.2123  0.0393
  805MOL0     C10975   8.486   3.783  12.674  0.5655  0.3579  0.6158
  805MOL0     O10976   8.421   3.791  12.799  0.4152 -0.0158 -0.1054
  805MOL0     C10977   8.489   3.829  12.920  0.9293  0.1132 -1.0541
  805MOL0     C10978   8.401   3.810  13.034 -1.1192 -0.8043  0.1129
  805MOL0     C10979   8.457   3.856  13.159 -0.3586  0.7867 -0.9804
  805MOL0     C10980   8.361   3.841  13.276  0.6978  0.3131 -0.2970
  805MOL0     C10981   8.587   3.920  13.177 -0.2154 -0.9008 -0.4265
  805MOL0     C10982   8.633   3.972  13.302 -0.2491  0.2731 -0.0604
  805MOL0     O10983   8.744   3.932  13.360 -0.6413 -0.5714  0.0386
  805MOL0     C10984   8.802   3.810  13.329 -0.7468 -0.4148  0.2874
  805MOL0     C10985   8.904   3.815  13.226 -0.5589 -0.8312 -0.6279
  805MOL0     C10986   8.973   3.697  13.188 -0.4521 -0.7632 -0.6094
  805MOL0     C10987   8.944   3.577  13.257 -1.3054  0.0918  0.1680
  805MOL0     O10988   9.000   3.452  13.221  0.0825  0.6055  0.6290
  805MOL0     C10989   9.142   3.441  13.212 -0.2555  0.5066  0.3205
  805MOL0     C10990   9.198   3.420  13.361  0.4254 -0.4621  0.4020
  805MOL0     C10991   9.130   3.297  13.432  0.3455 -0.4887  0.3119
  805MOL0     C10992   9.159   3.160  13.368 -0.2367 -0.4741  0.7749
  805MOL0     C10993   9.191   3.053  13.469  0.5574  1.1303 -0.8883
  805MOL0     C10994   9.249   2.918  13.416 -0.2838 -0.6195 -0.7074
  805MOL0     C10995   9.238   2.798  13.515  0.5157 -1.1124  0.5722
  805MOL0     C10996   9.215   2.668  13.438 -0.1331 -0.3355  0.1032
  805MOL0    Cl10997   9.266   2.527  13.539 -0.0722 -0.2342  0.3347
  805MOL0     C10998   8.850   3.577  13.363 -0.2429  0.2288 -0.3616
  805MOL0     C10999   8.786   3.694  13.407  0.4421 -0.1110 -0.0255
  805MOL0     O11000   8.582   4.075  13.335 -0.0001 -0.1122  0.1409
  805MOL0     C11001   8.665   3.942  13.054  0.4554  0.6763  0.5035
  805MOL0     C11002   8.611   3.887  12.934 -0.8836 -0.9407  1.1417
  805MOL0     N11003   8.439   3.981  12.239 -0.4536  0.7018 -0.2028
  805MOL0     N11004   8.538   4.013  12.167 -0.1052  0.2189  0.8192
  805MOL0     C11005   9.077   4.914  11.552 -0.3914 -0.7342  0.5844
  805MOL0     C11006   9.020   4.953  11.433 -0.3815 -0.1013  0.0953
  805MOL0     C11007   8.641   5.030  11.177 -0.6919 -0.2375  0.3016
  805MOL0     C11008   8.581   4.928  11.100  0.7647  0.1863  0.1679
  805MOL0     C11009   8.482   4.960  11.004 -0.4761 -0.4082  1.9659
  805MOL0     C11010   8.455   5.090  10.966  0.9092 -0.7675 -0.0358
  805MOL0     O11011   8.360   5.116  10.866 -0.1167 -0.1338 -0.2681
  805MOL0     C11012   8.353   5.254  10.822  0.9602 -0.0753 -0.2070
  805MOL0     C11013   8.233   5.332  10.883 -0.4015 -0.5997 -0.4171
  805MOL0     C11014   8.097   5.259  10.873 -0.1389  0.2286 -0.3402
  805MOL0     C11015   8.033   5.280  10.734  1.6798  0.4207  0.0014
  805MOL0     C11016   7.907   5.205  10.725  0.4602  0.3516 -0.3959
  805MOL0     C11017   7.798   5.157  10.726 -0.0777  0.4449  1.4444
  805MOL0     C11018   8.512   5.195  11.054  0.1448  0.9823 -1.1271
  805MOL0     C11019   8.596   5.164  11.157 -0.7043 -0.8517 -0.7206
  805MOL0     C11020   8.642   5.277  11.242  0.4571 -0.9041  0.1597
  805MOL0     H11021   8.758   5.126  11.544 -1.7110 -2.6219 -3.5094
  805MOL0     H11022   8.856   5.054  11.771 -0.1360 -0.0036 -0.6990
  805MOL0     H11023   8.967   4.719  11.804 -3.0407  0.0035  1.4471
  805MOL0     H11024   8.898   4.857  11.888 -0.4990 -2.7276  1.2285
  805MOL0     H11025   9.159   4.745  11.979 -1.6677 -2.0049 -3.6687
  805MOL0     H11026   9.071   4.877  12.043  2.2901 -1.2984 -0.6197
  805MOL0     H11027   8.995   4.714  12.188  1.8928  0.1506 -1.0666
  805MOL0     H11028   8.863   4.721  12.085 -0.1538 -0.9143  1.6326
  805MOL0     H11029   8.969   4.510  11.967  0.7709  0.0230 -0.8318
  805MOL0     H11030   9.076   4.510  12.101 -0.3746 -0.1681  0.2822
  805MOL0     H11031   8.780   4.512  12.120  0.7631  2.6001  1.1260
  805MOL0     H11032   8.875   4.493  12.259 -1.4059  1.3550  0.0002
  805MOL0     H11033   8.897   4.286  12.037  0.5685  0.3167  0.5878
  805MOL0     H11034   9.001   4.305  12.183  0.4051  1.1916  1.6036
  805MOL0     H11035   8.788   4.309  12.306  0.5613 -0.2536 -1.3871
  805MOL0     H11036   8.847   4.147  12.272  0.4031 -0.4275  0.8967
  805MOL0     H11037   8.632   4.315  12.118  1.4159  1.8126  3.9346
  805MOL0     H11038   8.707   4.164  12.050  0.2000  0.1264  0.1573
  805MOL0     H11039   8.476   4.270  12.367  1.6030 -0.0551 -1.0581
  805MOL0     H11040   8.214   4.079  12.399  1.3809  2.1529 -2.6423
  805MOL0     H11041   8.324   4.144  12.517 -0.2325  0.2878 -1.1251
  805MOL0     H11042   8.265   3.949  12.616  1.1111 -2.2883  2.0016
  805MOL0     H11043   8.299   3.842  12.487  0.8798 -0.3446  3.3199
  805MOL0     H11044   8.541   3.894  12.505 -0.8147 -1.5513 -1.0236
  805MOL0     H11045   8.503   3.988  12.656 -2.1858 -2.6299  3.3100
  805MOL0     H11046   8.441   3.696  12.626  1.9909  0.2433 -0.5647
  805MOL0     H11047   8.593   3.768  12.688  0.7880 -0.0632 -1.3081
  805MOL0     H11048   8.299   3.777  13.019 -1.2497 -0.0751 -0.7048
  805MOL0     H11049   8.293   3.756  13.267  0.6598  0.3884 -0.7286
  805MOL0     H11050   8.299   3.931  13.275  0.4602  0.2362  2.0332
  805MOL0     H11051   8.428   3.828  13.361 -0.5897  1.4644  0.9592
  805MOL0     H11052   8.924   3.905  13.169  1.8662 -0.3146  0.9043
  805MOL0     H11053   9.043   3.692  13.104  2.1842  2.9588  1.1249
  805MOL0     H11054   9.172   3.354  13.154  0.8793 -1.4168  3.5227
  805MOL0     H11055   9.190   3.531  13.174 -0.1429  1.0335  1.6580
  805MOL0     H11056   9.305   3.402  13.347 -0.0336 -1.3638 -2.5988
  805MOL0     H11057   9.187   3.515  13.415 -2.1836  0.6419 -1.8586
  805MOL0     H11058   9.027   3.333  13.429  0.2074 -0.8115  0.9542
  805MOL0     H11059   9.157   3.296  13.538 -0.0419  1.1553  0.4501
  805MOL0     H11060   9.243   3.176  13.299  0.2230  2.8194  1.9075
  805MOL0     H11061   9.068   3.120  13.322  1.6321 -2.6166 -1.3340
  805MOL0     H11062   9.250   3.092  13.552 -0.1382 -1.5426  0.9534
  805MOL0     H11063   9.095   3.031  13.516  0.6397  0.6547 -0.9374
  805MOL0     H11064   9.354   2.925  13.388  0.1022 -2.8543 -0.0494
  805MOL0     H11065   9.192   2.896  13.325  1.1755  1.7890 -2.2855
  805MOL0     H11066   9.161   2.827  13.588  2.2737  2.1633  1.3369
  805MOL0     H11067   9.331   2.789  13.572 -1.0116 -2.5202  3.0498
  805MOL0     H11068   9.281   2.666  13.351 -1.6751 -0.9248 -1.1062
  805MOL0     H11069   9.107   2.665  13.419 -0.9611  0.9727  3.7513
  805MOL0     H11070   8.853   3.494  13.433 -1.8717  0.1683 -0.3214
  805MOL0     H11071   8.722   3.701  13.494  0.2368  1.5425 -0.2633
  805MOL0     H11072   8.758   3.997  13.055 -0.8560  3.0281  1.8440
  805MOL0     H11073   8.676   3.897  12.848 -0.5187 -0.8613  1.4262
  805MOL0     H11074   9.167   4.853  11.552 -0.2976 -0.6102  1.2820
  805MOL0     H11075   9.080   4.923  11.348  1.5425 -0.9437  1.6692
  805MOL0     H11076   8.601   4.822  11.112  0.2815  0.3580  3.2733
  805MOL0     H11077   8.443   4.885  10.936  1.2114 -0.8747  1.4527
  805MOL0     H11078   8.448   5.306  10.840  0.2395  0.9442  0.8033
  805MOL0     H11079   8.337   5.252  10.714 -0.3377  1.6266 -0.0872
  805MOL0     H11080   8.219   5.431  10.838 -0.2720 -0.7602 -0.8142
  805MOL0     H11081   8.263   5.372  10.980  4.0815  1.0447 -2.2238
  805MOL0     H11082   8.124   5.159  10.907  5.0860  1.6682  0.6991
  805MOL0     H11083   8.035   5.306  10.951  1.3469 -1.5407  2.0579
  805MOL0     H11084   8.101   5.240  10.659  4.3096  4.9698 -0.4553
  805MOL0     H11085   8.023   5.386  10.710  3.1992 -0.0816 -3.4412
  805MOL0     H11086   7.698   5.119  10.739 -0.8922  1.2427 -1.7956
  805MOL0     H11087   8.478   5.297  11.041 -3.3134 -0.3200 -3.7487
  805MOL0     H11088   8.586   5.369  11.264  2.4734  0.6608 -0.8929
  805MOL0     H11089   8.645   5.231  11.341 -1.6165  1.3135  1.3576
  805MOL0     H11090   8.745   5.313  11.231 -0.5600  2.2851  0.0779
  806MOL0     O11091   7.289   9.914  10.697  0.0650 -0.3792  0.0113
  806MOL0     C11092   7.280   9.976  10.585  0.5837  0.8779 -0.3560
  806MOL0     O11093   7.310   9.920  10.473  0.1355 -0.4299  0.8270
  806MOL0     C11094   7.275   9.790  10.455  0.5894  0.6273  0.9807
  806MOL0     C11095   7.342   9.720  10.356  0.1865  0.0454  0.9066
  806MOL0     C11096   7.334   9.587  10.343 -0.0066  0.0245 -1.1468
  806MOL0     C11097   7.236   9.513  10.415 -0.2522  0.6670  0.8410
  806MOL0     O11098   7.238   9.375  10.395 -0.3064 -0.2055 -0.1453
  806MOL0     C11099   7.127   9.357  10.309 -0.6627 -0.3603 -0.0591
  806MOL0     C11100   7.181   9.277  10.191 -0.1083  0.2093  0.0788
  806MOL0     C11101   7.095   9.165  10.143  1.4047 -0.1306 -0.4831
  806MOL0     C11102   7.172   9.077  10.050  0.4300  0.6731  0.5615
  806MOL0     C11103   7.084   8.974   9.984 -0.0338  0.8227 -0.6943
  806MOL0     C11104   7.177   8.853   9.933  0.0963  0.3043 -0.7288
  806MOL0     C11105   7.093   8.718   9.912 -0.0636 -0.3541  0.1433
  806MOL0     C11106   6.969   8.741   9.816  0.2739  0.2774 -0.7037
  806MOL0     N11107   7.002   8.761   9.682 -0.7079 -0.2337 -0.4938
  806MOL0     C11108   6.918   8.808   9.591  0.5538  1.2602 -0.0608
  806MOL0     C11109   6.970   8.771   9.472  0.4243  0.2305  0.0040
  806MOL0     C11110   6.908   8.796   9.336  0.5289 -0.1090 -0.3430
  806MOL0     C11111   6.823   8.672   9.283  1.1596  0.2743 -0.1176
  806MOL0     C11112   6.726   8.717   9.177 -0.5747 -0.9211  0.0893
  806MOL0     C11113   6.794   8.755   9.036 -0.0006 -0.7826 -0.1047
  806MOL0     O11114   6.865   8.887   9.040 -0.1611  0.1007  0.2134
  806MOL0     C11115   6.948   8.905   8.923 -0.4037  0.5915 -0.5587
  806MOL0     C11116   6.892   8.962   8.807 -0.2672 -0.1046  0.2414
  806MOL0     C11117   6.951   8.986   8.688 -0.4254  0.3011  0.3838
  806MOL0     C11118   6.867   9.059   8.575  0.2920  0.2450  0.2338
  806MOL0     C11119   7.090   8.955   8.678 -0.4382 -0.6391 -0.0544
  806MOL0     C11120   7.178   8.968   8.555  1.4418 -0.0100 -0.1660
  806MOL0     O11121   7.120   9.003   8.434  0.5209 -0.5766  0.2801
  806MOL0     C11122   7.216   9.046   8.345 -0.5558  0.3173 -0.1433
  806MOL0     C11123   7.299   9.163   8.360  1.4287 -0.3213 -0.1583
  806MOL0     C11124   7.381   9.199   8.263 -0.0718  0.5705  0.9054
  806MOL0     C11125   7.390   9.122   8.139  0.2228  0.1209  0.7224
  806MOL0     O11126   7.462   9.150   8.034 -0.4747  0.0555  0.5125
  806MOL0     C11127   7.607   9.193   8.049  0.1712 -0.8812 -0.3457
  806MOL0     C11128   7.662   9.255   7.921 -0.2748  0.6159  1.5266
  806MOL0     C11129   7.589   9.386   7.885  0.2700  0.1564 -0.4345
  806MOL0     C11130   7.644   9.430   7.749  0.1341 -0.5171  0.3705
  806MOL0     C11131   7.620   9.583   7.718 -0.2995 -0.1795 -0.2057
  806MOL0     C11132   7.716   9.629   7.607  0.6050  0.2652  0.2880
  806MOL0     C11133   7.690   9.563   7.475 -0.3256  0.8405  0.2342
  806MOL0     C11134   7.777   9.598   7.364  0.0487 -0.8886 -0.1066
  806MOL0    Cl11135   7.956   9.583   7.388  0.9311  0.4828  0.0770
  806MOL0     C11136   7.313   9.003   8.136 -0.8212 -0.5267  0.1389
  806MOL0     C11137   7.229   8.970   8.237  0.5271  0.2010 -0.3920
  806MOL0     O11138   7.291   8.935   8.565 -0.4992  0.1234  0.2169
  806MOL0     C11139   7.149   8.883   8.789 -0.1894 -1.3517  0.1971
  806MOL0     C11140   7.082   8.864   8.910 -0.7793 -0.3385  0.2930
  806MOL0     N11141   7.089   8.698   9.492 -0.5274 -0.4099 -0.5871
  806MOL0     N11142   7.100   8.683   9.617 -0.3523 -0.4513 -0.3747
  806MOL0     C11143   7.154   9.583  10.503  0.3409  0.8206 -0.2727
  806MOL0     C11144   7.170   9.719  10.525 -0.3249 -0.1285 -0.2753
  806MOL0     C11145   7.265  10.115  10.593  0.4666  0.9463  0.0054
  806MOL0     C11146   7.304  10.179  10.475 -1.0951 -0.4621 -0.1155
  806MOL0     C11147   7.303  10.318  10.469 -0.6369  0.2650  0.2146
  806MOL0     C11148   7.256  10.398  10.566 -0.0322 -0.4769 -0.0559
  806MOL0     O11149   7.264  10.531  10.546 -0.1441  0.3738 -0.4688
  806MOL0     C11150   7.237  10.624  10.661  0.6073  0.8268 -0.1668
  806MOL0     C11151   7.265  10.762  10.604  0.4433  0.7199 -0.5910
  806MOL0     C11152   7.396  10.816  10.656 -0.7068 -0.8101 -0.7540
  806MOL0     C11153   7.509  10.731  10.617 -0.0834 -0.6872  0.4628
  806MOL0     C11154   7.628  10.804  10.639 -0.7051  0.7131  0.7207
  806MOL0     C11155   7.719  10.886  10.649  0.6920  0.0538  0.7751
  806MOL0     C11156   7.221  10.332  10.686  0.0519 -0.0465 -0.0093
  806MOL0     C11157   7.214  10.187  10.704 -0.0180  0.6812  1.6186
  806MOL0     C11158   7.144  10.124  10.818 -0.4129 -0.0711  0.0086
  806MOL0     H11159   7.422   9.768  10.301 -0.6569 -0.5704 -0.9299
  806MOL0     H11160   7.415   9.529  10.302  2.1451  2.0410  0.0273
  806MOL0     H11161   7.088   9.449  10.262  0.2362  0.3558  0.5643
  806MOL0     H11162   7.044   9.313  10.365 -2.1379  4.4485  2.0486
  806MOL0     H11163   7.188   9.340  10.102 -3.7469 -0.0822 -0.5844
  806MOL0     H11164   7.278   9.238  10.222 -1.0543 -1.1906  1.4976
  806MOL0     H11165   7.065   9.111  10.233  2.1988 -1.0038 -0.7315
  806MOL0     H11166   7.006   9.207  10.094  2.5166  1.2983 -1.3729
  806MOL0     H11167   7.214   9.148   9.978 -0.3047  1.4363  0.8656
  806MOL0     H11168   7.252   9.023  10.103 -1.3956 -2.6947  0.1721
  806MOL0     H11169   7.037   9.034   9.906 -0.2412  4.4046  1.9006
  806MOL0     H11170   7.008   8.937  10.052  0.4640  1.3855  0.2002
  806MOL0     H11171   7.240   8.869   9.845  0.4412 -1.8312 -0.9267
  806MOL0     H11172   7.238   8.839  10.023 -0.3337  0.2874 -0.4337
  806MOL0     H11173   7.060   8.691  10.013 -1.0991 -0.0378 -0.1035
  806MOL0     H11174   7.160   8.641   9.874  0.8654  0.7498 -0.5206
  806MOL0     H11175   6.931   8.638   9.813 -0.8976  0.7295 -2.2515
  806MOL0     H11176   6.903   8.819   9.854  0.5471 -1.7924  5.0263
  806MOL0     H11177   6.831   8.873   9.600  0.1106  0.7902 -0.9201
  806MOL0     H11178   6.989   8.824   9.269  0.1612  0.2433 -0.6472
  806MOL0     H11179   6.836   8.879   9.344 -2.0408 -2.2378  0.2727
  806MOL0     H11180   6.876   8.599   9.221 -0.0057 -0.1798 -0.6023
  806MOL0     H11181   6.762   8.625   9.361 -0.8141  3.0071  0.1169
  806MOL0     H11182   6.657   8.637   9.147  1.5748 -2.8593  0.0807
  806MOL0     H11183   6.663   8.797   9.218 -0.0221  0.4688 -1.6669
  806MOL0     H11184   6.867   8.683   8.998  1.6658 -0.8681  2.9996
  806MOL0     H11185   6.715   8.768   8.961 -1.2745  2.8240  1.6181
  806MOL0     H11186   6.787   8.974   8.830 -0.1402 -1.8206  2.0410
  806MOL0     H11187   6.763   9.084   8.599 -0.0337  0.0586 -0.9114
  806MOL0     H11188   6.862   8.995   8.486  0.8013  0.9004 -0.2710
  806MOL0     H11189   6.920   9.152   8.554  0.0200 -0.0615 -2.0288
  806MOL0     H11190   7.309   9.201   8.461 -0.6751 -1.5709  0.5854
  806MOL0     H11191   7.439   9.289   8.282  0.5715 -0.2713  3.1354
  806MOL0     H11192   7.613   9.272   8.124  0.8861  0.4559 -1.7465
  806MOL0     H11193   7.672   9.111   8.084 -0.0085 -1.5249 -1.4630
  806MOL0     H11194   7.771   9.267   7.931 -0.3649  1.1550  1.9702
  806MOL0     H11195   7.635   9.188   7.839  1.1853 -1.5171  2.7006
  806MOL0     H11196   7.592   9.464   7.962  1.0828  1.6829 -1.9322
  806MOL0     H11197   7.481   9.369   7.874 -0.2036  2.7514 -0.5539
  806MOL0     H11198   7.593   9.364   7.679 -1.6231  0.1748  0.9314
  806MOL0     H11199   7.752   9.417   7.739  0.4210 -1.0791  3.2402
  806MOL0     H11200   7.519   9.616   7.692 -1.1152  1.0675  3.8304
  806MOL0     H11201   7.665   9.647   7.794  1.4056 -0.3150 -1.0653
  806MOL0     H11202   7.816   9.617   7.649 -0.4104  2.8044  3.8633
  806MOL0     H11203   7.711   9.737   7.592 -0.0461  0.2079  0.0468
  806MOL0     H11204   7.588   9.588   7.445 -0.3376 -0.1302 -0.5768
  806MOL0     H11205   7.700   9.455   7.495  2.2423  0.0216 -4.1820
  806MOL0     H11206   7.765   9.706   7.349 -2.0664 -1.1134 -0.3560
  806MOL0     H11207   7.734   9.545   7.278 -3.7362  0.7454  0.5676
  806MOL0     H11208   7.311   8.940   8.047 -0.2996  0.0158 -0.2619
  806MOL0     H11209   7.156   8.891   8.227 -1.3536  1.9518 -1.1491
  806MOL0     H11210   7.255   8.860   8.790 -0.2598 -1.6796  0.1908
  806MOL0     H11211   7.132   8.815   8.993 -2.2938 -2.4283  0.0492
  806MOL0     H11212   7.083   9.526  10.563  1.2393 -1.0878 -0.9657
  806MOL0     H11213   7.105   9.769  10.596  1.4235 -0.9136  2.0125
  806MOL0     H11214   7.349  10.134  10.387  0.3017  0.2813  0.1854
  806MOL0     H11215   7.336  10.366  10.378  0.1820 -0.1129  0.2920
  806MOL0     H11216   7.130  10.615  10.682  0.4449  0.2664 -1.1631
  806MOL0     H11217   7.293  10.601  10.752  1.4119  0.9963 -0.6050
  806MOL0     H11218   7.173  10.812  10.636  0.4212 -0.3223  1.1401
  806MOL0     H11219   7.266  10.761  10.495 -1.2702 -1.9377 -0.6910
  806MOL0     H11220   7.408  10.920  10.624 -1.6214  0.3004  2.1774
  806MOL0     H11221   7.390  10.798  10.764  0.6884  0.5905 -0.4041
  806MOL0     H11222   7.491  10.704  10.513 -1.4031  2.8809 -0.3847
  806MOL0     H11223   7.513  10.643  10.682  1.1646  0.4811  2.0685
  806MOL0     H11224   7.799  10.956  10.662 -0.7864  1.8424  0.6596
  806MOL0     H11225   7.193  10.395  10.770 -3.2747 -2.5047  0.9166
  806MOL0     H11226   7.208  10.093  10.901 -0.1569  1.2841  0.3542
  806MOL0     H11227   7.066  10.192  10.854 -1.1995 -0.9126 -0.0996
  806MOL0     H11228   7.094  10.039  10.772 -0.2187  1.1752 -2.7186
  807MOL0     O11229   1.627   3.285   3.518 -1.0280  0.1899 -0.0269
  807MOL0     C11230   1.705   3.193   3.556  0.1445 -0.1996 -0.7926
  807MOL0     O11231   1.740   3.157   3.685  0.4552 -0.1884 -0.2970
  807MOL0     C11232   1.657   3.206   3.782  0.6758 -1.0500  0.0651
  807MOL0     C11233   1.558   3.121   3.828  1.0462  0.0152 -0.0985
  807MOL0     C11234   1.449   3.172   3.903 -0.9062 -0.0338 -0.1232
  807MOL0     C11235   1.448   3.299   3.964 -0.7525  0.0650 -0.3603
  807MOL0     O11236   1.347   3.337   4.048 -0.0052 -0.4568  1.1858
  807MOL0     C11237   1.315   3.480   4.055  0.0514  1.6428 -1.0211
  807MOL0     C11238   1.263   3.549   3.929  0.3367  0.2203  0.6717
  807MOL0     C11239   1.110   3.563   3.914  0.5655 -0.5439 -0.0982
  807MOL0     C11240   1.056   3.673   4.015 -0.3522  0.0491  0.6591
  807MOL0     C11241   0.922   3.723   3.967 -0.4093 -0.1805 -0.1224
  807MOL0     C11242   0.797   3.644   4.017 -0.7777  0.4097  0.3205
  807MOL0     C11243   0.787   3.494   3.987  0.2077 -0.0877 -0.2983
  807MOL0     C11244   0.661   3.421   4.023 -0.4713 -0.2764 -0.6153
  807MOL0     N11245   0.651   3.292   3.957  0.2478 -0.0661  0.0016
  807MOL0     C11246   0.754   3.192   3.947 -0.1461  0.4310  0.3322
  807MOL0     C11247   0.706   3.106   3.852  0.2944 -0.7597  0.1890
  807MOL0     C11248   0.781   2.993   3.787 -0.1161  0.1284  0.0928
  807MOL0     C11249   0.829   3.014   3.645 -1.1833  0.4181 -0.7337
  807MOL0     C11250   0.960   3.091   3.636 -0.6433  0.3588  0.1052
  807MOL0     C11251   0.965   3.230   3.692  0.4288 -1.2980  0.3272
  807MOL0     O11252   1.024   3.328   3.603  0.5674 -0.0830 -0.4412
  807MOL0     C11253   0.950   3.364   3.490  0.5147  0.1497 -0.1985
  807MOL0     C11254   1.034   3.364   3.376 -1.3787 -0.2777 -0.3664
  807MOL0     C11255   0.974   3.404   3.252 -1.3597  0.1615 -0.9644
  807MOL0     C11256   1.071   3.405   3.138 -0.8420 -0.0298 -0.4403
  807MOL0     C11257   0.833   3.431   3.243  0.5890 -0.0087  0.1038
  807MOL0     C11258   0.771   3.483   3.119  0.5620 -0.5642 -0.1641
  807MOL0     O11259   0.643   3.460   3.092  1.0517 -0.1803  0.2225
  807MOL0     C11260   0.574   3.517   2.979  1.1603 -0.5404 -0.0843
  807MOL0     C11261   0.641   3.593   2.872 -0.1255 -0.0908 -0.5082
  807MOL0     C11262   0.558   3.662   2.791  0.4273  0.3442 -0.0631
  807MOL0     C11263   0.417   3.631   2.796  1.2117 -1.0873  0.8370
  807MOL0     O11264   0.326   3.705   2.717  0.5051  0.2644  0.0479
  807MOL0     C11265   0.343   3.848   2.690  1.0380  0.6239 -0.5433
  807MOL0     C11266   0.294   3.923   2.816 -0.6259  0.7825 -0.1303
  807MOL0     C11267   0.150   3.886   2.845 -0.6316 -0.2674  0.1668
  807MOL0     C11268   0.047   3.937   2.740 -0.4744  0.4194  0.0222
  807MOL0     C11269  -0.096   3.897   2.776  0.1761 -0.2698 -0.7877
  807MOL0     C11270  -0.181   3.993   2.864  0.1335  0.1195  0.5736
  807MOL0     C11271  -0.329   3.937   2.875 -0.0588 -0.1569  0.2236
  807MOL0     C11272  -0.399   3.992   3.001 -0.5721 -0.2628  0.4969
  807MOL0    Cl11273  -0.519   3.882   3.086  0.1853 -0.1888  0.0555
  807MOL0     C11274   0.354   3.541   2.881 -0.0705  0.5682  0.0015
  807MOL0     C11275   0.433   3.490   2.983 -0.0838 -0.4529  0.5448
  807MOL0     O11276   0.849   3.558   3.048  0.0112 -0.7252  0.6074
  807MOL0     C11277   0.754   3.425   3.366  0.3255  0.9795 -0.0298
  807MOL0     C11278   0.808   3.375   3.483  0.3321 -0.0041  0.0226
  807MOL0     N11279   0.579   3.149   3.811  0.0487 -0.7644  0.7908
  807MOL0     N11280   0.555   3.267   3.861  0.3460 -0.0497 -0.5147
  807MOL0     C11281   1.567   3.374   3.935  0.5561  0.3605  1.0516
  807MOL0     C11282   1.667   3.336   3.836  0.5266 -0.3323 -0.5032
  807MOL0     C11283   1.792   3.131   3.461 -0.3991  0.2007  0.1948
  807MOL0     C11284   1.755   2.991   3.427 -0.0044 -1.4578 -0.2753
  807MOL0     C11285   1.834   2.932   3.326  0.4754 -0.9534  0.8312
  807MOL0     C11286   1.948   2.990   3.274 -0.6065  1.0227 -0.3432
  807MOL0     O11287   2.033   2.919   3.186  0.2035 -0.5609  0.2200
  807MOL0     C11288   1.994   2.793   3.136 -0.3332  0.3771  0.3629
  807MOL0     C11289   2.085   2.748   3.027  0.4148  0.0105 -0.0709
  807MOL0     C11290   2.051   2.788   2.883  0.1057 -0.9250 -0.4437
  807MOL0     C11291   1.917   2.723   2.831  0.1668 -0.3812  0.1803
  807MOL0     C11292   1.918   2.746   2.683  0.4231 -0.0260 -0.2453
  807MOL0     C11293   1.910   2.771   2.570  0.6462  1.0034 -0.7248
  807MOL0     C11294   1.978   3.125   3.311 -0.5249 -0.7888 -0.6055
  807MOL0     C11295   1.897   3.197   3.400 -1.0532  0.0258  0.7950
  807MOL0     C11296   1.938   3.341   3.427  0.5907 -0.3943 -0.5330
  807MOL0     H11297   1.545   3.015   3.807 -3.3384  0.5835 -1.2340
  807MOL0     H11298   1.366   3.104   3.923 -2.1416  1.1222 -1.1566
  807MOL0     H11299   1.408   3.526   4.090  0.0766 -0.0964  1.5667
  807MOL0     H11300   1.244   3.492   4.138  0.2377  2.0978 -0.9252
  807MOL0     H11301   1.292   3.654   3.928 -1.7991  0.8630 -0.7052
  807MOL0     H11302   1.300   3.497   3.840 -0.0708 -1.1562  1.2817
  807MOL0     H11303   1.098   3.600   3.812  1.1810 -3.7151 -1.4490
  807MOL0     H11304   1.059   3.467   3.901  1.4239 -0.6700 -3.5810
  807MOL0     H11305   1.044   3.642   4.119 -1.2022  0.5665  0.7260
  807MOL0     H11306   1.122   3.760   4.011  1.8612 -1.5489  0.1148
  807MOL0     H11307   0.926   3.724   3.858  0.5239 -2.5980 -0.1825
  807MOL0     H11308   0.908   3.829   3.989  0.2110  0.2100 -1.5065
  807MOL0     H11309   0.788   3.667   4.123  0.5780  1.7282  0.1754
  807MOL0     H11310   0.707   3.686   3.971 -1.1477 -1.7498 -1.0813
  807MOL0     H11311   0.875   3.449   4.034  0.9523  0.9035 -0.6771
  807MOL0     H11312   0.815   3.491   3.881  1.8263  0.4189  0.0751
  807MOL0     H11313   0.667   3.409   4.131 -2.2900 -0.4296 -0.5038
  807MOL0     H11314   0.572   3.478   3.993  1.1778  2.2668 -1.0676
  807MOL0     H11315   0.854   3.192   3.989 -0.1741 -1.4913  0.5000
  807MOL0     H11316   0.704   2.916   3.784  0.2581 -0.2177 -1.5964
  807MOL0     H11317   0.861   2.958   3.854 -0.9513  0.3550  1.2508
  807MOL0     H11318   0.855   2.915   3.606  0.3668 -0.0814  1.3730
  807MOL0     H11319   0.746   3.065   3.595 -2.7385  3.1002  4.0093
  807MOL0     H11320   1.037   3.027   3.681 -2.8587 -1.3883  1.6303
  807MOL0     H11321   0.986   3.091   3.530 -0.4469 -0.7530  0.1378
  807MOL0     H11322   0.864   3.259   3.722  0.3514 -1.8596  0.6327
  807MOL0     H11323   1.016   3.235   3.789  0.5188  0.0780  0.2281
  807MOL0     H11324   1.140   3.362   3.398 -1.8043 -2.3145  1.9716
  807MOL0     H11325   1.170   3.379   3.177 -0.6464  1.9795  0.5376
  807MOL0     H11326   1.093   3.505   3.099 -1.3269 -0.1249 -0.9550
  807MOL0     H11327   1.043   3.331   3.063  1.0090 -2.9665  1.5483
  807MOL0     H11328   0.739   3.637   2.855 -0.7252  1.6749  0.2819
  807MOL0     H11329   0.591   3.732   2.715  1.1876  2.3529  1.9773
  807MOL0     H11330   0.445   3.877   2.665  0.8511 -0.2115 -2.4212
  807MOL0     H11331   0.284   3.878   2.603  1.3186  2.2825 -0.1973
  807MOL0     H11332   0.359   3.887   2.896  1.3297  2.1920 -0.9865
  807MOL0     H11333   0.313   4.031   2.810 -0.8791  0.8614  0.3954
  807MOL0     H11334   0.120   3.929   2.941  3.1421 -0.2760  1.5614
  807MOL0     H11335   0.151   3.777   2.858  1.0655 -1.0835 -4.7237
  807MOL0     H11336   0.063   3.901   2.638 -1.5530  1.3229 -0.4836
  807MOL0     H11337   0.053   4.046   2.743  2.4117  0.3289  0.9491
  807MOL0     H11338  -0.142   3.906   2.677  0.5744 -1.4949 -1.1103
  807MOL0     H11339  -0.107   3.795   2.814 -1.6247 -0.0478 -0.6657
  807MOL0     H11340  -0.186   4.089   2.811 -2.6519 -0.5019 -0.4886
  807MOL0     H11341  -0.144   3.978   2.966  1.2176  1.5823  0.4195
  807MOL0     H11342  -0.306   3.830   2.883  1.3718  0.1934  1.2258
  807MOL0     H11343  -0.379   3.958   2.780  2.1465  1.8300 -0.6223
  807MOL0     H11344  -0.452   4.083   2.972 -0.0713  1.9408  5.3590
  807MOL0     H11345  -0.322   4.030   3.070  1.2370 -1.2852 -0.8921
  807MOL0     H11346   0.251   3.508   2.891  0.4510 -2.1576 -2.2589
  807MOL0     H11347   0.389   3.433   3.064 -2.0863 -3.3363 -2.3207
  807MOL0     H11348   0.649   3.454   3.365  0.2772  0.8172 -1.7725
  807MOL0     H11349   0.750   3.364   3.574 -1.2653 -0.6538 -1.0294
  807MOL0     H11350   1.586   3.469   3.984  1.9834 -0.3011  1.8502
  807MOL0     H11351   1.753   3.397   3.812 -1.1744  4.3868  3.7432
  807MOL0     H11352   1.669   2.935   3.464 -0.1728 -0.9937  0.0471
  807MOL0     H11353   1.802   2.833   3.298  0.7557 -1.4253  2.0896
  807MOL0     H11354   2.000   2.720   3.217  0.1162 -1.9259 -1.6117
  807MOL0     H11355   1.891   2.800   3.100 -1.6445  1.7226  3.9981
  807MOL0     H11356   2.083   2.638   3.023  1.8828 -0.1313  1.6651
  807MOL0     H11357   2.190   2.764   3.052  0.5974 -2.7674  1.3682
  807MOL0     H11358   2.033   2.896   2.874 -0.7656 -1.2184 -3.0906
  807MOL0     H11359   2.135   2.761   2.818  1.9388 -1.6527  2.0933
  807MOL0     H11360   1.835   2.773   2.883 -0.0330 -1.0145  0.4954
  807MOL0     H11361   1.914   2.614   2.843 -2.5981 -0.3889 -0.0627
  807MOL0     H11362   1.902   2.793   2.466 -0.8603  0.1430 -0.8237
  807MOL0     H11363   2.069   3.173   3.274 -0.8750  0.9152  0.6088
  807MOL0     H11364   1.935   3.354   3.536 -3.5903 -1.7542 -0.2964
  807MOL0     H11365   2.031   3.357   3.372 -0.0711 -1.4371 -1.9985
  807MOL0     H11366   1.863   3.415   3.397  2.8105  0.9264 -3.3140
  808MOL0     O11367   6.161   6.828   1.177 -0.2408 -0.6241 -0.0571
  808MOL0     C11368   6.056   6.893   1.196 -0.0394  0.4510  0.0085
  808MOL0     O11369   5.978   6.884   1.302  0.7201 -0.2689 -0.5125
  808MOL0     C11370   6.022   6.799   1.406  0.1314  0.5375  0.9283
  808MOL0     C11371   6.074   6.857   1.524  0.3725 -0.4187  0.3018
  808MOL0     C11372   6.103   6.776   1.637  0.1055 -0.0631  0.5732
  808MOL0     C11373   6.100   6.637   1.615 -0.1658  0.4136  0.1287
  808MOL0     O11374   6.134   6.536   1.707  0.3048 -0.3689 -0.1578
  808MOL0     C11375   6.184   6.582   1.835 -0.6124 -0.2448  0.3646
  808MOL0     C11376   6.176   6.461   1.928 -0.7158 -0.1801 -0.5785
  808MOL0     C11377   6.238   6.496   2.059 -0.6078  0.0897  0.4696
  808MOL0     C11378   6.396   6.527   2.054  0.0457  0.6581 -0.6722
  808MOL0     C11379   6.439   6.640   2.149  0.3410 -0.6565 -0.3511
  808MOL0     C11380   6.585   6.678   2.135  0.1178  1.0303 -0.1876
  808MOL0     C11381   6.627   6.773   2.023 -0.6417  1.1900  1.0541
  808MOL0     C11382   6.593   6.927   2.040 -0.4453 -0.0309 -0.1064
  808MOL0     N11383   6.606   6.974   2.181 -0.5055  0.2907  0.2072
  808MOL0     C11384   6.714   6.953   2.257  0.1680  0.2224 -0.1789
  808MOL0     C11385   6.700   7.020   2.371  1.0139  0.0455 -0.7768
  808MOL0     C11386   6.795   7.057   2.493 -0.4446 -0.2946 -0.2794
  808MOL0     C11387   6.928   6.990   2.478  0.1957  1.0787  0.3515
  808MOL0     C11388   7.022   7.032   2.591  0.1494 -0.0680 -0.8196
  808MOL0     C11389   7.155   6.957   2.562 -0.0160 -0.6821  0.4858
  808MOL0     O11390   7.146   6.824   2.626  0.0837 -0.0765  0.4574
  808MOL0     C11391   7.264   6.759   2.655 -0.7376 -0.1957  0.9005
  808MOL0     C11392   7.260   6.631   2.697  0.5209  0.0575 -0.7898
  808MOL0     C11393   7.372   6.535   2.728  0.0357 -0.0199  0.0973
  808MOL0     C11394   7.335   6.401   2.768 -0.2269  0.6384 -0.1832
  808MOL0     C11395   7.498   6.608   2.723 -1.1072  0.3149  0.2098
  808MOL0     C11396   7.626   6.543   2.757  1.0299 -1.0155  0.8621
  808MOL0     O11397   7.729   6.562   2.670  0.0899  1.0804  0.3785
  808MOL0     C11398   7.845   6.511   2.710  0.0505  0.3292  0.9255
  808MOL0     C11399   7.892   6.379   2.678  0.1970 -0.1152 -0.8015
  808MOL0     C11400   8.019   6.342   2.716 -0.4795  0.4119  0.7407
  808MOL0     C11401   8.097   6.413   2.801  0.6727 -0.1985  0.4312
  808MOL0     O11402   8.215   6.369   2.848 -0.2926  0.0363  1.0267
  808MOL0     C11403   8.207   6.239   2.921 -0.4429 -0.2595 -0.2963
  808MOL0     C11404   8.154   6.266   3.062  0.5735 -0.6652  0.2323
  808MOL0     C11405   8.266   6.334   3.148 -0.0660  0.0117 -1.0512
  808MOL0     C11406   8.266   6.302   3.294 -0.5090 -0.4565 -0.6662
  808MOL0     C11407   8.350   6.179   3.303  0.5560  0.5432  0.4337
  808MOL0     C11408   8.396   6.140   3.446  0.6471  0.0094 -0.2979
  808MOL0     C11409   8.510   6.048   3.446 -0.2473 -0.3972 -0.4078
  808MOL0     C11410   8.573   6.025   3.578  0.0544  0.7370  0.1870
  808MOL0    Cl11411   8.469   5.938   3.699  0.1599 -0.1502  0.1810
  808MOL0     C11412   8.040   6.532   2.840  0.3949  0.7072  0.7804
  808MOL0     C11413   7.920   6.591   2.803  0.6068 -0.0015 -0.1317
  808MOL0     O11414   7.634   6.500   2.866  0.1862  0.8021  0.6498
  808MOL0     C11415   7.499   6.739   2.674 -0.0912  1.1476  0.3536
  808MOL0     C11416   7.393   6.811   2.625 -0.2736  0.4879  0.3575
  808MOL0     N11417   6.571   7.064   2.374 -0.2475  0.3792  0.3147
  808MOL0     N11418   6.523   7.057   2.251  0.3765  0.4779 -0.0972
  808MOL0     C11419   6.052   6.575   1.495 -0.3337 -0.0664 -0.7004
  808MOL0     C11420   6.012   6.660   1.396 -0.9744 -0.2515  0.6868
  808MOL0     C11421   6.003   6.971   1.083  0.2792  0.5603  0.7058
  808MOL0     C11422   5.872   6.961   1.046  0.1086  0.6190 -0.7348
  808MOL0     C11423   5.808   7.040   0.947 -0.9325 -0.2638  0.2627
  808MOL0     C11424   5.891   7.116   0.861  0.1960  0.9542 -0.1705
  808MOL0     O11425   5.852   7.201   0.757  0.8897 -0.1822 -0.2985
  808MOL0     C11426   5.708   7.212   0.733  0.3745 -0.4588  0.2773
  808MOL0     C11427   5.663   7.328   0.642 -0.1827 -0.6241  0.2062
  808MOL0     C11428   5.709   7.468   0.688  0.6271  0.4563  0.1158
  808MOL0     C11429   5.670   7.588   0.592 -0.8911  0.1099 -0.1477
  808MOL0     C11430   5.732   7.710   0.646 -0.6700  0.4198  0.1929
  808MOL0     C11431   5.773   7.803   0.708 -0.2385  0.0425  0.6365
  808MOL0     C11432   6.028   7.120   0.889  1.3806  0.2213 -0.7748
  808MOL0     C11433   6.078   7.052   1.005  0.1755  1.1239  0.1679
  808MOL0     C11434   6.217   7.104   1.052 -0.0429  0.0151 -0.2169
  808MOL0     H11435   6.069   6.965   1.530 -1.8589 -0.4887  0.6861
  808MOL0     H11436   6.129   6.821   1.732 -1.3110  3.6045 -0.5797
  808MOL0     H11437   6.131   6.665   1.882 -1.1115 -1.2615  1.6293
  808MOL0     H11438   6.288   6.610   1.814 -1.6259  1.9644 -2.3474
  808MOL0     H11439   6.072   6.451   1.959 -0.7972 -0.5244 -0.9530
  808MOL0     H11440   6.209   6.366   1.886 -0.1095  0.0769 -0.7032
  808MOL0     H11441   6.196   6.581   2.114 -0.7648  0.7635 -0.6578
  808MOL0     H11442   6.231   6.409   2.124  1.6571 -2.5327 -2.5020
  808MOL0     H11443   6.451   6.434   2.074  0.1603  0.3815 -2.1970
  808MOL0     H11444   6.416   6.548   1.949 -2.7196 -4.0195 -2.4420
  808MOL0     H11445   6.429   6.599   2.249  1.3937 -0.4871 -0.1644
  808MOL0     H11446   6.378   6.731   2.142  0.5215 -0.4542  0.6587
  808MOL0     H11447   6.616   6.715   2.233  0.2711  0.2661  0.0620
  808MOL0     H11448   6.651   6.592   2.123  1.7975  2.2275  0.0898
  808MOL0     H11449   6.595   6.727   1.930 -1.3955 -0.3769  2.0492
  808MOL0     H11450   6.736   6.758   2.020 -0.7735  0.1000  1.3713
  808MOL0     H11451   6.651   6.982   1.965  0.6459 -0.9897  0.0105
  808MOL0     H11452   6.493   6.934   1.996 -0.0263  0.1752 -1.0752
  808MOL0     H11453   6.807   6.904   2.232  1.7911  0.9532  3.7246
  808MOL0     H11454   6.748   7.028   2.587  1.4700 -0.4252  0.6697
  808MOL0     H11455   6.815   7.164   2.499  0.3286 -0.4300 -0.4144
  808MOL0     H11456   6.912   6.882   2.482 -0.8941  1.1973 -0.4661
  808MOL0     H11457   6.979   7.010   2.384  3.5120 -2.6095  1.0780
  808MOL0     H11458   7.042   7.140   2.597  1.5297 -0.2516 -1.7741
  808MOL0     H11459   6.993   7.000   2.691 -0.0674  0.3126 -0.7588
  808MOL0     H11460   7.175   6.937   2.456 -0.2459 -1.2621  0.5482
  808MOL0     H11461   7.239   7.014   2.603  0.6578 -0.9612 -0.4860
  808MOL0     H11462   7.156   6.614   2.723 -0.2084  2.4510 -1.8235
  808MOL0     H11463   7.350   6.329   2.687 -0.4021  1.2958 -0.8118
  808MOL0     H11464   7.231   6.387   2.801 -0.5313 -0.5546 -1.5644
  808MOL0     H11465   7.408   6.381   2.847 -1.3688 -0.9037  0.5370
  808MOL0     H11466   7.849   6.309   2.607  1.4239 -1.6158 -0.1206
  808MOL0     H11467   8.060   6.249   2.677  1.1921  1.5052 -0.2361
  808MOL0     H11468   8.139   6.172   2.867  1.2043 -0.6427 -2.0587
  808MOL0     H11469   8.299   6.179   2.923 -1.6774 -2.2305  1.7230
  808MOL0     H11470   8.067   6.333   3.061 -0.8268 -2.3542  1.9176
  808MOL0     H11471   8.131   6.168   3.104 -1.1562 -0.7638 -0.8430
  808MOL0     H11472   8.246   6.442   3.146 -1.1480  0.1744  4.1023
  808MOL0     H11473   8.360   6.312   3.097  1.5157  1.7496  0.9146
  808MOL0     H11474   8.167   6.294   3.341 -0.8083 -1.7289 -1.4599
  808MOL0     H11475   8.315   6.379   3.354 -3.0958  1.2637 -0.5939
  808MOL0     H11476   8.308   6.100   3.241  0.8075  1.0448 -0.3868
  808MOL0     H11477   8.443   6.196   3.248 -0.4635  0.2612 -1.4664
  808MOL0     H11478   8.320   6.091   3.508  1.8257  0.9424  2.0186
  808MOL0     H11479   8.427   6.234   3.494  0.0840 -1.0441  2.3415
  808MOL0     H11480   8.588   6.100   3.389 -0.5113  1.9763  1.2449
  808MOL0     H11481   8.479   5.957   3.394  1.6675 -1.1231 -0.3503
  808MOL0     H11482   8.605   6.117   3.628  0.8344  1.3887 -1.4380
  808MOL0     H11483   8.659   5.961   3.557 -3.1108 -3.4635 -1.5670
  808MOL0     H11484   8.101   6.600   2.900  1.9107 -0.1947  0.3026
  808MOL0     H11485   7.900   6.691   2.840  1.4751  0.9491 -2.0422
  808MOL0     H11486   7.595   6.790   2.674 -0.3242  1.5932 -0.0174
  808MOL0     H11487   7.411   6.907   2.578 -2.0361  1.9401  2.4824
  808MOL0     H11488   6.034   6.468   1.489 -0.4225 -0.1565  0.8042
  808MOL0     H11489   5.980   6.603   1.310 -0.7625 -0.5216  0.7828
  808MOL0     H11490   5.808   6.904   1.113  1.1000  0.9444  0.5183
  808MOL0     H11491   5.702   7.032   0.927 -1.2128  1.4637  0.8858
  808MOL0     H11492   5.685   7.116   0.686  0.9234  0.0373 -1.0383
  808MOL0     H11493   5.645   7.219   0.823  0.5385 -0.1665  0.3723
  808MOL0     H11494   5.554   7.318   0.643 -0.0124 -3.9725 -1.3493
  808MOL0     H11495   5.699   7.324   0.539 -1.3707  2.6564 -0.4718
  808MOL0     H11496   5.699   7.485   0.795  0.2640  1.6403 -0.0889
  808MOL0     H11497   5.817   7.459   0.674  0.6367  1.9520 -1.0939
  808MOL0     H11498   5.565   7.598   0.564 -1.2088 -0.9252  0.6162
  808MOL0     H11499   5.731   7.566   0.504  2.0559  1.6601  1.3566
  808MOL0     H11500   5.809   7.887   0.764  2.8265  0.5064 -1.8134
  808MOL0     H11501   6.072   7.209   0.845  0.8926  1.0018  0.2719
  808MOL0     H11502   6.237   7.195   0.996  0.9092 -0.6919 -1.0592
  808MOL0     H11503   6.219   7.112   1.161 -1.9679 -2.7864  0.1537
  808MOL0     H11504   6.290   7.029   1.020  0.7270  0.6879 -0.0792
  809MOL0     O11505   3.502   1.017   1.755 -0.9102 -0.0331  0.6274
  809MOL0     C11506   3.575   1.063   1.853  0.2600  0.4053 -0.2521
  809MOL0     O11507   3.699   1.114   1.832 -0.6220  0.1153 -0.1565
  809MOL0     C11508   3.783   1.058   1.741 -0.5667  0.1860 -1.1040
  809MOL0     C11509   3.749   1.031   1.612 -0.5641  0.1936  0.7414
  809MOL0     C11510   3.847   0.996   1.517 -0.0954 -0.4379  0.5553
  809MOL0     C11511   3.978   0.965   1.563  0.3936 -0.2246 -0.9669
  809MOL0     O11512   4.073   0.931   1.476 -0.8668 -0.0807  0.1806
  809MOL0     C11513   4.040   0.798   1.411  0.1326  0.4304  0.7586
  809MOL0     C11514   4.081   0.672   1.491  0.2198  0.7524 -0.4453
  809MOL0     C11515   4.120   0.549   1.407  0.9230  0.6281 -0.4059
  809MOL0     C11516   4.264   0.561   1.355  0.6608 -0.5243 -1.7562
  809MOL0     C11517   4.311   0.419   1.319 -0.0870  0.5785 -0.0250
  809MOL0     C11518   4.426   0.416   1.221  0.0831 -0.5342 -0.1198
  809MOL0     C11519   4.457   0.273   1.192 -0.0159  0.1728 -0.2141
  809MOL0     C11520   4.586   0.237   1.129 -0.4223  0.4117 -0.1602
  809MOL0     N11521   4.687   0.215   1.233 -0.9105  0.4859 -0.4562
  809MOL0     C11522   4.741   0.306   1.322 -0.1332 -0.3335  0.1687
  809MOL0     C11523   4.821   0.241   1.408 -0.7426 -1.1840  0.1465
  809MOL0     C11524   4.895   0.294   1.535 -0.5030  0.1084 -0.6952
  809MOL0     C11525   4.964   0.422   1.493 -0.3152 -0.1702 -0.7368
  809MOL0     C11526   5.059   0.478   1.593  0.1058 -0.5011  0.0622
  809MOL0     C11527   5.134   0.598   1.547  0.4761 -0.7592 -0.3067
  809MOL0     O11528   5.220   0.636   1.652 -0.2142 -0.6147 -0.1929
  809MOL0     C11529   5.319   0.566   1.709 -0.1831  0.4530  0.6916
  809MOL0     C11530   5.393   0.633   1.805 -0.2661  0.7760 -0.3815
  809MOL0     C11531   5.500   0.574   1.885 -0.5287 -0.5086 -1.1539
  809MOL0     C11532   5.548   0.665   1.995  0.4022 -1.0217  1.5169
  809MOL0     C11533   5.526   0.438   1.862  0.8985 -0.1030  0.0652
  809MOL0     C11534   5.634   0.370   1.935 -0.5312 -1.0388  0.3569
  809MOL0     O11535   5.624   0.235   1.942 -0.2953  0.5315  0.7394
  809MOL0     C11536   5.728   0.152   1.959  0.3408 -0.8267 -0.3589
  809MOL0     C11537   5.758   0.070   1.852  0.8381  0.1967 -0.0045
  809MOL0     C11538   5.862  -0.025   1.867 -0.0617 -0.2865 -0.3905
  809MOL0     C11539   5.916  -0.043   1.999  0.0832  0.5089 -0.1816
  809MOL0     O11540   6.012  -0.139   2.035 -0.1391  0.3209  0.0233
  809MOL0     C11541   6.125  -0.143   1.947 -0.0838  0.2922 -0.3487
  809MOL0     C11542   6.230  -0.233   2.010  0.2298 -0.8696 -0.1605
  809MOL0     C11543   6.284  -0.155   2.134 -0.0534  0.9124  0.1768
  809MOL0     C11544   6.401  -0.231   2.194 -0.4292 -0.1495 -0.3611
  809MOL0     C11545   6.430  -0.184   2.341  0.7170  0.0010  0.5016
  809MOL0     C11546   6.534  -0.267   2.400  0.3834 -0.0614 -0.0056
  809MOL0     C11547   6.674  -0.251   2.346 -0.0912  0.0086  0.3357
  809MOL0     C11548   6.778  -0.358   2.410 -0.0350  0.0970  0.1277
  809MOL0    Cl11549   6.773  -0.364   2.594 -0.2946  0.0230 -0.1642
  809MOL0     C11550   5.862   0.025   2.106 -1.3609  0.7763  0.4919
  809MOL0     C11551   5.776   0.126   2.091 -0.7918 -0.8594  0.0043
  809MOL0     O11552   5.725   0.440   1.987  0.0331  0.3186 -0.2948
  809MOL0     C11553   5.467   0.375   1.746  0.4484 -0.1837  0.0094
  809MOL0     C11554   5.369   0.436   1.670  0.1109  0.7131 -0.1490
  809MOL0     N11555   4.838   0.118   1.350 -0.6760  0.2235  0.0118
  809MOL0     N11556   4.754   0.103   1.253 -0.9068 -0.2382 -0.7585
  809MOL0     C11557   4.008   0.975   1.697 -0.2150  0.2501 -0.0239
  809MOL0     C11558   3.905   1.026   1.780 -0.5702 -0.2141 -0.2695
  809MOL0     C11559   3.497   1.097   1.974 -0.1208 -0.1075  0.5978
  809MOL0     C11560   3.359   1.125   1.963 -1.5118  0.7262 -0.3520
  809MOL0     C11561   3.294   1.139   2.082  0.8471 -0.6039  0.2441
  809MOL0     C11562   3.349   1.154   2.208 -0.4370  0.1808 -0.9611
  809MOL0     O11563   3.275   1.181   2.319 -0.4903  0.4823 -0.7136
  809MOL0     C11564   3.161   1.106   2.339 -0.0411  0.3653  0.0474
  809MOL0     C11565   3.178   0.962   2.396  0.8695  0.2118 -0.7701
  809MOL0     C11566   3.259   0.961   2.530 -0.3370 -0.8284 -0.1865
  809MOL0     C11567   3.408   0.992   2.518  0.7988  0.0998 -0.1396
  809MOL0     C11568   3.451   1.001   2.663 -0.4550  0.3540  0.6776
  809MOL0     C11569   3.498   1.038   2.767 -0.9437 -0.4079  0.1520
  809MOL0     C11570   3.484   1.143   2.213  0.4946  0.4319  0.0725
  809MOL0     C11571   3.562   1.105   2.102  0.2666  0.3226  0.7759
  809MOL0     C11572   3.701   1.057   2.135 -0.4845  0.5318  1.2701
  809MOL0     H11573   3.657   1.053   1.559  0.6256  0.8642 -1.1456
  809MOL0     H11574   3.824   1.002   1.411 -0.7752 -1.6192  0.6160
  809MOL0     H11575   4.090   0.793   1.314  0.4626  1.0223  0.8913
  809MOL0     H11576   3.933   0.788   1.390  0.2306  1.1503 -0.1761
  809MOL0     H11577   4.167   0.696   1.554  2.3313  2.4664 -3.6968
  809MOL0     H11578   3.991   0.650   1.549  0.8066  0.0274  0.2196
  809MOL0     H11579   4.109   0.469   1.481  0.5990  0.9432 -0.1108
  809MOL0     H11580   4.051   0.526   1.325  2.1261  1.1814 -1.6043
  809MOL0     H11581   4.279   0.624   1.267  2.1986 -1.4113 -2.1744
  809MOL0     H11582   4.328   0.593   1.439 -0.9447 -5.2356  1.6862
  809MOL0     H11583   4.228   0.364   1.275 -0.9179  1.0840  0.8572
  809MOL0     H11584   4.332   0.367   1.413  0.5921  2.0595  0.6852
  809MOL0     H11585   4.401   0.462   1.125  0.3255 -0.7794 -0.3041
  809MOL0     H11586   4.517   0.464   1.259  1.3741 -0.1917 -3.3008
  809MOL0     H11587   4.382   0.227   1.128  1.7049 -1.4029 -1.1874
  809MOL0     H11588   4.460   0.222   1.289  0.6878 -0.4147 -0.5338
  809MOL0     H11589   4.572   0.146   1.070 -0.6077 -0.7951  1.6605
  809MOL0     H11590   4.618   0.314   1.058  0.4961  0.7269  0.5742
  809MOL0     H11591   4.701   0.405   1.341 -1.3884 -0.2484 -2.4665
  809MOL0     H11592   4.968   0.216   1.557 -3.8608 -2.7128  1.4340
  809MOL0     H11593   4.831   0.313   1.621  0.6875 -2.4403  0.8439
  809MOL0     H11594   5.026   0.383   1.411  2.4864  2.6494 -0.1798
  809MOL0     H11595   4.888   0.495   1.464 -0.9009 -0.7583 -0.6857
  809MOL0     H11596   5.000   0.498   1.683 -0.2873  1.8773 -0.6314
  809MOL0     H11597   5.121   0.391   1.612 -2.4935 -2.4130  0.3781
  809MOL0     H11598   5.194   0.568   1.460  1.2695 -0.6410  0.1986
  809MOL0     H11599   5.072   0.687   1.531  3.0079  1.0531 -0.5563
  809MOL0     H11600   5.359   0.734   1.828 -0.9230  0.1297  1.7454
  809MOL0     H11601   5.653   0.686   1.974 -0.5933  1.3467 -2.0668
  809MOL0     H11602   5.520   0.631   2.095 -2.3154 -0.0226  1.1985
  809MOL0     H11603   5.488   0.757   1.995  1.6537 -0.1509  3.2278
  809MOL0     H11604   5.698   0.061   1.762 -1.3774 -1.2986  1.5130
  809MOL0     H11605   5.910  -0.088   1.793  3.4862  0.2651  1.1924
  809MOL0     H11606   6.103  -0.195   1.853  0.3731  0.8637 -0.7754
  809MOL0     H11607   6.162  -0.045   1.917 -1.8477  1.3399  0.7292
  809MOL0     H11608   6.190  -0.328   2.046  0.3954 -0.8003  0.2095
  809MOL0     H11609   6.310  -0.251   1.938  0.4044  1.1628 -0.5311
  809MOL0     H11610   6.210  -0.152   2.214 -0.7325  2.8457 -0.4550
  809MOL0     H11611   6.310  -0.053   2.102  0.2854  0.1720 -2.0958
  809MOL0     H11612   6.486  -0.193   2.137  1.7762 -1.8499  1.5858
  809MOL0     H11613   6.387  -0.340   2.194 -1.0465 -0.1061  1.1583
  809MOL0     H11614   6.456  -0.079   2.356  1.3559 -0.3076  1.7179
  809MOL0     H11615   6.337  -0.201   2.395  1.6583 -1.0392  1.8800
  809MOL0     H11616   6.507  -0.373   2.387  0.6645 -0.0109 -1.0910
  809MOL0     H11617   6.540  -0.247   2.507  1.6726 -1.5660  0.2386
  809MOL0     H11618   6.706  -0.147   2.348  0.6888 -0.1437 -1.5792
  809MOL0     H11619   6.664  -0.273   2.239  1.2688 -2.5888  0.6521
  809MOL0     H11620   6.881  -0.359   2.375 -0.6402 -4.4248 -2.3635
  809MOL0     H11621   6.743  -0.455   2.373  0.2332 -1.3707  3.3597
  809MOL0     H11622   5.910   0.004   2.201  2.1630  1.1545 -1.0489
  809MOL0     H11623   5.747   0.186   2.176  0.5005 -0.0188 -0.1141
  809MOL0     H11624   5.506   0.277   1.720  2.4089 -0.2236  2.6627
  809MOL0     H11625   5.334   0.394   1.576  1.0859  2.6785 -1.4458
  809MOL0     H11626   4.103   0.953   1.744 -1.8843  0.5850  3.8751
  809MOL0     H11627   3.916   1.024   1.888 -0.0424  2.1499 -0.2322
  809MOL0     H11628   3.299   1.101   1.875 -1.9977 -0.1886  0.2231
  809MOL0     H11629   3.187   1.145   2.067  0.9485 -2.2993 -1.6268
  809MOL0     H11630   3.103   1.164   2.412  0.3603 -0.2210  0.8550
  809MOL0     H11631   3.094   1.109   2.252  1.3606 -1.6876 -1.1839
  809MOL0     H11632   3.237   0.902   2.326 -1.1089 -0.0070 -2.3172
  809MOL0     H11633   3.080   0.914   2.402  1.5973 -1.5216 -2.0434
  809MOL0     H11634   3.214   1.036   2.596  1.2895  1.2542 -1.3156
  809MOL0     H11635   3.251   0.857   2.563  1.7603 -1.7745 -2.3408
  809MOL0     H11636   3.427   1.090   2.473  2.5092 -0.5531 -0.9476
  809MOL0     H11637   3.461   0.912   2.465 -2.3499 -1.5431 -1.0536
  809MOL0     H11638   3.547   1.076   2.855 -0.1577  1.3959 -1.0081
  809MOL0     H11639   3.537   1.148   2.308  2.4076 -0.8436 -0.8572
  809MOL0     H11640   3.727   1.080   2.239  2.3060 -0.8017  0.9644
  809MOL0     H11641   3.703   0.948   2.127  0.0599  0.6270 -0.0473
  809MOL0     H11642   3.776   1.106   2.073 -1.3858  0.5112  0.1398
  810MOL0     O11643   3.350   7.114   4.443  0.1124 -0.7335 -1.1020
  810MOL0     C11644   3.296   7.065   4.541 -0.2255 -0.7397 -0.3115
  810MOL0     O11645   3.212   7.127   4.641  0.0329 -0.2065 -0.5025
  810MOL0     C11646   3.188   7.268   4.645 -0.2358 -0.2860  0.5299
  810MOL0     C11647   3.241   7.366   4.562  0.1208  0.8503 -0.4594
  810MOL0     C11648   3.202   7.492   4.577  0.5637 -0.3981  0.3157
  810MOL0     C11649   3.103   7.529   4.663 -0.5561 -0.2992  0.2930
  810MOL0     O11650   3.086   7.662   4.689  0.2512  0.6958  0.1003
  810MOL0     C11651   3.012   7.746   4.599  0.5085 -0.4133  0.9851
  810MOL0     C11652   2.856   7.745   4.624  0.1390 -1.0445 -0.3663
  810MOL0     C11653   2.830   7.793   4.775 -0.2229 -0.0237  0.7020
  810MOL0     C11654   2.677   7.791   4.791 -0.2052 -0.5873 -0.1590
  810MOL0     C11655   2.645   7.817   4.939 -0.7573  0.6232 -1.5798
  810MOL0     C11656   2.505   7.764   4.971  0.3500 -0.6181  0.7060
  810MOL0     C11657   2.460   7.802   5.119 -0.5403 -0.7391  0.5364
  810MOL0     C11658   2.315   7.771   5.131  0.2676 -0.1565 -0.2027
  810MOL0     N11659   2.261   7.824   5.257 -0.3633  0.2671 -0.1036
  810MOL0     C11660   2.276   7.788   5.384  0.5784  0.0526 -0.4799
  810MOL0     C11661   2.183   7.865   5.449 -0.0966  0.3297 -0.0161
  810MOL0     C11662   2.144   7.869   5.601 -0.0898  0.2314  0.4799
  810MOL0     C11663   2.252   7.925   5.687  0.1034  1.0255 -0.2917
  810MOL0     C11664   2.249   8.081   5.690  0.2350 -0.3634 -0.7573
  810MOL0     C11665   2.300   8.151   5.561 -0.5681  0.0896 -0.1483
  810MOL0     O11666   2.371   8.276   5.581 -0.2843 -0.1208 -0.1147
  810MOL0     C11667   2.396   8.358   5.468  0.8912 -0.3240 -0.0069
  810MOL0     C11668   2.444   8.488   5.494  0.6847  0.3906  0.2585
  810MOL0     C11669   2.469   8.579   5.393  0.9276  0.1034  1.3262
  810MOL0     C11670   2.513   8.717   5.447 -0.3098  0.8996  0.2449
  810MOL0     C11671   2.442   8.540   5.256 -0.1953  0.4497  0.2642
  810MOL0     C11672   2.470   8.624   5.138  0.8442  1.0208 -0.3478
  810MOL0     O11673   2.422   8.568   5.019 -0.4663 -0.0599 -0.6793
  810MOL0     C11674   2.508   8.588   4.916 -0.8158  1.5807  0.9934
  810MOL0     C11675   2.619   8.500   4.879 -0.6383 -0.5957  0.0361
  810MOL0     C11676   2.712   8.519   4.792 -0.0635  0.1806 -0.5303
  810MOL0     C11677   2.704   8.633   4.714 -0.3934 -0.4433  0.6903
  810MOL0     O11678   2.795   8.648   4.611 -0.1953 -0.0450 -0.5649
  810MOL0     C11679   2.763   8.613   4.475  0.5462  0.5667  0.4706
  810MOL0     C11680   2.878   8.680   4.386 -0.1974 -0.5242 -0.0899
  810MOL0     C11681   3.005   8.597   4.388  0.6077 -0.6725 -0.0625
  810MOL0     C11682   2.982   8.466   4.290 -0.0198  0.9262  0.2801
  810MOL0     C11683   3.100   8.378   4.281 -1.0944  1.0308 -0.5912
  810MOL0     C11684   3.212   8.413   4.197 -0.6865 -0.2629  1.2029
  810MOL0     C11685   3.187   8.384   4.045  0.2039 -0.3263  1.8014
  810MOL0     C11686   3.257   8.260   4.009  0.5431 -0.7804  0.1639
  810MOL0    Cl11687   3.264   8.251   3.833  0.1040  0.1087 -0.4567
  810MOL0     C11688   2.595   8.727   4.730 -1.2724  0.1817  0.3217
  810MOL0     C11689   2.502   8.704   4.837  0.2441 -0.2399  0.8102
  810MOL0     O11690   2.532   8.729   5.154 -0.2509  0.2466  0.2597
  810MOL0     C11691   2.403   8.404   5.238 -0.0232  0.2716  0.1302
  810MOL0     C11692   2.381   8.312   5.339 -0.0000  0.2221 -0.1772
  810MOL0     N11693   2.126   7.952   5.362  0.8404 -0.2959 -0.4270
  810MOL0     N11694   2.170   7.927   5.245 -0.5055  0.8828  0.0532
  810MOL0     C11695   3.057   7.438   4.757 -0.2321  0.1027  0.4048
  810MOL0     C11696   3.098   7.302   4.743 -0.3857  0.2865  0.2861
  810MOL0     C11697   3.323   6.926   4.567  0.1720  0.5406  0.3631
  810MOL0     C11698   3.402   6.903   4.675 -0.3977 -0.7215 -0.0973
  810MOL0     C11699   3.424   6.770   4.712 -0.5306  0.1170 -0.3943
  810MOL0     C11700   3.368   6.664   4.647  0.3844  0.5646 -0.6615
  810MOL0     O11701   3.388   6.535   4.702 -0.6387  0.5734 -0.5151
  810MOL0     C11702   3.276   6.437   4.712  0.6414  0.8024 -0.1726
  810MOL0     C11703   3.319   6.302   4.777  0.5609 -0.3670 -0.8081
  810MOL0     C11704   3.375   6.314   4.933  0.8588 -0.4942 -0.2679
  810MOL0     C11705   3.308   6.416   5.024  0.1921 -0.5861 -0.0795
  810MOL0     C11706   3.159   6.419   5.033 -0.0367  0.2018 -0.5652
  810MOL0     C11707   3.043   6.432   5.049 -0.2387  0.0938 -0.8478
  810MOL0     C11708   3.283   6.691   4.542 -0.1459  0.2714 -0.3809
  810MOL0     C11709   3.259   6.822   4.495  0.5134 -0.1470  0.0187
  810MOL0     C11710   3.182   6.850   4.372 -0.6854 -0.0430 -0.4350
  810MOL0     H11711   3.329   7.361   4.498  1.7516 -2.4745  1.7634
  810MOL0     H11712   3.240   7.572   4.512 -0.4527  1.4443  1.8917
  810MOL0     H11713   3.027   7.721   4.493 -2.8607  1.6583 -0.1245
  810MOL0     H11714   3.047   7.849   4.597  1.5148 -0.6352 -3.4114
  810MOL0     H11715   2.798   7.795   4.545 -1.2348  0.7335  1.6681
  810MOL0     H11716   2.813   7.644   4.628 -1.0207 -0.5657 -0.1423
  810MOL0     H11717   2.883   7.722   4.840  1.8139 -1.9267 -2.7198
  810MOL0     H11718   2.863   7.893   4.804 -0.2534  0.3967 -0.6182
  810MOL0     H11719   2.619   7.856   4.725  2.0466  0.3521 -1.3206
  810MOL0     H11720   2.663   7.685   4.769 -0.2730 -0.6004 -0.0538
  810MOL0     H11721   2.663   7.922   4.965  0.1935  0.4386 -1.4532
  810MOL0     H11722   2.718   7.756   4.994  1.0741  1.7988 -2.5676
  810MOL0     H11723   2.431   7.796   4.896 -0.9706 -1.6955  1.4956
  810MOL0     H11724   2.505   7.655   4.962 -1.6050 -0.8878  2.8433
  810MOL0     H11725   2.475   7.909   5.136  1.1644 -1.1668  1.9961
  810MOL0     H11726   2.513   7.751   5.200 -3.1697  1.4993  3.9672
  810MOL0     H11727   2.272   7.812   5.039  2.5261 -1.8552 -2.1372
  810MOL0     H11728   2.307   7.663   5.143  2.7807 -0.2969  0.9026
  810MOL0     H11729   2.331   7.703   5.422  1.7285  1.8017  2.0081
  810MOL0     H11730   2.111   7.769   5.631 -0.7286  0.4340  0.4554
  810MOL0     H11731   2.055   7.931   5.606 -2.1395 -2.5129  0.2725
  810MOL0     H11732   2.221   7.897   5.788  1.2438  1.0302  0.0671
  810MOL0     H11733   2.350   7.884   5.664  0.5533  2.6004 -1.3756
  810MOL0     H11734   2.150   8.110   5.725  0.6666 -2.0663  2.1873
  810MOL0     H11735   2.310   8.118   5.773 -0.9397  0.6678 -0.3210
  810MOL0     H11736   2.364   8.079   5.509 -0.2630  0.5318 -0.3998
  810MOL0     H11737   2.219   8.167   5.488  0.6691 -1.9287 -2.1052
  810MOL0     H11738   2.458   8.507   5.600  2.5040 -0.5305  0.2359
  810MOL0     H11739   2.622   8.725   5.451 -0.3732  1.7316  0.6251
  810MOL0     H11740   2.479   8.732   5.550 -4.3569  2.6388 -1.1207
  810MOL0     H11741   2.466   8.787   5.377 -3.7228 -0.8360  0.5798
  810MOL0     H11742   2.631   8.402   4.924  1.6094  0.2708  1.4991
  810MOL0     H11743   2.782   8.438   4.776 -0.4018 -0.3272  0.4800
  810MOL0     H11744   2.760   8.505   4.456  0.2567  0.2435  2.1673
  810MOL0     H11745   2.661   8.642   4.449 -0.7750 -4.7626 -1.7177
  810MOL0     H11746   2.842   8.698   4.284  1.2965 -4.2299 -1.4399
  810MOL0     H11747   2.909   8.774   4.433 -1.9015 -0.5510  1.2195
  810MOL0     H11748   3.055   8.561   4.479 -1.7181 -0.9370  1.2062
  810MOL0     H11749   3.071   8.668   4.337 -4.1659  4.2555 -0.2859
  810MOL0     H11750   2.955   8.493   4.188 -1.0942 -3.5670 -0.8264
  810MOL0     H11751   2.893   8.413   4.325  0.0169 -0.1380 -1.1544
  810MOL0     H11752   3.142   8.385   4.382 -1.3035  0.6669 -0.4761
  810MOL0     H11753   3.063   8.276   4.266 -1.3700  0.8591  1.0452
  810MOL0     H11754   3.303   8.363   4.229 -0.4902 -1.0448 -0.4432
  810MOL0     H11755   3.225   8.520   4.213 -0.0302 -0.5398  2.6809
  810MOL0     H11756   3.228   8.472   3.994 -1.8777 -0.1500  0.2654
  810MOL0     H11757   3.083   8.377   4.013  0.9556  0.7136 -1.1786
  810MOL0     H11758   3.209   8.170   4.049 -1.5745 -0.3910 -1.3270
  810MOL0     H11759   3.362   8.254   4.040 -0.0014  1.4048  2.8654
  810MOL0     H11760   2.586   8.814   4.666 -3.7121  2.4373  3.4163
  810MOL0     H11761   2.427   8.778   4.862 -1.3609 -2.0266  1.5806
  810MOL0     H11762   2.378   8.350   5.147 -2.7219 -1.9140  2.0269
  810MOL0     H11763   2.334   8.216   5.317 -1.1218  1.5280 -4.3201
  810MOL0     H11764   2.983   7.458   4.835  1.5254  0.4319  2.0649
  810MOL0     H11765   3.050   7.227   4.805 -4.5238 -0.7617 -3.6605
  810MOL0     H11766   3.457   6.979   4.730 -1.3901  0.6131 -0.8934
  810MOL0     H11767   3.487   6.744   4.797  2.0083 -1.5570 -2.6028
  810MOL0     H11768   3.200   6.491   4.769  1.0364  1.2805 -0.0916
  810MOL0     H11769   3.229   6.413   4.616  0.1325 -0.3924  0.3611
  810MOL0     H11770   3.405   6.266   4.720 -0.6666  0.2488 -3.1950
  810MOL0     H11771   3.247   6.221   4.776 -0.0593  0.1780 -0.9167
  810MOL0     H11772   3.367   6.216   4.980  0.2331  0.1841  1.0958
  810MOL0     H11773   3.479   6.346   4.917 -0.1222  2.2785 -1.6938
  810MOL0     H11774   3.337   6.516   4.991 -0.4658  0.6376  2.7559
  810MOL0     H11775   3.338   6.407   5.129  0.3771  0.0469 -0.0762
  810MOL0     H11776   2.936   6.439   5.059 -0.6483 -3.4789 -1.3098
  810MOL0     H11777   3.227   6.620   4.483  1.3878  0.8550 -2.6653
  810MOL0     H11778   3.158   6.760   4.314  2.0339 -1.1059 -0.0557
  810MOL0     H11779   3.090   6.902   4.399  0.0844  0.7641  0.7561
  810MOL0     H11780   3.245   6.910   4.306  4.2784 -0.6940  3.0845
  811MOL0     O11781  10.268   8.471   4.723  0.2619 -0.3414 -0.7379
  811MOL0     C11782  10.246   8.394   4.823  0.0313  0.2362 -0.2341
  811MOL0     O11783  10.318   8.286   4.861 -0.2884  0.1215  0.0526
  811MOL0     C11784  10.418   8.243   4.777  0.7171  0.3241 -0.1020
  811MOL0     C11785  10.384   8.216   4.641  0.4122 -0.6952  0.0538
  811MOL0     C11786  10.460   8.129   4.563 -1.2633 -0.3068  0.6283
  811MOL0     C11787  10.577   8.079   4.617  0.1441  0.7406 -0.4441
  811MOL0     O11788  10.643   7.991   4.528 -0.4247 -0.5968  0.0940
  811MOL0     C11789  10.771   7.930   4.544 -0.0401  0.4591  0.9920
  811MOL0     C11790  10.762   7.811   4.632 -0.8895  0.1845  0.7789
  811MOL0     C11791  10.905   7.793   4.678 -1.6082 -0.0282 -0.0799
  811MOL0     C11792  10.915   7.679   4.771  0.2495 -0.4299 -0.6304
  811MOL0     C11793  11.048   7.599   4.740  0.4853 -0.1999  0.5080
  811MOL0     C11794  11.173   7.649   4.815 -0.2967 -0.7320 -0.7933
  811MOL0     C11795  11.183   7.585   4.952  1.2257 -0.1739 -0.2750
  811MOL0     C11796  11.215   7.430   4.934 -0.4957  0.3516 -0.3851
  811MOL0     N11797  11.356   7.409   4.968  0.2407 -0.0828 -0.7829
  811MOL0     C11798  11.413   7.406   5.096  0.5956  0.7252 -0.8859
  811MOL0     C11799  11.524   7.326   5.087  0.0625  0.3941  0.2705
  811MOL0     C11800  11.622   7.293   5.202  0.3399 -1.0842  0.9582
  811MOL0     C11801  11.770   7.281   5.150 -0.0209 -0.0326 -0.0519
  811MOL0     C11802  11.867   7.337   5.264 -0.0546 -0.1049 -0.2984
  811MOL0     C11803  11.875   7.482   5.259  0.1112  0.2114  0.6522
  811MOL0     O11804  11.933   7.535   5.136  0.0461  0.2155  0.2977
  811MOL0     C11805  11.870   7.596   5.033  0.5258  1.3939  0.1519
  811MOL0     C11806  11.946   7.656   4.928 -0.0043 -0.3956 -0.1291
  811MOL0     C11807  11.874   7.704   4.815 -0.6589  0.2214  0.3412
  811MOL0     C11808  11.966   7.779   4.713 -0.1616 -0.0131  0.4529
  811MOL0     C11809  11.736   7.722   4.814 -0.4967  1.1284 -1.5429
  811MOL0     C11810  11.652   7.794   4.717 -0.7738  0.7325  0.2221
  811MOL0     O11811  11.522   7.817   4.754 -0.4882 -0.1003 -0.1136
  811MOL0     C11812  11.429   7.871   4.664 -0.0929  0.0055  0.7060
  811MOL0     C11813  11.410   7.829   4.527 -0.1687  0.6446  1.1607
  811MOL0     C11814  11.310   7.903   4.461  0.1338 -0.2448 -0.2433
  811MOL0     C11815  11.237   8.009   4.514  0.6770  0.7400 -0.0540
  811MOL0     O11816  11.150   8.065   4.423  0.4932  0.0239 -0.5385
  811MOL0     C11817  11.106   8.207   4.448 -0.0934 -0.2517  0.0509
  811MOL0     C11818  11.040   8.267   4.328 -0.6044  0.1896  0.2217
  811MOL0     C11819  11.131   8.295   4.209  0.4071 -0.3326 -0.5918
  811MOL0     C11820  11.067   8.258   4.068  0.5745  0.7758  0.9222
  811MOL0     C11821  11.054   8.109   4.038 -0.0618 -0.4431 -0.6390
  811MOL0     C11822  10.984   8.066   3.908  0.8348 -0.3484  0.0664
  811MOL0     C11823  11.018   7.914   3.880 -0.4221  0.2353 -0.0183
  811MOL0     C11824  11.022   7.897   3.723 -0.6219 -0.4361 -0.2496
  811MOL0    Cl11825  11.174   7.976   3.673 -0.3213 -0.2220 -0.2295
  811MOL0     C11826  11.251   8.035   4.646 -0.3030 -0.5533 -0.7005
  811MOL0     C11827  11.358   7.980   4.720  0.0903 -0.1331 -0.0126
  811MOL0     O11828  11.698   7.835   4.611  0.1296  0.0869 -0.3691
  811MOL0     C11829  11.669   7.654   4.914  0.1340 -0.1881 -0.5031
  811MOL0     C11830  11.725   7.587   5.018 -0.9665  0.7008 -0.8624
  811MOL0     N11831  11.531   7.297   4.957 -0.5322  0.4491 -0.0153
  811MOL0     N11832  11.441   7.338   4.886  0.7588  0.0762  0.6964
  811MOL0     C11833  10.613   8.108   4.749 -0.2948 -1.3072 -0.2552
  811MOL0     C11834  10.534   8.199   4.824 -0.0757  0.2004 -0.4561
  811MOL0     C11835  10.129   8.432   4.910  0.2363  0.0955 -1.6190
  811MOL0     C11836  10.100   8.568   4.918 -0.0886 -0.5766  0.0500
  811MOL0     C11837   9.990   8.623   4.979  0.0976 -0.2854  0.9683
  811MOL0     C11838   9.894   8.540   5.053 -0.1815 -0.1525  0.2466
  811MOL0     O11839   9.782   8.594   5.118 -0.0413 -0.2531 -0.3680
  811MOL0     C11840   9.716   8.513   5.222  0.6507  0.3576 -0.3664
  811MOL0     C11841   9.623   8.610   5.296  0.0651  0.1229 -0.1281
  811MOL0     C11842   9.476   8.560   5.295 -0.2225 -1.0462  0.1009
  811MOL0     C11843   9.386   8.687   5.333 -1.3932  0.2588  0.4724
  811MOL0     C11844   9.377   8.785   5.217  0.1424 -0.6530 -0.1624
  811MOL0     C11845   9.379   8.879   5.141  0.2861  0.5225  0.7301
  811MOL0     C11846   9.932   8.399   5.052 -0.0017  0.0693  0.6267
  811MOL0     C11847  10.036   8.342   4.973  0.2476 -0.3856  0.2818
  811MOL0     C11848  10.052   8.196   4.980  0.1166 -0.5285  0.1397
  811MOL0     H11849  10.287   8.246   4.602 -0.0915  1.7198  2.7934
  811MOL0     H11850  10.440   8.114   4.458 -0.1991  3.9097 -0.3897
  811MOL0     H11851  10.850   8.001   4.570  1.7082 -1.6607  1.8464
  811MOL0     H11852  10.806   7.894   4.447 -0.0183 -0.2496  1.2516
  811MOL0     H11853  10.698   7.825   4.720 -3.4011 -2.7445 -0.3893
  811MOL0     H11854  10.716   7.724   4.583 -0.8214  1.9525 -2.7413
  811MOL0     H11855  10.959   7.762   4.588 -0.2731 -3.0857  1.6244
  811MOL0     H11856  10.942   7.876   4.739 -0.9171 -0.8384  0.6390
  811MOL0     H11857  10.910   7.714   4.875  1.8498 -0.7599 -0.4082
  811MOL0     H11858  10.829   7.617   4.743 -1.2308  2.7881 -4.0744
  811MOL0     H11859  11.057   7.604   4.631 -1.4870 -0.4367  0.2931
  811MOL0     H11860  11.022   7.495   4.762 -0.8492  0.3528  1.7651
  811MOL0     H11861  11.253   7.627   4.744 -2.0087  0.5577 -3.2856
  811MOL0     H11862  11.164   7.758   4.823  1.4780 -0.6154 -0.0137
  811MOL0     H11863  11.087   7.604   5.002  0.0498  2.8924 -3.3320
  811MOL0     H11864  11.253   7.630   5.023 -0.1764 -1.5645  2.1300
  811MOL0     H11865  11.155   7.368   5.002 -1.6031 -0.2014 -1.8149
  811MOL0     H11866  11.189   7.398   4.833 -0.7187 -0.5250 -0.0662
  811MOL0     H11867  11.370   7.456   5.183 -0.1498 -0.1882 -0.7171
  811MOL0     H11868  11.588   7.197   5.242  1.0243 -1.2741  1.0868
  811MOL0     H11869  11.620   7.367   5.283 -1.5178  1.2856 -1.0856
  811MOL0     H11870  11.801   7.178   5.131 -0.4594  0.2452 -2.5949
  811MOL0     H11871  11.784   7.328   5.052 -0.8508  0.0278 -0.1491
  811MOL0     H11872  11.837   7.312   5.366  1.0801  1.0388  0.3423
  811MOL0     H11873  11.967   7.296   5.251 -0.4057 -3.2639  4.4750
  811MOL0     H11874  11.773   7.523   5.268 -1.1983 -1.3036 -4.2128
  811MOL0     H11875  11.932   7.522   5.343  1.6045 -0.2834 -0.0846
  811MOL0     H11876  12.054   7.656   4.940 -0.0710  1.2106  0.7537
  811MOL0     H11877  11.948   7.746   4.610 -1.1698  0.5846  0.4202
  811MOL0     H11878  12.072   7.760   4.732 -0.5147  0.6527  3.5492
  811MOL0     H11879  11.940   7.886   4.708 -3.3286 -0.7363 -2.1890
  811MOL0     H11880  11.467   7.755   4.472  0.2530  1.5709  0.3278
  811MOL0     H11881  11.289   7.869   4.360 -0.6272 -0.8508  0.1150
  811MOL0     H11882  11.032   8.205   4.528 -0.9970 -2.2567 -0.7727
  811MOL0     H11883  11.198   8.266   4.459 -0.7570  0.8229  0.0147
  811MOL0     H11884  10.946   8.218   4.301  1.0329 -0.8573 -4.6732
  811MOL0     H11885  11.011   8.367   4.359 -0.3672  1.3265 -2.8097
  811MOL0     H11886  11.231   8.253   4.215  0.7447  0.6959  2.4809
  811MOL0     H11887  11.150   8.402   4.200  3.5723 -0.6814  0.6553
  811MOL0     H11888  11.138   8.303   3.998 -1.0882  0.8610 -0.7848
  811MOL0     H11889  10.971   8.306   4.049  0.1039  0.1209  1.5834
  811MOL0     H11890  11.152   8.061   4.033 -0.2233 -0.7073 -1.4069
  811MOL0     H11891  11.002   8.062   4.122 -0.8502  1.7284  0.1506
  811MOL0     H11892  11.033   8.137   3.841  1.7527 -0.3718  0.6945
  811MOL0     H11893  10.877   8.084   3.906  0.4289 -2.5076 -1.5733
  811MOL0     H11894  10.938   7.851   3.920 -1.9958  1.0373 -1.7824
  811MOL0     H11895  11.117   7.889   3.920 -0.4142  0.0220 -0.1741
  811MOL0     H11896  10.942   7.959   3.681  0.2812  1.4049  0.6036
  811MOL0     H11897  11.013   7.793   3.693  2.7123 -0.7480 -0.5679
  811MOL0     H11898  11.192   8.118   4.683  2.3897 -0.0713  3.0330
  811MOL0     H11899  11.371   8.005   4.825  0.3513  2.5967 -0.6139
  811MOL0     H11900  11.561   7.655   4.912 -0.1029  3.8112  2.1288
  811MOL0     H11901  11.665   7.545   5.098  0.9181 -0.9003 -0.2041
  811MOL0     H11902  10.699   8.058   4.793  0.1170  2.4947  4.0386
  811MOL0     H11903  10.552   8.241   4.922 -0.4935  1.6774 -0.9871
  811MOL0     H11904  10.170   8.639   4.875  0.4381 -2.0454 -1.6796
  811MOL0     H11905   9.963   8.728   4.977 -2.6288 -0.9265  0.4107
  811MOL0     H11906   9.660   8.425   5.192 -0.8773  2.0667 -2.9464
  811MOL0     H11907   9.794   8.488   5.295 -0.7756 -0.9577  0.7684
  811MOL0     H11908   9.627   8.712   5.258 -0.3666 -0.1254 -0.8571
  811MOL0     H11909   9.648   8.597   5.401  0.3102 -0.8120 -0.2882
  811MOL0     H11910   9.460   8.526   5.192  3.4404 -0.6622 -0.7462
  811MOL0     H11911   9.451   8.480   5.365  3.0630 -1.0247  1.4913
  811MOL0     H11912   9.432   8.745   5.413 -0.6984  0.8369 -0.3268
  811MOL0     H11913   9.292   8.651   5.375 -0.9992 -0.5816  0.6611
  811MOL0     H11914   9.389   8.967   5.081 -0.0819  1.2105  1.6483
  811MOL0     H11915   9.854   8.341   5.100 -0.4194 -0.7911 -1.0394
  811MOL0     H11916  10.120   8.166   4.899  1.1184 -0.5383  0.9666
  811MOL0     H11917  10.111   8.170   5.068  0.7401  2.1392  0.5731
  811MOL0     H11918   9.962   8.134   4.978  0.6824 -1.5642  2.7592
  812MOL0     O11919   2.574   1.629   2.861 -0.3496 -0.4690 -0.1194
  812MOL0     C11920   2.630   1.595   2.759 -0.3785 -0.6344  0.6334
  812MOL0     O11921   2.583   1.505   2.673  0.5018 -0.8648  0.2098
  812MOL0     C11922   2.477   1.427   2.718 -0.6483 -0.1821  0.4576
  812MOL0     C11923   2.359   1.424   2.642 -0.1317 -0.4236 -0.1652
  812MOL0     C11924   2.264   1.323   2.663  0.0355  0.4797  0.0618
  812MOL0     C11925   2.276   1.239   2.774  1.3685  1.0253 -0.5448
  812MOL0     O11926   2.188   1.138   2.789  0.5793  0.9322 -0.3462
  812MOL0     C11927   2.253   1.010   2.795 -0.1705 -0.3662  0.9189
  812MOL0     C11928   2.270   0.945   2.653 -0.0742 -0.2883 -0.2131
  812MOL0     C11929   2.142   0.917   2.568  0.1368  0.9875  0.0006
  812MOL0     C11930   2.062   0.797   2.621  0.9488 -0.7509  0.7315
  812MOL0     C11931   1.915   0.787   2.581 -0.5633  0.1822 -0.5296
  812MOL0     C11932   1.900   0.775   2.433  0.2134 -0.8709 -0.4286
  812MOL0     C11933   1.758   0.770   2.386  0.3173  0.8173 -0.4368
  812MOL0     C11934   1.753   0.765   2.235  0.9865  0.1300 -0.4267
  812MOL0     N11935   1.817   0.648   2.178  0.2322  1.1681 -0.0569
  812MOL0     C11936   1.767   0.521   2.185  0.1217 -0.4887  0.2304
  812MOL0     C11937   1.847   0.441   2.106 -0.0490 -0.3290 -0.0825
  812MOL0     C11938   1.842   0.288   2.091 -0.8120 -0.0281  0.5318
  812MOL0     C11939   1.950   0.232   1.989  0.1828  0.3883 -0.8203
  812MOL0     C11940   1.919   0.232   1.837 -0.3752  0.7615  0.2200
  812MOL0     C11941   1.837   0.112   1.785  0.4329 -0.0955 -0.9014
  812MOL0     O11942   1.782   0.157   1.655 -0.2588 -0.6505  0.3400
  812MOL0     C11943   1.785   0.066   1.551 -0.1102 -0.0675 -0.0292
  812MOL0     C11944   1.799   0.108   1.419 -0.6043 -0.0005 -0.4578
  812MOL0     C11945   1.814   0.006   1.321  0.5745  0.2949  0.0524
  812MOL0     C11946   1.840   0.068   1.189 -0.7328 -0.3062  0.8095
  812MOL0     C11947   1.815  -0.138   1.353  1.3902  0.9137  1.4753
  812MOL0     C11948   1.833  -0.243   1.244  0.4500  0.5848 -0.5475
  812MOL0     O11949   1.834  -0.192   1.113 -0.4211  0.4574 -0.5999
  812MOL0     C11950   1.776  -0.264   1.014  0.2815 -0.1912  0.1040
  812MOL0     C11951   1.673  -0.208   0.928 -0.6817  0.0645  0.4087
  812MOL0     C11952   1.636  -0.279   0.817 -0.1936 -0.4366  0.6420
  812MOL0     C11953   1.707  -0.397   0.779 -0.7868 -0.1411  0.0908
  812MOL0     O11954   1.670  -0.457   0.662 -0.6884  0.7302 -0.2369
  812MOL0     C11955   1.778  -0.490   0.575 -0.2788  0.7928  0.2391
  812MOL0     C11956   1.830  -0.368   0.492  0.4711  0.3090 -0.5973
  812MOL0     C11957   1.751  -0.349   0.363  1.1692  0.1363 -0.0561
  812MOL0     C11958   1.798  -0.434   0.257  0.5958 -0.0306 -0.0776
  812MOL0     C11959   1.753  -0.398   0.114  0.8209 -0.5605 -0.5134
  812MOL0     C11960   1.601  -0.403   0.091 -0.5436 -0.2929 -0.6628
  812MOL0     C11961   1.568  -0.360  -0.052 -0.5032 -0.0054  0.3690
  812MOL0     C11962   1.420  -0.393  -0.081 -0.0183  0.4241  0.4251
  812MOL0    Cl11963   1.371  -0.347  -0.245 -0.2799 -0.4384  0.0898
  812MOL0     C11964   1.801  -0.455   0.873  1.1272  0.2364  1.2350
  812MOL0     C11965   1.832  -0.390   0.981 -0.1782  0.4839  0.3063
  812MOL0     O11966   1.829  -0.359   1.275 -0.3100  0.1943 -0.4076
  812MOL0     C11967   1.789  -0.167   1.482  0.5072  0.4293 -1.1297
  812MOL0     C11968   1.768  -0.070   1.583 -0.9076 -0.2869  0.4575
  812MOL0     N11969   1.944   0.530   2.060 -0.9176 -0.0161  0.2510
  812MOL0     N11970   1.919   0.650   2.106 -0.6976  0.4776  0.2632
  812MOL0     C11971   2.388   1.251   2.855  0.1778 -0.1610 -0.0035
  812MOL0     C11972   2.489   1.344   2.821 -0.9515  0.1037  1.0674
  812MOL0     C11973   2.759   1.657   2.727  0.3763  0.2272  0.6991
  812MOL0     C11974   2.787   1.684   2.590 -0.0948 -0.5155 -0.3529
  812MOL0     C11975   2.900   1.748   2.551  1.0763 -0.1770 -0.0602
  812MOL0     C11976   2.989   1.798   2.645 -0.5709 -0.0224  0.2301
  812MOL0     O11977   3.099   1.871   2.602 -0.3903 -0.5850  0.0824
  812MOL0     C11978   3.120   1.938   2.474 -0.4498  0.2495  0.2101
  812MOL0     C11979   3.033   2.061   2.454 -0.0065  0.4781 -0.0820
  812MOL0     C11980   3.075   2.179   2.549 -0.0149  1.0963 -0.0555
  812MOL0     C11981   3.218   2.175   2.611 -0.8163  0.0828 -0.0679
  812MOL0     C11982   3.240   2.299   2.681  0.1686  0.2305 -0.3650
  812MOL0     C11983   3.261   2.399   2.740  0.3659  0.0168  1.1455
  812MOL0     C11984   2.959   1.777   2.777 -0.2945  0.0937  0.5461
  812MOL0     C11985   2.847   1.701   2.825  0.2690 -0.0225 -0.6924
  812MOL0     C11986   2.839   1.676   2.978 -0.1390  0.3481 -0.0536
  812MOL0     H11987   2.347   1.493   2.559  2.0822  0.6333  0.3043
  812MOL0     H11988   2.178   1.306   2.599  0.5132  0.2256 -0.5256
  812MOL0     H11989   2.188   0.941   2.850 -2.4185  1.8086  1.2169
  812MOL0     H11990   2.352   1.020   2.839 -0.3252  1.2816  0.9383
  812MOL0     H11991   2.321   1.022   2.594 -3.1230  0.5118 -1.9976
  812MOL0     H11992   2.330   0.854   2.657  4.9294  2.4687 -2.5989
  812MOL0     H11993   2.087   1.011   2.557 -1.0763  0.2710 -0.2982
  812MOL0     H11994   2.168   0.881   2.468 -1.0426 -2.1893  0.7043
  812MOL0     H11995   2.118   0.705   2.600 -1.9416 -2.2021 -1.3832
  812MOL0     H11996   2.054   0.813   2.729  1.3667  0.4364  0.6005
  812MOL0     H11997   1.875   0.884   2.614 -0.7406  0.4886 -1.6074
  812MOL0     H11998   1.857   0.711   2.634 -0.9597  0.2454 -0.8659
  812MOL0     H11999   1.963   0.849   2.383  1.1404 -0.2438  1.5585
  812MOL0     H12000   1.943   0.676   2.414  1.7996  0.2064 -3.0060
  812MOL0     H12001   1.717   0.866   2.420 -0.2489  1.1198 -1.8822
  812MOL0     H12002   1.700   0.682   2.416  3.9127 -2.2695 -1.8883
  812MOL0     H12003   1.650   0.755   2.199  0.2421  1.8023  1.0786
  812MOL0     H12004   1.807   0.852   2.195 -2.2969  1.4605 -2.4275
  812MOL0     H12005   1.680   0.502   2.247 -0.5563  2.0192  0.1557
  812MOL0     H12006   1.741   0.268   2.054  0.3716 -1.9151 -1.9698
  812MOL0     H12007   1.858   0.248   2.192 -1.0703  0.2853  0.7003
  812MOL0     H12008   2.044   0.282   2.011 -0.1897  0.3260  1.0445
  812MOL0     H12009   1.958   0.125   2.012 -0.2882  0.1045 -1.9163
  812MOL0     H12010   1.872   0.329   1.816 -1.7025 -0.0087 -0.5206
  812MOL0     H12011   2.016   0.227   1.785 -1.6818 -1.1924 -2.2930
  812MOL0     H12012   1.913   0.037   1.764 -0.7710 -1.3444 -0.9926
  812MOL0     H12013   1.756   0.087   1.855 -0.1199  1.4759 -0.9366
  812MOL0     H12014   1.809   0.212   1.389 -0.7576  0.9155  2.3602
  812MOL0     H12015   1.864   0.174   1.186  0.6958 -0.5585  2.0960
  812MOL0     H12016   1.759   0.060   1.116  1.2220 -1.4868 -1.3567
  812MOL0     H12017   1.937   0.025   1.162  0.8322  1.6264  2.9517
  812MOL0     H12018   1.645  -0.103   0.935  0.7342  0.5818 -1.1098
  812MOL0     H12019   1.571  -0.231   0.744 -3.2582 -2.8906  1.4935
  812MOL0     H12020   1.868  -0.529   0.625 -1.3042 -1.5400  0.3902
  812MOL0     H12021   1.750  -0.569   0.505  1.4725  0.2758  0.0702
  812MOL0     H12022   1.829  -0.273   0.546 -0.9920  0.2895 -0.5475
  812MOL0     H12023   1.934  -0.392   0.467  0.2224 -1.3643 -0.1396
  812MOL0     H12024   1.752  -0.244   0.332  2.0283  0.5909  1.4061
  812MOL0     H12025   1.645  -0.366   0.386  1.3073  1.2376  1.6183
  812MOL0     H12026   1.778  -0.537   0.289  1.1368 -0.3174 -0.6447
  812MOL0     H12027   1.904  -0.412   0.251  0.1565  3.0982  1.7973
  812MOL0     H12028   1.798  -0.299   0.106  0.5927 -0.2113  1.6776
  812MOL0     H12029   1.795  -0.468   0.042 -3.2557 -1.2443 -2.5420
  812MOL0     H12030   1.554  -0.331   0.159 -0.7087  1.4033 -2.4543
  812MOL0     H12031   1.558  -0.502   0.108  1.8627 -1.4976 -1.0643
  812MOL0     H12032   1.622  -0.432  -0.116 -0.0352  1.0822 -0.4927
  812MOL0     H12033   1.591  -0.255  -0.068  1.8652  0.4855  5.3576
  812MOL0     H12034   1.361  -0.333  -0.011  0.3112  0.4452  0.6849
  812MOL0     H12035   1.395  -0.499  -0.075  2.5067 -0.1694  1.3987
  812MOL0     H12036   1.873  -0.531   0.845  0.2033  0.5283 -2.4066
  812MOL0     H12037   1.921  -0.419   1.034  0.8523  2.4952 -0.2342
  812MOL0     H12038   1.768  -0.272   1.499  1.2113  0.7300  2.2323
  812MOL0     H12039   1.743  -0.107   1.682 -0.1667 -0.1516  0.7005
  812MOL0     H12040   2.395   1.185   2.941 -1.4255 -0.4567 -0.0656
  812MOL0     H12041   2.576   1.332   2.885 -2.0571  0.5632  2.7504
  812MOL0     H12042   2.733   1.649   2.503  2.2228 -2.7004 -1.0221
  812MOL0     H12043   2.900   1.780   2.447 -2.7699 -0.7087 -0.3991
  812MOL0     H12044   3.226   1.967   2.467 -0.4872 -0.0334 -2.6689
  812MOL0     H12045   3.108   1.861   2.398  0.9629  1.5019 -1.3841
  812MOL0     H12046   2.926   2.038   2.459 -0.1233  1.0289  0.0713
  812MOL0     H12047   3.041   2.088   2.348 -0.9828 -3.2005 -1.2463
  812MOL0     H12048   3.066   2.266   2.484  0.2011  0.5246 -0.8678
  812MOL0     H12049   3.004   2.187   2.631 -0.9126 -0.4275 -0.6417
  812MOL0     H12050   3.292   2.160   2.532  0.1421 -0.5651  0.9134
  812MOL0     H12051   3.241   2.101   2.689  3.4116 -0.1371 -1.2813
  812MOL0     H12052   3.293   2.479   2.803  2.4076 -0.4795  0.7959
  812MOL0     H12053   3.028   1.806   2.856 -0.7644  0.1597  0.9341
  812MOL0     H12054   2.932   1.702   3.028 -1.3288 -1.5616  3.4802
  812MOL0     H12055   2.767   1.748   3.019  0.2149  0.4088  0.4617
  812MOL0     H12056   2.806   1.575   3.004  1.1434  0.0322  0.4069
  813MOL0     O12057   2.780   2.610   1.552 -0.0246  0.4486 -0.0008
  813MOL0     C12058   2.772   2.720   1.490  1.3078  0.0595 -1.7571
  813MOL0     O12059   2.704   2.726   1.376  0.0782 -0.3777 -0.9780
  813MOL0     C12060   2.644   2.618   1.319 -0.5487  0.5320  0.0025
  813MOL0     C12061   2.700   2.513   1.239  0.3078  0.7484 -1.2795
  813MOL0     C12062   2.614   2.413   1.194  0.1832 -0.3125 -0.2359
  813MOL0     C12063   2.469   2.412   1.216 -0.1329 -0.0709  0.7416
  813MOL0     O12064   2.404   2.298   1.158 -0.2775 -0.3450 -0.1987
  813MOL0     C12065   2.268   2.311   1.152 -0.1374 -1.5668  0.0656
  813MOL0     C12066   2.201   2.177   1.110  0.2178 -0.1426  0.0988
  813MOL0     C12067   2.048   2.181   1.117  1.2484  0.4087  1.3840
  813MOL0     C12068   1.999   2.041   1.083  0.3378 -0.2393 -0.4133
  813MOL0     C12069   1.853   2.042   1.133 -0.2282  1.0432 -0.9532
  813MOL0     C12070   1.777   2.105   1.018  0.3991 -0.4280 -0.1102
  813MOL0     C12071   1.627   2.104   1.053 -0.7115 -0.1767  0.6998
  813MOL0     C12072   1.562   1.968   1.050 -0.0737 -0.1416 -0.1153
  813MOL0     N12073   1.409   1.969   1.039 -0.5921 -0.0426  0.3040
  813MOL0     C12074   1.341   1.942   0.923  0.0426  0.8878 -0.3828
  813MOL0     C12075   1.212   1.946   0.957 -0.1700 -0.1019  0.1100
  813MOL0     C12076   1.091   1.927   0.875  0.4186  0.8175  0.1442
  813MOL0     C12077   1.110   1.806   0.780 -0.3344 -0.3010 -0.5352
  813MOL0     C12078   0.979   1.777   0.706 -0.4545 -0.4635  0.5736
  813MOL0     C12079   0.863   1.720   0.793  0.7425 -1.2075 -0.6239
  813MOL0     O12080   0.902   1.589   0.846 -0.1763 -0.2350  0.7510
  813MOL0     C12081   0.799   1.511   0.892 -0.1613 -0.7007 -0.3857
  813MOL0     C12082   0.709   1.473   0.807 -0.3463 -0.5308 -0.1460
  813MOL0     C12083   0.610   1.379   0.836 -0.6328 -0.3968 -0.2895
  813MOL0     C12084   0.515   1.341   0.729  0.4714  0.1999  0.1622
  813MOL0     C12085   0.606   1.324   0.968 -0.0327 -0.5103  0.2367
  813MOL0     C12086   0.512   1.218   1.008 -0.4261 -0.5506 -0.4821
  813MOL0     O12087   0.464   1.123   0.921  0.0303 -0.2812  1.0101
  813MOL0     C12088   0.346   1.067   0.939 -0.1805 -0.2811  1.2017
  813MOL0     C12089   0.343   0.933   0.977 -0.3451 -0.3819 -0.3343
  813MOL0     C12090   0.219   0.876   1.018 -0.2120 -0.0454  0.8727
  813MOL0     C12091   0.100   0.956   1.001 -0.2605  0.7681 -0.4300
  813MOL0     O12092  -0.027   0.921   1.040  0.1096 -0.2277  0.7026
  813MOL0     C12093  -0.093   0.841   0.933  0.8630  0.0514 -0.4021
  813MOL0     C12094  -0.177   0.720   0.976  0.7590  1.1591 -0.6860
  813MOL0     C12095  -0.160   0.595   0.873 -0.0973  1.1451  0.0519
  813MOL0     C12096  -0.226   0.464   0.926  1.6963 -0.2194 -0.7346
  813MOL0     C12097  -0.386   0.464   0.896  0.6483 -0.3504  0.2569
  813MOL0     C12098  -0.465   0.347   0.949 -0.1728  0.1707 -0.0498
  813MOL0     C12099  -0.426   0.206   0.894 -0.2651 -1.1383  0.6777
  813MOL0     C12100  -0.419   0.209   0.741  0.7200 -0.3754  0.4324
  813MOL0    Cl12101  -0.575   0.270   0.672 -0.4496  0.1433 -0.3238
  813MOL0     C12102   0.102   1.077   0.931  0.1469  0.9496  0.2781
  813MOL0     C12103   0.221   1.146   0.912  0.6000  0.4800 -0.0015
  813MOL0     O12104   0.483   1.219   1.128  0.5262 -0.1981 -0.1889
  813MOL0     C12105   0.691   1.382   1.062 -0.5744  0.4730  0.4974
  813MOL0     C12106   0.797   1.467   1.023  0.6069 -1.2801 -0.3358
  813MOL0     N12107   1.199   1.968   1.092  0.3937 -0.9994  1.0134
  813MOL0     N12108   1.318   1.981   1.144 -0.3561  0.3786 -0.0361
  813MOL0     C12109   2.414   2.518   1.285  0.0136  0.8596  0.6449
  813MOL0     C12110   2.502   2.618   1.345 -0.5797  0.8911 -0.1180
  813MOL0     C12111   2.816   2.838   1.561 -1.3586  0.2064  0.4886
  813MOL0     C12112   2.847   2.837   1.703  0.0774  0.4381  0.3971
  813MOL0     C12113   2.876   2.956   1.770  0.0511 -0.4886  0.8339
  813MOL0     C12114   2.902   3.072   1.704  0.2245  0.1940  0.4227
  813MOL0     O12115   2.931   3.190   1.757 -0.6790 -0.4845 -0.8479
  813MOL0     C12116   2.891   3.223   1.887  0.3012 -0.0651 -0.4133
  813MOL0     C12117   2.910   3.376   1.918  0.0438 -0.1461  0.4116
  813MOL0     C12118   2.786   3.459   1.871  0.1174 -0.0159  0.2458
  813MOL0     C12119   2.653   3.431   1.939 -0.0501  0.6812  0.1928
  813MOL0     C12120   2.539   3.520   1.905 -0.0286  0.3001  0.3485
  813MOL0     C12121   2.445   3.597   1.883 -0.5181  0.0130  0.4295
  813MOL0     C12122   2.897   3.067   1.569 -0.4300 -0.0929 -0.2044
  813MOL0     C12123   2.854   2.961   1.500 -0.1454 -1.0246 -0.3813
  813MOL0     C12124   2.869   2.964   1.346 -0.2606 -0.3723 -0.2578
  813MOL0     H12125   2.808   2.517   1.229  0.3060  1.3301 -1.0801
  813MOL0     H12126   2.648   2.325   1.139  1.4726  0.7848 -1.2455
  813MOL0     H12127   2.237   2.397   1.092 -0.4491  0.3887  2.8382
  813MOL0     H12128   2.234   2.338   1.252 -0.2075 -2.8947  0.4173
  813MOL0     H12129   2.234   2.153   1.009 -1.2766 -0.7871 -0.2677
  813MOL0     H12130   2.228   2.104   1.187 -2.9361 -2.0240 -0.3934
  813MOL0     H12131   2.024   2.218   1.217 -0.1465  2.6719  0.2801
  813MOL0     H12132   2.013   2.258   1.048  2.1034  0.9960  1.5933
  813MOL0     H12133   1.998   2.012   0.977 -2.2097  4.9150 -2.1026
  813MOL0     H12134   2.052   1.961   1.137  1.5177 -0.0522 -1.2486
  813MOL0     H12135   1.852   2.103   1.224  0.0046  0.8514 -0.8191
  813MOL0     H12136   1.819   1.938   1.138 -1.8537  1.4121 -3.1972
  813MOL0     H12137   1.791   2.212   1.005 -4.8706  0.5918  0.4198
  813MOL0     H12138   1.793   2.062   0.918 -1.9828  1.5107 -1.4451
  813MOL0     H12139   1.562   2.164   0.989 -2.3880 -3.2077 -0.6626
  813MOL0     H12140   1.622   2.132   1.159 -1.6773  3.1302 -0.1263
  813MOL0     H12141   1.597   1.913   0.962  1.0651  0.4338 -0.0396
  813MOL0     H12142   1.588   1.905   1.135 -1.6356 -1.0709 -0.2817
  813MOL0     H12143   1.377   1.929   0.821  2.8791  1.8966  0.4022
  813MOL0     H12144   1.079   2.020   0.818  1.5563  1.0179  0.2091
  813MOL0     H12145   1.000   1.932   0.936  0.7263  0.5334  0.6270
  813MOL0     H12146   1.190   1.839   0.712 -0.2223  6.7420  2.1616
  813MOL0     H12147   1.149   1.720   0.833 -0.0840 -0.1141 -0.4110
  813MOL0     H12148   0.946   1.870   0.659 -0.4400 -1.1432 -0.8282
  813MOL0     H12149   0.999   1.702   0.629 -1.2552  0.2710 -0.3871
  813MOL0     H12150   0.841   1.785   0.878 -0.3149  1.5231 -2.8474
  813MOL0     H12151   0.775   1.713   0.729 -0.0853  1.0432  0.1799
  813MOL0     H12152   0.724   1.513   0.707 -3.2383 -1.3407 -1.0164
  813MOL0     H12153   0.530   1.406   0.643 -0.5797  0.6762  0.3222
  813MOL0     H12154   0.413   1.368   0.761  0.5586  0.1534  0.4848
  813MOL0     H12155   0.513   1.236   0.699  1.8480 -0.1137  1.0632
  813MOL0     H12156   0.429   0.868   0.983  0.4169  0.4868 -1.4419
  813MOL0     H12157   0.215   0.769   1.034  2.5826 -0.1523  1.2032
  813MOL0     H12158  -0.153   0.904   0.867 -0.4569  0.9446  1.5592
  813MOL0     H12159  -0.014   0.811   0.864  0.2012  2.8259 -2.5327
  813MOL0     H12160  -0.152   0.690   1.078 -2.0636  1.3457  0.1484
  813MOL0     H12161  -0.282   0.747   0.965  0.9338  1.1049 -3.0534
  813MOL0     H12162  -0.054   0.568   0.864 -0.1502 -0.2893  2.6578
  813MOL0     H12163  -0.205   0.624   0.777 -0.8324 -1.0148 -0.3115
  813MOL0     H12164  -0.216   0.464   1.035 -1.0308  1.6389 -0.3837
  813MOL0     H12165  -0.185   0.375   0.878  0.8925  0.5661 -2.9949
  813MOL0     H12166  -0.432   0.548   0.949 -3.1603 -1.4232 -1.0726
  813MOL0     H12167  -0.403   0.481   0.790 -0.9883 -1.5264  0.3094
  813MOL0     H12168  -0.571   0.369   0.941  0.0304  1.4021  0.4303
  813MOL0     H12169  -0.433   0.329   1.052  0.2117 -1.5375 -0.4186
  813MOL0     H12170  -0.505   0.136   0.921 -2.2306  0.0547 -1.5765
  813MOL0     H12171  -0.332   0.179   0.943  0.4115  1.8160  1.1946
  813MOL0     H12172  -0.412   0.107   0.703 -2.6280  0.6642 -3.6189
  813MOL0     H12173  -0.333   0.267   0.706  0.0595 -1.2072 -2.8570
  813MOL0     H12174   0.006   1.125   0.916  0.4014  2.3548  2.5927
  813MOL0     H12175   0.228   1.245   0.869 -2.6018  1.4700  1.4896
  813MOL0     H12176   0.685   1.351   1.166 -0.0536 -1.6179 -0.0491
  813MOL0     H12177   0.875   1.489   1.095  1.6345  1.3092 -2.0562
  813MOL0     H12178   2.307   2.526   1.294  0.0468  1.3464  0.6044
  813MOL0     H12179   2.464   2.690   1.417  0.0731 -2.1706  3.6183
  813MOL0     H12180   2.843   2.740   1.752  2.1703 -1.5558 -2.9478
  813MOL0     H12181   2.882   2.937   1.877 -0.9747 -1.0718  0.8085
  813MOL0     H12182   2.794   3.184   1.920  1.7865 -2.4986  1.4620
  813MOL0     H12183   2.959   3.176   1.959 -1.6217  1.9508  2.9869
  813MOL0     H12184   2.994   3.411   1.858 -0.5796  0.7272  0.0357
  813MOL0     H12185   2.926   3.384   2.026 -2.5992 -2.8435  1.1421
  813MOL0     H12186   2.804   3.565   1.885 -1.3989  0.1110  1.6440
  813MOL0     H12187   2.790   3.436   1.764  1.4247  1.9484 -0.1596
  813MOL0     H12188   2.668   3.426   2.047 -0.1598  0.2345  0.1900
  813MOL0     H12189   2.612   3.334   1.908 -2.3391  1.0235  1.8944
  813MOL0     H12190   2.365   3.661   1.853  1.2411  0.8830 -2.8471
  813MOL0     H12191   2.947   3.149   1.518 -0.8900 -0.6208 -1.5495
  813MOL0     H12192   2.916   3.055   1.308  0.7314 -1.0411 -0.6800
  813MOL0     H12193   2.948   2.893   1.318  0.9780  1.7246 -2.4324
  813MOL0     H12194   2.775   2.950   1.293 -1.4871 -2.5665  2.2701
  814MOL0     O12195   1.092   8.354   1.275 -0.2225 -0.3197  0.6814
  814MOL0     C12196   1.024   8.261   1.304  0.7011  0.0221 -0.9638
  814MOL0     O12197   1.027   8.186   1.421 -0.1795  0.0429 -0.5244
  814MOL0     C12198   1.139   8.204   1.488  0.4780 -0.1719  0.1656
  814MOL0     C12199   1.261   8.160   1.436 -0.0859 -0.6764  0.2259
  814MOL0     C12200   1.376   8.178   1.500 -0.1315 -0.8060 -0.4836
  814MOL0     C12201   1.370   8.272   1.609 -1.0229  0.5207 -0.3914
  814MOL0     O12202   1.491   8.305   1.664  0.4382  0.4610 -0.3556
  814MOL0     C12203   1.505   8.252   1.803  1.3038 -0.8079  0.0701
  814MOL0     C12204   1.650   8.232   1.813 -0.2545  1.0403  0.0350
  814MOL0     C12205   1.738   8.351   1.790 -0.1657  0.6090 -0.1872
  814MOL0     C12206   1.882   8.315   1.831  0.8156 -0.1026 -1.2412
  814MOL0     C12207   1.983   8.430   1.779  0.3541  0.3933 -0.3714
  814MOL0     C12208   1.981   8.553   1.869  0.1271 -0.2348 -0.1391
  814MOL0     C12209   2.059   8.673   1.821 -0.3419 -1.1691 -0.1381
  814MOL0     C12210   2.208   8.662   1.848 -1.2542  0.1259  0.5297
  814MOL0     N12211   2.255   8.670   1.988 -0.9015  0.8341  0.2726
  814MOL0     C12212   2.392   8.675   2.032 -0.4355 -0.4907  0.7058
  814MOL0     C12213   2.394   8.685   2.166  0.4691  0.2307 -0.4553
  814MOL0     C12214   2.510   8.694   2.257  0.6314 -1.0296  0.5606
  814MOL0     C12215   2.596   8.823   2.222  0.1929  0.3444  0.0260
  814MOL0     C12216   2.519   8.956   2.253  0.9028  0.6327 -0.0319
  814MOL0     C12217   2.596   9.070   2.208  0.4948 -0.4336  0.2225
  814MOL0     O12218   2.588   9.071   2.059 -0.5344  0.0003  0.8292
  814MOL0     C12219   2.711   9.102   1.993  0.4907  2.0995  0.1100
  814MOL0     C12220   2.762   9.002   1.905 -0.5248 -0.1459 -0.8743
  814MOL0     C12221   2.884   9.008   1.834 -0.5723  0.1765 -0.1953
  814MOL0     C12222   2.933   8.879   1.754 -0.2207  0.4385 -0.0155
  814MOL0     C12223   2.961   9.129   1.846 -0.2962  1.0373  0.2065
  814MOL0     C12224   3.097   9.145   1.785  0.3966  0.3801 -0.4785
  814MOL0     O12225   3.155   9.044   1.715 -0.4175  0.0222  0.5016
  814MOL0     C12226   3.281   9.052   1.659  0.8283 -0.5083  0.1915
  814MOL0     C12227   3.320   9.174   1.598  0.3218 -0.5457 -0.4984
  814MOL0     C12228   3.445   9.191   1.534 -0.2556 -0.0410  0.0737
  814MOL0     C12229   3.533   9.077   1.540  0.7260  0.4102 -0.5565
  814MOL0     O12230   3.649   9.083   1.464 -0.1245 -0.7612 -0.1031
  814MOL0     C12231   3.723   8.959   1.431 -1.6209  0.1215  0.6661
  814MOL0     C12232   3.852   8.985   1.358 -1.4144 -0.1275 -0.6084
  814MOL0     C12233   3.947   9.093   1.413 -0.1266  0.2613  0.0758
  814MOL0     C12234   4.033   9.151   1.315  0.6452  0.1877  0.4474
  814MOL0     C12235   4.095   9.283   1.364  0.7516 -0.7002  0.1081
  814MOL0     C12236   4.193   9.268   1.484  1.3705  0.2649  1.8231
  814MOL0     C12237   4.305   9.168   1.447 -0.8518  1.6618 -0.0326
  814MOL0     C12238   4.412   9.164   1.552 -0.7031 -0.1018  0.4858
  814MOL0    Cl12239   4.524   9.301   1.526 -0.1322  0.0700  0.5705
  814MOL0     C12240   3.484   8.956   1.601 -0.2131 -0.0605  1.0123
  814MOL0     C12241   3.371   8.945   1.664  0.4212  0.4195 -0.7294
  814MOL0     O12242   3.149   9.252   1.817  0.3060 -0.1859  0.4885
  814MOL0     C12243   2.910   9.223   1.935  0.7670 -0.1209 -1.2151
  814MOL0     C12244   2.787   9.221   1.996  0.5895  0.4438  0.3926
  814MOL0     N12245   2.264   8.692   2.206  0.5120 -0.0382  0.2892
  814MOL0     N12246   2.184   8.671   2.108  0.6417 -0.6620  0.0740
  814MOL0     C12247   1.248   8.309   1.673 -0.0068  0.2215  0.6434
  814MOL0     C12248   1.131   8.268   1.608  0.2614 -0.5297  1.1577
  814MOL0     C12249   0.920   8.225   1.208 -0.5025  0.0461  0.3560
  814MOL0     C12250   0.838   8.325   1.161  0.2238  0.5135 -0.0783
  814MOL0     C12251   0.724   8.297   1.080  0.6420  0.3829 -0.0538
  814MOL0     C12252   0.689   8.171   1.031 -0.0428  0.3426 -0.3442
  814MOL0     O12253   0.587   8.167   0.937  0.1181 -0.3117  0.1772
  814MOL0     C12254   0.573   8.054   0.851 -0.5824  0.3795 -0.4045
  814MOL0     C12255   0.452   8.101   0.762 -0.0817 -0.1467 -0.8045
  814MOL0     C12256   0.318   8.126   0.839  0.0671  1.1459 -0.2528
  814MOL0     C12257   0.198   8.128   0.739 -0.2637  0.5051 -0.8624
  814MOL0     C12258   0.066   8.128   0.804 -0.5575  0.0948  0.7604
  814MOL0     C12259  -0.030   8.128   0.870 -0.6390  0.0967  0.1394
  814MOL0     C12260   0.785   8.073   1.058 -0.3533  0.4167  0.1624
  814MOL0     C12261   0.893   8.097   1.154  0.4814 -0.9189  0.5772
  814MOL0     C12262   0.983   7.985   1.196  0.4323 -0.0701  1.2566
  814MOL0     H12263   1.262   8.114   1.337  1.2579 -0.7177  0.2452
  814MOL0     H12264   1.471   8.139   1.464  2.3100  1.8646  2.4004
  814MOL0     H12265   1.453   8.157   1.820  0.8368 -0.7793 -1.0982
  814MOL0     H12266   1.480   8.317   1.887  0.3742 -0.1786 -0.6813
  814MOL0     H12267   1.663   8.190   1.913  1.3625  2.1164  0.3096
  814MOL0     H12268   1.686   8.166   1.734  2.6464 -0.6846  2.5895
  814MOL0     H12269   1.737   8.379   1.685  0.3166  2.8099  0.3389
  814MOL0     H12270   1.714   8.441   1.848  4.3288  0.7392  1.8317
  814MOL0     H12271   1.885   8.292   1.938 -1.9072 -0.0262 -1.0688
  814MOL0     H12272   1.918   8.223   1.785  0.6643 -0.5317 -0.5228
  814MOL0     H12273   1.961   8.452   1.674  0.2073 -1.3948 -0.7538
  814MOL0     H12274   2.082   8.383   1.774 -1.4046 -3.6175 -3.9650
  814MOL0     H12275   1.876   8.587   1.869  0.6145  1.3817 -1.1053
  814MOL0     H12276   2.015   8.530   1.971 -0.3032  1.1311  0.3394
  814MOL0     H12277   2.010   8.759   1.869 -0.0122 -1.4728  0.7756
  814MOL0     H12278   2.053   8.692   1.714  1.8958  1.6802  0.1119
  814MOL0     H12279   2.242   8.570   1.800 -0.5278  1.1097 -0.9216
  814MOL0     H12280   2.272   8.735   1.798  0.0658 -2.2738 -1.4804
  814MOL0     H12281   2.473   8.677   1.959 -1.6383  1.3290 -0.6694
  814MOL0     H12282   2.565   8.603   2.232  0.7812 -0.3440 -1.8979
  814MOL0     H12283   2.466   8.689   2.357  1.1423 -1.0341  0.7914
  814MOL0     H12284   2.696   8.826   2.267  1.2828 -1.1996 -2.1353
  814MOL0     H12285   2.618   8.808   2.116 -0.1245 -2.7557  0.2930
  814MOL0     H12286   2.426   8.971   2.197  0.4722 -0.8544  0.2403
  814MOL0     H12287   2.493   8.956   2.360 -1.8619  2.2414 -0.5936
  814MOL0     H12288   2.539   9.157   2.244 -1.7982 -0.8943 -2.0262
  814MOL0     H12289   2.696   9.068   2.251  1.6825 -0.4576 -2.3816
  814MOL0     H12290   2.720   8.903   1.891  0.0664 -0.6407  0.6388
  814MOL0     H12291   2.951   8.905   1.649  0.9022 -1.3662 -0.3238
  814MOL0     H12292   2.858   8.799   1.756  1.8750 -1.6047  0.7263
  814MOL0     H12293   3.019   8.847   1.813 -0.5113 -0.1310  0.1129
  814MOL0     H12294   3.257   9.262   1.593 -1.4659 -1.7683 -5.6950
  814MOL0     H12295   3.488   9.279   1.487 -2.2854  2.4674  2.6257
  814MOL0     H12296   3.732   8.907   1.527 -2.1204  0.2625  0.7941
  814MOL0     H12297   3.666   8.896   1.361 -0.8186 -1.8377  1.6899
  814MOL0     H12298   3.897   8.886   1.369  1.1977  1.2554  2.6917
  814MOL0     H12299   3.846   8.984   1.249  0.2420  0.4158 -0.7267
  814MOL0     H12300   4.017   9.064   1.492  1.5958 -0.3842 -1.6299
  814MOL0     H12301   3.896   9.184   1.447  2.6814  1.9885  0.0187
  814MOL0     H12302   3.978   9.178   1.224 -0.2442 -2.2946  0.1704
  814MOL0     H12303   4.105   9.070   1.298 -1.2168 -1.5838  0.5023
  814MOL0     H12304   4.126   9.324   1.267 -2.6413  0.3363 -0.6790
  814MOL0     H12305   4.021   9.359   1.389 -2.0539 -2.7600 -1.3888
  814MOL0     H12306   4.133   9.252   1.574 -0.2004 -1.7345  0.5069
  814MOL0     H12307   4.237   9.368   1.493  0.3531  1.2019 -1.7246
  814MOL0     H12308   4.354   9.191   1.352 -0.3649 -2.4703 -0.9465
  814MOL0     H12309   4.266   9.067   1.433 -0.6654  1.5457  0.2735
  814MOL0     H12310   4.476   9.075   1.547  2.3959  1.6874  3.3780
  814MOL0     H12311   4.366   9.170   1.651 -1.5758 -0.9233  0.1453
  814MOL0     H12312   3.552   8.872   1.617  0.5742  0.6666  1.6026
  814MOL0     H12313   3.350   8.853   1.718  1.9881 -1.2013 -2.6672
  814MOL0     H12314   2.971   9.312   1.944 -0.7228  1.1218 -2.6572
  814MOL0     H12315   2.747   9.304   2.054 -3.3755  0.3119 -1.8134
  814MOL0     H12316   1.247   8.377   1.757 -2.0390  1.4343 -0.2704
  814MOL0     H12317   1.033   8.301   1.639  0.1284 -0.0424  0.2311
  814MOL0     H12318   0.851   8.429   1.188  1.0423 -0.0875  2.0326
  814MOL0     H12319   0.653   8.375   1.054  1.1761  0.1370 -2.5411
  814MOL0     H12320   0.659   8.034   0.786 -0.0191 -1.9831  0.9495
  814MOL0     H12321   0.545   7.964   0.907 -0.5740  0.0216 -0.9551
  814MOL0     H12322   0.434   8.018   0.693 -2.2192  1.5130 -2.3908
  814MOL0     H12323   0.476   8.194   0.710  1.2116  0.5583  0.9837
  814MOL0     H12324   0.300   8.038   0.902  0.7093  2.3718  1.7098
  814MOL0     H12325   0.329   8.212   0.905  0.7908  1.3376 -0.6077
  814MOL0     H12326   0.215   8.043   0.673 -2.0075 -0.0529 -0.6315
  814MOL0     H12327   0.197   8.214   0.671  2.5359 -0.9758 -2.9627
  814MOL0     H12328  -0.118   8.153   0.926 -2.3524  0.1863 -2.4195
  814MOL0     H12329   0.793   7.970   1.025 -0.8063  0.6601 -0.7265
  814MOL0     H12330   1.084   8.025   1.203  0.9928 -1.4272  1.2769
  814MOL0     H12331   0.937   7.958   1.292 -0.9636  4.5031  2.1302
  814MOL0     H12332   0.965   7.901   1.129 -2.7080  0.1934  1.6051
  815MOL0     O12333   6.848   1.556   6.396  0.0964  0.5445 -0.1332
  815MOL0     C12334   6.876   1.670   6.442  0.5586  0.4108  0.2810
  815MOL0     O12335   6.841   1.795   6.387  0.3415  0.3726  0.2943
  815MOL0     C12336   6.832   1.798   6.248  0.3085  0.0230 -1.2873
  815MOL0     C12337   6.925   1.880   6.177 -0.1098  0.2688  0.7131
  815MOL0     C12338   6.932   1.886   6.037  1.1330  0.4858  0.5421
  815MOL0     C12339   6.845   1.802   5.968 -0.8194  0.7899 -0.4264
  815MOL0     O12340   6.851   1.783   5.835  0.4638  0.1394  0.8297
  815MOL0     C12341   6.805   1.894   5.755  0.5915  0.0315 -0.7008
  815MOL0     C12342   6.654   1.893   5.727 -1.0442 -0.3694 -0.0965
  815MOL0     C12343   6.625   1.959   5.596 -0.0485  1.1356 -0.9613
  815MOL0     C12344   6.466   1.950   5.568  0.3351 -0.3558  0.2280
  815MOL0     C12345   6.428   1.996   5.428  0.8828  0.0629  0.8929
  815MOL0     C12346   6.445   2.154   5.419 -0.7438  0.4351 -0.9027
  815MOL0     C12347   6.380   2.219   5.297  0.3511 -0.3083 -0.0863
  815MOL0     C12348   6.234   2.173   5.282 -0.2257  0.5143 -0.8464
  815MOL0     N12349   6.159   2.192   5.406 -0.3608  0.9791 -0.5825
  815MOL0     C12350   6.104   2.093   5.495  0.0276  0.0162 -0.0899
  815MOL0     C12351   6.037   2.167   5.594 -0.0430  0.0967  0.2363
  815MOL0     C12352   5.970   2.110   5.709  0.4406 -0.6968 -1.0364
  815MOL0     C12353   6.078   2.098   5.817  0.3758 -0.3428 -0.7090
  815MOL0     C12354   6.020   2.038   5.950 -0.0928  0.1116 -0.4478
  815MOL0     C12355   5.895   2.109   5.999 -0.6104 -0.3334  0.8615
  815MOL0     O12356   5.852   2.062   6.127 -0.4391  0.4002 -0.2883
  815MOL0     C12357   5.751   2.122   6.202  0.5033 -0.4155  0.7153
  815MOL0     C12358   5.708   2.046   6.308 -0.3181 -0.9826  0.1325
  815MOL0     C12359   5.629   2.096   6.407  0.0775  0.3793  0.0654
  815MOL0     C12360   5.582   1.993   6.504 -0.0635 -0.3395  0.0451
  815MOL0     C12361   5.583   2.232   6.396 -0.0017  0.1425 -0.5499
  815MOL0     C12362   5.486   2.287   6.488  0.3689  0.2418 -0.4646
  815MOL0     O12363   5.437   2.404   6.446 -0.4419 -0.2330  0.6824
  815MOL0     C12364   5.328   2.466   6.507  0.0779 -1.0702 -0.0636
  815MOL0     C12365   5.349   2.588   6.579  0.7535  0.0630 -0.3176
  815MOL0     C12366   5.238   2.643   6.641  0.3173 -0.5354 -0.1448
  815MOL0     C12367   5.106   2.591   6.626  0.3649 -0.5018  0.2268
  815MOL0     O12368   5.006   2.652   6.698 -0.6940  0.3653 -0.2531
  815MOL0     C12369   4.866   2.608   6.687 -0.5359 -0.0914 -0.9272
  815MOL0     C12370   4.826   2.492   6.773 -0.2581 -0.1916  0.7484
  815MOL0     C12371   4.889   2.357   6.733 -1.2082  0.3720 -0.6480
  815MOL0     C12372   4.859   2.249   6.850 -1.0072 -0.9857  0.3779
  815MOL0     C12373   4.977   2.145   6.862  0.0397  0.1761 -0.4644
  815MOL0     C12374   5.017   2.061   6.734 -0.0729 -0.1839  0.2020
  815MOL0     C12375   5.086   1.927   6.768  0.1947 -0.8143  0.5470
  815MOL0     C12376   5.109   1.848   6.642  1.0920 -0.0517  0.3748
  815MOL0    Cl12377   5.213   1.943   6.525  0.0053  0.1164 -0.0451
  815MOL0     C12378   5.092   2.484   6.541 -0.7784 -0.3108  0.5982
  815MOL0     C12379   5.203   2.420   6.482 -0.8629 -0.2630  0.5182
  815MOL0     O12380   5.448   2.232   6.589  0.3730  0.0738 -0.5288
  815MOL0     C12381   5.635   2.310   6.285 -0.1435  0.5582  0.1423
  815MOL0     C12382   5.709   2.252   6.188 -0.6510  0.3708 -0.3499
  815MOL0     N12383   6.047   2.302   5.552 -0.2955 -1.0342 -0.3252
  815MOL0     N12384   6.116   2.314   5.445  0.0868 -0.0807  0.0600
  815MOL0     C12385   6.749   1.734   6.036 -0.0080  0.3558 -0.7710
  815MOL0     C12386   6.737   1.730   6.179 -0.3269 -0.4399 -0.6344
  815MOL0     C12387   6.934   1.684   6.574  0.2761  0.7590 -0.1107
  815MOL0     C12388   6.883   1.786   6.667  0.5669 -0.1263 -0.1975
  815MOL0     C12389   6.917   1.798   6.797  0.0766 -0.4170  0.3933
  815MOL0     C12390   7.014   1.710   6.851 -0.1081  0.1176 -0.6416
  815MOL0     O12391   7.038   1.732   6.986  0.8748 -0.7727 -0.9922
  815MOL0     C12392   7.106   1.627   7.053 -0.3484  0.9016 -1.5259
  815MOL0     C12393   7.109   1.650   7.201 -0.5325 -0.5590  0.5369
  815MOL0     C12394   7.187   1.773   7.250 -0.1625  0.7823 -0.6235
  815MOL0     C12395   7.282   1.735   7.366 -0.3640 -0.0277 -0.1533
  815MOL0     C12396   7.213   1.685   7.485  0.4506  0.2882  1.1597
  815MOL0     C12397   7.154   1.625   7.571  0.5580 -0.2149 -0.1337
  815MOL0     C12398   7.069   1.611   6.770 -0.1649 -0.3130 -0.4314
  815MOL0     C12399   7.022   1.594   6.633 -0.2564  0.2309 -0.8684
  815MOL0     C12400   7.077   1.477   6.555 -0.8177 -0.5385 -0.1568
  815MOL0     H12401   7.010   1.930   6.224  0.1815  2.5545 -1.9966
  815MOL0     H12402   7.025   1.919   5.993 -0.8427  1.8479 -2.9391
  815MOL0     H12403   6.854   1.882   5.658 -2.1429  0.8917 -2.3055
  815MOL0     H12404   6.834   1.983   5.812 -0.6021 -1.3230  2.1959
  815MOL0     H12405   6.606   1.795   5.728 -2.6945  0.3817  1.4499
  815MOL0     H12406   6.607   1.954   5.805 -1.1253  2.0426 -1.9004
  815MOL0     H12407   6.649   2.065   5.593 -1.7254  1.6088  0.8970
  815MOL0     H12408   6.690   1.907   5.525 -0.4404 -3.6231  1.7519
  815MOL0     H12409   6.432   1.848   5.588  1.8182 -1.1645 -1.1931
  815MOL0     H12410   6.421   2.023   5.636  2.2594  0.8148  0.2926
  815MOL0     H12411   6.321   1.977   5.417  0.3774  3.4998 -1.3674
  815MOL0     H12412   6.491   1.948   5.353 -0.0916  0.8274 -0.4492
  815MOL0     H12413   6.399   2.207   5.503  3.0985  2.7092  0.0326
  815MOL0     H12414   6.547   2.190   5.434 -1.9867  2.9425  3.6447
  815MOL0     H12415   6.417   2.190   5.198 -2.6454 -0.1968 -1.3773
  815MOL0     H12416   6.389   2.328   5.295 -0.4955 -0.1824  1.3778
  815MOL0     H12417   6.178   2.239   5.215 -0.0668  2.3001  0.6764
  815MOL0     H12418   6.228   2.072   5.241  3.1999  0.7173 -2.1075
  815MOL0     H12419   6.104   1.985   5.498 -0.8237  0.0278  1.6092
  815MOL0     H12420   5.923   2.014   5.685  0.1172 -0.6094 -0.7572
  815MOL0     H12421   5.885   2.176   5.731 -0.9709 -2.4776 -0.9416
  815MOL0     H12422   6.162   2.042   5.775  2.4521  2.4799 -0.5838
  815MOL0     H12423   6.123   2.193   5.848 -2.1475  0.2561  1.4589
  815MOL0     H12424   5.981   1.941   5.919 -1.0195  0.8047 -1.5233
  815MOL0     H12425   6.087   2.031   6.037 -4.5344  3.8028  3.8462
  815MOL0     H12426   5.911   2.217   6.005 -1.3856 -0.0590 -1.3455
  815MOL0     H12427   5.820   2.094   5.921 -1.1727 -1.0728  1.5154
  815MOL0     H12428   5.711   1.939   6.295  1.3456 -1.1201  1.4005
  815MOL0     H12429   5.481   1.966   6.469 -0.3479  3.5997 -2.8291
  815MOL0     H12430   5.598   2.025   6.607  4.2869 -1.9272  0.0875
  815MOL0     H12431   5.655   1.912   6.496 -0.1687 -0.7623  2.5640
  815MOL0     H12432   5.447   2.631   6.593  0.5175 -0.1969  2.6182
  815MOL0     H12433   5.268   2.725   6.706 -1.6334  2.9945 -3.2885
  815MOL0     H12434   4.799   2.691   6.713  0.8483 -0.1581  3.5042
  815MOL0     H12435   4.853   2.593   6.579  1.3256 -2.0150 -0.9529
  815MOL0     H12436   4.841   2.536   6.872  0.3629  1.7218 -0.1568
  815MOL0     H12437   4.717   2.485   6.780 -0.2821  0.7243  1.5467
  815MOL0     H12438   4.997   2.362   6.721 -0.9270 -1.6011  0.6048
  815MOL0     H12439   4.856   2.335   6.630 -0.2006  2.4550 -1.4582
  815MOL0     H12440   4.764   2.200   6.827 -2.1059  2.3382 -3.1078
  815MOL0     H12441   4.856   2.298   6.948  2.8327 -0.5587  0.4254
  815MOL0     H12442   5.057   2.206   6.905 -0.0365  0.1927 -0.3481
  815MOL0     H12443   4.949   2.071   6.938  1.7081 -0.4489 -0.4142
  815MOL0     H12444   5.075   2.130   6.672 -2.3257  1.2354 -0.4449
  815MOL0     H12445   4.929   2.036   6.674 -0.5246 -1.2660  1.2794
  815MOL0     H12446   5.029   1.875   6.846 -0.3521 -0.2740  0.5201
  815MOL0     H12447   5.177   1.939   6.827 -0.2301 -2.6030  1.6340
  815MOL0     H12448   5.009   1.825   6.605  1.6189 -0.1986 -1.0288
  815MOL0     H12449   5.147   1.750   6.673  0.2081 -0.6790 -0.4455
  815MOL0     H12450   4.995   2.442   6.515 -1.1698  1.2885 -0.7321
  815MOL0     H12451   5.196   2.330   6.423 -0.6940 -0.7781  1.2680
  815MOL0     H12452   5.615   2.416   6.273  0.5979  1.2292  3.6152
  815MOL0     H12453   5.728   2.298   6.092 -1.8221 -1.0220 -1.2970
  815MOL0     H12454   6.684   1.666   5.982 -0.2292  1.8938 -2.5348
  815MOL0     H12455   6.659   1.666   6.220 -1.5021 -0.2520 -2.4382
  815MOL0     H12456   6.835   1.876   6.629  0.0353  1.0238  2.9076
  815MOL0     H12457   6.901   1.889   6.854  1.5803  0.0549  0.1276
  815MOL0     H12458   7.056   1.532   7.033 -1.0937  0.9410  0.0133
  815MOL0     H12459   7.209   1.622   7.018 -0.7397 -0.1849 -2.5969
  815MOL0     H12460   7.163   1.562   7.237  0.3922  0.1296  0.8603
  815MOL0     H12461   7.005   1.648   7.235 -0.4708 -0.6995  0.7188
  815MOL0     H12462   7.253   1.806   7.170  4.7358  1.0856  3.0960
  815MOL0     H12463   7.128   1.855   7.293  4.7223  2.6844  3.4403
  815MOL0     H12464   7.337   1.825   7.395 -0.7472  0.2708 -0.3296
  815MOL0     H12465   7.360   1.667   7.332 -1.2365 -2.2459  2.0186
  815MOL0     H12466   7.087   1.588   7.647 -0.0317 -0.9901 -1.0167
  815MOL0     H12467   7.144   1.546   6.814 -1.7396 -4.7063 -3.5324
  815MOL0     H12468   7.168   1.434   6.598 -1.7088 -1.1108  1.2089
  815MOL0     H12469   7.003   1.398   6.543 -1.8532  0.2431  0.8234
  815MOL0     H12470   7.105   1.516   6.457 -2.4341 -1.7140 -1.1348
  816MOL0     O12471   5.388   3.533   6.385 -0.5747 -0.4235 -0.0556
  816MOL0     C12472   5.495   3.561   6.440  0.3591  0.3706  0.3323
  816MOL0     O12473   5.607   3.597   6.371 -0.5574  0.2308  0.0615
  816MOL0     C12474   5.602   3.576   6.236 -0.3288  0.2281  0.2425
  816MOL0     C12475   5.555   3.670   6.144  0.3646 -1.2514 -1.2004
  816MOL0     C12476   5.576   3.649   6.006  0.7123  0.4235  0.2415
  816MOL0     C12477   5.648   3.539   5.958  0.3320 -0.1493 -0.0864
  816MOL0     O12478   5.684   3.548   5.829 -0.7488 -0.3274  0.8539
  816MOL0     C12479   5.780   3.452   5.782  0.0255  0.6971 -0.0412
  816MOL0     C12480   5.795   3.481   5.631 -0.5080 -0.8841  0.3865
  816MOL0     C12481   5.849   3.620   5.592  0.6702  0.6319 -1.1264
  816MOL0     C12482   5.794   3.658   5.470  1.0540 -0.8311  0.5258
  816MOL0     C12483   5.849   3.791   5.406  0.7601  0.0032 -0.4954
  816MOL0     C12484   5.813   3.797   5.256 -0.2193 -0.4514 -0.8982
  816MOL0     C12485   5.855   3.939   5.206  0.3483  0.2290  0.0973
  816MOL0     C12486   5.793   3.987   5.079 -0.2298 -0.7559  0.4000
  816MOL0     N12487   5.807   3.908   4.957 -0.2793 -0.5966 -0.6889
  816MOL0     C12488   5.717   3.803   4.937 -0.4625 -0.1743 -0.3140
  816MOL0     C12489   5.751   3.747   4.823  0.1804 -0.1791  0.0507
  816MOL0     C12490   5.665   3.642   4.759 -0.2640  0.3769  0.5002
  816MOL0     C12491   5.731   3.580   4.636  0.0346 -0.0652 -0.4895
  816MOL0     C12492   5.631   3.481   4.578 -0.1415 -0.8600  0.3962
  816MOL0     C12493   5.689   3.367   4.505 -0.2056 -0.1455  0.1840
  816MOL0     O12494   5.797   3.417   4.418 -1.1363 -0.2963 -0.6571
  816MOL0     C12495   5.869   3.328   4.345 -0.7371  0.4695  1.0471
  816MOL0     C12496   5.835   3.191   4.339  0.2989 -0.3479 -0.0879
  816MOL0     C12497   5.907   3.102   4.249  0.4245 -0.1167 -0.2719
  816MOL0     C12498   5.886   2.950   4.268  1.2195 -0.6891 -0.0549
  816MOL0     C12499   6.005   3.150   4.158  0.0303  0.1597  0.3006
  816MOL0     C12500   6.089   3.058   4.063  0.4392 -0.0542 -0.4603
  816MOL0     O12501   6.197   3.125   4.014 -0.0571 -0.2159  0.4787
  816MOL0     C12502   6.298   3.053   3.972 -0.3697  0.1511  0.4416
  816MOL0     C12503   6.408   3.036   4.059  0.1033  0.2662 -0.0431
  816MOL0     C12504   6.526   2.965   4.008  0.7870 -0.1528  0.7371
  816MOL0     C12505   6.537   2.920   3.880 -0.8322  0.9573 -0.0265
  816MOL0     O12506   6.664   2.879   3.837  0.6089 -0.6312 -0.0461
  816MOL0     C12507   6.682   2.858   3.689 -0.1226 -1.0523 -0.1838
  816MOL0     C12508   6.695   2.985   3.593 -0.3467 -0.7934 -0.6109
  816MOL0     C12509   6.719   2.937   3.449 -1.0642  0.6366 -0.8220
  816MOL0     C12510   6.863   2.899   3.422 -1.2716  0.7082 -0.0288
  816MOL0     C12511   6.890   2.877   3.272  0.2377 -0.0468  0.5541
  816MOL0     C12512   7.019   2.800   3.237 -0.3636  1.9125  0.0098
  816MOL0     C12513   7.034   2.754   3.089 -0.1352  0.2273 -0.0735
  816MOL0     C12514   7.147   2.648   3.089 -0.6078  0.8254  1.2638
  816MOL0    Cl12515   7.166   2.591   2.920  0.3154 -0.3500 -0.5638
  816MOL0     C12516   6.426   2.931   3.804 -0.8276  1.0763  0.1564
  816MOL0     C12517   6.304   2.980   3.852  0.4996 -0.4593 -0.5884
  816MOL0     O12518   6.061   2.942   4.042 -0.2660  0.9257 -0.4358
  816MOL0     C12519   6.033   3.290   4.167  0.5077  0.4763  0.2745
  816MOL0     C12520   5.980   3.375   4.262 -0.6289 -0.6751 -0.6928
  816MOL0     N12521   5.868   3.813   4.775 -0.1794  0.2341  0.2469
  816MOL0     N12522   5.891   3.910   4.850  0.0259  0.1132  0.3998
  816MOL0     C12523   5.663   3.431   6.045 -0.1885  0.2458 -0.9023
  816MOL0     C12524   5.647   3.457   6.189  0.0302 -0.0678  0.2128
  816MOL0     C12525   5.489   3.553   6.589 -0.4920 -0.5446  0.1375
  816MOL0     C12526   5.389   3.608   6.663  0.8821 -1.1490  0.2000
  816MOL0     C12527   5.377   3.608   6.795 -0.7104  1.1769 -0.2073
  816MOL0     C12528   5.470   3.525   6.873  1.1353 -0.8291  0.9234
  816MOL0     O12529   5.450   3.500   7.013 -0.6332 -0.4636  0.3597
  816MOL0     C12530   5.551   3.441   7.089  0.0956  0.6165 -0.1160
  816MOL0     C12531   5.507   3.393   7.225 -0.1403  0.3805 -0.1080
  816MOL0     C12532   5.415   3.265   7.227  0.1730  0.1886  0.2213
  816MOL0     C12533   5.302   3.290   7.314 -0.1526  0.2759 -0.1512
  816MOL0     C12534   5.218   3.170   7.302 -0.4695  0.2861  0.7636
  816MOL0     C12535   5.139   3.072   7.294  0.5922 -0.4501  0.6076
  816MOL0     C12536   5.584   3.468   6.810 -0.0529 -0.0353 -0.3525
  816MOL0     C12537   5.591   3.483   6.667 -0.8286  0.3882  0.6951
  816MOL0     C12538   5.700   3.405   6.592  0.9352  0.0452  0.0846
  816MOL0     H12539   5.510   3.765   6.174 -0.5700 -1.7938 -0.8229
  816MOL0     H12540   5.547   3.727   5.936 -0.0427  1.3581  1.5484
  816MOL0     H12541   5.752   3.347   5.794  0.9324  0.4314 -0.1520
  816MOL0     H12542   5.877   3.471   5.827  1.3874 -0.9299 -2.0558
  816MOL0     H12543   5.856   3.405   5.581 -0.3945  0.2096 -1.2039
  816MOL0     H12544   5.693   3.473   5.595 -0.8941 -1.9114  1.6156
  816MOL0     H12545   5.820   3.697   5.664 -0.4388 -0.4634 -0.3680
  816MOL0     H12546   5.958   3.621   5.578  1.3294 -2.9607  2.1701
  816MOL0     H12547   5.803   3.573   5.401  3.1892 -0.8834  0.7995
  816MOL0     H12548   5.689   3.676   5.495  1.0136 -2.6707  1.9468
  816MOL0     H12549   5.959   3.798   5.403  0.7712 -0.3875 -1.0288
  816MOL0     H12550   5.816   3.878   5.464  1.1451 -1.2448  1.7350
  816MOL0     H12551   5.871   3.730   5.192 -0.2262  0.9698 -2.4359
  816MOL0     H12552   5.705   3.790   5.236 -0.2234 -2.7149 -0.3995
  816MOL0     H12553   5.962   3.922   5.189  0.5144 -0.7259  1.7817
  816MOL0     H12554   5.835   4.017   5.280  2.9120  1.5831 -0.5442
  816MOL0     H12555   5.688   4.012   5.098 -0.9580 -2.3415 -1.2930
  816MOL0     H12556   5.836   4.084   5.053 -0.6350 -0.7674 -0.3236
  816MOL0     H12557   5.633   3.784   5.002 -1.8493 -1.0725 -2.2506
  816MOL0     H12558   5.575   3.697   4.729  1.1397  3.1438  1.0065
  816MOL0     H12559   5.627   3.565   4.826 -0.2763 -0.0687 -0.0114
  816MOL0     H12560   5.760   3.662   4.570 -3.7304  3.0173  1.2854
  816MOL0     H12561   5.808   3.512   4.674 -0.8505  1.6061  5.2253
  816MOL0     H12562   5.578   3.433   4.660 -0.5973  2.1263  1.9996
  816MOL0     H12563   5.556   3.534   4.520  2.2646 -0.2147 -2.3847
  816MOL0     H12564   5.745   3.303   4.575  1.5069  0.8410 -0.2118
  816MOL0     H12565   5.603   3.318   4.459 -2.9743  3.1524  1.4323
  816MOL0     H12566   5.749   3.150   4.391 -0.4082  1.3078  0.1038
  816MOL0     H12567   5.965   2.887   4.311  0.3135 -0.4585  2.0316
  816MOL0     H12568   5.856   2.907   4.172 -0.5659  1.9733 -0.7706
  816MOL0     H12569   5.798   2.932   4.329  0.0053  3.4266 -0.3022
  816MOL0     H12570   6.406   3.087   4.154  0.4832 -1.0878  0.7142
  816MOL0     H12571   6.604   2.958   4.083  0.9631  1.7202  0.7941
  816MOL0     H12572   6.776   2.802   3.678  2.1161  2.4211 -0.2352
  816MOL0     H12573   6.607   2.796   3.639 -0.5361  0.2752 -1.2628
  816MOL0     H12574   6.602   3.042   3.591  0.9403  1.7344  2.2409
  816MOL0     H12575   6.773   3.058   3.620 -3.6331  3.2879 -1.0251
  816MOL0     H12576   6.683   3.014   3.380 -1.0669  1.1703 -0.2350
  816MOL0     H12577   6.646   2.860   3.424 -0.3840  0.2170 -1.5555
  816MOL0     H12578   6.876   2.801   3.469 -0.8090  0.5665 -0.4420
  816MOL0     H12579   6.934   2.972   3.462 -0.0408 -1.5633  2.2518
  816MOL0     H12580   6.807   2.819   3.232  0.6546 -0.1147 -0.2246
  816MOL0     H12581   6.890   2.975   3.224 -1.2577  0.6718  1.9235
  816MOL0     H12582   7.021   2.715   3.305 -0.4180  1.1229 -0.9635
  816MOL0     H12583   7.107   2.862   3.254  1.0872  1.1960 -3.8864
  816MOL0     H12584   7.061   2.835   3.021 -0.6816  0.7813  0.3568
  816MOL0     H12585   6.939   2.710   3.055  0.9930 -3.8654  1.4647
  816MOL0     H12586   7.121   2.566   3.156  2.2701 -0.3659  1.0482
  816MOL0     H12587   7.242   2.691   3.121  0.4297 -0.8069  0.4858
  816MOL0     H12588   6.412   2.907   3.699 -3.1607 -2.6832  1.1276
  816MOL0     H12589   6.219   2.976   3.784  0.8564 -1.3578 -0.9972
  816MOL0     H12590   6.102   3.332   4.093  0.0770  3.0025  1.2224
  816MOL0     H12591   6.014   3.477   4.277 -1.4857 -0.5039  0.2362
  816MOL0     H12592   5.707   3.339   6.007  2.5964  1.1648 -0.1196
  816MOL0     H12593   5.680   3.378   6.256 -3.5590 -1.3343  0.7199
  816MOL0     H12594   5.318   3.663   6.602  2.9129  1.3892 -0.0361
  816MOL0     H12595   5.292   3.656   6.843 -0.7505  2.7399 -1.7496
  816MOL0     H12596   5.599   3.353   7.044 -1.9785 -0.4382 -0.3931
  816MOL0     H12597   5.632   3.512   7.106  3.0990 -2.0285 -2.0465
  816MOL0     H12598   5.457   3.471   7.283 -0.7995 -1.8048  2.4859
  816MOL0     H12599   5.602   3.359   7.269 -0.7512  0.6053  1.4468
  816MOL0     H12600   5.375   3.254   7.125 -1.7858 -2.0551  1.1315
  816MOL0     H12601   5.475   3.181   7.262  0.9008 -0.3584 -2.1257
  816MOL0     H12602   5.245   3.379   7.287 -0.5891 -0.1572 -0.7042
  816MOL0     H12603   5.316   3.317   7.419 -0.5563  1.9561 -0.4964
  816MOL0     H12604   5.069   2.993   7.274  1.0226 -0.3735 -1.3844
  816MOL0     H12605   5.668   3.418   6.858  0.3210 -0.2466 -1.2047
  816MOL0     H12606   5.781   3.478   6.582  2.5431 -1.4445  1.5589
  816MOL0     H12607   5.752   3.324   6.644 -1.7532 -1.8463  0.0276
  816MOL0     H12608   5.657   3.351   6.507  0.4925 -1.1142  1.0182
  817MOL0     O12609   8.291   0.020   5.054  0.2670 -0.6852  0.1049
  817MOL0     C12610   8.328  -0.045   4.949  0.5918 -0.6322 -0.1707
  817MOL0     O12611   8.426  -0.143   4.944  0.4280 -0.1073 -0.3212
  817MOL0     C12612   8.495  -0.174   5.060  0.2784  0.2108 -1.0854
  817MOL0     C12613   8.534  -0.306   5.083  0.7789 -0.0445  0.2793
  817MOL0     C12614   8.595  -0.343   5.197 -0.2085 -0.6458 -0.5787
  817MOL0     C12615   8.632  -0.250   5.291 -0.4590 -0.4432  0.1441
  817MOL0     O12616   8.693  -0.282   5.408 -0.1131  0.2625  0.1124
  817MOL0     C12617   8.601  -0.290   5.526 -0.5382 -1.1219  0.4072
  817MOL0     C12618   8.668  -0.324   5.656 -0.3402  0.0364  0.1040
  817MOL0     C12619   8.762  -0.214   5.698  0.6860 -0.2487 -0.7695
  817MOL0     C12620   8.907  -0.236   5.649 -0.1517 -0.4630 -0.3716
  817MOL0     C12621   8.994  -0.110   5.667  0.3998  0.4437  0.1312
  817MOL0     C12622   9.115  -0.111   5.582 -0.3795 -0.7370  0.4181
  817MOL0     C12623   9.211   0.001   5.630 -0.2572  0.6994 -0.6667
  817MOL0     C12624   9.324   0.045   5.531  0.3479  0.9718  0.6795
  817MOL0     N12625   9.315  -0.004   5.390 -1.0323 -0.9384  0.5850
  817MOL0     C12626   9.312  -0.134   5.345  0.0055 -0.5836  0.2706
  817MOL0     C12627   9.327  -0.123   5.215  0.7438 -0.4186 -0.2751
  817MOL0     C12628   9.327  -0.244   5.136  0.7420  0.7976  0.8238
  817MOL0     C12629   9.188  -0.287   5.062  0.6167  0.3709 -0.7202
  817MOL0     C12630   9.095  -0.363   5.167 -0.0106  0.4151  0.0754
  817MOL0     C12631   8.941  -0.367   5.128 -1.0495  0.7361 -0.3921
  817MOL0     O12632   8.943  -0.416   4.996  0.0644  0.1718 -0.2396
  817MOL0     C12633   8.868  -0.536   4.985  0.3785 -0.7543 -0.6034
  817MOL0     C12634   8.936  -0.648   5.026  0.2759  0.8785  0.1727
  817MOL0     C12635   8.875  -0.771   4.999  0.0904 -0.5369  1.1020
  817MOL0     C12636   8.952  -0.890   5.052 -1.0044 -0.6804  0.0076
  817MOL0     C12637   8.753  -0.780   4.926 -0.9252  0.8286 -0.1630
  817MOL0     C12638   8.694  -0.902   4.880  0.2986 -0.0050 -0.9955
  817MOL0     O12639   8.569  -0.925   4.927  0.3632  0.0963  0.0558
  817MOL0     C12640   8.467  -0.971   4.845  0.3931  0.2680  0.3164
  817MOL0     C12641   8.480  -1.014   4.709 -1.1195 -0.6855 -0.4883
  817MOL0     C12642   8.380  -1.067   4.634 -0.4074  0.3654 -0.1850
  817MOL0     C12643   8.249  -1.076   4.688  0.3995 -0.5927 -1.0924
  817MOL0     O12644   8.147  -1.133   4.615  0.3772 -1.0987  0.1141
  817MOL0     C12645   8.134  -1.108   4.477  0.8491  0.4094 -0.0655
  817MOL0     C12646   8.099  -0.966   4.452  0.4220 -0.3454  1.3117
  817MOL0     C12647   7.976  -0.913   4.531 -0.0215 -0.0095 -0.3361
  817MOL0     C12648   7.904  -0.787   4.479  0.6097 -0.5431 -0.0605
  817MOL0     C12649   7.991  -0.669   4.455  0.5010 -0.3664 -0.4410
  817MOL0     C12650   7.925  -0.560   4.371  0.0610  0.6758  0.1217
  817MOL0     C12651   8.011  -0.432   4.353  0.0927 -0.3961  0.6890
  817MOL0     C12652   8.141  -0.457   4.271  0.0071 -0.0484 -0.1585
  817MOL0    Cl12653   8.115  -0.560   4.133 -0.2391  0.5787  0.6246
  817MOL0     C12654   8.232  -1.040   4.820 -0.2624 -0.8858  0.0964
  817MOL0     C12655   8.342  -0.995   4.898  0.0145  0.4575 -0.1595
  817MOL0     O12656   8.762  -0.984   4.819 -0.3653 -0.0635 -0.2091
  817MOL0     C12657   8.681  -0.662   4.900  0.5924  0.1353 -0.5035
  817MOL0     C12658   8.737  -0.536   4.927 -0.0431  0.4778  0.7808
  817MOL0     N12659   9.337   0.007   5.177  0.6158 -1.2758  0.7314
  817MOL0     N12660   9.337   0.077   5.280 -0.7091 -0.4686 -0.2017
  817MOL0     C12661   8.597  -0.118   5.272  0.8617 -0.2277  1.3565
  817MOL0     C12662   8.529  -0.075   5.155 -0.7757  1.4413 -0.2555
  817MOL0     C12663   8.234  -0.042   4.837  0.0346 -0.4202  0.4572
  817MOL0     C12664   8.091  -0.052   4.863 -0.9111  0.0647  0.3917
  817MOL0     C12665   8.010  -0.071   4.754  0.1883 -0.5407  0.9236
  817MOL0     C12666   8.052  -0.062   4.618  0.0191 -0.2386 -0.4704
  817MOL0     O12667   7.972  -0.073   4.508  0.2010 -0.5363 -0.7757
  817MOL0     C12668   7.857  -0.148   4.519  1.0024  0.3496  0.4158
  817MOL0     C12669   7.731  -0.090   4.589  0.0857 -0.5104 -0.4558
  817MOL0     C12670   7.737   0.058   4.613  0.0474 -0.1987 -0.3688
  817MOL0     C12671   7.631   0.107   4.720 -0.3388  0.1670 -0.7559
  817MOL0     C12672   7.653   0.049   4.851  0.2532  0.5170  0.1951
  817MOL0     C12673   7.670   0.011   4.972  0.5871  0.0942 -0.1697
  817MOL0     C12674   8.188  -0.052   4.599  0.0696 -0.5784  0.1945
  817MOL0     C12675   8.281  -0.056   4.702 -0.0973 -0.6191  1.0433
  817MOL0     C12676   8.414  -0.021   4.648 -0.6420 -0.0803 -0.4833
  817MOL0     H12677   8.503  -0.383   5.014 -1.6148  1.0429  0.0277
  817MOL0     H12678   8.607  -0.450   5.214  1.3128 -0.2278  1.4627
  817MOL0     H12679   8.520  -0.361   5.505  0.7520 -2.1594 -1.3556
  817MOL0     H12680   8.555  -0.191   5.538 -1.4364 -1.7351  2.2676
  817MOL0     H12681   8.590  -0.334   5.732  0.7066  0.5731  1.2926
  817MOL0     H12682   8.716  -0.422   5.664  0.7648  0.7033  4.2417
  817MOL0     H12683   8.724  -0.118   5.663 -1.4854  0.0239  1.9141
  817MOL0     H12684   8.758  -0.201   5.807 -1.2030 -2.9792 -0.4068
  817MOL0     H12685   8.954  -0.319   5.703  0.6856  1.5111  2.1673
  817MOL0     H12686   8.903  -0.265   5.544 -0.6528 -3.0306  0.2967
  817MOL0     H12687   9.029  -0.096   5.769  0.3996 -0.2571  0.2302
  817MOL0     H12688   8.930  -0.025   5.641 -0.3874 -0.7591 -2.1449
  817MOL0     H12689   9.171  -0.205   5.593 -1.5056 -1.1537  3.5163
  817MOL0     H12690   9.094  -0.093   5.476 -0.9237  1.0507  0.8006
  817MOL0     H12691   9.256  -0.033   5.723  0.5793  0.6492 -1.0867
  817MOL0     H12692   9.152   0.091   5.651  0.9615  1.1043  1.2974
  817MOL0     H12693   9.335   0.153   5.540  1.9023  0.7820  1.5853
  817MOL0     H12694   9.415  -0.003   5.569 -0.2205  1.3837  2.7017
  817MOL0     H12695   9.306  -0.222   5.408 -0.2515 -0.7100  0.0701
  817MOL0     H12696   9.375  -0.327   5.188  1.8342 -0.5317 -2.0540
  817MOL0     H12697   9.401  -0.221   5.058  1.8549 -0.9595  1.3211
  817MOL0     H12698   9.140  -0.193   5.031  2.0933  1.2017 -0.6259
  817MOL0     H12699   9.195  -0.357   4.979 -0.6305 -1.8008  0.9104
  817MOL0     H12700   9.127  -0.468   5.167  1.6028  0.8880 -0.9693
  817MOL0     H12701   9.095  -0.310   5.263  0.4548  2.6858 -1.1165
  817MOL0     H12702   8.895  -0.434   5.201 -0.4969 -1.4719 -1.9735
  817MOL0     H12703   8.889  -0.272   5.139  1.0811  1.9767 -0.5395
  817MOL0     H12704   9.030  -0.648   5.080  0.1704  0.9457  0.3581
  817MOL0     H12705   8.876  -0.938   5.114  0.6342  0.5520  3.2022
  817MOL0     H12706   9.029  -0.859   5.123  0.1679 -0.1539 -1.4384
  817MOL0     H12707   8.991  -0.959   4.976 -0.4797  0.9031 -1.2094
  817MOL0     H12708   8.581  -1.013   4.668  0.1582 -2.1765  2.3405
  817MOL0     H12709   8.405  -1.110   4.538 -0.0583 -1.5929  0.7487
  817MOL0     H12710   8.225  -1.130   4.421  1.3278 -2.2453  1.5608
  817MOL0     H12711   8.054  -1.169   4.435  0.9132  0.3627 -0.1171
  817MOL0     H12712   8.186  -0.903   4.475  2.4077 -2.0823 -0.8992
  817MOL0     H12713   8.091  -0.949   4.345  2.8572  2.2692  1.4081
  817MOL0     H12714   8.000  -0.906   4.637 -3.0267 -2.6532  0.6587
  817MOL0     H12715   7.899  -0.990   4.526  0.1510 -0.5030  2.8474
  817MOL0     H12716   7.817  -0.759   4.540  0.9754 -0.1607  0.2977
  817MOL0     H12717   7.865  -0.820   4.383  3.1822  3.3799 -2.7832
  817MOL0     H12718   8.030  -0.630   4.549  1.0680  2.1028 -1.5952
  817MOL0     H12719   8.074  -0.709   4.395 -1.0653 -2.8289 -1.0834
  817MOL0     H12720   7.842  -0.534   4.438 -0.2184 -0.0355  0.0524
  817MOL0     H12721   7.883  -0.603   4.279  0.2102  2.6035 -0.9100
  817MOL0     H12722   8.057  -0.408   4.450  1.5241  0.9289 -0.2784
  817MOL0     H12723   7.958  -0.347   4.310  0.1051 -0.0783  1.2846
  817MOL0     H12724   8.212  -0.509   4.337 -0.9362  1.4224  2.1522
  817MOL0     H12725   8.179  -0.358   4.243  2.2477 -0.2167  1.9772
  817MOL0     H12726   8.132  -1.039   4.861 -1.0158 -0.1171 -1.6310
  817MOL0     H12727   8.324  -0.970   5.002  0.1689 -3.2009  0.8643
  817MOL0     H12728   8.581  -0.676   4.862 -0.4433  2.4481  1.1187
  817MOL0     H12729   8.690  -0.441   4.905 -0.2674  0.2583  0.2991
  817MOL0     H12730   8.621  -0.042   5.345 -1.9760  2.3955 -0.1887
  817MOL0     H12731   8.509   0.032   5.154  2.7232  2.2121 -2.1659
  817MOL0     H12732   8.052  -0.050   4.964 -3.3577 -0.7508 -0.4454
  817MOL0     H12733   7.904  -0.075   4.778  0.1651 -1.7925  0.6896
  817MOL0     H12734   7.815  -0.172   4.421  1.4143 -2.2606  0.8072
  817MOL0     H12735   7.875  -0.243   4.571  5.8569  1.2624  0.8524
  817MOL0     H12736   7.728  -0.146   4.683 -0.9457  1.0892  0.5150
  817MOL0     H12737   7.644  -0.123   4.532  0.5100 -3.5690  0.4604
  817MOL0     H12738   7.834   0.089   4.653 -0.6018  0.4082  0.7957
  817MOL0     H12739   7.725   0.096   4.512 -1.4017 -1.0387 -0.5396
  817MOL0     H12740   7.533   0.073   4.685 -0.6444 -2.1187  1.8972
  817MOL0     H12741   7.636   0.215   4.735  1.4323  0.3234 -2.1954
  817MOL0     H12742   7.679  -0.029   5.071 -1.2546 -1.1781 -0.4488
  817MOL0     H12743   8.220  -0.051   4.496  3.1233 -0.4640  1.0578
  817MOL0     H12744   8.421  -0.045   4.542 -0.5298 -1.1647 -0.2456
  817MOL0     H12745   8.441   0.085   4.649  0.8455 -0.4104  1.7225
  817MOL0     H12746   8.490  -0.087   4.691 -1.1114  0.4099  1.2054
  818MOL0     O12747   2.120   0.292   7.874  0.4634  0.8709  0.0570
  818MOL0     C12748   2.177   0.190   7.918 -0.0019  0.9900 -0.3738
  818MOL0     O12749   2.141   0.065   7.891 -0.0660 -0.5008  0.6498
  818MOL0     C12750   2.049   0.041   7.793 -0.4777 -0.2372  1.1501
  818MOL0     C12751   2.085  -0.030   7.665 -0.7251  0.6472  0.6109
  818MOL0     C12752   1.987  -0.080   7.575 -0.4895  0.0145  0.3398
  818MOL0     C12753   1.848  -0.073   7.607  0.5937  0.6852 -0.4501
  818MOL0     O12754   1.753  -0.141   7.520 -0.1205  0.2397 -0.0794
  818MOL0     C12755   1.615  -0.153   7.571 -0.2817 -0.0501  0.6081
  818MOL0     C12756   1.536  -0.224   7.455  0.1615 -0.7570 -0.6614
  818MOL0     C12757   1.615  -0.341   7.400  0.0905 -0.8306  0.0227
  818MOL0     C12758   1.524  -0.419   7.300  0.1960 -0.2264 -0.0466
  818MOL0     C12759   1.605  -0.526   7.225 -0.7160  0.0691 -1.0869
  818MOL0     C12760   1.625  -0.655   7.317 -0.0972 -0.2103  0.4806
  818MOL0     C12761   1.715  -0.764   7.261  0.8231 -0.4650  0.2701
  818MOL0     C12762   1.863  -0.720   7.262  0.9935  0.7640  0.8171
  818MOL0     N12763   1.915  -0.689   7.385 -1.0077 -1.2619 -0.1534
  818MOL0     C12764   1.952  -0.560   7.424  0.0161 -0.0990 -0.7211
  818MOL0     C12765   1.997  -0.568   7.549 -0.6229  0.4601  0.7324
  818MOL0     C12766   2.046  -0.469   7.647  1.4085 -0.4050 -0.3524
  818MOL0     C12767   2.199  -0.482   7.662 -0.1663 -1.0069 -1.1523
  818MOL0     C12768   2.245  -0.385   7.773  0.7976 -0.2223  0.3105
  818MOL0     C12769   2.394  -0.386   7.811  0.0851 -0.2927  0.9120
  818MOL0     O12770   2.422  -0.516   7.874 -0.6688 -0.7461  0.2607
  818MOL0     C12771   2.551  -0.564   7.872 -0.7120  0.0857 -0.7492
  818MOL0     C12772   2.668  -0.477   7.890  0.2292  0.4678 -0.1747
  818MOL0     C12773   2.790  -0.534   7.902 -0.2870  0.3432 -0.0037
  818MOL0     C12774   2.901  -0.440   7.947  0.7092  0.3856  0.2124
  818MOL0     C12775   2.810  -0.675   7.874 -0.8051  0.1197  0.3177
  818MOL0     C12776   2.943  -0.729   7.849 -0.5003  0.0499 -0.3943
  818MOL0     O12777   2.963  -0.853   7.910 -0.1416 -0.3877  0.2621
  818MOL0     C12778   3.086  -0.915   7.895 -0.6431 -0.1950 -0.2428
  818MOL0     C12779   3.083  -1.050   7.884 -0.4954  0.8791  0.6545
  818MOL0     C12780   3.197  -1.127   7.890 -0.7990  0.8694 -0.0539
  818MOL0     C12781   3.324  -1.066   7.881 -0.5633  0.7762 -0.4700
  818MOL0     O12782   3.445  -1.137   7.892  0.0841  0.0128 -0.2276
  818MOL0     C12783   3.456  -1.269   7.931  0.1030  0.8097  0.3922
  818MOL0     C12784   3.594  -1.302   7.959 -0.5848 -1.0205 -0.0317
  818MOL0     C12785   3.605  -1.437   8.032 -0.0059 -0.2924 -1.1384
  818MOL0     C12786   3.745  -1.497   8.042  0.0260  0.2352  0.0706
  818MOL0     C12787   3.764  -1.590   8.165 -0.3440 -0.9863 -0.0788
  818MOL0     C12788   3.900  -1.660   8.141  0.4800 -0.0995  0.0865
  818MOL0     C12789   3.939  -1.737   8.273  0.4716  0.6022  0.3011
  818MOL0     C12790   4.054  -1.680   8.345 -1.0176 -0.9321 -0.2422
  818MOL0    Cl12791   4.051  -1.520   8.406  0.3004 -0.1708  0.2225
  818MOL0     C12792   3.328  -0.926   7.868  0.1386 -0.2986 -0.1459
  818MOL0     C12793   3.217  -0.849   7.880  1.0481 -0.4770 -0.3737
  818MOL0     O12794   3.013  -0.672   7.764 -0.2069  0.0123  0.3357
  818MOL0     C12795   2.698  -0.766   7.853  0.0887  0.1518 -0.5666
  818MOL0     C12796   2.567  -0.702   7.860 -0.4415  0.6072  0.6643
  818MOL0     N12797   1.993  -0.707   7.583 -0.2116  0.0248  0.3973
  818MOL0     N12798   1.935  -0.768   7.490  0.7386  0.2877 -0.4814
  818MOL0     C12799   1.816  -0.008   7.729 -0.1802 -0.8903 -1.0772
  818MOL0     C12800   1.910   0.047   7.818 -0.7957 -1.0128 -0.5453
  818MOL0     C12801   2.275   0.228   8.019 -0.5766 -0.2822 -0.3963
  818MOL0     C12802   2.363   0.122   8.047 -0.1573 -0.0371  0.8009
  818MOL0     C12803   2.455   0.126   8.144  0.3025  0.4194 -0.9959
  818MOL0     C12804   2.477   0.240   8.224  0.9041 -0.3473 -0.7363
  818MOL0     O12805   2.542   0.224   8.345  0.2186  0.3595 -1.2041
  818MOL0     C12806   2.562   0.322   8.450  0.3222  0.5757 -0.0803
  818MOL0     C12807   2.674   0.262   8.545  0.1102 -0.0977  0.2410
  818MOL0     C12808   2.623   0.176   8.663 -0.1797  0.2514 -0.0674
  818MOL0     C12809   2.734   0.147   8.772 -0.1161 -0.1006  1.3129
  818MOL0     C12810   2.830   0.052   8.732 -0.4890 -0.4631 -0.2099
  818MOL0     C12811   2.915  -0.030   8.698 -0.5253  0.6280 -0.4112
  818MOL0     C12812   2.399   0.353   8.197  1.5363 -0.1577 -0.1702
  818MOL0     C12813   2.297   0.346   8.096 -0.8149 -0.0441  0.3275
  818MOL0     C12814   2.216   0.469   8.074  0.3560 -0.1586  0.4875
  818MOL0     H12815   2.187  -0.051   7.635 -0.4029 -0.2954  2.2164
  818MOL0     H12816   2.013  -0.130   7.483  1.9068  0.9338  0.4458
  818MOL0     H12817   1.557  -0.062   7.589 -1.7961 -1.0446  0.9317
  818MOL0     H12818   1.604  -0.216   7.660  2.5211  0.4290  1.4066
  818MOL0     H12819   1.441  -0.260   7.496  0.1929  0.7230  0.8257
  818MOL0     H12820   1.530  -0.147   7.377  3.0347  1.4168  1.0469
  818MOL0     H12821   1.693  -0.295   7.339 -2.1870  3.3380 -0.1326
  818MOL0     H12822   1.655  -0.410   7.475  0.4662 -0.1823  0.4371
  818MOL0     H12823   1.439  -0.469   7.348  1.3316 -2.8168 -0.5914
  818MOL0     H12824   1.485  -0.344   7.230  1.8798 -1.9662 -3.0545
  818MOL0     H12825   1.702  -0.494   7.188  0.0792  1.2505  1.7655
  818MOL0     H12826   1.558  -0.563   7.133  0.9948 -5.0037 -0.2427
  818MOL0     H12827   1.668  -0.621   7.412 -0.3632 -1.9220  1.2505
  818MOL0     H12828   1.524  -0.695   7.331 -0.7764  1.0713 -0.5424
  818MOL0     H12829   1.695  -0.802   7.161  2.7557 -2.1542  0.4433
  818MOL0     H12830   1.703  -0.846   7.333  2.0685  1.5202  2.9333
  818MOL0     H12831   1.908  -0.803   7.208 -1.0199 -0.3532  0.7628
  818MOL0     H12832   1.864  -0.636   7.192 -0.0238  2.6495  2.9461
  818MOL0     H12833   1.937  -0.470   7.365 -0.8435  0.0448 -0.2874
  818MOL0     H12834   1.989  -0.478   7.740  0.6287  0.2160 -0.7595
  818MOL0     H12835   2.017  -0.368   7.616 -0.7863 -0.7890  0.3008
  818MOL0     H12836   2.220  -0.584   7.696 -0.2147 -0.4949  0.5093
  818MOL0     H12837   2.256  -0.459   7.572  1.8433 -2.5831 -0.3724
  818MOL0     H12838   2.213  -0.288   7.734 -1.3984 -1.6723 -1.7381
  818MOL0     H12839   2.188  -0.410   7.863 -3.0472 -0.5373 -2.0079
  818MOL0     H12840   2.458  -0.374   7.723  0.1935  0.8588  1.1346
  818MOL0     H12841   2.423  -0.301   7.874  0.6529  0.9143 -0.8873
  818MOL0     H12842   2.658  -0.371   7.912 -1.4179  0.0480  1.3962
  818MOL0     H12843   2.983  -0.495   7.995  1.4277  1.8175  0.6948
  818MOL0     H12844   2.861  -0.357   8.005  0.5958 -0.0716  0.7996
  818MOL0     H12845   2.946  -0.397   7.857  1.9812 -2.9639 -0.9122
  818MOL0     H12846   2.986  -1.098   7.895 -1.4459  2.8567  1.3073
  818MOL0     H12847   3.176  -1.227   7.925 -1.8675  2.1586  3.4198
  818MOL0     H12848   3.405  -1.278   8.028  2.2799 -0.8067  1.4473
  818MOL0     H12849   3.417  -1.331   7.849 -2.0329  1.6560  0.6855
  818MOL0     H12850   3.641  -1.327   7.864 -0.2884  1.5032 -0.6096
  818MOL0     H12851   3.651  -1.218   8.000 -1.2565 -1.0202  0.9324
  818MOL0     H12852   3.530  -1.507   7.996  0.5885 -1.2264 -0.5943
  818MOL0     H12853   3.574  -1.412   8.134  4.4584 -1.5924  0.8087
  818MOL0     H12854   3.820  -1.417   8.043  1.1766 -0.7908  2.4316
  818MOL0     H12855   3.745  -1.539   7.941  0.3117  2.2650 -0.8344
  818MOL0     H12856   3.771  -1.540   8.262  1.2697 -1.2259 -0.0414
  818MOL0     H12857   3.681  -1.661   8.172 -2.3963  1.3527  0.4530
  818MOL0     H12858   3.977  -1.592   8.103  0.5120  0.1168  0.5416
  818MOL0     H12859   3.883  -1.720   8.051 -2.9909  2.4661 -1.2035
  818MOL0     H12860   3.949  -1.842   8.245 -1.2732  0.3183  0.6187
  818MOL0     H12861   3.851  -1.741   8.337 -2.2040 -0.3178 -3.1079
  818MOL0     H12862   4.138  -1.691   8.276  0.3811  1.0939  1.0114
  818MOL0     H12863   4.085  -1.746   8.426  1.1043 -0.8258 -0.8848
  818MOL0     H12864   3.423  -0.878   7.849 -0.1619 -0.0478 -1.0634
  818MOL0     H12865   3.228  -0.741   7.881 -0.1291 -0.2919  2.4166
  818MOL0     H12866   2.705  -0.874   7.846 -1.3003 -0.0321  0.4293
  818MOL0     H12867   2.481  -0.768   7.871 -0.1896  0.2749  0.6733
  818MOL0     H12868   1.712   0.001   7.757  0.0173 -0.0657 -0.5772
  818MOL0     H12869   1.870   0.089   7.910  1.1916 -1.8682  0.7555
  818MOL0     H12870   2.346   0.030   7.991  0.6167  1.1691 -1.5258
  818MOL0     H12871   2.506   0.037   8.180  1.2482  0.9561 -0.9750
  818MOL0     H12872   2.605   0.411   8.403 -0.7308 -0.0566 -2.3515
  818MOL0     H12873   2.469   0.350   8.501  1.0633  1.0246  1.0733
  818MOL0     H12874   2.729   0.349   8.584  0.8946 -0.2172 -0.5584
  818MOL0     H12875   2.748   0.198   8.497  1.3062 -0.0813  1.9338
  818MOL0     H12876   2.540   0.222   8.717 -0.1025 -1.9829  2.1148
  818MOL0     H12877   2.585   0.082   8.621  0.0094 -0.6160  1.6189
  818MOL0     H12878   2.671   0.091   8.842  0.0098  1.4744  2.7708
  818MOL0     H12879   2.791   0.225   8.824  4.1437 -2.6960  1.0038
  818MOL0     H12880   2.988  -0.107   8.681 -1.1516  0.1200 -0.8552
  818MOL0     H12881   2.391   0.436   8.266 -3.2167 -0.2611 -0.2593
  818MOL0     H12882   2.218   0.542   8.155 -3.1054  1.4484 -0.6401
  818MOL0     H12883   2.237   0.516   7.977 -2.3312  3.0852  1.2881
  818MOL0     H12884   2.110   0.440   8.069  0.0077 -0.1402  4.5656
  819MOL0     O12885   9.261   1.261   9.907  0.3674 -0.7376  0.5141
  819MOL0     C12886   9.141   1.242   9.927 -0.4373 -0.2572  0.2411
  819MOL0     O12887   9.073   1.149   9.860  0.6251 -0.2078  0.1338
  819MOL0     C12888   9.097   1.131   9.729 -0.4001  0.0390  0.2689
  819MOL0     C12889   9.116   1.234   9.633  0.7632  0.2496 -0.2449
  819MOL0     C12890   9.132   1.185   9.499 -0.3556 -0.5177  0.0256
  819MOL0     C12891   9.137   1.057   9.470  0.1482 -0.0854  0.5981
  819MOL0     O12892   9.157   1.023   9.340  0.2409  0.4094 -0.0945
  819MOL0     C12893   9.270   1.085   9.261 -0.8615  0.6108  0.1529
  819MOL0     C12894   9.349   0.962   9.200 -0.5252 -0.2974 -0.2219
  819MOL0     C12895   9.264   0.861   9.116 -0.8186 -0.4932 -0.2797
  819MOL0     C12896   9.209   0.928   8.984  0.0589 -0.3225 -0.2932
  819MOL0     C12897   9.161   0.825   8.885  0.2014 -0.0234 -0.0250
  819MOL0     C12898   9.118   0.875   8.740  0.5847  0.1619 -0.4568
  819MOL0     C12899   9.119   0.751   8.653  0.1497 -1.5023  0.0179
  819MOL0     C12900   9.035   0.772   8.531 -0.4292  0.6869 -0.1164
  819MOL0     N12901   9.083   0.880   8.436  0.2486 -0.1401 -1.1441
  819MOL0     C12902   9.220   0.887   8.403  0.7423  0.7626  0.3405
  819MOL0     C12903   9.234   1.008   8.352 -0.3703  0.4178  0.7503
  819MOL0     C12904   9.358   1.052   8.275 -0.2990 -0.2644  0.5001
  819MOL0     C12905   9.348   0.992   8.136  0.6308  0.1140 -1.0384
  819MOL0     C12906   9.446   1.056   8.028 -0.0100  0.0346 -0.2911
  819MOL0     C12907   9.417   1.020   7.888 -0.4213  0.3914  0.5755
  819MOL0     O12908   9.482   0.891   7.853  0.8085  0.1329  0.7324
  819MOL0     C12909   9.407   0.776   7.869 -0.2312  0.0860 -0.3492
  819MOL0     C12910   9.272   0.760   7.822  0.4496  0.9028 -0.0334
  819MOL0     C12911   9.202   0.639   7.838 -0.1991 -0.7819 -0.4252
  819MOL0     C12912   9.056   0.636   7.812 -0.2122 -0.1831 -0.2517
  819MOL0     C12913   9.270   0.522   7.879 -0.1164  0.2477 -0.2112
  819MOL0     C12914   9.212   0.382   7.887 -0.1865 -0.3222  0.4293
  819MOL0     O12915   9.098   0.366   7.946 -0.0069  1.0223 -0.0514
  819MOL0     C12916   9.053   0.234   7.968  0.0151 -0.8197  1.1128
  819MOL0     C12917   9.122   0.125   8.014 -0.8322  0.2183 -0.6756
  819MOL0     C12918   9.057   0.004   8.015 -0.4595 -0.7647  0.6575
  819MOL0     C12919   8.936  -0.016   7.951 -0.1488 -0.4110  0.6607
  819MOL0     O12920   8.884  -0.144   7.942 -1.0976 -0.2734  0.0481
  819MOL0     C12921   8.751  -0.154   7.918  0.8585 -0.8020 -0.1767
  819MOL0     C12922   8.727  -0.308   7.914 -1.2345  0.2814  0.3512
  819MOL0     C12923   8.577  -0.346   7.912 -1.2735  0.6868  0.6411
  819MOL0     C12924   8.568  -0.510   7.914 -0.5752  0.0416 -0.5180
  819MOL0     C12925   8.432  -0.570   7.961 -0.1127  0.5272  0.5800
  819MOL0     C12926   8.454  -0.719   7.931 -0.9664 -0.2619  0.0029
  819MOL0     C12927   8.327  -0.799   7.968  0.4164  0.4077  0.3259
  819MOL0     C12928   8.342  -0.947   7.949 -1.1300 -0.0164  0.1081
  819MOL0    Cl12929   8.393  -0.995   7.783 -0.2787  0.0403  0.2649
  819MOL0     C12930   8.872   0.098   7.882 -0.5547 -0.1366 -0.2437
  819MOL0     C12931   8.935   0.219   7.896  0.0360 -0.0727  0.6347
  819MOL0     O12932   9.286   0.294   7.837 -0.0873 -0.1311 -0.2396
  819MOL0     C12933   9.401   0.544   7.935  0.7058  1.1820  0.1946
  819MOL0     C12934   9.468   0.666   7.928 -0.5208 -0.3277 -0.5176
  819MOL0     N12935   9.112   1.072   8.365 -0.0931 -0.4929  1.0295
  819MOL0     N12936   9.022   1.004   8.416  1.2933 -0.2032  0.0694
  819MOL0     C12937   9.105   0.956   9.559 -0.4081  0.3122 -0.3903
  819MOL0     C12938   9.093   0.993   9.694  0.2004 -0.0170  0.2638
  819MOL0     C12939   9.067   1.299  10.043  0.2572 -0.6191  0.2567
  819MOL0     C12940   9.136   1.311  10.166 -0.3247 -0.2994  1.1231
  819MOL0     C12941   9.075   1.374  10.272 -1.7939 -0.0358  0.7777
  819MOL0     C12942   8.946   1.438  10.265 -2.1711  0.6096 -0.6982
  819MOL0     O12943   8.907   1.497  10.383 -0.2957  0.0588  1.5157
  819MOL0     C12944   8.776   1.557  10.372  0.4609  0.0020  0.6436
  819MOL0     C12945   8.714   1.553  10.514 -0.1272  0.2862 -0.0418
  819MOL0     C12946   8.569   1.614  10.508 -0.5632 -0.0802 -0.4053
  819MOL0     C12947   8.519   1.608  10.652  0.1713 -1.0812 -0.5097
  819MOL0     C12948   8.374   1.660  10.647  0.5384  0.0057 -0.4129
  819MOL0     C12949   8.265   1.711  10.646  0.3948 -0.5005  0.5056
  819MOL0     C12950   8.889   1.442  10.137  0.8575  0.6643  0.0111
  819MOL0     C12951   8.946   1.369  10.025  0.8310 -0.5557 -0.9450
  819MOL0     C12952   8.885   1.374   9.889 -0.2053  0.0283  0.6000
  819MOL0     H12953   9.109   1.332   9.679  0.5069  1.1289 -2.0707
  819MOL0     H12954   9.134   1.252   9.413  0.7345 -2.6734 -1.7007
  819MOL0     H12955   9.341   1.139   9.324 -0.0015  1.2249 -1.2877
  819MOL0     H12956   9.234   1.154   9.185  0.9116  3.7997  2.0030
  819MOL0     H12957   9.419   1.014   9.134  0.7870 -1.5281  0.1491
  819MOL0     H12958   9.396   0.911   9.285 -0.4355  0.5982  0.2822
  819MOL0     H12959   9.323   0.775   9.084 -0.5791 -0.2590 -0.4739
  819MOL0     H12960   9.194   0.820   9.190  1.5258 -0.0399  2.3337
  819MOL0     H12961   9.128   0.994   9.017 -2.1996 -3.0368  0.0106
  819MOL0     H12962   9.293   0.989   8.949 -1.0356  1.2372 -0.2848
  819MOL0     H12963   9.079   0.764   8.925 -0.9403  1.0323 -0.7078
  819MOL0     H12964   9.247   0.757   8.874  0.6422  0.7990 -1.8854
  819MOL0     H12965   9.023   0.924   8.764  1.4268  1.7113 -0.1722
  819MOL0     H12966   9.193   0.947   8.706  3.6274 -2.6772 -0.2296
  819MOL0     H12967   9.082   0.666   8.711 -1.2236 -0.6919  0.3672
  819MOL0     H12968   9.222   0.729   8.624  0.9695  3.6127 -2.0252
  819MOL0     H12969   9.048   0.677   8.477  4.3947  1.1643 -0.2339
  819MOL0     H12970   8.932   0.784   8.563 -0.0863 -0.7548  1.7340
  819MOL0     H12971   9.294   0.807   8.395  1.1265  1.2824 -2.1792
  819MOL0     H12972   9.442   0.996   8.316 -0.0100 -1.7088 -1.8571
  819MOL0     H12973   9.362   1.161   8.259  0.8508 -0.6029 -1.9751
  819MOL0     H12974   9.357   0.884   8.149  0.7708  0.0273 -1.8359
  819MOL0     H12975   9.242   1.002   8.110  0.0604  0.1185  1.0834
  819MOL0     H12976   9.447   1.165   8.037  0.8557  0.0596 -0.5070
  819MOL0     H12977   9.546   1.021   8.054 -1.5449 -2.8541  2.2224
  819MOL0     H12978   9.308   1.029   7.886 -0.7864 -2.8246  0.1469
  819MOL0     H12979   9.462   1.095   7.823 -2.2390  1.4412  0.4475
  819MOL0     H12980   9.216   0.841   7.774 -1.5476  0.2065  1.0051
  819MOL0     H12981   8.994   0.616   7.900  0.5681  2.2128  0.9290
  819MOL0     H12982   9.019   0.558   7.744 -2.7194 -0.6783  1.5357
  819MOL0     H12983   9.021   0.731   7.772 -0.3336 -0.4315 -0.7467
  819MOL0     H12984   9.224   0.123   8.050  0.9328  0.3985 -5.1293
  819MOL0     H12985   9.121  -0.072   8.058  1.5742 -1.3148 -2.9379
  819MOL0     H12986   8.687  -0.111   7.996  1.4425  1.0870 -0.6915
  819MOL0     H12987   8.719  -0.116   7.820 -2.6655 -0.2436  1.0263
  819MOL0     H12988   8.780  -0.340   7.824 -0.7020  1.8853  0.0694
  819MOL0     H12989   8.778  -0.366   7.992 -3.4800 -4.0199 -1.0066
  819MOL0     H12990   8.521  -0.304   7.828  1.5297  1.8473 -0.8070
  819MOL0     H12991   8.531  -0.304   8.002  0.4425  1.0637  1.3866
  819MOL0     H12992   8.637  -0.540   7.993  0.3871  3.6381  0.1796
  819MOL0     H12993   8.605  -0.554   7.821  2.9795  1.7957 -0.0909
  819MOL0     H12994   8.414  -0.556   8.068 -3.2940 -1.1471  0.3827
  819MOL0     H12995   8.348  -0.537   7.900  0.0041  1.3495  0.8590
  819MOL0     H12996   8.547  -0.744   7.982 -0.5823  1.8183  0.4271
  819MOL0     H12997   8.476  -0.734   7.825  1.0280 -0.5818  0.4319
  819MOL0     H12998   8.251  -0.770   7.894  0.4994 -3.7066 -1.6467
  819MOL0     H12999   8.294  -0.782   8.071 -1.9166 -3.9895  0.5620
  819MOL0     H13000   8.247  -0.995   7.972 -1.8985  1.1480 -0.5224
  819MOL0     H13001   8.422  -0.974   8.018  1.5971 -0.1203 -2.8661
  819MOL0     H13002   8.772   0.097   7.840 -0.0360 -2.4635 -1.5872
  819MOL0     H13003   8.889   0.313   7.864 -0.0802 -0.6399 -0.9419
  819MOL0     H13004   9.441   0.456   7.984 -3.4270 -1.5582 -0.8198
  819MOL0     H13005   9.573   0.676   7.950 -0.5819 -1.2259  0.2548
  819MOL0     H13006   9.119   0.853   9.526  2.0172 -0.5700  2.8160
  819MOL0     H13007   9.067   0.913   9.763 -0.7086  0.0952  0.0567
  819MOL0     H13008   9.237   1.273  10.178  0.5536  0.8664 -1.7576
  819MOL0     H13009   9.142   1.375  10.358  0.4453 -1.1742 -0.8636
  819MOL0     H13010   8.798   1.663  10.358  3.0098 -0.3491  1.4290
  819MOL0     H13011   8.715   1.508  10.296  1.1589 -0.8768  0.6358
  819MOL0     H13012   8.777   1.609  10.584  0.8712  0.4800 -1.0708
  819MOL0     H13013   8.724   1.449  10.547  1.4543  0.7805  1.1727
  819MOL0     H13014   8.566   1.714  10.463 -0.0036 -0.0736 -0.4327
  819MOL0     H13015   8.510   1.543  10.450  0.2813  1.0754 -2.7932
  819MOL0     H13016   8.576   1.680  10.713  0.3188  1.1048 -3.0328
  819MOL0     H13017   8.532   1.506  10.690  2.2985 -0.8761 -0.5669
  819MOL0     H13018   8.180   1.773  10.665  4.2856  5.5022  0.9855
  819MOL0     H13019   8.793   1.487  10.115 -0.1690 -1.8598 -1.0216
  819MOL0     H13020   8.860   1.274   9.852 -1.5217  0.5949 -0.1189
  819MOL0     H13021   8.795   1.436   9.888 -3.3269 -4.0742 -0.7275
  819MOL0     H13022   8.957   1.412   9.816 -1.2796 -2.0066 -1.6670
  820MOL0     O13023   4.980  10.148   4.025 -0.8714 -0.1924 -0.4304
  820MOL0     C13024   5.052  10.231   3.963 -0.2234 -0.2114 -1.0439
  820MOL0     O13025   5.037  10.360   3.985 -0.8637 -0.0459 -0.7083
  820MOL0     C13026   4.978  10.414   4.095 -0.6734  0.6502  0.8429
  820MOL0     C13027   5.053  10.457   4.205 -0.2522 -0.6066 -0.3937
  820MOL0     C13028   4.990  10.511   4.319 -0.0200 -0.8177  0.5842
  820MOL0     C13029   4.852  10.514   4.334  1.0545  0.1606 -0.1702
  820MOL0     O13030   4.804  10.575   4.451 -0.5428  0.5166  0.3360
  820MOL0     C13031   4.677  10.639   4.463 -0.0600  0.2611 -0.0919
  820MOL0     C13032   4.552  10.547   4.483 -1.3766  0.4671  0.3945
  820MOL0     C13033   4.430  10.630   4.481  0.3421 -0.6930  0.9857
  820MOL0     C13034   4.308  10.546   4.496 -0.2654 -0.5055 -0.3360
  820MOL0     C13035   4.191  10.631   4.549 -0.0726 -0.4979 -0.0926
  820MOL0     C13036   4.059  10.554   4.570 -0.4023 -0.0074 -0.5564
  820MOL0     C13037   3.947  10.645   4.619  0.4592 -0.3544  0.1642
  820MOL0     C13038   3.807  10.613   4.561 -1.1436 -0.0391  0.5882
  820MOL0     N13039   3.785  10.667   4.420 -0.1902  0.6404 -0.1664
  820MOL0     C13040   3.876  10.652   4.313  0.4339 -0.3509  1.4649
  820MOL0     C13041   3.793  10.689   4.207 -0.7228  1.2091 -0.1609
  820MOL0     C13042   3.831  10.690   4.068  0.3030  0.2507 -0.0101
  820MOL0     C13043   3.914  10.819   4.017  0.3273  0.0219  0.5722
  820MOL0     C13044   3.822  10.939   3.994 -0.3884  0.7666 -0.5634
  820MOL0     C13045   3.891  11.042   3.918  0.4020  0.8417  0.4885
  820MOL0     O13046   4.013  11.086   3.967  0.2187  0.9122 -0.0627
  820MOL0     C13047   4.087  11.184   3.901  0.3765  1.4025 -0.1382
  820MOL0     C13048   4.219  11.204   3.945 -0.3109  0.4040 -0.0336
  820MOL0     C13049   4.307  11.286   3.870  0.7578 -0.8540 -0.0375
  820MOL0     C13050   4.437  11.298   3.931 -0.4448  0.3543  0.4058
  820MOL0     C13051   4.256  11.360   3.767  0.0405  0.7420  0.1679
  820MOL0     C13052   4.325  11.482   3.700 -0.0954  0.3995  1.1174
  820MOL0     O13053   4.292  11.536   3.578  0.1591  0.7776 -0.3163
  820MOL0     C13054   4.329  11.668   3.542  0.2840 -0.1869 -0.5783
  820MOL0     C13055   4.459  11.719   3.506 -0.6261 -0.0197 -0.1848
  820MOL0     C13056   4.477  11.853   3.492 -0.0371 -0.5235  0.1947
  820MOL0     C13057   4.374  11.947   3.507  0.7430  0.5203  0.1877
  820MOL0     O13058   4.407  12.076   3.472  1.4700  0.4884  0.0785
  820MOL0     C13059   4.305  12.178   3.473  0.3496  0.8756 -0.7242
  820MOL0     C13060   4.297  12.241   3.613 -0.4284 -0.9128 -0.2606
  820MOL0     C13061   4.216  12.371   3.603 -0.8227  0.0416 -0.0280
  820MOL0     C13062   4.189  12.446   3.733  0.3767 -0.0761  0.1369
  820MOL0     C13063   4.075  12.557   3.721  1.0070 -0.0242 -0.7471
  820MOL0     C13064   4.029  12.622   3.852  0.6693 -0.8781  0.6604
  820MOL0     C13065   3.928  12.742   3.829  0.3185 -0.1203  0.3389
  820MOL0     C13066   3.972  12.852   3.733 -0.6291 -0.4477 -0.6361
  820MOL0    Cl13067   3.826  12.963   3.704  0.1503 -0.3011 -0.7246
  820MOL0     C13068   4.247  11.906   3.552 -0.0258 -0.1328  0.2880
  820MOL0     C13069   4.225  11.763   3.562 -0.6751 -0.6564 -0.5690
  820MOL0     O13070   4.414  11.535   3.764  0.9092  0.3902 -0.5711
  820MOL0     C13071   4.114  11.358   3.732 -0.2340  0.1137  0.3807
  820MOL0     C13072   4.035  11.264   3.805  0.5477 -0.0621 -0.2097
  820MOL0     N13073   3.671  10.725   4.247 -0.4121 -0.3206 -0.5284
  820MOL0     N13074   3.669  10.711   4.374  0.2959 -0.5718 -0.6807
  820MOL0     C13075   4.780  10.467   4.226  0.8475 -0.3350  0.3059
  820MOL0     C13076   4.840  10.424   4.106  0.5968 -0.1601  1.4259
  820MOL0     C13077   5.149  10.187   3.858 -0.3326  0.0350  0.7965
  820MOL0     C13078   5.234  10.284   3.805 -0.5230 -0.3168  0.2217
  820MOL0     C13079   5.329  10.261   3.714  0.6424 -0.6347 -0.2238
  820MOL0     C13080   5.349  10.135   3.659 -0.0148  0.4028  0.0016
  820MOL0     O13081   5.448  10.116   3.570  0.0301 -0.6397  0.3268
  820MOL0     C13082   5.468   9.992   3.509 -0.2206 -0.0059 -0.5595
  820MOL0     C13083   5.569  10.009   3.399  0.4126 -0.6875  0.3395
  820MOL0     C13084   5.609   9.882   3.320 -0.2446  0.4025 -0.3468
  820MOL0     C13085   5.492   9.797   3.268  0.7941  0.6582 -0.4000
  820MOL0     C13086   5.508   9.656   3.269  0.4621  0.7662 -1.0117
  820MOL0     C13087   5.530   9.537   3.264  0.0808  0.7209  0.0807
  820MOL0     C13088   5.259  10.030   3.696  0.3202 -0.0761 -0.2433
  820MOL0     C13089   5.164  10.065   3.794 -0.3246  0.8500  0.7003
  820MOL0     C13090   5.056   9.953   3.816  0.3532  0.6080 -0.5436
  820MOL0     H13091   5.160  10.460   4.185 -0.2960 -0.9769 -0.6822
  820MOL0     H13092   5.050  10.550   4.401 -2.0945 -1.1211  2.3264
  820MOL0     H13093   4.658  10.704   4.377  0.4202  1.9665  1.0482
  820MOL0     H13094   4.678  10.693   4.558  1.0858  1.5539 -0.8004
  820MOL0     H13095   4.556  10.465   4.411 -1.2180 -0.6181  1.6000
  820MOL0     H13096   4.567  10.486   4.573 -3.6263 -4.3878 -2.1320
  820MOL0     H13097   4.444  10.704   4.560 -1.1932 -1.0227  1.6066
  820MOL0     H13098   4.417  10.687   4.388 -0.8938  0.1987  1.6701
  820MOL0     H13099   4.272  10.503   4.402 -0.6378  2.1880 -1.5262
  820MOL0     H13100   4.324  10.457   4.557 -1.2500 -0.4923 -0.0405
  820MOL0     H13101   4.167  10.720   4.490 -0.7253  1.1511  2.5290
  820MOL0     H13102   4.213  10.684   4.642 -2.3576 -0.9502  0.7684
  820MOL0     H13103   4.030  10.512   4.473  0.1631  0.0791 -0.7704
  820MOL0     H13104   4.073  10.467   4.634 -2.2113 -2.3715 -3.1503
  820MOL0     H13105   3.956  10.750   4.590 -0.9003 -0.8948 -2.5470
  820MOL0     H13106   3.952  10.637   4.728 -1.1608 -1.5148  0.1832
  820MOL0     H13107   3.799  10.504   4.567 -0.0417 -0.2343 -0.9552
  820MOL0     H13108   3.730  10.652   4.629 -2.0388  0.9493 -0.9360
  820MOL0     H13109   3.975  10.611   4.297 -0.3143 -1.6398 -0.2272
  820MOL0     H13110   3.742  10.667   4.009  2.1867  2.4249 -4.1526
  820MOL0     H13111   3.893  10.604   4.041 -0.9110 -0.9915  1.0465
  820MOL0     H13112   3.994  10.847   4.086  1.4960  3.8740 -2.0437
  820MOL0     H13113   3.951  10.785   3.920 -1.5576 -0.9429  0.1365
  820MOL0     H13114   3.728  10.914   3.944 -1.6236  3.0618  0.4611
  820MOL0     H13115   3.796  10.984   4.090 -1.0472  0.9413 -0.8215
  820MOL0     H13116   3.899  11.005   3.815 -1.2447  0.5712  0.4360
  820MOL0     H13117   3.826  11.129   3.909 -0.3399  0.2562  0.0836
  820MOL0     H13118   4.256  11.151   4.033  1.5273  2.0357  0.2535
  820MOL0     H13119   4.480  11.197   3.941  0.6409  0.8467  0.8546
  820MOL0     H13120   4.422  11.349   4.026 -0.1746 -0.0527  0.6747
  820MOL0     H13121   4.517  11.354   3.881 -0.9108  0.0906 -0.6506
  820MOL0     H13122   4.543  11.650   3.509  0.4057  1.1220 -1.2333
  820MOL0     H13123   4.579  11.878   3.463  0.0563  0.9043  1.6631
  820MOL0     H13124   4.326  12.246   3.390  0.8180  0.5589 -0.8683
  820MOL0     H13125   4.203  12.144   3.453  0.2871 -0.4290  1.5417
  820MOL0     H13126   4.264  12.168   3.687 -0.6547 -0.6818 -0.1318
  820MOL0     H13127   4.400  12.264   3.641 -0.4353 -1.8427  0.5738
  820MOL0     H13128   4.122  12.334   3.559 -0.7928 -1.8715  1.3758
  820MOL0     H13129   4.255  12.433   3.522  1.2362  2.5145  2.6556
  820MOL0     H13130   4.278  12.500   3.765 -1.3111  2.6217  0.5707
  820MOL0     H13131   4.149  12.379   3.810  0.7919 -0.5780 -0.0762
  820MOL0     H13132   4.106  12.630   3.646  0.3340  0.7170 -0.3143
  820MOL0     H13133   3.983  12.519   3.676  0.5144  0.2033  0.0374
  820MOL0     H13134   4.112  12.658   3.913  0.0416 -0.0822  1.0592
  820MOL0     H13135   3.972  12.549   3.911 -0.0376 -0.3135  0.6825
  820MOL0     H13136   3.900  12.797   3.920  0.3744  1.0585 -0.3326
  820MOL0     H13137   3.840  12.698   3.781  0.5190  0.9735 -1.0708
  820MOL0     H13138   4.004  12.820   3.633 -1.8771  1.7259 -1.8072
  820MOL0     H13139   4.055  12.906   3.781 -0.0441 -0.7334 -1.3063
  820MOL0     H13140   4.156  11.964   3.560  0.8309  1.2290  0.4484
  820MOL0     H13141   4.127  11.728   3.592 -0.6750  1.0977  1.7529
  820MOL0     H13142   4.080  11.415   3.646  0.8736 -1.4964 -1.1847
  820MOL0     H13143   3.933  11.238   3.779 -0.4162  0.4984  2.6503
  820MOL0     H13144   4.673  10.468   4.243  1.3226 -1.4281  4.2583
  820MOL0     H13145   4.785  10.379   4.024 -0.2898  0.8412  1.4431
  820MOL0     H13146   5.230  10.386   3.840  0.3595 -0.9199  2.2285
  820MOL0     H13147   5.396  10.339   3.679  3.5978 -1.9499  2.0485
  820MOL0     H13148   5.499   9.922   3.587 -1.7814  1.0727  1.0879
  820MOL0     H13149   5.375   9.959   3.461  0.1133 -0.4081 -0.9410
  820MOL0     H13150   5.664  10.054   3.429  0.2576  1.3717 -1.9470
  820MOL0     H13151   5.529  10.082   3.327  0.1236 -1.7725 -0.6199
  820MOL0     H13152   5.655   9.926   3.232  0.3470  0.7093  0.1059
  820MOL0     H13153   5.679   9.822   3.380  1.0628  1.5977 -0.6207
  820MOL0     H13154   5.478   9.811   3.160 -2.8592 -2.9055 -0.6389
  820MOL0     H13155   5.398   9.822   3.319 -0.6716 -0.9311 -2.1952
  820MOL0     H13156   5.565   9.437   3.248 -0.3074  0.7049 -0.7442
  820MOL0     H13157   5.291   9.930   3.667 -0.0277  0.1666 -1.5238
  820MOL0     H13158   5.052   9.918   3.919  1.0989 -2.3072 -1.4131
  820MOL0     H13159   4.958   9.991   3.787  1.3824  1.6483 -2.9525
  820MOL0     H13160   5.078   9.865   3.755 -0.0208  1.0626 -1.3496
  821MOL0     O13161   0.254   8.207   9.397 -0.6123  0.0837 -0.3505
  821MOL0     C13162   0.280   8.114   9.323 -0.5593  0.5175 -0.2783
  821MOL0     O13163   0.398   8.106   9.254  0.2189  0.1240  0.6716
  821MOL0     C13164   0.521   8.150   9.299 -0.5992  0.7137  0.0776
  821MOL0     C13165   0.558   8.151   9.443 -0.2952  0.2199  0.8813
  821MOL0     C13166   0.672   8.217   9.486 -0.5384  0.6884 -0.1078
  821MOL0     C13167   0.756   8.268   9.394  0.0451 -0.0761 -0.5431
  821MOL0     O13168   0.869   8.329   9.436 -0.2359  0.3997  1.1884
  821MOL0     C13169   0.997   8.287   9.379 -0.7934 -0.7523 -0.1902
  821MOL0     C13170   1.043   8.149   9.438 -0.0098  0.1321 -0.8700
  821MOL0     C13171   0.956   8.035   9.392 -0.2365 -0.5514 -0.3510
  821MOL0     C13172   1.028   7.902   9.425 -0.1153 -0.0503 -0.4584
  821MOL0     C13173   0.950   7.776   9.387 -0.0193  0.5789 -0.1270
  821MOL0     C13174   0.910   7.748   9.244  0.3484 -0.1258  0.4852
  821MOL0     C13175   0.869   7.602   9.212  1.3596  0.1747  0.0123
  821MOL0     C13176   0.837   7.589   9.056 -0.2613  0.0243  0.2700
  821MOL0     N13177   0.951   7.609   8.976  0.0012  0.2966  1.1368
  821MOL0     C13178   1.079   7.546   8.999  0.7284 -0.2049 -0.0777
  821MOL0     C13179   1.158   7.592   8.899  0.2818  0.6753  0.3007
  821MOL0     C13180   1.296   7.541   8.880  0.1619 -0.4558  1.1991
  821MOL0     C13181   1.310   7.427   8.782 -0.1592  0.1340 -0.2869
  821MOL0     C13182   1.254   7.286   8.828 -0.8026 -0.2639  1.0566
  821MOL0     C13183   1.258   7.176   8.709  0.4107  1.1119  0.3030
  821MOL0     O13184   1.146   7.179   8.615  0.1726 -0.5457  0.1601
  821MOL0     C13185   1.145   7.110   8.497 -0.5009  0.6536  0.3591
  821MOL0     C13186   1.264   7.097   8.427 -0.8377  0.6848  0.4644
  821MOL0     C13187   1.257   7.024   8.306 -0.6604 -0.3380  0.3061
  821MOL0     C13188   1.391   7.006   8.232 -0.8588 -0.3161  0.4046
  821MOL0     C13189   1.139   6.962   8.259  0.0166 -0.7925 -0.6777
  821MOL0     C13190   1.151   6.884   8.140  0.1121 -0.1090  1.1693
  821MOL0     O13191   1.101   6.948   8.023  0.1984 -0.0272 -0.5979
  821MOL0     C13192   1.075   6.878   7.913 -0.1112 -0.7720  0.4911
  821MOL0     C13193   0.969   6.789   7.919  0.2863  0.9381 -0.4196
  821MOL0     C13194   0.955   6.689   7.825  0.1791  0.1993  0.4214
  821MOL0     C13195   1.035   6.690   7.719  0.5448 -0.3251  0.3799
  821MOL0     O13196   1.006   6.593   7.626  0.7649 -0.2250  0.0090
  821MOL0     C13197   1.072   6.592   7.503 -0.3808 -0.0075  0.0892
  821MOL0     C13198   1.042   6.466   7.427  0.3011  0.4857  0.0754
  821MOL0     C13199   1.112   6.339   7.485 -0.0925 -0.1519  0.0115
  821MOL0     C13200   1.092   6.226   7.389  0.6961 -0.1287  0.7126
  821MOL0     C13201   0.942   6.193   7.392 -0.2190  0.4087  0.7294
  821MOL0     C13202   0.915   6.056   7.320 -0.3296 -0.1476 -0.2963
  821MOL0     C13203   0.769   6.021   7.286  0.3381  0.1101 -0.2721
  821MOL0     C13204   0.687   5.960   7.404  0.7267 -0.1005  0.1139
  821MOL0    Cl13205   0.680   6.069   7.539  0.0861  0.3140  0.1734
  821MOL0     C13206   1.143   6.790   7.706 -0.2046 -0.5647 -0.2727
  821MOL0     C13207   1.167   6.875   7.812  0.9523  0.4983  0.3097
  821MOL0     O13208   1.199   6.771   8.147 -0.2961  0.0928 -0.3414
  821MOL0     C13209   1.023   6.982   8.329  0.5868  0.3538 -0.9412
  821MOL0     C13210   1.025   7.061   8.436  0.1913 -0.4064  0.1812
  821MOL0     N13211   1.091   7.688   8.831  0.1906 -0.1908  0.9567
  821MOL0     N13212   0.966   7.690   8.875 -0.0585  0.4624  0.0455
  821MOL0     C13213   0.719   8.274   9.257 -0.9020 -0.9899 -0.3656
  821MOL0     C13214   0.607   8.219   9.209  0.9739  0.0721  0.7964
  821MOL0     C13215   0.196   7.994   9.301  0.0308 -0.9128 -0.3872
  821MOL0     C13216   0.253   7.877   9.242  0.6807  0.2115  0.1810
  821MOL0     C13217   0.186   7.754   9.227 -0.5754  0.1289  0.1380
  821MOL0     C13218   0.048   7.755   9.272 -0.1586 -0.1000  0.4040
  821MOL0     O13219  -0.030   7.646   9.253 -0.2431 -0.5633  0.2599
  821MOL0     C13220  -0.150   7.655   9.174 -0.5385 -0.1563  1.1074
  821MOL0     C13221  -0.208   7.520   9.144 -0.3639  0.8388  0.2854
  821MOL0     C13222  -0.121   7.439   9.040 -0.9801 -0.0502 -0.7805
  821MOL0     C13223  -0.007   7.351   9.092 -0.4066 -0.0889 -0.9413
  821MOL0     C13224  -0.079   7.246   9.165 -0.4702 -0.1379  0.6925
  821MOL0     C13225  -0.154   7.167   9.221 -0.2666  0.0534  1.2058
  821MOL0     C13226  -0.006   7.865   9.331 -0.1454  0.0473 -0.2950
  821MOL0     C13227   0.062   7.987   9.355 -0.0019 -0.0616  1.0324
  821MOL0     C13228  -0.015   8.098   9.432  0.2209 -0.5974  0.6012
  821MOL0     H13229   0.499   8.104   9.521  1.3279 -0.1992  1.8837
  821MOL0     H13230   0.698   8.212   9.592 -1.3761 -0.1815  0.0814
  821MOL0     H13231   1.069   8.362   9.414  0.6370 -2.2385  0.1922
  821MOL0     H13232   1.019   8.284   9.272 -1.4603  0.3134 -0.3726
  821MOL0     H13233   1.147   8.137   9.408  1.0116  0.1726  2.2831
  821MOL0     H13234   1.045   8.156   9.547  0.0855  2.9014 -0.9724
  821MOL0     H13235   0.868   8.037   9.457  1.9415  0.7325  2.8043
  821MOL0     H13236   0.928   8.046   9.287 -0.5082  1.9662 -0.0622
  821MOL0     H13237   1.120   7.900   9.367  0.0284  0.5660 -0.2550
  821MOL0     H13238   1.065   7.909   9.528  5.4784  4.6486 -2.2560
  821MOL0     H13239   0.863   7.783   9.453  0.4769  3.1016  0.3742
  821MOL0     H13240   1.013   7.693   9.420 -3.2094 -1.8565  0.2446
  821MOL0     H13241   0.829   7.818   9.221 -0.7673 -1.4460  0.3365
  821MOL0     H13242   1.004   7.765   9.190 -0.2365  1.7774 -0.0306
  821MOL0     H13243   0.778   7.583   9.269 -0.6421  0.8012 -2.7967
  821MOL0     H13244   0.942   7.523   9.235  1.0276 -0.4450 -1.0331
  821MOL0     H13245   0.795   7.490   9.037  0.7316 -0.2951 -0.3615
  821MOL0     H13246   0.778   7.680   9.041  2.4673  2.0445  0.8566
  821MOL0     H13247   1.106   7.486   9.086 -0.4351  2.2990  2.1653
  821MOL0     H13248   1.342   7.514   8.975 -0.6385  0.3112  1.8208
  821MOL0     H13249   1.368   7.612   8.839 -0.4864  1.2363  2.8763
  821MOL0     H13250   1.253   7.457   8.694 -2.7034 -2.3027  0.3721
  821MOL0     H13251   1.417   7.413   8.762  0.0714  0.6215  0.5617
  821MOL0     H13252   1.314   7.239   8.907  5.4083  0.4407 -2.5318
  821MOL0     H13253   1.147   7.297   8.845 -0.5350 -0.0724  2.7776
  821MOL0     H13254   1.350   7.172   8.649 -1.7527  4.4346 -3.7113
  821MOL0     H13255   1.262   7.075   8.752  0.7578  0.7075 -0.6612
  821MOL0     H13256   1.358   7.139   8.460 -0.3869 -0.6148  0.9002
  821MOL0     H13257   1.420   6.901   8.238  0.2084 -0.0907 -0.4661
  821MOL0     H13258   1.463   7.067   8.287 -3.2063  1.2288  1.9182
  821MOL0     H13259   1.383   7.046   8.130  1.2814 -0.0920  0.2816
  821MOL0     H13260   0.896   6.782   7.999 -1.1976 -0.0265 -1.7964
  821MOL0     H13261   0.875   6.615   7.824  0.4559 -0.0981  0.1508
  821MOL0     H13262   1.047   6.684   7.449  1.1520 -0.9400 -2.3932
  821MOL0     H13263   1.178   6.592   7.530 -0.9204 -0.4134  2.4477
  821MOL0     H13264   0.933   6.460   7.417  0.3066  2.1469 -1.5047
  821MOL0     H13265   1.069   6.483   7.322 -1.2660 -0.9926 -0.6283
  821MOL0     H13266   1.061   6.310   7.578  0.5965  1.1690  0.8355
  821MOL0     H13267   1.220   6.347   7.498  0.8542 -2.4505 -4.4352
  821MOL0     H13268   1.157   6.141   7.409  1.2067 -0.2602 -1.2554
  821MOL0     H13269   1.122   6.248   7.286 -2.1334 -0.4529 -0.2826
  821MOL0     H13270   0.900   6.203   7.493  3.5215  0.5927  2.4007
  821MOL0     H13271   0.887   6.263   7.327  1.6325  0.8581 -0.4151
  821MOL0     H13272   0.967   5.984   7.384  0.4516 -0.7234 -1.5471
  821MOL0     H13273   0.976   6.063   7.230 -1.9078  0.0362 -1.3895
  821MOL0     H13274   0.769   5.956   7.198  3.4155 -0.9932  0.4423
  821MOL0     H13275   0.731   6.122   7.264 -0.3611  0.1456  1.0003
  821MOL0     H13276   0.734   5.864   7.426 -1.4394 -1.1853  0.2625
  821MOL0     H13277   0.585   5.941   7.371 -0.1931  1.0975  2.0491
  821MOL0     H13278   1.210   6.792   7.622 -0.3448  0.6221 -0.3794
  821MOL0     H13279   1.246   6.949   7.825  1.7079 -0.4729  1.4719
  821MOL0     H13280   0.930   6.929   8.309  0.0799  0.6376  0.5350
  821MOL0     H13281   0.930   7.094   8.477  1.6374  3.3109  0.9425
  821MOL0     H13282   0.795   8.327   9.201 -0.4841  0.1591  1.1975
  821MOL0     H13283   0.572   8.217   9.106 -1.2401 -1.4864  1.4939
  821MOL0     H13284   0.354   7.880   9.202 -0.0772  1.6677 -1.8091
  821MOL0     H13285   0.230   7.665   9.184  0.6912  1.1041 -0.6637
  821MOL0     H13286  -0.222   7.725   9.217  0.7112  2.2057 -0.4039
  821MOL0     H13287  -0.110   7.697   9.081 -1.7530  2.1852  1.5871
  821MOL0     H13288  -0.305   7.534   9.096  0.0423 -0.6506 -1.0911
  821MOL0     H13289  -0.223   7.454   9.230 -0.0511 -0.2274 -0.4583
  821MOL0     H13290  -0.176   7.377   8.968  0.7925 -0.3870 -1.8920
  821MOL0     H13291  -0.072   7.510   8.973  4.1331  0.2851  2.7715
  821MOL0     H13292   0.060   7.399   9.163 -3.5690  3.2236  0.1458
  821MOL0     H13293   0.049   7.313   9.007 -3.7341 -0.3892 -3.1730
  821MOL0     H13294  -0.233   7.113   9.268 -1.0815  0.2681  0.1164
  821MOL0     H13295  -0.112   7.867   9.349 -0.0464  1.0917  0.2368
  821MOL0     H13296  -0.098   8.044   9.478 -1.5412 -0.2963 -1.9662
  821MOL0     H13297   0.037   8.151   9.512  1.7169 -2.4801  0.9517
  821MOL0     H13298  -0.058   8.174   9.366 -0.6498 -0.1638  1.6404
  822MOL0     O13299   0.543  10.279   9.082  0.1141 -0.2691 -0.8935
  822MOL0     C13300   0.645  10.334   9.128  0.7091  0.6952 -0.1836
  822MOL0     O13301   0.763  10.263   9.147  0.5887  0.0332 -0.5695
  822MOL0     C13302   0.753  10.128   9.115 -0.0185 -0.2722 -0.0507
  822MOL0     C13303   0.749  10.033   9.213  0.4484 -0.5593 -0.6524
  822MOL0     C13304   0.727   9.897   9.176 -0.0028  0.2973 -0.3795
  822MOL0     C13305   0.731   9.865   9.040  0.1159 -0.2829  0.4868
  822MOL0     O13306   0.736   9.732   8.989 -0.1510 -0.2808  0.2119
  822MOL0     C13307   0.785   9.637   9.085  0.5020  0.4103  0.0661
  822MOL0     C13308   0.879   9.533   9.005  0.4323 -0.9608 -0.4610
  822MOL0     C13309   0.826   9.482   8.872  0.2325 -0.3399  0.3974
  822MOL0     C13310   0.935   9.377   8.813 -0.2609  0.1253 -0.1292
  822MOL0     C13311   0.895   9.353   8.668  0.2248  0.7052  1.0285
  822MOL0     C13312   1.008   9.289   8.565 -0.4645  0.9726  0.3214
  822MOL0     C13313   0.943   9.301   8.430 -0.5285  0.7887  0.9534
  822MOL0     C13314   1.048   9.238   8.337 -0.7788  0.5397  0.0340
  822MOL0     N13315   1.028   9.299   8.205 -0.1855  0.1521  0.2837
  822MOL0     C13316   1.087   9.417   8.161 -0.7337  0.3511  0.2841
  822MOL0     C13317   1.034   9.425   8.034 -0.2113 -0.9085  1.1880
  822MOL0     C13318   1.072   9.522   7.928  0.3816  0.9221 -0.0464
  822MOL0     C13319   0.975   9.642   7.915 -0.3315 -0.0167  0.7537
  822MOL0     C13320   1.028   9.752   7.824 -0.1277 -0.3788 -0.4374
  822MOL0     C13321   1.101   9.861   7.905 -0.4817 -0.6455  0.8034
  822MOL0     O13322   1.131   9.981   7.835  0.1184 -0.1477 -0.0932
  822MOL0     C13323   1.219  10.068   7.884 -0.9526 -0.6448 -0.7600
  822MOL0     C13324   1.265  10.058   8.020 -0.2016 -0.1322  0.1716
  822MOL0     C13325   1.381  10.130   8.068  0.2686  0.5555 -0.3564
  822MOL0     C13326   1.439  10.087   8.205 -0.0660  0.4954  0.0285
  822MOL0     C13327   1.453  10.212   7.975 -0.0151 -0.6693  0.1663
  822MOL0     C13328   1.579  10.296   8.002 -1.3266 -0.6310 -1.2068
  822MOL0     O13329   1.663  10.324   7.901 -0.5256  0.6108 -0.8236
  822MOL0     C13330   1.781  10.391   7.914 -0.5693  0.3791 -0.0326
  822MOL0     C13331   1.810  10.471   7.801 -0.5294 -0.2673  0.9708
  822MOL0     C13332   1.944  10.522   7.788  0.1936  0.1695  0.0370
  822MOL0     C13333   2.037  10.510   7.895  0.0807 -0.8351  0.8038
  822MOL0     O13334   2.170  10.551   7.880  0.1750 -0.3950 -1.1184
  822MOL0     C13335   2.213  10.668   7.824 -0.5379  0.5012  0.0597
  822MOL0     C13336   2.175  10.791   7.908 -0.6549  0.1589 -0.5571
  822MOL0     C13337   2.223  10.784   8.050 -0.2745  0.2639  0.2750
  822MOL0     C13338   2.187  10.909   8.138 -0.3311 -0.2203  0.6771
  822MOL0     C13339   2.234  10.895   8.283  0.3423 -0.4462  0.9979
  822MOL0     C13340   2.213  11.032   8.350  0.2914 -0.5700 -0.4124
  822MOL0     C13341   2.237  11.020   8.507 -0.5498  0.9699  0.1209
  822MOL0     C13342   2.225  11.151   8.574 -0.6979  0.3321 -0.1078
  822MOL0    Cl13343   2.231  11.129   8.745  0.1306  0.1483  0.5416
  822MOL0     C13344   2.001  10.440   8.010  0.3081 -0.4814 -0.8157
  822MOL0     C13345   1.874  10.378   8.021 -0.5341 -0.2812  0.2535
  822MOL0     O13346   1.603  10.319   8.119  0.8020  0.2185 -0.2193
  822MOL0     C13347   1.393  10.223   7.848  0.0236 -0.0521  0.4255
  822MOL0     C13348   1.289  10.141   7.798  0.1595  0.2218 -0.7719
  822MOL0     N13349   0.939   9.326   8.011 -0.4458 -0.3577 -0.1061
  822MOL0     N13350   0.933   9.258   8.114  0.0334 -0.0209 -0.2759
  822MOL0     C13351   0.735   9.961   8.941 -0.0106  0.2683 -0.1130
  822MOL0     C13352   0.746  10.092   8.981  0.0504 -0.4206  0.4434
  822MOL0     C13353   0.629  10.484   9.157 -1.1359 -0.2318 -0.7370
  822MOL0     C13354   0.499  10.532   9.180 -0.4911 -0.1670 -0.4762
  822MOL0     C13355   0.479  10.678   9.190  0.8306  0.7217 -0.4645
  822MOL0     C13356   0.588  10.762   9.202  0.9233  0.2711 -0.9989
  822MOL0     O13357   0.576  10.900   9.212 -0.0455  0.0199 -0.1521
  822MOL0     C13358   0.442  10.952   9.179 -0.4023 -0.4429  0.5217
  822MOL0     C13359   0.456  11.101   9.160 -0.6127 -0.5334  0.0844
  822MOL0     C13360   0.545  11.126   9.044 -0.5850  0.8531  0.0667
  822MOL0     C13361   0.524  11.266   8.996  0.3561 -0.5734 -0.4416
  822MOL0     C13362   0.566  11.353   9.102 -1.1552 -0.8349  0.7643
  822MOL0     C13363   0.586  11.460   9.159 -0.1431  0.9970  0.8390
  822MOL0     C13364   0.708  10.715   9.167 -0.8735  0.5173 -0.0009
  822MOL0     C13365   0.732  10.580   9.143 -0.0212  0.5462 -1.4267
  822MOL0     C13366   0.882  10.543   9.121  1.0000  0.0660 -0.9923
  822MOL0     H13367   0.748  10.062   9.317 -2.1885  1.3115 -1.0890
  822MOL0     H13368   0.730   9.823   9.255 -1.4890 -0.8156 -1.3155
  822MOL0     H13369   0.709   9.590   9.148  2.5691 -1.2903  1.4396
  822MOL0     H13370   0.857   9.691   9.147  0.8764  0.1346 -0.1233
  822MOL0     H13371   0.974   9.586   8.994 -0.8822  2.4477  2.4283
  822MOL0     H13372   0.909   9.456   9.076  2.8103  1.3400  1.1955
  822MOL0     H13373   0.731   9.429   8.881  0.2218  0.0785  3.5740
  822MOL0     H13374   0.815   9.568   8.806  0.5725  0.1534  0.9760
  822MOL0     H13375   1.035   9.418   8.797  1.3376 -4.2615 -3.0063
  822MOL0     H13376   0.936   9.294   8.884  0.6133  1.0290  0.9489
  822MOL0     H13377   0.871   9.455   8.638 -0.0830  0.6527  1.0918
  822MOL0     H13378   0.806   9.290   8.675  1.5991 -1.6015 -0.7715
  822MOL0     H13379   1.096   9.355   8.564  2.0898 -2.1517  0.6758
  822MOL0     H13380   1.032   9.189   8.604  1.0212  0.9490 -0.5600
  822MOL0     H13381   0.921   9.407   8.414 -1.3609  0.3978 -0.7437
  822MOL0     H13382   0.850   9.245   8.435  1.5460 -2.8677  2.5186
  822MOL0     H13383   1.149   9.243   8.378 -1.7473  0.1625  2.7361
  822MOL0     H13384   1.022   9.131   8.338 -1.2690  0.6520  1.2522
  822MOL0     H13385   1.162   9.477   8.211  2.0944 -2.8494  0.2429
  822MOL0     H13386   1.085   9.473   7.831  0.9021 -1.1434  1.0216
  822MOL0     H13387   1.167   9.564   7.963  0.1355  0.0301  1.8267
  822MOL0     H13388   0.875   9.621   7.875 -1.5482  3.0600  1.8337
  822MOL0     H13389   0.959   9.688   8.013  2.8832  1.1641  0.8512
  822MOL0     H13390   1.095   9.712   7.748 -2.1454 -1.5658 -1.6877
  822MOL0     H13391   0.949   9.800   7.766  1.6333  3.2089 -0.1189
  822MOL0     H13392   1.038   9.899   7.987  0.4744  2.1135  0.3571
  822MOL0     H13393   1.192   9.813   7.943 -1.3997 -2.5194  0.7710
  822MOL0     H13394   1.205  10.001   8.090  1.9251 -1.6600  0.8636
  822MOL0     H13395   1.374  10.012   8.250 -1.5981 -0.6013 -3.6261
  822MOL0     H13396   1.448  10.180   8.261 -0.6220  0.3830  0.3092
  822MOL0     H13397   1.538  10.042   8.190 -0.0722  1.1605 -2.5767
  822MOL0     H13398   1.751  10.472   7.710  2.4514 -1.4037 -1.1389
  822MOL0     H13399   1.968  10.572   7.695  0.4323  2.5159  1.2792
  822MOL0     H13400   2.322  10.667   7.812 -0.6863  1.1918 -1.6155
  822MOL0     H13401   2.181  10.678   7.720 -0.9442 -0.8525  0.0317
  822MOL0     H13402   2.226  10.875   7.860  0.3326 -1.2049 -1.9935
  822MOL0     H13403   2.066  10.790   7.909 -0.9374 -5.9059  0.4016
  822MOL0     H13404   2.332  10.780   8.060 -0.5094 -1.9323  4.0269
  822MOL0     H13405   2.178  10.697   8.098 -3.3117  2.3114  1.4495
  822MOL0     H13406   2.079  10.923   8.128 -0.5018 -1.8079 -0.0724
  822MOL0     H13407   2.220  11.003   8.094  0.0739 -0.9405 -0.6220
  822MOL0     H13408   2.170  10.818   8.326 -0.2027 -1.2854 -1.1901
  822MOL0     H13409   2.338  10.866   8.300  0.1489 -0.6352  1.9155
  822MOL0     H13410   2.114  11.064   8.315  0.5277  0.4317 -0.1870
  822MOL0     H13411   2.287  11.100   8.307  1.5865 -0.7916  1.3762
  822MOL0     H13412   2.330  10.978   8.545 -0.1630 -1.5757 -3.1856
  822MOL0     H13413   2.160  10.953   8.547 -1.2608  2.3177  1.1092
  822MOL0     H13414   2.129  11.199   8.555 -2.1142 -2.3746 -0.4209
  822MOL0     H13415   2.304  11.221   8.546 -0.5529 -0.3348 -1.4657
  822MOL0     H13416   2.069  10.432   8.095 -0.6138  2.7533  0.3469
  822MOL0     H13417   1.860  10.331   8.118  2.9176  1.6144  1.8818
  822MOL0     H13418   1.436  10.289   7.774  0.2426  1.3509  1.7673
  822MOL0     H13419   1.255  10.146   7.695 -1.6064  1.9387 -0.1545
  822MOL0     H13420   0.711   9.935   8.838 -0.0268  1.1772 -0.3479
  822MOL0     H13421   0.741  10.179   8.917 -0.0734  1.2045  2.5719
  822MOL0     H13422   0.414  10.469   9.204  2.6134 -4.6819 -0.1283
  822MOL0     H13423   0.378  10.719   9.191  0.3069 -0.5254  0.7472
  822MOL0     H13424   0.423  10.906   9.081  0.1456 -2.3323  1.2617
  822MOL0     H13425   0.365  10.946   9.256  0.8936 -3.4593  1.7145
  822MOL0     H13426   0.491  11.150   9.252 -0.6412 -0.5091  0.0823
  822MOL0     H13427   0.358  11.143   9.136 -0.7512 -0.5769  0.5558
  822MOL0     H13428   0.651  11.112   9.070 -0.7264 -2.6265 -0.7553
  822MOL0     H13429   0.523  11.053   8.966  2.4858 -3.6831  2.9533
  822MOL0     H13430   0.418  11.285   8.979  0.6682  2.2115  0.2672
  822MOL0     H13431   0.569  11.273   8.896  0.4022 -1.3135 -0.4783
  822MOL0     H13432   0.610  11.556   9.202  3.2547 -0.7618  3.3748
  822MOL0     H13433   0.800  10.772   9.165 -1.6276  1.9362  2.2986
  822MOL0     H13434   0.926  10.564   9.219  3.5522 -0.7965 -1.8666
  822MOL0     H13435   0.896  10.438   9.093  0.7886  0.1658 -1.4857
  822MOL0     H13436   0.916  10.616   9.046 -0.6852  2.7791  0.7082
  823MOL0     O13437   4.541  10.709   7.309  0.5042 -0.2808 -0.1087
  823MOL0     C13438   4.607  10.798   7.256  0.4730  0.4880  0.5042
  823MOL0     O13439   4.582  10.924   7.283  0.1550  0.4930  0.3747
  823MOL0     C13440   4.473  10.966   7.347  0.1832  0.0784 -0.7573
  823MOL0     C13441   4.428  10.911   7.461  0.1371  0.9452 -0.5350
  823MOL0     C13442   4.297  10.936   7.512 -0.2380 -0.5052 -0.4705
  823MOL0     C13443   4.223  11.038   7.448 -0.2837  0.9578 -0.0579
  823MOL0     O13444   4.110  11.068   7.519  0.0922 -0.1846 -0.1028
  823MOL0     C13445   4.028  11.177   7.476  0.0044  0.3068 -0.3573
  823MOL0     C13446   3.904  11.184   7.570 -0.0349  0.8717  0.1576
  823MOL0     C13447   3.925  11.260   7.707 -0.0799 -1.4638  0.4397
  823MOL0     C13448   3.849  11.398   7.730 -0.7745  0.6744 -0.5306
  823MOL0     C13449   3.870  11.449   7.880  0.2244  0.1354  0.6029
  823MOL0     C13450   3.766  11.561   7.902 -0.4205  0.1787  0.3015
  823MOL0     C13451   3.807  11.644   8.020 -0.1228  0.1669 -0.2154
  823MOL0     C13452   3.709  11.745   8.055 -0.7529 -0.2628  0.3309
  823MOL0     N13453   3.700  11.858   7.958 -0.0695  0.0373 -0.0609
  823MOL0     C13454   3.643  11.864   7.835 -0.4658 -0.3979 -0.3802
  823MOL0     C13455   3.673  11.984   7.777 -0.2268  0.0085 -0.8209
  823MOL0     C13456   3.637  12.026   7.639  0.8243 -0.2810 -0.1109
  823MOL0     C13457   3.757  11.977   7.552  0.3492  0.2552  0.5306
  823MOL0     C13458   3.718  11.996   7.407  0.2024 -0.3907  0.8844
  823MOL0     C13459   3.840  11.988   7.312  0.3984  0.5585  0.0207
  823MOL0     O13460   3.918  12.110   7.330  0.8121  0.3233  0.2882
  823MOL0     C13461   4.001  12.133   7.224  0.5191 -1.1181 -0.1889
  823MOL0     C13462   4.105  12.051   7.192 -0.5109  0.5401  0.2640
  823MOL0     C13463   4.202  12.076   7.087  0.2083  0.7763  0.5798
  823MOL0     C13464   4.306  11.969   7.068  0.4211 -0.9133  0.2914
  823MOL0     C13465   4.200  12.203   7.024  0.6455 -1.1766  0.7878
  823MOL0     C13466   4.308  12.243   6.923  0.0170  0.7750  0.1337
  823MOL0     O13467   4.374  12.142   6.860 -0.6664 -0.0305 -0.2960
  823MOL0     C13468   4.479  12.164   6.775 -0.3160 -0.4322 -0.2041
  823MOL0     C13469   4.478  12.255   6.670  0.0429  0.4850 -0.1430
  823MOL0     C13470   4.585  12.261   6.582 -0.3302 -0.6665 -0.7905
  823MOL0     C13471   4.692  12.170   6.586  0.1005  0.4831 -1.0811
  823MOL0     O13472   4.800  12.174   6.504 -1.0038 -0.0711  0.4846
  823MOL0     C13473   4.812  12.257   6.391 -0.1570  0.0834  0.5344
  823MOL0     C13474   4.963  12.269   6.361  0.6966 -0.3897 -0.3530
  823MOL0     C13475   5.028  12.153   6.304  0.2504  0.0232  0.4717
  823MOL0     C13476   5.170  12.137   6.343 -0.3835  0.4918 -0.5483
  823MOL0     C13477   5.254  12.254   6.314 -0.0090 -0.2309  0.7061
  823MOL0     C13478   5.400  12.229   6.353 -0.2326 -0.6352 -0.2513
  823MOL0     C13479   5.468  12.110   6.292 -0.3608  0.0992 -0.1862
  823MOL0     C13480   5.475  12.119   6.137  0.3958  0.1779  0.6370
  823MOL0    Cl13481   5.596  12.246   6.103 -0.4403 -0.2326 -0.1529
  823MOL0     C13482   4.695  12.086   6.702  0.0108  0.2093  0.3767
  823MOL0     C13483   4.587  12.088   6.791 -0.1852 -0.3740 -0.0875
  823MOL0     O13484   4.311  12.360   6.893 -0.1605 -0.6228  0.1985
  823MOL0     C13485   4.094  12.295   7.062 -1.2250 -0.0536 -0.0055
  823MOL0     C13486   3.992  12.256   7.154 -0.0211  0.1755  1.5967
  823MOL0     N13487   3.754  12.049   7.873  0.5609 -0.5812  0.1199
  823MOL0     N13488   3.759  11.982   7.986  0.7646 -0.6983  0.2607
  823MOL0     C13489   4.280  11.122   7.351 -0.2609  0.0939  0.8876
  823MOL0     C13490   4.410  11.086   7.299  1.2706  0.9065  0.5606
  823MOL0     C13491   4.725  10.781   7.171 -0.7153  0.7488 -0.4753
  823MOL0     C13492   4.804  10.890   7.141  0.5894 -0.1966 -0.0808
  823MOL0     C13493   4.919  10.887   7.067 -0.0456 -0.2560  0.6080
  823MOL0     C13494   4.965  10.766   7.015 -0.0693 -0.1420 -0.0461
  823MOL0     O13495   5.078  10.748   6.934  0.1830  0.7443 -0.3101
  823MOL0     C13496   5.166  10.862   6.919  0.5966  0.2044 -0.1722
  823MOL0     C13497   5.227  10.903   7.058 -0.1726 -0.0096  1.6696
  823MOL0     C13498   5.360  10.968   7.030  0.0079  0.2601 -0.3849
  823MOL0     C13499   5.434  10.971   7.160  0.6366 -0.0276 -0.0039
  823MOL0     C13500   5.541  11.068   7.142  0.3336  0.5316  0.0165
  823MOL0     C13501   5.629  11.149   7.126 -0.0037 -0.5385 -0.6260
  823MOL0     C13502   4.879  10.662   7.031  0.2199  1.0228 -0.0794
  823MOL0     C13503   4.767  10.661   7.110 -0.2549 -0.3830  0.2328
  823MOL0     C13504   4.690  10.532   7.107 -0.5003 -1.1199 -0.6248
  823MOL0     H13505   4.482  10.832   7.513 -2.5472 -0.5649  0.1244
  823MOL0     H13506   4.244  10.870   7.581 -0.3374 -1.2902 -1.2866
  823MOL0     H13507   3.996  11.163   7.372 -1.1707 -1.6690  0.2202
  823MOL0     H13508   4.068  11.279   7.468 -1.6623  0.8994 -2.0790
  823MOL0     H13509   3.810  11.202   7.517 -0.1464 -3.0922 -1.3899
  823MOL0     H13510   3.877  11.083   7.603  1.1099  0.0088 -1.3946
  823MOL0     H13511   3.898  11.202   7.795 -2.6895 -1.3890 -0.2111
  823MOL0     H13512   4.026  11.298   7.721 -0.3302 -0.8200  0.5477
  823MOL0     H13513   3.876  11.474   7.657 -0.1334  1.7972  0.8247
  823MOL0     H13514   3.740  11.387   7.722 -0.4855 -1.4887 -2.2029
  823MOL0     H13515   3.976  11.467   7.897  0.0187  2.9703 -0.5911
  823MOL0     H13516   3.839  11.365   7.944 -0.4418  0.2656  0.4666
  823MOL0     H13517   3.754  11.628   7.817 -0.1490  1.8375  1.5280
  823MOL0     H13518   3.671  11.510   7.921 -2.0466  1.6006 -3.2142
  823MOL0     H13519   3.895  11.697   7.981  1.1676 -0.0945  2.1602
  823MOL0     H13520   3.834  11.582   8.106 -0.3075 -0.4819 -0.6222
  823MOL0     H13521   3.614  11.698   8.080 -1.7627  0.6818 -1.4837
  823MOL0     H13522   3.748  11.799   8.142 -0.7425  3.7838 -1.9486
  823MOL0     H13523   3.580  11.793   7.783 -1.1068  1.3091 -2.0852
  823MOL0     H13524   3.622  12.134   7.641  1.8401 -0.1129  2.3407
  823MOL0     H13525   3.541  11.983   7.608  0.8648  0.8834 -1.9825
  823MOL0     H13526   3.845  12.038   7.575 -0.0791  1.5691 -1.1083
  823MOL0     H13527   3.777  11.874   7.584 -4.8519 -1.0429  0.4491
  823MOL0     H13528   3.647  11.914   7.391  1.2740 -1.2715  0.4938
  823MOL0     H13529   3.667  12.092   7.396 -0.1470 -0.8029 -1.7894
  823MOL0     H13530   3.910  11.907   7.332 -0.8587  0.0415  2.7149
  823MOL0     H13531   3.807  11.980   7.208 -3.4581  1.2134  1.0210
  823MOL0     H13532   4.109  11.954   7.240  1.0262  0.1990 -0.4824
  823MOL0     H13533   4.323  11.932   6.967  1.8878 -2.5910  1.1036
  823MOL0     H13534   4.275  11.876   7.116  2.8011 -1.4613  0.9241
  823MOL0     H13535   4.406  11.991   7.107  0.9554 -1.2223 -0.8929
  823MOL0     H13536   4.403  12.333   6.665 -1.0284 -0.5040  0.0316
  823MOL0     H13537   4.569  12.331   6.501  2.3392 -0.1023 -0.9330
  823MOL0     H13538   4.745  12.209   6.319 -0.9945 -0.4206  1.6067
  823MOL0     H13539   4.774  12.358   6.411 -1.0257  0.6602 -3.3227
  823MOL0     H13540   4.973  12.343   6.281  1.7626  0.5936  0.6686
  823MOL0     H13541   5.014  12.314   6.447 -1.1064  0.2365  0.4330
  823MOL0     H13542   5.040  12.166   6.196  1.9070  2.7729  0.8683
  823MOL0     H13543   4.970  12.063   6.322  2.7139 -1.4382  1.5546
  823MOL0     H13544   5.205  12.051   6.286 -3.7938 -2.3428  1.2303
  823MOL0     H13545   5.178  12.113   6.450  2.0483 -1.5679 -1.0969
  823MOL0     H13546   5.251  12.272   6.206  0.9876  0.3360  0.7536
  823MOL0     H13547   5.224  12.341   6.373  2.3253  3.2012 -2.6920
  823MOL0     H13548   5.418  12.225   6.461  0.2593  1.0769 -0.2447
  823MOL0     H13549   5.461  12.317   6.330 -1.8799  0.9589  1.1412
  823MOL0     H13550   5.410  12.023   6.324 -4.0558  2.3207 -0.2123
  823MOL0     H13551   5.567  12.095   6.335 -0.2703  1.1362 -0.0058
  823MOL0     H13552   5.381  12.119   6.081  1.4091  0.3847 -1.1518
  823MOL0     H13553   5.520  12.025   6.106 -0.0708  0.2991 -0.4768
  823MOL0     H13554   4.774  12.014   6.724 -0.1469  0.0054  0.2845
  823MOL0     H13555   4.586  12.015   6.871  2.3148  0.7732  1.0825
  823MOL0     H13556   4.073  12.393   7.020 -0.7932 -0.2916 -0.8080
  823MOL0     H13557   3.916  12.326   7.187  0.0459 -0.0967  2.3367
  823MOL0     H13558   4.241  11.213   7.307  2.6259  0.8918 -0.2711
  823MOL0     H13559   4.444  11.144   7.214 -1.1698 -1.8524 -2.5800
  823MOL0     H13560   4.792  10.985   7.192 -0.6060 -0.6593  0.5119
  823MOL0     H13561   4.970  10.982   7.059  0.9241 -0.8189 -0.0408
  823MOL0     H13562   5.246  10.830   6.852  1.2125  0.7690  0.2720
  823MOL0     H13563   5.119  10.951   6.876  1.3734  0.5651 -0.2963
  823MOL0     H13564   5.239  10.818   7.126 -0.6925  1.0232  3.1035
  823MOL0     H13565   5.156  10.972   7.106  0.1127  1.7732 -0.3268
  823MOL0     H13566   5.417  10.905   6.961 -0.0907  0.1901 -0.4014
  823MOL0     H13567   5.337  11.068   6.991  1.6964  1.1794  0.8149
  823MOL0     H13568   5.468  10.874   7.198 -0.9751  0.2691  2.3885
  823MOL0     H13569   5.364  11.011   7.233 -0.1083 -1.0421 -0.1505
  823MOL0     H13570   5.703  11.224   7.105  0.3314 -0.8646 -0.6076
  823MOL0     H13571   4.917  10.565   6.999 -0.2485 -0.2748  2.9584
  823MOL0     H13572   4.710  10.474   7.197 -1.8595  0.2576  0.6160
  823MOL0     H13573   4.583  10.551   7.096 -0.6708 -1.4000  0.4658
  823MOL0     H13574   4.721  10.475   7.019  4.0057 -0.3484  0.1983
  824MOL0     O13575   5.346   3.807   3.147 -0.9506  0.5434  0.3913
  824MOL0     C13576   5.254   3.883   3.168 -0.7773 -1.4870  0.8856
  824MOL0     O13577   5.224   3.991   3.087 -0.4567 -0.0522  0.1288
  824MOL0     C13578   5.297   4.009   2.976  0.7032  0.4688 -0.2847
  824MOL0     C13579   5.384   4.116   2.963 -0.3295  0.5509  0.5678
  824MOL0     C13580   5.463   4.153   2.856  0.1677  1.1341  0.9364
  824MOL0     C13581   5.439   4.079   2.736  0.1500 -0.7489  0.5275
  824MOL0     O13582   5.491   4.122   2.618 -0.7507  0.6146  0.1910
  824MOL0     C13583   5.435   4.231   2.546 -0.1692 -0.2474  0.0594
  824MOL0     C13584   5.333   4.195   2.435 -0.0091  0.9898  0.0568
  824MOL0     C13585   5.196   4.145   2.476 -0.1632 -0.9637 -0.2848
  824MOL0     C13586   5.096   4.146   2.357  0.1757 -0.0702  0.3020
  824MOL0     C13587   4.949   4.122   2.406 -0.1438  0.5769 -0.4619
  824MOL0     C13588   4.860   4.111   2.292  0.7003 -0.0821  0.4421
  824MOL0     C13589   4.719   4.085   2.333  0.3840 -0.0641 -0.0598
  824MOL0     C13590   4.632   4.030   2.214  0.0475 -0.7698 -0.1810
  824MOL0     N13591   4.493   4.038   2.275 -0.0877  0.2974  0.2780
  824MOL0     C13592   4.421   3.940   2.341  0.6529  0.6204 -0.9625
  824MOL0     C13593   4.301   3.986   2.366  0.3437 -0.8227  0.6131
  824MOL0     C13594   4.183   3.916   2.422 -0.3800  0.1265  0.6261
  824MOL0     C13595   4.121   3.989   2.543 -0.4945 -0.3055  0.1126
  824MOL0     C13596   4.003   3.901   2.596 -0.5745 -1.2929  0.2863
  824MOL0     C13597   3.918   3.949   2.713 -0.5573  0.3243 -0.6175
  824MOL0     O13598   3.853   3.837   2.780 -0.3911 -0.5006  0.4691
  824MOL0     C13599   3.786   3.865   2.900  0.2643 -1.5583  0.8378
  824MOL0     C13600   3.782   3.750   2.975 -0.5460 -0.5247  0.3575
  824MOL0     C13601   3.711   3.761   3.097 -0.3233  0.1262 -0.0154
  824MOL0     C13602   3.699   3.641   3.180  0.6747  0.4342  0.5638
  824MOL0     C13603   3.661   3.893   3.140  0.0624 -0.9014  0.5403
  824MOL0     C13604   3.588   3.914   3.259  0.8130 -0.6438  0.1205
  824MOL0     O13605   3.530   3.811   3.327  0.0297 -0.2362 -0.6413
  824MOL0     C13606   3.443   3.829   3.437  0.4921 -0.2221  0.0839
  824MOL0     C13607   3.335   3.916   3.438 -0.4465  0.1291  0.6783
  824MOL0     C13608   3.237   3.902   3.534  0.8361 -0.5657  0.2678
  824MOL0     C13609   3.236   3.809   3.635 -0.3632 -0.1162  0.0453
  824MOL0     O13610   3.119   3.802   3.710 -0.3121 -0.7602 -0.0456
  824MOL0     C13611   3.129   3.732   3.835  0.6409  0.0336 -0.1542
  824MOL0     C13612   2.991   3.715   3.892 -0.4017 -0.3623  0.5808
  824MOL0     C13613   2.908   3.603   3.816  0.1443  0.2930  0.0042
  824MOL0     C13614   2.764   3.604   3.865  0.0630  0.1995 -0.6558
  824MOL0     C13615   2.692   3.486   3.806 -0.2635  0.0994 -0.4851
  824MOL0     C13616   2.575   3.430   3.901  0.7258 -0.2471  0.3419
  824MOL0     C13617   2.637   3.361   4.016  0.3127 -0.5488 -0.2831
  824MOL0     C13618   2.539   3.275   4.099 -0.8891 -1.0852  0.1559
  824MOL0    Cl13619   2.452   3.147   3.999  0.1270 -0.0379 -0.0274
  824MOL0     C13620   3.344   3.724   3.638 -0.3228 -1.2009 -0.2840
  824MOL0     C13621   3.445   3.734   3.538 -0.3508  0.3226  0.4938
  824MOL0     O13622   3.575   4.032   3.292 -0.4604  0.8146  0.5910
  824MOL0     C13623   3.687   4.007   3.059  1.0802  0.4521 -0.0446
  824MOL0     C13624   3.739   3.992   2.934 -1.3758 -0.4155  0.7439
  824MOL0     N13625   4.311   4.125   2.337 -0.1766 -0.1687 -0.1977
  824MOL0     N13626   4.425   4.154   2.284  0.0410  0.6075 -0.2237
  824MOL0     C13627   5.355   3.965   2.740 -0.0283 -0.2445  0.8123
  824MOL0     C13628   5.297   3.931   2.868  0.0889  0.4522 -1.1719
  824MOL0     C13629   5.164   3.871   3.288 -0.8062 -0.0290 -0.8226
  824MOL0     C13630   5.080   3.981   3.322  0.6196  0.0969  0.2415
  824MOL0     C13631   4.999   3.969   3.441 -0.0084 -0.4401  0.5700
  824MOL0     C13632   5.000   3.858   3.526  0.5275 -0.5703 -0.1143
  824MOL0     O13633   4.926   3.855   3.640  0.3557  0.3066  0.2658
  824MOL0     C13634   4.794   3.914   3.642 -0.4356  0.7499  0.0483
  824MOL0     C13635   4.685   3.845   3.564 -0.1095 -0.0097 -0.4837
  824MOL0     C13636   4.657   3.708   3.619 -0.3965 -0.4034 -0.1450
  824MOL0     C13637   4.618   3.606   3.509  0.0519  0.8571  0.7910
  824MOL0     C13638   4.563   3.483   3.575  0.2263 -0.3539 -0.8534
  824MOL0     C13639   4.515   3.382   3.613 -1.2752 -0.0968  0.2372
  824MOL0     C13640   5.078   3.754   3.484 -0.8485 -0.4048 -0.0355
  824MOL0     C13641   5.169   3.756   3.367  0.7684  0.1626 -0.3169
  824MOL0     C13642   5.269   3.636   3.354 -0.1328 -0.2298 -0.5863
  824MOL0     H13643   5.405   4.174   3.052 -1.2108  0.6819  0.6997
  824MOL0     H13644   5.526   4.242   2.858 -0.7183  1.9750 -2.2819
  824MOL0     H13645   5.522   4.284   2.506  0.3500 -0.1491  1.2593
  824MOL0     H13646   5.396   4.302   2.620  0.8210 -0.1496  0.5000
  824MOL0     H13647   5.325   4.283   2.370 -3.2207 -1.6816 -3.6603
  824MOL0     H13648   5.381   4.123   2.368  1.3227  1.2624  0.6877
  824MOL0     H13649   5.206   4.041   2.510 -0.8927 -1.0429 -0.3158
  824MOL0     H13650   5.154   4.210   2.553 -2.3597 -1.6038 -0.8915
  824MOL0     H13651   5.104   4.239   2.301 -1.8127  0.0672  0.1667
  824MOL0     H13652   5.131   4.060   2.298  1.5622  0.0314  0.9228
  824MOL0     H13653   4.924   4.208   2.469  3.5318  0.5060  1.3942
  824MOL0     H13654   4.940   4.035   2.471  0.9372  1.2262  0.5928
  824MOL0     H13655   4.859   4.202   2.230  0.6936 -1.3762 -1.5455
  824MOL0     H13656   4.898   4.031   2.228  0.5607 -2.3036  2.9680
  824MOL0     H13657   4.674   4.175   2.375 -3.7479 -1.5794 -0.8081
  824MOL0     H13658   4.726   4.013   2.415 -2.1783  0.8086  1.0405
  824MOL0     H13659   4.638   4.097   2.127  2.7320  2.2733  2.1155
  824MOL0     H13660   4.657   3.926   2.194 -2.2533 -1.4595  0.2878
  824MOL0     H13661   4.451   3.836   2.353  0.9861  0.8089 -0.1291
  824MOL0     H13662   4.235   3.822   2.442  0.8249  0.0637 -2.2156
  824MOL0     H13663   4.112   3.898   2.341 -2.0227 -0.5990  2.1650
  824MOL0     H13664   4.205   3.998   2.613 -0.5086 -1.4794  0.2987
  824MOL0     H13665   4.099   4.094   2.526  0.4521 -0.3111 -1.3139
  824MOL0     H13666   3.935   3.879   2.514 -1.7936 -0.0514  0.9232
  824MOL0     H13667   4.050   3.815   2.645 -3.0705 -1.0234  3.4585
  824MOL0     H13668   3.989   3.992   2.784  0.7448  1.3732 -2.4598
  824MOL0     H13669   3.856   4.028   2.670 -1.4903 -1.6826 -3.1993
  824MOL0     H13670   3.823   3.660   2.931  2.1639  1.7046 -2.0834
  824MOL0     H13671   3.754   3.565   3.124  1.2771  1.8734 -0.8686
  824MOL0     H13672   3.596   3.602   3.183  1.8525 -3.1289 -0.0174
  824MOL0     H13673   3.746   3.645   3.279 -2.8711 -0.8446  2.5212
  824MOL0     H13674   3.337   3.983   3.353  1.8398  1.2368  1.5388
  824MOL0     H13675   3.143   3.951   3.513  1.3018 -0.8506 -2.8483
  824MOL0     H13676   3.171   3.633   3.813 -0.4292 -0.6966  0.9630
  824MOL0     H13677   3.195   3.791   3.899 -0.2357  2.4862 -1.3982
  824MOL0     H13678   3.007   3.697   3.999  1.3027 -0.4100  0.3491
  824MOL0     H13679   2.927   3.802   3.877 -2.0222 -1.4492  0.9719
  824MOL0     H13680   2.958   3.517   3.861  3.5245  2.4032  0.7234
  824MOL0     H13681   2.923   3.603   3.708  1.5797  2.2883  0.1381
  824MOL0     H13682   2.705   3.691   3.835 -1.1017 -0.4580 -0.3617
  824MOL0     H13683   2.761   3.613   3.974  1.3412  0.9420 -0.6753
  824MOL0     H13684   2.629   3.518   3.721  1.1425  1.0380 -1.2261
  824MOL0     H13685   2.760   3.411   3.766  1.1025  1.2816 -0.4341
  824MOL0     H13686   2.505   3.359   3.857  0.6938  0.3372 -0.5898
  824MOL0     H13687   2.519   3.512   3.947  0.4194 -0.3087  0.0813
  824MOL0     H13688   2.683   3.436   4.082 -1.6126  0.8327 -0.4144
  824MOL0     H13689   2.720   3.300   3.981  1.2710  0.3114  0.4115
  824MOL0     H13690   2.467   3.349   4.137  1.8911  1.8850  0.0672
  824MOL0     H13691   2.589   3.233   4.187  1.7104  2.5202  0.6122
  824MOL0     H13692   3.363   3.640   3.704 -0.8232 -3.2717 -2.6068
  824MOL0     H13693   3.531   3.670   3.523 -0.4183  1.0524 -5.6216
  824MOL0     H13694   3.676   4.108   3.099  1.2096 -1.1942  4.9002
  824MOL0     H13695   3.763   4.072   2.866 -0.4226 -0.6050  0.8410
  824MOL0     H13696   5.324   3.907   2.654  4.3369 -1.2981 -0.3195
  824MOL0     H13697   5.218   3.857   2.868 -0.4103  0.9260  0.5163
  824MOL0     H13698   5.077   4.076   3.270 -1.6683  0.0647  0.2061
  824MOL0     H13699   4.951   4.062   3.471  0.1661 -0.2163  0.1665
  824MOL0     H13700   4.767   3.900   3.747 -0.3138 -1.5441 -0.1738
  824MOL0     H13701   4.800   4.017   3.605  0.6241  0.9466  0.7317
  824MOL0     H13702   4.718   3.837   3.461  3.5033 -1.3781  0.6277
  824MOL0     H13703   4.599   3.912   3.554 -1.0312 -1.5596 -4.4795
  824MOL0     H13704   4.747   3.673   3.671 -0.5029 -0.7494 -0.1901
  824MOL0     H13705   4.573   3.722   3.687 -1.3164  3.8802 -1.8671
  824MOL0     H13706   4.702   3.574   3.446 -0.1887  1.8683 -0.0659
  824MOL0     H13707   4.538   3.641   3.444 -0.8719 -0.5335  1.1210
  824MOL0     H13708   4.488   3.284   3.646  3.7836 -1.7818  0.1503
  824MOL0     H13709   5.072   3.668   3.550 -2.4044 -0.5420 -0.3172
  824MOL0     H13710   5.242   3.588   3.259 -0.5087  1.4392 -1.3644
  824MOL0     H13711   5.374   3.667   3.356 -0.5108  1.7053  4.7747
  824MOL0     H13712   5.243   3.567   3.435 -2.1751  0.9545 -0.1531
  825MOL0     O13713   3.099   7.948   4.209  0.3836  0.6864 -0.1563
  825MOL0     C13714   3.065   7.934   4.093  0.1577 -0.0055  0.0371
  825MOL0     O13715   3.136   7.880   3.996  0.0359 -0.6253  0.6120
  825MOL0     C13716   3.262   7.841   4.015 -0.1279 -0.3666 -0.1006
  825MOL0     C13717   3.296   7.745   4.102  0.2766 -0.8855  0.0198
  825MOL0     C13718   3.438   7.723   4.124 -0.5558  0.2341 -0.2470
  825MOL0     C13719   3.536   7.792   4.045  0.1993 -0.2920  0.2674
  825MOL0     O13720   3.660   7.748   4.054 -0.9260 -0.1579 -0.5611
  825MOL0     C13721   3.714   7.772   4.178 -0.0803  0.3766 -0.6252
  825MOL0     C13722   3.863   7.733   4.182  0.8548  0.2797 -0.2658
  825MOL0     C13723   3.912   7.724   4.329  0.5478  0.3671 -0.2563
  825MOL0     C13724   3.921   7.588   4.378  1.3653  0.2628  1.2232
  825MOL0     C13725   3.921   7.577   4.526 -0.0741  0.5286 -1.7207
  825MOL0     C13726   3.958   7.425   4.552 -1.1814  0.1889 -0.4589
  825MOL0     C13727   3.984   7.399   4.708 -0.5948 -1.1582 -0.0214
  825MOL0     C13728   4.071   7.281   4.743 -0.2084  0.2939 -0.1601
  825MOL0     N13729   3.996   7.152   4.729  0.2614 -0.1321 -0.7139
  825MOL0     C13730   4.013   7.055   4.632 -0.5139 -0.5195  0.3632
  825MOL0     C13731   3.908   6.972   4.638  0.4932 -0.4280 -0.6469
  825MOL0     C13732   3.878   6.846   4.556  0.5121  0.1044  0.4366
  825MOL0     C13733   3.772   6.879   4.457  0.1743 -0.2433  0.4658
  825MOL0     C13734   3.727   6.765   4.378  0.0194  1.0140 -0.1821
  825MOL0     C13735   3.603   6.784   4.292 -0.5864  0.8290 -0.8986
  825MOL0     O13736   3.587   6.652   4.234  0.0171  0.0302  0.1798
  825MOL0     C13737   3.463   6.632   4.192 -0.0610 -0.6781 -0.0761
  825MOL0     C13738   3.405   6.698   4.090  0.0882 -1.4409  0.2167
  825MOL0     C13739   3.277   6.655   4.041  0.0077  0.4324 -0.1219
  825MOL0     C13740   3.217   6.724   3.919  0.3730 -0.5829 -0.9617
  825MOL0     C13741   3.208   6.545   4.100 -0.1958 -1.3988  0.4089
  825MOL0     C13742   3.076   6.496   4.053 -0.0923 -0.8278  0.0196
  825MOL0     O13743   3.007   6.431   4.150 -0.3219  0.3117  0.2980
  825MOL0     C13744   2.915   6.338   4.095 -0.3790  0.6083 -0.3944
  825MOL0     C13745   2.797   6.318   4.168  0.2086 -0.6929  0.0335
  825MOL0     C13746   2.721   6.207   4.127 -0.7752  0.2076 -0.5809
  825MOL0     C13747   2.760   6.111   4.032 -0.1969 -0.3252  0.6193
  825MOL0     O13748   2.686   5.997   4.002  0.6323 -0.4888 -0.4771
  825MOL0     C13749   2.770   5.883   3.975  0.6194 -0.4734  1.1831
  825MOL0     C13750   2.697   5.754   3.960  0.4223  0.0700  0.0930
  825MOL0     C13751   2.625   5.710   4.094  0.6376 -0.5844  0.7443
  825MOL0     C13752   2.733   5.683   4.192  0.3832 -0.6825  0.9526
  825MOL0     C13753   2.683   5.587   4.300  0.6789 -0.3573  0.4788
  825MOL0     C13754   2.796   5.524   4.377 -0.0207 -0.1382  1.2545
  825MOL0     C13755   2.860   5.626   4.477 -1.5289 -0.0690  0.0320
  825MOL0     C13756   3.014   5.599   4.502  0.5953  0.1450  0.9311
  825MOL0    Cl13757   3.070   5.658   4.657  0.7997 -0.2347  0.3530
  825MOL0     C13758   2.867   6.143   3.957 -0.0939 -0.3321  0.5172
  825MOL0     C13759   2.949   6.247   3.994 -0.8949  0.1101 -0.8024
  825MOL0     O13760   3.040   6.508   3.938 -0.0344 -0.2134 -0.0366
  825MOL0     C13761   3.267   6.497   4.219 -0.5215 -0.7529 -1.2439
  825MOL0     C13762   3.398   6.532   4.256  0.1697 -0.1804 -0.2820
  825MOL0     N13763   3.827   7.014   4.741 -0.5579 -0.1221 -0.0983
  825MOL0     N13764   3.886   7.112   4.803 -0.1267  0.3330  0.3846
  825MOL0     C13765   3.496   7.880   3.942  0.0462  0.4752  0.1453
  825MOL0     C13766   3.357   7.907   3.935 -0.6233 -0.3389 -0.1299
  825MOL0     C13767   2.935   7.992   4.064 -0.0821  0.5547  0.0626
  825MOL0     C13768   2.912   8.016   3.924 -0.7168  0.9890  0.0643
  825MOL0     C13769   2.796   8.070   3.866  0.1120  1.2493 -0.7900
  825MOL0     C13770   2.696   8.109   3.951 -0.0603 -0.1281  0.2939
  825MOL0     O13771   2.588   8.171   3.902  0.1267  0.0950  0.4435
  825MOL0     C13772   2.489   8.075   3.852 -0.7804 -0.6335 -0.9960
  825MOL0     C13773   2.362   8.157   3.817 -0.5163  0.2202 -0.9668
  825MOL0     C13774   2.312   8.265   3.915 -0.7816  0.2772 -0.8662
  825MOL0     C13775   2.229   8.196   4.021  0.0761 -0.4385  0.4401
  825MOL0     C13776   2.250   8.265   4.147  0.4869  0.0347  0.3987
  825MOL0     C13777   2.246   8.330   4.247  0.5106  0.7707  0.4656
  825MOL0     C13778   2.712   8.093   4.089  0.1967 -0.4619  0.2891
  825MOL0     C13779   2.826   8.027   4.149 -0.1546  1.0853 -0.1850
  825MOL0     C13780   2.832   8.001   4.292 -0.1756  0.4035 -0.0094
  825MOL0     H13781   3.231   7.680   4.158 -1.6474  1.8915  1.2214
  825MOL0     H13782   3.464   7.646   4.197 -1.0946  1.7543  1.6136
  825MOL0     H13783   3.664   7.719   4.260 -1.9109  4.0919  0.8800
  825MOL0     H13784   3.715   7.879   4.200  0.1923 -0.0846  2.0067
  825MOL0     H13785   3.885   7.644   4.122 -1.9399 -1.6134  1.3082
  825MOL0     H13786   3.913   7.814   4.127  0.3177 -0.9822 -2.7139
  825MOL0     H13787   4.010   7.773   4.333  1.0606 -0.6605 -0.1290
  825MOL0     H13788   3.843   7.787   4.386 -1.7590  1.0198 -3.4710
  825MOL0     H13789   3.833   7.530   4.348  1.1300  0.9811  0.5055
  825MOL0     H13790   4.008   7.543   4.329 -0.5402 -1.6336 -0.7098
  825MOL0     H13791   3.831   7.612   4.576  1.9943 -0.7254  3.4994
  825MOL0     H13792   4.004   7.640   4.557 -0.4577  0.1720  0.1462
  825MOL0     H13793   3.873   7.366   4.517  0.6529 -3.4298  0.6532
  825MOL0     H13794   4.050   7.414   4.494 -0.4916  2.5014  0.0831
  825MOL0     H13795   3.903   7.402   4.781  2.4162 -2.2954  3.7304
  825MOL0     H13796   4.048   7.483   4.737 -0.5725 -1.3071  0.3654
  825MOL0     H13797   4.167   7.271   4.692  0.2552  1.6718  0.3992
  825MOL0     H13798   4.093   7.291   4.850  1.6836 -0.1201 -0.4903
  825MOL0     H13799   4.085   7.060   4.551 -0.2776  0.9575  0.6203
  825MOL0     H13800   3.842   6.773   4.629  0.0045 -1.2524 -1.1145
  825MOL0     H13801   3.967   6.806   4.507 -0.8653 -2.2357 -0.3279
  825MOL0     H13802   3.685   6.919   4.510 -0.7479 -1.1665 -0.3113
  825MOL0     H13803   3.808   6.962   4.395 -0.0682 -0.2967  0.2527
  825MOL0     H13804   3.804   6.732   4.309  0.0320 -0.5179  0.5139
  825MOL0     H13805   3.719   6.671   4.433 -0.1048  1.7559  1.1041
  825MOL0     H13806   3.519   6.818   4.353 -1.4962 -1.5386 -0.7358
  825MOL0     H13807   3.602   6.859   4.212  1.7576  1.3426 -0.5227
  825MOL0     H13808   3.452   6.784   4.042 -1.7804 -1.3719 -1.6795
  825MOL0     H13809   3.241   6.660   3.834  1.8926  0.7990 -1.6120
  825MOL0     H13810   3.270   6.818   3.907 -1.1994  0.7012  1.3111
  825MOL0     H13811   3.108   6.732   3.917  0.5169  3.0030 -3.6171
  825MOL0     H13812   2.764   6.387   4.245 -1.4057 -0.9977 -0.3528
  825MOL0     H13813   2.622   6.193   4.168  0.2400  1.3754  2.6344
  825MOL0     H13814   2.810   5.903   3.876  1.2940 -0.4664  1.4552
  825MOL0     H13815   2.859   5.874   4.038  2.3865  0.7842 -1.0007
  825MOL0     H13816   2.615   5.773   3.890  1.2614  3.2734 -0.1793
  825MOL0     H13817   2.757   5.670   3.923  1.6813  0.0392  2.0724
  825MOL0     H13818   2.566   5.619   4.079  0.1863  0.0002 -1.3962
  825MOL0     H13819   2.558   5.787   4.131 -0.9762 -0.1637 -2.6908
  825MOL0     H13820   2.787   5.772   4.228  1.5021  0.2636 -2.6381
  825MOL0     H13821   2.816   5.634   4.139  0.4638  0.1405  0.2860
  825MOL0     H13822   2.601   5.619   4.365 -0.6437 -3.3370  0.4678
  825MOL0     H13823   2.643   5.498   4.250  0.6198 -1.2269  2.0211
  825MOL0     H13824   2.875   5.490   4.309 -1.3905 -0.9855  0.0291
  825MOL0     H13825   2.765   5.433   4.430 -0.3598 -0.7906 -0.0225
  825MOL0     H13826   2.802   5.616   4.569  1.3655  1.1393  2.1597
  825MOL0     H13827   2.851   5.732   4.450  0.5899  0.9932  2.9631
  825MOL0     H13828   3.065   5.650   4.420  0.0359 -2.7918 -1.4238
  825MOL0     H13829   3.037   5.493   4.496 -2.7552 -0.6905  0.7363
  825MOL0     H13830   2.914   6.084   3.879  1.7733 -1.0334  2.0995
  825MOL0     H13831   3.045   6.261   3.946 -0.5875  3.1121  0.4982
  825MOL0     H13832   3.214   6.428   4.285  0.8417 -0.3536  0.3510
  825MOL0     H13833   3.440   6.497   4.350 -0.4646  0.7570  0.3606
  825MOL0     H13834   3.553   7.936   3.870 -0.1554  0.9944  0.3861
  825MOL0     H13835   3.317   7.976   3.862  2.5967  0.0126 -1.7664
  825MOL0     H13836   2.986   7.992   3.848 -2.4162  0.6422 -1.5546
  825MOL0     H13837   2.779   8.076   3.759 -0.0704 -1.8916 -1.0260
  825MOL0     H13838   2.527   8.023   3.763 -0.3257  0.0250 -1.1888
  825MOL0     H13839   2.464   8.004   3.932 -1.9154  2.1248  1.2483
  825MOL0     H13840   2.282   8.089   3.786 -1.3430  0.6379  0.1817
  825MOL0     H13841   2.389   8.211   3.726 -4.8186  0.2441 -2.4635
  825MOL0     H13842   2.396   8.329   3.945 -0.5435  0.3315 -1.6379
  825MOL0     H13843   2.245   8.324   3.852 -2.4502  1.7027  2.0224
  825MOL0     H13844   2.268   8.094   4.016  1.0036 -0.0564 -0.8321
  825MOL0     H13845   2.128   8.198   3.981  1.5739 -0.9350 -3.8964
  825MOL0     H13846   2.254   8.380   4.342  1.4982  0.3709  0.6101
  825MOL0     H13847   2.634   8.137   4.151 -0.2440  1.4190 -1.5006
  825MOL0     H13848   2.895   7.916   4.319  1.5630  1.7218  0.2870
  825MOL0     H13849   2.877   8.087   4.343 -2.1453  0.0925  2.4590
  825MOL0     H13850   2.738   7.989   4.346  1.0670  0.4215  2.3236
  826MOL0     O13851   9.920   8.770   7.987  0.0146  0.3599  1.1029
  826MOL0     C13852   9.993   8.860   8.016 -0.0994 -0.0830  0.2836
  826MOL0     O13853  10.029   8.887   8.148 -0.7777 -0.1274 -0.2262
  826MOL0     C13854   9.946   8.829   8.244  0.2502 -0.4584  0.7012
  826MOL0     C13855   9.814   8.879   8.258  0.0528  0.0830  1.2270
  826MOL0     C13856   9.727   8.838   8.364 -0.1047  0.5897  1.3739
  826MOL0     C13857   9.792   8.769   8.470 -0.3245  0.3026 -0.5606
  826MOL0     O13858   9.715   8.737   8.585 -0.0654  0.2298 -0.3379
  826MOL0     C13859   9.772   8.636   8.675  0.1349 -0.3903  0.3891
  826MOL0     C13860   9.676   8.633   8.792 -0.4622 -0.1101  0.9146
  826MOL0     C13861   9.724   8.748   8.885  0.4164  0.6527  0.4003
  826MOL0     C13862   9.655   8.718   9.024 -0.1321 -0.0234  1.5239
  826MOL0     C13863   9.671   8.833   9.122 -0.3739  1.0851 -0.2724
  826MOL0     C13864   9.815   8.862   9.147  0.0744 -0.4763 -0.2189
  826MOL0     C13865   9.853   8.995   9.223 -0.7650  0.5428 -0.7958
  826MOL0     C13866   9.991   8.987   9.279 -0.1624  1.1171 -0.0309
  826MOL0     N13867  10.031   9.109   9.354  0.3493 -0.0211 -0.4784
  826MOL0     C13868   9.946   9.188   9.436  0.6447  0.0462  0.4764
  826MOL0     C13869  10.029   9.269   9.511 -0.1584  0.4304 -0.9530
  826MOL0     C13870  10.009   9.374   9.618 -0.4139  0.0033  0.1941
  826MOL0     C13871   9.954   9.490   9.539 -0.2770 -0.1110 -0.4460
  826MOL0     C13872   9.932   9.618   9.637  0.0052 -0.7970 -0.2358
  826MOL0     C13873  10.064   9.678   9.689  0.7542  1.7637  0.9529
  826MOL0     O13874  10.130   9.748   9.578  0.4206  0.3218 -0.0818
  826MOL0     C13875  10.262   9.722   9.583  0.1690  0.6534  0.6657
  826MOL0     C13876  10.318   9.631   9.501  0.2988  0.0756  0.5095
  826MOL0     C13877  10.447   9.586   9.514 -0.3804  0.9342  0.6652
  826MOL0     C13878  10.467   9.450   9.451 -0.0646  0.5062 -0.2507
  826MOL0     C13879  10.535   9.649   9.614  0.2177  0.5061 -0.3944
  826MOL0     C13880  10.662   9.599   9.666 -0.0917  0.2546 -0.5225
  826MOL0     O13881  10.719   9.651   9.783 -0.1422  0.7400 -0.2483
  826MOL0     C13882  10.850   9.635   9.797  0.5002  0.3781 -0.2055
  826MOL0     C13883  10.938   9.744   9.783  0.8689  0.1429  1.4134
  826MOL0     C13884  11.073   9.736   9.826 -0.2804  0.2740 -0.3550
  826MOL0     C13885  11.120   9.620   9.887 -0.4038  0.4380  0.4112
  826MOL0     O13886  11.250   9.616   9.930  0.1138 -0.8236  0.6788
  826MOL0     C13887  11.319   9.506  10.004  0.6585 -0.4999  0.1651
  826MOL0     C13888  11.466   9.558   9.995 -0.2565 -0.1253  0.6848
  826MOL0     C13889  11.487   9.699  10.052  0.4331 -0.1600 -0.8225
  826MOL0     C13890  11.624   9.731  10.097  0.1217  0.0839 -0.3669
  826MOL0     C13891  11.724   9.773   9.990 -0.1245 -0.9894 -0.6634
  826MOL0     C13892  11.811   9.662   9.929  0.4927 -0.2143 -0.2835
  826MOL0     C13893  11.901   9.690   9.801  0.4438 -0.1371 -0.4873
  826MOL0     C13894  12.049   9.643   9.810 -0.6135 -0.1375  0.2148
  826MOL0    Cl13895  12.129   9.688   9.655  0.1679 -0.0598  0.1977
  826MOL0     C13896  11.030   9.509   9.899  0.7156  0.7451  1.0844
  826MOL0     C13897  10.896   9.517   9.853 -0.4945 -0.8566 -0.0729
  826MOL0     O13898  10.716   9.520   9.590 -0.5542 -0.2754 -0.3377
  826MOL0     C13899  10.475   9.749   9.699  0.0572 -0.6779  0.5500
  826MOL0     C13900  10.334   9.775   9.680 -0.5531  0.0059  0.7556
  826MOL0     N13901  10.158   9.251   9.465  0.0243 -0.0264  0.6339
  826MOL0     N13902  10.161   9.153   9.386  0.4500 -0.6692 -0.7290
  826MOL0     C13903   9.927   8.727   8.457 -0.3591  0.1553  0.3435
  826MOL0     C13904   9.995   8.750   8.344  0.3669  0.4883 -0.1701
  826MOL0     C13905  10.041   8.949   7.910  0.1155 -0.1333  0.0155
  826MOL0     C13906  10.107   9.063   7.950  0.0283 -0.0564  0.8920
  826MOL0     C13907  10.144   9.158   7.851 -0.6422  0.3589  0.5858
  826MOL0     C13908  10.122   9.141   7.710 -0.4537 -0.4478 -0.9970
  826MOL0     O13909  10.180   9.227   7.622 -0.0175  0.8055  0.1501
  826MOL0     C13910  10.264   9.330   7.662 -0.4999  0.4290 -0.2593
  826MOL0     C13911  10.194   9.470   7.678  0.3139  0.8062  0.2316
  826MOL0     C13912  10.076   9.508   7.579  0.4249  0.4801 -0.3295
  826MOL0     C13913  10.009   9.647   7.595  0.3399  0.8742  0.1959
  826MOL0     C13914   9.932   9.679   7.716  0.6551  0.6593  0.0927
  826MOL0     C13915   9.901   9.685   7.831  0.3604  0.4368 -0.2549
  826MOL0     C13916  10.048   9.033   7.677  0.3831  0.7557  0.2683
  826MOL0     C13917  10.000   8.943   7.772 -0.1323 -0.0952 -0.6477
  826MOL0     C13918   9.915   8.837   7.713 -0.3365  0.2735 -0.7081
  826MOL0     H13919   9.782   8.950   8.182  2.2208  0.1718  0.3169
  826MOL0     H13920   9.627   8.880   8.357 -0.1994  0.2801  0.7815
  826MOL0     H13921   9.874   8.664   8.704 -0.7531  3.3791  0.4375
  826MOL0     H13922   9.767   8.540   8.624 -2.7490  0.0606 -0.3507
  826MOL0     H13923   9.572   8.649   8.761 -0.0573  0.3975 -0.2753
  826MOL0     H13924   9.691   8.534   8.836 -0.3998 -1.0286 -1.0611
  826MOL0     H13925   9.831   8.734   8.902 -0.1593 -1.8325  2.6414
  826MOL0     H13926   9.704   8.848   8.845  2.0354  1.0348  0.4903
  826MOL0     H13927   9.546   8.710   9.016 -0.2546  0.1049  2.9160
  826MOL0     H13928   9.702   8.624   9.055  3.3525 -0.1131 -2.9793
  826MOL0     H13929   9.617   8.808   9.213 -1.5985  2.3099 -0.6241
  826MOL0     H13930   9.629   8.921   9.072 -0.0642  1.2251 -0.2887
  826MOL0     H13931   9.862   8.774   9.192 -0.4282 -1.3297 -1.3263
  826MOL0     H13932   9.853   8.893   9.049 -1.6159  0.1736 -0.6885
  826MOL0     H13933   9.775   9.020   9.295  0.9336 -0.0525  1.4005
  826MOL0     H13934   9.870   9.073   9.149 -0.9261  0.5521 -0.8231
  826MOL0     H13935   9.991   8.905   9.351  0.4664  0.9032 -0.2691
  826MOL0     H13936  10.061   8.961   9.199  0.2529 -2.4250  1.2918
  826MOL0     H13937   9.838   9.181   9.441  0.7365 -0.9683  1.6037
  826MOL0     H13938  10.099   9.416   9.665 -0.7882 -0.6015  1.4956
  826MOL0     H13939   9.942   9.344   9.699 -0.3270 -3.6383 -0.8770
  826MOL0     H13940  10.027   9.517   9.462 -0.3136  0.8917 -0.1473
  826MOL0     H13941   9.861   9.460   9.489  0.7540 -3.1716 -0.7494
  826MOL0     H13942   9.877   9.692   9.578 -1.2403 -2.7624 -1.6296
  826MOL0     H13943   9.870   9.590   9.723  0.9567  2.5960  1.7683
  826MOL0     H13944  10.054   9.747   9.773 -1.3692 -0.4426  2.6958
  826MOL0     H13945  10.124   9.596   9.730 -0.8896 -0.4707 -0.8381
  826MOL0     H13946  10.257   9.580   9.427  0.5564  1.9561 -1.0967
  826MOL0     H13947  10.558   9.455   9.391  1.3027 -0.4196  1.6285
  826MOL0     H13948  10.385   9.407   9.393  0.1385  2.4761 -2.0999
  826MOL0     H13949  10.483   9.376   9.530  1.5439 -0.1349 -1.1416
  826MOL0     H13950  10.906   9.842   9.749  1.8268  0.0673  0.2167
  826MOL0     H13951  11.137   9.823   9.839 -0.2510  0.1421  0.4303
  826MOL0     H13952  11.265   9.489  10.097 -0.2029  2.5856  0.3439
  826MOL0     H13953  11.327   9.413   9.948  1.3382 -1.5457  1.9217
  826MOL0     H13954  11.538   9.488  10.037  1.8563  1.7896  0.4339
  826MOL0     H13955  11.492   9.575   9.890 -4.0704 -0.2389 -0.4308
  826MOL0     H13956  11.426   9.718  10.141  1.3238 -1.2583  0.0559
  826MOL0     H13957  11.460   9.779   9.982 -2.3487 -0.0861  0.2079
  826MOL0     H13958  11.671   9.666  10.171  0.2092  0.1012 -0.4070
  826MOL0     H13959  11.625   9.826  10.152 -0.6153 -0.6339  0.9210
  826MOL0     H13960  11.668   9.821   9.909  1.9516  1.4643 -0.7953
  826MOL0     H13961  11.788   9.856  10.021 -1.5627 -0.6634  1.6901
  826MOL0     H13962  11.743   9.579   9.911  0.1801  0.6618 -3.7937
  826MOL0     H13963  11.881   9.636  10.009  1.0935  0.3175 -0.6245
  826MOL0     H13964  11.913   9.794   9.767  1.6698  0.0255  0.3561
  826MOL0     H13965  11.837   9.649   9.722 -2.3343 -2.1576  2.5604
  826MOL0     H13966  12.051   9.535   9.827 -1.5803  0.0723  1.8780
  826MOL0     H13967  12.099   9.695   9.891 -0.6920 -3.1582  2.3643
  826MOL0     H13968  11.074   9.418   9.939 -0.5249  0.7639  2.5539
  826MOL0     H13969  10.828   9.433   9.857 -1.6233  0.0832  1.3697
  826MOL0     H13970  10.511   9.787   9.794  0.9681 -2.4313  0.9397
  826MOL0     H13971  10.284   9.839   9.752 -0.6395 -2.7179  3.3090
  826MOL0     H13972   9.980   8.689   8.544  1.1363  3.4752  1.0026
  826MOL0     H13973  10.095   8.708   8.347  3.0938  6.0239  0.0158
  826MOL0     H13974  10.157   9.080   8.045  1.2593 -1.1658  0.4602
  826MOL0     H13975  10.206   9.241   7.884  2.2848 -2.3817  2.7072
  826MOL0     H13976  10.322   9.307   7.752  0.4596 -2.9247 -1.5577
  826MOL0     H13977  10.338   9.340   7.582  0.3308 -3.2835 -0.1236
  826MOL0     H13978  10.272   9.545   7.661  1.0376  0.8005  2.9771
  826MOL0     H13979  10.151   9.486   7.778  1.9865  5.0493  0.4732
  826MOL0     H13980  10.113   9.501   7.476  0.8799 -0.2090 -0.1229
  826MOL0     H13981   9.991   9.440   7.593  1.3951 -0.2736  2.4131
  826MOL0     H13982   9.940   9.654   7.510 -0.2949 -0.2426  0.5999
  826MOL0     H13983  10.087   9.721   7.574  2.5503 -1.0223  1.2839
  826MOL0     H13984   9.861   9.694   7.930  1.7569 -0.0203  0.3775
  826MOL0     H13985  10.021   9.014   7.574  0.8140  0.1166  0.2643
  826MOL0     H13986   9.829   8.816   7.776 -0.3860 -1.5495 -1.3200
  826MOL0     H13987   9.874   8.860   7.614 -1.9860  1.3225  0.1848
  826MOL0     H13988   9.974   8.745   7.721 -1.0470 -0.1892 -0.6899
  827MOL0     O13989   1.119   0.375  10.509  0.3743 -0.3487  0.3088
  827MOL0     C13990   1.103   0.294  10.598 -0.0732 -0.7659  0.3214
  827MOL0     O13991   1.086   0.165  10.573 -0.0520 -0.8654 -0.0726
  827MOL0     C13992   1.110   0.089  10.460  0.0699 -0.9031  0.1653
  827MOL0     C13993   1.187  -0.028  10.474 -0.2044 -0.2056 -0.5215
  827MOL0     C13994   1.209  -0.113  10.361 -0.2269  0.3648  0.0908
  827MOL0     C13995   1.159  -0.080  10.234  0.1704 -0.0087 -0.1705
  827MOL0     O13996   1.159  -0.171  10.132 -0.8850  0.3587  0.9107
  827MOL0     C13997   1.233  -0.299  10.136 -0.9186 -0.4607 -0.4163
  827MOL0     C13998   1.246  -0.375   9.992  0.2610  0.4098 -1.0194
  827MOL0     C13999   1.121  -0.441   9.931 -0.1662  0.9566  0.1344
  827MOL0     C14000   1.170  -0.527   9.806  0.0700 -0.2125 -0.2912
  827MOL0     C14001   1.063  -0.570   9.710  0.2297 -0.5868 -0.1704
  827MOL0     C14002   0.977  -0.455   9.656  0.1848 -0.1844 -0.3277
  827MOL0     C14003   0.873  -0.513   9.561 -0.0758  0.1489 -0.1293
  827MOL0     C14004   0.916  -0.572   9.431 -0.6095  0.3886  1.2566
  827MOL0     N14005   0.957  -0.466   9.338 -0.3632  0.4174 -0.4924
  827MOL0     C14006   0.897  -0.352   9.294 -0.3351  0.7198 -0.1306
  827MOL0     C14007   0.994  -0.288   9.234 -0.6712 -0.8930  0.1952
  827MOL0     C14008   0.969  -0.161   9.157  0.1352 -0.4568 -0.7620
  827MOL0     C14009   0.953  -0.199   9.011  0.4138  0.6291 -0.7220
  827MOL0     C14010   0.958  -0.077   8.924 -0.2962 -0.5564  0.5499
  827MOL0     C14011   0.912  -0.104   8.779 -0.0394  1.2697 -0.0507
  827MOL0     O14012   0.892   0.023   8.718  0.2870  0.4797 -0.4411
  827MOL0     C14013   0.970   0.059   8.608 -1.3115  0.7168 -0.7597
  827MOL0     C14014   0.970  -0.026   8.487 -0.4104  0.5750 -0.4254
  827MOL0     C14015   1.055   0.006   8.376 -0.5258 -1.0004  0.3091
  827MOL0     C14016   1.053  -0.081   8.252 -0.1777 -0.7225 -0.7646
  827MOL0     C14017   1.127   0.129   8.385 -0.5766  0.5852 -0.8067
  827MOL0     C14018   1.202   0.186   8.270 -0.2608  0.5467 -0.6234
  827MOL0     O14019   1.301   0.264   8.291 -0.4140  0.5794  0.1129
  827MOL0     C14020   1.391   0.296   8.198 -0.1810  0.0245 -1.3590
  827MOL0     C14021   1.416   0.430   8.182 -0.6778  0.3432 -1.3224
  827MOL0     C14022   1.513   0.466   8.086 -0.0554  0.2078 -0.3722
  827MOL0     C14023   1.587   0.381   8.015 -0.6672  0.1602 -0.1752
  827MOL0     O14024   1.692   0.426   7.937  0.2334  0.1719  0.2916
  827MOL0     C14025   1.646   0.506   7.826 -1.0052 -0.3834  0.1769
  827MOL0     C14026   1.749   0.540   7.720 -0.1350 -1.8247  0.0564
  827MOL0     C14027   1.706   0.644   7.618  0.8749 -0.2089  0.4060
  827MOL0     C14028   1.558   0.626   7.574  0.9536  0.5090  0.3135
  827MOL0     C14029   1.520   0.669   7.429 -0.9557 -0.6907 -0.2002
  827MOL0     C14030   1.519   0.822   7.426 -1.0886  0.2069  0.3679
  827MOL0     C14031   1.404   0.878   7.504  0.8407 -1.2233 -0.1213
  827MOL0     C14032   1.388   1.033   7.511  1.0521  0.1911  0.7699
  827MOL0    Cl14033   1.524   1.104   7.607  0.0602 -0.4041  0.2529
  827MOL0     C14034   1.560   0.246   8.044  0.4123  0.2619  0.0303
  827MOL0     C14035   1.466   0.210   8.135 -0.4651  0.1057 -0.4289
  827MOL0     O14036   1.156   0.167   8.157  1.0858  0.7850 -0.5759
  827MOL0     C14037   1.124   0.210   8.503 -0.6284  0.0713 -0.1086
  827MOL0     C14038   1.048   0.170   8.616  0.6039  0.0048  0.0565
  827MOL0     N14039   1.115  -0.355   9.240 -0.5153 -0.4751 -0.2613
  827MOL0     N14040   1.089  -0.454   9.313  0.9503  0.0222  0.2142
  827MOL0     C14041   1.094   0.042  10.217 -0.5312  0.8525  0.7663
  827MOL0     C14042   1.074   0.124  10.327  0.1041 -0.8041  0.5171
  827MOL0     C14043   1.087   0.350  10.739 -1.2013 -0.0572  0.6538
  827MOL0     C14044   1.028   0.267  10.833  0.8320  0.1645  0.3761
  827MOL0     C14045   1.011   0.322  10.960 -0.4213 -0.4267  0.3781
  827MOL0     C14046   1.061   0.445  10.998 -0.1823  0.3515  0.6358
  827MOL0     O14047   1.052   0.487  11.131  0.9246  0.3356 -0.3359
  827MOL0     C14048   1.125   0.596  11.188  0.2900 -1.0886  0.7471
  827MOL0     C14049   1.254   0.539  11.245 -0.1423 -0.5850 -0.5851
  827MOL0     C14050   1.304   0.642  11.341 -0.1425  0.1006 -0.0335
  827MOL0     C14051   1.424   0.726  11.297  0.7637  0.2154  0.4294
  827MOL0     C14052   1.414   0.774  11.154  1.2287 -0.8481 -0.1749
  827MOL0     C14053   1.383   0.813  11.037 -0.8681  0.2925 -0.3756
  827MOL0     C14054   1.124   0.514  10.899  0.6891 -0.4682 -0.6702
  827MOL0     C14055   1.132   0.479  10.764 -0.6991 -0.0231 -0.3651
  827MOL0     C14056   1.194   0.590  10.679  0.2011 -0.4214 -0.8694
  827MOL0     H14057   1.212  -0.049  10.578 -2.9859  2.6818  0.9098
  827MOL0     H14058   1.255  -0.212  10.362 -0.4622  0.2378 -0.7493
  827MOL0     H14059   1.188  -0.365  10.210 -0.5653  0.1160  0.3271
  827MOL0     H14060   1.335  -0.281  10.168 -0.7665 -1.3309 -0.3917
  827MOL0     H14061   1.295  -0.307   9.923  2.8995 -0.7188 -0.3648
  827MOL0     H14062   1.310  -0.463   9.998  1.1220  1.0593 -0.2986
  827MOL0     H14063   1.074  -0.503  10.008 -0.2836  2.0783  0.9922
  827MOL0     H14064   1.049  -0.360   9.911 -1.5558  0.8499  3.8590
  827MOL0     H14065   1.229  -0.459   9.744 -1.4767  2.4555  0.9738
  827MOL0     H14066   1.231  -0.611   9.840  0.9801  0.2624 -0.6998
  827MOL0     H14067   1.006  -0.650   9.758 -1.0808  0.5408  0.2454
  827MOL0     H14068   1.111  -0.622   9.627  1.2520  1.1833 -0.7534
  827MOL0     H14069   0.921  -0.400   9.733  1.9512  1.5954 -0.2616
  827MOL0     H14070   1.039  -0.380   9.608 -0.8019  1.3056  0.6539
  827MOL0     H14071   0.797  -0.438   9.540 -1.7258 -1.6264 -0.8731
  827MOL0     H14072   0.820  -0.591   9.617  1.9788  1.3926  3.8910
  827MOL0     H14073   0.994  -0.648   9.440 -2.2451 -1.5235  0.1648
  827MOL0     H14074   0.827  -0.617   9.387  0.5629  1.1194 -2.2136
  827MOL0     H14075   0.791  -0.328   9.294 -0.4621  0.4365  2.2978
  827MOL0     H14076   1.052  -0.094   9.178 -1.1050  1.2523 -1.0346
  827MOL0     H14077   0.872  -0.124   9.193  1.2675 -0.1314  2.2118
  827MOL0     H14078   1.042  -0.260   8.988  2.0282  2.2679  0.8304
  827MOL0     H14079   0.862  -0.259   9.009  2.3180 -2.6124  0.6296
  827MOL0     H14080   0.891  -0.006   8.974 -1.1932  0.6941 -2.2062
  827MOL0     H14081   1.061  -0.042   8.911 -1.0114  0.9508 -1.6764
  827MOL0     H14082   0.993  -0.168   8.742 -2.9052 -2.7496 -0.0946
  827MOL0     H14083   0.821  -0.164   8.792  1.7945 -1.7182  0.0526
  827MOL0     H14084   0.905  -0.113   8.480  2.0245 -1.3619 -0.5114
  827MOL0     H14085   1.141  -0.071   8.188  0.4803 -2.3644 -0.1533
  827MOL0     H14086   0.962  -0.074   8.191  0.8391 -1.0406 -2.3660
  827MOL0     H14087   1.052  -0.183   8.292 -1.7661 -0.7891 -0.8984
  827MOL0     H14088   1.364   0.508   8.238 -1.8631 -0.5316 -1.1630
  827MOL0     H14089   1.535   0.572   8.091  2.7893 -0.2646 -1.3365
  827MOL0     H14090   1.573   0.442   7.775 -0.7518 -0.2862 -0.3155
  827MOL0     H14091   1.598   0.598   7.861  1.1957  0.4200  1.2550
  827MOL0     H14092   1.839   0.575   7.772 -0.7182 -1.3599  0.7819
  827MOL0     H14093   1.779   0.450   7.667  1.4710 -2.3143  1.6796
  827MOL0     H14094   1.770   0.630   7.530 -0.6468 -3.9394 -0.3205
  827MOL0     H14095   1.725   0.745   7.654 -3.2571  0.2740  1.8071
  827MOL0     H14096   1.490   0.675   7.644 -1.3047 -0.8990 -0.7904
  827MOL0     H14097   1.524   0.522   7.572  3.3459 -0.3106 -0.6883
  827MOL0     H14098   1.597   0.643   7.356  0.7106  1.6274  0.6126
  827MOL0     H14099   1.420   0.646   7.393 -1.3115 -0.5996  0.7008
  827MOL0     H14100   1.518   0.846   7.320  1.7031 -2.7595 -0.4995
  827MOL0     H14101   1.606   0.870   7.473 -1.0523 -0.8127  1.3806
  827MOL0     H14102   1.388   0.843   7.606  1.0908  0.4175  0.4971
  827MOL0     H14103   1.304   0.854   7.466  0.3432  0.4409  0.0638
  827MOL0     H14104   1.290   1.065   7.549  1.1674 -0.3609  1.5455
  827MOL0     H14105   1.392   1.073   7.409  0.5722  3.2578  1.8469
  827MOL0     H14106   1.623   0.175   7.993 -1.4370 -2.1399  0.9198
  827MOL0     H14107   1.439   0.105   8.145  1.4691 -0.2410  2.3391
  827MOL0     H14108   1.191   0.294   8.497  0.1047 -0.6304 -3.3208
  827MOL0     H14109   1.049   0.240   8.699  2.3499  1.5382 -1.1698
  827MOL0     H14110   1.073   0.065  10.113 -1.2298 -1.7544  0.2479
  827MOL0     H14111   1.042   0.227  10.321  0.0650 -0.9035 -2.4334
  827MOL0     H14112   0.990   0.171  10.801  3.1924 -0.8671  0.4643
  827MOL0     H14113   0.963   0.279  11.047  0.6087  0.9490  1.6848
  827MOL0     H14114   1.138   0.686  11.128  1.0723 -2.2963 -0.9907
  827MOL0     H14115   1.047   0.626  11.258 -0.4664  0.8141 -0.7967
  827MOL0     H14116   1.319   0.531  11.157 -0.5674 -1.8261 -0.7997
  827MOL0     H14117   1.243   0.445  11.299  0.2321 -1.1424 -1.4460
  827MOL0     H14118   1.225   0.716  11.359 -0.6399 -0.0712 -1.4174
  827MOL0     H14119   1.329   0.596  11.437 -2.1793 -3.7422 -1.1394
  827MOL0     H14120   1.518   0.671  11.304  2.4057  2.8094  0.1388
  827MOL0     H14121   1.441   0.814  11.360  0.9510 -1.0473  2.2381
  827MOL0     H14122   1.354   0.841  10.937 -0.5954 -0.8498 -0.7888
  827MOL0     H14123   1.137   0.620  10.917  0.2190 -0.4486 -0.4132
  827MOL0     H14124   1.302   0.588  10.696  0.0383  0.8885  0.6837
  827MOL0     H14125   1.176   0.582  10.572 -2.5710  1.1151 -0.6082
  827MOL0     H14126   1.169   0.690  10.717  0.0314 -1.4465  1.9737
  828MOL0     O14127   7.199   4.319  11.253 -0.1631 -0.1263  0.0509
  828MOL0     C14128   7.262   4.429  11.258  0.4681 -0.4129  0.0969
  828MOL0     O14129   7.298   4.507  11.147 -1.0293  0.0523  0.2824
  828MOL0     C14130   7.250   4.462  11.023 -0.1707  0.6188  0.5896
  828MOL0     C14131   7.326   4.385  10.940  0.1898 -0.8681  0.0371
  828MOL0     C14132   7.280   4.345  10.811  0.4423  0.5487 -0.4224
  828MOL0     C14133   7.156   4.390  10.762  0.4393 -0.5688 -0.1448
  828MOL0     O14134   7.112   4.353  10.641 -0.1941 -0.6127  0.5462
  828MOL0     C14135   6.981   4.405  10.601  0.4707 -0.3127  0.4399
  828MOL0     C14136   6.923   4.317  10.487 -0.5969 -0.3520  0.6190
  828MOL0     C14137   6.792   4.375  10.439 -0.7001  0.5956  0.0223
  828MOL0     C14138   6.706   4.273  10.348  0.4598 -0.3773 -0.9042
  828MOL0     C14139   6.562   4.316  10.318  0.4405 -0.0579  0.8296
  828MOL0     C14140   6.505   4.263  10.182 -0.3917 -1.0271 -1.1980
  828MOL0     C14141   6.356   4.301  10.185  0.4171  0.0567  0.0923
  828MOL0     C14142   6.281   4.219  10.079 -0.3486  0.0542  0.3592
  828MOL0     N14143   6.135   4.245  10.086 -0.1533  0.5870  0.7511
  828MOL0     C14144   6.041   4.150  10.097  0.3940 -0.4657  0.4544
  828MOL0     C14145   5.925   4.221  10.072  1.7818 -0.5254  0.1152
  828MOL0     C14146   5.786   4.155  10.076  0.5474 -0.7901 -0.6879
  828MOL0     C14147   5.719   4.159  10.205  1.0723  0.4419  0.3561
  828MOL0     C14148   5.708   4.300  10.264  0.0516  0.2139  0.7782
  828MOL0     C14149   5.657   4.314  10.397 -0.9671 -0.0519 -0.2294
  828MOL0     O14150   5.672   4.453  10.453 -0.2470  0.4479 -0.2348
  828MOL0     C14151   5.652   4.467  10.586 -0.8181 -0.5901  0.1190
  828MOL0     C14152   5.696   4.590  10.631  0.3433  0.2243  0.4917
  828MOL0     C14153   5.692   4.625  10.767  0.5236 -0.1642  0.0529
  828MOL0     C14154   5.761   4.753  10.805 -0.4552 -1.2215  0.2456
  828MOL0     C14155   5.637   4.540  10.858 -0.3271 -0.1822 -0.1117
  828MOL0     C14156   5.632   4.557  11.009 -0.1152 -0.1904 -0.0354
  828MOL0     O14157   5.584   4.448  11.070  0.8817 -0.0812 -1.1079
  828MOL0     C14158   5.576   4.439  11.207 -0.6122 -0.0542  0.0426
  828MOL0     C14159   5.500   4.342  11.277  0.2797 -0.2807  0.4665
  828MOL0     C14160   5.509   4.317  11.415  0.4367  0.4844  0.4335
  828MOL0     C14161   5.568   4.406  11.497  0.2557  0.0071 -0.3848
  828MOL0     O14162   5.568   4.405  11.636 -0.3993 -0.2785  0.4937
  828MOL0     C14163   5.498   4.290  11.688  0.7136  0.1084 -0.4293
  828MOL0     C14164   5.478   4.304  11.840  0.2212  0.8835 -1.2286
  828MOL0     C14165   5.611   4.267  11.921 -0.3599  0.5463  0.8658
  828MOL0     C14166   5.604   4.252  12.074  0.0648  0.4740  0.7033
  828MOL0     C14167   5.602   4.102  12.116 -0.7265  0.5156  0.3257
  828MOL0     C14168   5.568   4.074  12.264 -0.0473 -0.0524  0.0956
  828MOL0     C14169   5.704   4.085  12.351  0.4794 -0.4884  0.4838
  828MOL0     C14170   5.710   3.991  12.472 -0.6693 -0.1231  0.9276
  828MOL0    Cl14171   5.553   4.006  12.568 -0.4049 -0.2676  0.1659
  828MOL0     C14172   5.647   4.506  11.435  0.5158 -0.6290 -0.0927
  828MOL0     C14173   5.661   4.523  11.296 -0.4001  0.5092  0.2102
  828MOL0     O14174   5.677   4.661  11.069  0.5945  0.7439 -0.2265
  828MOL0     C14175   5.597   4.419  10.811 -0.6750  0.5932  0.3891
  828MOL0     C14176   5.606   4.377  10.674  0.9223  0.6444 -0.6379
  828MOL0     N14177   5.951   4.353  10.040  0.0103 -0.1640 -0.2623
  828MOL0     N14178   6.076   4.365  10.049  0.0521 -0.3689 -0.2453
  828MOL0     C14179   7.083   4.474  10.848 -0.0033  0.0775  0.2983
  828MOL0     C14180   7.132   4.510  10.978 -0.7922 -1.5510  1.6725
  828MOL0     C14181   7.302   4.480  11.393 -0.7639 -0.2385  0.3382
  828MOL0     C14182   7.318   4.622  11.388 -0.6903  0.4300 -1.5214
  828MOL0     C14183   7.379   4.685  11.495  0.3904  0.0184 -0.1177
  828MOL0     C14184   7.416   4.612  11.607  0.2163 -0.7409 -1.7288
  828MOL0     O14185   7.479   4.689  11.708 -0.0345  0.4189  0.9143
  828MOL0     C14186   7.495   4.648  11.842  0.0584  0.2827  0.0457
  828MOL0     C14187   7.625   4.697  11.912  0.4132 -0.9451 -0.2331
  828MOL0     C14188   7.630   4.854  11.898 -0.0958  0.3626  0.9722
  828MOL0     C14189   7.744   4.898  11.990 -0.0531 -0.6278  0.1109
  828MOL0     C14190   7.741   5.047  12.000  0.3414 -1.0001 -0.1441
  828MOL0     C14191   7.747   5.170  12.014 -1.4418 -0.7749 -0.2321
  828MOL0     C14192   7.382   4.474  11.620  0.0212 -0.3470 -0.3100
  828MOL0     C14193   7.337   4.400  11.507 -0.7714  0.4614  0.1196
  828MOL0     C14194   7.288   4.261  11.523 -0.7453  0.0778  0.7305
  828MOL0     H14195   7.427   4.369  10.976  0.1132  1.6142  1.5594
  828MOL0     H14196   7.348   4.289  10.747  2.4204  1.5204  0.7333
  828MOL0     H14197   6.993   4.506  10.560 -1.1055 -1.2682 -2.6628
  828MOL0     H14198   6.912   4.396  10.685  1.7597  1.9171  1.8454
  828MOL0     H14199   6.995   4.332  10.406 -0.2569 -0.5005  0.8912
  828MOL0     H14200   6.910   4.210  10.507 -4.4788 -0.2280 -0.4272
  828MOL0     H14201   6.746   4.419  10.528  1.5324 -0.8876  2.0110
  828MOL0     H14202   6.804   4.459  10.370 -0.6299  1.7487  1.3952
  828MOL0     H14203   6.776   4.279  10.264  1.9995  0.4683  0.3697
  828MOL0     H14204   6.708   4.176  10.399  2.0306  0.1475  0.1150
  828MOL0     H14205   6.559   4.425  10.315  0.4481 -0.0545 -2.2291
  828MOL0     H14206   6.498   4.286  10.401  0.7482  1.2453  1.5715
  828MOL0     H14207   6.554   4.314  10.099  0.7925  0.6939  0.4589
  828MOL0     H14208   6.513   4.155  10.191  0.7050 -0.7910  2.4176
  828MOL0     H14209   6.351   4.410  10.176  2.0865  0.3367  1.8352
  828MOL0     H14210   6.321   4.275  10.286 -1.0365  0.8205 -0.1793
  828MOL0     H14211   6.316   4.253   9.982  5.3725  1.7810  2.6396
  828MOL0     H14212   6.304   4.113  10.091  2.0060  0.1333 -2.4333
  828MOL0     H14213   6.054   4.051  10.141  4.1041  0.6119  2.2195
  828MOL0     H14214   5.807   4.049  10.058  0.0003 -1.7894  3.4486
  828MOL0     H14215   5.720   4.200  10.001 -0.2692  0.5532  0.7688
  828MOL0     H14216   5.617   4.122  10.195  1.3322 -0.0746 -0.5555
  828MOL0     H14217   5.768   4.094  10.279 -1.2877 -2.6005 -0.5498
  828MOL0     H14218   5.812   4.335  10.274  1.0672 -2.4267  0.2970
  828MOL0     H14219   5.650   4.360  10.193  0.5149 -1.2869 -0.9391
  828MOL0     H14220   5.557   4.270  10.405 -0.2439 -1.4666  1.8134
  828MOL0     H14221   5.700   4.241  10.467 -0.5600 -0.8326 -1.2685
  828MOL0     H14222   5.742   4.668  10.571  2.8731 -1.3769  0.1726
  828MOL0     H14223   5.685   4.803  10.865  0.3133 -0.7539  0.8478
  828MOL0     H14224   5.780   4.822  10.722 -1.1441 -1.0214  0.2478
  828MOL0     H14225   5.846   4.740  10.872 -0.4943  1.2988  0.8843
  828MOL0     H14226   5.442   4.280  11.209  1.2677 -0.7291  0.0167
  828MOL0     H14227   5.453   4.231  11.453  1.2297 -0.6575 -0.9037
  828MOL0     H14228   5.396   4.274  11.652  0.5243  1.8691 -0.7516
  828MOL0     H14229   5.561   4.203  11.664  1.2330  0.6050 -0.8950
  828MOL0     H14230   5.455   4.409  11.862  2.0029  0.8610  1.1606
  828MOL0     H14231   5.398   4.233  11.864 -0.2073  1.3263 -1.3493
  828MOL0     H14232   5.690   4.342  11.906 -1.9148  2.4541  1.7408
  828MOL0     H14233   5.646   4.175  11.874 -0.2886  0.7279  0.5556
  828MOL0     H14234   5.509   4.294  12.109 -0.0339  0.8809 -0.0336
  828MOL0     H14235   5.687   4.302  12.124  0.9258 -0.5441  0.3378
  828MOL0     H14236   5.528   4.056  12.051 -0.4477 -2.7907  2.1225
  828MOL0     H14237   5.699   4.057  12.094 -1.5608 -0.9047 -0.6310
  828MOL0     H14238   5.523   3.975  12.267  1.3372 -0.6871  1.6131
  828MOL0     H14239   5.501   4.153  12.302  2.9861  2.2714  0.9882
  828MOL0     H14240   5.710   4.190  12.382  0.5596  0.5431 -2.6025
  828MOL0     H14241   5.787   4.069  12.281  1.0764  0.9433  0.8131
  828MOL0     H14242   5.794   4.017  12.537  0.6755 -1.9362  0.0277
  828MOL0     H14243   5.735   3.889  12.443  2.2848  0.0568  2.5038
  828MOL0     H14244   5.694   4.568  11.511 -1.8409  0.2655  0.7281
  828MOL0     H14245   5.738   4.595  11.268  0.6886 -1.4769 -2.2695
  828MOL0     H14246   5.566   4.345  10.883  2.2716  1.9199  3.2940
  828MOL0     H14247   5.567   4.282  10.638 -0.8739  1.3739 -0.7462
  828MOL0     H14248   6.988   4.519  10.825  1.0667  0.9991 -2.7660
  828MOL0     H14249   7.080   4.580  11.042  0.3443  1.3228 -0.3511
  828MOL0     H14250   7.285   4.687  11.307  3.5989  1.6509 -2.5729
  828MOL0     H14251   7.392   4.790  11.521 -0.2668 -0.6304  3.4223
  828MOL0     H14252   7.413   4.685  11.904 -0.8133  2.0924 -2.0483
  828MOL0     H14253   7.496   4.538  11.845  0.1489  0.3006  0.8435
  828MOL0     H14254   7.715   4.641  11.884  0.6159 -1.5917  1.5714
  828MOL0     H14255   7.594   4.685  12.016 -2.8904  2.6418 -0.5873
  828MOL0     H14256   7.647   4.884  11.794  1.7728 -2.1774  0.4453
  828MOL0     H14257   7.536   4.894  11.937  0.4332  0.0632  2.6194
  828MOL0     H14258   7.842   4.872  11.949  0.4136  1.8967 -0.5714
  828MOL0     H14259   7.732   4.849  12.086 -1.7866  0.6825  0.6235
  828MOL0     H14260   7.766   5.275  12.004  0.5381 -1.1764 -1.2068
  828MOL0     H14261   7.407   4.406  11.701 -0.3772 -0.3620 -0.1974
  828MOL0     H14262   7.324   4.213  11.615  4.1959  3.7145  1.1503
  828MOL0     H14263   7.180   4.251  11.535 -0.7976 -1.7902 -0.9016
  828MOL0     H14264   7.325   4.210  11.434 -0.1108  1.3843  0.2013
  829MOL0     O14265  10.458   3.661   0.722  0.0723 -0.5538  0.2757
  829MOL0     C14266  10.470   3.768   0.678 -0.4604 -0.6494  0.5475
  829MOL0     O14267  10.409   3.889   0.721  0.4411 -0.1599 -0.3540
  829MOL0     C14268  10.329   3.887   0.832  0.8553  0.6502  0.4438
  829MOL0     C14269  10.399   3.861   0.957  0.5369  0.0157  0.7345
  829MOL0     C14270  10.326   3.877   1.075  0.7429 -0.2706  0.7248
  829MOL0     C14271  10.194   3.917   1.081 -0.2449 -0.0854  0.0495
  829MOL0     O14272  10.128   3.940   1.197 -0.7505 -0.5576  0.1018
  829MOL0     C14273  10.204   3.933   1.316  0.5321 -0.8104 -0.7702
  829MOL0     C14274  10.100   3.951   1.429  0.3089 -0.2381 -0.2924
  829MOL0     C14275  10.020   4.083   1.430  0.5857 -0.4070  0.4337
  829MOL0     C14276   9.920   4.084   1.549 -0.2952 -0.4018 -0.8284
  829MOL0     C14277   9.797   4.175   1.546  0.5433 -0.6272  0.2186
  829MOL0     C14278   9.694   4.167   1.658  0.5465 -0.3770 -1.0454
  829MOL0     C14279   9.740   4.190   1.806 -0.2466 -0.2185 -0.2797
  829MOL0     C14280   9.623   4.201   1.909  0.5702 -0.4867 -0.1498
  829MOL0     N14281   9.533   4.079   1.901  0.0528  0.0443  0.4371
  829MOL0     C14282   9.394   4.081   1.910 -0.0048  0.6471  0.9296
  829MOL0     C14283   9.346   3.957   1.896 -0.6494  0.9989  0.5329
  829MOL0     C14284   9.209   3.916   1.907 -0.9429  0.7052 -0.3029
  829MOL0     C14285   9.195   3.758   1.905 -0.2004 -0.1627  0.9607
  829MOL0     C14286   9.075   3.705   1.984  0.8716  1.1880 -0.4194
  829MOL0     C14287   9.101   3.728   2.131  0.5754 -0.3238 -0.2278
  829MOL0     O14288   9.004   3.813   2.197 -0.4412 -0.6972 -0.0858
  829MOL0     C14289   8.999   3.820   2.333 -0.6787  0.3852 -0.3685
  829MOL0     C14290   8.892   3.897   2.371  0.2426 -0.9150  0.0809
  829MOL0     C14291   8.867   3.927   2.509 -0.7565  0.3990  0.4815
  829MOL0     C14292   8.748   4.027   2.522  0.0659 -0.3751  0.6395
  829MOL0     C14293   8.950   3.866   2.605 -0.6016 -0.2116  0.1229
  829MOL0     C14294   8.921   3.887   2.755 -0.1503 -0.0237 -0.2698
  829MOL0     O14295   8.812   3.957   2.800 -0.1816  0.2361  0.3650
  829MOL0     C14296   8.779   3.965   2.929 -0.4325 -0.6196  1.6490
  829MOL0     C14297   8.715   3.858   3.002 -0.0053 -0.4425 -0.0750
  829MOL0     C14298   8.672   3.875   3.130  0.7169 -0.3234  1.0301
  829MOL0     C14299   8.687   3.992   3.193  0.7356  0.8296 -0.3304
  829MOL0     O14300   8.620   4.022   3.309 -0.0122  0.3132  0.0166
  829MOL0     C14301   8.528   4.131   3.293  0.6326  0.1706 -0.3617
  829MOL0     C14302   8.403   4.126   3.390 -0.3895  0.9621 -0.8339
  829MOL0     C14303   8.294   4.021   3.343  0.3527 -1.3169  0.2049
  829MOL0     C14304   8.202   3.978   3.453  1.2458  0.6784 -0.5586
  829MOL0     C14305   8.081   3.907   3.410  0.3994  0.5224  0.5065
  829MOL0     C14306   8.020   3.835   3.528 -0.7332 -0.4423  0.0491
  829MOL0     C14307   7.875   3.790   3.496  0.2645  0.6860  0.0864
  829MOL0     C14308   7.841   3.640   3.537  0.3870 -0.0560  0.1507
  829MOL0    Cl14309   7.670   3.615   3.529 -0.2442  0.9638  0.0778
  829MOL0     C14310   8.758   4.093   3.128 -0.3942  0.3864 -0.3396
  829MOL0     C14311   8.792   4.089   2.993  0.0176 -0.7047 -0.2401
  829MOL0     O14312   9.014   3.863   2.829  0.2183  0.2089 -0.2774
  829MOL0     C14313   9.050   3.783   2.560  0.5471  1.4071 -0.7328
  829MOL0     C14314   9.072   3.751   2.426  0.3193 -0.2865 -0.3827
  829MOL0     N14315   9.461   3.874   1.896 -0.6501 -0.0516  0.1621
  829MOL0     N14316   9.569   3.955   1.905 -0.3364 -0.1728  0.2312
  829MOL0     C14317  10.123   3.930   0.961  0.3536 -0.8511  0.4284
  829MOL0     C14318  10.186   3.911   0.834  0.6882 -0.1123  1.3984
  829MOL0     C14319  10.560   3.774   0.549  0.0881  0.8507  0.0175
  829MOL0     C14320  10.554   3.659   0.470  0.0948  0.3305 -0.2961
  829MOL0     C14321  10.631   3.642   0.358  0.2634  0.3327  1.0214
  829MOL0     C14322  10.715   3.751   0.310  0.2199  0.3265 -0.3677
  829MOL0     O14323  10.790   3.748   0.192  0.4792 -0.1151  0.0784
  829MOL0     C14324  10.815   3.619   0.132 -0.3564  0.4966  0.2453
  829MOL0     C14325  10.900   3.647   0.011 -0.1095 -0.2031 -0.9418
  829MOL0     C14326  10.838   3.759  -0.087  0.6160 -0.2055 -0.6719
  829MOL0     C14327  10.897   3.768  -0.227  0.3271 -0.1288  0.6511
  829MOL0     C14328  10.895   3.644  -0.313  0.2077  0.2717 -0.4589
  829MOL0     C14329  10.924   3.544  -0.372  0.7297  0.9039 -0.1242
  829MOL0     C14330  10.687   3.878   0.367  0.0162  0.0019  0.2977
  829MOL0     C14331  10.630   3.885   0.492  0.9970 -0.3363  0.4221
  829MOL0     C14332  10.646   4.012   0.576  0.2085 -0.1389 -0.1018
  829MOL0     H14333  10.503   3.831   0.962  0.4449 -0.4004  0.1777
  829MOL0     H14334  10.380   3.845   1.164  0.3497 -2.0471  0.3652
  829MOL0     H14335  10.282   4.009   1.306  0.2502 -0.6393 -1.7893
  829MOL0     H14336  10.252   3.835   1.320 -2.2217 -2.2446 -0.9883
  829MOL0     H14337  10.024   3.873   1.420 -0.9728  1.1215 -2.1370
  829MOL0     H14338  10.149   3.936   1.525  2.1496 -2.6166 -1.5132
  829MOL0     H14339  10.073   4.179   1.435  0.8623 -0.6026  1.4239
  829MOL0     H14340   9.960   4.078   1.338  2.4906 -1.2235 -0.8210
  829MOL0     H14341   9.883   3.982   1.564 -1.9265  0.5590  2.7824
  829MOL0     H14342   9.980   4.110   1.637  1.2327 -1.8855 -1.3766
  829MOL0     H14343   9.748   4.159   1.450  2.4213  1.5377 -1.2151
  829MOL0     H14344   9.839   4.276   1.538 -2.7451  1.1115  2.6205
  829MOL0     H14345   9.619   4.245   1.637 -0.0462 -1.5044 -3.5195
  829MOL0     H14346   9.651   4.067   1.651  1.9724 -1.4724  3.0469
  829MOL0     H14347   9.794   4.285   1.813 -0.5108 -0.0063 -1.0529
  829MOL0     H14348   9.805   4.105   1.828  1.0785  0.1924 -2.3028
  829MOL0     H14349   9.673   4.189   2.006  2.8724  0.9578 -1.0715
  829MOL0     H14350   9.572   4.296   1.893  0.5939 -0.3367  0.6207
  829MOL0     H14351   9.336   4.171   1.928  0.5021  0.8888  1.3522
  829MOL0     H14352   9.152   3.956   1.822 -3.6400  0.0708  1.0783
  829MOL0     H14353   9.163   3.963   1.994 -1.4727 -1.2330  0.5272
  829MOL0     H14354   9.182   3.726   1.801 -3.0658 -1.0583  1.5045
  829MOL0     H14355   9.287   3.710   1.941  0.3272 -0.3352 -0.5443
  829MOL0     H14356   8.980   3.748   1.950 -0.4040  1.6067  3.2403
  829MOL0     H14357   9.066   3.596   1.981  5.4802  0.4424  2.7808
  829MOL0     H14358   9.103   3.629   2.176  1.5987 -0.8115 -1.2771
  829MOL0     H14359   9.199   3.773   2.155 -0.3765  2.0301 -0.4376
  829MOL0     H14360   8.836   3.948   2.295  3.9478  1.1974 -1.4995
  829MOL0     H14361   8.729   4.082   2.430  0.1698 -0.4096  0.5974
  829MOL0     H14362   8.777   4.105   2.592 -3.2618  0.1022  1.6588
  829MOL0     H14363   8.656   3.975   2.549 -0.8470  1.1918  0.6044
  829MOL0     H14364   8.693   3.770   2.942 -1.8287 -0.7461  0.9657
  829MOL0     H14365   8.607   3.800   3.174 -1.2404 -0.2782 -1.5724
  829MOL0     H14366   8.592   4.220   3.299  4.2540 -1.8808 -3.7607
  829MOL0     H14367   8.483   4.112   3.196 -0.2664  1.6137 -0.2611
  829MOL0     H14368   8.431   4.106   3.494 -0.1371 -3.8328 -1.5589
  829MOL0     H14369   8.351   4.222   3.394 -0.3041  0.9733  1.5271
  829MOL0     H14370   8.347   3.932   3.308 -2.0650 -1.9933 -2.0398
  829MOL0     H14371   8.236   4.055   3.257  0.7143 -4.6748 -1.5252
  829MOL0     H14372   8.155   4.063   3.504 -1.9565  0.1570 -2.3966
  829MOL0     H14373   8.252   3.927   3.536 -2.1587  0.9170  1.8375
  829MOL0     H14374   8.023   3.983   3.358 -0.6320 -0.8778 -0.4548
  829MOL0     H14375   8.112   3.833   3.336 -2.0506 -0.6002  0.5107
  829MOL0     H14376   8.025   3.903   3.614 -3.1515  1.3575 -1.0933
  829MOL0     H14377   8.087   3.755   3.560 -0.5909 -0.5761 -0.5872
  829MOL0     H14378   7.860   3.809   3.389 -2.0703  2.9163  0.6960
  829MOL0     H14379   7.799   3.854   3.542  2.1209  3.3505 -0.2980
  829MOL0     H14380   7.877   3.640   3.640  1.3902 -0.2948 -0.1846
  829MOL0     H14381   7.901   3.571   3.477 -0.3651 -0.3798 -0.2407
  829MOL0     H14382   8.779   4.190   3.171  2.7842 -0.2739 -0.0994
  829MOL0     H14383   8.825   4.172   2.932 -0.2757 -2.7484 -3.4677
  829MOL0     H14384   9.085   3.722   2.642 -0.2815  0.4340 -1.0908
  829MOL0     H14385   9.151   3.681   2.399 -0.3254 -2.0958  2.0251
  829MOL0     H14386  10.018   3.955   0.965  0.5978  0.1000  0.9951
  829MOL0     H14387  10.133   3.909   0.739  1.2457 -0.9236  1.0925
  829MOL0     H14388  10.489   3.579   0.504 -0.6754  1.0058 -0.1572
  829MOL0     H14389  10.633   3.546   0.309 -1.0389 -0.3774  2.3057
  829MOL0     H14390  10.876   3.564   0.203 -0.5337  0.5885  0.4692
  829MOL0     H14391  10.726   3.565   0.100  1.3258  0.1119 -4.5658
  829MOL0     H14392  10.914   3.555  -0.046  1.8841 -0.8414  0.4561
  829MOL0     H14393  10.995   3.672   0.060 -0.5571  0.6060 -0.4671
  829MOL0     H14394  10.731   3.735  -0.095  0.3426  1.0438 -0.9934
  829MOL0     H14395  10.838   3.857  -0.037 -2.6674 -1.4841  2.2936
  829MOL0     H14396  11.003   3.786  -0.210  0.8888 -0.2930 -2.2795
  829MOL0     H14397  10.857   3.858  -0.275 -1.7510  0.1881  2.7941
  829MOL0     H14398  10.937   3.458  -0.434 -0.9226 -0.4237  1.2614
  829MOL0     H14399  10.728   3.966   0.318  0.6588 -0.9756 -1.0091
  829MOL0     H14400  10.697   3.992   0.670 -0.1219 -0.1053  0.0857
  829MOL0     H14401  10.706   4.081   0.515 -2.3328 -0.2384 -2.9580
  829MOL0     H14402  10.549   4.062   0.591 -0.1575 -0.8724  0.0031
  830MOL0     O14403   0.592   2.305  11.222  0.0241 -0.3236 -0.6036
  830MOL0     C14404   0.525   2.262  11.315 -0.6747 -0.6229  0.1511
  830MOL0     O14405   0.579   2.224  11.435  0.4931 -0.1092 -0.1620
  830MOL0     C14406   0.718   2.235  11.458  0.5549  0.4754 -0.0321
  830MOL0     C14407   0.763   2.306  11.570  0.6425  0.7718  0.2682
  830MOL0     C14408   0.896   2.301  11.610  0.3471 -0.6231 -0.1309
  830MOL0     C14409   0.992   2.234  11.532 -0.5674  0.4669 -0.3158
  830MOL0     O14410   1.125   2.196  11.580 -0.1967  0.8323 -0.2710
  830MOL0     C14411   1.172   2.264  11.693 -0.3700  0.3790  0.4983
  830MOL0     C14412   1.284   2.189  11.746 -0.1832  0.1244 -0.3766
  830MOL0     C14413   1.394   2.269  11.809 -0.6998 -0.0808  0.2912
  830MOL0     C14414   1.517   2.293  11.720 -0.0499 -0.1172  0.4348
  830MOL0     C14415   1.653   2.348  11.785 -0.0214 -0.0922 -0.4337
  830MOL0     C14416   1.702   2.264  11.907  0.4638  0.1219  0.3059
  830MOL0     C14417   1.739   2.120  11.889  0.6575 -0.9494  0.1722
  830MOL0     C14418   1.873   2.109  11.819 -0.7546  0.4692  0.6715
  830MOL0     N14419   2.000   2.172  11.877  0.1007  0.6816 -0.4839
  830MOL0     C14420   2.120   2.117  11.856  0.6701 -0.7316 -1.8042
  830MOL0     C14421   2.214   2.210  11.863  0.3594 -1.0051  0.0030
  830MOL0     C14422   2.363   2.189  11.861  0.8289  0.2748 -0.6497
  830MOL0     C14423   2.431   2.144  11.998  0.3757  0.8160  0.1537
  830MOL0     C14424   2.507   2.254  12.068 -0.2542 -0.2638  0.4586
  830MOL0     C14425   2.424   2.348  12.163 -0.2664  0.0853 -0.1451
  830MOL0     O14426   2.510   2.462  12.199  0.4916 -0.5323 -0.3333
  830MOL0     C14427   2.506   2.578  12.121 -0.3916  0.3252 -0.4098
  830MOL0     C14428   2.395   2.636  12.057  0.9067 -0.4015  0.8591
  830MOL0     C14429   2.393   2.743  11.961  0.0343  0.2823 -0.0502
  830MOL0     C14430   2.263   2.776  11.882 -0.5655  0.6201  0.1141
  830MOL0     C14431   2.516   2.805  11.936  0.0215  0.2096  0.1507
  830MOL0     C14432   2.525   2.918  11.831 -0.2561  0.0930  0.4119
  830MOL0     O14433   2.590   2.879  11.718 -0.2174 -0.9277  0.1395
  830MOL0     C14434   2.590   2.961  11.612  0.7002  0.1107 -0.1245
  830MOL0     C14435   2.695   3.047  11.569 -1.1755  0.1551 -0.0032
  830MOL0     C14436   2.707   3.100  11.439  0.7715 -0.9951 -0.4583
  830MOL0     C14437   2.598   3.089  11.360  0.0259  0.5585 -0.0770
  830MOL0     O14438   2.596   3.182  11.263  0.6656 -0.0571  0.7141
  830MOL0     C14439   2.605   3.140  11.130  0.0946  0.0672  0.2969
  830MOL0     C14440   2.725   3.198  11.061  0.2795  0.4098  0.8761
  830MOL0     C14441   2.714   3.352  11.038  0.0048 -0.1154  0.3918
  830MOL0     C14442   2.828   3.418  10.949  0.4419  0.4137 -0.3609
  830MOL0     C14443   2.792   3.563  10.934  0.2662 -0.1577 -0.2924
  830MOL0     C14444   2.918   3.644  10.904  0.9463 -0.1488  0.5850
  830MOL0     C14445   2.874   3.795  10.896  0.6921 -1.1754  1.8365
  830MOL0     C14446   2.848   3.861  11.025  0.7867  0.0624 -0.0248
  830MOL0    Cl14447   2.828   4.041  11.018  0.1749  0.3993 -0.1971
  830MOL0     C14448   2.491   3.006  11.398 -0.5820  0.6989  0.3283
  830MOL0     C14449   2.484   2.949  11.525  0.1459 -0.1867  0.5659
  830MOL0     O14450   2.484   3.032  11.869 -0.4029 -0.7892  0.3549
  830MOL0     C14451   2.635   2.753  12.004  0.4469 -0.3209 -0.2802
  830MOL0     C14452   2.630   2.639  12.083  1.5548 -0.2198 -0.4667
  830MOL0     N14453   2.143   2.326  11.883  0.2912 -0.0763  0.1218
  830MOL0     N14454   2.026   2.303  11.901  0.2615 -0.5346  0.3094
  830MOL0     C14455   0.947   2.175  11.413  1.1138  0.7042 -0.2239
  830MOL0     C14456   0.816   2.167  11.383 -0.2997 -0.6306  0.5281
  830MOL0     C14457   0.379   2.249  11.294 -0.7376  0.2928 -0.3336
  830MOL0     C14458   0.297   2.192  11.399  0.2033 -0.0697  0.7575
  830MOL0     C14459   0.153   2.196  11.391  0.5219  0.6630 -0.4497
  830MOL0     C14460   0.091   2.245  11.274 -0.2489  0.3125 -0.0966
  830MOL0     O14461  -0.043   2.260  11.255 -0.3296 -0.4914 -0.2179
  830MOL0     C14462  -0.110   2.366  11.330 -0.4303 -0.6806 -0.0530
  830MOL0     C14463  -0.219   2.434  11.259  0.9673 -0.6049  0.3114
  830MOL0     C14464  -0.184   2.505  11.125 -0.3618  0.0790  0.1479
  830MOL0     C14465  -0.079   2.618  11.148  0.9066 -0.0512 -0.2059
  830MOL0     C14466  -0.112   2.732  11.232  0.8733  0.0580 -0.5953
  830MOL0     C14467  -0.170   2.823  11.294  0.5112  0.1579  0.3681
  830MOL0     C14468   0.174   2.301  11.170 -0.5185 -0.0706 -0.3659
  830MOL0     C14469   0.312   2.305  11.182 -0.2044  0.3418 -0.0994
  830MOL0     C14470   0.390   2.364  11.058  0.4335  0.6227 -0.9865
  830MOL0     H14471   0.685   2.339  11.638  1.6716  2.2668  0.7593
  830MOL0     H14472   0.926   2.344  11.705  1.1032  1.9773 -1.4735
  830MOL0     H14473   1.092   2.268  11.767 -0.9293 -0.3731 -0.0486
  830MOL0     H14474   1.218   2.362  11.676 -2.3244  1.4081  0.8116
  830MOL0     H14475   1.253   2.120  11.825  1.6167  0.1728  0.4351
  830MOL0     H14476   1.325   2.122  11.669  0.3855  1.1843 -1.0237
  830MOL0     H14477   1.364   2.363  11.856 -1.7780 -1.1596  1.8472
  830MOL0     H14478   1.428   2.217  11.899  2.7015  2.5255  0.7075
  830MOL0     H14479   1.533   2.200  11.665  2.1632  2.8952 -4.8547
  830MOL0     H14480   1.479   2.364  11.646  3.1437  1.0854 -0.2404
  830MOL0     H14481   1.635   2.454  11.808  2.2382  0.3168 -0.3697
  830MOL0     H14482   1.738   2.339  11.717  1.8972 -2.5008  2.0918
  830MOL0     H14483   1.787   2.319  11.948 -0.5991  1.0981  1.2731
  830MOL0     H14484   1.620   2.261  11.979  2.3975 -2.7674  2.6040
  830MOL0     H14485   1.654   2.074  11.837 -3.8588  2.2980  3.8330
  830MOL0     H14486   1.747   2.083  11.991  0.5249 -2.7967 -0.4570
  830MOL0     H14487   1.890   2.001  11.812  0.8463  0.6157  1.8092
  830MOL0     H14488   1.876   2.144  11.716  4.3553  2.4007  1.1709
  830MOL0     H14489   2.141   2.011  11.863  0.1360 -0.7169  2.1064
  830MOL0     H14490   2.396   2.289  11.830  3.0927 -0.0618  0.5048
  830MOL0     H14491   2.389   2.108  11.792  2.0537  2.5401 -3.0448
  830MOL0     H14492   2.358   2.098  12.065 -0.6504  0.7000 -1.0152
  830MOL0     H14493   2.508   2.071  11.970 -0.1528  0.2603  0.1304
  830MOL0     H14494   2.576   2.204  12.136 -1.2416 -2.0575  0.2060
  830MOL0     H14495   2.563   2.307  11.990  0.3155 -0.5466  0.6741
  830MOL0     H14496   2.332   2.376  12.112 -1.4827 -1.1261  1.2910
  830MOL0     H14497   2.378   2.305  12.252 -3.6664  1.0335 -1.3186
  830MOL0     H14498   2.298   2.600  12.089 -0.4923  1.5406 -0.9136
  830MOL0     H14499   2.177   2.730  11.931 -0.2078 -2.6116 -1.9789
  830MOL0     H14500   2.269   2.743  11.778  0.3079  0.2052  0.2888
  830MOL0     H14501   2.248   2.884  11.886  0.5531  0.7434  1.9458
  830MOL0     H14502   2.765   3.063  11.650 -1.0776  2.9999 -0.5486
  830MOL0     H14503   2.784   3.172  11.413  0.3427 -0.7315 -1.0329
  830MOL0     H14504   2.604   3.031  11.128  0.2167 -0.1136  3.6064
  830MOL0     H14505   2.517   3.175  11.075 -2.4571 -1.8567  2.8473
  830MOL0     H14506   2.817   3.180  11.118 -0.8783 -2.1392  2.1183
  830MOL0     H14507   2.741   3.149  10.964 -1.0160 -0.7931  1.2367
  830MOL0     H14508   2.730   3.394  11.138  0.0609 -0.4850  0.5383
  830MOL0     H14509   2.618   3.383  10.997 -0.9337  0.0305  2.5352
  830MOL0     H14510   2.822   3.372  10.850 -1.7842  1.1562 -0.6103
  830MOL0     H14511   2.921   3.407  11.006  1.2733  0.1233 -1.7219
  830MOL0     H14512   2.713   3.581  10.860  2.2760  3.6354 -1.8070
  830MOL0     H14513   2.753   3.599  11.030 -1.4563 -2.0864 -0.1888
  830MOL0     H14514   2.961   3.604  10.811  0.5755 -0.8030  0.6963
  830MOL0     H14515   3.006   3.631  10.968  4.3937 -0.8848 -3.7804
  830MOL0     H14516   2.787   3.788  10.830  2.7152 -3.1053 -0.8668
  830MOL0     H14517   2.954   3.856  10.852 -0.4688 -0.2495  0.9393
  830MOL0     H14518   2.937   3.854  11.088 -0.1552 -0.8242  1.2406
  830MOL0     H14519   2.750   3.826  11.056  1.3782 -1.2005  0.4512
  830MOL0     H14520   2.412   3.015  11.324 -0.7628 -1.4441  0.2030
  830MOL0     H14521   2.399   2.885  11.548  1.3163 -2.1936 -0.4249
  830MOL0     H14522   2.730   2.803  11.987  0.3873 -0.1426 -0.0840
  830MOL0     H14523   2.717   2.595  12.131  0.9552 -1.5728 -0.5481
  830MOL0     H14524   1.010   2.112  11.351  0.7264  0.1215 -0.0380
  830MOL0     H14525   0.792   2.108  11.296 -1.6371 -0.8612  1.0225
  830MOL0     H14526   0.350   2.150  11.484  1.2096  1.5728  0.9798
  830MOL0     H14527   0.084   2.171  11.471  1.7266  0.6178  0.6003
  830MOL0     H14528  -0.156   2.323  11.419  2.4820  0.1612  1.9774
  830MOL0     H14529  -0.036   2.435  11.372 -0.8603 -1.3994  1.9519
  830MOL0     H14530  -0.271   2.511  11.317 -1.4632  1.4751 -4.1402
  830MOL0     H14531  -0.288   2.352  11.238  2.8636 -2.6074  1.4069
  830MOL0     H14532  -0.131   2.432  11.064  3.5096  0.0086  3.1927
  830MOL0     H14533  -0.269   2.548  11.071 -0.5099 -1.7003 -1.1253
  830MOL0     H14534  -0.072   2.666  11.050  1.2661 -0.2045 -0.2586
  830MOL0     H14535   0.018   2.572  11.171  0.7457  1.2193  3.6309
  830MOL0     H14536  -0.215   2.905  11.346  1.7963  0.0852  1.6416
  830MOL0     H14537   0.115   2.359  11.101 -1.8163  0.3543  1.0370
  830MOL0     H14538   0.436   2.284  10.999  1.5132  1.8364 -1.8420
  830MOL0     H14539   0.318   2.410  10.990 -0.4796  0.5865 -0.0735
  830MOL0     H14540   0.459   2.446  11.079 -0.1256  1.3168 -1.7793
  831MOL0     O14541  10.528   1.914  11.120  0.3400  0.0306 -0.9924
  831MOL0     C14542  10.641   1.945  11.119 -0.0278 -0.4053  0.0100
  831MOL0     O14543  10.724   1.929  11.227 -0.1450 -0.3509  0.3685
  831MOL0     C14544  10.677   1.901  11.351 -0.2106 -0.1595 -0.8279
  831MOL0     C14545  10.711   1.785  11.412  1.2101  0.7522  0.2753
  831MOL0     C14546  10.664   1.755  11.536 -0.2418 -0.2309 -0.2078
  831MOL0     C14547  10.571   1.841  11.601 -0.2624  0.4460 -0.3396
  831MOL0     O14548  10.501   1.820  11.725 -0.4052  0.0903 -0.4846
  831MOL0     C14549  10.503   1.688  11.779  0.0446  1.1606 -0.4515
  831MOL0     C14550  10.412   1.668  11.902 -0.2540 -0.2739 -0.1603
  831MOL0     C14551  10.265   1.666  11.864 -0.3836  0.2797  0.1090
  831MOL0     C14552  10.175   1.601  11.978 -0.5004 -0.2870  0.1838
  831MOL0     C14553  10.043   1.678  11.996  0.3638 -0.6257  0.1486
  831MOL0     C14554   9.951   1.635  12.116 -0.3933 -0.4453  0.7733
  831MOL0     C14555   9.799   1.636  12.085  0.1446 -0.3749  0.6157
  831MOL0     C14556   9.713   1.581  12.201 -0.1495 -0.1390  0.5701
  831MOL0     N14557   9.578   1.606  12.157  1.2263  0.7305  0.3417
  831MOL0     C14558   9.522   1.722  12.145  0.2342 -0.2351  0.2847
  831MOL0     C14559   9.392   1.701  12.103 -0.8180 -0.4278 -1.0962
  831MOL0     C14560   9.291   1.812  12.122  1.3196 -0.0663  0.1813
  831MOL0     C14561   9.310   1.920  12.025  0.1706  0.1626 -0.0390
  831MOL0     C14562   9.208   2.039  12.039  0.2205 -0.3494 -0.8643
  831MOL0     C14563   9.214   2.120  12.173  0.0622  0.5619 -0.1861
  831MOL0     O14564   9.332   2.179  12.218 -0.4058  0.1480 -0.5235
  831MOL0     C14565   9.362   2.303  12.158  0.9762 -0.2464  1.2844
  831MOL0     C14566   9.292   2.410  12.200 -0.3044  0.8420 -0.9280
  831MOL0     C14567   9.331   2.537  12.162  0.4456  0.2222  0.4744
  831MOL0     C14568   9.263   2.659  12.206  0.0845  0.3758  0.2880
  831MOL0     C14569   9.436   2.546  12.067  0.0905 -0.4160  0.1959
  831MOL0     C14570   9.500   2.674  12.022 -0.1105 -0.1758  1.2828
  831MOL0     O14571   9.634   2.672  12.008 -1.0968 -0.0136  0.0362
  831MOL0     C14572   9.687   2.789  11.971  0.3060 -0.2141 -0.0268
  831MOL0     C14573   9.693   2.816  11.836 -0.6139 -0.4915  0.3918
  831MOL0     C14574   9.760   2.935  11.788 -0.3660  1.2424  0.3928
  831MOL0     C14575   9.818   3.019  11.871  0.0290 -0.1989  0.0746
  831MOL0     O14576   9.890   3.133  11.836  0.9682  0.1078 -0.1417
  831MOL0     C14577   9.934   3.164  11.707 -0.3966 -0.1486 -0.4388
  831MOL0     C14578  10.005   3.292  11.683  0.3488 -0.6200  0.2224
  831MOL0     C14579   9.933   3.415  11.741  0.5582 -0.4236 -0.3443
  831MOL0     C14580  10.018   3.535  11.733  0.4990  0.8665 -0.7490
  831MOL0     C14581   9.950   3.655  11.806  0.1699 -0.7529  0.5520
  831MOL0     C14582   9.935   3.636  11.965 -0.7975 -1.3180  0.9324
  831MOL0     C14583  10.064   3.595  12.036 -1.5278 -0.3716  0.3986
  831MOL0     C14584  10.178   3.698  12.010 -0.4918  0.3965  0.1999
  831MOL0    Cl14585  10.144   3.857  12.057 -0.1019  0.0478  0.2487
  831MOL0     C14586   9.805   2.996  12.008  1.1376  0.6046  0.2407
  831MOL0     C14587   9.743   2.886  12.056  1.0266  0.2738  0.2022
  831MOL0     O14588   9.425   2.769  12.002  0.4598 -0.2125  0.1103
  831MOL0     C14589   9.503   2.430  12.018 -0.2153  0.6881  0.3221
  831MOL0     C14590   9.469   2.308  12.077 -0.0100 -0.4646 -0.3805
  831MOL0     N14591   9.377   1.565  12.104  0.4017 -0.1599 -0.5552
  831MOL0     N14592   9.486   1.506  12.132 -0.7719 -0.9941 -0.4899
  831MOL0     C14593  10.543   1.961  11.540 -0.9938  0.6253 -0.0336
  831MOL0     C14594  10.590   1.985  11.413 -0.3646 -0.4970 -0.8624
  831MOL0     C14595  10.706   1.984  10.985  0.8909  0.1592  0.3671
  831MOL0     C14596  10.827   1.921  10.959 -0.3774 -1.1772 -0.2095
  831MOL0     C14597  10.886   1.939  10.830 -0.4918 -0.8064 -0.5714
  831MOL0     C14598  10.819   2.004  10.722 -0.3177  1.0815  0.2385
  831MOL0     O14599  10.868   2.019  10.594 -0.0480  0.6539  0.0718
  831MOL0     C14600  10.968   1.920  10.548  0.6009 -0.9851 -0.1476
  831MOL0     C14601  11.101   1.974  10.568 -0.1213 -0.8309  0.1686
  831MOL0     C14602  11.212   1.884  10.508  0.8284 -0.2352  0.4495
  831MOL0     C14603  11.201   1.738  10.554  0.0120 -0.7412 -0.6076
  831MOL0     C14604  11.339   1.677  10.569 -0.2432  0.2777  0.2188
  831MOL0     C14605  11.458   1.647  10.592  0.4275 -0.8329  0.3418
  831MOL0     C14606  10.691   2.055  10.754 -0.6524  0.4689 -0.1964
  831MOL0     C14607  10.636   2.045  10.882 -0.9902 -0.5956 -0.2699
  831MOL0     C14608  10.495   2.102  10.908 -0.5661  0.1284  0.7386
  831MOL0     H14609  10.760   1.715  11.345 -2.4787  1.5583 -3.7480
  831MOL0     H14610  10.705   1.669  11.587  0.9943  1.9315  2.6777
  831MOL0     H14611  10.601   1.654  11.813 -1.4519 -0.8929  2.1640
  831MOL0     H14612  10.478   1.619  11.697 -2.5166 -1.2808  2.1522
  831MOL0     H14613  10.450   1.574  11.942  1.5674  0.1772 -0.7255
  831MOL0     H14614  10.419   1.743  11.982 -1.8937 -1.2160  0.9142
  831MOL0     H14615  10.236   1.771  11.856 -2.3294  0.0764  3.0963
  831MOL0     H14616  10.254   1.627  11.762 -0.1644  4.0485 -1.4901
  831MOL0     H14617  10.157   1.497  11.952 -2.2408  0.0476 -0.0686
  831MOL0     H14618  10.226   1.606  12.075  1.2925  1.2764 -0.7644
  831MOL0     H14619   9.995   1.685  11.898  0.9241  2.1757 -0.0323
  831MOL0     H14620  10.078   1.779  12.023  1.3485 -0.9183  0.0252
  831MOL0     H14621   9.983   1.539  12.157 -0.0600  1.1849  4.8142
  831MOL0     H14622   9.971   1.706  12.197  0.2278  0.8946 -0.5068
  831MOL0     H14623   9.771   1.579  11.996 -0.2838  2.9270 -1.5378
  831MOL0     H14624   9.781   1.739  12.055  4.1299  0.4869  0.6027
  831MOL0     H14625   9.728   1.474  12.220  2.0542  0.3439  1.8271
  831MOL0     H14626   9.741   1.641  12.288  0.2971  0.6415 -0.1085
  831MOL0     H14627   9.572   1.815  12.171  0.6344 -0.5001  0.4536
  831MOL0     H14628   9.307   1.847  12.224  0.1189  1.7722 -0.2142
  831MOL0     H14629   9.188   1.775  12.112  0.4956  1.6782  1.5482
  831MOL0     H14630   9.415   1.950  12.028  0.0699  0.4607  0.5227
  831MOL0     H14631   9.285   1.876  11.928 -1.0054 -3.7690  1.8350
  831MOL0     H14632   9.232   2.110  11.959 -3.1983  3.1341  0.9134
  831MOL0     H14633   9.104   2.009  12.022  0.8096 -3.3761  0.2649
  831MOL0     H14634   9.134   2.194  12.160 -1.6294 -1.3519 -1.5543
  831MOL0     H14635   9.185   2.054  12.255  1.9708 -0.5974 -0.3871
  831MOL0     H14636   9.221   2.368  12.271  2.9401 -2.7628  0.5243
  831MOL0     H14637   9.182   2.633  12.275  1.3685  0.7132  2.0079
  831MOL0     H14638   9.211   2.712  12.125 -3.3118  2.2023  3.3525
  831MOL0     H14639   9.335   2.731  12.245  0.3436  1.5892 -2.2556
  831MOL0     H14640   9.641   2.738  11.781 -1.0850  0.6315 -0.8183
  831MOL0     H14641   9.758   2.966  11.684 -2.7575 -2.1121 -0.7141
  831MOL0     H14642  10.011   3.097  11.665 -0.7498 -1.0701  0.3376
  831MOL0     H14643   9.860   3.149  11.628 -0.5145 -3.6075  0.1678
  831MOL0     H14644  10.103   3.281  11.730  0.6016  0.2915 -0.0752
  831MOL0     H14645  10.015   3.317  11.577  2.1678  1.2708  0.7722
  831MOL0     H14646   9.903   3.392  11.844 -1.4302 -1.2551 -1.0716
  831MOL0     H14647   9.840   3.434  11.688 -0.7263  1.4131  2.3248
  831MOL0     H14648  10.032   3.565  11.629  0.2221  2.7397 -0.2865
  831MOL0     H14649  10.111   3.511  11.785 -0.0452  3.3556  1.6144
  831MOL0     H14650  10.012   3.740  11.776 -1.8756  0.6333  0.0260
  831MOL0     H14651   9.855   3.691  11.764  1.3624 -1.0183 -2.6453
  831MOL0     H14652   9.852   3.567  11.976 -2.5522  0.5333  0.0814
  831MOL0     H14653   9.900   3.731  12.006  1.5175  0.6258 -1.2317
  831MOL0     H14654  10.098   3.495  12.009 -0.6179  0.3110 -1.1493
  831MOL0     H14655  10.053   3.583  12.144  1.8427 -0.8213  0.8129
  831MOL0     H14656  10.223   3.699  11.910  1.4864  0.9281  1.0422
  831MOL0     H14657  10.266   3.659  12.061 -0.2802  1.2927  0.5323
  831MOL0     H14658   9.842   3.073  12.075  0.6665  2.1389 -1.1870
  831MOL0     H14659   9.737   2.881  12.164  1.9184 -4.2725  0.2258
  831MOL0     H14660   9.584   2.454  11.950 -0.2826  2.1744  0.7316
  831MOL0     H14661   9.534   2.224  12.055  0.3323 -0.2928 -0.0359
  831MOL0     H14662  10.474   2.026  11.593 -0.9475  1.0397 -0.4737
  831MOL0     H14663  10.558   2.074  11.361  1.2830  0.7135  0.0889
  831MOL0     H14664  10.886   1.873  11.036 -1.2684  2.6980  3.2440
  831MOL0     H14665  10.979   1.884  10.822  1.0224  1.0197  2.8071
  831MOL0     H14666  10.942   1.820  10.585  0.5728 -0.8441  0.2205
  831MOL0     H14667  10.929   1.908  10.446 -5.2943 -2.2597  1.8279
  831MOL0     H14668  11.128   1.989  10.673 -2.4345  0.4848  0.6425
  831MOL0     H14669  11.121   2.069  10.518  0.8358 -0.9372  0.3191
  831MOL0     H14670  11.206   1.886  10.398 -1.8168  0.0304  0.5211
  831MOL0     H14671  11.310   1.914  10.545  1.4512 -2.7091  0.9871
  831MOL0     H14672  11.143   1.674  10.486  0.8943 -0.1339 -1.9842
  831MOL0     H14673  11.154   1.730  10.652 -1.6197 -3.3459 -1.4876
  831MOL0     H14674  11.556   1.615  10.621 -0.0371 -4.4664 -1.5169
  831MOL0     H14675  10.635   2.103  10.674 -3.7556 -3.0531 -0.4133
  831MOL0     H14676  10.485   2.198  10.857 -2.0734  0.4737  1.5928
  831MOL0     H14677  10.424   2.036  10.858  1.2690 -0.8413 -0.7148
  831MOL0     H14678  10.468   2.128  11.011  4.0116 -0.6976  2.3789
  832MOL0     O14679   7.451   9.790   0.458  0.1291  0.3473  0.4485
  832MOL0     C14680   7.450   9.727   0.557 -1.1684  0.2657 -0.3264
  832MOL0     O14681   7.541   9.749   0.658 -0.2195  0.2504 -0.2350
  832MOL0     C14682   7.649   9.831   0.651 -1.2260 -0.3176 -0.1200
  832MOL0     C14683   7.688   9.906   0.763  0.6781 -0.2533 -0.1093
  832MOL0     C14684   7.799   9.987   0.771  0.4865  1.6518 -0.8422
  832MOL0     C14685   7.877   9.993   0.658 -0.1149 -0.4973  0.0794
  832MOL0     O14686   7.989  10.070   0.655  0.0254 -0.0317 -0.8172
  832MOL0     C14687   7.981  10.215   0.664 -0.3173 -0.4689 -0.3408
  832MOL0     C14688   8.064  10.276   0.554 -1.0768  0.2096 -0.6516
  832MOL0     C14689   8.211  10.251   0.567 -0.1257 -0.8073  0.4570
  832MOL0     C14690   8.267  10.132   0.480 -0.2436 -0.4689  0.3470
  832MOL0     C14691   8.416  10.124   0.477  0.3603  0.3275  0.6365
  832MOL0     C14692   8.466  10.006   0.400 -0.9221  0.7879  0.4775
  832MOL0     C14693   8.625   9.976   0.408  0.5794 -0.9300 -1.1204
  832MOL0     C14694   8.660   9.845   0.342  0.2641  0.1058 -0.6699
  832MOL0     N14695   8.675   9.734   0.434  0.1515  0.1897  0.1170
  832MOL0     C14696   8.791   9.695   0.496 -0.1918  1.0644  0.0564
  832MOL0     C14697   8.765   9.563   0.527 -0.1113  0.3332  0.0952
  832MOL0     C14698   8.848   9.472   0.599 -0.6112 -0.2780 -0.0039
  832MOL0     C14699   8.887   9.516   0.734  0.7064 -0.0691 -0.6367
  832MOL0     C14700   8.973   9.413   0.805 -0.1009  0.5632  0.7788
  832MOL0     C14701   9.045   9.474   0.934 -0.0500  0.2235  0.2669
  832MOL0     O14702   8.958   9.531   1.035 -0.7889  0.6831  0.7178
  832MOL0     C14703   9.007   9.617   1.127  0.3499 -0.4550 -0.0648
  832MOL0     C14704   9.140   9.616   1.154 -1.0545 -0.2370 -0.9453
  832MOL0     C14705   9.195   9.693   1.262  1.2078  0.0725  0.6347
  832MOL0     C14706   9.343   9.678   1.284  0.4620 -0.0536 -0.3179
  832MOL0     C14707   9.111   9.790   1.330 -0.2292  0.5251 -0.4461
  832MOL0     C14708   9.157   9.889   1.427  0.3779 -0.2242 -0.1687
  832MOL0     O14709   9.064   9.952   1.503  0.4388  0.4707  0.0082
  832MOL0     C14710   9.095  10.048   1.598 -0.0401 -0.2684  0.3005
  832MOL0     C14711   9.028  10.168   1.586  0.3613  0.2033 -0.1567
  832MOL0     C14712   9.040  10.257   1.696 -0.0743  1.1370  0.1403
  832MOL0     C14713   9.137  10.239   1.799  0.6059  1.3877  0.1551
  832MOL0     O14714   9.150  10.327   1.910  0.0418  0.1288  0.6401
  832MOL0     C14715   9.260  10.414   1.888  0.6869  0.1111  0.7760
  832MOL0     C14716   9.320  10.484   2.007 -0.4781  0.5296 -0.1676
  832MOL0     C14717   9.428  10.581   1.952 -0.0808  0.7507  0.0594
  832MOL0     C14718   9.497  10.663   2.062 -0.5967  0.2890 -0.3412
  832MOL0     C14719   9.638  10.712   2.027 -0.2935 -0.0312 -0.2281
  832MOL0     C14720   9.709  10.791   2.133  0.8431  0.2377 -0.0639
  832MOL0     C14721   9.838  10.844   2.085  0.2169 -0.5174 -0.2745
  832MOL0     C14722   9.878  10.975   2.165  0.2038  0.8633  0.9945
  832MOL0    Cl14723  10.018  11.037   2.073  0.0662  0.0322 -0.0022
  832MOL0     C14724   9.215  10.115   1.798 -0.3118 -0.3846  0.2606
  832MOL0     C14725   9.184  10.023   1.698 -0.5118  2.0008 -0.2642
  832MOL0     O14726   9.277   9.910   1.434 -0.0321  0.3560  0.8464
  832MOL0     C14727   8.974   9.789   1.296 -0.5731  0.1098  0.0802
  832MOL0     C14728   8.922   9.695   1.208 -0.2119 -0.3615 -0.0730
  832MOL0     N14729   8.641   9.522   0.487  0.1153  0.6842  0.9077
  832MOL0     N14730   8.594   9.621   0.422  0.3006  1.2204  0.2930
  832MOL0     C14731   7.847   9.917   0.547  0.2574 -0.2600 -0.1936
  832MOL0     C14732   7.739   9.829   0.542 -0.6694 -1.0338 -0.2498
  832MOL0     C14733   7.340   9.639   0.589  0.4118 -0.2522  0.5692
  832MOL0     C14734   7.309   9.629   0.732  1.1653 -0.4193 -0.2480
  832MOL0     C14735   7.209   9.543   0.763 -0.3273 -0.4033  0.0066
  832MOL0     C14736   7.122   9.485   0.672  0.3221 -0.5767 -0.4141
  832MOL0     O14737   7.005   9.424   0.700 -0.7114 -1.1066 -0.1692
  832MOL0     C14738   6.893   9.464   0.634  0.1725 -0.7653 -1.0563
  832MOL0     C14739   6.765   9.427   0.721 -0.6951  0.3155  0.8930
  832MOL0     C14740   6.618   9.457   0.666  0.6252 -0.4113  0.5420
  832MOL0     C14741   6.515   9.420   0.774 -0.4313  0.7951  0.3235
  832MOL0     C14742   6.393   9.491   0.759 -0.8979  0.1388 -0.6196
  832MOL0     C14743   6.297   9.562   0.750  1.0593 -0.8996 -0.4598
  832MOL0     C14744   7.162   9.501   0.540  0.3014  0.5599  0.7031
  832MOL0     C14745   7.276   9.563   0.494  0.3590 -0.0752 -0.3028
  832MOL0     C14746   7.317   9.551   0.353 -0.7561  0.8602  0.1853
  832MOL0     H14747   7.621   9.906   0.848  0.7622 -2.4765  0.0054
  832MOL0     H14748   7.814  10.045   0.862 -1.9237  1.3601 -0.1795
  832MOL0     H14749   8.021  10.250   0.759  2.2420 -0.4285 -1.3340
  832MOL0     H14750   7.875  10.238   0.658 -0.3080  0.5226  2.0922
  832MOL0     H14751   8.034  10.237   0.456 -1.9618  1.7822 -1.0380
  832MOL0     H14752   8.029  10.378   0.543 -3.9556 -0.4055  1.5242
  832MOL0     H14753   8.257  10.341   0.524  1.4048 -1.2948  1.0137
  832MOL0     H14754   8.237  10.219   0.668 -3.6971 -3.4456  0.7325
  832MOL0     H14755   8.231  10.040   0.526 -1.6744  0.6314  1.4979
  832MOL0     H14756   8.230  10.144   0.377  0.0409 -2.0601  0.0360
  832MOL0     H14757   8.451  10.106   0.579 -0.5244  1.9834  1.2617
  832MOL0     H14758   8.449  10.224   0.447 -1.1050  1.8907  3.7497
  832MOL0     H14759   8.413   9.922   0.446 -1.1827  2.0002  2.5185
  832MOL0     H14760   8.444  10.013   0.293  2.2304  0.2298 -0.3365
  832MOL0     H14761   8.656   9.994   0.511  1.2428  5.3383 -2.0394
  832MOL0     H14762   8.670  10.057   0.351 -2.4609  2.3594  0.7227
  832MOL0     H14763   8.588   9.813   0.267  1.1709 -0.7662 -1.1856
  832MOL0     H14764   8.757   9.860   0.294 -0.3241  3.8194 -0.9921
  832MOL0     H14765   8.886   9.743   0.516  2.1317 -1.4594 -3.6894
  832MOL0     H14766   8.945   9.459   0.550 -1.4974 -4.6892 -0.9690
  832MOL0     H14767   8.793   9.377   0.599 -1.4610  0.0627 -3.4274
  832MOL0     H14768   8.948   9.606   0.725 -0.6265  1.4431  3.1772
  832MOL0     H14769   8.799   9.542   0.794  0.4730  0.0562 -1.0323
  832MOL0     H14770   8.907   9.335   0.842  1.8713 -2.1447 -1.0632
  832MOL0     H14771   9.044   9.361   0.740 -1.3492 -0.8133  0.4607
  832MOL0     H14772   9.114   9.404   0.982 -0.1833  0.2918  0.5625
  832MOL0     H14773   9.116   9.553   0.909 -0.9732  1.0298  0.1207
  832MOL0     H14774   9.209   9.547   1.106 -2.3968 -3.2769  1.1880
  832MOL0     H14775   9.402   9.761   1.244  2.1187 -1.1889 -0.3255
  832MOL0     H14776   9.368   9.579   1.243 -2.8722 -1.4145  0.5866
  832MOL0     H14777   9.352   9.662   1.392 -4.0135 -1.6955  0.0292
  832MOL0     H14778   8.950  10.197   1.516 -2.9726 -0.1545  3.0878
  832MOL0     H14779   8.976  10.345   1.696  1.1275  2.0249 -0.1282
  832MOL0     H14780   9.342  10.356   1.845  1.1401  2.0384 -1.1789
  832MOL0     H14781   9.238  10.484   1.806  0.9910  0.3082  0.8589
  832MOL0     H14782   9.242  10.542   2.059 -1.9748 -2.7505  1.5483
  832MOL0     H14783   9.356  10.412   2.081 -0.0550  0.4940 -0.4063
  832MOL0     H14784   9.381  10.645   1.876 -0.1580  1.8655  1.0119
  832MOL0     H14785   9.510  10.530   1.899 -1.3190  0.8647 -2.1024
  832MOL0     H14786   9.509  10.593   2.145 -0.6267 -2.6652 -2.6579
  832MOL0     H14787   9.431  10.747   2.085 -0.4276  1.3638 -3.3397
  832MOL0     H14788   9.715  10.635   2.024  2.7099  2.2728  4.6637
  832MOL0     H14789   9.629  10.775   1.938 -0.9598  1.2156  0.6876
  832MOL0     H14790   9.712  10.724   2.220  0.5278 -3.0868 -2.4070
  832MOL0     H14791   9.662  10.883   2.170  0.4156  0.5317 -1.3214
  832MOL0     H14792   9.828  10.878   1.981  1.7840  4.1448  0.8390
  832MOL0     H14793   9.919  10.772   2.100  0.0106 -1.0776 -1.6483
  832MOL0     H14794   9.898  10.958   2.271 -2.4646  1.5344  1.6778
  832MOL0     H14795   9.795  11.046   2.165  0.4525  1.2755 -1.6683
  832MOL0     H14796   9.288  10.102   1.878 -0.5101 -1.4709  0.2784
  832MOL0     H14797   9.223   9.922   1.710 -3.5107  0.9718  1.9111
  832MOL0     H14798   8.917   9.872   1.336  2.6611  1.3017  2.7273
  832MOL0     H14799   8.816   9.672   1.210  0.1906 -2.5346 -0.5615
  832MOL0     H14800   7.912   9.909   0.461 -1.6573 -3.6390 -1.5244
  832MOL0     H14801   7.709   9.768   0.457 -0.3865 -0.7058 -0.5906
  832MOL0     H14802   7.349   9.695   0.809 -0.7603 -1.5416  1.8452
  832MOL0     H14803   7.186   9.532   0.868 -0.0078  0.3462  0.1575
  832MOL0     H14804   6.881   9.572   0.636 -1.8117 -0.9004  1.8602
  832MOL0     H14805   6.891   9.427   0.531  1.7573 -1.8375 -0.7356
  832MOL0     H14806   6.788   9.472   0.818  0.5959  0.3933  0.5657
  832MOL0     H14807   6.770   9.321   0.745  1.6899  0.7005  2.4681
  832MOL0     H14808   6.612   9.561   0.634  0.1947 -1.0111 -1.4633
  832MOL0     H14809   6.597   9.394   0.580 -0.7344 -1.8884  1.9014
  832MOL0     H14810   6.555   9.425   0.875 -0.4368 -3.4899  0.7205
  832MOL0     H14811   6.488   9.314   0.763 -3.4791  1.6794 -2.2072
  832MOL0     H14812   6.202   9.611   0.750  1.0699 -0.6366  2.8893
  832MOL0     H14813   7.106   9.440   0.470 -0.6678 -0.3263  2.2000
  832MOL0     H14814   7.425   9.559   0.340 -0.3787 -1.2349  1.5550
  832MOL0     H14815   7.286   9.451   0.321 -2.6523  0.9243  1.6654
  832MOL0     H14816   7.263   9.616   0.283  0.0454  0.3646 -0.9446
  833MOL0     O14817   3.726   4.294   6.859 -0.0555 -0.1353 -0.5400
  833MOL0     C14818   3.649   4.200   6.850  0.3177 -1.1262 -0.2828
  833MOL0     O14819   3.629   4.103   6.942 -0.2604 -0.2731 -0.4505
  833MOL0     C14820   3.700   4.103   7.068 -0.0047  0.4398 -0.8971
  833MOL0     C14821   3.735   4.216   7.143 -0.5472 -0.4620 -0.1323
  833MOL0     C14822   3.814   4.203   7.260 -0.3608 -0.8786 -0.0115
  833MOL0     C14823   3.844   4.084   7.307  0.7367 -0.1394 -0.1150
  833MOL0     O14824   3.924   4.071   7.415  0.0570 -0.3030  0.0870
  833MOL0     C14825   3.966   3.937   7.466 -0.7493 -0.7895  0.1643
  833MOL0     C14826   4.043   3.958   7.592 -0.0403 -0.8031 -0.7031
  833MOL0     C14827   3.938   3.996   7.698 -0.5692 -0.7621  0.2412
  833MOL0     C14828   4.016   4.069   7.815  0.2250 -0.3824  0.1228
  833MOL0     C14829   3.920   4.148   7.902 -0.2486  0.1315  0.2845
  833MOL0     C14830   3.960   4.132   8.050  1.0686  0.2942  0.3610
  833MOL0     C14831   3.931   3.997   8.122 -0.1515 -0.2391 -0.5224
  833MOL0     C14832   3.784   3.980   8.167  0.1389 -1.0462  0.2407
  833MOL0     N14833   3.738   4.084   8.262 -0.4111  0.9145  0.0485
  833MOL0     C14834   3.662   4.189   8.246  0.3028 -0.1753 -0.0479
  833MOL0     C14835   3.606   4.212   8.367 -0.0785 -0.1832 -0.2341
  833MOL0     C14836   3.503   4.316   8.397 -0.0878  0.2128  0.0800
  833MOL0     C14837   3.537   4.445   8.471 -0.9233 -0.4424 -1.5579
  833MOL0     C14838   3.607   4.552   8.379  0.9999 -0.7755  1.0506
  833MOL0     C14839   3.577   4.698   8.417  0.0602 -0.7051 -0.1731
  833MOL0     O14840   3.618   4.793   8.313 -0.0895 -0.5097 -0.4579
  833MOL0     C14841   3.737   4.854   8.329  0.9995 -0.1572  0.0824
  833MOL0     C14842   3.750   4.958   8.423  0.0737 -0.3174 -0.1070
  833MOL0     C14843   3.866   5.036   8.428 -0.0043 -1.4154 -0.7907
  833MOL0     C14844   3.871   5.151   8.531  0.3480  0.4956  0.5220
  833MOL0     C14845   3.967   5.009   8.336  0.4461  0.7376 -0.1555
  833MOL0     C14846   4.090   5.085   8.324  0.0499 -0.6449 -0.0101
  833MOL0     O14847   4.177   5.037   8.234 -0.2617  0.8402  0.2918
  833MOL0     C14848   4.304   5.088   8.205 -0.8450  0.2165  0.5768
  833MOL0     C14849   4.330   5.223   8.215 -0.0436  0.3284 -0.5644
  833MOL0     C14850   4.457   5.267   8.189 -0.5205  0.5414 -0.4225
  833MOL0     C14851   4.560   5.182   8.152 -1.1404  0.0243  0.2932
  833MOL0     O14852   4.687   5.233   8.123  1.0115 -0.2038  0.0654
  833MOL0     C14853   4.703   5.370   8.089  1.0714 -0.3013  0.6817
  833MOL0     C14854   4.857   5.389   8.073 -0.8278 -0.2468  0.1818
  833MOL0     C14855   4.888   5.536   8.061 -0.0055 -0.7454  0.5670
  833MOL0     C14856   5.029   5.581   8.033 -0.8276  0.4396 -0.5697
  833MOL0     C14857   5.139   5.530   8.123  0.0628 -0.3058  0.3685
  833MOL0     C14858   5.195   5.646   8.200  0.5108 -0.1391 -0.6134
  833MOL0     C14859   5.280   5.602   8.325 -1.3991  0.2405 -0.1171
  833MOL0     C14860   5.400   5.506   8.300  0.2420 -0.4342 -0.4593
  833MOL0    Cl14861   5.524   5.556   8.177 -0.5835 -0.2813  0.7932
  833MOL0     C14862   4.532   5.046   8.137 -0.0723  0.6749  0.9263
  833MOL0     C14863   4.405   5.002   8.163  0.6419 -0.1274  0.1828
  833MOL0     O14864   4.117   5.178   8.395  0.4617 -0.4644 -0.2574
  833MOL0     C14865   3.952   4.909   8.239 -0.2804 -0.4871  0.7325
  833MOL0     C14866   3.835   4.832   8.235 -0.0099 -1.1720 -0.6044
  833MOL0     N14867   3.645   4.114   8.454  0.0067  0.5370 -0.3401
  833MOL0     N14868   3.722   4.036   8.390  0.2767 -0.4155  0.1764
  833MOL0     C14869   3.809   3.967   7.229 -0.1962 -0.1768 -0.7817
  833MOL0     C14870   3.733   3.973   7.113  0.5364 -0.4286  0.0790
  833MOL0     C14871   3.558   4.207   6.741  0.2666  1.2654  0.8668
  833MOL0     C14872   3.422   4.187   6.776  0.4010 -0.0088  0.4347
  833MOL0     C14873   3.319   4.215   6.682 -0.1800 -0.7059  0.7506
  833MOL0     C14874   3.349   4.266   6.556 -0.4135 -0.0527  0.6352
  833MOL0     O14875   3.252   4.300   6.466 -0.3844  0.3565  0.0847
  833MOL0     C14876   3.181   4.190   6.405 -0.1001 -0.2489 -0.3622
  833MOL0     C14877   3.044   4.224   6.372  0.4977 -1.3935 -0.2519
  833MOL0     C14878   2.956   4.287   6.482 -0.3225 -0.0894 -0.3990
  833MOL0     C14879   2.802   4.304   6.446  1.2064  0.0186  0.5481
  833MOL0     C14880   2.730   4.369   6.558 -1.2276 -1.0478 -0.2185
  833MOL0     C14881   2.678   4.427   6.650 -0.7855  0.5887  0.1421
  833MOL0     C14882   3.486   4.279   6.518  0.4951 -0.2336  0.2053
  833MOL0     C14883   3.585   4.258   6.610  0.3480  0.4214 -0.2514
  833MOL0     C14884   3.721   4.315   6.577  0.7665  0.6763  0.2504
  833MOL0     H14885   3.724   4.321   7.117  0.5192 -0.9547 -2.8220
  833MOL0     H14886   3.852   4.295   7.303  0.2257 -0.5694 -1.1579
  833MOL0     H14887   4.022   3.888   7.386 -0.1676 -2.1392  1.3775
  833MOL0     H14888   3.879   3.874   7.484 -1.0291 -0.7555 -0.9535
  833MOL0     H14889   4.093   3.864   7.616 -1.1618 -1.6215 -1.4825
  833MOL0     H14890   4.122   4.031   7.569  0.7561 -1.7259 -0.9653
  833MOL0     H14891   3.876   4.076   7.654 -1.9433 -0.2886  2.8671
  833MOL0     H14892   3.872   3.918   7.735  0.4442 -2.0529 -0.6034
  833MOL0     H14893   4.069   3.986   7.862  1.0331 -0.8068 -1.4612
  833MOL0     H14894   4.095   4.133   7.773  3.1633 -2.1541  2.5241
  833MOL0     H14895   3.817   4.119   7.880 -0.3544  1.3850 -1.0217
  833MOL0     H14896   3.934   4.250   7.864 -1.9037 -0.4045 -1.9798
  833MOL0     H14897   4.069   4.132   8.050  1.2206 -3.2954 -1.2426
  833MOL0     H14898   3.921   4.213   8.113 -2.1460 -0.8631  0.0486
  833MOL0     H14899   3.989   4.009   8.214  2.0871  0.3256 -1.9423
  833MOL0     H14900   3.962   3.910   8.064 -0.4711  0.1556 -1.3003
  833MOL0     H14901   3.716   4.004   8.085  1.5517  2.4401 -0.0955
  833MOL0     H14902   3.767   3.877   8.201 -2.6296 -1.1330 -1.1709
  833MOL0     H14903   3.640   4.240   8.153 -0.8732 -1.9313 -0.7788
  833MOL0     H14904   3.426   4.256   8.445  1.0286 -3.3388 -2.1418
  833MOL0     H14905   3.457   4.344   8.302  0.7381 -0.0269 -0.4088
  833MOL0     H14906   3.445   4.485   8.512  1.1500 -0.6004  4.2299
  833MOL0     H14907   3.609   4.431   8.553  0.7552 -1.5505 -3.1347
  833MOL0     H14908   3.713   4.532   8.364  2.4358  3.1136  4.2491
  833MOL0     H14909   3.561   4.548   8.280  0.0042  0.9312  1.4038
  833MOL0     H14910   3.473   4.706   8.449  0.4728  0.8770  0.8947
  833MOL0     H14911   3.625   4.735   8.508  2.9700  0.2682 -1.9705
  833MOL0     H14912   3.665   4.987   8.485  1.1245  1.9586  0.3765
  833MOL0     H14913   3.972   5.160   8.573  0.7742  2.4362 -0.7548
  833MOL0     H14914   3.793   5.122   8.601 -1.2388 -0.9583 -1.7215
  833MOL0     H14915   3.844   5.244   8.480  0.1377  0.0672 -0.1588
  833MOL0     H14916   4.253   5.291   8.249 -1.6527 -2.1526  1.0474
  833MOL0     H14917   4.479   5.372   8.195  3.1284 -0.0857 -0.8681
  833MOL0     H14918   4.652   5.389   7.994 -1.1878 -1.9969  1.4505
  833MOL0     H14919   4.666   5.438   8.166  1.2091  2.8394 -1.8550
  833MOL0     H14920   4.914   5.361   8.162  0.7012  1.2355 -0.2760
  833MOL0     H14921   4.903   5.335   7.989  0.5491 -2.9786  2.5238
  833MOL0     H14922   4.857   5.584   8.155  0.4871 -2.8498  1.8742
  833MOL0     H14923   4.820   5.565   7.980 -3.3426 -2.2697  2.5911
  833MOL0     H14924   5.045   5.689   8.043  2.6363 -0.0731  0.7387
  833MOL0     H14925   5.056   5.551   7.932  1.7172 -3.8603  1.1634
  833MOL0     H14926   5.085   5.473   8.200 -3.3254  0.8762 -0.9735
  833MOL0     H14927   5.203   5.464   8.063  1.3482  1.6584 -0.4994
  833MOL0     H14928   5.122   5.719   8.235  0.4524  0.9680 -2.9056
  833MOL0     H14929   5.266   5.693   8.131  0.6431 -0.4564 -0.6976
  833MOL0     H14930   5.234   5.531   8.394  1.8060 -2.3147 -0.3535
  833MOL0     H14931   5.320   5.691   8.375  0.3221 -1.3645  1.5247
  833MOL0     H14932   5.350   5.411   8.278 -3.0266  0.6192  1.6998
  833MOL0     H14933   5.450   5.506   8.397  2.6942  2.2796 -1.5566
  833MOL0     H14934   4.611   4.983   8.098  0.9282  0.8890  2.4941
  833MOL0     H14935   4.385   4.901   8.130  2.3754 -1.0425  1.7375
  833MOL0     H14936   4.034   4.875   8.176  1.7571 -0.5590  3.2456
  833MOL0     H14937   3.824   4.768   8.147  1.2277  0.6178 -2.1428
  833MOL0     H14938   3.857   3.872   7.252 -1.8369 -0.8700  0.0087
  833MOL0     H14939   3.725   3.881   7.056  0.8975 -0.8304  0.6670
  833MOL0     H14940   3.398   4.139   6.870  1.0418 -3.6263 -1.0599
  833MOL0     H14941   3.213   4.216   6.707 -0.8697  1.6257 -1.7601
  833MOL0     H14942   3.237   4.161   6.315  2.7260 -0.0630  1.2301
  833MOL0     H14943   3.169   4.121   6.488 -3.4010 -0.6385 -1.0409
  833MOL0     H14944   2.998   4.129   6.344 -0.1206 -1.4014  0.7394
  833MOL0     H14945   3.033   4.295   6.290  2.6374  2.5577  2.5569
  833MOL0     H14946   2.963   4.218   6.566  1.0084  0.7952  0.2378
  833MOL0     H14947   3.004   4.384   6.494 -0.9098  0.3393 -1.3687
  833MOL0     H14948   2.761   4.203   6.442 -0.8073  0.8132  0.1303
  833MOL0     H14949   2.793   4.354   6.349 -0.2026 -1.5227 -0.1554
  833MOL0     H14950   2.626   4.484   6.725  2.3214 -0.0116  3.0452
  833MOL0     H14951   3.504   4.314   6.417 -0.7211  1.4226  0.5181
  833MOL0     H14952   3.788   4.241   6.621 -0.1541 -1.5712 -1.8491
  833MOL0     H14953   3.758   4.296   6.476  1.3994 -1.7626  0.8772
  833MOL0     H14954   3.736   4.420   6.602  0.7868  0.4331  1.3130
  834MOL0     O14955   6.795   8.796  11.217 -0.3396 -0.1791  1.1067
  834MOL0     C14956   6.736   8.822  11.110 -1.3472  0.3448 -0.1873
  834MOL0     O14957   6.798   8.831  10.985 -0.2110 -0.1059 -0.5728
  834MOL0     C14958   6.908   8.761  10.943  0.1044  0.9642 -0.4667
  834MOL0     C14959   6.980   8.803  10.834 -0.6522 -0.9602 -0.3385
  834MOL0     C14960   7.085   8.725  10.769  0.0361 -0.7760 -0.4219
  834MOL0     C14961   7.115   8.604  10.822 -0.2240  0.3663  0.6836
  834MOL0     O14962   7.183   8.515  10.737 -0.6914  0.8336  0.1725
  834MOL0     C14963   7.261   8.407  10.800  0.0411  0.4398  0.0368
  834MOL0     C14964   7.409   8.449  10.834 -0.4976  0.3636  0.4649
  834MOL0     C14965   7.466   8.504  10.709  0.2230  0.0463 -0.0056
  834MOL0     C14966   7.618   8.515  10.700  1.0991 -0.3046  0.6667
  834MOL0     C14967   7.691   8.382  10.647  0.2453  0.3393 -0.5483
  834MOL0     C14968   7.834   8.359  10.686 -0.7761 -0.0239 -0.3652
  834MOL0     C14969   7.933   8.441  10.595  0.1022  0.3981 -0.6243
  834MOL0     C14970   8.035   8.514  10.677 -0.4252 -0.1890 -1.1157
  834MOL0     N14971   7.995   8.641  10.743 -0.6955 -0.0341 -0.0190
  834MOL0     C14972   7.906   8.730  10.686  0.2995 -0.4769  0.0449
  834MOL0     C14973   7.896   8.828  10.783 -0.0541 -0.1137 -0.0146
  834MOL0     C14974   7.817   8.958  10.757 -0.5962  0.8310 -0.9475
  834MOL0     C14975   7.860   9.071  10.857 -0.8058  0.3119  0.8805
  834MOL0     C14976   7.994   9.149  10.837 -0.4527  0.7969  0.9481
  834MOL0     C14977   7.972   9.245  10.713  0.5050 -0.2130 -0.5813
  834MOL0     O14978   8.095   9.317  10.681  0.6122 -0.3064 -0.1056
  834MOL0     C14979   8.137   9.421  10.762  0.5494 -0.0099 -0.3491
  834MOL0     C14980   8.051   9.489  10.857 -0.3837  0.4173  0.2822
  834MOL0     C14981   8.109   9.598  10.935 -0.5223  0.1089  0.2947
  834MOL0     C14982   8.026   9.669  11.038  0.2608 -0.1210  0.9438
  834MOL0     C14983   8.244   9.635  10.912 -0.1190  0.8818  0.0341
  834MOL0     C14984   8.304   9.745  10.967  0.0762 -0.5850 -0.5048
  834MOL0     O14985   8.251   9.867  10.926  0.6092  0.6620 -0.0639
  834MOL0     C14986   8.341   9.979  10.939 -0.0169 -0.9368  0.2334
  834MOL0     C14987   8.299  10.094  10.999 -0.1687  0.0948 -0.1545
  834MOL0     C14988   8.377  10.207  11.015  0.1574 -0.7055 -0.2686
  834MOL0     C14989   8.510  10.209  10.967  0.0957 -0.3379 -0.1787
  834MOL0     O14990   8.571  10.330  10.950  0.0208 -1.1032 -0.2488
  834MOL0     C14991   8.699  10.339  10.894  0.4641  0.1099  0.2216
  834MOL0     C14992   8.816  10.297  10.986  0.3611  0.3812 -0.7465
  834MOL0     C14993   8.945  10.312  10.918 -0.6680  0.0813  0.5113
  834MOL0     C14994   8.989  10.464  10.906  0.0575  0.3784 -0.5378
  834MOL0     C14995   9.041  10.495  10.756 -0.2371 -0.0239 -0.4144
  834MOL0     C14996   9.126  10.617  10.756  0.2119  0.1900  0.1353
  834MOL0     C14997   9.261  10.619  10.835  0.1751 -0.1701  0.6145
  834MOL0     C14998   9.393  10.666  10.756  0.7594  0.3181  0.5621
  834MOL0    Cl14999   9.380  10.821  10.658 -0.3495  0.7155  0.1471
  834MOL0     C15000   8.562  10.088  10.929  0.3172 -0.4433 -0.3095
  834MOL0     C15001   8.476   9.973  10.917 -0.5061  0.4788  0.6348
  834MOL0     O15002   8.405   9.722  11.036  0.2007 -0.3318  0.7748
  834MOL0     C15003   8.318   9.561  10.827  0.0946  0.6584  0.1466
  834MOL0     C15004   8.268   9.452  10.756  0.2533 -0.0730 -0.2408
  834MOL0     N15005   7.964   8.789  10.901  0.5999  0.0167  0.0057
  834MOL0     N15006   8.025   8.681  10.875  0.9129 -0.9607  0.9712
  834MOL0     C15007   7.051   8.561  10.941  0.4737  1.0572  0.3230
  834MOL0     C15008   6.942   8.630  10.999  0.3368 -1.1454 -1.0291
  834MOL0     C15009   6.608   8.887  11.127 -0.9513 -1.0395  0.0040
  834MOL0     C15010   6.507   8.808  11.190  0.2497 -0.0376 -0.1459
  834MOL0     C15011   6.388   8.879  11.222 -0.1739  0.4187 -0.6709
  834MOL0     C15012   6.362   9.004  11.185  1.0031 -0.0020  0.3252
  834MOL0     O15013   6.235   9.051  11.201 -0.0769 -0.2706 -0.2297
  834MOL0     C15014   6.214   9.195  11.207  1.4191 -0.3679 -0.3859
  834MOL0     C15015   6.077   9.221  11.285 -0.0168 -0.6692  0.0031
  834MOL0     C15016   5.955   9.170  11.199 -0.0360  0.5456  0.2192
  834MOL0     C15017   5.843   9.268  11.176  0.2027 -0.5232  0.3482
  834MOL0     C15018   5.739   9.204  11.106  0.4226  0.7355 -0.3538
  834MOL0     C15019   5.649   9.146  11.037  0.4856  0.7523 -0.6009
  834MOL0     C15020   6.460   9.063  11.100 -0.0397 -0.2661 -0.2794
  834MOL0     C15021   6.589   9.019  11.084 -0.4854 -0.2121  0.4021
  834MOL0     C15022   6.699   9.111  11.022 -0.3256  0.3357 -0.0754
  834MOL0     H15023   6.965   8.900  10.788 -0.0145 -1.6877 -2.1264
  834MOL0     H15024   7.151   8.748  10.687  0.2057 -0.2975 -0.1568
  834MOL0     H15025   7.264   8.333  10.720 -2.5821  0.8886 -0.5409
  834MOL0     H15026   7.217   8.365  10.891 -1.8322  2.8931  0.3633
  834MOL0     H15027   7.413   8.526  10.911  2.8753  0.6551  0.1454
  834MOL0     H15028   7.483   8.378  10.872  1.1371  1.7525 -0.0139
  834MOL0     H15029   7.429   8.426  10.642  1.9513 -1.5521  0.8176
  834MOL0     H15030   7.421   8.602  10.690 -2.5204 -0.9878  0.7879
  834MOL0     H15031   7.649   8.598  10.634  0.9426 -0.6210  0.1899
  834MOL0     H15032   7.645   8.541  10.803 -2.2265 -0.0578  1.5857
  834MOL0     H15033   7.695   8.370  10.538  0.8631  0.5139 -0.5512
  834MOL0     H15034   7.638   8.299  10.694  3.2257 -1.9014 -0.8122
  834MOL0     H15035   7.849   8.400  10.786  0.9649  0.2176 -0.6919
  834MOL0     H15036   7.854   8.255  10.713 -4.4269 -0.1573  2.6834
  834MOL0     H15037   7.889   8.520  10.534 -0.9083 -1.0916 -1.9158
  834MOL0     H15038   7.982   8.380  10.519  0.6744  1.2891 -0.9937
  834MOL0     H15039   8.077   8.448  10.753 -2.6626  1.8947  2.1823
  834MOL0     H15040   8.123   8.529  10.614 -0.1997 -2.0388 -1.2842
  834MOL0     H15041   7.840   8.725  10.600 -0.4771  0.9870  0.5341
  834MOL0     H15042   7.708   8.955  10.754 -0.5731  0.6551 -3.7643
  834MOL0     H15043   7.838   8.981  10.653 -1.5427  2.6902 -0.7523
  834MOL0     H15044   7.777   9.140  10.872 -1.9507 -1.0420  0.9569
  834MOL0     H15045   7.869   9.021  10.953 -1.5283  1.4086  1.5367
  834MOL0     H15046   8.016   9.201  10.930  0.5335 -0.9110  1.7053
  834MOL0     H15047   8.082   9.087  10.818 -0.7147  0.4665  0.8022
  834MOL0     H15048   7.952   9.201  10.615 -0.5597  2.1067 -1.5016
  834MOL0     H15049   7.887   9.311  10.732 -1.8248 -1.5354 -4.9976
  834MOL0     H15050   7.952   9.451  10.876  0.3517 -1.4749  0.4845
  834MOL0     H15051   8.031   9.629  11.140 -1.1294  2.2969  2.0557
  834MOL0     H15052   7.920   9.677  11.014  0.1186 -1.3859  1.0813
  834MOL0     H15053   8.058   9.772  11.055  2.4452 -0.3203 -1.2943
  834MOL0     H15054   8.196  10.106  11.029 -0.3012 -0.7940 -0.2455
  834MOL0     H15055   8.332  10.300  11.050 -0.1746 -0.6228 -0.8977
  834MOL0     H15056   8.686  10.284  10.800 -3.6286  1.3221 -0.1353
  834MOL0     H15057   8.723  10.443  10.871 -1.0442  0.2860 -0.7253
  834MOL0     H15058   8.815  10.350  11.081  3.5124 -1.8526  0.7052
  834MOL0     H15059   8.816  10.190  11.011 -0.2234  1.1640  3.4673
  834MOL0     H15060   8.943  10.278  10.814 -0.2526 -0.8554  0.8082
  834MOL0     H15061   9.023  10.258  10.973 -1.0670  2.0125  3.1806
  834MOL0     H15062   9.054  10.494  10.989 -0.2499 -0.1660 -0.0865
  834MOL0     H15063   8.903  10.523  10.939  2.6609  2.9145  2.3842
  834MOL0     H15064   9.102  10.417  10.709 -0.7217 -0.0296 -1.0508
  834MOL0     H15065   8.948  10.501  10.698 -1.1278 -1.4283  0.7794
  834MOL0     H15066   9.068  10.703  10.792  0.2841  0.6314 -0.7745
  834MOL0     H15067   9.153  10.640  10.653  0.2147 -3.9286 -0.9683
  834MOL0     H15068   9.275  10.524  10.888  0.1323  0.0201  0.9673
  834MOL0     H15069   9.243  10.686  10.919  1.4040 -1.4773  1.9976
  834MOL0     H15070   9.415  10.576  10.697 -0.3340  0.5140 -0.1682
  834MOL0     H15071   9.483  10.672  10.818  2.7416 -2.8537 -1.6907
  834MOL0     H15072   8.665  10.092  10.898  0.2668  1.7198 -0.3155
  834MOL0     H15073   8.528   9.885  10.880 -1.0703 -0.0209  0.9969
  834MOL0     H15074   8.420   9.596  10.817  1.3700 -2.4501  1.2966
  834MOL0     H15075   8.326   9.407  10.676 -3.7727 -0.1295 -3.4157
  834MOL0     H15076   7.076   8.465  10.984 -3.8678 -0.4818 -0.1365
  834MOL0     H15077   6.885   8.598  11.086 -1.7712  0.9684 -1.5312
  834MOL0     H15078   6.523   8.703  11.207 -1.8873 -0.5769 -1.1202
  834MOL0     H15079   6.311   8.822  11.274  0.9813  1.3637  2.2610
  834MOL0     H15080   6.300   9.233  11.262  2.4984  1.1401 -2.9239
  834MOL0     H15081   6.219   9.241  11.107 -0.0012  3.0380  0.9622
  834MOL0     H15082   6.057   9.324  11.315 -0.2303 -0.4721 -0.8076
  834MOL0     H15083   6.083   9.172  11.383 -0.7071  0.1806  0.4822
  834MOL0     H15084   5.983   9.136  11.099 -1.1490 -1.5626  0.5543
  834MOL0     H15085   5.908   9.076  11.229  0.9135 -1.9279 -4.9672
  834MOL0     H15086   5.879   9.352  11.116  1.8477 -2.6979 -1.9483
  834MOL0     H15087   5.812   9.309  11.272  3.2160 -1.3514  1.7816
  834MOL0     H15088   5.571   9.088  10.992 -0.1819  2.1787 -1.3100
  834MOL0     H15089   6.428   9.153  11.048  2.7373  0.1224 -1.4785
  834MOL0     H15090   6.674   9.218  11.026  2.2071  1.1598 -2.5835
  834MOL0     H15091   6.795   9.091  11.069 -0.8438 -0.4819  0.6531
  834MOL0     H15092   6.699   9.075  10.919 -3.4197  1.6693 -0.6595
  835MOL0     O15093   8.791   0.485   8.858 -0.1568 -0.0539  0.3422
  835MOL0     C15094   8.760   0.586   8.923 -0.2188  0.2398 -0.3134
  835MOL0     O15095   8.722   0.697   8.867  0.3066  0.1957  0.2504
  835MOL0     C15096   8.670   0.710   8.742 -0.3000 -0.1054 -0.8631
  835MOL0     C15097   8.584   0.622   8.685  0.5568 -0.3727 -0.3789
  835MOL0     C15098   8.518   0.654   8.567  0.4174 -0.5281  0.2100
  835MOL0     C15099   8.536   0.767   8.498  0.0966  0.7823 -0.8149
  835MOL0     O15100   8.458   0.777   8.386  0.6506 -0.2357  0.5758
  835MOL0     C15101   8.534   0.812   8.269  0.5473 -0.3601  0.1359
  835MOL0     C15102   8.496   0.745   8.143  1.3094  0.3967  1.2853
  835MOL0     C15103   8.370   0.793   8.079  0.5492  0.0685  0.9004
  835MOL0     C15104   8.339   0.740   7.942  0.1324 -0.0171  0.1445
  835MOL0     C15105   8.232   0.816   7.871 -0.4605 -0.3041  0.8494
  835MOL0     C15106   8.300   0.928   7.789  0.2178 -0.3882 -0.4392
  835MOL0     C15107   8.192   1.027   7.739  0.0490 -0.4499 -0.1533
  835MOL0     C15108   8.245   1.162   7.692 -0.8705  0.1217 -0.0351
  835MOL0     N15109   8.353   1.166   7.579  0.3005 -0.1603  0.0073
  835MOL0     C15110   8.317   1.120   7.453 -0.3461 -0.0737 -0.2098
  835MOL0     C15111   8.431   1.075   7.401  0.2171 -0.1995  0.5336
  835MOL0     C15112   8.454   1.020   7.264 -0.3003  0.8484  1.0705
  835MOL0     C15113   8.505   1.131   7.183 -0.0143 -0.1547  0.2159
  835MOL0     C15114   8.511   1.114   7.027 -0.2631  0.5056 -0.5448
  835MOL0     C15115   8.580   0.986   6.986 -0.0571 -0.5875  0.6116
  835MOL0     O15116   8.652   1.014   6.864 -0.2128  0.3329  0.3208
  835MOL0     C15117   8.597   0.970   6.745 -0.4284  0.9623  0.0676
  835MOL0     C15118   8.466   0.926   6.721 -0.2599 -0.2111 -0.5169
  835MOL0     C15119   8.416   0.884   6.593 -0.0216 -0.2196 -0.5819
  835MOL0     C15120   8.272   0.844   6.580 -0.6265 -0.3889 -0.2552
  835MOL0     C15121   8.507   0.885   6.486 -0.3757  0.1969 -0.1950
  835MOL0     C15122   8.471   0.857   6.339 -1.5020 -0.4976 -0.1615
  835MOL0     O15123   8.345   0.822   6.306 -0.6032 -0.2366 -0.7003
  835MOL0     C15124   8.330   0.803   6.172  0.6617  0.0433 -0.4909
  835MOL0     C15125   8.286   0.911   6.087  0.6617  0.2310  0.5487
  835MOL0     C15126   8.250   0.892   5.954  0.1449 -1.0368  0.4815
  835MOL0     C15127   8.257   0.765   5.903 -0.0206  0.2311 -0.0838
  835MOL0     O15128   8.213   0.748   5.772 -0.0504 -0.3124  0.7535
  835MOL0     C15129   8.217   0.625   5.698  0.4547 -0.4829 -0.2707
  835MOL0     C15130   8.108   0.527   5.733 -0.3152 -0.3830  0.3883
  835MOL0     C15131   8.163   0.400   5.656 -0.3218 -0.0007  0.9707
  835MOL0     C15132   8.055   0.288   5.698  0.0902  0.0018 -1.5489
  835MOL0     C15133   8.055   0.251   5.848 -0.3432  0.8558  0.2720
  835MOL0     C15134   7.942   0.144   5.870 -0.0984  0.0751  1.1239
  835MOL0     C15135   7.932   0.090   6.006 -0.5850  0.5083 -1.1443
  835MOL0     C15136   7.882   0.190   6.112 -1.2306 -0.3096  1.2074
  835MOL0    Cl15137   7.844   0.100   6.266 -0.1136 -0.0115 -0.1908
  835MOL0     C15138   8.295   0.653   5.987  0.3679 -0.6209 -0.6361
  835MOL0     C15139   8.330   0.673   6.120 -1.5300 -0.9692 -0.6877
  835MOL0     O15140   8.572   0.850   6.264  0.4326  0.1155  0.5732
  835MOL0     C15141   8.637   0.941   6.509  0.0280 -0.3021 -0.0160
  835MOL0     C15142   8.687   0.966   6.634  0.2207 -0.1041  0.0258
  835MOL0     N15143   8.530   1.095   7.492  0.9349  0.3878  0.0498
  835MOL0     N15144   8.479   1.142   7.610  0.0725  0.7753  0.7319
  835MOL0     C15145   8.622   0.860   8.555  0.3720 -0.5322 -0.3783
  835MOL0     C15146   8.682   0.841   8.681 -0.7692  0.2731  0.3516
  835MOL0     C15147   8.811   0.595   9.066  0.1870  0.2810  0.6820
  835MOL0     C15148   8.880   0.706   9.110 -0.0982  0.8123  0.5586
  835MOL0     C15149   8.914   0.725   9.244  0.4214 -0.6832  0.5338
  835MOL0     C15150   8.879   0.629   9.333  0.4255  0.9234  0.8651
  835MOL0     O15151   8.899   0.670   9.463 -0.8705  0.2643  0.1907
  835MOL0     C15152   8.917   0.559   9.559  0.5300 -0.6766 -0.1603
  835MOL0     C15153   8.971   0.596   9.698 -0.5106 -0.8502  0.1404
  835MOL0     C15154   8.855   0.616   9.797  0.4328  0.8256  0.8063
  835MOL0     C15155   8.786   0.475   9.813 -0.5231  0.5155  0.2648
  835MOL0     C15156   8.753   0.462   9.954  0.0771 -0.0102 -0.4975
  835MOL0     C15157   8.748   0.445  10.078 -0.2715  0.1645  0.3068
  835MOL0     C15158   8.812   0.511   9.294  0.4888  0.5741 -0.2176
  835MOL0     C15159   8.771   0.495   9.159 -0.9659 -0.5807 -0.2089
  835MOL0     C15160   8.684   0.380   9.132  0.2214 -0.1164  0.6277
  835MOL0     H15161   8.552   0.541   8.751  2.0352  0.2916  1.2401
  835MOL0     H15162   8.429   0.592   8.559 -1.6307  2.3007 -0.6974
  835MOL0     H15163   8.640   0.796   8.289  0.8819  0.9683 -0.4402
  835MOL0     H15164   8.526   0.920   8.252  0.0884 -0.4990 -0.5720
  835MOL0     H15165   8.569   0.769   8.065  0.8838 -2.0440  0.0460
  835MOL0     H15166   8.498   0.635   8.146 -4.7984 -0.0526  0.6147
  835MOL0     H15167   8.281   0.759   8.134 -0.8959  3.6753  1.0548
  835MOL0     H15168   8.372   0.901   8.063 -2.4813 -0.0707 -1.2154
  835MOL0     H15169   8.434   0.730   7.888 -0.5565  0.9920 -1.3089
  835MOL0     H15170   8.304   0.636   7.946 -0.1676  0.0961  0.5269
  835MOL0     H15171   8.160   0.862   7.938 -3.9275  2.0768 -3.9348
  835MOL0     H15172   8.171   0.751   7.806 -3.6627  1.9877  1.3400
  835MOL0     H15173   8.369   0.987   7.850 -2.8301  3.2983 -0.1165
  835MOL0     H15174   8.349   0.877   7.706  1.9926 -0.5304  0.6604
  835MOL0     H15175   8.113   1.044   7.813  0.3564  1.5899 -0.2575
  835MOL0     H15176   8.143   0.970   7.660 -1.3075  0.6933 -0.1704
  835MOL0     H15177   8.169   1.238   7.669 -1.6959 -0.9397 -0.9589
  835MOL0     H15178   8.300   1.205   7.776 -1.8776  1.4507 -0.0167
  835MOL0     H15179   8.222   1.138   7.403  0.5795 -1.4776 -2.6608
  835MOL0     H15180   8.354   1.006   7.220 -0.9370 -0.1961  2.7476
  835MOL0     H15181   8.515   0.930   7.254  0.7244  1.7498 -1.5313
  835MOL0     H15182   8.452   1.226   7.193 -2.7678 -1.2338 -2.4449
  835MOL0     H15183   8.606   1.152   7.220  0.3517  0.4451 -1.0485
  835MOL0     H15184   8.408   1.121   6.991  0.6558 -1.5346 -3.9774
  835MOL0     H15185   8.572   1.187   6.975 -0.1498  1.9064  1.4397
  835MOL0     H15186   8.649   0.939   7.057 -0.9358  1.8247  3.2212
  835MOL0     H15187   8.501   0.911   6.967  1.8580 -2.0348 -2.5277
  835MOL0     H15188   8.402   0.909   6.807 -0.9013  0.1693 -0.9135
  835MOL0     H15189   8.252   0.738   6.563 -2.0280  0.0034 -1.1664
  835MOL0     H15190   8.221   0.900   6.501  1.6122 -0.6778 -2.0081
  835MOL0     H15191   8.223   0.878   6.671 -0.4064  2.1248 -0.9984
  835MOL0     H15192   8.295   1.015   6.116  0.5039 -0.0877  1.7769
  835MOL0     H15193   8.231   0.974   5.886 -1.4881  0.4171  2.5690
  835MOL0     H15194   8.213   0.645   5.590 -1.9729 -0.7780 -0.2922
  835MOL0     H15195   8.319   0.590   5.715  1.6121  0.8411 -3.6529
  835MOL0     H15196   8.099   0.517   5.842  0.1772 -0.9684  0.3875
  835MOL0     H15197   8.011   0.557   5.695 -1.3279 -1.0336  2.3091
  835MOL0     H15198   8.257   0.371   5.705 -2.4967  0.0851  5.7364
  835MOL0     H15199   8.160   0.417   5.548 -1.6113 -0.5920  0.9012
  835MOL0     H15200   8.059   0.202   5.631 -1.3701  0.4380 -2.2270
  835MOL0     H15201   7.963   0.331   5.658  0.4904  0.4505 -2.0135
  835MOL0     H15202   8.151   0.208   5.878  1.8005  5.6130  1.0924
  835MOL0     H15203   8.026   0.343   5.900 -1.0284  1.2442 -0.7547
  835MOL0     H15204   7.939   0.061   5.799 -5.7265  0.4838  0.4477
  835MOL0     H15205   7.851   0.201   5.850  0.4548 -0.1833 -3.2581
  835MOL0     H15206   8.026   0.041   6.033 -0.9951  0.3842  0.1430
  835MOL0     H15207   7.863   0.005   6.000 -0.3116 -0.0213  1.8423
  835MOL0     H15208   7.795   0.249   6.082  0.0624  3.3556  3.8726
  835MOL0     H15209   7.961   0.266   6.123  0.9161 -1.9370 -1.5598
  835MOL0     H15210   8.291   0.548   5.961 -2.0550 -1.1163  1.3371
  835MOL0     H15211   8.368   0.588   6.176  0.2323  1.0624  1.3864
  835MOL0     H15212   8.708   0.943   6.427  1.6601 -3.0108  1.1909
  835MOL0     H15213   8.782   1.011   6.661 -0.1146  0.3461  0.4773
  835MOL0     H15214   8.641   0.955   8.505 -1.4644 -0.9400 -1.9891
  835MOL0     H15215   8.755   0.915   8.711  0.7123 -0.4954 -1.1934
  835MOL0     H15216   8.903   0.787   9.042  0.1992 -1.8725 -2.8123
  835MOL0     H15217   8.974   0.808   9.277 -2.0241  2.5994 -2.5036
  835MOL0     H15218   8.824   0.503   9.565 -1.1235  1.3379 -3.8563
  835MOL0     H15219   8.994   0.491   9.521  2.9803  3.5620 -3.6903
  835MOL0     H15220   9.027   0.690   9.687 -2.7839  0.5890  0.1501
  835MOL0     H15221   9.038   0.524   9.745  1.8711  1.4750  0.6142
  835MOL0     H15222   8.894   0.659   9.890 -0.2786  2.1180  0.5174
  835MOL0     H15223   8.777   0.681   9.757  0.1272  1.7353  2.7588
  835MOL0     H15224   8.853   0.392   9.788 -3.0141 -1.1719 -1.2701
  835MOL0     H15225   8.703   0.457   9.745  0.8023 -0.3997 -1.1919
  835MOL0     H15226   8.732   0.431  10.183  0.9651 -1.2078  0.3389
  835MOL0     H15227   8.786   0.439   9.371 -1.2555  0.4701 -0.8733
  835MOL0     H15228   8.726   0.320   9.051 -2.6062 -1.7223  0.2103
  835MOL0     H15229   8.661   0.321   9.221 -2.6230  1.0573  0.7721
  835MOL0     H15230   8.587   0.420   9.099  0.8265 -0.6729 -2.1379
  836MOL0     O15231   6.203   7.582   2.683 -0.0968 -0.6770 -0.0573
  836MOL0     C15232   6.184   7.644   2.793 -1.0257  0.0837  0.8575
  836MOL0     O15233   6.275   7.654   2.900  0.7380  0.9395  1.1845
  836MOL0     C15234   6.392   7.583   2.895  0.4890  0.5111 -0.5083
  836MOL0     C15235   6.423   7.525   3.022 -1.3345  0.7081 -0.2753
  836MOL0     C15236   6.554   7.468   3.043  0.1126  0.1826 -0.4987
  836MOL0     C15237   6.642   7.466   2.942 -0.1155 -0.0232  0.2763
  836MOL0     O15238   6.756   7.407   2.977  0.4292 -0.5184  0.0975
  836MOL0     C15239   6.830   7.334   2.875 -0.5905 -0.1642  0.1014
  836MOL0     C15240   6.966   7.276   2.933 -0.0003  0.1304 -0.3640
  836MOL0     C15241   7.060   7.393   2.989  0.4858  0.3015  0.2410
  836MOL0     C15242   7.171   7.341   3.088 -0.0467  0.3063 -0.5833
  836MOL0     C15243   7.261   7.236   3.029  0.0606 -0.0593 -0.6951
  836MOL0     C15244   7.326   7.282   2.897  0.5032  0.0337 -0.1146
  836MOL0     C15245   7.432   7.181   2.861 -0.3559  1.3615  0.5418
  836MOL0     C15246   7.506   7.219   2.734  0.6695  0.1681  0.8083
  836MOL0     N15247   7.579   7.338   2.766  0.5119  0.5942  0.5804
  836MOL0     C15248   7.671   7.358   2.868 -0.0818  0.5804  0.3155
  836MOL0     C15249   7.732   7.473   2.821 -0.2329  0.2355  0.2953
  836MOL0     C15250   7.851   7.547   2.893 -0.3626  0.0304 -0.9805
  836MOL0     C15251   7.843   7.695   2.913  1.7460 -0.6088  0.3878
  836MOL0     C15252   7.700   7.752   2.957  0.4897  1.2528 -1.2436
  836MOL0     C15253   7.701   7.895   3.005 -0.2579  0.4074  0.6622
  836MOL0     O15254   7.774   7.970   2.907  0.1494  0.1759 -0.1738
  836MOL0     C15255   7.833   8.084   2.955  0.5055 -0.2301  0.4782
  836MOL0     C15256   7.780   8.167   3.054  0.1420 -0.8755  0.3278
  836MOL0     C15257   7.835   8.294   3.091 -0.5203 -0.2284  0.9495
  836MOL0     C15258   7.770   8.372   3.192  0.5117  0.2026 -0.4845
  836MOL0     C15259   7.963   8.330   3.034  0.3046 -0.1048  0.2454
  836MOL0     C15260   8.061   8.428   3.079 -0.5869  0.0723  0.1957
  836MOL0     O15261   8.155   8.475   2.993  0.1429  0.7377  0.5376
  836MOL0     C15262   8.273   8.545   3.029 -0.9633 -0.8638 -0.0070
  836MOL0     C15263   8.294   8.615   3.152 -0.2099 -0.1476  0.9156
  836MOL0     C15264   8.420   8.682   3.160 -0.4331 -0.2681  0.1510
  836MOL0     C15265   8.522   8.696   3.059 -0.7166 -0.0191  1.2246
  836MOL0     O15266   8.633   8.779   3.056 -0.4187  0.2196 -0.0229
  836MOL0     C15267   8.675   8.839   3.176  0.1705 -1.4735  0.9023
  836MOL0     C15268   8.607   8.972   3.186  0.4012  0.2823 -0.3941
  836MOL0     C15269   8.627   9.030   3.324 -0.3449 -1.1631 -0.0699
  836MOL0     C15270   8.615   9.180   3.339  0.0448  0.8112  0.6626
  836MOL0     C15271   8.707   9.277   3.265 -0.1214 -0.5243 -0.4956
  836MOL0     C15272   8.854   9.265   3.307  0.3251 -0.3658  0.4228
  836MOL0     C15273   8.932   9.390   3.262 -0.3665  0.4022  0.0673
  836MOL0     C15274   8.986   9.376   3.125  0.9772 -0.2934  0.2128
  836MOL0    Cl15275   9.070   9.529   3.073 -0.0256 -0.1069 -0.5510
  836MOL0     C15276   8.486   8.637   2.935 -0.1330  0.5383 -0.4035
  836MOL0     C15277   8.361   8.570   2.925  0.0352 -1.2172  0.3502
  836MOL0     O15278   8.052   8.467   3.192 -0.2035  0.2426  0.2196
  836MOL0     C15279   8.012   8.244   2.937  0.5611  0.4397  0.7621
  836MOL0     C15280   7.948   8.131   2.892 -0.0316 -0.4657 -0.7275
  836MOL0     N15281   7.677   7.523   2.701 -0.8862  0.3409 -0.3268
  836MOL0     N15282   7.589   7.434   2.663  0.3238 -0.2185 -0.7102
  836MOL0     C15283   6.611   7.531   2.824  0.6407  0.2946  0.8383
  836MOL0     C15284   6.480   7.595   2.797  0.1924  0.2448 -0.0377
  836MOL0     C15285   6.055   7.727   2.795 -0.6668 -1.2826 -0.6495
  836MOL0     C15286   5.993   7.761   2.678 -1.0654 -0.1383 -0.4606
  836MOL0     C15287   5.857   7.797   2.672  0.2599 -0.4204 -0.1000
  836MOL0     C15288   5.804   7.836   2.795  0.0507 -0.8472 -0.3690
  836MOL0     O15289   5.667   7.869   2.788  0.4545 -0.4989  0.0123
  836MOL0     C15290   5.620   7.980   2.863  0.4546  0.6444 -0.0737
  836MOL0     C15291   5.624   8.109   2.792  0.9630 -0.3775 -0.4958
  836MOL0     C15292   5.538   8.116   2.671  0.7203 -0.4252  0.7728
  836MOL0     C15293   5.532   8.260   2.615 -0.2927 -1.3579 -0.2384
  836MOL0     C15294   5.421   8.342   2.673  0.0600  0.2101  0.9137
  836MOL0     C15295   5.328   8.403   2.720 -0.7516  0.5186 -0.0796
  836MOL0     C15296   5.870   7.816   2.914 -0.3964  0.6160 -0.2228
  836MOL0     C15297   6.002   7.768   2.917 -0.1340 -0.1864 -0.3386
  836MOL0     C15298   6.041   7.713   3.055  0.2311  0.3993 -0.5814
  836MOL0     H15299   6.341   7.516   3.092 -1.2896 -2.2830 -0.5089
  836MOL0     H15300   6.574   7.409   3.131 -2.2165 -0.0317 -0.0339
  836MOL0     H15301   6.844   7.406   2.794 -3.8473  3.3758  2.3016
  836MOL0     H15302   6.765   7.254   2.839  0.5294  0.0477 -2.6307
  836MOL0     H15303   6.949   7.193   3.003 -4.5726  1.9511  1.1202
  836MOL0     H15304   7.019   7.249   2.842  0.0543 -2.2488  0.3105
  836MOL0     H15305   7.101   7.458   2.912  1.3894 -0.6869 -0.1341
  836MOL0     H15306   6.990   7.447   3.053 -2.1576 -1.9796 -0.5002
  836MOL0     H15307   7.243   7.421   3.107  2.7484 -2.0664 -0.5231
  836MOL0     H15308   7.129   7.312   3.185 -1.4210 -0.8429 -1.4650
  836MOL0     H15309   7.203   7.145   3.013  0.1457 -0.5321  1.3204
  836MOL0     H15310   7.331   7.212   3.110 -2.5556 -0.6628  1.5723
  836MOL0     H15311   7.252   7.285   2.817  4.6688 -0.6967 -4.4088
  836MOL0     H15312   7.373   7.380   2.913 -2.8158  2.0019 -1.3992
  836MOL0     H15313   7.365   7.099   2.837 -1.6512  1.7227  2.6324
  836MOL0     H15314   7.496   7.148   2.944 -0.1751 -0.2891 -0.2158
  836MOL0     H15315   7.571   7.139   2.697 -0.4908 -0.7695  0.7200
  836MOL0     H15316   7.448   7.258   2.650 -1.9835  1.6497  3.1645
  836MOL0     H15317   7.695   7.293   2.952 -0.0535 -1.0625 -0.9159
  836MOL0     H15318   7.939   7.521   2.833  0.1167 -1.7274  0.3956
  836MOL0     H15319   7.876   7.505   2.991  3.1047  1.4983 -1.0998
  836MOL0     H15320   7.920   7.729   2.983  0.2890 -0.9466  2.2480
  836MOL0     H15321   7.845   7.745   2.816  0.0416  2.4887  1.7987
  836MOL0     H15322   7.628   7.740   2.876 -3.8521  0.5003  2.3482
  836MOL0     H15323   7.663   7.699   3.044  3.8768 -0.8330 -0.9071
  836MOL0     H15324   7.596   7.926   3.008 -1.7275 -3.1982 -3.4927
  836MOL0     H15325   7.759   7.891   3.098  0.5973 -1.5031  0.1013
  836MOL0     H15326   7.706   8.117   3.116  0.6265 -0.7832  0.9860
  836MOL0     H15327   7.794   8.479   3.182 -0.5806  0.3787 -1.3990
  836MOL0     H15328   7.804   8.329   3.287 -2.3911  1.0970  1.1067
  836MOL0     H15329   7.661   8.362   3.184  0.2876  1.3712  0.6885
  836MOL0     H15330   8.226   8.640   3.233 -0.9140  1.6992 -0.1752
  836MOL0     H15331   8.438   8.745   3.246 -3.3445 -0.4688  1.0054
  836MOL0     H15332   8.648   8.769   3.256 -0.9094 -2.1114  0.0172
  836MOL0     H15333   8.783   8.849   3.166  0.2418  3.5846  3.4070
  836MOL0     H15334   8.648   9.039   3.110  0.0071  2.0706  0.8913
  836MOL0     H15335   8.498   8.961   3.183  0.3868 -2.9698  3.5622
  836MOL0     H15336   8.726   8.998   3.358  0.4269 -0.8763 -1.9532
  836MOL0     H15337   8.550   8.995   3.393 -1.3829 -2.7896 -1.9696
  836MOL0     H15338   8.610   9.205   3.446 -0.5805 -2.7366  1.5955
  836MOL0     H15339   8.514   9.196   3.299  1.0978 -1.0137 -3.1612
  836MOL0     H15340   8.710   9.252   3.159  4.2494  1.0223 -0.9654
  836MOL0     H15341   8.668   9.378   3.283  1.0726 -0.5228  2.8877
  836MOL0     H15342   8.898   9.176   3.263  1.7225  1.6998 -2.7058
  836MOL0     H15343   8.859   9.263   3.416  1.3807 -2.1045  0.3628
  836MOL0     H15344   9.012   9.401   3.337 -2.5305 -2.5529  3.1290
  836MOL0     H15345   8.880   9.485   3.277 -0.6303  0.2036  0.4398
  836MOL0     H15346   8.902   9.357   3.057  2.6200 -0.2405 -1.9534
  836MOL0     H15347   9.049   9.288   3.111  2.6494  0.7180  0.9852
  836MOL0     H15348   8.558   8.643   2.854  0.6974 -1.4852  0.1305
  836MOL0     H15349   8.343   8.537   2.823  2.0230  1.4410 -0.9884
  836MOL0     H15350   8.107   8.256   2.885 -0.1361 -1.3500 -1.0451
  836MOL0     H15351   7.989   8.088   2.801 -0.6309  3.8431 -3.3232
  836MOL0     H15352   6.688   7.539   2.748 -0.7090  0.3063 -0.5711
  836MOL0     H15353   6.457   7.663   2.716 -2.7308 -1.5439 -0.8783
  836MOL0     H15354   6.059   7.739   2.594  4.6604 -1.8807  3.8734
  836MOL0     H15355   5.807   7.812   2.577  0.7306  0.4281 -0.2291
  836MOL0     H15356   5.518   7.966   2.900  0.2129  2.9447  0.2757
  836MOL0     H15357   5.673   8.005   2.956 -1.0007  1.1386  0.6555
  836MOL0     H15358   5.729   8.124   2.766  0.4124 -2.0215 -4.4912
  836MOL0     H15359   5.586   8.194   2.848  0.5954  0.9828 -2.6749
  836MOL0     H15360   5.587   8.057   2.593 -2.7535  0.3616 -2.3120
  836MOL0     H15361   5.438   8.072   2.677  0.1761  0.9186  2.1453
  836MOL0     H15362   5.510   8.249   2.508 -1.0822  0.9347 -0.3747
  836MOL0     H15363   5.617   8.325   2.636  0.0060 -2.2756  1.5244
  836MOL0     H15364   5.260   8.467   2.773  0.1613  1.6566 -0.2413
  836MOL0     H15365   5.839   7.844   3.014  2.6967 -0.1686  1.0697
  836MOL0     H15366   6.136   7.749   3.095  2.0667 -2.3355 -2.0707
  836MOL0     H15367   5.966   7.721   3.134  0.1604  2.7094 -0.8127
  836MOL0     H15368   6.063   7.606   3.043 -2.3012 -0.0946 -1.5871
  837MOL0     O15369   8.776   1.385  11.534 -0.2613 -0.6859  0.5474
  837MOL0     C15370   8.849   1.402  11.631 -0.4176 -0.4845 -0.2033
  837MOL0     O15371   8.981   1.412  11.637  0.5059 -0.5812  0.8169
  837MOL0     C15372   9.054   1.426  11.515  0.0412  0.1883  0.2279
  837MOL0     C15373   9.023   1.476  11.388  0.9033 -1.1787  0.2580
  837MOL0     C15374   9.113   1.497  11.281  0.0403 -0.0183  0.3379
  837MOL0     C15375   9.240   1.455  11.305 -0.4449  0.9690 -0.4629
  837MOL0     O15376   9.339   1.448  11.206  1.1091  0.6670  0.4245
  837MOL0     C15377   9.343   1.542  11.094  0.3451  0.1906 -0.4237
  837MOL0     C15378   9.430   1.656  11.153  0.1832 -1.0140  0.4778
  837MOL0     C15379   9.566   1.611  11.195  0.3244 -0.0485  0.1041
  837MOL0     C15380   9.638   1.749  11.231  0.8323  0.2494  0.1251
  837MOL0     C15381   9.760   1.713  11.323  0.5591  0.0822  0.0688
  837MOL0     C15382   9.804   1.818  11.415 -0.9034  0.0419  0.5372
  837MOL0     C15383   9.947   1.794  11.481  1.3087  0.5567 -0.7433
  837MOL0     C15384   9.973   1.923  11.562 -0.2822  0.0341 -0.0375
  837MOL0     N15385   9.996   2.047  11.486 -0.4699 -0.1391 -0.2312
  837MOL0     C15386  10.103   2.070  11.399 -0.4554 -1.1825  1.0254
  837MOL0     C15387  10.069   2.192  11.347 -0.0676  1.2398  0.0152
  837MOL0     C15388  10.155   2.238  11.237  0.1116  0.6244  0.0939
  837MOL0     C15389  10.251   2.344  11.285 -0.3145  0.4720 -0.5317
  837MOL0     C15390  10.365   2.368  11.195 -0.0970 -0.6881  0.5202
  837MOL0     C15391  10.323   2.406  11.058 -0.6558 -0.1724  0.4500
  837MOL0     O15392  10.243   2.523  11.052  0.2073 -0.5796 -0.0007
  837MOL0     C15393  10.231   2.600  10.933  0.4002  0.2347 -0.2215
  837MOL0     C15394  10.173   2.720  10.939 -0.0239 -0.3099  0.0265
  837MOL0     C15395  10.129   2.796  10.828  0.4386 -0.6416 -0.3996
  837MOL0     C15396  10.044   2.925  10.842 -0.2398  1.1231 -0.7016
  837MOL0     C15397  10.151   2.732  10.708 -0.4058  0.8566 -0.5151
  837MOL0     C15398  10.111   2.783  10.576 -0.3858  0.5375 -0.1063
  837MOL0     O15399  10.174   2.901  10.541 -0.6728  0.7462 -0.5274
  837MOL0     C15400  10.182   2.930  10.406  0.3254  0.4989  0.1349
  837MOL0     C15401  10.080   3.008  10.346 -0.8279 -0.1776 -0.7601
  837MOL0     C15402  10.089   3.048  10.216 -0.0844  0.2267 -0.0819
  837MOL0     C15403  10.187   2.986  10.130 -1.0671  0.3222  0.4190
  837MOL0     O15404  10.208   3.009  10.001 -1.3766 -0.5887 -0.6401
  837MOL0     C15405  10.160   3.135   9.948  0.2969 -0.3776 -0.4558
  837MOL0     C15406  10.281   3.210   9.892 -0.4963 -0.1493  0.8739
  837MOL0     C15407  10.249   3.330   9.805  0.4021 -0.4258 -0.3236
  837MOL0     C15408  10.375   3.379   9.731 -0.5266 -0.7007  0.0247
  837MOL0     C15409  10.332   3.489   9.627  0.2477  0.6555 -0.2228
  837MOL0     C15410  10.276   3.628   9.680  0.1793 -0.1337  0.2898
  837MOL0     C15411  10.380   3.685   9.773  0.5165 -0.2442 -0.8941
  837MOL0     C15412  10.362   3.828   9.819  1.4969 -0.2828 -0.4054
  837MOL0    Cl15413  10.204   3.865   9.909  0.4583  0.2093 -0.3573
  837MOL0     C15414  10.280   2.890  10.185 -0.2171 -0.0608 -0.6897
  837MOL0     C15415  10.284   2.872  10.323  0.0194 -0.3189 -0.1477
  837MOL0     O15416  10.038   2.717  10.501  0.2645 -0.2826 -0.1084
  837MOL0     C15417  10.223   2.615  10.701  0.6584  1.1706 -0.4243
  837MOL0     C15418  10.263   2.539  10.812  0.8078 -0.9470 -1.4305
  837MOL0     N15419   9.942   2.229  11.385  0.2651 -0.1469 -0.2459
  837MOL0     N15420   9.891   2.132  11.456  0.2438  1.1273  0.8947
  837MOL0     C15421   9.281   1.401  11.423  0.5973  0.5965  0.2788
  837MOL0     C15422   9.191   1.387  11.522 -0.3561 -0.8963 -0.8879
  837MOL0     C15423   8.783   1.385  11.757 -0.6017 -0.2471 -0.0365
  837MOL0     C15424   8.656   1.334  11.756  0.5397  0.7433  0.5383
  837MOL0     C15425   8.585   1.311  11.873  0.4989  0.4834  0.1050
  837MOL0     C15426   8.631   1.354  11.996  0.7589  0.7539 -0.3841
  837MOL0     O15427   8.557   1.353  12.116  0.2928 -0.5867 -0.2238
  837MOL0     C15428   8.531   1.222  12.151 -0.4712  0.9660  0.4487
  837MOL0     C15429   8.424   1.218  12.261  0.2592  0.1231  0.1385
  837MOL0     C15430   8.423   1.085  12.339 -0.0211 -0.0785  0.2700
  837MOL0     C15431   8.344   1.093  12.473  0.3505 -0.5286 -0.8365
  837MOL0     C15432   8.208   1.045  12.453 -0.2420 -0.2690 -0.1204
  837MOL0     C15433   8.089   1.036  12.419  0.2570  0.8380 -0.7425
  837MOL0     C15434   8.766   1.396  12.001  0.5945  1.2311 -1.0228
  837MOL0     C15435   8.850   1.401  11.892  0.2714  0.6382  0.5301
  837MOL0     C15436   8.992   1.427  11.921  0.0670 -0.5577  0.1334
  837MOL0     H15437   8.919   1.506  11.376  0.0151 -3.9652  0.4020
  837MOL0     H15438   9.081   1.524  11.181  0.2256  0.8918  0.5216
  837MOL0     H15439   9.244   1.578  11.065 -0.5199 -1.9647 -0.3455
  837MOL0     H15440   9.377   1.503  10.998 -3.5890  0.3589 -2.0771
  837MOL0     H15441   9.449   1.742  11.089  0.4223  0.3334  2.2569
  837MOL0     H15442   9.373   1.700  11.236 -2.4050 -1.3153 -1.0171
  837MOL0     H15443   9.559   1.532  11.270 -1.5870 -0.4906 -0.4753
  837MOL0     H15444   9.618   1.569  11.109 -0.3567 -1.0455  0.1592
  837MOL0     H15445   9.678   1.785  11.136  1.5413 -3.6414 -1.2569
  837MOL0     H15446   9.574   1.822  11.281 -0.8671 -1.4698  0.6188
  837MOL0     H15447   9.848   1.688  11.264 -0.6101 -2.6620 -0.7042
  837MOL0     H15448   9.750   1.619  11.379  2.3087  0.3679  0.9176
  837MOL0     H15449   9.817   1.915  11.366  0.1517 -0.1797  0.3515
  837MOL0     H15450   9.732   1.837  11.495 -0.1727  1.3562  0.9092
  837MOL0     H15451  10.022   1.770  11.405  1.8515 -0.3466  0.0598
  837MOL0     H15452   9.942   1.711  11.551 -0.6422  0.6843 -0.6680
  837MOL0     H15453   9.890   1.941  11.631 -2.9659  1.9754 -3.4563
  837MOL0     H15454  10.059   1.916  11.629  0.2526  2.2009 -0.4204
  837MOL0     H15455  10.191   2.007  11.385  0.4555  0.4392 -1.3729
  837MOL0     H15456  10.090   2.261  11.152  0.4782  1.8439  0.1291
  837MOL0     H15457  10.220   2.159  11.199  0.6818  1.5805 -0.9611
  837MOL0     H15458  10.194   2.436  11.299  3.1209  2.4663  1.5974
  837MOL0     H15459  10.292   2.320  11.383 -0.8030 -0.7884 -0.6136
  837MOL0     H15460  10.429   2.449  11.232  0.6828 -1.2765  0.4791
  837MOL0     H15461  10.419   2.273  11.187 -0.5758 -0.9970  0.8988
  837MOL0     H15462  10.409   2.416  10.991 -1.5180  1.9029 -0.4275
  837MOL0     H15463  10.262   2.324  11.020 -1.5079  1.0165 -0.8672
  837MOL0     H15464  10.165   2.768  11.037 -1.0232  0.1944 -0.2865
  837MOL0     H15465  10.007   2.958  10.744 -0.3015  1.4126 -0.5833
  837MOL0     H15466  10.097   3.007  10.892 -0.1794  0.4992  0.2860
  837MOL0     H15467   9.957   2.920  10.908 -0.0035  2.9451 -0.1991
  837MOL0     H15468   9.987   3.033  10.396 -1.6122 -1.5115 -1.5034
  837MOL0     H15469  10.010   3.099  10.161 -0.5713 -1.5238 -1.0608
  837MOL0     H15470  10.087   3.102   9.874  1.4052 -1.8267 -0.9437
  837MOL0     H15471  10.111   3.200  10.021  0.8994 -2.8535  2.3954
  837MOL0     H15472  10.345   3.251   9.970  1.7142 -1.0727 -0.3756
  837MOL0     H15473  10.336   3.137   9.832 -1.9797 -0.3059 -0.3523
  837MOL0     H15474  10.217   3.410   9.872  0.0378 -0.9454  0.1223
  837MOL0     H15475  10.179   3.310   9.723 -0.7439  1.9750 -0.0271
  837MOL0     H15476  10.410   3.296   9.670 -1.5272 -0.2818 -1.1812
  837MOL0     H15477  10.457   3.413   9.795  0.2016 -0.3949 -1.0525
  837MOL0     H15478  10.430   3.510   9.584  0.2036  0.9583 -0.1812
  837MOL0     H15479  10.266   3.441   9.555  2.1273 -1.5538 -0.5529
  837MOL0     H15480  10.176   3.606   9.716 -0.9759  2.9017 -0.7794
  837MOL0     H15481  10.276   3.674   9.581  0.2762 -0.4186  0.1539
  837MOL0     H15482  10.478   3.682   9.725  0.7525 -0.4549 -0.4088
  837MOL0     H15483  10.393   3.618   9.858  0.8736 -0.5896 -1.2183
  837MOL0     H15484  10.374   3.886   9.728  2.9370 -0.8674 -0.6049
  837MOL0     H15485  10.443   3.871   9.879  0.6178  0.4297  0.3241
  837MOL0     H15486  10.362   2.842  10.131  0.2403 -0.0295 -0.0367
  837MOL0     H15487  10.363   2.807  10.357  2.5500  1.2437 -2.5751
  837MOL0     H15488  10.245   2.572  10.604 -1.2510  0.4795 -0.5806
  837MOL0     H15489  10.315   2.444  10.813  1.0198 -0.9442  2.5167
  837MOL0     H15490   9.382   1.362  11.432 -0.0125 -1.3713 -0.9205
  837MOL0     H15491   9.235   1.365  11.619 -0.6529  0.7755 -0.3472
  837MOL0     H15492   8.610   1.310  11.660  0.5517 -0.7042  0.8813
  837MOL0     H15493   8.482   1.276  11.865 -1.7502  4.6660  4.8535
  837MOL0     H15494   8.495   1.163  12.067 -0.0692 -1.1233  1.6836
  837MOL0     H15495   8.622   1.177  12.192  0.0724  2.8666  1.4279
  837MOL0     H15496   8.328   1.221  12.208  1.0023 -1.2928 -1.4068
  837MOL0     H15497   8.450   1.293  12.335 -2.9369 -0.6566  2.2346
  837MOL0     H15498   8.379   1.002  12.282 -2.5083  1.1568  0.2822
  837MOL0     H15499   8.528   1.073  12.369  0.2396  1.8356  0.2273
  837MOL0     H15500   8.355   1.195  12.512  0.9629 -0.7382 -0.4397
  837MOL0     H15501   8.380   1.027  12.553 -1.8355  0.0178  0.7152
  837MOL0     H15502   7.986   1.012  12.407  0.0655  1.0008  0.4380
  837MOL0     H15503   8.801   1.410  12.102 -1.1064 -1.7675  0.1314
  837MOL0     H15504   9.062   1.371  11.859 -1.0501  0.5655 -2.2491
  837MOL0     H15505   9.014   1.534  11.920 -1.3940 -0.2033  1.5018
  837MOL0     H15506   9.019   1.398  12.023  1.2801  1.8223  0.5751
  838MOL0     O15507   2.195   5.564   3.395  0.2194 -0.3152 -0.1011
  838MOL0     C15508   2.149   5.478   3.318 -0.4835  0.5593  1.1247
  838MOL0     O15509   2.107   5.356   3.359  0.1599  0.5588  0.2597
  838MOL0     C15510   2.120   5.326   3.493  1.0828  0.3234  0.4196
  838MOL0     C15511   2.221   5.257   3.558  0.3858  0.2131 -0.4164
  838MOL0     C15512   2.213   5.202   3.685 -0.0422  0.0428 -0.0726
  838MOL0     C15513   2.099   5.245   3.765 -0.4624  1.3853 -0.3640
  838MOL0     O15514   2.077   5.238   3.904 -0.5212  0.4778  1.2846
  838MOL0     C15515   2.170   5.173   3.993  0.7119  0.3358  0.9413
  838MOL0     C15516   2.132   5.198   4.139 -0.1068  0.7606  0.6876
  838MOL0     C15517   2.236   5.166   4.239  0.5690 -0.4406 -0.8931
  838MOL0     C15518   2.362   5.255   4.247  0.2847  0.1722 -1.3638
  838MOL0     C15519   2.441   5.252   4.376  1.1121 -0.7476  0.1470
  838MOL0     C15520   2.367   5.298   4.508  0.2413 -0.7956 -0.1423
  838MOL0     C15521   2.460   5.259   4.636 -0.1969  0.1167 -0.6324
  838MOL0     C15522   2.361   5.242   4.745 -0.4795  0.1080 -0.6779
  838MOL0     N15523   2.405   5.182   4.869  0.0599 -0.8429  0.3714
  838MOL0     C15524   2.471   5.254   4.967  0.2625 -0.5352  1.3186
  838MOL0     C15525   2.496   5.176   5.068 -0.3108  1.1977  0.5378
  838MOL0     C15526   2.583   5.205   5.182 -0.4371  0.4848 -0.5750
  838MOL0     C15527   2.569   5.351   5.220 -0.8605 -0.6580 -0.7133
  838MOL0     C15528   2.628   5.381   5.359 -0.6277 -0.7312  0.9182
  838MOL0     C15529   2.519   5.369   5.471 -0.2490  0.4367  0.2207
  838MOL0     O15530   2.556   5.435   5.592  0.4572  0.4257  0.0120
  838MOL0     C15531   2.661   5.395   5.665  0.5682  0.7581  0.1397
  838MOL0     C15532   2.718   5.492   5.744 -0.7843  0.0292 -0.3826
  838MOL0     C15533   2.851   5.492   5.810  0.6930 -0.2708 -0.0875
  838MOL0     C15534   2.897   5.608   5.877 -0.7437 -0.4386  0.1614
  838MOL0     C15535   2.922   5.369   5.801 -0.9206  0.2817 -0.2452
  838MOL0     C15536   3.052   5.339   5.857  0.6453 -0.0334 -0.2764
  838MOL0     O15537   3.058   5.226   5.931 -0.6890 -0.4277  0.4439
  838MOL0     C15538   3.163   5.205   6.008 -0.2084 -0.2070 -0.8483
  838MOL0     C15539   3.153   5.185   6.146  0.0264 -0.4463  0.0536
  838MOL0     C15540   3.268   5.163   6.231  0.0741  0.6543  0.3113
  838MOL0     C15541   3.390   5.159   6.175 -0.2328 -0.0304 -0.2671
  838MOL0     O15542   3.491   5.142   6.261  0.0278 -0.2488  0.3395
  838MOL0     C15543   3.606   5.079   6.195  0.9326  0.3887 -0.8342
  838MOL0     C15544   3.711   5.030   6.292 -0.5980  0.4014 -0.4087
  838MOL0     C15545   3.786   5.148   6.354  1.2775  0.3927 -0.7515
  838MOL0     C15546   3.877   5.104   6.477 -0.6318  0.4282  0.2195
  838MOL0     C15547   3.993   5.009   6.431 -0.5577  0.5915 -0.0400
  838MOL0     C15548   4.071   4.948   6.553 -0.5487  0.5832 -0.7087
  838MOL0     C15549   4.188   4.849   6.521  0.0655 -0.8542 -0.1217
  838MOL0     C15550   4.257   4.794   6.658  0.6803  0.6786 -0.3047
  838MOL0    Cl15551   4.340   4.926   6.741  0.3816 -0.0226 -0.7363
  838MOL0     C15552   3.402   5.187   6.037  0.0820 -0.1497 -0.8648
  838MOL0     C15553   3.292   5.204   5.958 -0.2237 -0.4024  0.0855
  838MOL0     O15554   3.146   5.427   5.840 -0.4077  0.5041  0.8459
  838MOL0     C15555   2.854   5.270   5.739  0.3125  0.3681 -0.3489
  838MOL0     C15556   2.731   5.282   5.668 -0.5688 -0.2491  0.1067
  838MOL0     N15557   2.464   5.053   5.031 -0.4296 -0.3845  0.0985
  838MOL0     N15558   2.406   5.055   4.911 -0.7688  0.3987  0.3775
  838MOL0     C15559   1.998   5.317   3.703 -0.3017 -0.6659 -0.7477
  838MOL0     C15560   2.007   5.349   3.575 -0.6493 -0.6645  0.3143
  838MOL0     C15561   2.144   5.513   3.171 -0.0703  1.2367 -0.6447
  838MOL0     C15562   2.147   5.405   3.079  0.6352 -0.2932 -0.3066
  838MOL0     C15563   2.159   5.422   2.940  1.4589 -0.1868  1.1076
  838MOL0     C15564   2.176   5.547   2.885  0.5054 -0.9455 -0.2303
  838MOL0     O15565   2.172   5.575   2.754 -0.9270  0.6751 -0.7987
  838MOL0     C15566   2.196   5.463   2.660 -0.4501 -0.1054  0.9119
  838MOL0     C15567   2.203   5.551   2.529 -0.0093  0.1853 -0.8151
  838MOL0     C15568   2.200   5.449   2.408  0.5313 -0.6023 -0.5205
  838MOL0     C15569   2.063   5.392   2.377 -0.9816  0.1483 -0.1207
  838MOL0     C15570   1.958   5.484   2.331 -0.0537  0.4345  0.4042
  838MOL0     C15571   1.857   5.546   2.291 -0.5117 -0.8686 -0.0752
  838MOL0     C15572   2.171   5.655   2.975  0.2418 -0.6135 -0.2876
  838MOL0     C15573   2.162   5.641   3.120  0.1989 -0.6755 -0.0134
  838MOL0     C15574   2.161   5.779   3.184  0.4806  0.1015  0.5786
  838MOL0     H15575   2.314   5.232   3.508  1.4209  0.8095  1.1217
  838MOL0     H15576   2.296   5.145   3.727  1.4374  1.8628 -0.4315
  838MOL0     H15577   2.270   5.215   3.979 -0.5429  3.8529  1.6575
  838MOL0     H15578   2.166   5.065   3.975  0.5312  0.5624 -0.4985
  838MOL0     H15579   2.103   5.303   4.142  2.1230  1.4513 -0.0322
  838MOL0     H15580   2.053   5.125   4.159  0.3695  0.0414  0.0377
  838MOL0     H15581   2.184   5.161   4.334  1.3820  3.7357 -0.0433
  838MOL0     H15582   2.278   5.064   4.236  0.7632 -0.5337  2.0669
  838MOL0     H15583   2.433   5.224   4.170 -0.9513 -1.2655 -1.9641
  838MOL0     H15584   2.337   5.357   4.215  0.5535  0.7813  0.2789
  838MOL0     H15585   2.530   5.315   4.366  0.0996  0.5118 -1.3111
  838MOL0     H15586   2.482   5.151   4.386 -0.6246 -1.4522  0.4539
  838MOL0     H15587   2.340   5.403   4.524  2.0310 -0.5464  1.6147
  838MOL0     H15588   2.276   5.239   4.522 -1.2024  1.8501  2.9148
  838MOL0     H15589   2.539   5.328   4.669 -0.6496  0.9188 -1.1992
  838MOL0     H15590   2.509   5.163   4.618  2.5171  0.6229  2.9361
  838MOL0     H15591   2.315   5.338   4.771 -1.4031 -1.2075  3.2898
  838MOL0     H15592   2.293   5.164   4.710  2.7482 -5.6905  4.0724
  838MOL0     H15593   2.491   5.358   4.945 -1.1935 -0.4247  0.4033
  838MOL0     H15594   2.682   5.175   5.148 -1.5799 -5.9005  0.5681
  838MOL0     H15595   2.552   5.137   5.261  1.1551 -3.6254 -3.1657
  838MOL0     H15596   2.627   5.403   5.143  1.4150  0.8218  1.8210
  838MOL0     H15597   2.462   5.376   5.213 -1.3304 -1.8292  1.3233
  838MOL0     H15598   2.715   5.319   5.381  0.4235 -0.2487 -1.5261
  838MOL0     H15599   2.659   5.486   5.355  0.3234 -1.0304 -1.8490
  838MOL0     H15600   2.419   5.399   5.439 -0.0201 -1.5744 -2.6910
  838MOL0     H15601   2.513   5.263   5.499  0.6925  0.7712  1.8157
  838MOL0     H15602   2.665   5.586   5.752 -0.0643  0.3033  2.1122
  838MOL0     H15603   2.827   5.692   5.875  1.2680  1.3436 -2.8020
  838MOL0     H15604   2.990   5.640   5.830 -0.2538 -0.6884  0.9523
  838MOL0     H15605   2.912   5.588   5.984  0.6044 -2.5339 -0.3783
  838MOL0     H15606   3.056   5.183   6.196 -1.6854  2.7753 -2.7228
  838MOL0     H15607   3.254   5.149   6.338 -1.8295  1.4876  0.2072
  838MOL0     H15608   3.583   4.997   6.127  0.6995 -2.3751  2.3202
  838MOL0     H15609   3.648   5.157   6.130 -0.1786  0.5989 -1.3402
  838MOL0     H15610   3.675   4.951   6.359 -1.7860  2.5681  1.6875
  838MOL0     H15611   3.781   4.979   6.225 -0.7741 -0.3014 -0.0679
  838MOL0     H15612   3.712   5.218   6.394  3.5232  0.8926  3.0376
  838MOL0     H15613   3.850   5.200   6.282  2.1662  0.9282  0.3928
  838MOL0     H15614   3.833   5.065   6.570  3.1950  0.0507  2.0479
  838MOL0     H15615   3.927   5.194   6.514 -1.5762  0.4416  1.5437
  838MOL0     H15616   3.956   4.927   6.368  1.0941  0.3721 -0.7905
  838MOL0     H15617   4.051   5.071   6.362 -1.4802  1.6762  0.1429
  838MOL0     H15618   4.005   4.896   6.623  3.3921  1.3997  4.1426
  838MOL0     H15619   4.109   5.031   6.613 -1.3512  0.0599  0.5462
  838MOL0     H15620   4.257   4.901   6.455  2.2333 -0.1797  2.4709
  838MOL0     H15621   4.139   4.764   6.471 -1.5865 -0.4566  0.7543
  838MOL0     H15622   4.325   4.713   6.630 -3.7807 -3.5663 -0.2550
  838MOL0     H15623   4.170   4.745   6.704 -2.6965  1.5997 -4.9714
  838MOL0     H15624   3.497   5.200   5.987 -1.3961  1.3297 -3.5168
  838MOL0     H15625   3.298   5.208   5.850  1.9951 -1.8528  0.0811
  838MOL0     H15626   2.895   5.169   5.742 -0.2557  0.1450  1.6670
  838MOL0     H15627   2.680   5.194   5.631 -0.7946 -0.2859  0.5024
  838MOL0     H15628   1.913   5.347   3.762  0.2856 -0.8403  0.2071
  838MOL0     H15629   1.934   5.420   3.536 -0.5239 -0.8425 -0.2503
  838MOL0     H15630   2.133   5.305   3.118  0.6559  1.4495  4.8454
  838MOL0     H15631   2.188   5.332   2.887  1.1068 -0.4770  1.4067
  838MOL0     H15632   2.282   5.397   2.678 -0.8841 -1.2276 -0.8209
  838MOL0     H15633   2.106   5.401   2.657 -0.3240 -0.2517 -0.6722
  838MOL0     H15634   2.296   5.610   2.527  0.3334 -0.3460 -0.8425
  838MOL0     H15635   2.114   5.611   2.513  0.1554  0.3024 -1.3193
  838MOL0     H15636   2.226   5.502   2.316  0.9719  0.5028  0.2220
  838MOL0     H15637   2.269   5.365   2.421 -0.4523 -1.2952  0.4565
  838MOL0     H15638   2.035   5.341   2.470  0.8310 -0.2640  0.2446
  838MOL0     H15639   2.065   5.320   2.295  0.1974  1.1435 -1.0021
  838MOL0     H15640   1.765   5.597   2.275  0.9557  2.3916  1.0545
  838MOL0     H15641   2.181   5.755   2.934 -1.7823 -0.3195 -0.1591
  838MOL0     H15642   2.260   5.797   3.227  1.0833 -2.0016  0.2095
  838MOL0     H15643   2.132   5.857   3.112 -2.0466 -0.7543  0.5945
  838MOL0     H15644   2.084   5.781   3.262  1.1598 -0.1596  1.2675
  839MOL0     O15645   3.196   1.176   9.516 -0.9060  0.5064  0.0751
  839MOL0     C15646   3.181   1.056   9.486  0.0819 -0.4181 -0.4451
  839MOL0     O15647   3.228   1.001   9.371 -0.0525  0.4107  0.1357
  839MOL0     C15648   3.339   1.054   9.305 -0.8225 -0.9224  0.0881
  839MOL0     C15649   3.321   1.121   9.187  0.5116  0.6914  1.3499
  839MOL0     C15650   3.431   1.142   9.107 -0.1259  0.3706 -0.3422
  839MOL0     C15651   3.563   1.114   9.136  0.6721  0.3388 -0.1510
  839MOL0     O15652   3.681   1.135   9.053  0.2684  0.5668  0.2981
  839MOL0     C15653   3.654   1.175   8.921  0.2730  0.2825  0.0390
  839MOL0     C15654   3.627   1.327   8.903  0.6474 -0.1363  0.6723
  839MOL0     C15655   3.625   1.369   8.759 -0.3674 -0.6399  0.3762
  839MOL0     C15656   3.515   1.288   8.682  1.0331 -0.8288 -0.9763
  839MOL0     C15657   3.527   1.323   8.537 -0.5282 -0.3584  2.1178
  839MOL0     C15658   3.401   1.279   8.454 -0.1953 -0.1649  0.2711
  839MOL0     C15659   3.421   1.297   8.306  0.2405  0.2213  0.0655
  839MOL0     C15660   3.441   1.443   8.246 -0.5194 -0.2502 -0.0709
  839MOL0     N15661   3.393   1.463   8.106  0.2924 -0.7361 -0.4477
  839MOL0     C15662   3.327   1.383   8.012  0.2882 -0.9772  0.3864
  839MOL0     C15663   3.263   1.473   7.929  0.0052 -1.1764  0.0181
  839MOL0     C15664   3.162   1.435   7.827 -1.2698  0.2300  0.1586
  839MOL0     C15665   3.060   1.543   7.813  0.6999  0.0366 -0.3395
  839MOL0     C15666   2.973   1.521   7.686 -0.1889 -0.3691  0.1498
  839MOL0     C15667   2.890   1.398   7.692  0.0208 -0.1503 -0.6530
  839MOL0     O15668   2.808   1.419   7.803  0.6239  0.0354 -0.5190
  839MOL0     C15669   2.740   1.307   7.843 -0.2667 -0.5874 -0.0991
  839MOL0     C15670   2.666   1.219   7.769 -0.4977 -0.6568  0.2978
  839MOL0     C15671   2.582   1.120   7.824 -0.1720 -0.2236 -0.2734
  839MOL0     C15672   2.506   1.034   7.724  0.7129  0.4377 -0.1392
  839MOL0     C15673   2.561   1.116   7.964  0.1415  0.5218 -1.0354
  839MOL0     C15674   2.484   1.005   8.025 -0.2567 -0.9576  0.1774
  839MOL0     O15675   2.436   1.026   8.152 -0.2484  0.5919  0.9993
  839MOL0     C15676   2.421   0.926   8.245  0.2455 -0.5423 -0.4543
  839MOL0     C15677   2.329   0.955   8.355  0.2489 -0.7942 -1.3702
  839MOL0     C15678   2.295   0.863   8.454  0.9820 -0.2721  0.5952
  839MOL0     C15679   2.357   0.741   8.445 -0.3326  0.3667 -0.2057
  839MOL0     O15680   2.349   0.642   8.536  0.3495  0.3431  0.0221
  839MOL0     C15681   2.237   0.643   8.617  0.0459 -0.0632 -0.4119
  839MOL0     C15682   2.129   0.564   8.565 -0.7763 -0.3366  0.5468
  839MOL0     C15683   2.177   0.426   8.546  0.8683  0.6869  0.0792
  839MOL0     C15684   2.073   0.349   8.471  0.3850 -0.3441  0.5101
  839MOL0     C15685   2.105   0.194   8.475 -1.0278 -0.3687 -0.9373
  839MOL0     C15686   1.994   0.114   8.554  0.5129  0.2052 -0.7850
  839MOL0     C15687   2.037  -0.028   8.582 -0.0197 -0.0637 -0.3915
  839MOL0     C15688   1.986  -0.109   8.458 -0.8219 -0.5511  0.6256
  839MOL0    Cl15689   1.817  -0.092   8.438  0.1818  0.4610  0.3771
  839MOL0     C15690   2.452   0.710   8.342  0.0613  0.3358 -0.1719
  839MOL0     C15691   2.474   0.798   8.238  0.4549  1.1915 -0.5780
  839MOL0     O15692   2.448   0.906   7.963 -0.7234 -0.0645  0.7419
  839MOL0     C15693   2.627   1.216   8.042 -1.2238  0.2096  0.0238
  839MOL0     C15694   2.716   1.305   7.982 -0.0716  0.0142  1.0695
  839MOL0     N15695   3.306   1.604   7.956 -0.3260  0.3804 -1.2779
  839MOL0     N15696   3.366   1.594   8.070  0.1513 -0.3941 -0.7452
  839MOL0     C15697   3.581   1.062   9.266  0.1990 -0.4968 -0.4184
  839MOL0     C15698   3.470   1.022   9.344  0.3700  0.7129 -0.0346
  839MOL0     C15699   3.096   0.980   9.576 -0.0341 -0.4747 -0.2212
  839MOL0     C15700   3.059   0.850   9.527  0.2132 -0.6234  0.1918
  839MOL0     C15701   2.976   0.771   9.613 -1.8071 -0.1917  0.4323
  839MOL0     C15702   2.952   0.806   9.746  0.2187 -0.3624  0.1198
  839MOL0     O15703   2.895   0.721   9.842 -0.4200 -0.6726 -0.3842
  839MOL0     C15704   2.982   0.610   9.858  0.3536 -0.9800 -0.5690
  839MOL0     C15705   2.889   0.490   9.837 -0.8115 -0.2691 -0.1512
  839MOL0     C15706   2.958   0.359   9.825 -0.4783 -0.5651 -0.8051
  839MOL0     C15707   3.014   0.322   9.962  0.7048  0.5823 -0.7324
  839MOL0     C15708   2.922   0.253  10.055  0.7466 -0.2918  0.0977
  839MOL0     C15709   2.847   0.211  10.140  0.8962  1.3507 -0.4555
  839MOL0     C15710   2.983   0.931   9.795 -0.5441  0.7288  1.0898
  839MOL0     C15711   3.055   1.023   9.711 -0.0584 -0.1103  0.1202
  839MOL0     C15712   3.098   1.152   9.785 -0.3952  0.6101 -0.7937
  839MOL0     H15713   3.222   1.133   9.146  1.6221 -1.7376 -2.6085
  839MOL0     H15714   3.430   1.187   9.009 -1.2227  0.8630 -0.1226
  839MOL0     H15715   3.578   1.113   8.873  0.8171 -0.2305 -0.1736
  839MOL0     H15716   3.746   1.149   8.869  1.6140 -0.9493  2.7797
  839MOL0     H15717   3.528   1.356   8.938  0.2865  0.4215 -0.7469
  839MOL0     H15718   3.700   1.382   8.963  0.0147  0.9010  0.5105
  839MOL0     H15719   3.599   1.474   8.742  1.7796 -0.3494 -1.3818
  839MOL0     H15720   3.723   1.343   8.719 -0.9165 -1.1716 -0.6700
  839MOL0     H15721   3.513   1.181   8.702 -0.1094 -0.8957 -1.3577
  839MOL0     H15722   3.414   1.317   8.713  1.0875 -2.9146  1.4760
  839MOL0     H15723   3.614   1.281   8.486 -0.9751  1.9100 -0.7635
  839MOL0     H15724   3.532   1.432   8.527 -1.4395 -0.4267  0.5760
  839MOL0     H15725   3.406   1.174   8.485  0.3264  0.1890  1.4151
  839MOL0     H15726   3.302   1.310   8.491 -0.8840 -2.7265  0.7748
  839MOL0     H15727   3.341   1.248   8.251  2.8446 -1.2479 -2.6903
  839MOL0     H15728   3.511   1.245   8.273  1.4360  1.4752  1.1903
  839MOL0     H15729   3.397   1.513   8.317  0.8593  0.0370  0.5355
  839MOL0     H15730   3.548   1.467   8.249 -0.6008  0.1460 -0.3070
  839MOL0     H15731   3.318   1.277   8.033  2.5199 -1.3477 -0.2806
  839MOL0     H15732   3.116   1.341   7.859 -1.5941  0.0283 -0.8610
  839MOL0     H15733   3.219   1.413   7.736  0.4142  1.6027  0.8230
  839MOL0     H15734   2.986   1.548   7.893 -2.7852 -0.7772 -3.2579
  839MOL0     H15735   3.104   1.643   7.802  1.2834 -0.0512  1.0205
  839MOL0     H15736   2.908   1.607   7.670  1.7856  0.8378 -1.9079
  839MOL0     H15737   3.049   1.504   7.609 -0.7043  1.7469 -0.8733
  839MOL0     H15738   2.839   1.384   7.595  1.7096  1.4021 -1.8308
  839MOL0     H15739   2.946   1.305   7.703 -1.2399 -0.8117  0.3577
  839MOL0     H15740   2.683   1.214   7.662  0.1766 -0.8825  0.4088
  839MOL0     H15741   2.484   1.079   7.627 -4.6922 -0.2437  0.4282
  839MOL0     H15742   2.403   1.017   7.759 -0.4511  1.3176 -2.8369
  839MOL0     H15743   2.548   0.934   7.714  5.7044  1.9989  2.2249
  839MOL0     H15744   2.287   1.055   8.347  2.7993  0.8632  2.7067
  839MOL0     H15745   2.221   0.889   8.529  0.1388  3.6542 -1.3303
  839MOL0     H15746   2.260   0.611   8.720 -2.1759  0.7329  0.3986
  839MOL0     H15747   2.197   0.740   8.647  2.4291  0.3908  1.5788
  839MOL0     H15748   2.043   0.556   8.632 -0.0450  0.5902  1.6315
  839MOL0     H15749   2.091   0.601   8.469 -0.5626  0.9472  0.9313
  839MOL0     H15750   2.196   0.399   8.650  3.7063  0.7574 -0.3533
  839MOL0     H15751   2.270   0.413   8.490  0.7073 -0.2852  0.0147
  839MOL0     H15752   2.076   0.383   8.367  2.7005 -1.2895  0.2132
  839MOL0     H15753   1.972   0.377   8.503 -0.2490 -1.2116 -0.6940
  839MOL0     H15754   2.129   0.159   8.374 -1.5001  1.4104 -1.6991
  839MOL0     H15755   2.195   0.179   8.536 -1.4087  0.1967 -0.2143
  839MOL0     H15756   1.896   0.125   8.505 -0.0861 -1.2183  0.0431
  839MOL0     H15757   1.989   0.162   8.652  3.6963  0.7987 -0.8272
  839MOL0     H15758   1.988  -0.063   8.673  1.4691  1.4842  1.0687
  839MOL0     H15759   2.144  -0.043   8.592 -0.1099 -0.9282 -0.6501
  839MOL0     H15760   2.011  -0.215   8.465  0.8545 -0.4351 -2.2570
  839MOL0     H15761   2.047  -0.078   8.373  0.6581 -2.7499  0.8098
  839MOL0     H15762   2.506   0.616   8.336  1.5906  1.1960 -0.4988
  839MOL0     H15763   2.521   0.769   8.144 -2.6063  1.6598 -2.3727
  839MOL0     H15764   2.619   1.225   8.150  1.3810 -0.9123  0.3832
  839MOL0     H15765   2.770   1.373   8.047  1.2986 -0.1949  0.1726
  839MOL0     H15766   3.685   1.047   9.294  0.8932  2.1643 -1.2616
  839MOL0     H15767   3.491   0.961   9.431 -0.3404 -0.3277 -0.5765
  839MOL0     H15768   3.097   0.806   9.435 -0.7941 -2.0272  0.4167
  839MOL0     H15769   2.941   0.671   9.586  0.2212 -1.1183  1.0567
  839MOL0     H15770   3.055   0.610   9.777  1.8856  1.5658  0.6879
  839MOL0     H15771   3.027   0.612   9.958  2.8278  2.2964 -1.5759
  839MOL0     H15772   2.833   0.502   9.744 -3.3196  1.9967  1.5168
  839MOL0     H15773   2.818   0.476   9.919  0.2467 -3.1165  0.4219
  839MOL0     H15774   2.897   0.277   9.786 -0.7027 -0.1315 -1.3976
  839MOL0     H15775   3.043   0.356   9.757  4.0703 -1.8998  4.2720
  839MOL0     H15776   3.041   0.416  10.010  0.0726  1.3219 -1.7772
  839MOL0     H15777   3.102   0.259   9.950 -0.6996 -1.3036 -1.6278
  839MOL0     H15778   2.785   0.174  10.220  2.6594 -0.4861  0.1647
  839MOL0     H15779   2.948   0.969   9.891 -2.0249  3.1780 -0.3096
  839MOL0     H15780   3.029   1.174   9.866 -0.5198 -1.8606 -0.1392
  839MOL0     H15781   3.194   1.145   9.838 -1.4188  4.5147  1.9810
  839MOL0     H15782   3.094   1.242   9.724  2.9677  1.3437 -0.1403
  840MOL0     O15783   0.004   1.376   8.798  0.4587  0.2599  0.2355
  840MOL0     C15784   0.058   1.303   8.882 -0.1104 -0.4722 -0.3338
  840MOL0     O15785  -0.010   1.218   8.965  0.7775 -0.0630  0.3199
  840MOL0     C15786  -0.137   1.173   8.926  0.6524  1.1189  0.0558
  840MOL0     C15787  -0.241   1.244   8.867 -0.6038 -0.5012 -0.3576
  840MOL0     C15788  -0.368   1.172   8.830 -0.3285 -0.7278 -0.1793
  840MOL0     C15789  -0.386   1.034   8.867 -0.6512  0.0872 -0.3199
  840MOL0     O15790  -0.495   0.953   8.858  0.2011 -1.5851  0.2661
  840MOL0     C15791  -0.617   1.015   8.843  0.5969 -0.6241  0.3883
  840MOL0     C15792  -0.640   1.045   8.699 -0.5699 -0.6357  0.4502
  840MOL0     C15793  -0.641   0.930   8.602  0.1160 -0.4091 -0.2883
  840MOL0     C15794  -0.781   0.866   8.593  0.5006 -0.4231 -0.8158
  840MOL0     C15795  -0.789   0.725   8.541  0.6297 -0.1230 -0.4720
  840MOL0     C15796  -0.719   0.633   8.640  0.2497 -0.0500  0.1016
  840MOL0     C15797  -0.788   0.495   8.655 -0.1782  0.0205  0.1093
  840MOL0     C15798  -0.920   0.496   8.726 -0.8680  0.3219 -0.0216
  840MOL0     N15799  -0.942   0.355   8.774 -0.3450 -0.5985  0.2755
  840MOL0     C15800  -0.973   0.325   8.900  0.3566  0.4271 -0.0804
  840MOL0     C15801  -1.015   0.191   8.884 -0.2642 -1.0080  0.4359
  840MOL0     C15802  -1.033   0.102   9.002 -0.0003  0.0966  0.8974
  840MOL0     C15803  -0.943  -0.018   8.999  0.0356 -0.8542  0.4100
  840MOL0     C15804  -0.938  -0.102   9.118  0.0144  0.9664 -0.5445
  840MOL0     C15805  -0.896  -0.044   9.255  0.2399  0.0220  0.3110
  840MOL0     O15806  -1.010   0.018   9.315  0.4499  0.8537  0.0793
  840MOL0     C15807  -0.989   0.086   9.430 -0.1240  0.3547  0.5121
  840MOL0     C15808  -1.093   0.149   9.497  0.2211  0.6582  0.0900
  840MOL0     C15809  -1.090   0.207   9.615 -1.1494  0.0758 -0.9033
  840MOL0     C15810  -1.207   0.252   9.685  0.4007 -0.0774  0.1453
  840MOL0     C15811  -0.956   0.215   9.677 -0.1629  0.9845  0.1980
  840MOL0     C15812  -0.921   0.269   9.812  0.3598  0.1038 -0.3143
  840MOL0     O15813  -0.930   0.174   9.908 -0.4731  0.1113 -1.2781
  840MOL0     C15814  -0.836   0.202  10.005  0.0357 -0.9178  0.1270
  840MOL0     C15815  -0.743   0.105  10.014 -0.6853  0.0988 -0.1992
  840MOL0     C15816  -0.635   0.118  10.102 -0.3863  0.0519 -0.2193
  840MOL0     C15817  -0.624   0.223  10.192  0.1822  0.4129 -0.1870
  840MOL0     O15818  -0.524   0.244  10.278  0.0180  0.1025 -0.4521
  840MOL0     C15819  -0.395   0.232  10.238 -0.6777 -0.4155 -0.9284
  840MOL0     C15820  -0.319   0.169  10.354 -0.4380 -0.7678 -0.2306
  840MOL0     C15821  -0.164   0.158  10.324 -0.5173 -0.1720  0.2551
  840MOL0     C15822  -0.076   0.094  10.437 -0.5672  0.0603  0.4998
  840MOL0     C15823   0.074   0.096  10.408 -0.4473  0.7509 -0.7095
  840MOL0     C15824   0.129   0.232  10.355  0.4076 -0.2132  0.0958
  840MOL0     C15825   0.108   0.345  10.454  0.1695 -1.3190  0.5145
  840MOL0     C15826   0.149   0.341  10.598  0.1356 -0.8439 -0.8099
  840MOL0    Cl15827   0.303   0.269  10.624 -0.8026  0.3306 -0.1254
  840MOL0     C15828  -0.717   0.326  10.186  0.0262 -1.1341 -0.3007
  840MOL0     C15829  -0.828   0.316  10.097  0.7928  0.2137  0.7270
  840MOL0     O15830  -0.900   0.393   9.830  0.1706  0.1920  0.0607
  840MOL0     C15831  -0.848   0.173   9.600  0.4045 -0.8583 -1.3913
  840MOL0     C15832  -0.866   0.105   9.484  0.2566  0.6414 -0.2404
  840MOL0     N15833  -0.992   0.146   8.754 -0.0216  0.0524  0.1361
  840MOL0     N15834  -0.970   0.249   8.688  0.1335 -0.7538 -0.3161
  840MOL0     C15835  -0.275   0.972   8.928  0.6122 -1.4065 -0.9697
  840MOL0     C15836  -0.162   1.040   8.954  0.8018 -0.0211 -0.0617
  840MOL0     C15837   0.205   1.311   8.888  1.1104 -0.5837 -0.6300
  840MOL0     C15838   0.260   1.439   8.863  0.4948  0.3569 -0.1302
  840MOL0     C15839   0.393   1.470   8.857 -0.5232  0.3023 -0.6537
  840MOL0     C15840   0.491   1.375   8.887 -0.3919  0.7372 -0.1624
  840MOL0     O15841   0.628   1.400   8.883 -0.1007  0.5789  0.1312
  840MOL0     C15842   0.701   1.311   8.812 -0.0558  0.0945  0.2523
  840MOL0     C15843   0.850   1.330   8.837  0.0161 -0.2568  0.0709
  840MOL0     C15844   0.936   1.287   8.715  1.0630 -0.1883  0.1507
  840MOL0     C15845   1.086   1.320   8.723  0.1376  0.5458  0.8481
  840MOL0     C15846   1.098   1.459   8.735 -0.9066 -0.1796  0.4949
  840MOL0     C15847   1.097   1.581   8.750  0.6840 -0.1816 -0.3060
  840MOL0     C15848   0.435   1.242   8.912 -1.0835 -0.2249 -0.1581
  840MOL0     C15849   0.297   1.205   8.911 -0.3765 -0.5518 -0.0195
  840MOL0     C15850   0.256   1.071   8.931  0.1751 -0.9800 -0.9872
  840MOL0     H15851  -0.221   1.350   8.855  1.9027 -0.4502  2.7091
  840MOL0     H15852  -0.439   1.224   8.768 -0.5828 -1.0942 -0.2013
  840MOL0     H15853  -0.612   1.097   8.915  0.0565 -0.6620  0.4704
  840MOL0     H15854  -0.703   0.955   8.873 -0.5141  0.6673 -0.0786
  840MOL0     H15855  -0.736   1.097   8.691 -1.2021 -1.9479 -0.9959
  840MOL0     H15856  -0.567   1.117   8.660 -5.2396  5.6907  1.7330
  840MOL0     H15857  -0.599   0.978   8.514 -1.5076  1.3708 -0.1539
  840MOL0     H15858  -0.565   0.864   8.644 -1.3510 -0.1011  3.1618
  840MOL0     H15859  -0.825   0.869   8.693 -0.5463  1.3908 -1.2889
  840MOL0     H15860  -0.840   0.936   8.534 -0.5653 -0.9099 -0.3473
  840MOL0     H15861  -0.725   0.716   8.453  1.8266  1.6461  0.1610
  840MOL0     H15862  -0.894   0.701   8.523  0.2908  0.5527  0.5141
  840MOL0     H15863  -0.620   0.621   8.596 -0.5548  0.0090 -1.8868
  840MOL0     H15864  -0.711   0.676   8.740  0.2737 -0.7406  0.4041
  840MOL0     H15865  -0.727   0.437   8.726  0.7894  0.1392 -0.6037
  840MOL0     H15866  -0.788   0.440   8.560 -1.0456 -0.5407  0.4235
  840MOL0     H15867  -0.923   0.561   8.815  2.7186  1.0756 -0.3329
  840MOL0     H15868  -0.992   0.535   8.653  1.2205  1.8355 -1.3871
  840MOL0     H15869  -0.973   0.383   8.991 -0.6659  3.5844 -1.9569
  840MOL0     H15870  -1.129   0.050   8.999  0.1399 -0.1481  0.4680
  840MOL0     H15871  -1.025   0.165   9.091  1.0602 -0.3381  1.1314
  840MOL0     H15872  -0.956  -0.068   8.903  4.2199 -2.0590  0.2786
  840MOL0     H15873  -0.838   0.010   8.987  0.4974 -2.5946  0.1433
  840MOL0     H15874  -1.040  -0.134   9.142  1.4081 -2.5524  1.5324
  840MOL0     H15875  -0.883  -0.192   9.088 -2.9851 -1.4709  0.7309
  840MOL0     H15876  -0.837  -0.116   9.313 -0.1967 -2.1973 -1.8447
  840MOL0     H15877  -0.824   0.034   9.229  0.1915  0.8798  2.5053
  840MOL0     H15878  -1.186   0.155   9.441 -0.2513  1.4453  0.9339
  840MOL0     H15879  -1.291   0.189   9.657  0.2834  0.2800 -0.3187
  840MOL0     H15880  -1.236   0.358   9.678  0.2572  0.0893  2.4010
  840MOL0     H15881  -1.184   0.246   9.792  1.4655  1.4583  0.0438
  840MOL0     H15882  -0.745   0.004   9.973 -1.1748 -1.1252  2.6178
  840MOL0     H15883  -0.575   0.027  10.103 -1.2853 -0.5658 -0.9376
  840MOL0     H15884  -0.399   0.166  10.152  2.2590 -2.7837  0.5712
  840MOL0     H15885  -0.353   0.331  10.215  0.1217 -0.8386 -1.3308
  840MOL0     H15886  -0.325   0.241  10.437 -1.5352 -1.4036  0.2626
  840MOL0     H15887  -0.364   0.072  10.378  1.2817 -1.6747 -0.5217
  840MOL0     H15888  -0.130   0.259  10.304  0.3703  0.1419  2.9068
  840MOL0     H15889  -0.138   0.106  10.231 -1.1455  1.3888 -0.8227
  840MOL0     H15890  -0.104  -0.011  10.453 -0.7769  0.1449  0.6979
  840MOL0     H15891  -0.088   0.155  10.527 -0.7304  2.5137 -1.0924
  840MOL0     H15892   0.134   0.067  10.495  1.1552 -1.8752 -2.5712
  840MOL0     H15893   0.093   0.027  10.326 -0.6544 -1.3740  0.9486
  840MOL0     H15894   0.074   0.257  10.264 -0.3219 -1.1928  0.2496
  840MOL0     H15895   0.237   0.223  10.338  0.2039 -1.4767 -0.7009
  840MOL0     H15896   0.003   0.375  10.454  1.1240  2.5671  0.2041
  840MOL0     H15897   0.157   0.434  10.414  1.2239 -1.6456  1.0328
  840MOL0     H15898   0.067   0.301  10.659 -0.6855 -0.3941 -1.5873
  840MOL0     H15899   0.146   0.444  10.636 -1.9143  0.0560 -3.1149
  840MOL0     H15900  -0.700   0.405  10.258  0.4592 -0.0874 -1.5106
  840MOL0     H15901  -0.903   0.391  10.073  1.2724 -0.0182 -1.7561
  840MOL0     H15902  -0.743   0.185   9.625  0.3340 -0.5380 -1.2507
  840MOL0     H15903  -0.782   0.060   9.432 -2.9144 -2.9284 -2.8268
  840MOL0     H15904  -0.284   0.869   8.961  0.6672 -1.9498 -2.5670
  840MOL0     H15905  -0.093   0.977   9.010  2.1598  2.3279  1.0841
  840MOL0     H15906   0.200   1.518   8.817  2.5306  2.7496  1.0549
  840MOL0     H15907   0.432   1.566   8.824  1.7021  0.1988  1.3743
  840MOL0     H15908   0.664   1.208   8.817 -1.1141  0.4776  0.5456
  840MOL0     H15909   0.687   1.334   8.706 -0.1314  1.2718  0.5001
  840MOL0     H15910   0.874   1.269   8.925  0.4517  0.2313  0.2928
  840MOL0     H15911   0.879   1.432   8.864  2.6228 -1.2436  1.4101
  840MOL0     H15912   0.925   1.180   8.696  3.1311 -0.0535 -2.3516
  840MOL0     H15913   0.888   1.329   8.627 -0.1482 -0.4429  0.6771
  840MOL0     H15914   1.134   1.292   8.629  0.3771  2.6256  0.2825
  840MOL0     H15915   1.146   1.272   8.801  0.6721  0.7390  0.5561
  840MOL0     H15916   1.093   1.684   8.780 -4.0131 -0.0785 -0.6362
  840MOL0     H15917   0.501   1.161   8.942 -1.7371 -0.1618  1.5481
  840MOL0     H15918   0.314   1.004   8.867  0.1422 -0.4647 -1.5738
  840MOL0     H15919   0.279   1.034   9.031  0.8490 -2.3585 -1.6209
  840MOL0     H15920   0.152   1.060   8.898  0.0153 -3.9242  0.2486
  841MOL0     O15921  11.517   9.293   1.384 -0.4155 -0.0970 -0.2693
  841MOL0     C15922  11.576   9.200   1.445 -0.2225  0.4207 -0.7615
  841MOL0     O15923  11.620   9.206   1.575  0.2558 -0.2712  0.4757
  841MOL0     C15924  11.563   9.308   1.651  0.2190 -1.0624  0.4614
  841MOL0     C15925  11.468   9.276   1.749 -0.7191  0.6153  0.3386
  841MOL0     C15926  11.413   9.369   1.841 -0.2185 -0.8943 -0.3372
  841MOL0     C15927  11.459   9.506   1.832  0.6601 -0.6226 -0.6775
  841MOL0     O15928  11.392   9.598   1.909 -0.4722 -0.2932  1.0238
  841MOL0     C15929  11.360   9.720   1.853  0.6416 -0.5756 -0.2383
  841MOL0     C15930  11.278   9.796   1.957  0.3573 -0.4238  0.5112
  841MOL0     C15931  11.357   9.857   2.067  0.1796 -0.1987 -0.0786
  841MOL0     C15932  11.261   9.927   2.159  0.1006 -0.8565  0.3060
  841MOL0     C15933  11.178  10.050   2.110  0.7348 -0.5361 -0.2305
  841MOL0     C15934  11.119  10.121   2.234 -0.1119  0.0646  0.3692
  841MOL0     C15935  11.224  10.200   2.306  0.0870 -0.1011 -0.0273
  841MOL0     C15936  11.174  10.278   2.429 -0.4085 -0.1862 -0.2194
  841MOL0     N15937  11.301  10.319   2.502 -0.4167  0.1253  0.3324
  841MOL0     C15938  11.347  10.266   2.608 -0.9020  0.5447  0.7236
  841MOL0     C15939  11.472  10.311   2.629  1.1519 -0.3671  0.0066
  841MOL0     C15940  11.552  10.291   2.762 -0.5673  0.0794 -0.0329
  841MOL0     C15941  11.605  10.420   2.825 -0.3070 -0.5131  0.5276
  841MOL0     C15942  11.507  10.480   2.934 -1.2310  0.0234 -0.0871
  841MOL0     C15943  11.365  10.514   2.870 -0.8544  0.1718 -0.2094
  841MOL0     O15944  11.285  10.402   2.886 -0.6656 -0.0893  0.0780
  841MOL0     C15945  11.165  10.395   2.821 -0.7284  0.7266  0.0421
  841MOL0     C15946  11.089  10.280   2.853 -0.0058  0.4853 -0.0736
  841MOL0     C15947  10.967  10.256   2.797  0.3515 -0.0916  0.4950
  841MOL0     C15948  10.879  10.143   2.851  0.4258 -0.2130 -0.4575
  841MOL0     C15949  10.911  10.347   2.706  0.1691 -0.3237  0.9645
  841MOL0     C15950  10.773  10.325   2.646 -0.9952  0.5026  0.2605
  841MOL0     O15951  10.701  10.433   2.619  0.7702  0.0805  0.0438
  841MOL0     C15952  10.565  10.408   2.581 -0.9975 -0.6950  0.8350
  841MOL0     C15953  10.529  10.435   2.442 -0.4158 -0.8253 -0.0772
  841MOL0     C15954  10.402  10.399   2.387 -0.1181 -0.6919 -0.3287
  841MOL0     C15955  10.312  10.333   2.456 -0.9041  0.6846 -0.4525
  841MOL0     O15956  10.193  10.297   2.393  0.1770 -0.0969 -0.1647
  841MOL0     C15957  10.140  10.165   2.427  0.5633  1.0941 -0.7157
  841MOL0     C15958  10.008  10.154   2.344 -1.6660 -0.2578  0.0386
  841MOL0     C15959   9.948  10.020   2.344 -0.2533  0.3581  0.0216
  841MOL0     C15960   9.863   9.983   2.463  0.8840  0.2838 -0.9687
  841MOL0     C15961   9.795   9.857   2.432 -0.2302  1.1979 -0.7213
  841MOL0     C15962   9.702   9.823   2.562  0.7044  0.9166  0.0118
  841MOL0     C15963   9.599   9.715   2.534 -0.1339  0.1024 -0.5906
  841MOL0     C15964   9.642   9.582   2.465 -0.7097  0.2270  0.7411
  841MOL0    Cl15965   9.479   9.506   2.423 -0.2567 -0.0654 -0.1123
  841MOL0     C15966  10.335  10.315   2.598 -0.4712  0.5382  0.3307
  841MOL0     C15967  10.464  10.349   2.653  0.1125 -0.4388 -0.0796
  841MOL0     O15968  10.745  10.212   2.605  0.2036  0.4230  0.6136
  841MOL0     C15969  10.979  10.468   2.674  0.6295  1.4184  0.1270
  841MOL0     C15970  11.107  10.488   2.732 -0.1721  0.2372  0.7578
  841MOL0     N15971  11.500  10.404   2.528  0.1880 -0.1648  0.0868
  841MOL0     N15972  11.391  10.412   2.453 -0.8526 -0.6588 -0.6416
  841MOL0     C15973  11.556   9.540   1.729 -0.6176 -0.5594 -0.3728
  841MOL0     C15974  11.607   9.446   1.643  0.2732  0.2500 -1.1102
  841MOL0     C15975  11.595   9.058   1.390  0.1569 -0.9040 -0.9561
  841MOL0     C15976  11.620   8.958   1.481 -0.4580  0.8143 -1.1299
  841MOL0     C15977  11.677   8.838   1.437  0.2034 -0.1370 -0.9230
  841MOL0     C15978  11.684   8.803   1.297 -0.8596 -0.1877 -0.4669
  841MOL0     O15979  11.718   8.686   1.246  0.0416  0.1134  0.3511
  841MOL0     C15980  11.825   8.627   1.298 -1.5479 -0.7544 -0.6213
  841MOL0     C15981  11.811   8.474   1.290 -0.1853  0.3743  0.0668
  841MOL0     C15982  11.803   8.429   1.150 -0.0219  0.0007  0.7917
  841MOL0     C15983  11.773   8.274   1.139 -0.1837  0.2333 -0.0712
  841MOL0     C15984  11.878   8.185   1.200 -0.8141 -0.2426 -0.3997
  841MOL0     C15985  11.966   8.115   1.240  0.9896  0.0267  0.2857
  841MOL0     C15986  11.636   8.902   1.211  0.1415  0.1379  0.0605
  841MOL0     C15987  11.591   9.031   1.252  0.0276 -0.4885  0.6871
  841MOL0     C15988  11.561   9.130   1.139 -0.5865 -0.1397 -0.0771
  841MOL0     H15989  11.423   9.179   1.763  0.2085  0.2833  1.1360
  841MOL0     H15990  11.329   9.338   1.902 -1.0540 -3.1618 -2.5023
  841MOL0     H15991  11.311   9.708   1.756 -0.2635 -0.1306  0.1539
  841MOL0     H15992  11.453   9.778   1.846  1.2474 -1.3450  1.1321
  841MOL0     H15993  11.241   9.875   1.890  2.8466  2.1747  1.9796
  841MOL0     H15994  11.195   9.741   2.004  0.9785 -0.4638  1.5873
  841MOL0     H15995  11.413   9.780   2.120 -1.9502  0.0386  2.7358
  841MOL0     H15996  11.418   9.935   2.020 -0.6008  0.6877  0.3286
  841MOL0     H15997  11.184   9.862   2.202 -0.5074 -0.1357  0.3355
  841MOL0     H15998  11.319   9.964   2.245 -1.9072  1.9562  0.5904
  841MOL0     H15999  11.108  10.006   2.039  0.6274 -1.4321  0.4170
  841MOL0     H16000  11.247  10.117   2.057 -0.5136 -0.2525 -1.5617
  841MOL0     H16001  11.043  10.193   2.204  2.4011  2.6918 -0.2252
  841MOL0     H16002  11.084  10.045   2.304  2.3350 -2.3075 -0.7925
  841MOL0     H16003  11.271  10.259   2.227 -1.1353  2.8824  1.3007
  841MOL0     H16004  11.292  10.132   2.358 -0.3332  0.6948  1.6733
  841MOL0     H16005  11.102  10.358   2.411 -0.3873  0.5122  2.3760
  841MOL0     H16006  11.124  10.213   2.502  1.8644 -0.1216  1.5118
  841MOL0     H16007  11.298  10.188   2.666  0.7557  0.5025  2.1278
  841MOL0     H16008  11.644  10.241   2.730  0.2032  1.5364 -0.1487
  841MOL0     H16009  11.512  10.227   2.841  1.4422  0.7708  1.6272
  841MOL0     H16010  11.708  10.405   2.859  1.3673 -0.1533 -3.7358
  841MOL0     H16011  11.620  10.502   2.754  0.6304 -0.6263  0.5814
  841MOL0     H16012  11.492  10.416   3.021 -1.8504  0.2064 -0.0568
  841MOL0     H16013  11.552  10.571   2.975 -2.2767  1.1312 -1.3322
  841MOL0     H16014  11.336  10.608   2.917  1.4154  1.9063 -2.0040
  841MOL0     H16015  11.383  10.533   2.763 -2.4476  0.6011 -0.4145
  841MOL0     H16016  11.121  10.213   2.933 -0.8380 -0.6368 -0.6487
  841MOL0     H16017  10.931  10.090   2.932 -0.4954 -0.9093 -0.3062
  841MOL0     H16018  10.876  10.058   2.783  2.3600 -1.0982  0.4689
  841MOL0     H16019  10.783  10.168   2.896 -0.5570 -4.1229 -0.0102
  841MOL0     H16020  10.607  10.476   2.379 -1.5256  2.2656  0.3650
  841MOL0     H16021  10.397  10.427   2.282  0.1854  1.9741  0.2863
  841MOL0     H16022  10.210  10.094   2.383  1.1315  1.0560  0.2239
  841MOL0     H16023  10.129  10.145   2.534 -2.7513 -1.2441 -1.3362
  841MOL0     H16024   9.936  10.230   2.375 -0.3916  0.0984  2.3916
  841MOL0     H16025  10.033  10.175   2.239 -0.1244 -0.9674  0.2328
  841MOL0     H16026  10.026   9.946   2.324 -1.4405 -0.7450 -0.7108
  841MOL0     H16027   9.878  10.018   2.259 -1.3351 -1.1159  0.8893
  841MOL0     H16028   9.797  10.068   2.475  2.8831  1.9850 -1.4151
  841MOL0     H16029   9.913   9.978   2.561 -2.7145 -0.2984  0.9960
  841MOL0     H16030   9.738   9.878   2.341  0.6767 -3.4705 -2.6269
  841MOL0     H16031   9.864   9.772   2.427  0.9401  1.8706  2.1208
  841MOL0     H16032   9.649   9.912   2.596 -2.1698 -1.1853  1.4881
  841MOL0     H16033   9.762   9.800   2.650 -1.7605  0.0003  1.5314
  841MOL0     H16034   9.529   9.766   2.467 -2.9171 -0.5570  1.6301
  841MOL0     H16035   9.536   9.698   2.621 -0.2625  3.2742  0.0677
  841MOL0     H16036   9.699   9.515   2.531 -1.7256 -1.6786 -0.2771
  841MOL0     H16037   9.701   9.604   2.375 -0.2592 -1.2929  0.6359
  841MOL0     H16038  10.265  10.259   2.659 -0.3290 -0.5788 -0.4988
  841MOL0     H16039  10.474  10.326   2.759 -2.3163 -0.7679  0.1502
  841MOL0     H16040  10.937  10.536   2.601 -3.8568 -0.4043  0.6623
  841MOL0     H16041  11.160  10.578   2.703  0.3786 -1.0477 -2.7996
  841MOL0     H16042  11.594   9.640   1.707  0.2950 -1.8017 -5.8301
  841MOL0     H16043  11.667   9.482   1.560 -0.2747  1.3769 -1.0361
  841MOL0     H16044  11.619   8.969   1.589  2.0194  2.2755 -1.1877
  841MOL0     H16045  11.708   8.771   1.516  0.0773  3.7473  2.8258
  841MOL0     H16046  11.908   8.665   1.238  0.1010  0.8661  2.4196
  841MOL0     H16047  11.842   8.654   1.403 -0.1456 -3.6088  0.0005
  841MOL0     H16048  11.717   8.444   1.335 -0.4812  1.8310  0.4796
  841MOL0     H16049  11.893   8.425   1.343 -2.6099 -1.7491  2.1239
  841MOL0     H16050  11.723   8.476   1.092  2.1154  1.2574 -1.3059
  841MOL0     H16051  11.896   8.447   1.096 -0.5161  1.8281  0.4756
  841MOL0     H16052  11.762   8.241   1.036 -0.2421  0.6607 -0.2039
  841MOL0     H16053  11.676   8.254   1.186 -1.1494 -0.8046 -2.3779
  841MOL0     H16054  12.053   8.058   1.269  0.2351 -0.2293  2.1487
  841MOL0     H16055  11.635   8.864   1.109  3.4387 -0.6407  0.2083
  841MOL0     H16056  11.576   9.074   1.047 -1.1446 -1.2076  0.4631
  841MOL0     H16057  11.455   9.155   1.141 -1.4792 -3.4853  0.3427
  841MOL0     H16058  11.595   9.234   1.134 -5.7376  1.8107 -2.0190
  842MOL0     O16059   7.586   2.502   9.787  0.7418  0.5713 -0.0594
  842MOL0     C16060   7.651   2.396   9.775  0.4275  0.5968  0.4067
  842MOL0     O16061   7.723   2.337   9.872  0.0329  0.1545 -0.2624
  842MOL0     C16062   7.757   2.432   9.974 -0.1039  0.7660  0.9380
  842MOL0     C16063   7.861   2.521   9.955 -0.4987  0.8020  0.3565
  842MOL0     C16064   7.890   2.632  10.029 -0.0720  0.4213  0.0108
  842MOL0     C16065   7.810   2.652  10.141 -0.0109  0.7937  1.3525
  842MOL0     O16066   7.828   2.746  10.238 -0.5301  0.4583  0.2124
  842MOL0     C16067   7.825   2.886  10.215  0.1487 -0.7164 -0.1823
  842MOL0     C16068   7.721   2.949  10.299  1.2744 -0.5304 -0.2481
  842MOL0     C16069   7.681   3.093  10.253 -0.0176 -0.6256  0.4188
  842MOL0     C16070   7.581   3.085  10.128 -0.2434 -0.2606  0.9380
  842MOL0     C16071   7.449   3.019  10.167 -0.5539 -0.8631  0.8282
  842MOL0     C16072   7.368   3.073  10.292 -0.3932 -0.7609 -0.4541
  842MOL0     C16073   7.228   3.022  10.285  0.7499  0.4149 -0.2695
  842MOL0     C16074   7.209   2.866  10.312  0.6212  0.9111 -1.6438
  842MOL0     N16075   7.233   2.840  10.461 -0.2070 -0.6139 -0.4683
  842MOL0     C16076   7.131   2.792  10.534 -0.4172  0.4150 -0.6894
  842MOL0     C16077   7.195   2.776  10.653 -0.2416 -0.0533 -0.8197
  842MOL0     C16078   7.133   2.743  10.788 -0.1757  1.2815  0.3404
  842MOL0     C16079   7.164   2.602  10.827 -0.3618  0.1662  0.4151
  842MOL0     C16080   7.109   2.578  10.969 -0.0560  0.6258 -0.0677
  842MOL0     C16081   7.102   2.425  10.992 -0.0899  1.2701  0.5885
  842MOL0     O16082   7.033   2.345  10.899 -0.0661  0.0303 -0.4253
  842MOL0     C16083   6.903   2.377  10.899 -0.0243  0.2112  0.1426
  842MOL0     C16084   6.852   2.424  10.777  0.0147 -0.0481  0.6853
  842MOL0     C16085   6.725   2.472  10.762  0.5230  1.0701 -0.3109
  842MOL0     C16086   6.675   2.493  10.622 -0.2188 -0.4778  0.2046
  842MOL0     C16087   6.635   2.466  10.872 -0.2377 -0.4299  0.5450
  842MOL0     C16088   6.492   2.521  10.874  0.3087  0.4120 -0.0995
  842MOL0     O16089   6.414   2.472  10.984  0.0427  0.0278  0.5919
  842MOL0     C16090   6.278   2.481  10.980  0.2368 -0.6264  0.0211
  842MOL0     C16091   6.201   2.448  10.864  0.5062 -0.1195  0.5676
  842MOL0     C16092   6.064   2.433  10.873  0.4677 -0.0802 -0.1246
  842MOL0     C16093   6.000   2.460  11.000 -0.1561 -0.0388  0.1071
  842MOL0     O16094   5.854   2.450  11.003  0.1028 -0.0310  0.2596
  842MOL0     C16095   5.787   2.411  11.124 -0.4179  0.6190  0.1038
  842MOL0     C16096   5.636   2.404  11.110 -0.5976  0.5502  0.4177
  842MOL0     C16097   5.606   2.327  10.980  0.2797  0.4063 -1.2697
  842MOL0     C16098   5.643   2.184  10.996  0.4857 -0.0508 -1.2272
  842MOL0     C16099   5.651   2.111  10.866  0.3376  0.2182  0.5827
  842MOL0     C16100   5.546   2.135  10.758 -0.1761 -0.5845 -0.5210
  842MOL0     C16101   5.559   2.038  10.641  0.2433  0.3888  0.0586
  842MOL0     C16102   5.426   2.022  10.573  0.8369 -0.3912 -0.7534
  842MOL0    Cl16103   5.342   2.175  10.558 -0.4481  0.1802 -0.1887
  842MOL0     C16104   6.074   2.502  11.113 -0.7571 -0.5846 -0.7033
  842MOL0     C16105   6.215   2.516  11.099  0.2235  0.3810 -0.6256
  842MOL0     O16106   6.438   2.577  10.778  0.4600 -0.8462  0.6512
  842MOL0     C16107   6.683   2.415  10.993 -1.3944 -0.0923  0.2096
  842MOL0     C16108   6.815   2.370  11.004 -0.6176 -0.2821 -1.0474
  842MOL0     N16109   7.330   2.805  10.649 -0.1722 -0.0062 -0.2021
  842MOL0     N16110   7.348   2.843  10.530  0.1019 -0.9625 -0.0922
  842MOL0     C16111   7.713   2.558  10.174 -0.5181 -1.2663  0.4052
  842MOL0     C16112   7.690   2.450  10.093  0.6737  1.0275 -0.5363
  842MOL0     C16113   7.617   2.319   9.662  0.6560 -0.0372 -0.8600
  842MOL0     C16114   7.484   2.277   9.653 -0.6003 -0.3208 -0.5576
  842MOL0     C16115   7.439   2.183   9.555 -0.1026 -0.8668 -0.2247
  842MOL0     C16116   7.530   2.127   9.470  0.2579 -0.3011 -0.0344
  842MOL0     O16117   7.497   2.039   9.375  0.1866  0.1784  0.4111
  842MOL0     C16118   7.366   1.982   9.362 -0.3707  0.9383  0.1037
  842MOL0     C16119   7.373   1.857   9.268 -0.5868 -0.4610  0.6158
  842MOL0     C16120   7.436   1.745   9.346  0.3984 -0.1838  0.3477
  842MOL0     C16121   7.346   1.692   9.458  0.1351  0.1379  0.2291
  842MOL0     C16122   7.435   1.593   9.535  0.0128 -0.6225  0.8419
  842MOL0     C16123   7.508   1.518   9.597  0.3135 -0.7880 -0.1108
  842MOL0     C16124   7.663   2.174   9.475  0.0777  0.1137  0.0002
  842MOL0     C16125   7.709   2.270   9.573 -0.1212 -0.3537  0.0165
  842MOL0     C16126   7.856   2.299   9.567 -0.2740  0.2690 -0.3684
  842MOL0     H16127   7.917   2.508   9.862 -3.8951  2.1109 -2.0751
  842MOL0     H16128   7.979   2.687  10.001 -1.0240  2.5309  0.9173
  842MOL0     H16129   7.810   2.904  10.108  1.5876  0.4597 -0.2231
  842MOL0     H16130   7.926   2.926  10.227 -0.4653  0.8201  0.0154
  842MOL0     H16131   7.637   2.880  10.292 -0.1921  1.3343 -2.4325
  842MOL0     H16132   7.766   2.949  10.399  0.5543  1.9135  0.1432
  842MOL0     H16133   7.629   3.148  10.332 -0.2369 -1.9843  1.2541
  842MOL0     H16134   7.777   3.138  10.229 -0.6009  0.8399  0.7329
  842MOL0     H16135   7.568   3.184  10.084  0.1519 -0.7974 -0.4556
  842MOL0     H16136   7.617   3.017  10.050 -0.8866  0.9777 -0.4936
  842MOL0     H16137   7.450   2.909  10.171 -0.4230 -0.8968  0.1051
  842MOL0     H16138   7.384   3.033  10.080  1.1099 -1.1148 -0.5124
  842MOL0     H16139   7.419   3.041  10.384 -2.3543 -0.5187  0.7929
  842MOL0     H16140   7.366   3.182  10.303  1.9469 -0.6836 -0.2152
  842MOL0     H16141   7.183   3.059  10.192 -2.5643  1.4837  1.5888
  842MOL0     H16142   7.168   3.080  10.355  1.9250 -0.3608  1.4354
  842MOL0     H16143   7.104   2.837  10.307  0.3209  1.1529  1.4519
  842MOL0     H16144   7.278   2.797  10.263  1.7454 -1.2379  2.5135
  842MOL0     H16145   7.032   2.766  10.498 -0.1833 -3.8998  1.1737
  842MOL0     H16146   7.025   2.759  10.780 -0.5310 -0.7047  0.6066
  842MOL0     H16147   7.173   2.801  10.872  0.5065 -0.0691  0.9812
  842MOL0     H16148   7.120   2.529  10.760  0.3102  0.0497  0.0902
  842MOL0     H16149   7.272   2.581  10.825  0.2162  2.9117 -1.1565
  842MOL0     H16150   7.163   2.637  11.044  1.4936  2.7000 -2.6383
  842MOL0     H16151   7.004   2.605  10.978  0.1883  1.4299  0.4569
  842MOL0     H16152   7.205   2.392  11.006 -1.4714 -3.1216  1.8704
  842MOL0     H16153   7.064   2.405  11.093  1.9583 -0.8039  1.0114
  842MOL0     H16154   6.920   2.406  10.694  0.7467 -0.6846  1.3944
  842MOL0     H16155   6.746   2.447  10.553  0.5014  2.8335 -1.4476
  842MOL0     H16156   6.667   2.597  10.590  1.7829  0.0033  1.1169
  842MOL0     H16157   6.575   2.448  10.615 -0.9191  0.2706  3.6024
  842MOL0     H16158   6.236   2.435  10.762  0.4706  0.6611  0.4502
  842MOL0     H16159   6.009   2.392  10.789 -1.4015  3.3565 -0.7548
  842MOL0     H16160   5.818   2.312  11.158 -0.7428  0.6532  0.4958
  842MOL0     H16161   5.815   2.485  11.200 -1.6460  0.7738  0.4289
  842MOL0     H16162   5.605   2.352  11.201  1.5901  0.9413  1.4625
  842MOL0     H16163   5.596   2.506  11.112 -0.9672  0.4886 -1.5571
  842MOL0     H16164   5.658   2.372  10.895  2.8066 -1.0837 -0.6189
  842MOL0     H16165   5.498   2.335  10.964  0.2631  2.1281 -0.5673
  842MOL0     H16166   5.569   2.133  11.060  2.1948 -1.0241  0.0534
  842MOL0     H16167   5.740   2.175  11.045 -0.1312  0.1733  0.0671
  842MOL0     H16168   5.746   2.139  10.821  1.8494  2.8070  4.8598
  842MOL0     H16169   5.659   2.010  10.907 -0.0572 -0.7402 -1.5474
  842MOL0     H16170   5.553   2.236  10.719  1.4394 -0.5099 -0.0999
  842MOL0     H16171   5.451   2.119  10.811  0.9668 -2.8493  1.0264
  842MOL0     H16172   5.589   1.939  10.679 -0.3622  0.4541  0.7267
  842MOL0     H16173   5.629   2.071  10.564 -0.6470 -1.9448 -1.8759
  842MOL0     H16174   5.360   1.948  10.618  1.2885 -1.4693 -1.8073
  842MOL0     H16175   5.439   1.988  10.470 -4.4253  1.1949 -2.2680
  842MOL0     H16176   6.036   2.512  11.214 -0.3375 -2.7747 -0.2689
  842MOL0     H16177   6.272   2.525  11.190  0.6529 -2.0533 -0.6022
  842MOL0     H16178   6.619   2.403  11.079 -0.4797 -2.4267  0.6397
  842MOL0     H16179   6.846   2.326  11.098  0.3183  2.9848  0.3124
  842MOL0     H16180   7.656   2.576  10.265 -0.6916  2.5231 -0.2810
  842MOL0     H16181   7.615   2.376  10.120 -0.3375  1.1155 -2.9082
  842MOL0     H16182   7.403   2.307   9.719 -0.0566 -2.2605  1.1331
  842MOL0     H16183   7.334   2.155   9.552 -0.5348  0.3434  1.6111
  842MOL0     H16184   7.325   1.958   9.460  0.4493 -4.1666 -0.5539
  842MOL0     H16185   7.308   2.053   9.303 -0.0421  0.3924 -0.8938
  842MOL0     H16186   7.441   1.890   9.189 -2.3972  0.6058 -0.5704
  842MOL0     H16187   7.276   1.821   9.234 -0.8324  1.7773 -1.3068
  842MOL0     H16188   7.457   1.661   9.280 -1.0743  1.1000 -1.9069
  842MOL0     H16189   7.524   1.786   9.396  0.4215  0.3369 -0.1065
  842MOL0     H16190   7.251   1.644   9.432 -0.7673  0.7867  2.0974
  842MOL0     H16191   7.321   1.766   9.535 -0.9234 -1.5511  1.5695
  842MOL0     H16192   7.578   1.455   9.648  1.3020  1.9326  2.2300
  842MOL0     H16193   7.726   2.129   9.399  0.2623 -0.0289  0.2374
  842MOL0     H16194   7.883   2.337   9.468 -0.5497  1.5729  0.0297
  842MOL0     H16195   7.887   2.377   9.637  0.0492 -0.0443 -0.1562
  842MOL0     H16196   7.909   2.207   9.594 -1.8285 -0.3876  0.5975
  843MOL0     O16197   4.260  10.605  11.028  0.6656  0.2397 -0.5455
  843MOL0     C16198   4.143  10.614  11.068 -1.1741 -0.2042  0.5938
  843MOL0     O16199   4.053  10.698  11.003 -0.1121 -0.5494 -0.9576
  843MOL0     C16200   4.097  10.773  10.889  0.1730 -0.3486  0.6949
  843MOL0     C16201   4.101  10.908  10.900  0.3409 -0.7063  1.3952
  843MOL0     C16202   4.119  10.991  10.788  0.1644 -0.1578  0.6887
  843MOL0     C16203   4.142  10.933  10.662 -0.1877  0.7855 -0.3257
  843MOL0     O16204   4.146  11.006  10.553 -0.1012 -0.0924 -0.3152
  843MOL0     C16205   4.185  11.144  10.560  0.7294  0.2722  0.5773
  843MOL0     C16206   4.252  11.188  10.431  0.8195  0.2223 -0.8441
  843MOL0     C16207   4.379  11.109  10.394 -0.2531  0.1879 -0.0809
  843MOL0     C16208   4.436  11.150  10.259  0.8060 -0.1021  0.7657
  843MOL0     C16209   4.376  11.064  10.142  0.2428  0.0677 -0.6163
  843MOL0     C16210   4.458  11.102  10.016  0.5655 -0.0094  0.3894
  843MOL0     C16211   4.432  11.011   9.893 -0.1294 -0.0384 -0.0224
  843MOL0     C16212   4.295  11.033   9.837  0.2568 -0.6814 -0.1096
  843MOL0     N16213   4.275  11.157   9.755  0.3072  1.2830 -0.9954
  843MOL0     C16214   4.243  11.280   9.809 -0.6109  1.1341  0.7967
  843MOL0     C16215   4.219  11.354   9.697  0.3303  0.0876 -0.5968
  843MOL0     C16216   4.151  11.498   9.695 -0.2993  0.4544 -0.2810
  843MOL0     C16217   3.997  11.470   9.680  0.1021 -0.1051 -0.5410
  843MOL0     C16218   3.939  11.395   9.808 -1.0469 -1.1008 -0.3375
  843MOL0     C16219   3.788  11.396   9.803 -0.0597  0.8425 -0.6341
  843MOL0     O16220   3.734  11.331   9.920  0.2075  0.0309  0.0246
  843MOL0     C16221   3.610  11.280   9.942  0.5069 -0.4079 -0.5797
  843MOL0     C16222   3.590  11.230  10.074  0.5018  0.6293  0.4217
  843MOL0     C16223   3.463  11.179  10.111 -1.3812  0.2828 -0.1075
  843MOL0     C16224   3.453  11.127  10.245  0.6419  0.6394  0.0970
  843MOL0     C16225   3.353  11.188  10.018 -0.3165  0.0007 -0.6628
  843MOL0     C16226   3.212  11.127  10.037 -0.1674  1.0451 -0.1611
  843MOL0     O16227   3.126  11.127   9.926 -0.2323 -1.0020 -0.2457
  843MOL0     C16228   2.993  11.169   9.941 -0.2720  0.5068 -0.0355
  843MOL0     C16229   2.911  11.152   9.818  0.4166 -0.5940 -0.2113
  843MOL0     C16230   2.785  11.213   9.809  0.3256 -0.1395 -0.5506
  843MOL0     C16231   2.724  11.285   9.924  0.6240  0.6665  0.4515
  843MOL0     O16232   2.629  11.369   9.883  0.3613  0.5106  0.0704
  843MOL0     C16233   2.660  11.508   9.919  0.4437 -0.4997 -0.6813
  843MOL0     C16234   2.536  11.591   9.887 -0.2380  1.0397  0.4137
  843MOL0     C16235   2.541  11.741   9.936 -0.5125  1.1286 -0.1483
  843MOL0     C16236   2.523  11.846   9.822  0.1415 -0.2841 -0.4554
  843MOL0     C16237   2.518  11.980   9.887  1.0479 -0.1909 -0.0763
  843MOL0     C16238   2.474  12.086   9.783  0.2194  0.3656 -0.1956
  843MOL0     C16239   2.516  12.230   9.830  0.0897 -0.1853 -0.5234
  843MOL0     C16240   2.411  12.296   9.924  0.7335  0.4259  0.4302
  843MOL0    Cl16241   2.479  12.380  10.061  0.0055 -0.1616  0.1704
  843MOL0     C16242   2.803  11.298  10.037  0.3530  0.8928 -0.2518
  843MOL0     C16243   2.933  11.233  10.054  1.3989 -0.6648  0.1005
  843MOL0     O16244   3.179  11.084  10.146 -0.6445 -0.5480 -0.0441
  843MOL0     C16245   3.379  11.247   9.893  0.0998 -0.6474  0.2645
  843MOL0     C16246   3.507  11.301   9.853  0.4882  0.0845  0.1412
  843MOL0     N16247   4.256  11.285   9.592 -0.4335  0.8289  0.1543
  843MOL0     N16248   4.297  11.166   9.628  0.6330  0.0808 -0.0642
  843MOL0     C16249   4.154  10.793  10.654  0.1281 -0.3148  0.3516
  843MOL0     C16250   4.130  10.715  10.767 -0.4825 -0.6855 -0.4491
  843MOL0     C16251   4.098  10.528  11.182  0.3518 -0.0305  0.1046
  843MOL0     C16252   3.962  10.480  11.184 -0.9682 -0.2986  0.4624
  843MOL0     C16253   3.907  10.416  11.299 -0.0722  0.1884 -0.0284
  843MOL0     C16254   3.988  10.388  11.409 -0.0301  0.8020 -0.5322
  843MOL0     O16255   3.941  10.340  11.531  0.1100  0.0666 -0.1231
  843MOL0     C16256   3.930  10.437  11.634 -0.2570 -0.3772  0.5126
  843MOL0     C16257   3.780  10.466  11.651  0.3068 -0.3609  0.1405
  843MOL0     C16258   3.708  10.332  11.678 -0.0710  1.2130 -0.8457
  843MOL0     C16259   3.555  10.354  11.678  0.3844  0.4359 -0.2516
  843MOL0     C16260   3.506  10.419  11.799  0.7174 -0.6046 -0.6901
  843MOL0     C16261   3.462  10.465  11.904 -0.8326  0.2369  0.0991
  843MOL0     C16262   4.130  10.421  11.396 -1.0536 -0.3613 -0.4706
  843MOL0     C16263   4.186  10.496  11.290  0.0133 -1.1316 -0.6811
  843MOL0     C16264   4.326  10.532  11.291 -0.1518 -0.2046  0.6729
  843MOL0     H16265   4.086  10.966  10.990  2.6152  0.1403  1.2732
  843MOL0     H16266   4.096  11.096  10.801  0.1291 -0.0578 -0.1051
  843MOL0     H16267   4.256  11.183  10.634  0.9766  1.1449 -0.1032
  843MOL0     H16268   4.097  11.208  10.572  1.6757  1.3393  2.2017
  843MOL0     H16269   4.173  11.180  10.356 -0.3682  1.0449  0.2738
  843MOL0     H16270   4.276  11.295  10.442  3.1423 -0.2585 -0.7720
  843MOL0     H16271   4.458  11.117  10.469 -1.7768  1.7846  1.4438
  843MOL0     H16272   4.356  11.002  10.394 -5.2278  1.0001  0.9080
  843MOL0     H16273   4.409  11.255  10.240 -0.5540 -0.9778 -2.9080
  843MOL0     H16274   4.543  11.131  10.261  0.6798 -0.8809  0.4132
  843MOL0     H16275   4.271  11.093  10.126 -0.1042 -0.4988  0.5092
  843MOL0     H16276   4.397  10.957  10.157  2.2691  0.2191 -1.9799
  843MOL0     H16277   4.411  11.198   9.993  1.5448  0.2015 -0.8301
  843MOL0     H16278   4.561  11.110  10.052  0.1601  1.5706  1.2937
  843MOL0     H16279   4.444  10.907   9.922  1.8772 -0.6571 -2.6774
  843MOL0     H16280   4.502  11.030   9.810 -0.2402 -3.2406 -0.9833
  843MOL0     H16281   4.271  10.949   9.771  1.6227 -0.8135 -0.4626
  843MOL0     H16282   4.223  11.015   9.917  1.6085 -0.7857  1.1140
  843MOL0     H16283   4.222  11.299   9.914 -0.6813  0.0147  1.0002
  843MOL0     H16284   4.178  11.549   9.602 -0.0435 -1.7577 -1.4837
  843MOL0     H16285   4.165  11.561   9.784 -0.2137  0.4982 -0.3249
  843MOL0     H16286   3.955  11.571   9.681  1.7070  0.5913  0.1866
  843MOL0     H16287   3.966  11.419   9.588 -0.3211  0.7877 -0.8992
  843MOL0     H16288   3.955  11.287   9.810 -2.0695 -1.2584  0.1162
  843MOL0     H16289   3.976  11.440   9.901 -3.0102  1.9992 -0.8795
  843MOL0     H16290   3.755  11.500   9.803  0.8438  1.1556 -1.8082
  843MOL0     H16291   3.747  11.361   9.708  0.5737  1.0185 -0.9825
  843MOL0     H16292   3.669  11.235  10.149  1.3662  3.8926 -0.5128
  843MOL0     H16293   3.404  11.031  10.230 -0.9261  1.5193 -0.6333
  843MOL0     H16294   3.392  11.195  10.306 -0.2213 -1.8927  2.2844
  843MOL0     H16295   3.556  11.117  10.281  1.0268  2.4795 -0.3786
  843MOL0     H16296   2.961  11.104   9.735 -1.8939  0.8857 -2.6025
  843MOL0     H16297   2.734  11.199   9.714  2.2611  0.2631 -1.6880
  843MOL0     H16298   2.681  11.514  10.026  3.6724  0.6838 -1.2893
  843MOL0     H16299   2.745  11.540   9.858  0.7304  1.6580  0.7701
  843MOL0     H16300   2.530  11.599   9.778  0.6933 -0.6984  0.1987
  843MOL0     H16301   2.452  11.544   9.939  0.5998 -0.4130  0.5019
  843MOL0     H16302   2.627  11.769   9.997 -1.7201  1.5034  1.4367
  843MOL0     H16303   2.452  11.762   9.997 -1.8334 -0.2736 -1.4864
  843MOL0     H16304   2.430  11.826   9.767 -0.5576 -1.2134  1.0000
  843MOL0     H16305   2.608  11.842   9.754 -0.2577 -1.6809 -0.9176
  843MOL0     H16306   2.445  11.974   9.968  0.5274  1.0288 -0.4192
  843MOL0     H16307   2.621  12.002   9.917  1.4823 -0.1953 -1.4832
  843MOL0     H16308   2.367  12.091   9.760  0.6393  2.2537 -2.0558
  843MOL0     H16309   2.537  12.065   9.696  2.6576 -0.1351  1.5867
  843MOL0     H16310   2.542  12.303   9.753  1.0156  1.0457  0.9044
  843MOL0     H16311   2.610  12.211   9.882  2.3166 -2.7041 -4.9357
  843MOL0     H16312   2.339  12.222   9.961 -0.1237  1.0660  0.0954
  843MOL0     H16313   2.354  12.374   9.871 -3.7779 -1.5566  1.8494
  843MOL0     H16314   2.762  11.349  10.123  0.1222  0.4335 -0.0854
  843MOL0     H16315   2.994  11.257  10.141  3.5944 -1.8720 -1.0517
  843MOL0     H16316   3.303  11.249   9.815  0.6028  0.0680 -0.2177
  843MOL0     H16317   3.517  11.341   9.752  2.4569 -2.0279 -0.5698
  843MOL0     H16318   4.187  10.767  10.554  0.8395  1.8587 -0.0217
  843MOL0     H16319   4.119  10.607  10.761 -1.8543 -0.6037  0.2102
  843MOL0     H16320   3.898  10.515  11.104 -0.8980  1.3060  1.0658
  843MOL0     H16321   3.802  10.388  11.290 -0.6725  2.1952  0.0389
  843MOL0     H16322   3.978  10.391  11.721  1.3038 -0.5397 -0.4094
  843MOL0     H16323   3.994  10.523  11.614  2.1533 -2.2660 -0.4572
  843MOL0     H16324   3.743  10.507  11.557  1.2684  1.2146  0.4081
  843MOL0     H16325   3.768  10.540  11.731  1.4004  0.7867 -0.7048
  843MOL0     H16326   3.717  10.268  11.590 -0.0684 -2.1077  1.4011
  843MOL0     H16327   3.742  10.273  11.765  0.2188  0.0937 -1.6978
  843MOL0     H16328   3.508  10.255  11.682  0.6941  0.2712 -0.5696
  843MOL0     H16329   3.514  10.399  11.587  0.1336 -0.4163 -0.5685
  843MOL0     H16330   3.410  10.504  11.989  0.2975  0.0249  0.9154
  843MOL0     H16331   4.178  10.405  11.492  0.7885 -1.7156 -1.5522
  843MOL0     H16332   4.349  10.639  11.281 -0.4908 -0.1442  0.5521
  843MOL0     H16333   4.378  10.488  11.377 -2.6958 -1.8120  1.4884
  843MOL0     H16334   4.365  10.485  11.200  0.9994 -2.0827  2.0655
  844MOL0     O16335   1.862   9.550   7.123 -0.2341  0.0346  0.5805
  844MOL0     C16336   1.960   9.492   7.167  0.7149  0.4891  0.1836
  844MOL0     O16337   2.042   9.530   7.268  0.2875  0.0098  1.0876
  844MOL0     C16338   2.029   9.654   7.333 -0.0898  1.0001  0.9715
  844MOL0     C16339   1.985   9.778   7.288 -0.0985  0.1009  0.0774
  844MOL0     C16340   1.994   9.888   7.370 -0.1586  0.3941 -1.4301
  844MOL0     C16341   2.039   9.883   7.501  0.5455 -0.4478 -0.1208
  844MOL0     O16342   2.045  10.013   7.565 -0.6479  0.7446 -0.2079
  844MOL0     C16343   2.032  10.006   7.710 -0.2389  1.2834  0.2849
  844MOL0     C16344   2.023  10.146   7.769 -0.1429 -0.2523  1.0045
  844MOL0     C16345   2.166  10.223   7.773  0.2974 -0.2683 -0.7362
  844MOL0     C16346   2.180  10.294   7.637 -0.9195 -0.6441 -0.0386
  844MOL0     C16347   2.316  10.364   7.635  0.1704  0.2423  0.9639
  844MOL0     C16348   2.340  10.459   7.518 -0.2306 -0.1202 -0.2121
  844MOL0     C16349   2.481  10.522   7.515 -0.0682 -0.2918 -0.4480
  844MOL0     C16350   2.588  10.419   7.504  0.0110  0.3269 -0.3747
  844MOL0     N16351   2.724  10.483   7.506 -0.9806 -0.0226  0.2857
  844MOL0     C16352   2.848  10.446   7.560  0.1905  0.8167  0.8067
  844MOL0     C16353   2.939  10.538   7.515 -0.6640 -0.1929 -0.2038
  844MOL0     C16354   3.090  10.523   7.531  0.2575 -0.4990 -1.3645
  844MOL0     C16355   3.181  10.566   7.411 -0.1439 -0.2298  0.3668
  844MOL0     C16356   3.327  10.529   7.443 -0.0960  0.4498 -0.4599
  844MOL0     C16357   3.410  10.571   7.320  1.1146  0.6470 -0.3325
  844MOL0     O16358   3.517  10.484   7.308 -0.6944  0.1575  0.3225
  844MOL0     C16359   3.629  10.529   7.233  0.5021 -0.0501 -0.6886
  844MOL0     C16360   3.613  10.596   7.116 -0.4977  0.2618  0.0342
  844MOL0     C16361   3.726  10.650   7.055  0.1201  0.6856 -0.4797
  844MOL0     C16362   3.704  10.726   6.926  0.2930  0.5522 -0.4592
  844MOL0     C16363   3.854  10.629   7.118  0.5664  0.6828 -0.1512
  844MOL0     C16364   3.987  10.683   7.067  0.6639 -0.6883 -0.8703
  844MOL0     O16365   4.096  10.626   7.120 -1.0659 -0.0166  0.5293
  844MOL0     C16366   4.208  10.660   7.054  0.7121  0.5960 -0.0912
  844MOL0     C16367   4.252  10.791   7.086 -0.0820  0.7609  0.5761
  844MOL0     C16368   4.366  10.843   7.018 -0.4563 -1.0872  0.3177
  844MOL0     C16369   4.437  10.761   6.928 -0.0502 -0.2929  0.2340
  844MOL0     O16370   4.555  10.804   6.868  0.9521 -0.0235  0.6442
  844MOL0     C16371   4.617  10.721   6.769  0.9969  0.4744 -0.0084
  844MOL0     C16372   4.747  10.779   6.726  0.0040  0.9080  0.3610
  844MOL0     C16373   4.808  10.707   6.602  0.7239  0.7663  0.7341
  844MOL0     C16374   4.955  10.731   6.579 -0.5435  0.2157  0.2440
  844MOL0     C16375   5.016  10.660   6.469  0.1937  0.3526  0.3477
  844MOL0     C16376   5.008  10.504   6.488  0.0527 -1.4707 -0.4005
  844MOL0     C16377   5.091  10.429   6.381 -1.3163 -0.4727  0.2039
  844MOL0     C16378   5.110  10.291   6.412 -0.7120 -0.1917  0.3524
  844MOL0    Cl16379   5.167  10.230   6.247 -0.0796 -0.2125 -0.1959
  844MOL0     C16380   4.383  10.630   6.897 -0.5509  0.1165  0.1075
  844MOL0     C16381   4.271  10.584   6.958 -0.0964  0.7240 -0.5073
  844MOL0     O16382   3.982  10.777   6.985 -0.1837  0.2516  0.1574
  844MOL0     C16383   3.869  10.546   7.231  1.0958 -0.4671 -0.2436
  844MOL0     C16384   3.754  10.500   7.281  1.2552  0.4315  0.0993
  844MOL0     N16385   2.875  10.628   7.436 -0.0952 -1.0927  0.7609
  844MOL0     N16386   2.750  10.601   7.452 -0.0911 -0.1866  0.2538
  844MOL0     C16387   2.083   9.759   7.555  0.7918 -0.6426 -0.1643
  844MOL0     C16388   2.077   9.649   7.461  0.6255  0.3192  0.1642
  844MOL0     C16389   1.976   9.363   7.108  0.0465  0.1571  0.3397
  844MOL0     C16390   2.097   9.304   7.140  0.3326  0.2932 -0.3497
  844MOL0     C16391   2.139   9.180   7.079 -0.0668 -0.5921  0.0604
  844MOL0     C16392   2.058   9.103   7.008  1.6114  1.3029  0.2412
  844MOL0     O16393   2.076   8.984   6.945  0.4112  0.9260  1.1767
  844MOL0     C16394   2.175   8.896   6.980 -1.6147 -0.1457  0.2489
  844MOL0     C16395   2.148   8.770   6.902  0.3954  0.5423 -0.5186
  844MOL0     C16396   2.161   8.776   6.747 -0.0827 -0.3644 -0.4340
  844MOL0     C16397   2.056   8.871   6.683 -0.7482 -0.1778 -0.0250
  844MOL0     C16398   2.001   8.801   6.573  0.0244 -0.2171  0.2258
  844MOL0     C16399   1.945   8.754   6.476 -0.8102 -0.2004  0.6395
  844MOL0     C16400   1.929   9.159   6.980  0.1064 -0.1275 -0.0404
  844MOL0     C16401   1.889   9.285   7.026 -0.0126 -0.3905 -0.3792
  844MOL0     C16402   1.751   9.321   6.990 -0.8894  0.0772 -0.4632
  844MOL0     H16403   1.942   9.781   7.189 -1.2461  1.1052  0.5921
  844MOL0     H16404   1.964   9.988   7.342 -3.0801  0.1424  0.4139
  844MOL0     H16405   2.116   9.954   7.758 -0.3743 -0.2692 -1.0642
  844MOL0     H16406   1.948   9.945   7.744 -0.0488  0.5041 -0.6099
  844MOL0     H16407   1.957  10.202   7.702  2.1507 -0.2402 -1.4276
  844MOL0     H16408   1.982  10.127   7.868  2.0903  1.5111  2.3643
  844MOL0     H16409   2.185  10.282   7.864 -0.8011  2.0237 -1.9073
  844MOL0     H16410   2.247  10.150   7.782  1.4437  0.9977 -0.3870
  844MOL0     H16411   2.189  10.216   7.561 -1.8498  1.7774 -2.8264
  844MOL0     H16412   2.096  10.359   7.611 -0.5783 -0.3389 -0.3996
  844MOL0     H16413   2.395  10.289   7.626  0.4144  0.3550  2.0344
  844MOL0     H16414   2.338  10.412   7.731 -1.2454  1.5550  0.6818
  844MOL0     H16415   2.317  10.403   7.426 -2.6801  0.0866  0.2239
  844MOL0     H16416   2.286  10.552   7.535  3.6185  2.1195  1.1690
  844MOL0     H16417   2.491  10.565   7.614  0.0116 -2.5382  0.5878
  844MOL0     H16418   2.492  10.598   7.437 -0.2684 -1.4661 -1.6748
  844MOL0     H16419   2.590  10.339   7.578  2.0729  2.6009  2.2481
  844MOL0     H16420   2.579  10.377   7.403 -2.7528  0.1645 -0.1489
  844MOL0     H16421   2.872  10.352   7.610  1.4130 -0.1891 -1.5386
  844MOL0     H16422   3.112  10.417   7.549 -0.7360 -0.3858  0.8821
  844MOL0     H16423   3.123  10.584   7.616  0.3377 -1.6894 -0.5113
  844MOL0     H16424   3.143  10.508   7.326  1.3510 -2.7897  1.3580
  844MOL0     H16425   3.167  10.671   7.384  0.1655  0.0133  1.1200
  844MOL0     H16426   3.354  10.590   7.530  0.3090  1.7398 -1.4659
  844MOL0     H16427   3.345  10.422   7.456 -0.1454 -0.1421 -4.1374
  844MOL0     H16428   3.350  10.566   7.229  2.8638 -0.1219 -1.5034
  844MOL0     H16429   3.448  10.669   7.352 -2.8046  1.8569  1.2258
  844MOL0     H16430   3.513  10.614   7.076 -0.5398  0.2634  0.1417
  844MOL0     H16431   3.737  10.829   6.939  0.9304  0.0254  3.0497
  844MOL0     H16432   3.600  10.742   6.894  0.8448  3.1280 -1.2090
  844MOL0     H16433   3.762  10.684   6.843 -2.0656  0.7924 -2.3748
  844MOL0     H16434   4.193  10.851   7.155  1.5017 -0.5160  3.1702
  844MOL0     H16435   4.400  10.946   7.031  1.2553 -1.7462  1.4376
  844MOL0     H16436   4.638  10.629   6.824  0.7054  1.7739  2.3915
  844MOL0     H16437   4.558  10.689   6.683  0.8964  0.1583  0.1776
  844MOL0     H16438   4.735  10.887   6.713 -2.8943  0.9902  2.5109
  844MOL0     H16439   4.820  10.761   6.805  1.4872 -1.6923 -1.4546
  844MOL0     H16440   4.746  10.737   6.517  1.3718 -3.0110 -1.2640
  844MOL0     H16441   4.786  10.601   6.612 -3.0595  1.2945 -0.3429
  844MOL0     H16442   5.008  10.698   6.669 -3.6153 -1.0046  1.7720
  844MOL0     H16443   4.956  10.839   6.563 -3.0932  0.0170 -2.1711
  844MOL0     H16444   4.972  10.683   6.371 -3.4426  0.9120  1.9565
  844MOL0     H16445   5.120  10.695   6.471  0.5179 -0.3967 -1.4839
  844MOL0     H16446   4.904  10.469   6.486 -0.7736  0.7542  0.6307
  844MOL0     H16447   5.046  10.489   6.590 -1.7261  1.5120  0.8301
  844MOL0     H16448   5.193  10.468   6.371 -1.0770 -0.8772  0.9947
  844MOL0     H16449   5.052  10.448   6.281 -0.1265 -0.9464 -0.3674
  844MOL0     H16450   5.023  10.233   6.444 -0.6249 -2.7383 -3.5078
  844MOL0     H16451   5.198  10.277   6.476 -0.6173 -1.2051  0.0072
  844MOL0     H16452   4.421  10.572   6.814 -1.5532 -0.6473  0.1671
  844MOL0     H16453   4.223  10.495   6.919 -0.2135  0.2142  0.7879
  844MOL0     H16454   3.962  10.531   7.285  0.2083  1.7589  2.0580
  844MOL0     H16455   3.746  10.441   7.373  2.7073 -0.2846 -0.2027
  844MOL0     H16456   2.108   9.768   7.660  1.0852  1.7093 -0.3985
  844MOL0     H16457   2.115   9.557   7.504  0.6132 -0.4114 -1.3234
  844MOL0     H16458   2.163   9.340   7.218  0.9759 -1.3225 -0.1079
  844MOL0     H16459   2.240   9.142   7.086  0.0439 -0.7954 -1.9944
  844MOL0     H16460   2.265   8.955   6.960 -2.5627  0.8136 -1.3535
  844MOL0     H16461   2.172   8.866   7.085  0.9680 -0.8442  0.2014
  844MOL0     H16462   2.046   8.735   6.922  0.9216 -2.0700 -1.9551
  844MOL0     H16463   2.215   8.688   6.932 -0.5668 -0.1181 -0.1247
  844MOL0     H16464   2.263   8.807   6.724 -0.6225  2.0188  0.0217
  844MOL0     H16465   2.154   8.673   6.711  0.6616 -0.5571 -0.0432
  844MOL0     H16466   2.096   8.971   6.662 -0.6987  0.0836  1.2158
  844MOL0     H16467   1.967   8.889   6.744 -2.6310 -0.3969 -2.5395
  844MOL0     H16468   1.888   8.700   6.402 -1.6913 -1.9347  2.4984
  844MOL0     H16469   1.867   9.093   6.920  1.6473 -1.8658  0.2224
  844MOL0     H16470   1.749   9.384   6.901 -1.5234 -2.2619 -2.2065
  844MOL0     H16471   1.704   9.227   6.960 -0.8349  0.6457 -2.4650
  844MOL0     H16472   1.701   9.368   7.075 -2.4378  0.7129 -1.6810
  845MOL0     O16473  10.906   2.877   7.271 -0.6527  0.6204 -0.0751
  845MOL0     C16474  11.004   2.945   7.277 -0.1711  0.5119 -0.6323
  845MOL0     O16475  11.138   2.902   7.251  0.2203  0.3023  0.2311
  845MOL0     C16476  11.164   2.768   7.215  0.1674  0.6960 -0.5963
  845MOL0     C16477  11.087   2.684   7.129 -0.0573  0.3586  0.1133
  845MOL0     C16478  11.112   2.550   7.107 -0.1360 -0.2706 -0.0850
  845MOL0     C16479  11.235   2.492   7.164 -0.2928 -1.1289 -0.0150
  845MOL0     O16480  11.262   2.369   7.125  0.2020  0.2986 -0.4717
  845MOL0     C16481  11.372   2.295   7.177 -0.4389 -0.0469  1.1441
  845MOL0     C16482  11.395   2.170   7.089  0.1675 -0.2391  0.3437
  845MOL0     C16483  11.494   2.201   6.978  0.2175  0.3039 -0.3147
  845MOL0     C16484  11.514   2.088   6.882  0.5489  0.2487  0.0650
  845MOL0     C16485  11.605   1.981   6.944  0.4787 -0.4796 -0.7402
  845MOL0     C16486  11.706   1.917   6.852 -0.2809 -0.4306 -0.3175
  845MOL0     C16487  11.633   1.833   6.749  0.0083  0.0071 -0.1817
  845MOL0     C16488  11.740   1.762   6.670 -0.1081 -0.4591 -0.4224
  845MOL0     N16489  11.686   1.690   6.547 -0.4502  0.6688  0.2525
  845MOL0     C16490  11.756   1.603   6.464 -0.4108 -0.3426  0.8990
  845MOL0     C16491  11.662   1.562   6.383  1.0924 -1.2231  0.9202
  845MOL0     C16492  11.684   1.453   6.275  0.2399 -0.6186  0.3191
  845MOL0     C16493  11.687   1.316   6.345 -0.7907 -0.0443  0.0819
  845MOL0     C16494  11.794   1.278   6.458 -0.5358  0.4339  0.6405
  845MOL0     C16495  11.763   1.135   6.502 -0.9741  0.0630  0.5404
  845MOL0     O16496  11.865   1.039   6.457  1.3068 -0.3410  0.1620
  845MOL0     C16497  11.857   0.996   6.322 -0.5828  0.1140 -0.4613
  845MOL0     C16498  11.986   0.973   6.251  0.0994 -0.0983 -0.6524
  845MOL0     C16499  11.991   0.895   6.133 -0.8315 -0.7762  0.6112
  845MOL0     C16500  12.125   0.861   6.075 -0.1098 -0.2978 -0.7273
  845MOL0     C16501  11.870   0.861   6.072 -0.0311  0.2323  0.1511
  845MOL0     C16502  11.861   0.807   5.935  0.1073 -0.3727 -0.4156
  845MOL0     O16503  11.908   0.896   5.836 -0.4286 -0.1271  0.8845
  845MOL0     C16504  11.896   0.869   5.699  0.5189  0.4211 -0.9831
  845MOL0     C16505  11.788   0.809   5.639 -0.2394  0.2192 -0.4974
  845MOL0     C16506  11.785   0.787   5.506 -0.3562 -0.1597 -0.5416
  845MOL0     C16507  11.883   0.842   5.423  0.0845 -0.4207 -0.3767
  845MOL0     O16508  11.856   0.840   5.289 -1.5432 -0.4669 -0.2205
  845MOL0     C16509  11.959   0.799   5.202 -0.0927 -0.9937  0.8855
  845MOL0     C16510  11.904   0.753   5.066  0.0247 -0.4141  0.0779
  845MOL0     C16511  11.797   0.842   5.002  0.6338  0.7801 -0.5967
  845MOL0     C16512  11.786   0.820   4.853  0.4052  0.0092  0.5104
  845MOL0     C16513  11.654   0.859   4.791  0.3019  0.4551  0.5008
  845MOL0     C16514  11.615   1.012   4.814  0.2835  0.1297 -0.3541
  845MOL0     C16515  11.471   1.017   4.752 -0.7367 -0.0356 -0.9906
  845MOL0     C16516  11.369   1.050   4.854  0.3887 -0.4283  0.3126
  845MOL0    Cl16517  11.370   1.211   4.904 -0.2964 -0.2019  0.1212
  845MOL0     C16518  11.986   0.925   5.478  0.2255  0.4716 -0.2484
  845MOL0     C16519  11.999   0.934   5.618  0.1543 -0.2447 -0.4015
  845MOL0     O16520  11.800   0.709   5.910  0.1202  0.7074  0.1575
  845MOL0     C16521  11.751   0.894   6.132  0.2483  0.2747  0.1891
  845MOL0     C16522  11.742   0.962   6.255  0.5252 -0.3373 -0.0360
  845MOL0     N16523  11.538   1.613   6.416  0.0851 -2.2140 -0.4252
  845MOL0     N16524  11.556   1.682   6.516 -0.1121 -0.5139 -0.7705
  845MOL0     C16525  11.300   2.579   7.247 -0.5012 -0.2883 -0.3144
  845MOL0     C16526  11.273   2.712   7.277  0.4202  0.6299 -0.6178
  845MOL0     C16527  10.983   3.100   7.297 -0.2820  0.6740 -0.3024
  845MOL0     C16528  11.088   3.176   7.255 -0.3706  0.1490 -0.4727
  845MOL0     C16529  11.085   3.318   7.251 -0.6783 -0.3587 -0.1929
  845MOL0     C16530  10.969   3.385   7.302  1.3353 -0.7471  1.1493
  845MOL0     O16531  10.951   3.519   7.302 -0.2238 -0.2107 -0.1628
  845MOL0     C16532  11.041   3.597   7.381 -0.5252  0.5385 -0.4605
  845MOL0     C16533  11.002   3.744   7.378  0.3265 -0.2923  0.2189
  845MOL0     C16534  10.980   3.783   7.229  0.1319 -0.5913 -0.2050
  845MOL0     C16535  10.917   3.932   7.235  0.0460  0.5336 -0.1101
  845MOL0     C16536  10.827   3.948   7.118  0.5538 -0.7423 -0.4797
  845MOL0     C16537  10.744   3.961   7.030  0.5456 -0.4441  0.3348
  845MOL0     C16538  10.866   3.302   7.353  0.0134  0.0643 -0.2290
  845MOL0     C16539  10.869   3.167   7.354  0.6626  0.4016 -0.0000
  845MOL0     C16540  10.756   3.093   7.414 -0.2276  0.0231  0.5290
  845MOL0     H16541  11.006   2.717   7.064 -0.1820  0.0621  0.1170
  845MOL0     H16542  11.051   2.499   7.033 -3.4748  2.4769  0.5559
  845MOL0     H16543  11.340   2.254   7.273  1.6540  0.9934  2.3449
  845MOL0     H16544  11.470   2.339   7.193  0.4501 -0.7476 -1.7274
  845MOL0     H16545  11.430   2.088   7.153 -1.7577 -2.9875 -1.9213
  845MOL0     H16546  11.301   2.139   7.044  1.3721  0.1363 -2.6950
  845MOL0     H16547  11.454   2.286   6.922  3.6443  1.9714 -0.4562
  845MOL0     H16548  11.587   2.234   7.023  1.1934 -2.0572 -0.4523
  845MOL0     H16549  11.420   2.054   6.838  0.7906  0.7003 -0.8152
  845MOL0     H16550  11.561   2.135   6.795 -2.1598  2.4784 -0.3302
  845MOL0     H16551  11.548   1.894   6.977  1.6577 -1.0068 -0.0401
  845MOL0     H16552  11.665   2.026   7.025 -2.0252  1.3136  0.2511
  845MOL0     H16553  11.770   1.992   6.804  1.3826 -1.0994  0.7770
  845MOL0     H16554  11.777   1.856   6.909  1.7081  2.0709  0.0466
  845MOL0     H16555  11.574   1.899   6.684  0.0423  2.4878  2.1126
  845MOL0     H16556  11.561   1.761   6.789  0.7015 -1.8735 -2.1250
  845MOL0     H16557  11.810   1.835   6.630  0.2529  0.4473  1.7319
  845MOL0     H16558  11.792   1.692   6.736  1.0249  1.0251  0.3152
  845MOL0     H16559  11.861   1.577   6.477 -0.2185  0.8084  1.6882
  845MOL0     H16560  11.772   1.462   6.211  2.5152 -0.4479  3.2506
  845MOL0     H16561  11.604   1.454   6.200  2.1096 -0.5750 -1.7990
  845MOL0     H16562  11.587   1.300   6.386  0.1912 -0.3292  2.5331
  845MOL0     H16563  11.694   1.238   6.267 -2.6574 -1.2363  1.0271
  845MOL0     H16564  11.896   1.277   6.417 -0.0213  2.0117  1.8026
  845MOL0     H16565  11.791   1.352   6.538  1.9153  3.1440 -1.5547
  845MOL0     H16566  11.757   1.151   6.610 -0.7354  1.9107  0.3066
  845MOL0     H16567  11.663   1.108   6.468 -0.3395  0.6745 -1.9501
  845MOL0     H16568  12.075   1.015   6.295 -0.4760  0.5368 -0.0698
  845MOL0     H16569  12.145   0.759   6.108  1.5200 -0.4447 -2.0210
  845MOL0     H16570  12.205   0.920   6.120  0.1617  0.2054 -1.8184
  845MOL0     H16571  12.136   0.890   5.970 -0.3865  1.1908 -0.3776
  845MOL0     H16572  11.713   0.764   5.702  1.8832 -0.2654  1.8247
  845MOL0     H16573  11.699   0.741   5.460 -2.5063  2.9996  0.0405
  845MOL0     H16574  12.029   0.880   5.179  0.4878 -1.6342  0.3674
  845MOL0     H16575  12.018   0.721   5.252  0.0076 -1.5505 -0.0727
  845MOL0     H16576  11.989   0.729   5.001  0.3557 -1.1211  0.7551
  845MOL0     H16577  11.852   0.660   5.091 -1.3197  0.7271  1.7270
  845MOL0     H16578  11.813   0.949   5.018 -1.0570  0.8480  1.0325
  845MOL0     H16579  11.696   0.822   5.041  1.0010  0.0235 -0.0014
  845MOL0     H16580  11.785   0.715   4.825  1.1045  0.1298  0.0194
  845MOL0     H16581  11.868   0.863   4.796 -0.6907 -1.3497 -2.2459
  845MOL0     H16582  11.661   0.840   4.684 -2.9931 -2.0044  0.5937
  845MOL0     H16583  11.579   0.792   4.834 -0.3227  0.9032  0.1028
  845MOL0     H16584  11.687   1.086   4.778  0.9047  0.7980  2.1158
  845MOL0     H16585  11.592   1.024   4.920 -0.7524 -2.2580 -0.2472
  845MOL0     H16586  11.431   0.929   4.699 -0.6921 -1.0151  0.5520
  845MOL0     H16587  11.480   1.099   4.680 -2.3117  1.8191  0.8110
  845MOL0     H16588  11.363   0.984   4.941  1.1152 -3.7906 -1.9867
  845MOL0     H16589  11.276   1.044   4.796  0.0505 -1.9300  0.9623
  845MOL0     H16590  12.053   0.980   5.412 -2.0556  1.4547 -1.8584
  845MOL0     H16591  12.089   0.978   5.661 -0.3212 -1.7296  2.3585
  845MOL0     H16592  11.658   0.881   6.078 -1.0414 -1.1839  2.5678
  845MOL0     H16593  11.648   0.994   6.298 -2.0440 -4.8027 -1.6280
  845MOL0     H16594  11.377   2.523   7.298  0.3171 -0.0021 -1.2170
  845MOL0     H16595  11.321   2.765   7.358  3.2679 -1.7887 -0.5668
  845MOL0     H16596  11.186   3.137   7.228  1.0762  0.7247  3.2835
  845MOL0     H16597  11.180   3.362   7.222 -0.2799 -2.1299 -1.7971
  845MOL0     H16598  11.043   3.558   7.484  3.1585 -0.7952 -0.8666
  845MOL0     H16599  11.145   3.579   7.352 -0.4641  0.4536 -0.1942
  845MOL0     H16600  11.081   3.798   7.431  1.4671 -1.8438  0.1576
  845MOL0     H16601  10.909   3.758   7.434 -0.1907  0.4438 -0.7954
  845MOL0     H16602  11.072   3.784   7.170  0.9922 -0.7679  1.0707
  845MOL0     H16603  10.912   3.715   7.178  0.6910 -1.1204 -0.2520
  845MOL0     H16604  10.998   4.005   7.232  0.4189  0.3368  2.5689
  845MOL0     H16605  10.857   3.943   7.326 -1.5653  0.0842 -1.0680
  845MOL0     H16606  10.670   3.984   6.956  0.6039 -0.4560  0.2727
  845MOL0     H16607  10.780   3.359   7.387  0.3660  0.2084  0.4220
  845MOL0     H16608  10.790   3.022   7.491 -1.3988  1.9059  2.9125
  845MOL0     H16609  10.700   3.165   7.474 -1.5494 -0.5918  0.0776
  845MOL0     H16610  10.701   3.036   7.338  3.1276 -2.6136 -0.1961
  846MOL0     O16611  10.692   3.596   4.376  0.6174 -0.0547  0.0228
  846MOL0     C16612  10.798   3.652   4.351  0.3262  1.0247  0.0515
  846MOL0     O16613  10.834   3.772   4.407  0.6332  0.1536 -0.0964
  846MOL0     C16614  10.743   3.826   4.491 -0.6862  0.0568 -0.5456
  846MOL0     C16615  10.643   3.906   4.440 -0.0364  0.3451  0.6875
  846MOL0     C16616  10.573   3.986   4.524  0.0794 -0.4094  0.6147
  846MOL0     C16617  10.598   3.995   4.663  0.8656 -0.0266 -0.1890
  846MOL0     O16618  10.514   4.083   4.732 -0.3715  0.4285 -0.7116
  846MOL0     C16619  10.565   4.143   4.849 -0.0370  0.4585 -0.3679
  846MOL0     C16620  10.465   4.254   4.897  0.3785 -0.4482  0.9148
  846MOL0     C16621  10.505   4.314   5.031  0.2757 -0.1761  0.3852
  846MOL0     C16622  10.473   4.462   5.038  0.0464 -0.9661 -0.3949
  846MOL0     C16623  10.482   4.533   5.177 -0.1669 -0.0089  0.5339
  846MOL0     C16624  10.600   4.512   5.271  0.3687 -0.1332  0.3452
  846MOL0     C16625  10.615   4.623   5.377  0.7927 -0.5615  1.1302
  846MOL0     C16626  10.633   4.564   5.519  0.3185 -1.6654 -0.7736
  846MOL0     N16627  10.639   4.669   5.631 -0.6803 -0.5525 -0.3765
  846MOL0     C16628  10.748   4.748   5.664  0.5164  0.1555  0.2065
  846MOL0     C16629  10.712   4.800   5.785 -0.3714 -0.5980  0.8366
  846MOL0     C16630  10.791   4.899   5.859  0.5869  0.1891  0.2840
  846MOL0     C16631  10.849   4.842   5.992 -0.2231  0.0788 -0.5902
  846MOL0     C16632  10.865   4.938   6.117  0.2944 -0.8509  0.8356
  846MOL0     C16633  10.960   5.053   6.092 -0.5281  0.2563 -1.9961
  846MOL0     O16634  11.099   5.009   6.085  0.4193  0.4157 -0.3112
  846MOL0     C16635  11.200   5.105   6.076  0.1226 -0.2544  0.0453
  846MOL0     C16636  11.325   5.050   6.064 -0.5144 -0.2530  0.6728
  846MOL0     C16637  11.443   5.124   6.040 -0.0971 -0.4389 -0.0171
  846MOL0     C16638  11.583   5.075   6.032  0.2949  0.4418 -0.4887
  846MOL0     C16639  11.417   5.262   6.027 -1.1954  0.1401 -0.2082
  846MOL0     C16640  11.524   5.356   5.976  0.3294 -0.0840  0.3097
  846MOL0     O16641  11.540   5.362   5.842 -0.1227 -1.2006 -0.8851
  846MOL0     C16642  11.635   5.451   5.788  0.6153 -0.0838 -0.0999
  846MOL0     C16643  11.768   5.436   5.823 -0.3433  0.3699 -0.2749
  846MOL0     C16644  11.861   5.539   5.777 -0.8939  0.1597 -0.1215
  846MOL0     C16645  11.828   5.646   5.696 -0.3871  0.6757 -0.4504
  846MOL0     O16646  11.924   5.745   5.672 -0.1678 -0.6532 -0.6776
  846MOL0     C16647  11.932   5.816   5.547  1.9394 -0.2899  1.4392
  846MOL0     C16648  12.019   5.729   5.460 -0.0959 -0.2253 -0.5983
  846MOL0     C16649  12.038   5.798   5.321 -0.0389 -0.2810 -0.8362
  846MOL0     C16650  12.079   5.708   5.207 -0.1152  0.1845  0.4998
  846MOL0     C16651  12.122   5.747   5.069  1.4081 -0.9646  0.3290
  846MOL0     C16652  12.251   5.840   5.062 -0.0720 -0.1122 -0.3198
  846MOL0     C16653  12.260   5.918   4.936 -0.0440 -0.2980 -0.6629
  846MOL0     C16654  12.348   6.053   4.951  0.2164 -1.2123  0.0716
  846MOL0    Cl16655  12.318   6.169   4.812  0.0459 -0.1271 -0.2992
  846MOL0     C16656  11.690   5.651   5.666 -0.4690 -0.1121  0.9231
  846MOL0     C16657  11.593   5.560   5.710  0.0105 -0.6994 -0.3552
  846MOL0     O16658  11.571   5.429   6.061  0.1187 -0.1574 -0.1993
  846MOL0     C16659  11.295   5.317   6.059  0.0551 -0.6399  0.0198
  846MOL0     C16660  11.184   5.245   6.092  0.0909 -0.1576 -0.1885
  846MOL0     N16661  10.578   4.758   5.818  0.2133 -0.3209  0.7523
  846MOL0     N16662  10.545   4.686   5.724 -0.8428  0.2254 -0.2474
  846MOL0     C16663  10.690   3.907   4.719 -0.2462  0.4445 -0.4653
  846MOL0     C16664  10.765   3.830   4.628  0.2007 -0.0810 -0.2405
  846MOL0     C16665  10.892   3.592   4.255 -0.4105  0.0012 -0.0897
  846MOL0     C16666  11.002   3.667   4.205  0.3485  0.4642 -0.0292
  846MOL0     C16667  11.098   3.605   4.122 -0.0858 -0.7032  0.2826
  846MOL0     C16668  11.101   3.470   4.102 -0.2946 -1.2815  0.7243
  846MOL0     O16669  11.206   3.427   4.020 -0.7222  0.1432 -0.3245
  846MOL0     C16670  11.171   3.323   3.925  0.8130  0.1500 -0.3070
  846MOL0     C16671  11.271   3.297   3.812  0.0009  1.0993 -0.2891
  846MOL0     C16672  11.411   3.304   3.870 -0.1146 -0.7740 -0.5103
  846MOL0     C16673  11.498   3.195   3.813 -1.3041 -0.1579  0.3038
  846MOL0     C16674  11.635   3.249   3.794 -1.6728  0.2729 -0.2809
  846MOL0     C16675  11.747   3.286   3.780 -0.9017 -0.3873 -0.4831
  846MOL0     C16676  11.005   3.391   4.159  0.0236 -0.3845  0.5384
  846MOL0     C16677  10.897   3.457   4.228 -0.4928  0.8103  0.3714
  846MOL0     C16678  10.799   3.355   4.288  0.1231  0.1952 -0.2440
  846MOL0     H16679  10.625   3.907   4.333  1.4685  1.0543  0.4146
  846MOL0     H16680  10.508   4.061   4.479 -2.2072 -0.1978  3.8941
  846MOL0     H16681  10.664   4.189   4.843  0.8586 -0.8731  2.4012
  846MOL0     H16682  10.557   4.068   4.929  2.8125  0.4760  0.0386
  846MOL0     H16683  10.473   4.334   4.822  2.5097 -1.3270  0.1030
  846MOL0     H16684  10.365   4.212   4.909  1.0751 -1.8007  2.3056
  846MOL0     H16685  10.448   4.258   5.105 -0.3788 -1.2285 -0.8647
  846MOL0     H16686  10.611   4.299   5.052  1.1049  2.1929 -1.5015
  846MOL0     H16687  10.540   4.513   4.968  0.7230  0.0367  0.9312
  846MOL0     H16688  10.368   4.469   5.009 -0.1633 -0.8963  0.3651
  846MOL0     H16689  10.403   4.490   5.240  1.5789 -0.5883  2.4216
  846MOL0     H16690  10.450   4.637   5.168  0.7726  0.6708  3.9198
  846MOL0     H16691  10.587   4.418   5.325 -0.5256 -0.1362  0.1426
  846MOL0     H16692  10.690   4.488   5.214 -1.1633 -2.0644 -1.4317
  846MOL0     H16693  10.528   4.689   5.375  1.6806  0.6233 -0.2802
  846MOL0     H16694  10.690   4.702   5.364 -2.1095  2.3235  0.5751
  846MOL0     H16695  10.551   4.493   5.533 -1.1469  0.1718  0.4149
  846MOL0     H16696  10.728   4.510   5.509  0.6864 -1.1657 -0.0537
  846MOL0     H16697  10.841   4.769   5.612  0.2778 -3.3901 -1.9619
  846MOL0     H16698  10.723   4.981   5.880 -0.2654 -0.7452  1.3205
  846MOL0     H16699  10.870   4.943   5.797 -1.3130 -0.4251 -2.7803
  846MOL0     H16700  10.781   4.775   6.044 -1.2177  2.4157  1.3016
  846MOL0     H16701  10.942   4.785   5.979  1.0156  1.7020  0.6084
  846MOL0     H16702  10.766   4.978   6.138  0.0732  0.4678 -2.2504
  846MOL0     H16703  10.884   4.896   6.216  1.0467  1.5397  1.7757
  846MOL0     H16704  10.921   5.103   6.003 -1.1759 -0.8664 -2.3679
  846MOL0     H16705  10.945   5.123   6.174  1.3354  0.8736 -2.1488
  846MOL0     H16706  11.331   4.941   6.063  2.1856 -0.1629  0.3611
  846MOL0     H16707  11.631   5.095   5.935 -1.6845 -1.5153 -1.9596
  846MOL0     H16708  11.588   4.970   6.062 -0.6905  0.6491  0.4403
  846MOL0     H16709  11.641   5.122   6.113  0.5116 -2.7410  1.3444
  846MOL0     H16710  11.788   5.364   5.902 -0.4201 -0.6091 -1.1103
  846MOL0     H16711  11.961   5.536   5.820 -1.4641 -1.0272  1.1982
  846MOL0     H16712  11.832   5.836   5.508  1.8106 -1.8346  0.8862
  846MOL0     H16713  11.989   5.908   5.555  0.6181  0.5739  1.2533
  846MOL0     H16714  12.114   5.730   5.514 -0.5813  0.0135  0.2569
  846MOL0     H16715  11.979   5.631   5.430 -0.1321  0.5009 -3.1914
  846MOL0     H16716  12.108   5.881   5.329  2.0687 -1.9495 -0.9206
  846MOL0     H16717  11.936   5.833   5.302 -0.8433 -0.7673  2.0973
  846MOL0     H16718  12.004   5.632   5.183  0.8737 -1.6909  2.9114
  846MOL0     H16719  12.168   5.656   5.243 -0.2575 -2.6010 -2.6218
  846MOL0     H16720  12.145   5.660   5.007  0.6873  0.4843 -2.1579
  846MOL0     H16721  12.038   5.796   5.019  2.5121 -1.0201 -1.6933
  846MOL0     H16722  12.335   5.772   5.080  1.3678  1.8929  0.9381
  846MOL0     H16723  12.243   5.902   5.152  3.7318 -0.4384  0.3998
  846MOL0     H16724  12.161   5.956   4.908  0.8369  1.8380 -1.0096
  846MOL0     H16725  12.298   5.859   4.852  0.3463 -2.1241  0.7268
  846MOL0     H16726  12.449   6.013   4.962 -0.8398 -4.8509 -1.8423
  846MOL0     H16727  12.324   6.102   5.046  2.6078 -0.2317  0.2280
  846MOL0     H16728  11.658   5.735   5.606  4.6966  2.3292  1.0522
  846MOL0     H16729  11.488   5.575   5.687 -1.2283  0.5163  4.8314
  846MOL0     H16730  11.267   5.422   6.062 -2.2254 -1.2117  1.9505
  846MOL0     H16731  11.092   5.298   6.113 -2.4648 -3.0703 -2.9886
  846MOL0     H16732  10.705   3.903   4.826 -3.1862 -0.0563  0.0093
  846MOL0     H16733  10.840   3.759   4.661 -0.6158 -0.6112  0.5224
  846MOL0     H16734  11.008   3.769   4.241 -0.6552  0.9313 -1.1433
  846MOL0     H16735  11.173   3.675   4.086 -0.2969 -0.3333  0.5571
  846MOL0     H16736  11.160   3.228   3.978 -0.9546 -0.6444 -1.9704
  846MOL0     H16737  11.073   3.336   3.878  1.5725 -0.3430 -2.1353
  846MOL0     H16738  11.262   3.380   3.740  1.5094  3.0884  1.6695
  846MOL0     H16739  11.257   3.207   3.752  0.9894  0.9310 -0.2934
  846MOL0     H16740  11.447   3.404   3.844  0.3239 -0.3204  1.6702
  846MOL0     H16741  11.428   3.309   3.978  0.4647 -0.9871 -0.5895
  846MOL0     H16742  11.473   3.167   3.711  0.6888  0.3087 -0.3452
  846MOL0     H16743  11.493   3.104   3.875 -0.3752 -0.9333 -0.7259
  846MOL0     H16744  11.844   3.303   3.738 -0.1999  0.6986  1.4425
  846MOL0     H16745  11.016   3.285   4.136 -1.2843  0.1568 -3.4670
  846MOL0     H16746  10.815   3.248   4.271 -1.5031 -0.5722  2.3952
  846MOL0     H16747  10.816   3.367   4.395  0.2316 -1.1510 -0.0967
  846MOL0     H16748  10.695   3.374   4.259 -0.7481 -1.7989  1.3541
  847MOL0     O16749  11.259   2.536  10.771 -0.9275 -0.5373  0.2641
  847MOL0     C16750  11.263   2.540  10.645  0.0670  0.2444  0.0428
  847MOL0     O16751  11.323   2.453  10.575  0.4484 -0.3135  0.4387
  847MOL0     C16752  11.386   2.348  10.647 -0.0174 -0.8116  0.1032
  847MOL0     C16753  11.344   2.216  10.621  0.4933 -0.2487 -0.1262
  847MOL0     C16754  11.392   2.116  10.709  0.5332 -0.0259 -0.5948
  847MOL0     C16755  11.506   2.139  10.796 -0.7052  0.3507 -0.4471
  847MOL0     O16756  11.560   2.033  10.870  0.0254 -0.0437  0.4895
  847MOL0     C16757  11.686   2.042  10.926  0.4113  0.6704  0.9224
  847MOL0     C16758  11.729   1.902  10.983  0.5959  0.9013  1.1426
  847MOL0     C16759  11.841   1.923  11.079  1.0215 -0.1931  0.2188
  847MOL0     C16760  11.971   1.972  11.008 -0.5824  0.3578  0.0269
  847MOL0     C16761  12.091   1.960  11.107  0.2439  0.4779 -0.6173
  847MOL0     C16762  12.122   1.823  11.160  0.3520  0.0284 -0.5618
  847MOL0     C16763  12.238   1.820  11.252  0.1019 -0.6246  0.1538
  847MOL0     C16764  12.287   1.685  11.289 -0.7419  0.3835 -1.3783
  847MOL0     N16765  12.391   1.664  11.401 -1.0033  0.6522  0.4540
  847MOL0     C16766  12.512   1.736  11.413  0.8233 -0.5501 -0.0463
  847MOL0     C16767  12.558   1.709  11.534  0.1273  0.1062  0.7654
  847MOL0     C16768  12.690   1.765  11.583  0.4893  0.3736 -0.2911
  847MOL0     C16769  12.696   1.782  11.739 -0.4061  0.2007  0.3188
  847MOL0     C16770  12.716   1.655  11.828  0.0736 -0.3710 -0.4917
  847MOL0     C16771  12.698   1.680  11.978 -0.1920  0.5275  0.0143
  847MOL0     O16772  12.796   1.768  12.033 -0.9679 -0.1740  0.4135
  847MOL0     C16773  12.938   1.755  12.020  0.1943  0.2650  0.5754
  847MOL0     C16774  13.012   1.649  11.970  0.0174 -0.0252 -0.3624
  847MOL0     C16775  13.149   1.640  11.975  1.6175 -0.4853 -0.8099
  847MOL0     C16776  13.192   1.515  11.921 -0.4055 -1.1235 -0.7812
  847MOL0     C16777  13.220   1.745  12.024  0.2102  0.1124 -0.5232
  847MOL0     C16778  13.365   1.745  12.044 -0.4211  0.3156  0.6034
  847MOL0     O16779  13.413   1.823  12.144  0.3345 -0.3096 -0.3874
  847MOL0     C16780  13.547   1.825  12.167 -0.7074  0.5229  0.8417
  847MOL0     C16781  13.571   1.899  12.280  0.4111  0.0700 -0.7608
  847MOL0     C16782  13.703   1.941  12.317  0.8452  0.0982  0.3419
  847MOL0     C16783  13.807   1.908  12.235 -0.5239 -0.3115 -1.2016
  847MOL0     O16784  13.930   1.944  12.275 -0.9786  0.4422  0.3854
  847MOL0     C16785  13.975   1.875  12.392 -0.7921  0.9909 -1.1368
  847MOL0     C16786  14.128   1.854  12.375  0.5047  0.4133 -0.5746
  847MOL0     C16787  14.203   1.991  12.375 -0.0254 -1.1912  0.0963
  847MOL0     C16788  14.335   1.981  12.466  0.0626  0.7913 -0.6301
  847MOL0     C16789  14.383   2.111  12.535  0.5800 -0.0389  0.2122
  847MOL0     C16790  14.422   2.225  12.429 -0.6068  0.6613  0.0649
  847MOL0     C16791  14.441   2.361  12.491  0.6325 -0.2779  0.0709
  847MOL0     C16792  14.463   2.477  12.396 -0.5838 -0.0514  0.0236
  847MOL0    Cl16793  14.503   2.631  12.467 -0.2253 -0.5362  0.0715
  847MOL0     C16794  13.784   1.853  12.109 -0.3269 -1.2724 -0.0069
  847MOL0     C16795  13.654   1.804  12.076 -0.3508  0.0016 -0.0886
  847MOL0     O16796  13.425   1.683  11.957  0.6975  0.4543  0.9837
  847MOL0     C16797  13.154   1.865  12.051 -1.0525 -0.6442  0.1046
  847MOL0     C16798  13.014   1.870  12.056  0.3475 -0.7890 -0.2596
  847MOL0     N16799  12.468   1.626  11.599 -0.4874  0.1930  0.0985
  847MOL0     N16800  12.358   1.615  11.524 -0.2244  0.2411  0.2134
  847MOL0     C16801  11.563   2.265  10.798  0.0546 -0.4597 -0.2971
  847MOL0     C16802  11.500   2.368  10.730  0.2037  1.0875 -0.4176
  847MOL0     C16803  11.227   2.666  10.581  0.9151  0.7957  0.3008
  847MOL0     C16804  11.287   2.688  10.452  0.1182 -0.1896 -0.1972
  847MOL0     C16805  11.249   2.801  10.372  0.4427  0.0650 -0.1631
  847MOL0     C16806  11.174   2.905  10.427  0.1736  0.2695 -0.2197
  847MOL0     O16807  11.151   3.015  10.360 -0.5110  0.6649  0.1243
  847MOL0     C16808  11.129   3.142  10.420 -0.3571  0.2105  0.2205
  847MOL0     C16809  11.164   3.243  10.308 -0.1818  0.5043  0.2687
  847MOL0     C16810  11.315   3.238  10.284  0.1950  0.8766 -0.5000
  847MOL0     C16811  11.361   3.352  10.191  1.1425  1.1470  0.0658
  847MOL0     C16812  11.498   3.360  10.218  0.8822  0.1270 -0.5550
  847MOL0     C16813  11.610   3.376  10.237 -0.3625  0.2414 -0.0081
  847MOL0     C16814  11.121   2.883  10.561  0.8601 -0.5513 -0.4336
  847MOL0     C16815  11.147   2.771  10.637  1.1828 -0.5755  0.6108
  847MOL0     C16816  11.078   2.778  10.769  0.3208 -0.4713 -0.7015
  847MOL0     H16817  11.271   2.193  10.545  0.0461 -1.4260  0.6183
  847MOL0     H16818  11.353   2.015  10.709 -1.0894  0.5734 -1.8083
  847MOL0     H16819  11.682   2.106  11.015  1.1845 -1.7395  2.7835
  847MOL0     H16820  11.756   2.080  10.851 -0.7782 -2.3723 -1.9412
  847MOL0     H16821  11.645   1.850  11.031  1.0159  1.3920  2.4565
  847MOL0     H16822  11.775   1.836  10.908 -1.7574 -1.8667  1.9283
  847MOL0     H16823  11.812   1.988  11.163  2.5951  0.2295  0.4561
  847MOL0     H16824  11.855   1.824  11.125 -0.3555  0.3178  1.8943
  847MOL0     H16825  11.996   1.914  10.919  3.3068  0.4386  0.8973
  847MOL0     H16826  11.960   2.077  10.981 -3.9280 -0.2949 -1.8045
  847MOL0     H16827  12.067   2.034  11.185  2.3200 -0.9107  1.4784
  847MOL0     H16828  12.183   1.994  11.059  1.3178  1.0537  1.6903
  847MOL0     H16829  12.033   1.784  11.210 -0.6980 -0.2847 -2.5635
  847MOL0     H16830  12.152   1.761  11.074  1.0944  0.6868 -0.7904
  847MOL0     H16831  12.210   1.880  11.339 -1.0837 -0.4791 -0.3073
  847MOL0     H16832  12.316   1.882  11.209  0.1193 -2.0926 -2.1206
  847MOL0     H16833  12.208   1.615  11.318  0.0827  0.1669  0.4723
  847MOL0     H16834  12.328   1.643  11.197 -0.7627 -1.3680 -0.6239
  847MOL0     H16835  12.553   1.792  11.330  1.9021  0.2042  0.9549
  847MOL0     H16836  12.713   1.862  11.537  2.5684  0.1078  0.1152
  847MOL0     H16837  12.764   1.689  11.555 -0.7115 -1.9994  2.4547
  847MOL0     H16838  12.778   1.850  11.767 -0.7707  0.3014  1.1987
  847MOL0     H16839  12.613   1.846  11.770  0.0063  0.6360  0.5455
  847MOL0     H16840  12.635   1.587  11.799  0.0781  0.3702 -2.4502
  847MOL0     H16841  12.812   1.612  11.797 -1.1152 -3.4551 -0.2641
  847MOL0     H16842  12.594   1.709  11.993 -0.7415 -0.4326 -1.6260
  847MOL0     H16843  12.711   1.585  12.031  0.8806 -0.0255 -1.1646
  847MOL0     H16844  12.953   1.563  11.938 -1.5171  0.3257  1.3496
  847MOL0     H16845  13.108   1.448  11.900 -0.5808 -0.9665 -0.5848
  847MOL0     H16846  13.266   1.469  11.987 -0.0024  1.8924  1.0439
  847MOL0     H16847  13.243   1.537  11.827  0.8357 -2.4282 -0.4547
  847MOL0     H16848  13.496   1.927  12.353  3.4254 -0.0560  2.6567
  847MOL0     H16849  13.716   1.984  12.416 -0.3244 -0.7719  0.9027
  847MOL0     H16850  13.945   1.918  12.487  0.2352  0.4090 -0.5293
  847MOL0     H16851  13.933   1.774  12.398  0.7539  0.3300 -0.7908
  847MOL0     H16852  14.155   1.791  12.460 -1.1986  0.0909 -0.2401
  847MOL0     H16853  14.145   1.807  12.278 -1.2564  1.9593 -1.7046
  847MOL0     H16854  14.130   2.073  12.380 -0.1850 -1.1775 -1.8397
  847MOL0     H16855  14.239   2.009  12.273  1.5148  0.7047  0.8967
  847MOL0     H16856  14.415   1.949  12.399 -1.3483 -0.1756 -1.8984
  847MOL0     H16857  14.322   1.897  12.535 -1.1590  2.2292  0.9914
  847MOL0     H16858  14.294   2.139  12.592  1.1242  1.7987  0.2066
  847MOL0     H16859  14.470   2.093  12.599  2.8268 -1.2127 -2.8851
  847MOL0     H16860  14.337   2.241  12.363  0.0504 -1.5293 -1.4364
  847MOL0     H16861  14.502   2.191  12.362 -1.0579  0.1396 -0.2226
  847MOL0     H16862  14.520   2.352  12.566 -0.7721  1.6881  1.9306
  847MOL0     H16863  14.350   2.385  12.547 -1.7990 -5.0784 -1.3103
  847MOL0     H16864  14.378   2.479  12.328  1.6937  0.0088 -3.0428
  847MOL0     H16865  14.554   2.457  12.339 -0.7838 -0.3521 -0.1931
  847MOL0     H16866  13.866   1.829  12.041 -1.6695 -1.1172 -1.7476
  847MOL0     H16867  13.645   1.770  11.974 -2.5219  2.3309 -0.7715
  847MOL0     H16868  13.206   1.952  12.090  2.6568 -0.9338 -3.4908
  847MOL0     H16869  12.965   1.960  12.092 -0.9890 -1.6035  0.0575
  847MOL0     H16870  11.645   2.287  10.866  0.8356 -1.8252 -0.7312
  847MOL0     H16871  11.545   2.466  10.743  1.0092  0.5231  1.4302
  847MOL0     H16872  11.355   2.617  10.407  0.7453 -0.4314  1.0780
  847MOL0     H16873  11.299   2.816  10.277 -0.2174  2.6040 -0.1559
  847MOL0     H16874  11.023   3.154  10.445 -0.2163  1.3261  0.3289
  847MOL0     H16875  11.187   3.160  10.510  1.5418  2.4947 -1.3599
  847MOL0     H16876  11.127   3.341  10.336  0.9737  1.8696 -2.5335
  847MOL0     H16877  11.107   3.225  10.216 -0.0256 -2.9292  0.6821
  847MOL0     H16878  11.373   3.235  10.376  0.7066 -0.1338 -0.8326
  847MOL0     H16879  11.333   3.138  10.243 -2.1507 -0.4336  1.4232
  847MOL0     H16880  11.319   3.452  10.207 -0.2501  0.2515  2.7348
  847MOL0     H16881  11.360   3.330  10.084  0.3154  0.3328  0.2198
  847MOL0     H16882  11.716   3.378  10.253 -0.3884 -0.5943  0.3258
  847MOL0     H16883  11.047   2.953  10.598 -0.8217 -1.4173 -2.0196
  847MOL0     H16884  11.139   2.739  10.851 -2.3243 -1.9484  0.7234
  847MOL0     H16885  11.052   2.880  10.800  1.6929 -0.6673  1.2510
  847MOL0     H16886  10.980   2.729  10.766 -0.4762  1.1103 -1.9279
  848MOL0     O16887   2.163  10.120  10.921 -0.2460  0.0099  0.2405
  848MOL0     C16888   2.055  10.102  10.969 -0.3283 -0.2091 -0.6280
  848MOL0     O16889   1.953  10.186  10.960 -0.6318 -0.9274  0.7649
  848MOL0     C16890   1.953  10.314  11.009  0.5562  0.2250  0.9301
  848MOL0     C16891   2.064  10.372  11.070  0.3060  0.9263 -0.0577
  848MOL0     C16892   2.048  10.505  11.122  0.0982  0.0332  0.2216
  848MOL0     C16893   1.929  10.580  11.119  0.6549  0.8612  0.2605
  848MOL0     O16894   1.929  10.703  11.181 -0.5069  0.6351 -0.2601
  848MOL0     C16895   1.825  10.797  11.146 -0.9705  1.0829  0.4062
  848MOL0     C16896   1.875  10.929  11.190  0.1808  0.0596 -0.2355
  848MOL0     C16897   1.800  11.050  11.132  0.8580 -0.7710  0.0950
  848MOL0     C16898   1.742  11.154  11.237  0.2483  1.1891 -0.6539
  848MOL0     C16899   1.662  11.276  11.180 -0.1535  0.3237 -0.7304
  848MOL0     C16900   1.766  11.370  11.115 -0.5054  0.6657  0.0450
  848MOL0     C16901   1.699  11.502  11.083  0.2630  0.7928  0.6429
  848MOL0     C16902   1.790  11.583  10.989  0.1031 -0.1759  0.1554
  848MOL0     N16903   1.771  11.532  10.856  0.3683 -0.5805 -0.0983
  848MOL0     C16904   1.652  11.560  10.786 -0.6008 -0.3572  0.0070
  848MOL0     C16905   1.665  11.484  10.676  0.2700 -0.2851 -0.4619
  848MOL0     C16906   1.569  11.468  10.563  0.0850 -0.5795  0.9479
  848MOL0     C16907   1.643  11.470  10.428 -0.1135  0.2696 -0.0985
  848MOL0     C16908   1.696  11.325  10.395  0.1088  0.4476 -0.5767
  848MOL0     C16909   1.587  11.242  10.319 -0.2454  0.3726  0.1787
  848MOL0     O16910   1.491  11.195  10.418  0.5884  0.1346 -0.3549
  848MOL0     C16911   1.384  11.113  10.381  0.3946 -0.5210  0.4821
  848MOL0     C16912   1.263  11.143  10.444 -0.2189  0.1557  0.5708
  848MOL0     C16913   1.148  11.063  10.400 -0.3279 -1.1397  0.1751
  848MOL0     C16914   1.014  11.103  10.441 -0.6694 -0.8275 -0.0589
  848MOL0     C16915   1.161  10.954  10.303  1.5347 -0.0933 -0.3550
  848MOL0     C16916   1.051  10.881  10.250  1.4127  0.5721  0.2633
  848MOL0     O16917   1.044  10.868  10.115  0.0669  0.0319 -0.1435
  848MOL0     C16918   0.954  10.771  10.068  0.0083 -0.6565 -0.8357
  848MOL0     C16919   0.836  10.807  10.004 -0.4323 -0.2207 -0.8536
  848MOL0     C16920   0.746  10.711   9.970 -0.1444  0.3998  0.1439
  848MOL0     C16921   0.775  10.568   9.984 -0.1413  0.2497 -0.4652
  848MOL0     O16922   0.693  10.461   9.934 -0.2997 -0.3252  0.6077
  848MOL0     C16923   0.560  10.440   9.995  0.9053 -0.1228 -0.5898
  848MOL0     C16924   0.455  10.400   9.884  0.2087 -0.5451  1.1622
  848MOL0     C16925   0.483  10.247   9.844  0.6833 -0.7154  0.6406
  848MOL0     C16926   0.396  10.189   9.734 -0.5439  0.2940  1.0220
  848MOL0     C16927   0.443  10.047   9.672 -0.4369  0.7591  0.1483
  848MOL0     C16928   0.373  10.003   9.537 -0.6208 -0.0879  0.0351
  848MOL0     C16929   0.402  10.097   9.413  0.6120  0.0046  0.6628
  848MOL0     C16930   0.278  10.119   9.327  0.5627  0.2188  0.4528
  848MOL0    Cl16931   0.249   9.961   9.250  0.2505 -0.0968 -0.1157
  848MOL0     C16932   0.905  10.531  10.032 -0.2914  0.8381  0.3722
  848MOL0     C16933   0.989  10.633  10.076  0.4296 -0.1866 -0.8104
  848MOL0     O16934   0.973  10.834  10.330  0.4136 -0.3527 -0.1497
  848MOL0     C16935   1.286  10.936  10.240  0.4018 -0.0312 -0.8621
  848MOL0     C16936   1.395  11.016  10.286 -0.1162 -0.0593 -0.8335
  848MOL0     N16937   1.786  11.418  10.682  0.1926 -0.3015  0.4278
  848MOL0     N16938   1.848  11.447  10.783 -1.1217 -0.0763 -0.3177
  848MOL0     C16939   1.818  10.512  11.065 -0.1618 -0.5283 -0.3639
  848MOL0     C16940   1.827  10.384  11.015  1.3053 -0.5218 -0.3500
  848MOL0     C16941   2.018   9.971  11.035  0.5082  0.6032 -0.0356
  848MOL0     C16942   1.890   9.954  11.097  0.0116  0.9201  1.1191
  848MOL0     C16943   1.861   9.836  11.169 -0.9473  0.1992  0.4964
  848MOL0     C16944   1.945   9.724  11.153  0.1324 -0.7174 -0.8389
  848MOL0     O16945   1.904   9.606  11.221  0.4184 -0.7571 -0.0495
  848MOL0     C16946   1.997   9.501  11.250  0.7307  0.5982 -0.8769
  848MOL0     C16947   1.971   9.439  11.390 -0.7398 -1.0499  0.2747
  848MOL0     C16948   1.865   9.332  11.383 -0.5320 -0.6363  0.2401
  848MOL0     C16949   1.862   9.277  11.520  0.6489 -0.3481  0.2363
  848MOL0     C16950   1.796   9.152  11.546 -0.6232 -0.1478 -0.1770
  848MOL0     C16951   1.748   9.039  11.558 -0.3269 -0.5547  0.3632
  848MOL0     C16952   2.068   9.730  11.091 -0.2765 -0.7983 -0.2402
  848MOL0     C16953   2.102   9.849  11.030  0.3378 -0.8470  0.8746
  848MOL0     C16954   2.239   9.848  10.959  0.1311 -0.9537  0.2788
  848MOL0     H16955   2.162  10.326  11.074  0.9413  1.9952 -2.0150
  848MOL0     H16956   2.133  10.559  11.162 -0.5983 -0.0545  1.9259
  848MOL0     H16957   1.735  10.772  11.202 -2.8468  1.6284 -2.1807
  848MOL0     H16958   1.800  10.807  11.040  0.5917  2.0347  0.0915
  848MOL0     H16959   1.859  10.950  11.296  2.9655  3.5038 -0.3243
  848MOL0     H16960   1.984  10.934  11.177  0.5500 -3.1759  0.6868
  848MOL0     H16961   1.865  11.104  11.062 -0.2103  0.3471 -0.0612
  848MOL0     H16962   1.712  11.034  11.070  0.3792  2.3782 -0.2145
  848MOL0     H16963   1.669  11.099  11.296  0.3010  3.2529  1.4621
  848MOL0     H16964   1.827  11.178  11.302 -0.6080  0.6302  0.7027
  848MOL0     H16965   1.604  11.331  11.255 -1.6077 -0.5860 -1.1556
  848MOL0     H16966   1.587  11.244  11.108  1.8175  0.3992 -2.9525
  848MOL0     H16967   1.852  11.383  11.181 -0.0026 -3.1536  0.3777
  848MOL0     H16968   1.802  11.321  11.024 -2.1249 -1.8884  0.6893
  848MOL0     H16969   1.695  11.551  11.181  1.0450 -0.2550  1.2234
  848MOL0     H16970   1.599  11.494  11.041 -0.6878 -1.3764  3.0677
  848MOL0     H16971   1.762  11.688  11.004  0.4262 -0.3989  2.8204
  848MOL0     H16972   1.895  11.579  11.016 -0.0105 -0.3843  0.5649
  848MOL0     H16973   1.573  11.632  10.804 -0.9739 -0.9597  0.9073
  848MOL0     H16974   1.492  11.546  10.562  0.2508 -0.4182  0.4180
  848MOL0     H16975   1.508  11.377  10.572  0.0536 -0.6131  0.4408
  848MOL0     H16976   1.572  11.515  10.358 -3.5289 -2.9214  0.9629
  848MOL0     H16977   1.733  11.533  10.431  0.4294 -0.4959  1.6146
  848MOL0     H16978   1.771  11.335  10.315 -1.1370  1.1358 -1.7047
  848MOL0     H16979   1.741  11.271  10.478  0.6226  2.7520  0.7426
  848MOL0     H16980   1.536  11.296  10.239 -0.9015  1.9865  1.6314
  848MOL0     H16981   1.631  11.152  10.274  0.1849  0.5488  0.2346
  848MOL0     H16982   1.253  11.220  10.520  0.0954 -0.6048  1.3935
  848MOL0     H16983   1.008  11.205  10.480  0.4402 -1.0347  0.6953
  848MOL0     H16984   0.989  11.029  10.518  1.6124  1.2166  2.8414
  848MOL0     H16985   0.938  11.090  10.363 -1.2924 -1.5462  0.6541
  848MOL0     H16986   0.812  10.910   9.980  2.4834  0.3111 -1.8353
  848MOL0     H16987   0.653  10.734   9.919 -0.0214  0.1739 -0.1823
  848MOL0     H16988   0.564  10.353  10.062 -0.0918 -0.7186 -1.2858
  848MOL0     H16989   0.532  10.532  10.047  3.0305  1.9527 -2.8243
  848MOL0     H16990   0.352  10.397   9.921  0.0288 -2.4563  0.6495
  848MOL0     H16991   0.457  10.462   9.795 -2.3380 -0.7103  0.9019
  848MOL0     H16992   0.454  10.191   9.934 -1.2031 -0.0466  0.5014
  848MOL0     H16993   0.591  10.237   9.830  0.8079 -1.9748  2.1205
  848MOL0     H16994   0.405  10.260   9.651  0.8603 -0.9748  0.0451
  848MOL0     H16995   0.290  10.192   9.762 -0.3564 -0.7315  1.8841
  848MOL0     H16996   0.552  10.051   9.662 -0.1455  2.6249  2.9791
  848MOL0     H16997   0.409   9.966   9.738 -4.5208  0.3805 -2.0706
  848MOL0     H16998   0.268  10.010   9.564 -0.4445 -0.6952  0.9139
  848MOL0     H16999   0.398   9.900   9.513 -4.9471 -1.9975  2.5520
  848MOL0     H17000   0.485  10.045   9.364 -0.2143 -1.3678  0.6637
  848MOL0     H17001   0.445  10.194   9.441  2.4307 -0.5424 -0.1086
  848MOL0     H17002   0.296  10.186   9.243  1.8092  0.0023  0.5287
  848MOL0     H17003   0.193  10.151   9.389 -1.5341 -0.3201 -1.9740
  848MOL0     H17004   0.929  10.427  10.049  0.7915  1.2360  1.4895
  848MOL0     H17005   1.081  10.609  10.128 -0.3777 -1.6520  0.0185
  848MOL0     H17006   1.298  10.861  10.163  0.9759  0.5527 -1.3575
  848MOL0     H17007   1.491  10.991  10.242  0.7485 -1.6925  1.7037
  848MOL0     H17008   1.720  10.559  11.075 -0.3156 -0.5047 -1.7942
  848MOL0     H17009   1.747  10.332  10.964  1.1844 -0.1335 -0.5547
  848MOL0     H17010   1.817  10.032  11.113 -2.1442 -0.7734  0.0852
  848MOL0     H17011   1.779   9.825  11.240  0.4087 -2.4785  1.7912
  848MOL0     H17012   1.992   9.424  11.172  3.0606  0.3023 -0.7904
  848MOL0     H17013   2.099   9.539  11.251  0.0064  2.6647 -1.0559
  848MOL0     H17014   1.938   9.515  11.462  3.4581  1.0027  0.3603
  848MOL0     H17015   2.073   9.411  11.420 -0.3451 -0.8283 -0.8395
  848MOL0     H17016   1.767   9.376  11.362 -1.4037 -1.2795  2.6407
  848MOL0     H17017   1.907   9.257  11.315  1.8962 -0.0822  1.0275
  848MOL0     H17018   1.796   9.348  11.570 -0.6927 -0.6289 -1.0579
  848MOL0     H17019   1.960   9.275  11.569  1.3713  0.4018 -1.1098
  848MOL0     H17020   1.733   8.934  11.572  4.3285 -1.6311 -1.0956
  848MOL0     H17021   2.136   9.645  11.086  0.4817 -0.2178 -0.1264
  848MOL0     H17022   2.209   9.842  10.854 -2.2470 -2.3588  0.9340
  848MOL0     H17023   2.303   9.936  10.967 -1.4778  0.6725 -2.8113
  848MOL0     H17024   2.293   9.763  11.002  0.4239 -0.4852  0.8498
  849MOL0     O17025  10.425   2.248   3.630  0.2257 -0.4549  0.9808
  849MOL0     C17026  10.309   2.217   3.655 -0.6128 -0.4349  0.8296
  849MOL0     O17027  10.258   2.188   3.780  0.0928  0.2788  0.2543
  849MOL0     C17028  10.313   2.268   3.885  1.1964  0.4543  0.3410
  849MOL0     C17029  10.324   2.202   4.014 -0.4268 -0.7112 -0.4821
  849MOL0     C17030  10.385   2.266   4.123  0.0985  0.9801  1.1214
  849MOL0     C17031  10.419   2.401   4.107  0.1813 -0.1880 -0.9470
  849MOL0     O17032  10.485   2.479   4.205  0.5400 -0.6970 -0.5336
  849MOL0     C17033  10.453   2.447   4.338 -0.0759  0.5760 -0.5400
  849MOL0     C17034  10.313   2.466   4.389  0.5577 -0.2495 -0.2820
  849MOL0     C17035  10.282   2.610   4.423 -0.5718 -0.0064  0.2069
  849MOL0     C17036  10.132   2.630   4.451 -0.1187  0.1760 -0.2237
  849MOL0     C17037  10.111   2.744   4.547 -0.2818 -0.2638  0.0032
  849MOL0     C17038  10.123   2.891   4.483  0.9381  0.1419 -0.9715
  849MOL0     C17039   9.974   2.949   4.442  0.0659 -0.9526  0.2741
  849MOL0     C17040   9.979   3.085   4.375 -0.0216 -0.2894  0.1134
  849MOL0     N17041   9.853   3.133   4.328  1.2148  0.0426 -0.7397
  849MOL0     C17042   9.846   3.249   4.257 -0.0805 -0.3421 -0.5241
  849MOL0     C17043   9.720   3.247   4.212 -0.2076 -0.5099  0.1272
  849MOL0     C17044   9.659   3.366   4.144 -0.0462  0.9153 -0.1194
  849MOL0     C17045   9.503   3.347   4.133 -1.3557 -0.8730 -0.0467
  849MOL0     C17046   9.429   3.481   4.123  0.0047  0.4904  0.1763
  849MOL0     C17047   9.436   3.584   4.241  1.4041 -0.4651 -1.3814
  849MOL0     O17048   9.404   3.530   4.370 -0.8434  0.5909  0.3681
  849MOL0     C17049   9.382   3.614   4.482  0.4725 -0.5018  0.4857
  849MOL0     C17050   9.397   3.556   4.609 -0.3650 -0.4434  0.9928
  849MOL0     C17051   9.385   3.633   4.717  1.1421 -0.1205  0.5612
  849MOL0     C17052   9.398   3.561   4.840 -0.0545 -0.1473 -0.6093
  849MOL0     C17053   9.358   3.776   4.707 -0.1242  0.6453  0.2203
  849MOL0     C17054   9.318   3.858   4.816  0.9957 -0.4292  0.5980
  849MOL0     O17055   9.207   3.943   4.786 -0.4888  0.3036  0.1702
  849MOL0     C17056   9.128   3.991   4.892 -0.6886 -0.0775  0.2286
  849MOL0     C17057   9.045   3.892   4.958 -0.2060  0.5798 -0.8700
  849MOL0     C17058   8.995   3.933   5.086 -0.1774 -0.7942 -0.0241
  849MOL0     C17059   9.026   4.062   5.135  1.0364 -0.4921 -0.1695
  849MOL0     O17060   8.986   4.102   5.258 -0.0906  0.9748 -0.3537
  849MOL0     C17061   8.973   4.011   5.369  0.1018  0.2324 -0.0631
  849MOL0     C17062   9.040   4.092   5.494 -0.4653  0.3514  0.3377
  849MOL0     C17063   9.188   4.117   5.476  0.0968 -0.4687  0.3055
  849MOL0     C17064   9.209   4.256   5.417  1.0754 -0.7053  0.1962
  849MOL0     C17065   9.353   4.285   5.372  0.8491 -0.1280 -0.2933
  849MOL0     C17066   9.350   4.428   5.308 -0.3203  0.5186  0.8385
  849MOL0     C17067   9.366   4.547   5.400 -0.0672  0.6680  0.5949
  849MOL0     C17068   9.379   4.680   5.326  0.0893  0.1935  0.3178
  849MOL0    Cl17069   9.539   4.692   5.225 -0.0125  0.2881  0.0190
  849MOL0     C17070   9.098   4.157   5.066  0.4936  0.3146 -0.0058
  849MOL0     C17071   9.144   4.120   4.938 -0.0028 -0.5174  0.1808
  849MOL0     O17072   9.361   3.832   4.930  0.3671  0.7302  0.2103
  849MOL0     C17073   9.348   3.835   4.578 -1.2647 -0.4712 -0.1429
  849MOL0     C17074   9.373   3.757   4.472  1.1051 -0.8395  0.3840
  849MOL0     N17075   9.650   3.133   4.254 -0.3110 -0.9987 -0.0906
  849MOL0     N17076   9.725   3.067   4.333 -1.2824 -0.4878 -0.1562
  849MOL0     C17077  10.389   2.469   3.991 -0.4565 -0.4478  0.6581
  849MOL0     C17078  10.341   2.403   3.878 -0.1767  1.0686  0.0637
  849MOL0     C17079  10.226   2.197   3.544 -0.3252  0.9095  0.3825
  849MOL0     C17080  10.258   2.100   3.445  0.0063 -0.7802  0.7513
  849MOL0     C17081  10.177   2.098   3.333 -0.6005  0.8706  0.5085
  849MOL0     C17082  10.066   2.174   3.314 -0.5318 -0.2578  0.2204
  849MOL0     O17083   9.982   2.159   3.211  0.0368 -0.4541 -0.0235
  849MOL0     C17084   9.926   2.029   3.197 -0.0636  0.5623  1.5515
  849MOL0     C17085   9.984   1.952   3.073  0.3616  0.3921 -0.9979
  849MOL0     C17086   9.940   2.018   2.938  1.0231  0.1760  0.5428
  849MOL0     C17087   9.981   1.935   2.811 -0.7162  0.2733 -0.2372
  849MOL0     C17088   9.951   2.003   2.679  0.9992  0.1587  0.3630
  849MOL0     C17089   9.922   2.064   2.582  0.2534  0.1645 -0.2334
  849MOL0     C17090  10.037   2.262   3.419  0.6750 -0.3403 -0.2898
  849MOL0     C17091  10.117   2.290   3.528  0.8987  0.2893  0.3807
  849MOL0     C17092  10.068   2.404   3.625  0.7894 -0.2661  0.4582
  849MOL0     H17093  10.305   2.098   4.042  1.3635 -0.2418  2.9577
  849MOL0     H17094  10.412   2.205   4.208 -1.4946 -4.3540 -1.7706
  849MOL0     H17095  10.520   2.513   4.394  0.0926 -0.5654  0.6586
  849MOL0     H17096  10.487   2.351   4.379 -0.9848  1.6099  3.0401
  849MOL0     H17097  10.229   2.447   4.322  1.4258  2.8597 -2.5271
  849MOL0     H17098  10.310   2.397   4.474  3.3813 -0.8986 -0.5954
  849MOL0     H17099  10.339   2.641   4.511  1.8255  0.1594 -1.2981
  849MOL0     H17100  10.299   2.667   4.331 -0.1333  0.4933  0.5858
  849MOL0     H17101  10.088   2.652   4.353  2.3004  1.7378 -1.0691
  849MOL0     H17102  10.089   2.542   4.499  1.8942  1.2237  3.8957
  849MOL0     H17103  10.185   2.728   4.626 -0.8771 -2.3799  0.1835
  849MOL0     H17104  10.013   2.737   4.593 -0.5428  1.2072 -0.2803
  849MOL0     H17105  10.171   2.952   4.560  0.2424  1.5945 -1.6492
  849MOL0     H17106  10.195   2.880   4.402  1.3670  0.0345 -0.5803
  849MOL0     H17107   9.919   2.950   4.537 -2.7788 -1.0656 -1.2507
  849MOL0     H17108   9.929   2.872   4.378  0.8210 -1.4945  0.3849
  849MOL0     H17109  10.021   3.160   4.443 -0.9201  1.1268 -0.8221
  849MOL0     H17110  10.059   3.077   4.301 -0.5885 -1.2622 -0.4079
  849MOL0     H17111   9.926   3.319   4.237  0.7930 -1.6086 -1.7000
  849MOL0     H17112   9.704   3.370   4.044  2.7549 -2.7576  0.7477
  849MOL0     H17113   9.688   3.451   4.206  1.4904 -1.4789  2.7213
  849MOL0     H17114   9.479   3.282   4.047 -5.1039 -0.9344  0.8593
  849MOL0     H17115   9.463   3.304   4.225 -0.0363  4.3829  3.4197
  849MOL0     H17116   9.471   3.530   4.035  1.8711  0.7842  1.1872
  849MOL0     H17117   9.323   3.468   4.099  0.2399 -1.1803 -0.0714
  849MOL0     H17118   9.540   3.615   4.257  1.6783 -1.3779 -1.3254
  849MOL0     H17119   9.374   3.672   4.221 -0.8140 -2.0240 -1.7385
  849MOL0     H17120   9.416   3.449   4.609 -3.4935 -1.0936 -0.2083
  849MOL0     H17121   9.496   3.567   4.888 -1.5209 -1.3082  2.8112
  849MOL0     H17122   9.389   3.452   4.845 -1.4023  0.0126  2.1608
  849MOL0     H17123   9.319   3.591   4.910  2.8844  0.9245  2.5359
  849MOL0     H17124   9.036   3.791   4.919 -0.6020 -0.2436  1.1840
  849MOL0     H17125   8.934   3.866   5.147 -1.4211 -0.2793 -0.6763
  849MOL0     H17126   8.869   3.981   5.376 -0.2975  1.1185 -1.5730
  849MOL0     H17127   9.031   3.920   5.348  3.2091  2.2812 -1.1367
  849MOL0     H17128   8.997   4.190   5.519  1.1492  0.6138  2.3647
  849MOL0     H17129   9.025   4.031   5.583 -0.2883  0.4113  0.4088
  849MOL0     H17130   9.229   4.042   5.407 -2.0188 -0.1922 -1.3739
  849MOL0     H17131   9.233   4.119   5.575  1.1763 -2.4413 -0.0831
  849MOL0     H17132   9.172   4.329   5.489 -0.1941 -0.5715 -0.5695
  849MOL0     H17133   9.144   4.269   5.330 -0.7689  2.0743  1.8442
  849MOL0     H17134   9.416   4.283   5.461 -0.9032  3.6441  1.2319
  849MOL0     H17135   9.375   4.210   5.295 -0.6214 -0.9066  0.0077
  849MOL0     H17136   9.253   4.442   5.260 -0.6074 -2.0050  0.5690
  849MOL0     H17137   9.425   4.425   5.227 -2.8331 -1.6850 -1.6310
  849MOL0     H17138   9.456   4.544   5.462  2.0996  2.9469 -2.1619
  849MOL0     H17139   9.280   4.541   5.468 -0.6717 -1.5479 -0.2724
  849MOL0     H17140   9.387   4.758   5.402  0.9653  2.2839 -1.7804
  849MOL0     H17141   9.291   4.707   5.268  0.1791  1.8256  0.8821
  849MOL0     H17142   9.097   4.254   5.115  3.0410 -0.6795  2.2900
  849MOL0     H17143   9.193   4.191   4.871 -1.6729  0.6388  0.1163
  849MOL0     H17144   9.344   3.941   4.558 -2.0916 -0.5867 -0.6426
  849MOL0     H17145   9.362   3.811   4.378 -1.6452  0.5052  1.3731
  849MOL0     H17146  10.403   2.577   3.993 -2.1669 -0.2065  1.4892
  849MOL0     H17147  10.307   2.457   3.790 -0.3303  2.4712  0.9519
  849MOL0     H17148  10.349   2.041   3.452  1.1100  0.6084 -1.0407
  849MOL0     H17149  10.210   2.028   3.257 -1.3780  1.5826 -0.4990
  849MOL0     H17150   9.927   1.974   3.292 -1.7630 -0.0529  1.2487
  849MOL0     H17151   9.820   2.039   3.171 -0.6427 -4.1005  1.2084
  849MOL0     H17152   9.949   1.848   3.080 -0.3038  0.6236 -0.8883
  849MOL0     H17153  10.093   1.951   3.083  0.3286  2.8603  0.0874
  849MOL0     H17154   9.832   2.007   2.931  1.0472 -0.7162  1.3807
  849MOL0     H17155   9.982   2.119   2.930  0.1613  0.4223 -1.2332
  849MOL0     H17156   9.911   1.851   2.821  0.0681 -0.3875 -0.1911
  849MOL0     H17157  10.085   1.901   2.807 -0.4628  1.1336 -3.4074
  849MOL0     H17158   9.886   2.105   2.489 -1.7540  1.7509  1.1520
  849MOL0     H17159   9.949   2.321   3.394  1.2898 -0.3129 -2.5615
  849MOL0     H17160  10.016   2.364   3.713 -0.1955  2.7806  1.3794
  849MOL0     H17161  10.148   2.467   3.666  0.5240  0.4074 -0.0318
  849MOL0     H17162   9.990   2.463   3.576 -0.9945 -1.3524  1.8417
  850MOL0     O17163   5.232   1.196   7.515  0.5479  0.7300  0.2923
  850MOL0     C17164   5.279   1.253   7.608  0.8972 -0.4189 -1.6247
  850MOL0     O17165   5.388   1.332   7.611 -0.1150  0.2008 -1.1761
  850MOL0     C17166   5.478   1.330   7.516 -0.2200  0.8524 -0.0808
  850MOL0     C17167   5.489   1.229   7.421 -0.3014  1.3699  1.2106
  850MOL0     C17168   5.583   1.242   7.317  0.3529 -0.5228 -0.1384
  850MOL0     C17169   5.673   1.352   7.301 -0.4165  0.0157 -0.2348
  850MOL0     O17170   5.768   1.354   7.199 -0.3844 -0.2774 -0.4047
  850MOL0     C17171   5.722   1.327   7.061 -0.2293  0.9099  0.0590
  850MOL0     C17172   5.655   1.451   7.000 -0.3614 -0.4331 -0.5801
  850MOL0     C17173   5.746   1.570   7.011 -0.4947 -0.7629  0.8087
  850MOL0     C17174   5.679   1.686   6.947 -0.5155 -0.1716 -0.5529
  850MOL0     C17175   5.748   1.823   6.947 -0.0722 -0.0723 -0.5761
  850MOL0     C17176   5.664   1.931   6.880  0.5495  0.5371  0.1596
  850MOL0     C17177   5.551   1.986   6.961 -0.5472  0.0762  0.0457
  850MOL0     C17178   5.480   2.115   6.901 -0.1281 -0.0285  0.3499
  850MOL0     N17179   5.409   2.185   7.005  0.4511 -0.2034  0.8300
  850MOL0     C17180   5.307   2.278   6.979 -0.8436  0.3411 -0.2447
  850MOL0     C17181   5.256   2.316   7.102  1.3873  1.3418  0.6462
  850MOL0     C17182   5.138   2.389   7.129 -0.3269 -0.9863 -0.5066
  850MOL0     C17183   5.119   2.508   7.033 -0.3303 -0.0109 -0.0614
  850MOL0     C17184   5.222   2.622   7.045  0.6086  1.4034  0.5313
  850MOL0     C17185   5.161   2.757   7.029  0.8789 -0.7335 -0.1963
  850MOL0     O17186   5.038   2.765   7.108  0.6556  0.1539 -0.1366
  850MOL0     C17187   4.934   2.854   7.075  0.2848  0.7734 -0.4044
  850MOL0     C17188   4.839   2.863   7.182  0.8120  0.3314 -0.1568
  850MOL0     C17189   4.745   2.966   7.185  0.5213 -0.2134  0.4771
  850MOL0     C17190   4.663   2.981   7.310 -0.1653  0.1294  0.9909
  850MOL0     C17191   4.737   3.056   7.066 -0.2061 -0.7295 -0.7190
  850MOL0     C17192   4.637   3.162   7.060  0.1277  1.0093 -0.4911
  850MOL0     O17193   4.688   3.278   7.014  0.5677 -0.3648  0.2817
  850MOL0     C17194   4.604   3.378   6.969 -0.4386  0.6039 -0.4043
  850MOL0     C17195   4.584   3.496   7.050  0.2879 -0.0167  0.5716
  850MOL0     C17196   4.511   3.610   6.993  0.2040  0.9861 -0.8862
  850MOL0     C17197   4.446   3.589   6.873  0.3913  0.6047  0.1424
  850MOL0     O17198   4.380   3.687   6.805  0.0669  0.1859  0.3517
  850MOL0     C17199   4.469   3.784   6.741  0.0333  0.4952 -0.3934
  850MOL0     C17200   4.415   3.835   6.617  0.8713  0.2578  0.5830
  850MOL0     C17201   4.413   3.726   6.508  0.4018 -0.3112 -0.2731
  850MOL0     C17202   4.371   3.778   6.371  0.2601 -0.2339 -0.1876
  850MOL0     C17203   4.324   3.668   6.278 -0.1971  0.7028  0.2291
  850MOL0     C17204   4.417   3.543   6.284 -1.1826 -0.6026  0.1147
  850MOL0     C17205   4.560   3.583   6.253 -0.6544 -0.3521  0.6268
  850MOL0     C17206   4.579   3.643   6.114 -0.3155  0.7366  0.1081
  850MOL0    Cl17207   4.501   3.519   5.997 -0.2968  0.1615 -0.3198
  850MOL0     C17208   4.465   3.470   6.796 -0.6296 -0.6921 -0.7263
  850MOL0     C17209   4.548   3.368   6.853 -1.3352 -0.5214  1.3507
  850MOL0     O17210   4.521   3.138   7.087 -0.2443  0.4244 -0.3773
  850MOL0     C17211   4.827   3.039   6.955 -0.4845  0.7312 -0.7519
  850MOL0     C17212   4.932   2.945   6.968 -0.0561  0.0934 -0.2001
  850MOL0     N17213   5.328   2.255   7.195 -0.0603 -0.5799 -0.0368
  850MOL0     N17214   5.421   2.175   7.139 -0.1546 -1.1812 -0.9418
  850MOL0     C17215   5.663   1.449   7.395  0.1630 -1.2168 -0.6166
  850MOL0     C17216   5.567   1.436   7.502  0.6011 -0.6222  1.0041
  850MOL0     C17217   5.193   1.258   7.726 -1.1066  0.1031  0.8412
  850MOL0     C17218   5.117   1.379   7.762 -0.0746  0.3756  0.8983
  850MOL0     C17219   5.030   1.373   7.866 -0.0314  0.2459  0.1622
  850MOL0     C17220   5.012   1.257   7.943  0.2214 -0.1679  1.5098
  850MOL0     O17221   4.922   1.261   8.044  1.4191  0.8895 -0.3719
  850MOL0     C17222   4.937   1.371   8.139 -1.2443  0.1679  0.3412
  850MOL0     C17223   4.938   1.322   8.278 -0.5054  0.7758  0.4033
  850MOL0     C17224   5.071   1.259   8.308 -0.1326  0.9993  0.0720
  850MOL0     C17225   5.065   1.162   8.426 -0.3859  0.5425 -0.0975
  850MOL0     C17226   4.977   1.205   8.528 -0.2901  0.9577 -1.0075
  850MOL0     C17227   4.910   1.229   8.615  1.5941  0.1472 -0.3778
  850MOL0     C17228   5.082   1.140   7.917  0.0401  0.9511 -0.9844
  850MOL0     C17229   5.163   1.140   7.808  0.1258  0.3178  0.4211
  850MOL0     C17230   5.237   1.014   7.779 -0.7827 -0.3658  0.1985
  850MOL0     H17231   5.422   1.144   7.406  1.6247  0.1643 -1.4633
  850MOL0     H17232   5.576   1.168   7.238 -1.7446 -1.4586  0.8359
  850MOL0     H17233   5.658   1.239   7.052 -3.9656  3.5399 -1.8216
  850MOL0     H17234   5.815   1.319   7.003 -1.8507  0.7237 -2.7098
  850MOL0     H17235   5.628   1.429   6.896 -0.9567 -0.5676 -0.3997
  850MOL0     H17236   5.557   1.466   7.046  0.0791  1.4307 -0.1480
  850MOL0     H17237   5.753   1.588   7.119 -1.3635  0.0486  0.7412
  850MOL0     H17238   5.848   1.555   6.975 -0.8849 -2.5319  0.3244
  850MOL0     H17239   5.644   1.661   6.847 -1.4677 -2.7649  0.3404
  850MOL0     H17240   5.585   1.710   6.998 -0.0239  3.7729 -1.2031
  850MOL0     H17241   5.847   1.827   6.901  0.3246  4.6928  0.2247
  850MOL0     H17242   5.771   1.842   7.053  0.0714 -0.3710 -0.5529
  850MOL0     H17243   5.712   2.022   6.844 -0.9004  1.5297  0.6493
  850MOL0     H17244   5.622   1.884   6.790  1.4089 -1.5395  0.7725
  850MOL0     H17245   5.596   2.012   7.058  1.1645  2.5772 -1.2985
  850MOL0     H17246   5.469   1.916   6.977 -0.3666 -0.5148 -1.4936
  850MOL0     H17247   5.551   2.185   6.857  0.5333  1.0644  2.9894
  850MOL0     H17248   5.396   2.085   6.837 -0.6390  3.7229 -1.0402
  850MOL0     H17249   5.265   2.307   6.883  2.0565  2.1596 -1.0946
  850MOL0     H17250   5.146   2.430   7.230  0.4082 -1.8584 -0.1875
  850MOL0     H17251   5.048   2.327   7.123 -2.0487  1.2762  0.5301
  850MOL0     H17252   5.112   2.477   6.928 -2.7551  1.2764 -0.3259
  850MOL0     H17253   5.021   2.534   7.072  0.0995 -2.0022  2.6629
  850MOL0     H17254   5.271   2.606   7.142  2.6039 -1.0250 -0.7502
  850MOL0     H17255   5.297   2.622   6.966 -2.2898  1.6418 -2.4142
  850MOL0     H17256   5.234   2.832   7.059 -0.6325  0.7866 -0.1377
  850MOL0     H17257   5.151   2.780   6.922  1.5782 -2.0296 -0.5551
  850MOL0     H17258   4.840   2.786   7.258 -1.9983 -0.7671 -1.1077
  850MOL0     H17259   4.651   3.089   7.319  2.8226  0.3458  3.9412
  850MOL0     H17260   4.715   2.947   7.400  0.1509  3.6632  2.2832
  850MOL0     H17261   4.566   2.931   7.297 -1.2028  2.3317 -0.4893
  850MOL0     H17262   4.649   3.507   7.137  0.3870  1.4324  0.3465
  850MOL0     H17263   4.512   3.708   7.040 -0.0484  1.7453 -2.3721
  850MOL0     H17264   4.492   3.869   6.806 -0.1772 -0.7912  1.4394
  850MOL0     H17265   4.559   3.729   6.711 -1.0039 -1.4575 -0.1093
  850MOL0     H17266   4.313   3.871   6.628  0.5243 -1.0166  1.8551
  850MOL0     H17267   4.478   3.923   6.602 -0.3530  1.4255  2.0107
  850MOL0     H17268   4.337   3.651   6.534  3.0451 -2.9109  0.5322
  850MOL0     H17269   4.509   3.674   6.503 -0.2519 -1.6655  0.4500
  850MOL0     H17270   4.457   3.830   6.327  1.5212 -2.6672 -0.7783
  850MOL0     H17271   4.295   3.856   6.383 -0.2973 -1.0317  1.7333
  850MOL0     H17272   4.230   3.635   6.323  0.4345  0.9052  1.7569
  850MOL0     H17273   4.322   3.712   6.177  1.7115 -1.1960 -0.7066
  850MOL0     H17274   4.381   3.470   6.211  0.0680  0.8644 -2.0907
  850MOL0     H17275   4.410   3.488   6.378 -2.4149 -1.6644 -0.5542
  850MOL0     H17276   4.621   3.492   6.248 -1.7128 -1.0309 -0.5037
  850MOL0     H17277   4.616   3.641   6.327 -1.5658  0.9355  0.3310
  850MOL0     H17278   4.688   3.644   6.103 -0.1255 -0.1995  1.6523
  850MOL0     H17279   4.537   3.742   6.094 -1.2189 -0.1646 -3.0417
  850MOL0     H17280   4.428   3.462   6.694  0.2620  2.4292 -1.4243
  850MOL0     H17281   4.570   3.280   6.793 -2.5758  0.2005 -0.2379
  850MOL0     H17282   4.834   3.104   6.868  0.0753 -5.2884 -5.9066
  850MOL0     H17283   5.007   2.932   6.891 -0.7111 -0.7326 -0.7161
  850MOL0     H17284   5.742   1.523   7.391 -1.6695  0.9929  1.2281
  850MOL0     H17285   5.576   1.512   7.579 -0.3038  1.0193 -0.4470
  850MOL0     H17286   5.126   1.474   7.709 -3.3515 -0.5267 -1.6042
  850MOL0     H17287   4.967   1.459   7.885 -0.0889  0.1219  0.5433
  850MOL0     H17288   5.036   1.415   8.127 -1.5374  1.2234  1.5183
  850MOL0     H17289   4.865   1.452   8.124 -0.9018  0.0992 -1.9268
  850MOL0     H17290   4.863   1.243   8.288 -0.2989  0.2670 -1.6349
  850MOL0     H17291   4.914   1.397   8.353  0.0581  2.9678 -1.4901
  850MOL0     H17292   5.107   1.198   8.225 -2.0165 -5.7098  3.4919
  850MOL0     H17293   5.148   1.332   8.334  0.4583  0.9775 -1.5072
  850MOL0     H17294   5.164   1.150   8.471 -0.9486 -0.6215  0.8968
  850MOL0     H17295   5.039   1.063   8.386  0.5745  1.0884 -2.1896
  850MOL0     H17296   4.840   1.264   8.689  1.7662  1.1042 -0.6568
  850MOL0     H17297   5.081   1.052   7.981 -0.3209  1.5906 -0.0858
  850MOL0     H17298   5.258   0.969   7.877 -2.1516  3.6320  2.5685
  850MOL0     H17299   5.191   0.953   7.701 -0.1710  2.9146 -3.0145
  850MOL0     H17300   5.337   1.039   7.742 -1.7159  1.0729 -1.4943
  851MOL0     O17301   6.581   0.886   1.950 -0.9014  0.7946 -0.6015
  851MOL0     C17302   6.506   0.932   1.858  0.5500  0.0726  0.6158
  851MOL0     O17303   6.365   0.919   1.863 -0.1390  0.1054 -0.0904
  851MOL0     C17304   6.300   0.831   1.938 -0.0516 -0.2407  0.1896
  851MOL0     C17305   6.351   0.705   1.974  0.0821 -0.9052  1.3248
  851MOL0     C17306   6.282   0.617   2.060  0.5542  0.9429  0.9670
  851MOL0     C17307   6.156   0.653   2.098 -0.6945  0.6593 -1.1614
  851MOL0     O17308   6.089   0.563   2.183  0.0673 -0.1472 -0.3423
  851MOL0     C17309   5.955   0.593   2.208  0.0697  0.3149  0.2672
  851MOL0     C17310   5.919   0.488   2.315 -0.2907 -0.3055 -0.7147
  851MOL0     C17311   5.955   0.522   2.453  0.7780  0.0141  0.4228
  851MOL0     C17312   5.912   0.416   2.553 -0.7453  0.0370 -0.0021
  851MOL0     C17313   5.949   0.450   2.695  0.3187  0.8679 -0.6056
  851MOL0     C17314   5.904   0.353   2.797  0.2759 -0.0122 -0.1206
  851MOL0     C17315   5.950   0.205   2.791  0.1966  0.0542 -0.8289
  851MOL0     C17316   6.103   0.203   2.836  0.4361  0.5037 -0.5088
  851MOL0     N17317   6.205   0.190   2.722 -0.1363 -0.7393 -0.6222
  851MOL0     C17318   6.306   0.288   2.683 -0.8411  1.1518 -0.1055
  851MOL0     C17319   6.359   0.231   2.569 -0.5928 -0.7058  0.3191
  851MOL0     C17320   6.436   0.310   2.466 -1.0273 -0.6471  0.7008
  851MOL0     C17321   6.481   0.455   2.514 -0.2472  0.6579 -0.5865
  851MOL0     C17322   6.501   0.538   2.386  1.0116 -0.0329  0.0503
  851MOL0     C17323   6.532   0.686   2.416  0.2681  1.0210 -0.5809
  851MOL0     O17324   6.498   0.779   2.313  0.1337 -0.0523  0.1746
  851MOL0     C17325   6.505   0.910   2.347  0.1706 -0.5955 -0.5769
  851MOL0     C17326   6.532   0.957   2.482 -0.0560  0.5144  0.3920
  851MOL0     C17327   6.526   1.095   2.505  0.8751 -1.1096  0.7400
  851MOL0     C17328   6.536   1.144   2.652  0.2425  0.3248 -0.1143
  851MOL0     C17329   6.484   1.190   2.399 -0.1947  0.2522  0.0010
  851MOL0     C17330   6.461   1.336   2.422  0.6117  0.2514 -1.0956
  851MOL0     O17331   6.403   1.400   2.317 -0.3992  0.3120 -0.4972
  851MOL0     C17332   6.394   1.534   2.303  0.7130  0.2392  0.0371
  851MOL0     C17333   6.487   1.632   2.332  0.0626  0.7064 -0.2212
  851MOL0     C17334   6.458   1.764   2.302  0.7808 -0.3098 -0.1879
  851MOL0     C17335   6.336   1.806   2.255  0.8735 -0.3593 -0.9109
  851MOL0     O17336   6.320   1.942   2.240 -0.6423  0.2477 -0.7207
  851MOL0     C17337   6.188   1.983   2.186 -0.2983 -0.2566 -1.0391
  851MOL0     C17338   6.184   2.136   2.182 -0.7108  0.3919 -0.5858
  851MOL0     C17339   6.140   2.199   2.326  0.5875  0.1173 -0.5204
  851MOL0     C17340   6.178   2.342   2.362 -0.1324 -0.3340  0.7141
  851MOL0     C17341   6.170   2.380   2.511 -1.1753 -0.4203  0.3471
  851MOL0     C17342   6.044   2.339   2.595 -0.6704 -0.2802 -0.4188
  851MOL0     C17343   5.908   2.395   2.553  0.5579 -0.5709 -0.3687
  851MOL0     C17344   5.793   2.366   2.638  0.0430  0.5087  0.8886
  851MOL0    Cl17345   5.799   2.428   2.799  0.1580 -0.1637 -0.0237
  851MOL0     C17346   6.236   1.711   2.242 -0.4284 -0.5200  1.2429
  851MOL0     C17347   6.273   1.574   2.252  0.3888  0.1369 -0.7915
  851MOL0     O17348   6.509   1.387   2.523 -0.1990  0.0554  0.6597
  851MOL0     C17349   6.469   1.130   2.272 -0.6889 -1.3599  0.6873
  851MOL0     C17350   6.486   1.003   2.244  0.4897 -0.0655  0.5545
  851MOL0     N17351   6.303   0.110   2.550 -0.3741  0.0020  0.7443
  851MOL0     N17352   6.212   0.086   2.637 -0.6191  0.1259  0.3555
  851MOL0     C17353   6.111   0.782   2.066  0.0080  0.5441  0.2920
  851MOL0     C17354   6.177   0.866   1.982  1.0638 -0.6841 -0.7375
  851MOL0     C17355   6.571   1.011   1.749 -0.1562  1.1503 -0.2325
  851MOL0     C17356   6.715   1.013   1.738  0.3479 -0.1019 -0.0102
  851MOL0     C17357   6.784   1.088   1.638  0.7149  0.1907  0.2980
  851MOL0     C17358   6.710   1.163   1.540 -0.8252  0.1240 -0.1376
  851MOL0     O17359   6.775   1.246   1.459 -0.3641 -0.1519 -0.2839
  851MOL0     C17360   6.731   1.381   1.440 -0.7093  0.0358 -0.1523
  851MOL0     C17361   6.820   1.463   1.344  1.2093  0.0312  0.5542
  851MOL0     C17362   6.742   1.490   1.213 -0.8836 -0.7797  0.4858
  851MOL0     C17363   6.751   1.359   1.121 -0.0301  0.6413 -0.3426
  851MOL0     C17364   6.695   1.413   0.992 -0.2085 -0.2934  0.0863
  851MOL0     C17365   6.654   1.443   0.878 -0.2046  1.3396  0.4237
  851MOL0     C17366   6.573   1.147   1.552  0.5033 -0.2926 -0.6118
  851MOL0     C17367   6.499   1.063   1.636 -0.6432  0.1684 -0.4088
  851MOL0     C17368   6.354   1.074   1.621 -0.0375  0.3686 -0.1908
  851MOL0     H17369   6.448   0.672   1.939  0.2151  0.6375  0.1094
  851MOL0     H17370   6.326   0.524   2.093 -1.3376 -0.4196 -0.2277
  851MOL0     H17371   5.892   0.569   2.121  1.1856  0.2347 -0.5408
  851MOL0     H17372   5.944   0.691   2.254  0.8432  0.8089 -0.5730
  851MOL0     H17373   5.810   0.478   2.307 -0.7211  2.3597  0.6743
  851MOL0     H17374   5.963   0.391   2.292 -1.0231 -0.4934 -1.3587
  851MOL0     H17375   6.065   0.522   2.452  0.7827 -0.4491  0.6286
  851MOL0     H17376   5.926   0.623   2.482  3.9405  1.9207 -2.3572
  851MOL0     H17377   5.804   0.403   2.540 -0.4579  0.4013 -4.1152
  851MOL0     H17378   5.965   0.322   2.535 -0.6806 -0.4535  2.3925
  851MOL0     H17379   5.903   0.544   2.726  0.8343  1.1624 -0.7260
  851MOL0     H17380   6.057   0.464   2.707  0.2070  0.3999  1.3842
  851MOL0     H17381   5.915   0.402   2.894  1.9496 -1.1916  0.3366
  851MOL0     H17382   5.794   0.347   2.796  0.3247 -1.5966  0.7870
  851MOL0     H17383   5.936   0.160   2.692 -1.4768 -1.5350  0.0553
  851MOL0     H17384   5.879   0.150   2.854 -1.5637  0.9786 -1.9270
  851MOL0     H17385   6.114   0.295   2.895  0.2366  0.8354 -0.9760
  851MOL0     H17386   6.111   0.114   2.899 -0.4903  2.6468  2.9087
  851MOL0     H17387   6.330   0.380   2.735  0.7364 -0.4316  2.1247
  851MOL0     H17388   6.363   0.317   2.385  0.4622 -0.7715 -0.6923
  851MOL0     H17389   6.523   0.257   2.426 -0.2814  2.3339 -1.9722
  851MOL0     H17390   6.419   0.497   2.594 -1.0750 -0.5555 -0.5677
  851MOL0     H17391   6.582   0.450   2.556 -0.1184 -0.3322 -1.0053
  851MOL0     H17392   6.580   0.497   2.322 -1.1495 -2.4662 -1.2093
  851MOL0     H17393   6.411   0.526   2.327  1.5050 -2.0136 -0.3477
  851MOL0     H17394   6.473   0.709   2.505 -0.7877  1.2011 -1.3048
  851MOL0     H17395   6.636   0.691   2.449  0.3299  0.0039 -0.6067
  851MOL0     H17396   6.548   0.888   2.564 -0.9185 -0.9784 -0.6339
  851MOL0     H17397   6.433   1.165   2.680  0.6097  2.0385  0.0466
  851MOL0     H17398   6.597   1.233   2.673  1.9025 -0.9989  0.9593
  851MOL0     H17399   6.582   1.069   2.717 -1.6695 -0.4745  0.3880
  851MOL0     H17400   6.584   1.591   2.359  0.1142 -0.7773 -2.4379
  851MOL0     H17401   6.529   1.847   2.303 -3.0493  3.4353  4.2377
  851MOL0     H17402   6.190   1.947   2.083 -0.1403 -1.2060 -0.7089
  851MOL0     H17403   6.100   1.949   2.242 -0.3641  2.0190  0.3989
  851MOL0     H17404   6.289   2.155   2.157 -1.0308  3.3550  0.0025
  851MOL0     H17405   6.119   2.174   2.104 -0.7768 -1.4170 -1.4596
  851MOL0     H17406   6.190   2.167   2.417 -1.2361  5.2502  2.7609
  851MOL0     H17407   6.032   2.180   2.327  0.5090  0.5143 -0.8775
  851MOL0     H17408   6.107   2.411   2.316 -0.4198  1.1387  3.2136
  851MOL0     H17409   6.277   2.371   2.323  0.4307  1.7233  3.3883
  851MOL0     H17410   6.250   2.320   2.555 -0.1472 -1.3496 -2.5713
  851MOL0     H17411   6.195   2.484   2.532  0.3414 -1.1997  2.8495
  851MOL0     H17412   6.047   2.360   2.702  0.5014 -1.1332 -0.2657
  851MOL0     H17413   6.030   2.230   2.593 -0.7322 -0.2636 -1.3246
  851MOL0     H17414   5.881   2.350   2.457 -0.8058 -0.9801  0.1685
  851MOL0     H17415   5.926   2.497   2.518 -2.4582  0.1831 -0.0577
  851MOL0     H17416   5.797   2.257   2.650  0.4112  0.2405 -1.1509
  851MOL0     H17417   5.699   2.392   2.588  0.8870 -0.0563 -1.1434
  851MOL0     H17418   6.136   1.727   2.203  0.7019 -0.3392 -1.8861
  851MOL0     H17419   6.198   1.502   2.219  0.1769  1.0107 -2.3439
  851MOL0     H17420   6.441   1.194   2.190  0.2001 -1.6484  0.1416
  851MOL0     H17421   6.471   0.968   2.142 -1.0000  1.8604  0.0437
  851MOL0     H17422   6.018   0.817   2.110  0.4529  1.4980  0.4869
  851MOL0     H17423   6.125   0.959   1.958  1.8670  0.0537  0.2628
  851MOL0     H17424   6.776   0.966   1.815 -1.6905 -0.8225  1.2472
  851MOL0     H17425   6.892   1.097   1.638  0.8227  0.1899  3.9822
  851MOL0     H17426   6.628   1.390   1.406 -0.3777  0.3260 -1.1088
  851MOL0     H17427   6.728   1.421   1.541 -1.1582 -3.3885  1.3444
  851MOL0     H17428   6.908   1.398   1.339 -0.3416 -2.2492  1.3316
  851MOL0     H17429   6.862   1.555   1.386  2.0375  0.8373 -1.8586
  851MOL0     H17430   6.640   1.524   1.236  0.8108  4.3479  1.7764
  851MOL0     H17431   6.799   1.572   1.169 -0.8692 -1.4232 -0.7408
  851MOL0     H17432   6.703   1.275   1.170 -1.0198  0.2427 -1.9238
  851MOL0     H17433   6.854   1.324   1.108 -0.8225 -1.4757 -1.3368
  851MOL0     H17434   6.606   1.467   0.785 -0.4760 -2.1491 -0.5157
  851MOL0     H17435   6.512   1.197   1.478  1.2913  0.4815 -0.7493
  851MOL0     H17436   6.305   1.117   1.709  0.2381  2.2761 -0.9040
  851MOL0     H17437   6.320   1.130   1.533  3.2206  0.3901 -1.5849
  851MOL0     H17438   6.314   0.974   1.607 -1.8352  0.1725  4.5460
  852MOL0     O17439   3.443   1.029   1.012  0.6159  0.0117 -0.4013
  852MOL0     C17440   3.534   1.099   1.046  0.2245 -0.6386  0.1292
  852MOL0     O17441   3.610   1.065   1.159 -0.4705  0.6045  0.6632
  852MOL0     C17442   3.575   0.952   1.223  0.0264 -0.2698 -0.2629
  852MOL0     C17443   3.662   0.842   1.213  0.3435  0.6107 -0.5333
  852MOL0     C17444   3.644   0.720   1.269 -0.9180 -0.1526 -0.2800
  852MOL0     C17445   3.554   0.713   1.369  0.9855 -0.2645 -0.7364
  852MOL0     O17446   3.548   0.595   1.438 -0.6807  0.2917 -0.2301
  852MOL0     C17447   3.467   0.594   1.556  1.2465 -0.4732  0.0971
  852MOL0     C17448   3.463   0.454   1.623 -0.2225 -0.0588 -0.1144
  852MOL0     C17449   3.329   0.407   1.644 -0.3366 -0.0827 -0.4421
  852MOL0     C17450   3.318   0.257   1.687  0.9438  0.1715  0.1200
  852MOL0     C17451   3.167   0.237   1.731  0.3781 -0.4859 -0.0243
  852MOL0     C17452   3.148   0.172   1.876 -0.1624 -0.3583  0.0844
  852MOL0     C17453   3.001   0.140   1.906  0.3607 -0.1066  0.0397
  852MOL0     C17454   2.945   0.251   1.986 -0.8625 -0.0674 -0.0623
  852MOL0     N17455   3.003   0.260   2.121 -0.2235  0.4031 -0.4332
  852MOL0     C17456   2.972   0.186   2.234  0.3249 -0.5138  0.4909
  852MOL0     C17457   3.064   0.222   2.318 -0.5674 -0.0513  0.9267
  852MOL0     C17458   3.064   0.159   2.459  0.7252  0.7870  0.5799
  852MOL0     C17459   3.177   0.063   2.490 -0.3163 -0.2098 -0.1406
  852MOL0     C17460   3.175  -0.064   2.391 -0.8518  0.5543  0.4629
  852MOL0     C17461   3.292  -0.157   2.431 -0.1366  1.0706 -0.4900
  852MOL0     O17462   3.402  -0.141   2.350 -0.3596 -0.3428 -0.1429
  852MOL0     C17463   3.509  -0.047   2.376 -0.1622 -0.5316 -0.8682
  852MOL0     C17464   3.523   0.033   2.483  0.6037  0.8614 -0.6858
  852MOL0     C17465   3.629   0.127   2.503 -0.6583  0.5422 -0.7367
  852MOL0     C17466   3.630   0.209   2.631 -0.0913 -0.1403 -0.0754
  852MOL0     C17467   3.724   0.145   2.400 -1.0195  0.5399 -0.2589
  852MOL0     C17468   3.837   0.248   2.420 -0.4066  0.5479 -0.8239
  852MOL0     O17469   3.884   0.269   2.547  0.2836 -0.2882 -0.4425
  852MOL0     C17470   4.006   0.341   2.563  0.4872  0.3216 -0.3692
  852MOL0     C17471   4.125   0.278   2.521 -0.1281  0.2064 -0.0333
  852MOL0     C17472   4.248   0.343   2.536 -0.3693 -0.6504 -0.7167
  852MOL0     C17473   4.258   0.477   2.578  0.1988  0.2206  0.2422
  852MOL0     O17474   4.361   0.561   2.598 -0.0762 -0.0451 -0.8580
  852MOL0     C17475   4.489   0.525   2.544 -0.2708 -0.7400  1.0542
  852MOL0     C17476   4.498   0.547   2.389 -1.0869 -0.2359 -0.0532
  852MOL0     C17477   4.473   0.685   2.330 -0.5255 -0.0406 -0.7167
  852MOL0     C17478   4.491   0.687   2.182  0.5746  0.6925 -0.6283
  852MOL0     C17479   4.426   0.801   2.100  0.9685 -0.2628 -0.4906
  852MOL0     C17480   4.494   0.821   1.966  0.4323 -0.3043  0.2496
  852MOL0     C17481   4.439   0.929   1.873  0.8907  0.6983 -0.1050
  852MOL0     C17482   4.517   0.974   1.749  0.4292  0.3454  0.1400
  852MOL0    Cl17483   4.681   1.036   1.787  0.0210 -0.0085  0.0893
  852MOL0     C17484   4.134   0.541   2.602 -1.3604 -0.0144  0.4094
  852MOL0     C17485   4.008   0.471   2.603  0.2261  0.2837  0.3177
  852MOL0     O17486   3.883   0.305   2.328 -0.6223 -0.1891 -0.1440
  852MOL0     C17487   3.700   0.071   2.280  0.2393 -1.0089  0.2176
  852MOL0     C17488   3.601  -0.026   2.275  0.1510 -0.4733  0.5562
  852MOL0     N17489   3.145   0.321   2.261 -0.7220  0.1560  0.2728
  852MOL0     N17490   3.104   0.347   2.149 -0.8047 -0.1255  0.5365
  852MOL0     C17491   3.472   0.826   1.399 -0.2884 -0.1889  0.9937
  852MOL0     C17492   3.486   0.950   1.329  1.2144  0.6070  0.5245
  852MOL0     C17493   3.562   1.222   0.967 -0.1708  0.0739  0.0757
  852MOL0     C17494   3.661   1.306   1.022  0.5951 -0.3799  0.5340
  852MOL0     C17495   3.682   1.435   0.970 -0.3904  0.0990  0.0607
  852MOL0     C17496   3.614   1.481   0.860 -0.1946  1.0424  0.3190
  852MOL0     O17497   3.638   1.600   0.800 -0.1568 -0.7060  0.1707
  852MOL0     C17498   3.658   1.711   0.892  0.5957  0.5552  0.3527
  852MOL0     C17499   3.629   1.845   0.827  0.3734 -0.3309 -0.1888
  852MOL0     C17500   3.565   1.939   0.929 -0.5791 -0.6650 -0.3178
  852MOL0     C17501   3.674   2.037   0.994  0.2170  0.1250  0.2472
  852MOL0     C17502   3.768   1.958   1.081 -0.0216  0.0172  1.0923
  852MOL0     C17503   3.852   1.897   1.144 -0.0791 -0.8617 -0.7498
  852MOL0     C17504   3.526   1.396   0.793 -0.4085  0.5372  1.0193
  852MOL0     C17505   3.496   1.270   0.844  0.4059 -0.2967  1.0732
  852MOL0     C17506   3.387   1.193   0.767 -0.4133  0.0597  0.7734
  852MOL0     H17507   3.758   0.854   1.164  1.2658  0.0285  1.0766
  852MOL0     H17508   3.713   0.640   1.245 -1.6403 -0.5579 -1.0457
  852MOL0     H17509   3.363   0.620   1.534  1.3595 -0.9835 -1.0942
  852MOL0     H17510   3.491   0.680   1.620  0.1165 -0.5234  0.6203
  852MOL0     H17511   3.509   0.383   1.554  2.2111 -0.6167  1.9354
  852MOL0     H17512   3.511   0.452   1.721 -3.4697  0.4025  1.6343
  852MOL0     H17513   3.279   0.465   1.722 -4.8081 -3.4831 -0.3192
  852MOL0     H17514   3.274   0.424   1.551 -0.7541  1.6169  0.0882
  852MOL0     H17515   3.345   0.190   1.604 -0.1672 -0.0703 -0.0613
  852MOL0     H17516   3.379   0.234   1.774  0.0472  0.9516  0.9816
  852MOL0     H17517   3.115   0.173   1.658 -3.4193  0.3716  1.6913
  852MOL0     H17518   3.114   0.333   1.738  0.0655 -0.6157 -0.5147
  852MOL0     H17519   3.198   0.075   1.866  1.0070  0.1458  0.8938
  852MOL0     H17520   3.201   0.238   1.945 -0.9702  2.0308 -1.4678
  852MOL0     H17521   2.999   0.040   1.951 -0.1399  0.8615  2.2848
  852MOL0     H17522   2.940   0.119   1.818  0.5698  0.6429 -0.2905
  852MOL0     H17523   2.958   0.347   1.935 -0.5750 -0.7119 -1.2497
  852MOL0     H17524   2.837   0.241   1.998 -0.6690 -0.6961  1.4140
  852MOL0     H17525   2.893   0.114   2.251 -0.4278  0.3402  0.6579
  852MOL0     H17526   2.975   0.096   2.455  3.1217 -2.8774 -2.5505
  852MOL0     H17527   3.051   0.233   2.539  1.9729 -0.4484  1.9719
  852MOL0     H17528   3.264   0.124   2.463 -1.5247  1.7692  0.2609
  852MOL0     H17529   3.198   0.036   2.593  3.2325  0.4651 -0.5526
  852MOL0     H17530   3.085  -0.125   2.405  2.5370 -4.7551  1.6909
  852MOL0     H17531   3.194  -0.026   2.290  6.2176  2.5110  2.0061
  852MOL0     H17532   3.328  -0.137   2.532  3.7505 -0.9168 -1.2972
  852MOL0     H17533   3.255  -0.259   2.421 -0.4000  0.9030  1.6869
  852MOL0     H17534   3.437   0.034   2.550  1.8081 -3.6851  1.2844
  852MOL0     H17535   3.718   0.189   2.693 -0.3020  0.2133  0.3431
  852MOL0     H17536   3.545   0.182   2.695  1.9250 -0.8074  2.5128
  852MOL0     H17537   3.628   0.317   2.614 -0.2957 -0.0606  0.4299
  852MOL0     H17538   4.133   0.177   2.483  1.1507  0.4955 -0.5638
  852MOL0     H17539   4.335   0.282   2.511 -0.7568 -2.2517  1.6013
  852MOL0     H17540   4.570   0.585   2.587  0.5662  1.0114 -2.5770
  852MOL0     H17541   4.496   0.418   2.568 -0.2159 -0.7315  1.0754
  852MOL0     H17542   4.602   0.521   2.368 -0.4658  2.4675 -0.6792
  852MOL0     H17543   4.425   0.474   2.353  0.2791 -1.6319 -0.1239
  852MOL0     H17544   4.548   0.748   2.379  0.6149 -1.7230 -0.2052
  852MOL0     H17545   4.372   0.717   2.356 -0.8697 -2.9143  2.0848
  852MOL0     H17546   4.441   0.606   2.129  1.3967  0.5502 -1.2044
  852MOL0     H17547   4.597   0.678   2.154 -0.5474 -0.0858 -5.3388
  852MOL0     H17548   4.317   0.803   2.096  0.9488  0.3097  0.1940
  852MOL0     H17549   4.447   0.893   2.156  2.2996  0.2331 -1.7219
  852MOL0     H17550   4.490   0.725   1.913  1.1822 -1.3493  2.0078
  852MOL0     H17551   4.600   0.845   1.981  0.8685 -1.2325 -1.0500
  852MOL0     H17552   4.421   1.014   1.939 -0.1554  0.5591 -0.1979
  852MOL0     H17553   4.345   0.892   1.831  0.4622  0.4884  1.0063
  852MOL0     H17554   4.455   1.049   1.700 -0.0671 -0.1475  0.0081
  852MOL0     H17555   4.504   0.890   1.680 -0.1077  1.1163 -0.7093
  852MOL0     H17556   4.124   0.645   2.629  1.6949  0.4684 -0.0078
  852MOL0     H17557   3.916   0.519   2.635 -1.7995 -2.4599 -1.1259
  852MOL0     H17558   3.762   0.094   2.194  1.4797 -6.8207 -0.9033
  852MOL0     H17559   3.589  -0.078   2.180 -0.8649  1.8445 -0.6601
  852MOL0     H17560   3.388   0.823   1.466 -0.8905 -0.3832  0.2440
  852MOL0     H17561   3.426   1.038   1.350  1.6149  1.6291 -2.2118
  852MOL0     H17562   3.725   1.283   1.106  2.9520  0.2617 -0.9901
  852MOL0     H17563   3.750   1.506   1.016 -0.8298 -0.6665  1.9828
  852MOL0     H17564   3.593   1.698   0.980 -0.1501  0.9068 -0.1425
  852MOL0     H17565   3.763   1.712   0.922  0.1358  0.0078  2.1404
  852MOL0     H17566   3.559   1.835   0.743  0.7809 -0.3842 -0.5267
  852MOL0     H17567   3.725   1.885   0.791 -0.4439  0.9605 -1.0077
  852MOL0     H17568   3.489   1.995   0.873 -0.8597  2.3937  2.7845
  852MOL0     H17569   3.512   1.892   1.012  1.8042 -1.5431  0.7743
  852MOL0     H17570   3.616   2.106   1.056 -3.1623 -2.0421 -0.1897
  852MOL0     H17571   3.724   2.092   0.915 -1.1937  1.4330  0.2306
  852MOL0     H17572   3.932   1.857   1.203  1.0159 -1.2678 -2.4286
  852MOL0     H17573   3.484   1.425   0.697 -0.6595 -2.0658  0.2568
  852MOL0     H17574   3.368   1.249   0.675  0.4179  0.3221  0.7533
  852MOL0     H17575   3.418   1.092   0.737 -0.8834  0.0013  0.4804
  852MOL0     H17576   3.303   1.181   0.836 -0.7801 -0.0515  0.3108
  853MOL0     O17577   6.152  10.673  10.513 -0.1710 -0.1306 -0.7598
  853MOL0     C17578   6.192  10.680  10.628  0.0838 -0.9484  0.1740
  853MOL0     O17579   6.139  10.611  10.726 -0.6844  0.0880 -0.0446
  853MOL0     C17580   6.069  10.497  10.695  0.0014  1.5291 -0.1235
  853MOL0     C17581   6.132  10.381  10.736  0.2181 -0.0139  0.1856
  853MOL0     C17582   6.077  10.260  10.723  0.3406  0.6383 -0.0893
  853MOL0     C17583   5.961  10.245  10.643  0.0448 -0.1703 -0.7921
  853MOL0     O17584   5.886  10.135  10.616  0.5174  0.4887 -0.2217
  853MOL0     C17585   5.951  10.010  10.598 -0.0520  0.0828 -0.5775
  853MOL0     C17586   5.990   9.991  10.462 -0.3108  0.1935 -0.6040
  853MOL0     C17587   6.099  10.090  10.427  0.7519  0.0998  0.1559
  853MOL0     C17588   6.135  10.060  10.282  0.8487  0.0942  1.0169
  853MOL0     C17589   6.231  10.162  10.229 -0.6228  0.5874  1.0128
  853MOL0     C17590   6.155  10.286  10.182  1.0291 -0.6928  0.0952
  853MOL0     C17591   6.248  10.399  10.138  0.8234 -0.1246  0.8853
  853MOL0     C17592   6.217  10.529  10.218  0.3275 -0.1886 -0.2597
  853MOL0     N17593   6.111  10.624  10.177  0.7785 -0.4519 -0.3127
  853MOL0     C17594   5.982  10.635  10.233 -0.0609 -1.0904 -0.2294
  853MOL0     C17595   5.929  10.747  10.169 -0.3675  0.3896 -0.0083
  853MOL0     C17596   5.797  10.802  10.187  0.4499  0.0022 -0.2116
  853MOL0     C17597   5.757  10.794  10.338 -0.5624 -0.0265 -0.7758
  853MOL0     C17598   5.614  10.846  10.367  1.3810 -0.9901 -0.2550
  853MOL0     C17599   5.555  10.786  10.495  0.4260 -1.3201 -0.8630
  853MOL0     O17600   5.597  10.656  10.538 -0.9841 -0.2119 -0.1917
  853MOL0     C17601   5.493  10.569  10.573 -0.8239  0.6721 -0.3085
  853MOL0     C17602   5.530  10.482  10.670  0.4150 -0.4379 -0.1986
  853MOL0     C17603   5.436  10.404  10.727  0.4484 -0.2846 -0.2611
  853MOL0     C17604   5.467  10.350  10.865  0.3817 -0.1274  0.8329
  853MOL0     C17605   5.315  10.369  10.661 -0.9092 -0.1430  0.4058
  853MOL0     C17606   5.215  10.281  10.721 -0.0951 -0.1857 -1.0181
  853MOL0     O17607   5.158  10.193  10.632  0.0156  0.2842 -0.9642
  853MOL0     C17608   5.085  10.089  10.685  0.4063  0.7402  0.1995
  853MOL0     C17609   5.144   9.967  10.679 -0.1886  0.7559  0.1291
  853MOL0     C17610   5.082   9.858  10.740 -0.7301  0.5028  0.2374
  853MOL0     C17611   4.947   9.861  10.776 -1.1058 -0.1654  0.6026
  853MOL0     O17612   4.872   9.746  10.797  0.1592 -0.7083  0.0142
  853MOL0     C17613   4.766   9.753  10.888  0.7833 -0.0353  0.2600
  853MOL0     C17614   4.712   9.612  10.903 -0.7682 -0.2173  0.4015
  853MOL0     C17615   4.615   9.585  11.025  0.1083 -1.1768  0.0971
  853MOL0     C17616   4.477   9.647  11.021 -0.3175 -0.4427 -0.4923
  853MOL0     C17617   4.387   9.565  10.936  0.9973  0.6190  0.0614
  853MOL0     C17618   4.248   9.635  10.916  0.0365 -0.5296 -0.3617
  853MOL0     C17619   4.168   9.561  10.796  0.2161 -0.6561 -0.6762
  853MOL0     C17620   4.043   9.640  10.756 -0.0167  0.1500  0.1486
  853MOL0    Cl17621   4.057   9.811  10.708  0.2035  0.2047 -0.4149
  853MOL0     C17622   4.888   9.985  10.786 -0.5435 -0.9597 -0.4972
  853MOL0     C17623   4.959  10.104  10.754 -0.0152  0.5370 -0.0527
  853MOL0     O17624   5.196  10.284  10.843  1.0619 -0.1749 -0.6340
  853MOL0     C17625   5.291  10.445  10.543 -0.1183 -0.2030  0.0781
  853MOL0     C17626   5.378  10.546  10.498  0.3573 -0.0031  0.5582
  853MOL0     N17627   6.022  10.802  10.080 -0.3549  0.2004 -0.0431
  853MOL0     N17628   6.129  10.727  10.084  0.9370  0.8145 -0.0420
  853MOL0     C17629   5.893  10.354  10.602 -0.5167  0.1522  0.2350
  853MOL0     C17630   5.942  10.480  10.627  0.1092 -0.2555 -0.2242
  853MOL0     C17631   6.307  10.769  10.657  0.4357  0.4105  0.2466
  853MOL0     C17632   6.400  10.793  10.554  0.5981  0.2938 -0.6467
  853MOL0     C17633   6.506  10.878  10.568 -0.8301 -0.0106  0.1899
  853MOL0     C17634   6.523  10.954  10.691  0.2705 -0.3909  0.3354
  853MOL0     O17635   6.617  11.060  10.698  0.9471 -0.2292  0.5636
  853MOL0     C17636   6.639  11.126  10.823  0.1630 -0.6385  0.1777
  853MOL0     C17637   6.753  11.224  10.811  1.0581  0.3410 -0.4618
  853MOL0     C17638   6.732  11.339  10.715 -0.2876 -0.2741 -0.0865
  853MOL0     C17639   6.834  11.454  10.746  0.6064  0.3249  1.0079
  853MOL0     C17640   6.821  11.564  10.648 -0.6581  0.4265 -0.2929
  853MOL0     C17641   6.808  11.664  10.576 -0.0309  0.0483 -0.0020
  853MOL0     C17642   6.432  10.926  10.797 -0.3212  0.3124  0.5218
  853MOL0     C17643   6.321  10.835  10.785  0.1591 -0.6684  0.0658
  853MOL0     C17644   6.225  10.811  10.901 -0.0669 -0.8188 -0.4499
  853MOL0     H17645   6.229  10.393  10.782  0.8796 -1.2309 -0.8215
  853MOL0     H17646   6.119  10.171  10.768 -2.1467  0.1171  1.3801
  853MOL0     H17647   5.882   9.927  10.619 -1.5371  1.5176  0.4066
  853MOL0     H17648   6.038   9.996  10.663 -1.6662 -0.3814  1.5923
  853MOL0     H17649   6.018   9.887  10.445  0.9754  0.8191 -2.8383
  853MOL0     H17650   5.900  10.008  10.403 -0.1837 -1.3081 -1.2657
  853MOL0     H17651   6.064  10.193  10.442 -1.4328 -0.7125  1.0375
  853MOL0     H17652   6.193  10.078  10.481  0.9142 -0.8296 -0.3094
  853MOL0     H17653   6.182   9.961  10.286 -0.1600 -0.3594  2.7594
  853MOL0     H17654   6.050  10.043  10.215  0.4599 -0.3167  1.6057
  853MOL0     H17655   6.281  10.123  10.140 -2.6377  1.6514 -0.6615
  853MOL0     H17656   6.312  10.187  10.298  0.6018  2.0421 -0.8760
  853MOL0     H17657   6.077  10.272  10.107  0.9788  0.5485 -0.1080
  853MOL0     H17658   6.096  10.314  10.270  2.6223  0.6693  0.7876
  853MOL0     H17659   6.247  10.415  10.030  3.7819 -1.2561  0.5949
  853MOL0     H17660   6.352  10.383  10.169  2.2068  3.7025 -1.1314
  853MOL0     H17661   6.209  10.504  10.324  2.0679 -0.3887 -0.1534
  853MOL0     H17662   6.313  10.579  10.205 -0.8057  2.3239  0.4099
  853MOL0     H17663   5.938  10.575  10.312 -0.8454 -0.1376  0.0742
  853MOL0     H17664   5.734  10.738  10.124  1.0861 -0.5711 -0.2910
  853MOL0     H17665   5.789  10.902  10.143  1.5556 -0.3867 -1.3945
  853MOL0     H17666   5.762  10.687  10.356  0.5622  0.0476 -0.5786
  853MOL0     H17667   5.831  10.849  10.397 -0.4810 -2.0509  1.1497
  853MOL0     H17668   5.612  10.955  10.365 -2.1815 -0.9434 -1.9460
  853MOL0     H17669   5.554  10.811  10.283  0.4768 -1.5313  0.5955
  853MOL0     H17670   5.584  10.856  10.574  0.8925  2.5652 -4.1574
  853MOL0     H17671   5.446  10.799  10.497  0.5918  0.3899  1.2492
  853MOL0     H17672   5.629  10.508  10.706  1.8160 -0.2858 -3.7180
  853MOL0     H17673   5.428  10.252  10.893  0.8235  0.0727  2.1861
  853MOL0     H17674   5.428  10.415  10.943  0.3129  0.0343  0.6636
  853MOL0     H17675   5.575  10.356  10.882  0.3499 -1.3191  1.4913
  853MOL0     H17676   5.239   9.969  10.627  1.4072 -2.3653  2.5795
  853MOL0     H17677   5.124   9.758  10.745  0.5969  1.0846  1.3860
  853MOL0     H17678   4.784   9.792  10.988 -4.7140 -1.8884  2.3382
  853MOL0     H17679   4.686   9.822  10.859  0.1096  1.6036  5.1669
  853MOL0     H17680   4.660   9.580  10.813 -1.1406 -1.6016  1.0791
  853MOL0     H17681   4.801   9.549  10.916 -0.7913 -0.3221  0.0518
  853MOL0     H17682   4.678   9.624  11.106  2.8335 -0.7878 -2.0463
  853MOL0     H17683   4.611   9.476  11.021 -0.5893 -1.1180 -1.5224
  853MOL0     H17684   4.486   9.747  10.977  0.1530 -0.0734  0.4099
  853MOL0     H17685   4.440   9.651  11.124 -1.7331  1.6216 -1.0101
  853MOL0     H17686   4.436   9.543  10.841  2.4122 -2.8341  1.4417
  853MOL0     H17687   4.368   9.468  10.983  0.3377 -0.2215 -1.8457
  853MOL0     H17688   4.259   9.740  10.888 -2.3447  0.2250  1.2440
  853MOL0     H17689   4.194   9.626  11.010  0.3185 -3.3149 -0.3713
  853MOL0     H17690   4.153   9.458  10.830  3.0209 -0.7265  0.6411
  853MOL0     H17691   4.234   9.551  10.709  0.4300  0.1491 -0.6136
  853MOL0     H17692   3.967   9.632  10.833 -1.6084  1.0637 -1.2604
  853MOL0     H17693   4.007   9.585  10.669  2.2344  0.9371 -1.3876
  853MOL0     H17694   4.783  10.000  10.810 -0.3173  0.3127 -0.1997
  853MOL0     H17695   4.916  10.203  10.767  3.9532  2.6117 -1.2353
  853MOL0     H17696   5.198  10.437  10.487  0.8355  1.8974 -2.0185
  853MOL0     H17697   5.352  10.597  10.405 -1.1240 -0.6641  0.5700
  853MOL0     H17698   5.802  10.347  10.543 -0.4255  1.4756 -0.0979
  853MOL0     H17699   5.903  10.577  10.596  3.1273  1.9066  2.2209
  853MOL0     H17700   6.385  10.742  10.460  4.3750 -0.3654 -1.0422
  853MOL0     H17701   6.577  10.903  10.490 -2.5333  1.0896 -1.0880
  853MOL0     H17702   6.560  11.177  10.878  2.2736  0.5940  2.2332
  853MOL0     H17703   6.671  11.049  10.894  0.5645  0.3887  1.1404
  853MOL0     H17704   6.836  11.167  10.767  0.7410  2.1135 -3.7156
  853MOL0     H17705   6.781  11.252  10.913  0.9154  2.8319 -1.0329
  853MOL0     H17706   6.727  11.308  10.610 -3.6854  1.7789 -0.7199
  853MOL0     H17707   6.630  11.381  10.721 -1.4735 -2.6571 -1.9163
  853MOL0     H17708   6.938  11.421  10.737  0.1555 -0.7586 -0.9640
  853MOL0     H17709   6.826  11.501  10.844  0.2634  0.8288  0.7417
  853MOL0     H17710   6.801  11.739  10.500  1.1963 -0.9523 -1.1500
  853MOL0     H17711   6.428  10.979  10.892 -5.0613  2.6414 -0.6236
  853MOL0     H17712   6.121  10.801  10.870  0.1950 -0.8185 -1.3671
  853MOL0     H17713   6.254  10.721  10.956  2.7048 -0.5470 -1.3119
  853MOL0     H17714   6.235  10.904  10.957  2.0321 -0.4845 -1.2832
  854MOL0     O17715   9.262   0.475  10.928  0.1124  0.6678  0.9721
  854MOL0     C17716   9.162   0.412  10.883 -0.0754 -0.1749 -0.7132
  854MOL0     O17717   9.094   0.319  10.955  0.4428 -0.2321 -0.6691
  854MOL0     C17718   9.128   0.287  11.081  0.0994 -0.0980  0.0970
  854MOL0     C17719   9.019   0.251  11.160 -0.8436 -0.6040  0.1189
  854MOL0     C17720   9.035   0.220  11.295  0.3353  0.2031 -0.5634
  854MOL0     C17721   9.155   0.221  11.354 -0.4691  0.5235 -1.0054
  854MOL0     O17722   9.182   0.175  11.490 -0.2432  0.3179 -0.7324
  854MOL0     C17723   9.071   0.160  11.581  0.2703 -0.4934  0.7461
  854MOL0     C17724   9.118   0.145  11.722  0.1764 -0.2697 -0.1712
  854MOL0     C17725   9.137   0.280  11.785  0.4790 -0.0063  0.1671
  854MOL0     C17726   9.174   0.253  11.929 -0.2283  0.6792  0.3983
  854MOL0     C17727   9.203   0.388  11.999  0.3359 -0.4392 -0.0620
  854MOL0     C17728   9.075   0.475  12.016  0.0010 -0.6898  0.0243
  854MOL0     C17729   9.088   0.585  12.120 -0.5116 -0.1629 -0.4806
  854MOL0     C17730   9.056   0.532  12.261 -0.2739  0.7465  0.7515
  854MOL0     N17731   8.929   0.576  12.319 -0.4179  0.0479 -0.3997
  854MOL0     C17732   8.809   0.539  12.258 -0.6795 -0.2783 -0.0206
  854MOL0     C17733   8.722   0.580  12.353 -0.6384 -1.4672 -1.1061
  854MOL0     C17734   8.578   0.557  12.352  0.2345 -0.3107  0.0683
  854MOL0     C17735   8.494   0.694  12.327  0.2464  0.2619 -0.7403
  854MOL0     C17736   8.341   0.675  12.315 -0.4185  0.0589  0.5733
  854MOL0     C17737   8.305   0.570  12.206  0.2331  0.3527  0.5596
  854MOL0     O17738   8.165   0.571  12.163 -0.1638 -0.4034  0.4698
  854MOL0     C17739   8.078   0.513  12.255  0.1493  0.2473  0.2078
  854MOL0     C17740   8.067   0.372  12.262  0.7794 -0.2708  0.4730
  854MOL0     C17741   7.972   0.320  12.348  0.5570 -0.1249  0.6507
  854MOL0     C17742   7.949   0.166  12.344 -0.4360  0.4626  0.9648
  854MOL0     C17743   7.895   0.401  12.429  0.3059 -0.7704  0.9335
  854MOL0     C17744   7.801   0.333  12.520  0.6315 -0.6465  0.0407
  854MOL0     O17745   7.696   0.278  12.457 -0.0128 -0.9095  0.7558
  854MOL0     C17746   7.607   0.205  12.530  0.0430  0.4996  0.6358
  854MOL0     C17747   7.627   0.063  12.555  0.2160 -0.4630 -1.3402
  854MOL0     C17748   7.524  -0.018  12.608  0.2793  0.5177  0.5473
  854MOL0     C17749   7.408   0.045  12.647  0.1083  0.5630 -0.7435
  854MOL0     O17750   7.316  -0.021  12.720  0.7046  0.6432  0.3360
  854MOL0     C17751   7.312  -0.169  12.737  0.2047  0.9334 -1.2326
  854MOL0     C17752   7.190  -0.218  12.822  0.1793 -0.8323 -0.0390
  854MOL0     C17753   7.173  -0.373  12.826  0.5338 -0.4940 -0.0933
  854MOL0     C17754   7.030  -0.431  12.823 -0.5317  0.9728 -0.2024
  854MOL0     C17755   7.049  -0.587  12.814 -0.2060 -0.1347 -0.5058
  854MOL0     C17756   7.083  -0.651  12.951 -0.3666 -0.4309  0.3438
  854MOL0     C17757   7.082  -0.806  12.945 -0.4701  1.1724  0.9453
  854MOL0     C17758   7.064  -0.866  13.090 -0.6031 -0.5253 -0.4555
  854MOL0    Cl17759   7.117  -1.037  13.105 -0.1333 -0.7095  0.4301
  854MOL0     C17760   7.391   0.180  12.634  0.6763  0.7618  0.3013
  854MOL0     C17761   7.491   0.260  12.572 -0.5500 -0.3931  0.4728
  854MOL0     O17762   7.815   0.355  12.641  1.1193  0.7911  0.0052
  854MOL0     C17763   7.919   0.538  12.431  0.1598 -0.0889  0.1486
  854MOL0     C17764   8.003   0.591  12.333 -0.1409 -0.7463 -0.2998
  854MOL0     N17765   8.788   0.639  12.460 -0.3878 -0.2683 -0.1710
  854MOL0     N17766   8.918   0.628  12.444  1.0449  0.2890 -0.1640
  854MOL0     C17767   9.269   0.258  11.286 -0.2399 -0.0515  0.7148
  854MOL0     C17768   9.257   0.286  11.151 -0.1736 -0.6548 -0.7423
  854MOL0     C17769   9.114   0.461  10.753  0.8247 -0.0477  0.9160
  854MOL0     C17770   9.183   0.571  10.691  0.3967 -0.3117 -1.2686
  854MOL0     C17771   9.132   0.641  10.580  0.0678  0.9775  0.4690
  854MOL0     C17772   9.026   0.588  10.516  0.6842  0.8582 -0.2561
  854MOL0     O17773   8.982   0.630  10.396  0.0554 -0.0587  0.8135
  854MOL0     C17774   9.079   0.691  10.299 -0.2831  0.1733 -0.6796
  854MOL0     C17775   9.055   0.843  10.297 -1.2058  0.0765 -0.5740
  854MOL0     C17776   9.167   0.912  10.221 -0.0898 -0.2143 -0.7572
  854MOL0     C17777   9.156   0.894  10.065  0.1818  0.3635 -0.7593
  854MOL0     C17778   9.266   0.936   9.991 -0.1372  0.0840 -0.1660
  854MOL0     C17779   9.384   0.968   9.943 -0.2893 -0.8743  0.1660
  854MOL0     C17780   8.958   0.471  10.563  1.4305 -0.3108 -0.8768
  854MOL0     C17781   8.996   0.415  10.681 -0.6905  0.2530 -0.1060
  854MOL0     C17782   8.927   0.288  10.706 -0.0297 -0.3541 -1.0881
  854MOL0     H17783   8.923   0.224  11.114 -0.9203  0.9645 -0.6932
  854MOL0     H17784   8.957   0.185  11.362  2.0562 -0.1668  1.3593
  854MOL0     H17785   9.012   0.070  11.563 -3.8492  1.4239  3.0686
  854MOL0     H17786   9.001   0.244  11.573  1.3052  0.2247 -2.0688
  854MOL0     H17787   9.050   0.085  11.783 -0.7025 -0.7782 -1.5838
  854MOL0     H17788   9.209   0.085  11.720  0.0561 -0.4474 -0.8770
  854MOL0     H17789   9.217   0.335  11.735  0.9205 -1.5421 -0.8761
  854MOL0     H17790   9.051   0.348  11.779  1.8600  1.7135 -1.4258
  854MOL0     H17791   9.091   0.202  11.979  0.1092 -0.7680 -0.4517
  854MOL0     H17792   9.264   0.191  11.933 -0.2495  0.4949 -1.2781
  854MOL0     H17793   9.283   0.434  11.941 -0.8012 -1.6072 -2.7238
  854MOL0     H17794   9.255   0.377  12.095  0.4674 -2.6631 -0.3344
  854MOL0     H17795   9.056   0.520  11.918 -2.6486 -0.8326  0.3933
  854MOL0     H17796   8.994   0.408  12.045  0.4177 -0.7557  1.0844
  854MOL0     H17797   9.022   0.668  12.094  0.7367  0.8627 -0.4602
  854MOL0     H17798   9.190   0.621  12.105 -0.2466 -1.3843 -1.8939
  854MOL0     H17799   9.035   0.424  12.260  2.0638  0.2399 -1.1666
  854MOL0     H17800   9.146   0.539  12.323 -0.7310 -1.6099  1.8133
  854MOL0     H17801   8.791   0.494  12.160 -3.5722  0.8336 -0.0794
  854MOL0     H17802   8.551   0.506  12.445 -1.0502 -0.2403 -0.2434
  854MOL0     H17803   8.562   0.481  12.275 -1.2702  2.2338 -2.3076
  854MOL0     H17804   8.503   0.751  12.421 -0.3392 -1.6552  0.5258
  854MOL0     H17805   8.531   0.756  12.245  2.5023 -1.9664 -1.5381
  854MOL0     H17806   8.307   0.652  12.417  0.5520  1.3265  1.2157
  854MOL0     H17807   8.298   0.771  12.283 -0.4189  0.1611  0.8717
  854MOL0     H17808   8.382   0.589  12.131 -0.1912 -0.1213 -0.0036
  854MOL0     H17809   8.336   0.476  12.252 -0.4756 -0.7357 -1.1174
  854MOL0     H17810   8.122   0.314  12.189 -1.1938  0.1005 -1.4145
  854MOL0     H17811   7.861   0.141  12.284  0.4011  0.5487 -0.3353
  854MOL0     H17812   7.955   0.125  12.446 -5.0260  1.9602  2.0811
  854MOL0     H17813   8.033   0.129  12.284 -0.8189  0.7986  0.2124
  854MOL0     H17814   7.717   0.008  12.530  0.8018 -3.2344  4.8646
  854MOL0     H17815   7.552  -0.122  12.616  0.2036  0.5138  0.7591
  854MOL0     H17816   7.314  -0.218  12.639 -2.5082  0.1233 -0.9670
  854MOL0     H17817   7.401  -0.206  12.789 -1.1241 -2.5792 -1.1282
  854MOL0     H17818   7.197  -0.178  12.923  1.2332  0.0101 -0.4298
  854MOL0     H17819   7.099  -0.179  12.776  0.1192 -3.2869 -2.2439
  854MOL0     H17820   7.229  -0.415  12.909 -1.3734 -1.0036  0.9833
  854MOL0     H17821   7.225  -0.406  12.735  0.8804 -1.1339  0.3365
  854MOL0     H17822   6.980  -0.399  12.732  2.7385 -0.2761 -2.6617
  854MOL0     H17823   6.959  -0.409  12.903 -0.2600 -2.3993  1.1302
  854MOL0     H17824   6.968  -0.640  12.764 -0.6852 -0.7198  0.8343
  854MOL0     H17825   7.135  -0.616  12.754  0.8599 -4.4076  2.6149
  854MOL0     H17826   6.997  -0.635  13.016 -0.1233 -1.8984  1.0604
  854MOL0     H17827   7.176  -0.610  12.992 -0.5349  0.9788 -0.6092
  854MOL0     H17828   7.176  -0.849  12.909 -1.9947 -0.2870 -1.5275
  854MOL0     H17829   7.009  -0.850  12.878  1.4107 -0.5094 -0.1204
  854MOL0     H17830   6.965  -0.856  13.137 -0.3761  1.8066 -0.3713
  854MOL0     H17831   7.133  -0.815  13.159  0.6425  0.6394 -2.4628
  854MOL0     H17832   7.297   0.223  12.668  1.1121  1.5876  0.5050
  854MOL0     H17833   7.477   0.365  12.548  1.7369 -0.8068 -3.6867
  854MOL0     H17834   7.857   0.606  12.489 -3.4105  0.4055 -3.8049
  854MOL0     H17835   8.003   0.699  12.321  0.7324 -0.8118 -0.9353
  854MOL0     H17836   9.369   0.241  11.325 -0.1282 -2.4324 -0.4438
  854MOL0     H17837   9.344   0.337  11.111 -0.8636  1.3298  0.1332
  854MOL0     H17838   9.268   0.614  10.742 -1.3463 -1.1213  2.7304
  854MOL0     H17839   9.180   0.732  10.544 -0.1273 -0.2326 -3.3628
  854MOL0     H17840   9.185   0.678  10.322 -0.4681 -0.9240 -0.4214
  854MOL0     H17841   9.053   0.651  10.200 -0.9954 -2.3168  0.4389
  854MOL0     H17842   9.038   0.891  10.394 -0.4385 -0.4695 -0.1627
  854MOL0     H17843   8.967   0.860  10.233 -0.9573  1.0300 -0.6802
  854MOL0     H17844   9.166   1.020  10.240  1.3115 -0.3587  0.3021
  854MOL0     H17845   9.261   0.880  10.268 -1.0921 -0.1211  1.4580
  854MOL0     H17846   9.074   0.961  10.034 -0.4598  1.8284  3.4943
  854MOL0     H17847   9.141   0.792  10.029  1.1233  0.2951 -0.9794
  854MOL0     H17848   9.483   1.001   9.924 -1.6853  2.5302 -2.0811
  854MOL0     H17849   8.864   0.445  10.517 -0.2375  2.5531  0.5950
  854MOL0     H17850   8.992   0.203  10.728 -1.5827 -0.8558  2.3235
  854MOL0     H17851   8.872   0.298  10.800 -1.2402  1.7692 -1.9456
  854MOL0     H17852   8.849   0.266  10.632  0.6606 -0.0128 -1.9192
  855MOL0     O17853   1.884   1.626   9.654  0.3615 -0.0497  0.1131
  855MOL0     C17854   1.796   1.591   9.572 -0.4235  1.1146  0.0085
  855MOL0     O17855   1.773   1.456   9.533 -0.1291 -0.6279  0.5063
  855MOL0     C17856   1.846   1.363   9.607 -0.0277 -0.1168 -0.0355
  855MOL0     C17857   1.985   1.341   9.580 -0.5205 -0.1340 -0.4024
  855MOL0     C17858   2.065   1.246   9.647  0.2143 -0.9931 -1.0456
  855MOL0     C17859   1.998   1.175   9.758  0.2364  0.4681  0.7964
  855MOL0     O17860   2.075   1.096   9.835 -0.9029 -0.8837  0.5415
  855MOL0     C17861   2.077   1.122   9.976 -0.1849  0.3215 -0.6876
  855MOL0     C17862   2.219   1.112  10.023 -0.1482  0.0670  0.3613
  855MOL0     C17863   2.324   1.199   9.961  0.4934  0.0241  0.8748
  855MOL0     C17864   2.462   1.182  10.021 -0.2570 -0.3774  0.4134
  855MOL0     C17865   2.570   1.275   9.958 -0.8896  0.0680  0.9057
  855MOL0     C17866   2.612   1.258   9.812  0.1953 -1.4035  0.3820
  855MOL0     C17867   2.696   1.130   9.788  0.2985 -0.1573 -0.4539
  855MOL0     C17868   2.611   1.009   9.743  0.0640  0.4337  0.5131
  855MOL0     N17869   2.598   1.001   9.589 -0.0842  1.1620 -0.3687
  855MOL0     C17870   2.709   0.980   9.511 -0.1697 -0.3295  0.4525
  855MOL0     C17871   2.670   1.007   9.379 -0.4063  0.5641 -0.2517
  855MOL0     C17872   2.755   0.994   9.257  0.0202 -0.0975  1.3037
  855MOL0     C17873   2.798   0.853   9.215 -0.1427  1.3770  0.1091
  855MOL0     C17874   2.869   0.850   9.083 -0.8124 -0.0402 -0.1581
  855MOL0     C17875   2.898   0.710   9.057 -0.1333  0.3165 -1.1799
  855MOL0     O17876   2.996   0.656   9.154  0.2924 -0.3765 -0.4701
  855MOL0     C17877   3.018   0.521   9.147  0.7483  0.2622  0.5143
  855MOL0     C17878   3.094   0.470   9.255  0.4879 -0.3732  1.3262
  855MOL0     C17879   3.121   0.331   9.276  0.4332 -0.1486  0.4598
  855MOL0     C17880   3.199   0.288   9.400  0.4669  0.0163  0.4798
  855MOL0     C17881   3.065   0.239   9.182  0.1507  0.4917 -0.2124
  855MOL0     C17882   3.094   0.094   9.181 -0.3981 -0.0579  0.1208
  855MOL0     O17883   2.987   0.008   9.170 -0.2714 -0.2648  0.6046
  855MOL0     C17884   2.997  -0.129   9.146 -0.0267  0.5776 -0.4615
  855MOL0     C17885   3.102  -0.193   9.092  0.4938 -0.3394  0.0550
  855MOL0     C17886   3.108  -0.334   9.065  0.5122 -0.0699  0.6887
  855MOL0     C17887   3.010  -0.419   9.116 -0.2149  0.7020  0.2756
  855MOL0     O17888   3.038  -0.557   9.113  0.3766 -0.8324  0.0021
  855MOL0     C17889   2.973  -0.636   9.216 -0.0509 -0.0869 -0.6019
  855MOL0     C17890   3.052  -0.764   9.234 -0.2269 -0.0785 -0.2275
  855MOL0     C17891   3.049  -0.847   9.104  0.0098 -0.3935 -0.6257
  855MOL0     C17892   3.168  -0.940   9.094 -0.2557  0.1761 -0.6016
  855MOL0     C17893   3.181  -1.042   8.979  0.4963  0.2790  0.3744
  855MOL0     C17894   3.064  -1.145   9.011 -0.7883  0.6475  0.8117
  855MOL0     C17895   3.042  -1.222   8.869  0.2344 -0.0113 -0.5041
  855MOL0     C17896   2.953  -1.352   8.881 -0.5502 -0.4955 -0.9855
  855MOL0    Cl17897   3.006  -1.454   9.025 -0.5132 -0.4468  0.0913
  855MOL0     C17898   2.897  -0.353   9.165  0.2031  0.1778  0.4202
  855MOL0     C17899   2.887  -0.213   9.181  1.3380  0.7341 -0.6624
  855MOL0     O17900   3.210   0.069   9.194  0.0034  0.5963 -0.2168
  855MOL0     C17901   2.984   0.281   9.077  0.6460 -0.4551 -0.8593
  855MOL0     C17902   2.951   0.419   9.074 -0.0395  0.5174 -0.2026
  855MOL0     N17903   2.535   1.027   9.389 -0.0173 -1.3519  0.3591
  855MOL0     N17904   2.494   1.018   9.510  0.5644 -0.9784 -0.3365
  855MOL0     C17905   1.860   1.192   9.781 -0.1000 -0.5741 -0.0761
  855MOL0     C17906   1.792   1.292   9.715 -0.1077 -0.4573  0.6421
  855MOL0     C17907   1.708   1.696   9.502  0.1757  0.5552 -0.0535
  855MOL0     C17908   1.629   1.648   9.397  0.3450 -1.1916 -0.6239
  855MOL0     C17909   1.543   1.735   9.322  0.4798 -0.4136 -0.3074
  855MOL0     C17910   1.544   1.879   9.350 -0.5824  0.4513  0.0732
  855MOL0     O17911   1.492   1.964   9.257 -0.2907  0.5532 -0.5175
  855MOL0     C17912   1.427   1.923   9.139  0.0503 -0.6583  0.9559
  855MOL0     C17913   1.394   2.052   9.062  0.4435 -1.8189 -0.2857
  855MOL0     C17914   1.309   2.032   8.932  0.2598  0.4879 -0.3959
  855MOL0     C17915   1.320   2.144   8.834 -0.0524 -0.2470 -0.3024
  855MOL0     C17916   1.452   2.169   8.775 -0.4708 -1.2233  0.0615
  855MOL0     C17917   1.565   2.213   8.748 -0.2905  0.9964  0.6671
  855MOL0     C17918   1.626   1.927   9.457 -0.0887  0.0706  0.0730
  855MOL0     C17919   1.710   1.841   9.535 -0.9783  0.4869  0.5605
  855MOL0     C17920   1.801   1.898   9.647 -0.7483  0.0749  0.2042
  855MOL0     H17921   2.031   1.386   9.492  2.3747 -1.7590  0.1479
  855MOL0     H17922   2.168   1.239   9.613  0.3453  1.7112 -1.4093
  855MOL0     H17923   2.010   1.050  10.024  0.2798 -0.0778 -0.6406
  855MOL0     H17924   2.047   1.222  10.009 -0.6982 -0.2224  0.5669
  855MOL0     H17925   2.216   1.132  10.131  0.1616  0.7165  0.2574
  855MOL0     H17926   2.262   1.012  10.017 -0.9567 -0.2581 -0.2283
  855MOL0     H17927   2.333   1.189   9.852 -2.7868 -1.1967  0.5858
  855MOL0     H17928   2.285   1.301   9.970  0.0940  0.1407 -1.4649
  855MOL0     H17929   2.463   1.207  10.127 -1.7788  1.7869 -0.0216
  855MOL0     H17930   2.497   1.078  10.020  3.7733  0.7787 -0.8313
  855MOL0     H17931   2.664   1.268  10.014 -1.1573 -1.5871  1.1745
  855MOL0     H17932   2.539   1.379   9.977 -1.3170 -0.0172  0.6971
  855MOL0     H17933   2.536   1.276   9.735  0.4007  0.4265  0.5507
  855MOL0     H17934   2.680   1.342   9.793 -2.4572  0.7028 -0.5364
  855MOL0     H17935   2.735   1.103   9.887 -0.2384 -1.7105 -0.6351
  855MOL0     H17936   2.781   1.144   9.721 -0.1325 -0.6159 -1.1193
  855MOL0     H17937   2.656   0.917   9.781 -0.1240 -1.1991 -2.8622
  855MOL0     H17938   2.509   1.016   9.784 -0.4294 -0.5344 -0.4830
  855MOL0     H17939   2.811   0.965   9.545 -1.5337 -0.6107  4.9571
  855MOL0     H17940   2.852   1.042   9.267 -0.0696  1.1531 -2.5451
  855MOL0     H17941   2.704   1.053   9.180 -1.0048  2.0060  3.4583
  855MOL0     H17942   2.867   0.806   9.286  1.8450  1.3522 -1.7168
  855MOL0     H17943   2.712   0.786   9.212  1.0793 -0.3244  1.0970
  855MOL0     H17944   2.802   0.884   9.004 -0.4707 -2.9128 -1.8459
  855MOL0     H17945   2.951   0.921   9.085 -1.8996  1.3581  3.3505
  855MOL0     H17946   2.805   0.652   9.061 -1.8532  2.8081  4.1684
  855MOL0     H17947   2.933   0.712   8.953 -1.9264 -0.6588 -1.8431
  855MOL0     H17948   3.138   0.524   9.339 -1.4727  1.8386  1.0521
  855MOL0     H17949   3.134   0.239   9.472 -2.1169  1.6196 -0.6192
  855MOL0     H17950   3.257   0.362   9.457  1.8318 -1.2857  0.8263
  855MOL0     H17951   3.271   0.213   9.364 -1.0241 -1.2282  0.0180
  855MOL0     H17952   3.193  -0.146   9.059  1.3915  0.2852  3.0987
  855MOL0     H17953   3.197  -0.378   9.023  2.1985 -0.1918  4.0128
  855MOL0     H17954   2.967  -0.581   9.310  1.3356 -1.7951  0.5442
  855MOL0     H17955   2.870  -0.647   9.179 -0.2254  0.6338 -0.3448
  855MOL0     H17956   3.154  -0.746   9.270 -0.5130 -1.3851  1.3759
  855MOL0     H17957   3.007  -0.813   9.321 -2.0010  1.0205 -0.5007
  855MOL0     H17958   3.055  -0.777   9.020 -0.2436  0.7911  0.3020
  855MOL0     H17959   2.949  -0.889   9.091 -0.5830  1.0217 -0.8871
  855MOL0     H17960   3.174  -0.995   9.189 -0.6851 -2.8563 -2.2062
  855MOL0     H17961   3.263  -0.887   9.092 -0.2309  0.2796  1.3266
  855MOL0     H17962   3.166  -1.002   8.879  0.2341 -1.5873 -0.3609
  855MOL0     H17963   3.282  -1.083   8.983  0.5135  0.4088  2.5948
  855MOL0     H17964   2.968  -1.101   9.040 -3.1290 -1.9010 -2.2133
  855MOL0     H17965   3.089  -1.207   9.097 -0.8809 -1.3974 -0.5474
  855MOL0     H17966   3.137  -1.252   8.825  0.2398  1.0657 -1.2512
  855MOL0     H17967   2.993  -1.161   8.793 -1.6446  1.3231  1.6373
  855MOL0     H17968   2.963  -1.413   8.790  5.2609  0.0913 -1.0485
  855MOL0     H17969   2.850  -1.313   8.880 -0.0760  0.8442  0.0510
  855MOL0     H17970   2.821  -0.416   9.211  0.8343 -0.5849  0.4220
  855MOL0     H17971   2.800  -0.174   9.233  0.2450 -2.2217 -0.0346
  855MOL0     H17972   2.931   0.211   9.013 -0.3141 -1.6242  1.1413
  855MOL0     H17973   2.875   0.449   9.002  0.8134  1.5219 -0.7054
  855MOL0     H17974   1.793   1.137   9.846 -3.9031  0.7174 -2.5593
  855MOL0     H17975   1.690   1.316   9.744 -0.2949 -0.7837  0.2570
  855MOL0     H17976   1.621   1.546   9.361  2.1367 -0.5857 -3.0267
  855MOL0     H17977   1.469   1.690   9.257 -1.8965  0.6377  1.5058
  855MOL0     H17978   1.489   1.851   9.084  1.0725  0.7588  0.1897
  855MOL0     H17979   1.327   1.884   9.162 -1.4292  2.0881 -0.3667
  855MOL0     H17980   1.484   2.111   9.042 -1.1719  1.4076  1.1442
  855MOL0     H17981   1.348   2.116   9.138  0.4546 -2.7667  0.5253
  855MOL0     H17982   1.335   1.945   8.871 -0.7879 -1.2852  1.5639
  855MOL0     H17983   1.210   2.000   8.966  0.8991 -2.4033 -0.9747
  855MOL0     H17984   1.283   2.237   8.877  2.7677  0.8467 -0.0515
  855MOL0     H17985   1.250   2.123   8.752 -1.5272 -2.8919  1.4940
  855MOL0     H17986   1.653   2.269   8.723 -0.1064  1.9863  3.2474
  855MOL0     H17987   1.634   2.034   9.468  1.7580  0.0717 -0.9059
  855MOL0     H17988   1.778   2.002   9.672  1.3994  0.2752  1.5867
  855MOL0     H17989   1.787   1.837   9.737 -2.0965 -3.2159 -2.0167
  855MOL0     H17990   1.909   1.895   9.630 -0.6677  1.7807  0.2661
  856MOL0     O17991   6.459   5.357   1.698  0.2194  0.4624 -0.2447
  856MOL0     C17992   6.397   5.365   1.596  0.6508  0.0942 -0.3459
  856MOL0     O17993   6.287   5.451   1.578 -0.4818 -0.3647  0.5396
  856MOL0     C17994   6.274   5.558   1.667 -0.7479  0.2507  0.3290
  856MOL0     C17995   6.381   5.635   1.714  0.4742  0.2444 -0.0892
  856MOL0     C17996   6.341   5.740   1.807  0.0098 -1.0308  0.1323
  856MOL0     C17997   6.205   5.766   1.841 -0.6518 -0.2072 -0.0273
  856MOL0     O17998   6.171   5.848   1.941  0.1960  0.4865  0.4302
  856MOL0     C17999   6.270   5.867   2.051  1.0837  0.5637  1.0824
  856MOL0     C18000   6.211   5.976   2.148  0.9802  0.1793  0.3456
  856MOL0     C18001   6.318   6.045   2.237 -0.1724  0.2647  0.1178
  856MOL0     C18002   6.236   6.148   2.314 -0.5212  0.1629 -0.5302
  856MOL0     C18003   6.316   6.239   2.421  0.9947  0.1717  0.3523
  856MOL0     C18004   6.435   6.309   2.356 -0.5789  0.1397  0.3370
  856MOL0     C18005   6.568   6.298   2.437  0.1641 -1.3685  0.0118
  856MOL0     C18006   6.688   6.348   2.356  0.1626 -0.0424  0.4067
  856MOL0     N18007   6.804   6.269   2.412 -0.1541 -0.5879  0.4136
  856MOL0     C18008   6.853   6.172   2.334 -0.3544 -0.0043  0.2828
  856MOL0     C18009   6.973   6.151   2.394 -0.0927 -0.4261  0.4339
  856MOL0     C18010   7.069   6.039   2.355  0.4918  0.1778 -0.1028
  856MOL0     C18011   7.138   6.040   2.216  1.1288 -0.4507 -0.5318
  856MOL0     C18012   7.261   6.128   2.215 -0.0640 -0.4494 -1.1149
  856MOL0     C18013   7.304   6.159   2.081  0.3944 -0.1172 -0.2411
  856MOL0     O18014   7.202   6.224   1.996 -0.2462 -1.0475 -0.5242
  856MOL0     C18015   7.177   6.360   2.011 -0.2804  0.0069  0.7541
  856MOL0     C18016   7.097   6.405   2.114  0.3642 -0.8692  0.1061
  856MOL0     C18017   7.068   6.546   2.116  0.0170 -0.4046 -0.0705
  856MOL0     C18018   6.956   6.600   2.209 -0.3583 -0.1201  0.0664
  856MOL0     C18019   7.126   6.635   2.016 -0.7113 -0.1117  0.3951
  856MOL0     C18020   7.087   6.778   1.994  0.2295 -1.2852 -0.2378
  856MOL0     O18021   7.119   6.831   1.872  0.2034  0.3429  0.4992
  856MOL0     C18022   7.126   6.967   1.860  0.1157  0.3749  0.3564
  856MOL0     C18023   7.202   7.042   1.949 -0.5765  0.5764  0.1895
  856MOL0     C18024   7.220   7.176   1.937  0.7589  0.4565 -0.1633
  856MOL0     C18025   7.172   7.245   1.817 -0.0440  0.0453 -0.3613
  856MOL0     O18026   7.193   7.380   1.802 -0.3487 -0.0414 -0.0056
  856MOL0     C18027   7.091   7.443   1.723  0.8349  0.6611  0.4333
  856MOL0     C18028   7.116   7.599   1.722  0.1674 -0.0344  0.0223
  856MOL0     C18029   7.095   7.665   1.860 -0.9462  0.1159 -0.8285
  856MOL0     C18030   7.104   7.823   1.841  0.8851  0.3741  0.6536
  856MOL0     C18031   6.988   7.908   1.886  0.1027 -0.4846  0.0746
  856MOL0     C18032   6.968   7.905   2.042  0.3012 -0.2665  0.0813
  856MOL0     C18033   6.864   8.015   2.074 -0.9899  0.0069  0.7174
  856MOL0     C18034   6.827   8.060   2.211  0.6471 -0.0852 -1.1315
  856MOL0    Cl18035   6.838   7.936   2.336 -0.1433  0.2715 -0.3720
  856MOL0     C18036   7.116   7.157   1.717  0.8984  0.0679  0.2051
  856MOL0     C18037   7.088   7.014   1.738  0.2005  0.2016 -0.4637
  856MOL0     O18038   7.047   6.849   2.090 -0.4720  0.1110 -0.4598
  856MOL0     C18039   7.206   6.578   1.912 -0.2631  0.0765  0.4390
  856MOL0     C18040   7.223   6.443   1.910 -0.7646 -0.2213 -0.3003
  856MOL0     N18041   7.012   6.249   2.474 -0.8407  0.2728 -0.1105
  856MOL0     N18042   6.902   6.317   2.501 -0.9409 -0.8896  0.4526
  856MOL0     C18043   6.106   5.689   1.783 -0.6406  0.2774  0.1702
  856MOL0     C18044   6.140   5.584   1.696  0.1864  0.5893 -0.4989
  856MOL0     C18045   6.427   5.256   1.500  1.1976  0.5912  0.7870
  856MOL0     C18046   6.354   5.257   1.380  0.0670  0.8205 -0.1351
  856MOL0     C18047   6.388   5.165   1.279  0.7163  0.3893 -0.4510
  856MOL0     C18048   6.472   5.056   1.306  0.3052 -0.2248  1.1961
  856MOL0     O18049   6.482   4.966   1.200 -0.0928  0.6156  0.0158
  856MOL0     C18050   6.562   4.837   1.213 -0.7519  0.2026 -0.2843
  856MOL0     C18051   6.526   4.759   1.095 -0.9103  0.5549  0.4325
  856MOL0     C18052   6.591   4.817   0.969 -0.4418 -0.2720  0.1015
  856MOL0     C18053   6.531   4.742   0.856 -0.5756  0.9772  0.5266
  856MOL0     C18054   6.472   4.843   0.763  0.3813 -0.1275  0.2363
  856MOL0     C18055   6.427   4.930   0.684  0.4488  0.1874 -0.2933
  856MOL0     C18056   6.525   5.043   1.437  0.5820 -0.7429 -0.4636
  856MOL0     C18057   6.508   5.142   1.531  0.1410 -0.4586 -0.0669
  856MOL0     C18058   6.573   5.124   1.663 -0.7976 -0.1952  0.8326
  856MOL0     H18059   6.488   5.622   1.700  0.2499  0.8992 -3.0255
  856MOL0     H18060   6.418   5.804   1.847  0.4977  0.3855 -2.8251
  856MOL0     H18061   6.370   5.893   2.016  0.8263 -0.1287 -0.2199
  856MOL0     H18062   6.278   5.772   2.103  2.1909  0.9318  1.6180
  856MOL0     H18063   6.169   6.056   2.086 -0.8266  0.6955  2.1181
  856MOL0     H18064   6.132   5.941   2.215 -0.8904  0.8931 -1.3737
  856MOL0     H18065   6.361   5.982   2.315 -2.8039  1.9795  3.2137
  856MOL0     H18066   6.390   6.073   2.159  0.3427  0.0516  0.5148
  856MOL0     H18067   6.188   6.217   2.244 -0.2154  1.7130  0.7297
  856MOL0     H18068   6.158   6.097   2.372  2.3587 -1.7748  1.9342
  856MOL0     H18069   6.349   6.188   2.512  1.8889  3.2257  1.8611
  856MOL0     H18070   6.238   6.309   2.452  0.2062 -0.7764  0.5870
  856MOL0     H18071   6.445   6.282   2.251 -0.0931  1.6779 -0.0368
  856MOL0     H18072   6.409   6.415   2.342 -2.4765 -0.4235 -0.7043
  856MOL0     H18073   6.583   6.192   2.458 -1.2708 -1.4714  0.6888
  856MOL0     H18074   6.559   6.349   2.533  0.2201  2.0945 -1.6543
  856MOL0     H18075   6.676   6.337   2.248  0.8027  0.9871  0.2176
  856MOL0     H18076   6.693   6.453   2.386 -0.9073  0.1711 -0.1358
  856MOL0     H18077   6.799   6.122   2.254  0.8619  0.2885 -0.7455
  856MOL0     H18078   7.018   5.942   2.364 -1.6439  1.4147  5.6114
  856MOL0     H18079   7.141   6.039   2.437  1.0814  1.7651 -0.5875
  856MOL0     H18080   7.157   5.935   2.191 -1.0245 -1.1794  0.6015
  856MOL0     H18081   7.066   6.065   2.138 -1.1577  2.0727  2.1717
  856MOL0     H18082   7.232   6.227   2.253  0.3651 -0.5989 -0.3798
  856MOL0     H18083   7.343   6.089   2.276  2.8405  2.4993 -2.7566
  856MOL0     H18084   7.392   6.224   2.095 -0.3427  0.2961  3.4390
  856MOL0     H18085   7.338   6.070   2.028 -2.0343 -1.3258  0.1112
  856MOL0     H18086   7.047   6.337   2.182 -2.7481  0.0753 -1.0350
  856MOL0     H18087   6.994   6.677   2.277  0.4650 -0.7104  0.3002
  856MOL0     H18088   6.923   6.525   2.282  0.7268  0.4894  1.2273
  856MOL0     H18089   6.880   6.658   2.157  1.5999  1.2630 -1.3904
  856MOL0     H18090   7.233   7.006   2.047  0.8310 -0.6591 -0.6585
  856MOL0     H18091   7.260   7.235   2.019 -3.6968  2.3938  0.9229
  856MOL0     H18092   7.087   7.402   1.622  1.1426 -0.7888  0.9872
  856MOL0     H18093   6.993   7.427   1.771  1.1557  0.9530  1.1967
  856MOL0     H18094   7.220   7.610   1.691  0.1046 -1.6403 -0.8783
  856MOL0     H18095   7.048   7.642   1.647 -1.2533  0.1315  1.3419
  856MOL0     H18096   7.161   7.619   1.935 -2.2389 -0.0216  0.2541
  856MOL0     H18097   6.995   7.636   1.892 -1.4292  2.5153  0.0051
  856MOL0     H18098   7.105   7.836   1.733 -2.9259 -0.1405  0.4269
  856MOL0     H18099   7.201   7.858   1.877  0.7622  4.3064 -2.2111
  856MOL0     H18100   7.007   8.013   1.860  0.3883 -0.5623 -0.0354
  856MOL0     H18101   6.893   7.883   1.837  0.1746  0.5760 -0.6564
  856MOL0     H18102   7.061   7.936   2.090  1.1566  0.5869 -2.0267
  856MOL0     H18103   6.942   7.806   2.082  2.5383 -1.1613 -0.5643
  856MOL0     H18104   6.775   7.964   2.037  0.2776 -2.3987  0.7956
  856MOL0     H18105   6.895   8.102   2.016  4.1653 -2.3824 -0.6680
  856MOL0     H18106   6.724   8.097   2.209  1.6694  3.0879 -1.0121
  856MOL0     H18107   6.887   8.145   2.245 -0.7520  0.3314  0.4286
  856MOL0     H18108   7.092   7.191   1.616  2.8727  1.7692  0.2345
  856MOL0     H18109   7.042   6.972   1.650  0.0325 -1.8156  0.5230
  856MOL0     H18110   7.255   6.625   1.827 -1.0342 -4.3376 -2.8234
  856MOL0     H18111   7.287   6.397   1.836 -2.3317 -0.9030 -1.2819
  856MOL0     H18112   6.001   5.690   1.813 -0.1096 -1.4739  2.3017
  856MOL0     H18113   6.062   5.514   1.666 -1.4772  1.7341  0.9867
  856MOL0     H18114   6.294   5.345   1.359  1.7144  2.1691  0.5327
  856MOL0     H18115   6.347   5.180   1.179  2.1987  3.2747 -0.7325
  856MOL0     H18116   6.669   4.855   1.225 -1.0812  1.6981  0.7333
  856MOL0     H18117   6.538   4.787   1.308  2.0387  1.1378  1.0271
  856MOL0     H18118   6.419   4.774   1.084 -1.2963 -0.3931  2.4447
  856MOL0     H18119   6.551   4.653   1.103 -0.9294  0.4619 -0.6979
  856MOL0     H18120   6.583   4.926   0.964  0.1107 -0.1221  1.8382
  856MOL0     H18121   6.697   4.790   0.972 -0.5271 -0.7425  3.9768
  856MOL0     H18122   6.457   4.666   0.884  1.5084 -0.5643  2.2230
  856MOL0     H18123   6.614   4.686   0.812 -0.4551 -1.1783  3.1799
  856MOL0     H18124   6.361   5.001   0.639 -0.2430 -0.7338 -0.7638
  856MOL0     H18125   6.586   4.962   1.475  2.5382  1.2184  0.8155
  856MOL0     H18126   6.643   5.208   1.669 -1.9883  0.8145  6.0133
  856MOL0     H18127   6.510   5.133   1.752 -0.5688 -5.7057  1.9277
  856MOL0     H18128   6.620   5.026   1.677  1.3164  1.0732  3.9258
  857MOL0     O18129  10.033   6.491   6.983 -0.7323  0.5002 -0.5913
  857MOL0     C18130   9.961   6.581   7.030  0.1853  0.7025 -1.0393
  857MOL0     O18131  10.005   6.671   7.124 -0.0431  0.8026  0.0522
  857MOL0     C18132  10.142   6.698   7.125 -0.1724  0.4925 -0.0170
  857MOL0     C18133  10.184   6.770   7.020  0.5946  0.2220 -0.4211
  857MOL0     C18134  10.304   6.825   7.009 -0.0179 -0.4732  1.4194
  857MOL0     C18135  10.402   6.799   7.094 -0.5926 -0.3113  0.0597
  857MOL0     O18136  10.520   6.867   7.082  0.2130 -0.2366  0.5558
  857MOL0     C18137  10.631   6.832   7.166 -0.1942  0.0186 -0.4878
  857MOL0     C18138  10.680   6.689   7.148 -0.5919  0.6609 -1.2487
  857MOL0     C18139  10.699   6.637   7.002  0.1908 -0.2260  0.3414
  857MOL0     C18140  10.707   6.483   7.015  0.7928  1.1501  0.3326
  857MOL0     C18141  10.584   6.399   7.066  0.4069  0.2236  0.0084
  857MOL0     C18142  10.455   6.431   6.993  0.2617 -0.2927  0.7401
  857MOL0     C18143  10.445   6.343   6.868  0.2034  0.2873 -0.3762
  857MOL0     C18144  10.311   6.279   6.859 -0.2596  0.7934  1.6784
  857MOL0     N18145  10.272   6.264   6.713 -0.5252  0.4340 -0.5464
  857MOL0     C18146  10.147   6.307   6.666 -0.4893  0.5998  0.1076
  857MOL0     C18147  10.133   6.271   6.538  0.8938  0.0552 -0.5132
  857MOL0     C18148  10.016   6.298   6.435  0.3410  0.4562  0.8159
  857MOL0     C18149  10.027   6.196   6.322 -0.0406  0.1770  0.1600
  857MOL0     C18150   9.926   6.232   6.208  0.1149 -0.5732  0.4422
  857MOL0     C18151   9.964   6.183   6.075 -0.3713 -0.2410  0.3777
  857MOL0     O18152   9.962   6.038   6.065 -0.0556 -0.4213  0.2120
  857MOL0     C18153  10.023   5.966   5.961  0.3850 -0.6533 -1.2239
  857MOL0     C18154  10.098   6.023   5.868  0.4361 -0.2926  0.1262
  857MOL0     C18155  10.172   5.936   5.776 -0.6883 -0.3629 -0.2015
  857MOL0     C18156  10.257   6.003   5.669  0.6398  0.0610 -0.8552
  857MOL0     C18157  10.151   5.798   5.775 -0.3872  0.2235 -0.7298
  857MOL0     C18158  10.220   5.698   5.685 -0.8103 -0.8006  1.0074
  857MOL0     O18159  10.282   5.726   5.559  0.1058 -0.1595  0.4861
  857MOL0     C18160  10.323   5.617   5.489 -0.1128 -0.7666 -0.7942
  857MOL0     C18161  10.456   5.582   5.503 -0.3595 -0.1448  0.7198
  857MOL0     C18162  10.508   5.467   5.436  0.2082  0.1322 -0.9126
  857MOL0     C18163  10.419   5.399   5.347  0.3066 -0.6064  0.0191
  857MOL0     O18164  10.448   5.298   5.259  0.3493 -0.2762  0.0101
  857MOL0     C18165  10.520   5.179   5.303 -0.3768 -0.0531  0.5378
  857MOL0     C18166  10.568   5.097   5.181 -0.6274  0.6751 -0.0137
  857MOL0     C18167  10.673   4.989   5.224  0.3909 -0.7092  0.1592
  857MOL0     C18168  10.702   4.888   5.104  0.6610  0.2923  0.1713
  857MOL0     C18169  10.843   4.828   5.095  0.8331 -0.8805 -0.1201
  857MOL0     C18170  10.855   4.742   4.983  0.2027 -0.2929 -0.3315
  857MOL0     C18171  10.978   4.653   4.990  0.3112  0.0511 -0.6670
  857MOL0     C18172  10.981   4.526   4.897 -0.0259 -0.3669 -1.6091
  857MOL0    Cl18173  10.830   4.415   4.923 -0.3014  0.1496 -0.0417
  857MOL0     C18174  10.284   5.435   5.343 -0.7618 -0.2196 -0.0174
  857MOL0     C18175  10.237   5.543   5.414  0.8741  0.0253 -0.1411
  857MOL0     O18176  10.219   5.583   5.730  0.2009 -0.8924  0.1110
  857MOL0     C18177  10.067   5.748   5.885  0.2995  0.1107  1.6124
  857MOL0     C18178  10.000   5.832   5.967  0.2593  0.4154  0.8590
  857MOL0     N18179  10.245   6.199   6.514  0.2270  0.5107 -0.0578
  857MOL0     N18180  10.322   6.189   6.615 -0.4447 -0.0554 -0.3873
  857MOL0     C18181  10.364   6.718   7.202 -0.1950  0.5851 -0.1185
  857MOL0     C18182  10.239   6.659   7.218 -0.4547  0.1064  1.1003
  857MOL0     C18183   9.809   6.579   6.998 -0.6621 -0.5032  0.0890
  857MOL0     C18184   9.721   6.632   7.095 -0.4704 -0.5846 -0.9885
  857MOL0     C18185   9.586   6.660   7.074  0.3531 -0.8120 -0.5370
  857MOL0     C18186   9.528   6.616   6.962  1.0357 -0.7740  0.0045
  857MOL0     O18187   9.393   6.627   6.946  0.2848  0.4590  0.1176
  857MOL0     C18188   9.319   6.732   7.014 -0.1108  0.1257 -0.2011
  857MOL0     C18189   9.173   6.737   6.949  0.3978  0.0205  0.1507
  857MOL0     C18190   9.082   6.620   7.006 -0.1409  0.3899 -0.4911
  857MOL0     C18191   8.934   6.641   6.941  0.7031 -0.4252  0.1281
  857MOL0     C18192   8.869   6.767   6.982  0.3640  0.2363  0.6136
  857MOL0     C18193   8.841   6.872   7.048  0.4067 -1.0438 -0.5258
  857MOL0     C18194   9.603   6.544   6.869 -1.2932  0.3984  0.4675
  857MOL0     C18195   9.745   6.538   6.881 -0.0654  0.3633  1.2408
  857MOL0     C18196   9.822   6.487   6.766 -0.4114  0.2513  0.4317
  857MOL0     H18197  10.102   6.771   6.948  0.1105 -3.1569 -0.0779
  857MOL0     H18198  10.324   6.886   6.922  0.4132 -0.8389  1.2638
  857MOL0     H18199  10.616   6.848   7.273 -0.4499 -1.4213 -0.2836
  857MOL0     H18200  10.710   6.903   7.139  0.5199  0.7944  3.0507
  857MOL0     H18201  10.774   6.677   7.203 -0.1852 -1.7601 -2.3352
  857MOL0     H18202  10.604   6.628   7.199 -0.3872  1.6571  0.3227
  857MOL0     H18203  10.616   6.682   6.947 -0.3277  1.9962  2.7327
  857MOL0     H18204  10.789   6.673   6.951  0.6234 -2.2500 -0.4016
  857MOL0     H18205  10.709   6.442   6.914 -1.1742  2.4707 -0.3052
  857MOL0     H18206  10.799   6.472   7.074  1.1334  3.5773  0.3806
  857MOL0     H18207  10.572   6.435   7.169 -0.2022  1.8411 -0.5870
  857MOL0     H18208  10.603   6.292   7.072  2.0207  0.5133  0.5283
  857MOL0     H18209  10.367   6.409   7.054 -0.9737  0.6832 -0.5988
  857MOL0     H18210  10.435   6.531   6.954  0.3169 -1.4265 -2.4795
  857MOL0     H18211  10.534   6.280   6.874  1.4022  1.8000 -1.5395
  857MOL0     H18212  10.465   6.415   6.789  4.1483 -0.5727 -0.3646
  857MOL0     H18213  10.309   6.184   6.913 -1.9697  0.3688  0.9370
  857MOL0     H18214  10.234   6.335   6.912  0.3956 -1.3472  5.2547
  857MOL0     H18215  10.082   6.375   6.720 -2.5175  1.6304 -3.2975
  857MOL0     H18216  10.026   6.397   6.388 -0.8629 -0.9425 -2.6862
  857MOL0     H18217   9.919   6.280   6.480 -0.1550 -2.4378 -1.1467
  857MOL0     H18218  10.132   6.184   6.294  0.4127  2.4820  0.5957
  857MOL0     H18219   9.990   6.100   6.357  3.2433 -1.3668 -0.2515
  857MOL0     H18220   9.828   6.199   6.245 -1.8521  1.0178 -2.8715
  857MOL0     H18221   9.907   6.339   6.197 -1.5063 -0.7426  1.3198
  857MOL0     H18222   9.897   6.232   6.004  2.5411  1.7396 -1.1991
  857MOL0     H18223  10.065   6.219   6.052 -0.9019  0.9503 -0.1443
  857MOL0     H18224  10.108   6.130   5.856 -4.0286  0.4940  1.4629
  857MOL0     H18225  10.257   6.111   5.690  0.9910  0.1192 -1.1454
  857MOL0     H18226  10.222   5.985   5.567  2.4594  1.4310 -1.7788
  857MOL0     H18227  10.365   5.986   5.679  0.5919  0.6300  1.1928
  857MOL0     H18228  10.520   5.642   5.566  0.4733  1.9124 -1.8846
  857MOL0     H18229  10.612   5.440   5.451  0.4215  2.4178  3.6749
  857MOL0     H18230  10.588   5.200   5.386 -2.3621  4.9267  1.2396
  857MOL0     H18231  10.443   5.124   5.357  0.2802 -2.6177 -0.9953
  857MOL0     H18232  10.475   5.052   5.144 -1.5241  1.4692  1.1727
  857MOL0     H18233  10.608   5.178   5.120 -2.0681  0.9329 -0.6586
  857MOL0     H18234  10.638   4.936   5.313 -1.3287 -2.0543 -1.2495
  857MOL0     H18235  10.761   5.049   5.247 -1.0107  1.5588 -0.0369
  857MOL0     H18236  10.693   4.951   5.015  1.5089  1.8731  1.1498
  857MOL0     H18237  10.626   4.809   5.104  0.9380  0.0260  0.4931
  857MOL0     H18238  10.907   4.915   5.079 -0.5143  0.8764  3.2050
  857MOL0     H18239  10.872   4.781   5.189  1.3433  1.9617  1.2314
  857MOL0     H18240  10.884   4.803   4.897  1.2961 -0.5391 -0.1590
  857MOL0     H18241  10.763   4.687   4.962  0.6069 -1.9103  1.7542
  857MOL0     H18242  11.009   4.623   5.091 -0.6547 -1.6063 -0.8181
  857MOL0     H18243  11.060   4.707   4.942  0.1090 -1.2591 -2.6258
  857MOL0     H18244  11.073   4.472   4.921 -0.2017  0.2051  0.5391
  857MOL0     H18245  10.993   4.555   4.792  0.7192  1.0184 -1.1675
  857MOL0     H18246  10.224   5.382   5.270 -1.5758  1.8549 -0.9408
  857MOL0     H18247  10.129   5.555   5.410  0.6491 -1.8011 -0.4214
  857MOL0     H18248  10.034   5.645   5.889 -3.4519  0.9941 -1.1847
  857MOL0     H18249   9.924   5.788   6.031  0.1810  0.4140  0.7653
  857MOL0     H18250  10.426   6.674   7.280 -3.4050 -0.9267  1.8093
  857MOL0     H18251  10.209   6.582   7.288 -4.1057  0.5687  0.2457
  857MOL0     H18252   9.764   6.660   7.190 -0.0932 -1.1335 -0.9908
  857MOL0     H18253   9.535   6.707   7.158 -0.2810 -0.6732 -0.9884
  857MOL0     H18254   9.313   6.729   7.123 -1.5343 -0.9770 -0.2752
  857MOL0     H18255   9.369   6.827   6.992 -0.6546  0.8291  1.4466
  857MOL0     H18256   9.187   6.726   6.841  1.8363 -1.7700  0.4724
  857MOL0     H18257   9.125   6.834   6.967 -0.9607 -0.7151  0.6159
  857MOL0     H18258   9.124   6.523   6.980 -1.3791  0.3848 -2.7303
  857MOL0     H18259   9.077   6.626   7.115  1.0096 -0.6274 -0.3682
  857MOL0     H18260   8.877   6.553   6.973 -1.0453  0.6122 -0.0227
  857MOL0     H18261   8.943   6.631   6.833  1.3725 -0.5086  0.1849
  857MOL0     H18262   8.805   6.965   7.087  0.1447  1.0123 -4.9706
  857MOL0     H18263   9.550   6.492   6.790 -4.8818  1.9873  1.6466
  857MOL0     H18264   9.763   6.443   6.685  1.7923  1.8296 -2.2333
  857MOL0     H18265   9.885   6.566   6.724 -0.5413 -1.1886 -2.7883
  857MOL0     H18266   9.890   6.406   6.795  0.0536 -1.4306 -4.4471
  858MOL0     O18267  11.321   0.617   4.797  0.2354  0.5381 -1.0744
  858MOL0     C18268  11.277   0.502   4.817 -0.4326 -0.0059 -0.3333
  858MOL0     O18269  11.324   0.386   4.773  0.2280  0.0496  0.4711
  858MOL0     C18270  11.450   0.368   4.717 -0.0794  0.6447 -0.3290
  858MOL0     C18271  11.510   0.241   4.734 -0.9123 -0.6924  0.4153
  858MOL0     C18272  11.630   0.210   4.666 -0.8255 -0.0235 -0.1541
  858MOL0     C18273  11.698   0.309   4.587  1.0198  0.4706 -0.0857
  858MOL0     O18274  11.820   0.300   4.522 -0.5560  0.4646 -1.2401
  858MOL0     C18275  11.866   0.167   4.496  0.3382 -0.6923  1.2009
  858MOL0     C18276  11.979   0.178   4.391  0.7590  0.1056  0.1493
  858MOL0     C18277  12.007   0.045   4.329  0.0236  1.4419 -0.4793
  858MOL0     C18278  12.141   0.069   4.250  0.9111  0.3129  0.0099
  858MOL0     C18279  12.142  -0.047   4.147  0.1943 -0.4769  0.3185
  858MOL0     C18280  12.285  -0.066   4.090 -0.3624 -0.0951 -0.4975
  858MOL0     C18281  12.339   0.057   4.005  0.0482 -0.6125 -0.3264
  858MOL0     C18282  12.455   0.037   3.896  0.1803 -0.1159  0.2231
  858MOL0     N18283  12.592   0.078   3.925  0.1065 -0.0261 -1.1390
  858MOL0     C18284  12.647   0.208   3.933 -0.0885 -0.0714 -0.0153
  858MOL0     C18285  12.775   0.184   3.959 -1.6022  1.4685 -0.4982
  858MOL0     C18286  12.873   0.299   3.962  0.3219 -0.0735  0.0973
  858MOL0     C18287  13.010   0.264   4.024  0.1290 -0.7401  0.6127
  858MOL0     C18288  13.006   0.227   4.175  0.1606  0.0106 -0.6417
  858MOL0     C18289  13.146   0.189   4.221  0.9144  0.4282 -0.2007
  858MOL0     O18290  13.181   0.069   4.154  0.3860 -0.4315  0.0236
  858MOL0     C18291  13.287   0.005   4.210  0.0803 -0.6976 -0.9073
  858MOL0     C18292  13.373   0.049   4.304 -1.2853 -0.6404 -0.9019
  858MOL0     C18293  13.482  -0.022   4.353 -0.3100  0.5820 -0.2477
  858MOL0     C18294  13.568   0.052   4.450 -0.3988 -0.5599  0.3731
  858MOL0     C18295  13.509  -0.154   4.300  0.4540 -0.7364  1.1307
  858MOL0     C18296  13.633  -0.221   4.313 -0.0556  0.6236  0.1467
  858MOL0     O18297  13.677  -0.314   4.223  0.2437 -0.7956  0.0553
  858MOL0     C18298  13.770  -0.413   4.250  0.9952 -0.9049  0.2247
  858MOL0     C18299  13.741  -0.545   4.213 -0.2199 -0.0418  0.5638
  858MOL0     C18300  13.832  -0.641   4.242 -0.1137 -1.4278 -0.3704
  858MOL0     C18301  13.959  -0.608   4.282 -0.6179 -0.1710  0.5317
  858MOL0     O18302  14.040  -0.712   4.302  0.1418 -0.5738  1.3864
  858MOL0     C18303  14.174  -0.686   4.332  0.7590  0.6254 -0.9548
  858MOL0     C18304  14.242  -0.821   4.329 -1.3030  0.6649  0.2909
  858MOL0     C18305  14.291  -0.859   4.196  0.4298  0.9310  0.0917
  858MOL0     C18306  14.367  -0.992   4.199 -0.0611 -0.3651 -0.4772
  858MOL0     C18307  14.386  -1.048   4.059 -0.1868  0.7033 -0.7141
  858MOL0     C18308  14.452  -1.188   4.056  1.0481 -0.6506 -0.9337
  858MOL0     C18309  14.421  -1.257   3.924 -0.4860  0.1994 -0.5186
  858MOL0     C18310  14.526  -1.371   3.904  0.2007  0.2132  0.8373
  858MOL0    Cl18311  14.682  -1.292   3.867  0.2475  0.3463 -0.1562
  858MOL0     C18312  13.997  -0.476   4.308  0.1549  0.0549  0.5005
  858MOL0     C18313  13.901  -0.376   4.288  0.3750  0.8562 -0.1319
  858MOL0     O18314  13.687  -0.214   4.426  0.6957  0.4315 -0.5164
  858MOL0     C18315  13.418  -0.201   4.201  0.8508 -0.5132  0.3765
  858MOL0     C18316  13.299  -0.124   4.175 -0.4480  0.2857  0.6207
  858MOL0     N18317  12.801   0.046   3.969  0.1685 -0.5388 -0.1105
  858MOL0     N18318  12.686  -0.017   3.956 -0.7408 -0.0518  0.0243
  858MOL0     C18319  11.640   0.428   4.581 -0.1975 -1.1724 -0.6252
  858MOL0     C18320  11.514   0.456   4.635  0.6566 -0.7346  0.2367
  858MOL0     C18321  11.144   0.479   4.879 -0.4160  0.1200  0.0925
  858MOL0     C18322  11.094   0.350   4.894 -0.5690 -0.6248  0.3141
  858MOL0     C18323  10.966   0.332   4.954  0.9213 -0.8020  0.1257
  858MOL0     C18324  10.891   0.443   5.009 -0.5485 -0.5442  0.2793
  858MOL0     O18325  10.761   0.426   5.054  0.0751  0.1619  0.2437
  858MOL0     C18326  10.688   0.305   5.009  0.2410 -0.5123 -0.8912
  858MOL0     C18327  10.538   0.330   5.025  1.3673 -0.6289 -0.4269
  858MOL0     C18328  10.459   0.206   4.963  0.1477  0.6090  0.1088
  858MOL0     C18329  10.457   0.086   5.060 -0.4426 -0.5088 -0.9096
  858MOL0     C18330  10.334   0.009   5.049  0.0232  0.3681 -0.9042
  858MOL0     C18331  10.233  -0.054   5.045 -0.2342  0.1869  0.8764
  858MOL0     C18332  10.943   0.566   4.995 -0.2089 -0.7118  0.6909
  858MOL0     C18333  11.069   0.591   4.936 -0.3092 -0.7277 -0.5570
  858MOL0     C18334  11.102   0.744   4.924  0.3399  0.0939  0.5547
  858MOL0     H18335  11.461   0.165   4.795 -1.0988 -1.1232 -0.2589
  858MOL0     H18336  11.675   0.112   4.684  0.8091  0.8753  0.8673
  858MOL0     H18337  11.791   0.092   4.468 -1.3242 -0.3186  4.2604
  858MOL0     H18338  11.901   0.117   4.587  0.1159  3.1326  3.5900
  858MOL0     H18339  11.966   0.251   4.310 -1.1082  0.3249  0.6109
  858MOL0     H18340  12.057   0.214   4.458 -2.1591  3.3567  2.1429
  858MOL0     H18341  12.008  -0.027   4.412 -2.8329  2.2792  0.4074
  858MOL0     H18342  11.925   0.005   4.269  0.8609  1.9826 -2.0342
  858MOL0     H18343  12.147   0.160   4.190  3.0760 -0.9137 -1.7964
  858MOL0     H18344  12.220   0.052   4.323 -1.5858  1.4489  3.2596
  858MOL0     H18345  12.076  -0.028   4.062 -0.7425  0.2875  1.2043
  858MOL0     H18346  12.111  -0.139   4.198 -2.2314  0.7341  1.1738
  858MOL0     H18347  12.359  -0.094   4.165 -0.1092 -1.1465 -1.1125
  858MOL0     H18348  12.275  -0.154   4.025 -0.5825 -0.6305  0.2557
  858MOL0     H18349  12.380   0.119   4.085 -2.0388 -0.5173  0.7261
  858MOL0     H18350  12.261   0.115   3.955  0.0283 -0.0738  0.3171
  858MOL0     H18351  12.454  -0.062   3.849  1.6247  0.2091 -0.5751
  858MOL0     H18352  12.438   0.110   3.816 -0.3327 -3.6765 -3.2145
  858MOL0     H18353  12.592   0.294   3.898 -1.3063 -1.8017 -2.6710
  858MOL0     H18354  12.835   0.379   4.026 -4.3540 -1.1049 -0.9912
  858MOL0     H18355  12.886   0.328   3.857 -0.0718  0.5100  0.2065
  858MOL0     H18356  13.040   0.177   3.965  1.7778 -1.6595  2.6786
  858MOL0     H18357  13.071   0.351   3.997 -0.5441 -0.3467  0.3204
  858MOL0     H18358  12.965   0.313   4.228  1.1806  0.4137 -0.4720
  858MOL0     H18359  12.930   0.150   4.184  0.4415 -0.1730  0.3090
  858MOL0     H18360  13.202   0.280   4.200  2.2524 -0.0079  1.2456
  858MOL0     H18361  13.127   0.174   4.328  1.9567 -0.3860 -0.1157
  858MOL0     H18362  13.360   0.152   4.336 -2.5205 -1.0219 -0.1337
  858MOL0     H18363  13.512   0.065   4.543 -0.2815 -2.0696  0.6798
  858MOL0     H18364  13.588   0.158   4.432  0.6717  0.0244  4.0794
  858MOL0     H18365  13.666   0.006   4.465  1.6926  2.1261 -3.4346
  858MOL0     H18366  13.640  -0.578   4.191 -0.6858  0.4198  1.9123
  858MOL0     H18367  13.805  -0.746   4.251 -0.0592 -1.4655 -0.6189
  858MOL0     H18368  14.229  -0.621   4.263  1.4708  1.1593  0.0825
  858MOL0     H18369  14.181  -0.641   4.432  0.1736 -0.2734 -0.4954
  858MOL0     H18370  14.333  -0.820   4.390 -0.4581 -3.8810 -0.5483
  858MOL0     H18371  14.168  -0.895   4.361 -0.1097 -0.8156 -0.2275
  858MOL0     H18372  14.360  -0.785   4.154  0.4075 -1.0696 -3.9814
  858MOL0     H18373  14.211  -0.863   4.121 -1.2273  0.4355  1.8151
  858MOL0     H18374  14.316  -1.060   4.269 -0.2240  0.5649  0.3309
  858MOL0     H18375  14.469  -0.980   4.238  0.8503 -2.1164 -2.1426
  858MOL0     H18376  14.287  -1.057   4.013 -0.9670 -2.6891  1.3030
  858MOL0     H18377  14.446  -0.972   4.008  1.1389  2.5350  3.2471
  858MOL0     H18378  14.404  -1.255   4.128 -0.9315  1.7817  0.1402
  858MOL0     H18379  14.561  -1.183   4.066  1.4351 -1.7875 -3.6404
  858MOL0     H18380  14.416  -1.185   3.842  1.1840  2.4135  1.1677
  858MOL0     H18381  14.321  -1.301   3.926 -1.1814  1.4934 -3.0061
  858MOL0     H18382  14.483  -1.429   3.822 -4.0687 -0.3485  3.1223
  858MOL0     H18383  14.534  -1.439   3.990  1.2224 -1.1072 -0.2662
  858MOL0     H18384  14.103  -0.455   4.300  0.4244 -1.8311 -1.9669
  858MOL0     H18385  13.929  -0.271   4.292  3.0572  0.1763  1.5651
  858MOL0     H18386  13.434  -0.290   4.140  0.3036 -0.6027  0.3559
  858MOL0     H18387  13.236  -0.173   4.102  0.6375 -1.4543  0.7870
  858MOL0     H18388  11.699   0.504   4.532 -0.0468 -3.6220 -4.7352
  858MOL0     H18389  11.489   0.557   4.604  2.4836  0.0785  1.2031
  858MOL0     H18390  11.153   0.267   4.855 -2.3427 -1.2322 -1.2088
  858MOL0     H18391  10.917   0.236   4.969 -3.4137  1.4167  1.9653
  858MOL0     H18392  10.717   0.290   4.905 -3.3436  1.0715 -2.2584
  858MOL0     H18393  10.725   0.221   5.069 -0.3031  1.0868  1.8943
  858MOL0     H18394  10.507   0.424   4.978  0.2352 -0.5317  0.4634
  858MOL0     H18395  10.507   0.342   5.130 -2.6565 -3.7360 -1.0232
  858MOL0     H18396  10.361   0.241   4.928  0.7387  3.3923  0.9587
  858MOL0     H18397  10.502   0.175   4.868  0.3598  4.0044 -1.0181
  858MOL0     H18398  10.491   0.119   5.158 -2.6461  1.2815 -0.6579
  858MOL0     H18399  10.528   0.010   5.027  3.5428  2.4055  0.1805
  858MOL0     H18400  10.148  -0.119   5.049  1.6440 -2.6357 -0.9993
  858MOL0     H18401  10.881   0.650   5.024 -2.0571 -0.8615 -2.4105
  858MOL0     H18402  11.132   0.775   4.823  1.8615 -2.0935  0.2625
  858MOL0     H18403  11.015   0.805   4.949 -0.2705 -0.9483  1.0687
  858MOL0     H18404  11.176   0.761   5.002  2.3306  2.5476 -1.6987
  859MOL0     O18405   9.734   0.842   9.969 -0.1029  0.0137 -0.2327
  859MOL0     C18406   9.712   0.734   9.907 -0.0703  0.5248  0.0002
  859MOL0     O18407   9.695   0.616   9.970  0.3933  0.8228 -0.7793
  859MOL0     C18408   9.676   0.612  10.108  0.2928 -1.5350 -0.7222
  859MOL0     C18409   9.548   0.640  10.168  0.4713  0.0081 -0.6857
  859MOL0     C18410   9.538   0.654  10.305 -0.0410  0.3830 -0.3488
  859MOL0     C18411   9.643   0.615  10.387 -0.0596 -0.2067 -0.5714
  859MOL0     O18412   9.632   0.616  10.522 -0.5496  0.8893 -1.0108
  859MOL0     C18413   9.556   0.720  10.581  1.0174 -0.7860 -0.0924
  859MOL0     C18414   9.574   0.716  10.726 -0.6019 -0.0312  0.1035
  859MOL0     C18415   9.693   0.795  10.782 -0.4662 -0.7089 -1.2465
  859MOL0     C18416   9.825   0.714  10.777 -0.1440 -0.6701 -0.2851
  859MOL0     C18417   9.937   0.773  10.877  0.9768  0.2221  0.2039
  859MOL0     C18418  10.000   0.903  10.847  0.4554  0.9098 -0.3880
  859MOL0     C18419  10.032   0.998  10.973  0.6448 -0.9766  1.5576
  859MOL0     C18420  10.065   0.937  11.111 -1.1402  0.0012 -0.7859
  859MOL0     N18421  10.177   0.830  11.101  0.8372  0.4452 -0.0175
  859MOL0     C18422  10.268   0.831  10.997  0.2502 -0.7977 -0.6360
  859MOL0     C18423  10.351   0.729  11.027  0.2127  0.7139 -0.7548
  859MOL0     C18424  10.466   0.681  10.937 -0.1629  0.6341 -1.2301
  859MOL0     C18425  10.534   0.547  10.981  0.3600  0.0958  0.2604
  859MOL0     C18426  10.437   0.426  11.008 -0.6649 -0.3449  0.4567
  859MOL0     C18427  10.501   0.287  10.993 -0.6981 -0.3135 -1.1226
  859MOL0     O18428  10.570   0.283  10.874 -0.5365  0.0955  1.0348
  859MOL0     C18429  10.514   0.245  10.758 -0.2840  0.0055  0.1101
  859MOL0     C18430  10.598   0.247  10.656 -0.8282  0.8354 -0.0365
  859MOL0     C18431  10.566   0.220  10.522 -0.3865  0.7179 -0.4692
  859MOL0     C18432  10.684   0.212  10.426 -0.7230 -1.3347 -0.5636
  859MOL0     C18433  10.427   0.195  10.502  0.0763 -0.6941 -0.5125
  859MOL0     C18434  10.382   0.171  10.359  1.0297 -0.6453 -0.2070
  859MOL0     O18435  10.462   0.115  10.265  0.4284  0.2505  0.7928
  859MOL0     C18436  10.414   0.067  10.143  1.2416 -0.6278 -0.5588
  859MOL0     C18437  10.282   0.064  10.082 -0.6317 -0.7544 -0.2449
  859MOL0     C18438  10.264   0.005   9.952  0.5080 -0.6781  0.1143
  859MOL0     C18439  10.360  -0.071   9.897 -0.3525  0.1296  0.0335
  859MOL0     O18440  10.325  -0.114   9.768 -0.8499 -0.5425  0.1915
  859MOL0     C18441  10.425  -0.166   9.681  0.6627  0.1863  0.9906
  859MOL0     C18442  10.377  -0.169   9.535 -0.1787  0.5179  1.0516
  859MOL0     C18443  10.247  -0.251   9.505 -0.2012  0.2182 -1.3133
  859MOL0     C18444  10.201  -0.238   9.361 -0.0098  0.6100  0.8006
  859MOL0     C18445  10.088  -0.352   9.339  0.7781 -0.7667 -0.4072
  859MOL0     C18446  10.071  -0.399   9.190 -0.3338  0.0708 -0.5657
  859MOL0     C18447   9.975  -0.526   9.191  0.6772 -0.6518  0.6099
  859MOL0     C18448   9.991  -0.610   9.066  0.6532  1.2668  0.5678
  859MOL0    Cl18449  10.154  -0.700   9.062 -0.2841 -0.0264 -0.1822
  859MOL0     C18450  10.486  -0.066   9.955  0.3345 -0.0655 -0.5222
  859MOL0     C18451  10.514   0.002  10.069  0.9387 -0.6481  0.7983
  859MOL0     O18452  10.270   0.222  10.341 -0.0739 -0.5874  0.3379
  859MOL0     C18453  10.335   0.198  10.613 -0.0845 -0.2415  0.2141
  859MOL0     C18454  10.381   0.223  10.737  0.3095  1.0932 -0.4329
  859MOL0     N18455  10.305   0.672  11.144 -0.4899  0.1127  0.0097
  859MOL0     N18456  10.204   0.731  11.188  0.0746 -0.4365  0.6501
  859MOL0     C18457   9.761   0.572  10.331 -0.5396  0.2243 -0.2506
  859MOL0     C18458   9.783   0.565  10.194  0.0800 -0.0033 -0.0940
  859MOL0     C18459   9.715   0.714   9.758 -0.3554 -0.0071  0.7306
  859MOL0     C18460   9.676   0.586   9.705 -1.1146  0.7799 -0.3266
  859MOL0     C18461   9.689   0.557   9.572 -0.4624 -0.1739  1.3707
  859MOL0     C18462   9.710   0.658   9.477 -0.9270  0.4491 -0.8163
  859MOL0     O18463   9.714   0.636   9.343 -0.1438 -0.0720  0.0976
  859MOL0     C18464   9.671   0.505   9.295 -0.2745 -0.6417  0.2278
  859MOL0     C18465   9.620   0.520   9.154  0.4605  0.3284  0.5290
  859MOL0     C18466   9.596   0.376   9.101  0.0265  0.7464 -0.6929
  859MOL0     C18467   9.583   0.358   8.945 -0.2262  1.1472 -0.2287
  859MOL0     C18468   9.712   0.386   8.886 -0.2971 -0.3110  1.2381
  859MOL0     C18469   9.822   0.403   8.839  0.3529  0.3580 -0.1276
  859MOL0     C18470   9.734   0.783   9.520  0.0317 -0.7359 -0.0684
  859MOL0     C18471   9.734   0.816   9.654 -0.7541  0.0388  0.3261
  859MOL0     C18472   9.753   0.961   9.682 -0.1614 -0.4335 -0.3626
  859MOL0     H18473   9.462   0.652  10.102 -0.5276  0.0924  0.5906
  859MOL0     H18474   9.440   0.679  10.342  1.1926  3.0146  1.4347
  859MOL0     H18475   9.450   0.698  10.564  0.7283  0.1585  0.4336
  859MOL0     H18476   9.573   0.819  10.538 -1.3594  0.4345  1.5238
  859MOL0     H18477   9.477   0.756  10.755 -1.8773 -1.6252 -1.7157
  859MOL0     H18478   9.578   0.612  10.759  0.2611  0.4159  1.5216
  859MOL0     H18479   9.716   0.895  10.743  5.2388 -1.4657 -0.7005
  859MOL0     H18480   9.680   0.804  10.891  0.4321  2.9455 -1.2941
  859MOL0     H18481   9.814   0.613  10.819  3.9840 -1.5559 -0.9104
  859MOL0     H18482   9.858   0.699  10.674 -1.7140  1.7240 -1.2033
  859MOL0     H18483  10.016   0.697  10.880 -0.7638 -1.7931 -1.4115
  859MOL0     H18484   9.890   0.785  10.976 -1.0134  0.1933 -0.6873
  859MOL0     H18485  10.091   0.883  10.790  1.3635 -1.1191  1.5839
  859MOL0     H18486   9.926   0.952  10.784 -0.3068 -1.5273 -1.5123
  859MOL0     H18487   9.950   1.070  10.986  2.0055  1.0954 -0.5425
  859MOL0     H18488  10.114   1.064  10.945 -1.9485  1.7382 -0.3355
  859MOL0     H18489  10.113   1.013  11.172  0.9785 -1.3525 -0.6671
  859MOL0     H18490   9.971   0.895  11.148 -1.4672  2.3494  1.2574
  859MOL0     H18491  10.283   0.894  10.910  3.6655  0.8468  0.9729
  859MOL0     H18492  10.537   0.763  10.923 -0.0770  0.5486 -1.3002
  859MOL0     H18493  10.427   0.675  10.835  1.3242 -1.8355 -1.7239
  859MOL0     H18494  10.616   0.509  10.920  2.2652  0.7534  2.2677
  859MOL0     H18495  10.584   0.573  11.075 -0.3766  1.2062  0.3605
  859MOL0     H18496  10.406   0.434  11.112 -2.4215  5.6198 -0.1374
  859MOL0     H18497  10.356   0.444  10.936  0.5635  1.3475 -0.5730
  859MOL0     H18498  10.575   0.288  11.074 -0.5678  0.5962 -1.2429
  859MOL0     H18499  10.434   0.201  10.996  0.7227 -1.5319 -2.2948
  859MOL0     H18500  10.704   0.255  10.676 -0.5236  0.4362 -1.3751
  859MOL0     H18501  10.703   0.110  10.390  3.4696 -1.1941  0.7211
  859MOL0     H18502  10.781   0.242  10.467 -0.7337 -3.5566  1.3149
  859MOL0     H18503  10.650   0.283  10.350 -1.9323 -0.0849  1.0718
  859MOL0     H18504  10.198   0.117  10.124 -0.1951  0.0595 -0.3828
  859MOL0     H18505  10.168   0.006   9.901  1.3512 -1.2924 -1.5939
  859MOL0     H18506  10.517  -0.106   9.682  0.2425  0.8647  2.5100
  859MOL0     H18507  10.460  -0.268   9.701  2.9833 -0.0042 -3.0204
  859MOL0     H18508  10.370  -0.064   9.506  1.3160  1.1827  2.9266
  859MOL0     H18509  10.458  -0.212   9.475 -1.7942 -0.4307 -0.5596
  859MOL0     H18510  10.156  -0.226   9.560  0.2138  2.8898 -1.7016
  859MOL0     H18511  10.273  -0.356   9.521  1.6442  0.6430 -1.2490
  859MOL0     H18512  10.292  -0.251   9.302  0.0745 -2.0657  1.4068
  859MOL0     H18513  10.155  -0.144   9.329  0.1823  1.6598  3.3485
  859MOL0     H18514  10.101  -0.440   9.402 -1.1044  0.2404  1.5183
  859MOL0     H18515   9.994  -0.309   9.374  0.3612  0.3514 -2.7081
  859MOL0     H18516  10.168  -0.428   9.149  1.3612 -1.2908  3.8440
  859MOL0     H18517  10.029  -0.321   9.126 -2.6428 -0.7991 -0.1905
  859MOL0     H18518   9.870  -0.497   9.192  0.4469 -1.2827 -0.9748
  859MOL0     H18519   9.996  -0.596   9.273  3.4973 -1.5863 -0.7469
  859MOL0     H18520   9.982  -0.567   8.966  2.4996 -2.3774 -1.3311
  859MOL0     H18521   9.909  -0.682   9.071 -0.4197  1.8933 -3.7646
  859MOL0     H18522  10.562  -0.130   9.910  0.7898  1.2369 -1.6573
  859MOL0     H18523  10.614  -0.008  10.110  1.3481 -0.6032 -0.1530
  859MOL0     H18524  10.228   0.182  10.601 -0.5319 -0.3585  3.5115
  859MOL0     H18525  10.300   0.224  10.808 -1.6749 -0.2891 -2.5120
  859MOL0     H18526   9.844   0.531  10.388 -0.3849 -0.8175 -1.2043
  859MOL0     H18527   9.879   0.534  10.155  0.2863  0.5868 -0.0615
  859MOL0     H18528   9.638   0.500   9.761 -0.6349 -0.8740 -2.3951
  859MOL0     H18529   9.670   0.455   9.541  2.3210 -1.0171  2.1276
  859MOL0     H18530   9.760   0.442   9.297  2.0083  2.3520  1.7884
  859MOL0     H18531   9.587   0.459   9.348 -0.0640 -1.3759 -0.0697
  859MOL0     H18532   9.682   0.581   9.089  0.3125  2.8445  2.5989
  859MOL0     H18533   9.522   0.567   9.162 -0.3071 -0.9086 -1.0155
  859MOL0     H18534   9.674   0.314   9.146 -2.0591 -1.2909  0.3373
  859MOL0     H18535   9.510   0.327   9.149 -0.1055 -0.8383 -2.4168
  859MOL0     H18536   9.507   0.429   8.912 -0.3734  1.4856  0.8051
  859MOL0     H18537   9.556   0.252   8.936 -0.6639  1.2693 -0.3539
  859MOL0     H18538   9.916   0.439   8.801  0.5798  0.8872  0.8859
  859MOL0     H18539   9.748   0.851   9.437 -0.9521  0.8188  0.9853
  859MOL0     H18540   9.725   0.982   9.786  1.6877 -1.9348  0.4887
  859MOL0     H18541   9.848   1.008   9.657 -0.4853  0.7697  0.5230
  859MOL0     H18542   9.685   1.029   9.628 -0.4400  0.3681  0.9503
  860MOL0     O18543   8.853   6.510   6.328 -0.3373  0.4356 -0.2340
  860MOL0     C18544   8.738   6.508   6.273  0.4554 -0.5730 -0.1614
  860MOL0     O18545   8.710   6.565   6.156 -0.1304 -0.1638  0.2439
  860MOL0     C18546   8.804   6.578   6.059 -0.1352 -0.2423 -0.6777
  860MOL0     C18547   8.781   6.684   5.974  1.0167  0.8056  0.3200
  860MOL0     C18548   8.862   6.707   5.861 -0.7603  0.3091  0.2424
  860MOL0     C18549   8.965   6.621   5.824  0.4705  0.0917  0.0022
  860MOL0     O18550   9.031   6.614   5.710  0.3147 -0.2626  0.7195
  860MOL0     C18551   8.957   6.550   5.610 -0.1046 -0.5116  0.5159
  860MOL0     C18552   9.003   6.597   5.468  0.0202  0.0207 -0.9582
  860MOL0     C18553   9.143   6.549   5.419  0.1762  0.1167  1.3305
  860MOL0     C18554   9.182   6.647   5.306 -0.5779  0.2472  0.3293
  860MOL0     C18555   9.315   6.622   5.236  0.4164 -0.0780  0.3992
  860MOL0     C18556   9.306   6.492   5.155 -0.9270  0.4392 -0.0240
  860MOL0     C18557   9.372   6.508   5.022  0.1776 -0.1613 -0.9341
  860MOL0     C18558   9.384   6.381   4.940 -0.4211 -0.5629 -0.2357
  860MOL0     N18559   9.463   6.409   4.827  0.1702  0.6059 -0.1081
  860MOL0     C18560   9.441   6.508   4.731 -0.8504 -0.7103 -0.3699
  860MOL0     C18561   9.530   6.483   4.636 -0.3168  0.2676 -0.6986
  860MOL0     C18562   9.565   6.552   4.501  1.4102  0.2858 -0.9305
  860MOL0     C18563   9.682   6.499   4.428 -0.0112  0.4163  0.5057
  860MOL0     C18564   9.707   6.571   4.294  0.4810  0.1232 -0.3692
  860MOL0     C18565   9.817   6.668   4.302 -0.1120  0.2517  0.8499
  860MOL0     O18566   9.846   6.734   4.178 -0.2268 -0.4575  0.7245
  860MOL0     C18567   9.888   6.665   4.067 -0.1313 -0.3530  0.1123
  860MOL0     C18568   9.932   6.536   4.068  0.4436  0.7778 -0.6129
  860MOL0     C18569   9.973   6.466   3.955 -0.5309 -0.2120  0.7732
  860MOL0     C18570  10.009   6.325   3.978  0.2382  0.2626 -0.5640
  860MOL0     C18571   9.973   6.531   3.831  0.6888  0.0568 -0.1699
  860MOL0     C18572  10.019   6.458   3.707  0.0790  0.5258  0.6650
  860MOL0     O18573  10.087   6.334   3.716 -0.4047  0.2542  0.0155
  860MOL0     C18574  10.149   6.291   3.607  1.0371  0.5096  0.7977
  860MOL0     C18575  10.134   6.157   3.563  0.1209  0.0903  0.3253
  860MOL0     C18576  10.203   6.094   3.452 -0.5309 -0.1068  0.0032
  860MOL0     C18577  10.314   6.161   3.392 -0.5783  0.9307 -0.2542
  860MOL0     O18578  10.386   6.123   3.279  0.0052  0.2389 -0.5405
  860MOL0     C18579  10.317   6.139   3.153  0.9899 -0.3211 -0.3268
  860MOL0     C18580  10.242   6.003   3.119 -0.9442 -0.5605 -0.2441
  860MOL0     C18581  10.342   5.913   3.034 -0.7366 -0.2933 -1.2124
  860MOL0     C18582  10.284   5.782   3.032 -0.6881  0.2859  0.5465
  860MOL0     C18583  10.178   5.771   2.925  0.4331  0.0018  0.4285
  860MOL0     C18584  10.123   5.630   2.929 -0.6542 -1.0185 -0.1851
  860MOL0     C18585  10.019   5.616   2.826  0.5422  0.0091 -0.1059
  860MOL0     C18586  10.071   5.529   2.712 -0.2410  0.4560  0.9655
  860MOL0    Cl18587   9.947   5.524   2.580  0.1247 -0.0705  0.1891
  860MOL0     C18588  10.335   6.297   3.454  1.1162  0.1373  0.4421
  860MOL0     C18589  10.254   6.363   3.546  0.4591  0.3405  0.3628
  860MOL0     O18590  10.011   6.516   3.601 -0.3096  0.4368  0.2921
  860MOL0     C18591   9.932   6.667   3.830 -0.3056 -0.2917 -0.5041
  860MOL0     C18592   9.897   6.724   3.948  0.1717 -0.4147  0.2404
  860MOL0     N18593   9.612   6.382   4.683 -0.5241  0.2017  0.1604
  860MOL0     N18594   9.580   6.348   4.803  0.5485 -0.1546 -0.7583
  860MOL0     C18595   8.976   6.511   5.906 -0.3624  0.6997 -1.2120
  860MOL0     C18596   8.905   6.492   6.024  0.4277  0.8580  0.0036
  860MOL0     C18597   8.622   6.464   6.363  0.0959  0.4980 -0.9390
  860MOL0     C18598   8.498   6.512   6.336 -0.4101 -0.1088  0.1571
  860MOL0     C18599   8.383   6.467   6.402  0.1271 -0.6931  0.2453
  860MOL0     C18600   8.390   6.369   6.506  1.8550 -0.4834 -0.4480
  860MOL0     O18601   8.280   6.323   6.576 -0.0527  0.0993 -0.3549
  860MOL0     C18602   8.143   6.384   6.545 -0.1775  0.5554 -0.2568
  860MOL0     C18603   8.069   6.283   6.446  0.0028 -0.2040 -0.7961
  860MOL0     C18604   7.946   6.228   6.526 -0.4292 -0.5014 -0.1017
  860MOL0     C18605   7.872   6.112   6.452  0.2112 -0.4598  1.1035
  860MOL0     C18606   7.745   6.087   6.522  0.0428  0.4098 -1.2067
  860MOL0     C18607   7.652   6.073   6.593  1.1185  1.0371 -0.2380
  860MOL0     C18608   8.517   6.331   6.537  0.0506  0.0276 -0.3977
  860MOL0     C18609   8.631   6.373   6.475  0.7151 -0.9444  0.8883
  860MOL0     C18610   8.765   6.332   6.530 -0.2394  0.8161  0.1899
  860MOL0     H18611   8.689   6.731   6.006 -2.4294 -5.4469  1.1164
  860MOL0     H18612   8.850   6.799   5.803  3.2157 -1.1950 -3.5176
  860MOL0     H18613   8.850   6.568   5.628  0.4858  1.3683  2.5456
  860MOL0     H18614   8.985   6.445   5.615 -1.5535 -0.9776 -0.3665
  860MOL0     H18615   8.922   6.564   5.403 -0.3860 -2.5475  0.7087
  860MOL0     H18616   9.012   6.705   5.480  0.1375 -0.2740  2.5335
  860MOL0     H18617   9.221   6.553   5.495  1.0421 -0.9196  0.5284
  860MOL0     H18618   9.129   6.450   5.373  0.5450  1.8411 -2.9414
  860MOL0     H18619   9.103   6.647   5.231 -0.0150  1.7537 -0.2966
  860MOL0     H18620   9.191   6.749   5.345  1.3933  0.2279  0.0514
  860MOL0     H18621   9.396   6.614   5.309  2.7749  2.6102 -1.6849
  860MOL0     H18622   9.341   6.708   5.174 -1.2487  0.9409  1.0310
  860MOL0     H18623   9.357   6.412   5.209 -1.7253 -0.3475 -0.3974
  860MOL0     H18624   9.202   6.458   5.150 -0.8756  0.2637  0.0756
  860MOL0     H18625   9.469   6.552   5.047  0.5831 -1.4786 -0.1120
  860MOL0     H18626   9.315   6.578   4.960 -0.7033 -0.4361 -0.4489
  860MOL0     H18627   9.428   6.294   4.989 -1.3405 -1.2199 -0.5547
  860MOL0     H18628   9.288   6.348   4.900  0.4517 -1.8777 -1.3455
  860MOL0     H18629   9.362   6.582   4.721 -0.7779 -0.6474 -0.4882
  860MOL0     H18630   9.584   6.655   4.533 -0.5851  0.5615 -0.5017
  860MOL0     H18631   9.472   6.535   4.446  0.2021 -1.6352  1.4746
  860MOL0     H18632   9.769   6.503   4.494 -0.6412 -0.3189  1.4188
  860MOL0     H18633   9.654   6.393   4.416 -1.2440  0.9050 -1.3221
  860MOL0     H18634   9.715   6.504   4.209  0.8620  2.0282 -1.9173
  860MOL0     H18635   9.617   6.624   4.261 -0.0110 -2.0070 -2.7389
  860MOL0     H18636   9.784   6.742   4.375 -0.7263  0.4879  0.3468
  860MOL0     H18637   9.909   6.621   4.337 -0.4285 -1.7324 -0.7523
  860MOL0     H18638   9.931   6.484   4.164 -0.6264  1.9183  0.0352
  860MOL0     H18639  10.117   6.311   3.971  0.3513 -0.7282  1.9035
  860MOL0     H18640   9.946   6.272   3.906  0.2868  2.9701 -2.8043
  860MOL0     H18641   9.979   6.291   4.078  2.5115 -0.7843 -0.1830
  860MOL0     H18642  10.063   6.096   3.617 -1.6567  1.3757 -0.4768
  860MOL0     H18643  10.183   5.995   3.413  3.1358 -0.8830 -0.2442
  860MOL0     H18644  10.238   6.215   3.148  1.0834 -0.0860  1.2743
  860MOL0     H18645  10.388   6.165   3.075  0.0951 -0.1557 -1.1049
  860MOL0     H18646  10.210   5.940   3.203  0.7267 -2.0542 -0.6624
  860MOL0     H18647  10.153   6.028   3.061 -1.2409 -2.8532 -0.8884
  860MOL0     H18648  10.435   5.926   3.090 -1.5103  4.1977 -0.5412
  860MOL0     H18649  10.363   5.947   2.932  1.3244 -0.4299 -0.8647
  860MOL0     H18650  10.256   5.750   3.133 -0.4784  1.2729  0.9334
  860MOL0     H18651  10.367   5.724   2.992  2.5260  3.7283  1.6374
  860MOL0     H18652  10.105   5.851   2.944 -0.3379 -0.4021 -0.7432
  860MOL0     H18653  10.232   5.789   2.831  0.6600  0.2002  0.5951
  860MOL0     H18654  10.077   5.612   3.027 -1.3233  1.1250 -0.0384
  860MOL0     H18655  10.208   5.562   2.930 -1.7105 -2.4284 -1.8581
  860MOL0     H18656   9.988   5.714   2.789  2.8311  0.4311 -1.0966
  860MOL0     H18657   9.934   5.566   2.874  0.8497 -0.2860  0.1381
  860MOL0     H18658  10.094   5.425   2.738  2.7347  0.3919 -1.3018
  860MOL0     H18659  10.165   5.568   2.671 -0.2948 -1.1071 -0.8053
  860MOL0     H18660  10.413   6.362   3.416  0.3183  0.2351 -1.1051
  860MOL0     H18661  10.266   6.467   3.575 -0.9681  2.1110 -4.4550
  860MOL0     H18662   9.947   6.732   3.745 -1.2700  1.5356  0.6476
  860MOL0     H18663   9.892   6.832   3.946  1.1517 -0.3413  1.0088
  860MOL0     H18664   9.051   6.436   5.883 -0.3962 -0.1242  1.1147
  860MOL0     H18665   8.926   6.407   6.088 -3.4593  1.0522  1.8643
  860MOL0     H18666   8.477   6.576   6.250 -4.1108 -1.9714 -0.5523
  860MOL0     H18667   8.286   6.509   6.377 -1.0187 -3.3653 -0.1356
  860MOL0     H18668   8.093   6.398   6.641 -1.5227  1.8874 -1.1068
  860MOL0     H18669   8.132   6.482   6.498 -0.6368  0.9470  0.6420
  860MOL0     H18670   8.124   6.190   6.428 -2.9961 -2.2788 -0.0415
  860MOL0     H18671   8.044   6.320   6.346 -1.7848 -1.4951 -0.8758
  860MOL0     H18672   7.988   6.201   6.623  3.3347  2.9311 -0.4868
  860MOL0     H18673   7.871   6.305   6.546 -0.2105  0.0666 -1.3413
  860MOL0     H18674   7.941   6.028   6.466 -2.6018 -3.3586 -1.0258
  860MOL0     H18675   7.853   6.146   6.350  0.5065  1.9833  1.7868
  860MOL0     H18676   7.569   6.057   6.658  0.9662 -0.5962 -0.7714
  860MOL0     H18677   8.532   6.259   6.617  0.9758 -3.6180 -3.5750
  860MOL0     H18678   8.754   6.240   6.588  1.1338  0.0375 -0.7383
  860MOL0     H18679   8.842   6.308   6.456  1.7873  2.5117  1.6656
  860MOL0     H18680   8.809   6.417   6.582 -0.1683  1.6622 -1.1953
  861MOL0     O18681   2.207   2.163   2.298 -0.4662 -0.7576 -0.5058
  861MOL0     C18682   2.112   2.102   2.338 -0.4178  0.9041  0.0427
  861MOL0     O18683   2.016   2.040   2.258 -0.2042 -0.2579  0.2251
  861MOL0     C18684   2.021   2.060   2.120  0.3851  0.5158  0.1052
  861MOL0     C18685   2.136   2.067   2.045  0.7874  0.7880  0.9553
  861MOL0     C18686   2.125   2.089   1.914  0.3690 -1.1367  1.2174
  861MOL0     C18687   2.011   2.098   1.840  0.0497 -0.9985  0.6247
  861MOL0     O18688   2.021   2.105   1.702 -0.5164  0.7087  0.3337
  861MOL0     C18689   1.949   2.222   1.649  0.1502  0.2315  0.1005
  861MOL0     C18690   2.027   2.270   1.527  0.1055  0.5913  0.2551
  861MOL0     C18691   2.154   2.353   1.565 -0.3584 -0.1876 -0.8050
  861MOL0     C18692   2.280   2.263   1.594 -0.1827 -0.1172  0.2880
  861MOL0     C18693   2.415   2.335   1.623  0.2920  0.3233  0.6244
  861MOL0     C18694   2.450   2.355   1.769 -0.7182  0.7246 -0.3897
  861MOL0     C18695   2.580   2.432   1.779 -0.2363 -0.4210 -0.5932
  861MOL0     C18696   2.697   2.336   1.833 -0.8499  0.6443 -0.5263
  861MOL0     N18697   2.734   2.244   1.724 -0.0731  0.4664 -0.2009
  861MOL0     C18698   2.801   2.275   1.605 -0.2975 -0.2445 -0.9693
  861MOL0     C18699   2.789   2.165   1.530  1.6531 -0.8176  0.3692
  861MOL0     C18700   2.866   2.162   1.392  0.1370  0.1165 -0.0681
  861MOL0     C18701   2.970   2.049   1.385  0.4281  0.9257  0.3467
  861MOL0     C18702   3.117   2.092   1.395  0.3143 -0.1370 -0.6057
  861MOL0     C18703   3.144   2.214   1.482 -0.2341 -0.2616 -1.4851
  861MOL0     O18704   3.281   2.264   1.473 -0.0953  0.0612  0.5214
  861MOL0     C18705   3.381   2.171   1.503 -0.7102 -0.5595  0.3277
  861MOL0     C18706   3.391   2.088   1.619 -0.2892 -0.6332 -0.6878
  861MOL0     C18707   3.505   2.004   1.635 -0.5461  0.8009 -1.2424
  861MOL0     C18708   3.508   1.924   1.767  0.0292  0.3514  0.5062
  861MOL0     C18709   3.610   2.006   1.538  0.3609  1.0493  0.4854
  861MOL0     C18710   3.741   1.932   1.555  0.5047 -0.4152 -0.4776
  861MOL0     O18711   3.838   1.968   1.466  0.8678  0.4483 -0.1345
  861MOL0     C18712   3.971   1.963   1.509  0.1941 -0.3579  0.5936
  861MOL0     C18713   4.035   2.077   1.554 -1.3427 -0.5705  0.4825
  861MOL0     C18714   4.174   2.084   1.579 -0.0626 -0.1417  0.0550
  861MOL0     C18715   4.244   1.959   1.580  0.1613  0.4446 -0.5553
  861MOL0     O18716   4.382   1.957   1.586 -0.2734  0.9716 -0.5515
  861MOL0     C18717   4.464   1.842   1.629 -0.3765  0.1242 -0.7308
  861MOL0     C18718   4.578   1.888   1.714 -0.2860  0.7880 -0.1484
  861MOL0     C18719   4.665   1.764   1.758 -0.2775 -0.0133  0.0763
  861MOL0     C18720   4.599   1.669   1.851 -0.6923 -0.8909 -0.9968
  861MOL0     C18721   4.691   1.549   1.906  0.9616 -0.1894  0.6021
  861MOL0     C18722   4.602   1.464   2.002  0.4148 -0.3509 -0.0070
  861MOL0     C18723   4.695   1.359   2.071  0.7724 -0.5730 -0.8623
  861MOL0     C18724   4.624   1.228   2.103  0.0774 -0.9418 -0.6344
  861MOL0    Cl18725   4.723   1.138   2.228  0.0109  0.5603 -0.3398
  861MOL0     C18726   4.176   1.845   1.536  0.6167 -0.7974 -0.6728
  861MOL0     C18727   4.042   1.842   1.498  0.0982 -0.3449 -0.0749
  861MOL0     O18728   3.760   1.851   1.649 -0.2169 -0.7525  0.2520
  861MOL0     C18729   3.590   2.083   1.423  0.6288 -0.4553  0.5888
  861MOL0     C18730   3.478   2.163   1.407  0.9381 -0.2830  0.3659
  861MOL0     N18731   2.709   2.074   1.596  0.1319  0.2564  0.5958
  861MOL0     N18732   2.688   2.116   1.712  0.5824 -0.4307  0.0249
  861MOL0     C18733   1.894   2.097   1.912  0.2509 -0.6530  0.2893
  861MOL0     C18734   1.896   2.076   2.046 -0.6923  0.3130 -0.0426
  861MOL0     C18735   2.122   2.071   2.482 -0.1838  0.0575 -0.3217
  861MOL0     C18736   2.132   1.935   2.530 -0.6248  0.2261 -0.1212
  861MOL0     C18737   2.150   1.912   2.669 -0.2506 -0.5764  0.6292
  861MOL0     C18738   2.161   2.018   2.752  0.3206  0.3613  0.0116
  861MOL0     O18739   2.181   2.007   2.891 -0.2898  0.8561 -0.0788
  861MOL0     C18740   2.320   1.981   2.913 -0.4231  0.8005  0.4560
  861MOL0     C18741   2.348   1.996   3.062 -1.2230  0.9714  0.4521
  861MOL0     C18742   2.488   1.957   3.112  0.1893  0.1001 -0.7671
  861MOL0     C18743   2.512   1.995   3.267 -0.0560  0.2396  0.2943
  861MOL0     C18744   2.650   1.963   3.302  0.8907  0.5255 -0.4671
  861MOL0     C18745   2.748   1.907   3.338 -1.1377  0.9436  0.1584
  861MOL0     C18746   2.146   2.152   2.703 -0.1466  0.1009  0.1235
  861MOL0     C18747   2.119   2.184   2.571  0.3514  0.0959  0.0183
  861MOL0     C18748   2.097   2.334   2.535  0.7045 -0.0385  0.2711
  861MOL0     H18749   2.237   2.059   2.084  2.0409  4.5942 -0.9877
  861MOL0     H18750   2.213   2.109   1.854 -0.3848  6.8822  1.6958
  861MOL0     H18751   1.942   2.310   1.713  2.1315  1.9131 -1.8234
  861MOL0     H18752   1.851   2.189   1.614  1.0685  1.1071 -3.7844
  861MOL0     H18753   2.074   2.184   1.479  3.6156  2.5523 -0.1709
  861MOL0     H18754   1.964   2.321   1.454  1.7434  4.7672  1.4345
  861MOL0     H18755   2.179   2.420   1.481  0.7370  1.3868  0.6975
  861MOL0     H18756   2.129   2.411   1.654 -1.5336 -0.3604 -1.0097
  861MOL0     H18757   2.271   2.188   1.673  2.8579 -1.6780 -0.6674
  861MOL0     H18758   2.301   2.216   1.497  2.3081  2.6711 -0.6787
  861MOL0     H18759   2.414   2.439   1.590  0.4687  0.1097 -0.0632
  861MOL0     H18760   2.498   2.285   1.571 -0.0341  1.3533 -0.9515
  861MOL0     H18761   2.378   2.414   1.827 -2.1262 -0.1678 -1.1679
  861MOL0     H18762   2.452   2.253   1.808 -3.6938  1.4017  1.9812
  861MOL0     H18763   2.574   2.504   1.861  3.4390 -2.0143  1.3271
  861MOL0     H18764   2.605   2.481   1.685 -0.5936 -2.4772 -1.8340
  861MOL0     H18765   2.784   2.390   1.872 -3.2212  2.3766  2.8762
  861MOL0     H18766   2.652   2.285   1.918  0.6800 -2.4853 -1.4355
  861MOL0     H18767   2.857   2.367   1.601 -0.2721 -0.0810  1.5828
  861MOL0     H18768   2.894   2.266   1.375 -0.7395  0.0934 -1.8720
  861MOL0     H18769   2.786   2.131   1.325 -1.1298 -0.4718  1.6301
  861MOL0     H18770   2.970   1.980   1.471 -0.1120  0.9831  0.3973
  861MOL0     H18771   2.963   1.989   1.294 -2.0424  2.9782 -0.9600
  861MOL0     H18772   3.172   2.002   1.422 -2.4684 -2.2659 -1.5235
  861MOL0     H18773   3.150   2.119   1.294  0.0405  0.3746 -0.5615
  861MOL0     H18774   3.090   2.303   1.447  0.4794  1.6182  1.8369
  861MOL0     H18775   3.096   2.192   1.577 -3.2215  0.2012 -2.7630
  861MOL0     H18776   3.313   2.106   1.693  0.3947 -2.1586  0.4626
  861MOL0     H18777   3.422   1.950   1.829 -0.4665  0.4165 -0.1987
  861MOL0     H18778   3.602   1.945   1.819 -0.1070 -0.4476  1.0923
  861MOL0     H18779   3.514   1.818   1.739 -0.5380  1.0324 -2.6185
  861MOL0     H18780   3.985   2.173   1.565  0.5317  0.2496  2.5679
  861MOL0     H18781   4.214   2.183   1.601 -2.5135  1.8238 -3.2467
  861MOL0     H18782   4.403   1.771   1.686 -1.3482  1.5346  0.0458
  861MOL0     H18783   4.505   1.789   1.542 -1.3300 -0.4894 -0.8231
  861MOL0     H18784   4.640   1.955   1.654  0.9929  1.0749  1.4191
  861MOL0     H18785   4.539   1.929   1.807 -0.3940  0.2006  0.0706
  861MOL0     H18786   4.747   1.818   1.806 -1.9338  1.8851  0.9156
  861MOL0     H18787   4.713   1.714   1.673  3.0856 -0.8135  2.2908
  861MOL0     H18788   4.520   1.617   1.796  0.4405 -1.6897 -1.9079
  861MOL0     H18789   4.545   1.722   1.931 -1.0443 -1.6363 -0.7304
  861MOL0     H18790   4.731   1.487   1.825 -1.3837 -0.9770 -0.0358
  861MOL0     H18791   4.769   1.594   1.969 -1.9083  0.9274  3.6121
  861MOL0     H18792   4.523   1.410   1.949 -0.6141  2.7965 -1.9203
  861MOL0     H18793   4.553   1.532   2.072  0.2179  2.3039 -2.5340
  861MOL0     H18794   4.730   1.396   2.167 -1.8582  2.4028 -0.8834
  861MOL0     H18795   4.782   1.350   2.005 -1.4708  0.4405 -4.2814
  861MOL0     H18796   4.607   1.176   2.009 -2.8028  0.3608 -0.9451
  861MOL0     H18797   4.524   1.244   2.145  0.3318 -1.5583  0.2472
  861MOL0     H18798   4.235   1.755   1.518  1.2331 -0.4501 -0.4382
  861MOL0     H18799   3.995   1.752   1.459  0.8695 -0.3646 -1.0248
  861MOL0     H18800   3.659   2.079   1.339 -1.1009 -0.8702 -0.8797
  861MOL0     H18801   3.458   2.221   1.318 -0.9377  0.4875  1.2431
  861MOL0     H18802   1.800   2.106   1.858  0.1539 -1.1523  0.3748
  861MOL0     H18803   1.808   2.075   2.110  1.0087 -2.2087  2.5201
  861MOL0     H18804   2.129   1.852   2.460  2.2041  0.4455 -0.6118
  861MOL0     H18805   2.145   1.814   2.716  2.9121 -0.2140  1.9332
  861MOL0     H18806   2.355   1.884   2.878  1.3501  1.7755 -0.6412
  861MOL0     H18807   2.378   2.059   2.862 -0.6693  1.5064  1.2239
  861MOL0     H18808   2.267   1.936   3.105 -2.1018  1.0528 -1.0153
  861MOL0     H18809   2.338   2.098   3.101 -3.2872  0.5378  1.1748
  861MOL0     H18810   2.498   1.849   3.099  3.2370  0.3748 -1.4564
  861MOL0     H18811   2.573   2.004   3.061  0.7201  2.2075  1.8676
  861MOL0     H18812   2.446   1.925   3.320  0.4492 -1.8153 -1.6232
  861MOL0     H18813   2.494   2.101   3.286  1.2511  0.4016  0.6686
  861MOL0     H18814   2.836   1.848   3.354 -1.1019 -0.2080 -3.4906
  861MOL0     H18815   2.153   2.226   2.782  0.8692 -0.7923  0.9036
  861MOL0     H18816   2.182   2.396   2.564 -1.4207  2.4013  1.8157
  861MOL0     H18817   2.050   2.357   2.439 -2.8725 -2.7233  1.1672
  861MOL0     H18818   2.001   2.354   2.585  0.2054 -0.8526 -0.3367
  862MOL0     O18819  11.026   3.043   3.761  0.3846  0.4710 -0.6113
  862MOL0     C18820  11.034   3.014   3.877  0.6199  0.6629 -0.7650
  862MOL0     O18821  10.940   3.051   3.972 -0.0729  0.5840  0.1527
  862MOL0     C18822  10.812   3.081   3.929  0.9560 -1.6077  0.0317
  862MOL0     C18823  10.786   3.216   3.908  0.5697  0.1123 -0.3162
  862MOL0     C18824  10.650   3.251   3.897  0.3816 -0.0492  0.3615
  862MOL0     C18825  10.546   3.154   3.894 -0.2108 -0.2182 -0.2424
  862MOL0     O18826  10.418   3.212   3.881 -1.4857 -0.5390 -0.3181
  862MOL0     C18827  10.306   3.158   3.940 -0.1018  0.4522 -0.2968
  862MOL0     C18828  10.314   3.129   4.087 -0.5108 -0.7556  0.5916
  862MOL0     C18829  10.368   3.250   4.175  0.8229 -0.1875 -0.6207
  862MOL0     C18830  10.402   3.194   4.324  0.6894 -0.5870 -0.2242
  862MOL0     C18831  10.407   3.315   4.416 -0.7463 -1.0315 -1.3433
  862MOL0     C18832  10.464   3.274   4.557 -0.4554 -0.1632  0.1802
  862MOL0     C18833  10.620   3.296   4.558  0.8125  1.2056 -0.7568
  862MOL0     C18834  10.668   3.269   4.698 -0.1746  0.8027  0.6457
  862MOL0     N18835  10.615   3.361   4.805 -0.1685  0.1125  0.7576
  862MOL0     C18836  10.599   3.495   4.801  0.3271 -0.8836  0.1017
  862MOL0     C18837  10.549   3.514   4.925  0.0390 -0.1176  0.3986
  862MOL0     C18838  10.507   3.647   4.972  0.4168  0.9885 -0.5095
  862MOL0     C18839  10.394   3.705   4.900  0.5116  0.2172  0.4843
  862MOL0     C18840  10.308   3.797   4.996  0.4939 -0.8787  0.4901
  862MOL0     C18841  10.200   3.887   4.927  0.2222 -0.2060 -0.3277
  862MOL0     O18842  10.105   3.800   4.866 -0.2543 -0.1102 -1.0865
  862MOL0     C18843  10.121   3.766   4.733 -0.7802  0.2781 -0.7774
  862MOL0     C18844  10.024   3.678   4.689 -0.7904  0.0587  0.6015
  862MOL0     C18845  10.017   3.613   4.564 -0.9438 -0.4057  0.1431
  862MOL0     C18846   9.904   3.523   4.522  0.3450  0.8882 -0.2151
  862MOL0     C18847  10.103   3.670   4.466 -0.2369  0.4493  0.1694
  862MOL0     C18848  10.112   3.606   4.324  0.1930  0.7584  0.1906
  862MOL0     O18849  10.131   3.694   4.221 -0.0253 -0.1498 -0.0967
  862MOL0     C18850  10.180   3.649   4.099 -0.8273 -0.1289 -0.1816
  862MOL0     C18851  10.101   3.688   3.996 -1.0565  0.1526  1.1047
  862MOL0     C18852  10.159   3.661   3.867  0.3172 -0.2781  0.6796
  862MOL0     C18853  10.287   3.594   3.850  1.2779 -0.4722 -0.2715
  862MOL0     O18854  10.348   3.572   3.739 -0.7294  0.6242  0.4740
  862MOL0     C18855  10.269   3.548   3.621 -0.3557 -0.6648 -0.3879
  862MOL0     C18856  10.347   3.480   3.512  0.4657  0.8632 -0.1373
  862MOL0     C18857  10.409   3.346   3.566 -0.1868  1.3674 -0.2201
  862MOL0     C18858  10.499   3.262   3.472  0.7984 -0.1863  1.1293
  862MOL0     C18859  10.612   3.190   3.549  0.1673 -0.3533 -1.1704
  862MOL0     C18860  10.673   3.073   3.469 -0.2657 -0.2319 -0.6239
  862MOL0     C18861  10.798   3.016   3.539  0.3742 -0.2546 -0.0391
  862MOL0     C18862  10.882   2.950   3.446 -0.8138  0.2561  0.2780
  862MOL0    Cl18863  10.794   2.816   3.358 -0.0616  0.0025  0.4133
  862MOL0     C18864  10.358   3.555   3.964  0.4433 -0.4035  0.7985
  862MOL0     C18865  10.311   3.586   4.094  0.5706  0.6468  0.1229
  862MOL0     O18866  10.122   3.485   4.312  0.4100  0.2831  0.5971
  862MOL0     C18867  10.213   3.755   4.501 -0.3053  0.6728  0.3463
  862MOL0     C18868  10.220   3.803   4.632 -0.5267  0.7954 -0.4498
  862MOL0     N18869  10.545   3.402   5.001  1.0825  0.3346 -0.5852
  862MOL0     N18870  10.591   3.310   4.924  0.6464  0.0007 -0.0166
  862MOL0     C18871  10.574   3.017   3.907  0.3614 -0.2926  0.7299
  862MOL0     C18872  10.709   2.989   3.939  0.3763  0.1338  0.1148
  862MOL0     C18873  11.162   2.953   3.935 -1.2239 -0.7950  0.8703
  862MOL0     C18874  11.204   2.971   4.065  0.2507  0.4383 -0.8568
  862MOL0     C18875  11.332   2.923   4.106  0.2947 -0.2385  0.3438
  862MOL0     C18876  11.413   2.861   4.013 -1.8926  1.2643 -0.4357
  862MOL0     O18877  11.532   2.795   4.061  0.2195  0.3152  0.0410
  862MOL0     C18878  11.636   2.866   4.128  0.0323 -0.2250 -1.0416
  862MOL0     C18879  11.777   2.860   4.059 -0.4993 -0.0544 -0.1307
  862MOL0     C18880  11.788   2.748   3.954  0.8464  1.0128 -0.5767
  862MOL0     C18881  11.914   2.767   3.876 -0.5101  0.2993 -1.0184
  862MOL0     C18882  11.896   2.872   3.774 -0.4200 -0.4131 -0.9068
  862MOL0     C18883  11.854   2.950   3.699  0.1081 -0.4510 -0.3378
  862MOL0     C18884  11.376   2.832   3.884  0.0467 -0.4216  0.2457
  862MOL0     C18885  11.249   2.878   3.843  0.7220 -0.5261  0.9927
  862MOL0     C18886  11.216   2.831   3.697 -0.4062  0.0989  0.0175
  862MOL0     H18887  10.860   3.297   3.910  2.5745 -1.6399 -0.0823
  862MOL0     H18888  10.626   3.355   3.881  2.7781  0.3823 -0.8662
  862MOL0     H18889  10.282   3.065   3.889 -0.9706  1.1824 -1.2670
  862MOL0     H18890  10.219   3.222   3.923 -0.1959  0.6364  0.7795
  862MOL0     H18891  10.219   3.092   4.125 -2.1813  1.3252 -1.2374
  862MOL0     H18892  10.379   3.042   4.099  0.7416 -0.5168 -3.2038
  862MOL0     H18893  10.465   3.292   4.144  0.1412  2.0188  0.0422
  862MOL0     H18894  10.307   3.341   4.178  3.0021  1.4737 -2.4424
  862MOL0     H18895  10.317   3.133   4.355  1.0811 -1.5721 -1.0189
  862MOL0     H18896  10.496   3.137   4.319  0.3497 -1.1670 -0.0157
  862MOL0     H18897  10.311   3.364   4.434  0.3364  1.4196 -1.7185
  862MOL0     H18898  10.458   3.393   4.358 -2.1651  1.7908  0.9897
  862MOL0     H18899  10.416   3.331   4.637  1.7988 -1.1343  2.3877
  862MOL0     H18900  10.452   3.166   4.571  0.5487 -0.3180 -0.0638
  862MOL0     H18901  10.643   3.400   4.533  0.7178  0.9266 -2.1065
  862MOL0     H18902  10.661   3.232   4.479 -3.6173 -5.5631  1.4976
  862MOL0     H18903  10.641   3.167   4.724 -1.4245  1.4469  2.0789
  862MOL0     H18904  10.775   3.285   4.684 -0.0891  1.2258  1.6835
  862MOL0     H18905  10.610   3.570   4.723 -0.0680  1.3734  2.0939
  862MOL0     H18906  10.594   3.713   4.988  0.3658  0.9886 -0.2243
  862MOL0     H18907  10.468   3.627   5.072 -0.7894  3.6151 -0.3652
  862MOL0     H18908  10.445   3.769   4.828  1.0242  0.1464  0.7865
  862MOL0     H18909  10.338   3.625   4.850 -0.9973  1.4379  0.1224
  862MOL0     H18910  10.272   3.725   5.069  0.7213  0.0799  1.5805
  862MOL0     H18911  10.372   3.864   5.053 -0.9222 -0.6260  1.8473
  862MOL0     H18912  10.148   3.931   5.012  0.7906  1.1966 -0.6812
  862MOL0     H18913  10.234   3.963   4.857 -0.0282 -0.4917 -0.7650
  862MOL0     H18914   9.950   3.646   4.761 -2.1675  0.9027 -0.3867
  862MOL0     H18915   9.802   3.550   4.549 -0.2522  1.8929 -3.0841
  862MOL0     H18916   9.911   3.419   4.556 -0.6897  0.0769 -2.3132
  862MOL0     H18917   9.903   3.532   4.413  4.0971  4.0128 -0.2310
  862MOL0     H18918  10.003   3.732   4.009 -1.0867  1.3073 -1.9646
  862MOL0     H18919  10.095   3.695   3.787 -0.7693  1.0581  2.0437
  862MOL0     H18920  10.175   3.500   3.647 -1.0329  0.3992 -0.7904
  862MOL0     H18921  10.240   3.649   3.591 -1.6139 -0.9217 -0.0802
  862MOL0     H18922  10.269   3.470   3.435 -0.2505 -0.1024  0.6779
  862MOL0     H18923  10.432   3.540   3.479  0.2270 -0.2737 -3.2323
  862MOL0     H18924  10.328   3.280   3.599  3.7882 -3.2484  1.5660
  862MOL0     H18925  10.463   3.366   3.659 -3.1320  1.8364  1.5007
  862MOL0     H18926  10.555   3.302   3.387  1.8729 -1.6652  1.1065
  862MOL0     H18927  10.436   3.183   3.429 -0.5977  2.3819 -1.9864
  862MOL0     H18928  10.696   3.256   3.573  0.7155 -0.4877 -2.5841
  862MOL0     H18929  10.572   3.146   3.641  1.4018 -0.6902 -0.7736
  862MOL0     H18930  10.695   3.111   3.369 -0.4481 -0.9760 -0.9540
  862MOL0     H18931  10.607   2.987   3.455 -0.9222  0.4437 -1.7834
  862MOL0     H18932  10.764   2.939   3.608  1.1368  0.2412  0.9199
  862MOL0     H18933  10.855   3.094   3.592 -2.4195  0.7260  1.7730
  862MOL0     H18934  10.968   2.901   3.493 -2.5854 -2.2015  1.1947
  862MOL0     H18935  10.912   3.027   3.376 -2.1398  2.3863  1.9240
  862MOL0     H18936  10.446   3.497   3.941  1.1257  1.1053 -0.5841
  862MOL0     H18937  10.364   3.560   4.185  1.8485  1.2052 -0.4319
  862MOL0     H18938  10.294   3.782   4.434  1.2599 -4.1148 -0.1004
  862MOL0     H18939  10.298   3.875   4.651  1.1152  0.1444 -3.9519
  862MOL0     H18940  10.499   2.939   3.909  1.3834 -1.3846 -0.8929
  862MOL0     H18941  10.734   2.890   3.977  1.8517  0.9515  1.4116
  862MOL0     H18942  11.132   3.023   4.127 -1.0770 -1.6482 -0.5095
  862MOL0     H18943  11.362   2.946   4.208 -1.0024  3.4519  0.0505
  862MOL0     H18944  11.610   2.972   4.137  0.7911  0.1800 -2.9574
  862MOL0     H18945  11.639   2.824   4.228 -3.4414  0.6498 -0.4300
  862MOL0     H18946  11.856   2.844   4.133  0.2827 -0.1432 -0.9786
  862MOL0     H18947  11.791   2.957   4.011 -0.2207 -0.4481 -0.8535
  862MOL0     H18948  11.795   2.649   4.001 -3.1181  1.6315  1.7205
  862MOL0     H18949  11.699   2.745   3.891  1.1689 -1.6789 -1.0266
  862MOL0     H18950  11.930   2.675   3.819  1.8271  0.5113 -0.8295
  862MOL0     H18951  11.998   2.792   3.942 -1.7046 -1.8211  1.4753
  862MOL0     H18952  11.813   3.022   3.631 -0.1089  0.4608  0.7138
  862MOL0     H18953  11.454   2.780   3.829  0.0231 -3.7695  3.0500
  862MOL0     H18954  11.109   2.807   3.687 -1.1379  3.1322 -0.5534
  862MOL0     H18955  11.246   2.906   3.623  4.7789 -2.8748 -1.3945
  862MOL0     H18956  11.271   2.745   3.661 -1.1429 -1.1295  1.6764
  863MOL0     O18957   9.930   2.028   0.267 -0.4160 -0.9038  0.4550
  863MOL0     C18958   9.873   2.131   0.292  0.4524 -0.5228 -0.3971
  863MOL0     O18959   9.733   2.158   0.281  0.5248  0.4846  0.0764
  863MOL0     C18960   9.663   2.079   0.196  0.0220 -0.2247 -1.4017
  863MOL0     C18961   9.614   2.136   0.080 -0.3325 -0.0968  0.1721
  863MOL0     C18962   9.543   2.063  -0.022 -1.0445  0.4141  0.6228
  863MOL0     C18963   9.520   1.932   0.009 -0.2597  0.3590 -0.0010
  863MOL0     O18964   9.457   1.873  -0.096 -0.2991  0.3925 -0.3926
  863MOL0     C18965   9.393   1.745  -0.075  0.9524 -0.1384 -0.0759
  863MOL0     C18966   9.279   1.756   0.026  0.5020  0.3067  0.4328
  863MOL0     C18967   9.170   1.845  -0.028  0.4979 -0.5012  0.4441
  863MOL0     C18968   9.032   1.843   0.034  1.0171  0.1019  0.4623
  863MOL0     C18969   8.993   1.987   0.075  0.0323  0.8441 -0.4096
  863MOL0     C18970   8.873   1.966   0.150  0.5416 -0.3546 -0.3541
  863MOL0     C18971   8.819   2.098   0.212  0.7971 -0.0836 -0.5071
  863MOL0     C18972   8.754   2.194   0.112 -0.3095 -1.0811 -0.6641
  863MOL0     N18973   8.694   2.329   0.167 -0.3070  0.1037 -0.2975
  863MOL0     C18974   8.589   2.355   0.254  0.8175  0.1299 -0.1630
  863MOL0     C18975   8.563   2.490   0.255  0.1531 -0.4651  0.4553
  863MOL0     C18976   8.447   2.551   0.330 -0.6755  1.1346  0.8497
  863MOL0     C18977   8.347   2.614   0.241  0.2200 -0.0948 -0.3080
  863MOL0     C18978   8.232   2.530   0.199 -0.4859  0.0219  0.0901
  863MOL0     C18979   8.180   2.421   0.302 -0.2247 -0.9375  0.9757
  863MOL0     O18980   8.057   2.359   0.255 -0.3480 -0.2033  0.1206
  863MOL0     C18981   7.926   2.414   0.247  1.2213  0.9118 -0.0987
  863MOL0     C18982   7.886   2.543   0.277  0.1993  0.6683  0.3408
  863MOL0     C18983   7.757   2.591   0.243 -0.4040  0.4307  0.3571
  863MOL0     C18984   7.729   2.740   0.279 -0.1692 -0.4741 -0.6658
  863MOL0     C18985   7.665   2.499   0.177 -0.4170  0.4903  0.1532
  863MOL0     C18986   7.537   2.543   0.129  0.5537 -0.0947 -0.2261
  863MOL0     O18987   7.495   2.673   0.163  0.4680  0.5274 -0.2306
  863MOL0     C18988   7.400   2.734   0.086  0.2055 -0.1074  0.9789
  863MOL0     C18989   7.457   2.781  -0.033 -0.4082  0.0833  0.0875
  863MOL0     C18990   7.373   2.840  -0.128  0.4179  0.2295  0.1285
  863MOL0     C18991   7.230   2.836  -0.112 -0.0249  0.1582  0.3579
  863MOL0     O18992   7.137   2.889  -0.199  0.5833 -0.3427  0.9903
  863MOL0     C18993   7.197   2.944  -0.318  0.2738 -0.5628  1.0086
  863MOL0     C18994   7.105   3.023  -0.404  0.7163 -1.2770 -0.2749
  863MOL0     C18995   7.017   3.123  -0.339  0.2512  0.3780  0.3760
  863MOL0     C18996   6.959   3.235  -0.426 -0.3742  0.3696  0.3317
  863MOL0     C18997   6.911   3.352  -0.348  0.3868 -0.2267 -0.6408
  863MOL0     C18998   6.774   3.340  -0.272 -0.7827 -0.5136  0.2983
  863MOL0     C18999   6.775   3.272  -0.144 -0.4142  0.3609 -0.4494
  863MOL0     C19000   6.661   3.312  -0.051  0.8853 -0.0822  0.0370
  863MOL0    Cl19001   6.519   3.254  -0.117  0.4036  0.0604 -0.0725
  863MOL0     C19002   7.178   2.769   0.004  0.2368 -0.7681 -0.0961
  863MOL0     C19003   7.265   2.741   0.109 -0.3903  0.3766  0.2864
  863MOL0     O19004   7.475   2.459   0.062  0.2583  0.6436  0.4056
  863MOL0     C19005   7.696   2.362   0.175  0.6324  0.1059  0.1228
  863MOL0     C19006   7.828   2.321   0.210  0.1935  0.5767  0.4123
  863MOL0     N19007   8.665   2.550   0.173  0.5278  0.4238  0.2362
  863MOL0     N19008   8.742   2.450   0.125 -0.1384 -0.2560  1.0670
  863MOL0     C19009   9.560   1.871   0.131 -0.2159  0.6309 -0.3116
  863MOL0     C19010   9.628   1.950   0.229  0.3603  0.7643  0.9370
  863MOL0     C19011   9.945   2.256   0.350 -0.1868 -0.6265 -0.5715
  863MOL0     C19012   9.862   2.361   0.400 -0.9161  0.8915  0.5494
  863MOL0     C19013   9.930   2.471   0.452  0.0995 -0.2236  0.1166
  863MOL0     C19014  10.065   2.491   0.459  1.0672 -1.2412  0.2991
  863MOL0     O19015  10.124   2.597   0.522  0.5218  0.5570 -0.2687
  863MOL0     C19016  10.093   2.730   0.482  0.3360 -0.0877 -0.8702
  863MOL0     C19017  10.127   2.767   0.332 -0.0106 -0.3485  1.0580
  863MOL0     C19018  10.125   2.914   0.295 -0.1077  0.4643 -0.2594
  863MOL0     C19019  10.264   2.985   0.312 -0.2933 -0.1238  0.4734
  863MOL0     C19020  10.344   2.965   0.192 -0.0950  0.1264  0.8752
  863MOL0     C19021  10.387   2.952   0.082 -0.7066  1.1590  0.0292
  863MOL0     C19022  10.144   2.395   0.392 -0.6441  0.9512 -0.8308
  863MOL0     C19023  10.084   2.276   0.340 -0.8439 -0.1716  0.9374
  863MOL0     C19024  10.162   2.176   0.255 -0.1798 -0.3375 -0.2827
  863MOL0     H19025   9.623   2.242   0.058  0.6658 -0.2837 -0.3501
  863MOL0     H19026   9.509   2.115  -0.111 -4.4675  0.2025  1.6657
  863MOL0     H19027   9.456   1.657  -0.059  0.9290  0.0446  1.0993
  863MOL0     H19028   9.346   1.720  -0.170 -1.4005  2.3811  0.3178
  863MOL0     H19029   9.234   1.657   0.033  3.2222 -1.8231 -5.5044
  863MOL0     H19030   9.308   1.789   0.126 -1.8007  0.5711  1.0668
  863MOL0     H19031   9.215   1.944  -0.031 -0.8422  0.1187  0.1682
  863MOL0     H19032   9.148   1.834  -0.135 -0.4269 -4.8178  0.8699
  863MOL0     H19033   8.961   1.800  -0.037  1.0105  1.5476 -0.4571
  863MOL0     H19034   9.029   1.783   0.125  2.2844 -2.4466 -1.0834
  863MOL0     H19035   8.967   2.059  -0.004  0.6061 -0.4576 -1.8325
  863MOL0     H19036   9.075   2.028   0.134  3.2652 -3.1954 -1.6490
  863MOL0     H19037   8.796   1.924   0.085 -0.0604  1.8998 -1.1819
  863MOL0     H19038   8.887   1.903   0.238 -1.9413 -0.2960  0.1687
  863MOL0     H19039   8.900   2.149   0.264  0.6826 -2.5008  2.3285
  863MOL0     H19040   8.742   2.065   0.282  0.6538  2.3354  0.5623
  863MOL0     H19041   8.827   2.198   0.030  0.5465 -0.1129  0.1196
  863MOL0     H19042   8.663   2.142   0.079 -0.0829 -2.3465  0.6342
  863MOL0     H19043   8.535   2.284   0.316 -2.3406  0.3725 -2.4007
  863MOL0     H19044   8.489   2.644   0.369 -0.1695  1.5577 -0.6400
  863MOL0     H19045   8.405   2.480   0.403  1.0416 -2.2883 -1.1921
  863MOL0     H19046   8.309   2.710   0.276  1.1076 -0.2990  1.3678
  863MOL0     H19047   8.397   2.649   0.150 -0.3279  4.4094  0.8767
  863MOL0     H19048   8.150   2.596   0.171 -0.0913  0.2353 -0.6001
  863MOL0     H19049   8.254   2.481   0.104 -0.2831  0.3825 -0.0549
  863MOL0     H19050   8.252   2.340   0.311  0.7430 -0.6139 -2.4747
  863MOL0     H19051   8.165   2.463   0.402  2.5356 -1.0949  1.5129
  863MOL0     H19052   7.960   2.613   0.312  0.4807  1.0151 -0.8863
  863MOL0     H19053   7.727   2.805   0.191 -1.5992 -1.8431 -1.7020
  863MOL0     H19054   7.798   2.784   0.352 -1.0846  0.5232 -0.3818
  863MOL0     H19055   7.632   2.738   0.329 -0.2939 -2.3647 -0.9268
  863MOL0     H19056   7.564   2.788  -0.050 -0.4942  2.4603  0.1601
  863MOL0     H19057   7.416   2.878  -0.220 -0.6174  0.9552 -0.0671
  863MOL0     H19058   7.289   3.002  -0.306  1.1946 -1.7172 -0.1119
  863MOL0     H19059   7.225   2.859  -0.382 -0.1512 -1.4308  1.9512
  863MOL0     H19060   7.164   3.071  -0.482 -0.6999 -0.4013 -0.8557
  863MOL0     H19061   7.038   2.953  -0.455 -1.5500  0.6196 -0.0919
  863MOL0     H19062   7.074   3.174  -0.260  1.6052 -0.6558  0.1171
  863MOL0     H19063   6.937   3.069  -0.288  1.4357 -2.5425 -0.6130
  863MOL0     H19064   6.889   3.190  -0.497 -0.0830  0.4521 -0.0156
  863MOL0     H19065   7.032   3.283  -0.492 -1.0952  2.8096  1.1965
  863MOL0     H19066   6.992   3.386  -0.282 -2.0669  2.2037  1.3333
  863MOL0     H19067   6.895   3.442  -0.409  1.0347  2.8951  3.3617
  863MOL0     H19068   6.700   3.290  -0.336 -1.4446 -1.5369  1.8047
  863MOL0     H19069   6.747   3.444  -0.248 -0.7866 -0.1152 -1.3227
  863MOL0     H19070   6.862   3.286  -0.079 -1.3854 -1.7927  1.4731
  863MOL0     H19071   6.768   3.164  -0.156  2.2327 -0.8442  5.3941
  863MOL0     H19072   6.651   3.420  -0.039 -3.7279 -0.1623 -0.9803
  863MOL0     H19073   6.678   3.258   0.043  0.7147  0.6708  0.5078
  863MOL0     H19074   7.071   2.765   0.019  0.3715 -2.1123  0.6281
  863MOL0     H19075   7.236   2.693   0.202  1.1848  0.7039  0.9716
  863MOL0     H19076   7.627   2.287   0.139 -0.3921 -0.0792  2.3147
  863MOL0     H19077   7.839   2.213   0.208 -0.3162  0.3913  3.0513
  863MOL0     H19078   9.520   1.776   0.163  1.3115  0.4143  1.0640
  863MOL0     H19079   9.658   1.913   0.326  0.4960 -1.6300  0.0511
  863MOL0     H19080   9.755   2.349   0.382 -0.3695  0.9518 -3.6318
  863MOL0     H19081   9.867   2.556   0.476 -1.0990 -0.1455 -2.9086
  863MOL0     H19082   9.987   2.752   0.491 -0.0133  0.2226 -4.4428
  863MOL0     H19083  10.132   2.795   0.561  0.9072 -0.2172 -1.0340
  863MOL0     H19084  10.054   2.708   0.276 -0.4064 -0.1796  1.3914
  863MOL0     H19085  10.228   2.740   0.301 -0.3057  2.0146 -2.4663
  863MOL0     H19086  10.087   2.935   0.194 -1.8077 -0.2737  0.2015
  863MOL0     H19087  10.055   2.958   0.366 -0.5755 -0.1224 -0.3561
  863MOL0     H19088  10.308   2.937   0.400 -1.7551  0.2542  1.4377
  863MOL0     H19089  10.253   3.092   0.327 -2.0588 -0.4658  1.9265
  863MOL0     H19090  10.402   2.936  -0.023 -1.5283 -0.0271  0.0694
  863MOL0     H19091  10.251   2.413   0.388 -0.9792  3.6298 -0.3006
  863MOL0     H19092  10.163   2.079   0.305  0.1980 -0.6412 -0.8744
  863MOL0     H19093  10.139   2.172   0.148  1.7859 -1.3208 -0.7237
  863MOL0     H19094  10.269   2.197   0.256  0.1927 -1.9769 -1.4905
  864MOL0     O19095   4.527   3.884  11.050  0.0798  0.5742  0.2417
  864MOL0     C19096   4.611   3.942  11.118 -0.4536  0.2011  0.9186
  864MOL0     O19097   4.740   3.904  11.128 -0.5489 -0.1346 -0.2866
  864MOL0     C19098   4.792   3.820  11.032  0.4318  0.2037 -0.5964
  864MOL0     C19099   4.852   3.701  11.070  0.2742  0.2565 -0.4353
  864MOL0     C19100   4.921   3.619  10.987 -0.1316  0.4506 -0.4338
  864MOL0     C19101   4.913   3.645  10.851  0.4442 -0.7484  0.5091
  864MOL0     O19102   4.958   3.565  10.751  0.7933 -0.5800 -0.4417
  864MOL0     C19103   4.937   3.426  10.785  0.6926 -0.3646  0.3268
  864MOL0     C19104   4.942   3.368  10.647 -0.0894  0.1138 -0.7995
  864MOL0     C19105   4.912   3.223  10.638 -0.1963  0.2767 -0.6136
  864MOL0     C19106   4.949   3.179  10.497 -0.5098  0.9414  1.0068
  864MOL0     C19107   4.852   3.210  10.384  0.4753 -0.1014  0.5570
  864MOL0     C19108   4.906   3.169  10.256  0.7297  0.2758  0.5564
  864MOL0     C19109   4.800   3.184  10.141 -0.2508 -0.7239  0.1790
  864MOL0     C19110   4.752   3.322  10.106 -0.2598 -0.9000 -0.6402
  864MOL0     N19111   4.668   3.346   9.984 -0.2251  0.9010  0.2774
  864MOL0     C19112   4.562   3.428   9.974 -0.0426  1.3339  0.7571
  864MOL0     C19113   4.532   3.424   9.842 -1.1106 -0.1330  0.7287
  864MOL0     C19114   4.409   3.470   9.777 -0.9112 -0.2002  0.3310
  864MOL0     C19115   4.281   3.401   9.822  0.4431  1.0469  0.1337
  864MOL0     C19116   4.238   3.434   9.962  0.0665  0.3375  0.2919
  864MOL0     C19117   4.080   3.396   9.989 -0.2311  1.1525  0.1338
  864MOL0     O19118   4.060   3.258   9.960  0.3193 -0.1704  0.5894
  864MOL0     C19119   3.948   3.218   9.905  0.6315  0.4947 -0.0569
  864MOL0     C19120   3.827   3.283   9.893 -1.0191  0.9657 -0.1614
  864MOL0     C19121   3.712   3.221   9.840  0.5697  0.2942 -0.2454
  864MOL0     C19122   3.579   3.301   9.855 -0.7137  0.4625 -0.3500
  864MOL0     C19123   3.721   3.098   9.778 -0.0669  0.5734 -0.9585
  864MOL0     C19124   3.600   3.022   9.720  0.5217  0.1170 -0.0490
  864MOL0     O19125   3.472   3.058   9.737 -0.0466 -0.3200 -0.6079
  864MOL0     C19126   3.360   2.984   9.694  0.3631  0.8305  0.2773
  864MOL0     C19127   3.361   2.906   9.580  0.4724  0.2760 -0.1241
  864MOL0     C19128   3.255   2.818   9.554 -0.5197 -0.4654  0.0299
  864MOL0     C19129   3.143   2.823   9.639  0.1971 -0.7377 -0.7259
  864MOL0     O19130   3.038   2.749   9.603 -0.3297 -0.8288 -0.6018
  864MOL0     C19131   2.939   2.720   9.699 -0.9105 -1.3235  0.0281
  864MOL0     C19132   2.875   2.579   9.662  0.1332 -0.4282 -0.6376
  864MOL0     C19133   2.848   2.551   9.505 -0.1600 -0.1841  0.3766
  864MOL0     C19134   2.782   2.419   9.480  0.0666  0.1233 -1.1115
  864MOL0     C19135   2.747   2.394   9.331  0.1219  0.3367 -0.0547
  864MOL0     C19136   2.713   2.253   9.307  0.2945  0.4766  0.8733
  864MOL0     C19137   2.645   2.201   9.178  0.0890 -0.4150  0.3859
  864MOL0     C19138   2.751   2.187   9.075  0.3025 -0.6280 -0.2628
  864MOL0    Cl19139   2.684   2.165   8.909  0.1899 -0.0816 -0.6009
  864MOL0     C19140   3.146   2.911   9.746  0.8359  0.3637  0.2418
  864MOL0     C19141   3.254   2.991   9.777 -0.0961 -0.2424  0.3082
  864MOL0     O19142   3.637   2.921   9.666 -0.8668 -0.5786 -0.1312
  864MOL0     C19143   3.848   3.030   9.782  0.3481 -0.4029  0.1756
  864MOL0     C19144   3.953   3.086   9.851 -0.3748  0.7451  0.1258
  864MOL0     N19145   4.612   3.336   9.774 -0.2099  0.0842 -0.1269
  864MOL0     N19146   4.710   3.312   9.853  1.0559  0.1547 -0.8020
  864MOL0     C19147   4.857   3.770  10.802 -0.5644 -0.6138 -0.2109
  864MOL0     C19148   4.793   3.860  10.898  0.1601 -0.7083  0.2674
  864MOL0     C19149   4.571   4.033  11.231  0.4882  0.1622  0.1276
  864MOL0     C19150   4.656   4.047  11.340 -0.6887 -0.2590  0.0664
  864MOL0     C19151   4.644   4.137  11.444 -0.2792 -0.4736  0.0141
  864MOL0     C19152   4.523   4.219  11.438 -0.2095 -0.3970 -0.8429
  864MOL0     O19153   4.491   4.330  11.513 -0.6420 -0.3042  0.9568
  864MOL0     C19154   4.594   4.363  11.608  0.4444 -0.0835 -0.7400
  864MOL0     C19155   4.524   4.416  11.732 -0.4134 -0.8458 -0.9994
  864MOL0     C19156   4.472   4.305  11.820  0.0243 -0.7588 -0.1432
  864MOL0     C19157   4.383   4.345  11.938 -0.6086  0.4330 -0.4461
  864MOL0     C19158   4.461   4.415  12.033 -0.1477 -0.7401 -0.1249
  864MOL0     C19159   4.524   4.469  12.113 -1.2231  1.2390 -0.0701
  864MOL0     C19160   4.437   4.205  11.334 -0.2674 -0.4952 -0.4521
  864MOL0     C19161   4.457   4.121  11.224 -0.3776  0.7587 -0.2036
  864MOL0     C19162   4.359   4.101  11.122  0.5037  0.7436  0.3791
  864MOL0     H19163   4.830   3.677  11.174 -2.4852  2.7796 -0.3030
  864MOL0     H19164   4.984   3.540  11.028 -1.5514  1.1147  3.4610
  864MOL0     H19165   4.848   3.413  10.848 -0.1570  1.9263 -0.2990
  864MOL0     H19166   5.022   3.382  10.837  1.4512 -0.6739 -1.1465
  864MOL0     H19167   4.856   3.400  10.589  0.1793 -2.3216 -2.6941
  864MOL0     H19168   5.037   3.392  10.599 -1.1930  3.5002 -1.5535
  864MOL0     H19169   4.969   3.163  10.710 -2.8452 -0.1722  1.2764
  864MOL0     H19170   4.813   3.203  10.679  1.4435 -2.0237  2.7148
  864MOL0     H19171   5.054   3.201  10.474 -0.7427  0.6235 -0.4074
  864MOL0     H19172   4.961   3.070  10.496 -0.2130  0.9731 -0.5727
  864MOL0     H19173   4.832   3.317  10.374 -0.9319 -0.5573 -2.6823
  864MOL0     H19174   4.761   3.149  10.394  0.3011 -0.4190 -2.1966
  864MOL0     H19175   4.987   3.237  10.228  2.3615 -1.1381  1.6420
  864MOL0     H19176   4.934   3.064  10.244 -6.9510 -2.0607 -5.5225
  864MOL0     H19177   4.708   3.129  10.165  0.6364 -2.7050 -0.7409
  864MOL0     H19178   4.847   3.142  10.052  0.4867  0.7609 -0.1483
  864MOL0     H19179   4.691   3.349  10.193 -1.0623  1.5062 -1.8619
  864MOL0     H19180   4.838   3.390  10.102  0.3404 -1.2308  3.2063
  864MOL0     H19181   4.529   3.495  10.053  0.8518  2.5041  0.1642
  864MOL0     H19182   4.418   3.463   9.669  0.7530 -0.1495  0.4340
  864MOL0     H19183   4.411   3.578   9.796 -1.2760 -0.0871 -0.2610
  864MOL0     H19184   4.201   3.446   9.762  2.5492  2.8187 -1.5160
  864MOL0     H19185   4.275   3.293   9.801 -1.2695  1.6914 -3.3490
  864MOL0     H19186   4.298   3.371  10.029  1.5554  2.2538  0.8335
  864MOL0     H19187   4.257   3.536   9.995 -1.8446  1.7024 -2.4338
  864MOL0     H19188   4.061   3.424  10.093 -0.9559  0.2541  0.2588
  864MOL0     H19189   4.014   3.454   9.924  1.2593  0.7440 -1.8532
  864MOL0     H19190   3.806   3.381   9.933 -0.0967  0.8322  0.6863
  864MOL0     H19191   3.519   3.244   9.927  0.4924  3.9819  3.9285
  864MOL0     H19192   3.525   3.325   9.763  2.1496  0.3971 -2.1706
  864MOL0     H19193   3.609   3.388   9.914  0.8183  1.0977 -1.9840
  864MOL0     H19194   3.454   2.901   9.524  0.7257 -1.5136  0.3833
  864MOL0     H19195   3.248   2.762   9.461 -2.1742  1.0738 -0.8405
  864MOL0     H19196   2.975   2.723   9.802  0.0057  3.2469 -0.2361
  864MOL0     H19197   2.864   2.797   9.683 -0.9230 -0.9458  1.7362
  864MOL0     H19198   2.946   2.512   9.711  0.2441 -0.4110 -0.7753
  864MOL0     H19199   2.774   2.567   9.702 -0.2301 -0.9551 -1.6830
  864MOL0     H19200   2.948   2.544   9.460  0.3282  0.4001  1.3122
  864MOL0     H19201   2.787   2.624   9.451  1.3404 -0.3424 -1.6614
  864MOL0     H19202   2.682   2.418   9.525 -0.5160  1.8903 -2.2212
  864MOL0     H19203   2.831   2.338   9.535 -1.9313 -0.8555 -0.6738
  864MOL0     H19204   2.671   2.465   9.298  0.6778  0.7229 -0.5369
  864MOL0     H19205   2.838   2.411   9.273 -0.4855 -1.8795 -1.7862
  864MOL0     H19206   2.639   2.227   9.384  1.5349 -2.9704  1.0872
  864MOL0     H19207   2.799   2.187   9.324  0.5332  0.7546  0.7517
  864MOL0     H19208   2.573   2.276   9.144  1.7507  1.3774  0.6505
  864MOL0     H19209   2.591   2.107   9.193 -1.3666  0.8095  3.4214
  864MOL0     H19210   2.814   2.102   9.105  1.8822  0.6933  0.3068
  864MOL0     H19211   2.814   2.276   9.072 -0.7544  0.1182 -1.1373
  864MOL0     H19212   3.059   2.929   9.807 -0.0247 -0.7883 -0.6022
  864MOL0     H19213   3.251   3.058   9.862  0.3725  0.5901 -0.3104
  864MOL0     H19214   3.862   2.932   9.737  0.7275 -0.7540  1.0500
  864MOL0     H19215   4.030   3.009   9.857 -1.0585  0.0279 -0.1096
  864MOL0     H19216   4.848   3.795  10.697 -4.6520 -0.0074  0.1163
  864MOL0     H19217   4.741   3.952  10.873  1.7730  0.2922  0.4267
  864MOL0     H19218   4.742   3.981  11.343  0.6721  1.3510 -1.2357
  864MOL0     H19219   4.716   4.136  11.525  0.9892  4.5512 -0.7254
  864MOL0     H19220   4.657   4.279  11.639  0.3477 -0.1333 -0.6769
  864MOL0     H19221   4.677   4.415  11.558  2.7725 -3.2397 -0.4982
  864MOL0     H19222   4.453   4.499  11.716 -0.8125 -0.8154  0.7279
  864MOL0     H19223   4.597   4.469  11.794 -2.3512 -0.2367  0.9287
  864MOL0     H19224   4.405   4.252  11.752  2.9212  0.2935 -4.1390
  864MOL0     H19225   4.556   4.245  11.858 -0.3767 -2.0757 -1.2481
  864MOL0     H19226   4.340   4.253  11.978  0.2235  1.4412  3.0909
  864MOL0     H19227   4.308   4.410  11.892  2.3725  1.2584 -4.7697
  864MOL0     H19228   4.596   4.516  12.177  1.0982 -2.3049  0.1475
  864MOL0     H19229   4.353   4.273  11.328 -0.4251 -0.5106  1.0930
  864MOL0     H19230   4.284   4.180  11.114  1.9476  1.9801 -2.5364
  864MOL0     H19231   4.399   4.109  11.020  0.5807  1.3025  0.4511
  864MOL0     H19232   4.319   4.002  11.145  2.3245 -0.7354 -2.3308
  865MOL0     O19233   6.381   3.645   3.356 -0.0142 -0.6205 -0.3858
  865MOL0     C19234   6.353   3.626   3.236  0.1568 -0.7060 -0.9634
  865MOL0     O19235   6.232   3.619   3.186 -0.3372 -0.0223  0.3273
  865MOL0     C19236   6.110   3.580   3.239 -0.1240  0.2654 -0.2120
  865MOL0     C19237   5.994   3.582   3.162 -0.6132  0.0241  0.1264
  865MOL0     C19238   5.878   3.530   3.220  0.4791  0.3583  0.2182
  865MOL0     C19239   5.877   3.477   3.352 -0.1200  1.1181  0.5165
  865MOL0     O19240   5.758   3.442   3.411 -0.3978  0.5509 -0.0311
  865MOL0     C19241   5.646   3.539   3.411 -0.0195 -0.0531 -0.0956
  865MOL0     C19242   5.559   3.527   3.533 -0.2745  0.1221  0.1580
  865MOL0     C19243   5.556   3.651   3.635 -0.2354 -0.5527  0.5195
  865MOL0     C19244   5.504   3.607   3.775 -0.0688 -0.9393 -0.0897
  865MOL0     C19245   5.350   3.600   3.785  0.8281  0.3548  0.5876
  865MOL0     C19246   5.310   3.545   3.919  0.0725  0.1494 -0.1125
  865MOL0     C19247   5.179   3.589   3.986  0.1162  0.2209 -0.1419
  865MOL0     C19248   5.070   3.562   3.883  0.4783 -0.0261 -0.4052
  865MOL0     N19249   4.936   3.581   3.946 -0.5044  0.2528 -1.1107
  865MOL0     C19250   4.871   3.701   3.952  0.7617  0.4063  0.6488
  865MOL0     C19251   4.746   3.670   3.999 -0.1811  0.4423 -0.2393
  865MOL0     C19252   4.647   3.779   4.035  0.0086  0.3915  0.3616
  865MOL0     C19253   4.695   3.887   4.128 -0.0423 -0.8108 -0.2362
  865MOL0     C19254   4.621   4.017   4.145  0.9613  0.3620  0.7760
  865MOL0     C19255   4.654   4.095   4.270 -0.1376  1.4140 -1.0348
  865MOL0     O19256   4.786   4.141   4.266  0.3607  0.7006  0.2569
  865MOL0     C19257   4.836   4.200   4.379 -0.4665  0.7180  0.9109
  865MOL0     C19258   4.943   4.283   4.348 -0.4328  0.2042 -0.4297
  865MOL0     C19259   5.004   4.350   4.453 -1.0665 -0.0268 -1.1270
  865MOL0     C19260   5.140   4.425   4.424  0.3977  0.6408  0.9009
  865MOL0     C19261   4.954   4.340   4.589  0.8521 -0.4532  0.9846
  865MOL0     C19262   5.007   4.405   4.702 -0.2641 -0.9121 -0.5205
  865MOL0     O19263   5.045   4.316   4.804  0.4349  0.3220 -0.7693
  865MOL0     C19264   5.111   4.368   4.914 -0.4043  0.1383 -0.9406
  865MOL0     C19265   5.233   4.438   4.907 -0.4539 -0.3769  0.5669
  865MOL0     C19266   5.306   4.488   5.018  0.6400  0.5267  0.3523
  865MOL0     C19267   5.252   4.451   5.146 -0.6357 -0.3902  0.3947
  865MOL0     O19268   5.311   4.490   5.263 -0.0411 -0.4061 -0.4010
  865MOL0     C19269   5.422   4.575   5.262 -0.5377 -0.2680 -0.0371
  865MOL0     C19270   5.476   4.591   5.406  0.5441  0.3401 -0.8694
  865MOL0     C19271   5.567   4.712   5.402 -0.3799  0.3582 -0.1122
  865MOL0     C19272   5.499   4.829   5.472 -1.2983  0.0394  0.0490
  865MOL0     C19273   5.398   4.891   5.388  0.5115  0.7319 -1.1228
  865MOL0     C19274   5.332   5.006   5.469 -0.5803 -0.9447 -0.8153
  865MOL0     C19275   5.232   5.084   5.381  0.4116 -0.3904  0.0592
  865MOL0     C19276   5.184   5.211   5.466 -0.0236  0.1053  0.3089
  865MOL0    Cl19277   5.317   5.331   5.453 -0.0179 -0.2012  0.0137
  865MOL0     C19278   5.134   4.370   5.151 -0.2103  0.2866 -0.7080
  865MOL0     C19279   5.057   4.338   5.037 -0.2500  0.0231  0.1018
  865MOL0     O19280   5.026   4.525   4.694 -0.3475  0.0340 -0.2954
  865MOL0     C19281   4.851   4.244   4.604  0.2508 -0.5792 -0.5233
  865MOL0     C19282   4.787   4.185   4.503 -0.3961  0.8711 -0.8542
  865MOL0     N19283   4.741   3.532   4.015 -0.2326  0.3925 -0.8538
  865MOL0     N19284   4.858   3.483   3.983  0.0007  0.0861  0.1690
  865MOL0     C19285   5.999   3.475   3.426 -0.0404 -0.6202  0.5242
  865MOL0     C19286   6.112   3.526   3.367 -0.1828 -0.1101  0.1935
  865MOL0     C19287   6.472   3.635   3.142 -0.5916  1.2830  0.2866
  865MOL0     C19288   6.587   3.565   3.173  0.1813  0.4037 -0.1113
  865MOL0     C19289   6.689   3.546   3.081 -0.1822  0.0105  0.5856
  865MOL0     C19290   6.689   3.618   2.968  0.4241  0.3897  0.6081
  865MOL0     O19291   6.801   3.593   2.888 -0.1943 -0.3307  0.0557
  865MOL0     C19292   6.769   3.582   2.746 -0.1068 -0.6099 -0.0553
  865MOL0     C19293   6.702   3.460   2.702 -0.5789  0.0374 -0.2674
  865MOL0     C19294   6.698   3.467   2.549  1.1889 -0.3190  0.2124
  865MOL0     C19295   6.761   3.336   2.488 -0.4630  0.6449 -0.2714
  865MOL0     C19296   6.683   3.218   2.531  0.3760 -0.7441  0.3101
  865MOL0     C19297   6.606   3.129   2.552  0.7686 -0.9975 -0.8041
  865MOL0     C19298   6.578   3.690   2.928  0.0678  0.1865  0.3455
  865MOL0     C19299   6.468   3.700   3.018  0.4326  0.7573  0.7623
  865MOL0     C19300   6.343   3.773   2.973 -0.2998  0.3504 -0.3061
  865MOL0     H19301   5.989   3.634   3.066 -2.9436  0.5627  0.4779
  865MOL0     H19302   5.790   3.531   3.157  0.5955  1.2737  0.0529
  865MOL0     H19303   5.594   3.517   3.317 -1.6096 -1.8626  1.1266
  865MOL0     H19304   5.685   3.641   3.410  3.3090 -1.2062  0.3517
  865MOL0     H19305   5.454   3.516   3.505 -1.3079 -2.2868  4.1073
  865MOL0     H19306   5.588   3.436   3.587 -1.5084 -1.5139 -1.7871
  865MOL0     H19307   5.653   3.697   3.650 -1.8293  2.9204  1.1838
  865MOL0     H19308   5.487   3.722   3.589  0.7184 -1.5565 -2.6965
  865MOL0     H19309   5.543   3.509   3.803  0.2576 -1.1023 -1.0902
  865MOL0     H19310   5.541   3.689   3.838 -0.6065  0.8507 -2.0131
  865MOL0     H19311   5.309   3.533   3.709  0.2803  0.0629  1.1332
  865MOL0     H19312   5.309   3.701   3.771 -0.6729 -0.2908  0.1509
  865MOL0     H19313   5.311   3.436   3.924  0.0431  0.1537 -0.0126
  865MOL0     H19314   5.388   3.585   3.983  0.9509  0.4291 -1.3244
  865MOL0     H19315   5.179   3.691   4.026  2.1080 -0.0778  0.7647
  865MOL0     H19316   5.156   3.516   4.064 -0.5823  0.5587 -0.0223
  865MOL0     H19317   5.105   3.626   3.802 -1.1630  1.4586  0.0125
  865MOL0     H19318   5.067   3.456   3.855  1.7781 -0.4629  0.9733
  865MOL0     H19319   4.900   3.800   3.919  1.0866  0.0657 -0.1020
  865MOL0     H19320   4.550   3.736   4.065  1.5043 -2.7880  1.0904
  865MOL0     H19321   4.637   3.823   3.935 -1.9961 -2.0680 -0.6491
  865MOL0     H19322   4.688   3.840   4.226 -1.6866  0.2058  0.1654
  865MOL0     H19323   4.800   3.912   4.111 -1.0106  3.5484 -1.0362
  865MOL0     H19324   4.637   4.086   4.061 -1.5362 -1.7897 -1.6325
  865MOL0     H19325   4.518   3.982   4.141  2.2954 -3.9598 -1.6699
  865MOL0     H19326   4.587   4.182   4.262  1.9331  3.0163 -1.8248
  865MOL0     H19327   4.633   4.035   4.359 -0.7609 -0.9010 -2.6342
  865MOL0     H19328   4.980   4.274   4.246 -0.9806 -2.1235 -0.4661
  865MOL0     H19329   5.174   4.492   4.503 -2.3377  1.7393  1.2542
  865MOL0     H19330   5.118   4.487   4.336  0.7490  1.5508  1.4439
  865MOL0     H19331   5.216   4.347   4.409  0.1342 -0.6706  5.1146
  865MOL0     H19332   5.285   4.446   4.812  0.3717 -0.6361  0.9910
  865MOL0     H19333   5.402   4.538   5.016  1.3279 -0.7198 -1.8315
  865MOL0     H19334   5.500   4.520   5.209  0.2480 -0.6149  1.3980
  865MOL0     H19335   5.400   4.670   5.213  1.9724  0.6056  0.3569
  865MOL0     H19336   5.387   4.594   5.469  2.1467  0.2392  1.5136
  865MOL0     H19337   5.530   4.511   5.458 -2.4747  1.0731  3.9369
  865MOL0     H19338   5.611   4.738   5.305  1.0958 -2.3150 -0.2749
  865MOL0     H19339   5.655   4.687   5.462 -0.8777 -0.8301  0.1510
  865MOL0     H19340   5.580   4.900   5.489 -0.5453  0.1057 -3.2606
  865MOL0     H19341   5.464   4.786   5.566  0.4386 -2.0121 -0.1430
  865MOL0     H19342   5.433   4.916   5.287 -1.4891 -0.0876 -2.0728
  865MOL0     H19343   5.314   4.822   5.386  1.2947 -0.2434 -1.6999
  865MOL0     H19344   5.407   5.068   5.519 -0.0713 -2.0659 -0.1205
  865MOL0     H19345   5.285   4.954   5.553 -4.1400 -1.5585 -2.9576
  865MOL0     H19346   5.144   5.019   5.370  0.8104 -0.8115 -0.7156
  865MOL0     H19347   5.265   5.123   5.285 -2.0689  2.7829  0.3312
  865MOL0     H19348   5.169   5.176   5.568 -1.2559 -2.5500 -0.6933
  865MOL0     H19349   5.087   5.255   5.441 -0.6271 -0.8116  0.9860
  865MOL0     H19350   5.088   4.340   5.244  0.2083 -1.0113 -0.8979
  865MOL0     H19351   4.959   4.294   5.048 -0.2129 -0.1319 -0.1642
  865MOL0     H19352   4.814   4.232   4.705  0.8387  2.3003  0.1266
  865MOL0     H19353   4.710   4.114   4.529  3.1814 -1.5651  5.0332
  865MOL0     H19354   6.020   3.433   3.524  0.8118 -2.5492 -0.4252
  865MOL0     H19355   6.203   3.528   3.427 -0.2107 -1.6362  0.3098
  865MOL0     H19356   6.600   3.525   3.273 -3.9873 -0.9885  0.0318
  865MOL0     H19357   6.770   3.482   3.113 -1.1923 -1.6926 -0.1215
  865MOL0     H19358   6.709   3.665   2.707 -2.0637 -0.8610  2.2377
  865MOL0     H19359   6.872   3.593   2.709  0.6461  1.5030  2.3570
  865MOL0     H19360   6.599   3.457   2.737 -1.9691 -0.6495 -3.9208
  865MOL0     H19361   6.763   3.375   2.734  2.0392  1.4948 -1.1322
  865MOL0     H19362   6.593   3.470   2.518  1.4795  1.8762 -0.7650
  865MOL0     H19363   6.761   3.552   2.520  1.6142 -0.8738 -0.5447
  865MOL0     H19364   6.864   3.323   2.523  0.2943  0.5221 -2.4343
  865MOL0     H19365   6.766   3.334   2.379  1.4292  0.9004 -0.2221
  865MOL0     H19366   6.540   3.044   2.560  0.9863 -1.0743  0.2587
  865MOL0     H19367   6.574   3.745   2.835 -1.0391 -0.3794  0.0296
  865MOL0     H19368   6.360   3.827   2.879 -0.1327 -0.5505 -0.8044
  865MOL0     H19369   6.285   3.684   2.948 -0.4382 -0.2561  2.0075
  865MOL0     H19370   6.298   3.836   3.050 -1.4271  0.9880 -1.4350
  866MOL0     O19371   5.068   5.645   4.292  0.3613  1.1281  0.4089
  866MOL0     C19372   5.116   5.557   4.218  0.8020  0.3428  0.0727
  866MOL0     O19373   5.075   5.541   4.086  0.4308 -0.1049 -0.3953
  866MOL0     C19374   5.026   5.650   4.029  0.9161 -0.9641  0.2490
  866MOL0     C19375   5.102   5.768   4.023 -0.1735  0.7732  0.3371
  866MOL0     C19376   5.073   5.879   3.949  0.1303 -1.0471 -1.4477
  866MOL0     C19377   4.949   5.889   3.887  1.1405  0.1847  0.8286
  866MOL0     O19378   4.923   6.004   3.822 -0.6161  0.6485 -0.0141
  866MOL0     C19379   4.816   5.998   3.729  0.0329 -1.1738  0.2112
  866MOL0     C19380   4.839   6.105   3.621 -0.3173  1.0807 -0.1230
  866MOL0     C19381   4.845   6.249   3.671 -0.1665  0.4887 -1.1417
  866MOL0     C19382   4.708   6.291   3.737  0.5724  0.1334  0.5457
  866MOL0     C19383   4.695   6.433   3.761  0.4799  0.2390 -0.5293
  866MOL0     C19384   4.822   6.511   3.794 -0.7154  1.2890 -0.4238
  866MOL0     C19385   4.787   6.648   3.830  0.2929 -0.0724 -0.3972
  866MOL0     C19386   4.785   6.754   3.713  0.1402  1.1566 -0.4991
  866MOL0     N19387   4.920   6.834   3.705  0.1683 -0.1253  0.4432
  866MOL0     C19388   5.047   6.773   3.716  0.2482 -0.7926  0.2366
  866MOL0     C19389   5.138   6.870   3.741 -0.3067 -0.8347  0.2652
  866MOL0     C19390   5.282   6.862   3.760  1.6734  0.1680 -0.2518
  866MOL0     C19391   5.352   6.853   3.617  0.5042  0.3840  0.3851
  866MOL0     C19392   5.499   6.834   3.629 -0.6731  0.1352 -0.3569
  866MOL0     C19393   5.565   6.803   3.490  0.5450  0.7043  0.2635
  866MOL0     O19394   5.551   6.665   3.444  0.6633  0.4229  0.2508
  866MOL0     C19395   5.658   6.589   3.415  0.8011 -0.5266  0.4491
  866MOL0     C19396   5.627   6.479   3.343  0.4647 -0.2683  0.6392
  866MOL0     C19397   5.715   6.376   3.306 -0.1983 -0.3444 -0.8599
  866MOL0     C19398   5.657   6.265   3.226  0.1140  0.6222  0.3321
  866MOL0     C19399   5.858   6.391   3.335  0.0880 -0.6149 -0.9782
  866MOL0     C19400   5.958   6.282   3.308 -0.7421  0.5576 -0.1689
  866MOL0     O19401   5.924   6.176   3.221 -0.9749  0.8991 -0.3447
  866MOL0     C19402   6.014   6.074   3.197 -0.0537  0.6462  0.1105
  866MOL0     C19403   6.081   6.010   3.298 -0.1743  0.2374  0.0438
  866MOL0     C19404   6.162   5.903   3.261 -0.0081 -0.8449 -0.1759
  866MOL0     C19405   6.185   5.857   3.129 -0.4305 -0.2355 -0.2327
  866MOL0     O19406   6.284   5.765   3.102  0.3150 -0.5650 -0.1510
  866MOL0     C19407   6.369   5.748   2.979  0.4159  0.1708 -1.1700
  866MOL0     C19408   6.457   5.627   2.971 -0.9411 -0.0130  0.0286
  866MOL0     C19409   6.589   5.647   3.055 -0.2212  0.1475 -0.1532
  866MOL0     C19410   6.667   5.522   3.057  0.5434 -0.0341 -0.2810
  866MOL0     C19411   6.802   5.544   3.148  0.3722 -0.5868 -1.0800
  866MOL0     C19412   6.763   5.528   3.297  0.4923  0.4405  0.2420
  866MOL0     C19413   6.884   5.500   3.393  0.2432  0.6538  0.4245
  866MOL0     C19414   6.849   5.513   3.546  0.0698 -0.3073  0.8302
  866MOL0    Cl19415   6.701   5.429   3.587  0.1103  0.9075 -0.0295
  866MOL0     C19416   6.111   5.920   3.037 -0.4072  0.4769  0.1934
  866MOL0     C19417   6.021   6.024   3.067 -0.1527  0.1184 -0.1830
  866MOL0     O19418   6.064   6.302   3.357 -0.6604 -0.5780  0.4450
  866MOL0     C19419   5.885   6.508   3.414 -0.3387  0.0316  0.1321
  866MOL0     C19420   5.789   6.604   3.447  0.4121 -0.7266 -0.2997
  866MOL0     N19421   5.062   6.990   3.743 -0.2253  0.5708 -0.3015
  866MOL0     N19422   4.942   6.970   3.730  0.3169 -0.5670  0.1634
  866MOL0     C19423   4.866   5.772   3.890 -0.5029 -0.2654 -0.2834
  866MOL0     C19424   4.903   5.658   3.956 -0.1188 -0.5421  0.4981
  866MOL0     C19425   5.204   5.455   4.288 -0.0200  0.2317 -0.6133
  866MOL0     C19426   5.216   5.332   4.214 -1.5559  0.1496 -0.7994
  866MOL0     C19427   5.287   5.219   4.279 -0.3413  0.3483  0.0395
  866MOL0     C19428   5.340   5.218   4.414 -0.6991 -0.5409  0.0596
  866MOL0     O19429   5.403   5.115   4.482  0.2468  0.1172  0.4521
  866MOL0     C19430   5.458   5.005   4.410  0.5313 -0.1791 -0.3714
  866MOL0     C19431   5.349   4.899   4.391  0.3898 -0.3109  0.9486
  866MOL0     C19432   5.373   4.784   4.295 -0.4737  1.6570  0.3094
  866MOL0     C19433   5.489   4.678   4.330  0.2816  0.0313  0.0980
  866MOL0     C19434   5.469   4.617   4.455  0.3600 -0.3188 -0.0675
  866MOL0     C19435   5.441   4.557   4.553 -0.9731  0.4938 -0.2806
  866MOL0     C19436   5.307   5.336   4.480 -0.3627 -0.7464 -1.1645
  866MOL0     C19437   5.254   5.454   4.425  0.1856  0.5094  0.4437
  866MOL0     C19438   5.267   5.575   4.515  0.6033 -0.8075  0.2867
  866MOL0     H19439   5.202   5.788   4.060  0.5209  0.8386 -1.4704
  866MOL0     H19440   5.140   5.963   3.935  1.7193 -2.2380 -1.3063
  866MOL0     H19441   4.719   6.024   3.772 -0.4076 -0.6810 -1.0416
  866MOL0     H19442   4.821   5.901   3.680  1.9141  0.0340 -2.2042
  866MOL0     H19443   4.938   6.080   3.584  1.5930 -0.6997  5.2526
  866MOL0     H19444   4.759   6.078   3.551 -0.6276  2.8928 -0.5216
  866MOL0     H19445   4.914   6.247   3.755 -1.1209  0.0863 -0.3509
  866MOL0     H19446   4.876   6.326   3.599 -1.7287 -0.3587 -2.8252
  866MOL0     H19447   4.626   6.259   3.673  1.0601  1.6012 -0.8721
  866MOL0     H19448   4.695   6.229   3.826  1.4930 -1.1835 -0.2104
  866MOL0     H19449   4.624   6.441   3.845  2.1008 -2.1195  1.2037
  866MOL0     H19450   4.648   6.478   3.673 -0.6151  0.9191  0.3735
  866MOL0     H19451   4.863   6.457   3.880 -3.6711 -2.7795 -1.2559
  866MOL0     H19452   4.897   6.512   3.715  1.9183 -0.8389  1.8400
  866MOL0     H19453   4.858   6.674   3.909 -1.1419 -1.5284  1.4666
  866MOL0     H19454   4.693   6.661   3.884 -0.0451  1.6625 -1.3306
  866MOL0     H19455   4.779   6.700   3.618 -0.5325  3.9734 -2.1847
  866MOL0     H19456   4.700   6.822   3.720  2.0412  3.5314  3.9193
  866MOL0     H19457   5.071   6.668   3.704  3.2936 -0.1922  0.3467
  866MOL0     H19458   5.290   6.776   3.827  3.3241  3.4503  4.3492
  866MOL0     H19459   5.331   6.941   3.819  1.3817  0.8310 -0.8767
  866MOL0     H19460   5.311   6.770   3.559  0.1943  1.4720 -1.0033
  866MOL0     H19461   5.316   6.933   3.553 -1.0358  0.4622  1.2984
  866MOL0     H19462   5.545   6.924   3.670  1.1844 -1.0798  0.3609
  866MOL0     H19463   5.522   6.746   3.689  3.1007  0.7613 -0.6424
  866MOL0     H19464   5.532   6.867   3.407  3.6871 -0.7930 -2.3827
  866MOL0     H19465   5.670   6.828   3.509 -0.4028  2.0997  4.6929
  866MOL0     H19466   5.524   6.468   3.313  1.0546 -0.7406 -1.3787
  866MOL0     H19467   5.652   6.167   3.274 -1.5933 -0.8982 -2.6870
  866MOL0     H19468   5.704   6.255   3.127 -0.6393 -1.6452  0.1407
  866MOL0     H19469   5.554   6.274   3.192  1.1938  0.0934 -3.6039
  866MOL0     H19470   6.059   6.050   3.396  1.2344 -0.5604  0.7102
  866MOL0     H19471   6.197   5.859   3.354 -1.8043  1.0024  1.4964
  866MOL0     H19472   6.310   5.758   2.887 -1.2707  1.5932  0.0039
  866MOL0     H19473   6.442   5.829   2.985 -2.1735  2.5610  0.1302
  866MOL0     H19474   6.397   5.546   3.012  0.9902 -0.5709  1.9228
  866MOL0     H19475   6.479   5.599   2.868 -0.5790  0.2910  0.0227
  866MOL0     H19476   6.561   5.676   3.156 -0.2455  0.8943 -0.3701
  866MOL0     H19477   6.647   5.719   2.997 -0.2287 -0.6494 -1.1800
  866MOL0     H19478   6.698   5.480   2.961  1.8520 -4.3936  1.7873
  866MOL0     H19479   6.598   5.448   3.100 -1.7466  2.9480  1.5656
  866MOL0     H19480   6.869   5.461   3.126  3.3075  1.0236  1.1067
  866MOL0     H19481   6.852   5.639   3.127 -0.3364  0.2431  0.7473
  866MOL0     H19482   6.681   5.455   3.303  0.0161  1.0240  0.9043
  866MOL0     H19483   6.717   5.617   3.340 -2.0416 -0.5217 -0.2412
  866MOL0     H19484   6.958   5.578   3.372  2.4129 -1.1429  0.8987
  866MOL0     H19485   6.930   5.402   3.375  0.2141  0.1643  2.6586
  866MOL0     H19486   6.830   5.619   3.562  0.8277  0.4748 -2.7625
  866MOL0     H19487   6.936   5.475   3.602  0.9484  3.7561  2.5752
  866MOL0     H19488   6.127   5.890   2.933  1.0917 -1.0898  0.8363
  866MOL0     H19489   5.964   6.079   2.992 -1.4447 -2.0999 -0.9363
  866MOL0     H19490   5.984   6.526   3.454 -0.2597 -2.1431  1.0286
  866MOL0     H19491   5.814   6.684   3.517 -2.7070 -1.0049  1.3369
  866MOL0     H19492   4.778   5.772   3.827  0.4951  2.4367 -1.8771
  866MOL0     H19493   4.833   5.576   3.947  1.0688 -1.3770 -4.7038
  866MOL0     H19494   5.197   5.331   4.108  0.6919  1.2199 -1.2546
  866MOL0     H19495   5.298   5.128   4.221 -0.9944  0.8069 -0.8256
  866MOL0     H19496   5.515   5.038   4.323  4.7144 -1.8848  1.4576
  866MOL0     H19497   5.526   4.945   4.471  0.0325 -0.4583 -0.0757
  866MOL0     H19498   5.259   4.954   4.359  0.5624 -0.6020 -0.0736
  866MOL0     H19499   5.325   4.854   4.487 -1.3109 -0.8715  0.3113
  866MOL0     H19500   5.285   4.720   4.291  1.5565 -1.2773 -1.2318
  866MOL0     H19501   5.374   4.829   4.196 -1.3105  0.5176 -0.2435
  866MOL0     H19502   5.589   4.722   4.338  0.9550 -1.5320  0.7458
  866MOL0     H19503   5.473   4.604   4.251 -2.2407  0.7032 -0.1247
  866MOL0     H19504   5.413   4.508   4.644  3.2205  1.0067  1.5319
  866MOL0     H19505   5.324   5.346   4.586 -2.5860 -2.1739 -0.6044
  866MOL0     H19506   5.366   5.564   4.562  1.0751 -2.4826 -0.9782
  866MOL0     H19507   5.261   5.669   4.460 -1.0514 -0.3631  1.1707
  866MOL0     H19508   5.195   5.582   4.596  0.4872  4.4041  0.0864
  867MOL0     O19509   8.516   4.221   7.631  0.3477  0.0639  0.3462
  867MOL0     C19510   8.454   4.193   7.731 -0.1859 -0.5153 -0.3477
  867MOL0     O19511   8.390   4.285   7.819 -0.7353 -0.5360  0.3000
  867MOL0     C19512   8.346   4.401   7.757  0.0341 -0.9441  0.1513
  867MOL0     C19513   8.211   4.438   7.756  0.4772 -0.6011  0.2983
  867MOL0     C19514   8.161   4.549   7.690  0.1805  1.2524 -0.0418
  867MOL0     C19515   8.260   4.631   7.620 -0.6101  0.8561 -1.3577
  867MOL0     O19516   8.220   4.737   7.533  0.5058  0.0365 -0.1492
  867MOL0     C19517   8.154   4.694   7.416  0.9545 -0.5359  0.4646
  867MOL0     C19518   8.029   4.783   7.389  0.0679  0.5810  0.4346
  867MOL0     C19519   7.926   4.754   7.497 -0.0733 -0.4477 -0.5110
  867MOL0     C19520   7.806   4.841   7.474  0.8982  0.0230  0.0373
  867MOL0     C19521   7.693   4.806   7.567 -0.1792  0.0060 -0.5362
  867MOL0     C19522   7.564   4.887   7.521  0.0322 -0.0634  0.4301
  867MOL0     C19523   7.449   4.873   7.618 -0.0195 -0.5673 -1.0497
  867MOL0     C19524   7.377   4.743   7.600 -0.5063  0.4204  0.5274
  867MOL0     N19525   7.261   4.749   7.507 -0.0631  0.2988 -0.3375
  867MOL0     C19526   7.138   4.780   7.544 -0.5153 -0.1985  0.8180
  867MOL0     C19527   7.057   4.744   7.440 -0.9255  1.8587 -0.1502
  867MOL0     C19528   6.912   4.740   7.438 -0.1303  1.1410 -0.8728
  867MOL0     C19529   6.845   4.863   7.478  0.2230  0.0217  1.8977
  867MOL0     C19530   6.897   4.980   7.398  0.9603  0.2043  0.1756
  867MOL0     C19531   6.872   4.971   7.237 -0.0788 -0.3995  0.2091
  867MOL0     O19532   6.871   5.107   7.201 -0.3193 -0.1342 -0.2017
  867MOL0     C19533   6.848   5.149   7.071 -0.2243 -0.2248  0.0226
  867MOL0     C19534   6.830   5.286   7.045 -0.0540 -0.1087 -0.5513
  867MOL0     C19535   6.811   5.337   6.911 -0.1185  0.3127 -1.8990
  867MOL0     C19536   6.754   5.478   6.908  0.2124  0.0153  0.5991
  867MOL0     C19537   6.804   5.248   6.802 -1.1938 -0.1092 -0.2939
  867MOL0     C19538   6.769   5.288   6.661 -0.9710  0.1773  1.0336
  867MOL0     O19539   6.710   5.413   6.644  0.0113  0.1010 -0.1633
  867MOL0     C19540   6.659   5.434   6.518 -0.0835 -0.4730 -0.2370
  867MOL0     C19541   6.715   5.526   6.436  0.0634 -0.3318 -0.0865
  867MOL0     C19542   6.654   5.552   6.310 -0.4624 -0.1208  0.0654
  867MOL0     C19543   6.543   5.491   6.259  0.3938  0.3036 -0.9348
  867MOL0     O19544   6.498   5.488   6.121 -0.6182  0.1134  0.3719
  867MOL0     C19545   6.524   5.597   6.044  0.6995 -0.6485  0.7474
  867MOL0     C19546   6.601   5.562   5.916  0.4275 -0.3757 -0.9794
  867MOL0     C19547   6.724   5.471   5.953  0.8158 -0.8078 -0.7327
  867MOL0     C19548   6.834   5.453   5.848  1.0524  0.8756 -0.0243
  867MOL0     C19549   6.951   5.348   5.879 -0.3443 -0.2292  0.7348
  867MOL0     C19550   7.032   5.400   5.999  0.5538 -0.2010 -0.0078
  867MOL0     C19551   7.110   5.291   6.067 -0.0553 -0.0412  0.6773
  867MOL0     C19552   7.108   5.278   6.218  0.6688 -0.7948 -0.2302
  867MOL0    Cl19553   7.093   5.431   6.305  0.2140  0.1697  0.2882
  867MOL0     C19554   6.486   5.401   6.349  0.0262 -0.0119 -0.6478
  867MOL0     C19555   6.537   5.376   6.480 -0.5703 -0.1323 -0.4279
  867MOL0     O19556   6.795   5.203   6.571 -0.5467  0.4132 -0.4253
  867MOL0     C19557   6.827   5.112   6.829 -0.2808  0.5148 -0.1857
  867MOL0     C19558   6.852   5.064   6.957  0.9885 -0.3686 -0.6851
  867MOL0     N19559   7.141   4.704   7.338  0.1844  0.4694 -0.4069
  867MOL0     N19560   7.260   4.706   7.375  0.5305 -0.9556  0.2437
  867MOL0     C19561   8.391   4.598   7.627  0.0570  0.0006  0.0089
  867MOL0     C19562   8.437   4.494   7.701  0.2309 -0.0560  0.2378
  867MOL0     C19563   8.476   4.066   7.803  0.6673  1.0824 -1.5219
  867MOL0     C19564   8.472   4.068   7.945  0.1056 -0.3927  1.1103
  867MOL0     C19565   8.489   3.952   8.019 -0.1775  0.2872  0.5759
  867MOL0     C19566   8.515   3.824   7.963 -0.4477 -0.0828  0.0638
  867MOL0     O19567   8.550   3.707   8.031  0.2400  0.6261 -0.2512
  867MOL0     C19568   8.545   3.705   8.166  1.0969 -0.4167 -0.5659
  867MOL0     C19569   8.680   3.642   8.225  0.3550 -0.2639 -0.4300
  867MOL0     C19570   8.795   3.736   8.194 -0.1700  0.5440  0.7774
  867MOL0     C19571   8.923   3.652   8.157  0.0006  0.5121 -0.3573
  867MOL0     C19572   8.970   3.576   8.274 -0.2300 -0.1462  0.0238
  867MOL0     C19573   9.004   3.527   8.377 -0.3016 -0.5680  0.4428
  867MOL0     C19574   8.503   3.816   7.825  0.0388 -0.4268 -1.2080
  867MOL0     C19575   8.492   3.935   7.747 -0.2046 -0.1643 -0.1474
  867MOL0     C19576   8.476   3.915   7.597  0.0701  0.4845 -0.3074
  867MOL0     H19577   8.145   4.368   7.807  2.1183 -1.3563  1.4706
  867MOL0     H19578   8.054   4.568   7.694  0.4660  3.3105 -1.1428
  867MOL0     H19579   8.126   4.589   7.427 -1.4529  0.0521  0.4692
  867MOL0     H19580   8.211   4.701   7.323 -2.1662 -3.2008 -1.9001
  867MOL0     H19581   8.062   4.888   7.391 -0.4008  0.7305  0.3864
  867MOL0     H19582   7.982   4.764   7.293 -0.6506  1.6769  0.5547
  867MOL0     H19583   7.884   4.654   7.508 -3.1862  0.7819 -0.1778
  867MOL0     H19584   7.956   4.768   7.601 -0.8122 -3.3686  0.1718
  867MOL0     H19585   7.830   4.947   7.481 -0.9673  0.4548  0.2265
  867MOL0     H19586   7.768   4.841   7.372 -2.4204  2.7291  1.0733
  867MOL0     H19587   7.741   4.832   7.662  2.2918 -1.3652 -1.3068
  867MOL0     H19588   7.664   4.701   7.557 -0.7856  0.0477  0.6796
  867MOL0     H19589   7.593   4.993   7.520  3.6885 -0.9093  1.5072
  867MOL0     H19590   7.538   4.838   7.427  3.5178 -0.8344 -0.2747
  867MOL0     H19591   7.369   4.948   7.617 -2.8750 -3.1809  2.6329
  867MOL0     H19592   7.483   4.865   7.721  0.1268  1.0928 -0.9467
  867MOL0     H19593   7.446   4.668   7.561 -0.7430  0.1987  0.5381
  867MOL0     H19594   7.341   4.698   7.693  2.2569 -2.4027  0.4203
  867MOL0     H19595   7.110   4.813   7.643 -1.7420 -0.6042  0.6220
  867MOL0     H19596   6.872   4.666   7.508 -2.8639 -0.3636 -3.7486
  867MOL0     H19597   6.876   4.707   7.340  1.9500 -0.0489 -1.2816
  867MOL0     H19598   6.738   4.857   7.457  0.6672 -0.4047 -0.4384
  867MOL0     H19599   6.860   4.886   7.584  3.4876 -0.7130  1.6816
  867MOL0     H19600   6.867   5.071   7.451  1.9422 -0.5518  2.1296
  867MOL0     H19601   7.005   4.985   7.414  1.4630 -3.0798 -1.4001
  867MOL0     H19602   6.955   4.922   7.185 -2.1479 -4.7096  0.4851
  867MOL0     H19603   6.785   4.907   7.220  0.8684 -2.3131  2.0294
  867MOL0     H19604   6.834   5.354   7.129  0.9713  1.5895 -1.9057
  867MOL0     H19605   6.784   5.541   6.823 -0.1702  0.4116  0.7557
  867MOL0     H19606   6.800   5.525   6.995  0.9422  2.1296 -0.8555
  867MOL0     H19607   6.646   5.484   6.921 -0.1010 -1.0575 -1.1858
  867MOL0     H19608   6.798   5.581   6.479 -1.7809  1.8262  0.9502
  867MOL0     H19609   6.705   5.620   6.242 -1.7338 -0.2064 -1.0317
  867MOL0     H19610   6.424   5.631   6.016  0.4525 -3.4713 -2.4038
  867MOL0     H19611   6.575   5.681   6.092 -0.6883  0.4042  0.4441
  867MOL0     H19612   6.533   5.517   5.844 -1.4531  1.5092 -0.4686
  867MOL0     H19613   6.637   5.653   5.867 -1.6875  0.7074 -0.6039
  867MOL0     H19614   6.692   5.373   5.991 -1.3710  0.7866  1.8851
  867MOL0     H19615   6.776   5.527   6.031 -2.8337  3.4945 -0.9727
  867MOL0     H19616   6.890   5.547   5.837  0.7997  1.2345  1.5191
  867MOL0     H19617   6.784   5.427   5.754 -0.7136 -0.9631  1.3405
  867MOL0     H19618   6.892   5.260   5.905  0.5889 -0.5777  1.7592
  867MOL0     H19619   7.015   5.335   5.792 -0.0095  0.5384  0.8565
  867MOL0     H19620   6.971   5.434   6.083  0.9714 -0.6323  0.4796
  867MOL0     H19621   7.101   5.482   5.976 -0.4192  0.3943 -0.8684
  867MOL0     H19622   7.213   5.304   6.032  0.2108 -1.1167  1.0217
  867MOL0     H19623   7.075   5.196   6.027 -0.9301  0.6677 -0.2994
  867MOL0     H19624   7.212   5.246   6.229  0.7820 -0.2052  0.5138
  867MOL0     H19625   7.032   5.204   6.243 -0.8189  0.6866 -0.2076
  867MOL0     H19626   6.389   5.358   6.325 -0.8840  2.8351 -2.6891
  867MOL0     H19627   6.487   5.299   6.538 -0.1664 -1.5465 -1.8745
  867MOL0     H19628   6.859   5.044   6.750  0.8395 -0.2918  0.9314
  867MOL0     H19629   6.875   4.958   6.969  0.1590 -0.4109  0.7395
  867MOL0     H19630   8.464   4.641   7.559  1.7590 -1.1761  0.9981
  867MOL0     H19631   8.544   4.476   7.704  0.3574  0.1430 -1.6481
  867MOL0     H19632   8.460   4.158   8.004  1.0742  0.3954  0.1266
  867MOL0     H19633   8.472   3.971   8.125 -0.2116 -5.2492  1.8908
  867MOL0     H19634   8.523   3.797   8.221  1.0244 -1.8985  1.9914
  867MOL0     H19635   8.457   3.648   8.195  0.2532  1.5395  0.9666
  867MOL0     H19636   8.686   3.539   8.190  2.0053 -0.3499  0.0319
  867MOL0     H19637   8.673   3.642   8.334  4.7537 -2.0938  0.0809
  867MOL0     H19638   8.766   3.798   8.108  0.8433 -3.0382 -2.4354
  867MOL0     H19639   8.838   3.793   8.277 -1.9827  1.9005  0.8437
  867MOL0     H19640   9.005   3.715   8.122  0.3583 -0.0403 -0.5297
  867MOL0     H19641   8.901   3.573   8.084 -0.1467 -0.3169  0.5640
  867MOL0     H19642   9.050   3.495   8.468 -1.1863  1.4401  1.6574
  867MOL0     H19643   8.533   3.722   7.781  1.1547  0.0430 -1.4872
  867MOL0     H19644   8.373   3.938   7.568 -0.5096  1.4972  2.3161
  867MOL0     H19645   8.536   3.987   7.540  1.7088  1.2749  2.2369
  867MOL0     H19646   8.515   3.815   7.575 -1.4339  0.0462 -1.1741
  868MOL0     O19647   2.597  11.253   9.420  0.1097  0.3459 -0.7991
  868MOL0     C19648   2.508  11.187   9.478 -0.1730 -0.1926 -0.3231
  868MOL0     O19649   2.382  11.225   9.522 -0.2468  0.4563 -1.0673
  868MOL0     C19650   2.348  11.364   9.523 -0.0322  0.4327 -0.3440
  868MOL0     C19651   2.219  11.389   9.495 -0.6045  0.1608 -0.1782
  868MOL0     C19652   2.172  11.520   9.482  0.0245 -0.0854  0.4713
  868MOL0     C19653   2.260  11.628   9.501 -0.5969 -0.0147 -0.5649
  868MOL0     O19654   2.208  11.756   9.490 -0.1891 -0.2899 -0.7085
  868MOL0     C19655   2.310  11.856   9.459  0.6263 -0.4767 -0.0354
  868MOL0     C19656   2.246  11.997   9.428  0.5121 -0.0134 -0.7529
  868MOL0     C19657   2.153  12.042   9.540 -0.8820  0.4292  0.7770
  868MOL0     C19658   2.023  12.104   9.475 -0.3507  1.0133  0.2331
  868MOL0     C19659   2.036  12.238   9.397 -0.2602 -0.2218  0.0476
  868MOL0     C19660   2.046  12.353   9.502 -0.5275 -0.1189  0.6641
  868MOL0     C19661   2.024  12.499   9.453  0.8560 -0.4878 -0.0406
  868MOL0     C19662   2.100  12.532   9.324  0.5772  0.3715 -0.1181
  868MOL0     N19663   2.098  12.676   9.302 -0.3466  0.6873  0.8928
  868MOL0     C19664   2.202  12.744   9.353  1.6285 -0.4383 -0.8171
  868MOL0     C19665   2.205  12.866   9.295 -0.3891 -0.8091  0.9456
  868MOL0     C19666   2.296  12.981   9.290  0.0535 -0.4750 -0.1750
  868MOL0     C19667   2.350  12.999   9.150 -0.3250 -0.3534 -0.3408
  868MOL0     C19668   2.430  12.882   9.092 -0.5000 -0.9978  0.4834
  868MOL0     C19669   2.335  12.787   9.004  0.0387 -0.6620  0.3708
  868MOL0     O19670   2.414  12.696   8.930  0.2999  0.2686 -0.0070
  868MOL0     C19671   2.431  12.566   8.972  0.8706  1.0606  0.0730
  868MOL0     C19672   2.479  12.474   8.888  0.0999 -0.2207  1.0504
  868MOL0     C19673   2.509  12.339   8.915 -0.3509 -0.6159 -0.6896
  868MOL0     C19674   2.557  12.251   8.808  0.2591  0.1298  0.2518
  868MOL0     C19675   2.489  12.297   9.052 -0.2857 -0.0117 -0.4657
  868MOL0     C19676   2.528  12.161   9.110  0.2129  0.1282 -0.1808
  868MOL0     O19677   2.546  12.157   9.240  0.0306  0.4613 -0.9351
  868MOL0     C19678   2.617  12.047   9.293  0.3724 -0.4715  0.1002
  868MOL0     C19679   2.690  12.089   9.402 -0.9362 -0.0726 -0.0096
  868MOL0     C19680   2.756  11.992   9.482  0.9195  0.0815  0.8200
  868MOL0     C19681   2.744  11.855   9.455 -0.1289 -0.0369  0.1349
  868MOL0     O19682   2.812  11.773   9.540  0.7200 -0.5866 -0.2478
  868MOL0     C19683   2.877  11.663   9.486 -0.5961 -0.2551  0.4439
  868MOL0     C19684   2.929  11.565   9.590  1.2952  0.1113  0.6531
  868MOL0     C19685   3.032  11.612   9.688  0.4679  0.1440 -0.1068
  868MOL0     C19686   3.076  11.508   9.785 -0.2957  0.9427 -0.2530
  868MOL0     C19687   3.126  11.553   9.925 -0.4942  0.5473 -0.0870
  868MOL0     C19688   3.253  11.639   9.901 -0.7304  0.3386 -0.3167
  868MOL0     C19689   3.304  11.675  10.037 -0.1555 -0.3576 -0.4236
  868MOL0     C19690   3.422  11.769  10.040  1.2900  0.2295 -0.3998
  868MOL0    Cl19691   3.376  11.911   9.937 -0.3087 -0.2361  0.0716
  868MOL0     C19692   2.669  11.812   9.344  0.2729 -0.4643  0.4542
  868MOL0     C19693   2.595  11.905   9.272  0.0894 -0.2669 -0.2341
  868MOL0     O19694   2.557  12.066   9.026 -0.5099 -0.2434  0.1901
  868MOL0     C19695   2.431  12.384   9.144 -0.8579  0.1155 -0.7063
  868MOL0     C19696   2.404  12.518   9.104 -0.0593 -0.2923 -0.0041
  868MOL0     N19697   2.096  12.854   9.208 -0.1850  0.8596  0.5254
  868MOL0     N19698   2.025  12.746   9.208 -0.5476 -0.0321 -0.6524
  868MOL0     C19699   2.394  11.597   9.537 -0.0733 -0.6772  0.7443
  868MOL0     C19700   2.435  11.467   9.549 -0.1379  0.2249  0.2011
  868MOL0     C19701   2.544  11.037   9.483 -0.5055 -0.2855  0.4557
  868MOL0     C19702   2.576  10.976   9.616  0.3552 -1.2036  0.2166
  868MOL0     C19703   2.605  10.838   9.641 -1.1956 -0.5588 -0.1327
  868MOL0     C19704   2.604  10.755   9.535  0.2379  0.4399 -0.3986
  868MOL0     O19705   2.617  10.618   9.548 -0.4348  0.0462  0.2887
  868MOL0     C19706   2.571  10.565   9.674 -0.0679 -0.1096  0.3915
  868MOL0     C19707   2.553  10.408   9.673  1.1340 -0.2413 -0.1072
  868MOL0     C19708   2.484  10.354   9.800  0.0380 -0.3233  0.0855
  868MOL0     C19709   2.576  10.339   9.918 -0.9644 -0.5842 -0.2362
  868MOL0     C19710   2.504  10.298  10.030  0.6410 -0.9473 -0.2808
  868MOL0     C19711   2.435  10.273  10.121 -0.1771  0.1990 -0.2515
  868MOL0     C19712   2.589  10.808   9.407 -0.4713  0.1609 -0.0693
  868MOL0     C19713   2.555  10.943   9.379 -0.1942  1.2357  0.0982
  868MOL0     C19714   2.541  10.983   9.235 -0.6030  0.1815  0.4803
  868MOL0     H19715   2.161  11.307   9.454  1.7431 -1.2121 -0.8995
  868MOL0     H19716   2.072  11.552   9.457  0.2707  3.1747  3.0098
  868MOL0     H19717   2.366  11.825   9.370 -0.2796 -0.0458 -0.7783
  868MOL0     H19718   2.385  11.857   9.539  0.5283 -1.1351  0.0761
  868MOL0     H19719   2.329  12.068   9.418  1.8613 -1.5950 -1.1533
  868MOL0     H19720   2.200  11.989   9.330  0.2509  0.4177 -0.6701
  868MOL0     H19721   2.142  11.971   9.623  0.9334  0.7510  1.3297
  868MOL0     H19722   2.206  12.127   9.585  1.9595 -0.8216  0.0099
  868MOL0     H19723   1.994  12.021   9.410  1.8427  0.4126 -0.0626
  868MOL0     H19724   1.943  12.123   9.547  0.5070  1.6503  1.0488
  868MOL0     H19725   1.948  12.251   9.334 -0.4318  3.7804  0.8421
  868MOL0     H19726   2.125  12.239   9.333 -1.2933  0.0630 -1.4122
  868MOL0     H19727   1.976  12.336   9.585  0.9840 -0.5597  1.9101
  868MOL0     H19728   2.147  12.358   9.545 -0.4937  3.7061  0.4864
  868MOL0     H19729   2.053  12.557   9.541  1.5769 -0.2139 -0.4470
  868MOL0     H19730   1.917  12.520   9.443  1.1801  1.5215  0.3600
  868MOL0     H19731   2.203  12.496   9.316 -0.8730 -4.2316 -0.9688
  868MOL0     H19732   2.035  12.486   9.249 -0.3388 -0.5619  1.2074
  868MOL0     H19733   2.277  12.709   9.423  0.5556  0.4520  0.8304
  868MOL0     H19734   2.375  12.980   9.366 -3.3855  0.0173  3.8253
  868MOL0     H19735   2.233  13.069   9.306  3.1481  2.7311 -3.6864
  868MOL0     H19736   2.269  13.040   9.088  1.7679  2.0850 -1.6771
  868MOL0     H19737   2.429  13.074   9.159 -1.4647  1.7169 -4.5222
  868MOL0     H19738   2.503  12.915   9.018 -2.8104  0.9860 -1.0693
  868MOL0     H19739   2.472  12.825   9.176 -3.3667 -1.4155  1.7525
  868MOL0     H19740   2.263  12.740   9.071 -0.5972 -1.5704 -0.9088
  868MOL0     H19741   2.281  12.850   8.933  1.4491 -1.4536 -1.4849
  868MOL0     H19742   2.501  12.509   8.788 -3.5298 -0.3637  0.0662
  868MOL0     H19743   2.640  12.191   8.846 -0.2075  1.1403  3.1036
  868MOL0     H19744   2.595  12.319   8.731 -1.7851  2.2901  1.0093
  868MOL0     H19745   2.473  12.188   8.776  0.7197 -0.2940 -0.1452
  868MOL0     H19746   2.702  12.196   9.417 -2.0851  0.4553 -2.3167
  868MOL0     H19747   2.817  12.021   9.567 -1.6872 -0.2515  2.9195
  868MOL0     H19748   2.825  11.596   9.417 -2.1810 -0.5552  1.8885
  868MOL0     H19749   2.960  11.708   9.430 -0.5422  0.9922  1.4775
  868MOL0     H19750   2.843  11.534   9.649  0.4981  0.8294 -0.0832
  868MOL0     H19751   2.957  11.471   9.543 -0.8356 -0.3352  0.1400
  868MOL0     H19752   3.011  11.697   9.754  2.9226  1.6852 -1.1415
  868MOL0     H19753   3.117  11.647   9.629 -0.0046  2.5997  0.5295
  868MOL0     H19754   3.143  11.437   9.736 -0.1449 -0.1330  1.4380
  868MOL0     H19755   2.984  11.455   9.808 -0.2032  1.1159  0.5577
  868MOL0     H19756   3.067  11.620   9.988  0.4740  2.5033 -1.1603
  868MOL0     H19757   3.160  11.469   9.987  1.3400  2.2517  1.3319
  868MOL0     H19758   3.235  11.731   9.844 -1.4585  1.6640  1.9312
  868MOL0     H19759   3.325  11.580   9.844  0.9479  1.8258  0.1590
  868MOL0     H19760   3.322  11.595  10.110  1.2619  0.9755  0.7734
  868MOL0     H19761   3.222  11.736  10.076 -0.3021  0.9262 -2.5908
  868MOL0     H19762   3.519  11.730  10.007  1.7147 -1.9675  2.9516
  868MOL0     H19763   3.452  11.800  10.141 -2.2415 -0.3223  0.9457
  868MOL0     H19764   2.673  11.708   9.315  0.1493 -1.3021  3.1929
  868MOL0     H19765   2.526  11.877   9.194 -1.8107 -0.1598  1.3140
  868MOL0     H19766   2.424  12.363   9.250  1.5085 -2.1918 -0.9011
  868MOL0     H19767   2.361  12.587   9.176  1.9232 -0.8588  1.8253
  868MOL0     H19768   2.468  11.675   9.552 -0.8359  0.2136  0.0167
  868MOL0     H19769   2.539  11.447   9.574  0.3475  1.1627 -0.9427
  868MOL0     H19770   2.576  11.047   9.699 -1.9140  0.6250 -1.2084
  868MOL0     H19771   2.637  10.809   9.741 -1.5564 -1.1152 -0.1732
  868MOL0     H19772   2.635  10.598   9.757  0.4105  2.5147 -0.9141
  868MOL0     H19773   2.474  10.609   9.696  0.8025  1.5448  1.0802
  868MOL0     H19774   2.649  10.358   9.658  0.8862 -0.5959 -0.5334
  868MOL0     H19775   2.490  10.381   9.588 -0.0475  0.8652  0.3776
  868MOL0     H19776   2.411  10.427   9.836  1.3014 -0.9217  4.3788
  868MOL0     H19777   2.445  10.255   9.777  1.0850 -0.7368  0.0342
  868MOL0     H19778   2.627  10.434   9.937 -1.0701 -0.6013  0.1404
  868MOL0     H19779   2.660  10.271   9.901  1.9542  2.9305 -1.3003
  868MOL0     H19780   2.366  10.255  10.201  1.1233  2.8968  1.6222
  868MOL0     H19781   2.598  10.745   9.319  0.2161 -0.5413  0.4954
  868MOL0     H19782   2.630  11.035   9.197 -0.2065 -1.8281 -1.5553
  868MOL0     H19783   2.518  10.898   9.170 -0.7542  1.0209 -0.6044
  868MOL0     H19784   2.466  11.062   9.224  2.1877  2.9238 -0.2623
  869MOL0     O19785   1.104   8.168   8.308 -1.0769  0.4729  0.6525
  869MOL0     C19786   1.190   8.256   8.311  0.6862 -0.3898  0.2493
  869MOL0     O19787   1.171   8.395   8.321 -0.3520 -0.3427  0.0882
  869MOL0     C19788   1.051   8.441   8.359  0.6386 -0.2942  0.4973
  869MOL0     C19789   1.027   8.471   8.495  0.6082 -1.2502 -0.3971
  869MOL0     C19790   0.896   8.500   8.538  0.5834 -0.3882 -0.0056
  869MOL0     C19791   0.803   8.537   8.449 -1.0086  0.1964  0.2251
  869MOL0     O19792   0.689   8.563   8.517 -0.1046 -1.2580 -0.2049
  869MOL0     C19793   0.616   8.665   8.444  0.9146 -0.7937  0.7297
  869MOL0     C19794   0.517   8.741   8.532  0.4234  0.6873 -0.5855
  869MOL0     C19795   0.374   8.683   8.552 -1.2953 -0.2552  0.5795
  869MOL0     C19796   0.316   8.704   8.690 -0.3186 -1.2202 -0.3690
  869MOL0     C19797   0.164   8.686   8.688  0.4357  0.4486 -0.2610
  869MOL0     C19798   0.097   8.696   8.826 -0.1312 -1.0595  0.2488
  869MOL0     C19799   0.118   8.828   8.887 -0.2109 -0.7642  0.2553
  869MOL0     C19800   0.061   8.829   9.034 -0.2390 -0.1083 -0.3627
  869MOL0     N19801   0.020   8.961   9.083 -0.2697  1.1729 -0.2594
  869MOL0     C19802  -0.065   9.052   9.019 -0.0193 -0.1143  0.1260
  869MOL0     C19803  -0.050   9.171   9.093  0.4039 -0.3624  0.5658
  869MOL0     C19804  -0.156   9.280   9.077  0.6111 -0.0291 -0.6883
  869MOL0     C19805  -0.132   9.402   9.165 -0.5867 -0.4036  0.1614
  869MOL0     C19806   0.001   9.468   9.153 -0.5515 -0.8609 -0.1524
  869MOL0     C19807  -0.003   9.613   9.180  0.5360  0.4565  0.2778
  869MOL0     O19808  -0.062   9.691   9.077 -0.1827 -0.0787  0.0438
  869MOL0     C19809  -0.114   9.807   9.103  0.9704 -0.1602  0.2099
  869MOL0     C19810  -0.210   9.827   9.203  0.4568 -0.1990  1.1792
  869MOL0     C19811  -0.267   9.945   9.241  0.1128 -0.1368  0.0783
  869MOL0     C19812  -0.393   9.936   9.327 -0.2225  0.0074  0.7293
  869MOL0     C19813  -0.216  10.066   9.179 -0.2341  0.3138 -0.2428
  869MOL0     C19814  -0.261  10.196   9.219  0.3467 -0.6553  0.7825
  869MOL0     O19815  -0.265  10.226   9.350 -0.8545 -0.4965  0.0558
  869MOL0     C19816  -0.325  10.338   9.386 -0.4017 -0.1039  0.1822
  869MOL0     C19817  -0.440  10.322   9.467 -0.2370 -0.0338  0.0638
  869MOL0     C19818  -0.512  10.440   9.509  0.7442 -0.5206  1.1132
  869MOL0     C19819  -0.478  10.567   9.470 -0.7608  0.1737 -0.0607
  869MOL0     O19820  -0.550  10.683   9.500 -0.2864 -0.3303 -0.1473
  869MOL0     C19821  -0.685  10.664   9.501  0.0644 -1.0680 -0.2465
  869MOL0     C19822  -0.744  10.656   9.642  0.4003  0.2482 -0.3621
  869MOL0     C19823  -0.717  10.782   9.723  0.0518  0.2792  0.0309
  869MOL0     C19824  -0.767  10.902   9.650 -0.1124  0.4103  0.5257
  869MOL0     C19825  -0.759  11.029   9.739  0.8817 -0.1627  0.2267
  869MOL0     C19826  -0.882  11.124   9.707  0.2926  0.7116 -0.1466
  869MOL0     C19827  -0.873  11.205   9.575  0.7115  0.5291 -0.1527
  869MOL0     C19828  -0.774  11.329   9.573 -0.5548  0.9537 -0.0732
  869MOL0    Cl19829  -0.836  11.449   9.694  0.2506  0.1750 -0.0926
  869MOL0     C19830  -0.361  10.576   9.393 -0.1700  0.6013  0.2409
  869MOL0     C19831  -0.293  10.466   9.347 -0.1020 -0.2009 -0.2563
  869MOL0     O19832  -0.284  10.272   9.129  0.3805  0.0892  0.6222
  869MOL0     C19833  -0.113  10.047   9.073 -0.4137 -0.6456 -0.6745
  869MOL0     C19834  -0.066   9.917   9.043  0.6618 -0.0292  0.8038
  869MOL0     N19835   0.033   9.156   9.195 -0.2100  1.5119  0.3855
  869MOL0     N19836   0.083   9.031   9.185 -0.2135 -1.0399 -0.3885
  869MOL0     C19837   0.826   8.517   8.311 -0.3409  0.8482  0.1289
  869MOL0     C19838   0.950   8.464   8.262 -0.4215 -0.4901 -0.0876
  869MOL0     C19839   1.323   8.210   8.270 -0.1048 -0.5114 -0.0854
  869MOL0     C19840   1.330   8.068   8.257 -0.2066  0.5423  0.2275
  869MOL0     C19841   1.458   8.010   8.226  0.4961  0.4781  0.2933
  869MOL0     C19842   1.576   8.081   8.225 -0.3809 -1.0215  0.9903
  869MOL0     O19843   1.700   8.014   8.209  0.1898 -0.3532  0.0718
  869MOL0     C19844   1.785   8.027   8.332  0.4483  0.5354 -0.5227
  869MOL0     C19845   1.935   8.044   8.309 -0.6471  0.1854  0.2527
  869MOL0     C19846   1.979   8.175   8.248 -0.0556 -0.3838  0.2877
  869MOL0     C19847   1.955   8.298   8.344 -0.4183  0.0576  0.1023
  869MOL0     C19848   2.045   8.401   8.300 -0.0400  0.0542 -0.5125
  869MOL0     C19849   2.136   8.484   8.263  1.1031 -0.1773  1.1536
  869MOL0     C19850   1.565   8.219   8.224  0.3798 -0.0957 -0.4006
  869MOL0     C19851   1.441   8.284   8.255 -0.7278 -0.2171  0.4332
  869MOL0     C19852   1.436   8.431   8.268 -0.7709  1.3308 -0.3763
  869MOL0     H19853   1.106   8.468   8.569 -0.1982  0.2226  0.5741
  869MOL0     H19854   0.878   8.506   8.645  2.2493  1.9926  0.2193
  869MOL0     H19855   0.563   8.618   8.360  0.9337 -1.3830  1.0388
  869MOL0     H19856   0.687   8.732   8.395 -0.7576 -0.4654 -1.3885
  869MOL0     H19857   0.566   8.749   8.630 -1.9419 -0.9608  0.8541
  869MOL0     H19858   0.501   8.841   8.491 -0.3309 -0.4851 -3.4132
  869MOL0     H19859   0.303   8.721   8.477 -1.1225  0.0257  0.5573
  869MOL0     H19860   0.377   8.574   8.545  0.5249 -0.1606 -0.9947
  869MOL0     H19861   0.370   8.623   8.740  0.4306  0.4359  1.6383
  869MOL0     H19862   0.352   8.797   8.734  0.3482  0.1579 -3.5204
  869MOL0     H19863   0.145   8.589   8.640 -1.3225  1.3053 -1.3960
  869MOL0     H19864   0.119   8.760   8.622 -1.0244  0.4407  0.7072
  869MOL0     H19865  -0.007   8.664   8.827 -0.4935  0.0738 -0.3138
  869MOL0     H19866   0.154   8.623   8.884 -1.1547 -1.2234  1.0683
  869MOL0     H19867   0.056   8.904   8.838 -2.6328  0.6895  4.9273
  869MOL0     H19868   0.222   8.862   8.890 -0.5318  0.1650  2.6239
  869MOL0     H19869  -0.036   8.781   9.041 -1.0059  1.6028  2.2969
  869MOL0     H19870   0.125   8.782   9.109 -0.8336  0.4266  0.5136
  869MOL0     H19871  -0.143   9.051   8.943  0.5098 -4.0473 -0.5401
  869MOL0     H19872  -0.251   9.245   9.119  0.4612  0.4682 -0.6069
  869MOL0     H19873  -0.167   9.314   8.974  0.9856  1.5931 -0.2124
  869MOL0     H19874  -0.207   9.475   9.132 -0.1117 -0.2601 -0.6300
  869MOL0     H19875  -0.144   9.367   9.268  0.5447  1.3875  0.9605
  869MOL0     H19876   0.074   9.422   9.220  0.5094  0.4352 -0.3721
  869MOL0     H19877   0.032   9.443   9.051 -0.3565  1.4262 -0.7029
  869MOL0     H19878  -0.051   9.626   9.278  2.2191  2.1889  0.9274
  869MOL0     H19879   0.095   9.656   9.202 -0.6325  3.0105  0.8445
  869MOL0     H19880  -0.246   9.731   9.239  2.4310 -2.1108 -1.4599
  869MOL0     H19881  -0.442   9.840   9.310 -0.0155  0.3892 -2.6178
  869MOL0     H19882  -0.459  10.015   9.292  1.6400  2.0861  1.6278
  869MOL0     H19883  -0.367   9.953   9.432  0.2672  0.2098  0.5797
  869MOL0     H19884  -0.469  10.227   9.510 -1.6627  0.3082 -0.0908
  869MOL0     H19885  -0.597  10.422   9.574 -0.3597  2.8883  0.8049
  869MOL0     H19886  -0.725  10.755   9.453  3.3589  1.3282  1.1899
  869MOL0     H19887  -0.717  10.582   9.437 -1.9067 -0.9804  0.5430
  869MOL0     H19888  -0.850  10.631   9.640  0.5172 -0.6252  1.5884
  869MOL0     H19889  -0.697  10.572   9.694  2.7680  0.8619 -1.3887
  869MOL0     H19890  -0.615  10.782   9.763  0.0490  1.8535  0.0975
  869MOL0     H19891  -0.782  10.770   9.810 -3.1796  2.4227 -1.8791
  869MOL0     H19892  -0.863  10.894   9.597  0.5057  1.0496 -0.7366
  869MOL0     H19893  -0.694  10.925   9.572  0.9757  1.5505  1.8238
  869MOL0     H19894  -0.761  11.000   9.844 -1.4385 -1.7295 -0.1501
  869MOL0     H19895  -0.664  11.081   9.725 -0.3565  2.7938  1.9660
  869MOL0     H19896  -0.886  11.199   9.787 -1.6233 -0.2877  0.7600
  869MOL0     H19897  -0.974  11.066   9.716  0.8950 -0.2126  0.2424
  869MOL0     H19898  -0.967  11.249   9.542  0.7752  0.4151 -0.4949
  869MOL0     H19899  -0.835  11.136   9.500 -1.2563 -1.6652  0.7649
  869MOL0     H19900  -0.762  11.377   9.475  2.0894  0.9247  0.1760
  869MOL0     H19901  -0.677  11.288   9.602 -0.3543  1.3337 -0.2007
  869MOL0     H19902  -0.347  10.674   9.347  2.2634  0.3333  0.2786
  869MOL0     H19903  -0.208  10.483   9.281  0.0146 -0.4257 -0.1655
  869MOL0     H19904  -0.069  10.141   9.044 -4.8740  1.4671 -1.4888
  869MOL0     H19905   0.020   9.915   8.977 -0.7938  0.5719 -1.2158
  869MOL0     H19906   0.749   8.524   8.236 -2.2406 -3.3800  1.3982
  869MOL0     H19907   0.967   8.440   8.157 -2.1836 -2.7575  0.0718
  869MOL0     H19908   1.241   8.007   8.268 -0.3224  0.5111 -0.7637
  869MOL0     H19909   1.469   7.902   8.216  1.3088  0.6552 -1.0162
  869MOL0     H19910   1.757   8.109   8.397  0.0494 -1.9054  2.6267
  869MOL0     H19911   1.768   7.936   8.391 -2.3692  1.6197  0.5185
  869MOL0     H19912   1.965   7.965   8.239  2.4314  2.6947 -1.5617
  869MOL0     H19913   1.984   8.043   8.407  0.2393 -1.1899 -0.1730
  869MOL0     H19914   2.082   8.158   8.214 -1.2212 -1.5117 -3.0315
  869MOL0     H19915   1.921   8.181   8.156  0.2411 -1.4387  0.0157
  869MOL0     H19916   1.966   8.274   8.450 -2.5904  1.4968  0.7111
  869MOL0     H19917   1.857   8.341   8.323 -0.8584  0.1618  2.1483
  869MOL0     H19918   2.183   8.567   8.215 -4.5393  3.5545  1.0380
  869MOL0     H19919   1.655   8.279   8.213 -0.8895  1.8385 -0.8884
  869MOL0     H19920   1.539   8.469   8.266 -1.4573  3.2868 -1.0596
  869MOL0     H19921   1.377   8.485   8.193 -1.1273 -1.1445 -1.9797
  869MOL0     H19922   1.400   8.452   8.369 -1.8898 -0.7077 -0.2988
  870MOL0     O19923   6.649   8.351  11.127  0.8066  0.5500  0.6189
  870MOL0     C19924   6.611   8.360  11.243  0.8669 -0.9305 -0.5183
  870MOL0     O19925   6.689   8.331  11.350  0.5405  0.3555  0.2041
  870MOL0     C19926   6.821   8.307  11.343  0.1002 -0.0396  1.0822
  870MOL0     C19927   6.906   8.411  11.300 -0.6608  0.7269  0.8072
  870MOL0     C19928   7.044   8.375  11.280  0.3343  0.3026  0.6229
  870MOL0     C19929   7.098   8.246  11.317 -0.2271 -0.7270  0.6355
  870MOL0     O19930   7.228   8.217  11.291  0.1614  0.4905  1.0241
  870MOL0     C19931   7.297   8.103  11.352 -1.0037 -0.2221 -1.3924
  870MOL0     C19932   7.438   8.125  11.397 -0.1468 -0.4737 -0.3849
  870MOL0     C19933   7.521   7.995  11.399 -0.4234  0.5255  0.5585
  870MOL0     C19934   7.649   7.982  11.494  0.0969  0.3357 -0.0728
  870MOL0     C19935   7.714   7.838  11.489 -0.1574 -0.4473 -0.2682
  870MOL0     C19936   7.745   7.773  11.626  0.4943  0.5188 -0.2887
  870MOL0     C19937   7.800   7.626  11.618 -0.4639 -0.7278  0.3856
  870MOL0     C19938   7.821   7.565  11.761 -0.2823 -0.4134 -0.1369
  870MOL0     N19939   7.870   7.426  11.757 -0.4979  0.6907  0.4197
  870MOL0     C19940   7.949   7.361  11.663 -0.6966  0.1851 -0.6784
  870MOL0     C19941   7.939   7.225  11.697 -0.3094 -0.2701  0.7380
  870MOL0     C19942   7.995   7.115  11.615 -0.6405  0.6910 -0.1967
  870MOL0     C19943   7.911   7.083  11.499  0.6272  0.5627  0.6124
  870MOL0     C19944   7.939   7.172  11.386 -0.0206 -0.7866  0.3117
  870MOL0     C19945   7.851   7.138  11.260 -0.1707 -0.9377  0.0473
  870MOL0     O19946   7.837   6.992  11.230 -0.4235 -0.1567 -0.5078
  870MOL0     C19947   7.702   6.957  11.230 -1.0436 -0.8913 -0.3312
  870MOL0     C19948   7.658   6.867  11.324 -0.5332 -1.0428  0.3930
  870MOL0     C19949   7.525   6.814  11.320 -0.5485 -0.0712 -0.4533
  870MOL0     C19950   7.513   6.687  11.407 -1.1798 -0.4035  0.4942
  870MOL0     C19951   7.436   6.852  11.217  0.4474  0.6362  0.2228
  870MOL0     C19952   7.301   6.789  11.201  0.2773 -0.6384  0.3792
  870MOL0     O19953   7.241   6.793  11.080  1.0843 -0.7815 -0.0506
  870MOL0     C19954   7.115   6.746  11.065 -0.0822  0.8837  0.5292
  870MOL0     C19955   7.020   6.823  10.995  0.1340  0.2392  0.0131
  870MOL0     C19956   6.892   6.777  10.972  0.1949 -0.4263  0.5860
  870MOL0     C19957   6.846   6.654  11.028 -0.5329  0.3324 -0.0063
  870MOL0     O19958   6.720   6.613  10.990  0.6378  0.2622  0.4280
  870MOL0     C19959   6.616   6.596  11.089  0.1776  0.1224 -0.5718
  870MOL0     C19960   6.475   6.628  11.045 -0.1642 -0.3054  0.8197
  870MOL0     C19961   6.467   6.785  11.027  0.5942  0.2971 -0.1676
  870MOL0     C19962   6.331   6.837  11.017  0.7877 -0.4515  1.3137
  870MOL0     C19963   6.276   6.867  11.155 -0.5018 -0.0223  0.6845
  870MOL0     C19964   6.153   6.950  11.138  0.3144  0.0133 -0.2668
  870MOL0     C19965   6.086   6.977  11.276  0.6770  0.1562  0.0511
  870MOL0     C19966   6.141   7.113  11.324  0.5746 -0.3848 -0.0555
  870MOL0    Cl19967   6.055   7.154  11.483  0.5302  0.2341 -0.1921
  870MOL0     C19968   6.940   6.583  11.094  0.2827  0.7401 -0.5428
  870MOL0     C19969   7.072   6.618  11.105  0.3055 -0.2512 -1.3044
  870MOL0     O19970   7.241   6.770  11.306  0.8647  0.6923 -0.7713
  870MOL0     C19971   7.496   6.933  11.113  0.9008  0.5508 -0.4849
  870MOL0     C19972   7.622   6.993  11.127  0.5820  0.4700  0.3978
  870MOL0     N19973   7.852   7.215  11.818  0.1963  0.3348  0.3644
  870MOL0     N19974   7.819   7.338  11.844 -0.2315  0.3456  0.3030
  870MOL0     C19975   7.006   8.147  11.362 -0.6964  0.0507 -0.0314
  870MOL0     C19976   6.877   8.190  11.384 -0.3935 -0.0487  0.3396
  870MOL0     C19977   6.466   8.392  11.262 -0.2534  0.8216 -0.1848
  870MOL0     C19978   6.429   8.484  11.367  0.7767 -0.9884  0.4074
  870MOL0     C19979   6.297   8.528  11.369  0.3432  0.5390 -0.0382
  870MOL0     C19980   6.200   8.471  11.285 -0.8609  0.4186  0.9388
  870MOL0     O19981   6.071   8.506  11.283  0.0002 -0.2881 -0.0838
  870MOL0     C19982   5.982   8.409  11.330  0.3881  0.0249  0.3747
  870MOL0     C19983   5.933   8.441  11.467 -0.2669 -0.7191  0.0289
  870MOL0     C19984   5.780   8.466  11.481 -0.1644  0.5040  0.4697
  870MOL0     C19985   5.710   8.326  11.507 -0.7535  0.6168 -0.0727
  870MOL0     C19986   5.673   8.263  11.379  0.1502  0.6452 -0.0545
  870MOL0     C19987   5.661   8.218  11.267 -0.1870 -1.0827  0.0842
  870MOL0     C19988   6.239   8.377  11.198 -0.5665  0.1582  0.7144
  870MOL0     C19989   6.366   8.337  11.178  0.4324 -0.6286 -0.4961
  870MOL0     C19990   6.388   8.228  11.081  0.6806 -1.2099  0.2264
  870MOL0     H19991   6.878   8.514  11.281 -1.0242  0.6438  0.8800
  870MOL0     H19992   7.106   8.455  11.240  0.3774 -1.7561 -4.0688
  870MOL0     H19993   7.279   8.018  11.285  0.5520  0.1422 -2.3066
  870MOL0     H19994   7.250   8.088  11.450  0.1616 -0.0171 -0.7862
  870MOL0     H19995   7.479   8.199  11.327 -1.4357  1.7795  1.1062
  870MOL0     H19996   7.439   8.159  11.501  1.9097 -0.9551 -0.2056
  870MOL0     H19997   7.457   7.916  11.440  2.1266 -1.6088  0.7034
  870MOL0     H19998   7.546   7.959  11.299  0.6462 -0.4229  1.1490
  870MOL0     H19999   7.725   8.053  11.458 -0.9099  0.7542 -1.4479
  870MOL0     H20000   7.625   8.008  11.597 -3.9738 -4.0904  0.4125
  870MOL0     H20001   7.802   7.843  11.424  1.1943  1.0049  1.5734
  870MOL0     H20002   7.641   7.768  11.445 -0.8396 -3.9054  5.3931
  870MOL0     H20003   7.817   7.837  11.678  0.8967 -0.1065 -0.0567
  870MOL0     H20004   7.654   7.764  11.686  1.5579 -3.4637  1.0622
  870MOL0     H20005   7.899   7.631  11.571  0.1853 -0.1003  1.7592
  870MOL0     H20006   7.722   7.575  11.560 -1.5608  1.1728  0.1246
  870MOL0     H20007   7.892   7.629  11.814  0.0521  0.2330 -1.3309
  870MOL0     H20008   7.731   7.570  11.822 -0.9062 -3.0147 -0.7113
  870MOL0     H20009   7.995   7.402  11.574 -0.9366  2.1322  0.0521
  870MOL0     H20010   7.998   7.024  11.676  1.1438  0.4765 -0.5690
  870MOL0     H20011   8.097   7.121  11.578 -0.3387 -3.9720 -0.6856
  870MOL0     H20012   7.930   6.981  11.466 -0.0219  0.7317 -0.3104
  870MOL0     H20013   7.804   7.082  11.521  0.6414  0.9556  0.7119
  870MOL0     H20014   7.924   7.278  11.407  2.7339 -0.2072 -0.3410
  870MOL0     H20015   8.045   7.167  11.359  0.1615  1.0563  0.5936
  870MOL0     H20016   7.749   7.173  11.280  0.2990  0.6151 -0.0789
  870MOL0     H20017   7.881   7.202  11.176  0.1066 -0.0200  0.8188
  870MOL0     H20018   7.726   6.823  11.395 -2.0818  1.0744  3.4610
  870MOL0     H20019   7.563   6.685  11.505  0.4302 -0.0109 -0.2785
  870MOL0     H20020   7.559   6.605  11.351 -0.7707  0.5028 -0.5442
  870MOL0     H20021   7.407   6.661  11.410 -0.5658 -3.4287 -0.3764
  870MOL0     H20022   7.058   6.916  10.955 -1.5522  0.6484 -0.7148
  870MOL0     H20023   6.817   6.836  10.920  1.9292  1.3620  0.0195
  870MOL0     H20024   6.619   6.490  11.115 -0.8536  0.1654 -0.2413
  870MOL0     H20025   6.650   6.648  11.179  1.7821 -2.3286  0.3373
  870MOL0     H20026   6.444   6.581  10.952 -5.2298  1.8864  1.1030
  870MOL0     H20027   6.395   6.601  11.114 -0.7242  3.4458  1.9100
  870MOL0     H20028   6.522   6.818  10.938 -0.6371  3.6457  0.1683
  870MOL0     H20029   6.512   6.829  11.116 -2.4863  2.2600  0.5883
  870MOL0     H20030   6.266   6.767  10.964  3.3738 -3.8392  2.2785
  870MOL0     H20031   6.329   6.930  10.960  1.0661 -2.0740 -1.4808
  870MOL0     H20032   6.247   6.769  11.194 -2.0422 -0.3558 -1.1372
  870MOL0     H20033   6.344   6.914  11.226 -0.3493 -2.0123  1.9476
  870MOL0     H20034   6.083   6.885  11.084  0.6925 -2.6752  2.1905
  870MOL0     H20035   6.175   7.045  11.088  0.0575  1.0786  1.5738
  870MOL0     H20036   6.104   6.901  11.352  1.8726  0.0751 -0.2944
  870MOL0     H20037   5.978   6.982  11.259  0.8051  0.2555 -0.7850
  870MOL0     H20038   6.110   7.181  11.243  2.7219  2.5236  1.3775
  870MOL0     H20039   6.248   7.132  11.331  0.2972  1.2542  0.3136
  870MOL0     H20040   6.923   6.478  11.119 -1.4305  1.7145  3.0542
  870MOL0     H20041   7.137   6.550  11.160  0.9622 -0.6964 -2.5835
  870MOL0     H20042   7.432   6.967  11.033 -1.0581  1.5594  1.4203
  870MOL0     H20043   7.655   7.058  11.046  0.5105  0.8854  0.7010
  870MOL0     H20044   7.048   8.050  11.384  2.5321  0.8756 -1.8858
  870MOL0     H20045   6.805   8.118  11.423  0.7382 -1.6661 -0.4119
  870MOL0     H20046   6.509   8.520  11.431  1.6434  0.4057 -1.3656
  870MOL0     H20047   6.271   8.613  11.431  1.5320  1.0633 -0.2185
  870MOL0     H20048   5.897   8.409  11.260  1.5043  0.1544 -1.0199
  870MOL0     H20049   6.030   8.311  11.337 -1.8940 -1.2246 -0.1649
  870MOL0     H20050   5.982   8.538  11.476  0.3919 -0.9973 -0.5001
  870MOL0     H20051   5.972   8.382  11.550 -0.4202 -0.1868  0.4891
  870MOL0     H20052   5.753   8.534  11.562 -3.2254  0.4203 -0.3781
  870MOL0     H20053   5.743   8.517  11.392 -1.2120  0.2481  0.7500
  870MOL0     H20054   5.618   8.330  11.566 -0.6706  0.7133  0.0505
  870MOL0     H20055   5.770   8.260  11.569 -1.0211  1.3642  1.0040
  870MOL0     H20056   5.661   8.192  11.162 -2.9375  2.8227 -1.0864
  870MOL0     H20057   6.172   8.327  11.128  1.0319 -2.5016  0.9767
  870MOL0     H20058   6.466   8.163  11.121  2.2407  0.4858  0.0680
  870MOL0     H20059   6.303   8.160  11.065  0.2054 -0.7906  0.8917
  870MOL0     H20060   6.426   8.271  10.989 -0.6181 -0.1472  0.1547
  871MOL0     O20061   4.963   3.138   8.392 -0.1334  0.0261  0.8068
  871MOL0     C20062   4.862   3.123   8.322  0.7131 -0.7893  0.3560
  871MOL0     O20063   4.745   3.209   8.341  0.1425  0.0414  0.0565
  871MOL0     C20064   4.764   3.321   8.421  0.8096 -0.8028 -0.3460
  871MOL0     C20065   4.803   3.439   8.369 -0.2572 -0.3123  0.4994
  871MOL0     C20066   4.840   3.547   8.443  0.9711 -1.1000  0.3239
  871MOL0     C20067   4.826   3.536   8.584 -1.0014 -0.5971 -0.1219
  871MOL0     O20068   4.864   3.640   8.666 -0.1234  0.6783  0.4650
  871MOL0     C20069   4.870   3.637   8.814 -0.5749 -0.4782  0.5049
  871MOL0     C20070   5.003   3.600   8.860 -0.5243 -0.8218  0.0982
  871MOL0     C20071   5.109   3.701   8.806  0.5148  0.0419 -0.7705
  871MOL0     C20072   5.109   3.807   8.924 -0.0160  0.2325  0.0324
  871MOL0     C20073   5.199   3.928   8.904  0.5629 -0.3501 -0.8051
  871MOL0     C20074   5.197   4.031   9.016  0.4245  0.2250 -0.0073
  871MOL0     C20075   5.290   4.137   8.977  0.5924  0.2707 -0.7351
  871MOL0     C20076   5.281   4.266   9.061 -0.5647  0.2002  0.2432
  871MOL0     N20077   5.149   4.321   9.054  0.4870 -1.1964 -0.4829
  871MOL0     C20078   5.064   4.334   8.945  0.4395  1.2772  0.4524
  871MOL0     C20079   4.935   4.331   8.995 -0.0062  0.4745  0.1195
  871MOL0     C20080   4.803   4.332   8.925 -0.0877 -0.8802 -0.9370
  871MOL0     C20081   4.783   4.303   8.768  0.9234 -0.7164 -0.0182
  871MOL0     C20082   4.667   4.390   8.713 -0.2605  0.0051 -0.5733
  871MOL0     C20083   4.599   4.331   8.590 -0.4005 -0.6821 -0.3054
  871MOL0     O20084   4.688   4.288   8.489  0.0310  0.0328 -0.3929
  871MOL0     C20085   4.720   4.379   8.391 -1.3882 -1.2416  0.5316
  871MOL0     C20086   4.817   4.344   8.299 -0.2009  0.7522  0.2819
  871MOL0     C20087   4.868   4.422   8.198 -0.1544 -0.0566 -1.0494
  871MOL0     C20088   4.986   4.363   8.127 -0.5308 -0.4817  0.3867
  871MOL0     C20089   4.820   4.552   8.174  0.1166  0.3225 -0.3003
  871MOL0     C20090   4.842   4.639   8.060  0.6379  1.0773  0.6703
  871MOL0     O20091   4.847   4.772   8.076 -0.0505  0.1563  0.2625
  871MOL0     C20092   4.827   4.853   7.962  0.6527  0.4931 -0.5453
  871MOL0     C20093   4.921   4.959   7.940  0.2430 -0.4482  0.4580
  871MOL0     C20094   4.897   5.062   7.847  0.9885  0.8481  0.2097
  871MOL0     C20095   4.802   5.047   7.748 -0.6646 -0.7614  0.4750
  871MOL0     O20096   4.793   5.127   7.635  0.0259  0.6068  0.5612
  871MOL0     C20097   4.917   5.160   7.567 -0.5927 -0.5870  0.0629
  871MOL0     C20098   4.893   5.253   7.443  0.2828 -0.1817 -0.1803
  871MOL0     C20099   4.848   5.175   7.313 -0.2725  0.7891 -0.5420
  871MOL0     C20100   4.822   5.239   7.178 -0.1834  0.1655  1.2456
  871MOL0     C20101   4.948   5.284   7.108  0.5369 -0.5848 -0.0365
  871MOL0     C20102   4.918   5.363   6.983 -0.4525  0.4964 -0.6608
  871MOL0     C20103   5.048   5.427   6.940 -0.2859  0.9233 -0.2095
  871MOL0     C20104   5.019   5.505   6.810 -0.1137 -0.4166  0.4152
  871MOL0    Cl20105   4.946   5.661   6.852  0.0287  0.1673  0.2125
  871MOL0     C20106   4.719   4.933   7.749  0.4334 -0.4223 -0.3950
  871MOL0     C20107   4.739   4.844   7.857 -0.3549  0.2676  0.1656
  871MOL0     O20108   4.851   4.585   7.946 -0.4881  0.0812  0.3227
  871MOL0     C20109   4.713   4.585   8.262 -0.1997  0.2086 -0.5648
  871MOL0     C20110   4.671   4.503   8.373 -0.1243  0.0502  1.1912
  871MOL0     N20111   4.936   4.328   9.134 -0.0752  0.4097 -0.8512
  871MOL0     N20112   5.060   4.320   9.169  0.6203  0.0586  0.4586
  871MOL0     C20113   4.772   3.415   8.640  0.3584 -0.2334 -1.1931
  871MOL0     C20114   4.741   3.307   8.559 -0.0870  0.6660  0.2348
  871MOL0     C20115   4.860   3.004   8.230 -0.0876 -0.6293  0.1985
  871MOL0     C20116   4.971   2.920   8.235 -0.7261  0.3624  0.5663
  871MOL0     C20117   4.985   2.810   8.147 -0.0624  0.5126 -0.2022
  871MOL0     C20118   4.877   2.776   8.056 -0.0053 -0.1754 -0.2880
  871MOL0     O20119   4.893   2.670   7.970 -0.2194 -0.4219 -0.2439
  871MOL0     C20120   4.853   2.695   7.832  0.4232  0.1580 -0.0120
  871MOL0     C20121   4.960   2.646   7.734  0.7927 -0.6346 -0.5079
  871MOL0     C20122   4.962   2.497   7.740 -0.5945 -1.0240 -1.0485
  871MOL0     C20123   5.080   2.443   7.669 -0.6708  0.3915  0.2989
  871MOL0     C20124   5.065   2.315   7.611 -0.5167 -0.5690 -0.6641
  871MOL0     C20125   5.054   2.203   7.564  0.8351  0.6705 -0.3571
  871MOL0     C20126   4.759   2.862   8.050 -0.2326 -0.2537  0.4967
  871MOL0     C20127   4.752   2.969   8.136  0.3208 -0.7785 -1.5198
  871MOL0     C20128   4.625   3.059   8.124 -0.5134  0.0424 -0.3736
  871MOL0     H20129   4.814   3.436   8.261 -0.7197 -3.6586  0.4487
  871MOL0     H20130   4.884   3.637   8.401 -2.9268  1.6298  1.5678
  871MOL0     H20131   4.788   3.576   8.852 -1.4234  1.5776  2.1817
  871MOL0     H20132   4.857   3.737   8.857  0.7564  0.5279 -1.2681
  871MOL0     H20133   5.008   3.581   8.968 -2.4093 -1.7301  0.0579
  871MOL0     H20134   5.026   3.503   8.815  2.8645 -0.6610  1.1344
  871MOL0     H20135   5.204   3.654   8.781  0.7042 -0.0625  0.0907
  871MOL0     H20136   5.059   3.752   8.724 -0.6770  1.0647  0.5258
  871MOL0     H20137   5.007   3.839   8.949  1.0920  3.0562  1.4326
  871MOL0     H20138   5.140   3.759   9.017 -3.2111  1.6826  2.0404
  871MOL0     H20139   5.163   3.968   8.809 -0.4560  0.0533 -0.2661
  871MOL0     H20140   5.305   3.900   8.904  1.2956  2.0756  0.8808
  871MOL0     H20141   5.098   4.077   9.020 -0.3879 -1.0339 -2.7938
  871MOL0     H20142   5.213   3.994   9.117 -1.9682 -2.9312 -0.6128
  871MOL0     H20143   5.254   4.168   8.879  1.4107 -0.8684 -1.4124
  871MOL0     H20144   5.393   4.102   8.967  0.7338  0.5961 -0.4654
  871MOL0     H20145   5.296   4.250   9.168 -0.7198  1.8362  0.5343
  871MOL0     H20146   5.352   4.343   9.028  0.0198 -1.4330 -2.6405
  871MOL0     H20147   5.079   4.322   8.838  0.4672  2.6195  0.2799
  871MOL0     H20148   4.748   4.420   8.960  1.6268  0.9221 -2.5142
  871MOL0     H20149   4.750   4.242   8.955 -0.8524 -0.5851 -1.3618
  871MOL0     H20150   4.872   4.300   8.705  0.5670 -0.8829 -0.5174
  871MOL0     H20151   4.757   4.198   8.758  1.7785 -0.7511 -2.6005
  871MOL0     H20152   4.582   4.406   8.780 -0.5453 -1.2619 -0.6054
  871MOL0     H20153   4.709   4.484   8.677  2.3165 -0.7690  0.1952
  871MOL0     H20154   4.532   4.248   8.617 -3.5326  1.6104 -0.4334
  871MOL0     H20155   4.528   4.406   8.553 -0.7967  0.1047  1.8784
  871MOL0     H20156   4.860   4.246   8.321 -1.1047  0.5704  1.3155
  871MOL0     H20157   4.951   4.294   8.049  0.1047 -0.8350  0.4023
  871MOL0     H20158   5.056   4.314   8.196  0.0011 -0.6874 -0.2837
  871MOL0     H20159   5.038   4.448   8.082  0.6306 -0.7617  1.1578
  871MOL0     H20160   5.001   4.980   8.011  1.4395  2.7646 -1.6267
  871MOL0     H20161   4.977   5.134   7.832  1.4289  0.1856 -0.8129
  871MOL0     H20162   4.976   5.219   7.637 -0.4150 -0.8556  0.1400
  871MOL0     H20163   4.967   5.065   7.545 -1.5395 -1.3074  0.8800
  871MOL0     H20164   4.809   5.318   7.469  1.7753  0.5369  3.4849
  871MOL0     H20165   4.978   5.319   7.422 -1.1181  1.6094 -0.4509
  871MOL0     H20166   4.756   5.121   7.339  1.1090 -0.8457  1.2706
  871MOL0     H20167   4.931   5.105   7.299 -0.6516 -0.3763  2.3195
  871MOL0     H20168   4.755   5.325   7.186 -0.9103 -0.2473 -0.1341
  871MOL0     H20169   4.767   5.175   7.110 -7.5913  5.1162  1.4040
  871MOL0     H20170   4.985   5.351   7.186  1.7969 -2.2270  0.8470
  871MOL0     H20171   5.014   5.198   7.088  0.5817  0.0136 -2.9270
  871MOL0     H20172   4.824   5.418   6.972 -1.5805 -1.8007 -4.2607
  871MOL0     H20173   4.904   5.285   6.907  0.6685 -0.9594  0.5753
  871MOL0     H20174   5.125   5.352   6.919  0.2891  1.6446 -0.7392
  871MOL0     H20175   5.078   5.496   7.019 -1.3842  2.0822 -0.7541
  871MOL0     H20176   4.967   5.460   6.726 -2.1406  0.9504  0.8652
  871MOL0     H20177   5.110   5.547   6.765 -0.4721  2.5512  2.1543
  871MOL0     H20178   4.657   4.913   7.663  0.1081 -1.1259 -0.0121
  871MOL0     H20179   4.659   4.772   7.863 -0.3016  0.3160  2.3731
  871MOL0     H20180   4.658   4.679   8.253 -2.0185 -0.7895 -0.3024
  871MOL0     H20181   4.593   4.546   8.435 -0.5034  5.2012 -2.2332
  871MOL0     H20182   4.768   3.403   8.748 -0.5372 -1.7616 -1.3689
  871MOL0     H20183   4.708   3.218   8.611 -0.4187  0.2514 -0.6807
  871MOL0     H20184   5.062   2.937   8.291 -0.7005  2.3557 -0.0183
  871MOL0     H20185   5.070   2.747   8.167  0.0805  0.9852  0.7319
  871MOL0     H20186   4.750   2.659   7.821  0.6026 -1.1426  1.9997
  871MOL0     H20187   4.846   2.802   7.809  2.2492 -0.3579 -3.8174
  871MOL0     H20188   5.055   2.690   7.765 -1.1895  3.4403  0.5743
  871MOL0     H20189   4.939   2.692   7.637  0.2251 -0.3572 -0.2595
  871MOL0     H20190   4.972   2.459   7.841 -4.2329 -0.4300 -0.3274
  871MOL0     H20191   4.878   2.456   7.682 -1.0301  0.8553 -1.8334
  871MOL0     H20192   5.161   2.451   7.743 -0.4111  3.5020 -0.1726
  871MOL0     H20193   5.114   2.509   7.588 -2.0999 -0.9803 -1.4953
  871MOL0     H20194   5.050   2.105   7.521 -1.8181 -0.5540  2.2724
  871MOL0     H20195   4.681   2.851   7.976  2.2084 -0.6703 -2.1665
  871MOL0     H20196   4.584   3.074   8.225 -0.3074 -4.5949  0.6467
  871MOL0     H20197   4.661   3.158   8.097 -1.2389 -0.2415 -2.5826
  871MOL0     H20198   4.542   3.012   8.072 -1.8808 -1.2700  2.7357
  872MOL0     O20199  10.404  10.161   6.489  0.3076 -0.0756 -0.1611
  872MOL0     C20200  10.411  10.286   6.492 -0.2406  1.0007 -1.1350
  872MOL0     O20201  10.309  10.372   6.524  0.0104 -0.3773  0.2617
  872MOL0     C20202  10.181  10.326   6.521 -0.1120 -0.5617  0.1147
  872MOL0     C20203  10.133  10.223   6.595  0.0665  0.5789  0.0381
  872MOL0     C20204   9.995  10.178   6.576 -1.4487  0.3854 -0.3767
  872MOL0     C20205   9.921  10.223   6.477 -0.0822 -1.2591 -0.0971
  872MOL0     O20206   9.789  10.184   6.467  0.4867  0.1980  0.3059
  872MOL0     C20207   9.737  10.167   6.333  0.8494 -0.5334  1.2137
  872MOL0     C20208   9.611  10.073   6.320  0.1925 -0.6027 -0.0208
  872MOL0     C20209   9.493  10.127   6.400  0.7946 -0.0426  1.2574
  872MOL0     C20210   9.360  10.109   6.334 -0.3692 -0.0563 -0.0504
  872MOL0     C20211   9.311   9.966   6.347  0.0038  0.5779 -0.8226
  872MOL0     C20212   9.183   9.934   6.279  0.9486 -0.2581 -0.2172
  872MOL0     C20213   9.146   9.784   6.287  0.2844  0.6522  0.2854
  872MOL0     C20214   9.211   9.677   6.189 -0.2266 -0.2524 -0.1531
  872MOL0     N20215   9.346   9.653   6.230  0.4463  0.5414  1.0020
  872MOL0     C20216   9.384   9.586   6.341 -0.0180 -1.0824  0.2025
  872MOL0     C20217   9.519   9.604   6.340  0.5034  1.0204  0.6344
  872MOL0     C20218   9.620   9.555   6.444 -0.3973  0.2391 -0.5084
  872MOL0     C20219   9.639   9.404   6.430 -0.0586 -0.1383  0.7316
  872MOL0     C20220   9.752   9.335   6.503  0.0297  0.8889  0.4140
  872MOL0     C20221   9.772   9.183   6.448 -0.8488 -0.2866  0.5378
  872MOL0     O20222   9.657   9.118   6.399  0.0331 -0.3498 -0.1766
  872MOL0     C20223   9.672   8.989   6.351  0.1066 -0.0835 -0.0235
  872MOL0     C20224   9.563   8.932   6.292  0.4205 -0.0793  0.2676
  872MOL0     C20225   9.577   8.817   6.223 -0.7250 -0.4335  0.4925
  872MOL0     C20226   9.448   8.764   6.144  0.3899  0.6029  0.0856
  872MOL0     C20227   9.699   8.747   6.215  0.2177 -0.7935  0.4352
  872MOL0     C20228   9.714   8.613   6.141 -0.3362  0.0219 -0.6520
  872MOL0     O20229   9.837   8.555   6.169  0.2917 -0.5430  0.4192
  872MOL0     C20230   9.879   8.436   6.127 -0.5783  0.3514  0.8342
  872MOL0     C20231  10.012   8.424   6.071  0.8178  0.1748 -0.0066
  872MOL0     C20232  10.070   8.307   6.035  0.8051 -0.0723 -0.4881
  872MOL0     C20233  10.003   8.187   6.044  0.0306  0.0138  0.4934
  872MOL0     O20234  10.045   8.071   5.999 -0.7838  0.4854  0.2189
  872MOL0     C20235  10.186   8.047   6.003 -0.7402 -0.2041  0.3432
  872MOL0     C20236  10.196   7.892   6.004 -0.2769 -0.6085  0.5222
  872MOL0     C20237  10.338   7.851   6.009 -0.1502 -0.0095  0.2404
  872MOL0     C20238  10.366   7.705   5.954  0.8524  0.5321  0.4056
  872MOL0     C20239  10.516   7.656   5.952  0.3296 -1.0248 -0.3348
  872MOL0     C20240  10.600   7.734   6.054  0.5542 -0.0027 -0.0195
  872MOL0     C20241  10.742   7.690   6.030  0.5752  0.4027  0.0801
  872MOL0     C20242  10.839   7.736   6.132 -0.7477 -0.5982  0.4271
  872MOL0    Cl20243  10.972   7.625   6.148  0.1284  0.1574 -0.1639
  872MOL0     C20244   9.874   8.193   6.097  0.5414 -0.1788 -0.7983
  872MOL0     C20245   9.808   8.314   6.135  0.2916  1.3653  0.5547
  872MOL0     O20246   9.628   8.556   6.071 -0.6390  0.0195 -0.2693
  872MOL0     C20247   9.811   8.802   6.278 -0.8749  0.1526 -0.6252
  872MOL0     C20248   9.799   8.922   6.354  0.7004  0.5480 -0.2109
  872MOL0     N20249   9.563   9.660   6.222  0.2572 -0.2128  0.2079
  872MOL0     N20250   9.456   9.684   6.151  0.4563 -0.4621  0.2543
  872MOL0     C20251   9.987  10.309   6.397  0.7513  0.1047  0.6725
  872MOL0     C20252  10.112  10.366   6.411  0.3904  0.0634  0.5953
  872MOL0     C20253  10.550  10.342   6.488  0.7081  0.4682  0.3260
  872MOL0     C20254  10.654  10.250   6.450  0.4036 -0.2507  0.4435
  872MOL0     C20255  10.786  10.283   6.456  0.5302  0.7175 -0.3534
  872MOL0     C20256  10.833  10.407   6.498  0.3920  0.6274  0.7371
  872MOL0     O20257  10.965  10.431   6.521 -0.2479 -0.1409 -0.9139
  872MOL0     C20258  11.071  10.350   6.465  0.2935  1.3239  0.8501
  872MOL0     C20259  11.068  10.380   6.307  0.0261  0.3513 -0.1503
  872MOL0     C20260  11.214  10.367   6.250  0.5300 -0.0178  0.0942
  872MOL0     C20261  11.273  10.227   6.288 -0.1474 -0.3875 -0.4185
  872MOL0     C20262  11.187  10.117   6.244 -0.7740  0.5284  1.3633
  872MOL0     C20263  11.134  10.018   6.202  0.3638 -0.7267  0.1958
  872MOL0     C20264  10.732  10.505   6.518 -0.3653  0.1523  0.6032
  872MOL0     C20265  10.593  10.482   6.513 -0.6277  0.6649 -0.8585
  872MOL0     C20266  10.502  10.585   6.539 -0.1357  1.0638  0.4420
  872MOL0     H20267  10.178  10.159   6.670 -0.5954  1.8822  1.6096
  872MOL0     H20268   9.962  10.101   6.645  1.2806 -0.9212 -0.3734
  872MOL0     H20269   9.819  10.151   6.264  0.4452  2.0174  0.0153
  872MOL0     H20270   9.691  10.265   6.315  0.5800 -1.2110 -2.4046
  872MOL0     H20271   9.587  10.077   6.213  0.7373  0.0822 -0.1260
  872MOL0     H20272   9.644   9.972   6.346 -3.6823 -2.8595 -2.8255
  872MOL0     H20273   9.481  10.075   6.496  0.6060  1.5147  2.1224
  872MOL0     H20274   9.496  10.235   6.422 -0.5870  0.4985 -0.8870
  872MOL0     H20275   9.284  10.169   6.384 -3.8249 -2.8083 -1.5618
  872MOL0     H20276   9.370  10.140   6.230 -1.9323  1.6462  0.2577
  872MOL0     H20277   9.288   9.948   6.452  2.0999 -1.7788 -0.6511
  872MOL0     H20278   9.392   9.899   6.314 -0.7099 -0.9649  0.4225
  872MOL0     H20279   9.107   9.999   6.324 -0.0384 -0.1006 -2.0072
  872MOL0     H20280   9.179   9.974   6.177 -0.8442 -0.4539 -0.2561
  872MOL0     H20281   9.040   9.772   6.264  0.3935  0.9479 -0.4002
  872MOL0     H20282   9.170   9.759   6.391  0.3357 -0.9804 -0.0925
  872MOL0     H20283   9.154   9.585   6.205  2.3230 -1.8560  0.3263
  872MOL0     H20284   9.196   9.711   6.087  0.4829  1.0728  0.1605
  872MOL0     H20285   9.314   9.550   6.415 -1.8549 -1.2024 -1.5118
  872MOL0     H20286   9.599   9.565   6.551  1.1429 -1.1070 -0.0502
  872MOL0     H20287   9.715   9.607   6.430 -0.6527  0.2909 -2.3876
  872MOL0     H20288   9.545   9.349   6.445 -1.0227 -0.0797 -3.7488
  872MOL0     H20289   9.655   9.375   6.326 -1.5725  1.7859 -0.0824
  872MOL0     H20290   9.849   9.380   6.480  2.8152 -3.9512  1.3143
  872MOL0     H20291   9.732   9.347   6.610 -2.7336  2.6266 -0.2072
  872MOL0     H20292   9.841   9.187   6.363 -0.5577  2.3428  0.8188
  872MOL0     H20293   9.820   9.127   6.529  1.0696 -0.6846 -0.7998
  872MOL0     H20294   9.468   8.985   6.288  0.3100 -0.2974 -0.0536
  872MOL0     H20295   9.424   8.670   6.195  1.7176 -0.7161 -1.5761
  872MOL0     H20296   9.452   8.762   6.034 -1.4410  3.5271 -0.1258
  872MOL0     H20297   9.370   8.833   6.176 -1.5472 -1.2107 -0.4694
  872MOL0     H20298  10.064   8.517   6.052  0.7027  0.1906 -0.2558
  872MOL0     H20299  10.171   8.309   5.997  0.1120 -2.6152 -2.8030
  872MOL0     H20300  10.243   8.078   5.915  3.3659  1.6209  3.2540
  872MOL0     H20301  10.249   8.091   6.082  2.9200  0.0225 -2.4379
  872MOL0     H20302  10.153   7.849   6.095 -2.7554 -1.2158 -0.8357
  872MOL0     H20303  10.160   7.842   5.913 -1.6083 -2.6033  2.0554
  872MOL0     H20304  10.376   7.855   6.112 -3.0593  3.1278  1.3910
  872MOL0     H20305  10.390   7.922   5.944 -0.2387  1.0110  1.2578
  872MOL0     H20306  10.328   7.700   5.852  0.8899 -1.5772  0.4486
  872MOL0     H20307  10.309   7.628   6.007 -1.5110  2.9548  1.6256
  872MOL0     H20308  10.518   7.548   5.967 -0.0672 -1.0347 -0.3444
  872MOL0     H20309  10.556   7.682   5.854 -1.8545  1.2728 -0.7406
  872MOL0     H20310  10.577   7.721   6.160  0.2509 -0.5090 -0.1428
  872MOL0     H20311  10.602   7.843   6.051  2.4323  0.0491  1.2528
  872MOL0     H20312  10.783   7.723   5.934  1.9572  0.9526  0.8335
  872MOL0     H20313  10.739   7.581   6.040 -1.3888  0.5256  1.2550
  872MOL0     H20314  10.792   7.760   6.227 -2.1775 -0.2872 -0.3330
  872MOL0     H20315  10.859   7.839   6.100 -0.4643 -0.2991  1.5341
  872MOL0     H20316   9.824   8.103   6.129 -3.1407  2.2811  1.1446
  872MOL0     H20317   9.714   8.311   6.188  0.3061  0.9841  0.5620
  872MOL0     H20318   9.909   8.757   6.276 -1.6150 -1.6417  0.6307
  872MOL0     H20319   9.893   8.962   6.393  0.4146 -0.0749  1.1812
  872MOL0     H20320   9.939  10.347   6.308 -1.1162 -0.4897  1.3902
  872MOL0     H20321  10.143  10.443   6.341  0.6614  2.3085  3.0458
  872MOL0     H20322  10.638  10.145   6.431 -1.3384 -0.0544  0.6468
  872MOL0     H20323  10.841  10.192   6.436 -4.3008 -2.5964 -0.3077
  872MOL0     H20324  11.170  10.375   6.504  1.8700 -0.2579 -1.8625
  872MOL0     H20325  11.057  10.245   6.493 -3.5011  0.9714 -1.7658
  872MOL0     H20326  11.026  10.480   6.291 -1.0291 -0.2719 -1.5438
  872MOL0     H20327  11.002  10.311   6.253  0.5706  0.2828 -0.7362
  872MOL0     H20328  11.221  10.370   6.141 -2.2665  1.2571 -0.1282
  872MOL0     H20329  11.278  10.447   6.289  1.5520 -0.8618  0.2014
  872MOL0     H20330  11.286  10.225   6.396 -1.3139  1.5466 -0.1871
  872MOL0     H20331  11.377  10.220   6.255 -0.3516  2.2328 -1.9080
  872MOL0     H20332  11.095   9.924   6.170 -0.9660  0.3953 -1.6718
  872MOL0     H20333  10.766  10.601   6.555 -1.9982 -0.0895  2.8757
  872MOL0     H20334  10.547  10.685   6.534 -0.1357  1.0006 -2.2144
  872MOL0     H20335  10.426  10.606   6.463  1.9048  0.3775 -1.9476
  872MOL0     H20336  10.456  10.588   6.638  2.0395 -1.9877  1.7027
  873MOL0     O20337   5.480   9.433   8.368 -0.1279 -0.0010 -0.0243
  873MOL0     C20338   5.448   9.393   8.482  0.2110  0.6980 -0.6224
  873MOL0     O20339   5.514   9.416   8.606  0.7367  0.2456  0.2025
  873MOL0     C20340   5.628   9.495   8.615 -0.4594  0.6179  0.0411
  873MOL0     C20341   5.636   9.625   8.573  0.8495 -0.3264  0.9190
  873MOL0     C20342   5.743   9.706   8.616  1.1715  0.9146 -0.0375
  873MOL0     C20343   5.845   9.658   8.687 -0.1265 -0.2749  0.1766
  873MOL0     O20344   5.938   9.750   8.723  0.0691 -0.5636  0.0406
  873MOL0     C20345   6.075   9.702   8.730 -0.4409  0.1667  0.4110
  873MOL0     C20346   6.123   9.628   8.610  0.8059  0.0504  1.4910
  873MOL0     C20347   6.274   9.596   8.627 -0.2174 -0.0984  0.3753
  873MOL0     C20348   6.329   9.515   8.516 -0.4055 -1.1000 -0.0085
  873MOL0     C20349   6.330   9.587   8.377 -0.8199 -0.2612 -0.3174
  873MOL0     C20350   6.447   9.535   8.279  0.9852  0.6096 -0.8301
  873MOL0     C20351   6.433   9.598   8.137 -0.5627  0.4377 -0.2899
  873MOL0     C20352   6.566   9.570   8.052  0.5271  0.7296  1.7578
  873MOL0     N20353   6.587   9.430   8.017  0.0054  0.2871 -0.1095
  873MOL0     C20354   6.657   9.364   8.111  0.5352 -0.4850  0.3903
  873MOL0     C20355   6.653   9.232   8.072 -0.1123 -0.7349  0.6487
  873MOL0     C20356   6.718   9.109   8.140 -0.3954 -0.2139  0.4873
  873MOL0     C20357   6.849   9.126   8.217 -0.1189  0.1319 -0.8187
  873MOL0     C20358   6.943   9.233   8.155 -0.6119  0.8426  0.4981
  873MOL0     C20359   6.975   9.204   8.003  0.1494 -0.5549 -0.0344
  873MOL0     O20360   7.088   9.286   7.962  1.0922  0.9110 -0.8862
  873MOL0     C20361   7.080   9.413   7.984  0.2580 -0.0112  0.5463
  873MOL0     C20362   7.171   9.482   8.066  0.2984 -0.6539 -1.0841
  873MOL0     C20363   7.160   9.615   8.104 -0.2754  1.3347 -0.3662
  873MOL0     C20364   7.271   9.655   8.196  0.2472 -0.4545  0.4248
  873MOL0     C20365   7.050   9.688   8.059 -0.5429  1.0876 -0.2352
  873MOL0     C20366   7.027   9.822   8.098 -0.0254  0.4253  0.2172
  873MOL0     O20367   7.077   9.868   8.219 -0.1088  1.3213  0.8718
  873MOL0     C20368   7.056   9.994   8.257  0.8285  0.5870 -0.0305
  873MOL0     C20369   7.100  10.107   8.192  0.3469 -0.5335  0.0881
  873MOL0     C20370   7.055  10.237   8.230  0.1552  0.0676  0.3235
  873MOL0     C20371   6.972  10.260   8.341 -0.8265 -0.0035 -0.0565
  873MOL0     O20372   6.935  10.378   8.392 -0.2286  0.7435 -0.1679
  873MOL0     C20373   6.901  10.476   8.305 -1.4050  0.5389  0.7075
  873MOL0     C20374   6.844  10.602   8.374 -0.7498  0.3227  0.6791
  873MOL0     C20375   6.818  10.718   8.269 -0.2260  0.7617  0.0170
  873MOL0     C20376   6.719  10.667   8.161 -0.1288 -0.1266  0.1785
  873MOL0     C20377   6.681  10.793   8.087  0.5685 -0.0185 -0.2786
  873MOL0     C20378   6.597  10.906   8.157 -0.2963 -0.0941  0.4133
  873MOL0     C20379   6.551  11.016   8.057  0.8687  0.9717  0.2189
  873MOL0     C20380   6.460  11.114   8.135 -0.4441 -0.1906 -0.0342
  873MOL0    Cl20381   6.531  11.155   8.296  0.2785  0.3342 -0.4015
  873MOL0     C20382   6.936  10.143   8.414 -0.1326 -0.5306  0.4567
  873MOL0     C20383   6.984  10.014   8.382  0.2165 -0.3130 -0.2095
  873MOL0     O20384   6.982   9.886   8.005 -0.0357 -0.0446 -0.2514
  873MOL0     C20385   6.958   9.624   7.966  0.4948  0.0406 -0.4349
  873MOL0     C20386   6.971   9.488   7.929  0.6671 -0.3886  0.2830
  873MOL0     N20387   6.600   9.228   7.947  0.3319  1.2374  0.2855
  873MOL0     N20388   6.553   9.346   7.916 -0.1346 -0.9017  0.3462
  873MOL0     C20389   5.836   9.525   8.731  0.1750  0.3956 -0.6919
  873MOL0     C20390   5.732   9.439   8.695 -0.0957 -0.5297  0.7300
  873MOL0     C20391   5.320   9.326   8.495 -0.8919 -0.6710  0.4095
  873MOL0     C20392   5.301   9.205   8.424 -0.4834 -0.7575  0.6498
  873MOL0     C20393   5.176   9.148   8.415  0.2783  0.6131 -0.0530
  873MOL0     C20394   5.067   9.204   8.483  0.1824  0.8633  0.7183
  873MOL0     O20395   4.937   9.142   8.480 -0.1068  0.0453  0.8501
  873MOL0     C20396   4.905   9.028   8.401 -0.5473 -0.2348 -0.9276
  873MOL0     C20397   4.869   9.083   8.260  0.0104  0.0830  0.4759
  873MOL0     C20398   4.965   9.040   8.147 -0.7038 -0.1855 -0.7778
  873MOL0     C20399   4.929   9.094   8.014  0.8258  0.1210 -0.1673
  873MOL0     C20400   4.791   9.055   7.976  0.1372 -0.5227  0.6214
  873MOL0     C20401   4.677   9.031   7.939 -0.1423 -0.4932 -0.0652
  873MOL0     C20402   5.088   9.316   8.559  0.2325  0.2521  0.1139
  873MOL0     C20403   5.208   9.383   8.567 -1.1821 -0.0332 -0.1365
  873MOL0     C20404   5.219   9.503   8.656 -0.1782  0.8631  0.4045
  873MOL0     H20405   5.550   9.668   8.522  1.6771  0.6394  0.3112
  873MOL0     H20406   5.743   9.809   8.582 -0.8252  0.9750  0.0244
  873MOL0     H20407   6.074   9.627   8.810 -0.9818 -2.1734 -1.6646
  873MOL0     H20408   6.145   9.783   8.751  0.7445 -0.5761 -0.5693
  873MOL0     H20409   6.067   9.539   8.578  0.7959  0.9274 -1.2533
  873MOL0     H20410   6.112   9.691   8.521  5.2018 -0.0616  0.6312
  873MOL0     H20411   6.331   9.689   8.625 -0.2642 -0.0751  0.0030
  873MOL0     H20412   6.295   9.532   8.713 -0.9369 -2.0428 -0.8056
  873MOL0     H20413   6.429   9.486   8.549 -1.1362 -1.3023  2.1660
  873MOL0     H20414   6.273   9.421   8.510  3.1107 -3.3068 -1.0459
  873MOL0     H20415   6.359   9.692   8.388  0.9416 -0.9574  4.8465
  873MOL0     H20416   6.229   9.570   8.339 -0.9967  2.3792 -1.2173
  873MOL0     H20417   6.534   9.558   8.342 -1.5180 -1.1439  3.7962
  873MOL0     H20418   6.437   9.427   8.283 -0.6089  0.7231  3.3432
  873MOL0     H20419   6.432   9.706   8.155  1.0704  0.1135  2.2039
  873MOL0     H20420   6.343   9.562   8.086 -1.7102  1.2938  1.0717
  873MOL0     H20421   6.561   9.619   7.954 -0.0179  0.8185  1.8284
  873MOL0     H20422   6.647   9.608   8.114  1.2512 -0.8019  1.7981
  873MOL0     H20423   6.704   9.406   8.200  0.6283  3.3993 -1.3057
  873MOL0     H20424   6.735   9.031   8.065  2.4591  0.7720 -0.0254
  873MOL0     H20425   6.637   9.084   8.209 -1.4003  0.5277 -0.3856
  873MOL0     H20426   6.834   9.166   8.317  1.4820  4.0395 -1.9537
  873MOL0     H20427   6.890   9.025   8.227 -1.2948 -0.3224 -0.4021
  873MOL0     H20428   6.904   9.332   8.180 -2.3487  0.3167  0.0776
  873MOL0     H20429   7.029   9.225   8.221 -0.7288  2.5930  0.9069
  873MOL0     H20430   7.006   9.101   7.988  3.5113  0.2197  0.7473
  873MOL0     H20431   6.883   9.204   7.942  0.5837 -3.4884 -0.8073
  873MOL0     H20432   7.244   9.410   8.103 -2.1511 -3.4822 -1.3736
  873MOL0     H20433   7.297   9.759   8.172 -0.2082  0.9221  4.9002
  873MOL0     H20434   7.364   9.597   8.199 -0.0168 -1.1060 -2.0531
  873MOL0     H20435   7.226   9.667   8.295 -1.8170 -2.9789 -0.1276
  873MOL0     H20436   7.173  10.085   8.115  1.9787  1.4956  0.9637
  873MOL0     H20437   7.095  10.315   8.166  2.4232 -2.1516 -1.1562
  873MOL0     H20438   6.989  10.507   8.248 -1.3601 -0.7003  0.0721
  873MOL0     H20439   6.818  10.442   8.243 -0.4120  0.8486 -0.8504
  873MOL0     H20440   6.741  10.585   8.405 -1.5399  4.4737  0.9883
  873MOL0     H20441   6.911  10.629   8.456  1.6793 -1.5718 -0.5583
  873MOL0     H20442   6.915  10.749   8.229  1.5893 -3.6340  0.5299
  873MOL0     H20443   6.769  10.797   8.326  0.2478  0.4889  0.8145
  873MOL0     H20444   6.633  10.606   8.192 -0.9129  1.0182  0.3153
  873MOL0     H20445   6.767  10.609   8.081 -0.0384  0.4774 -0.2146
  873MOL0     H20446   6.774  10.839   8.050  0.5748 -1.5695 -2.4210
  873MOL0     H20447   6.636  10.746   7.999  0.7734 -2.1212  0.6889
  873MOL0     H20448   6.656  10.957   8.233 -3.3993 -0.0333  2.9610
  873MOL0     H20449   6.509  10.861   8.203 -1.0324  1.5191  0.6352
  873MOL0     H20450   6.485  10.982   7.976 -1.8772  1.5544  2.0764
  873MOL0     H20451   6.632  11.069   8.006 -1.7465  2.4291 -2.8339
  873MOL0     H20452   6.357  11.082   8.154 -1.2035  2.9437  1.6732
  873MOL0     H20453   6.451  11.209   8.082  0.0457 -0.7063 -1.0920
  873MOL0     H20454   6.883  10.161   8.507  0.4467 -0.0564  0.7079
  873MOL0     H20455   6.943   9.931   8.438 -1.6825 -0.0407 -1.1060
  873MOL0     H20456   6.877   9.684   7.925 -0.8216 -0.9582  0.6101
  873MOL0     H20457   6.897   9.434   7.869 -1.4430  2.1235  0.4721
  873MOL0     H20458   5.909   9.478   8.795 -0.8248 -2.7352 -1.6557
  873MOL0     H20459   5.717   9.348   8.752 -0.4891  0.1166  1.6867
  873MOL0     H20460   5.392   9.163   8.383 -2.9271 -3.2507 -2.7919
  873MOL0     H20461   5.168   9.066   8.344 -3.5596 -0.6407  1.5336
  873MOL0     H20462   4.982   8.951   8.414  2.8877  3.1497  0.6214
  873MOL0     H20463   4.817   8.983   8.447  1.0422 -2.2650  0.2656
  873MOL0     H20464   4.862   9.191   8.244  1.9180  0.4488  1.7676
  873MOL0     H20465   4.768   9.047   8.244  0.3582 -1.8119  2.2324
  873MOL0     H20466   5.068   9.073   8.165  0.0933 -2.4391 -0.8274
  873MOL0     H20467   4.968   8.932   8.131 -2.9207 -0.3281 -0.5132
  873MOL0     H20468   4.995   9.047   7.940 -0.1978 -1.7111  0.0333
  873MOL0     H20469   4.961   9.199   8.006 -0.3018  0.4578 -0.4404
  873MOL0     H20470   4.571   9.035   7.923  0.1464  2.8500 -1.8770
  873MOL0     H20471   4.998   9.344   8.613 -0.0252 -1.5334  0.6549
  873MOL0     H20472   5.135   9.503   8.726  0.7140 -3.6326  1.7782
  873MOL0     H20473   5.313   9.514   8.711  0.0154  3.5596 -0.3138
  873MOL0     H20474   5.204   9.601   8.609 -1.0118 -0.2899 -1.8577
  874MOL0     O20475   7.239   7.201  10.591 -0.2383 -0.0302 -0.0617
  874MOL0     C20476   7.229   7.182  10.710 -0.8188 -0.4357 -0.0587
  874MOL0     O20477   7.131   7.109  10.763 -0.0013 -0.4705 -0.4177
  874MOL0     C20478   7.013   7.099  10.690  0.0019  0.1710  0.2726
  874MOL0     C20479   6.936   7.207  10.636 -0.0766  0.4985 -0.5133
  874MOL0     C20480   6.813   7.184  10.573  0.0917 -0.4117  0.4058
  874MOL0     C20481   6.755   7.054  10.561  0.3190 -0.0850  0.0855
  874MOL0     O20482   6.627   7.054  10.503  0.2191  0.1812 -0.1231
  874MOL0     C20483   6.541   6.940  10.516  0.8680  0.0905 -1.1331
  874MOL0     C20484   6.494   6.927  10.659  0.2271 -0.0539 -0.9360
  874MOL0     C20485   6.391   6.820  10.660 -0.0432 -0.2833 -0.0281
  874MOL0     C20486   6.446   6.680  10.663  0.0401 -0.3063  0.0007
  874MOL0     C20487   6.332   6.577  10.664 -0.7755 -0.4089  0.6357
  874MOL0     C20488   6.374   6.429  10.636 -0.8420 -0.9320 -0.4562
  874MOL0     C20489   6.439   6.398  10.504 -0.6911  0.3988  0.0318
  874MOL0     C20490   6.359   6.425  10.368 -0.1639 -0.0957 -0.3082
  874MOL0     N20491   6.449   6.409  10.258  0.1196  0.1029 -0.3456
  874MOL0     C20492   6.469   6.297  10.177  0.4014 -0.3419  0.2227
  874MOL0     C20493   6.579   6.336  10.090  0.2500 -0.3333 -0.7900
  874MOL0     C20494   6.657   6.255   9.986 -0.1895 -0.0339 -0.5346
  874MOL0     C20495   6.564   6.163   9.905 -0.6365  0.3295 -0.2291
  874MOL0     C20496   6.459   6.249   9.842  1.0203 -0.2738  0.1426
  874MOL0     C20497   6.384   6.180   9.735 -0.7273  0.2099  0.5766
  874MOL0     O20498   6.482   6.127   9.634 -0.0501  0.2368 -0.5959
  874MOL0     C20499   6.422   6.042   9.543 -0.4419  0.1911  0.2342
  874MOL0     C20500   6.486   6.042   9.423 -0.4110 -0.4095  0.0945
  874MOL0     C20501   6.440   5.970   9.317 -0.1506  0.2146 -1.3395
  874MOL0     C20502   6.527   5.978   9.196 -0.6920  0.1997 -0.0533
  874MOL0     C20503   6.318   5.897   9.329  0.3298 -0.7485  0.5403
  874MOL0     C20504   6.248   5.813   9.220  0.2690  0.2737 -0.6715
  874MOL0     O20505   6.132   5.745   9.254  0.2427 -0.8086 -0.1301
  874MOL0     C20506   6.057   5.712   9.140 -0.0316 -0.2666 -1.0105
  874MOL0     C20507   6.065   5.573   9.085  0.7887  0.3716 -0.7231
  874MOL0     C20508   5.971   5.532   8.986 -0.8936  0.7261 -0.4819
  874MOL0     C20509   5.881   5.623   8.943 -0.4227  0.5262  0.8137
  874MOL0     O20510   5.793   5.563   8.858  0.0083 -0.7653  0.7913
  874MOL0     C20511   5.680   5.644   8.825 -0.0040 -0.2883  0.6263
  874MOL0     C20512   5.699   5.706   8.687 -0.4874  0.8103  0.7121
  874MOL0     C20513   5.571   5.782   8.658 -0.3260 -1.1566 -0.7597
  874MOL0     C20514   5.565   5.854   8.520  0.2508 -0.4068 -1.3747
  874MOL0     C20515   5.463   5.967   8.535  0.7403 -0.4792  0.0389
  874MOL0     C20516   5.529   6.098   8.587 -0.2420 -0.0055 -0.5219
  874MOL0     C20517   5.416   6.201   8.617  0.3178  0.2295  0.6262
  874MOL0     C20518   5.453   6.344   8.590  0.4514  0.0051  0.3247
  874MOL0    Cl20519   5.612   6.392   8.659  0.3151  0.0045  0.3701
  874MOL0     C20520   5.893   5.758   8.975  0.7639  0.1415  0.3243
  874MOL0     C20521   5.977   5.803   9.076 -0.4020 -0.2126 -0.3838
  874MOL0     O20522   6.298   5.814   9.111 -0.4333 -0.0379  0.1725
  874MOL0     C20523   6.259   5.893   9.450  0.1812  0.7379 -0.8743
  874MOL0     C20524   6.300   5.973   9.558 -1.0674  1.4499  0.6625
  874MOL0     N20525   6.621   6.467  10.128 -0.2527  0.5281 -0.4597
  874MOL0     N20526   6.542   6.499  10.229  0.4653  0.5469 -1.3483
  874MOL0     C20527   6.831   6.948  10.612  1.3921 -0.0381 -0.1963
  874MOL0     C20528   6.959   6.966  10.673 -0.2468  0.4216  0.7950
  874MOL0     C20529   7.329   7.234  10.814 -0.3875  0.4729  0.8958
  874MOL0     C20530   7.298   7.209  10.951  0.6372  0.3396  0.5756
  874MOL0     C20531   7.379   7.262  11.053 -0.1236  0.0110 -0.4600
  874MOL0     C20532   7.504   7.312  11.024 -0.2636  0.7007  0.1404
  874MOL0     O20533   7.593   7.353  11.121 -0.2321  0.5095 -0.0109
  874MOL0     C20534   7.643   7.490  11.124 -0.1231  0.0629 -0.0621
  874MOL0     C20535   7.534   7.600  11.147 -1.1545  0.0506  0.6494
  874MOL0     C20536   7.440   7.575  11.259 -0.1136  0.8577 -1.2826
  874MOL0     C20537   7.351   7.691  11.285  0.0257 -0.4820  0.6708
  874MOL0     C20538   7.213   7.678  11.228  0.8853  0.4060  0.6436
  874MOL0     C20539   7.110   7.657  11.163 -0.2123  0.0645 -0.8568
  874MOL0     C20540   7.545   7.332  10.893 -0.0531  0.3082  0.8405
  874MOL0     C20541   7.455   7.296  10.785 -0.1139 -0.1618 -1.0138
  874MOL0     C20542   7.496   7.335  10.645 -0.5953  0.1692 -0.1143
  874MOL0     H20543   6.992   7.300  10.642  3.5540 -1.3980 -1.4080
  874MOL0     H20544   6.777   7.284  10.552  2.7430  0.3524 -0.9822
  874MOL0     H20545   6.597   6.851  10.485  0.4493 -0.1806 -1.1127
  874MOL0     H20546   6.452   6.946  10.453 -2.9323 -1.7825  3.4574
  874MOL0     H20547   6.578   6.918  10.729 -1.9585  1.2995  2.0983
  874MOL0     H20548   6.442   7.020  10.686 -1.5542 -0.9564 -1.0835
  874MOL0     H20549   6.333   6.830  10.752 -0.4520  1.9926 -0.4671
  874MOL0     H20550   6.328   6.827  10.571 -1.5778 -1.3640  0.9260
  874MOL0     H20551   6.508   6.667  10.574 -0.4531  0.9256 -0.5499
  874MOL0     H20552   6.503   6.668  10.755 -0.6385 -1.8608  0.2605
  874MOL0     H20553   6.269   6.604  10.580  1.6201  0.3462 -1.0264
  874MOL0     H20554   6.268   6.581  10.753  1.3622 -0.7559  2.2821
  874MOL0     H20555   6.435   6.389  10.718 -1.9310  3.3148  2.8423
  874MOL0     H20556   6.280   6.373  10.635 -0.4802 -1.6717 -4.2058
  874MOL0     H20557   6.468   6.293  10.510 -0.2034  0.5858  1.2861
  874MOL0     H20558   6.533   6.454  10.512 -1.4697  1.4773  3.4049
  874MOL0     H20559   6.262   6.373  10.369 -1.7162  2.5965  1.2056
  874MOL0     H20560   6.330   6.530  10.357  0.4087  0.2083  0.8705
  874MOL0     H20561   6.432   6.195  10.170  0.8075 -0.6406  2.0111
  874MOL0     H20562   6.727   6.183  10.029 -1.1830  0.8587  2.9334
  874MOL0     H20563   6.709   6.330   9.925  1.2173  1.0262  1.8233
  874MOL0     H20564   6.622   6.099   9.838  0.0706  0.9438 -0.2253
  874MOL0     H20565   6.518   6.097   9.979  2.8795 -2.2562 -0.1052
  874MOL0     H20566   6.383   6.296   9.905  0.2762  1.4172 -1.9041
  874MOL0     H20567   6.505   6.335   9.793 -0.7830  0.1319 -0.9397
  874MOL0     H20568   6.339   6.092   9.782  1.4208  0.0221  2.4741
  874MOL0     H20569   6.308   6.242   9.687  0.7535  1.5086 -0.2124
  874MOL0     H20570   6.582   6.092   9.411 -0.2084 -1.1256 -1.4257
  874MOL0     H20571   6.635   5.995   9.205 -0.6978  1.3390 -1.7624
  874MOL0     H20572   6.503   6.065   9.134  0.8342  0.4837 -0.2824
  874MOL0     H20573   6.525   5.882   9.144  2.3423 -0.7836  1.4219
  874MOL0     H20574   6.129   5.503   9.138  2.2832  4.1224  2.9405
  874MOL0     H20575   5.957   5.426   8.965 -0.5377  0.0061  2.4472
  874MOL0     H20576   5.594   5.577   8.822 -1.2959  1.2282  1.8940
  874MOL0     H20577   5.661   5.722   8.900 -1.3798 -0.5584  0.5871
  874MOL0     H20578   5.788   5.770   8.686 -0.3479  0.6411  1.6817
  874MOL0     H20579   5.706   5.615   8.627 -2.7114  2.4696 -2.3138
  874MOL0     H20580   5.550   5.852   8.739 -3.4883 -3.0762  0.2702
  874MOL0     H20581   5.486   5.714   8.663 -0.9024 -0.3584  1.7092
  874MOL0     H20582   5.532   5.789   8.439 -1.4995  2.2079 -2.9005
  874MOL0     H20583   5.664   5.898   8.503  1.2278 -0.3943  3.0084
  874MOL0     H20584   5.415   5.987   8.439 -1.9249 -1.3726  1.0905
  874MOL0     H20585   5.382   5.929   8.598 -1.4979 -0.4949 -2.6562
  874MOL0     H20586   5.590   6.146   8.511 -0.2456  2.4647  0.9230
  874MOL0     H20587   5.600   6.079   8.667  0.3459  0.8755 -0.8273
  874MOL0     H20588   5.380   6.204   8.720  1.9836  1.5935  1.2271
  874MOL0     H20589   5.334   6.181   8.549 -1.0283  0.9076  1.9844
  874MOL0     H20590   5.375   6.411   8.626  0.0652  2.3503 -4.1352
  874MOL0     H20591   5.460   6.373   8.485  0.2240  3.6493  1.2042
  874MOL0     H20592   5.829   5.834   8.931  2.6979 -0.9540 -5.1082
  874MOL0     H20593   5.969   5.909   9.097 -1.7205 -0.9058  3.2361
  874MOL0     H20594   6.174   5.829   9.468  1.6844 -1.6911 -1.9118
  874MOL0     H20595   6.238   5.984   9.646  2.0618 -0.0238  3.2617
  874MOL0     H20596   6.769   6.861  10.633 -0.9259  0.9410 -2.3301
  874MOL0     H20597   6.999   6.884  10.731  0.6658 -0.8316 -1.4867
  874MOL0     H20598   7.210   7.149  10.971  2.7095 -3.4163 -0.5341
  874MOL0     H20599   7.348   7.243  11.155  0.5664 -1.8220 -0.5507
  874MOL0     H20600   7.710   7.492  11.210 -0.9714 -0.9714  0.6544
  874MOL0     H20601   7.698   7.509  11.032 -1.8686 -1.0432 -1.3992
  874MOL0     H20602   7.482   7.615  11.052 -3.6257  0.1074  1.9368
  874MOL0     H20603   7.596   7.688  11.168  0.0129 -0.9198  1.3908
  874MOL0     H20604   7.367   7.500  11.228 -1.6764  1.8871 -0.2414
  874MOL0     H20605   7.505   7.556  11.345 -0.4364  1.4923 -0.8855
  874MOL0     H20606   7.402   7.785  11.263  1.0258 -0.7931  1.5344
  874MOL0     H20607   7.336   7.712  11.392 -1.1527  1.7012  0.1169
  874MOL0     H20608   7.035   7.635  11.090  0.4987 -0.2668 -1.5039
  874MOL0     H20609   7.642   7.374  10.866 -1.6019  3.2889 -0.6177
  874MOL0     H20610   7.423   7.401  10.597 -1.2983 -1.7108 -1.7627
  874MOL0     H20611   7.589   7.393  10.643 -1.5289  1.7119 -2.5451
  874MOL0     H20612   7.512   7.243  10.588 -2.0113  0.1090 -0.4391
  875MOL0     O20613   6.186   1.479   5.359 -0.2326  0.2169  0.2944
  875MOL0     C20614   6.232   1.584   5.313  0.5636 -0.4050  0.3520
  875MOL0     O20615   6.168   1.703   5.330  0.2512 -0.0920 -0.5119
  875MOL0     C20616   6.056   1.725   5.395  0.3277 -0.0722  0.3763
  875MOL0     C20617   5.950   1.791   5.335 -0.2426 -0.7226  0.1763
  875MOL0     C20618   5.830   1.816   5.415 -0.1403 -0.5539  0.1631
  875MOL0     C20619   5.826   1.785   5.552 -1.0781  0.0133  0.0480
  875MOL0     O20620   5.719   1.816   5.623  0.3774 -0.1483 -0.2968
  875MOL0     C20621   5.659   1.713   5.693  0.0677  0.6653 -0.3423
  875MOL0     C20622   5.505   1.755   5.688 -0.9293 -0.5318  0.4642
  875MOL0     C20623   5.420   1.657   5.762 -0.5461  0.0377 -0.0162
  875MOL0     C20624   5.337   1.564   5.666 -0.0899  0.6047  0.1070
  875MOL0     C20625   5.226   1.638   5.600  0.3692 -0.2930 -0.0191
  875MOL0     C20626   5.105   1.541   5.579  0.3847  0.4526  0.7967
  875MOL0     C20627   5.128   1.418   5.501  0.6469  0.2332 -1.0717
  875MOL0     C20628   5.007   1.323   5.498 -0.1358 -0.1744  1.5188
  875MOL0     N20629   4.891   1.392   5.438 -0.4789  0.1190  0.4292
  875MOL0     C20630   4.763   1.380   5.490  0.7576  0.0987 -0.3597
  875MOL0     C20631   4.685   1.466   5.417  0.2749 -0.1053  0.2728
  875MOL0     C20632   4.532   1.493   5.433 -0.5218 -0.3930 -0.2276
  875MOL0     C20633   4.437   1.369   5.445 -0.4381 -0.3463  0.2070
  875MOL0     C20634   4.473   1.267   5.551 -0.6725 -0.0301  0.8583
  875MOL0     C20635   4.352   1.177   5.584  0.7163 -0.0404  1.2013
  875MOL0     O20636   4.331   1.094   5.471 -0.4536  0.4617  0.3731
  875MOL0     C20637   4.244   0.988   5.480  1.0146  0.4783  0.0593
  875MOL0     C20638   4.241   0.883   5.388  0.1535  0.2029 -1.4877
  875MOL0     C20639   4.156   0.777   5.402 -0.0520 -0.0710 -0.0712
  875MOL0     C20640   4.180   0.659   5.304 -0.7580 -0.4569  0.0483
  875MOL0     C20641   4.064   0.765   5.506  0.6208 -0.1175 -0.8208
  875MOL0     C20642   3.969   0.653   5.530 -0.8990 -0.3092  0.6750
  875MOL0     O20643   3.854   0.678   5.599  1.3141  0.9998 -0.3146
  875MOL0     C20644   3.773   0.572   5.649 -0.2600  0.6207  0.1712
  875MOL0     C20645   3.706   0.594   5.771  1.0158 -0.9945 -0.2326
  875MOL0     C20646   3.635   0.499   5.842 -0.6465 -0.2577  1.1095
  875MOL0     C20647   3.614   0.368   5.783  0.4897 -0.6837 -0.1588
  875MOL0     O20648   3.515   0.291   5.846 -0.4656 -0.6068 -0.0002
  875MOL0     C20649   3.463   0.189   5.772  0.8733  0.5428 -0.1869
  875MOL0     C20650   3.538   0.064   5.747 -0.9263  0.3374 -0.6752
  875MOL0     C20651   3.456  -0.050   5.706 -0.6687  0.2260  0.2503
  875MOL0     C20652   3.421  -0.138   5.823  0.1434 -1.3305 -0.4179
  875MOL0     C20653   3.332  -0.257   5.775  0.1744 -0.1080  0.1432
  875MOL0     C20654   3.324  -0.360   5.886 -0.3510  0.4735 -0.8516
  875MOL0     C20655   3.257  -0.499   5.845 -0.3033 -0.1881 -0.2416
  875MOL0     C20656   3.109  -0.481   5.834  0.4991 -0.2642  0.5730
  875MOL0    Cl20657   3.010  -0.634   5.777 -0.0719 -0.2646 -0.3753
  875MOL0     C20658   3.676   0.342   5.657 -0.2927 -0.6551  0.0489
  875MOL0     C20659   3.756   0.439   5.590  0.2843 -0.7930  0.4804
  875MOL0     O20660   4.010   0.542   5.494 -0.0957  0.2117  0.2246
  875MOL0     C20661   4.057   0.875   5.592  1.1966 -0.5174  0.2066
  875MOL0     C20662   4.133   0.993   5.566 -0.4601  0.0899  0.1586
  875MOL0     N20663   4.766   1.525   5.326 -0.7958  0.5076 -0.1700
  875MOL0     N20664   4.884   1.473   5.327 -0.3568  0.2597 -0.0137
  875MOL0     C20665   5.936   1.716   5.609  0.0053 -0.0971 -0.4432
  875MOL0     C20666   6.051   1.686   5.529  0.7167 -0.6977 -1.2103
  875MOL0     C20667   6.360   1.588   5.236  0.6063  0.3580  0.4839
  875MOL0     C20668   6.405   1.703   5.166  0.0302  0.0699 -0.0724
  875MOL0     C20669   6.526   1.711   5.098 -0.0476 -0.1150 -0.4288
  875MOL0     C20670   6.600   1.599   5.083  0.6539 -0.1344  1.2696
  875MOL0     O20671   6.708   1.606   5.002  0.4050  0.5701  0.7057
  875MOL0     C20672   6.830   1.546   5.037  0.1967  0.6702  0.6892
  875MOL0     C20673   6.893   1.620   5.149 -0.6395 -0.2357  0.7338
  875MOL0     C20674   6.913   1.766   5.134 -0.3819 -0.0752 -0.0907
  875MOL0     C20675   6.976   1.794   4.988 -0.5792 -0.2746  0.0300
  875MOL0     C20676   7.110   1.747   4.971  0.1851 -0.3784  1.2313
  875MOL0     C20677   7.223   1.719   4.943  0.0159  0.5521  0.4902
  875MOL0     C20678   6.560   1.480   5.145  0.3284  0.0171 -1.0980
  875MOL0     C20679   6.444   1.473   5.223  0.0472  0.0773 -1.0870
  875MOL0     C20680   6.409   1.339   5.278 -0.5475 -0.4750 -0.5439
  875MOL0     H20681   5.941   1.821   5.230 -2.3439 -2.6021 -0.2407
  875MOL0     H20682   5.735   1.855   5.382 -0.5984 -1.9577 -0.2675
  875MOL0     H20683   5.686   1.705   5.799 -1.7007 -0.3912  0.0672
  875MOL0     H20684   5.666   1.619   5.637 -2.6323  1.5863 -2.4356
  875MOL0     H20685   5.507   1.856   5.732  0.7605 -0.1900 -0.2992
  875MOL0     H20686   5.458   1.764   5.590 -0.6556  0.6692  0.4251
  875MOL0     H20687   5.483   1.608   5.837 -2.2075  0.5120  1.7595
  875MOL0     H20688   5.366   1.723   5.830  1.2253 -0.1571  1.6523
  875MOL0     H20689   5.393   1.526   5.580  0.3410 -0.0519  0.6573
  875MOL0     H20690   5.316   1.475   5.727  2.2259 -0.1281 -0.0701
  875MOL0     H20691   5.260   1.687   5.509 -0.4829  0.7911  0.2203
  875MOL0     H20692   5.182   1.720   5.657 -1.7770  0.0375 -2.0241
  875MOL0     H20693   5.070   1.520   5.680 -1.3088 -0.0657  0.1489
  875MOL0     H20694   5.027   1.599   5.528 -1.2143 -2.5129 -0.3609
  875MOL0     H20695   5.220   1.366   5.529  0.3706 -0.8016 -1.9870
  875MOL0     H20696   5.141   1.440   5.394 -2.9250  3.7798 -0.9999
  875MOL0     H20697   5.025   1.239   5.431 -2.4408  2.0772 -2.2581
  875MOL0     H20698   4.993   1.289   5.601  1.8792 -1.5602  1.3964
  875MOL0     H20699   4.728   1.329   5.579  2.3659  1.1126  0.9176
  875MOL0     H20700   4.500   1.569   5.361 -2.7011  0.9762  2.0225
  875MOL0     H20701   4.519   1.555   5.522 -0.6454  2.7008 -2.2600
  875MOL0     H20702   4.336   1.403   5.472 -0.5613 -0.9675  0.5571
  875MOL0     H20703   4.427   1.317   5.349 -1.7998 -1.6799  1.0254
  875MOL0     H20704   4.556   1.205   5.517 -0.7471  0.0879  0.4530
  875MOL0     H20705   4.499   1.328   5.638  1.5584 -1.8362  1.5323
  875MOL0     H20706   4.380   1.116   5.671 -0.9259  0.1463  1.9071
  875MOL0     H20707   4.263   1.233   5.615  0.8039  0.5534  0.4207
  875MOL0     H20708   4.328   0.889   5.324  1.0820  1.6336 -0.1588
  875MOL0     H20709   4.085   0.613   5.276 -1.5228 -0.1604  2.0220
  875MOL0     H20710   4.237   0.587   5.364 -1.4012  0.7151  2.1757
  875MOL0     H20711   4.242   0.686   5.218  0.5247  0.8762  1.3223
  875MOL0     H20712   3.725   0.696   5.803  2.2401 -1.1051 -0.5485
  875MOL0     H20713   3.579   0.506   5.935  0.1681  1.1034  1.5286
  875MOL0     H20714   3.379   0.159   5.836 -0.2100  2.3589 -0.6756
  875MOL0     H20715   3.430   0.227   5.674  0.8625  1.5124  0.1777
  875MOL0     H20716   3.613   0.074   5.668  0.1734 -1.1813  0.1197
  875MOL0     H20717   3.593   0.036   5.837 -0.4077  1.8478 -0.4939
  875MOL0     H20718   3.518  -0.112   5.641 -1.4993  0.3130 -0.6398
  875MOL0     H20719   3.369  -0.014   5.651 -2.4885 -1.9403  1.5574
  875MOL0     H20720   3.366  -0.070   5.888 -1.1258 -2.0153 -0.7371
  875MOL0     H20721   3.510  -0.174   5.875  0.4548 -1.0266 -0.7279
  875MOL0     H20722   3.235  -0.227   5.735  0.2255 -0.1620 -0.0227
  875MOL0     H20723   3.391  -0.307   5.698  2.2233 -1.8947  2.7108
  875MOL0     H20724   3.292  -0.314   5.980  3.2976 -2.0880  1.9082
  875MOL0     H20725   3.427  -0.390   5.907 -0.0574 -0.4448 -3.2569
  875MOL0     H20726   3.278  -0.570   5.925  0.5304 -0.2177 -0.4752
  875MOL0     H20727   3.286  -0.542   5.748 -3.0304  0.8195 -1.6254
  875MOL0     H20728   3.080  -0.399   5.768 -0.7845  0.1191  1.5644
  875MOL0     H20729   3.070  -0.458   5.934 -0.4986  0.2254  0.0885
  875MOL0     H20730   3.678   0.247   5.604  1.6251 -0.4236 -0.3468
  875MOL0     H20731   3.793   0.407   5.493 -2.1410 -1.6011 -0.2404
  875MOL0     H20732   3.980   0.888   5.667  3.1131  1.6728  1.9644
  875MOL0     H20733   4.115   1.075   5.635  0.7163 -0.3858  1.0723
  875MOL0     H20734   5.931   1.696   5.715  1.1651  4.8318  0.8051
  875MOL0     H20735   6.127   1.635   5.588  3.8205  1.6835 -2.8858
  875MOL0     H20736   6.337   1.787   5.171  0.6171  0.5932 -0.5577
  875MOL0     H20737   6.541   1.811   5.058  0.9482 -0.5182 -1.1065
  875MOL0     H20738   6.825   1.440   5.064 -1.0061 -0.0431 -2.0121
  875MOL0     H20739   6.901   1.546   4.954 -2.3429  0.7576 -1.6300
  875MOL0     H20740   6.993   1.583   5.175  0.3293  0.6884 -1.4425
  875MOL0     H20741   6.840   1.595   5.242  3.1917 -3.2327  2.3932
  875MOL0     H20742   6.822   1.824   5.151 -0.4230  0.1572 -1.0533
  875MOL0     H20743   6.989   1.796   5.207  1.1978  2.0492 -2.4543
  875MOL0     H20744   6.965   1.903   4.980 -1.7318 -0.0747  2.9781
  875MOL0     H20745   6.912   1.754   4.908 -0.1627 -0.9380  0.0274
  875MOL0     H20746   7.328   1.700   4.948 -0.5241 -3.2825  0.3299
  875MOL0     H20747   6.620   1.393   5.125 -1.2435 -0.6470 -3.3569
  875MOL0     H20748   6.432   1.334   5.385  0.1576  0.2212 -0.6545
  875MOL0     H20749   6.305   1.306   5.274 -0.5621 -0.3573 -1.3018
  875MOL0     H20750   6.462   1.256   5.232 -2.1122 -2.9922  1.8960
  876MOL0     O20751   4.034   8.584   8.246 -0.0587  0.2988 -0.3073
  876MOL0     C20752   4.139   8.533   8.219 -0.1044  0.2572 -0.5461
  876MOL0     O20753   4.179   8.504   8.094  0.4072 -0.1318 -0.4231
  876MOL0     C20754   4.071   8.479   8.009  0.7817  0.1252 -0.0895
  876MOL0     C20755   3.988   8.363   8.034  0.0931  0.4841  0.1512
  876MOL0     C20756   3.865   8.355   7.971  0.1724 -0.1786 -0.2411
  876MOL0     C20757   3.819   8.452   7.888 -0.3504 -0.4420 -0.2973
  876MOL0     O20758   3.689   8.433   7.835 -0.5609  0.7348  0.0829
  876MOL0     C20759   3.666   8.454   7.697 -0.1073  0.8276  0.2136
  876MOL0     C20760   3.579   8.587   7.696 -0.1270 -0.2676 -0.5183
  876MOL0     C20761   3.556   8.623   7.552 -0.0323 -0.1939  0.3309
  876MOL0     C20762   3.453   8.733   7.530  0.0121  0.2966 -0.8774
  876MOL0     C20763   3.327   8.667   7.484  0.1995  0.9822 -0.4623
  876MOL0     C20764   3.234   8.774   7.425  0.3409  0.2340 -0.8299
  876MOL0     C20765   3.130   8.795   7.538  0.0580 -0.2744  0.1559
  876MOL0     C20766   3.020   8.886   7.503 -0.2806 -0.5262  0.1214
  876MOL0     N20767   2.938   8.949   7.604 -0.1290  0.5676 -0.1130
  876MOL0     C20768   2.906   9.085   7.617 -0.3011 -0.5574  0.6953
  876MOL0     C20769   2.853   9.095   7.742  0.3808 -0.0303 -0.2622
  876MOL0     C20770   2.799   9.213   7.807  0.5307 -0.6583 -0.6397
  876MOL0     C20771   2.906   9.297   7.878  0.1576 -0.1596 -0.1052
  876MOL0     C20772   2.836   9.416   7.949 -0.5419  0.7502 -0.5846
  876MOL0     C20773   2.911   9.471   8.074  0.2243  0.5126  0.6605
  876MOL0     O20774   2.927   9.369   8.176  0.3301  0.0493 -1.2796
  876MOL0     C20775   2.966   9.413   8.296 -0.4862  0.0787  0.2508
  876MOL0     C20776   2.895   9.504   8.371  0.2936  1.1205  0.2203
  876MOL0     C20777   2.952   9.555   8.493  0.0423  0.0373  1.0253
  876MOL0     C20778   2.864   9.657   8.567  0.2781 -0.3740  0.2774
  876MOL0     C20779   3.082   9.518   8.537  0.4609  0.6374 -0.1511
  876MOL0     C20780   3.164   9.560   8.666  0.0062 -0.0553  0.6660
  876MOL0     O20781   3.276   9.494   8.696 -0.7203  0.6829 -0.0768
  876MOL0     C20782   3.325   9.485   8.826  0.6773  0.5355 -0.2702
  876MOL0     C20783   3.245   9.445   8.935  0.2688 -0.2913 -0.3258
  876MOL0     C20784   3.304   9.407   9.052  0.2470 -0.3547 -0.1975
  876MOL0     C20785   3.445   9.386   9.068 -0.2905  0.2439 -0.2703
  876MOL0     O20786   3.522   9.373   9.181  0.0952 -0.0242 -0.3131
  876MOL0     C20787   3.456   9.402   9.300 -1.5901  0.6599  0.5303
  876MOL0     C20788   3.527   9.318   9.407 -0.1876  0.7441 -0.6878
  876MOL0     C20789   3.626   9.398   9.499 -0.0099 -0.4693 -0.6861
  876MOL0     C20790   3.684   9.284   9.599  0.6936 -1.0226  0.2198
  876MOL0     C20791   3.788   9.186   9.531  0.1839  0.4645 -0.5282
  876MOL0     C20792   3.847   9.082   9.627 -0.5112 -0.1550  0.2304
  876MOL0     C20793   3.972   9.144   9.694 -0.3932  0.2312  0.1631
  876MOL0     C20794   4.024   9.059   9.817 -0.1492  0.3647 -0.1414
  876MOL0    Cl20795   4.043   8.882   9.787 -0.1084  0.5191  0.0185
  876MOL0     C20796   3.524   9.408   8.949 -0.6952  0.1317 -1.2606
  876MOL0     C20797   3.468   9.465   8.836  0.3452  0.8923  0.6419
  876MOL0     O20798   3.131   9.664   8.722 -0.6643  0.0202 -0.0721
  876MOL0     C20799   3.151   9.416   8.454 -0.9452  0.8245 -1.2402
  876MOL0     C20800   3.093   9.373   8.331  0.7667 -0.6661 -0.1567
  876MOL0     N20801   2.847   8.974   7.809  0.3893 -0.0915  0.8672
  876MOL0     N20802   2.894   8.881   7.724 -0.1374  0.0566 -0.1063
  876MOL0     C20803   3.905   8.562   7.860  0.4650  0.1092  0.7064
  876MOL0     C20804   4.022   8.584   7.925 -0.1854  0.1822  0.0671
  876MOL0     C20805   4.238   8.530   8.333  0.3162 -0.2553 -0.5749
  876MOL0     C20806   4.376   8.514   8.302  0.1575  0.4099 -0.1464
  876MOL0     C20807   4.467   8.497   8.407 -0.1267 -0.2247  0.3357
  876MOL0     C20808   4.436   8.502   8.536 -0.1272 -0.2524 -0.1161
  876MOL0     O20809   4.535   8.502   8.630 -0.2001  0.2023  0.7848
  876MOL0     C20810   4.491   8.478   8.760 -0.4148 -0.4143 -0.5592
  876MOL0     C20811   4.627   8.469   8.838 -1.6090 -0.7973 -0.5110
  876MOL0     C20812   4.719   8.594   8.845  0.9550  1.1606  0.5972
  876MOL0     C20813   4.848   8.533   8.895 -0.3248 -0.3454  0.0469
  876MOL0     C20814   4.950   8.640   8.910 -0.3167  0.0249  0.6049
  876MOL0     C20815   5.047   8.705   8.936  1.5939  0.3972 -0.0597
  876MOL0     C20816   4.299   8.520   8.569 -0.5222  0.8286 -0.7156
  876MOL0     C20817   4.198   8.538   8.473  0.3596  0.0561 -0.0659
  876MOL0     C20818   4.053   8.536   8.525  0.1646 -0.9101  0.5280
  876MOL0     H20819   4.023   8.289   8.106  3.3428  0.6648 -1.0832
  876MOL0     H20820   3.805   8.272   8.005 -1.5157  1.2354  0.3381
  876MOL0     H20821   3.600   8.372   7.666 -0.4696 -0.4299  3.8500
  876MOL0     H20822   3.756   8.462   7.635 -0.3207 -0.1476 -0.2362
  876MOL0     H20823   3.484   8.574   7.748 -1.8722 -0.7484 -3.6079
  876MOL0     H20824   3.648   8.658   7.743  3.2642 -2.2857 -2.0990
  876MOL0     H20825   3.653   8.662   7.521 -0.7484  1.3126 -0.0950
  876MOL0     H20826   3.531   8.532   7.496 -1.6544  0.7406 -0.5257
  876MOL0     H20827   3.429   8.784   7.623 -0.4152  1.5686 -1.6583
  876MOL0     H20828   3.499   8.804   7.460  0.9702  1.3208  0.7416
  876MOL0     H20829   3.284   8.597   7.556 -0.4550 -0.3625 -2.0948
  876MOL0     H20830   3.345   8.602   7.398  0.8430 -0.8649  1.0044
  876MOL0     H20831   3.292   8.865   7.405 -1.9530  1.3689 -2.7071
  876MOL0     H20832   3.180   8.736   7.338  0.3937  1.0629 -1.2360
  876MOL0     H20833   3.172   8.825   7.634 -1.2583  0.6219  0.4705
  876MOL0     H20834   3.076   8.700   7.544 -2.3390  0.9370 -0.7844
  876MOL0     H20835   3.068   8.961   7.439  0.8532 -1.5845 -0.2968
  876MOL0     H20836   2.949   8.827   7.444 -1.2148  0.7062 -0.0492
  876MOL0     H20837   2.915   9.157   7.535  1.1454 -1.3929  0.0800
  876MOL0     H20838   2.728   9.175   7.881 -1.8399  1.3267 -1.7453
  876MOL0     H20839   2.747   9.272   7.731  0.0480 -0.8972 -0.4988
  876MOL0     H20840   2.961   9.240   7.954  0.9916  1.5955  0.6504
  876MOL0     H20841   2.973   9.338   7.802 -1.0218 -0.8196 -1.5531
  876MOL0     H20842   2.826   9.503   7.884 -1.0828  0.4122 -0.9656
  876MOL0     H20843   2.738   9.383   7.985  0.5745 -1.3052  0.7401
  876MOL0     H20844   3.010   9.501   8.039 -0.5048  2.0480 -0.1638
  876MOL0     H20845   2.857   9.559   8.111  0.7850  1.0448  0.2249
  876MOL0     H20846   2.806   9.547   8.327 -0.4058 -2.6921 -2.5848
  876MOL0     H20847   2.853   9.628   8.672  1.9958 -0.5917  0.4327
  876MOL0     H20848   2.769   9.662   8.513  0.7232 -0.4540 -0.5271
  876MOL0     H20849   2.914   9.754   8.576  0.3291 -0.5119  1.8505
  876MOL0     H20850   3.137   9.451   8.937  0.1006 -0.7790  4.8737
  876MOL0     H20851   3.239   9.380   9.134 -0.3355  0.2894 -0.4361
  876MOL0     H20852   3.476   9.505   9.332  2.4835 -0.2431  1.3921
  876MOL0     H20853   3.348   9.386   9.304 -1.7943  1.7438 -0.1053
  876MOL0     H20854   3.456   9.282   9.482  0.5303 -0.0469 -0.3756
  876MOL0     H20855   3.578   9.232   9.362  2.0208  0.3000  2.3941
  876MOL0     H20856   3.576   9.484   9.543 -0.8010 -0.4116 -1.6714
  876MOL0     H20857   3.702   9.432   9.428 -1.2997  0.1605 -1.8082
  876MOL0     H20858   3.605   9.219   9.637 -1.4732  0.6978 -1.1080
  876MOL0     H20859   3.744   9.332   9.677  1.0281 -0.8793 -0.1260
  876MOL0     H20860   3.743   9.118   9.458  0.5235 -1.1068  0.6860
  876MOL0     H20861   3.867   9.229   9.468  2.9856 -3.3771  0.0125
  876MOL0     H20862   3.876   8.995   9.567 -1.5425 -0.1324 -0.3333
  876MOL0     H20863   3.771   9.044   9.696 -0.9320 -1.9978 -1.1698
  876MOL0     H20864   3.949   9.241   9.738 -3.3922 -0.7887  1.0691
  876MOL0     H20865   4.055   9.146   9.623  0.1248 -2.3945  0.5771
  876MOL0     H20866   3.955   9.071   9.900  0.3633  3.2616 -0.0136
  876MOL0     H20867   4.114   9.114   9.846 -0.0743  0.4772 -0.5695
  876MOL0     H20868   3.627   9.376   8.961 -1.1185 -0.6371  0.5357
  876MOL0     H20869   3.521   9.489   8.744 -0.0809  4.3993  1.1755
  876MOL0     H20870   3.247   9.371   8.476  0.5107  4.6456  1.1372
  876MOL0     H20871   3.127   9.298   8.261 -0.1727  0.4592 -1.8836
  876MOL0     H20872   3.874   8.631   7.782  3.2262  2.0189  1.1356
  876MOL0     H20873   4.077   8.676   7.912  1.8739 -0.3702  3.5527
  876MOL0     H20874   4.415   8.502   8.201 -0.3337  0.6533 -0.3674
  876MOL0     H20875   4.570   8.486   8.374 -0.4196  0.5071 -0.8893
  876MOL0     H20876   4.439   8.566   8.800  1.8455 -0.0296  1.8299
  876MOL0     H20877   4.440   8.381   8.756 -4.1694  1.3863 -1.4441
  876MOL0     H20878   4.690   8.382   8.816 -2.1600 -1.4457  0.3890
  876MOL0     H20879   4.603   8.434   8.939  0.7768 -1.8757 -0.2437
  876MOL0     H20880   4.747   8.631   8.746  1.3168  1.4291  0.7987
  876MOL0     H20881   4.681   8.669   8.914  1.4292 -0.0193  2.1861
  876MOL0     H20882   4.897   8.463   8.827 -0.9052  0.8261 -1.6271
  876MOL0     H20883   4.833   8.471   8.984  1.7979 -1.2570 -0.1701
  876MOL0     H20884   5.141   8.752   8.955  1.7205  0.3045 -0.4491
  876MOL0     H20885   4.272   8.517   8.674  0.7686 -4.0286 -0.2834
  876MOL0     H20886   4.055   8.538   8.635  1.1441 -1.6253  0.5431
  876MOL0     H20887   4.000   8.619   8.479 -2.0110 -2.9798 -0.8843
  876MOL0     H20888   4.013   8.438   8.498  1.3408 -1.3792  0.4258
  877MOL0     O20889  11.071   4.589   9.695  0.2947  0.0428  0.1771
  877MOL0     C20890  11.052   4.701   9.661  0.1875  0.1799 -0.2873
  877MOL0     O20891  10.948   4.775   9.708 -0.3287 -0.2231  0.4631
  877MOL0     C20892  10.911   4.758   9.846 -0.0220 -0.5276  0.4677
  877MOL0     C20893  11.002   4.728   9.953 -0.2753 -0.6517  0.2479
  877MOL0     C20894  10.956   4.700  10.089 -0.2702 -0.5693  0.1874
  877MOL0     C20895  10.818   4.718  10.123 -0.1361  0.4735 -0.1082
  877MOL0     O20896  10.796   4.700  10.256  0.1401  1.5607  0.0168
  877MOL0     C20897  10.664   4.739  10.311 -0.1801  0.5020  0.4536
  877MOL0     C20898  10.675   4.899  10.316  0.3022 -0.3194  0.8297
  877MOL0     C20899  10.551   4.968  10.375 -0.6514  0.1587 -0.4307
  877MOL0     C20900  10.503   4.911  10.509  0.9215  1.0013 -0.0864
  877MOL0     C20901  10.405   5.020  10.567 -0.5434 -0.2198  0.4534
  877MOL0     C20902  10.350   4.963  10.695  0.6437  0.2482 -0.8816
  877MOL0     C20903  10.277   5.072  10.778  0.7525 -0.2726 -0.4088
  877MOL0     C20904  10.391   5.139  10.855  0.8604  0.4789 -0.2553
  877MOL0     N20905  10.389   5.099  10.991  0.3147  0.0887  0.1319
  877MOL0     C20906  10.419   4.968  11.045 -0.0756  0.2094 -0.1502
  877MOL0     C20907  10.389   4.980  11.176  0.0079 -0.4256  0.1782
  877MOL0     C20908  10.402   4.864  11.269 -0.7166  0.1313 -0.5885
  877MOL0     C20909  10.269   4.785  11.263 -0.5260 -0.3780 -0.5503
  877MOL0     C20910  10.263   4.658  11.344 -0.1961  0.1474  0.8999
  877MOL0     C20911  10.319   4.664  11.485  0.5608  0.4570  0.7076
  877MOL0     O20912  10.315   4.542  11.558  0.1914 -0.5466  0.2864
  877MOL0     C20913  10.193   4.491  11.597 -0.4687 -0.5087  0.3142
  877MOL0     C20914  10.067   4.557  11.599  0.8946 -0.9441 -0.0967
  877MOL0     C20915   9.955   4.492  11.656  0.5663 -0.6268 -0.2527
  877MOL0     C20916   9.831   4.578  11.647  0.4080 -0.5001 -0.0694
  877MOL0     C20917   9.959   4.357  11.708 -0.2542  0.3184  0.8595
  877MOL0     C20918   9.847   4.272  11.771  0.0435 -0.4972 -0.0055
  877MOL0     O20919   9.866   4.143  11.803 -0.2662  0.6836 -0.0057
  877MOL0     C20920   9.770   4.079  11.875  0.6216 -0.4873 -0.8269
  877MOL0     C20921   9.764   4.088  12.016  0.3204 -0.7373 -0.9168
  877MOL0     C20922   9.661   4.025  12.085  0.2488  0.0838 -0.5235
  877MOL0     C20923   9.568   3.937  12.027  0.8783 -0.2179 -0.2339
  877MOL0     O20924   9.448   3.901  12.090 -0.1687  0.4098 -0.2473
  877MOL0     C20925   9.436   3.936  12.223 -0.0246  0.3981  0.3641
  877MOL0     C20926   9.296   3.899  12.275 -0.0576 -1.2885  0.1555
  877MOL0     C20927   9.299   3.877  12.428 -0.8772  0.4190  0.1622
  877MOL0     C20928   9.349   3.736  12.460 -0.1465  1.4750 -0.2472
  877MOL0     C20929   9.311   3.710  12.611  0.2295 -0.2816  0.0830
  877MOL0     C20930   9.354   3.559  12.643 -1.3379 -0.9689 -0.4428
  877MOL0     C20931   9.359   3.529  12.793 -0.2894 -0.0745  0.0083
  877MOL0     C20932   9.500   3.511  12.846  0.1837 -0.3995 -0.7710
  877MOL0    Cl20933   9.474   3.494  13.032  0.0844 -0.0216 -0.0032
  877MOL0     C20934   9.577   3.912  11.885 -0.1060 -0.3548  0.2296
  877MOL0     C20935   9.679   3.988  11.819 -0.1120 -0.3467 -0.2109
  877MOL0     O20936   9.740   4.335  11.790 -0.2672  0.4955 -0.6119
  877MOL0     C20937  10.085   4.298  11.702 -1.2822 -0.3201 -0.2414
  877MOL0     C20938  10.198   4.365  11.655  0.5250 -0.3108 -0.6379
  877MOL0     N20939  10.343   5.104  11.204  0.3107  0.2352  1.0288
  877MOL0     N20940  10.347   5.172  11.098 -0.4396 -0.2056 -0.6104
  877MOL0     C20941  10.733   4.764  10.017  0.3978 -0.1165  0.0311
  877MOL0     C20942  10.773   4.781   9.889 -0.0299  0.7831 -0.2087
  877MOL0     C20943  11.152   4.758   9.562  0.0228  0.2117 -0.1820
  877MOL0     C20944  11.288   4.735   9.594 -0.1430 -1.1745 -0.5658
  877MOL0     C20945  11.391   4.800   9.522  0.8871 -0.6998 -0.0730
  877MOL0     C20946  11.356   4.888   9.422 -0.0009  0.2585 -0.9899
  877MOL0     O20947  11.451   4.941   9.338  0.6945 -0.1868  0.3225
  877MOL0     C20948  11.591   4.929   9.364  0.7063  0.0820  0.1146
  877MOL0     C20949  11.653   5.018   9.248  0.0055  0.2583  0.4898
  877MOL0     C20950  11.808   5.010   9.257  0.9363 -0.1184 -0.6831
  877MOL0     C20951  11.868   5.071   9.381  0.3235  0.4806  0.2661
  877MOL0     C20952  12.006   5.027   9.402  0.4218  1.1505  0.4162
  877MOL0     C20953  12.112   4.988   9.439 -0.5127  0.1197  0.8746
  877MOL0     C20954  11.225   4.899   9.380  1.0250  0.4845 -0.5673
  877MOL0     C20955  11.115   4.844   9.456 -1.2795  0.4671 -1.0176
  877MOL0     C20956  10.974   4.878   9.421 -0.8143 -0.2507 -0.7193
  877MOL0     H20957  11.109   4.715   9.940 -0.6249 -2.3527 -1.3965
  877MOL0     H20958  11.029   4.681  10.167 -0.1023  1.1215  0.4707
  877MOL0     H20959  10.655   4.679  10.403  1.5307 -2.4877 -1.1892
  877MOL0     H20960  10.581   4.714  10.245  0.3257 -0.0541  0.0209
  877MOL0     H20961  10.760   4.937  10.372 -0.0855  0.5283  0.8694
  877MOL0     H20962  10.701   4.939  10.217  2.4900 -0.7567  1.1797
  877MOL0     H20963  10.568   5.075  10.391 -2.8360  0.3260  1.2841
  877MOL0     H20964  10.470   4.962  10.301 -0.1797  0.7381 -1.0011
  877MOL0     H20965  10.446   4.819  10.491  3.8387 -0.7000 -1.2209
  877MOL0     H20966  10.586   4.887  10.575 -1.0211  1.0615  2.5466
  877MOL0     H20967  10.329   5.060  10.499 -0.9047 -2.7145 -0.7266
  877MOL0     H20968  10.469   5.103  10.599 -0.6780 -1.1299  3.4027
  877MOL0     H20969  10.277   4.889  10.663 -0.7768  0.6074  1.3479
  877MOL0     H20970  10.422   4.911  10.759 -1.3680 -2.0955 -0.3876
  877MOL0     H20971  10.208   5.028  10.851  0.1757 -1.1105 -1.4408
  877MOL0     H20972  10.222   5.145  10.718  1.8119  1.3113  0.4885
  877MOL0     H20973  10.485   5.107  10.809 -0.5112 -1.0866 -2.1620
  877MOL0     H20974  10.382   5.248  10.850 -2.9474  0.2957 -0.0371
  877MOL0     H20975  10.468   4.883  10.999  1.7850  1.2533 -0.2236
  877MOL0     H20976  10.424   4.906  11.367 -1.4678  0.5110 -0.5779
  877MOL0     H20977  10.483   4.803  11.227 -1.0117  0.7474 -2.1415
  877MOL0     H20978  10.194   4.858  11.294  0.6696  1.7981 -2.5111
  877MOL0     H20979  10.252   4.762  11.158  0.0804  3.1664 -1.5329
  877MOL0     H20980  10.165   4.611  11.333 -0.0795  0.1893 -0.5153
  877MOL0     H20981  10.322   4.580  11.296  0.6246  0.0426  2.0381
  877MOL0     H20982  10.427   4.676  11.477  0.7697 -1.8255 -0.9441
  877MOL0     H20983  10.269   4.732  11.555  2.0054 -0.8013  3.0895
  877MOL0     H20984  10.063   4.662  11.573  1.2556 -1.0309 -0.5121
  877MOL0     H20985   9.847   4.671  11.592  0.3082 -1.6375 -2.1209
  877MOL0     H20986   9.794   4.597  11.748 -0.4072 -3.1384  0.2169
  877MOL0     H20987   9.744   4.533  11.599  0.9802 -0.7349 -0.9219
  877MOL0     H20988   9.840   4.138  12.074 -0.1625 -1.1038  0.0558
  877MOL0     H20989   9.656   4.060  12.188 -2.0066 -1.0046 -0.1929
  877MOL0     H20990   9.523   3.900  12.278  1.3667  2.0622 -0.6391
  877MOL0     H20991   9.443   4.045  12.230 -0.0845  0.3818  0.6946
  877MOL0     H20992   9.229   3.982  12.251  1.3330 -0.4046 -0.8178
  877MOL0     H20993   9.264   3.805  12.229 -1.6257 -1.7111  1.9702
  877MOL0     H20994   9.204   3.895  12.479 -0.2189 -1.1379  2.0676
  877MOL0     H20995   9.363   3.955  12.472 -0.6393  1.3210 -1.7042
  877MOL0     H20996   9.456   3.726  12.444 -0.0433 -0.8291  1.4003
  877MOL0     H20997   9.293   3.658  12.407 -2.8765  2.5821  0.8229
  877MOL0     H20998   9.360   3.782  12.677  1.1217 -1.7188  1.0614
  877MOL0     H20999   9.203   3.717  12.626  0.3577  0.9994  0.4450
  877MOL0     H21000   9.452   3.540  12.598 -0.3029  0.4678  1.0973
  877MOL0     H21001   9.297   3.485  12.585 -0.9541 -1.0800 -0.6778
  877MOL0     H21002   9.310   3.434  12.815  3.0932 -2.0901 -0.4379
  877MOL0     H21003   9.296   3.602  12.845 -3.7101 -3.1153  0.5577
  877MOL0     H21004   9.546   3.610  12.837 -1.4443  0.6481  1.4775
  877MOL0     H21005   9.556   3.431  12.798 -0.3347 -0.7934 -0.7255
  877MOL0     H21006   9.497   3.873  11.824 -2.4931  0.7990  2.4034
  877MOL0     H21007   9.694   3.981  11.712  2.3681  1.5795 -0.1050
  877MOL0     H21008  10.107   4.208  11.759  1.1989  2.0611  2.9941
  877MOL0     H21009  10.298   4.325  11.668  0.9950  1.2034  0.8393
  877MOL0     H21010  10.626   4.778  10.027  0.2810 -0.1567 -1.0534
  877MOL0     H21011  10.698   4.801   9.813  0.0713  0.8559 -0.2912
  877MOL0     H21012  11.327   4.660   9.662  2.3028 -1.5018 -2.1699
  877MOL0     H21013  11.494   4.782   9.550  0.4681  0.0909  2.1416
  877MOL0     H21014  11.617   4.969   9.463 -0.3452 -0.8883  0.8076
  877MOL0     H21015  11.643   4.834   9.346  2.3865  1.3958 -2.6134
  877MOL0     H21016  11.632   5.122   9.274  0.3436 -0.2057  2.8690
  877MOL0     H21017  11.603   4.999   9.153  0.3622  0.0241  0.3437
  877MOL0     H21018  11.843   4.907   9.245  2.1403  0.3226 -1.2118
  877MOL0     H21019  11.845   5.049   9.162 -0.5748  1.4927 -0.6514
  877MOL0     H21020  11.823   5.035   9.473 -0.5658 -0.0066 -0.3456
  877MOL0     H21021  11.872   5.180   9.372  2.9624  0.4397  0.1247
  877MOL0     H21022  12.206   4.963   9.482  1.6796  5.2994 -0.1244
  877MOL0     H21023  11.214   4.963   9.293  2.6505  0.4684 -0.8147
  877MOL0     H21024  10.968   4.934   9.327  0.1795  1.2053  0.0486
  877MOL0     H21025  10.914   4.790   9.396 -1.6365  0.2348 -0.4797
  877MOL0     H21026  10.929   4.940   9.498  1.6095  0.5128  0.1714
  878MOL0     O21027   9.567   1.270   8.545  0.2342 -0.2944  0.6776
  878MOL0     C21028   9.458   1.325   8.523  0.4813 -0.4078  0.3670
  878MOL0     O21029   9.429   1.386   8.402  0.2638  0.4490 -0.1201
  878MOL0     C21030   9.510   1.478   8.351  0.1061  0.1116  1.2129
  878MOL0     C21031   9.606   1.557   8.423  0.3960  0.5897 -0.1698
  878MOL0     C21032   9.695   1.641   8.361 -0.9480 -0.9802  0.7369
  878MOL0     C21033   9.687   1.665   8.220 -0.8097 -0.3732 -0.2014
  878MOL0     O21034   9.768   1.744   8.142  0.4878 -0.3858 -0.8454
  878MOL0     C21035   9.770   1.877   8.177  0.3928  0.1843  0.3316
  878MOL0     C21036   9.910   1.912   8.214  0.3680 -0.8367 -0.8162
  878MOL0     C21037  10.002   1.897   8.095 -1.1779  0.6622  0.2912
  878MOL0     C21038  10.132   1.962   8.134  0.6559  0.2510 -0.1561
  878MOL0     C21039  10.244   1.963   8.027 -0.3937 -0.1294 -0.4702
  878MOL0     C21040  10.386   2.006   8.064  0.5508 -0.6836 -1.0345
  878MOL0     C21041  10.472   2.058   7.941 -0.1905 -0.2304  1.2426
  878MOL0     C21042  10.590   2.148   7.978  0.0607  0.2999 -1.0392
  878MOL0     N21043  10.674   2.187   7.861  0.0648  0.1094 -0.0758
  878MOL0     C21044  10.759   2.111   7.786  0.0838  1.0293  0.3422
  878MOL0     C21045  10.818   2.191   7.697  1.1796  0.3570  0.0574
  878MOL0     C21046  10.909   2.137   7.598 -0.7003  0.1583  0.1783
  878MOL0     C21047  10.908   2.219   7.473 -0.0699 -0.2588  0.0466
  878MOL0     C21048  11.026   2.176   7.379 -1.5557 -0.2341 -0.8163
  878MOL0     C21049  11.068   2.027   7.365  1.0144 -0.4565 -0.4152
  878MOL0     O21050  11.104   2.006   7.228  0.1802  0.1249  0.6197
  878MOL0     C21051  11.147   1.881   7.188  0.1016  0.2484 -0.6408
  878MOL0     C21052  11.183   1.862   7.051  0.0161 -0.1720  0.3098
  878MOL0     C21053  11.214   1.742   7.001 -0.6779 -0.6414 -0.8479
  878MOL0     C21054  11.254   1.746   6.855 -0.2079 -0.5359  0.6473
  878MOL0     C21055  11.187   1.630   7.080  0.1067  0.0649  0.2361
  878MOL0     C21056  11.209   1.497   7.021  0.6088 -0.4464 -0.0437
  878MOL0     O21057  11.176   1.474   6.889 -0.4766  0.5617  0.0985
  878MOL0     C21058  11.226   1.375   6.806  0.2310 -0.0771 -0.4121
  878MOL0     C21059  11.229   1.242   6.843 -0.8858  0.5823 -0.0454
  878MOL0     C21060  11.275   1.148   6.753  1.4808  0.2727  0.1286
  878MOL0     C21061  11.333   1.179   6.639  0.3707  0.2312  0.1637
  878MOL0     O21062  11.395   1.098   6.548  0.0019 -0.7023  0.1169
  878MOL0     C21063  11.345   0.961   6.543 -0.1878  0.1898 -0.8549
  878MOL0     C21064  11.446   0.886   6.454  1.1995 -0.7923  0.5147
  878MOL0     C21065  11.405   0.741   6.412  0.4170 -0.6889 -0.3906
  878MOL0     C21066  11.493   0.697   6.298  0.9487 -0.5531  0.0484
  878MOL0     C21067  11.463   0.555   6.250  0.5175  0.2154 -0.4609
  878MOL0     C21068  11.508   0.523   6.112 -0.3074 -0.5745 -0.6410
  878MOL0     C21069  11.449   0.607   6.000  1.7057 -0.6058 -0.4669
  878MOL0     C21070  11.463   0.525   5.882  0.4626 -0.2582 -0.0419
  878MOL0    Cl21071  11.365   0.588   5.757 -0.1127 -0.2759 -0.1612
  878MOL0     C21072  11.336   1.313   6.610 -0.6577 -0.3693  0.4958
  878MOL0     C21073  11.293   1.413   6.687  1.8307 -0.9062  0.4374
  878MOL0     O21074  11.262   1.413   7.099 -0.7070 -0.5717  0.1346
  878MOL0     C21075  11.151   1.649   7.214 -0.4018  0.1877  0.4576
  878MOL0     C21076  11.134   1.767   7.264  0.5549 -0.2988 -1.0404
  878MOL0     N21077  10.781   2.324   7.733 -0.3257 -0.2102 -0.1812
  878MOL0     N21078  10.691   2.310   7.820  0.0187  0.2115 -0.0101
  878MOL0     C21079   9.588   1.589   8.155 -0.1237 -0.4174  0.4424
  878MOL0     C21080   9.499   1.500   8.215 -0.3284  0.5505  0.2776
  878MOL0     C21081   9.362   1.313   8.636 -0.6153 -0.0000 -0.2822
  878MOL0     C21082   9.237   1.275   8.596 -0.2810  0.6063 -1.0295
  878MOL0     C21083   9.149   1.231   8.694 -0.0013  0.3734  0.4691
  878MOL0     C21084   9.181   1.236   8.828  0.7857  0.6910  0.2161
  878MOL0     O21085   9.083   1.197   8.917  0.3202 -0.2373 -0.6550
  878MOL0     C21086   8.981   1.293   8.938  0.3852 -0.7689  0.4788
  878MOL0     C21087   8.922   1.269   9.077  0.4243 -0.1700  0.4711
  878MOL0     C21088   8.878   1.127   9.111 -0.8635 -1.4274 -0.1032
  878MOL0     C21089   8.796   1.055   9.003  0.0667  0.0027 -0.5003
  878MOL0     C21090   8.668   1.128   8.995  0.4551  0.2242 -0.1030
  878MOL0     C21091   8.548   1.157   8.997  0.3252  0.1345 -0.1205
  878MOL0     C21092   9.300   1.280   8.868  0.3187 -0.1996 -0.7986
  878MOL0     C21093   9.395   1.321   8.775 -0.2628  0.3167  1.4646
  878MOL0     C21094   9.526   1.378   8.819  0.3563 -0.5985  0.0748
  878MOL0     H21095   9.621   1.550   8.530  0.3852  0.3681 -0.1832
  878MOL0     H21096   9.773   1.691   8.417 -0.8912  0.4630 -0.5744
  878MOL0     H21097   9.704   1.906   8.260 -0.4297  0.5717 -0.4439
  878MOL0     H21098   9.737   1.940   8.095 -1.8301  0.1853  1.1587
  878MOL0     H21099   9.915   2.017   8.246 -0.1127 -1.0419 -0.0397
  878MOL0     H21100   9.950   1.843   8.289  2.1873 -1.5178 -2.3235
  878MOL0     H21101  10.015   1.789   8.082 -4.0909  0.0773  1.6361
  878MOL0     H21102   9.976   1.936   7.996  0.9363 -0.9300 -0.9808
  878MOL0     H21103  10.110   2.068   8.148 -0.8947 -0.0684 -0.0238
  878MOL0     H21104  10.156   1.916   8.231 -1.4009  1.3094  0.9306
  878MOL0     H21105  10.210   2.029   7.946  1.5952 -2.3464 -3.3006
  878MOL0     H21106  10.252   1.862   7.986  0.3769 -0.3808  0.2688
  878MOL0     H21107  10.376   2.095   8.128 -0.2614 -0.0619 -1.9937
  878MOL0     H21108  10.439   1.935   8.129 -1.1469  0.5637  1.9160
  878MOL0     H21109  10.410   2.115   7.872 -0.2012 -0.5350  0.9997
  878MOL0     H21110  10.509   1.974   7.882 -0.2906  3.5772 -5.1029
  878MOL0     H21111  10.560   2.232   8.042  2.2963 -1.2051  2.3175
  878MOL0     H21112  10.643   2.091   8.055  2.3031 -0.7511 -3.2211
  878MOL0     H21113  10.768   2.003   7.795 -1.6875  0.8693  0.5208
  878MOL0     H21114  10.894   2.030   7.579  0.4609 -0.3067  1.6551
  878MOL0     H21115  11.009   2.147   7.639 -0.1258  0.0519 -1.1423
  878MOL0     H21116  10.815   2.196   7.420 -0.5769 -0.4297  0.9826
  878MOL0     H21117  10.904   2.323   7.506 -3.5930 -0.4760  0.7168
  878MOL0     H21118  10.998   2.207   7.278 -3.9750 -1.8659 -0.7216
  878MOL0     H21119  11.115   2.220   7.426 -1.2586 -0.9147 -0.7265
  878MOL0     H21120  11.141   2.003   7.443  1.5413 -2.4463 -1.4462
  878MOL0     H21121  10.974   1.976   7.391  0.3681  1.8880  2.4274
  878MOL0     H21122  11.188   1.955   6.995 -1.5173 -0.4846 -0.4160
  878MOL0     H21123  11.167   1.729   6.791 -0.1330  2.5889 -0.4540
  878MOL0     H21124  11.329   1.667   6.842  1.3655  1.1015 -0.9062
  878MOL0     H21125  11.294   1.842   6.821  0.1751 -1.8494 -3.1341
  878MOL0     H21126  11.194   1.224   6.944  4.3546  0.3874  2.0306
  878MOL0     H21127  11.266   1.044   6.782 -1.2204 -0.3528 -2.4474
  878MOL0     H21128  11.324   0.900   6.632  2.1182  1.4014  0.6178
  878MOL0     H21129  11.242   0.970   6.506 -0.2467 -1.7118 -1.2715
  878MOL0     H21130  11.474   0.942   6.364  1.0441 -2.1388 -0.3968
  878MOL0     H21131  11.542   0.883   6.507  1.6133  1.2258 -0.0204
  878MOL0     H21132  11.296   0.739   6.400  0.2379  0.5743  0.7849
  878MOL0     H21133  11.425   0.682   6.502 -1.5362 -1.5766 -0.4928
  878MOL0     H21134  11.598   0.724   6.311  0.6390  1.7315 -1.4152
  878MOL0     H21135  11.471   0.766   6.215  0.1197 -2.1266 -1.0829
  878MOL0     H21136  11.513   0.490   6.321  0.9532  2.4087  1.3468
  878MOL0     H21137  11.354   0.545   6.255  0.2673  1.6118 -2.0659
  878MOL0     H21138  11.494   0.415   6.107  1.0966 -0.7773 -0.5692
  878MOL0     H21139  11.615   0.546   6.120 -0.2111 -1.5199  1.6594
  878MOL0     H21140  11.499   0.704   5.989  1.5270 -0.4579 -0.0193
  878MOL0     H21141  11.344   0.626   6.025  1.3053 -0.8912 -1.8737
  878MOL0     H21142  11.424   0.425   5.905 -0.7476  0.3514  0.6454
  878MOL0     H21143  11.571   0.531   5.866  0.5532 -2.4216 -0.5938
  878MOL0     H21144  11.376   1.334   6.511 -0.9973 -0.1799  0.3999
  878MOL0     H21145  11.298   1.514   6.648  1.0718 -1.4464 -1.1425
  878MOL0     H21146  11.131   1.560   7.273  0.2240  0.2584  0.7779
  878MOL0     H21147  11.114   1.779   7.370  5.4817 -1.2522  0.2396
  878MOL0     H21148   9.580   1.605   8.048 -0.1341 -0.0935  0.4880
  878MOL0     H21149   9.422   1.451   8.156  0.3120 -0.6898  0.4195
  878MOL0     H21150   9.196   1.287   8.496 -1.8098  3.4778 -0.1510
  878MOL0     H21151   9.058   1.180   8.663  0.4004  1.8595 -3.8526
  878MOL0     H21152   9.020   1.395   8.932 -0.6609 -0.3276  0.8763
  878MOL0     H21153   8.898   1.299   8.867 -1.1975 -1.0948  2.2272
  878MOL0     H21154   8.835   1.335   9.089  1.5289  1.2949  0.7244
  878MOL0     H21155   8.997   1.312   9.144 -0.5485  4.2922 -0.9155
  878MOL0     H21156   8.973   1.072   9.114  0.5430  0.8726  0.3336
  878MOL0     H21157   8.825   1.112   9.205  1.3690  3.4318  2.2945
  878MOL0     H21158   8.773   0.955   9.039  1.5070  0.2966  1.4373
  878MOL0     H21159   8.847   1.054   8.906 -0.0973  1.0755 -0.6091
  878MOL0     H21160   8.455   1.210   8.998 -1.1035 -2.2152 -0.6658
  878MOL0     H21161   9.318   1.279   8.975 -2.4685  0.3667 -0.2601
  878MOL0     H21162   9.610   1.311   8.837  1.6111  1.1616  1.1118
  878MOL0     H21163   9.552   1.451   8.742 -2.7314 -1.5588 -2.0662
  878MOL0     H21164   9.498   1.425   8.914  0.5779  0.1055 -0.2039
  879MOL0     O21165   4.538   8.775   1.556 -0.0718 -0.6220 -0.2445
  879MOL0     C21166   4.532   8.752   1.437  0.9004 -0.4743  0.3903
  879MOL0     O21167   4.444   8.667   1.372  0.0977  0.1618  0.2386
  879MOL0     C21168   4.439   8.532   1.424  0.2334 -0.1010  0.1409
  879MOL0     C21169   4.336   8.438   1.396  0.6387 -0.9161  0.2982
  879MOL0     C21170   4.317   8.315   1.465  0.0492  0.3498 -0.3744
  879MOL0     C21171   4.409   8.278   1.563 -0.6303  0.1380  0.2331
  879MOL0     O21172   4.388   8.167   1.641 -0.2437 -0.4975  0.8278
  879MOL0     C21173   4.275   8.177   1.733 -0.1385 -0.4130 -0.2080
  879MOL0     C21174   4.267   8.046   1.816  0.4381  0.7915 -0.3420
  879MOL0     C21175   4.410   8.009   1.871 -0.0018  0.7222  0.9713
  879MOL0     C21176   4.393   7.885   1.965  1.0165 -0.1818  0.4898
  879MOL0     C21177   4.466   7.900   2.100  0.1330 -0.7021 -0.4600
  879MOL0     C21178   4.482   7.760   2.175  0.7829 -0.9530  0.2620
  879MOL0     C21179   4.575   7.663   2.119  0.6050 -0.1670 -0.2214
  879MOL0     C21180   4.582   7.539   2.208 -0.5790 -0.1408 -0.3454
  879MOL0     N21181   4.715   7.480   2.188 -0.2262 -0.4359  0.5782
  879MOL0     C21182   4.825   7.513   2.270 -0.7465  0.9992 -0.1354
  879MOL0     C21183   4.910   7.407   2.258 -1.6883 -0.5050 -0.5154
  879MOL0     C21184   5.038   7.392   2.347  0.4002  0.2905  0.4319
  879MOL0     C21185   5.025   7.455   2.492 -0.5574 -0.1501 -0.1542
  879MOL0     C21186   5.169   7.491   2.556  0.9973 -0.1292 -0.8690
  879MOL0     C21187   5.203   7.638   2.527  0.0135 -0.3721 -0.8766
  879MOL0     O21188   5.184   7.676   2.393  0.0307  0.5512 -0.3353
  879MOL0     C21189   5.191   7.805   2.352 -0.6385  0.9317 -0.0438
  879MOL0     C21190   5.175   7.817   2.213 -0.0855 -0.3028  0.0749
  879MOL0     C21191   5.187   7.955   2.155  0.5452  0.8513  0.1226
  879MOL0     C21192   5.140   7.960   2.014 -0.6154 -0.2534 -0.5664
  879MOL0     C21193   5.231   8.062   2.233  0.2836  0.4089 -0.0547
  879MOL0     C21194   5.234   8.206   2.183  0.2812 -0.1238 -0.7201
  879MOL0     O21195   5.255   8.291   2.287  0.5191  0.2597 -0.2720
  879MOL0     C21196   5.167   8.400   2.282  0.1376  0.6465  0.5953
  879MOL0     C21197   5.124   8.479   2.173  0.4502 -0.7976  0.6398
  879MOL0     C21198   5.064   8.603   2.196  1.1118  0.4598  0.6049
  879MOL0     C21199   5.004   8.639   2.317 -0.0602  0.8017 -0.6491
  879MOL0     O21200   4.953   8.769   2.342 -0.9577 -0.2725 -0.0647
  879MOL0     C21201   4.911   8.848   2.230  0.1817  0.4059  0.2017
  879MOL0     C21202   4.821   8.960   2.285 -0.7560 -0.4907  0.7526
  879MOL0     C21203   4.907   9.079   2.341 -0.0110  0.5101 -0.4574
  879MOL0     C21204   4.950   9.163   2.222 -0.7651 -0.1071 -0.4765
  879MOL0     C21205   5.053   9.282   2.273 -0.1413 -0.0498  0.2479
  879MOL0     C21206   5.117   9.348   2.148 -0.5614 -0.1206 -0.3718
  879MOL0     C21207   5.141   9.499   2.185  0.4432 -0.4074 -0.3200
  879MOL0     C21208   5.114   9.603   2.069  0.0416  0.4138  0.3401
  879MOL0    Cl21209   5.213   9.579   1.927  0.0831  0.3351 -0.1983
  879MOL0     C21210   5.033   8.565   2.419 -0.3215  0.3460 -0.4082
  879MOL0     C21211   5.113   8.448   2.403 -0.3143  0.0188 -0.3773
  879MOL0     O21212   5.255   8.242   2.076 -0.2296 -0.2482  0.3673
  879MOL0     C21213   5.248   8.035   2.374 -0.4765 -0.3068  0.2855
  879MOL0     C21214   5.225   7.914   2.427 -0.8940  0.1093 -0.2316
  879MOL0     N21215   4.850   7.313   2.179  0.5536 -0.4768 -0.5847
  879MOL0     N21216   4.744   7.356   2.132  0.9537  0.6023  0.7810
  879MOL0     C21217   4.520   8.352   1.583 -0.4044  0.5761  1.0751
  879MOL0     C21218   4.542   8.475   1.512  1.2954 -0.5512  0.3440
  879MOL0     C21219   4.604   8.841   1.347 -0.8117  0.6384 -0.7444
  879MOL0     C21220   4.522   8.918   1.258  0.7543  0.0887 -0.4949
  879MOL0     C21221   4.579   9.018   1.191  0.0189  0.6526  0.3694
  879MOL0     C21222   4.714   9.047   1.199  0.1593 -0.4049 -0.3126
  879MOL0     O21223   4.760   9.154   1.127  0.1247 -0.1803  0.3102
  879MOL0     C21224   4.783   9.278   1.200  0.2420  0.2620 -0.0341
  879MOL0     C21225   4.926   9.289   1.268 -0.2771 -0.6918  0.4680
  879MOL0     C21226   4.914   9.273   1.415  0.1395  0.3127  0.9152
  879MOL0     C21227   5.047   9.322   1.468 -0.2436  0.1258 -0.3481
  879MOL0     C21228   5.046   9.290   1.614 -0.4413  0.2298  0.8498
  879MOL0     C21229   5.063   9.289   1.727  0.7326  0.5767 -0.2083
  879MOL0     C21230   4.796   8.955   1.272 -0.6612 -0.7377  0.3796
  879MOL0     C21231   4.746   8.859   1.357  0.6017 -0.2326 -0.1021
  879MOL0     C21232   4.834   8.764   1.445 -0.0360  0.3478  0.0910
  879MOL0     H21233   4.270   8.476   1.320  0.3021 -3.2850 -0.6892
  879MOL0     H21234   4.235   8.250   1.434 -0.0600  0.9448 -1.3765
  879MOL0     H21235   4.180   8.197   1.684 -1.3009  1.0292  2.4557
  879MOL0     H21236   4.299   8.261   1.798  1.3897 -0.7163 -0.3406
  879MOL0     H21237   4.193   8.064   1.894  1.2725 -1.3458  1.0440
  879MOL0     H21238   4.233   7.960   1.757  1.2475 -0.1166  0.4794
  879MOL0     H21239   4.468   7.993   1.780 -3.2949 -0.0450 -1.1288
  879MOL0     H21240   4.456   8.100   1.913 -0.8396  1.8396 -0.4488
  879MOL0     H21241   4.286   7.871   1.983  0.9225 -1.4371 -0.8848
  879MOL0     H21242   4.426   7.797   1.908  0.4749  1.5938 -2.7934
  879MOL0     H21243   4.420   7.967   2.173 -1.5247 -2.5756  0.3122
  879MOL0     H21244   4.562   7.943   2.070  0.3276 -1.2345 -0.6099
  879MOL0     H21245   4.531   7.784   2.270 -0.4779 -1.4337  1.0639
  879MOL0     H21246   4.380   7.722   2.180  0.9034 -1.3020  0.1116
  879MOL0     H21247   4.673   7.711   2.108 -0.1227  1.2906 -0.6212
  879MOL0     H21248   4.549   7.637   2.016  2.8594  2.4639 -1.6136
  879MOL0     H21249   4.570   7.543   2.317  0.4092 -1.8858 -0.1352
  879MOL0     H21250   4.508   7.465   2.177  1.4057 -1.6499 -1.7179
  879MOL0     H21251   4.820   7.593   2.343 -0.9100 -0.9507  2.1221
  879MOL0     H21252   5.123   7.429   2.289 -0.7598  2.4833  0.0153
  879MOL0     H21253   5.063   7.285   2.353 -1.0460 -0.3195 -2.3054
  879MOL0     H21254   4.956   7.540   2.495  0.8333  0.9980 -0.1499
  879MOL0     H21255   4.969   7.380   2.549 -0.7357 -2.5080 -3.1443
  879MOL0     H21256   5.160   7.469   2.663  1.9490  1.3292 -0.4623
  879MOL0     H21257   5.247   7.421   2.525  1.3845 -0.2219  0.2778
  879MOL0     H21258   5.149   7.704   2.596  2.2432  0.9201 -0.2830
  879MOL0     H21259   5.306   7.649   2.562 -0.8796  0.7401  1.7097
  879MOL0     H21260   5.143   7.733   2.153  0.9315  0.3617 -1.4808
  879MOL0     H21261   5.209   7.977   1.931  1.5044 -1.4514  0.8634
  879MOL0     H21262   5.072   8.045   2.007  0.2400  0.3756 -1.4908
  879MOL0     H21263   5.092   7.866   1.986  1.7063 -1.6353 -0.1651
  879MOL0     H21264   5.175   8.468   2.078 -0.5352  1.2150 -0.1802
  879MOL0     H21265   5.061   8.675   2.115 -4.0879  2.4014  2.1647
  879MOL0     H21266   4.998   8.894   2.182 -0.3187 -0.2335 -1.3868
  879MOL0     H21267   4.857   8.795   2.151  0.6588  3.1390 -2.1354
  879MOL0     H21268   4.750   8.994   2.209  0.9655  0.0744 -0.6831
  879MOL0     H21269   4.772   8.917   2.373 -0.9415 -1.1230  0.3530
  879MOL0     H21270   4.984   9.036   2.406 -2.3195  1.7022  3.3704
  879MOL0     H21271   4.840   9.141   2.401  0.0928 -1.9823  2.4235
  879MOL0     H21272   4.868   9.211   2.168 -1.2869  0.2341  0.5814
  879MOL0     H21273   4.999   9.102   2.146  0.1556 -0.4694  0.3845
  879MOL0     H21274   4.994   9.359   2.322 -0.6086  0.6268 -1.3089
  879MOL0     H21275   5.126   9.246   2.345  0.6890 -3.3480 -1.9868
  879MOL0     H21276   5.051   9.342   2.061  0.2299 -0.0241 -1.0015
  879MOL0     H21277   5.208   9.290   2.126 -0.8418 -1.0121  0.7334
  879MOL0     H21278   5.245   9.513   2.216  1.0728 -3.4811 -0.7502
  879MOL0     H21279   5.078   9.541   2.263  1.2411  2.4620 -1.1079
  879MOL0     H21280   5.139   9.700   2.112  0.2973  0.4198  0.1855
  879MOL0     H21281   5.012   9.619   2.035  0.4393  3.0321  0.1718
  879MOL0     H21282   5.009   8.601   2.519  1.2569 -2.9275  1.3233
  879MOL0     H21283   5.152   8.402   2.493  2.0417 -1.7283 -2.1821
  879MOL0     H21284   5.271   8.114   2.444 -1.8123  2.3798 -2.1005
  879MOL0     H21285   5.238   7.890   2.532  0.8056  0.1196 -0.4084
  879MOL0     H21286   4.592   8.327   1.660 -0.0167  0.5798  0.7211
  879MOL0     H21287   4.623   8.543   1.536 -0.5046  2.5065 -1.6038
  879MOL0     H21288   4.414   8.908   1.258  0.6151 -0.5161  4.3789
  879MOL0     H21289   4.524   9.065   1.110  0.6023  0.4583 -0.1570
  879MOL0     H21290   4.786   9.349   1.117  3.4382 -0.4439 -0.6663
  879MOL0     H21291   4.708   9.290   1.278  0.2087 -0.6323  0.0862
  879MOL0     H21292   4.969   9.387   1.247  0.7285 -0.3187  3.6966
  879MOL0     H21293   4.999   9.215   1.231 -0.1243  0.0578 -0.7956
  879MOL0     H21294   4.823   9.318   1.455 -0.6112  0.2481 -0.6511
  879MOL0     H21295   4.896   9.165   1.422 -3.4580  0.6368 -0.8245
  879MOL0     H21296   5.079   9.422   1.437  0.4654 -1.2323 -4.5875
  879MOL0     H21297   5.127   9.258   1.429  0.6630  2.9733 -3.6194
  879MOL0     H21298   5.104   9.304   1.825 -0.4684  0.5860  0.3041
  879MOL0     H21299   4.904   8.970   1.276 -0.6637 -0.2735 -0.7148
  879MOL0     H21300   4.836   8.800   1.549 -3.7483  0.2998  0.3159
  879MOL0     H21301   4.777   8.671   1.453 -0.8329  0.9179  1.2623
  879MOL0     H21302   4.936   8.755   1.408  0.9373  1.3275  2.3180
  880MOL0     O21303  10.941  10.254  10.033 -0.8155 -0.4712 -0.2984
  880MOL0     C21304  10.871  10.313  10.118  0.0824  0.4079 -0.1037
  880MOL0     O21305  10.773  10.256  10.186  0.3179 -0.7743 -0.1754
  880MOL0     C21306  10.767  10.113  10.191 -0.7674 -0.2075  0.1167
  880MOL0     C21307  10.740  10.061  10.313 -0.2563  0.6406 -0.5547
  880MOL0     C21308  10.720   9.923  10.340 -0.2840 -1.9174 -0.5879
  880MOL0     C21309  10.740   9.838  10.230  0.3797  0.1734  1.1182
  880MOL0     O21310  10.747   9.704  10.267 -0.5433 -0.3063  0.4738
  880MOL0     C21311  10.710   9.606  10.169 -0.2813  1.0268 -0.1492
  880MOL0     C21312  10.566   9.628  10.129 -0.4390 -0.1386 -0.6074
  880MOL0     C21313  10.523   9.500  10.050 -0.5645 -0.7123 -0.0342
  880MOL0     C21314  10.397   9.527   9.984  0.5815 -0.0069  0.5792
  880MOL0     C21315  10.339   9.408   9.907 -0.7114 -1.0365 -0.4446
  880MOL0     C21316  10.300   9.288   9.995  0.2621  1.0467 -0.1574
  880MOL0     C21317  10.221   9.199   9.916 -0.6422  0.2759  0.3069
  880MOL0     C21318  10.201   9.057   9.971 -0.2979 -0.1972 -0.2058
  880MOL0     N21319  10.088   8.992   9.910 -0.3953 -0.2529  0.4386
  880MOL0     C21320  10.101   8.952   9.779 -0.2533 -0.2524 -0.1438
  880MOL0     C21321   9.979   8.917   9.762  0.1610  0.2191  0.4779
  880MOL0     C21322   9.931   8.867   9.633 -0.6035 -0.8176  0.0330
  880MOL0     C21323   9.907   8.711   9.628  0.0411 -1.3608  0.1723
  880MOL0     C21324   9.834   8.667   9.496  0.4437 -0.0256 -0.2235
  880MOL0     C21325   9.747   8.541   9.514  0.8214  0.2072  0.3194
  880MOL0     O21326   9.729   8.474   9.389 -0.8633  0.1114 -0.5820
  880MOL0     C21327   9.622   8.448   9.310  0.6825 -0.5498 -0.4856
  880MOL0     C21328   9.500   8.519   9.322  0.4456  1.1540  0.2444
  880MOL0     C21329   9.410   8.499   9.216 -0.0272  0.4023 -0.6024
  880MOL0     C21330   9.279   8.564   9.228 -0.3346 -1.4239 -0.7732
  880MOL0     C21331   9.434   8.413   9.101  0.4898 -0.0371  0.0989
  880MOL0     C21332   9.332   8.389   8.997  0.2077 -1.0644 -0.7746
  880MOL0     O21333   9.206   8.356   9.046 -0.7631  0.1307 -0.0924
  880MOL0     C21334   9.111   8.329   8.957 -0.4340 -0.7926  0.1845
  880MOL0     C21335   9.084   8.432   8.863  0.7035 -0.1850 -0.5725
  880MOL0     C21336   8.960   8.433   8.803  0.4845  0.9544  0.0668
  880MOL0     C21337   8.864   8.328   8.833 -1.1192 -0.5786  0.5037
  880MOL0     O21338   8.743   8.317   8.775 -0.2149  0.3130  0.1956
  880MOL0     C21339   8.678   8.429   8.706  1.2059 -0.5128 -0.1686
  880MOL0     C21340   8.546   8.380   8.642  0.2909 -0.9218 -1.1557
  880MOL0     C21341   8.412   8.452   8.693 -1.3416  0.2076  0.2787
  880MOL0     C21342   8.280   8.400   8.633 -0.1153 -0.2237 -0.0067
  880MOL0     C21343   8.257   8.263   8.675  0.8134  0.3077  0.0215
  880MOL0     C21344   8.113   8.207   8.632  0.5144  0.8067 -0.6003
  880MOL0     C21345   8.115   8.062   8.697 -0.9540 -0.6009  0.5398
  880MOL0     C21346   8.001   7.978   8.653 -0.3742  0.5545  0.0222
  880MOL0    Cl21347   7.971   7.855   8.776  0.3729  0.4554  0.1461
  880MOL0     C21348   8.899   8.223   8.914 -0.2301  0.1236 -0.4650
  880MOL0     C21349   9.022   8.226   8.979 -0.2183 -0.1161 -0.1032
  880MOL0     O21350   9.375   8.405   8.884 -0.2465 -0.2729 -0.3485
  880MOL0     C21351   9.552   8.348   9.092  0.2624 -0.2152 -0.9028
  880MOL0     C21352   9.646   8.365   9.197  0.2692 -0.0890 -0.3299
  880MOL0     N21353   9.891   8.920   9.866  0.0059  0.2237 -0.2618
  880MOL0     N21354   9.969   8.968   9.963  0.6532 -0.1691  0.3871
  880MOL0     C21355  10.757   9.889  10.099  0.6351  0.1544  0.9780
  880MOL0     C21356  10.761  10.022  10.080  0.2888 -0.1208  0.3434
  880MOL0     C21357  10.913  10.464  10.137  0.2187  0.2599  1.3058
  880MOL0     C21358  11.024  10.519  10.067 -0.5076 -0.2814  0.6005
  880MOL0     C21359  11.056  10.653  10.081 -0.5647 -0.8512  0.5689
  880MOL0     C21360  10.967  10.742  10.148 -0.7605 -0.0924  0.7277
  880MOL0     O21361  10.983  10.882  10.158  0.6111  0.2393  0.5548
  880MOL0     C21362  11.096  10.931  10.094  0.0937 -0.8284  0.7729
  880MOL0     C21363  11.093  11.082  10.111 -0.5569 -0.3584  0.3398
  880MOL0     C21364  11.003  11.159  10.010  0.5349  0.9483  0.3867
  880MOL0     C21365  11.022  11.316  10.045  1.5945 -0.3553  1.3637
  880MOL0     C21366  10.945  11.351  10.159 -0.2179  0.3366 -0.4837
  880MOL0     C21367  10.867  11.345  10.257  1.0847  0.2333 -0.0112
  880MOL0     C21368  10.866  10.688  10.219 -0.0382 -0.2727  0.7933
  880MOL0     C21369  10.842  10.550  10.225  0.1491  0.0586 -0.0823
  880MOL0     C21370  10.705  10.509  10.302 -0.1309  0.1606  0.4766
  880MOL0     H21371  10.734  10.119  10.405  1.3530  0.7791 -0.5162
  880MOL0     H21372  10.697   9.895  10.442 -4.3912  1.0080 -0.4513
  880MOL0     H21373  10.725   9.503  10.204  0.3182  2.2471  3.7322
  880MOL0     H21374  10.766   9.600  10.075  1.8361 -0.9548  1.1328
  880MOL0     H21375  10.504   9.633  10.219  0.3172 -0.9164 -0.0221
  880MOL0     H21376  10.553   9.723  10.076  0.6573  0.3447 -0.0478
  880MOL0     H21377  10.603   9.487   9.977  0.5721 -0.5410  1.1435
  880MOL0     H21378  10.524   9.409  10.109  0.5548 -2.4780 -2.5862
  880MOL0     H21379  10.320   9.554  10.057 -0.2993  1.3911 -0.7849
  880MOL0     H21380  10.411   9.609   9.913 -0.3721 -1.2413 -1.1256
  880MOL0     H21381  10.411   9.372   9.832 -1.6933  0.8912 -2.4617
  880MOL0     H21382  10.259   9.451   9.845  0.3703 -0.1728 -1.2769
  880MOL0     H21383  10.395   9.241  10.021 -0.7801 -1.0336  0.1490
  880MOL0     H21384  10.246   9.317  10.086 -0.3430  1.8056 -0.7447
  880MOL0     H21385  10.267   9.191   9.817 -0.0311 -1.4573  0.6973
  880MOL0     H21386  10.115   9.225   9.909 -0.9914 -1.0134  0.4770
  880MOL0     H21387  10.293   8.997   9.964 -0.8589 -1.5894  2.7616
  880MOL0     H21388  10.175   9.053  10.077 -1.6870 -4.5457 -0.5295
  880MOL0     H21389  10.185   8.964   9.712  0.7883  3.3509  1.5409
  880MOL0     H21390  10.008   8.901   9.565  1.6394 -0.3839  2.6121
  880MOL0     H21391   9.841   8.926   9.610  0.9945  1.8612  0.2595
  880MOL0     H21392  10.005   8.663   9.636  1.6828  1.9706  2.1200
  880MOL0     H21393   9.846   8.686   9.716  0.3512 -1.5912  0.3231
  880MOL0     H21394   9.775   8.744   9.444  2.6399  0.8125 -1.5954
  880MOL0     H21395   9.917   8.650   9.427 -1.0900  0.3828 -2.2660
  880MOL0     H21396   9.802   8.474   9.581  1.1406  0.4682  0.3213
  880MOL0     H21397   9.649   8.565   9.557  1.6871 -0.5878  2.8713
  880MOL0     H21398   9.480   8.580   9.410  0.6749 -0.0067  1.1362
  880MOL0     H21399   9.268   8.635   9.311 -2.5057  1.8078 -3.5420
  880MOL0     H21400   9.195   8.497   9.248 -0.7010 -0.5143  0.9553
  880MOL0     H21401   9.257   8.625   9.139  0.8274  0.8603  0.4110
  880MOL0     H21402   9.137   8.526   8.859 -0.1863  0.3142 -0.8586
  880MOL0     H21403   8.919   8.520   8.752 -2.6717 -0.8803 -0.8071
  880MOL0     H21404   8.634   8.488   8.787  1.4131 -0.0525 -0.3835
  880MOL0     H21405   8.747   8.477   8.636  1.0495 -0.3362 -0.1997
  880MOL0     H21406   8.554   8.383   8.533 -2.4924  0.5409 -1.3945
  880MOL0     H21407   8.542   8.273   8.668 -3.0488 -0.7068 -0.3003
  880MOL0     H21408   8.421   8.556   8.662 -5.9490 -0.0357 -3.0399
  880MOL0     H21409   8.420   8.446   8.802  1.8181  0.5935  0.1457
  880MOL0     H21410   8.287   8.388   8.525 -0.3326 -1.6548  0.1143
  880MOL0     H21411   8.192   8.459   8.660  1.0855  0.2319  3.4189
  880MOL0     H21412   8.327   8.201   8.619 -1.1006  0.5420 -2.8474
  880MOL0     H21413   8.259   8.260   8.785 -2.0182 -0.3761  0.1294
  880MOL0     H21414   8.107   8.197   8.523 -0.1121 -0.9130 -0.4440
  880MOL0     H21415   8.025   8.263   8.666 -0.0879 -1.5664  2.1851
  880MOL0     H21416   8.121   8.067   8.806 -0.5363 -3.7676  0.7672
  880MOL0     H21417   8.203   8.014   8.653  0.2401  3.5231 -2.0889
  880MOL0     H21418   8.026   7.920   8.564  0.8332  0.0889  0.6512
  880MOL0     H21419   7.916   8.045   8.636  0.7318  1.9124 -0.3217
  880MOL0     H21420   8.830   8.140   8.928 -0.1180  0.0947 -0.0615
  880MOL0     H21421   9.052   8.152   9.052  2.2087  1.3208  0.5097
  880MOL0     H21422   9.569   8.276   9.012 -0.0588 -1.1213 -0.1694
  880MOL0     H21423   9.740   8.312   9.200  0.7111  0.6844 -0.4161
  880MOL0     H21424  10.783   9.827  10.013  2.8009  3.2920 -0.8270
  880MOL0     H21425  10.788  10.065   9.984 -0.3401  0.2503  0.3290
  880MOL0     H21426  11.093  10.469   9.999  2.0986  2.0754  1.3402
  880MOL0     H21427  11.146  10.690  10.033 -0.3368 -2.6972 -0.5061
  880MOL0     H21428  11.179  10.879  10.144  0.0880 -1.0051  0.6012
  880MOL0     H21429  11.091  10.903   9.988  2.8543  0.0569  0.3336
  880MOL0     H21430  11.195  11.118  10.100 -0.5902  0.6828  2.8741
  880MOL0     H21431  11.067  11.104  10.215  1.7498 -3.7883  1.8331
  880MOL0     H21432  11.026  11.145   9.904  0.3970 -0.0992  0.4846
  880MOL0     H21433  10.898  11.134  10.027 -0.0188  1.2757 -2.0930
  880MOL0     H21434  10.978  11.371   9.961  1.6509 -0.3285  1.3516
  880MOL0     H21435  11.126  11.343  10.061  1.6775 -0.7678  1.5310
  880MOL0     H21436  10.821  11.354  10.353  3.0336 -2.2577  1.2808
  880MOL0     H21437  10.803  10.749  10.282 -0.7138 -1.5679  1.4169
  880MOL0     H21438  10.616  10.514  10.239 -0.0348 -2.0497  0.0724
  880MOL0     H21439  10.720  10.409  10.344 -1.9904 -0.4132 -0.0991
  880MOL0     H21440  10.683  10.577  10.385 -3.3379 -0.9499  0.6829
  881MOL0     O21441   8.463   5.616   6.511 -0.7133 -0.5161 -1.1477
  881MOL0     C21442   8.477   5.699   6.424  0.8705 -0.7471 -0.0344
  881MOL0     O21443   8.448   5.834   6.441  0.1372 -0.0750  0.5972
  881MOL0     C21444   8.432   5.868   6.575  0.1106 -0.4557  0.4490
  881MOL0     C21445   8.329   5.960   6.619 -0.3552  0.6618  0.5154
  881MOL0     C21446   8.321   6.001   6.754 -0.5104 -0.1805  0.1218
  881MOL0     C21447   8.414   5.967   6.850 -0.5002  0.5422 -0.1074
  881MOL0     O21448   8.395   6.037   6.973  0.0280  0.0111  0.4512
  881MOL0     C21449   8.514   6.078   7.051  0.6245  0.8942 -0.3660
  881MOL0     C21450   8.515   6.221   7.101 -0.6169 -0.2420  0.2330
  881MOL0     C21451   8.547   6.326   6.996 -0.5008 -0.0694 -0.7368
  881MOL0     C21452   8.553   6.460   7.068 -0.5015  0.6561  0.3950
  881MOL0     C21453   8.422   6.506   7.126  0.3860 -0.6474 -0.4666
  881MOL0     C21454   8.440   6.650   7.177 -0.0879  0.8505 -0.1159
  881MOL0     C21455   8.332   6.710   7.264  0.4751  0.7839 -0.3024
  881MOL0     C21456   8.361   6.853   7.294 -0.4659 -0.6346  0.3107
  881MOL0     N21457   8.467   6.893   7.389  0.1811  0.4373 -0.3415
  881MOL0     C21458   8.585   6.968   7.367  0.9805 -0.7927  0.4250
  881MOL0     C21459   8.631   6.998   7.493  0.0590 -0.2664 -0.2413
  881MOL0     C21460   8.749   7.081   7.517 -0.0229 -0.4185  0.4693
  881MOL0     C21461   8.754   7.230   7.478  1.3635  0.4450  0.2424
  881MOL0     C21462   8.606   7.290   7.514 -1.1017 -0.2296  0.3993
  881MOL0     C21463   8.612   7.438   7.468 -0.3066  0.2239 -0.5116
  881MOL0     O21464   8.646   7.457   7.331  0.1542  0.0437 -0.0324
  881MOL0     C21465   8.688   7.581   7.294 -0.0672  0.5023  0.0877
  881MOL0     C21466   8.755   7.575   7.171 -0.0861 -0.4453 -0.0313
  881MOL0     C21467   8.812   7.695   7.110  0.7129 -0.4539 -0.5909
  881MOL0     C21468   8.892   7.685   6.988  0.0077  0.4303 -0.6132
  881MOL0     C21469   8.801   7.817   7.185  0.3795 -0.5304 -0.3204
  881MOL0     C21470   8.869   7.944   7.121 -0.4215 -0.1093 -0.7656
  881MOL0     O21471   8.826   8.002   6.995 -0.0982  0.0717  0.1750
  881MOL0     C21472   8.816   8.141   6.989  0.2188  0.3035 -0.1779
  881MOL0     C21473   8.860   8.197   6.866  0.3700  0.6883  0.5453
  881MOL0     C21474   8.837   8.329   6.835  0.4922 -1.0472  0.7061
  881MOL0     C21475   8.775   8.415   6.928  0.7943 -0.4753 -1.1572
  881MOL0     O21476   8.752   8.552   6.906  0.1639  0.2454  0.5210
  881MOL0     C21477   8.724   8.611   6.777 -0.2354 -0.3663  0.2323
  881MOL0     C21478   8.725   8.765   6.801 -0.2173 -0.2114  0.1677
  881MOL0     C21479   8.740   8.852   6.679  1.1751 -0.1720  1.1762
  881MOL0     C21480   8.609   8.860   6.590  0.2876  0.0886 -0.1141
  881MOL0     C21481   8.627   8.931   6.455  0.3979  0.3418  0.0894
  881MOL0     C21482   8.733   8.870   6.371 -0.1996  0.4395 -0.8406
  881MOL0     C21483   8.753   8.947   6.231  0.1905 -0.5147  0.4839
  881MOL0     C21484   8.633   8.952   6.143  0.2896 -1.0655  0.3793
  881MOL0    Cl21485   8.665   9.052   5.998  0.4603 -0.0311 -0.4649
  881MOL0     C21486   8.722   8.357   7.049 -0.0243 -0.1432  1.2222
  881MOL0     C21487   8.748   8.225   7.081 -0.4807  0.4352  0.3291
  881MOL0     O21488   8.940   7.996   7.201 -0.7837  0.5903  0.1765
  881MOL0     C21489   8.750   7.816   7.313  0.0264  0.7440 -0.0639
  881MOL0     C21490   8.692   7.694   7.360  0.1361 -0.3068 -0.6163
  881MOL0     N21491   8.543   6.951   7.585 -0.0504 -0.2981 -1.3955
  881MOL0     N21492   8.450   6.878   7.525 -0.2148 -0.3124 -0.0437
  881MOL0     C21493   8.522   5.888   6.810  0.1150 -0.3782 -0.0749
  881MOL0     C21494   8.528   5.848   6.672  0.1124  1.2368 -0.4931
  881MOL0     C21495   8.527   5.653   6.288 -0.2628 -0.1509 -0.3495
  881MOL0     C21496   8.443   5.672   6.173 -0.6811 -0.3223 -0.3857
  881MOL0     C21497   8.471   5.597   6.049  0.6771  0.2430 -0.3961
  881MOL0     C21498   8.584   5.509   6.051 -0.0381  0.2020  0.3264
  881MOL0     O21499   8.599   5.443   5.928 -0.5534 -0.3003 -0.8516
  881MOL0     C21500   8.687   5.334   5.923 -0.3307  0.5445  0.0063
  881MOL0     C21501   8.595   5.222   5.953  0.4145 -0.6975  0.4440
  881MOL0     C21502   8.691   5.096   5.967 -0.2248 -0.2589  0.1855
  881MOL0     C21503   8.623   4.970   6.017  0.6107 -0.0200 -0.2869
  881MOL0     C21504   8.707   4.838   6.017 -0.5338 -0.3843 -0.2813
  881MOL0     C21505   8.780   4.746   6.026 -0.8566  0.4512  0.3574
  881MOL0     C21506   8.672   5.511   6.153 -0.1011  0.4935 -0.6567
  881MOL0     C21507   8.646   5.573   6.273  0.6378 -0.4579 -1.2231
  881MOL0     C21508   8.752   5.586   6.382 -0.7300 -0.0175 -0.2578
  881MOL0     H21509   8.264   6.011   6.549  0.7742  3.0636  1.1332
  881MOL0     H21510   8.236   6.059   6.787 -1.3686 -1.0859 -0.4238
  881MOL0     H21511   8.602   6.054   6.990  1.6531 -2.3396  2.1005
  881MOL0     H21512   8.491   6.011   7.134 -0.1686 -0.2340 -1.4522
  881MOL0     H21513   8.421   6.252   7.148 -1.6290  2.3767 -3.1384
  881MOL0     H21514   8.595   6.218   7.175 -0.7877 -1.4537  0.3965
  881MOL0     H21515   8.634   6.301   6.935  0.6035 -1.3471  1.2484
  881MOL0     H21516   8.461   6.339   6.930 -0.1921  3.8523 -0.6101
  881MOL0     H21517   8.632   6.464   7.142 -0.7528  2.4026  0.6077
  881MOL0     H21518   8.587   6.538   7.000  1.1601  0.6132  1.1411
  881MOL0     H21519   8.397   6.450   7.217 -1.2381 -0.5400 -0.8189
  881MOL0     H21520   8.338   6.500   7.057 -0.0072 -0.0526 -0.0560
  881MOL0     H21521   8.527   6.648   7.243  1.1024 -0.5205 -1.6483
  881MOL0     H21522   8.462   6.697   7.081  1.6356 -3.7408 -2.2811
  881MOL0     H21523   8.318   6.664   7.362 -1.9288 -0.2509 -1.0660
  881MOL0     H21524   8.234   6.705   7.215 -0.0386 -1.4362  0.8317
  881MOL0     H21525   8.371   6.915   7.204 -4.7752  1.2407  0.8930
  881MOL0     H21526   8.268   6.893   7.335 -1.5424 -1.4642 -1.2583
  881MOL0     H21527   8.613   7.015   7.273 -0.6005 -0.4698  0.0807
  881MOL0     H21528   8.825   7.033   7.454 -0.3368 -1.0891  0.6003
  881MOL0     H21529   8.771   7.074   7.624 -0.0930  1.1353  0.6020
  881MOL0     H21530   8.833   7.264   7.545  2.1659 -0.5080 -0.2002
  881MOL0     H21531   8.789   7.254   7.377 -1.1015  2.0663 -0.3466
  881MOL0     H21532   8.525   7.235   7.464 -1.3144 -0.8549  1.3949
  881MOL0     H21533   8.592   7.276   7.621 -1.8951 -1.0068  0.2121
  881MOL0     H21534   8.509   7.473   7.478  0.1799  1.4174  0.8199
  881MOL0     H21535   8.683   7.485   7.538 -1.9842  1.4455  0.4327
  881MOL0     H21536   8.765   7.473   7.133 -3.7605 -0.4786 -1.2747
  881MOL0     H21537   8.977   7.752   6.996 -0.5162  1.4218 -2.6224
  881MOL0     H21538   8.819   7.719   6.913  0.2612 -0.7626 -1.4275
  881MOL0     H21539   8.930   7.585   6.966  0.7288  0.7516 -0.8452
  881MOL0     H21540   8.914   8.128   6.802 -2.6454 -1.5535  0.2638
  881MOL0     H21541   8.881   8.366   6.743 -3.0471  1.7492 -0.0930
  881MOL0     H21542   8.809   8.589   6.712 -0.0156  2.6394 -0.6329
  881MOL0     H21543   8.633   8.582   6.724  1.2350 -0.2987 -2.5067
  881MOL0     H21544   8.628   8.795   6.843 -0.3320 -0.4519  0.0795
  881MOL0     H21545   8.801   8.796   6.873 -1.6372  0.0946  1.6199
  881MOL0     H21546   8.837   8.822   6.639  1.7512 -1.8156  3.5703
  881MOL0     H21547   8.747   8.957   6.707  1.3332  0.4861 -1.1115
  881MOL0     H21548   8.529   8.902   6.650  2.1861  0.0252  2.6185
  881MOL0     H21549   8.585   8.755   6.570 -1.8869  0.3436  0.9028
  881MOL0     H21550   8.528   8.923   6.410  0.0635  1.6633  0.5323
  881MOL0     H21551   8.661   9.031   6.483  3.3222 -1.3482  3.3595
  881MOL0     H21552   8.708   8.765   6.352 -3.2530  1.3364 -2.3829
  881MOL0     H21553   8.821   8.871   6.436 -1.1435  0.6306  0.4623
  881MOL0     H21554   8.830   8.893   6.175 -1.6363 -1.4780 -1.2010
  881MOL0     H21555   8.804   9.043   6.244 -0.6553  0.5650 -3.2314
  881MOL0     H21556   8.545   8.972   6.204 -0.1983 -1.2433 -0.2649
  881MOL0     H21557   8.619   8.851   6.102 -1.5333 -0.2808 -1.0242
  881MOL0     H21558   8.677   8.419   7.127  1.9539  2.1295  0.6591
  881MOL0     H21559   8.714   8.186   7.177  1.8005 -1.9682  0.2697
  881MOL0     H21560   8.772   7.894   7.385  2.3823 -1.5516  1.9514
  881MOL0     H21561   8.667   7.695   7.465  1.4020 -3.4507 -0.1655
  881MOL0     H21562   8.599   5.860   6.881 -0.2277 -2.6083 -0.5293
  881MOL0     H21563   8.618   5.790   6.658  1.7895  2.8321  2.6757
  881MOL0     H21564   8.344   5.715   6.181 -1.1814 -1.5533  0.2931
  881MOL0     H21565   8.396   5.592   5.971 -2.7571  0.3480  2.6348
  881MOL0     H21566   8.727   5.338   5.821  0.4787  3.8164  0.3327
  881MOL0     H21567   8.777   5.336   5.985 -1.7998  0.0093  2.2828
  881MOL0     H21568   8.517   5.222   5.876  2.0027 -2.0427 -1.2769
  881MOL0     H21569   8.547   5.242   6.049  1.4843 -0.1821  0.8918
  881MOL0     H21570   8.715   5.088   5.860 -3.2430 -2.3100 -0.4601
  881MOL0     H21571   8.788   5.110   6.017  0.0048 -2.8195  0.5843
  881MOL0     H21572   8.521   4.963   5.977  0.2354 -0.3132  0.6980
  881MOL0     H21573   8.596   4.988   6.121  3.3640 -2.0575  0.8989
  881MOL0     H21574   8.847   4.663   6.012 -1.5660 -0.1645  0.5235
  881MOL0     H21575   8.770   5.468   6.137 -0.3924  0.3338 -2.2065
  881MOL0     H21576   8.841   5.528   6.357  1.3088  2.4414  0.8360
  881MOL0     H21577   8.789   5.688   6.396  0.6943 -0.5420 -0.0090
  881MOL0     H21578   8.722   5.546   6.478 -0.7903 -2.5311 -1.2509
  882MOL0     O21579   3.535   3.548   9.210  0.4347  0.1353 -0.6030
  882MOL0     C21580   3.517   3.447   9.282  0.0804  0.9083  0.8679
  882MOL0     O21581   3.605   3.381   9.357  0.2350  0.0971  0.3570
  882MOL0     C21582   3.719   3.445   9.411 -0.1710  1.0487 -1.8216
  882MOL0     C21583   3.727   3.578   9.446 -0.0557  0.4483  0.0765
  882MOL0     C21584   3.839   3.631   9.508 -0.6334 -0.9163  0.1062
  882MOL0     C21585   3.943   3.552   9.546  0.8473  0.7824  0.6515
  882MOL0     O21586   4.046   3.600   9.625  0.6569  0.2373 -0.6155
  882MOL0     C21587   4.046   3.741   9.661 -0.1580 -0.4764 -0.8726
  882MOL0     C21588   4.162   3.789   9.748 -0.1418 -0.2200 -0.0456
  882MOL0     C21589   4.285   3.797   9.662  0.2300  0.4811  0.5120
  882MOL0     C21590   4.403   3.847   9.752 -0.3304 -0.2362 -0.3613
  882MOL0     C21591   4.523   3.882   9.674 -0.2458 -0.3990  0.9529
  882MOL0     C21592   4.645   3.933   9.771 -0.6681  0.3467 -0.0591
  882MOL0     C21593   4.753   4.015   9.701  0.2746 -0.3623  0.6489
  882MOL0     C21594   4.873   4.053   9.787 -0.4605 -0.9654 -0.5259
  882MOL0     N21595   4.922   4.188   9.750  0.2047  0.6893  0.5366
  882MOL0     C21596   4.986   4.234   9.634  0.2876 -0.4699  0.2698
  882MOL0     C21597   5.035   4.365   9.661  0.1397 -0.2294 -0.5560
  882MOL0     C21598   5.105   4.447   9.559 -0.1031 -0.0549  0.0102
  882MOL0     C21599   5.246   4.386   9.535  0.6185  0.7066 -0.6745
  882MOL0     C21600   5.331   4.460   9.437  1.3441  0.5024 -0.1572
  882MOL0     C21601   5.457   4.381   9.394 -0.2625 -0.1650  0.1588
  882MOL0     O21602   5.525   4.354   9.520  0.3603  0.7735 -0.1455
  882MOL0     C21603   5.649   4.295   9.529 -0.6412  1.3070 -0.2748
  882MOL0     C21604   5.688   4.208   9.427  0.4894 -0.1811 -0.3660
  882MOL0     C21605   5.796   4.117   9.443 -0.2349 -0.8246 -0.2171
  882MOL0     C21606   5.832   4.035   9.322  0.6485 -0.5480  0.3183
  882MOL0     C21607   5.865   4.109   9.570 -0.3113  0.6644 -0.7367
  882MOL0     C21608   5.956   3.998   9.600 -0.7457  0.6540 -0.6157
  882MOL0     O21609   5.934   3.873   9.548 -0.0440  0.4138 -0.6165
  882MOL0     C21610   6.031   3.778   9.587  0.8723 -0.0706 -0.3567
  882MOL0     C21611   6.145   3.747   9.515 -0.1051  0.0413  0.0628
  882MOL0     C21612   6.229   3.640   9.547  0.0240  0.1242 -0.2325
  882MOL0     C21613   6.192   3.559   9.655 -0.2188  0.1348  0.3621
  882MOL0     O21614   6.277   3.451   9.656 -0.1886  0.1666 -0.4176
  882MOL0     C21615   6.250   3.347   9.750 -0.0385 -0.8788  0.4286
  882MOL0     C21616   6.362   3.246   9.723 -0.5932 -0.3739  0.6856
  882MOL0     C21617   6.343   3.121   9.810  0.1120  0.2144 -0.8165
  882MOL0     C21618   6.458   3.030   9.805  0.2570 -0.8829 -0.2396
  882MOL0     C21619   6.450   2.904   9.895 -0.5657  0.3684  0.1918
  882MOL0     C21620   6.578   2.822   9.885 -0.1024 -0.0049  0.3757
  882MOL0     C21621   6.576   2.742   9.754  0.1119 -0.3705  0.5221
  882MOL0     C21622   6.689   2.648   9.738 -0.5220 -0.4775  0.3472
  882MOL0    Cl21623   6.704   2.550   9.885  0.2171  0.2761  0.0454
  882MOL0     C21624   6.073   3.582   9.723 -0.4212 -0.0128 -0.2015
  882MOL0     C21625   5.992   3.685   9.690  0.0125 -0.0693  1.1016
  882MOL0     O21626   6.047   4.035   9.671  0.2997 -0.2560  0.5464
  882MOL0     C21627   5.817   4.190   9.677  0.8081 -0.6804  0.0086
  882MOL0     C21628   5.721   4.286   9.651  0.8707  0.9012 -0.8340
  882MOL0     N21629   4.987   4.383   9.789 -0.0912 -0.5558 -0.0969
  882MOL0     N21630   4.920   4.290   9.842 -0.1877 -0.6402  0.0606
  882MOL0     C21631   3.935   3.421   9.512 -0.3041  0.0893  0.3233
  882MOL0     C21632   3.827   3.367   9.440 -0.6848 -0.1146 -0.6713
  882MOL0     C21633   3.395   3.369   9.266  0.6569 -0.5281  0.0672
  882MOL0     C21634   3.394   3.230   9.297  0.1286  0.2365 -1.2710
  882MOL0     C21635   3.289   3.137   9.284 -0.1080  0.6459  0.1464
  882MOL0     C21636   3.169   3.193   9.243  0.0860 -0.4688  0.1807
  882MOL0     O21637   3.059   3.113   9.214  0.2981 -0.7613  0.6764
  882MOL0     C21638   3.012   3.110   9.083  0.2355  0.3233 -0.5414
  882MOL0     C21639   2.952   2.971   9.061  0.5026 -0.6249  0.1157
  882MOL0     C21640   2.821   2.960   9.135  0.0011 -0.4604 -0.9513
  882MOL0     C21641   2.778   2.802   9.125 -0.0213  0.2559 -0.1726
  882MOL0     C21642   2.676   2.785   9.226 -0.6767  0.1728  0.7129
  882MOL0     C21643   2.603   2.809   9.317 -0.0462  0.2174 -0.8171
  882MOL0     C21644   3.164   3.333   9.209  0.1843  0.6788  0.9130
  882MOL0     C21645   3.269   3.422   9.230 -0.0051  0.6887  0.3866
  882MOL0     C21646   3.239   3.566   9.212  0.3233  0.8548 -0.1604
  882MOL0     H21647   3.634   3.627   9.422 -0.9788 -1.9117 -1.5916
  882MOL0     H21648   3.847   3.738   9.523  2.5569 -0.4994 -3.1030
  882MOL0     H21649   3.963   3.765   9.728 -1.6254 -0.7611 -2.5126
  882MOL0     H21650   4.039   3.798   9.568 -1.8734 -0.3392 -0.6923
  882MOL0     H21651   4.148   3.893   9.780 -0.8835 -0.9701  2.2700
  882MOL0     H21652   4.182   3.716   9.826 -0.4333 -0.9587 -0.6469
  882MOL0     H21653   4.292   3.692   9.630 -1.8445 -0.3394  2.4347
  882MOL0     H21654   4.262   3.861   9.577 -0.6643  0.6756  0.8917
  882MOL0     H21655   4.372   3.942   9.795  0.5908  0.3616 -0.9864
  882MOL0     H21656   4.416   3.782   9.839 -2.3103 -0.7841 -0.4223
  882MOL0     H21657   4.500   3.965   9.607 -1.6928  0.8593  2.9074
  882MOL0     H21658   4.560   3.806   9.604  1.8785  1.0623  0.3810
  882MOL0     H21659   4.612   3.988   9.860 -0.1726  0.8192 -0.1588
  882MOL0     H21660   4.693   3.840   9.802 -2.9742 -0.3490  1.7457
  882MOL0     H21661   4.695   4.099   9.661  3.3074  1.4532 -0.2703
  882MOL0     H21662   4.791   3.949   9.622 -3.2993 -2.1614  0.1997
  882MOL0     H21663   4.835   4.044   9.889  0.5509 -0.7370 -0.1148
  882MOL0     H21664   4.946   3.972   9.776  2.8362  1.7834 -0.6686
  882MOL0     H21665   4.987   4.186   9.537 -4.6084  3.3633 -2.1092
  882MOL0     H21666   5.121   4.549   9.596 -0.6085  0.3038 -0.7366
  882MOL0     H21667   5.035   4.451   9.475  2.6984  0.8986 -2.4521
  882MOL0     H21668   5.290   4.376   9.634  1.0703 -2.2610 -1.0917
  882MOL0     H21669   5.227   4.286   9.494  1.7488 -0.5966  1.7869
  882MOL0     H21670   5.263   4.486   9.355  0.9118  0.8797  0.3090
  882MOL0     H21671   5.366   4.553   9.483  2.5333 -0.7683  1.5991
  882MOL0     H21672   5.422   4.288   9.346  0.6369 -0.2106 -0.4281
  882MOL0     H21673   5.524   4.422   9.318  2.0718 -2.8184  0.6148
  882MOL0     H21674   5.635   4.217   9.333 -0.3270 -0.3963  0.0641
  882MOL0     H21675   5.909   3.960   9.341  0.5646 -0.9065 -0.6783
  882MOL0     H21676   5.869   4.109   9.250 -2.5470 -0.0510 -0.9800
  882MOL0     H21677   5.743   3.998   9.270 -0.7868  2.2940  0.5377
  882MOL0     H21678   6.155   3.799   9.420 -1.2499  2.5757  1.2305
  882MOL0     H21679   6.311   3.618   9.480 -0.6952  1.5006 -1.6187
  882MOL0     H21680   6.251   3.385   9.852  0.7626  0.0761  0.0794
  882MOL0     H21681   6.154   3.306   9.717  0.1262  0.8954 -2.5912
  882MOL0     H21682   6.361   3.220   9.616 -0.8583  0.8379  0.3706
  882MOL0     H21683   6.459   3.289   9.748 -1.2950  1.7015  0.1149
  882MOL0     H21684   6.264   3.055   9.772  3.3068 -3.8492 -1.1415
  882MOL0     H21685   6.322   3.147   9.915  2.3384 -0.5488 -0.1207
  882MOL0     H21686   6.545   3.091   9.833 -1.7860  1.5071  1.3345
  882MOL0     H21687   6.462   2.997   9.701 -0.5051 -0.7344 -0.3178
  882MOL0     H21688   6.451   2.950   9.994  2.0004  0.4569  0.1864
  882MOL0     H21689   6.371   2.834   9.866 -0.8254  0.0189  1.6323
  882MOL0     H21690   6.597   2.747   9.962  2.9674 -1.3910 -1.5421
  882MOL0     H21691   6.661   2.894   9.890  1.2494 -1.5794  2.0409
  882MOL0     H21692   6.565   2.800   9.662 -2.7048 -1.3803  0.1231
  882MOL0     H21693   6.480   2.689   9.754 -2.0416  3.1008 -1.7899
  882MOL0     H21694   6.785   2.701   9.730  0.4744 -1.9361  1.9122
  882MOL0     H21695   6.675   2.585   9.649  1.7492 -1.0520  0.3207
  882MOL0     H21696   6.035   3.516   9.801  4.3445 -3.9880 -0.6800
  882MOL0     H21697   5.896   3.706   9.734 -0.0357 -2.5093  2.3533
  882MOL0     H21698   5.855   4.185   9.779  1.5029  1.5025 -0.0984
  882MOL0     H21699   5.670   4.327   9.738 -2.2241 -1.6606 -1.2536
  882MOL0     H21700   4.016   3.352   9.532  0.3377  0.7731  0.1464
  882MOL0     H21701   3.823   3.265   9.402 -2.3171  0.1318 -1.2600
  882MOL0     H21702   3.481   3.178   9.335 -0.3472 -0.8031 -1.5525
  882MOL0     H21703   3.301   3.031   9.306  1.7336  0.6989 -0.4880
  882MOL0     H21704   2.933   3.183   9.064 -2.6284 -2.4384 -0.1443
  882MOL0     H21705   3.092   3.121   9.010  1.8369  3.0816  1.4554
  882MOL0     H21706   3.017   2.889   9.092  0.0933 -1.5152 -1.2391
  882MOL0     H21707   2.921   2.974   8.955 -2.9132  3.8389  0.9103
  882MOL0     H21708   2.833   2.979   9.242  1.1093 -4.7677 -0.1194
  882MOL0     H21709   2.751   3.031   9.091  2.8392  4.0028  1.1209
  882MOL0     H21710   2.861   2.734   9.142  0.4341  1.2910  2.2626
  882MOL0     H21711   2.732   2.773   9.030 -0.5727  0.9920 -0.1477
  882MOL0     H21712   2.531   2.826   9.394  2.5906  1.2096  1.6135
  882MOL0     H21713   3.079   3.386   9.166  2.3093  3.1267 -0.5161
  882MOL0     H21714   3.314   3.628   9.262  3.1417 -1.4683 -1.2242
  882MOL0     H21715   3.236   3.586   9.105  1.3787 -4.0623 -1.3907
  882MOL0     H21716   3.143   3.578   9.263  0.8398 -3.9382  2.5503
  883MOL0     O21717   3.424   1.655   6.512  0.5718 -0.3613 -0.0844
  883MOL0     C21718   3.373   1.721   6.600 -0.5924 -0.4741  0.3386
  883MOL0     O21719   3.416   1.730   6.733 -0.1865 -0.8972 -1.1538
  883MOL0     C21720   3.495   1.633   6.792 -1.0401 -0.0215 -0.4610
  883MOL0     C21721   3.587   1.683   6.885 -0.2491 -0.2263  0.1434
  883MOL0     C21722   3.672   1.590   6.942 -0.4482 -0.9474  0.2000
  883MOL0     C21723   3.664   1.449   6.929 -0.2885 -0.1089  1.1386
  883MOL0     O21724   3.746   1.374   6.996  0.1157  0.3135  0.4813
  883MOL0     C21725   3.711   1.240   7.017 -0.3985 -0.5043 -0.7052
  883MOL0     C21726   3.799   1.190   7.129 -0.3340  0.8786  0.7631
  883MOL0     C21727   3.769   1.049   7.176  0.3316  0.2260  0.1807
  883MOL0     C21728   3.627   1.023   7.216 -0.4108  0.6363  0.3027
  883MOL0     C21729   3.594   0.868   7.247  0.3098 -0.4140 -0.5598
  883MOL0     C21730   3.660   0.819   7.379 -0.5381  0.2460  0.3754
  883MOL0     C21731   3.582   0.862   7.513  0.7592 -0.3061  1.1843
  883MOL0     C21732   3.668   0.847   7.640 -0.4988  0.2414  0.1438
  883MOL0     N21733   3.575   0.856   7.753 -0.3428  0.3279 -0.1578
  883MOL0     C21734   3.549   0.756   7.844 -1.0670  0.4700  0.2045
  883MOL0     C21735   3.448   0.806   7.921  0.7187 -0.0766  0.0054
  883MOL0     C21736   3.375   0.741   8.032  0.3862 -0.4295  0.5884
  883MOL0     C21737   3.466   0.698   8.144 -0.3055 -0.6821 -0.8555
  883MOL0     C21738   3.390   0.596   8.235 -0.0311  0.5551 -0.1576
  883MOL0     C21739   3.481   0.535   8.340 -0.8037 -0.1120 -0.6038
  883MOL0     O21740   3.569   0.429   8.298  0.0589  0.4213  0.3803
  883MOL0     C21741   3.556   0.315   8.370  1.0087 -0.0972 -0.9424
  883MOL0     C21742   3.502   0.200   8.311  0.8302  0.1880  0.0274
  883MOL0     C21743   3.475   0.092   8.385  1.2196  0.0746 -0.3517
  883MOL0     C21744   3.378  -0.023   8.333 -0.7026  0.7332  0.1055
  883MOL0     C21745   3.527   0.084   8.518  0.2560 -0.1411  0.4425
  883MOL0     C21746   3.509  -0.018   8.619  0.4732 -0.9204  0.4176
  883MOL0     O21747   3.455   0.015   8.740 -0.0170 -0.0214  0.6188
  883MOL0     C21748   3.493  -0.054   8.852 -0.3984  1.3169 -0.3845
  883MOL0     C21749   3.434  -0.183   8.860  0.0425  0.1031 -0.6662
  883MOL0     C21750   3.454  -0.265   8.971  0.5096 -0.0295  0.1466
  883MOL0     C21751   3.540  -0.223   9.069  0.2862  0.7021 -0.2867
  883MOL0     O21752   3.548  -0.320   9.168 -0.5995 -0.3078  0.5357
  883MOL0     C21753   3.677  -0.362   9.203  0.2233  1.0408  0.1409
  883MOL0     C21754   3.669  -0.418   9.345  0.4387 -0.7545  1.0769
  883MOL0     C21755   3.811  -0.439   9.402 -0.0105 -0.0763 -0.2822
  883MOL0     C21756   3.802  -0.517   9.532  0.2110 -1.1465  0.3708
  883MOL0     C21757   3.929  -0.568   9.592 -1.0159 -1.0463 -0.2587
  883MOL0     C21758   3.951  -0.707   9.540 -0.4478  0.8182 -0.1609
  883MOL0     C21759   4.087  -0.762   9.577 -0.9006  0.9717 -0.0678
  883MOL0     C21760   4.101  -0.899   9.540  0.0750 -0.4637 -1.2260
  883MOL0    Cl21761   4.248  -0.965   9.623  0.0349  0.1250  0.2088
  883MOL0     C21762   3.608  -0.098   9.066  0.0710  0.6748  0.0256
  883MOL0     C21763   3.576  -0.008   8.959 -0.2313  0.2782 -0.2530
  883MOL0     O21764   3.542  -0.134   8.578  0.1906 -0.2250 -0.7083
  883MOL0     C21765   3.592   0.196   8.576 -0.7011  0.6129 -0.7234
  883MOL0     C21766   3.591   0.314   8.507 -0.4571 -0.8263  0.2479
  883MOL0     N21767   3.424   0.940   7.893 -0.0871 -0.8312  0.2743
  883MOL0     N21768   3.506   0.969   7.794 -0.6170  0.1013 -0.3399
  883MOL0     C21769   3.570   1.408   6.832 -0.8498 -1.0097  0.5649
  883MOL0     C21770   3.495   1.496   6.758  0.4556  0.3468 -0.3587
  883MOL0     C21771   3.259   1.824   6.550  0.3946 -0.5925 -0.9320
  883MOL0     C21772   3.272   1.901   6.436 -0.2602  0.2270 -0.3802
  883MOL0     C21773   3.178   1.991   6.392 -0.7692 -0.4990  0.0722
  883MOL0     C21774   3.059   2.014   6.461 -0.1801 -0.6952  0.6646
  883MOL0     O21775   2.970   2.116   6.450 -0.1461  0.1240  0.3860
  883MOL0     C21776   2.901   2.133   6.327 -0.5586 -0.5969  0.6005
  883MOL0     C21777   2.755   2.110   6.370  0.4793 -0.4837 -0.8703
  883MOL0     C21778   2.670   2.127   6.244  0.7628 -0.2846 -0.1226
  883MOL0     C21779   2.522   2.093   6.267 -0.3616 -1.1060  0.1590
  883MOL0     C21780   2.458   2.141   6.145 -0.4368  0.1230 -0.5685
  883MOL0     C21781   2.393   2.181   6.050 -0.1244 -0.0284  0.1522
  883MOL0     C21782   3.041   1.928   6.570  0.2530  0.5433 -0.4890
  883MOL0     C21783   3.131   1.836   6.617 -0.1216 -0.4668  1.2450
  883MOL0     C21784   3.109   1.746   6.732  0.1930  0.4439  0.4578
  883MOL0     H21785   3.595   1.786   6.917 -2.3997 -0.7143  2.5451
  883MOL0     H21786   3.748   1.616   7.015  0.0753  0.1909 -0.7320
  883MOL0     H21787   3.735   1.182   6.928  0.2517 -1.7055  0.2117
  883MOL0     H21788   3.605   1.250   7.042  0.1909  0.5603  1.6818
  883MOL0     H21789   3.900   1.195   7.088 -1.9719 -2.4895 -4.7526
  883MOL0     H21790   3.790   1.263   7.210 -1.3984  1.2598  0.3285
  883MOL0     H21791   3.804   0.982   7.097  2.5546  1.3271  0.1638
  883MOL0     H21792   3.839   1.041   7.259 -1.1458  3.5235  1.9740
  883MOL0     H21793   3.592   1.086   7.298  1.6399  0.3206  1.4698
  883MOL0     H21794   3.567   1.055   7.130 -0.0104 -2.7516 -1.4194
  883MOL0     H21795   3.630   0.808   7.163  1.2447 -0.1974 -0.3226
  883MOL0     H21796   3.488   0.842   7.241 -0.0625  1.0066 -0.4150
  883MOL0     H21797   3.679   0.711   7.378  1.1745  0.5044 -1.1687
  883MOL0     H21798   3.760   0.865   7.375 -0.9394  1.0269 -2.0319
  883MOL0     H21799   3.492   0.800   7.522  0.9252 -0.7796 -0.1743
  883MOL0     H21800   3.547   0.965   7.499 -1.0471 -0.8484  1.4862
  883MOL0     H21801   3.721   0.752   7.642 -0.7943  0.0693  2.7279
  883MOL0     H21802   3.737   0.930   7.622  1.2557 -1.8650 -4.4670
  883MOL0     H21803   3.589   0.655   7.840 -1.3852  0.3041  0.9631
  883MOL0     H21804   3.332   0.647   7.996  4.9969 -2.1881 -1.0513
  883MOL0     H21805   3.293   0.804   8.069  1.0452  0.8800 -0.0993
  883MOL0     H21806   3.557   0.645   8.114  0.8330  0.5591  0.3185
  883MOL0     H21807   3.499   0.791   8.192  0.2181  0.7059 -3.6739
  883MOL0     H21808   3.313   0.646   8.296 -0.8790  1.6151 -2.0129
  883MOL0     H21809   3.343   0.518   8.174  1.7955  1.0796 -2.3453
  883MOL0     H21810   3.545   0.621   8.364  1.2962 -1.6066 -0.5338
  883MOL0     H21811   3.423   0.511   8.430 -0.6957 -2.0717 -1.0026
  883MOL0     H21812   3.471   0.182   8.209  0.1793 -2.7654  0.6455
  883MOL0     H21813   3.425  -0.122   8.339 -0.4818  0.7017 -1.6580
  883MOL0     H21814   3.348  -0.004   8.230 -1.2409  1.9465  0.4698
  883MOL0     H21815   3.290  -0.032   8.398 -0.1420 -4.7316  0.6366
  883MOL0     H21816   3.369  -0.232   8.787  0.3498 -0.6483 -0.4397
  883MOL0     H21817   3.399  -0.359   8.968 -1.4440  1.0680 -1.5656
  883MOL0     H21818   3.694  -0.447   9.137 -1.9250  2.2760 -2.2312
  883MOL0     H21819   3.756  -0.286   9.197  2.0812 -0.7777  0.6462
  883MOL0     H21820   3.619  -0.347   9.412 -4.9999 -1.9031 -1.2371
  883MOL0     H21821   3.620  -0.515   9.346  1.6562 -1.4366 -0.5339
  883MOL0     H21822   3.857  -0.344   9.432  0.3266  0.6930 -2.9572
  883MOL0     H21823   3.871  -0.488   9.326 -0.1623 -0.9069  0.1273
  883MOL0     H21824   3.731  -0.601   9.527 -1.6536  0.3135  0.9626
  883MOL0     H21825   3.759  -0.450   9.607  1.8254  0.5897 -0.1798
  883MOL0     H21826   4.017  -0.510   9.560 -1.5355 -1.1678 -1.9919
  883MOL0     H21827   3.930  -0.565   9.701 -1.8694 -0.6285 -0.2604
  883MOL0     H21828   3.937  -0.721   9.432 -1.6212 -3.2859  0.3257
  883MOL0     H21829   3.881  -0.771   9.595 -0.0796  0.5249 -0.0264
  883MOL0     H21830   4.106  -0.754   9.684  1.3973 -0.3493 -0.3240
  883MOL0     H21831   4.166  -0.709   9.522 -0.0296  1.6958  1.7867
  883MOL0     H21832   4.108  -0.907   9.431  1.0163  2.4716 -1.4416
  883MOL0     H21833   4.012  -0.956   9.571 -2.0255  2.1515 -2.0253
  883MOL0     H21834   3.682  -0.086   9.144  0.3595  0.4664 -0.2107
  883MOL0     H21835   3.622   0.086   8.931  1.5061 -1.3114 -3.2971
  883MOL0     H21836   3.632   0.195   8.676  0.3930 -4.6559 -0.9468
  883MOL0     H21837   3.632   0.407   8.545  0.4452 -1.4731  0.8958
  883MOL0     H21838   3.556   1.304   6.802  0.4849 -0.7447 -1.1611
  883MOL0     H21839   3.417   1.464   6.690 -0.6298  2.5240 -0.2356
  883MOL0     H21840   3.368   1.898   6.384  0.1971  1.0429  0.3882
  883MOL0     H21841   3.205   2.052   6.307  4.4049 -0.8531  1.1656
  883MOL0     H21842   2.918   2.229   6.277  0.2921 -1.7661 -1.5178
  883MOL0     H21843   2.925   2.054   6.254  2.1323  0.0849  0.6522
  883MOL0     H21844   2.712   2.180   6.442  0.4310 -0.8042 -0.5791
  883MOL0     H21845   2.737   2.005   6.398  3.0821 -1.0589 -1.1043
  883MOL0     H21846   2.682   2.232   6.214 -2.3728 -0.3219 -1.9721
  883MOL0     H21847   2.704   2.064   6.162  1.1089 -0.9640  0.5337
  883MOL0     H21848   2.481   2.133   6.359  1.0322  0.3540  0.1928
  883MOL0     H21849   2.508   1.985   6.275 -0.1928 -1.2230 -0.9119
  883MOL0     H21850   2.324   2.223   5.979  3.2196  2.2755 -1.9825
  883MOL0     H21851   2.950   1.938   6.629  1.2897 -1.6960  1.6484
  883MOL0     H21852   3.143   1.649   6.694 -0.0380  1.6010 -3.0912
  883MOL0     H21853   3.169   1.776   6.818 -0.5901  3.5823  0.0390
  883MOL0     H21854   3.004   1.746   6.763 -0.7295  2.6608 -2.1804
  884MOL0     O21855  10.224   1.140   2.607  0.3810  0.2148 -0.2209
  884MOL0     C21856  10.202   1.193   2.500  0.3692 -0.6756  0.0724
  884MOL0     O21857  10.242   1.326   2.464  0.4142 -0.4306 -0.5899
  884MOL0     C21858  10.331   1.407   2.531 -0.3032  1.8525 -0.5620
  884MOL0     C21859  10.438   1.347   2.607 -0.4327 -0.7210  0.1462
  884MOL0     C21860  10.538   1.420   2.667 -0.6156  0.4438 -1.2592
  884MOL0     C21861  10.527   1.557   2.664 -0.2851  0.2831  0.0638
  884MOL0     O21862  10.618   1.629   2.740 -0.1746  0.0283  0.0799
  884MOL0     C21863  10.686   1.741   2.685  0.4988  0.1754  0.6644
  884MOL0     C21864  10.789   1.700   2.583  0.1468  0.0713  0.2576
  884MOL0     C21865  10.887   1.603   2.648  0.4917 -0.8001 -0.2119
  884MOL0     C21866  10.963   1.529   2.538 -0.4394  0.3265 -0.8690
  884MOL0     C21867  10.903   1.401   2.488  0.6925  1.0861  0.4958
  884MOL0     C21868  11.019   1.286   2.464  0.3261 -0.5577  0.5787
  884MOL0     C21869  10.967   1.160   2.393 -0.1840 -0.1530 -0.8497
  884MOL0     C21870  11.003   1.029   2.462  0.5007  0.0237  0.6793
  884MOL0     N21871  10.947   0.909   2.395 -0.3521 -0.0094 -0.0927
  884MOL0     C21872  10.840   0.829   2.439 -0.3746 -0.7509 -0.5716
  884MOL0     C21873  10.805   0.761   2.327  0.9749  0.3852 -0.4456
  884MOL0     C21874  10.689   0.660   2.324 -0.2703  0.7165  0.3988
  884MOL0     C21875  10.752   0.534   2.267  0.5514  0.2020  0.8491
  884MOL0     C21876  10.640   0.427   2.229  0.1796  0.1867 -0.1283
  884MOL0     C21877  10.552   0.464   2.108  0.5865  0.3236  0.9217
  884MOL0     O21878  10.633   0.478   1.987 -0.5480  0.2778  0.2134
  884MOL0     C21879  10.564   0.481   1.869  0.0137 -0.8146 -0.2935
  884MOL0     C21880  10.636   0.545   1.769  0.5033 -0.0744 -0.0423
  884MOL0     C21881  10.578   0.547   1.636 -0.7889  0.0862 -0.3837
  884MOL0     C21882  10.670   0.625   1.537  0.8352  0.4780  0.3320
  884MOL0     C21883  10.469   0.472   1.597 -0.4692  0.7239  1.0281
  884MOL0     C21884  10.421   0.462   1.462  0.5017 -0.1291 -0.1394
  884MOL0     O21885  10.311   0.396   1.451 -0.1904 -0.0441  0.2037
  884MOL0     C21886  10.261   0.359   1.327  0.1558 -1.1928  0.6825
  884MOL0     C21887  10.285   0.231   1.272  0.1145  0.6530 -0.2044
  884MOL0     C21888  10.253   0.193   1.144 -0.5208  0.0336  0.0232
  884MOL0     C21889  10.196   0.287   1.061 -0.2130  0.3511 -0.6349
  884MOL0     O21890  10.135   0.272   0.937  0.2420 -0.5823  0.1110
  884MOL0     C21891  10.132   0.142   0.875  0.7562 -1.3342 -0.0395
  884MOL0     C21892  10.140   0.162   0.730  0.1684  0.2145 -0.3117
  884MOL0     C21893  10.159   0.020   0.661 -0.4147 -0.1311 -0.2843
  884MOL0     C21894  10.034  -0.062   0.669 -0.0367 -0.5663 -0.7449
  884MOL0     C21895  10.044  -0.195   0.620  0.0879  0.0410  1.1461
  884MOL0     C21896   9.909  -0.266   0.635  0.4697 -0.2684 -0.6516
  884MOL0     C21897   9.902  -0.369   0.531 -0.1218  0.2887 -0.9402
  884MOL0     C21898   9.775  -0.454   0.515  0.0350 -0.3442  0.0955
  884MOL0    Cl21899   9.728  -0.504   0.679  0.1443  0.1642  0.0312
  884MOL0     C21900  10.173   0.418   1.111 -0.6901  0.8674 -0.0597
  884MOL0     C21901  10.206   0.455   1.241 -0.3391 -0.2009  1.2229
  884MOL0     O21902  10.482   0.513   1.370 -0.5564  0.3895 -0.3608
  884MOL0     C21903  10.410   0.401   1.704  0.5413  0.0661  0.3963
  884MOL0     C21904  10.449   0.406   1.837 -0.8291 -0.0445  0.5142
  884MOL0     N21905  10.881   0.805   2.221  0.1004 -0.0826  0.2275
  884MOL0     N21906  10.965   0.898   2.257  0.3317  0.7620 -0.2140
  884MOL0     C21907  10.426   1.617   2.598  0.7540  0.4387 -0.1797
  884MOL0     C21908  10.326   1.549   2.527 -0.2650  0.8899  0.0345
  884MOL0     C21909  10.132   1.129   2.382  0.3390 -0.9903 -0.0171
  884MOL0     C21910  10.180   1.162   2.259 -0.4997  1.2044 -0.2216
  884MOL0     C21911  10.132   1.122   2.137  0.2918  0.0739 -0.3790
  884MOL0     C21912  10.020   1.027   2.135  0.7112  0.9448 -0.5914
  884MOL0     O21913   9.956   0.997   2.024  0.6364  0.8619 -0.2551
  884MOL0     C21914   9.819   0.948   2.018 -0.3281 -0.0920 -0.0854
  884MOL0     C21915   9.818   0.789   2.020  0.2301  1.2476  0.2595
  884MOL0     C21916   9.891   0.736   1.898 -0.0955 -0.9475  0.4629
  884MOL0     C21917   9.801   0.733   1.767  0.2783 -0.7620  0.2268
  884MOL0     C21918   9.890   0.698   1.656 -0.2860 -0.7961  0.5965
  884MOL0     C21919   9.969   0.657   1.573  0.1541  0.3217 -0.2244
  884MOL0     C21920   9.971   0.987   2.267 -0.2259 -1.0058 -0.1665
  884MOL0     C21921  10.029   1.031   2.384  0.1205 -0.2642  0.7839
  884MOL0     C21922   9.977   0.975   2.511 -0.1399 -0.4689 -0.5700
  884MOL0     H21923  10.445   1.239   2.617  0.1738 -1.2929 -4.2959
  884MOL0     H21924  10.614   1.375   2.731 -0.5006  2.8995  0.4309
  884MOL0     H21925  10.723   1.807   2.764  3.3869 -0.4865 -0.0082
  884MOL0     H21926  10.623   1.801   2.618 -2.8019 -3.5657  0.0117
  884MOL0     H21927  10.727   1.654   2.505  0.6387 -0.0988 -0.0386
  884MOL0     H21928  10.838   1.783   2.532 -1.6661  0.7731 -0.4222
  884MOL0     H21929  10.953   1.664   2.710 -2.1607  1.9606  0.1278
  884MOL0     H21930  10.840   1.521   2.704 -1.4033 -0.6535 -1.4919
  884MOL0     H21931  10.989   1.599   2.458  3.1600  2.7503  2.1075
  884MOL0     H21932  11.058   1.499   2.583 -0.1170  2.8545  0.3100
  884MOL0     H21933  10.864   1.425   2.389  3.6372  1.2535 -0.7382
  884MOL0     H21934  10.819   1.359   2.544  1.9387 -0.1038  1.5441
  884MOL0     H21935  11.094   1.334   2.401 -1.3875  1.2629 -0.1667
  884MOL0     H21936  11.064   1.254   2.558 -4.6925 -2.5465  2.6999
  884MOL0     H21937  11.025   1.171   2.301  2.6589  1.1486  0.9676
  884MOL0     H21938  10.859   1.166   2.378 -0.4842  3.9475  1.6977
  884MOL0     H21939  11.112   1.021   2.472  0.4758  0.1464  1.0649
  884MOL0     H21940  10.957   1.035   2.561  1.6700 -2.5567  1.4504
  884MOL0     H21941  10.797   0.829   2.539  1.4872  0.6830  0.2833
  884MOL0     H21942  10.618   0.709   2.255  1.6621  2.2448 -0.6414
  884MOL0     H21943  10.637   0.652   2.419 -2.6684 -2.4560 -0.9996
  884MOL0     H21944  10.826   0.551   2.188  1.6332  0.1852  1.8367
  884MOL0     H21945  10.810   0.479   2.342 -0.1336 -3.4141 -1.0282
  884MOL0     H21946  10.695   0.333   2.214  1.7073  0.4138  3.1405
  884MOL0     H21947  10.581   0.403   2.318 -0.3796 -1.3736 -0.8703
  884MOL0     H21948  10.467   0.396   2.097  2.9011 -2.4197 -2.8162
  884MOL0     H21949  10.499   0.558   2.123 -2.1815 -1.2612  1.8424
  884MOL0     H21950  10.735   0.580   1.797 -0.0411  0.4074  1.4093
  884MOL0     H21951  10.741   0.683   1.596  1.6787 -0.2183  0.0126
  884MOL0     H21952  10.609   0.694   1.477 -0.4622 -0.3284  0.6813
  884MOL0     H21953  10.739   0.563   1.479  0.5611 -1.1155  1.6500
  884MOL0     H21954  10.333   0.155   1.334 -0.3644 -0.4400 -1.1295
  884MOL0     H21955  10.270   0.090   1.115 -1.1499 -0.1364  0.2421
  884MOL0     H21956  10.220   0.085   0.907  1.1394 -0.9374 -0.3671
  884MOL0     H21957  10.039   0.092   0.902  0.7859 -0.9402  0.8092
  884MOL0     H21958  10.053   0.217   0.691  1.7679  0.7638 -3.3602
  884MOL0     H21959  10.229   0.225   0.723  1.2552 -0.7479  2.9142
  884MOL0     H21960  10.240  -0.043   0.698  0.3502  1.4633  0.8769
  884MOL0     H21961  10.179   0.041   0.555 -4.6514  1.0750 -1.0101
  884MOL0     H21962   9.957  -0.005   0.616  0.0059 -0.7754 -1.0303
  884MOL0     H21963  10.005  -0.076   0.773  2.3602  1.2289  0.2609
  884MOL0     H21964  10.076  -0.192   0.515 -1.9055 -1.6133  0.4124
  884MOL0     H21965  10.124  -0.256   0.662  2.2655  1.5002 -0.6103
  884MOL0     H21966   9.830  -0.194   0.611 -0.4699 -0.8387  0.6547
  884MOL0     H21967   9.891  -0.298   0.738  1.8136  1.7638  0.2949
  884MOL0     H21968   9.981  -0.434   0.568  0.6296  2.7849  2.2596
  884MOL0     H21969   9.932  -0.347   0.428  0.5981 -1.7661 -1.2043
  884MOL0     H21970   9.775  -0.546   0.456 -0.7644 -1.3492  1.5801
  884MOL0     H21971   9.700  -0.392   0.464 -1.1477 -0.2594  1.8399
  884MOL0     H21972  10.115   0.496   1.063 -2.0293  1.1097  1.8460
  884MOL0     H21973  10.201   0.553   1.286  1.9054 -0.2740  1.7466
  884MOL0     H21974  10.336   0.324   1.685  0.9041 -0.6118  1.6172
  884MOL0     H21975  10.399   0.344   1.911 -1.1935 -2.4480 -1.5580
  884MOL0     H21976  10.409   1.724   2.598 -1.3006  0.2615 -3.5017
  884MOL0     H21977  10.246   1.595   2.470 -1.4732  1.4226  2.0804
  884MOL0     H21978  10.263   1.231   2.262  3.0139 -2.7110  1.4534
  884MOL0     H21979  10.164   1.177   2.049 -0.6763 -0.2291 -0.9373
  884MOL0     H21980   9.763   0.986   2.104  2.5922  0.4196  1.7335
  884MOL0     H21981   9.773   0.973   1.922 -0.5493 -1.0826 -0.2455
  884MOL0     H21982   9.712   0.760   2.018  0.3660  0.7047  0.6800
  884MOL0     H21983   9.863   0.736   2.104 -1.1738  0.1101  0.3373
  884MOL0     H21984   9.981   0.794   1.875 -0.2899 -1.3906 -1.5764
  884MOL0     H21985   9.925   0.634   1.919 -0.9214 -1.3646 -0.1847
  884MOL0     H21986   9.760   0.834   1.761  1.0235 -0.4628  0.0654
  884MOL0     H21987   9.724   0.656   1.762 -0.6195  0.0867  0.7434
  884MOL0     H21988  10.039   0.603   1.513 -1.2920  0.0885 -1.8080
  884MOL0     H21989   9.884   0.923   2.264 -0.1567 -1.1002 -0.1791
  884MOL0     H21990   9.897   1.038   2.550  1.0039  1.0109 -0.5387
  884MOL0     H21991   9.936   0.874   2.498 -0.7562 -0.6292  2.0950
  884MOL0     H21992  10.060   0.967   2.581  1.6648 -1.6712 -2.6910
  885MOL0     O21993   3.166   5.225   5.051 -0.0736 -0.6420 -0.3376
  885MOL0     C21994   3.070   5.151   5.025 -0.9700  0.3838  0.1876
  885MOL0     O21995   2.950   5.191   4.960 -0.3611  0.1537 -0.0765
  885MOL0     C21996   2.904   5.318   4.968  0.0444 -0.0610 -0.3805
  885MOL0     C21997   2.950   5.422   5.050 -0.1858 -1.2704  0.6002
  885MOL0     C21998   2.883   5.550   5.049  1.2599 -0.4399  0.1934
  885MOL0     C21999   2.768   5.578   4.968 -0.1583  0.1970  0.8039
  885MOL0     O22000   2.698   5.697   4.975 -0.2017  1.4247 -0.1052
  885MOL0     C22001   2.742   5.809   5.054 -0.2649  0.0156  0.6450
  885MOL0     C22002   2.863   5.884   4.992 -0.2450  0.2800 -0.3914
  885MOL0     C22003   2.823   5.954   4.871  0.0345 -0.2935 -0.2558
  885MOL0     C22004   2.928   6.056   4.814 -0.3255 -0.3577 -0.4969
  885MOL0     C22005   2.868   6.142   4.696  0.0266 -0.1748 -0.0432
  885MOL0     C22006   2.965   6.246   4.672 -0.2413 -0.6853  0.0011
  885MOL0     C22007   2.912   6.335   4.560 -0.1021 -0.5110 -0.0469
  885MOL0     C22008   2.791   6.421   4.602 -0.0873  1.1264  0.2077
  885MOL0     N22009   2.832   6.524   4.690 -0.3864  0.0032  0.3686
  885MOL0     C22010   2.911   6.630   4.669 -0.0459  0.5984  1.2085
  885MOL0     C22011   2.914   6.691   4.786  0.1961  0.1948  0.4018
  885MOL0     C22012   2.981   6.825   4.811 -0.7670 -0.6325 -0.7850
  885MOL0     C22013   3.108   6.796   4.893 -0.0551  0.2939  0.4429
  885MOL0     C22014   3.184   6.922   4.930 -0.6849 -0.0166  0.2155
  885MOL0     C22015   3.140   6.998   5.049  0.1164  0.4833 -0.2870
  885MOL0     O22016   3.029   7.076   4.999  0.7596 -0.3497 -0.6356
  885MOL0     C22017   2.939   7.136   5.086  0.2778 -0.8146 -0.7017
  885MOL0     C22018   2.855   7.230   5.024  0.0785  0.4095  0.4920
  885MOL0     C22019   2.757   7.317   5.090 -0.1018  0.9228  0.5485
  885MOL0     C22020   2.663   7.422   5.028  0.2131 -0.1660 -0.4694
  885MOL0     C22021   2.756   7.302   5.233 -0.2137 -0.7401 -0.2153
  885MOL0     C22022   2.657   7.377   5.320  0.5753 -0.2178 -0.3553
  885MOL0     O22023   2.614   7.307   5.432  0.1932  1.2586  0.6409
  885MOL0     C22024   2.583   7.372   5.547  0.2888 -0.8823 -1.0299
  885MOL0     C22025   2.606   7.500   5.583 -0.0966 -1.1643  0.0642
  885MOL0     C22026   2.578   7.556   5.710 -0.6563  0.3116  1.0091
  885MOL0     C22027   2.527   7.475   5.812 -0.1266  0.6934  0.4546
  885MOL0     O22028   2.504   7.534   5.933  0.2001  0.0775  0.5915
  885MOL0     C22029   2.519   7.445   6.050  0.6760 -0.4849  0.7366
  885MOL0     C22030   2.523   7.540   6.168  0.1271 -0.2923 -0.3818
  885MOL0     C22031   2.530   7.483   6.305  0.5419 -0.0446  0.1963
  885MOL0     C22032   2.473   7.341   6.315  0.6854 -0.6699 -0.4837
  885MOL0     C22033   2.483   7.297   6.459 -0.9932  0.5241 -0.1198
  885MOL0     C22034   2.450   7.154   6.490 -0.3940 -0.3344  0.2533
  885MOL0     C22035   2.476   7.137   6.642  0.0591  0.5249  0.0076
  885MOL0     C22036   2.442   6.992   6.682 -0.3353 -0.3813  0.1784
  885MOL0    Cl22037   2.503   6.978   6.850 -0.2015 -0.5838  0.1940
  885MOL0     C22038   2.496   7.341   5.775  1.0046  0.3229  0.0854
  885MOL0     C22039   2.528   7.296   5.649  0.5612  1.0400  1.1011
  885MOL0     O22040   2.601   7.486   5.292 -0.5628 -0.0334  0.8575
  885MOL0     C22041   2.845   7.216   5.291  0.2852  0.2456  0.9531
  885MOL0     C22042   2.928   7.123   5.223 -0.9532 -0.1875  0.0358
  885MOL0     N22043   2.835   6.626   4.878 -0.6676  0.0388 -0.2613
  885MOL0     N22044   2.790   6.530   4.822  0.8677  0.5355  0.5878
  885MOL0     C22045   2.720   5.476   4.887 -1.0076 -0.1341  0.9541
  885MOL0     C22046   2.781   5.342   4.893 -0.5195  0.0192  0.1054
  885MOL0     C22047   3.101   5.006   5.032 -1.4621  0.8546 -0.6501
  885MOL0     C22048   3.229   4.961   5.011 -0.8743 -0.7895  0.3670
  885MOL0     C22049   3.257   4.831   5.015 -0.2386 -0.2063  0.7171
  885MOL0     C22050   3.164   4.740   5.030 -0.7368  0.3712  0.3970
  885MOL0     O22051   3.178   4.600   5.020 -0.1318  0.8654  0.4718
  885MOL0     C22052   3.302   4.557   4.962  0.0463  0.2712  0.0778
  885MOL0     C22053   3.292   4.406   4.954 -0.5927  0.4753 -0.1346
  885MOL0     C22054   3.167   4.367   4.870  0.2446  0.4606 -0.4246
  885MOL0     C22055   3.145   4.220   4.891 -0.8948  0.1800 -0.3303
  885MOL0     C22056   3.270   4.148   4.854 -0.8773  0.2034 -0.2352
  885MOL0     C22057   3.370   4.096   4.806  0.3325  1.0566  0.0477
  885MOL0     C22058   3.034   4.780   5.048 -0.0297  0.4696  0.0480
  885MOL0     C22059   2.996   4.913   5.056 -0.0165  0.6068  0.2561
  885MOL0     C22060   2.858   4.951   5.096  1.2175 -1.2436 -0.5426
  885MOL0     H22061   3.044   5.412   5.103  0.1535  3.0993  1.1858
  885MOL0     H22062   2.928   5.618   5.121 -0.4513  0.9029  0.0674
  885MOL0     H22063   2.782   5.779   5.151  4.8150  0.9984 -0.8202
  885MOL0     H22064   2.657   5.878   5.059 -1.2228 -0.7045 -2.9239
  885MOL0     H22065   2.915   5.951   5.061  6.6410 -3.3675 -1.0719
  885MOL0     H22066   2.944   5.813   4.971 -1.3748 -0.4878 -2.4237
  885MOL0     H22067   2.806   5.876   4.796 -1.5002 -0.8777  0.6477
  885MOL0     H22068   2.723   5.997   4.879  0.0764 -0.5390  2.3144
  885MOL0     H22069   2.936   6.127   4.897 -3.0429 -0.8939  0.3195
  885MOL0     H22070   3.021   6.003   4.794  1.2411  1.2457  2.0071
  885MOL0     H22071   2.782   6.189   4.743 -1.0699 -1.6870 -0.4412
  885MOL0     H22072   2.843   6.079   4.610  1.2298  0.4335 -0.8662
  885MOL0     H22073   2.982   6.306   4.762  1.0118 -3.0925  1.4635
  885MOL0     H22074   3.064   6.201   4.658 -0.2688 -2.5654  4.3612
  885MOL0     H22075   2.888   6.277   4.471  1.5395  2.8863 -2.9783
  885MOL0     H22076   2.980   6.417   4.532 -0.5229  0.0628  0.5812
  885MOL0     H22077   2.747   6.451   4.506  1.0747  1.3784 -0.2575
  885MOL0     H22078   2.718   6.360   4.656 -1.4918  2.7850  0.2735
  885MOL0     H22079   2.946   6.650   4.568  1.2601 -2.0757  1.0191
  885MOL0     H22080   2.917   6.885   4.877 -0.1513 -1.6509  0.7955
  885MOL0     H22081   2.997   6.878   4.717 -0.0225  0.6273  0.0200
  885MOL0     H22082   3.074   6.754   4.988 -1.2724 -0.0607 -0.1274
  885MOL0     H22083   3.162   6.715   4.844 -0.5067  0.2681 -0.0238
  885MOL0     H22084   3.287   6.888   4.935 -0.3121  1.0418 -0.0055
  885MOL0     H22085   3.195   6.994   4.849  2.3369  1.1926  1.5524
  885MOL0     H22086   3.112   6.932   5.132 -0.5052 -0.8685 -1.5297
  885MOL0     H22087   3.215   7.068   5.088 -2.2796  3.4100 -0.5738
  885MOL0     H22088   2.870   7.243   4.917  1.4586 -0.5700  0.5475
  885MOL0     H22089   2.683   7.417   4.921  1.7445 -1.3890 -0.1781
  885MOL0     H22090   2.701   7.522   5.051 -0.3935  0.6370 -2.7534
  885MOL0     H22091   2.561   7.407   5.063 -0.2735  0.0865 -1.7511
  885MOL0     H22092   2.652   7.569   5.514 -0.0852 -0.0882  1.1252
  885MOL0     H22093   2.592   7.661   5.735  1.5823  0.2664  0.1706
  885MOL0     H22094   2.433   7.380   6.065 -2.5056  3.0624 -0.4420
  885MOL0     H22095   2.614   7.397   6.026  1.5729  1.8232 -0.6201
  885MOL0     H22096   2.599   7.615   6.148  0.2060 -0.5869 -1.2434
  885MOL0     H22097   2.425   7.589   6.173 -0.8716 -2.1328 -0.7573
  885MOL0     H22098   2.483   7.549   6.379  1.2133  0.4227  0.2154
  885MOL0     H22099   2.636   7.482   6.331  1.3138 -2.5329 -2.5641
  885MOL0     H22100   2.531   7.282   6.243 -1.4375 -0.6091 -2.3605
  885MOL0     H22101   2.367   7.339   6.288 -0.4635 -1.9869  3.3935
  885MOL0     H22102   2.579   7.318   6.507 -1.2196  0.1730  0.5004
  885MOL0     H22103   2.419   7.368   6.512 -0.0099  1.6866 -0.4367
  885MOL0     H22104   2.509   7.085   6.428  0.1797  1.5578 -1.4231
  885MOL0     H22105   2.345   7.137   6.463  0.5221 -5.6063 -1.0026
  885MOL0     H22106   2.422   7.206   6.707 -0.4891 -0.2902  0.4338
  885MOL0     H22107   2.577   7.149   6.682  0.2773 -1.4692  0.1571
  885MOL0     H22108   2.493   6.922   6.615  0.2286  1.2158 -1.1352
  885MOL0     H22109   2.337   6.967   6.668 -0.2485  0.1889 -1.7983
  885MOL0     H22110   2.447   7.275   5.846 -1.0456 -1.3022 -2.6008
  885MOL0     H22111   2.505   7.192   5.627 -0.9479  1.8010 -1.3159
  885MOL0     H22112   2.863   7.221   5.398  1.3157  1.3412  0.7547
  885MOL0     H22113   2.999   7.064   5.280 -2.7719 -2.0288  0.5179
  885MOL0     H22114   2.645   5.497   4.811 -1.2403 -2.1898  0.5423
  885MOL0     H22115   2.740   5.266   4.827  1.8390  0.6374 -2.2365
  885MOL0     H22116   3.313   5.026   4.989 -1.6366  0.6912  1.5833
  885MOL0     H22117   3.357   4.806   4.981 -0.3011  0.2960  0.1422
  885MOL0     H22118   3.322   4.608   4.867  2.8956  2.4372  1.6601
  885MOL0     H22119   3.385   4.592   5.024  1.5093 -1.9103 -0.5553
  885MOL0     H22120   3.288   4.381   5.060 -1.8218 -3.2010 -0.9137
  885MOL0     H22121   3.382   4.368   4.904  0.6609  1.1871  1.4912
  885MOL0     H22122   3.070   4.412   4.893  0.9719  0.8514  2.2732
  885MOL0     H22123   3.185   4.388   4.764 -1.7195  1.2992 -0.6459
  885MOL0     H22124   3.060   4.180   4.835 -0.6356 -1.7057  0.5353
  885MOL0     H22125   3.136   4.201   4.999 -1.7472 -2.7016 -0.8206
  885MOL0     H22126   3.453   4.045   4.761  0.1188 -0.6068  1.4171
  885MOL0     H22127   2.952   4.713   5.072 -0.8392  1.1663 -0.7120
  885MOL0     H22128   2.811   4.898   5.179  0.6140  0.4754  0.2496
  885MOL0     H22129   2.860   5.050   5.141  4.7478 -0.8615 -1.2130
  885MOL0     H22130   2.786   4.929   5.017  1.5607  3.3754 -2.4816
  886MOL0     O22131   5.121  10.338   0.981  0.2968 -0.1355 -0.2757
  886MOL0     C22132   5.199  10.254   1.028 -0.5356 -0.1151 -0.4491
  886MOL0     O22133   5.298  10.288   1.116  0.2403 -0.2964 -0.5117
  886MOL0     C22134   5.302  10.414   1.161 -0.5595  0.3995 -0.7929
  886MOL0     C22135   5.404  10.494   1.125 -0.2556  0.5482  0.3289
  886MOL0     C22136   5.413  10.621   1.173 -0.3571 -0.4292  0.6080
  886MOL0     C22137   5.324  10.666   1.269  0.8693 -0.3287 -0.5062
  886MOL0     O22138   5.341  10.784   1.335 -0.6765  0.3487  0.2121
  886MOL0     C22139   5.445  10.876   1.319  0.4239  0.1613 -0.1216
  886MOL0     C22140   5.400  10.993   1.227  0.3127  0.0986 -0.5933
  886MOL0     C22141   5.250  11.046   1.271  1.2103 -0.6149  0.5310
  886MOL0     C22142   5.241  11.135   1.397 -0.1106 -0.1214 -0.6264
  886MOL0     C22143   5.192  11.033   1.512  0.3225  0.5862  0.1553
  886MOL0     C22144   5.197  11.090   1.660  0.0380 -0.8894  0.2186
  886MOL0     C22145   5.107  11.208   1.692  1.2055  0.5599  0.6575
  886MOL0     C22146   4.967  11.171   1.745  0.0484 -1.1670 -0.4716
  886MOL0     N22147   4.901  11.304   1.784  0.2407 -0.3334  0.1563
  886MOL0     C22148   4.856  11.402   1.699 -0.9939 -0.4875  0.1499
  886MOL0     C22149   4.829  11.510   1.776 -0.2520 -0.2652 -0.3067
  886MOL0     C22150   4.788  11.639   1.720  0.3442  0.6552  0.6586
  886MOL0     C22151   4.735  11.734   1.822  0.1969  0.9923 -1.6144
  886MOL0     C22152   4.604  11.663   1.882  0.9918  0.3692  0.3096
  886MOL0     C22153   4.522  11.746   1.980 -0.6994 -0.1247 -0.4210
  886MOL0     O22154   4.441  11.830   1.900 -0.6813  0.2089 -0.1979
  886MOL0     C22155   4.357  11.919   1.957  1.1068  0.0472 -0.8277
  886MOL0     C22156   4.295  12.008   1.879  0.2667  0.7846  0.9033
  886MOL0     C22157   4.215  12.115   1.921 -0.1306 -1.2612 -1.1808
  886MOL0     C22158   4.176  12.218   1.817 -0.8701 -0.1956  0.1356
  886MOL0     C22159   4.180  12.125   2.066  0.4887  0.4913  1.4719
  886MOL0     C22160   4.100  12.234   2.127  0.3960  0.3634  0.1137
  886MOL0     O22161   4.120  12.257   2.262  0.4588  0.8161  0.5533
  886MOL0     C22162   4.052  12.362   2.313  0.9930 -0.0095 -0.5057
  886MOL0     C22163   3.920  12.335   2.352 -0.7671  1.0694 -0.6501
  886MOL0     C22164   3.847  12.438   2.420 -0.1694  0.7331 -0.4900
  886MOL0     C22165   3.908  12.567   2.436  0.0197 -0.2564 -0.5668
  886MOL0     O22166   3.826  12.660   2.485 -0.0221 -0.5721  0.2966
  886MOL0     C22167   3.862  12.798   2.482  0.2921 -0.6351 -0.1356
  886MOL0     C22168   3.742  12.883   2.526  0.7441  0.5306  0.0907
  886MOL0     C22169   3.784  13.005   2.612 -0.5334 -0.2710  0.1535
  886MOL0     C22170   3.849  13.106   2.513  0.1082  0.3842  0.1417
  886MOL0     C22171   3.933  13.214   2.592  0.5666 -0.4633  0.2268
  886MOL0     C22172   3.997  13.307   2.494  0.3752  0.0508 -0.0425
  886MOL0     C22173   4.064  13.411   2.581 -0.6451  0.1793 -0.2589
  886MOL0     C22174   4.117  13.540   2.510 -0.3255  0.3522  0.4000
  886MOL0    Cl22175   4.205  13.633   2.625 -0.4155  0.6461  0.2283
  886MOL0     C22176   4.041  12.582   2.407 -0.9033 -0.3529  0.2987
  886MOL0     C22177   4.111  12.478   2.350 -0.0260 -0.0420  0.4536
  886MOL0     O22178   4.008  12.283   2.061 -0.5979 -0.0016 -0.5976
  886MOL0     C22179   4.243  12.034   2.150 -1.0172 -0.4716  0.0570
  886MOL0     C22180   4.338  11.936   2.097 -0.3569 -0.5007 -0.5812
  886MOL0     N22181   4.854  11.470   1.899  0.2570 -0.1568  0.4611
  886MOL0     N22182   4.916  11.362   1.906 -0.6499  0.5663 -0.2914
  886MOL0     C22183   5.218  10.581   1.305 -0.2720  0.7110  0.2980
  886MOL0     C22184   5.203  10.455   1.249 -0.4060  0.3417 -0.8432
  886MOL0     C22185   5.173  10.120   0.971  0.9619  0.4820  0.5664
  886MOL0     C22186   5.056  10.080   0.904 -0.8626 -0.4973  1.5967
  886MOL0     C22187   5.046   9.956   0.836 -0.3936 -0.1143  0.5040
  886MOL0     C22188   5.156   9.859   0.854  0.3245  0.0790  0.3556
  886MOL0     O22189   5.134   9.739   0.793  0.0392  0.1474 -0.2642
  886MOL0     C22190   5.153   9.634   0.885  0.2128  0.6535 -0.6199
  886MOL0     C22191   5.104   9.496   0.830  0.4096  0.0421 -0.2167
  886MOL0     C22192   5.216   9.412   0.766  0.8300  0.6491 -0.0008
  886MOL0     C22193   5.213   9.456   0.616  1.2132 -0.5687 -0.2838
  886MOL0     C22194   5.303   9.364   0.550  0.8696  0.6442 -0.4818
  886MOL0     C22195   5.390   9.291   0.501  0.4135  0.5545  0.2072
  886MOL0     C22196   5.269   9.901   0.926  0.7053 -0.6134 -0.1292
  886MOL0     C22197   5.287  10.025   0.980  0.4494  0.1798  0.7066
  886MOL0     C22198   5.434  10.052   1.033  0.1075 -0.0539  0.6779
  886MOL0     H22199   5.472  10.458   1.049 -0.2956  1.9655 -0.4096
  886MOL0     H22200   5.494  10.682   1.134  1.8735 -0.6193  4.4374
  886MOL0     H22201   5.539  10.837   1.280  0.9289  0.0727  1.1391
  886MOL0     H22202   5.479  10.908   1.418  2.2491  1.0976 -0.9887
  886MOL0     H22203   5.465  11.081   1.221  1.9000 -0.7767  2.1696
  886MOL0     H22204   5.392  10.966   1.121 -1.7687  2.0486 -1.0179
  886MOL0     H22205   5.213  11.118   1.197 -2.0014  1.8855  4.1310
  886MOL0     H22206   5.179  10.964   1.261  1.7721 -0.8633 -2.1233
  886MOL0     H22207   5.338  11.180   1.421 -1.0182  1.5489  0.0065
  886MOL0     H22208   5.173  11.218   1.377 -0.7610 -1.0963 -2.7442
  886MOL0     H22209   5.257  10.945   1.509  0.8059  0.8965  1.0034
  886MOL0     H22210   5.094  10.990   1.490  0.8844 -0.7316  0.1350
  886MOL0     H22211   5.168  11.014   1.732 -1.5757  0.0216  0.5681
  886MOL0     H22212   5.303  11.113   1.677  0.0440 -1.3463  0.8230
  886MOL0     H22213   5.108  11.281   1.611  1.0444  0.8839  0.9482
  886MOL0     H22214   5.158  11.250   1.779  4.9371  1.5896 -1.8248
  886MOL0     H22215   4.904  11.125   1.668  0.4633 -1.2161 -0.7828
  886MOL0     H22216   4.977  11.103   1.831  0.0513 -0.6710 -0.0769
  886MOL0     H22217   4.858  11.388   1.591  2.7742 -2.8924  0.3651
  886MOL0     H22218   4.719  11.618   1.638  1.5142  1.0010 -0.4501
  886MOL0     H22219   4.882  11.673   1.674  2.4649  0.7532  4.6616
  886MOL0     H22220   4.818  11.751   1.892 -1.1698 -1.0582  0.6480
  886MOL0     H22221   4.723  11.835   1.781  4.2359  2.7760  0.9805
  886MOL0     H22222   4.541  11.645   1.794  2.3043  3.2148 -1.3730
  886MOL0     H22223   4.629  11.575   1.942  1.8619 -0.4525 -1.1899
  886MOL0     H22224   4.456  11.692   2.048 -1.4165  2.5562  1.1897
  886MOL0     H22225   4.592  11.802   2.043  0.6300  0.6328 -2.4747
  886MOL0     H22226   4.304  11.993   1.771 -0.7952  0.6645  0.8248
  886MOL0     H22227   4.115  12.296   1.863 -2.4266 -2.4710  2.1587
  886MOL0     H22228   4.103  12.195   1.739 -0.8093  1.0210 -0.3072
  886MOL0     H22229   4.263  12.269   1.773 -0.5742  0.3857  1.3402
  886MOL0     H22230   3.890  12.232   2.343 -0.2188  0.7879  0.5810
  886MOL0     H22231   3.741  12.431   2.442 -0.2677  2.9913 -0.0493
  886MOL0     H22232   3.944  12.803   2.554 -1.0850  0.4015  1.4372
  886MOL0     H22233   3.894  12.835   2.384 -1.1558  1.7429  0.1966
  886MOL0     H22234   3.690  12.910   2.434  3.0185 -1.7969 -2.0192
  886MOL0     H22235   3.673  12.827   2.590  0.0206  1.9049  0.5517
  886MOL0     H22236   3.858  12.979   2.689 -0.6218  0.1716  0.3897
  886MOL0     H22237   3.702  13.047   2.670 -0.9206 -1.2687  0.3370
  886MOL0     H22238   3.773  13.138   2.441  0.3623  0.2359 -0.1926
  886MOL0     H22239   3.921  13.047   2.457  1.3282  0.1080  1.9289
  886MOL0     H22240   3.870  13.279   2.652  0.8768  0.4443 -0.4073
  886MOL0     H22241   4.010  13.163   2.651  2.1742 -0.7258 -1.9489
  886MOL0     H22242   3.915  13.357   2.443  0.0961  0.8548  1.1399
  886MOL0     H22243   4.069  13.256   2.429  2.5771  1.4564  1.1693
  886MOL0     H22244   4.162  13.378   2.617  0.4191  1.8198 -1.5101
  886MOL0     H22245   3.996  13.446   2.660  0.4029  4.2683 -0.9260
  886MOL0     H22246   4.037  13.596   2.460 -2.1078 -2.9786 -0.7841
  886MOL0     H22247   4.192  13.509   2.437  0.4154  2.7779  0.0171
  886MOL0     H22248   4.084  12.677   2.435  1.2241 -0.7985 -1.1719
  886MOL0     H22249   4.211  12.512   2.328 -0.2762 -0.5067 -1.5737
  886MOL0     H22250   4.241  12.053   2.257  0.5134  4.8268 -0.5827
  886MOL0     H22251   4.375  11.864   2.169  1.5634  0.4520 -0.5687
  886MOL0     H22252   5.149  10.621   1.379 -1.2645 -0.4056 -0.0016
  886MOL0     H22253   5.127  10.386   1.282  0.4478 -1.1434 -1.8886
  886MOL0     H22254   4.972  10.148   0.895 -2.2164 -2.1280  1.2179
  886MOL0     H22255   4.961   9.930   0.774  0.8732 -1.9088 -0.5866
  886MOL0     H22256   5.258   9.625   0.914 -0.3931  1.1858  1.9631
  886MOL0     H22257   5.101   9.660   0.977  2.4364  0.9375  0.6148
  886MOL0     H22258   5.026   9.511   0.755 -0.5807 -0.7396  0.6226
  886MOL0     H22259   5.062   9.451   0.921 -0.1144 -2.6516 -1.6869
  886MOL0     H22260   5.308   9.417   0.825  0.9693 -3.7912  0.5329
  886MOL0     H22261   5.178   9.309   0.770 -1.4609  1.4777  2.5961
  886MOL0     H22262   5.258   9.556   0.612 -2.4456  1.2198 -3.7331
  886MOL0     H22263   5.114   9.470   0.573  1.8680 -1.0005 -1.9885
  886MOL0     H22264   5.467   9.226   0.466  0.5776  0.9054 -0.0927
  886MOL0     H22265   5.352   9.832   0.933  1.7852  0.4912 -1.4136
  886MOL0     H22266   5.484  10.128   0.973 -1.1915  0.1805 -0.1488
  886MOL0     H22267   5.434  10.091   1.135  1.2754  1.3098  0.1879
  886MOL0     H22268   5.487   9.956   1.034 -1.0522 -0.7179  0.2247
  887MOL0     O22269   6.650   8.104   6.162  0.0137  0.1146 -0.5630
  887MOL0     C22270   6.721   8.087   6.068  0.6052  0.0159  0.9833
  887MOL0     O22271   6.862   8.084   6.067  1.2386  0.5836 -0.3246
  887MOL0     C22272   6.922   8.060   6.189  0.6469  0.0217  0.5273
  887MOL0     C22273   6.953   8.164   6.272 -0.5370 -0.3788 -0.7168
  887MOL0     C22274   6.996   8.131   6.407  0.2101 -0.1649 -0.5431
  887MOL0     C22275   7.023   7.995   6.441 -0.0069  0.5331 -0.0691
  887MOL0     O22276   7.068   7.982   6.568  0.3552  0.4223 -0.7230
  887MOL0     C22277   6.953   7.950   6.646  0.0902 -1.0934 -0.4332
  887MOL0     C22278   6.988   7.932   6.800  0.5185 -0.6795  0.0504
  887MOL0     C22279   7.047   8.067   6.851 -0.8841  0.0891  0.0651
  887MOL0     C22280   7.118   8.063   6.993 -0.4385  0.3030  0.4205
  887MOL0     C22281   7.197   8.179   7.027 -0.2069 -0.2016  0.3590
  887MOL0     C22282   7.097   8.292   7.070 -0.7268 -0.0769  0.1310
  887MOL0     C22283   7.150   8.406   7.160  1.2045  0.6084 -0.0137
  887MOL0     C22284   7.188   8.338   7.296  0.3834  0.5572 -1.5104
  887MOL0     N22285   7.260   8.442   7.375  0.2740 -0.5214 -0.1502
  887MOL0     C22286   7.212   8.566   7.424 -0.4228  1.7301 -0.3314
  887MOL0     C22287   7.299   8.601   7.516 -0.0550 -0.2475 -1.0139
  887MOL0     C22288   7.289   8.734   7.592  0.1659 -0.6496 -0.2627
  887MOL0     C22289   7.259   8.854   7.488 -0.0308 -0.1704 -0.8308
  887MOL0     C22290   7.386   8.864   7.396 -0.2388 -0.2212 -0.3276
  887MOL0     C22291   7.506   8.908   7.478 -0.0435 -0.0424 -0.0447
  887MOL0     O22292   7.480   9.009   7.578 -0.3043  0.2238 -0.0008
  887MOL0     C22293   7.449   9.140   7.532 -0.3237 -0.1397 -0.4748
  887MOL0     C22294   7.365   9.221   7.616 -0.1198  0.8222  0.5832
  887MOL0     C22295   7.312   9.345   7.567 -0.7956  1.4008  0.6712
  887MOL0     C22296   7.229   9.412   7.669 -1.2701  0.2760  0.0634
  887MOL0     C22297   7.354   9.389   7.435 -0.4204 -0.7885 -0.4935
  887MOL0     C22298   7.310   9.508   7.363  1.0196 -0.3088 -0.4654
  887MOL0     O22299   7.234   9.579   7.448 -0.2510  0.2449  0.7015
  887MOL0     C22300   7.201   9.709   7.417 -0.1097  0.2185  0.3835
  887MOL0     C22301   7.119   9.768   7.505  1.1168 -0.7213  0.1482
  887MOL0     C22302   7.072   9.898   7.496  0.9270  0.4088 -1.2524
  887MOL0     C22303   7.117   9.979   7.386 -0.3094 -0.2348 -0.1687
  887MOL0     O22304   7.086  10.111   7.383 -0.7632  0.2014  0.6507
  887MOL0     C22305   7.033  10.177   7.499  0.4318  0.3055 -0.0236
  887MOL0     C22306   7.050  10.324   7.481  0.8662 -0.2897 -1.0989
  887MOL0     C22307   7.196  10.363   7.516  0.1030 -0.8616 -0.4644
  887MOL0     C22308   7.197  10.481   7.614  0.5385 -0.4829 -1.0149
  887MOL0     C22309   7.305  10.579   7.595  0.0225 -0.2916  0.1978
  887MOL0     C22310   7.450  10.516   7.599 -0.1580 -0.0452  0.0642
  887MOL0     C22311   7.554  10.626   7.599  0.0679  0.2960  1.2621
  887MOL0     C22312   7.693  10.562   7.579 -0.4953  0.0451 -0.9673
  887MOL0    Cl22313   7.738  10.483   7.723 -0.1388 -0.1708  0.2300
  887MOL0     C22314   7.197   9.915   7.291  0.0392  0.1539 -0.5609
  887MOL0     C22315   7.245   9.784   7.302  0.8398  0.0568 -0.2817
  887MOL0     O22316   7.317   9.525   7.240 -0.8106  0.4983  0.3161
  887MOL0     C22317   7.450   9.316   7.364 -0.2679  0.1724 -0.4199
  887MOL0     C22318   7.495   9.189   7.409  0.1784 -0.4194  0.1804
  887MOL0     N22319   7.406   8.512   7.527 -0.2930 -0.2280  0.8164
  887MOL0     N22320   7.385   8.417   7.434  0.6195 -0.9951 -0.1010
  887MOL0     C22321   6.989   7.896   6.348 -0.7600  0.7268  0.8235
  887MOL0     C22322   6.941   7.925   6.222  1.0265 -0.1379  0.4884
  887MOL0     C22323   6.650   8.113   5.937 -0.7617  0.5483 -0.0695
  887MOL0     C22324   6.728   8.155   5.833 -0.2827 -0.7588  0.1295
  887MOL0     C22325   6.681   8.178   5.700  1.4068 -0.5792  0.4976
  887MOL0     C22326   6.542   8.153   5.675 -0.2841 -0.8733  0.3986
  887MOL0     O22327   6.512   8.167   5.538 -0.4558 -0.0226  0.0072
  887MOL0     C22328   6.379   8.134   5.487 -0.2062 -0.0915 -0.6404
  887MOL0     C22329   6.389   8.115   5.338  0.0570 -0.5917 -0.5595
  887MOL0     C22330   6.430   8.249   5.268 -0.1722 -0.3054  0.2095
  887MOL0     C22331   6.442   8.225   5.119 -1.0663  0.3344 -0.1828
  887MOL0     C22332   6.485   8.354   5.058 -0.0189  0.1235 -0.2963
  887MOL0     C22333   6.495   8.453   4.988  0.8569  0.2616 -0.3093
  887MOL0     C22334   6.450   8.118   5.783  1.4950  0.1360  1.2540
  887MOL0     C22335   6.508   8.091   5.907  0.4178 -0.8478 -0.2135
  887MOL0     C22336   6.406   8.075   6.016  0.2300  0.2451  0.2678
  887MOL0     H22337   6.944   8.259   6.222  1.1871 -1.1759 -2.6889
  887MOL0     H22338   7.015   8.208   6.481 -0.4194 -0.6911  0.1780
  887MOL0     H22339   6.915   7.853   6.613  1.2884 -1.4919 -0.6861
  887MOL0     H22340   6.868   8.019   6.643  1.2235  0.3280 -2.2706
  887MOL0     H22341   6.894   7.913   6.854  0.4716  2.4225  1.2585
  887MOL0     H22342   7.063   7.854   6.817  1.4678  0.1606 -0.2000
  887MOL0     H22343   7.128   8.087   6.780 -2.3109  2.6874 -0.9563
  887MOL0     H22344   6.973   8.147   6.843 -0.5559  0.2928 -1.1624
  887MOL0     H22345   7.047   8.041   7.074  0.5837  1.3250  1.6481
  887MOL0     H22346   7.189   7.980   6.995  1.2172  1.6792  1.1189
  887MOL0     H22347   7.268   8.208   6.949  2.5815 -3.5676  1.3749
  887MOL0     H22348   7.265   8.147   7.106  0.6137  1.5226  0.3962
  887MOL0     H22349   7.051   8.337   6.981  0.5743  2.6559  0.7323
  887MOL0     H22350   7.016   8.261   7.136 -2.7682  2.5900 -0.9293
  887MOL0     H22351   7.085   8.491   7.180  2.0749  0.9498  1.5711
  887MOL0     H22352   7.232   8.446   7.100  0.4043 -1.5220 -2.7310
  887MOL0     H22353   7.097   8.309   7.349  1.5804  0.2086  0.4741
  887MOL0     H22354   7.252   8.250   7.292 -1.7915 -1.0954 -1.6944
  887MOL0     H22355   7.118   8.611   7.395 -1.2613  0.8526  0.9050
  887MOL0     H22356   7.379   8.755   7.650  0.8021 -1.0062 -1.1106
  887MOL0     H22357   7.217   8.727   7.675  2.0274  0.2993  1.5152
  887MOL0     H22358   7.176   8.838   7.419  0.9090  1.2533 -2.3606
  887MOL0     H22359   7.253   8.948   7.544  0.0258 -1.3762  1.3045
  887MOL0     H22360   7.417   8.770   7.350 -0.7668 -0.2067 -0.7241
  887MOL0     H22361   7.369   8.935   7.314 -1.2322 -0.4749 -0.3455
  887MOL0     H22362   7.527   8.815   7.531 -1.2456 -2.6821 -3.7550
  887MOL0     H22363   7.585   8.945   7.412 -0.9110  5.5696  1.5497
  887MOL0     H22364   7.336   9.178   7.711 -0.8066 -0.8717 -0.3364
  887MOL0     H22365   7.124   9.393   7.647 -1.1799  0.3285 -0.4066
  887MOL0     H22366   7.248   9.519   7.683 -0.0244 -0.2906  4.6109
  887MOL0     H22367   7.262   9.380   7.769 -0.3994  1.3590  0.1539
  887MOL0     H22368   7.072   9.700   7.574  0.8152  0.5079  1.1814
  887MOL0     H22369   6.988   9.933   7.555 -0.6849 -4.5086 -0.1155
  887MOL0     H22370   6.926  10.153   7.508  0.7253 -1.0446  0.0349
  887MOL0     H22371   7.064  10.144   7.598 -1.8001  1.8020  1.2706
  887MOL0     H22372   7.025  10.353   7.378 -1.3130 -0.0843 -0.5573
  887MOL0     H22373   6.973  10.373   7.541  0.9919 -3.8090  2.3491
  887MOL0     H22374   7.235  10.387   7.417 -3.8403  0.1584 -1.9714
  887MOL0     H22375   7.265  10.282   7.541  0.8420 -0.7564 -2.0330
  887MOL0     H22376   7.201  10.442   7.716 -1.9084  1.2946 -0.1435
  887MOL0     H22377   7.106  10.541   7.622 -1.9880 -4.0573 -0.7171
  887MOL0     H22378   7.293  10.631   7.500 -0.1304 -0.3626  0.1790
  887MOL0     H22379   7.308  10.641   7.685  1.6370  1.5100 -1.0013
  887MOL0     H22380   7.478  10.453   7.514  0.7930 -2.6533  2.1573
  887MOL0     H22381   7.470  10.449   7.683  0.3656  1.9856  1.6530
  887MOL0     H22382   7.555  10.683   7.692 -3.0391  1.2773  0.8069
  887MOL0     H22383   7.530  10.706   7.528 -3.3259 -1.1979  0.5548
  887MOL0     H22384   7.756  10.651   7.567 -0.9198  0.4942 -0.0133
  887MOL0     H22385   7.702  10.509   7.484 -0.7274  1.9169 -2.1068
  887MOL0     H22386   7.225   9.988   7.216  0.2444  2.9084  2.0135
  887MOL0     H22387   7.311   9.749   7.223 -0.4710  1.5824 -2.1259
  887MOL0     H22388   7.495   9.355   7.273  1.8564 -0.6364  0.2250
  887MOL0     H22389   7.568   9.128   7.356 -0.0133 -0.4302 -0.0717
  887MOL0     H22390   7.023   7.795   6.366 -0.2078  0.7994  0.2303
  887MOL0     H22391   6.917   7.850   6.147  1.0375  1.2006 -0.8942
  887MOL0     H22392   6.834   8.170   5.848  0.3704 -3.1093 -1.5130
  887MOL0     H22393   6.743   8.226   5.626  1.5572 -1.4613  0.0417
  887MOL0     H22394   6.355   8.036   5.530 -2.0432  1.2763  1.7168
  887MOL0     H22395   6.310   8.216   5.507  3.0411  3.7231 -3.4518
  887MOL0     H22396   6.294   8.082   5.296 -0.1878  2.2366 -2.4817
  887MOL0     H22397   6.455   8.030   5.316  1.0199  0.2799 -1.1567
  887MOL0     H22398   6.348   8.317   5.293 -0.4908 -1.1098  1.4845
  887MOL0     H22399   6.525   8.290   5.305 -0.0894  1.5378 -1.8598
  887MOL0     H22400   6.343   8.195   5.084 -0.5457  1.3221 -2.7238
  887MOL0     H22401   6.521   8.152   5.100 -0.7813  0.4542  0.4990
  887MOL0     H22402   6.517   8.544   4.936 -2.4276 -0.0141 -2.4400
  887MOL0     H22403   6.342   8.108   5.788  1.3180  1.3942  0.4458
  887MOL0     H22404   6.393   7.968   6.038 -2.0800  0.6239  0.9810
  887MOL0     H22405   6.431   8.144   6.097  0.5156  0.6498 -0.1588
  887MOL0     H22406   6.299   8.085   5.994 -0.3300 -1.5524  1.8576
  888MOL0     O22407   0.577   7.479   4.468 -0.3766 -0.3483 -0.0164
  888MOL0     C22408   0.479   7.477   4.551 -0.5344  0.6548  0.2368
  888MOL0     O22409   0.501   7.443   4.678  0.2569  0.1551  0.0718
  888MOL0     C22410   0.632   7.426   4.712  1.0428 -0.3793  0.8392
  888MOL0     C22411   0.674   7.307   4.763  0.2120  0.5063 -0.3006
  888MOL0     C22412   0.794   7.297   4.839  0.6282  0.1926  0.0609
  888MOL0     C22413   0.876   7.408   4.860 -1.0759 -0.4995 -0.1613
  888MOL0     O22414   0.999   7.380   4.927 -0.0436  0.2071  0.6856
  888MOL0     C22415   1.100   7.485   4.917 -0.2921 -0.5478  0.2717
  888MOL0     C22416   1.056   7.590   5.026 -1.4716 -0.5066  0.7178
  888MOL0     C22417   1.148   7.712   5.011 -0.4323 -0.6957 -0.6237
  888MOL0     C22418   1.109   7.829   5.107 -1.2665  0.2912 -0.8700
  888MOL0     C22419   1.235   7.916   5.127 -0.4410 -0.2003 -0.1103
  888MOL0     C22420   1.201   8.036   5.216  0.9662 -1.5410 -1.0515
  888MOL0     C22421   1.097   8.131   5.151 -0.3259 -0.6106 -0.2547
  888MOL0     C22422   1.064   8.248   5.243 -0.7921  0.1320 -0.0138
  888MOL0     N22423   0.939   8.311   5.215 -0.1146 -0.8770  1.1891
  888MOL0     C22424   0.921   8.444   5.187  1.0622 -0.4566 -0.1875
  888MOL0     C22425   0.785   8.465   5.211  0.2428  0.0317 -0.1057
  888MOL0     C22426   0.714   8.594   5.195  0.8475 -0.1874  0.0355
  888MOL0     C22427   0.794   8.722   5.188  0.0315  0.4326 -0.9073
  888MOL0     C22428   0.709   8.850   5.171  0.8196 -0.2835  0.0825
  888MOL0     C22429   0.795   8.978   5.181  1.0093  0.5807  0.1165
  888MOL0     O22430   0.908   8.963   5.086 -0.5258  0.4524 -0.3802
  888MOL0     C22431   1.006   9.052   5.081  0.1023 -0.5640  0.6625
  888MOL0     C22432   1.086   9.054   4.969  1.3619  0.3855  0.0272
  888MOL0     C22433   1.187   9.151   4.945  0.4269 -0.1869  0.2150
  888MOL0     C22434   1.261   9.136   4.817  0.3447  1.4833  0.1975
  888MOL0     C22435   1.202   9.250   5.046 -0.2941 -0.0545  0.1616
  888MOL0     C22436   1.313   9.351   5.039 -0.6844  0.0519 -0.2017
  888MOL0     O22437   1.372   9.374   4.914 -0.5870  0.7831 -0.4667
  888MOL0     C22438   1.477   9.463   4.895  0.7216 -0.0286  0.2948
  888MOL0     C22439   1.448   9.603   4.895 -0.0350 -0.8174  0.3484
  888MOL0     C22440   1.550   9.692   4.874 -0.1516 -0.1272 -0.3238
  888MOL0     C22441   1.684   9.652   4.854 -0.5078  0.0563 -0.3540
  888MOL0     O22442   1.779   9.750   4.836  0.1676 -0.1070 -0.3956
  888MOL0     C22443   1.906   9.721   4.887  0.9636 -0.8685 -0.3051
  888MOL0     C22444   1.952   9.866   4.933 -0.3540 -0.2447 -0.7440
  888MOL0     C22445   2.059   9.934   4.850 -0.4435  0.7030 -0.0018
  888MOL0     C22446   2.055  10.081   4.850  0.4936 -0.4649  0.0969
  888MOL0     C22447   2.157  10.147   4.760  0.6948 -0.0457 -0.3231
  888MOL0     C22448   2.130  10.283   4.730 -0.1568 -0.0502 -0.2265
  888MOL0     C22449   2.162  10.380   4.846  0.5714  0.1251  0.2229
  888MOL0     C22450   2.132  10.526   4.810 -0.0249 -0.2222  0.0818
  888MOL0    Cl22451   2.141  10.566   4.641  0.0651  0.0302 -0.5576
  888MOL0     C22452   1.717   9.520   4.854 -0.1545 -0.2978 -0.0988
  888MOL0     C22453   1.618   9.422   4.881  0.9271 -0.3945  0.8620
  888MOL0     O22454   1.348   9.408   5.144 -0.0413 -0.4544 -0.1087
  888MOL0     C22455   1.120   9.246   5.163  0.4571 -0.4792 -0.1088
  888MOL0     C22456   1.016   9.153   5.181 -0.1631 -0.0162  0.2924
  888MOL0     N22457   0.731   8.338   5.227 -0.3299 -0.0756  0.0234
  888MOL0     N22458   0.821   8.254   5.217  0.4479  0.2732 -0.1749
  888MOL0     C22459   0.841   7.521   4.788 -1.5031 -0.1327 -0.8192
  888MOL0     C22460   0.721   7.529   4.723 -0.5593 -0.2094 -0.5575
  888MOL0     C22461   0.337   7.490   4.502 -0.1475  0.3785 -0.0489
  888MOL0     C22462   0.323   7.567   4.389 -0.0041  0.5683  0.5215
  888MOL0     C22463   0.195   7.574   4.324 -0.3862  0.1583 -0.0836
  888MOL0     C22464   0.086   7.519   4.387  0.1459 -1.1319  1.1489
  888MOL0     O22465  -0.036   7.523   4.328 -0.7388 -0.7123 -0.3451
  888MOL0     C22466  -0.100   7.401   4.319 -0.9336  0.2077 -0.3227
  888MOL0     C22467  -0.221   7.423   4.227  0.5810 -0.5630 -0.5228
  888MOL0     C22468  -0.317   7.535   4.280 -0.2200  0.1626 -0.1615
  888MOL0     C22469  -0.453   7.532   4.195  0.3142 -0.5748  0.1437
  888MOL0     C22470  -0.534   7.652   4.222 -0.0504  0.6016  0.6371
  888MOL0     C22471  -0.592   7.755   4.268  0.2791  1.1284 -0.8008
  888MOL0     C22472   0.099   7.476   4.518  0.3091 -0.3478 -0.0441
  888MOL0     C22473   0.221   7.454   4.578 -0.0314  0.2790  0.7261
  888MOL0     C22474   0.210   7.371   4.712 -0.4568  0.6281 -0.4701
  888MOL0     H22475   0.608   7.222   4.745  2.1591 -0.8202 -1.5089
  888MOL0     H22476   0.824   7.207   4.893  2.4535  0.0153 -1.1400
  888MOL0     H22477   1.097   7.515   4.811 -0.5310  1.4180  0.7934
  888MOL0     H22478   1.200   7.444   4.934  1.4460  2.7550 -0.9239
  888MOL0     H22479   0.958   7.631   5.001  0.0091  1.9405 -1.5518
  888MOL0     H22480   1.070   7.534   5.119  0.5100 -1.4992 -0.1168
  888MOL0     H22481   1.250   7.686   5.039  0.3793  2.4999 -0.1654
  888MOL0     H22482   1.142   7.746   4.907 -3.0090  0.1914 -0.2531
  888MOL0     H22483   1.033   7.893   5.061 -1.1428  0.5305 -0.7419
  888MOL0     H22484   1.079   7.793   5.205 -0.2823  3.8970  0.9422
  888MOL0     H22485   1.278   7.943   5.030 -1.6180  1.6788 -0.1738
  888MOL0     H22486   1.314   7.858   5.176  1.9371  2.7076 -0.1982
  888MOL0     H22487   1.162   8.000   5.312  2.2299 -1.8335 -0.6184
  888MOL0     H22488   1.289   8.094   5.245 -0.9672  0.0633  2.1693
  888MOL0     H22489   1.000   8.082   5.138  0.3590 -2.1985  0.3660
  888MOL0     H22490   1.145   8.176   5.063  0.5597  2.1978  1.5172
  888MOL0     H22491   1.061   8.205   5.344 -0.2081 -0.0711 -0.0794
  888MOL0     H22492   1.144   8.321   5.235 -2.1370  2.1582  3.0926
  888MOL0     H22493   0.998   8.520   5.172  0.8974 -0.2626 -0.0520
  888MOL0     H22494   0.629   8.605   5.263  0.5488 -2.5583  0.1460
  888MOL0     H22495   0.658   8.593   5.101 -2.1019  0.2072  1.6937
  888MOL0     H22496   0.842   8.734   5.286 -2.0541 -0.6498  0.3213
  888MOL0     H22497   0.856   8.724   5.098  0.5293  0.3585 -0.5734
  888MOL0     H22498   0.661   8.837   5.074 -1.2998 -3.2538  1.3764
  888MOL0     H22499   0.623   8.857   5.239 -0.7695 -0.3096 -1.8464
  888MOL0     H22500   0.726   9.061   5.162 -0.5148 -0.5242  0.6548
  888MOL0     H22501   0.816   9.007   5.284  0.8848  0.8629  0.0623
  888MOL0     H22502   1.073   8.967   4.905 -2.2719 -0.0026  1.0318
  888MOL0     H22503   1.261   9.030   4.793 -2.9136  0.8967  2.1280
  888MOL0     H22504   1.368   9.156   4.827  0.4313  1.0007  0.2406
  888MOL0     H22505   1.210   9.194   4.739 -0.0570  3.7534  2.0129
  888MOL0     H22506   1.344   9.636   4.903  0.4922  1.1689 -0.3382
  888MOL0     H22507   1.546   9.800   4.868  5.2052  0.3139 -1.3880
  888MOL0     H22508   1.900   9.653   4.973 -1.0732  2.3422  2.3295
  888MOL0     H22509   1.984   9.691   4.815 -0.1722 -0.4783 -1.7401
  888MOL0     H22510   1.868   9.934   4.949 -1.5456 -1.2958 -2.2197
  888MOL0     H22511   2.007   9.848   5.026  0.6868  0.8159 -1.1412
  888MOL0     H22512   2.039   9.905   4.747 -0.8631 -1.1761  0.5659
  888MOL0     H22513   2.161   9.913   4.885 -0.3616  0.2489 -0.5072
  888MOL0     H22514   2.065  10.112   4.954  1.8889  1.7439 -0.6279
  888MOL0     H22515   1.954  10.112   4.821  0.9513 -0.9185 -2.1623
  888MOL0     H22516   2.250  10.146   4.817 -0.2142 -0.0897  1.2403
  888MOL0     H22517   2.162  10.081   4.673  1.3943 -0.7476  0.2420
  888MOL0     H22518   2.025  10.304   4.710 -0.8027 -2.0983  0.7299
  888MOL0     H22519   2.186  10.314   4.641  0.3039 -0.7661 -0.1934
  888MOL0     H22520   2.270  10.377   4.867  1.4815 -1.2748 -3.8457
  888MOL0     H22521   2.119  10.352   4.943  0.1001 -0.5698 -0.1757
  888MOL0     H22522   2.201  10.582   4.875 -1.7157  2.0605  0.0199
  888MOL0     H22523   2.026  10.538   4.831 -0.7615  2.4795 -4.1836
  888MOL0     H22524   1.810   9.484   4.811 -0.1255  1.0091 -1.1959
  888MOL0     H22525   1.649   9.321   4.904  0.4542 -1.0602 -1.2080
  888MOL0     H22526   1.137   9.307   5.251  0.6246  2.9115 -2.2735
  888MOL0     H22527   0.953   9.155   5.269 -4.1344  0.9798 -2.2949
  888MOL0     H22528   0.908   7.604   4.808 -1.2701 -0.6746  0.7785
  888MOL0     H22529   0.688   7.623   4.678 -1.9895  0.7342  2.2265
  888MOL0     H22530   0.407   7.614   4.339  1.8447 -1.1424  1.8528
  888MOL0     H22531   0.163   7.636   4.241 -0.6041  0.2942  0.1009
  888MOL0     H22532  -0.031   7.322   4.287 -0.0160  1.7827 -2.4619
  888MOL0     H22533  -0.134   7.373   4.419  3.8481  1.3760  1.9341
  888MOL0     H22534  -0.275   7.329   4.212  0.4401 -1.1988  3.1628
  888MOL0     H22535  -0.189   7.450   4.126 -1.8495  1.1800 -0.9239
  888MOL0     H22536  -0.341   7.513   4.385 -0.1685  2.3354  0.3679
  888MOL0     H22537  -0.264   7.630   4.290 -0.9670  0.5961 -0.1670
  888MOL0     H22538  -0.504   7.437   4.213  0.4577 -0.9700 -1.4084
  888MOL0     H22539  -0.422   7.528   4.090  0.0381 -3.0880  0.0995
  888MOL0     H22540  -0.640   7.843   4.306 -1.2546  0.5343 -1.2410
  888MOL0     H22541   0.005   7.448   4.563  0.4022 -2.5264 -1.0473
  888MOL0     H22542   0.309   7.357   4.756  0.2298 -3.3809 -2.7774
  888MOL0     H22543   0.135   7.415   4.777 -0.9653  4.0977 -3.0918
  888MOL0     H22544   0.180   7.268   4.691  0.7006 -0.1112  1.3493
  889MOL0     O22545   9.108   1.908  11.258 -0.4187  0.2748  0.1479
  889MOL0     C22546   9.145   1.939  11.137  0.8391 -0.7418  0.4757
  889MOL0     O22547   9.091   1.901  11.027  0.3393  0.2114 -0.4137
  889MOL0     C22548   8.996   1.797  11.021  1.6045 -0.2029 -0.6479
  889MOL0     C22549   8.996   1.730  10.899  0.0449 -0.2343 -0.0972
  889MOL0     C22550   8.924   1.623  10.882  0.9082 -0.3141 -0.7246
  889MOL0     C22551   8.825   1.583  10.979  0.2739  0.0610 -0.0095
  889MOL0     O22552   8.744   1.475  10.967  0.0537  0.3903 -0.0955
  889MOL0     C22553   8.770   1.375  10.865  0.3040  1.0709  0.2988
  889MOL0     C22554   8.712   1.243  10.923 -0.0509  0.0929 -0.0386
  889MOL0     C22555   8.758   1.108  10.858 -1.3970 -0.7725 -0.7228
  889MOL0     C22556   8.645   1.006  10.866  0.2168 -0.4649 -0.0763
  889MOL0     C22557   8.660   0.878  10.777 -0.2597  0.4262 -0.1626
  889MOL0     C22558   8.782   0.791  10.819  1.8443  0.3961 -0.5385
  889MOL0     C22559   8.766   0.760  10.972  0.5562 -0.0402  1.0535
  889MOL0     C22560   8.845   0.631  10.989 -0.2338 -0.6460  0.0173
  889MOL0     N22561   8.850   0.600  11.131 -0.8826  0.0001  0.4029
  889MOL0     C22562   8.953   0.577  11.210  0.8500  0.1741 -0.8826
  889MOL0     C22563   8.905   0.558  11.332  0.3980 -0.1407 -0.1016
  889MOL0     C22564   8.979   0.521  11.460  0.1494 -1.0280 -0.0141
  889MOL0     C22565   9.053   0.639  11.528 -0.0793 -0.4717  0.1857
  889MOL0     C22566   8.975   0.762  11.572 -0.4456 -0.0168 -0.1680
  889MOL0     C22567   8.871   0.727  11.672  1.1205  0.1105 -1.1492
  889MOL0     O22568   8.759   0.675  11.601 -0.3709  0.2578  0.7381
  889MOL0     C22569   8.662   0.594  11.657  0.3660 -0.0380 -0.2227
  889MOL0     C22570   8.558   0.537  11.576 -0.0761  1.0966  0.3955
  889MOL0     C22571   8.448   0.476  11.638 -0.2232  0.1148  0.7679
  889MOL0     C22572   8.338   0.418  11.549  0.3921 -0.3092  0.3251
  889MOL0     C22573   8.449   0.451  11.783  0.7982  0.0598 -0.3648
  889MOL0     C22574   8.350   0.367  11.856  0.0035  1.0894  0.4264
  889MOL0     O22575   8.323   0.241  11.806 -0.3734  0.9185 -0.6092
  889MOL0     C22576   8.226   0.175  11.876  0.4872 -0.7938 -0.7932
  889MOL0     C22577   8.096   0.192  11.847  0.3934  0.4947 -0.0690
  889MOL0     C22578   8.001   0.102  11.911 -0.6180 -0.3007 -0.4514
  889MOL0     C22579   8.037   0.009  12.020  0.6995 -0.4569  0.6066
  889MOL0     O22580   7.949  -0.066  12.095  0.4459 -0.2800 -0.3887
  889MOL0     C22581   7.807  -0.038  12.081 -0.6864  0.2806 -1.6178
  889MOL0     C22582   7.723  -0.114  12.192 -0.2250  0.9742 -1.4940
  889MOL0     C22583   7.570  -0.086  12.181 -0.8895 -0.0823  0.2480
  889MOL0     C22584   7.483  -0.158  12.276 -0.5303  0.3616 -0.3368
  889MOL0     C22585   7.338  -0.132  12.242  0.6946  0.4852  0.3813
  889MOL0     C22586   7.216  -0.154  12.338  0.1713 -0.6147 -0.2625
  889MOL0     C22587   7.081  -0.135  12.272 -0.3985  0.4394  0.7447
  889MOL0     C22588   6.962  -0.163  12.366  0.4519  1.1798  0.1767
  889MOL0    Cl22589   6.990  -0.157  12.535 -0.7406 -0.6511 -0.3152
  889MOL0     C22590   8.173   0.009  12.054  0.0465 -0.0930  0.3154
  889MOL0     C22591   8.268   0.088  11.975  0.0176 -0.4535  0.2612
  889MOL0     O22592   8.311   0.409  11.962 -1.0546 -0.1127  0.1091
  889MOL0     C22593   8.546   0.520  11.858  0.5626 -0.2200 -0.0948
  889MOL0     C22594   8.648   0.588  11.792 -0.1181 -0.3509  0.0082
  889MOL0     N22595   8.769   0.579  11.321 -0.6092  0.5267 -0.7244
  889MOL0     N22596   8.741   0.602  11.208 -0.2861 -0.2127 -0.2354
  889MOL0     C22597   8.818   1.653  11.103  0.3014 -0.1409  0.6080
  889MOL0     C22598   8.910   1.755  11.120  0.4566 -0.1368  1.1514
  889MOL0     C22599   9.251   2.038  11.118 -0.2987  0.7381 -0.7258
  889MOL0     C22600   9.324   2.024  10.997 -0.0505  0.1788  0.3450
  889MOL0     C22601   9.432   2.101  10.975 -0.3711 -0.7638 -0.0681
  889MOL0     C22602   9.482   2.194  11.073  1.1406  0.2367  0.2020
  889MOL0     O22603   9.588   2.279  11.044  0.2729 -0.0728  0.4563
  889MOL0     C22604   9.708   2.230  11.114 -0.7979 -0.4154 -0.3571
  889MOL0     C22605   9.757   2.096  11.060  0.0578 -0.4510  0.0511
  889MOL0     C22606   9.820   2.104  10.923 -0.6693  0.3502  0.4470
  889MOL0     C22607   9.889   1.965  10.872  1.1337 -0.3828  0.7676
  889MOL0     C22608  10.019   1.944  10.938  0.3996 -0.8497  1.2821
  889MOL0     C22609  10.127   1.912  10.992 -0.1395  0.1945  0.6245
  889MOL0     C22610   9.414   2.201  11.191 -0.0186  0.1426  0.1931
  889MOL0     C22611   9.293   2.131  11.219 -0.7238  0.8724 -0.1458
  889MOL0     C22612   9.233   2.148  11.352  0.8747 -0.1284  0.3695
  889MOL0     H22613   9.053   1.765  10.814 -1.1092 -0.6822 -1.0994
  889MOL0     H22614   8.930   1.563  10.792 -1.3443 -1.7130 -0.0295
  889MOL0     H22615   8.878   1.362  10.857 -0.0276 -4.9438  1.2891
  889MOL0     H22616   8.715   1.399  10.773  1.4729  0.5605 -0.5448
  889MOL0     H22617   8.735   1.240  11.030 -3.5198  0.0835  0.8060
  889MOL0     H22618   8.604   1.250  10.912 -0.0309  0.4834  0.0045
  889MOL0     H22619   8.781   1.125  10.753 -0.9646 -0.1944 -0.5406
  889MOL0     H22620   8.849   1.079  10.910 -0.2269  0.2477 -2.1372
  889MOL0     H22621   8.630   0.988  10.972  0.5522  4.5631  1.0735
  889MOL0     H22622   8.557   1.054  10.821  2.4870  0.3825 -4.0938
  889MOL0     H22623   8.681   0.909  10.674  4.3476 -0.1629  0.3851
  889MOL0     H22624   8.565   0.824  10.776 -0.6922  1.1583 -0.1111
  889MOL0     H22625   8.779   0.702  10.756 -0.2034  1.2182 -1.6746
  889MOL0     H22626   8.880   0.839  10.806  1.9615 -0.5196 -3.8159
  889MOL0     H22627   8.661   0.754  11.004 -1.8193  3.0668 -4.7183
  889MOL0     H22628   8.805   0.846  11.026 -0.5657  0.4611  1.1057
  889MOL0     H22629   8.790   0.553  10.937  0.7278 -0.0987 -1.9253
  889MOL0     H22630   8.942   0.650  10.943  1.0625 -0.5314  2.5750
  889MOL0     H22631   9.061   0.577  11.197  1.1363  1.2947  1.0382
  889MOL0     H22632   9.055   0.447  11.433 -0.3477 -2.5297  2.3682
  889MOL0     H22633   8.909   0.466  11.524 -0.6898 -1.0169 -0.8916
  889MOL0     H22634   9.101   0.602  11.619  0.6262 -1.2190 -0.4769
  889MOL0     H22635   9.129   0.654  11.451 -2.7484 -2.1374 -3.0757
  889MOL0     H22636   9.035   0.834  11.627  0.2186 -2.5442  2.7141
  889MOL0     H22637   8.931   0.812  11.485  2.6832  1.1189 -1.2311
  889MOL0     H22638   8.906   0.651  11.743  2.8583  0.8002 -1.2001
  889MOL0     H22639   8.834   0.818  11.719 -1.8336 -1.0692 -1.0127
  889MOL0     H22640   8.557   0.543  11.468  1.7602 -0.9859  0.2182
  889MOL0     H22641   8.246   0.449  11.601  0.3389  0.7170 -0.3621
  889MOL0     H22642   8.350   0.309  11.551 -1.4753 -0.5441  0.8318
  889MOL0     H22643   8.336   0.466  11.451 -2.2361  0.1073  0.4911
  889MOL0     H22644   8.063   0.259  11.769  0.4982  1.7739  0.9506
  889MOL0     H22645   7.896   0.115  11.888 -0.4278  0.4922 -0.8820
  889MOL0     H22646   7.793   0.070  12.092 -1.7041  0.0617 -0.6276
  889MOL0     H22647   7.780  -0.062  11.977  1.0492  0.9556 -2.2640
  889MOL0     H22648   7.733  -0.222  12.179  0.6960  0.6393  1.3798
  889MOL0     H22649   7.756  -0.087  12.292  2.7573 -2.3952 -1.3598
  889MOL0     H22650   7.555  -0.123  12.079  0.5162 -2.6078  0.8670
  889MOL0     H22651   7.542   0.019  12.185 -5.0509 -1.0813  2.3442
  889MOL0     H22652   7.510  -0.099  12.365  0.1166 -0.4315  0.0129
  889MOL0     H22653   7.512  -0.264  12.284 -0.3447  0.4774  0.8067
  889MOL0     H22654   7.329  -0.024  12.230  1.8475  0.6992  1.1948
  889MOL0     H22655   7.315  -0.176  12.145 -2.0264 -0.6793  1.4506
  889MOL0     H22656   7.217  -0.072  12.410 -1.3066 -0.8931  0.1135
  889MOL0     H22657   7.225  -0.245  12.399 -0.2453  1.2946  2.8710
  889MOL0     H22658   7.067  -0.207  12.191  0.5471  1.4199 -0.3274
  889MOL0     H22659   7.073  -0.033  12.233 -0.7990  0.2546  0.3396
  889MOL0     H22660   6.937  -0.266  12.342 -1.4356  2.2480 -3.1419
  889MOL0     H22661   6.885  -0.090  12.338  1.0572  1.4757 -0.7476
  889MOL0     H22662   8.206  -0.057  12.134  2.6504  0.5419 -0.1611
  889MOL0     H22663   8.376   0.087  11.988 -0.1321  1.7509  2.3733
  889MOL0     H22664   8.523   0.511  11.963  0.7330  1.0666  0.0596
  889MOL0     H22665   8.728   0.605  11.862  0.1551  1.2580 -0.6489
  889MOL0     H22666   8.748   1.627  11.182 -2.3369 -0.7295 -1.7563
  889MOL0     H22667   8.905   1.817  11.209  2.4210  1.4038  0.2887
  889MOL0     H22668   9.301   1.951  10.921 -0.9130  0.0541  0.7194
  889MOL0     H22669   9.479   2.092  10.878  1.2903  0.8455  0.5337
  889MOL0     H22670   9.787   2.303  11.097 -2.3805  1.0910 -1.7480
  889MOL0     H22671   9.692   2.223  11.222  0.8672  2.0264  0.1090
  889MOL0     H22672   9.673   2.025  11.060 -1.4850  1.3048  0.3650
  889MOL0     H22673   9.827   2.060  11.136  1.2099 -0.4259 -0.9777
  889MOL0     H22674   9.739   2.123  10.852  2.4586 -4.2212 -5.1482
  889MOL0     H22675   9.895   2.184  10.916  1.3269 -1.3958  0.8547
  889MOL0     H22676   9.896   1.977  10.763  1.7057 -3.2541  0.4076
  889MOL0     H22677   9.816   1.887  10.894  0.3386  0.2498  0.3917
  889MOL0     H22678  10.224   1.894  11.034 -0.2778 -0.5952  0.6186
  889MOL0     H22679   9.445   2.280  11.259 -0.6298 -1.0224  1.8891
  889MOL0     H22680   9.128   2.177  11.345  0.9610  0.2447  0.5888
  889MOL0     H22681   9.242   2.053  11.405  0.8521 -0.0677  0.4835
  889MOL0     H22682   9.287   2.227  11.406  2.2656 -1.0639  0.3901
  890MOL0     O22683   5.317  10.017   9.437  0.3219  0.2778 -0.0170
  890MOL0     C22684   5.297  10.129   9.478 -0.5403 -0.2348 -0.5649
  890MOL0     O22685   5.393  10.234   9.466  0.8273 -0.4943 -0.6354
  890MOL0     C22686   5.487  10.237   9.372 -0.5184  0.0330 -0.0808
  890MOL0     C22687   5.477  10.200   9.232  0.0873 -0.4628 -0.2412
  890MOL0     C22688   5.582  10.229   9.131 -0.2708 -0.2772  0.0125
  890MOL0     C22689   5.704  10.286   9.174 -0.5060  0.7733 -0.0158
  890MOL0     O22690   5.819  10.309   9.101  0.5312  0.1710 -0.9256
  890MOL0     C22691   5.820  10.237   8.986 -0.0067  0.4756  0.1497
  890MOL0     C22692   5.921  10.306   8.885  0.7258 -0.3879  1.0073
  890MOL0     C22693   6.067  10.293   8.908 -0.0834  1.1346 -0.3338
  890MOL0     C22694   6.139  10.368   8.804  0.2262 -0.9265  1.4568
  890MOL0     C22695   6.290  10.391   8.846  0.0689  0.3377 -0.4076
  890MOL0     C22696   6.357  10.507   8.768 -0.3382  0.0459  0.7893
  890MOL0     C22697   6.424  10.436   8.645  0.0006 -0.8803 -1.3139
  890MOL0     C22698   6.518  10.520   8.566 -0.4003 -0.4622  0.2237
  890MOL0     N22699   6.488  10.660   8.533 -0.1949 -0.2685 -0.5038
  890MOL0     C22700   6.381  10.683   8.454 -0.2827 -0.4350  0.3420
  890MOL0     C22701   6.369  10.820   8.456  0.3493  0.2261 -0.9410
  890MOL0     C22702   6.257  10.904   8.392  0.2346 -0.4296 -0.4919
  890MOL0     C22703   6.129  10.921   8.482 -0.0961 -0.0583  0.8344
  890MOL0     C22704   6.146  11.034   8.586  0.3619  0.2947  0.3642
  890MOL0     C22705   6.236  11.003   8.694  0.1674  0.0540  0.3964
  890MOL0     O22706   6.221  11.106   8.797  0.0252  0.1952  0.0373
  890MOL0     C22707   6.319  11.107   8.894  1.2621 -0.5523 -0.5983
  890MOL0     C22708   6.436  11.034   8.900  0.1148  0.1952  0.5060
  890MOL0     C22709   6.528  11.047   9.005  0.8334 -0.6679 -0.2410
  890MOL0     C22710   6.664  10.961   9.005 -0.0713 -1.4318  0.9624
  890MOL0     C22711   6.497  11.133   9.112 -0.1472 -0.6366  0.0622
  890MOL0     C22712   6.590  11.151   9.223  0.8602  0.0248  0.3360
  890MOL0     O22713   6.537  11.140   9.358  0.2654 -0.4656  0.5815
  890MOL0     C22714   6.624  11.126   9.463  0.2479 -0.3194  0.7075
  890MOL0     C22715   6.692  11.243   9.518 -0.9893  0.8086 -0.0768
  890MOL0     C22716   6.785  11.229   9.626 -0.2707  0.2724 -0.1673
  890MOL0     C22717   6.795  11.113   9.697  0.4577 -0.0861  0.1510
  890MOL0     O22718   6.872  11.122   9.808 -0.4690  0.4261 -0.0559
  890MOL0     C22719   6.863  11.017   9.919  0.2741 -0.5894  0.8382
  890MOL0     C22720   6.728  11.022   9.991  0.4133 -0.2968 -0.3578
  890MOL0     C22721   6.698  11.166  10.057 -0.1624  0.1265 -0.4883
  890MOL0     C22722   6.796  11.205  10.171  0.4093 -0.3282 -0.2019
  890MOL0     C22723   6.757  11.348  10.224 -0.4825 -0.2975 -1.0516
  890MOL0     C22724   6.832  11.465  10.160  0.1039  0.7043 -0.0672
  890MOL0     C22725   6.961  11.487  10.232 -0.3081 -0.0017 -0.5867
  890MOL0     C22726   7.067  11.555  10.154  0.6061  0.6442  0.1825
  890MOL0    Cl22727   7.153  11.647  10.273 -0.0531  0.3374  0.0231
  890MOL0     C22728   6.714  11.008   9.649 -0.1993  0.6701  0.6900
  890MOL0     C22729   6.631  11.009   9.535  0.2825 -0.5232 -0.2874
  890MOL0     O22730   6.709  11.166   9.206 -0.0697 -0.5177 -0.1415
  890MOL0     C22731   6.371  11.196   9.115 -1.2169 -1.1418  0.2742
  890MOL0     C22732   6.299  11.205   8.995 -0.5830  0.8222 -0.7799
  890MOL0     N22733   6.475  10.870   8.538  0.1762 -0.5950  0.8845
  890MOL0     N22734   6.541  10.778   8.586 -0.1568 -0.1491  0.4047
  890MOL0     C22735   5.712  10.337   9.310 -0.6612 -0.5259  0.0320
  890MOL0     C22736   5.612  10.307   9.406  0.0864  0.1968 -0.5759
  890MOL0     C22737   5.177  10.167   9.564  0.2580  0.1219  0.2573
  890MOL0     C22738   5.189  10.261   9.663  0.2962  0.6280  0.9274
  890MOL0     C22739   5.080  10.286   9.749  0.4517  1.0182 -0.1774
  890MOL0     C22740   4.966  10.206   9.746 -0.5146 -0.0862  0.5746
  890MOL0     O22741   4.856  10.228   9.820 -0.3459  0.4284 -0.4931
  890MOL0     C22742   4.872  10.306   9.938  0.2860  0.9670  0.3594
  890MOL0     C22743   4.927  10.226  10.057 -0.1049 -0.0890  0.2986
  890MOL0     C22744   4.918  10.302  10.197 -0.9525  0.2962  0.1316
  890MOL0     C22745   5.051  10.358  10.247 -0.1426 -0.4962 -0.2997
  890MOL0     C22746   5.104  10.460  10.156 -0.6352 -0.0306 -0.4642
  890MOL0     C22747   5.181  10.527  10.092 -0.5410  0.6101 -0.2946
  890MOL0     C22748   4.956  10.108   9.653 -0.6195  0.2808  1.6102
  890MOL0     C22749   5.052  10.097   9.547  0.3910  0.1122 -0.3736
  890MOL0     C22750   5.021  10.000   9.442 -0.1427  0.4786 -0.1067
  890MOL0     H22751   5.379  10.161   9.207  1.4665 -3.6978 -1.0872
  890MOL0     H22752   5.565  10.169   9.042  0.7074 -1.4515  0.5892
  890MOL0     H22753   5.721  10.241   8.939 -0.8841  3.6523  1.9412
  890MOL0     H22754   5.858  10.137   9.009  0.2581 -0.0013 -2.1129
  890MOL0     H22755   5.905  10.264   8.786  0.8921  0.6407  0.5301
  890MOL0     H22756   5.901  10.413   8.870  1.3293  0.1614  3.6304
  890MOL0     H22757   6.095  10.323   9.009 -0.9611  1.4946 -0.1900
  890MOL0     H22758   6.100  10.190   8.895 -4.3135 -0.5814  1.0438
  890MOL0     H22759   6.135  10.315   8.709 -2.1269 -0.4447  1.2148
  890MOL0     H22760   6.102  10.470   8.789  1.1428 -0.8670 -0.6077
  890MOL0     H22761   6.349  10.300   8.834 -1.2356 -1.0765  2.7832
  890MOL0     H22762   6.275  10.419   8.951  2.3654 -0.0349  0.0652
  890MOL0     H22763   6.275  10.567   8.728 -2.0111 -0.4407  3.2531
  890MOL0     H22764   6.431  10.557   8.831 -0.0547 -1.0928  1.3946
  890MOL0     H22765   6.335  10.402   8.592 -0.0216  0.0040 -1.8534
  890MOL0     H22766   6.475  10.342   8.667 -0.2762 -0.3744  2.2054
  890MOL0     H22767   6.620  10.526   8.604  0.1803  3.0022 -1.5551
  890MOL0     H22768   6.528  10.473   8.468  1.3946  1.6270 -0.6634
  890MOL0     H22769   6.316  10.613   8.403  1.7044 -1.3624 -1.0559
  890MOL0     H22770   6.243  10.868   8.290  1.0578 -1.1376 -0.3700
  890MOL0     H22771   6.305  11.002   8.379  1.2067 -0.8269 -0.0002
  890MOL0     H22772   6.046  10.948   8.416 -2.3901 -0.0704  3.5245
  890MOL0     H22773   6.098  10.824   8.522  1.7450 -0.8480  0.4467
  890MOL0     H22774   6.173  11.123   8.528  0.2933 -2.1837 -3.9553
  890MOL0     H22775   6.055  11.073   8.630 -0.1751 -0.3951 -0.0953
  890MOL0     H22776   6.216  10.905   8.739 -0.3399  0.3518  0.8234
  890MOL0     H22777   6.339  11.022   8.661  0.7157 -1.0659  1.3671
  890MOL0     H22778   6.469  10.970   8.818  2.3943  0.5220  1.1297
  890MOL0     H22779   6.737  11.042   8.990 -2.9595  1.4130  1.1542
  890MOL0     H22780   6.676  10.890   8.923  1.0553 -1.7508  1.3818
  890MOL0     H22781   6.682  10.904   9.096  2.9482  1.0225  2.0865
  890MOL0     H22782   6.715  11.331   9.459 -0.2001  0.4211 -0.3524
  890MOL0     H22783   6.861  11.306   9.641 -1.6565  1.5435  0.6026
  890MOL0     H22784   6.866  10.927   9.856  0.2314 -0.9843  1.3960
  890MOL0     H22785   6.951  11.025   9.984 -0.5987 -1.1706  2.1204
  890MOL0     H22786   6.654  11.013   9.911 -0.1513 -0.3400  0.1709
  890MOL0     H22787   6.723  10.950  10.073  0.8307  0.1673  0.0872
  890MOL0     H22788   6.602  11.149  10.108 -0.0538 -3.2496 -1.1626
  890MOL0     H22789   6.681  11.246   9.985  2.3015  2.3481  1.2544
  890MOL0     H22790   6.900  11.196  10.136  0.2725 -3.0227 -0.1315
  890MOL0     H22791   6.799  11.137  10.257  3.1716 -1.1114 -0.7885
  890MOL0     H22792   6.651  11.373  10.218 -0.4270  0.5983  0.9249
  890MOL0     H22793   6.770  11.351  10.333 -1.2400  3.7774 -0.9168
  890MOL0     H22794   6.774  11.558  10.161 -0.1005  0.6002 -1.0326
  890MOL0     H22795   6.858  11.441  10.056 -0.8344  1.1386 -0.4165
  890MOL0     H22796   7.011  11.400  10.276  0.7852 -0.6627 -2.9609
  890MOL0     H22797   6.931  11.546  10.320  1.8498  0.5236 -0.1572
  890MOL0     H22798   7.026  11.624  10.080  2.2185  1.1426 -0.2875
  890MOL0     H22799   7.137  11.486  10.107 -1.5769 -0.9311 -0.8956
  890MOL0     H22800   6.704  10.918   9.708  0.1734  1.1484  1.4939
  890MOL0     H22801   6.568  10.926   9.505  3.1025 -2.6482 -0.7366
  890MOL0     H22802   6.349  11.262   9.198  0.0658  0.9012 -0.9156
  890MOL0     H22803   6.224  11.284   8.990 -0.8733  0.6718  0.6516
  890MOL0     H22804   5.808  10.378   9.339  0.8871 -2.1130 -2.4785
  890MOL0     H22805   5.622  10.339   9.509 -0.7820 -1.2523 -0.0137
  890MOL0     H22806   5.277  10.323   9.672  0.9433 -0.3986  2.0125
  890MOL0     H22807   5.088  10.371   9.815 -1.0759 -0.1714  1.6742
  890MOL0     H22808   4.938  10.393   9.932  2.9705 -0.9764 -0.1804
  890MOL0     H22809   4.771  10.341   9.957 -0.7245 -1.3075 -0.5120
  890MOL0     H22810   5.031  10.206  10.031  0.7320  3.2002  0.6752
  890MOL0     H22811   4.873  10.131  10.070 -0.1956 -0.2555 -1.0745
  890MOL0     H22812   4.838  10.377  10.196  0.4677  1.9725  2.0332
  890MOL0     H22813   4.885  10.227  10.270 -2.0814 -1.9729 -2.5255
  890MOL0     H22814   5.132  10.288  10.265  1.2761  0.8783 -1.1485
  890MOL0     H22815   5.023  10.402  10.344 -2.4269 -1.8885 -0.2483
  890MOL0     H22816   5.260  10.583  10.046 -0.9098  1.0895 -0.3638
  890MOL0     H22817   4.866  10.047   9.653  0.8302 -2.0934 -0.6093
  890MOL0     H22818   4.914   9.978   9.431  0.1145 -1.3517  0.6902
  890MOL0     H22819   5.058  10.032   9.344  2.9638  0.2860  0.9011
  890MOL0     H22820   5.071   9.906   9.468  1.3242  0.7366 -1.7721
  891MOL0     O22821   4.543   9.535   9.744  0.3732  0.0117  0.3908
  891MOL0     C22822   4.593   9.633   9.684 -1.7069  0.1695 -0.3739
  891MOL0     O22823   4.685   9.620   9.585 -0.2642 -1.1786  0.0086
  891MOL0     C22824   4.740   9.497   9.547  0.2810  0.0290 -0.8874
  891MOL0     C22825   4.721   9.468   9.411  0.0849  0.2588 -0.3894
  891MOL0     C22826   4.782   9.352   9.354  1.5490  0.3132 -0.7878
  891MOL0     C22827   4.863   9.269   9.432  0.0432 -0.0122  1.1508
  891MOL0     O22828   4.923   9.156   9.378 -0.6112  1.0136 -0.2166
  891MOL0     C22829   4.855   9.035   9.379  0.3230  0.0116  0.1987
  891MOL0     C22830   4.905   8.927   9.293 -0.6287 -0.6452 -0.5878
  891MOL0     C22831   5.062   8.919   9.299  0.5015  0.5338  0.1140
  891MOL0     C22832   5.115   8.887   9.448 -0.0398 -0.4390 -0.1171
  891MOL0     C22833   5.246   8.806   9.449 -0.2866  0.2666  0.7463
  891MOL0     C22834   5.288   8.787   9.593 -0.2030 -0.0506 -0.5282
  891MOL0     C22835   5.412   8.688   9.615 -0.8974 -0.6452  0.9382
  891MOL0     C22836   5.553   8.736   9.570 -0.6166  1.0068 -0.1638
  891MOL0     N22837   5.660   8.657   9.619 -0.3251 -0.2584 -0.1586
  891MOL0     C22838   5.684   8.624   9.750  0.7412  0.2077 -0.9637
  891MOL0     C22839   5.776   8.531   9.749 -0.7346  0.8419  0.4836
  891MOL0     C22840   5.832   8.451   9.861  0.0981 -0.7533  0.0624
  891MOL0     C22841   5.918   8.536   9.950  0.2891  0.4108 -0.2830
  891MOL0     C22842   5.944   8.460  10.083  0.4893 -0.3858  0.4350
  891MOL0     C22843   6.018   8.337  10.059 -0.2946  0.3234 -0.6919
  891MOL0     O22844   6.082   8.324  10.184 -0.6057  0.2373 -0.0287
  891MOL0     C22845   6.149   8.206  10.197  0.6535 -0.3181 -0.3126
  891MOL0     C22846   6.097   8.080  10.166 -0.4715 -0.1595  0.5374
  891MOL0     C22847   6.165   7.955  10.193  1.2978  0.3883  0.4731
  891MOL0     C22848   6.100   7.814  10.153  0.3894 -0.7008 -0.3808
  891MOL0     C22849   6.286   7.950  10.244 -0.4931  0.2502 -1.0775
  891MOL0     C22850   6.364   7.823  10.268  0.6956 -0.1763  0.5126
  891MOL0     O22851   6.493   7.831  10.241 -0.1733  0.7777  0.0793
  891MOL0     C22852   6.575   7.716  10.248  0.2585 -0.6096  0.9696
  891MOL0     C22853   6.715   7.737  10.276 -0.5486  0.4867  0.2735
  891MOL0     C22854   6.793   7.626  10.288 -0.7306  0.2008  0.5540
  891MOL0     C22855   6.756   7.487  10.270 -0.4454  0.5171  0.0248
  891MOL0     O22856   6.841   7.381  10.287  0.4083 -0.0483 -0.0045
  891MOL0     C22857   6.979   7.404  10.247  0.7617  0.1740 -1.0681
  891MOL0     C22858   7.058   7.271  10.261  0.1088 -0.4817 -0.4007
  891MOL0     C22859   7.203   7.302  10.277  0.1476  0.9720 -0.1737
  891MOL0     C22860   7.272   7.303  10.139  0.0095  0.3051  0.1281
  891MOL0     C22861   7.284   7.155  10.087 -0.2862  0.7521 -0.3032
  891MOL0     C22862   7.394   7.116   9.987  0.4383 -0.4548 -0.6677
  891MOL0     C22863   7.530   7.168  10.032  0.2297 -0.9820  0.7008
  891MOL0     C22864   7.633   7.100   9.949 -0.2099 -0.3000  0.3149
  891MOL0    Cl22865   7.786   7.173  10.020  0.1486  0.3268  0.1444
  891MOL0     C22866   6.622   7.470  10.238 -0.6876 -0.0090  0.6592
  891MOL0     C22867   6.533   7.580  10.217  0.1471 -0.2440  0.3724
  891MOL0     O22868   6.308   7.740  10.330 -0.3651  0.3488 -0.2545
  891MOL0     C22869   6.353   8.074  10.262 -0.1780 -0.2408  0.6409
  891MOL0     C22870   6.278   8.193  10.247  0.3576  0.2462  0.0781
  891MOL0     N22871   5.811   8.505   9.615  0.3115  0.9016 -0.0260
  891MOL0     N22872   5.742   8.578   9.545  0.6519  0.8758 -0.2885
  891MOL0     C22873   4.872   9.294   9.578  0.3553  0.2085  0.1537
  891MOL0     C22874   4.807   9.410   9.629 -0.1593 -0.1789 -1.4606
  891MOL0     C22875   4.588   9.762   9.742  0.8811 -0.4472  0.4704
  891MOL0     C22876   4.554   9.872   9.657  0.3575  0.7122 -0.3766
  891MOL0     C22877   4.537  10.000   9.695 -0.2289 -0.3062  0.4406
  891MOL0     C22878   4.562  10.040   9.834  0.4364 -0.4646 -0.5996
  891MOL0     O22879   4.567  10.174   9.875 -0.0099  0.3441  0.4527
  891MOL0     C22880   4.531  10.272   9.786 -0.1260 -0.8388  0.1150
  891MOL0     C22881   4.376  10.305   9.794 -0.7715  0.5176 -0.5969
  891MOL0     C22882   4.341  10.350   9.941  0.4193  0.2872 -0.1733
  891MOL0     C22883   4.270  10.239  10.021 -0.1632  0.5771 -0.3323
  891MOL0     C22884   4.141  10.183   9.982  0.4108 -0.2214 -0.2348
  891MOL0     C22885   4.028  10.145   9.965  0.9141  0.4542 -0.0757
  891MOL0     C22886   4.594   9.939   9.921 -0.5006  0.7567  0.9812
  891MOL0     C22887   4.598   9.795   9.881 -0.5669 -0.2882 -1.0757
  891MOL0     C22888   4.630   9.695   9.995 -0.3962 -0.9409 -0.7910
  891MOL0     H22889   4.659   9.536   9.353 -0.0390  1.0197  0.5934
  891MOL0     H22890   4.781   9.346   9.245  3.4085 -0.4781 -0.7975
  891MOL0     H22891   4.754   9.060   9.346  0.3294  1.3725  1.1196
  891MOL0     H22892   4.856   9.012   9.486  2.1687  0.6976  0.3689
  891MOL0     H22893   4.878   8.830   9.336 -0.5735 -0.0354  0.8896
  891MOL0     H22894   4.876   8.945   9.189  2.9967  2.7322 -1.2597
  891MOL0     H22895   5.080   8.826   9.243  1.3303  2.0680 -2.3615
  891MOL0     H22896   5.115   9.001   9.249 -0.0806  1.7746  1.4740
  891MOL0     H22897   5.144   8.984   9.491  1.4287  0.5975 -3.1647
  891MOL0     H22898   5.045   8.840   9.517 -0.2626 -0.2167 -0.1909
  891MOL0     H22899   5.334   8.844   9.396 -0.4679 -0.3362 -0.0055
  891MOL0     H22900   5.217   8.711   9.402 -2.8574  0.6944  1.2780
  891MOL0     H22901   5.325   8.883   9.630  1.7988  0.3917 -3.3502
  891MOL0     H22902   5.205   8.751   9.654  0.3853 -3.2547 -1.4024
  891MOL0     H22903   5.389   8.599   9.556  0.5708 -0.1493 -0.4469
  891MOL0     H22904   5.437   8.659   9.718  1.6867 -0.3683  0.4535
  891MOL0     H22905   5.557   8.754   9.462 -3.0394  3.6435  0.0477
  891MOL0     H22906   5.581   8.832   9.614 -2.4598  1.0256  1.0827
  891MOL0     H22907   5.622   8.651   9.836 -2.9544  0.1324 -3.3905
  891MOL0     H22908   5.893   8.367   9.825 -0.7839 -4.0090  5.1604
  891MOL0     H22909   5.749   8.404   9.914 -1.5534 -1.4817 -2.8916
  891MOL0     H22910   6.008   8.564   9.894  1.4251 -3.7935 -0.8698
  891MOL0     H22911   5.884   8.635   9.982  0.2321 -0.6658  3.4708
  891MOL0     H22912   5.988   8.533  10.152 -0.9667  1.3450 -0.3820
  891MOL0     H22913   5.850   8.435  10.134  0.0055 -1.1103 -0.7824
  891MOL0     H22914   5.950   8.262  10.016 -1.2551  0.6681  0.1819
  891MOL0     H22915   6.098   8.352   9.986  0.5109  0.1600  0.1369
  891MOL0     H22916   5.997   8.071  10.123 -1.2498 -0.5028  2.3389
  891MOL0     H22917   6.169   7.752  10.095  1.6875  1.3843 -1.1896
  891MOL0     H22918   6.016   7.825  10.084 -1.9240  0.3893  2.3890
  891MOL0     H22919   6.056   7.771  10.243  0.7471 -2.3332 -0.9574
  891MOL0     H22920   6.752   7.827  10.323  2.2563 -1.2428  1.6064
  891MOL0     H22921   6.894   7.640  10.323 -1.0748 -0.5643  1.8935
  891MOL0     H22922   6.976   7.440  10.144 -0.0511  1.1547 -0.7185
  891MOL0     H22923   7.029   7.482  10.305  0.6388  1.0123 -2.0580
  891MOL0     H22924   7.034   7.222  10.356 -1.1253 -1.7006 -1.3220
  891MOL0     H22925   7.029   7.204  10.180  1.3312 -1.9281  0.3100
  891MOL0     H22926   7.246   7.227  10.343 -0.8568 -1.7891 -2.4789
  891MOL0     H22927   7.217   7.393  10.337  3.2785  1.3226 -1.2376
  891MOL0     H22928   7.368   7.355  10.146 -1.4464  3.4157 -1.2481
  891MOL0     H22929   7.218   7.364  10.066 -0.8432  1.6578  1.8266
  891MOL0     H22930   7.308   7.105  10.181 -2.6051  2.7027  1.4460
  891MOL0     H22931   7.190   7.108  10.059  0.2678 -0.6754  0.1127
  891MOL0     H22932   7.366   7.166   9.894 -0.6414  0.6542  0.2292
  891MOL0     H22933   7.386   7.008   9.969 -3.1457 -0.6539  1.2064
  891MOL0     H22934   7.546   7.158  10.140  0.1949  0.7247  0.9010
  891MOL0     H22935   7.533   7.276  10.015  0.3634 -0.8700  1.3945
  891MOL0     H22936   7.622   7.121   9.842  0.7365  2.3011  0.6585
  891MOL0     H22937   7.622   6.994   9.973 -1.4866 -0.4783 -0.9130
  891MOL0     H22938   6.585   7.371  10.216 -0.3825  0.2066 -0.9775
  891MOL0     H22939   6.432   7.557  10.184  0.5569 -2.1845  0.3234
  891MOL0     H22940   6.456   8.089  10.293  1.1741  0.5162 -3.5555
  891MOL0     H22941   6.325   8.282  10.288 -2.1513  1.8807 -0.4212
  891MOL0     H22942   4.927   9.213   9.625 -0.7046 -1.6067 -1.5689
  891MOL0     H22943   4.791   9.430   9.734 -2.0435 -1.6640 -1.4095
  891MOL0     H22944   4.544   9.849   9.552  1.4895 -1.7003 -0.0357
  891MOL0     H22945   4.518  10.068   9.612  0.4005 -2.2718 -1.4299
  891MOL0     H22946   4.576  10.367   9.816 -0.5826 -0.6740  0.2904
  891MOL0     H22947   4.556  10.251   9.681  3.4562 -0.5836  0.8213
  891MOL0     H22948   4.315  10.222   9.759 -0.8567 -0.0430  0.7986
  891MOL0     H22949   4.355  10.388   9.726 -1.2770  1.8680  1.1277
  891MOL0     H22950   4.430  10.387   9.993  0.4900  0.3907 -0.3654
  891MOL0     H22951   4.271  10.434   9.940  2.0294  1.6965  0.7091
  891MOL0     H22952   4.248  10.275  10.122  1.9686  0.5810  0.1787
  891MOL0     H22953   4.327  10.147  10.016  0.2004  0.8235 -0.7954
  891MOL0     H22954   3.927  10.115   9.981  0.9921  1.2243  2.1331
  891MOL0     H22955   4.611   9.966  10.025  0.8006  1.9127  0.5008
  891MOL0     H22956   4.693   9.612   9.961 -0.8595 -1.9838  0.7610
  891MOL0     H22957   4.685   9.740  10.079  2.8537  0.3896 -3.4299
  891MOL0     H22958   4.534   9.659  10.034 -0.2244  0.2773  0.8771
  892MOL0     O22959   4.495   9.262  10.717 -0.3973 -0.5792 -0.8349
  892MOL0     C22960   4.460   9.230  10.607  0.5427  0.1897 -0.3688
  892MOL0     O22961   4.463   9.307  10.498 -0.6097  0.4460  0.5532
  892MOL0     C22962   4.538   9.424  10.494 -0.2011 -0.6905  0.1037
  892MOL0     C22963   4.491   9.538  10.421  0.7213  0.4983 -1.4313
  892MOL0     C22964   4.582   9.642  10.386  0.6729  0.4230  0.6989
  892MOL0     C22965   4.718   9.636  10.423  0.5350 -0.6619 -0.1234
  892MOL0     O22966   4.800   9.736  10.382  0.1345 -0.0049  0.3835
  892MOL0     C22967   4.933   9.758  10.426  0.2017  0.2594 -0.9895
  892MOL0     C22968   4.986   9.886  10.368  0.1970 -0.3458  0.6343
  892MOL0     C22969   5.018   9.861  10.216  0.3818 -0.2285  0.6068
  892MOL0     C22970   5.128   9.960  10.164 -0.8680  0.1120 -0.2293
  892MOL0     C22971   5.131   9.945   9.997  0.2084  0.7372 -0.5053
  892MOL0     C22972   5.262  10.004   9.942 -0.4534  0.0574  0.5609
  892MOL0     C22973   5.285   9.984   9.793 -0.2824 -0.0876 -0.0453
  892MOL0     C22974   5.332   9.853   9.759  0.2440  0.4623 -0.0508
  892MOL0     N22975   5.474   9.858   9.775 -0.2418 -0.4945 -0.0708
  892MOL0     C22976   5.560   9.914   9.683 -0.2184 -0.0910 -0.2060
  892MOL0     C22977   5.682   9.918   9.749  0.7493  0.0600  0.6863
  892MOL0     C22978   5.815   9.961   9.692 -0.3938  0.9785  0.2629
  892MOL0     C22979   5.859   9.856   9.580  0.1111 -0.3509 -1.3516
  892MOL0     C22980   6.000   9.895   9.532  0.1677 -0.0509 -0.8675
  892MOL0     C22981   6.012  10.028   9.456  1.1601  0.0422 -0.0102
  892MOL0     O22982   6.071  10.112   9.556  0.6673 -0.4137 -0.5517
  892MOL0     C22983   6.097  10.246   9.534 -0.0846  0.8094 -0.5781
  892MOL0     C22984   6.133  10.329   9.636  0.2376  0.3380 -0.1470
  892MOL0     C22985   6.152  10.466   9.632  0.1426  0.5531  0.7082
  892MOL0     C22986   6.210  10.542   9.754 -0.3222  0.2311 -0.3381
  892MOL0     C22987   6.101  10.526   9.512  0.2598 -0.3292 -0.6492
  892MOL0     C22988   6.074  10.675   9.504 -0.0144  0.3109  0.3839
  892MOL0     O22989   6.086  10.747   9.622 -0.1464  0.6204 -0.6412
  892MOL0     C22990   6.118  10.879   9.624  0.4615  0.4113  0.0172
  892MOL0     C22991   6.196  10.939   9.530 -0.8496  0.5105  1.5232
  892MOL0     C22992   6.241  11.075   9.537 -0.8082  0.1794 -0.2648
  892MOL0     C22993   6.208  11.155   9.649 -0.3908 -0.0751 -0.3582
  892MOL0     O22994   6.249  11.288   9.679 -0.4464 -0.5767  0.6249
  892MOL0     C22995   6.356  11.343   9.603 -0.0699 -0.8488  0.1275
  892MOL0     C22996   6.395  11.488   9.621 -0.4307  0.0624 -0.3574
  892MOL0     C22997   6.456  11.541   9.756  0.6555 -0.5488 -0.8738
  892MOL0     C22998   6.395  11.470   9.885 -0.5935 -0.9686  0.8696
  892MOL0     C22999   6.462  11.512  10.018  0.4142 -0.0347  0.1161
  892MOL0     C23000   6.411  11.649  10.065 -0.5215 -0.9234  1.0634
  892MOL0     C23001   6.499  11.758  10.010  0.4523 -0.2589 -0.1440
  892MOL0     C23002   6.462  11.888  10.074 -0.2946 -0.3495 -0.1103
  892MOL0    Cl23003   6.312  11.941   9.994  0.3897  0.5296 -0.5173
  892MOL0     C23004   6.119  11.096   9.745  0.3945  0.0793  0.3459
  892MOL0     C23005   6.069  10.966   9.736 -0.1175 -0.3605 -0.2155
  892MOL0     O23006   6.050  10.720   9.396 -0.2783 -0.0191 -0.1783
  892MOL0     C23007   6.067  10.437   9.403 -1.0061  0.5529  0.2496
  892MOL0     C23008   6.075  10.304   9.405 -0.8802  0.2379 -0.0178
  892MOL0     N23009   5.667   9.859   9.871 -0.0158 -0.4357  0.2238
  892MOL0     N23010   5.548   9.805   9.873  0.2659  0.4043 -0.0610
  892MOL0     C23011   4.753   9.529  10.509 -0.7523  1.1694  0.0506
  892MOL0     C23012   4.669   9.424  10.537 -0.4685 -0.1615 -0.5677
  892MOL0     C23013   4.392   9.094  10.599 -0.3405  0.2117 -0.7359
  892MOL0     C23014   4.295   9.070  10.495 -0.3077  0.5471 -0.3380
  892MOL0     C23015   4.242   8.938  10.460 -0.0738 -0.7536 -0.2380
  892MOL0     C23016   4.263   8.835  10.552  1.5460  0.1908 -0.2635
  892MOL0     O23017   4.193   8.716  10.532  0.3390  0.2292 -0.8458
  892MOL0     C23018   4.248   8.586  10.581 -0.2300 -0.0857 -0.3695
  892MOL0     C23019   4.188   8.479  10.490 -0.0357 -0.5168  0.9270
  892MOL0     C23020   4.250   8.342  10.531  0.4621 -0.2116  0.6197
  892MOL0     C23021   4.400   8.339  10.522  0.0617  0.2673  0.0355
  892MOL0     C23022   4.463   8.361  10.393  0.2692 -0.3274  0.4115
  892MOL0     C23023   4.526   8.390  10.288 -0.4273 -0.4959 -0.7777
  892MOL0     C23024   4.340   8.860  10.664  0.1074 -0.1573  0.0377
  892MOL0     C23025   4.413   8.978  10.685 -0.4444 -0.1515 -0.6448
  892MOL0     C23026   4.511   8.977  10.801 -0.0920 -0.0950 -0.3572
  892MOL0     H23027   4.397   9.519  10.371  0.8832 -2.0974 -0.9284
  892MOL0     H23028   4.552   9.722  10.319  2.1721  1.0154  0.6992
  892MOL0     H23029   4.998   9.673  10.404 -1.6384 -1.3761 -0.3723
  892MOL0     H23030   4.929   9.767  10.535 -4.1946  2.0369 -1.1031
  892MOL0     H23031   4.914   9.968  10.375  1.9872  1.1815  2.4761
  892MOL0     H23032   5.077   9.917  10.421  0.3335 -0.7909  0.6693
  892MOL0     H23033   5.027   9.756  10.188  0.6960 -0.0110 -0.1302
  892MOL0     H23034   4.926   9.879  10.160 -1.7667 -2.8028  3.0374
  892MOL0     H23035   5.108  10.065  10.184  1.1236  0.3844  0.4684
  892MOL0     H23036   5.225   9.939  10.210 -1.0585  2.5553  1.4764
  892MOL0     H23037   5.049   9.993   9.944  0.9596  1.2770 -1.2103
  892MOL0     H23038   5.131   9.837   9.978  1.7420  0.1259  2.4171
  892MOL0     H23039   5.261  10.113   9.955 -2.1379  0.7230 -3.5145
  892MOL0     H23040   5.352   9.961   9.987  1.1179  0.3322 -2.0983
  892MOL0     H23041   5.343  10.071   9.761 -3.5289  2.4303  0.2858
  892MOL0     H23042   5.190   9.998   9.740 -0.6413  2.0618  1.0721
  892MOL0     H23043   5.290   9.766   9.811  0.4531 -0.9070 -2.0346
  892MOL0     H23044   5.300   9.835   9.656  0.2931 -1.5830  0.2313
  892MOL0     H23045   5.526   9.928   9.581 -0.7469 -2.5024 -0.4094
  892MOL0     H23046   5.887   9.977   9.773 -2.6869  4.6830  1.8129
  892MOL0     H23047   5.792  10.059   9.650 -1.9535  0.5999  0.2105
  892MOL0     H23048   5.865   9.763   9.638 -1.3421  1.3203  1.7174
  892MOL0     H23049   5.783   9.845   9.503 -0.7167 -0.6714 -0.5035
  892MOL0     H23050   6.064   9.897   9.621  1.1474 -3.1807 -1.3623
  892MOL0     H23051   6.040   9.819   9.464  2.0186  0.9220 -0.9252
  892MOL0     H23052   6.069  10.019   9.363  0.9743  2.7402 -0.4605
  892MOL0     H23053   5.910  10.050   9.421  0.9708 -3.2508 -2.0185
  892MOL0     H23054   6.141  10.279   9.733  0.1273  3.3294  1.5146
  892MOL0     H23055   6.286  10.613   9.721  5.0681 -3.6940  2.1790
  892MOL0     H23056   6.278  10.470   9.801  1.9974 -0.0635 -3.7493
  892MOL0     H23057   6.133  10.576   9.824 -0.6490 -2.3413  0.6655
  892MOL0     H23058   6.225  10.883   9.441  1.1468  1.5094  1.4952
  892MOL0     H23059   6.303  11.125   9.464 -2.2607 -0.5839 -2.0927
  892MOL0     H23060   6.440  11.278   9.628  0.6616  0.9817  2.8548
  892MOL0     H23061   6.335  11.336   9.495  2.6063 -1.2154 -0.4320
  892MOL0     H23062   6.463  11.513   9.540 -0.0861  1.7277  0.3977
  892MOL0     H23063   6.305  11.549   9.604  0.2673  0.9838 -0.8170
  892MOL0     H23064   6.429  11.647   9.763  3.6180  0.1964  0.4426
  892MOL0     H23065   6.562  11.517   9.760  0.4362 -1.4154  1.6025
  892MOL0     H23066   6.410  11.362   9.873  0.6367 -0.7271 -0.0539
  892MOL0     H23067   6.289  11.494   9.885 -0.3503  0.2448  2.1911
  892MOL0     H23068   6.431  11.446  10.100 -1.3308 -1.6374 -1.7260
  892MOL0     H23069   6.570  11.502  10.004  0.2039 -1.5821 -0.6686
  892MOL0     H23070   6.429  11.632  10.171 -1.5964  0.7830  1.5604
  892MOL0     H23071   6.303  11.662  10.062 -0.2956  1.0366 -0.7725
  892MOL0     H23072   6.509  11.770   9.902  0.7063  1.8634  0.0616
  892MOL0     H23073   6.596  11.730  10.052  0.5966  3.5374  2.5729
  892MOL0     H23074   6.546  11.956  10.056  0.0005 -0.9300 -1.0119
  892MOL0     H23075   6.437  11.873  10.179 -0.8955 -1.7384 -0.4250
  892MOL0     H23076   6.088  11.152   9.832 -0.2591  0.2630 -0.0002
  892MOL0     H23077   5.992  10.934   9.804 -0.0095 -3.7900 -1.4738
  892MOL0     H23078   6.026  10.477   9.311  1.6402  3.0823  0.0473
  892MOL0     H23079   6.061  10.244   9.316  1.5947  1.6460 -1.4624
  892MOL0     H23080   4.852   9.526  10.551 -0.5721  4.8402  0.2609
  892MOL0     H23081   4.701   9.332  10.585 -0.7314  0.1099  0.1386
  892MOL0     H23082   4.265   9.158  10.439  1.9842  1.4819 -0.2484
  892MOL0     H23083   4.166   8.930  10.383  1.0319  2.8556 -1.9006
  892MOL0     H23084   4.356   8.591  10.597 -0.3687  0.5203  0.4087
  892MOL0     H23085   4.208   8.591  10.682 -1.0344 -0.4183 -0.6637
  892MOL0     H23086   4.201   8.489  10.382 -0.5205 -0.9852  0.8180
  892MOL0     H23087   4.079   8.479  10.503 -0.2414 -0.5392 -0.5847
  892MOL0     H23088   4.228   8.307  10.632  0.2225 -1.2781  0.2108
  892MOL0     H23089   4.211   8.261  10.469 -0.4203  1.1100 -0.6405
  892MOL0     H23090   4.420   8.237  10.556  3.2447  0.2052 -1.6907
  892MOL0     H23091   4.437   8.407  10.598 -0.5526 -2.3402  2.8873
  892MOL0     H23092   4.579   8.409  10.197  0.2057 -0.9532 -0.5152
  892MOL0     H23093   4.346   8.783  10.740  2.6396 -0.4795 -0.3959
  892MOL0     H23094   4.572   8.888  10.814 -1.8099 -1.4261 -1.0551
  892MOL0     H23095   4.588   9.054  10.788  0.0702  0.0346  1.1816
  892MOL0     H23096   4.465   9.002  10.897 -0.3854 -0.5577 -0.3772
  893MOL0     O23097   0.632   5.499   1.722 -0.5853  0.1423  0.0112
  893MOL0     C23098   0.593   5.538   1.833  0.0237  0.3545 -0.1969
  893MOL0     O23099   0.654   5.644   1.910 -0.4237  0.0539  0.3873
  893MOL0     C23100   0.761   5.708   1.852 -0.4409 -0.9270  0.9996
  893MOL0     C23101   0.737   5.814   1.751 -0.2267 -1.2585  0.3892
  893MOL0     C23102   0.848   5.893   1.707  0.3885  0.3889  0.5285
  893MOL0     C23103   0.975   5.855   1.748 -0.2449 -1.1789 -0.8274
  893MOL0     O23104   1.068   5.924   1.692 -0.6953 -0.4042 -0.7983
  893MOL0     C23105   1.181   5.976   1.766  0.6739  0.3101  0.2465
  893MOL0     C23106   1.292   6.010   1.679 -0.7803  0.2469  0.2279
  893MOL0     C23107   1.423   6.052   1.755 -0.3953 -0.1305  0.0412
  893MOL0     C23108   1.394   6.174   1.838  0.1120  0.0900  0.7236
  893MOL0     C23109   1.512   6.259   1.879  0.1686  0.5969 -0.0725
  893MOL0     C23110   1.585   6.338   1.772 -0.6706 -0.6094  0.1351
  893MOL0     C23111   1.710   6.391   1.828 -0.7050  0.1612  0.2223
  893MOL0     C23112   1.795   6.479   1.733 -0.3091 -0.2190 -0.4901
  893MOL0     N23113   1.836   6.397   1.618 -0.4579 -0.1927 -0.0249
  893MOL0     C23114   1.905   6.275   1.629 -0.0165 -0.2454  0.0641
  893MOL0     C23115   1.958   6.262   1.505 -0.0382  0.8098  1.3229
  893MOL0     C23116   2.040   6.135   1.473 -0.3562 -0.0353 -0.3871
  893MOL0     C23117   2.179   6.155   1.423  1.0490  0.0359 -0.5239
  893MOL0     C23118   2.257   6.033   1.377  0.4526 -0.3902 -0.9307
  893MOL0     C23119   2.327   5.943   1.482 -0.3478 -0.0633  0.7531
  893MOL0     O23120   2.427   6.001   1.564 -0.6665 -0.4005  1.0835
  893MOL0     C23121   2.526   6.073   1.509 -0.0340 -1.3126  0.2341
  893MOL0     C23122   2.593   6.166   1.590  0.0498  0.2040  0.3517
  893MOL0     C23123   2.684   6.253   1.526 -0.0814  0.2301 -0.5917
  893MOL0     C23124   2.735   6.359   1.621 -0.4291  0.5352  0.7789
  893MOL0     C23125   2.722   6.241   1.389  0.2415  1.3274 -1.1662
  893MOL0     C23126   2.814   6.335   1.329 -0.2807 -0.4806  0.8222
  893MOL0     O23127   2.808   6.347   1.194 -0.1354  1.0256  0.4017
  893MOL0     C23128   2.935   6.379   1.135  0.3723 -1.1435 -0.9153
  893MOL0     C23129   3.008   6.281   1.092 -0.5929  0.0125 -0.1835
  893MOL0     C23130   3.124   6.315   1.020  0.8486  0.9368  0.8101
  893MOL0     C23131   3.150   6.449   0.988  0.3006 -0.3312  0.4307
  893MOL0     O23132   3.255   6.492   0.915  0.1397  0.3557 -0.2926
  893MOL0     C23133   3.390   6.458   0.958  0.2721  0.9115  0.4860
  893MOL0     C23134   3.467   6.590   0.943  0.2123 -0.1502 -0.2585
  893MOL0     C23135   3.445   6.679   1.071 -0.3678 -0.0847 -1.2105
  893MOL0     C23136   3.413   6.826   1.033  1.2468  0.0079 -0.2544
  893MOL0     C23137   3.543   6.911   0.986  0.0063 -0.0994  0.5474
  893MOL0     C23138   3.503   7.043   0.916  0.7289 -0.3265 -0.2120
  893MOL0     C23139   3.629   7.124   0.875 -0.3415  0.1760 -1.1333
  893MOL0     C23140   3.586   7.203   0.753  0.0137 -0.7061 -0.3364
  893MOL0    Cl23141   3.472   7.339   0.787 -0.1830 -0.3901  0.3634
  893MOL0     C23142   3.073   6.547   1.040  0.7046 -1.0908  0.4837
  893MOL0     C23143   2.962   6.514   1.114 -0.1835 -0.3672 -0.5517
  893MOL0     O23144   2.899   6.390   1.394 -0.0835 -0.3982 -0.1429
  893MOL0     C23145   2.662   6.135   1.320  0.9960  0.0385 -0.7221
  893MOL0     C23146   2.572   6.052   1.379  0.6169  0.3565 -0.5029
  893MOL0     N23147   1.927   6.366   1.424  0.2496  0.3059 -0.8329
  893MOL0     N23148   1.853   6.445   1.495  0.3863 -0.7091  0.1072
  893MOL0     C23149   0.989   5.742   1.833 -0.6344  0.2357 -0.7501
  893MOL0     C23150   0.888   5.659   1.885  0.5489 -0.0022  0.5637
  893MOL0     C23151   0.511   5.443   1.907  0.2017 -0.2822  0.5448
  893MOL0     C23152   0.503   5.462   2.049  0.4405 -0.7370 -0.5501
  893MOL0     C23153   0.418   5.395   2.136 -0.1721 -0.1125  0.2116
  893MOL0     C23154   0.338   5.300   2.078  0.1023 -0.6578 -0.4681
  893MOL0     O23155   0.265   5.219   2.163  0.1708  0.0304  0.6443
  893MOL0     C23156   0.192   5.111   2.107  0.6531 -0.2260  0.4453
  893MOL0     C23157   0.039   5.146   2.095  0.2476  0.1164  0.5325
  893MOL0     C23158  -0.057   5.049   2.032  0.3691  0.5538 -0.5373
  893MOL0     C23159  -0.024   4.991   1.892  0.1115 -0.2340  1.3110
  893MOL0     C23160  -0.007   5.100   1.789  0.0609  0.3916 -0.3441
  893MOL0     C23161  -0.018   5.169   1.696 -0.3806 -0.4649 -1.2823
  893MOL0     C23162   0.342   5.276   1.935  0.0912 -0.1522 -0.1543
  893MOL0     C23163   0.438   5.333   1.854  0.9832  0.7707 -0.4386
  893MOL0     C23164   0.430   5.296   1.709 -0.4614 -0.0128 -0.2411
  893MOL0     H23165   0.639   5.847   1.720  0.2344  1.5316  1.5509
  893MOL0     H23166   0.832   5.983   1.650  0.1683 -1.6023 -2.8029
  893MOL0     H23167   1.220   5.891   1.823  0.1111 -0.9032 -1.0791
  893MOL0     H23168   1.141   6.057   1.828  0.7254  0.0158  0.6712
  893MOL0     H23169   1.319   5.922   1.620  2.8092 -0.1109  2.1580
  893MOL0     H23170   1.255   6.086   1.609 -0.3567 -0.6741 -1.0307
  893MOL0     H23171   1.460   5.970   1.818  0.1366  1.6767  2.1978
  893MOL0     H23172   1.496   6.084   1.681 -1.3836  1.5335 -0.2794
  893MOL0     H23173   1.324   6.235   1.780  2.0443  1.0778 -0.6877
  893MOL0     H23174   1.343   6.139   1.928  0.3479 -0.7368  0.5405
  893MOL0     H23175   1.589   6.203   1.932 -1.8532 -0.6834  1.6439
  893MOL0     H23176   1.469   6.331   1.949  0.9280  0.1456  0.8697
  893MOL0     H23177   1.608   6.281   1.681  1.4556  3.1076 -1.9146
  893MOL0     H23178   1.518   6.421   1.744  0.0193 -0.1257 -0.1188
  893MOL0     H23179   1.771   6.305   1.856 -0.1733 -0.5384 -2.7951
  893MOL0     H23180   1.684   6.452   1.915 -0.5910  1.6747 -0.7649
  893MOL0     H23181   1.755   6.572   1.693 -3.0241 -1.2541 -0.3755
  893MOL0     H23182   1.875   6.515   1.799 -2.0225  0.8993  1.0801
  893MOL0     H23183   1.917   6.199   1.707  1.3984  1.6575  1.8017
  893MOL0     H23184   1.987   6.071   1.402 -4.1797  0.7726  1.4639
  893MOL0     H23185   2.055   6.075   1.563  5.3286  0.7338 -0.4633
  893MOL0     H23186   2.168   6.201   1.324 -2.8472  1.0521  0.2231
  893MOL0     H23187   2.243   6.221   1.482  1.7509 -1.8784  0.9408
  893MOL0     H23188   2.183   5.972   1.325 -0.3332 -0.2127 -0.0646
  893MOL0     H23189   2.316   6.070   1.293  1.4668  3.6661  1.2769
  893MOL0     H23190   2.252   5.907   1.553 -0.6523 -0.7626  0.0867
  893MOL0     H23191   2.378   5.860   1.433 -1.5129 -0.9011  0.9440
  893MOL0     H23192   2.580   6.178   1.697 -1.9658 -2.6298  0.5404
  893MOL0     H23193   2.679   6.371   1.714 -2.3926  1.9095 -0.4950
  893MOL0     H23194   2.735   6.457   1.572  1.0464 -0.1855 -0.7506
  893MOL0     H23195   2.833   6.332   1.662  0.3684 -1.8014 -2.3422
  893MOL0     H23196   2.980   6.177   1.097 -1.3014  0.2324  0.6107
  893MOL0     H23197   3.166   6.227   0.971 -0.9091  1.8426 -2.6682
  893MOL0     H23198   3.399   6.421   1.060 -0.3205 -1.7564 -0.3508
  893MOL0     H23199   3.435   6.384   0.892 -2.4943 -0.0327 -0.5030
  893MOL0     H23200   3.576   6.594   0.937  0.4467  1.6144  2.6830
  893MOL0     H23201   3.433   6.639   0.852  0.1454 -3.0590 -1.9167
  893MOL0     H23202   3.531   6.682   1.138 -0.5446  2.1645 -1.0296
  893MOL0     H23203   3.361   6.636   1.127 -1.6904  2.9007 -0.7095
  893MOL0     H23204   3.371   6.869   1.124 -0.3016 -0.0927 -0.8862
  893MOL0     H23205   3.337   6.830   0.955 -3.9123  0.6857  4.2246
  893MOL0     H23206   3.614   6.927   1.068  1.8014 -1.3116 -0.6846
  893MOL0     H23207   3.600   6.847   0.918 -0.2011  1.1578 -0.8674
  893MOL0     H23208   3.449   7.104   0.989 -0.6532 -0.4064 -1.1249
  893MOL0     H23209   3.433   7.028   0.833 -1.3937 -0.2426  1.5019
  893MOL0     H23210   3.709   7.050   0.860 -0.7959 -0.5089 -0.2783
  893MOL0     H23211   3.665   7.191   0.954  1.6518  1.2760 -2.8552
  893MOL0     H23212   3.549   7.140   0.672 -1.8834 -1.2934  0.9021
  893MOL0     H23213   3.679   7.253   0.724  1.5423 -1.4369  2.8020
  893MOL0     H23214   3.104   6.651   1.037  1.0041 -1.0923  2.3985
  893MOL0     H23215   2.904   6.589   1.167 -0.8701 -1.4492  0.2678
  893MOL0     H23216   2.696   6.110   1.220 -0.3478  2.1715 -1.7730
  893MOL0     H23217   2.527   5.967   1.330 -0.6888  1.2996 -0.9923
  893MOL0     H23218   1.092   5.715   1.852 -0.4298  1.5131  0.0529
  893MOL0     H23219   0.897   5.565   1.940  0.3150 -0.8582 -0.8224
  893MOL0     H23220   0.558   5.541   2.099  1.8444 -0.1307 -2.9389
  893MOL0     H23221   0.425   5.406   2.243  0.0243  1.0611  0.0877
  893MOL0     H23222   0.219   5.077   2.006 -6.0638  0.1054 -1.9657
  893MOL0     H23223   0.207   5.021   2.168 -0.5200 -0.9014 -0.2375
  893MOL0     H23224   0.036   5.240   2.039 -5.2053  0.5398  1.0693
  893MOL0     H23225   0.005   5.177   2.194 -2.0373  1.1757 -0.5140
  893MOL0     H23226  -0.077   4.973   2.108 -0.1170  0.7093 -0.5060
  893MOL0     H23227  -0.155   5.097   2.021 -0.6368 -0.9980  1.1482
  893MOL0     H23228  -0.102   4.921   1.861  2.3838 -1.6358 -1.8624
  893MOL0     H23229   0.065   4.928   1.899 -0.0460 -0.5516  0.5594
  893MOL0     H23230  -0.021   5.245   1.620 -0.2338  3.7517  2.5221
  893MOL0     H23231   0.274   5.212   1.878 -0.6000  0.3327  0.1146
  893MOL0     H23232   0.374   5.374   1.656  1.1028  0.5829 -1.0972
  893MOL0     H23233   0.528   5.289   1.660  0.7230 -1.3115  2.1462
  893MOL0     H23234   0.382   5.200   1.688  0.7847  0.0985 -4.4877
  894MOL0     O23235   0.494   6.122   1.865  0.1057  0.6334  0.8361
  894MOL0     C23236   0.542   6.138   1.977  0.2477 -0.6241 -0.1664
  894MOL0     O23237   0.491   6.084   2.092  0.7667 -0.3733 -0.5050
  894MOL0     C23238   0.373   6.011   2.087  0.5026  0.3860  0.4208
  894MOL0     C23239   0.270   6.057   2.175 -0.3761  0.6061 -0.2403
  894MOL0     C23240   0.147   5.989   2.174  0.0774 -0.7416  0.7946
  894MOL0     C23241   0.126   5.872   2.102  0.6560  0.0370 -0.7159
  894MOL0     O23242   0.007   5.812   2.110  1.4406  0.1478  0.3720
  894MOL0     C23243  -0.017   5.680   2.165 -0.1802  0.1363 -0.6220
  894MOL0     C23244  -0.040   5.566   2.072  0.4893  1.1700  0.2451
  894MOL0     C23245  -0.149   5.585   1.966  0.3958  0.0001 -0.4422
  894MOL0     C23246  -0.176   5.453   1.888 -0.1118 -1.0614  0.1314
  894MOL0     C23247  -0.295   5.479   1.795  0.9263  0.3314  0.0818
  894MOL0     C23248  -0.350   5.358   1.720 -0.4732 -0.3679 -0.4799
  894MOL0     C23249  -0.469   5.386   1.624  0.0488 -0.3157 -0.2179
  894MOL0     C23250  -0.533   5.245   1.601  0.9751  0.0969 -0.8257
  894MOL0     N23251  -0.640   5.256   1.501 -0.9430  0.1944  0.6745
  894MOL0     C23252  -0.613   5.248   1.365 -0.2402  0.7234 -1.0087
  894MOL0     C23253  -0.735   5.222   1.308 -0.8884  0.0997  0.5890
  894MOL0     C23254  -0.756   5.221   1.158  0.8193 -0.6072 -0.4804
  894MOL0     C23255  -0.720   5.355   1.087  0.8836  0.2193  0.3743
  894MOL0     C23256  -0.735   5.346   0.938  0.1547 -0.3922  1.0137
  894MOL0     C23257  -0.697   5.484   0.877 -0.3707  0.5005 -0.1940
  894MOL0     O23258  -0.563   5.516   0.920  0.1166  0.0155  0.2277
  894MOL0     C23259  -0.485   5.600   0.842  1.6955 -0.3391 -0.0788
  894MOL0     C23260  -0.348   5.597   0.875 -0.2562 -0.5765  0.7501
  894MOL0     C23261  -0.253   5.670   0.802 -0.8182 -0.2704 -0.5255
  894MOL0     C23262  -0.106   5.669   0.854 -0.6093  0.5335 -0.3151
  894MOL0     C23263  -0.292   5.744   0.686 -1.0672  0.0797  0.7152
  894MOL0     C23264  -0.204   5.812   0.587  0.3712 -0.4461  0.9263
  894MOL0     O23265  -0.251   5.928   0.536 -0.1629 -0.1236  0.0409
  894MOL0     C23266  -0.182   6.013   0.449  0.0484 -0.4075 -0.6151
  894MOL0     C23267  -0.054   6.001   0.381 -0.3375  0.9288  0.5218
  894MOL0     C23268  -0.010   6.098   0.286  0.4659 -1.1226  0.4233
  894MOL0     C23269  -0.080   6.223   0.275  0.7167  0.2523  0.2439
  894MOL0     O23270  -0.039   6.328   0.181 -0.0892 -0.1492  0.2443
  894MOL0     C23271   0.051   6.290   0.075 -0.4934  0.6677 -0.2113
  894MOL0     C23272   0.063   6.404  -0.028 -0.2982 -0.0593 -0.2060
  894MOL0     C23273   0.099   6.351  -0.168 -1.0053  0.1607 -0.0995
  894MOL0     C23274   0.056   6.446  -0.274 -0.1221 -0.1917  0.0236
  894MOL0     C23275   0.128   6.427  -0.401  0.4025  0.4014  0.3411
  894MOL0     C23276   0.110   6.290  -0.459  0.0618 -0.8591 -0.5808
  894MOL0     C23277   0.183   6.267  -0.588 -0.8556  0.4860 -0.3916
  894MOL0     C23278   0.299   6.169  -0.577  0.2741  0.2789 -0.6146
  894MOL0    Cl23279   0.421   6.208  -0.693  0.1874 -0.0220  0.0977
  894MOL0     C23280  -0.197   6.243   0.352  0.3526 -0.1610  0.3904
  894MOL0     C23281  -0.241   6.139   0.441  0.5330  0.5362 -0.6186
  894MOL0     O23282  -0.092   5.761   0.567 -0.0760  0.3860  0.8265
  894MOL0     C23283  -0.428   5.742   0.656 -0.1714  0.1346 -0.2465
  894MOL0     C23284  -0.523   5.672   0.725 -0.3905 -1.2499  0.0859
  894MOL0     N23285  -0.827   5.232   1.409 -0.6551  0.1201 -0.2179
  894MOL0     N23286  -0.773   5.251   1.525 -0.8211 -0.1029 -0.7761
  894MOL0     C23287   0.235   5.816   2.035  0.7365  0.4613  0.1697
  894MOL0     C23288   0.353   5.893   2.010 -0.1072 -0.7222  1.0859
  894MOL0     C23289   0.677   6.192   1.977 -0.7870 -1.4439 -0.7793
  894MOL0     C23290   0.708   6.319   1.912  1.2162 -0.6674 -0.3601
  894MOL0     C23291   0.839   6.366   1.910  0.6639  0.0289 -0.3845
  894MOL0     C23292   0.934   6.309   1.995 -0.5009  0.0691  0.6797
  894MOL0     O23293   1.040   6.388   2.010 -0.4038  0.9903 -0.0574
  894MOL0     C23294   1.145   6.370   2.105 -0.6358  0.6781  0.1556
  894MOL0     C23295   1.232   6.498   2.112  0.2329  0.5028 -0.3227
  894MOL0     C23296   1.161   6.590   2.213 -0.5361 -0.1236 -0.4818
  894MOL0     C23297   1.234   6.719   2.201 -0.4167  0.1880 -0.5690
  894MOL0     C23298   1.213   6.786   2.332 -0.0238 -1.1818  0.1658
  894MOL0     C23299   1.174   6.846   2.433 -0.4000 -0.4670 -0.1784
  894MOL0     C23300   0.905   6.188   2.066  0.4794  0.6295  0.5673
  894MOL0     C23301   0.784   6.125   2.041  0.1492  0.8667 -0.1225
  894MOL0     C23302   0.756   5.981   2.107 -0.8788 -0.8553  1.0775
  894MOL0     H23303   0.285   6.152   2.226  0.3184 -0.3278  1.3652
  894MOL0     H23304   0.057   6.013   2.230  1.7669 -1.8364  4.2404
  894MOL0     H23305  -0.101   5.691   2.235  0.4628  2.3834 -0.1162
  894MOL0     H23306   0.064   5.638   2.226  0.6803  0.7513 -1.3185
  894MOL0     H23307   0.060   5.548   2.031  0.5057 -1.8424  1.3347
  894MOL0     H23308  -0.067   5.471   2.119 -4.3298  2.8110  1.3816
  894MOL0     H23309  -0.246   5.613   2.008  0.7272 -1.4534  1.4208
  894MOL0     H23310  -0.118   5.664   1.897  3.5835 -0.6846  0.0397
  894MOL0     H23311  -0.087   5.415   1.836  1.3413  1.9455  0.1769
  894MOL0     H23312  -0.218   5.384   1.960 -3.3654  1.2553  0.6648
  894MOL0     H23313  -0.268   5.547   1.714 -0.6370  0.5079 -0.3248
  894MOL0     H23314  -0.378   5.519   1.854  0.8577 -3.4179  2.9281
  894MOL0     H23315  -0.270   5.323   1.655 -0.4800  1.1006 -1.3388
  894MOL0     H23316  -0.369   5.276   1.789 -3.7014  1.9707  1.7327
  894MOL0     H23317  -0.420   5.431   1.537  0.3760  0.6231  0.4310
  894MOL0     H23318  -0.540   5.463   1.653  0.9806  0.4281  0.1251
  894MOL0     H23319  -0.466   5.162   1.577  1.1339 -1.6911  4.4921
  894MOL0     H23320  -0.566   5.215   1.701 -1.4264  0.0981 -1.5720
  894MOL0     H23321  -0.522   5.251   1.306  3.1499  0.9854  3.6750
  894MOL0     H23322  -0.864   5.203   1.152  0.8368 -1.9734  1.8683
  894MOL0     H23323  -0.702   5.140   1.108  1.6325  0.2966 -1.1064
  894MOL0     H23324  -0.785   5.438   1.114  3.6311  3.0116 -0.9614
  894MOL0     H23325  -0.615   5.371   1.111  1.9195 -5.2581  0.9086
  894MOL0     H23326  -0.673   5.262   0.905 -3.0884 -3.3590  1.8979
  894MOL0     H23327  -0.839   5.328   0.910  0.5296  0.9181 -1.5813
  894MOL0     H23328  -0.694   5.458   0.770  0.6145 -2.5173  0.4630
  894MOL0     H23329  -0.774   5.551   0.916 -1.5589 -0.8153 -0.1713
  894MOL0     H23330  -0.316   5.536   0.959  1.8701  0.0608  0.4672
  894MOL0     H23331  -0.090   5.704   0.956 -0.9797 -0.6309  0.1633
  894MOL0     H23332  -0.037   5.722   0.788 -1.7212 -0.6143 -2.5215
  894MOL0     H23333  -0.069   5.566   0.866 -0.9105  0.7445  4.9240
  894MOL0     H23334  -0.007   5.905   0.366 -2.7636 -0.2924  0.1528
  894MOL0     H23335   0.078   6.076   0.227  0.5026 -0.7898  0.3522
  894MOL0     H23336   0.152   6.279   0.114 -0.4136  4.6622  1.0978
  894MOL0     H23337   0.015   6.196   0.030  0.4544 -0.5869  1.5236
  894MOL0     H23338  -0.044   6.427  -0.036 -0.0780  0.4962 -2.0374
  894MOL0     H23339   0.128   6.488  -0.002  1.7281 -0.5611 -3.1954
  894MOL0     H23340   0.043   6.261  -0.196  0.5530 -0.1725 -2.4676
  894MOL0     H23341   0.205   6.325  -0.178 -0.5566  1.5126  0.8417
  894MOL0     H23342   0.063   6.548  -0.236 -4.2840 -0.4618  2.1733
  894MOL0     H23343  -0.052   6.430  -0.286 -0.2901  0.9914 -0.1982
  894MOL0     H23344   0.094   6.501  -0.475 -1.8546  0.2178  1.1041
  894MOL0     H23345   0.235   6.449  -0.395  1.2031 -2.9194  0.0296
  894MOL0     H23346   0.005   6.270  -0.480  0.1533  1.4314 -4.0199
  894MOL0     H23347   0.148   6.221  -0.383 -0.9447  2.1693  2.9492
  894MOL0     H23348   0.212   6.365  -0.626  1.0761  1.0767  2.3400
  894MOL0     H23349   0.112   6.221  -0.658 -0.9119 -1.6481  0.9830
  894MOL0     H23350   0.264   6.067  -0.592 -0.8935  0.7540 -1.2808
  894MOL0     H23351   0.356   6.177  -0.484  2.1340 -2.3352 -1.4389
  894MOL0     H23352  -0.255   6.333   0.333  0.6238 -0.2476 -1.0031
  894MOL0     H23353  -0.314   6.149   0.521  0.2464 -1.3200 -0.6015
  894MOL0     H23354  -0.460   5.813   0.580  0.6981 -0.7722 -1.5108
  894MOL0     H23355  -0.629   5.673   0.699 -0.6927 -3.7443  0.9857
  894MOL0     H23356   0.239   5.719   1.987  1.8429 -0.2248  1.6086
  894MOL0     H23357   0.439   5.863   1.952  0.7820  2.0134  0.8423
  894MOL0     H23358   0.640   6.380   1.854  1.0461 -0.8578 -0.3595
  894MOL0     H23359   0.860   6.463   1.866  1.6078  0.5113  1.0542
  894MOL0     H23360   1.106   6.331   2.200  1.2694 -2.9167 -0.3609
  894MOL0     H23361   1.217   6.303   2.057 -1.6892 -0.5896  0.2759
  894MOL0     H23362   1.234   6.562   2.023  0.0263  1.6628  0.4927
  894MOL0     H23363   1.333   6.481   2.150 -0.3962 -0.2350  1.0621
  894MOL0     H23364   1.057   6.605   2.184 -0.8805  0.0011  0.7960
  894MOL0     H23365   1.180   6.548   2.312  1.2027  0.1057 -0.6852
  894MOL0     H23366   1.204   6.776   2.113 -5.5002 -0.5311  0.3790
  894MOL0     H23367   1.343   6.707   2.202  0.1530  3.9723  1.2909
  894MOL0     H23368   1.159   6.896   2.526 -1.3279 -0.7531 -0.1576
  894MOL0     H23369   0.971   6.150   2.144 -0.3280 -1.7072  0.1824
  894MOL0     H23370   0.848   5.944   2.151 -0.3621 -0.2934  0.4823
  894MOL0     H23371   0.683   5.993   2.188 -3.0984 -1.9380 -0.6281
  894MOL0     H23372   0.721   5.911   2.030 -0.5134  0.1702 -0.0551
  895MOL0     O23373   7.248   8.563   8.426 -0.4226  0.7082  0.5828
  895MOL0     C23374   7.221   8.586   8.311 -0.5524 -0.1306  0.2498
  895MOL0     O23375   7.107   8.640   8.262 -0.0999  1.0159  0.1922
  895MOL0     C23376   6.993   8.667   8.339  0.2115  0.3220  0.3589
  895MOL0     C23377   6.980   8.645   8.481  0.7807  0.1902  0.4850
  895MOL0     C23378   6.858   8.679   8.544  0.3477 -0.0108  0.2515
  895MOL0     C23379   6.757   8.746   8.474  1.0293  0.0910 -0.1866
  895MOL0     O23380   6.642   8.791   8.528 -0.3375  0.4262 -0.7087
  895MOL0     C23381   6.586   8.724   8.643 -0.3865 -0.7446  0.3756
  895MOL0     C23382   6.446   8.769   8.685 -0.5279 -1.2154 -0.1709
  895MOL0     C23383   6.336   8.760   8.578 -1.5533  0.5344  0.1770
  895MOL0     C23384   6.284   8.624   8.550  0.4614  0.7442 -1.1786
  895MOL0     C23385   6.172   8.583   8.657 -0.0357 -0.4363  0.9686
  895MOL0     C23386   6.056   8.514   8.583 -0.1393 -0.2657 -0.1353
  895MOL0     C23387   5.952   8.444   8.669  0.2248  0.1613 -0.2908
  895MOL0     C23388   5.892   8.518   8.792  0.2141  0.1524  0.3674
  895MOL0     N23389   5.967   8.509   8.910 -1.3315 -0.1978 -0.0896
  895MOL0     C23390   5.975   8.402   8.998  0.6712  0.7052  0.6087
  895MOL0     C23391   6.066   8.434   9.097 -1.0762  0.4826 -0.2183
  895MOL0     C23392   6.089   8.342   9.204  1.3134 -0.3028 -0.9137
  895MOL0     C23393   6.080   8.417   9.343 -0.3675 -0.4990 -0.5412
  895MOL0     C23394   6.109   8.329   9.474 -1.1763  0.4443 -0.1708
  895MOL0     C23395   6.223   8.219   9.444 -0.1611 -0.1322  0.5477
  895MOL0     O23396   6.219   8.124   9.554  0.1344 -0.4067  0.7240
  895MOL0     C23397   6.336   8.063   9.592 -0.5332  0.1575 -0.4580
  895MOL0     C23398   6.457   8.055   9.527  0.8515  1.1657 -0.1438
  895MOL0     C23399   6.577   8.024   9.600 -0.4351  0.2909 -0.6573
  895MOL0     C23400   6.697   8.001   9.518 -0.4137  0.3829 -0.1211
  895MOL0     C23401   6.577   7.989   9.734  0.1386 -0.7576  0.7288
  895MOL0     C23402   6.707   7.973   9.815 -0.4441 -0.2569  0.8701
  895MOL0     O23403   6.690   7.924   9.932 -0.0585 -0.4896 -0.5388
  895MOL0     C23404   6.781   7.950  10.038  1.1970 -0.5756  0.1184
  895MOL0     C23405   6.922   7.910  10.031 -0.9120  0.2097 -0.0591
  895MOL0     C23406   7.018   7.968  10.119 -0.7988  0.6868 -0.4724
  895MOL0     C23407   6.976   8.045  10.227  0.4404  0.2173  0.2355
  895MOL0     O23408   7.071   8.100  10.307  0.7110 -0.1953  0.2955
  895MOL0     C23409   7.080   8.054  10.436 -0.3072  0.6833 -1.3490
  895MOL0     C23410   7.200   8.111  10.516  0.1794 -0.2419  0.4033
  895MOL0     C23411   7.332   8.021  10.515  0.2300 -0.1654  0.9278
  895MOL0     C23412   7.446   8.099  10.581 -0.2763  0.2641 -0.2258
  895MOL0     C23413   7.574   8.013  10.592 -0.2995 -0.1574  0.1394
  895MOL0     C23414   7.642   8.010  10.453 -0.3971  0.1875  0.1294
  895MOL0     C23415   7.794   7.983  10.438  0.1525  0.3530 -0.1753
  895MOL0     C23416   7.903   8.082  10.469 -0.3942  0.2532  0.5836
  895MOL0    Cl23417   8.068   8.008  10.413 -0.1886  0.0178 -0.1473
  895MOL0     C23418   6.837   8.075  10.237 -0.9218 -0.0542  0.9359
  895MOL0     C23419   6.737   8.031  10.146  0.6766  0.3652 -0.9750
  895MOL0     O23420   6.812   8.024   9.782 -0.4906 -0.1475  0.5376
  895MOL0     C23421   6.455   7.985   9.798  0.4946  0.3715 -0.3442
  895MOL0     C23422   6.335   8.032   9.730 -0.3988  0.0276  0.3134
  895MOL0     N23423   6.117   8.556   9.063 -0.0565 -0.1973 -0.5400
  895MOL0     N23424   6.048   8.607   8.956  0.1555  0.9272 -0.7900
  895MOL0     C23425   6.779   8.766   8.340  1.2165 -0.2368 -0.9154
  895MOL0     C23426   6.885   8.716   8.267  0.3712  0.5858 -0.1209
  895MOL0     C23427   7.328   8.568   8.213 -0.6983 -0.1076  0.0170
  895MOL0     C23428   7.319   8.462   8.109 -1.1545 -1.2059 -0.2110
  895MOL0     C23429   7.430   8.436   8.026  1.5912 -0.1547  0.6791
  895MOL0     C23430   7.545   8.506   8.046  0.4754  0.3544 -0.5856
  895MOL0     O23431   7.653   8.490   7.967  0.2782  0.1357 -0.9926
  895MOL0     C23432   7.647   8.454   7.829  0.2068 -1.5357  0.4927
  895MOL0     C23433   7.639   8.592   7.757 -0.2177 -0.1189 -0.8037
  895MOL0     C23434   7.768   8.682   7.793 -0.2842 -0.0436 -0.9486
  895MOL0     C23435   7.752   8.830   7.750  0.7286  0.1698 -0.0962
  895MOL0     C23436   7.807   8.863   7.619 -0.8997  0.3630  0.0885
  895MOL0     C23437   7.862   8.905   7.518 -0.0161 -0.6445 -0.1928
  895MOL0     C23438   7.552   8.608   8.138 -0.0948 -0.8297  0.0334
  895MOL0     C23439   7.449   8.636   8.233 -0.3879  0.3648 -0.1360
  895MOL0     C23440   7.466   8.750   8.348 -1.1585 -0.8888  0.1634
  895MOL0     H23441   7.047   8.592   8.548  0.6661  0.9806  1.2401
  895MOL0     H23442   6.854   8.653   8.649 -1.9851  1.7459  0.6649
  895MOL0     H23443   6.656   8.755   8.721  0.1364 -1.5081  0.2308
  895MOL0     H23444   6.586   8.616   8.623 -0.1398 -0.3500 -2.1655
  895MOL0     H23445   6.423   8.698   8.765  1.2911 -2.0670 -0.3431
  895MOL0     H23446   6.429   8.871   8.721 -0.7027 -0.6476 -1.7899
  895MOL0     H23447   6.259   8.838   8.579 -0.3060  2.1603 -4.2800
  895MOL0     H23448   6.382   8.781   8.481 -0.2816 -0.0723  0.6267
  895MOL0     H23449   6.237   8.621   8.452 -0.2064 -0.5460 -0.8415
  895MOL0     H23450   6.367   8.552   8.550  1.3668  1.7315 -2.8342
  895MOL0     H23451   6.136   8.670   8.712  0.7285 -1.4372  3.1891
  895MOL0     H23452   6.217   8.511   8.726  1.4889 -3.5871 -2.9202
  895MOL0     H23453   5.993   8.582   8.525  2.4322  0.5583 -2.1390
  895MOL0     H23454   6.095   8.454   8.501  0.1311  1.9142 -1.6787
  895MOL0     H23455   5.986   8.348   8.710  0.3257  0.1448 -0.4126
  895MOL0     H23456   5.869   8.415   8.605 -1.5240  0.7111  1.6200
  895MOL0     H23457   5.864   8.622   8.772 -1.1764 -0.1559  0.6352
  895MOL0     H23458   5.801   8.460   8.810 -0.4904  0.4049 -2.0468
  895MOL0     H23459   5.920   8.308   8.991  0.5289  0.4986  3.3148
  895MOL0     H23460   6.185   8.291   9.189  3.3391  3.4298 -1.7157
  895MOL0     H23461   6.008   8.268   9.200  2.4042 -1.7024  1.1241
  895MOL0     H23462   6.166   8.485   9.351  0.6884 -1.9643  1.5445
  895MOL0     H23463   5.992   8.479   9.362 -0.2318 -0.2859 -0.5915
  895MOL0     H23464   6.148   8.386   9.558  3.2390  0.6070 -2.0100
  895MOL0     H23465   6.023   8.270   9.507  0.1455 -1.2563  0.4276
  895MOL0     H23466   6.205   8.168   9.349  1.1105 -0.8229  0.6555
  895MOL0     H23467   6.318   8.273   9.442  0.1263 -0.3328  3.5075
  895MOL0     H23468   6.468   8.071   9.421 -0.0511  0.2975 -0.3794
  895MOL0     H23469   6.739   7.901   9.531  3.4655  1.7421 -0.8148
  895MOL0     H23470   6.771   8.080   9.531 -1.3381  1.2721 -0.1769
  895MOL0     H23471   6.659   8.015   9.417  1.2539  2.7410 -0.5200
  895MOL0     H23472   6.959   7.855   9.946 -1.0024 -2.1785  1.3657
  895MOL0     H23473   7.118   7.925  10.107  0.0153  2.4194 -0.1984
  895MOL0     H23474   6.983   8.072  10.485 -0.6381  0.8947 -2.0622
  895MOL0     H23475   7.095   7.946  10.428 -2.4927  0.3436 -1.5910
  895MOL0     H23476   7.236   8.207  10.477 -2.0120 -0.5433 -2.7235
  895MOL0     H23477   7.171   8.116  10.622  0.9153 -1.3905  0.6751
  895MOL0     H23478   7.344   7.991  10.411 -0.2765  0.1090  0.7857
  895MOL0     H23479   7.312   7.926  10.565 -0.6635 -0.1215  0.6585
  895MOL0     H23480   7.424   8.115  10.687 -1.3933 -0.6707 -0.2940
  895MOL0     H23481   7.464   8.195  10.531  0.0821  1.4321  2.0495
  895MOL0     H23482   7.649   8.066  10.652  1.5754 -0.6968 -1.5920
  895MOL0     H23483   7.562   7.912  10.634 -1.0398  0.1835  0.7659
  895MOL0     H23484   7.640   8.112  10.414  0.9111  0.5526  0.9697
  895MOL0     H23485   7.589   7.944  10.384  1.7460 -0.6468 -0.7692
  895MOL0     H23486   7.825   7.949  10.339 -0.9221 -0.2438 -0.3184
  895MOL0     H23487   7.810   7.897  10.504 -1.7177  2.4849  3.3508
  895MOL0     H23488   7.908   8.109  10.575  2.1182  2.2312  0.0465
  895MOL0     H23489   7.878   8.180  10.427 -1.5890 -0.2780  0.0050
  895MOL0     H23490   6.819   8.166  10.294 -1.5952 -0.0751  0.7736
  895MOL0     H23491   6.637   8.072  10.153  0.4218 -0.5461  2.5103
  895MOL0     H23492   6.450   7.968   9.905 -1.1252  2.5435 -0.0033
  895MOL0     H23493   6.242   8.043   9.786 -1.3782 -1.0731 -1.0319
  895MOL0     H23494   6.696   8.823   8.299  1.7276 -0.0664 -1.7354
  895MOL0     H23495   6.878   8.719   8.159 -2.5856 -3.3575 -0.2745
  895MOL0     H23496   7.228   8.403   8.103 -1.4168 -0.6844 -2.0636
  895MOL0     H23497   7.430   8.352   7.957  0.8714  0.8904 -0.6351
  895MOL0     H23498   7.738   8.399   7.803 -0.2957 -1.7299 -0.9487
  895MOL0     H23499   7.564   8.402   7.781  0.6271 -1.0858 -0.7708
  895MOL0     H23500   7.553   8.647   7.795  0.2526 -0.0465  0.1711
  895MOL0     H23501   7.618   8.587   7.649 -0.3651  1.4903 -0.8701
  895MOL0     H23502   7.805   8.661   7.893  5.0593  1.4819 -2.2804
  895MOL0     H23503   7.847   8.644   7.726 -2.1250 -3.6501 -1.3547
  895MOL0     H23504   7.777   8.902   7.829  2.0849 -0.5348  0.1517
  895MOL0     H23505   7.647   8.857   7.735  1.4732  3.5216 -0.1833
  895MOL0     H23506   7.914   8.942   7.432 -1.6591  1.2310 -0.4823
  895MOL0     H23507   7.647   8.658   8.156 -0.8689  1.3929 -1.5529
  895MOL0     H23508   7.453   8.712   8.449  2.3152  2.3925  2.0704
  895MOL0     H23509   7.562   8.798   8.328 -0.4975 -2.5223 -0.8389
  895MOL0     H23510   7.388   8.825   8.330 -0.5906 -0.2805  0.1962
  896MOL0     O23511   4.611   2.214   6.573 -0.1372  0.5742 -0.4920
  896MOL0     C23512   4.633   2.187   6.454  0.7838 -1.1729 -0.3985
  896MOL0     O23513   4.608   2.059   6.396  0.8649 -0.0826 -0.2366
  896MOL0     C23514   4.549   1.960   6.479 -0.3676  0.9597  0.1984
  896MOL0     C23515   4.629   1.904   6.581 -0.1303 -0.7889 -0.2588
  896MOL0     C23516   4.577   1.812   6.657  0.3918  1.3354 -0.4620
  896MOL0     C23517   4.441   1.759   6.648 -0.9971  1.1313 -0.0521
  896MOL0     O23518   4.392   1.660   6.725  0.5110  0.1516  1.1666
  896MOL0     C23519   4.448   1.528   6.697  0.2904  0.2330  0.7509
  896MOL0     C23520   4.492   1.465   6.824 -0.6460 -0.2492  0.5014
  896MOL0     C23521   4.502   1.312   6.811  0.6453 -0.4024  0.4944
  896MOL0     C23522   4.551   1.248   6.946  0.2091 -0.3469  1.2239
  896MOL0     C23523   4.492   1.118   6.984  0.1655  0.1738  0.4352
  896MOL0     C23524   4.533   0.998   6.905 -0.6900  0.2078 -0.7524
  896MOL0     C23525   4.688   0.972   6.905 -0.2974  0.0774  0.2439
  896MOL0     C23526   4.714   0.845   6.819  1.1327  0.3922  1.2126
  896MOL0     N23527   4.847   0.800   6.840 -0.9757 -0.7330  0.2007
  896MOL0     C23528   4.928   0.749   6.747 -0.6159 -0.2322  0.4922
  896MOL0     C23529   5.037   0.707   6.817 -0.5225  0.0472  1.0295
  896MOL0     C23530   5.146   0.628   6.753 -0.0770 -0.3131  0.3403
  896MOL0     C23531   5.222   0.544   6.858 -0.5218 -0.4084  1.0179
  896MOL0     C23532   5.345   0.476   6.801  0.4084 -0.1222  0.0987
  896MOL0     C23533   5.399   0.385   6.916 -0.3953 -0.6494  0.5041
  896MOL0     O23534   5.455   0.463   7.022  0.1536  0.2248  0.2291
  896MOL0     C23535   5.504   0.379   7.120 -0.4792 -0.0091 -1.2841
  896MOL0     C23536   5.448   0.348   7.244  0.5310 -0.2829  0.0261
  896MOL0     C23537   5.500   0.277   7.351 -0.3448 -0.0959 -0.0786
  896MOL0     C23538   5.412   0.262   7.473 -0.3281 -0.0430 -0.4137
  896MOL0     C23539   5.636   0.233   7.340  0.3656 -0.6868  1.1348
  896MOL0     C23540   5.719   0.178   7.453 -0.2778 -0.1695  0.5685
  896MOL0     O23541   5.675   0.053   7.500  0.0592 -0.3866 -0.1859
  896MOL0     C23542   5.661   0.040   7.634  0.8130  0.2594  0.8398
  896MOL0     C23543   5.667   0.135   7.726  0.5677  0.0866 -0.7273
  896MOL0     C23544   5.636   0.104   7.862  0.3991  0.7496  0.1201
  896MOL0     C23545   5.602  -0.023   7.909 -0.0810  0.3239 -0.0319
  896MOL0     O23546   5.567  -0.033   8.044 -0.1354  0.1560  0.0428
  896MOL0     C23547   5.580  -0.163   8.110 -0.1791  1.0732  0.3390
  896MOL0     C23548   5.602  -0.162   8.262 -0.0884 -0.1659 -0.3369
  896MOL0     C23549   5.715  -0.072   8.309  0.0563 -0.5556 -0.1357
  896MOL0     C23550   5.691   0.082   8.295  0.3025  0.5167 -0.3380
  896MOL0     C23551   5.774   0.155   8.409  0.9522  0.5898  0.7204
  896MOL0     C23552   5.728   0.290   8.465 -0.1273  0.9395  0.1746
  896MOL0     C23553   5.712   0.392   8.359 -1.1568 -0.7661 -0.1905
  896MOL0     C23554   5.839   0.436   8.287  0.2848  0.3382  0.3371
  896MOL0    Cl23555   5.975   0.495   8.390 -0.0511  0.0612 -0.4566
  896MOL0     C23556   5.602  -0.125   7.811  0.0917  0.7387  0.3071
  896MOL0     C23557   5.629  -0.092   7.673 -0.7504  0.6241 -0.9327
  896MOL0     O23558   5.835   0.223   7.461 -0.9276  0.1724  0.4431
  896MOL0     C23559   5.705   0.251   7.212 -0.4508 -0.2697  0.0165
  896MOL0     C23560   5.634   0.322   7.112  0.3343 -1.4719  0.5544
  896MOL0     N23561   5.009   0.722   6.949  0.3458 -0.9845 -0.0336
  896MOL0     N23562   4.907   0.791   6.964  0.4576 -0.1395  0.2612
  896MOL0     C23563   4.363   1.815   6.547 -0.3035 -0.7508 -1.6857
  896MOL0     C23564   4.418   1.913   6.467 -0.3242 -0.3757  0.0020
  896MOL0     C23565   4.686   2.303   6.370  0.6081  0.3428 -0.5530
  896MOL0     C23566   4.676   2.438   6.428 -0.3335  0.1492 -1.2869
  896MOL0     C23567   4.723   2.553   6.364 -0.7466  0.3461 -0.0967
  896MOL0     C23568   4.778   2.538   6.237  1.1503  0.5413  0.6631
  896MOL0     O23569   4.805   2.660   6.171 -0.5374  0.3805 -0.3705
  896MOL0     C23570   4.817   2.655   6.029  0.0666 -0.5875  0.0855
  896MOL0     C23571   4.817   2.801   5.989  0.1209  0.2661 -0.1343
  896MOL0     C23572   4.680   2.869   5.998 -0.5375  0.1546  0.5020
  896MOL0     C23573   4.668   3.024   5.952  0.0400 -1.0235 -0.1747
  896MOL0     C23574   4.760   3.111   6.032  0.7830 -0.5197  0.2960
  896MOL0     C23575   4.817   3.184   6.101 -0.1866 -0.5925 -0.1509
  896MOL0     C23576   4.805   2.411   6.181  0.1245  0.1437  0.6391
  896MOL0     C23577   4.756   2.296   6.249 -1.0102  0.2112  0.8062
  896MOL0     C23578   4.803   2.161   6.197  0.6906 -0.3954  0.0113
  896MOL0     H23579   4.725   1.955   6.590 -0.6823  0.8998 -2.8032
  896MOL0     H23580   4.645   1.765   6.728 -2.3340 -1.8028  0.3678
  896MOL0     H23581   4.527   1.519   6.621  1.3382 -1.5249  1.9637
  896MOL0     H23582   4.363   1.463   6.672  0.9852 -1.7271  3.1344
  896MOL0     H23583   4.596   1.490   6.847  0.9694 -4.8577 -0.7375
  896MOL0     H23584   4.430   1.494   6.910 -1.6608 -0.7925 -0.0266
  896MOL0     H23585   4.402   1.270   6.797 -0.4636  2.5237 -1.2257
  896MOL0     H23586   4.569   1.283   6.729  2.5032  4.0275  0.1940
  896MOL0     H23587   4.660   1.253   6.954  0.3572 -0.4825 -0.4453
  896MOL0     H23588   4.520   1.306   7.033  0.3589  0.4251  0.7729
  896MOL0     H23589   4.383   1.127   6.984 -0.0816 -2.2127  0.3079
  896MOL0     H23590   4.513   1.101   7.090 -0.9389  1.2662  0.8552
  896MOL0     H23591   4.475   0.916   6.948 -2.4897  0.3978 -2.6538
  896MOL0     H23592   4.502   0.997   6.800 -0.6753 -0.3825 -0.7537
  896MOL0     H23593   4.715   0.950   7.009 -1.2256  1.6998  0.8720
  896MOL0     H23594   4.749   1.053   6.865 -0.1717  0.7646  1.7845
  896MOL0     H23595   4.645   0.773   6.863 -0.1534  1.1654  0.5082
  896MOL0     H23596   4.682   0.859   6.715  2.4784 -0.2177  0.6905
  896MOL0     H23597   4.921   0.736   6.640  0.1413 -0.1892  0.4354
  896MOL0     H23598   5.214   0.706   6.718  0.0375 -0.2913  0.6023
  896MOL0     H23599   5.115   0.562   6.672 -1.8995 -3.0425  3.0054
  896MOL0     H23600   5.265   0.616   6.928  2.9036 -0.4961 -0.7583
  896MOL0     H23601   5.148   0.479   6.906 -2.6790  0.8172 -0.4764
  896MOL0     H23602   5.328   0.415   6.711 -0.4794 -0.0474  0.2033
  896MOL0     H23603   5.414   0.548   6.755 -0.2427 -1.1359 -2.6729
  896MOL0     H23604   5.326   0.312   6.950 -0.4517 -1.3854 -1.1064
  896MOL0     H23605   5.488   0.347   6.865  0.8098  2.6250 -0.0629
  896MOL0     H23606   5.348   0.388   7.233  0.8058  0.3992 -0.0556
  896MOL0     H23607   5.401   0.155   7.489 -1.5314  0.1001 -0.2162
  896MOL0     H23608   5.319   0.319   7.476  0.9012  2.0626  1.4417
  896MOL0     H23609   5.468   0.303   7.558 -0.3527  1.3707 -1.0594
  896MOL0     H23610   5.686   0.236   7.690  1.3310 -0.3824 -1.6877
  896MOL0     H23611   5.642   0.191   7.927  1.9454  0.1900  0.7637
  896MOL0     H23612   5.490  -0.218   8.082 -0.1118  1.5764 -0.9722
  896MOL0     H23613   5.663  -0.220   8.068  0.8551 -0.1585  3.7797
  896MOL0     H23614   5.520  -0.128   8.327  0.0681  0.8969 -0.6662
  896MOL0     H23615   5.616  -0.262   8.304 -1.8153  0.2093  1.2820
  896MOL0     H23616   5.817  -0.099   8.280  0.6635 -2.9408  3.5368
  896MOL0     H23617   5.716  -0.091   8.417  2.0598  0.3195  0.0441
  896MOL0     H23618   5.587   0.111   8.315 -0.1450 -0.2557 -1.4474
  896MOL0     H23619   5.721   0.117   8.196  0.4581  1.6622  0.1029
  896MOL0     H23620   5.777   0.094   8.499  0.4170 -2.0179 -0.9035
  896MOL0     H23621   5.880   0.171   8.387  0.6267  1.6074 -0.2272
  896MOL0     H23622   5.803   0.330   8.533 -2.3717  3.6371  1.2446
  896MOL0     H23623   5.633   0.274   8.517 -0.2739  0.8103 -0.1264
  896MOL0     H23624   5.676   0.482   8.409 -1.4885 -1.4730  0.8802
  896MOL0     H23625   5.640   0.354   8.286  0.6684  0.5356 -2.8451
  896MOL0     H23626   5.799   0.508   8.215  1.7537 -0.0939 -0.9800
  896MOL0     H23627   5.868   0.347   8.230 -1.3128  1.3489 -2.2157
  896MOL0     H23628   5.580  -0.228   7.836 -1.3440  1.0497  0.4219
  896MOL0     H23629   5.634  -0.171   7.599 -1.9055  0.5065 -0.9056
  896MOL0     H23630   5.808   0.216   7.205 -1.6505 -5.3362  2.8982
  896MOL0     H23631   5.680   0.350   7.018 -1.5187 -1.0080 -0.2408
  896MOL0     H23632   4.262   1.789   6.517 -0.8318  2.9352 -3.8426
  896MOL0     H23633   4.341   1.959   6.406 -0.8812  0.3303  1.1916
  896MOL0     H23634   4.630   2.453   6.525  0.5866  1.3842 -1.0243
  896MOL0     H23635   4.708   2.648   6.415  0.2807  0.8990 -0.7826
  896MOL0     H23636   4.903   2.603   5.987 -0.5831 -0.7576 -1.0650
  896MOL0     H23637   4.727   2.607   5.989  0.3498  1.3507 -3.1956
  896MOL0     H23638   4.841   2.803   5.883 -0.1949 -2.2692 -0.3306
  896MOL0     H23639   4.891   2.853   6.052  0.1312  0.2094 -0.0985
  896MOL0     H23640   4.611   2.803   5.944 -0.9931 -0.6189  1.9758
  896MOL0     H23641   4.655   2.875   6.104 -2.1819 -2.7097  0.3910
  896MOL0     H23642   4.568   3.068   5.959  0.1190 -0.4842 -1.9776
  896MOL0     H23643   4.708   3.043   5.852  1.3950  5.2362  1.1688
  896MOL0     H23644   4.859   3.254   6.170 -5.7882  2.1137  1.0479
  896MOL0     H23645   4.866   2.397   6.092 -0.2800  2.6480 -0.1200
  896MOL0     H23646   4.864   2.171   6.107  0.5145 -0.9664 -0.1779
  896MOL0     H23647   4.851   2.104   6.277 -0.7550  0.2644  1.4232
  896MOL0     H23648   4.707   2.116   6.168 -0.5722  2.7043 -1.1555
  897MOL0     O23649   1.344   2.524   8.267 -0.8597  0.0764  0.6468
  897MOL0     C23650   1.245   2.580   8.296  0.8610 -0.5637 -0.0002
  897MOL0     O23651   1.194   2.606   8.423  0.2651 -0.6263  0.8647
  897MOL0     C23652   1.271   2.579   8.532 -0.4042 -0.1282  0.3407
  897MOL0     C23653   1.393   2.640   8.536  1.0379  0.8493  0.1713
  897MOL0     C23654   1.474   2.627   8.651 -1.3924 -0.6638  0.2864
  897MOL0     C23655   1.416   2.575   8.770 -0.7743  0.9038 -1.1306
  897MOL0     O23656   1.497   2.560   8.874  0.2341  0.5988 -0.4299
  897MOL0     C23657   1.447   2.610   8.997 -0.6935  0.3084  0.4182
  897MOL0     C23658   1.548   2.646   9.106  0.3365  0.0080  0.9958
  897MOL0     C23659   1.631   2.525   9.163 -0.3728  0.2231 -0.2360
  897MOL0     C23660   1.533   2.436   9.239  0.3965  0.3392  0.6601
  897MOL0     C23661   1.606   2.353   9.346  0.1931  0.0763 -0.5067
  897MOL0     C23662   1.677   2.428   9.453 -0.0408  0.2299  0.0661
  897MOL0     C23663   1.736   2.325   9.548 -0.0439 -1.1211  0.5477
  897MOL0     C23664   1.821   2.392   9.655  0.2140  0.4540  0.2145
  897MOL0     N23665   1.854   2.302   9.761 -0.4399  0.2342 -0.7363
  897MOL0     C23666   1.953   2.204   9.761  0.3714  0.5322 -0.9010
  897MOL0     C23667   1.951   2.160   9.890 -0.0026  0.7240 -0.4304
  897MOL0     C23668   2.039   2.049   9.950 -0.0893  0.0739 -0.4006
  897MOL0     C23669   2.179   2.110   9.971  0.2543 -0.1523 -0.2639
  897MOL0     C23670   2.292   2.011   9.939  0.6652 -0.3497 -0.3343
  897MOL0     C23671   2.418   2.041  10.013  0.8258  0.6492  0.1637
  897MOL0     O23672   2.471   2.173   9.993 -0.2554  0.0238  0.3493
  897MOL0     C23673   2.601   2.196   9.995  0.2236  0.7978 -0.4902
  897MOL0     C23674   2.672   2.148  10.106 -1.2669 -0.8588  0.9495
  897MOL0     C23675   2.804   2.174  10.128  0.4455 -0.7225  0.4203
  897MOL0     C23676   2.873   2.124  10.252 -0.0570  0.2045  0.5310
  897MOL0     C23677   2.879   2.246  10.035 -0.7250  0.7168  0.2574
  897MOL0     C23678   3.021   2.291  10.047 -1.1720 -0.2614  0.3535
  897MOL0     O23679   3.078   2.360   9.950  0.3943  0.3415 -0.1058
  897MOL0     C23680   3.205   2.425   9.947  0.4568  0.3547 -0.0852
  897MOL0     C23681   3.233   2.533   9.872 -0.5839  0.0071  0.7121
  897MOL0     C23682   3.365   2.589   9.885  0.3425  0.5751  0.7758
  897MOL0     C23683   3.462   2.533   9.969  0.0690 -0.0458 -0.3004
  897MOL0     O23684   3.582   2.597   9.981 -0.4488 -0.5025  0.1414
  897MOL0     C23685   3.569   2.734  10.040 -0.0868  0.8347  0.0531
  897MOL0     C23686   3.704   2.767  10.086 -0.4442  0.2206  0.2252
  897MOL0     C23687   3.689   2.896  10.169  0.2432 -1.3998  0.2113
  897MOL0     C23688   3.816   2.958  10.218 -0.7694 -0.7184  0.5831
  897MOL0     C23689   3.782   3.084  10.298  1.1148 -0.0140 -0.0142
  897MOL0     C23690   3.912   3.151  10.340 -0.2954  0.3519  0.4256
  897MOL0     C23691   3.885   3.299  10.359  0.4695  0.4056 -0.1720
  897MOL0     C23692   4.007   3.373  10.408  0.2304  0.1059 -0.2822
  897MOL0    Cl23693   3.983   3.546  10.402 -0.5080  0.3393 -0.2343
  897MOL0     C23694   3.436   2.422  10.042  1.0996  0.3999  0.0740
  897MOL0     C23695   3.309   2.365  10.019 -0.4705  1.0202 -0.1443
  897MOL0     O23696   3.070   2.286  10.152 -0.5388  0.4798  0.1607
  897MOL0     C23697   2.813   2.305   9.927 -0.0827  0.8970 -0.2232
  897MOL0     C23698   2.669   2.282   9.905  0.4916  0.4319 -1.3122
  897MOL0     N23699   1.849   2.218   9.964  0.6538  0.4246  0.1943
  897MOL0     N23700   1.793   2.302   9.880  1.0709  0.0882 -0.3067
  897MOL0     C23701   1.283   2.517   8.765 -0.1179 -0.2174 -0.7784
  897MOL0     C23702   1.206   2.527   8.648  1.2155  0.7526  0.3951
  897MOL0     C23703   1.164   2.627   8.180 -0.2700  0.2331  1.0223
  897MOL0     C23704   1.021   2.642   8.204 -1.5705 -0.3136 -0.1494
  897MOL0     C23705   0.935   2.671   8.098  0.8214  0.3397  0.1692
  897MOL0     C23706   0.984   2.708   7.972  0.4411 -0.3115 -0.3360
  897MOL0     O23707   0.914   2.733   7.860 -0.1675  0.7271  0.6069
  897MOL0     C23708   0.776   2.694   7.847  0.2938 -0.1107 -0.1957
  897MOL0     C23709   0.742   2.721   7.704  0.7107 -0.3700 -0.4714
  897MOL0     C23710   0.834   2.640   7.608  0.4576 -0.0074 -0.5584
  897MOL0     C23711   0.790   2.643   7.455 -0.1486 -0.5569  0.5623
  897MOL0     C23712   0.742   2.766   7.391  0.5353  0.3601 -0.4927
  897MOL0     C23713   0.719   2.873   7.329  0.4204  0.0256  1.0883
  897MOL0     C23714   1.124   2.716   7.956 -0.6891  0.4030 -0.2214
  897MOL0     C23715   1.220   2.667   8.050  0.8438  0.6080 -0.8052
  897MOL0     C23716   1.363   2.665   8.014 -0.8579 -0.2051 -0.1284
  897MOL0     H23717   1.436   2.675   8.442 -1.8843 -1.8214 -2.3529
  897MOL0     H23718   1.578   2.657   8.644 -1.2843 -1.4073 -3.5220
  897MOL0     H23719   1.378   2.534   9.036 -1.2107 -1.2815 -3.2263
  897MOL0     H23720   1.396   2.704   8.974 -1.0516 -0.1339 -0.6445
  897MOL0     H23721   1.618   2.715   9.059 -1.8639  2.0670  0.5828
  897MOL0     H23722   1.497   2.696   9.189  1.8230 -0.7479  2.4188
  897MOL0     H23723   1.684   2.481   9.079  4.1944  2.1414  1.3344
  897MOL0     H23724   1.707   2.568   9.230  2.1210 -0.5229 -2.4376
  897MOL0     H23725   1.449   2.487   9.286  0.0283 -1.2754  1.8480
  897MOL0     H23726   1.494   2.357   9.174 -0.6459 -0.6294  2.3866
  897MOL0     H23727   1.677   2.284   9.301  1.8909  0.9885  0.6458
  897MOL0     H23728   1.527   2.302   9.401 -0.8230 -0.2166 -2.1627
  897MOL0     H23729   1.759   2.484   9.408 -1.1137  2.6412  0.9597
  897MOL0     H23730   1.616   2.495   9.515  1.8535 -1.0133  3.5611
  897MOL0     H23731   1.801   2.251   9.500  1.3290  1.9740 -2.8301
  897MOL0     H23732   1.648   2.278   9.593 -1.2411 -1.1268 -1.6835
  897MOL0     H23733   1.917   2.439   9.630  1.9399 -2.4653  0.9093
  897MOL0     H23734   1.758   2.470   9.700 -1.4996 -0.6018 -0.2662
  897MOL0     H23735   2.008   2.164   9.676 -2.2185 -3.1456 -1.1081
  897MOL0     H23736   2.031   1.974   9.870  1.2611 -2.6911  1.8911
  897MOL0     H23737   1.999   2.010  10.044  1.9905  0.0631  0.5330
  897MOL0     H23738   2.206   2.186   9.896  1.9070 -0.4612 -0.0265
  897MOL0     H23739   2.184   2.150  10.072 -1.8537  0.5648 -0.3875
  897MOL0     H23740   2.265   1.911   9.973 -4.1391  0.6134 -0.5119
  897MOL0     H23741   2.314   2.019   9.833  0.3802 -0.6419 -0.4173
  897MOL0     H23742   2.399   2.026  10.120 -1.4383  0.4122 -0.2259
  897MOL0     H23743   2.489   1.969   9.972  1.3150  1.9878 -1.4759
  897MOL0     H23744   2.630   2.082  10.181 -1.2706  0.4068  2.0859
  897MOL0     H23745   2.788   2.067  10.290 -0.5387 -0.4308 -1.4089
  897MOL0     H23746   2.901   2.206  10.320 -0.9779  1.9793 -1.1349
  897MOL0     H23747   2.951   2.054  10.221  1.2990  1.4025  1.1081
  897MOL0     H23748   3.151   2.583   9.820 -1.0438 -1.7522 -0.3084
  897MOL0     H23749   3.401   2.657   9.809 -1.7414 -1.9246 -2.7767
  897MOL0     H23750   3.522   2.801   9.967 -0.8227  0.4878  0.2050
  897MOL0     H23751   3.509   2.724  10.130 -2.2267  2.5693 -1.0753
  897MOL0     H23752   3.743   2.695  10.159 -0.4130 -0.6446 -0.6181
  897MOL0     H23753   3.778   2.773  10.006 -1.1183  2.1236 -0.2904
  897MOL0     H23754   3.626   2.880  10.257 -0.6113 -1.6240 -0.4218
  897MOL0     H23755   3.628   2.964  10.108 -1.1787 -1.3548  1.6095
  897MOL0     H23756   3.874   2.981  10.128  0.2389 -1.3596  1.0499
  897MOL0     H23757   3.872   2.884  10.276  0.2709  0.0183  0.5498
  897MOL0     H23758   3.722   3.147  10.232  1.3408  0.4374  0.2075
  897MOL0     H23759   3.709   3.057  10.374 -0.0943  0.9068 -0.8178
  897MOL0     H23760   3.990   3.139  10.265  0.0319 -1.6043  1.0277
  897MOL0     H23761   3.950   3.112  10.435  0.8395  1.0662  0.2880
  897MOL0     H23762   3.808   3.314  10.435  0.1035  1.7238 -0.7761
  897MOL0     H23763   3.854   3.340  10.262  1.4033 -0.7623 -0.9997
  897MOL0     H23764   4.083   3.340  10.336  1.4279  0.2180  0.8967
  897MOL0     H23765   4.017   3.339  10.511 -2.5788  0.1620  0.0816
  897MOL0     H23766   3.507   2.381  10.112 -0.6998  1.7053  2.8325
  897MOL0     H23767   3.296   2.270  10.070  2.4076  0.5799 -0.0353
  897MOL0     H23768   2.871   2.377   9.870  1.8516  0.1290  0.6795
  897MOL0     H23769   2.628   2.348   9.829  1.2401  3.8227  0.9778
  897MOL0     H23770   1.237   2.471   8.851  3.6537 -0.0762  1.5385
  897MOL0     H23771   1.104   2.490   8.637  1.5499 -0.3266  0.8830
  897MOL0     H23772   0.965   2.627   8.296 -3.1794  0.0345 -1.0414
  897MOL0     H23773   0.828   2.663   8.116  0.5238 -0.5801 -1.8019
  897MOL0     H23774   0.745   2.593   7.875 -0.6853  0.6603  1.7636
  897MOL0     H23775   0.719   2.760   7.914  1.1026 -0.3025  0.7016
  897MOL0     H23776   0.759   2.827   7.686  0.8803 -0.2432  0.4007
  897MOL0     H23777   0.639   2.689   7.682 -0.3454 -0.1647  3.5258
  897MOL0     H23778   0.941   2.664   7.616  0.8792 -2.0002  0.5361
  897MOL0     H23779   0.830   2.537   7.644  0.7008  1.0977  3.1276
  897MOL0     H23780   0.718   2.563   7.434 -1.3375  1.1115 -2.3415
  897MOL0     H23781   0.881   2.618   7.400  2.7629  1.1647  4.1370
  897MOL0     H23782   0.716   2.964   7.273  1.0529  0.5693  1.9173
  897MOL0     H23783   1.159   2.743   7.857 -0.9761  0.9341 -0.1779
  897MOL0     H23784   1.396   2.564   7.987  2.0893  1.7815 -5.8655
  897MOL0     H23785   1.373   2.729   7.925  0.5328  0.7850  0.6811
  897MOL0     H23786   1.426   2.706   8.094 -2.6017  1.4964  0.4618
  898MOL0     O23787   6.402   9.421   2.974  0.3726  0.0189 -0.1001
  898MOL0     C23788   6.496   9.367   3.039  0.0343 -0.1948  0.0594
  898MOL0     O23789   6.575   9.262   2.993  0.0620 -0.3926  0.1047
  898MOL0     C23790   6.581   9.251   2.859 -0.0086 -0.5863 -0.1577
  898MOL0     C23791   6.482   9.184   2.779 -1.2525  0.3456  0.0815
  898MOL0     C23792   6.517   9.145   2.648  0.2012  0.1701  0.5803
  898MOL0     C23793   6.640   9.176   2.589 -0.5038  0.0942  0.0232
  898MOL0     O23794   6.676   9.124   2.466  0.3507 -0.2592 -0.1782
  898MOL0     C23795   6.772   9.202   2.388 -0.4737 -0.1803 -0.0269
  898MOL0     C23796   6.791   9.133   2.252 -0.7004 -0.2926  0.0801
  898MOL0     C23797   6.850   8.996   2.283  0.0063 -1.0150 -0.6518
  898MOL0     C23798   6.991   8.982   2.339  0.5376  0.0814  0.0746
  898MOL0     C23799   7.039   8.844   2.307  0.4026  0.7860 -0.1810
  898MOL0     C23800   7.141   8.799   2.400 -0.1281  0.7888 -0.5834
  898MOL0     C23801   7.274   8.883   2.380  0.0790  0.6551 -0.3568
  898MOL0     C23802   7.378   8.824   2.468  0.0010  0.3860  0.0014
  898MOL0     N23803   7.505   8.876   2.415  0.1863  0.3135 -0.4061
  898MOL0     C23804   7.617   8.802   2.387  0.1854  0.7112  1.3096
  898MOL0     C23805   7.715   8.894   2.366 -0.3726  0.4896  0.4919
  898MOL0     C23806   7.870   8.866   2.345  0.0641  0.2694 -0.2855
  898MOL0     C23807   7.879   8.782   2.212 -1.3996  0.2054  0.3118
  898MOL0     C23808   8.020   8.754   2.167 -0.1396 -0.8999 -0.4701
  898MOL0     C23809   8.094   8.876   2.112  0.8492 -0.3759  0.6818
  898MOL0     O23810   8.189   8.830   2.009 -0.4068  0.6358 -0.8370
  898MOL0     C23811   8.325   8.790   2.025 -0.1808  0.2074 -0.2692
  898MOL0     C23812   8.398   8.741   1.910  0.1160  1.3180  0.3535
  898MOL0     C23813   8.538   8.696   1.924 -1.1608 -0.6537 -0.9711
  898MOL0     C23814   8.607   8.623   1.801 -0.3810  0.4059 -0.4717
  898MOL0     C23815   8.605   8.704   2.052 -0.5610 -0.9955  0.1261
  898MOL0     C23816   8.741   8.669   2.093  0.0654 -0.9105  0.2856
  898MOL0     O23817   8.753   8.638   2.227 -0.2629 -0.2539 -0.5670
  898MOL0     C23818   8.882   8.638   2.274 -0.0718 -0.3788  0.9505
  898MOL0     C23819   8.932   8.520   2.322  0.2731 -0.3579 -0.3293
  898MOL0     C23820   9.065   8.519   2.360  0.5207  0.7854 -0.3926
  898MOL0     C23821   9.148   8.626   2.338  0.0076  0.3408 -0.3823
  898MOL0     O23822   9.287   8.615   2.360  0.5508 -0.8890 -0.3768
  898MOL0     C23823   9.342   8.506   2.424  0.1685  0.1346 -0.9043
  898MOL0     C23824   9.343   8.516   2.573  0.6771 -0.2023  0.2218
  898MOL0     C23825   9.410   8.396   2.643 -0.1120 -0.1060  1.3459
  898MOL0     C23826   9.439   8.431   2.791 -1.0671 -0.5615 -0.4174
  898MOL0     C23827   9.507   8.313   2.859 -0.4649  0.6702 -0.3846
  898MOL0     C23828   9.650   8.277   2.813  0.3364 -0.2022  0.2917
  898MOL0     C23829   9.722   8.176   2.893  0.7124  0.6144  0.4676
  898MOL0     C23830   9.871   8.204   2.904 -0.0455  1.0013 -1.2131
  898MOL0    Cl23831   9.904   8.281   3.058 -0.1378 -0.2674 -0.4013
  898MOL0     C23832   9.100   8.740   2.281 -0.1896  0.4473 -0.7452
  898MOL0     C23833   8.970   8.743   2.243 -0.3374  0.5002 -1.3161
  898MOL0     O23834   8.823   8.649   2.009 -0.0943  0.7598 -0.2549
  898MOL0     C23835   8.522   8.767   2.153 -0.4292 -0.2522  0.2606
  898MOL0     C23836   8.388   8.792   2.141 -0.3802 -0.0728 -0.8906
  898MOL0     N23837   7.664   9.029   2.381  0.7409  0.3192 -0.4575
  898MOL0     N23838   7.541   9.011   2.406 -0.2176 -0.3538  0.0645
  898MOL0     C23839   6.734   9.248   2.664  0.3845 -0.3902  0.3584
  898MOL0     C23840   6.703   9.287   2.794 -0.2906 -0.7809 -0.5496
  898MOL0     C23841   6.543   9.428   3.161  0.0931  0.9324 -0.9330
  898MOL0     C23842   6.574   9.353   3.274  0.8200  0.2359  0.2570
  898MOL0     C23843   6.610   9.417   3.393 -0.6705  1.0836  0.6771
  898MOL0     C23844   6.637   9.558   3.392 -0.6026 -0.3906 -0.1487
  898MOL0     O23845   6.668   9.630   3.510 -0.7329 -1.0965 -1.2262
  898MOL0     C23846   6.715   9.553   3.637 -0.7888  0.1393 -0.2841
  898MOL0     C23847   6.853   9.503   3.603  0.2741  0.1666  0.8094
  898MOL0     C23848   6.891   9.370   3.687  0.7990 -0.2029  0.0094
  898MOL0     C23849   6.934   9.410   3.837 -0.6942 -0.0800 -0.1711
  898MOL0     C23850   6.805   9.428   3.906  0.2565 -0.6807  0.0200
  898MOL0     C23851   6.701   9.416   3.955 -0.0150  0.6945 -0.1805
  898MOL0     C23852   6.629   9.623   3.272  0.0625 -0.4573  0.6682
  898MOL0     C23853   6.594   9.561   3.157  1.4396  0.0042  0.0675
  898MOL0     C23854   6.596   9.637   3.026  0.4011 -0.6242  0.3526
  898MOL0     H23855   6.385   9.170   2.825 -1.1251 -0.1352  0.2117
  898MOL0     H23856   6.449   9.092   2.583  0.5246  4.7050 -4.0816
  898MOL0     H23857   6.869   9.205   2.438 -0.4990  2.4923  0.0514
  898MOL0     H23858   6.731   9.304   2.379 -1.1298 -0.3081  1.3115
  898MOL0     H23859   6.696   9.121   2.200  0.7313  3.1841 -3.8783
  898MOL0     H23860   6.858   9.194   2.191 -1.6165  0.9465  0.2732
  898MOL0     H23861   6.785   8.945   2.354  0.8251 -2.2915 -0.7828
  898MOL0     H23862   6.858   8.952   2.183  0.6723  2.1626 -2.1146
  898MOL0     H23863   7.055   9.054   2.287  0.4022  0.5277  0.5191
  898MOL0     H23864   7.001   9.012   2.444  3.2226  1.1371 -0.4036
  898MOL0     H23865   7.056   8.838   2.200 -1.5861  0.7319 -0.5265
  898MOL0     H23866   6.960   8.770   2.326  0.8658 -0.5999 -3.0953
  898MOL0     H23867   7.099   8.813   2.500 -1.6831 -0.9667 -0.9413
  898MOL0     H23868   7.150   8.691   2.389 -3.5048  0.2740  0.6224
  898MOL0     H23869   7.263   8.988   2.406  2.5198  1.0352 -0.6557
  898MOL0     H23870   7.305   8.870   2.276  0.6549  1.1488 -0.2455
  898MOL0     H23871   7.367   8.839   2.576 -0.7931 -4.7281  0.9028
  898MOL0     H23872   7.390   8.715   2.460 -1.7293  0.1820 -0.1345
  898MOL0     H23873   7.628   8.694   2.394 -3.7786 -0.1281 -1.6303
  898MOL0     H23874   7.900   8.817   2.438 -0.9973 -0.7063 -0.4233
  898MOL0     H23875   7.925   8.955   2.314  2.4745 -1.7823 -2.3177
  898MOL0     H23876   7.841   8.682   2.234  0.2543 -0.6401 -0.4009
  898MOL0     H23877   7.829   8.834   2.130  0.5276  0.1309 -1.0053
  898MOL0     H23878   8.080   8.729   2.255  1.4303  2.0383 -0.5775
  898MOL0     H23879   8.022   8.663   2.106 -0.6089 -1.1286 -0.1489
  898MOL0     H23880   8.012   8.932   2.069  0.1790 -1.4217  0.5533
  898MOL0     H23881   8.146   8.934   2.189  1.6167  1.3754 -1.0843
  898MOL0     H23882   8.335   8.729   1.823 -0.5401 -0.5720  1.0346
  898MOL0     H23883   8.657   8.535   1.842 -0.0010  1.6606  1.9853
  898MOL0     H23884   8.692   8.681   1.762  3.0295 -1.6527  3.1457
  898MOL0     H23885   8.532   8.603   1.724 -1.5968 -2.2464  1.2839
  898MOL0     H23886   8.869   8.433   2.336  0.8362 -0.4656  1.8083
  898MOL0     H23887   9.113   8.434   2.407 -0.4115  1.0126  1.0499
  898MOL0     H23888   9.299   8.412   2.387  1.1765 -2.4645  3.7654
  898MOL0     H23889   9.446   8.503   2.393  1.2805  0.3390  2.4512
  898MOL0     H23890   9.406   8.603   2.596 -1.8534  0.9574  3.7006
  898MOL0     H23891   9.243   8.536   2.613  0.5093 -0.2902 -0.1457
  898MOL0     H23892   9.490   8.354   2.581 -1.2189  0.5171 -0.6022
  898MOL0     H23893   9.333   8.318   2.647 -1.9182  1.6106  1.6294
  898MOL0     H23894   9.345   8.452   2.843 -1.3555 -0.1896 -1.0816
  898MOL0     H23895   9.495   8.524   2.778 -0.1813 -1.3246 -2.6342
  898MOL0     H23896   9.521   8.330   2.966  0.3584  2.1971 -0.7127
  898MOL0     H23897   9.448   8.221   2.849  4.1478 -2.7990  1.0988
  898MOL0     H23898   9.707   8.369   2.831  1.0007 -0.5598  0.0402
  898MOL0     H23899   9.656   8.274   2.704 -1.3380  4.8647 -0.2320
  898MOL0     H23900   9.706   8.079   2.845  0.2989  1.6795 -1.6671
  898MOL0     H23901   9.683   8.166   2.995  0.0716 -0.2270  0.1607
  898MOL0     H23902   9.910   8.258   2.818  0.4871 -0.9987 -2.2760
  898MOL0     H23903   9.922   8.109   2.921  0.7035  1.4864 -0.6765
  898MOL0     H23904   9.165   8.823   2.254 -0.8173  0.2401 -3.0990
  898MOL0     H23905   8.938   8.828   2.184  1.0130  2.1038  0.1762
  898MOL0     H23906   8.552   8.775   2.257 -0.9981  3.5179  0.2791
  898MOL0     H23907   8.328   8.817   2.228 -0.8230 -0.1121 -1.1829
  898MOL0     H23908   6.831   9.278   2.624 -1.0410  2.4559 -1.2588
  898MOL0     H23909   6.775   9.336   2.859 -0.6697 -1.7111  0.6079
  898MOL0     H23910   6.539   9.250   3.285 -3.0628  1.5189  1.6843
  898MOL0     H23911   6.607   9.361   3.486 -0.0690 -1.0405 -0.5296
  898MOL0     H23912   6.726   9.617   3.725 -0.3193 -1.2631  0.6997
  898MOL0     H23913   6.641   9.479   3.665 -1.2638  1.3223  1.7684
  898MOL0     H23914   6.928   9.582   3.618  2.5184 -1.6560 -0.1448
  898MOL0     H23915   6.859   9.468   3.499 -1.0216  0.6518  0.5517
  898MOL0     H23916   6.809   9.299   3.673  1.0669 -0.1514 -2.2354
  898MOL0     H23917   6.976   9.334   3.629  0.2505  0.4341 -1.2253
  898MOL0     H23918   7.009   9.489   3.838  2.2458 -2.6775 -0.0929
  898MOL0     H23919   6.980   9.320   3.880 -1.0308  0.2661  0.9594
  898MOL0     H23920   6.602   9.414   3.996  0.6610 -0.1593  1.4808
  898MOL0     H23921   6.656   9.728   3.279  1.8795 -0.6456 -2.1353
  898MOL0     H23922   6.659   9.579   2.957 -2.0936 -0.8305 -1.9364
  898MOL0     H23923   6.503   9.662   2.974  0.5165  0.0059  0.4365
  898MOL0     H23924   6.635   9.736   3.052 -0.7121 -0.0035 -0.2525
  899MOL0     O23925   8.827   7.719   6.349  0.6858 -0.5727  0.9891
  899MOL0     C23926   8.841   7.710   6.470 -0.1879  0.3331  0.6571
  899MOL0     O23927   8.963   7.688   6.534  0.0760 -0.5348  1.1227
  899MOL0     C23928   9.079   7.719   6.470 -0.2786 -0.1181 -0.1084
  899MOL0     C23929   9.125   7.649   6.358  1.1113 -0.0305  0.1150
  899MOL0     C23930   9.239   7.689   6.278 -0.2843 -0.0071 -0.4306
  899MOL0     C23931   9.327   7.793   6.328 -0.0837  0.2162  0.2326
  899MOL0     O23932   9.442   7.835   6.259  0.3513 -0.0485  0.0902
  899MOL0     C23933   9.544   7.736   6.223 -0.5970  0.1820 -1.0218
  899MOL0     C23934   9.636   7.676   6.338  0.0517 -0.5608  0.4351
  899MOL0     C23935   9.693   7.779   6.428  0.3863  0.2600 -0.0685
  899MOL0     C23936   9.745   7.722   6.554  0.1647 -0.4335  0.0631
  899MOL0     C23937   9.820   7.834   6.640  0.1337 -0.0353 -0.1445
  899MOL0     C23938   9.723   7.940   6.680 -0.4249  0.0991 -0.4619
  899MOL0     C23939   9.774   8.031   6.785 -0.1704  0.5293  0.0652
  899MOL0     C23940   9.751   7.968   6.922  0.6367  0.4167  0.6466
  899MOL0     N23941   9.865   7.980   7.016 -0.8125 -0.3624  0.0709
  899MOL0     C23942  10.005   7.972   6.998  0.2897 -0.1442 -1.5475
  899MOL0     C23943  10.061   8.003   7.119 -0.6454 -1.5537 -0.2845
  899MOL0     C23944  10.198   8.008   7.174 -0.3163  0.2808 -0.1763
  899MOL0     C23945  10.233   8.129   7.267  0.6919  0.5753 -0.3441
  899MOL0     C23946  10.382   8.134   7.310  1.2017 -0.3140 -0.4633
  899MOL0     C23947  10.425   8.275   7.323 -0.3331  0.7153  0.6767
  899MOL0     O23948  10.569   8.296   7.353  1.1048  0.5488 -0.1908
  899MOL0     C23949  10.632   8.413   7.321  0.0508  0.3853 -0.0455
  899MOL0     C23950  10.768   8.414   7.323  0.0841  0.0616 -0.2959
  899MOL0     C23951  10.842   8.517   7.265  0.7433 -0.2283 -0.9056
  899MOL0     C23952  10.992   8.499   7.272 -0.2660  1.0673  0.0367
  899MOL0     C23953  10.784   8.642   7.233 -0.2406  0.1789 -0.5226
  899MOL0     C23954  10.842   8.772   7.194  0.2326 -0.4053 -0.3873
  899MOL0     O23955  10.752   8.884   7.185 -0.2758 -0.1726  0.1568
  899MOL0     C23956  10.808   9.007   7.172  0.2343  0.1367 -0.0431
  899MOL0     C23957  10.802   9.103   7.281  0.0432 -0.6411  0.7706
  899MOL0     C23958  10.861   9.232   7.264 -0.0315 -0.3768  0.0272
  899MOL0     C23959  10.941   9.262   7.149 -0.5337 -0.2625 -0.6779
  899MOL0     O23960  10.993   9.385   7.150  0.4091  0.5489  0.2257
  899MOL0     C23961  11.107   9.405   7.070 -1.1642 -0.5669 -0.3869
  899MOL0     C23962  11.136   9.553   7.064 -0.6624 -0.6172  0.1596
  899MOL0     C23963  11.187   9.594   7.204  0.4931 -0.7339 -1.3065
  899MOL0     C23964  11.239   9.747   7.221 -0.1340 -0.4553 -0.0162
  899MOL0     C23965  11.311   9.793   7.344 -0.1588  0.8090  0.2197
  899MOL0     C23966  11.449   9.714   7.367 -0.5586  0.3001  0.0526
  899MOL0     C23967  11.524   9.768   7.487  0.5548 -0.3111  0.1321
  899MOL0     C23968  11.460   9.721   7.617 -0.1655 -0.3107  0.5988
  899MOL0    Cl23969  11.534   9.788   7.770 -0.5419 -0.1946  0.3683
  899MOL0     C23970  10.958   9.162   7.054 -0.7581 -0.6712 -0.2388
  899MOL0     C23971  10.892   9.043   7.064 -0.0201  1.0132  0.4612
  899MOL0     O23972  10.954   8.774   7.145  0.3337 -0.1795  0.1129
  899MOL0     C23973  10.644   8.638   7.244  0.6955 -0.4373  1.3714
  899MOL0     C23974  10.563   8.529   7.289 -0.2029 -0.8756 -0.6367
  899MOL0     N23975   9.956   8.035   7.207 -0.0647 -0.1145  0.4880
  899MOL0     N23976   9.841   8.018   7.145 -1.0259 -0.2300  0.5441
  899MOL0     C23977   9.303   7.839   6.457 -0.6274  0.0750  0.4513
  899MOL0     C23978   9.176   7.811   6.520  1.8018 -0.9639  0.1201
  899MOL0     C23979   8.724   7.692   6.552 -0.1101  0.0882 -0.6213
  899MOL0     C23980   8.654   7.578   6.551  0.1540  0.7481  0.0036
  899MOL0     C23981   8.550   7.560   6.647  0.0789  0.8515 -0.3427
  899MOL0     C23982   8.490   7.664   6.729  0.3312 -0.0270 -0.0420
  899MOL0     O23983   8.379   7.626   6.810 -0.1932  0.7490  0.0188
  899MOL0     C23984   8.288   7.726   6.853  0.5465  0.1894 -0.3389
  899MOL0     C23985   8.210   7.799   6.749 -0.3505 -0.6307 -0.1810
  899MOL0     C23986   8.060   7.824   6.779 -0.3034  0.2769  0.3960
  899MOL0     C23987   7.978   7.924   6.698 -0.9562  0.5491  0.5918
  899MOL0     C23988   8.046   7.984   6.580  0.8360 -0.7128  0.0504
  899MOL0     C23989   8.112   8.038   6.487  0.1551 -0.1353 -0.8745
  899MOL0     C23990   8.565   7.783   6.716  0.9353 -0.2841 -0.4189
  899MOL0     C23991   8.678   7.796   6.631  1.1200 -0.3901 -0.1361
  899MOL0     C23992   8.755   7.924   6.642  0.2650  0.3997 -0.6536
  899MOL0     H23993   9.055   7.581   6.312 -0.1440  1.3070 -0.0482
  899MOL0     H23994   9.259   7.626   6.191  1.5764  2.2645 -1.7719
  899MOL0     H23995   9.624   7.773   6.160 -0.6978 -0.6117 -1.6370
  899MOL0     H23996   9.493   7.655   6.169 -1.5595  0.1731 -0.1391
  899MOL0     H23997   9.582   7.604   6.399  0.2618  1.2074  2.8633
  899MOL0     H23998   9.719   7.625   6.288  1.4591  1.7798  0.2303
  899MOL0     H23999   9.768   7.830   6.368 -0.7611  0.4162 -1.4363
  899MOL0     H24000   9.608   7.840   6.462 -1.3090 -1.1903 -1.5087
  899MOL0     H24001   9.665   7.667   6.604  2.7559 -1.7540  3.1508
  899MOL0     H24002   9.829   7.659   6.524 -0.2326 -0.5477 -0.8336
  899MOL0     H24003   9.899   7.878   6.577 -2.6404  3.2828 -1.6992
  899MOL0     H24004   9.873   7.780   6.719  2.6694  1.9515 -0.3444
  899MOL0     H24005   9.699   8.010   6.599  0.9850  1.2509  0.0808
  899MOL0     H24006   9.628   7.894   6.709 -0.4821  1.0476  0.9179
  899MOL0     H24007   9.710   8.119   6.778  0.0721  0.6985 -0.0551
  899MOL0     H24008   9.879   8.059   6.771  1.0367 -3.1656  0.5846
  899MOL0     H24009   9.657   8.013   6.955  1.3247  2.5349 -0.1712
  899MOL0     H24010   9.742   7.859   6.910 -1.1185  0.6530 -0.5075
  899MOL0     H24011  10.068   7.948   6.913 -0.3108  2.1328 -2.7178
  899MOL0     H24012  10.266   8.005   7.088 -0.6268  0.8482 -0.4519
  899MOL0     H24013  10.217   7.924   7.240 -2.6661  0.2197  0.4967
  899MOL0     H24014  10.190   8.220   7.224  1.0713  0.7093 -0.4391
  899MOL0     H24015  10.179   8.112   7.361  0.0607  1.7873 -0.4703
  899MOL0     H24016  10.393   8.084   7.407 -0.3514  0.0803 -0.0715
  899MOL0     H24017  10.441   8.077   7.236 -1.0007 -3.6806  0.1259
  899MOL0     H24018  10.387   8.328   7.235 -1.5411  3.5323  2.7393
  899MOL0     H24019  10.367   8.318   7.405  0.9975  0.1579  1.9328
  899MOL0     H24020  10.804   8.313   7.341  1.3395  0.7096  1.0160
  899MOL0     H24021  11.003   8.392   7.292  0.8278  1.0221 -0.7727
  899MOL0     H24022  11.046   8.557   7.347  2.0482  0.7799 -1.3183
  899MOL0     H24023  11.045   8.515   7.179 -0.2643  1.4406  0.1008
  899MOL0     H24024  10.727   9.083   7.357  1.5972 -2.0813  1.9807
  899MOL0     H24025  10.830   9.303   7.339  2.0850  1.6272 -0.8746
  899MOL0     H24026  11.191   9.349   7.111 -0.7134  0.8122  0.6401
  899MOL0     H24027  11.089   9.369   6.968  1.5483 -1.1972 -0.7065
  899MOL0     H24028  11.220   9.560   6.993 -0.0331 -0.0131  0.9451
  899MOL0     H24029  11.047   9.601   7.024  1.2380  0.1146 -3.7604
  899MOL0     H24030  11.272   9.528   7.222  2.3347  1.9602  0.6448
  899MOL0     H24031  11.113   9.581   7.284 -0.5454  0.9609 -1.9413
  899MOL0     H24032  11.161   9.823   7.211  1.3849  0.9374 -2.0768
  899MOL0     H24033  11.300   9.779   7.136  0.5253  3.0368  1.6099
  899MOL0     H24034  11.336   9.899   7.340  0.9161  0.5230 -1.4449
  899MOL0     H24035  11.246   9.763   7.427  1.0697 -2.7837  0.0761
  899MOL0     H24036  11.511   9.719   7.277  2.1923  1.2783  1.8546
  899MOL0     H24037  11.425   9.608   7.380 -2.8316  0.7935  0.1919
  899MOL0     H24038  11.530   9.878   7.483  1.1978 -0.3601 -0.4887
  899MOL0     H24039  11.631   9.747   7.484  1.7160  4.1298  1.9253
  899MOL0     H24040  11.453   9.613   7.628  3.0438 -0.8798 -1.6320
  899MOL0     H24041  11.355   9.753   7.623  0.1222  0.4637  1.9992
  899MOL0     H24042  11.016   9.171   6.963 -0.6703  0.2693 -0.0994
  899MOL0     H24043  10.935   8.966   7.000  3.5255  2.0233  1.4445
  899MOL0     H24044  10.595   8.732   7.218  1.9028 -0.6747 -2.2418
  899MOL0     H24045  10.456   8.545   7.299 -0.5601  0.9835 -5.1680
  899MOL0     H24046   9.365   7.919   6.497  3.8160  0.2168 -5.3704
  899MOL0     H24047   9.150   7.863   6.612  2.2604 -3.0255  1.5105
  899MOL0     H24048   8.685   7.497   6.487 -1.1890 -1.0297  1.5166
  899MOL0     H24049   8.514   7.459   6.661  4.4933 -1.2018 -1.9333
  899MOL0     H24050   8.218   7.679   6.922 -1.5257  0.7319 -1.9426
  899MOL0     H24051   8.341   7.801   6.912 -0.1456  1.1338 -0.8802
  899MOL0     H24052   8.225   7.735   6.662  0.9710 -0.8942  0.2157
  899MOL0     H24053   8.262   7.895   6.737  2.3569 -1.8265  1.1480
  899MOL0     H24054   7.993   7.738   6.772 -1.7027  1.2969  0.7809
  899MOL0     H24055   8.047   7.854   6.883 -1.0704 -0.2700  0.4644
  899MOL0     H24056   7.981   8.005   6.772  1.2727  1.2082 -0.1326
  899MOL0     H24057   7.872   7.901   6.682 -1.5140  0.8302  3.3106
  899MOL0     H24058   8.162   8.085   6.405  0.3218  0.0016 -0.6970
  899MOL0     H24059   8.531   7.864   6.780  1.5759  0.3993 -0.9159
  899MOL0     H24060   8.822   7.926   6.729  0.8259 -3.6859 -0.7969
  899MOL0     H24061   8.821   7.932   6.555 -1.3473  1.1695 -1.8434
  899MOL0     H24062   8.685   8.008   6.639 -0.2376 -0.0373 -1.8464
  900MOL0     O24063   5.502   5.278   1.315 -0.0045 -0.4105  0.2330
  900MOL0     C24064   5.384   5.233   1.345  0.0162 -0.0243 -0.8335
  900MOL0     O24065   5.346   5.108   1.322  0.1155 -0.3008  0.2442
  900MOL0     C24066   5.422   5.019   1.260 -0.3525 -0.4068 -0.8636
  900MOL0     C24067   5.515   4.936   1.320 -0.3919  0.1609  0.4876
  900MOL0     C24068   5.583   4.837   1.250  0.7963 -0.7482 -0.9521
  900MOL0     C24069   5.574   4.825   1.114 -0.5457 -0.4632  0.0147
  900MOL0     O24070   5.657   4.739   1.046 -0.0327 -0.0921 -0.6017
  900MOL0     C24071   5.653   4.717   0.907 -0.5346  0.5462  0.1115
  900MOL0     C24072   5.725   4.588   0.861 -0.1690  0.2677  0.0442
  900MOL0     C24073   5.682   4.537   0.730  0.1623  0.2819 -0.6555
  900MOL0     C24074   5.738   4.639   0.618  0.0749 -0.1786 -1.0590
  900MOL0     C24075   5.772   4.577   0.485 -0.5666  0.2882 -0.9333
  900MOL0     C24076   5.857   4.674   0.397 -0.4072 -0.5274  0.0378
  900MOL0     C24077   5.916   4.590   0.276  0.1564 -0.0471 -0.4599
  900MOL0     C24078   5.979   4.461   0.304 -0.0856 -0.5067 -0.6789
  900MOL0     N24079   6.055   4.406   0.188  0.3314 -0.2951 -0.3055
  900MOL0     C24080   6.010   4.364   0.064 -0.1748  0.0521 -0.1533
  900MOL0     C24081   6.122   4.343  -0.015 -0.4921 -0.0659 -0.4074
  900MOL0     C24082   6.121   4.304  -0.159  0.0368 -1.0093 -0.2495
  900MOL0     C24083   6.084   4.440  -0.234 -0.2285  0.3271 -0.0186
  900MOL0     C24084   6.095   4.422  -0.382  0.0491  1.0401  0.2485
  900MOL0     C24085   6.003   4.324  -0.453 -0.4592  0.3681 -0.2954
  900MOL0     O24086   5.973   4.390  -0.578 -0.3362 -0.0699 -0.4021
  900MOL0     C24087   6.049   4.345  -0.695  0.0154  0.9931 -0.2734
  900MOL0     C24088   6.166   4.278  -0.693 -0.2913  0.2227 -0.7611
  900MOL0     C24089   6.231   4.242  -0.812  0.6976  0.0664 -0.4262
  900MOL0     C24090   6.383   4.210  -0.806  0.8858  0.0934  0.4763
  900MOL0     C24091   6.158   4.239  -0.932 -0.0051 -0.4135 -0.0057
  900MOL0     C24092   6.187   4.167  -1.059 -1.1511 -1.1697 -0.9036
  900MOL0     O24093   6.278   4.062  -1.038  0.8128  0.3178  0.0748
  900MOL0     C24094   6.297   3.989  -1.152  0.7738 -0.2212 -0.2811
  900MOL0     C24095   6.196   3.912  -1.198  0.0558  1.0138  0.1686
  900MOL0     C24096   6.215   3.840  -1.318  0.2384 -1.3455 -0.5264
  900MOL0     C24097   6.348   3.835  -1.382  0.4654 -0.2233  0.6961
  900MOL0     O24098   6.372   3.763  -1.492  0.1946  0.4201 -0.4401
  900MOL0     C24099   6.281   3.773  -1.605 -0.2756 -0.8890  0.9477
  900MOL0     C24100   6.361   3.772  -1.737 -0.0032  0.3042  0.3981
  900MOL0     C24101   6.437   3.904  -1.778 -0.6811  0.3222 -0.0919
  900MOL0     C24102   6.561   3.921  -1.690  0.5038 -0.1368  0.6578
  900MOL0     C24103   6.663   4.011  -1.752  0.3205 -0.0085 -0.0763
  900MOL0     C24104   6.776   4.035  -1.660  0.6718  0.4499 -0.0908
  900MOL0     C24105   6.885   4.106  -1.736 -0.7489 -0.5197  0.1446
  900MOL0     C24106   6.861   4.257  -1.757  0.0536 -0.8483  0.0544
  900MOL0    Cl24107   6.860   4.362  -1.609  0.2292  0.2108  0.1578
  900MOL0     C24108   6.451   3.890  -1.310 -0.1355 -0.2684  0.0957
  900MOL0     C24109   6.421   3.979  -1.206  0.1167  0.9833  0.0781
  900MOL0     O24110   6.132   4.204  -1.158 -0.3097 -0.2310  0.2713
  900MOL0     C24111   6.038   4.302  -0.929 -0.2155 -0.1786 -0.0329
  900MOL0     C24112   5.984   4.358  -0.817  0.1557 -0.3643  1.0786
  900MOL0     N24113   6.230   4.368   0.072  0.2074  0.1447  0.0167
  900MOL0     N24114   6.185   4.399   0.192 -0.6030  0.4344  0.2471
  900MOL0     C24115   5.483   4.908   1.045  0.1489 -0.7608 -1.7245
  900MOL0     C24116   5.406   5.008   1.115 -0.4270  1.3898 -0.1503
  900MOL0     C24117   5.290   5.316   1.430  0.2393 -0.1722 -0.8453
  900MOL0     C24118   5.162   5.257   1.461  1.1755  0.2692  0.7877
  900MOL0     C24119   5.070   5.323   1.548  0.2880 -0.1959 -0.5057
  900MOL0     C24120   5.086   5.461   1.575  0.0445  0.5087 -0.0791
  900MOL0     O24121   5.006   5.535   1.656 -0.3296  0.1453 -0.3612
  900MOL0     C24122   4.886   5.480   1.718  0.0056  0.0542  0.5967
  900MOL0     C24123   4.829   5.598   1.796  0.1169  0.0073 -0.0155
  900MOL0     C24124   4.922   5.642   1.921  0.7857 -0.4343  0.6343
  900MOL0     C24125   4.843   5.653   2.050 -0.0742 -1.4899  0.1984
  900MOL0     C24126   4.793   5.519   2.089 -1.0325  0.1510  0.3937
  900MOL0     C24127   4.751   5.408   2.099 -0.1760  0.5243  1.5301
  900MOL0     C24128   5.203   5.519   1.528  0.5562  1.1642  0.9039
  900MOL0     C24129   5.306   5.451   1.460 -0.4180  0.2880  0.7979
  900MOL0     C24130   5.432   5.533   1.434 -0.3562 -0.1701 -0.3677
  900MOL0     H24131   5.540   4.954   1.424 -0.1078  5.3061 -0.2156
  900MOL0     H24132   5.663   4.776   1.291  0.8869  0.2311  0.3897
  900MOL0     H24133   5.705   4.796   0.853 -0.4492 -0.1385 -0.8307
  900MOL0     H24134   5.555   4.714   0.858  0.5107  2.3438 -2.2388
  900MOL0     H24135   5.834   4.588   0.875 -0.2685 -1.2495  1.0381
  900MOL0     H24136   5.689   4.514   0.933  1.7361 -0.2665  0.5278
  900MOL0     H24137   5.709   4.431   0.721 -2.3907 -0.5010 -0.1732
  900MOL0     H24138   5.572   4.542   0.732  0.1592  0.2371 -0.7020
  900MOL0     H24139   5.655   4.708   0.600 -1.3226 -2.2791 -3.3466
  900MOL0     H24140   5.820   4.697   0.660 -1.5423  0.2552  1.8404
  900MOL0     H24141   5.679   4.537   0.442 -0.5230  0.2002 -0.9446
  900MOL0     H24142   5.838   4.496   0.517 -2.5433 -0.4995  1.4794
  900MOL0     H24143   5.800   4.762   0.366  1.0066  0.7596  0.9625
  900MOL0     H24144   5.939   4.725   0.448 -0.3509 -0.2336 -0.3427
  900MOL0     H24145   5.998   4.646   0.228  1.5861 -0.5067  1.3179
  900MOL0     H24146   5.834   4.572   0.206  0.8131 -1.3611 -0.9152
  900MOL0     H24147   6.047   4.464   0.389 -0.5947  0.6673 -0.2912
  900MOL0     H24148   5.902   4.391   0.339 -0.8503  1.4527  1.9030
  900MOL0     H24149   5.905   4.358   0.037 -0.3816 -3.0674  0.9407
  900MOL0     H24150   6.038   4.236  -0.179 -1.6550  0.9339 -0.0319
  900MOL0     H24151   6.213   4.258  -0.199  0.3273  1.4493 -2.7083
  900MOL0     H24152   5.983   4.469  -0.205 -0.2900  1.1739 -1.0204
  900MOL0     H24153   6.166   4.507  -0.207  0.9099 -0.8213 -0.5114
  900MOL0     H24154   6.071   4.523  -0.419  0.9473  2.1581  2.5162
  900MOL0     H24155   6.191   4.378  -0.409 -1.2978 -1.0868 -1.4250
  900MOL0     H24156   6.053   4.226  -0.455 -0.7846 -0.1855  4.8836
  900MOL0     H24157   5.904   4.315  -0.407  0.3368  1.2401  1.7333
  900MOL0     H24158   6.222   4.265  -0.601  0.3584  0.3875 -1.1215
  900MOL0     H24159   6.424   4.214  -0.705 -2.8067  3.1085  2.1452
  900MOL0     H24160   6.434   4.281  -0.872 -2.1706  0.7412 -1.3987
  900MOL0     H24161   6.393   4.105  -0.834 -0.8731 -0.3497  1.3072
  900MOL0     H24162   6.092   3.912  -1.167 -1.1473 -2.5085 -3.0340
  900MOL0     H24163   6.128   3.796  -1.365 -1.1573  0.8132 -0.0987
  900MOL0     H24164   6.212   3.688  -1.601  0.3029 -1.3655  0.9479
  900MOL0     H24165   6.227   3.868  -1.603 -0.1846 -0.6697 -2.1867
  900MOL0     H24166   6.425   3.684  -1.730  0.1192  0.3677  0.0864
  900MOL0     H24167   6.289   3.746  -1.816 -3.2068  1.6227  2.6649
  900MOL0     H24168   6.367   3.987  -1.769 -1.3578 -0.3419  1.0006
  900MOL0     H24169   6.477   3.882  -1.878 -0.3779 -0.6504  0.2254
  900MOL0     H24170   6.606   3.828  -1.653  1.2010 -1.1629 -2.5056
  900MOL0     H24171   6.521   3.971  -1.601  0.9783 -0.5821  1.1396
  900MOL0     H24172   6.705   3.948  -1.832  2.6724 -3.4144  3.4748
  900MOL0     H24173   6.617   4.107  -1.775  0.2059  0.3401  1.5120
  900MOL0     H24174   6.797   3.935  -1.621  0.5702  0.5644  0.2663
  900MOL0     H24175   6.737   4.098  -1.580  1.9008  2.5653 -1.0797
  900MOL0     H24176   6.910   4.042  -1.822 -0.0968  1.2242 -1.0368
  900MOL0     H24177   6.971   4.102  -1.668 -0.0721  3.2692 -0.2886
  900MOL0     H24178   6.764   4.275  -1.804  0.7284  1.8233 -0.4981
  900MOL0     H24179   6.927   4.301  -1.832  0.8374 -1.1426  0.5558
  900MOL0     H24180   6.555   3.879  -1.337 -0.3671 -0.8613 -0.5781
  900MOL0     H24181   6.497   4.030  -1.149  2.1275 -0.4914 -1.1801
  900MOL0     H24182   5.973   4.317  -1.015  0.4136  3.0024 -0.0798
  900MOL0     H24183   5.885   4.401  -0.833 -0.4222 -1.9072  0.2611
  900MOL0     H24184   5.466   4.901   0.938 -0.4821  0.2888 -1.7108
  900MOL0     H24185   5.325   5.061   1.066 -1.6976 -0.4132 -0.1324
  900MOL0     H24186   5.133   5.160   1.420  1.0820  0.7994 -0.4377
  900MOL0     H24187   4.980   5.275   1.585 -1.1553  1.7820 -1.2497
  900MOL0     H24188   4.818   5.431   1.648  1.9076 -3.7329  1.1412
  900MOL0     H24189   4.909   5.399   1.788  0.4744 -0.2724  0.0687
  900MOL0     H24190   4.733   5.569   1.840  1.1936  0.7210  3.1017
  900MOL0     H24191   4.809   5.684   1.732 -3.0296  0.2900  1.1957
  900MOL0     H24192   4.999   5.567   1.942  0.5077 -1.7391 -2.4919
  900MOL0     H24193   4.968   5.738   1.895 -0.6706 -0.1017 -0.9200
  900MOL0     H24194   4.764   5.728   2.045  0.2410 -1.0439  1.4829
  900MOL0     H24195   4.923   5.682   2.118 -2.4241 -0.2417  2.6327
  900MOL0     H24196   4.696   5.319   2.120  1.1145 -0.8093 -0.4177
  900MOL0     H24197   5.213   5.620   1.566  0.9107  2.6668 -2.7943
  900MOL0     H24198   5.508   5.483   1.496  1.2313 -1.2110 -2.9826
  900MOL0     H24199   5.460   5.529   1.328 -3.8869  0.9922 -1.4646
  900MOL0     H24200   5.435   5.635   1.472 -0.1308 -0.1323 -0.4808
  901MOL0     O24201   4.100   6.091   4.001 -0.2704 -0.4711  0.1556
  901MOL0     C24202   4.128   5.966   3.995 -0.7286 -0.0380  0.7950
  901MOL0     O24203   4.055   5.871   4.067 -0.1450  0.4560 -1.1116
  901MOL0     C24204   3.969   5.929   4.164  0.6875  0.4785  0.7832
  901MOL0     C24205   3.838   5.969   4.123 -0.0111 -0.4541  0.1001
  901MOL0     C24206   3.752   6.024   4.217 -0.9912  0.3375  0.5648
  901MOL0     C24207   3.798   6.073   4.338 -0.7456 -0.4316  0.1683
  901MOL0     O24208   3.710   6.133   4.429 -0.0335 -0.0506 -0.1116
  901MOL0     C24209   3.640   6.252   4.388  0.5743  0.6753  1.1244
  901MOL0     C24210   3.706   6.367   4.467 -0.2315 -0.0767 -0.8253
  901MOL0     C24211   3.738   6.328   4.608 -0.1675 -0.2682 -0.1393
  901MOL0     C24212   3.754   6.453   4.703  0.7539 -0.8183 -0.3436
  901MOL0     C24213   3.846   6.421   4.821  0.1012  1.1883  0.0751
  901MOL0     C24214   3.843   6.528   4.935  0.8471 -0.0265 -0.0576
  901MOL0     C24215   3.708   6.557   5.001  0.5984 -0.6968  0.3791
  901MOL0     C24216   3.728   6.637   5.127 -0.3843 -1.0696 -0.4630
  901MOL0     N24217   3.603   6.692   5.173 -0.0387 -0.2792  0.0237
  901MOL0     C24218   3.524   6.641   5.277 -0.8044 -0.0912  0.0591
  901MOL0     C24219   3.410   6.706   5.264 -0.4379  1.0053  0.0348
  901MOL0     C24220   3.276   6.692   5.338 -1.4574  0.5881 -0.0208
  901MOL0     C24221   3.291   6.658   5.489  0.1096 -1.3431  0.3402
  901MOL0     C24222   3.369   6.529   5.537 -0.0453 -1.2245 -0.5667
  901MOL0     C24223   3.337   6.511   5.680 -0.2541 -0.2806 -0.2240
  901MOL0     O24224   3.407   6.386   5.719  0.5573  0.5203 -0.1111
  901MOL0     C24225   3.426   6.357   5.849 -0.3038 -0.0053  0.1624
  901MOL0     C24226   3.486   6.232   5.872  0.0534 -0.1483  0.6392
  901MOL0     C24227   3.521   6.184   6.005  0.2674 -0.1209  0.2754
  901MOL0     C24228   3.591   6.042   6.020 -0.6158 -0.2484  0.2585
  901MOL0     C24229   3.481   6.270   6.112 -0.4365  0.2166 -0.0468
  901MOL0     C24230   3.519   6.230   6.252 -0.6165 -1.2272  0.5441
  901MOL0     O24231   3.415   6.239   6.336  0.0563 -0.1398 -0.2578
  901MOL0     C24232   3.427   6.253   6.471 -0.1551  0.3492 -0.1971
  901MOL0     C24233   3.348   6.168   6.558 -0.5200  0.7467  0.3548
  901MOL0     C24234   3.362   6.179   6.695 -0.0709 -0.8803  0.1623
  901MOL0     C24235   3.455   6.267   6.743 -0.2676 -0.2507  0.7109
  901MOL0     O24236   3.484   6.267   6.872 -0.0609  0.0623  0.0075
  901MOL0     C24237   3.589   6.172   6.904 -0.2323  1.1872  0.1978
  901MOL0     C24238   3.573   6.115   7.042 -0.4694 -0.7040  0.6990
  901MOL0     C24239   3.645   5.986   7.061 -0.0200  0.8901  0.1795
  901MOL0     C24240   3.800   6.009   7.056  0.6393 -0.0933  0.2252
  901MOL0     C24241   3.892   5.892   7.097  0.4543 -0.2809  0.4018
  901MOL0     C24242   4.045   5.910   7.083  0.2055  1.3099  0.8750
  901MOL0     C24243   4.104   6.041   7.134 -0.7957  0.7261  0.0830
  901MOL0     C24244   4.095   6.028   7.286 -0.5706 -0.5190  0.3093
  901MOL0    Cl24245   4.179   6.181   7.362  0.0994  0.6007  0.0375
  901MOL0     C24246   3.530   6.350   6.661 -0.1040 -0.3103  0.5555
  901MOL0     C24247   3.511   6.344   6.525  1.0216 -0.2682 -0.5319
  901MOL0     O24248   3.637   6.202   6.282  1.4062  0.1948 -0.8484
  901MOL0     C24249   3.424   6.403   6.090  0.0019  0.2444  0.0702
  901MOL0     C24250   3.397   6.437   5.957 -0.7076  0.3816  0.5241
  901MOL0     N24251   3.413   6.791   5.158 -0.1751  0.1797  0.4066
  901MOL0     N24252   3.535   6.781   5.105  0.0083 -0.7550 -0.2137
  901MOL0     C24253   3.934   6.038   4.377 -0.4445  0.3404 -0.5560
  901MOL0     C24254   4.011   5.964   4.291 -0.8568  0.3059  0.3965
  901MOL0     C24255   4.232   5.911   3.910 -0.7339  0.7771  0.3903
  901MOL0     C24256   4.231   5.775   3.875  0.1676 -0.4424  0.4697
  901MOL0     C24257   4.323   5.722   3.793  0.0149 -0.4154  0.4812
  901MOL0     C24258   4.439   5.795   3.759  0.7309  0.7070 -0.6347
  901MOL0     O24259   4.544   5.750   3.685 -0.2362 -0.0720 -0.7367
  901MOL0     C24260   4.525   5.620   3.622  0.0579 -0.6392  0.8732
  901MOL0     C24261   4.436   5.630   3.498 -0.0447  0.0689  0.0194
  901MOL0     C24262   4.523   5.643   3.369  0.0493 -0.1361 -0.7069
  901MOL0     C24263   4.453   5.595   3.247  0.2334  0.3854  0.9350
  901MOL0     C24264   4.518   5.630   3.119 -0.1902  0.9652 -0.5522
  901MOL0     C24265   4.573   5.638   3.010 -0.1258 -0.4044  0.7317
  901MOL0     C24266   4.439   5.932   3.791 -0.6274 -0.9419 -0.0053
  901MOL0     C24267   4.338   5.999   3.870 -0.8156 -0.0704  0.3381
  901MOL0     C24268   4.365   6.146   3.902  0.3663  1.0502  0.7720
  901MOL0     H24269   3.807   5.961   4.020 -2.3186  1.6500  0.5476
  901MOL0     H24270   3.649   6.039   4.184 -0.4265 -0.9149 -2.0517
  901MOL0     H24271   3.531   6.248   4.402 -0.1875 -0.1314 -3.3647
  901MOL0     H24272   3.645   6.267   4.280 -1.6392 -3.2277  0.2750
  901MOL0     H24273   3.803   6.388   4.422  1.8187 -0.1278  3.0916
  901MOL0     H24274   3.644   6.457   4.463 -0.9400 -0.3550  1.8981
  901MOL0     H24275   3.671   6.252   4.648 -2.1781  1.4980  0.0254
  901MOL0     H24276   3.835   6.279   4.595  0.1836  0.8597 -2.2682
  901MOL0     H24277   3.801   6.536   4.650 -1.3556  0.7906  0.1405
  901MOL0     H24278   3.665   6.509   4.735  2.4620  2.7574 -1.3182
  901MOL0     H24279   3.947   6.406   4.780 -0.1578 -0.5842  0.0133
  901MOL0     H24280   3.820   6.321   4.858 -2.2900  1.1967 -1.3815
  901MOL0     H24281   3.912   6.487   5.009  1.3932  2.0167  0.6312
  901MOL0     H24282   3.895   6.621   4.910  4.4840 -2.3898 -2.2006
  901MOL0     H24283   3.655   6.467   5.034  1.3604 -1.2709  0.0567
  901MOL0     H24284   3.650   6.611   4.925  0.5611 -1.0927  0.1269
  901MOL0     H24285   3.766   6.560   5.194  0.1737 -5.0839 -4.8938
  901MOL0     H24286   3.799   6.715   5.099  1.1563 -1.7830  1.2280
  901MOL0     H24287   3.550   6.560   5.343  0.7547  0.1736 -0.1987
  901MOL0     H24288   3.233   6.610   5.280 -3.0040  0.6353  0.9944
  901MOL0     H24289   3.222   6.784   5.316 -0.0758  1.0084 -1.9530
  901MOL0     H24290   3.358   6.743   5.505 -2.7521  1.5049 -1.6495
  901MOL0     H24291   3.194   6.669   5.538  1.4579  1.1083  2.6897
  901MOL0     H24292   3.327   6.451   5.474 -1.2540  0.1623 -1.5516
  901MOL0     H24293   3.478   6.529   5.524 -0.2440 -0.2606 -2.8512
  901MOL0     H24294   3.364   6.604   5.732 -1.8383 -0.6124  1.2433
  901MOL0     H24295   3.231   6.496   5.697 -0.0927  1.4314  3.1852
  901MOL0     H24296   3.503   6.158   5.795  3.1950  2.3175 -1.2781
  901MOL0     H24297   3.583   6.007   6.123 -0.9847 -3.6443 -0.7843
  901MOL0     H24298   3.696   6.048   5.990 -0.8704  0.8577 -0.4446
  901MOL0     H24299   3.541   5.961   5.966 -1.4538  0.9420 -0.7950
  901MOL0     H24300   3.297   6.083   6.514  1.5090  0.1661 -1.0247
  901MOL0     H24301   3.310   6.118   6.769 -0.3525 -1.1260 -0.2304
  901MOL0     H24302   3.579   6.085   6.838 -3.8310 -0.3860  2.5483
  901MOL0     H24303   3.681   6.226   6.879 -0.5331  1.4765 -0.3061
  901MOL0     H24304   3.603   6.186   7.120  2.6611 -1.1275  0.0168
  901MOL0     H24305   3.468   6.089   7.062 -0.4122 -2.1578 -0.6579
  901MOL0     H24306   3.615   5.918   6.981 -2.2330  0.2441  1.4692
  901MOL0     H24307   3.618   5.946   7.159 -0.2569 -1.9215 -0.9428
  901MOL0     H24308   3.828   6.100   7.110 -1.1702 -0.4973  1.9236
  901MOL0     H24309   3.834   6.036   6.955 -1.3125  2.7371  0.2114
  901MOL0     H24310   3.869   5.861   7.199 -1.2365 -1.3871 -0.2755
  901MOL0     H24311   3.863   5.812   7.028  2.6855  0.9582 -2.1485
  901MOL0     H24312   4.071   5.892   6.978 -0.0227  2.1739  0.6637
  901MOL0     H24313   4.096   5.832   7.140  2.9263  1.5650 -0.9911
  901MOL0     H24314   4.042   6.128   7.110 -1.1338  0.8473  1.2900
  901MOL0     H24315   4.211   6.046   7.112 -0.2002  2.5728  2.8697
  901MOL0     H24316   4.139   5.935   7.323  1.0251 -0.1103 -0.4714
  901MOL0     H24317   3.991   6.014   7.316  0.1551 -2.4451  2.3121
  901MOL0     H24318   3.598   6.427   6.696 -0.9274  0.0294  1.4461
  901MOL0     H24319   3.590   6.393   6.469  1.6293  0.3566  0.8362
  901MOL0     H24320   3.414   6.472   6.173 -1.3251 -0.9994  0.9961
  901MOL0     H24321   3.358   6.536   5.935  0.1628  0.7015  0.3835
  901MOL0     H24322   3.965   6.081   4.472 -0.2010 -1.4861  0.2304
  901MOL0     H24323   4.112   5.932   4.316 -1.1665 -0.9531  0.1072
  901MOL0     H24324   4.161   5.708   3.923  1.3865 -1.8098  0.4097
  901MOL0     H24325   4.305   5.616   3.778 -1.2874 -0.0922 -0.5006
  901MOL0     H24326   4.623   5.585   3.590 -0.5827 -1.0261 -0.7671
  901MOL0     H24327   4.478   5.554   3.696 -1.1176 -1.0178 -0.1691
  901MOL0     H24328   4.373   5.720   3.497  0.3322  0.3599  1.1486
  901MOL0     H24329   4.373   5.540   3.497 -0.2174  0.1898 -0.8387
  901MOL0     H24330   4.568   5.742   3.360  2.6722 -1.1210  0.4143
  901MOL0     H24331   4.612   5.581   3.382  0.0100  0.2135  1.7791
  901MOL0     H24332   4.363   5.657   3.235  0.6958  0.5408 -3.4891
  901MOL0     H24333   4.413   5.493   3.247  0.3629  0.1865 -2.8395
  901MOL0     H24334   4.621   5.645   2.914  1.7053 -1.9993  1.4760
  901MOL0     H24335   4.520   6.001   3.769 -1.5341  0.7405  1.6727
  901MOL0     H24336   4.472   6.160   3.886  0.2338 -0.2130 -1.6688
  901MOL0     H24337   4.301   6.197   3.829 -0.7175 -0.7190  0.4290
  901MOL0     H24338   4.338   6.170   4.006 -1.0908  0.1116  0.6437
  902MOL0     O24339   5.107   3.376   5.583 -0.0387 -0.1188 -0.3422
  902MOL0     C24340   5.205   3.439   5.622  0.7238 -1.1072 -0.2203
  902MOL0     O24341   5.306   3.479   5.536 -0.1117  1.0866 -0.2788
  902MOL0     C24342   5.291   3.471   5.401 -0.0543  0.4237  0.2880
  902MOL0     C24343   5.205   3.566   5.334 -0.2941 -0.1451 -0.1771
  902MOL0     C24344   5.201   3.572   5.192  0.0383  1.3874 -0.5987
  902MOL0     C24345   5.281   3.484   5.114  0.0214 -1.0697 -0.0317
  902MOL0     O24346   5.288   3.508   4.977 -0.5183  0.3970  0.4647
  902MOL0     C24347   5.317   3.411   4.878  0.2600 -0.4107 -1.2334
  902MOL0     C24348   5.212   3.307   4.867 -1.3840 -0.5214  0.4592
  902MOL0     C24349   5.102   3.361   4.779 -0.5962  0.0904 -0.0197
  902MOL0     C24350   5.009   3.241   4.752 -0.3614  0.1221 -0.6880
  902MOL0     C24351   4.864   3.266   4.722  1.1517 -0.6204 -1.0710
  902MOL0     C24352   4.853   3.368   4.610 -0.6411  0.6736  0.0700
  902MOL0     C24353   4.710   3.396   4.578 -0.6688 -0.0206 -0.1141
  902MOL0     C24354   4.688   3.487   4.451  0.4397  0.6332  0.7650
  902MOL0     N24355   4.761   3.619   4.457 -0.5791 -0.3143  0.1369
  902MOL0     C24356   4.885   3.634   4.394  0.4741  0.5837  0.2189
  902MOL0     C24357   4.905   3.767   4.409 -0.1277 -1.0494  0.3658
  902MOL0     C24358   5.015   3.860   4.351  0.2605  0.3884  0.0919
  902MOL0     C24359   5.090   3.952   4.446 -0.0954  0.0012 -0.1865
  902MOL0     C24360   5.182   3.881   4.545 -0.2714  0.1314 -0.7162
  902MOL0     C24361   5.141   3.919   4.687 -0.6119 -0.4913 -0.7427
  902MOL0     O24362   5.247   3.871   4.774  0.1390 -0.7321  0.6053
  902MOL0     C24363   5.237   3.907   4.904 -0.8615 -0.1252  0.0275
  902MOL0     C24364   5.338   3.863   4.980 -0.3616 -0.0879 -0.4694
  902MOL0     C24365   5.342   3.881   5.116  0.9460 -0.8883  0.4143
  902MOL0     C24366   5.445   3.821   5.200  0.2671 -0.0416  0.0659
  902MOL0     C24367   5.241   3.955   5.181 -0.6287  0.0708  0.9628
  902MOL0     C24368   5.217   3.984   5.334  0.5336 -0.4122  0.0378
  902MOL0     O24369   5.087   3.999   5.379  0.1443  0.2456  0.2677
  902MOL0     C24370   5.069   4.064   5.504 -0.4166  0.0448 -0.9823
  902MOL0     C24371   4.968   4.018   5.594  0.4074  0.2446  0.6388
  902MOL0     C24372   4.950   4.074   5.722 -0.1722  0.0614  0.1843
  902MOL0     C24373   5.034   4.175   5.769 -0.3831  0.3658  0.1971
  902MOL0     O24374   5.011   4.233   5.889 -0.0154  0.5773 -0.3808
  902MOL0     C24375   5.020   4.137   6.001  0.0213  0.5800 -0.0941
  902MOL0     C24376   5.006   4.197   6.138 -0.3700  0.2261  0.1847
  902MOL0     C24377   4.893   4.305   6.161  0.8995 -0.1331 -0.2665
  902MOL0     C24378   4.888   4.352   6.305  0.0193  0.0825 -0.2893
  902MOL0     C24379   4.753   4.412   6.334  0.6013  0.1804  0.7465
  902MOL0     C24380   4.729   4.450   6.481  0.8270  0.8958  0.0580
  902MOL0     C24381   4.833   4.534   6.546  0.1110 -0.4840 -0.2341
  902MOL0     C24382   4.800   4.682   6.531 -0.7360 -0.1305 -0.1772
  902MOL0    Cl24383   4.644   4.715   6.608  0.0644  0.2046  0.1961
  902MOL0     C24384   5.132   4.228   5.674  1.0569 -0.5398  0.4273
  902MOL0     C24385   5.145   4.179   5.546  1.0774  0.6611  0.3980
  902MOL0     O24386   5.318   3.976   5.405  0.6282 -0.5263 -0.7353
  902MOL0     C24387   5.129   3.993   5.098 -0.0912 -0.6314 -0.4245
  902MOL0     C24388   5.124   3.970   4.964  0.4935  0.0547 -0.2288
  902MOL0     N24389   4.804   3.824   4.488  0.3465 -0.2926  0.8153
  902MOL0     N24390   4.713   3.742   4.505  0.2175  0.1075  0.0011
  902MOL0     C24391   5.360   3.385   5.177 -0.1523 -0.2548  0.4593
  902MOL0     C24392   5.370   3.385   5.320 -0.2298 -1.0153  0.3202
  902MOL0     C24393   5.198   3.514   5.746 -0.1954 -0.1109 -0.5887
  902MOL0     C24394   5.286   3.616   5.759 -0.3087 -0.4170 -0.5996
  902MOL0     C24395   5.263   3.706   5.859 -0.4749  0.1392 -0.0124
  902MOL0     C24396   5.197   3.673   5.975  0.0330 -0.2018 -0.3813
  902MOL0     O24397   5.222   3.760   6.081  0.7531 -0.1904  0.3400
  902MOL0     C24398   5.149   3.734   6.206  0.0485 -0.0208  0.1291
  902MOL0     C24399   5.006   3.786   6.178  0.5659 -0.0058  1.0418
  902MOL0     C24400   4.945   3.840   6.311 -0.2751 -0.3968  0.7466
  902MOL0     C24401   4.809   3.885   6.306  1.3285 -0.1657 -0.9066
  902MOL0     C24402   4.774   3.972   6.416 -0.1784 -1.0990  0.1763
  902MOL0     C24403   4.732   4.057   6.502 -0.4629 -0.3159 -0.2330
  902MOL0     C24404   5.117   3.557   5.979  0.6327  0.9898  0.4609
  902MOL0     C24405   5.111   3.481   5.852 -0.2739  0.4386 -1.0920
  902MOL0     C24406   5.013   3.363   5.848 -0.0132 -1.1273 -0.4161
  902MOL0     H24407   5.136   3.633   5.385 -0.1775  0.4730 -0.8074
  902MOL0     H24408   5.137   3.641   5.137 -3.3733 -1.9974 -1.3079
  902MOL0     H24409   5.412   3.362   4.904 -0.7671 -2.2009 -0.6890
  902MOL0     H24410   5.342   3.469   4.789 -0.1781 -0.4098 -1.3549
  902MOL0     H24411   5.261   3.231   4.807  1.9073  2.3892 -0.8834
  902MOL0     H24412   5.189   3.268   4.966  0.0806 -0.0901  0.9869
  902MOL0     H24413   5.058   3.444   4.835 -0.5301 -1.8154  3.1299
  902MOL0     H24414   5.139   3.394   4.682  0.1677 -3.5898 -1.1417
  902MOL0     H24415   5.046   3.187   4.665 -0.8388  1.8745 -2.0206
  902MOL0     H24416   5.016   3.181   4.844  3.2847  0.1834 -0.7767
  902MOL0     H24417   4.812   3.298   4.813 -4.2288 -4.6066 -2.2346
  902MOL0     H24418   4.804   3.178   4.698 -1.9496  0.0460  3.0079
  902MOL0     H24419   4.903   3.464   4.624 -1.0624  1.1519 -1.5638
  902MOL0     H24420   4.898   3.327   4.519  0.4144  3.0561 -0.5407
  902MOL0     H24421   4.674   3.455   4.662 -0.9887 -0.8576  0.3498
  902MOL0     H24422   4.640   3.312   4.566 -0.3384 -0.1682 -1.0666
  902MOL0     H24423   4.723   3.435   4.361  1.6400  2.0066  0.3901
  902MOL0     H24424   4.580   3.502   4.442  0.3733 -0.3082 -0.1843
  902MOL0     H24425   4.943   3.554   4.349  0.7308 -0.3952  2.1797
  902MOL0     H24426   4.968   3.927   4.278 -3.9302 -0.3895  1.7601
  902MOL0     H24427   5.089   3.800   4.297  0.5012 -0.0648  0.8959
  902MOL0     H24428   5.149   4.020   4.385 -0.3398  0.0285 -0.3924
  902MOL0     H24429   5.022   4.012   4.507 -0.1448 -0.2220 -0.0159
  902MOL0     H24430   5.152   3.777   4.528 -0.4529 -0.0950  0.9107
  902MOL0     H24431   5.287   3.899   4.519 -0.2798  0.6307 -0.4194
  902MOL0     H24432   5.150   4.027   4.696  0.5131 -0.3964 -2.6029
  902MOL0     H24433   5.046   3.871   4.713 -0.0689 -1.4217 -0.4216
  902MOL0     H24434   5.417   3.798   4.942  1.6411  0.4495  2.4361
  902MOL0     H24435   5.515   3.898   5.235  1.0023  0.3022 -2.0331
  902MOL0     H24436   5.494   3.745   5.140 -1.5743 -0.5800 -0.8268
  902MOL0     H24437   5.399   3.766   5.283 -0.2781 -0.0342 -0.2268
  902MOL0     H24438   4.897   3.942   5.562  0.9565 -0.4926  1.1273
  902MOL0     H24439   4.855   4.067   5.774 -0.3212  2.3615  0.3500
  902MOL0     H24440   4.951   4.055   5.977  2.7766 -2.3303  1.1865
  902MOL0     H24441   5.112   4.078   5.999 -1.3883 -1.8743  1.5879
  902MOL0     H24442   4.997   4.115   6.210 -0.4294  0.0072 -0.0683
  902MOL0     H24443   5.098   4.252   6.160  0.1887  0.6007 -2.6710
  902MOL0     H24444   4.794   4.264   6.141 -0.0114  2.7600 -2.4816
  902MOL0     H24445   4.912   4.387   6.091 -0.4183 -2.1875 -3.2177
  902MOL0     H24446   4.972   4.422   6.312 -2.1032  2.7843  0.1875
  902MOL0     H24447   4.914   4.274   6.377  2.6331 -1.8459 -3.0904
  902MOL0     H24448   4.739   4.499   6.270  0.0444  0.2631  0.9722
  902MOL0     H24449   4.670   4.342   6.321 -0.5335  1.2281  2.0469
  902MOL0     H24450   4.731   4.353   6.532 -1.0753  0.8062  0.0268
  902MOL0     H24451   4.633   4.493   6.512 -0.4175 -3.5478  3.5791
  902MOL0     H24452   4.927   4.510   6.495  0.7410  1.0814  0.1293
  902MOL0     H24453   4.835   4.505   6.651 -1.8274 -1.4718 -0.4247
  902MOL0     H24454   4.786   4.700   6.424 -0.8777 -0.2832 -0.1835
  902MOL0     H24455   4.889   4.739   6.560 -0.3326 -0.7855 -0.1136
  902MOL0     H24456   5.197   4.313   5.692  2.9068 -1.8913  0.4229
  902MOL0     H24457   5.231   4.215   5.490 -1.2445  0.5432 -3.6973
  902MOL0     H24458   5.049   4.050   5.144  2.7823  2.1907  1.5855
  902MOL0     H24459   5.046   4.015   4.903  2.3928  0.0464 -2.8411
  902MOL0     H24460   5.427   3.320   5.122 -0.9239 -2.5424  2.0813
  902MOL0     H24461   5.423   3.303   5.368 -1.0904 -0.9997  1.3501
  902MOL0     H24462   5.359   3.643   5.683  1.3072 -4.3766 -0.6772
  902MOL0     H24463   5.317   3.800   5.858  0.4597 -0.3699  0.9746
  902MOL0     H24464   5.143   3.628   6.230 -0.9990  0.1341  0.6278
  902MOL0     H24465   5.189   3.799   6.283 -1.5666  0.6439  0.4565
  902MOL0     H24466   4.943   3.705   6.138 -0.0214  1.8883 -2.2532
  902MOL0     H24467   5.002   3.862   6.100  3.1595  1.3347  2.1017
  902MOL0     H24468   4.948   3.753   6.377 -1.6601  0.1087  1.5107
  902MOL0     H24469   5.009   3.920   6.348 -0.6904 -0.4224  1.5205
  902MOL0     H24470   4.734   3.805   6.309  0.5829  0.5429 -0.1242
  902MOL0     H24471   4.796   3.957   6.225  1.2252  1.2632  0.3398
  902MOL0     H24472   4.684   4.136   6.556  0.3109  0.3191 -0.4468
  902MOL0     H24473   5.066   3.524   6.069  1.1137  0.1263  0.4311
  902MOL0     H24474   5.072   3.273   5.829 -0.1926 -1.9654  2.4707
  902MOL0     H24475   4.970   3.353   5.948  0.8835 -0.8388  0.0097
  902MOL0     H24476   4.930   3.379   5.779 -0.3531  0.8045  0.3583
  903MOL0     O24477   2.649  11.354   6.521  0.2734  0.7577  0.0741
  903MOL0     C24478   2.680  11.351   6.640  0.1083 -0.2389  0.2000
  903MOL0     O24479   2.795  11.412   6.677 -0.5369 -0.0176  0.0517
  903MOL0     C24480   2.878  11.466   6.587  0.5318 -0.3782  0.5967
  903MOL0     C24481   3.011  11.434   6.577  0.5371 -0.6628  0.4399
  903MOL0     C24482   3.098  11.490   6.487 -0.6539 -0.2550  0.0478
  903MOL0     C24483   3.045  11.600   6.409 -0.5352 -0.2401  0.1073
  903MOL0     O24484   3.132  11.674   6.332  0.7432  0.6657 -0.4066
  903MOL0     C24485   3.277  11.636   6.318 -0.0277 -0.6510 -0.2592
  903MOL0     C24486   3.359  11.731   6.226 -0.8574  0.5618 -0.0543
  903MOL0     C24487   3.374  11.879   6.271 -0.4904  0.5315 -0.8856
  903MOL0     C24488   3.436  11.971   6.164  0.5898 -0.7586 -0.4780
  903MOL0     C24489   3.487  12.102   6.231 -0.3277 -0.9568  0.7762
  903MOL0     C24490   3.375  12.206   6.253  0.1888  0.0689 -0.1900
  903MOL0     C24491   3.422  12.342   6.301  0.1023 -0.7933  0.7272
  903MOL0     C24492   3.444  12.447   6.198 -0.2694  0.1154 -1.3684
  903MOL0     N24493   3.586  12.466   6.183  0.1617 -1.0252 -0.0165
  903MOL0     C24494   3.673  12.411   6.089 -0.2040 -0.0383 -0.0881
  903MOL0     C24495   3.795  12.472   6.107  0.4223  0.0506 -0.0226
  903MOL0     C24496   3.916  12.454   6.021 -0.7034  0.2430  0.9868
  903MOL0     C24497   3.987  12.322   6.027 -0.9695  0.0680  0.5414
  903MOL0     C24498   4.059  12.298   6.166 -0.5667  0.0860  0.8756
  903MOL0     C24499   4.173  12.410   6.197 -0.0213 -0.4578  0.5020
  903MOL0     O24500   4.291  12.350   6.259 -0.7156 -0.2247 -0.1570
  903MOL0     C24501   4.395  12.435   6.274 -0.6171  0.0409  1.1503
  903MOL0     C24502   4.372  12.538   6.378 -0.8870 -0.1797  1.0891
  903MOL0     C24503   4.479  12.620   6.414 -0.5977 -0.7688 -0.9866
  903MOL0     C24504   4.459  12.698   6.538 -0.6389 -0.0454 -0.4517
  903MOL0     C24505   4.604  12.607   6.341 -0.7635 -1.0501  0.1175
  903MOL0     C24506   4.725  12.691   6.372 -0.8278  0.0564 -0.3299
  903MOL0     O24507   4.831  12.666   6.294  0.0467 -0.8282  0.1374
  903MOL0     C24508   4.952  12.665   6.362  0.1951  0.4639 -0.6876
  903MOL0     C24509   4.992  12.678   6.500 -0.4582  1.0163  0.0418
  903MOL0     C24510   5.128  12.661   6.535  0.2650  0.9018 -0.6779
  903MOL0     C24511   5.227  12.643   6.438 -1.2182  0.1914 -0.5705
  903MOL0     O24512   5.358  12.631   6.478 -0.5808  1.0263  0.5176
  903MOL0     C24513   5.453  12.599   6.377  0.0007  0.3077  0.9152
  903MOL0     C24514   5.588  12.574   6.449 -0.0447  0.0739  0.3067
  903MOL0     C24515   5.633  12.671   6.558 -0.8191 -0.9618 -0.0346
  903MOL0     C24516   5.653  12.817   6.518 -0.3095  0.9946  0.2445
  903MOL0     C24517   5.708  12.895   6.644 -0.1708  0.7193 -0.2670
  903MOL0     C24518   5.718  13.047   6.619  0.2799 -0.4108 -0.1789
  903MOL0     C24519   5.822  13.080   6.521  0.4482  0.1695 -0.0102
  903MOL0     C24520   5.879  13.226   6.516 -0.3706 -0.6447 -0.4046
  903MOL0    Cl24521   5.972  13.255   6.678 -0.0082  0.6108 -0.0024
  903MOL0     C24522   5.184  12.615   6.309 -0.6716 -0.3952  0.6552
  903MOL0     C24523   5.050  12.626   6.270  0.5089 -0.0730  0.7927
  903MOL0     O24524   4.710  12.785   6.449  0.5926 -0.2097 -0.3883
  903MOL0     C24525   4.621  12.507   6.243  1.1159 -0.3984  0.4818
  903MOL0     C24526   4.517  12.422   6.208  0.1670  0.0698 -0.2819
  903MOL0     N24527   3.782  12.554   6.214 -0.9775 -0.4194 -0.0003
  903MOL0     N24528   3.662  12.552   6.258  0.3297 -0.6367 -0.6307
  903MOL0     C24529   2.915  11.636   6.410  0.8393  0.7033 -0.5803
  903MOL0     C24530   2.836  11.574   6.506  0.1350 -0.5022  1.2052
  903MOL0     C24531   2.602  11.282   6.751  0.3152  0.1186  0.4304
  903MOL0     C24532   2.671  11.226   6.855 -1.1098 -0.2504 -0.0328
  903MOL0     C24533   2.613  11.174   6.967  0.1870  0.0629  0.7023
  903MOL0     C24534   2.473  11.173   6.968 -0.4671  0.6887 -0.1003
  903MOL0     O24535   2.412  11.116   7.074  0.4691 -1.0935 -0.6724
  903MOL0     C24536   2.370  10.984   7.061  0.2556 -0.0846  0.0318
  903MOL0     C24537   2.399  10.896   7.176  0.6738 -0.5769 -0.3812
  903MOL0     C24538   2.324  10.956   7.291  0.2663  0.2027 -0.7721
  903MOL0     C24539   2.364  10.907   7.430  0.4797 -0.3498  0.7975
  903MOL0     C24540   2.479  10.978   7.476 -1.1224 -0.3529 -0.0567
  903MOL0     C24541   2.576  11.036   7.513  0.0236 -0.3710 -0.2833
  903MOL0     C24542   2.396  11.209   6.863 -0.3813 -0.7414 -0.0129
  903MOL0     C24543   2.457  11.273   6.750 -0.0065  0.4464  0.0855
  903MOL0     C24544   2.362  11.330   6.635 -1.1814 -0.3833 -0.4447
  903MOL0     H24545   3.045  11.351   6.638 -1.6914 -0.8449  1.5074
  903MOL0     H24546   3.202  11.459   6.485 -0.5250  0.1507  0.3760
  903MOL0     H24547   3.283  11.536   6.274 -2.3065 -1.3598  0.8469
  903MOL0     H24548   3.327  11.631   6.416 -1.6780 -0.2782  0.6484
  903MOL0     H24549   3.461  11.690   6.222  0.4859  3.6576  0.0180
  903MOL0     H24550   3.333  11.732   6.120 -1.8006 -0.1123  0.1564
  903MOL0     H24551   3.276  11.922   6.295  0.2374  0.7130  2.0811
  903MOL0     H24552   3.434  11.872   6.362  1.8656 -0.0345 -2.4142
  903MOL0     H24553   3.529  11.929   6.125  1.3202  0.2640  0.0824
  903MOL0     H24554   3.365  11.999   6.085  1.4179  0.6993 -0.7509
  903MOL0     H24555   3.562  12.154   6.170 -0.8857 -0.8451  0.1739
  903MOL0     H24556   3.525  12.073   6.329  0.8693 -1.0956  0.2841
  903MOL0     H24557   3.317  12.209   6.161 -0.1055  0.6345  0.0092
  903MOL0     H24558   3.323  12.172   6.343  1.7421 -0.4521  0.5491
  903MOL0     H24559   3.500  12.338   6.377  2.3472  0.1545 -1.3743
  903MOL0     H24560   3.344  12.387   6.363  1.7860  3.3476  0.1827
  903MOL0     H24561   3.391  12.437   6.103 -1.6533  1.3861 -0.7677
  903MOL0     H24562   3.397  12.536   6.240 -0.3029  0.6065 -2.4064
  903MOL0     H24563   3.640  12.330   6.024 -1.1923 -0.1994  0.5909
  903MOL0     H24564   4.000  12.522   6.040  2.1198 -2.4831 -0.8263
  903MOL0     H24565   3.880  12.466   5.919  1.3870  0.7707  0.2648
  903MOL0     H24566   3.918  12.240   6.006  0.1539 -0.1962 -2.8350
  903MOL0     H24567   4.055  12.319   5.941 -1.4669 -1.2292  0.1713
  903MOL0     H24568   3.990  12.293   6.251 -0.2258  0.2870  1.1652
  903MOL0     H24569   4.098  12.197   6.148 -2.5369 -0.9514  2.0858
  903MOL0     H24570   4.196  12.459   6.103 -2.0060 -0.6448 -0.1315
  903MOL0     H24571   4.134  12.486   6.266 -0.4281 -0.2070 -0.0005
  903MOL0     H24572   4.277  12.534   6.430 -0.7571  0.9091  1.4283
  903MOL0     H24573   4.438  12.805   6.527  2.3292  1.0336  2.5253
  903MOL0     H24574   4.552  12.689   6.595 -0.7456 -3.8093 -0.6355
  903MOL0     H24575   4.376  12.646   6.588 -1.0552  3.1015  2.5831
  903MOL0     H24576   4.920  12.692   6.580  0.7429 -2.2897  1.8859
  903MOL0     H24577   5.148  12.670   6.641 -1.9256  0.5549 -0.2022
  903MOL0     H24578   5.420  12.517   6.312 -0.7888  0.8638  0.5901
  903MOL0     H24579   5.456  12.691   6.318 -0.4501  1.9288  3.2980
  903MOL0     H24580   5.572  12.488   6.514 -0.8916  1.5714  2.1854
  903MOL0     H24581   5.671  12.560   6.378 -1.5473  0.4128 -1.5845
  903MOL0     H24582   5.733  12.639   6.590  0.0584  0.8972 -0.8063
  903MOL0     H24583   5.580  12.664   6.654  1.8182 -0.1954  1.5992
  903MOL0     H24584   5.557  12.856   6.486 -1.7725 -3.1494 -1.0201
  903MOL0     H24585   5.719  12.830   6.431 -1.6824  0.8477 -0.8417
  903MOL0     H24586   5.632  12.879   6.721 -0.7099 -2.4804 -1.3314
  903MOL0     H24587   5.795  12.842   6.684 -2.3732 -2.6473  0.4904
  903MOL0     H24588   5.743  13.089   6.717  3.1019 -0.4983 -0.7681
  903MOL0     H24589   5.620  13.084   6.588  0.4239 -0.1635 -0.3490
  903MOL0     H24590   5.787  13.071   6.418 -2.5843 -0.6401  0.9983
  903MOL0     H24591   5.911  13.016   6.528  1.9218  1.7853 -2.4911
  903MOL0     H24592   5.793  13.294   6.510 -0.0988 -0.1172  1.1710
  903MOL0     H24593   5.950  13.224   6.432 -0.1169  0.1381 -0.2242
  903MOL0     H24594   5.254  12.572   6.239 -0.1051  0.0148  0.9638
  903MOL0     H24595   5.022  12.603   6.167 -1.6857  2.3975  0.7194
  903MOL0     H24596   4.712  12.503   6.184  1.2905 -1.6845  0.8101
  903MOL0     H24597   4.519  12.346   6.131 -0.2124  1.3530 -1.5868
  903MOL0     H24598   2.871  11.718   6.354 -1.9466 -0.7875 -0.7148
  903MOL0     H24599   2.738  11.614   6.534 -1.8262 -3.2776 -1.1119
  903MOL0     H24600   2.779  11.227   6.865 -0.9961  0.2246 -1.1335
  903MOL0     H24601   2.673  11.133   7.047 -0.1495 -1.7309  0.0900
  903MOL0     H24602   2.265  10.987   7.029 -0.0660  1.0402  1.1126
  903MOL0     H24603   2.431  10.940   6.982  1.6269  1.5122  0.1283
  903MOL0     H24604   2.500  10.926   7.203 -0.8459  2.8919  2.2217
  903MOL0     H24605   2.383  10.788   7.165 -1.1135 -0.8028  3.1569
  903MOL0     H24606   2.334  11.065   7.288 -1.1651  0.3325 -2.4202
  903MOL0     H24607   2.216  10.940   7.282  0.0633  0.9782  0.1640
  903MOL0     H24608   2.394  10.802   7.435  2.0911  0.1289  2.5408
  903MOL0     H24609   2.281  10.924   7.498  0.7628  0.9270  0.8579
  903MOL0     H24610   2.661  11.086   7.556  0.7517 -1.4248 -0.4686
  903MOL0     H24611   2.291  11.186   6.871 -0.0494 -2.4629 -0.2083
  903MOL0     H24612   2.353  11.261   6.550 -0.7941  1.0080 -1.6501
  903MOL0     H24613   2.261  11.339   6.677 -1.0903 -0.2637 -0.2531
  903MOL0     H24614   2.398  11.427   6.602 -2.5350 -0.1645 -1.3408
  904MOL0     O24615   1.765   5.585   3.917  0.0264  0.5520 -0.6707
  904MOL0     C24616   1.797   5.683   3.846  0.0949  0.5286  0.0427
  904MOL0     O24617   1.807   5.808   3.899 -0.3880  0.4404 -0.0074
  904MOL0     C24618   1.761   5.828   4.027 -0.1836 -0.9303  0.0785
  904MOL0     C24619   1.870   5.885   4.107  0.1883  1.0366 -0.2027
  904MOL0     C24620   1.838   5.935   4.241 -0.0283  0.5838 -0.3890
  904MOL0     C24621   1.710   5.921   4.298 -0.1273  0.5184  0.4078
  904MOL0     O24622   1.705   5.960   4.425 -0.1136 -0.4698 -0.2011
  904MOL0     C24623   1.577   6.000   4.480  0.5773  0.0220 -1.2945
  904MOL0     C24624   1.525   6.125   4.408 -1.4108 -0.4634  0.0002
  904MOL0     C24625   1.618   6.232   4.361  0.1377 -0.5939 -0.2417
  904MOL0     C24626   1.562   6.366   4.311  0.3242 -1.0346 -0.6550
  904MOL0     C24627   1.505   6.451   4.423 -0.9372  0.6422 -0.1082
  904MOL0     C24628   1.473   6.587   4.373 -0.3562 -0.8664  0.7842
  904MOL0     C24629   1.452   6.678   4.488 -0.5061  0.3457 -0.7587
  904MOL0     C24630   1.581   6.728   4.544  0.4849  0.0087 -0.1087
  904MOL0     N24631   1.578   6.762   4.687 -0.0694 -0.5458 -0.1597
  904MOL0     C24632   1.498   6.860   4.752  0.0054 -0.0813  0.3975
  904MOL0     C24633   1.533   6.855   4.886  0.1377 -0.6181  1.1552
  904MOL0     C24634   1.484   6.949   4.989 -0.2335 -0.0280  0.2392
  904MOL0     C24635   1.333   6.917   4.999 -1.0975 -0.2257  1.8604
  904MOL0     C24636   1.249   6.985   5.114 -1.2013  0.9936 -0.1160
  904MOL0     C24637   1.263   7.135   5.116 -0.0607 -0.5081 -0.1169
  904MOL0     O24638   1.162   7.177   5.211  0.5281 -0.7073  0.1007
  904MOL0     C24639   1.201   7.290   5.277  0.1712 -0.4788  0.7451
  904MOL0     C24640   1.150   7.316   5.410  0.0380  0.6068  0.6814
  904MOL0     C24641   1.180   7.435   5.484  0.2819  0.5282  0.5721
  904MOL0     C24642   1.142   7.451   5.633 -0.5963  0.1942 -0.7787
  904MOL0     C24643   1.269   7.524   5.419 -0.8914  0.3282 -0.1951
  904MOL0     C24644   1.325   7.642   5.493  0.0253  0.7645  0.3427
  904MOL0     O24645   1.442   7.624   5.551  0.0317 -0.0599 -0.1147
  904MOL0     C24646   1.491   7.704   5.656  0.1037 -0.3774  0.8454
  904MOL0     C24647   1.619   7.768   5.643  0.1341 -0.2910 -0.8575
  904MOL0     C24648   1.675   7.841   5.747  0.5905  0.3430 -0.2100
  904MOL0     C24649   1.598   7.856   5.873  0.8848 -0.3517  0.5078
  904MOL0     O24650   1.631   7.923   5.987 -0.0858  0.0668  0.6362
  904MOL0     C24651   1.728   8.025   5.961  1.0496  0.3323 -0.0721
  904MOL0     C24652   1.857   8.020   6.039 -0.4664 -1.0574 -0.2181
  904MOL0     C24653   1.930   8.152   6.014 -0.2948  0.0554  0.1694
  904MOL0     C24654   2.080   8.137   6.041  0.1504  0.1239  0.1483
  904MOL0     C24655   2.154   8.266   6.009  0.6089 -0.1003  0.5512
  904MOL0     C24656   2.140   8.386   6.106 -0.0944 -0.2830  0.4310
  904MOL0     C24657   2.222   8.371   6.240 -0.3596  0.7300 -1.1325
  904MOL0     C24658   2.147   8.436   6.361  0.6097  0.0739 -0.0817
  904MOL0    Cl24659   2.002   8.318   6.406 -0.0770 -0.0185  0.4854
  904MOL0     C24660   1.470   7.809   5.878  0.3112  0.2274  0.3134
  904MOL0     C24661   1.417   7.732   5.768 -0.1985  0.6147  0.5402
  904MOL0     O24662   1.246   7.729   5.521  0.5003 -0.4365 -0.0654
  904MOL0     C24663   1.311   7.502   5.286 -0.3617 -0.0054  0.4153
  904MOL0     C24664   1.277   7.386   5.216  0.4229  0.2438  0.0474
  904MOL0     N24665   1.626   6.756   4.895 -0.7274  0.0307 -0.7853
  904MOL0     N24666   1.656   6.712   4.783 -0.5345  0.3872  0.2571
  904MOL0     C24667   1.616   5.853   4.216  0.9439 -0.0360  0.6667
  904MOL0     C24668   1.634   5.819   4.086 -0.7149  0.1435  0.5961
  904MOL0     C24669   1.805   5.671   3.703  0.2806 -0.0144 -0.6690
  904MOL0     C24670   1.895   5.757   3.642  0.8449 -0.3973 -0.8255
  904MOL0     C24671   1.881   5.762   3.500  0.0971  0.2267 -0.3967
  904MOL0     C24672   1.785   5.690   3.419  0.0481 -0.6225  0.2644
  904MOL0     O24673   1.793   5.710   3.277  0.5294  0.1541 -0.3347
  904MOL0     C24674   1.695   5.641   3.204 -0.4049 -0.4010 -1.0286
  904MOL0     C24675   1.689   5.692   3.057  0.5432  0.6276 -0.3762
  904MOL0     C24676   1.641   5.840   3.054 -0.4425  0.2691 -0.5041
  904MOL0     C24677   1.763   5.924   3.071  0.7398  0.5763  0.1491
  904MOL0     C24678   1.763   6.042   2.980 -0.3244 -0.4349 -0.3126
  904MOL0     C24679   1.756   6.146   2.916  0.4097 -0.8827  0.2255
  904MOL0     C24680   1.715   5.588   3.486  0.4335  1.2261  0.7994
  904MOL0     C24681   1.716   5.584   3.628  0.2088  0.6105 -0.2988
  904MOL0     C24682   1.598   5.506   3.698  0.2398 -0.5102  0.1811
  904MOL0     H24683   1.974   5.893   4.077  0.5552 -0.0421  0.6941
  904MOL0     H24684   1.923   5.959   4.304  1.0820 -0.3019 -1.5011
  904MOL0     H24685   1.584   6.027   4.586 -0.9128  1.7736 -1.5779
  904MOL0     H24686   1.510   5.914   4.488  2.0117 -0.9702  0.7393
  904MOL0     H24687   1.476   6.075   4.324 -0.5145 -1.2457 -0.0739
  904MOL0     H24688   1.441   6.159   4.469  0.4594 -1.0610  3.1260
  904MOL0     H24689   1.689   6.255   4.441 -0.4305  4.5420 -0.8989
  904MOL0     H24690   1.684   6.189   4.285  2.2236 -1.2762  1.8249
  904MOL0     H24691   1.644   6.419   4.261  1.8223 -2.7885 -0.1507
  904MOL0     H24692   1.484   6.351   4.235  0.6640  1.6761 -1.6593
  904MOL0     H24693   1.581   6.452   4.501  0.5708  1.5541 -1.5362
  904MOL0     H24694   1.417   6.395   4.458 -1.0190  0.2941 -0.8514
  904MOL0     H24695   1.544   6.638   4.307 -1.2760 -0.0747  0.3873
  904MOL0     H24696   1.384   6.581   4.311 -0.9180  2.4167  1.0931
  904MOL0     H24697   1.402   6.616   4.563  1.3126  1.8280  1.8543
  904MOL0     H24698   1.382   6.758   4.460 -1.0272 -0.6228 -2.3126
  904MOL0     H24699   1.672   6.668   4.527 -0.5261 -1.7773  0.5228
  904MOL0     H24700   1.600   6.819   4.486  1.8435 -0.5476 -0.5981
  904MOL0     H24701   1.437   6.937   4.705 -0.8412 -1.0049 -0.0340
  904MOL0     H24702   1.490   7.054   4.958  4.0224 -0.3498 -0.6785
  904MOL0     H24703   1.541   6.932   5.081  1.4704 -5.2500 -1.4340
  904MOL0     H24704   1.284   6.918   4.901  0.9884 -2.5261  0.6818
  904MOL0     H24705   1.331   6.814   5.038 -3.1131 -0.6157  0.8624
  904MOL0     H24706   1.145   6.950   5.108 -0.7746 -0.9125  2.1472
  904MOL0     H24707   1.261   6.938   5.212  0.1144  1.9524  0.2127
  904MOL0     H24708   1.362   7.178   5.133 -0.0881 -0.5850  0.2493
  904MOL0     H24709   1.235   7.177   5.019 -1.7856  1.6425  1.2128
  904MOL0     H24710   1.103   7.234   5.462  0.8525 -0.4120 -0.1630
  904MOL0     H24711   1.238   7.458   5.686 -0.7121  1.3738 -0.6886
  904MOL0     H24712   1.084   7.364   5.663  0.3115 -0.3785 -0.6321
  904MOL0     H24713   1.082   7.539   5.656  0.0854  0.6150 -0.5813
  904MOL0     H24714   1.657   7.746   5.544 -2.0756 -0.1751 -1.7807
  904MOL0     H24715   1.777   7.870   5.725  0.1364  1.0805 -1.4870
  904MOL0     H24716   1.761   8.026   5.857  1.2005 -0.8915 -0.0475
  904MOL0     H24717   1.671   8.114   5.991 -3.3135 -1.9277 -0.9222
  904MOL0     H24718   1.839   8.009   6.147  0.3439 -3.0870 -0.2634
  904MOL0     H24719   1.925   7.940   6.011  1.7889  0.8318 -0.4755
  904MOL0     H24720   1.875   8.236   6.055 -3.9043 -1.6796 -0.7302
  904MOL0     H24721   1.937   8.154   5.904 -4.0304 -0.1510 -0.1973
  904MOL0     H24722   2.110   8.047   5.986  0.9934 -1.4601  2.9773
  904MOL0     H24723   2.093   8.130   6.150  0.2523 -0.2240  0.1168
  904MOL0     H24724   2.260   8.242   5.996  0.9209  1.4171  0.0802
  904MOL0     H24725   2.111   8.305   5.916 -1.7493  0.2503  1.7312
  904MOL0     H24726   2.035   8.410   6.124 -0.6157 -2.6336  0.8900
  904MOL0     H24727   2.176   8.474   6.053  0.2179  0.0466  1.1857
  904MOL0     H24728   2.324   8.408   6.230  1.0249 -2.4221 -0.1857
  904MOL0     H24729   2.237   8.269   6.277  3.3606  2.1385  1.8687
  904MOL0     H24730   2.107   8.534   6.332  1.4677 -0.2170 -2.4997
  904MOL0     H24731   2.221   8.444   6.441 -0.4688 -1.3998  1.1076
  904MOL0     H24732   1.405   7.847   5.957 -0.9875  0.3048 -0.7593
  904MOL0     H24733   1.316   7.693   5.762 -0.2491  0.9035 -0.9206
  904MOL0     H24734   1.371   7.574   5.232 -0.5623 -0.8655 -1.0227
  904MOL0     H24735   1.302   7.385   5.110  0.5509  2.4920  0.0167
  904MOL0     H24736   1.514   5.852   4.254  0.5091 -0.0717 -0.4457
  904MOL0     H24737   1.552   5.779   4.028  0.5023 -0.9352 -0.4345
  904MOL0     H24738   1.961   5.821   3.699 -1.6049 -0.3829  2.2836
  904MOL0     H24739   1.948   5.836   3.457  1.2107 -0.3862  0.2442
  904MOL0     H24740   1.717   5.535   3.189 -3.0348 -1.2633  0.4472
  904MOL0     H24741   1.601   5.654   3.259  0.3303  0.8624 -0.0186
  904MOL0     H24742   1.617   5.626   3.008 -0.8756 -0.0902  2.4809
  904MOL0     H24743   1.785   5.672   3.007  1.1113  0.3004  0.8197
  904MOL0     H24744   1.602   5.858   2.954  1.0626  0.6496 -1.0540
  904MOL0     H24745   1.556   5.860   3.120 -3.6877  0.3329 -4.3602
  904MOL0     H24746   1.854   5.879   3.031 -1.1486 -2.6875 -0.8000
  904MOL0     H24747   1.784   5.948   3.176 -1.7737 -1.4674  1.2357
  904MOL0     H24748   1.753   6.227   2.845 -1.4837 -2.1712 -1.2573
  904MOL0     H24749   1.650   5.524   3.427  3.1777 -1.3315  0.3645
  904MOL0     H24750   1.625   5.419   3.758 -0.4255  0.0042  1.2543
  904MOL0     H24751   1.530   5.564   3.760 -0.6815 -0.0584 -1.1892
  904MOL0     H24752   1.538   5.479   3.610  0.9313 -2.7507  0.3331
  905MOL0     O24753   7.844  10.790   6.476  0.4488 -0.2317 -0.4994
  905MOL0     C24754   7.942  10.840   6.433  0.5289 -0.7723 -0.0510
  905MOL0     O24755   7.986  10.822   6.298 -0.4256  0.5589 -1.0144
  905MOL0     C24756   7.938  10.719   6.234 -0.3321  0.5056  0.6210
  905MOL0     C24757   7.804  10.707   6.193 -0.1874 -0.7127  0.7494
  905MOL0     C24758   7.771  10.592   6.111 -0.2891 -0.4674 -0.8666
  905MOL0     C24759   7.854  10.487   6.085 -0.2728  0.1255 -0.4737
  905MOL0     O24760   7.804  10.386   6.012  0.3167  1.2648 -0.2345
  905MOL0     C24761   7.888  10.273   5.968 -0.0690 -0.8387  0.0349
  905MOL0     C24762   7.816  10.162   5.895  0.6115 -0.9380  0.8107
  905MOL0     C24763   7.753  10.200   5.763 -0.0410 -0.2514 -0.0008
  905MOL0     C24764   7.668  10.079   5.723 -0.4287 -0.2319 -0.1688
  905MOL0     C24765   7.586  10.126   5.602 -0.4719  0.5553  0.6781
  905MOL0     C24766   7.518  10.008   5.537 -0.0154 -0.2713  0.1536
  905MOL0     C24767   7.400  10.043   5.443  0.1189  0.9317  1.1642
  905MOL0     C24768   7.282  10.123   5.508 -0.4990  0.0747 -0.6404
  905MOL0     N24769   7.162  10.097   5.440  1.1319  0.5138 -0.7041
  905MOL0     C24770   7.109  10.147   5.327  0.3591  0.4910  0.0904
  905MOL0     C24771   6.993  10.081   5.312  0.1381 -1.1064 -0.6032
  905MOL0     C24772   6.909  10.104   5.184 -0.6607  0.0045  0.3149
  905MOL0     C24773   6.991  10.124   5.054  0.6275  0.2309 -0.0587
  905MOL0     C24774   7.030   9.989   5.005 -0.1648  0.7734  0.6589
  905MOL0     C24775   7.144   9.994   4.895 -0.1552 -0.7750 -1.6416
  905MOL0     O24776   7.114  10.074   4.781  0.4941 -0.4718 -0.8023
  905MOL0     C24777   7.219  10.092   4.694 -0.7990 -0.3645 -0.2980
  905MOL0     C24778   7.205  10.217   4.637 -0.1706  0.0981 -0.6586
  905MOL0     C24779   7.294  10.261   4.537 -0.6442 -0.0786 -1.0527
  905MOL0     C24780   7.252  10.389   4.479  0.8109  0.3259  0.3750
  905MOL0     C24781   7.408  10.177   4.500 -0.1479 -0.1799  0.1689
  905MOL0     C24782   7.509  10.220   4.402  0.2583 -0.8729  0.2455
  905MOL0     O24783   7.524  10.355   4.358  1.1385 -0.5865  0.2345
  905MOL0     C24784   7.613  10.391   4.264  0.6370  0.3524  0.2522
  905MOL0     C24785   7.711  10.479   4.302 -0.4654  0.6411 -0.8165
  905MOL0     C24786   7.800  10.534   4.217 -0.7593 -0.1779  1.2763
  905MOL0     C24787   7.802  10.487   4.089 -0.0296  0.6568  0.2559
  905MOL0     O24788   7.879  10.545   3.988  0.3782  0.7055  0.7934
  905MOL0     C24789   7.972  10.653   4.029  0.4568 -0.8053  0.5714
  905MOL0     C24790   8.074  10.664   3.915 -0.3374  0.0535 -0.5228
  905MOL0     C24791   8.201  10.755   3.942  0.4808  0.3878  0.0722
  905MOL0     C24792   8.288  10.692   4.050 -0.1359 -0.3968 -0.1159
  905MOL0     C24793   8.427  10.766   4.061  1.8255  0.7395  0.0771
  905MOL0     C24794   8.513  10.674   4.150  0.4229 -0.5799  0.2075
  905MOL0     C24795   8.651  10.728   4.145  0.4519  0.9841 -0.2869
  905MOL0     C24796   8.744  10.638   4.217  0.2542 -0.5605  0.1732
  905MOL0    Cl24797   8.676  10.592   4.384 -0.3938  0.1485 -0.1239
  905MOL0     C24798   7.710  10.394   4.050 -0.5410 -0.8883  0.0088
  905MOL0     C24799   7.611  10.351   4.134  0.2924  0.2013 -0.1862
  905MOL0     O24800   7.581  10.132   4.357  0.5065  0.0266  0.1982
  905MOL0     C24801   7.419  10.048   4.562  0.3871  0.0910  0.3469
  905MOL0     C24802   7.327  10.007   4.661 -0.8902 -0.4256  0.1516
  905MOL0     N24803   6.977   9.991   5.424  0.1391 -0.5047 -0.1222
  905MOL0     N24804   7.082   9.999   5.490  0.1560 -0.0542  0.4559
  905MOL0     C24805   7.981  10.496   6.140 -0.3214  0.5862 -0.5044
  905MOL0     C24806   8.025  10.606   6.204 -0.3827 -0.1687 -0.7961
  905MOL0     C24807   8.018  10.947   6.514  0.2330 -0.0701 -0.5576
  905MOL0     C24808   8.088  11.048   6.448 -0.0477 -0.0580  0.3355
  905MOL0     C24809   8.145  11.156   6.515 -0.2545  0.6991 -0.1767
  905MOL0     C24810   8.122  11.176   6.650  0.1225 -0.2878  0.5327
  905MOL0     O24811   8.199  11.269   6.710 -0.0267 -0.7899  0.4710
  905MOL0     C24812   8.120  11.342   6.807 -0.4173  0.1057  0.7387
  905MOL0     C24813   8.168  11.493   6.801  0.2443 -0.0629  0.9368
  905MOL0     C24814   8.093  11.564   6.682  0.4976  0.2622 -0.5888
  905MOL0     C24815   7.941  11.587   6.690 -0.5462 -0.9125  0.4400
  905MOL0     C24816   7.921  11.700   6.770 -0.1208  0.4052  0.3381
  905MOL0     C24817   7.905  11.802   6.836 -0.1630 -0.4666  0.1795
  905MOL0     C24818   8.060  11.075   6.722  0.1284  0.7626 -0.1484
  905MOL0     C24819   8.007  10.949   6.661 -1.0520 -0.3561 -0.2378
  905MOL0     C24820   7.936  10.844   6.751 -0.1165  0.3218  0.2436
  905MOL0     H24821   7.731  10.785   6.210 -3.4621 -3.7082  1.6496
  905MOL0     H24822   7.672  10.585   6.069 -0.5890 -0.5606 -0.1605
  905MOL0     H24823   7.937  10.235   6.058  1.9215  4.5966  1.6778
  905MOL0     H24824   7.965  10.305   5.897 -1.3534  0.2150 -0.9341
  905MOL0     H24825   7.886  10.082   5.869  0.3115 -1.1001  0.4982
  905MOL0     H24826   7.735  10.133   5.963  0.2538 -1.1084  0.3161
  905MOL0     H24827   7.695  10.288   5.794  2.1251  2.0368 -2.0751
  905MOL0     H24828   7.821  10.226   5.682  2.5153 -4.1863  0.6048
  905MOL0     H24829   7.714   9.982   5.702 -2.6124 -1.0491 -1.3701
  905MOL0     H24830   7.594  10.058   5.801 -0.3187  0.3144  0.0877
  905MOL0     H24831   7.655  10.166   5.527 -0.6297  1.2308  0.8826
  905MOL0     H24832   7.510  10.203   5.620 -1.5793 -0.5948  1.1047
  905MOL0     H24833   7.585   9.934   5.493 -0.5269 -0.1362 -0.8652
  905MOL0     H24834   7.468   9.953   5.617  1.5487 -1.8953  0.0961
  905MOL0     H24835   7.375   9.943   5.407  1.0188  1.9726 -2.8743
  905MOL0     H24836   7.459  10.098   5.370  1.2885 -0.6866  0.8635
  905MOL0     H24837   7.271  10.092   5.612 -0.4153  2.4823  0.1609
  905MOL0     H24838   7.299  10.231   5.516 -1.6525  0.5461 -3.3357
  905MOL0     H24839   7.161  10.214   5.259 -1.5664  1.7944 -0.1788
  905MOL0     H24840   6.837  10.186   5.197 -1.4224 -0.4818 -0.6595
  905MOL0     H24841   6.855  10.010   5.169  1.3799 -1.5550  2.1541
  905MOL0     H24842   6.933  10.172   4.975  0.9609 -1.6089 -1.4864
  905MOL0     H24843   7.079  10.185   5.077  1.5047 -0.6136 -1.0878
  905MOL0     H24844   7.049   9.922   5.090 -3.0269  0.5427  1.2015
  905MOL0     H24845   6.939   9.951   4.958  0.7474  1.8916 -2.2293
  905MOL0     H24846   7.232  10.034   4.944 -0.2780 -1.3740 -0.9125
  905MOL0     H24847   7.172   9.897   4.852  0.5976  1.0924 -5.8956
  905MOL0     H24848   7.128  10.286   4.669  0.7719  0.1623  1.6436
  905MOL0     H24849   7.315  10.478   4.473  1.4659 -0.0178  1.8170
  905MOL0     H24850   7.162  10.429   4.526 -1.2895 -1.2161 -2.0321
  905MOL0     H24851   7.219  10.378   4.375  3.2973 -0.9477 -0.3531
  905MOL0     H24852   7.705  10.521   4.402 -1.7308  1.2676 -1.1250
  905MOL0     H24853   7.849  10.619   4.260  0.6443 -0.0334 -0.4904
  905MOL0     H24854   7.921  10.749   4.036 -0.7905 -1.2293 -1.5332
  905MOL0     H24855   8.028  10.636   4.121  0.5827 -1.6812  0.3435
  905MOL0     H24856   8.110  10.561   3.920  1.1043  0.5314 -0.6253
  905MOL0     H24857   8.028  10.673   3.816 -0.6161 -1.2820 -0.5388
  905MOL0     H24858   8.175  10.860   3.958  0.1519  0.5395 -1.3050
  905MOL0     H24859   8.252  10.760   3.845  1.2001 -0.5132  0.3898
  905MOL0     H24860   8.303  10.584   4.035  2.8066 -0.4737  2.3269
  905MOL0     H24861   8.227  10.702   4.140  0.8620 -0.0583  0.5268
  905MOL0     H24862   8.475  10.777   3.963  2.3145 -2.2672 -0.1119
  905MOL0     H24863   8.419  10.871   4.091 -4.2440  1.1047 -1.4755
  905MOL0     H24864   8.513  10.570   4.116  0.1738 -0.9016  1.1621
  905MOL0     H24865   8.467  10.688   4.249 -2.7245  1.2750 -1.3593
  905MOL0     H24866   8.662  10.831   4.180 -1.0864  0.9751  0.3186
  905MOL0     H24867   8.664  10.718   4.037 -1.0465 -2.3705 -0.2624
  905MOL0     H24868   8.845  10.680   4.227  0.8013 -1.6232 -0.6441
  905MOL0     H24869   8.766  10.555   4.150  1.3668  0.3957 -0.6819
  905MOL0     H24870   7.699  10.360   3.947 -1.0590 -0.8839  0.0611
  905MOL0     H24871   7.537  10.289   4.085 -0.4884  0.0933  1.1039
  905MOL0     H24872   7.491   9.973   4.532 -2.8460 -2.7068 -1.0391
  905MOL0     H24873   7.322   9.905   4.700  0.7216  0.2987  2.5100
  905MOL0     H24874   8.064  10.427   6.137 -0.1640  0.7338  0.3186
  905MOL0     H24875   8.128  10.617   6.234 -0.6331  1.2654 -0.3752
  905MOL0     H24876   8.089  11.045   6.339 -1.7613  0.8141  0.2590
  905MOL0     H24877   8.209  11.229   6.466 -0.2399  1.1802  0.5483
  905MOL0     H24878   8.012  11.333   6.796 -0.9026  1.3698  3.6356
  905MOL0     H24879   8.153  11.307   6.905  2.8590  0.1582 -0.2125
  905MOL0     H24880   8.275  11.484   6.778 -0.2544  0.3674 -1.9699
  905MOL0     H24881   8.151  11.548   6.894  2.4186 -0.1952  1.4742
  905MOL0     H24882   8.132  11.666   6.670  1.9679 -0.4511 -2.5491
  905MOL0     H24883   8.136  11.495   6.609  3.1710 -1.7059  2.5713
  905MOL0     H24884   7.895  11.503   6.744 -1.1263 -1.1520 -0.4203
  905MOL0     H24885   7.892  11.601   6.594 -2.5514 -1.4689  1.3226
  905MOL0     H24886   7.898  11.890   6.897  0.7295  0.7663 -1.4083
  905MOL0     H24887   8.057  11.072   6.831  2.4201 -2.3087 -0.0351
  905MOL0     H24888   7.943  10.743   6.710  1.8979  0.7051 -0.4965
  905MOL0     H24889   7.968  10.847   6.856  2.1282  2.5177 -0.4030
  905MOL0     H24890   7.829  10.848   6.733  0.1441  0.1731 -1.5565
  906MOL0     O24891   1.707   0.176   0.388 -1.0804 -0.4299  0.0809
  906MOL0     C24892   1.811   0.130   0.348  0.0210  0.6376 -0.1305
  906MOL0     O24893   1.857   0.123   0.217  0.3052 -0.2245 -0.1888
  906MOL0     C24894   1.768   0.144   0.119 -0.5169 -0.0079 -0.5703
  906MOL0     C24895   1.719   0.037   0.041  0.1568  0.3527  1.3248
  906MOL0     C24896   1.622   0.069  -0.052  1.6729  0.8377 -0.3044
  906MOL0     C24897   1.577   0.199  -0.081  0.3836 -0.8390  0.5722
  906MOL0     O24898   1.484   0.236  -0.174 -0.7405 -0.5004  0.4887
  906MOL0     C24899   1.437   0.130  -0.260 -0.0238  0.1849  0.1211
  906MOL0     C24900   1.352   0.154  -0.385 -0.3468 -0.2368 -0.1916
  906MOL0     C24901   1.295   0.031  -0.450  0.1821  0.6939  0.8085
  906MOL0     C24902   1.287   0.048  -0.603 -0.0984  1.3734  0.7797
  906MOL0     C24903   1.256  -0.091  -0.656 -0.3596  0.4568  0.3578
  906MOL0     C24904   1.127  -0.158  -0.591 -0.8215  0.2139  1.0924
  906MOL0     C24905   1.103  -0.287  -0.671 -0.1691 -0.1992 -0.4205
  906MOL0     C24906   1.212  -0.390  -0.632  0.2659 -0.1333  0.3833
  906MOL0     N24907   1.181  -0.524  -0.694 -0.1088  0.0614  0.1196
  906MOL0     C24908   1.081  -0.591  -0.644  0.2904  0.0872 -0.1816
  906MOL0     C24909   1.063  -0.687  -0.746  0.4430 -0.1462  0.2002
  906MOL0     C24910   0.965  -0.808  -0.762  0.6860  0.2890 -0.0565
  906MOL0     C24911   0.895  -0.844  -0.630  0.3223  1.0937  0.6843
  906MOL0     C24912   0.797  -0.962  -0.660  0.4751 -0.1316 -0.7884
  906MOL0     C24913   0.762  -1.037  -0.524 -0.3308 -0.0829  0.6942
  906MOL0     O24914   0.716  -0.950  -0.430  0.0683 -0.4589  0.5966
  906MOL0     C24915   0.616  -0.989  -0.346 -0.2964 -0.6794 -0.6206
  906MOL0     C24916   0.642  -0.979  -0.208 -0.0510  0.6210 -0.4077
  906MOL0     C24917   0.545  -0.999  -0.107 -1.0314 -0.2123 -0.7669
  906MOL0     C24918   0.594  -0.983   0.038 -1.0876  0.0429  0.6061
  906MOL0     C24919   0.410  -1.031  -0.143 -0.0066  0.2251 -0.0198
  906MOL0     C24920   0.297  -1.048  -0.044  0.2441 -0.0761  0.3325
  906MOL0     O24921   0.182  -1.106  -0.088 -0.1621 -0.2171 -0.0661
  906MOL0     C24922   0.100  -1.137   0.022 -0.1546  0.2356 -0.0440
  906MOL0     C24923   0.099  -1.269   0.073  0.0994  0.3692 -0.0105
  906MOL0     C24924  -0.012  -1.307   0.158 -0.3268  1.3725 -0.0117
  906MOL0     C24925  -0.117  -1.227   0.195 -0.6372 -0.4799 -0.1894
  906MOL0     O24926  -0.221  -1.278   0.268  0.0906  1.2993 -1.2369
  906MOL0     C24927  -0.320  -1.197   0.324  0.2588  0.4043  1.3620
  906MOL0     C24928  -0.270  -1.118   0.451  0.5753  0.3141 -0.2023
  906MOL0     C24929  -0.391  -1.041   0.491 -0.9044  0.8315  0.8497
  906MOL0     C24930  -0.349  -0.946   0.597  1.1016 -0.0126  0.4173
  906MOL0     C24931  -0.485  -0.890   0.662 -1.2911 -0.3452  0.1294
  906MOL0     C24932  -0.448  -0.805   0.796 -0.5106 -0.3173  0.6852
  906MOL0     C24933  -0.542  -0.828   0.903 -0.1697  1.0952  1.2474
  906MOL0     C24934  -0.500  -0.943   0.994  0.4654 -0.1398  0.1605
  906MOL0    Cl24935  -0.388  -0.894   1.128  0.2594 -0.3979  0.0983
  906MOL0     C24936  -0.110  -1.090   0.144 -0.8500  0.4421  0.0168
  906MOL0     C24937  -0.002  -1.052   0.061 -0.1705  0.5090 -0.0153
  906MOL0     O24938   0.317  -1.006   0.075  0.3028  0.4147  0.5361
  906MOL0     C24939   0.386  -1.046  -0.289  0.1286  0.1982 -0.4005
  906MOL0     C24940   0.487  -1.026  -0.382 -0.0598  0.2219  0.0108
  906MOL0     N24941   1.154  -0.664  -0.843 -0.3735 -0.2361 -0.0451
  906MOL0     N24942   1.224  -0.560  -0.814 -0.1722 -1.0131 -0.1483
  906MOL0     C24943   1.627   0.301  -0.002  0.6843 -0.2661  0.6562
  906MOL0     C24944   1.705   0.272   0.108 -0.0203  0.4556 -0.5972
  906MOL0     C24945   1.896   0.071   0.459  0.6635  0.3479  0.8592
  906MOL0     C24946   2.027   0.032   0.423  0.2557 -0.3239  0.6918
  906MOL0     C24947   2.106  -0.029   0.514  0.8687  0.5177  0.3239
  906MOL0     C24948   2.064  -0.043   0.651 -0.3038 -0.8613 -0.4450
  906MOL0     O24949   2.154  -0.075   0.747 -0.0319  0.4036 -0.1589
  906MOL0     C24950   2.179  -0.217   0.773 -0.4757  0.5722 -0.1251
  906MOL0     C24951   2.334  -0.237   0.782 -0.2526  0.1928  0.6135
  906MOL0     C24952   2.399  -0.195   0.913 -0.3010  0.0544 -0.9679
  906MOL0     C24953   2.542  -0.255   0.943  0.0080  0.0333  0.9217
  906MOL0     C24954   2.642  -0.177   0.870  0.2426 -0.5339 -0.3067
  906MOL0     C24955   2.716  -0.087   0.820  0.7746  0.4691 -1.6930
  906MOL0     C24956   1.936  -0.011   0.687  0.0532  0.3335  0.8216
  906MOL0     C24957   1.850   0.048   0.592  0.0175 -0.5080 -0.7928
  906MOL0     C24958   1.702   0.075   0.649 -0.1365 -0.1035  0.9086
  906MOL0     H24959   1.766  -0.061   0.040  1.1420  0.8163  0.4569
  906MOL0     H24960   1.585  -0.014  -0.111  1.7682  1.1439 -0.7950
  906MOL0     H24961   1.376   0.065  -0.196  1.8627 -2.3790 -0.5391
  906MOL0     H24962   1.522   0.071  -0.294 -0.9291 -0.1937 -1.6682
  906MOL0     H24963   1.267   0.222  -0.379 -1.5473 -1.5644 -1.2617
  906MOL0     H24964   1.433   0.193  -0.448  3.8405 -3.7742  2.4292
  906MOL0     H24965   1.365  -0.049  -0.424  2.6273  1.9072 -1.4598
  906MOL0     H24966   1.197   0.022  -0.403  0.8505 -0.5743  2.0353
  906MOL0     H24967   1.208   0.117  -0.634  0.3954  1.4093 -0.4906
  906MOL0     H24968   1.382   0.089  -0.638 -0.6963  3.5432  1.5649
  906MOL0     H24969   1.341  -0.156  -0.632 -1.3604 -2.1845 -2.5326
  906MOL0     H24970   1.262  -0.081  -0.765  2.4146 -0.3424  0.3619
  906MOL0     H24971   1.145  -0.179  -0.485  0.8824  1.2244  1.0328
  906MOL0     H24972   1.053  -0.083  -0.619  2.9174  3.1131 -2.1625
  906MOL0     H24973   1.126  -0.254  -0.773  3.1033 -1.3888 -0.2104
  906MOL0     H24974   0.999  -0.319  -0.662  0.0293 -0.8720 -0.4201
  906MOL0     H24975   1.307  -0.351  -0.672 -1.8347  2.0627 -2.9752
  906MOL0     H24976   1.225  -0.402  -0.524 -1.5732 -1.1396  0.5366
  906MOL0     H24977   1.034  -0.580  -0.547 -0.7029 -0.0820 -0.6297
  906MOL0     H24978   1.020  -0.901  -0.773 -1.3471 -1.0368  0.4703
  906MOL0     H24979   0.893  -0.788  -0.843 -1.2042  0.2017  1.5307
  906MOL0     H24980   0.969  -0.866  -0.553 -2.1841  2.5891  3.8156
  906MOL0     H24981   0.846  -0.756  -0.586 -0.2376  0.9052  0.4549
  906MOL0     H24982   0.698  -0.925  -0.688 -1.5702 -4.8833 -0.8157
  906MOL0     H24983   0.840  -1.029  -0.736  1.1202 -1.3627  0.6008
  906MOL0     H24984   0.686  -1.115  -0.533  0.0630 -0.8177  3.0627
  906MOL0     H24985   0.839  -1.102  -0.482 -1.2346 -1.5903  0.0995
  906MOL0     H24986   0.738  -0.934  -0.183 -0.2912  2.6581 -2.8777
  906MOL0     H24987   0.566  -1.057   0.113 -0.1753  1.3814  2.3435
  906MOL0     H24988   0.557  -0.886   0.074 -0.6332  0.3636  0.2307
  906MOL0     H24989   0.702  -0.970   0.028 -1.2910  0.0259 -3.1646
  906MOL0     H24990   0.182  -1.332   0.041 -0.3308 -1.0712  1.5241
  906MOL0     H24991  -0.018  -1.406   0.202  3.0855  2.6585  4.0475
  906MOL0     H24992  -0.356  -1.133   0.243  1.9275 -0.1255  0.1395
  906MOL0     H24993  -0.392  -1.276   0.344  2.4371 -2.5433 -1.3404
  906MOL0     H24994  -0.248  -1.186   0.534  0.8900  2.7198  1.8094
  906MOL0     H24995  -0.196  -1.044   0.418 -1.2966  1.9665 -0.8473
  906MOL0     H24996  -0.481  -1.093   0.526 -1.4200  3.1240  3.2677
  906MOL0     H24997  -0.419  -0.976   0.408 -0.6836  1.5889  1.3515
  906MOL0     H24998  -0.302  -0.853   0.563  2.2172  0.1098  2.1495
  906MOL0     H24999  -0.288  -0.993   0.675 -0.6518 -0.1039  1.7936
  906MOL0     H25000  -0.544  -0.814   0.610 -0.3828  1.4584  1.6052
  906MOL0     H25001  -0.557  -0.968   0.687 -0.1339 -1.5665 -0.2238
  906MOL0     H25002  -0.457  -0.703   0.760  0.2013  0.6256  2.9927
  906MOL0     H25003  -0.346  -0.820   0.833 -0.5294  0.7131  1.1767
  906MOL0     H25004  -0.641  -0.835   0.856 -0.6457  5.4456  1.2105
  906MOL0     H25005  -0.551  -0.737   0.962 -1.1427  1.8352 -0.0011
  906MOL0     H25006  -0.463  -1.037   0.953 -2.6025 -2.3288  2.0211
  906MOL0     H25007  -0.595  -0.970   1.039 -0.2322 -0.2332 -1.3285
  906MOL0     H25008  -0.184  -1.011   0.147  0.5748  1.7941  1.5930
  906MOL0     H25009   0.014  -0.951   0.026  1.8899 -0.7051 -3.0088
  906MOL0     H25010   0.291  -1.066  -0.339  0.1643 -1.2843  0.0702
  906MOL0     H25011   0.460  -1.021  -0.487  0.0627  2.0646  0.0483
  906MOL0     H25012   1.604   0.407  -0.012 -2.0104 -0.5724  2.5295
  906MOL0     H25013   1.750   0.351   0.168 -3.0932  2.1313 -0.3270
  906MOL0     H25014   2.079   0.049   0.330 -0.2935  1.9402  0.7530
  906MOL0     H25015   2.212  -0.044   0.493  1.9011  3.1577  2.9151
  906MOL0     H25016   2.124  -0.257   0.859 -0.7796  0.3808 -0.4047
  906MOL0     H25017   2.137  -0.274   0.689 -0.5154  2.2773 -1.3252
  906MOL0     H25018   2.374  -0.177   0.699 -0.3824 -2.7798 -1.7925
  906MOL0     H25019   2.355  -0.340   0.751 -1.3029  0.1770 -0.0807
  906MOL0     H25020   2.406  -0.088   0.932  2.5298 -0.2860  0.5020
  906MOL0     H25021   2.355  -0.241   1.002  1.4928 -0.3947 -0.2758
  906MOL0     H25022   2.550  -0.361   0.920 -2.0382  0.4012 -1.9328
  906MOL0     H25023   2.559  -0.234   1.049 -0.9585 -2.7249  1.6998
  906MOL0     H25024   2.751  -0.000   0.768 -0.8274  3.1932  1.4261
  906MOL0     H25025   1.909  -0.028   0.791  1.3203  3.5270  1.7876
  906MOL0     H25026   1.636  -0.008   0.620  1.3054 -0.9362 -0.1400
  906MOL0     H25027   1.716   0.097   0.755 -2.0012 -1.4258  1.4874
  906MOL0     H25028   1.649   0.164   0.616 -3.2806 -2.2815 -0.3604
  907MOL0     O25029   7.229   1.760   4.400  0.4335 -0.8019  0.0879
  907MOL0     C25030   7.196   1.871   4.450 -0.8129 -0.1933  0.2640
  907MOL0     O25031   7.259   1.937   4.548  0.1601 -0.2153  0.2798
  907MOL0     C25032   7.382   1.894   4.584  0.3064 -0.3705 -0.2295
  907MOL0     C25033   7.419   1.896   4.722  0.2815 -0.8580  0.3892
  907MOL0     C25034   7.544   1.862   4.767 -0.6354 -0.2632  0.8451
  907MOL0     C25035   7.640   1.825   4.674 -0.5463  1.0791 -0.1716
  907MOL0     O25036   7.763   1.798   4.713 -0.9526 -0.0581 -0.3530
  907MOL0     C25037   7.877   1.768   4.633  0.0068  0.6945  0.0279
  907MOL0     C25038   7.992   1.737   4.715 -0.1388  0.1345 -0.6726
  907MOL0     C25039   8.128   1.745   4.646 -0.1713  0.4058 -1.0823
  907MOL0     C25040   8.145   1.687   4.510  0.9733  0.5368  0.0384
  907MOL0     C25041   8.287   1.710   4.447 -1.3846  0.5437  0.9383
  907MOL0     C25042   8.379   1.597   4.492 -0.4526 -0.4124  0.5428
  907MOL0     C25043   8.519   1.607   4.439 -0.5728 -0.1030  0.5110
  907MOL0     C25044   8.609   1.495   4.509  1.1954  0.9698  0.5632
  907MOL0     N25045   8.642   1.510   4.654 -0.9184 -0.0038  0.5311
  907MOL0     C25046   8.723   1.601   4.696  0.2074  0.2674 -0.4907
  907MOL0     C25047   8.754   1.575   4.824  0.5390  0.1080  0.1212
  907MOL0     C25048   8.849   1.660   4.907  0.1669  0.3219 -0.2961
  907MOL0     C25049   8.990   1.646   4.850 -0.3225 -0.2458 -0.0244
  907MOL0     C25050   9.040   1.492   4.851 -0.6104  0.0141 -0.1189
  907MOL0     C25051   9.167   1.459   4.784  0.2369  0.5963 -0.2470
  907MOL0     O25052   9.174   1.513   4.651  0.3584 -0.1324 -0.3855
  907MOL0     C25053   9.119   1.440   4.550  0.2137  0.0023 -0.2404
  907MOL0     C25054   9.029   1.337   4.559 -0.1013 -0.0043 -0.6444
  907MOL0     C25055   8.956   1.282   4.446  1.1239 -1.0721 -0.2235
  907MOL0     C25056   8.862   1.171   4.466  0.6855  0.0059  0.3146
  907MOL0     C25057   8.992   1.329   4.324 -0.3818  0.5184 -0.7317
  907MOL0     C25058   8.929   1.280   4.199 -0.8893 -0.3615 -0.3092
  907MOL0     O25059   9.012   1.233   4.106  1.2533 -0.6142  0.3414
  907MOL0     C25060   8.983   1.273   3.977 -0.5528 -0.0075  0.3709
  907MOL0     C25061   8.996   1.177   3.882  0.7827 -1.1392  0.8726
  907MOL0     C25062   8.983   1.221   3.742  0.2621  0.0518  0.0858
  907MOL0     C25063   8.947   1.353   3.710  0.4087  0.1730  0.1458
  907MOL0     O25064   8.940   1.388   3.579  0.1379  0.0573 -0.4238
  907MOL0     C25065   8.849   1.485   3.533  0.3639  0.0364 -0.9573
  907MOL0     C25066   8.923   1.623   3.525  0.2404  0.6867  0.1667
  907MOL0     C25067   8.988   1.645   3.385 -0.0612  0.5791  0.3826
  907MOL0     C25068   9.115   1.724   3.386  0.7617  0.4347  0.0208
  907MOL0     C25069   9.244   1.660   3.430 -0.3991 -0.5337  0.1841
  907MOL0     C25070   9.281   1.540   3.343  0.4782  0.1875  0.3829
  907MOL0     C25071   9.422   1.480   3.375 -0.9751  0.4534 -0.6055
  907MOL0     C25072   9.454   1.361   3.280 -0.8622 -0.2326 -0.0685
  907MOL0    Cl25073   9.607   1.289   3.327 -0.0228  0.0362 -0.2731
  907MOL0     C25074   8.921   1.458   3.807  0.7034  0.2011 -0.4184
  907MOL0     C25075   8.934   1.412   3.946 -0.4388 -0.2989  0.5804
  907MOL0     O25076   8.807   1.277   4.192 -0.3106  0.1646 -0.2117
  907MOL0     C25077   9.085   1.425   4.311  0.3636  0.2867  0.3695
  907MOL0     C25078   9.146   1.493   4.423 -0.9372  1.2423  0.5392
  907MOL0     N25079   8.686   1.456   4.848 -0.5660 -0.5644  0.9105
  907MOL0     N25080   8.619   1.424   4.749  0.6628 -0.3803 -0.3230
  907MOL0     C25081   7.607   1.825   4.537 -0.0418 -0.3000 -0.2536
  907MOL0     C25082   7.480   1.862   4.493 -0.3380 -0.7373  0.1029
  907MOL0     C25083   7.105   1.947   4.378 -0.6741  0.8628 -0.2818
  907MOL0     C25084   7.129   1.978   4.236  0.3338  0.5930  0.2056
  907MOL0     C25085   7.027   2.038   4.162  0.2618 -0.3371  0.0207
  907MOL0     C25086   6.919   2.104   4.229 -0.0360  0.1306 -0.5738
  907MOL0     O25087   6.828   2.186   4.173  0.0799 -0.3714  0.4056
  907MOL0     C25088   6.794   2.179   4.027  1.0433  0.2802 -0.4806
  907MOL0     C25089   6.694   2.291   3.994  0.2858  1.0988  0.5872
  907MOL0     C25090   6.786   2.415   3.983  0.4025 -0.2638  0.5236
  907MOL0     C25091   6.707   2.539   3.940 -0.2010  1.1346  0.4129
  907MOL0     C25092   6.651   2.519   3.801  0.2071  0.2445 -0.6583
  907MOL0     C25093   6.603   2.495   3.689 -0.9435 -0.8013 -0.2459
  907MOL0     C25094   6.904   2.089   4.363 -0.3028 -0.5578 -0.2661
  907MOL0     C25095   6.990   2.006   4.447 -0.0259 -0.0563 -0.9979
  907MOL0     C25096   6.965   1.985   4.595  0.5495  0.2782 -0.6046
  907MOL0     H25097   7.337   1.939   4.778  2.5768  2.0734  1.7801
  907MOL0     H25098   7.569   1.850   4.872 -2.2586 -0.4004  1.2490
  907MOL0     H25099   7.898   1.866   4.588 -1.6625  3.2411  4.1802
  907MOL0     H25100   7.867   1.684   4.564  1.1398  0.6886 -0.1443
  907MOL0     H25101   7.993   1.802   4.802 -3.4578  2.2537 -2.0575
  907MOL0     H25102   7.983   1.637   4.758  1.1796  1.3027  2.6098
  907MOL0     H25103   8.142   1.854   4.644 -0.1189  0.5092  1.4001
  907MOL0     H25104   8.199   1.700   4.716 -1.5342  0.4780  0.4185
  907MOL0     H25105   8.127   1.581   4.530 -1.7140  1.3911  3.1496
  907MOL0     H25106   8.071   1.735   4.446  1.7240 -2.2069 -3.1433
  907MOL0     H25107   8.336   1.802   4.480  1.6732 -0.5566 -0.2203
  907MOL0     H25108   8.299   1.712   4.339  0.4680  0.5735  1.1226
  907MOL0     H25109   8.393   1.613   4.599 -0.0507  1.7080  0.2274
  907MOL0     H25110   8.331   1.502   4.469 -2.2719  0.8475 -1.3046
  907MOL0     H25111   8.555   1.711   4.439  1.1722 -0.6720  0.1990
  907MOL0     H25112   8.508   1.571   4.337 -3.0581 -1.9275  1.3181
  907MOL0     H25113   8.574   1.393   4.489  3.9354  0.3188 -1.5318
  907MOL0     H25114   8.706   1.506   4.459  1.7066  0.5032  1.4212
  907MOL0     H25115   8.766   1.677   4.631 -1.1599  0.3899 -1.2975
  907MOL0     H25116   8.845   1.632   5.013  0.5983  2.1075  0.2273
  907MOL0     H25117   8.819   1.765   4.901  0.3843  0.6250  2.4805
  907MOL0     H25118   8.982   1.677   4.745 -2.4224  0.2752  0.2520
  907MOL0     H25119   9.070   1.703   4.898  2.4859 -1.1405 -3.1840
  907MOL0     H25120   9.047   1.464   4.956 -0.3570 -3.3173 -0.9305
  907MOL0     H25121   8.965   1.423   4.811 -0.2648  0.5788 -1.8641
  907MOL0     H25122   9.248   1.512   4.834 -0.8378  1.3747  0.7181
  907MOL0     H25123   9.186   1.351   4.778  1.3618  0.8138 -0.9428
  907MOL0     H25124   9.008   1.293   4.656  0.9633 -3.2951 -1.7820
  907MOL0     H25125   8.865   1.101   4.382  1.5403  3.0211 -2.3577
  907MOL0     H25126   8.763   1.219   4.463  1.8089  2.9223  3.1853
  907MOL0     H25127   8.875   1.124   4.564  3.7136 -3.5251 -1.5420
  907MOL0     H25128   9.003   1.073   3.912 -1.8199 -1.3158  1.1020
  907MOL0     H25129   8.979   1.137   3.674 -3.0044  1.8101 -2.1733
  907MOL0     H25130   8.830   1.446   3.433 -0.4009  1.2285 -1.2973
  907MOL0     H25131   8.754   1.477   3.587  1.5134 -3.2475  0.8992
  907MOL0     H25132   8.848   1.702   3.538 -0.7896 -0.4133  1.1275
  907MOL0     H25133   9.003   1.620   3.599  1.1960  1.1111 -0.8240
  907MOL0     H25134   8.912   1.692   3.321 -1.6530 -2.8241 -0.4824
  907MOL0     H25135   9.011   1.545   3.348 -1.7680  0.4648 -0.5063
  907MOL0     H25136   9.102   1.806   3.457 -1.0975 -1.1608  1.6331
  907MOL0     H25137   9.120   1.770   3.287 -1.3126  3.0279  1.0315
  907MOL0     H25138   9.324   1.735   3.427 -0.2051 -0.5739  2.2954
  907MOL0     H25139   9.236   1.630   3.535 -2.1515 -1.6903 -0.2276
  907MOL0     H25140   9.277   1.591   3.246 -2.6020 -0.1155  0.2675
  907MOL0     H25141   9.204   1.464   3.354 -2.1530  2.6428  0.2852
  907MOL0     H25142   9.419   1.434   3.475 -4.3656  3.0349  0.6846
  907MOL0     H25143   9.498   1.558   3.380  0.7485 -1.0646 -2.0960
  907MOL0     H25144   9.458   1.380   3.173 -0.8176 -3.0246 -0.6401
  907MOL0     H25145   9.374   1.288   3.292  1.2073 -2.9133 -1.5722
  907MOL0     H25146   8.891   1.559   3.783 -0.1347  0.1440  0.3484
  907MOL0     H25147   8.908   1.473   4.032 -1.0195  2.1606 -1.2477
  907MOL0     H25148   9.116   1.461   4.213 -0.6427  1.3225  0.4098
  907MOL0     H25149   9.208   1.577   4.394  0.7053  0.0789  0.5644
  907MOL0     H25150   7.670   1.790   4.456 -0.2633 -1.6571  0.1327
  907MOL0     H25151   7.470   1.864   4.385  2.2038 -0.0131 -0.1914
  907MOL0     H25152   7.214   1.956   4.172 -0.2559  2.8419 -1.4793
  907MOL0     H25153   7.060   2.051   4.059  0.4652  2.2064  0.3336
  907MOL0     H25154   6.893   2.193   3.983  0.9348  0.4514 -0.6728
  907MOL0     H25155   6.744   2.084   4.010 -0.8653  0.6689  2.2071
  907MOL0     H25156   6.620   2.286   4.075 -0.3750 -0.6265 -0.0728
  907MOL0     H25157   6.642   2.269   3.900  0.4155  1.9346  0.3141
  907MOL0     H25158   6.813   2.438   4.087 -0.1230  1.6180  0.2868
  907MOL0     H25159   6.882   2.408   3.931  1.5692  0.7025  2.4492
  907MOL0     H25160   6.780   2.621   3.944  2.8946 -1.4405  1.8958
  907MOL0     H25161   6.620   2.552   4.004 -0.5885 -0.0695  0.1631
  907MOL0     H25162   6.556   2.464   3.597 -0.9617 -0.2286 -0.4304
  907MOL0     H25163   6.820   2.148   4.398  0.3772 -0.0290  0.4749
  907MOL0     H25164   6.944   1.879   4.612  0.4757  0.3231 -0.4123
  907MOL0     H25165   7.043   2.021   4.662  0.3727  0.6413 -0.5916
  907MOL0     H25166   6.869   2.035   4.616 -0.0642 -1.0557 -0.1400
  908MOL0     O25167   9.850   7.473   7.560 -0.4326  0.1726 -0.1345
  908MOL0     C25168   9.826   7.519   7.670  0.2424 -0.1251  0.1268
  908MOL0     O25169   9.904   7.509   7.779  0.1058  0.4161  0.1792
  908MOL0     C25170  10.031   7.448   7.785  0.8574  0.7307 -0.3984
  908MOL0     C25171  10.061   7.344   7.706  0.6598  0.6585 -1.5909
  908MOL0     C25172  10.194   7.294   7.707 -0.1672  0.5963 -0.3719
  908MOL0     C25173  10.294   7.356   7.791  0.1436  0.0441  0.0664
  908MOL0     O25174  10.425   7.307   7.776 -0.3294 -0.2351  0.8032
  908MOL0     C25175  10.527   7.401   7.818 -0.1450 -0.8794 -0.1484
  908MOL0     C25176  10.537   7.510   7.720 -0.0312  0.3800 -0.3673
  908MOL0     C25177  10.661   7.597   7.732  0.5734  0.5091 -0.7308
  908MOL0     C25178  10.688   7.665   7.865 -0.1186 -0.9293 -0.4534
  908MOL0     C25179  10.801   7.760   7.858  0.0736 -0.4483  0.3756
  908MOL0     C25180  10.816   7.848   7.984 -0.4140 -0.3343  0.4669
  908MOL0     C25181  10.953   7.892   8.008 -0.7159 -0.5258 -0.0005
  908MOL0     C25182  10.990   8.005   7.909  0.5057 -0.6649 -0.9042
  908MOL0     N25183  11.114   8.083   7.960 -0.2538  0.3661 -0.8116
  908MOL0     C25184  11.124   8.195   8.053  0.0854  0.1553  0.0208
  908MOL0     C25185  11.257   8.226   8.046  0.3233 -0.8600 -0.3751
  908MOL0     C25186  11.333   8.343   8.113 -1.1711 -0.7372 -0.7557
  908MOL0     C25187  11.308   8.334   8.268 -0.5914 -0.2809 -0.0097
  908MOL0     C25188  11.187   8.411   8.316 -0.2202 -1.1012 -0.8190
  908MOL0     C25189  11.172   8.418   8.471 -0.7956  0.7783 -0.0258
  908MOL0     O25190  11.045   8.370   8.522  0.1557 -0.5453 -0.3229
  908MOL0     C25191  10.940   8.466   8.533 -0.3696 -0.5162  0.3850
  908MOL0     C25192  10.818   8.421   8.559 -0.6308  0.0306 -0.6669
  908MOL0     C25193  10.709   8.505   8.588  0.4977  0.5774 -0.0561
  908MOL0     C25194  10.573   8.428   8.595  0.1524 -0.2111 -0.7117
  908MOL0     C25195  10.725   8.643   8.586  0.8575 -0.9733  0.3065
  908MOL0     C25196  10.620   8.742   8.618  0.0865 -0.9356 -0.5596
  908MOL0     O25197  10.496   8.704   8.585 -0.7337  1.0618  0.0366
  908MOL0     C25198  10.386   8.784   8.607 -0.6637 -0.8705 -0.0149
  908MOL0     C25199  10.350   8.889   8.521  0.2116 -0.2410  0.9468
  908MOL0     C25200  10.240   8.964   8.556 -0.3203 -0.3159  0.3805
  908MOL0     C25201  10.164   8.937   8.670  0.7136 -0.3094  0.1893
  908MOL0     O25202  10.050   9.005   8.716  0.1100  0.9636  0.2124
  908MOL0     C25203   9.988   9.094   8.622 -0.5531  0.6862 -0.5789
  908MOL0     C25204   9.856   9.152   8.693  0.1230  0.4773 -0.2539
  908MOL0     C25205   9.884   9.236   8.814 -0.2807  0.2299 -0.4740
  908MOL0     C25206   9.756   9.246   8.905  0.2892 -0.9530 -0.1303
  908MOL0     C25207   9.751   9.367   9.002  1.2319 -0.3824  0.1453
  908MOL0     C25208   9.610   9.425   9.044 -0.3205 -0.5038 -0.3353
  908MOL0     C25209   9.626   9.561   9.117 -0.5157 -1.0110 -0.1153
  908MOL0     C25210   9.505   9.647   9.103 -0.2081 -0.1360  0.0723
  908MOL0    Cl25211   9.523   9.691   8.926 -0.0804  0.0239 -0.2261
  908MOL0     C25212  10.213   8.836   8.752  0.4639 -0.0612  1.3292
  908MOL0     C25213  10.318   8.755   8.717  0.5029  0.0938 -0.5640
  908MOL0     O25214  10.646   8.856   8.663 -0.0735  0.8131 -0.1069
  908MOL0     C25215  10.849   8.697   8.564 -0.2705  0.6057  0.6024
  908MOL0     C25216  10.955   8.614   8.521  0.0767 -0.0705 -0.0812
  908MOL0     N25217  11.322   8.146   7.947  0.1149  0.6689 -0.9740
  908MOL0     N25218  11.237   8.067   7.901 -0.3900  0.7668  0.2713
  908MOL0     C25219  10.258   7.471   7.863  0.6868 -0.4739 -0.8032
  908MOL0     C25220  10.123   7.504   7.869 -1.3261  0.6121 -0.0895
  908MOL0     C25221   9.702   7.599   7.698  0.5500  0.4222  0.1296
  908MOL0     C25222   9.658   7.614   7.829  0.4724 -0.7944  0.4749
  908MOL0     C25223   9.553   7.703   7.857  0.6896  0.0899 -0.3272
  908MOL0     C25224   9.474   7.763   7.760 -0.3385  1.2031 -0.5296
  908MOL0     O25225   9.378   7.859   7.799  0.5272  0.2785 -0.0504
  908MOL0     C25226   9.294   7.911   7.713 -0.2649 -0.8402  0.3870
  908MOL0     C25227   9.351   8.022   7.623 -0.3351 -0.7031 -1.2101
  908MOL0     C25228   9.429   8.138   7.685  0.9438  0.2290  0.0725
  908MOL0     C25229   9.574   8.096   7.730  0.0582 -0.2578  0.4886
  908MOL0     C25230   9.675   8.075   7.622 -0.0310  0.5281  0.3458
  908MOL0     C25231   9.759   8.057   7.541 -0.8754 -0.5127 -0.7067
  908MOL0     C25232   9.506   7.724   7.630 -0.3860 -0.3422  0.1787
  908MOL0     C25233   9.623   7.651   7.597 -1.6908  0.6324 -0.7689
  908MOL0     C25234   9.626   7.616   7.450 -0.4253  0.2122 -0.6033
  908MOL0     H25235   9.988   7.292   7.645  0.8357 -3.8063  1.5606
  908MOL0     H25236  10.226   7.221   7.633 -1.2887  1.1639 -1.4463
  908MOL0     H25237  10.622   7.347   7.821 -1.1505 -2.6889  1.6525
  908MOL0     H25238  10.519   7.438   7.921  0.4265  4.3336 -1.6916
  908MOL0     H25239  10.550   7.453   7.628  1.2026 -2.2732  1.3279
  908MOL0     H25240  10.451   7.578   7.728 -0.0557  0.3336 -0.2265
  908MOL0     H25241  10.748   7.542   7.695 -0.3564 -1.3301 -0.2841
  908MOL0     H25242  10.650   7.673   7.654  0.4030  1.1682 -0.0738
  908MOL0     H25243  10.598   7.720   7.892  0.4332  0.4455 -1.2835
  908MOL0     H25244  10.712   7.597   7.947 -1.1589 -0.6485  0.0959
  908MOL0     H25245  10.777   7.824   7.772 -1.4625 -1.7116 -0.1736
  908MOL0     H25246  10.894   7.702   7.853  0.7612  0.3348  2.6869
  908MOL0     H25247  10.760   7.942   7.975  0.5384  0.2724  0.7157
  908MOL0     H25248  10.774   7.792   8.068  0.1960  0.3014  1.2139
  908MOL0     H25249  11.031   7.815   8.007 -1.6574 -1.5025  0.3769
  908MOL0     H25250  10.958   7.943   8.104  0.4322  0.1612 -0.3978
  908MOL0     H25251  11.025   7.956   7.817 -1.4881 -4.1649  0.0323
  908MOL0     H25252  10.906   8.074   7.895  0.6350  0.3223  2.3947
  908MOL0     H25253  11.049   8.236   8.121  1.7919  1.9728  0.9153
  908MOL0     H25254  11.300   8.446   8.093  0.9204  0.7269  2.5397
  908MOL0     H25255  11.442   8.335   8.102 -1.1285  0.3190 -1.2565
  908MOL0     H25256  11.319   8.234   8.310  1.7221 -1.2196 -2.5532
  908MOL0     H25257  11.391   8.391   8.312  1.5987 -2.2854 -1.3010
  908MOL0     H25258  11.210   8.510   8.274 -0.2123 -0.0357  1.5269
  908MOL0     H25259  11.093   8.387   8.266 -0.8515 -1.3300  0.4423
  908MOL0     H25260  11.255   8.358   8.510 -2.9732 -0.9367  2.4140
  908MOL0     H25261  11.191   8.519   8.508 -0.6650  1.5908 -2.2124
  908MOL0     H25262  10.820   8.314   8.574  0.2004  0.1710  0.3817
  908MOL0     H25263  10.496   8.481   8.651  1.5214 -0.2054  1.2680
  908MOL0     H25264  10.589   8.330   8.642  1.3042  0.8039  1.1367
  908MOL0     H25265  10.536   8.407   8.494  0.9855  3.8760 -2.0735
  908MOL0     H25266  10.407   8.908   8.431 -0.0768  3.1969  1.3612
  908MOL0     H25267  10.213   9.038   8.481 -0.8815 -1.7392 -0.8761
  908MOL0     H25268  10.049   9.178   8.588  2.0868 -0.7600  0.3132
  908MOL0     H25269   9.949   9.030   8.542  0.2510 -0.5185 -0.0374
  908MOL0     H25270   9.791   9.191   8.614 -2.7737 -1.6400  0.9050
  908MOL0     H25271   9.812   9.053   8.711  0.9320 -0.2634 -2.0710
  908MOL0     H25272   9.892   9.342   8.791 -1.8408  0.6336  0.6121
  908MOL0     H25273   9.979   9.202   8.856 -0.1903 -0.0827 -0.9290
  908MOL0     H25274   9.743   9.154   8.962  0.6331 -0.6069  0.5271
  908MOL0     H25275   9.665   9.259   8.846  2.0322  0.3471 -2.7442
  908MOL0     H25276   9.806   9.351   9.095 -3.0738  0.4247  3.1309
  908MOL0     H25277   9.803   9.455   8.963 -0.5257  1.5845  2.0119
  908MOL0     H25278   9.550   9.354   9.102 -0.9617  1.8147  2.0751
  908MOL0     H25279   9.545   9.438   8.957  0.3831  4.2106 -0.4542
  908MOL0     H25280   9.701   9.621   9.065 -2.4150  2.0028  0.3326
  908MOL0     H25281   9.652   9.554   9.223 -4.0084  2.6362  1.2728
  908MOL0     H25282   9.510   9.740   9.161  2.5624  0.6561 -1.2605
  908MOL0     H25283   9.416   9.587   9.122 -1.0326  0.4681 -1.6719
  908MOL0     H25284  10.160   8.808   8.843  2.0578  0.4171  2.4405
  908MOL0     H25285  10.353   8.676   8.783 -3.2800 -0.0890  1.4729
  908MOL0     H25286  10.884   8.800   8.556  2.1262 -0.2684 -2.9156
  908MOL0     H25287  11.052   8.648   8.489  0.6551 -2.2313 -0.7600
  908MOL0     H25288  10.334   7.524   7.919  1.6311 -2.3747 -0.2196
  908MOL0     H25289  10.101   7.587   7.936 -0.1730  2.2461 -1.6602
  908MOL0     H25290   9.704   7.558   7.910 -0.8100 -0.8798  1.1730
  908MOL0     H25291   9.515   7.718   7.958 -0.9413 -0.3532 -0.8428
  908MOL0     H25292   9.262   7.828   7.650 -0.3671  1.1846 -2.4659
  908MOL0     H25293   9.206   7.941   7.770 -1.1804 -1.0025 -0.8960
  908MOL0     H25294   9.263   8.069   7.578 -1.1242 -2.2279 -1.3041
  908MOL0     H25295   9.400   7.984   7.533 -1.5179  1.2891 -2.7908
  908MOL0     H25296   9.432   8.220   7.612  0.0092 -0.3777 -0.6846
  908MOL0     H25297   9.362   8.177   7.762 -1.4270 -1.0214 -1.2222
  908MOL0     H25298   9.586   8.013   7.800  3.1643 -2.2421 -2.1201
  908MOL0     H25299   9.595   8.186   7.789 -3.4727  1.9678 -1.3156
  908MOL0     H25300   9.846   8.039   7.480  2.6329 -1.3906  3.9529
  908MOL0     H25301   9.423   7.725   7.561 -0.3972 -2.9755  0.0681
  908MOL0     H25302   9.550   7.658   7.384 -0.3692 -5.1822 -4.7822
  908MOL0     H25303   9.726   7.640   7.414  0.6232 -2.4115  0.2806
  908MOL0     H25304   9.603   7.510   7.434 -1.6331  0.6159 -1.7050
  909MOL0     O25305   8.364  11.466   4.119 -0.3592 -0.2351  0.1774
  909MOL0     C25306   8.446  11.469   4.022  0.8649 -0.0389  0.2840
  909MOL0     O25307   8.430  11.532   3.903 -0.2124 -0.0998  0.4240
  909MOL0     C25308   8.311  11.527   3.833  0.0434 -0.7222  0.1378
  909MOL0     C25309   8.295  11.611   3.728 -0.8908 -0.2953  0.4902
  909MOL0     C25310   8.184  11.610   3.644 -1.0108 -0.7106  0.2705
  909MOL0     C25311   8.065  11.541   3.680  0.5888  0.0756 -0.5519
  909MOL0     O25312   7.956  11.537   3.601 -0.4838  0.2841 -0.5248
  909MOL0     C25313   7.873  11.650   3.604 -0.4019  0.7301 -0.2220
  909MOL0     C25314   7.799  11.646   3.469 -0.4516  0.3169 -0.5378
  909MOL0     C25315   7.895  11.696   3.360 -0.2907  0.0292 -0.7254
  909MOL0     C25316   7.852  11.667   3.226 -0.1857  0.7646  0.4883
  909MOL0     C25317   7.890  11.525   3.184 -0.2523  0.8760  0.8264
  909MOL0     C25318   8.011  11.512   3.095 -0.1182 -0.6259  0.0434
  909MOL0     C25319   8.033  11.372   3.043  0.4346  0.5637  0.7874
  909MOL0     C25320   8.142  11.363   2.936  0.3927 -0.9069  0.2685
  909MOL0     N25321   8.271  11.394   2.993 -0.6165 -0.1281  0.5817
  909MOL0     C25322   8.345  11.313   3.078 -0.4186  0.2514  0.3179
  909MOL0     C25323   8.462  11.383   3.109 -0.0568 -0.0322  0.5963
  909MOL0     C25324   8.557  11.374   3.224  0.8671 -0.2101  1.0156
  909MOL0     C25325   8.511  11.424   3.358  1.0595  0.7590 -1.7023
  909MOL0     C25326   8.479  11.575   3.372  0.1855  0.1729 -0.3602
  909MOL0     C25327   8.376  11.631   3.269  0.3905 -0.3567  0.5111
  909MOL0     O25328   8.326  11.760   3.312  0.5297 -0.1363  0.6813
  909MOL0     C25329   8.244  11.828   3.226 -0.2399 -0.0230  0.4286
  909MOL0     C25330   8.168  11.923   3.283 -0.6775 -0.0358 -0.2782
  909MOL0     C25331   8.069  12.000   3.218 -0.0342  0.7262 -0.2138
  909MOL0     C25332   8.002  12.100   3.294 -0.0252 -0.3730  0.0175
  909MOL0     C25333   8.053  11.972   3.081  0.1062 -0.3099  0.0068
  909MOL0     C25334   7.960  12.045   3.002 -0.7494 -0.1549 -0.1982
  909MOL0     O25335   8.019  12.157   2.941 -0.4943  0.0529  0.3336
  909MOL0     C25336   7.960  12.251   2.878 -0.0048  0.9868  0.4129
  909MOL0     C25337   7.835  12.300   2.909 -0.6274 -0.5934  0.4942
  909MOL0     C25338   7.776  12.403   2.835 -0.1660  0.4449  0.2688
  909MOL0     C25339   7.845  12.466   2.733  0.8296 -0.5915 -0.0391
  909MOL0     O25340   7.768  12.544   2.648 -0.2060  0.2350 -0.5789
  909MOL0     C25341   7.833  12.663   2.592  0.3373  0.4238 -0.3895
  909MOL0     C25342   7.724  12.741   2.514  0.4260  0.4426 -0.2367
  909MOL0     C25343   7.767  12.886   2.503  0.9044  0.0785  0.4786
  909MOL0     C25344   7.648  12.970   2.441  0.5986 -0.1140 -0.7742
  909MOL0     C25345   7.696  13.115   2.411  0.2026  0.3707 -0.2177
  909MOL0     C25346   7.588  13.216   2.421  0.0469 -0.9246  0.6726
  909MOL0     C25347   7.539  13.237   2.562 -0.5613 -0.0919 -0.6901
  909MOL0     C25348   7.629  13.300   2.665  0.4397  0.0858 -0.0490
  909MOL0    Cl25349   7.665  13.457   2.594  0.3806  0.3151  0.3968
  909MOL0     C25350   7.976  12.418   2.705 -0.0461 -0.8784  0.1607
  909MOL0     C25351   8.031  12.315   2.781 -0.6465  0.0164  0.7914
  909MOL0     O25352   7.845  12.020   2.992  0.7030  0.5519 -0.0301
  909MOL0     C25353   8.128  11.873   3.020  1.3316  1.1299  1.0938
  909MOL0     C25354   8.238  11.803   3.086 -0.2938 -0.4840  0.0064
  909MOL0     N25355   8.470  11.480   3.016  0.0351 -0.3175 -0.2287
  909MOL0     N25356   8.355  11.498   2.960  0.2166  0.8202 -0.1872
  909MOL0     C25357   8.083  11.449   3.794  0.2728  0.3145  0.1729
  909MOL0     C25358   8.202  11.452   3.869  0.9458 -0.4206  0.8993
  909MOL0     C25359   8.582  11.399   4.037  0.8530  0.2759 -0.0990
  909MOL0     C25360   8.658  11.405   3.925  0.7149 -0.5801 -0.4524
  909MOL0     C25361   8.768  11.319   3.917  0.8338  0.0494  0.4222
  909MOL0     C25362   8.807  11.227   4.015 -0.0971 -0.3397 -0.0652
  909MOL0     O25363   8.919  11.151   3.995 -0.7905 -0.3759 -0.2613
  909MOL0     C25364   8.958  11.090   4.122  0.1036 -0.8904 -0.7333
  909MOL0     C25365   9.098  11.017   4.113  0.5828 -0.2325 -1.5006
  909MOL0     C25366   9.198  11.128   4.079 -0.0632  0.5380  0.0635
  909MOL0     C25367   9.228  11.210   4.204 -0.8931  0.5070  0.8921
  909MOL0     C25368   9.307  11.138   4.306  1.0732 -0.0165  0.9232
  909MOL0     C25369   9.371  11.086   4.395  0.4182  0.3390  0.7992
  909MOL0     C25370   8.719  11.225   4.130 -0.4673  0.0047  0.4330
  909MOL0     C25371   8.618  11.314   4.153 -0.1586 -0.1367  1.1470
  909MOL0     C25372   8.542  11.314   4.283 -0.1421  0.1413  0.2466
  909MOL0     H25373   8.367  11.685   3.695  1.3405 -1.2396  2.9176
  909MOL0     H25374   8.174  11.659   3.548  4.4597  0.4677 -0.0517
  909MOL0     H25375   7.935  11.736   3.630 -0.0432  0.4241 -0.0441
  909MOL0     H25376   7.804  11.640   3.688  0.4253  0.3521  0.4264
  909MOL0     H25377   7.779  11.543   3.438 -0.6614 -0.2171  1.2678
  909MOL0     H25378   7.704  11.700   3.478 -0.0168  0.9465  0.3509
  909MOL0     H25379   7.908  11.803   3.381  0.1366 -0.5983  2.8997
  909MOL0     H25380   7.996  11.659   3.380 -0.8975 -0.4069  1.9319
  909MOL0     H25381   7.744  11.661   3.216  0.1264 -2.2253 -3.3051
  909MOL0     H25382   7.886  11.744   3.155 -1.0545  0.7601  0.0529
  909MOL0     H25383   7.804  11.485   3.128 -0.0245 -0.6627  1.5130
  909MOL0     H25384   7.892  11.463   3.274 -0.7166 -3.4751 -1.8472
  909MOL0     H25385   8.005  11.579   3.008  2.3737 -3.1098 -2.2501
  909MOL0     H25386   8.102  11.553   3.139  0.4763  0.0845 -1.7377
  909MOL0     H25387   7.935  11.337   3.009 -0.3909  1.5919  2.0067
  909MOL0     H25388   8.048  11.308   3.130 -0.3030 -1.8940 -0.8011
  909MOL0     H25389   8.143  11.261   2.897  1.3316 -0.2468 -1.5372
  909MOL0     H25390   8.110  11.423   2.851 -2.4156 -0.7151  1.3409
  909MOL0     H25391   8.313  11.221   3.127  1.3917 -0.8339 -0.4429
  909MOL0     H25392   8.641  11.433   3.186  1.4475 -0.7342  1.4778
  909MOL0     H25393   8.590  11.270   3.224  2.1724  0.1892  0.3568
  909MOL0     H25394   8.420  11.376   3.396  1.5507 -0.3103 -1.8111
  909MOL0     H25395   8.584  11.402   3.437 -0.5088  2.9007  0.4593
  909MOL0     H25396   8.438  11.599   3.471  4.5946  0.6037  1.6333
  909MOL0     H25397   8.577  11.624   3.371  1.7377 -2.6095  1.1226
  909MOL0     H25398   8.423  11.645   3.171  0.1666 -0.0343  0.4490
  909MOL0     H25399   8.293  11.564   3.247 -2.8433  3.4205  0.0730
  909MOL0     H25400   8.182  11.930   3.390 -4.2690  0.8373  0.2767
  909MOL0     H25401   8.076  12.144   3.361  0.7291 -1.5236 -0.0473
  909MOL0     H25402   7.929  12.052   3.360 -1.4481 -0.4418 -1.5270
  909MOL0     H25403   7.962  12.179   3.229  0.2360 -0.6865 -0.5286
  909MOL0     H25404   7.764  12.249   2.973 -2.0322  1.1225  0.3831
  909MOL0     H25405   7.674  12.436   2.856 -0.7450  0.8873 -2.8296
  909MOL0     H25406   7.867  12.728   2.673  0.6055  0.2812 -0.3871
  909MOL0     H25407   7.913  12.639   2.521 -1.3607 -0.7412 -2.0135
  909MOL0     H25408   7.708  12.701   2.414 -0.4091  2.8337 -1.1257
  909MOL0     H25409   7.627  12.736   2.564 -0.2467 -1.3675 -1.6413
  909MOL0     H25410   7.861  12.898   2.448  0.8746  2.2550  0.7900
  909MOL0     H25411   7.791  12.920   2.604  1.9374 -1.3571  0.7463
  909MOL0     H25412   7.558  12.965   2.504 -1.1637  0.4746 -3.0819
  909MOL0     H25413   7.622  12.926   2.345 -1.7143 -0.7339  0.0778
  909MOL0     H25414   7.788  13.136   2.467  0.7055 -2.2873  0.0946
  909MOL0     H25415   7.730  13.114   2.307  1.7375  2.8239  0.1770
  909MOL0     H25416   7.507  13.194   2.350 -2.3406  1.7167  2.3577
  909MOL0     H25417   7.633  13.309   2.385  1.7609 -1.5885  1.0017
  909MOL0     H25418   7.507  13.143   2.610  2.0804 -0.4056  0.5921
  909MOL0     H25419   7.456  13.306   2.540  2.3856  2.9225 -3.5323
  909MOL0     H25420   7.714  13.236   2.690  1.7524  1.5713 -0.5467
  909MOL0     H25421   7.582  13.308   2.764 -0.2486  0.4283 -0.3945
  909MOL0     H25422   8.039  12.463   2.629 -2.1013  2.4705  0.2119
  909MOL0     H25423   8.134  12.286   2.761 -1.6167 -1.8879 -2.0491
  909MOL0     H25424   8.114  11.832   2.921  2.1134  0.0991  1.3912
  909MOL0     H25425   8.315  11.749   3.032  1.5924  2.4922 -0.5070
  909MOL0     H25426   8.002  11.382   3.820 -1.7904  2.4827 -0.3522
  909MOL0     H25427   8.203  11.386   3.955  1.9812 -0.1983  1.0668
  909MOL0     H25428   8.640  11.456   3.831  0.1838 -1.9611 -1.1340
  909MOL0     H25429   8.825  11.317   3.824  2.0638 -1.1647  1.1712
  909MOL0     H25430   8.959  11.170   4.197 -1.0710  0.9535 -2.5471
  909MOL0     H25431   8.889  11.010   4.148 -1.5447 -0.7325 -4.0845
  909MOL0     H25432   9.096  10.935   4.041 -1.0559 -0.6607 -1.0241
  909MOL0     H25433   9.125  10.975   4.210 -1.6764 -0.1251 -0.7532
  909MOL0     H25434   9.292  11.081   4.049 -0.9111 -0.1108 -1.7185
  909MOL0     H25435   9.171  11.197   3.999  0.3671  0.9097  0.2333
  909MOL0     H25436   9.133  11.253   4.237 -1.3394  1.0756 -1.0064
  909MOL0     H25437   9.292  11.289   4.163  3.3589 -1.5852  2.8495
  909MOL0     H25438   9.425  11.038   4.474  1.2315 -2.0943 -1.1049
  909MOL0     H25439   8.730  11.161   4.217 -0.3858 -0.0644  0.3725
  909MOL0     H25440   8.506  11.413   4.313  0.1840 -0.0076  1.1426
  909MOL0     H25441   8.473  11.228   4.282  0.4059 -0.3017  0.4556
  909MOL0     H25442   8.619  11.280   4.352 -1.8712 -1.2847  1.5940
  910MOL0     O25443   6.668   2.680   1.971 -0.1934  0.1232  0.3315
  910MOL0     C25444   6.600   2.671   1.869 -0.8932  0.0239  0.1172
  910MOL0     O25445   6.467   2.700   1.871  0.8296  0.9942  0.2548
  910MOL0     C25446   6.410   2.746   1.994  0.0005  0.2671  0.0033
  910MOL0     C25447   6.304   2.676   2.055  0.4051  0.5006 -0.1967
  910MOL0     C25448   6.243   2.721   2.168  0.2596  0.4471 -0.6194
  910MOL0     C25449   6.273   2.841   2.224 -0.1695 -0.8208 -0.0368
  910MOL0     O25450   6.200   2.888   2.330 -0.7717 -0.8309 -0.3113
  910MOL0     C25451   6.200   2.799   2.437  0.5324 -0.1354 -0.2234
  910MOL0     C25452   6.175   2.888   2.565 -0.2058  0.3887  0.9995
  910MOL0     C25453   6.171   2.799   2.689  0.3298  0.2997  0.6266
  910MOL0     C25454   6.020   2.766   2.710 -0.2310  0.5925  0.4316
  910MOL0     C25455   5.926   2.886   2.760 -0.1442  0.2740 -0.5562
  910MOL0     C25456   5.782   2.836   2.795  0.3032 -0.1818  0.3136
  910MOL0     C25457   5.709   2.948   2.859  0.3539 -0.1545  0.1032
  910MOL0     C25458   5.566   2.890   2.891  0.1749  0.5974 -0.8510
  910MOL0     N25459   5.484   2.956   2.995  0.7006  1.0040  0.0844
  910MOL0     C25460   5.468   3.091   3.008 -0.4194 -0.1364 -0.1476
  910MOL0     C25461   5.407   3.105   3.129 -0.1361  0.7991 -0.3199
  910MOL0     C25462   5.349   3.240   3.193 -0.2667  0.6633  0.5475
  910MOL0     C25463   5.455   3.296   3.286 -1.2008 -0.1406  0.3801
  910MOL0     C25464   5.494   3.197   3.392  0.0877  0.5349 -1.0235
  910MOL0     C25465   5.385   3.153   3.482  0.6371  0.0137  1.0465
  910MOL0     O25466   5.340   3.260   3.563 -0.1177 -0.1530  0.1887
  910MOL0     C25467   5.241   3.220   3.647  0.4877 -0.0556  0.2203
  910MOL0     C25468   5.113   3.256   3.612  0.6489 -0.1585  0.5610
  910MOL0     C25469   5.001   3.239   3.700  1.0826  0.4508  0.9787
  910MOL0     C25470   4.858   3.279   3.654 -0.6293 -1.1062  0.4057
  910MOL0     C25471   5.031   3.180   3.827 -0.0990  0.1161  0.0820
  910MOL0     C25472   4.928   3.113   3.914 -0.0638  0.1643  0.0037
  910MOL0     O25473   4.967   3.076   4.037  0.6169  0.7867  0.2982
  910MOL0     C25474   4.858   3.052   4.123  0.2344 -0.3549  0.0233
  910MOL0     C25475   4.766   3.151   4.156 -0.1402 -0.7418 -0.7791
  910MOL0     C25476   4.681   3.133   4.263 -0.5231  0.9063 -0.1685
  910MOL0     C25477   4.687   3.022   4.346  0.0386  0.3493 -0.9194
  910MOL0     O25478   4.592   3.013   4.443 -0.1754  1.1741 -1.2144
  910MOL0     C25479   4.575   2.881   4.505 -0.2983 -0.3215  0.5757
  910MOL0     C25480   4.469   2.886   4.615  0.2400 -0.0320 -0.2167
  910MOL0     C25481   4.323   2.940   4.560  0.5184 -0.6329  0.0951
  910MOL0     C25482   4.205   2.859   4.609 -0.0420  0.5791 -0.8150
  910MOL0     C25483   4.083   2.951   4.620 -0.4234 -0.1968  0.4751
  910MOL0     C25484   3.945   2.891   4.640 -0.1793  0.5328 -0.4663
  910MOL0     C25485   3.830   2.995   4.624  0.2553  0.5067  0.1905
  910MOL0     C25486   3.855   3.128   4.693  0.3017 -0.0384 -0.4290
  910MOL0    Cl25487   3.728   3.243   4.639  0.2830  0.0051 -0.3617
  910MOL0     C25488   4.780   2.921   4.314 -0.1308 -0.2858  0.4178
  910MOL0     C25489   4.866   2.941   4.201  0.8337  0.6137 -0.3338
  910MOL0     O25490   4.810   3.120   3.878 -0.0641  0.5519 -0.3149
  910MOL0     C25491   5.167   3.153   3.861  0.0715 -0.5861  0.1126
  910MOL0     C25492   5.270   3.175   3.777 -0.5959  0.2327  0.1077
  910MOL0     N25493   5.400   2.979   3.179 -0.3799 -0.3451 -0.0426
  910MOL0     N25494   5.442   2.890   3.106 -0.3122  0.5023  0.0320
  910MOL0     C25495   6.377   2.912   2.168 -0.2996  0.0259 -0.1392
  910MOL0     C25496   6.439   2.873   2.054  0.0911 -0.5417 -1.1092
  910MOL0     C25497   6.674   2.637   1.742  0.4210 -0.3904 -0.3528
  910MOL0     C25498   6.592   2.606   1.626 -0.0093  0.1115 -0.0417
  910MOL0     C25499   6.646   2.576   1.503  0.5719 -0.8287  0.1320
  910MOL0     C25500   6.774   2.586   1.478  0.2946 -0.3961  0.4987
  910MOL0     O25501   6.816   2.537   1.357 -0.5047  0.6162  0.3281
  910MOL0     C25502   6.949   2.511   1.333 -0.7838 -0.3319  0.1453
  910MOL0     C25503   6.967   2.420   1.218  0.1096 -0.0191 -0.4717
  910MOL0     C25504   6.896   2.280   1.231 -0.5423  0.5359  0.4586
  910MOL0     C25505   6.908   2.201   1.101 -1.1561  0.1476 -0.0212
  910MOL0     C25506   6.889   2.060   1.137  0.9521  0.4987 -0.5719
  910MOL0     C25507   6.880   1.936   1.161 -0.1445  0.5220 -0.6225
  910MOL0     C25508   6.854   2.632   1.587  0.5773  0.4941 -0.2094
  910MOL0     C25509   6.807   2.665   1.711 -0.4959  0.9696 -0.5116
  910MOL0     C25510   6.918   2.715   1.813  0.5879 -0.2121  0.3894
  910MOL0     H25511   6.277   2.580   2.011  0.0557  0.2777  0.4830
  910MOL0     H25512   6.161   2.667   2.213  1.2263 -0.6692 -0.1549
  910MOL0     H25513   6.291   2.744   2.462 -0.3346 -0.0526  3.9786
  910MOL0     H25514   6.109   2.738   2.437  1.8158 -2.2498 -2.5911
  910MOL0     H25515   6.252   2.965   2.578  0.0516  0.8296 -2.3029
  910MOL0     H25516   6.084   2.948   2.559 -0.2339  0.4046  1.5463
  910MOL0     H25517   6.235   2.712   2.669 -0.1335 -0.5485  2.5638
  910MOL0     H25518   6.211   2.850   2.777  1.9320 -0.0651  0.1509
  910MOL0     H25519   5.976   2.716   2.623  0.6549  0.3801  0.0928
  910MOL0     H25520   6.020   2.687   2.786  0.1117  0.4750  0.3091
  910MOL0     H25521   5.911   2.970   2.691 -0.5169 -1.2055 -2.3646
  910MOL0     H25522   5.961   2.921   2.858 -4.1413 -5.0772  3.3939
  910MOL0     H25523   5.732   2.797   2.706 -1.6816  0.8102  0.9357
  910MOL0     H25524   5.780   2.759   2.873 -1.0843 -0.9181 -0.3960
  910MOL0     H25525   5.707   3.039   2.797  4.6583 -1.1335 -1.8325
  910MOL0     H25526   5.753   2.965   2.958 -3.6932  0.1442  2.0540
  910MOL0     H25527   5.511   2.882   2.797 -0.4808  0.4160 -0.4587
  910MOL0     H25528   5.577   2.786   2.920  3.0520  1.2413  0.7508
  910MOL0     H25529   5.473   3.169   2.932 -1.3171  1.9609  1.8309
  910MOL0     H25530   5.253   3.224   3.244 -0.1562  0.2848  0.6449
  910MOL0     H25531   5.333   3.312   3.112  1.5838 -0.3120 -0.7704
  910MOL0     H25532   5.548   3.323   3.236 -0.4848  1.6852  2.5271
  910MOL0     H25533   5.421   3.388   3.334  3.9564  2.9646 -1.0801
  910MOL0     H25534   5.529   3.098   3.361 -0.3475  0.1285 -0.2591
  910MOL0     H25535   5.577   3.237   3.452  0.3028 -1.1351 -0.1474
  910MOL0     H25536   5.303   3.104   3.428  0.9027 -0.7901  1.3425
  910MOL0     H25537   5.416   3.076   3.554 -1.2482  1.4643  3.5970
  910MOL0     H25538   5.091   3.301   3.515  1.3775 -1.8063 -0.3966
  910MOL0     H25539   4.852   3.333   3.560 -4.3985  2.7897  2.5242
  910MOL0     H25540   4.809   3.348   3.724  2.3611  3.3238 -1.4818
  910MOL0     H25541   4.808   3.183   3.641 -0.3011 -1.3669  0.9974
  910MOL0     H25542   4.769   3.248   4.108 -0.5164  0.2724  1.1376
  910MOL0     H25543   4.608   3.206   4.296  1.0552  2.0696  0.9022
  910MOL0     H25544   4.542   2.808   4.431  1.0687  1.2983 -1.7812
  910MOL0     H25545   4.675   2.856   4.542  0.7003  0.3024 -1.5317
  910MOL0     H25546   4.451   2.795   4.673 -2.8520  0.8008  0.3135
  910MOL0     H25547   4.517   2.961   4.678 -0.0915 -1.6801  2.0991
  910MOL0     H25548   4.337   2.947   4.452 -0.0018 -0.7613  0.0207
  910MOL0     H25549   4.318   3.044   4.594  2.0370 -0.0978 -1.1959
  910MOL0     H25550   4.232   2.818   4.707 -0.2630  1.9034 -0.1783
  910MOL0     H25551   4.185   2.785   4.531 -0.9121  3.4049 -3.4501
  910MOL0     H25552   4.104   3.022   4.701  1.3671  0.4415 -0.4896
  910MOL0     H25553   4.076   2.994   4.519 -0.1458 -0.8517  0.1703
  910MOL0     H25554   3.934   2.862   4.745 -1.6021  0.8446 -0.5087
  910MOL0     H25555   3.928   2.807   4.572  2.6666 -2.6116  2.2970
  910MOL0     H25556   3.738   2.947   4.659 -0.5294  1.7529 -0.1120
  910MOL0     H25557   3.819   3.017   4.518 -1.4608  0.5604  0.3487
  910MOL0     H25558   3.954   3.164   4.663 -0.1766  0.7584 -1.1151
  910MOL0     H25559   3.850   3.112   4.801 -0.0781  2.1840 -0.0653
  910MOL0     H25560   4.771   2.822   4.356  1.8237 -0.4862  0.4513
  910MOL0     H25561   4.925   2.855   4.170  3.0448  2.2551 -0.9129
  910MOL0     H25562   5.183   3.094   3.951 -3.7050  3.1916  3.6848
  910MOL0     H25563   5.368   3.143   3.809 -0.3167  0.8295 -0.1440
  910MOL0     H25564   6.409   3.005   2.215  0.8825  1.1031 -2.8503
  910MOL0     H25565   6.528   2.930   2.026 -1.6404  2.3900 -1.0310
  910MOL0     H25566   6.484   2.604   1.638  0.0703  0.4736  0.7710
  910MOL0     H25567   6.586   2.532   1.425  1.6438 -1.5085 -0.3355
  910MOL0     H25568   7.013   2.599   1.318  0.6374 -1.0771  1.4957
  910MOL0     H25569   6.997   2.472   1.424  0.4583  2.8343  1.0070
  910MOL0     H25570   7.076   2.413   1.208  0.0289 -0.4373 -1.0915
  910MOL0     H25571   6.931   2.466   1.126 -2.1876 -2.6252 -1.0074
  910MOL0     H25572   6.932   2.226   1.318  4.7363 -0.3587 -1.8918
  910MOL0     H25573   6.790   2.299   1.252 -0.4695  0.5173  0.8391
  910MOL0     H25574   7.004   2.222   1.054  1.8112 -3.3406  3.6902
  910MOL0     H25575   6.832   2.229   1.028 -0.9960  0.6217 -0.0086
  910MOL0     H25576   6.868   1.829   1.165 -0.3121  0.5083 -1.4459
  910MOL0     H25577   6.962   2.624   1.582  0.4329 -2.3505 -0.6931
  910MOL0     H25578   6.907   2.822   1.829  2.3568  0.1360 -0.5289
  910MOL0     H25579   6.906   2.668   1.912 -0.4875 -0.1820  0.2900
  910MOL0     H25580   7.018   2.694   1.775  0.0693 -0.7273 -0.7367
  911MOL0     O25581   5.728   0.718   7.484 -0.1188 -0.7538  0.3995
  911MOL0     C25582   5.780   0.609   7.481 -0.1114 -0.3151  0.6601
  911MOL0     O25583   5.787   0.513   7.585 -0.4125  0.3287  0.8927
  911MOL0     C25584   5.712   0.547   7.699 -0.5258 -0.2412  0.2526
  911MOL0     C25585   5.778   0.579   7.817  0.9739  0.5734  0.5698
  911MOL0     C25586   5.702   0.612   7.933 -0.8471  0.0764 -0.5932
  911MOL0     C25587   5.561   0.601   7.940 -1.2473 -0.3010  0.5572
  911MOL0     O25588   5.463   0.627   8.038 -0.4031  0.4531  0.2394
  911MOL0     C25589   5.515   0.655   8.165  1.2017  0.4651 -0.2411
  911MOL0     C25590   5.560   0.799   8.187 -0.3100 -0.1232  0.7623
  911MOL0     C25591   5.438   0.896   8.157 -0.4367 -1.5075 -0.1504
  911MOL0     C25592   5.496   1.040   8.142 -0.2413  0.0984  0.5222
  911MOL0     C25593   5.392   1.145   8.174  0.2192  0.6667 -0.5474
  911MOL0     C25594   5.437   1.283   8.140 -0.4010 -0.8162  0.0289
  911MOL0     C25595   5.453   1.319   7.988  0.6992 -0.3797  0.2294
  911MOL0     C25596   5.500   1.464   7.957 -0.3661  0.1561 -1.2686
  911MOL0     N25597   5.652   1.479   7.964 -0.2687 -0.4424  0.1847
  911MOL0     C25598   5.745   1.385   8.011  0.0017  0.4215 -0.1885
  911MOL0     C25599   5.862   1.451   8.026  0.1498 -0.4034  0.4183
  911MOL0     C25600   5.980   1.382   8.092 -0.3356  0.1639  0.4939
  911MOL0     C25601   6.058   1.296   7.987  0.0565 -0.7419  0.9831
  911MOL0     C25602   6.176   1.212   8.055 -0.5994 -0.2646  0.7683
  911MOL0     C25603   6.296   1.190   7.953 -0.5580 -0.0968  0.4300
  911MOL0     O25604   6.409   1.152   8.030 -0.1481  0.8929  0.9131
  911MOL0     C25605   6.540   1.168   7.992  0.5211 -0.2109 -1.4107
  911MOL0     C25606   6.627   1.139   8.093  0.4781  0.2017 -0.7644
  911MOL0     C25607   6.761   1.144   8.084 -0.5046  0.0577  0.7252
  911MOL0     C25608   6.819   1.102   8.213  0.5108  0.5531  0.0996
  911MOL0     C25609   6.816   1.203   7.969  0.0945 -0.3653  1.4968
  911MOL0     C25610   6.957   1.208   7.938  0.3040  0.0212  0.4365
  911MOL0     O25611   7.003   1.159   7.817 -0.5198  0.8024  0.5479
  911MOL0     C25612   7.135   1.183   7.792  0.2064  0.1473  0.1434
  911MOL0     C25613   7.159   1.271   7.691 -0.6902  0.0999 -0.1458
  911MOL0     C25614   7.295   1.298   7.656 -0.3274 -0.5899 -0.8462
  911MOL0     C25615   7.408   1.233   7.713 -0.0710  0.6052 -0.5311
  911MOL0     O25616   7.541   1.266   7.691 -0.5017 -0.2578  0.6142
  911MOL0     C25617   7.584   1.379   7.621 -0.4988  0.0390  0.2272
  911MOL0     C25618   7.606   1.355   7.475  0.5533 -0.4897  0.5801
  911MOL0     C25619   7.546   1.471   7.392  1.3170  0.3167  0.1264
  911MOL0     C25620   7.533   1.437   7.246 -0.5164  1.0521 -0.5787
  911MOL0     C25621   7.418   1.355   7.190  0.7563  0.6977 -0.1324
  911MOL0     C25622   7.437   1.342   7.043  0.0533 -0.0150  1.9849
  911MOL0     C25623   7.310   1.279   6.987  0.1621 -0.2600 -0.5051
  911MOL0     C25624   7.313   1.283   6.829 -0.5187  0.0029 -0.5377
  911MOL0    Cl25625   7.161   1.204   6.803 -0.2587  0.7686  0.1801
  911MOL0     C25626   7.378   1.136   7.810  0.3179 -1.2421 -0.8900
  911MOL0     C25627   7.239   1.110   7.843  0.0935  0.4462 -0.3314
  911MOL0     O25628   7.038   1.243   8.026 -0.2210  0.3835 -0.3529
  911MOL0     C25629   6.734   1.235   7.850 -0.0112  0.5301 -0.0943
  911MOL0     C25630   6.590   1.221   7.874 -0.5637  1.1504  0.4681
  911MOL0     N25631   5.845   1.587   7.992 -0.3538 -0.1495 -0.1093
  911MOL0     N25632   5.724   1.598   7.952  0.9827 -0.1956 -0.0534
  911MOL0     C25633   5.500   0.571   7.813  0.3697 -0.6775 -0.8880
  911MOL0     C25634   5.572   0.539   7.702  0.2778  0.2962  0.2168
  911MOL0     C25635   5.844   0.576   7.349 -0.8041 -0.3582 -0.7614
  911MOL0     C25636   5.968   0.511   7.352 -0.3685  0.3436  1.2810
  911MOL0     C25637   6.022   0.462   7.231 -0.4381 -0.3658  0.9845
  911MOL0     C25638   5.978   0.506   7.100 -0.2084 -0.3447  0.4849
  911MOL0     O25639   6.036   0.482   6.982 -1.1932 -0.0076 -0.4047
  911MOL0     C25640   5.956   0.431   6.874  0.0268 -0.2027 -0.0297
  911MOL0     C25641   6.018   0.478   6.742 -0.3728 -0.5166  0.7412
  911MOL0     C25642   6.007   0.631   6.730 -0.2223 -1.1780 -0.1476
  911MOL0     C25643   6.052   0.676   6.580 -0.5790  0.6118  0.3416
  911MOL0     C25644   5.935   0.669   6.487 -1.1457  0.2552  0.8598
  911MOL0     C25645   5.834   0.668   6.418  0.5229 -0.3944 -0.6619
  911MOL0     C25646   5.858   0.583   7.094  0.5072 -0.5197 -0.7200
  911MOL0     C25647   5.785   0.612   7.219  0.2059 -0.5147  1.1422
  911MOL0     C25648   5.654   0.689   7.206 -1.1755 -0.2545  0.4351
  911MOL0     H25649   5.886   0.577   7.813  1.0240  0.3373  1.7826
  911MOL0     H25650   5.752   0.646   8.023 -0.1603  0.4036 -1.0937
  911MOL0     H25651   5.590   0.582   8.196  0.8110  0.0120 -0.3531
  911MOL0     H25652   5.442   0.633   8.243  2.6980 -0.7489  0.8603
  911MOL0     H25653   5.591   0.818   8.290  1.6472 -1.3782  0.4573
  911MOL0     H25654   5.640   0.836   8.122  0.1061  2.9075  2.7914
  911MOL0     H25655   5.388   0.861   8.067 -0.6661  1.8779 -1.4857
  911MOL0     H25656   5.365   0.902   8.238 -0.3943 -2.6955 -0.0048
  911MOL0     H25657   5.570   1.068   8.217 -2.9575  2.0877  2.6575
  911MOL0     H25658   5.544   1.046   8.043  0.7904  4.7066  1.0776
  911MOL0     H25659   5.381   1.139   8.283  0.3066  1.8871 -0.4574
  911MOL0     H25660   5.305   1.124   8.110  0.4503  2.0971 -1.3579
  911MOL0     H25661   5.367   1.358   8.178  3.1218  3.6656 -1.4628
  911MOL0     H25662   5.535   1.292   8.188 -1.5132 -0.9077  2.4521
  911MOL0     H25663   5.352   1.308   7.948  1.1944  1.0707 -1.5531
  911MOL0     H25664   5.513   1.250   7.928 -1.1645 -0.3830 -1.7355
  911MOL0     H25665   5.485   1.485   7.851  2.0981  3.1261 -1.1612
  911MOL0     H25666   5.449   1.536   8.022 -1.8100 -1.5615 -0.4145
  911MOL0     H25667   5.733   1.280   8.034 -0.6340  0.4352 -0.4163
  911MOL0     H25668   5.950   1.328   8.182  1.9690 -3.6519 -0.8013
  911MOL0     H25669   6.047   1.466   8.114  0.6322 -0.0965 -1.2339
  911MOL0     H25670   5.996   1.236   7.920 -2.2785 -1.9380  3.9535
  911MOL0     H25671   6.102   1.375   7.926  2.2491  0.3553  3.7296
  911MOL0     H25672   6.208   1.278   8.136  2.1016  1.4200 -1.4626
  911MOL0     H25673   6.134   1.124   8.104 -2.1812  0.3558  0.6017
  911MOL0     H25674   6.270   1.118   7.875  1.4485 -3.3556  2.5100
  911MOL0     H25675   6.323   1.280   7.898  0.6581 -1.0253 -0.5318
  911MOL0     H25676   6.588   1.098   8.186  1.2563  1.3367  0.0952
  911MOL0     H25677   6.821   1.182   8.288  0.8963  0.7304 -0.0975
  911MOL0     H25678   6.924   1.076   8.204  0.9499  2.4508 -0.6614
  911MOL0     H25679   6.779   1.009   8.256 -0.7288  1.8424  1.9114
  911MOL0     H25680   7.072   1.329   7.662 -1.3569  0.6212  2.5846
  911MOL0     H25681   7.317   1.389   7.602  1.4345  1.3848  2.8290
  911MOL0     H25682   7.518   1.464   7.644 -2.2563 -2.3890  6.4099
  911MOL0     H25683   7.684   1.402   7.660  0.6906  1.7856 -3.4305
  911MOL0     H25684   7.714   1.350   7.456  1.1309  0.7891  3.0359
  911MOL0     H25685   7.554   1.265   7.441 -0.0331  0.4120 -0.9776
  911MOL0     H25686   7.617   1.554   7.396 -3.2545  4.6802  0.3638
  911MOL0     H25687   7.446   1.502   7.422  1.8399  3.7037 -1.2162
  911MOL0     H25688   7.624   1.403   7.195 -2.4577 -2.6104 -2.0578
  911MOL0     H25689   7.527   1.539   7.208  0.9429  0.8004 -1.5940
  911MOL0     H25690   7.405   1.252   7.224 -0.8524  1.1511  0.7028
  911MOL0     H25691   7.322   1.400   7.218 -0.1568  1.9782 -4.4635
  911MOL0     H25692   7.521   1.276   7.021 -0.4596 -0.0819  0.0965
  911MOL0     H25693   7.444   1.444   7.004 -3.3150 -0.7511 -1.0733
  911MOL0     H25694   7.230   1.348   7.014  1.9283  1.5987  0.2128
  911MOL0     H25695   7.298   1.179   7.030 -0.7868  1.1175  2.7612
  911MOL0     H25696   7.403   1.237   6.788  0.2017  1.6180 -0.8354
  911MOL0     H25697   7.315   1.386   6.793  3.7526  1.6968  3.5600
  911MOL0     H25698   7.452   1.092   7.877  2.4121  1.6717 -1.0761
  911MOL0     H25699   7.207   1.045   7.924 -0.4954  0.6829 -0.3717
  911MOL0     H25700   6.774   1.257   7.752 -1.8284  1.5746 -0.6508
  911MOL0     H25701   6.510   1.228   7.801 -0.3489  0.1121  0.1105
  911MOL0     H25702   5.393   0.554   7.810  0.4961 -1.5663 -0.7364
  911MOL0     H25703   5.534   0.516   7.602  3.8560  0.3751 -1.3137
  911MOL0     H25704   6.013   0.479   7.446 -1.7356  2.4198  2.7293
  911MOL0     H25705   6.107   0.395   7.234  3.2033  3.7403 -0.3533
  911MOL0     H25706   5.957   0.322   6.880 -3.2935 -0.4183 -1.4081
  911MOL0     H25707   5.851   0.461   6.880 -0.0126  0.1557 -1.7788
  911MOL0     H25708   5.970   0.432   6.655 -0.1860  1.9960 -0.7990
  911MOL0     H25709   6.124   0.452   6.742 -0.0421  0.5725 -1.7697
  911MOL0     H25710   5.909   0.674   6.753 -1.3364 -1.5835 -3.5533
  911MOL0     H25711   6.085   0.678   6.790  0.3303 -0.2750 -1.5175
  911MOL0     H25712   6.132   0.613   6.541  1.2261  2.1690  1.3952
  911MOL0     H25713   6.102   0.772   6.589  1.3454 -0.4147  1.3154
  911MOL0     H25714   5.751   0.664   6.350  0.3835 -2.8430 -0.4377
  911MOL0     H25715   5.818   0.625   7.002  0.4972  0.2013 -0.3989
  911MOL0     H25716   5.574   0.649   7.269 -1.2303 -1.2285 -0.2324
  911MOL0     H25717   5.667   0.791   7.243  1.3348 -1.2494  2.6322
  911MOL0     H25718   5.625   0.685   7.101 -1.5579  1.3182  0.4608
  912MOL0     O25719  10.703   0.684   0.522 -0.7247 -0.4927  0.6619
  912MOL0     C25720  10.793   0.714   0.444  0.5922  0.6576  1.0947
  912MOL0     O25721  10.842   0.631   0.341 -0.0471 -0.5077 -0.4448
  912MOL0     C25722  10.792   0.508   0.315 -0.4989  0.3915  0.0371
  912MOL0     C25723  10.794   0.409   0.417 -0.2656  0.2926 -0.0375
  912MOL0     C25724  10.756   0.287   0.390 -0.5263  0.0983  0.9629
  912MOL0     C25725  10.726   0.239   0.265 -0.8416 -0.0923  0.9046
  912MOL0     O25726  10.711   0.106   0.237  0.4874 -0.1269 -0.5255
  912MOL0     C25727  10.652   0.085   0.113 -0.2763 -0.0085  0.5076
  912MOL0     C25728  10.613  -0.055   0.091 -0.1062 -0.2110  0.2636
  912MOL0     C25729  10.723  -0.169   0.077  0.2048  0.0992 -0.3994
  912MOL0     C25730  10.832  -0.131  -0.031  0.1441 -0.9826 -0.8855
  912MOL0     C25731  10.903  -0.254  -0.081  0.4345  0.1440  0.2873
  912MOL0     C25732  11.001  -0.327   0.007 -1.3799  1.0529 -0.0862
  912MOL0     C25733  11.063  -0.457  -0.057  0.3447  0.9718 -0.6489
  912MOL0     C25734  11.156  -0.430  -0.161 -0.5081 -0.2924  0.5842
  912MOL0     N25735  11.269  -0.338  -0.128  0.5028  0.0174  0.7281
  912MOL0     C25736  11.332  -0.313  -0.003 -0.7676 -0.0318 -0.1415
  912MOL0     C25737  11.425  -0.216  -0.040 -0.0777  0.8911 -1.0954
  912MOL0     C25738  11.519  -0.147   0.055  0.9808  0.6405  0.2423
  912MOL0     C25739  11.641  -0.235   0.099  0.1065 -0.5123 -0.1858
  912MOL0     C25740  11.613  -0.335   0.207 -0.8644  0.6507 -1.2267
  912MOL0     C25741  11.546  -0.281   0.328  0.7734 -0.0235 -0.1852
  912MOL0     O25742  11.602  -0.156   0.371 -0.0422 -0.3514  0.2745
  912MOL0     C25743  11.677  -0.143   0.491 -0.6615  0.1847 -0.2968
  912MOL0     C25744  11.651  -0.033   0.578  0.8927  0.4052  0.0556
  912MOL0     C25745  11.706  -0.024   0.705  0.0580 -0.2187  1.4226
  912MOL0     C25746  11.662   0.085   0.797  1.2720 -0.4076 -0.4349
  912MOL0     C25747  11.817  -0.105   0.734  0.9027 -0.1790 -0.5469
  912MOL0     C25748  11.906  -0.086   0.857 -0.4772  0.1207 -0.9424
  912MOL0     O25749  11.876  -0.011   0.965 -0.3193  0.0073 -0.4023
  912MOL0     C25750  11.975  -0.001   1.065 -0.5121 -0.1919 -0.9502
  912MOL0     C25751  12.042   0.123   1.089 -1.0924 -0.5260  0.4918
  912MOL0     C25752  12.120   0.151   1.202 -0.0385 -0.0603  0.6586
  912MOL0     C25753  12.142   0.040   1.294  0.4424  0.5631  0.3536
  912MOL0     O25754  12.231   0.063   1.395 -0.0671 -0.5304 -0.5140
  912MOL0     C25755  12.225  -0.026   1.510  0.8111  1.1681  0.8801
  912MOL0     C25756  12.302  -0.154   1.491 -0.2384 -0.3369 -0.4682
  912MOL0     C25757  12.455  -0.128   1.482 -0.2879  0.3412 -0.0880
  912MOL0     C25758  12.511  -0.260   1.424  0.5228 -0.4386 -0.9168
  912MOL0     C25759  12.660  -0.264   1.430  0.3908  0.4114 -0.0286
  912MOL0     C25760  12.715  -0.187   1.308  0.0272  0.6521  0.0544
  912MOL0     C25761  12.858  -0.233   1.277  0.6914 -0.7367  0.1465
  912MOL0     C25762  12.914  -0.186   1.144 -0.1015 -0.1812 -0.8890
  912MOL0    Cl25763  13.023  -0.046   1.175  0.4972  0.7455  0.4060
  912MOL0     C25764  12.076  -0.081   1.267 -1.2516 -0.4409 -0.4675
  912MOL0     C25765  11.998  -0.100   1.153  0.8804 -0.7954  1.2508
  912MOL0     O25766  12.018  -0.139   0.849  0.2446  0.2681  0.5409
  912MOL0     C25767  11.858  -0.202   0.637  0.8390 -0.3932 -0.2716
  912MOL0     C25768  11.778  -0.226   0.524  0.1781  0.5036 -0.5126
  912MOL0     N25769  11.406  -0.195  -0.174 -0.1830  0.1364 -0.2615
  912MOL0     N25770  11.330  -0.276  -0.226  0.2791 -0.5808 -0.2492
  912MOL0     C25771  10.718   0.340   0.167  0.5109 -1.5930  0.6042
  912MOL0     C25772  10.736   0.475   0.193  0.2614 -0.1811 -1.1442
  912MOL0     C25773  10.867   0.848   0.452  0.1719  1.0094 -0.5519
  912MOL0     C25774  11.006   0.861   0.414 -0.5826  0.2459 -0.2747
  912MOL0     C25775  11.071   0.979   0.437 -0.1979  0.8650 -0.0320
  912MOL0     C25776  11.017   1.084   0.502  0.9509 -0.6005 -0.7896
  912MOL0     O25777  11.098   1.198   0.515  0.3780 -0.4919  0.2373
  912MOL0     C25778  11.060   1.300   0.603  0.3257 -0.1892 -0.2527
  912MOL0     C25779  11.175   1.410   0.608  0.7089  0.1556 -0.0842
  912MOL0     C25780  11.303   1.350   0.670 -0.2908 -0.3725  0.1488
  912MOL0     C25781  11.398   1.480   0.663  0.0217  0.6912 -0.2798
  912MOL0     C25782  11.515   1.444   0.740 -0.5081 -0.0524 -0.7314
  912MOL0     C25783  11.608   1.416   0.804 -0.5490  0.1608 -0.1760
  912MOL0     C25784  10.880   1.077   0.531  0.0799  0.0940  0.3098
  912MOL0     C25785  10.805   0.957   0.512 -0.2549  1.0731 -0.9161
  912MOL0     C25786  10.652   0.960   0.551 -0.5243  0.1934 -0.1129
  912MOL0     H25787  10.815   0.430   0.521 -0.5811 -0.1802  0.1265
  912MOL0     H25788  10.749   0.223   0.478 -0.0698 -2.3700 -0.7076
  912MOL0     H25789  10.727   0.114   0.040  1.3130  0.9194  2.4076
  912MOL0     H25790  10.562   0.145   0.098 -0.4813 -1.0948 -3.9767
  912MOL0     H25791  10.535  -0.085   0.161  0.4903 -1.2898  0.5002
  912MOL0     H25792  10.556  -0.060  -0.002 -0.7092  2.6797  0.3838
  912MOL0     H25793  10.770  -0.184   0.174 -1.0262  0.8597  0.3419
  912MOL0     H25794  10.668  -0.259   0.051  1.1920 -1.4222  2.3859
  912MOL0     H25795  10.776  -0.071  -0.102  0.4979  1.6511  0.9327
  912MOL0     H25796  10.896  -0.066   0.030 -2.5881  0.4478  0.6497
  912MOL0     H25797  10.966  -0.232  -0.167 -3.0620  0.2005 -2.5196
  912MOL0     H25798  10.835  -0.333  -0.116 -0.3735  1.4249 -1.1346
  912MOL0     H25799  11.077  -0.253   0.033  1.0472 -1.0387 -0.9311
  912MOL0     H25800  10.948  -0.360   0.098 -0.2476 -3.0764 -0.7377
  912MOL0     H25801  10.983  -0.526  -0.081  0.7177 -0.2505  1.4083
  912MOL0     H25802  11.115  -0.514   0.021 -4.4374 -1.7019  1.0117
  912MOL0     H25803  11.204  -0.523  -0.194 -0.1516 -1.1518  3.2874
  912MOL0     H25804  11.101  -0.391  -0.247 -0.4934 -2.7114 -0.6222
  912MOL0     H25805  11.325  -0.349   0.099 -3.9748 -2.2386 -0.9862
  912MOL0     H25806  11.460  -0.111   0.140  1.5304  0.6872  0.6099
  912MOL0     H25807  11.554  -0.057   0.004  2.8068  0.8413  1.7454
  912MOL0     H25808  11.685  -0.278   0.009  2.8735 -0.7777  1.2112
  912MOL0     H25809  11.721  -0.177   0.145  0.2288 -0.2025 -0.7876
  912MOL0     H25810  11.551  -0.413   0.161 -0.3580  0.8508 -2.2788
  912MOL0     H25811  11.715  -0.372   0.224 -0.1601  2.6812 -0.7762
  912MOL0     H25812  11.441  -0.260   0.308  1.0753 -0.4593 -2.5833
  912MOL0     H25813  11.551  -0.354   0.409  1.0249 -1.6246 -1.5810
  912MOL0     H25814  11.568   0.027   0.542  1.4409 -0.3776 -2.8151
  912MOL0     H25815  11.577   0.150   0.772 -0.1611 -1.6427  1.0543
  912MOL0     H25816  11.746   0.155   0.808  2.3591 -1.3534 -2.1921
  912MOL0     H25817  11.638   0.025   0.885  1.1910  0.1777 -0.0470
  912MOL0     H25818  12.024   0.190   1.005 -1.5564 -2.5858 -1.1439
  912MOL0     H25819  12.172   0.245   1.217  3.8944 -2.1621  1.6197
  912MOL0     H25820  12.253   0.023   1.604  2.0070 -1.9650  2.2860
  912MOL0     H25821  12.120  -0.055   1.525  1.2337 -0.4551  0.9250
  912MOL0     H25822  12.290  -0.224   1.575  4.3172 -0.4732  0.2996
  912MOL0     H25823  12.277  -0.204   1.397  0.3707  2.4762 -2.2357
  912MOL0     H25824  12.506  -0.111   1.578 -2.4230  0.4354  1.0920
  912MOL0     H25825  12.476  -0.046   1.414 -2.0329 -1.4950 -3.0273
  912MOL0     H25826  12.477  -0.274   1.321 -0.1624 -0.8120 -0.6511
  912MOL0     H25827  12.464  -0.334   1.490  1.8821  0.1627  0.8252
  912MOL0     H25828  12.696  -0.207   1.516  1.2242 -0.4901  0.2356
  912MOL0     H25829  12.691  -0.369   1.439 -1.4029 -0.0310  1.6430
  912MOL0     H25830  12.724  -0.081   1.333  4.4061  0.6607 -0.7798
  912MOL0     H25831  12.657  -0.209   1.217 -0.4415 -4.9099  1.2968
  912MOL0     H25832  12.853  -0.342   1.271  2.7962 -0.8326 -1.0373
  912MOL0     H25833  12.932  -0.217   1.356 -0.4984 -1.4633  1.4401
  912MOL0     H25834  12.829  -0.156   1.083  0.1309 -3.7103 -3.1959
  912MOL0     H25835  12.982  -0.257   1.096 -0.7829 -0.4516 -1.4663
  912MOL0     H25836  12.077  -0.159   1.342  0.0585 -2.2479 -2.2319
  912MOL0     H25837  11.945  -0.189   1.121 -0.5681 -0.6370  3.0342
  912MOL0     H25838  11.946  -0.264   0.652  1.1204 -0.0789 -0.6298
  912MOL0     H25839  11.805  -0.310   0.460 -0.4191  0.7722 -1.1314
  912MOL0     H25840  10.700   0.323   0.061 -0.0864 -1.3843  0.6695
  912MOL0     H25841  10.725   0.561   0.128 -1.0478 -0.5456 -1.4468
  912MOL0     H25842  11.053   0.784   0.353 -0.9066  0.8258 -1.2764
  912MOL0     H25843  11.175   0.987   0.404 -0.3171 -0.9076 -0.9475
  912MOL0     H25844  10.967   1.351   0.577  1.1305  1.2030 -0.5007
  912MOL0     H25845  11.044   1.268   0.707 -4.3379 -1.4298 -1.0964
  912MOL0     H25846  11.125   1.489   0.666 -2.1286 -0.8992 -0.9170
  912MOL0     H25847  11.181   1.443   0.504  1.1077 -0.5000 -0.2737
  912MOL0     H25848  11.278   1.302   0.765 -0.2410  1.2148  0.9969
  912MOL0     H25849  11.333   1.274   0.597  1.0343  0.7842 -0.5727
  912MOL0     H25850  11.363   1.574   0.706 -0.8208 -1.1530  3.4976
  912MOL0     H25851  11.431   1.501   0.560  2.0531  2.3951  0.6533
  912MOL0     H25852  11.694   1.393   0.865  1.2976  4.0303 -0.9690
  912MOL0     H25853  10.830   1.171   0.553 -0.9095 -0.7021  1.6237
  912MOL0     H25854  10.629   0.928   0.653 -1.1065  2.0229  0.3837
  912MOL0     H25855  10.610   1.059   0.532  1.1749  1.0095  0.1772
  912MOL0     H25856  10.596   0.890   0.488  1.0526 -0.3807 -0.9269
  913MOL0     O25857   6.334   7.921   4.585 -1.2167 -1.5200  0.7597
  913MOL0     C25858   6.433   7.855   4.613  0.1280  0.2833  0.2805
  913MOL0     O25859   6.565   7.899   4.608 -0.0538 -0.0691  0.4720
  913MOL0     C25860   6.586   8.035   4.599 -0.6690  0.1393  0.4400
  913MOL0     C25861   6.583   8.126   4.711 -0.3563 -0.7628 -0.5148
  913MOL0     C25862   6.611   8.263   4.707 -0.7390  1.1088  0.3021
  913MOL0     C25863   6.635   8.314   4.573 -0.2532  0.7097  0.8227
  913MOL0     O25864   6.614   8.452   4.550 -0.5058  0.3192  0.0284
  913MOL0     C25865   6.578   8.501   4.423 -0.3093 -0.8374 -0.1869
  913MOL0     C25866   6.488   8.625   4.438  0.1167  0.1904 -0.8333
  913MOL0     C25867   6.545   8.755   4.486 -0.1190 -0.8503 -0.2106
  913MOL0     C25868   6.629   8.835   4.396  0.5207  0.8486 -0.3204
  913MOL0     C25869   6.546   8.904   4.288  1.0893 -0.6167 -0.3929
  913MOL0     C25870   6.614   9.011   4.200  0.1231 -0.8633 -0.6620
  913MOL0     C25871   6.676   9.134   4.266 -0.0930  0.0641 -0.5692
  913MOL0     C25872   6.587   9.213   4.366  0.7127  0.0367 -0.8414
  913MOL0     N25873   6.478   9.288   4.292  0.4710  0.2612  1.1168
  913MOL0     C25874   6.488   9.422   4.257  0.5378 -0.7165  0.5745
  913MOL0     C25875   6.364   9.454   4.206 -0.3234  0.0448 -0.7393
  913MOL0     C25876   6.307   9.585   4.165  0.2875  0.3781 -0.3145
  913MOL0     C25877   6.222   9.653   4.275 -0.3780  0.3125 -0.5045
  913MOL0     C25878   6.120   9.562   4.346  0.3977 -0.4734 -0.3394
  913MOL0     C25879   6.065   9.638   4.470  0.2851  0.0087 -0.1613
  913MOL0     O25880   5.962   9.558   4.530 -0.1663 -0.1948 -0.4024
  913MOL0     C25881   5.900   9.601   4.643 -0.0905 -0.4350 -0.3848
  913MOL0     C25882   5.917   9.720   4.706 -0.4235 -0.3615 -0.6006
  913MOL0     C25883   5.852   9.758   4.822  0.2208  1.2043 -0.3929
  913MOL0     C25884   5.879   9.890   4.883 -0.6933  0.3434  0.6684
  913MOL0     C25885   5.778   9.654   4.888  0.0949  0.1988  0.0383
  913MOL0     C25886   5.710   9.668   5.022 -0.2362 -0.3032  0.3954
  913MOL0     O25887   5.683   9.790   5.066  0.5644 -0.5513 -0.1927
  913MOL0     C25888   5.650   9.806   5.204 -0.2063  0.5746  0.7213
  913MOL0     C25889   5.729   9.905   5.260 -0.3146  0.0125  0.5709
  913MOL0     C25890   5.704   9.936   5.395 -0.4481  0.2995 -0.2662
  913MOL0     C25891   5.593   9.868   5.458 -0.1177 -0.4735  0.5956
  913MOL0     O25892   5.572   9.895   5.587 -0.0035  0.1764  1.1003
  913MOL0     C25893   5.593   9.783   5.683  0.4928 -1.4364  1.1024
  913MOL0     C25894   5.648   9.841   5.818 -0.4348 -0.2831  0.1247
  913MOL0     C25895   5.544   9.906   5.902 -0.0997  1.2709  0.1440
  913MOL0     C25896   5.448   9.816   5.973 -0.7121  0.3453 -1.7718
  913MOL0     C25897   5.329   9.903   6.028  0.5135 -0.1237 -0.2678
  913MOL0     C25898   5.256   9.836   6.145  0.8718  0.1796 -0.9463
  913MOL0     C25899   5.108   9.882   6.149 -0.2870 -0.3452  0.6566
  913MOL0     C25900   5.041   9.878   6.283  0.1576 -0.3984  0.5577
  913MOL0    Cl25901   5.070   9.720   6.366 -0.6031 -0.1508 -0.4558
  913MOL0     C25902   5.514   9.772   5.395  1.3242 -0.4394  0.6912
  913MOL0     C25903   5.540   9.745   5.257 -0.2255  0.7816 -0.5352
  913MOL0     O25904   5.666   9.566   5.069  0.3083 -0.3322 -0.9276
  913MOL0     C25905   5.749   9.536   4.814 -0.4590  0.1377  0.3673
  913MOL0     C25906   5.822   9.507   4.700  0.7083 -0.1802  0.9791
  913MOL0     N25907   6.292   9.337   4.213 -0.2088  0.7281  0.4571
  913MOL0     N25908   6.365   9.243   4.244 -0.0959 -0.0900  0.3024
  913MOL0     C25909   6.645   8.225   4.457  0.8320  0.1786 -0.7064
  913MOL0     C25910   6.616   8.086   4.471  0.0891 -0.0460  0.8926
  913MOL0     C25911   6.412   7.721   4.650  0.3102  1.2422  0.0427
  913MOL0     C25912   6.279   7.675   4.681  0.4153  0.2825  0.1125
  913MOL0     C25913   6.244   7.547   4.710  0.1345  0.1816 -0.2306
  913MOL0     C25914   6.340   7.456   4.719  0.5707  0.0589  0.5515
  913MOL0     O25915   6.321   7.323   4.746  0.2169 -0.0410  0.8727
  913MOL0     C25916   6.195   7.271   4.772 -0.2865 -1.5773 -0.5647
  913MOL0     C25917   6.200   7.121   4.798  0.0959 -0.4280  1.3623
  913MOL0     C25918   6.259   7.046   4.670 -0.1105  1.3061  0.0922
  913MOL0     C25919   6.237   6.891   4.673 -0.7220 -0.0673 -0.0332
  913MOL0     C25920   6.287   6.830   4.544  0.0880 -0.2414  0.3788
  913MOL0     C25921   6.335   6.770   4.451  0.3171 -0.0815 -0.0341
  913MOL0     C25922   6.472   7.494   4.695 -0.3481  0.3137 -0.3518
  913MOL0     C25923   6.515   7.621   4.666  0.1743  0.1918 -0.2001
  913MOL0     C25924   6.663   7.640   4.633 -0.5259 -0.1178 -0.2030
  913MOL0     H25925   6.568   8.078   4.807  5.9266 -0.3049  1.1156
  913MOL0     H25926   6.617   8.321   4.799  1.3249  0.2741  0.7571
  913MOL0     H25927   6.512   8.437   4.364 -0.4133 -1.2750  0.3962
  913MOL0     H25928   6.670   8.539   4.378 -1.1414  1.9031  0.2131
  913MOL0     H25929   6.438   8.643   4.342  1.5161 -2.4747 -2.1805
  913MOL0     H25930   6.408   8.591   4.505  0.8741 -2.3031 -1.0810
  913MOL0     H25931   6.454   8.810   4.511  0.3258  0.0406 -0.4880
  913MOL0     H25932   6.595   8.744   4.583  0.7641 -1.7417 -0.7559
  913MOL0     H25933   6.682   8.913   4.451  1.6198  0.1768 -0.3854
  913MOL0     H25934   6.705   8.769   4.353  0.2258  1.2051 -1.4172
  913MOL0     H25935   6.448   8.939   4.321 -0.0019 -2.5465 -1.4090
  913MOL0     H25936   6.521   8.832   4.209  1.2030  0.2579 -1.2374
  913MOL0     H25937   6.698   8.973   4.140  2.3442 -1.8917  2.8240
  913MOL0     H25938   6.536   9.043   4.130 -0.5569 -0.1877  0.3858
  913MOL0     H25939   6.723   9.197   4.190  3.3361 -1.6758 -0.1039
  913MOL0     H25940   6.752   9.089   4.330  1.7348  2.1091 -1.1908
  913MOL0     H25941   6.535   9.150   4.439 -0.8231  1.9133 -0.2315
  913MOL0     H25942   6.644   9.283   4.428 -0.1314 -0.3601  0.4268
  913MOL0     H25943   6.585   9.469   4.254 -0.0662  0.5292 -0.4377
  913MOL0     H25944   6.234   9.567   4.086  0.6489 -0.0462 -0.5542
  913MOL0     H25945   6.381   9.652   4.120  1.6983 -0.0373  1.2942
  913MOL0     H25946   6.295   9.694   4.345 -1.3472  0.6619  0.3286
  913MOL0     H25947   6.182   9.748   4.239 -1.2387  0.6019  1.1218
  913MOL0     H25948   6.028   9.552   4.287  0.6447 -0.6817 -0.6856
  913MOL0     H25949   6.152   9.463   4.377 -3.5659 -1.0945  2.7549
  913MOL0     H25950   6.142   9.653   4.546  0.5054  1.2325 -0.6028
  913MOL0     H25951   6.047   9.742   4.440  2.1501  0.8827  1.5681
  913MOL0     H25952   5.977   9.798   4.660 -1.3893  2.6662  2.8264
  913MOL0     H25953   5.931   9.878   4.979  0.2224 -2.2016 -0.0663
  913MOL0     H25954   5.789   9.952   4.885 -1.4189 -0.6052 -0.7920
  913MOL0     H25955   5.953   9.947   4.825 -0.5972 -0.4133  0.0238
  913MOL0     H25956   5.816   9.950   5.214 -0.8552  2.2809  1.6217
  913MOL0     H25957   5.763  10.006   5.452  2.5649 -1.0550 -1.5032
  913MOL0     H25958   5.503   9.726   5.708 -0.0844 -0.4011  1.4778
  913MOL0     H25959   5.662   9.715   5.632  1.7907  0.3241  0.4198
  913MOL0     H25960   5.676   9.754   5.879 -2.8843 -1.1559  0.1091
  913MOL0     H25961   5.735   9.905   5.800 -0.1554 -0.6104  0.2811
  913MOL0     H25962   5.479   9.961   5.832 -2.6192 -0.4638  0.9829
  913MOL0     H25963   5.595   9.971   5.974 -0.2836  2.2142 -0.5462
  913MOL0     H25964   5.513   9.763   6.043 -0.9161  1.6102 -0.5695
  913MOL0     H25965   5.403   9.737   5.912  1.0285 -3.4325  1.4046
  913MOL0     H25966   5.358  10.001   6.068  1.5483 -0.6987  0.4262
  913MOL0     H25967   5.274   9.926   5.936  1.1365 -1.4316 -0.9842
  913MOL0     H25968   5.316   9.856   6.234 -0.0224  1.3986 -0.5866
  913MOL0     H25969   5.247   9.727   6.133  2.5572 -0.3764  1.8850
  913MOL0     H25970   5.041   9.813   6.096 -1.5776 -0.2346  2.0588
  913MOL0     H25971   5.099   9.982   6.108  4.9869  0.3494  0.5605
  913MOL0     H25972   4.934   9.901   6.286  0.0146 -1.1131  2.0913
  913MOL0     H25973   5.095   9.954   6.340 -1.4730  1.0955  0.1913
  913MOL0     H25974   5.428   9.738   5.452  1.4628  3.0493  3.3414
  913MOL0     H25975   5.486   9.659   5.220  0.1349 -0.7265  2.2039
  913MOL0     H25976   5.682   9.459   4.852  0.2564 -0.0751  1.2237
  913MOL0     H25977   5.801   9.420   4.638 -3.1662  0.9582  0.4138
  913MOL0     H25978   6.670   8.274   4.364  0.0899  1.2859 -0.3315
  913MOL0     H25979   6.639   8.017   4.390  0.0040  1.1500 -0.1835
  913MOL0     H25980   6.191   7.736   4.661 -1.3730 -2.0067  0.4844
  913MOL0     H25981   6.143   7.507   4.714  0.1259  0.2735  1.0115
  913MOL0     H25982   6.152   7.316   4.862  2.3578 -0.3075  0.1800
  913MOL0     H25983   6.131   7.295   4.686  1.0081  0.7454 -0.9936
  913MOL0     H25984   6.098   7.089   4.824 -0.5697 -1.2418 -1.7392
  913MOL0     H25985   6.250   7.107   4.894 -0.9643  0.9408  2.1492
  913MOL0     H25986   6.218   7.082   4.575 -0.7796  0.4829  0.0513
  913MOL0     H25987   6.368   7.059   4.667  0.2412 -1.2549 -1.3282
  913MOL0     H25988   6.131   6.877   4.696 -0.7246  1.2572  0.8487
  913MOL0     H25989   6.290   6.854   4.762 -0.2485  3.5677  1.3489
  913MOL0     H25990   6.362   6.704   4.371 -1.5174  2.0162 -2.5232
  913MOL0     H25991   6.550   7.419   4.702  0.7756  1.6187  2.6545
  913MOL0     H25992   6.717   7.709   4.700  1.8892  0.0945 -2.2059
  913MOL0     H25993   6.708   7.542   4.649 -0.4654  0.2455  2.3129
  913MOL0     H25994   6.674   7.666   4.527 -2.6652  1.3820 -0.1254
  914MOL0     O25995   9.185   4.708   4.291 -1.0478 -0.9130  0.6660
  914MOL0     C25996   9.260   4.740   4.375  0.2246 -0.3163 -0.2377
  914MOL0     O25997   9.388   4.685   4.387  0.5178 -0.6198  0.1267
  914MOL0     C25998   9.443   4.612   4.283  0.6448 -0.2511  0.4966
  914MOL0     C25999   9.507   4.486   4.302  0.0435  0.1177  0.4464
  914MOL0     C26000   9.582   4.430   4.195 -0.4981 -0.3180 -0.2479
  914MOL0     C26001   9.605   4.504   4.079 -0.0992 -0.0866 -0.2951
  914MOL0     O26002   9.684   4.441   3.982  0.1525 -0.2408 -0.2848
  914MOL0     C26003   9.761   4.515   3.888 -0.1023 -1.0095 -0.6802
  914MOL0     C26004   9.813   4.417   3.786  0.2958  0.2992  0.3821
  914MOL0     C26005   9.916   4.481   3.690 -0.2319 -0.8779  0.3585
  914MOL0     C26006   9.961   4.383   3.578 -0.2083 -0.2949 -0.5692
  914MOL0     C26007  10.088   4.430   3.510  0.4672  0.1140  0.0630
  914MOL0     C26008  10.061   4.569   3.447  0.0624 -0.1127  0.3254
  914MOL0     C26009  10.167   4.586   3.334  1.1232 -0.5121  0.0853
  914MOL0     C26010  10.291   4.655   3.396 -0.8613  0.3101 -0.8196
  914MOL0     N26011  10.404   4.641   3.304 -0.0048  0.3849 -0.5289
  914MOL0     C26012  10.494   4.541   3.290  0.0942  0.4073  0.6149
  914MOL0     C26013  10.592   4.597   3.210 -0.1766  0.1374 -0.7372
  914MOL0     C26014  10.719   4.533   3.171  0.1645 -0.1469 -0.6173
  914MOL0     C26015  10.840   4.591   3.251 -0.3029  0.0481  0.2035
  914MOL0     C26016  10.840   4.534   3.393  0.9913 -0.2996  0.0178
  914MOL0     C26017  10.780   4.616   3.508 -0.4443 -0.6112  0.0804
  914MOL0     O26018  10.846   4.748   3.529 -0.6289  0.7997 -0.3890
  914MOL0     C26019  10.966   4.751   3.600  1.0010 -0.0665 -0.1099
  914MOL0     C26020  11.009   4.654   3.681  0.0494 -1.0593 -0.4869
  914MOL0     C26021  11.118   4.675   3.765 -0.7551  0.0347  0.7590
  914MOL0     C26022  11.170   4.564   3.847 -1.6537 -0.0881 -0.3643
  914MOL0     C26023  11.176   4.808   3.773 -0.3311  0.3609 -0.3260
  914MOL0     C26024  11.302   4.844   3.853  0.3203  0.0931 -0.1375
  914MOL0     O26025  11.343   4.768   3.953  0.5355 -0.1663 -0.5535
  914MOL0     C26026  11.422   4.818   4.055  0.6119 -0.4450 -0.3730
  914MOL0     C26027  11.361   4.839   4.183 -0.8465 -0.0393 -0.6259
  914MOL0     C26028  11.438   4.880   4.291 -0.9777  0.0207  0.0031
  914MOL0     C26029  11.569   4.922   4.275  0.8751  0.6175 -0.1592
  914MOL0     O26030  11.619   4.981   4.384 -0.0164  0.2353  0.1853
  914MOL0     C26031  11.691   5.103   4.357  0.4672 -0.4535  0.0725
  914MOL0     C26032  11.606   5.213   4.305 -0.2774  1.0234 -0.3989
  914MOL0     C26033  11.684   5.343   4.278 -0.1042 -0.3748 -0.0932
  914MOL0     C26034  11.610   5.464   4.215 -0.2431  0.3025  0.2046
  914MOL0     C26035  11.507   5.524   4.309 -0.5376  0.3329 -0.0507
  914MOL0     C26036  11.467   5.667   4.249  0.2260  0.1461 -0.3541
  914MOL0     C26037  11.387   5.744   4.359 -0.6813 -0.7400 -0.6657
  914MOL0     C26038  11.481   5.814   4.466  0.5695  0.3420  0.7565
  914MOL0    Cl26039  11.584   5.930   4.388 -0.2004  0.4128 -0.0340
  914MOL0     C26040  11.628   4.906   4.152 -0.4077  0.3953  0.8096
  914MOL0     C26041  11.558   4.851   4.038  0.0588 -0.5930 -0.6621
  914MOL0     O26042  11.366   4.941   3.821  0.6580  0.1689  0.0572
  914MOL0     C26043  11.126   4.902   3.688  0.5226  0.4864 -0.5427
  914MOL0     C26044  11.026   4.880   3.596 -0.0918 -0.4659 -0.5441
  914MOL0     N26045  10.564   4.720   3.178  0.3841  0.1501  0.7657
  914MOL0     N26046  10.452   4.745   3.228 -0.3681 -0.4115 -0.7640
  914MOL0     C26047   9.549   4.632   4.063  0.6684  0.2950  0.0164
  914MOL0     C26048   9.467   4.688   4.167 -0.1237 -0.4233 -0.5978
  914MOL0     C26049   9.216   4.839   4.467 -0.0987  0.6587 -1.0535
  914MOL0     C26050   9.080   4.850   4.507 -1.3124 -0.0591  1.2264
  914MOL0     C26051   9.042   4.930   4.616  0.1240  0.1233  0.5386
  914MOL0     C26052   9.129   5.004   4.695  0.1408 -0.0876  0.0544
  914MOL0     O26053   9.074   5.085   4.792 -0.1430  0.4230  0.1734
  914MOL0     C26054   9.155   5.201   4.833  0.1566  0.3567  1.0745
  914MOL0     C26055   9.097   5.246   4.974  0.3741 -0.6473 -0.1414
  914MOL0     C26056   9.198   5.337   5.040  0.6965  1.3014  0.4061
  914MOL0     C26057   9.128   5.385   5.163 -0.6239 -0.3334 -0.9591
  914MOL0     C26058   9.182   5.513   5.216  0.2334 -0.6241  0.5679
  914MOL0     C26059   9.232   5.612   5.263  0.4274  0.2696  1.0133
  914MOL0     C26060   9.263   5.006   4.651 -0.2620  0.2587  0.2973
  914MOL0     C26061   9.311   4.915   4.541  0.2664  1.1485  1.0153
  914MOL0     C26062   9.450   4.934   4.490 -0.9276  0.2685 -0.6635
  914MOL0     H26063   9.470   4.426   4.385 -0.4168 -1.0776 -0.5941
  914MOL0     H26064   9.625   4.331   4.197 -0.2561 -0.2285 -0.8696
  914MOL0     H26065   9.842   4.576   3.929 -0.1824 -0.1498 -1.7470
  914MOL0     H26066   9.691   4.584   3.840  0.8351  1.3097  1.0920
  914MOL0     H26067   9.858   4.335   3.843  0.7560 -0.7298 -1.3792
  914MOL0     H26068   9.730   4.378   3.728 -1.1716  3.8969 -0.2204
  914MOL0     H26069   9.883   4.577   3.649  1.9796 -0.1881  0.0726
  914MOL0     H26070  10.001   4.499   3.755 -1.0737 -1.9597  1.8225
  914MOL0     H26071   9.990   4.283   3.613 -0.3748 -0.0411  0.3208
  914MOL0     H26072   9.879   4.353   3.512  1.3804 -2.2828 -1.7492
  914MOL0     H26073  10.111   4.352   3.438  0.4120 -1.0382  1.2548
  914MOL0     H26074  10.174   4.452   3.574 -0.7122  0.2094  1.7079
  914MOL0     H26075   9.962   4.567   3.402  0.5249  0.8376 -0.8049
  914MOL0     H26076  10.061   4.654   3.515 -0.8907 -0.2237  0.4789
  914MOL0     H26077  10.133   4.653   3.254 -2.1332 -0.1839  1.6117
  914MOL0     H26078  10.202   4.488   3.302  0.9148 -1.0322  1.3840
  914MOL0     H26079  10.278   4.762   3.417  0.9377  0.2155  1.0511
  914MOL0     H26080  10.330   4.605   3.485 -0.9605  1.3598 -0.1693
  914MOL0     H26081  10.504   4.445   3.340  0.2565  0.5804  0.9151
  914MOL0     H26082  10.717   4.562   3.065  0.4501  1.7409 -0.1489
  914MOL0     H26083  10.727   4.425   3.185 -1.0438 -0.2731 -0.7180
  914MOL0     H26084  10.926   4.553   3.195 -0.0559 -1.4383  1.4993
  914MOL0     H26085  10.826   4.698   3.265 -0.0937 -0.1355  2.0890
  914MOL0     H26086  10.803   4.431   3.389  0.3337 -0.1285  1.1630
  914MOL0     H26087  10.939   4.514   3.434 -0.1560 -2.7653  1.8617
  914MOL0     H26088  10.681   4.654   3.481 -0.7617  0.0788  2.0857
  914MOL0     H26089  10.777   4.560   3.602  0.9671  0.1938  0.6292
  914MOL0     H26090  10.960   4.557   3.684 -3.5786  0.6588  1.3677
  914MOL0     H26091  11.172   4.590   3.953 -1.7170 -3.1961  0.4831
  914MOL0     H26092  11.275   4.534   3.836 -0.5732  0.6476  5.1941
  914MOL0     H26093  11.109   4.476   3.823 -1.9711  0.9948 -4.0623
  914MOL0     H26094  11.259   4.804   4.185 -1.1165  0.7378 -0.4549
  914MOL0     H26095  11.387   4.893   4.386 -0.3324  0.5423  0.2843
  914MOL0     H26096  11.743   5.144   4.445 -3.2620  1.3131  1.6622
  914MOL0     H26097  11.775   5.084   4.289  0.7277 -0.3669  0.3672
  914MOL0     H26098  11.551   5.191   4.213  0.7264  1.0453 -1.0183
  914MOL0     H26099  11.529   5.244   4.377 -1.4870  0.4744 -1.4254
  914MOL0     H26100  11.772   5.320   4.218  2.5499 -0.4859  3.4794
  914MOL0     H26101  11.727   5.380   4.372 -0.1430  0.3384 -0.3524
  914MOL0     H26102  11.560   5.431   4.124  1.0294  0.5450 -0.6080
  914MOL0     H26103  11.691   5.534   4.193 -2.1220  1.8025 -2.4367
  914MOL0     H26104  11.416   5.464   4.295 -2.9996  3.5927  0.5286
  914MOL0     H26105  11.548   5.530   4.410  2.9722 -1.2848 -1.2381
  914MOL0     H26106  11.396   5.652   4.168 -0.4330 -3.4183  0.7000
  914MOL0     H26107  11.556   5.722   4.217  0.3127  1.7338  2.2527
  914MOL0     H26108  11.319   5.674   4.408 -1.6255  1.2418  1.0228
  914MOL0     H26109  11.316   5.815   4.315 -1.5662 -2.1208 -1.5735
  914MOL0     H26110  11.536   5.736   4.519 -3.2248 -2.3329  1.1282
  914MOL0     H26111  11.423   5.865   4.544  1.0012  2.7444 -0.3971
  914MOL0     H26112  11.728   4.941   4.127 -0.8013  1.2994  0.4741
  914MOL0     H26113  11.605   4.835   3.941  1.6354 -0.7606  0.0909
  914MOL0     H26114  11.167   5.002   3.674 -0.4104  1.0078  0.2745
  914MOL0     H26115  10.991   4.966   3.539 -0.6123 -1.5215 -1.8538
  914MOL0     H26116   9.553   4.684   3.967 -2.2035  1.7563  0.6033
  914MOL0     H26117   9.415   4.782   4.154 -2.2978 -1.6849 -1.5956
  914MOL0     H26118   9.011   4.804   4.438 -2.6792  0.8396  1.9574
  914MOL0     H26119   8.937   4.942   4.640  0.4001  1.8623  0.9939
  914MOL0     H26120   9.263   5.193   4.847  0.1447 -3.2550  0.2404
  914MOL0     H26121   9.142   5.279   4.757  0.2573 -0.0752  0.6048
  914MOL0     H26122   9.078   5.161   5.041  1.4495  0.1948  1.3118
  914MOL0     H26123   8.996   5.288   4.973  0.7498  0.3145  0.6108
  914MOL0     H26124   9.273   5.264   5.073 -0.4303 -1.6403 -2.8877
  914MOL0     H26125   9.227   5.418   4.974 -1.3344  1.6398 -0.1317
  914MOL0     H26126   9.149   5.315   5.245 -0.1051  3.7806  2.8053
  914MOL0     H26127   9.019   5.396   5.157 -0.7696 -1.7933 -1.5358
  914MOL0     H26128   9.271   5.700   5.311  0.0650  1.9742 -1.6417
  914MOL0     H26129   9.339   5.067   4.696  0.3256 -1.9069  2.4288
  914MOL0     H26130   9.447   4.960   4.384  0.0981 -0.4164 -0.8734
  914MOL0     H26131   9.501   5.017   4.539 -0.7372 -0.9726  1.3740
  914MOL0     H26132   9.521   4.851   4.496  0.5589  1.3805 -2.0797
  915MOL0     O26133   9.530   0.361   8.211 -0.2252  0.1155 -0.4104
  915MOL0     C26134   9.557   0.481   8.229  0.3908 -0.2853 -0.0917
  915MOL0     O26135   9.470   0.575   8.272  0.3942 -0.2611  0.3127
  915MOL0     C26136   9.362   0.520   8.341 -0.0461 -1.5968  0.9044
  915MOL0     C26137   9.375   0.503   8.475  0.5581 -0.5274 -0.4175
  915MOL0     C26138   9.270   0.451   8.549 -0.4017  0.8884  0.4831
  915MOL0     C26139   9.145   0.407   8.489 -0.0237 -0.4476 -0.1287
  915MOL0     O26140   9.050   0.359   8.574 -0.1004  0.4116  0.2225
  915MOL0     C26141   8.928   0.294   8.522  0.0068  0.1285 -0.9508
  915MOL0     C26142   8.819   0.398   8.513 -0.5511 -0.2997 -0.0761
  915MOL0     C26143   8.703   0.361   8.428  0.1116  0.2287  0.3848
  915MOL0     C26144   8.722   0.331   8.279  0.2038 -0.1904  0.1922
  915MOL0     C26145   8.588   0.323   8.211  0.4566 -0.1632 -0.2601
  915MOL0     C26146   8.613   0.263   8.070 -0.4020  0.0735 -0.4948
  915MOL0     C26147   8.481   0.231   7.990  0.0710  0.0018 -0.3518
  915MOL0     C26148   8.428   0.362   7.927 -0.0496  0.3067 -0.0033
  915MOL0     N26149   8.327   0.330   7.828 -0.8471 -0.1717  0.1779
  915MOL0     C26150   8.196   0.368   7.844 -0.7686  0.4122 -0.0199
  915MOL0     C26151   8.137   0.328   7.729 -0.9637  0.6371 -0.0020
  915MOL0     C26152   7.988   0.337   7.705 -0.4584  0.3418 -0.0337
  915MOL0     C26153   7.961   0.435   7.590  0.9098  0.1456  0.0094
  915MOL0     C26154   7.975   0.590   7.616  0.2182 -0.1138 -0.7490
  915MOL0     C26155   7.975   0.682   7.491 -0.4184 -0.3208  0.3857
  915MOL0     O26156   7.857   0.764   7.497 -0.5016  0.1412  0.3422
  915MOL0     C26157   7.772   0.780   7.396 -0.5499 -0.0875 -0.7286
  915MOL0     C26158   7.655   0.851   7.436  1.0248 -1.0021  0.3616
  915MOL0     C26159   7.556   0.894   7.347  1.0285  0.2437  1.3105
  915MOL0     C26160   7.435   0.986   7.382  0.2181 -0.3541 -0.3028
  915MOL0     C26161   7.578   0.847   7.210  0.5755 -0.1698  0.7404
  915MOL0     C26162   7.498   0.891   7.091  0.1307 -0.9474  0.0143
  915MOL0     O26163   7.432   0.795   7.017 -0.0703 -0.2151 -1.5233
  915MOL0     C26164   7.372   0.823   6.898 -0.1492  0.0680 -0.2096
  915MOL0     C26165   7.441   0.886   6.801  0.4248  0.5948  1.2018
  915MOL0     C26166   7.380   0.908   6.676 -0.7243  0.0581  0.2580
  915MOL0     C26167   7.257   0.847   6.645  1.0170 -0.1139  0.1443
  915MOL0     O26168   7.199   0.845   6.523  0.2823  0.1998 -0.4336
  915MOL0     C26169   7.088   0.943   6.519 -0.3869  0.9211 -0.2441
  915MOL0     C26170   7.137   1.073   6.448 -0.3362  0.9611  0.8655
  915MOL0     C26171   7.222   1.031   6.328  0.4143  0.2696 -0.2622
  915MOL0     C26172   7.239   1.139   6.225 -0.8100 -0.6214  0.6727
  915MOL0     C26173   7.340   1.104   6.111  0.6733  0.0227 -1.6553
  915MOL0     C26174   7.284   0.983   6.036  0.7770 -0.5625 -0.5985
  915MOL0     C26175   7.383   0.923   5.939  0.5399  0.9423  0.2590
  915MOL0     C26176   7.356   0.777   5.911 -0.8900 -0.3103  0.3962
  915MOL0    Cl26177   7.194   0.750   5.838  0.1877  0.0514 -0.2413
  915MOL0     C26178   7.183   0.784   6.747 -0.4946  1.8143  0.1005
  915MOL0     C26179   7.241   0.772   6.876  1.0923 -0.7496  0.6764
  915MOL0     O26180   7.495   1.009   7.068 -0.8867  0.3898 -0.4696
  915MOL0     C26181   7.685   0.768   7.176  0.1530  0.4147 -0.6760
  915MOL0     C26182   7.779   0.737   7.269 -0.2289 -0.4799 -0.8001
  915MOL0     N26183   8.236   0.265   7.651 -0.1427  0.1504 -0.1641
  915MOL0     N26184   8.352   0.278   7.709  1.0367  0.2816  0.1719
  915MOL0     C26185   9.136   0.431   8.347 -0.5450  0.1322  0.3964
  915MOL0     C26186   9.248   0.487   8.277  0.2576 -0.9971  0.1354
  915MOL0     C26187   9.695   0.518   8.190 -0.3065 -0.3528  0.8501
  915MOL0     C26188   9.719   0.655   8.173 -0.2414 -0.2851 -0.3885
  915MOL0     C26189   9.838   0.716   8.136 -0.0487  0.9785  0.0900
  915MOL0     C26190   9.953   0.645   8.131  0.3222  0.3297 -0.6089
  915MOL0     O26191  10.076   0.690   8.110 -0.0634  0.3768 -0.1447
  915MOL0     C26192  10.095   0.836   8.101  0.4740 -0.0660  1.4869
  915MOL0     C26193  10.231   0.882   8.076  0.3429 -0.4339 -0.4950
  915MOL0     C26194  10.278   0.858   7.941  0.6845 -0.0792 -1.3353
  915MOL0     C26195  10.420   0.917   7.928  0.2176 -0.5824 -0.0424
  915MOL0     C26196  10.422   1.062   7.900 -0.0662  0.2376  0.1596
  915MOL0     C26197  10.413   1.178   7.873  0.1208 -0.0825 -0.7615
  915MOL0     C26198   9.937   0.507   8.155 -0.0362 -0.2600 -0.1593
  915MOL0     C26199   9.815   0.442   8.193  0.5567 -0.3477 -0.3384
  915MOL0     C26200   9.824   0.296   8.220  1.0392 -0.4413 -0.3843
  915MOL0     H26201   9.471   0.540   8.511  1.2330  3.0398 -5.0167
  915MOL0     H26202   9.296   0.444   8.654  1.7971 -1.1875 -0.0942
  915MOL0     H26203   8.894   0.213   8.587  0.1385  1.2750  0.6197
  915MOL0     H26204   8.947   0.245   8.426 -2.0433  0.1344 -1.3974
  915MOL0     H26205   8.786   0.412   8.616 -0.2933  0.9911 -0.1464
  915MOL0     H26206   8.853   0.497   8.482 -1.4119  0.4943  1.4322
  915MOL0     H26207   8.664   0.270   8.475  2.5293 -2.5983 -2.6141
  915MOL0     H26208   8.632   0.442   8.443 -2.6234 -1.7179 -1.1548
  915MOL0     H26209   8.788   0.400   8.225  3.8915 -1.3897  2.7849
  915MOL0     H26210   8.779   0.238   8.276  3.4356  1.5916 -3.1377
  915MOL0     H26211   8.529   0.414   8.195 -1.5903 -1.4964 -0.7571
  915MOL0     H26212   8.532   0.254   8.275 -0.6182  0.0024 -0.9877
  915MOL0     H26213   8.682   0.327   8.013 -0.7207  1.6108  0.7852
  915MOL0     H26214   8.658   0.164   8.077 -1.1672 -0.2089  0.6192
  915MOL0     H26215   8.399   0.189   8.049 -1.7666  0.3028 -2.5257
  915MOL0     H26216   8.508   0.154   7.917  2.0101  0.0738  0.2288
  915MOL0     H26217   8.380   0.424   8.003 -1.0522  1.5233 -1.5544
  915MOL0     H26218   8.508   0.412   7.871 -1.4179 -0.0266 -2.3795
  915MOL0     H26219   8.139   0.422   7.919 -1.7293 -3.6370  2.4917
  915MOL0     H26220   7.933   0.364   7.795  1.8449 -0.3481  1.6661
  915MOL0     H26221   7.963   0.234   7.677 -2.1817  1.0586 -1.3230
  915MOL0     H26222   8.007   0.404   7.495  0.5517 -0.6142  0.0732
  915MOL0     H26223   7.855   0.414   7.576  0.0575  3.6869  0.2264
  915MOL0     H26224   7.885   0.612   7.675 -0.6656 -0.0361 -2.0801
  915MOL0     H26225   8.069   0.604   7.669  1.1206 -2.5639 -1.5897
  915MOL0     H26226   8.063   0.748   7.491  1.1821 -2.3602  0.5602
  915MOL0     H26227   7.971   0.614   7.406  3.3238 -1.4557  0.9163
  915MOL0     H26228   7.631   0.874   7.540 -0.8480  0.3485 -0.2998
  915MOL0     H26229   7.454   1.024   7.483  0.4867  0.1032 -0.5217
  915MOL0     H26230   7.334   0.947   7.376  0.4499 -0.9057 -0.7259
  915MOL0     H26231   7.438   1.072   7.314  3.6763  2.6884  3.1477
  915MOL0     H26232   7.540   0.925   6.826  0.6521  0.5999  0.3362
  915MOL0     H26233   7.430   0.967   6.600 -0.5478  0.4066  0.6411
  915MOL0     H26234   7.003   0.910   6.458  0.7266  0.5303 -1.6337
  915MOL0     H26235   7.046   0.961   6.618  1.8148 -3.1732  1.7053
  915MOL0     H26236   7.050   1.135   6.423  0.6073  1.1073 -2.6566
  915MOL0     H26237   7.211   1.125   6.509  0.6266  2.8582 -1.7123
  915MOL0     H26238   7.164   0.957   6.272  0.6375 -0.1875  0.0968
  915MOL0     H26239   7.318   0.981   6.342  1.0624  1.7290  0.8026
  915MOL0     H26240   7.280   1.234   6.262 -2.5830  0.0022  1.1308
  915MOL0     H26241   7.144   1.167   6.177 -0.2155  1.0992  0.4206
  915MOL0     H26242   7.365   1.194   6.053 -0.0555  1.3287 -0.0082
  915MOL0     H26243   7.430   1.065   6.159 -1.0279 -0.6613  1.1968
  915MOL0     H26244   7.193   1.004   5.980  1.4876  3.2940 -0.5286
  915MOL0     H26245   7.263   0.905   6.111  0.7301 -1.1411 -1.2063
  915MOL0     H26246   7.488   0.929   5.971  1.5861 -2.4395 -2.0440
  915MOL0     H26247   7.374   0.983   5.848 -0.2450  0.1766 -0.1820
  915MOL0     H26248   7.368   0.718   6.002  0.4984 -0.6417  0.0281
  915MOL0     H26249   7.428   0.746   5.835 -1.2011 -1.8570  0.6926
  915MOL0     H26250   7.096   0.729   6.712 -0.0614 -1.4204  3.4103
  915MOL0     H26251   7.188   0.700   6.938  1.5633 -4.2450 -2.6199
  915MOL0     H26252   7.679   0.731   7.074 -1.8151 -0.2163 -0.3830
  915MOL0     H26253   7.869   0.690   7.233  0.5190  2.0282 -2.4408
  915MOL0     H26254   9.044   0.415   8.291 -0.7533 -0.1704  0.8173
  915MOL0     H26255   9.243   0.504   8.170  3.5851  2.3175  0.3097
  915MOL0     H26256   9.642   0.732   8.180 -0.2000 -0.0894 -1.8266
  915MOL0     H26257   9.844   0.822   8.113  1.0362  0.4830 -2.1614
  915MOL0     H26258  10.031   0.872   8.020 -1.2426  1.2888  3.3470
  915MOL0     H26259  10.062   0.881   8.195 -0.7569  3.7574 -0.5569
  915MOL0     H26260  10.292   0.841   8.157 -0.5884  1.3997  1.2244
  915MOL0     H26261  10.220   0.989   8.093 -5.3413 -0.7604 -0.1488
  915MOL0     H26262  10.276   0.750   7.925 -2.6410 -0.6735  1.7419
  915MOL0     H26263  10.203   0.903   7.876 -1.1180 -0.2952  0.4942
  915MOL0     H26264  10.462   0.867   7.841  1.2110  0.4879 -0.1920
  915MOL0     H26265  10.476   0.888   8.017 -2.5041 -2.2055  1.2921
  915MOL0     H26266  10.409   1.283   7.850 -1.2054  0.4692  1.6565
  915MOL0     H26267  10.026   0.445   8.152  1.0574  1.1776 -3.9893
  915MOL0     H26268   9.829   0.246   8.123  0.4448 -1.7188  0.2343
  915MOL0     H26269   9.917   0.267   8.270 -0.4092  1.2485  3.6668
  915MOL0     H26270   9.736   0.254   8.267 -0.2385 -3.2315 -4.6651
  916MOL0     O26271   5.090   6.235   6.436 -0.8531  0.2827  0.0376
  916MOL0     C26272   5.085   6.134   6.506  0.7094  1.1014 -0.3733
  916MOL0     O26273   4.982   6.036   6.495 -0.0196  0.0469  0.0328
  916MOL0     C26274   4.888   6.054   6.395 -0.1900  1.0026  0.7429
  916MOL0     C26275   4.816   6.171   6.384 -0.6419  0.5121  0.4785
  916MOL0     C26276   4.713   6.179   6.278  0.0810 -0.2502 -0.7951
  916MOL0     C26277   4.681   6.074   6.201  0.3539  0.2069  0.1188
  916MOL0     O26278   4.581   6.097   6.110  0.6776 -1.1310 -0.5533
  916MOL0     C26279   4.537   5.981   6.025 -0.1183  0.2185 -0.3497
  916MOL0     C26280   4.603   5.993   5.877  0.6409  0.0487 -0.5986
  916MOL0     C26281   4.576   5.889   5.766 -0.0428 -0.5707 -0.6400
  916MOL0     C26282   4.595   5.946   5.620  0.4574 -0.2092 -0.5436
  916MOL0     C26283   4.503   5.891   5.508  0.2376  0.5245  0.8197
  916MOL0     C26284   4.533   5.956   5.376  0.8009 -0.3630 -0.4077
  916MOL0     C26285   4.462   5.885   5.268 -0.6126 -0.5196 -0.4169
  916MOL0     C26286   4.301   5.903   5.256 -0.4035  0.6952 -0.1312
  916MOL0     N26287   4.245   5.849   5.131  0.1329 -0.0843  1.0094
  916MOL0     C26288   4.259   5.726   5.075 -0.2898  0.1487  0.6733
  916MOL0     C26289   4.208   5.726   4.952 -0.4552 -0.3139  0.0424
  916MOL0     C26290   4.214   5.614   4.858  0.4135  0.4584 -0.8308
  916MOL0     C26291   4.267   5.657   4.726  0.2914 -0.7799  0.6643
  916MOL0     C26292   4.323   5.531   4.647 -0.0584  0.4324  0.0134
  916MOL0     C26293   4.390   5.585   4.524 -0.6110 -0.5474  0.7102
  916MOL0     O26294   4.290   5.616   4.424  0.4883  0.4697  0.8310
  916MOL0     C26295   4.225   5.518   4.353 -0.3142 -0.2956  0.2857
  916MOL0     C26296   4.264   5.385   4.345  0.4947 -0.2720  0.7144
  916MOL0     C26297   4.181   5.296   4.272 -0.3460 -0.0129 -0.0605
  916MOL0     C26298   4.216   5.147   4.281  0.4786 -0.4637  0.2838
  916MOL0     C26299   4.067   5.349   4.206  0.4650  0.0799  1.0245
  916MOL0     C26300   3.966   5.258   4.147 -0.0137 -0.3137  0.1691
  916MOL0     O26301   3.954   5.128   4.183  0.2668 -1.2508 -0.2235
  916MOL0     C26302   3.910   5.025   4.103  0.0182  0.5568 -0.7916
  916MOL0     C26303   4.005   4.938   4.041  0.9011 -0.2516  0.4265
  916MOL0     C26304   3.960   4.831   3.952 -0.1937 -0.0785 -0.0648
  916MOL0     C26305   3.821   4.814   3.933 -0.2156 -0.1115 -0.9809
  916MOL0     O26306   3.784   4.713   3.855  0.3838 -0.3784 -0.3394
  916MOL0     C26307   3.678   4.743   3.769  0.1505 -0.1376 -0.2440
  916MOL0     C26308   3.666   4.619   3.698 -0.3982 -0.6967  0.0576
  916MOL0     C26309   3.535   4.620   3.636 -0.6032 -0.8461 -0.2056
  916MOL0     C26310   3.520   4.498   3.544  0.7790 -0.5605 -0.0215
  916MOL0     C26311   3.382   4.497   3.482 -0.3153  0.5399  0.3601
  916MOL0     C26312   3.345   4.363   3.414 -1.2752  0.0134 -0.1653
  916MOL0     C26313   3.206   4.375   3.344  0.5595  0.2150 -0.2199
  916MOL0     C26314   3.103   4.367   3.457 -0.9344  0.0281 -0.0803
  916MOL0    Cl26315   2.942   4.366   3.388  0.1438 -0.0623  0.3814
  916MOL0     C26316   3.734   4.903   3.990 -0.3250 -0.2902 -0.6629
  916MOL0     C26317   3.778   5.006   4.075 -0.5824 -0.0036 -0.1927
  916MOL0     O26318   3.911   5.305   4.046 -0.9152  0.2230 -0.2972
  916MOL0     C26319   4.033   5.484   4.218 -0.3408  0.2011  0.0522
  916MOL0     C26320   4.104   5.573   4.291 -0.1512  0.5238 -0.4518
  916MOL0     N26321   4.175   5.859   4.931  1.1612  0.4436 -0.1114
  916MOL0     N26322   4.191   5.927   5.041  0.5371 -0.0186 -0.0292
  916MOL0     C26323   4.758   5.954   6.219 -0.5654 -0.8789  0.4082
  916MOL0     C26324   4.855   5.947   6.310  0.1778 -0.7816  0.0624
  916MOL0     C26325   5.202   6.116   6.610 -0.0053 -0.3804 -0.6114
  916MOL0     C26326   5.284   6.228   6.630 -0.0650  0.1255 -0.5187
  916MOL0     C26327   5.386   6.232   6.724  0.0298 -0.6069 -0.5378
  916MOL0     C26328   5.425   6.115   6.790  0.1266  0.0253  1.1432
  916MOL0     O26329   5.536   6.111   6.855 -0.0441  0.0472  0.0840
  916MOL0     C26330   5.587   6.225   6.916 -0.2976 -0.1727  0.7783
  916MOL0     C26331   5.489   6.299   7.002 -0.3111  0.4295  0.8241
  916MOL0     C26332   5.548   6.407   7.102  0.3288  0.4194  0.3455
  916MOL0     C26333   5.632   6.516   7.032 -0.1849 -0.2934 -0.5336
  916MOL0     C26334   5.710   6.592   7.135 -0.3343 -0.2435 -0.0670
  916MOL0     C26335   5.765   6.657   7.222  0.4514  1.4873 -0.7881
  916MOL0     C26336   5.341   6.007   6.773  0.5488  0.6586  0.3952
  916MOL0     C26337   5.227   6.006   6.697  0.2495 -0.4183  0.7066
  916MOL0     C26338   5.148   5.873   6.693 -0.2454  0.7886  0.2323
  916MOL0     H26339   4.833   6.253   6.453  0.7101 -1.7040  2.9591
  916MOL0     H26340   4.663   6.273   6.261 -0.0231 -0.7366 -3.7844
  916MOL0     H26341   4.429   5.992   6.009 -0.3821  0.5109  1.4437
  916MOL0     H26342   4.545   5.885   6.076 -0.3813  1.3349  1.8934
  916MOL0     H26343   4.582   6.094   5.841 -1.3738  0.3518  1.1856
  916MOL0     H26344   4.711   5.990   5.895  0.7375 -1.3591 -1.3477
  916MOL0     H26345   4.633   5.795   5.776  0.4308 -0.4906 -2.2966
  916MOL0     H26346   4.475   5.860   5.795 -0.4834  3.4478  2.7565
  916MOL0     H26347   4.579   6.054   5.613 -2.1320 -0.5981 -1.6561
  916MOL0     H26348   4.699   5.927   5.590 -0.1080 -0.8211 -2.2323
  916MOL0     H26349   4.398   5.912   5.525  0.0068  1.7720 -1.6398
  916MOL0     H26350   4.510   5.782   5.504  2.0958  0.2639  5.3294
  916MOL0     H26351   4.496   6.059   5.380 -0.5988 -0.8803  0.9216
  916MOL0     H26352   4.641   5.949   5.359  0.7626  1.4679 -1.6870
  916MOL0     H26353   4.465   5.776   5.278  1.7230 -0.4074  0.6667
  916MOL0     H26354   4.503   5.910   5.170 -0.3396  3.7497  0.6289
  916MOL0     H26355   4.257   5.857   5.345 -1.0949  2.6260  0.5954
  916MOL0     H26356   4.266   6.007   5.266  0.0739  0.6205  4.5868
  916MOL0     H26357   4.304   5.639   5.121 -0.9536 -0.3266  0.4445
  916MOL0     H26358   4.123   5.554   4.851  1.8650 -1.7360 -2.1361
  916MOL0     H26359   4.285   5.539   4.895  0.1567 -0.2449 -1.7386
  916MOL0     H26360   4.178   5.705   4.683 -0.1182 -3.5503 -1.8957
  916MOL0     H26361   4.343   5.736   4.726 -0.0108 -0.2181 -4.0422
  916MOL0     H26362   4.386   5.472   4.714  2.5606  1.1312 -1.6783
  916MOL0     H26363   4.239   5.469   4.613 -0.1737  1.5514 -1.8506
  916MOL0     H26364   4.450   5.673   4.547 -0.0086 -0.1694 -1.9641
  916MOL0     H26365   4.454   5.513   4.472  0.1382  1.2408 -0.9560
  916MOL0     H26366   4.357   5.347   4.386  0.2169 -1.4349  0.2967
  916MOL0     H26367   4.145   5.089   4.341  1.9576 -0.5919  2.0115
  916MOL0     H26368   4.319   5.126   4.311  0.8352 -0.8759 -1.1539
  916MOL0     H26369   4.218   5.107   4.179  2.1379  1.4787 -0.5116
  916MOL0     H26370   4.110   4.962   4.054  1.0900 -1.0900  0.5119
  916MOL0     H26371   4.020   4.765   3.890 -1.0601 -0.4837 -0.5086
  916MOL0     H26372   3.587   4.763   3.827  0.0600  2.5531 -1.1715
  916MOL0     H26373   3.698   4.835   3.714  1.7241 -0.0976  0.3475
  916MOL0     H26374   3.735   4.615   3.613 -4.0637 -1.2164 -3.1443
  916MOL0     H26375   3.674   4.522   3.749 -2.6988 -1.7355 -1.3875
  916MOL0     H26376   3.516   4.702   3.566 -1.1845 -0.8404 -0.0504
  916MOL0     H26377   3.463   4.618   3.718 -0.6050  3.9209  0.2020
  916MOL0     H26378   3.529   4.404   3.598 -2.0398 -1.6148 -1.2143
  916MOL0     H26379   3.597   4.497   3.466  0.5435  0.0807 -0.2671
  916MOL0     H26380   3.303   4.525   3.552 -0.4992  2.1451 -0.4538
  916MOL0     H26381   3.371   4.575   3.407 -1.4599 -1.8361 -2.1111
  916MOL0     H26382   3.359   4.279   3.483 -1.6104 -0.2799 -0.4475
  916MOL0     H26383   3.421   4.347   3.337 -2.0411 -0.4087 -0.8472
  916MOL0     H26384   3.188   4.293   3.275 -0.4651 -1.0115  1.4190
  916MOL0     H26385   3.187   4.469   3.292  1.5470  0.4204 -0.2289
  916MOL0     H26386   3.108   4.451   3.527  3.4016  0.4985 -0.7268
  916MOL0     H26387   3.114   4.276   3.516 -0.1885  1.2982  1.8252
  916MOL0     H26388   3.630   4.885   3.963 -0.4238 -0.3752 -0.2290
  916MOL0     H26389   3.714   5.073   4.131  2.1703  1.5802  1.3101
  916MOL0     H26390   3.944   5.526   4.173  1.7941  4.4976 -0.6828
  916MOL0     H26391   4.072   5.676   4.306  0.0832  0.4213  0.8480
  916MOL0     H26392   4.748   5.862   6.162  2.1585  0.0376 -1.7871
  916MOL0     H26393   4.901   5.849   6.312  0.4378 -0.7036 -1.1965
  916MOL0     H26394   5.272   6.320   6.574  0.0127 -0.9544 -2.4005
  916MOL0     H26395   5.435   6.328   6.737  3.3352 -2.0192 -1.6576
  916MOL0     H26396   5.676   6.213   6.978 -1.4755 -0.4052  2.5043
  916MOL0     H26397   5.617   6.291   6.834  0.4183 -0.7347  0.5777
  916MOL0     H26398   5.435   6.224   7.060  0.7312  0.0562  1.3263
  916MOL0     H26399   5.411   6.351   6.945  1.2630  2.0984  0.0904
  916MOL0     H26400   5.458   6.449   7.147 -1.4261 -0.9294 -1.7089
  916MOL0     H26401   5.612   6.349   7.170 -0.5385 -1.7230 -0.5472
  916MOL0     H26402   5.568   6.583   6.975 -1.7894 -0.8414  0.5399
  916MOL0     H26403   5.703   6.455   6.976 -1.7118 -2.7497  0.0493
  916MOL0     H26404   5.827   6.710   7.292  1.0000 -2.5848  2.2171
  916MOL0     H26405   5.367   5.921   6.835 -1.0047 -0.2388 -0.1432
  916MOL0     H26406   5.048   5.901   6.728 -0.7454  0.0009 -0.5358
  916MOL0     H26407   5.146   5.832   6.592  3.1410 -2.1621  1.1854
  916MOL0     H26408   5.197   5.803   6.761  0.6006  0.4001 -0.7615
  917MOL0     O26409   3.710  10.631   3.127  0.3141  1.0133 -0.0097
  917MOL0     C26410   3.684  10.752   3.122  0.8072 -0.3931  0.1873
  917MOL0     O26411   3.770  10.847   3.151 -0.0741 -0.5975  0.4529
  917MOL0     C26412   3.897  10.810   3.185 -0.4036 -0.3972  0.9602
  917MOL0     C26413   4.005  10.869   3.119  0.4794 -0.6728 -0.2027
  917MOL0     C26414   4.139  10.840   3.152 -0.2081  0.3381  0.3565
  917MOL0     C26415   4.167  10.748   3.261 -1.1541  0.2152  0.7805
  917MOL0     O26416   4.293  10.693   3.279  0.6377 -0.4422  0.0471
  917MOL0     C26417   4.407  10.770   3.239 -0.3394 -0.1268 -0.2442
  917MOL0     C26418   4.523  10.707   3.329  0.4441  0.3442  0.0465
  917MOL0     C26419   4.662  10.767   3.309  0.1050  0.1430 -0.0295
  917MOL0     C26420   4.769  10.672   3.369  0.1273  0.6402 -0.0139
  917MOL0     C26421   4.903  10.746   3.386 -0.7577 -1.0140  0.0633
  917MOL0     C26422   5.004  10.656   3.480  0.1114  0.6361  0.2824
  917MOL0     C26423   4.974  10.640   3.627 -0.2158  0.2169 -0.9534
  917MOL0     C26424   5.084  10.576   3.716 -0.4203 -0.5345  0.5304
  917MOL0     N26425   5.222  10.629   3.689  0.0182 -0.0167  0.6216
  917MOL0     C26426   5.267  10.746   3.740 -0.0613 -0.5409 -1.2480
  917MOL0     C26427   5.386  10.781   3.670 -0.6471  1.0738 -0.1324
  917MOL0     C26428   5.477  10.900   3.680  1.1615  0.3925 -1.2181
  917MOL0     C26429   5.625  10.878   3.682 -0.2175 -0.5494  0.1098
  917MOL0     C26430   5.689  11.016   3.670 -0.0935  0.1057 -0.5492
  917MOL0     C26431   5.841  11.017   3.680  0.0256 -0.9237 -0.2709
  917MOL0     O26432   5.892  10.943   3.794  0.3937 -0.0031 -0.3082
  917MOL0     C26433   6.022  10.903   3.792 -0.6164 -0.0554  0.0953
  917MOL0     C26434   6.080  10.802   3.870 -0.3825  0.9693 -0.0610
  917MOL0     C26435   6.214  10.766   3.882  1.1119 -0.1891 -1.0136
  917MOL0     C26436   6.264  10.676   3.987  0.4426  0.1113  0.2477
  917MOL0     C26437   6.312  10.823   3.803 -0.6241  0.0872  0.4534
  917MOL0     C26438   6.470  10.794   3.789  0.7363 -0.0701  0.7387
  917MOL0     O26439   6.520  10.814   3.661  1.2913 -0.6270  0.6962
  917MOL0     C26440   6.654  10.793   3.637  0.1090 -0.0394 -0.3210
  917MOL0     C26441   6.708  10.667   3.647  0.4591 -0.0384  0.4631
  917MOL0     C26442   6.836  10.647   3.604  0.2787 -1.3583 -1.0566
  917MOL0     C26443   6.912  10.751   3.553  0.2408  0.1358 -0.0885
  917MOL0     O26444   7.033  10.721   3.489 -0.8140 -0.3890  0.4038
  917MOL0     C26445   7.122  10.825   3.458  0.3586 -0.0754 -0.3016
  917MOL0     C26446   7.262  10.780   3.413 -0.0097  0.5783 -0.7704
  917MOL0     C26447   7.253  10.743   3.266  0.5238  0.6027  0.2677
  917MOL0     C26448   7.252  10.589   3.245  0.0410 -0.0506  0.7602
  917MOL0     C26449   7.275  10.554   3.094  0.6972  0.5305 -0.1894
  917MOL0     C26450   7.157  10.530   3.024 -0.2045  0.3848 -0.0221
  917MOL0     C26451   7.191  10.457   2.894  0.2749  0.2085 -0.4149
  917MOL0     C26452   7.063  10.380   2.848 -0.2804 -0.1915 -0.3267
  917MOL0    Cl26453   6.917  10.484   2.830  0.0269  0.2584 -0.5285
  917MOL0     C26454   6.862  10.880   3.556 -0.3553 -0.5238  0.3235
  917MOL0     C26455   6.727  10.902   3.599 -0.4574 -0.3001 -0.0024
  917MOL0     O26456   6.533  10.775   3.889 -0.1038  0.4312 -0.1324
  917MOL0     C26457   6.259  10.927   3.715  0.8483  0.6292 -0.3633
  917MOL0     C26458   6.125  10.967   3.720  0.2255 -0.0152 -0.8496
  917MOL0     N26459   5.411  10.663   3.594 -0.1798 -0.4444 -0.1887
  917MOL0     N26460   5.316  10.583   3.593  0.7798  0.1320  1.0997
  917MOL0     C26461   4.056  10.703   3.327 -0.0817  1.1883  0.3132
  917MOL0     C26462   3.924  10.738   3.300 -0.1760  0.6775  1.0607
  917MOL0     C26463   3.552  10.802   3.056 -0.0393  0.4708  0.4422
  917MOL0     C26464   3.496  10.930   3.081  0.3096  0.8348  0.3807
  917MOL0     C26465   3.377  10.969   3.019 -0.2715  0.2191  0.3970
  917MOL0     C26466   3.298  10.883   2.945 -0.6579 -0.3115 -0.2062
  917MOL0     O26467   3.182  10.923   2.896  0.2711 -0.3364 -0.0837
  917MOL0     C26468   3.096  10.850   2.803  0.9441 -0.4087 -0.4483
  917MOL0     C26469   3.006  10.967   2.742  0.5868  0.1226 -0.9273
  917MOL0     C26470   3.002  10.966   2.595 -0.6557  1.3707  0.0253
  917MOL0     C26471   2.947  10.822   2.543  0.6887  0.7861 -0.1738
  917MOL0     C26472   2.948  10.819   2.396 -0.3070  0.1544 -0.1202
  917MOL0     C26473   2.952  10.816   2.272  0.4197  0.5292 -1.1846
  917MOL0     C26474   3.338  10.751   2.929  0.0128 -1.0900  0.5293
  917MOL0     C26475   3.461  10.715   2.988  0.1655  0.1086 -0.3644
  917MOL0     C26476   3.497  10.565   2.967  0.1886  0.0256  0.0416
  917MOL0     H26477   3.979  10.925   3.030  0.4138  0.7461  0.6873
  917MOL0     H26478   4.222  10.864   3.086 -0.5921 -1.2764 -0.7728
  917MOL0     H26479   4.394  10.874   3.270  2.5705 -0.0777  1.1758
  917MOL0     H26480   4.427  10.766   3.132 -0.5907 -0.1406 -0.2927
  917MOL0     H26481   4.509  10.725   3.436  2.0066 -1.7808  0.6705
  917MOL0     H26482   4.532  10.600   3.309 -2.4188  0.4058 -2.2094
  917MOL0     H26483   4.682  10.787   3.204 -3.0457 -1.2384 -1.0175
  917MOL0     H26484   4.666  10.864   3.359 -0.8663  1.5791 -2.5871
  917MOL0     H26485   4.739  10.635   3.467  3.0839 -0.5556  0.5338
  917MOL0     H26486   4.789  10.579   3.314 -1.0364  0.8499 -0.8419
  917MOL0     H26487   4.902  10.848   3.425  1.6165 -0.5055 -1.0813
  917MOL0     H26488   4.941  10.760   3.285 -1.6097 -0.6045 -0.2121
  917MOL0     H26489   5.011  10.558   3.431  2.1173  0.7994  0.1462
  917MOL0     H26490   5.106  10.693   3.465  1.2325 -1.8557  1.0898
  917MOL0     H26491   4.883  10.580   3.634  0.6617 -1.3805 -2.3582
  917MOL0     H26492   4.953  10.738   3.669 -2.9953 -0.3200 -0.8872
  917MOL0     H26493   5.051  10.592   3.819  2.1780  1.4778  1.1588
  917MOL0     H26494   5.073  10.468   3.705 -0.5875 -0.3249 -2.0407
  917MOL0     H26495   5.233  10.818   3.814  0.4489 -1.9739  0.4836
  917MOL0     H26496   5.456  10.946   3.777 -0.6598 -1.6861 -0.5618
  917MOL0     H26497   5.451  10.973   3.602 -1.5279  1.9619  0.9781
  917MOL0     H26498   5.649  10.822   3.773 -2.5510  0.7385  1.6506
  917MOL0     H26499   5.660  10.818   3.598 -1.8005  0.9389 -1.7162
  917MOL0     H26500   5.664  11.058   3.572  0.3857 -1.7719 -1.5316
  917MOL0     H26501   5.648  11.066   3.758 -0.5964 -3.6988  1.5941
  917MOL0     H26502   5.877  10.965   3.590  0.4191 -0.2575 -0.5001
  917MOL0     H26503   5.863  11.123   3.667 -1.8529 -0.2466  1.5967
  917MOL0     H26504   6.024  10.747   3.945 -2.3376  2.5655 -0.2830
  917MOL0     H26505   6.332  10.726   4.057  0.8084 -1.0016  0.7011
  917MOL0     H26506   6.325  10.598   3.940 -1.4965 -0.6319 -1.1341
  917MOL0     H26507   6.192  10.622   4.049 -0.3087  2.3915  1.4727
  917MOL0     H26508   6.668  10.571   3.678  4.3494 -1.5798  1.2721
  917MOL0     H26509   6.875  10.545   3.606 -1.8576 -2.2082  0.3834
  917MOL0     H26510   7.091  10.904   3.389  2.6071  1.8360  0.7118
  917MOL0     H26511   7.132  10.879   3.553  1.0964  0.4486 -0.6704
  917MOL0     H26512   7.330  10.863   3.436  2.6273 -1.3538 -1.1136
  917MOL0     H26513   7.299  10.698   3.475  1.6506 -1.9640 -4.7565
  917MOL0     H26514   7.338  10.794   3.220 -0.7250  2.9712  0.4377
  917MOL0     H26515   7.153  10.762   3.227 -0.3053 -2.0627  0.8988
  917MOL0     H26516   7.157  10.547   3.281 -0.2577 -1.1105 -1.1071
  917MOL0     H26517   7.335  10.543   3.299 -1.9883 -2.5680  1.9675
  917MOL0     H26518   7.333  10.639   3.057  1.3628 -0.2699 -1.0206
  917MOL0     H26519   7.343  10.469   3.088 -0.3794 -0.4531  0.9971
  917MOL0     H26520   7.097  10.621   3.016 -0.3021  0.2255 -1.2523
  917MOL0     H26521   7.095  10.468   3.091 -2.9355  5.1358  2.4309
  917MOL0     H26522   7.273  10.384   2.901  0.2470  0.2432  0.4956
  917MOL0     H26523   7.232  10.535   2.830 -1.6927  1.7770  0.1288
  917MOL0     H26524   7.059  10.300   2.922  2.5970  0.5148  0.7496
  917MOL0     H26525   7.067  10.328   2.752 -4.0959  1.4402 -1.5676
  917MOL0     H26526   6.912  10.969   3.519  1.2818 -1.3930  0.3370
  917MOL0     H26527   6.667  10.991   3.589 -1.8125 -0.8988  2.2600
  917MOL0     H26528   6.332  10.970   3.647  2.1438 -3.1959 -1.6561
  917MOL0     H26529   6.104  11.056   3.662  0.1860  0.1335 -0.6096
  917MOL0     H26530   4.080  10.623   3.397 -2.2648 -1.5385 -1.8162
  917MOL0     H26531   3.836  10.702   3.352 -0.8730 -0.1617 -0.6203
  917MOL0     H26532   3.542  11.005   3.145 -1.4085  1.0911  1.3713
  917MOL0     H26533   3.351  11.074   3.029 -2.9167  0.0589 -2.8805
  917MOL0     H26534   3.171  10.804   2.737  0.4557 -0.5968 -0.8765
  917MOL0     H26535   3.032  10.773   2.847  1.5502  0.8382  2.8336
  917MOL0     H26536   3.035  11.063   2.785  0.9619 -1.5106  2.8665
  917MOL0     H26537   2.902  10.956   2.774  1.0417 -1.6262  0.0866
  917MOL0     H26538   2.952  11.052   2.548 -1.0770  0.3930 -1.3759
  917MOL0     H26539   3.106  10.965   2.562  0.1422 -2.6645  2.0933
  917MOL0     H26540   2.840  10.815   2.565  0.8192 -1.7324 -0.1349
  917MOL0     H26541   3.001  10.738   2.587  0.7929  2.0173  2.2131
  917MOL0     H26542   2.963  10.817   2.165 -1.3751  0.4645 -1.3918
  917MOL0     H26543   3.275  10.686   2.868 -0.7929  0.5909 -0.4916
  917MOL0     H26544   3.497  10.519   3.066 -2.2115  1.4877  0.8297
  917MOL0     H26545   3.435  10.516   2.892 -1.1775 -0.0877  1.1966
  917MOL0     H26546   3.600  10.554   2.934 -0.0718  0.2775 -0.8816
  918MOL0     O26547   7.205   1.254   3.623  0.0234  0.1589  0.2982
  918MOL0     C26548   7.219   1.318   3.725  0.5172  0.8409 -0.6916
  918MOL0     O26549   7.340   1.340   3.788  0.1648  0.5825  0.5526
  918MOL0     C26550   7.432   1.231   3.790  0.3229 -0.0336 -0.5498
  918MOL0     C26551   7.387   1.097   3.796  0.3312  0.0106 -0.2255
  918MOL0     C26552   7.480   0.997   3.802 -0.4651  0.2944  0.3533
  918MOL0     C26553   7.616   1.027   3.828 -0.5920 -0.5812 -0.5821
  918MOL0     O26554   7.707   0.935   3.866 -0.1186  0.4340  0.5850
  918MOL0     C26555   7.784   0.960   3.990  0.3066  0.1971  1.1671
  918MOL0     C26556   7.817   0.820   4.051  0.0799 -0.1940  0.4379
  918MOL0     C26557   7.690   0.742   4.092 -0.3370  0.6492 -1.1846
  918MOL0     C26558   7.646   0.779   4.234  0.8022 -0.0535  0.0865
  918MOL0     C26559   7.537   0.672   4.265 -0.6502  0.0579 -0.0293
  918MOL0     C26560   7.451   0.699   4.389  0.5081 -0.1494  1.0112
  918MOL0     C26561   7.361   0.589   4.423  0.3561  0.0669 -0.1429
  918MOL0     C26562   7.445   0.472   4.473 -0.6474  0.1006 -0.4160
  918MOL0     N26563   7.355   0.400   4.556 -0.8539  0.6315 -0.3281
  918MOL0     C26564   7.239   0.330   4.527 -0.7694  0.8897 -0.0030
  918MOL0     C26565   7.190   0.292   4.646  0.3759 -0.4973 -0.1316
  918MOL0     C26566   7.077   0.207   4.686  0.0120 -0.0764 -0.0506
  918MOL0     C26567   6.943   0.270   4.637  0.1143  0.7448 -0.4600
  918MOL0     C26568   6.812   0.183   4.672  0.1070 -0.4433 -0.4406
  918MOL0     C26569   6.679   0.252   4.616 -0.2499 -0.5666 -0.2686
  918MOL0     O26570   6.648   0.207   4.482  0.5379  0.2390 -0.2479
  918MOL0     C26571   6.720   0.251   4.373 -0.4602  0.6816 -0.1595
  918MOL0     C26572   6.829   0.174   4.332  0.5874 -0.9063  0.0399
  918MOL0     C26573   6.893   0.201   4.216  0.2109 -0.1993  0.0130
  918MOL0     C26574   7.003   0.108   4.185 -0.9568  0.2565 -0.6245
  918MOL0     C26575   6.857   0.309   4.128  0.7294  0.0442  0.4810
  918MOL0     C26576   6.933   0.349   4.009 -0.2970  0.4664 -0.0164
  918MOL0     O26577   6.855   0.421   3.915  0.0814 -0.1510  0.1615
  918MOL0     C26578   6.899   0.469   3.802  0.4178  0.0162  0.4700
  918MOL0     C26579   6.795   0.536   3.731 -0.5944 -0.1226 -0.6814
  918MOL0     C26580   6.823   0.596   3.605 -1.1555  0.6101  0.6454
  918MOL0     C26581   6.953   0.591   3.552  0.1130  0.5349 -0.3625
  918MOL0     O26582   6.981   0.659   3.428  0.8243  0.3340  0.1847
  918MOL0     C26583   7.099   0.739   3.422  0.1169  0.6277  0.0409
  918MOL0     C26584   7.071   0.869   3.346  0.2217 -0.4771 -0.2970
  918MOL0     C26585   7.193   0.942   3.303 -0.1929 -0.3006  0.5277
  918MOL0     C26586   7.308   0.960   3.406  0.0862  0.1615 -0.7376
  918MOL0     C26587   7.424   1.049   3.349  0.2647  0.3043  0.3501
  918MOL0     C26588   7.408   1.202   3.353 -0.1636 -0.6459  0.0889
  918MOL0     C26589   7.507   1.269   3.443 -0.8118 -1.3769  0.3316
  918MOL0     C26590   7.472   1.416   3.459  0.3280 -0.5392 -0.1602
  918MOL0    Cl26591   7.581   1.498   3.579  0.5475 -0.2201 -0.2557
  918MOL0     C26592   7.051   0.522   3.616 -0.5769  0.3686  0.2140
  918MOL0     C26593   7.023   0.465   3.737 -1.0753  0.1899 -0.3845
  918MOL0     O26594   7.051   0.336   4.005 -0.4708  0.0807 -0.4055
  918MOL0     C26595   6.738   0.381   4.171  0.0762  0.0785  0.2737
  918MOL0     C26596   6.676   0.359   4.289  0.4447  0.0373  0.4776
  918MOL0     N26597   7.283   0.315   4.741  0.4858  1.0178  0.8913
  918MOL0     N26598   7.377   0.381   4.685 -0.0801  0.0155  0.6134
  918MOL0     C26599   7.654   1.162   3.836  0.7493 -0.2337  0.5774
  918MOL0     C26600   7.564   1.265   3.818  0.8628 -0.4873 -0.1413
  918MOL0     C26601   7.092   1.345   3.807 -0.2860  0.2114 -0.0760
  918MOL0     C26602   7.112   1.352   3.942 -0.3584  0.3689  0.5041
  918MOL0     C26603   7.001   1.347   4.036  0.5950 -1.0601  0.1965
  918MOL0     C26604   6.872   1.363   3.981 -0.0070 -0.1622 -0.1623
  918MOL0     O26605   6.757   1.382   4.048  0.1012  0.3570  0.3337
  918MOL0     C26606   6.756   1.386   4.190 -0.8703 -0.2331  0.5886
  918MOL0     C26607   6.634   1.461   4.220 -0.7396  0.6223  0.7352
  918MOL0     C26608   6.642   1.608   4.182 -0.7810  0.0716 -0.2209
  918MOL0     C26609   6.756   1.687   4.249 -0.4097 -0.0151  1.4840
  918MOL0     C26610   6.738   1.714   4.387  0.6462 -0.9858 -0.3050
  918MOL0     C26611   6.724   1.767   4.499 -0.1247 -0.1418  0.4550
  918MOL0     C26612   6.859   1.386   3.839 -0.3637  0.7807  0.4509
  918MOL0     C26613   6.962   1.368   3.756 -0.3451  0.6798 -0.0485
  918MOL0     C26614   6.934   1.379   3.602  0.8890  0.4307  0.7708
  918MOL0     H26615   7.282   1.070   3.789  0.7745 -1.5923 -0.9861
  918MOL0     H26616   7.463   0.890   3.802  2.8779 -0.3369  0.8451
  918MOL0     H26617   7.736   1.024   4.065 -0.7030  0.7106  0.1155
  918MOL0     H26618   7.876   1.011   3.960 -0.4776 -0.2205 -2.4155
  918MOL0     H26619   7.873   0.779   3.966 -0.6018  0.8012 -0.5087
  918MOL0     H26620   7.881   0.834   4.140 -2.2622 -0.9233  2.3448
  918MOL0     H26621   7.612   0.751   4.015 -0.7844 -1.0497 -0.9824
  918MOL0     H26622   7.716   0.637   4.110 -1.2355  0.9013  2.2183
  918MOL0     H26623   7.733   0.791   4.298  1.8272  5.2806 -1.7878
  918MOL0     H26624   7.611   0.882   4.229  2.1207  0.3849 -0.5040
  918MOL0     H26625   7.584   0.573   4.267  1.6776  1.0173  3.8094
  918MOL0     H26626   7.463   0.670   4.185 -1.5025 -2.5474  0.7026
  918MOL0     H26627   7.524   0.726   4.467  3.2436 -3.9544  0.0746
  918MOL0     H26628   7.390   0.787   4.367 -0.0938 -1.0008 -0.9123
  918MOL0     H26629   7.303   0.551   4.338  0.8378  0.7892 -0.8178
  918MOL0     H26630   7.284   0.622   4.493  0.8434 -0.0361  0.4466
  918MOL0     H26631   7.493   0.419   4.390 -0.0210 -1.6668  1.0148
  918MOL0     H26632   7.526   0.518   4.530 -2.7994  1.5930  1.6035
  918MOL0     H26633   7.181   0.319   4.436  0.7383 -2.8374 -0.7032
  918MOL0     H26634   7.067   0.191   4.794 -1.3914 -0.8042 -0.2678
  918MOL0     H26635   7.093   0.108   4.642  1.1066 -0.6972  1.6142
  918MOL0     H26636   6.922   0.354   4.703 -1.2219 -0.0444  0.1533
  918MOL0     H26637   6.956   0.308   4.535 -0.6078 -0.3614 -0.9898
  918MOL0     H26638   6.809   0.078   4.640  1.0540 -0.1843 -1.4258
  918MOL0     H26639   6.787   0.196   4.778 -3.4987 -3.3683 -0.7353
  918MOL0     H26640   6.593   0.236   4.682 -2.7763 -1.4071 -3.5100
  918MOL0     H26641   6.683   0.360   4.602 -1.7722 -0.6668 -1.8049
  918MOL0     H26642   6.854   0.090   4.396  2.5125 -0.6914 -0.3714
  918MOL0     H26643   7.100   0.159   4.190  1.1047 -3.3445 -0.4145
  918MOL0     H26644   6.994   0.081   4.079  1.8104 -3.0982 -0.1964
  918MOL0     H26645   7.004   0.026   4.257 -1.3174  3.7931  3.8523
  918MOL0     H26646   6.700   0.543   3.783 -1.2992 -2.5871 -1.4854
  918MOL0     H26647   6.747   0.656   3.557 -0.8796  1.9999  1.8686
  918MOL0     H26648   7.124   0.762   3.525  0.1208 -1.8297  0.6503
  918MOL0     H26649   7.175   0.686   3.365  0.7850  4.9343 -3.6654
  918MOL0     H26650   7.004   0.860   3.261 -1.0920  0.7481  0.5667
  918MOL0     H26651   7.012   0.939   3.406 -0.3413  0.0098 -1.3959
  918MOL0     H26652   7.172   1.045   3.276  1.9155 -0.2978 -1.4443
  918MOL0     H26653   7.225   0.893   3.210 -1.3112  3.5500 -2.1359
  918MOL0     H26654   7.348   0.860   3.424 -0.3450  0.3921  1.8228
  918MOL0     H26655   7.272   1.007   3.498 -1.1884 -2.2170  0.0689
  918MOL0     H26656   7.515   1.008   3.392  0.2969  0.6149  0.5868
  918MOL0     H26657   7.445   1.025   3.244 -0.3638  0.7454  0.1151
  918MOL0     H26658   7.307   1.228   3.386  0.5353 -0.6165  2.3748
  918MOL0     H26659   7.417   1.241   3.251  0.8077 -1.1037 -0.0158
  918MOL0     H26660   7.611   1.264   3.411 -0.5214 -3.4386  1.3623
  918MOL0     H26661   7.513   1.228   3.545 -0.0325  1.4771  1.5412
  918MOL0     H26662   7.370   1.415   3.498  1.2474 -2.1077  2.4558
  918MOL0     H26663   7.480   1.467   3.362 -1.3244  1.0550  0.4844
  918MOL0     H26664   7.149   0.514   3.569 -0.9473 -2.5807 -0.2595
  918MOL0     H26665   7.099   0.397   3.773 -4.4146 -5.2584 -2.3628
  918MOL0     H26666   6.706   0.464   4.109 -1.7413 -0.2471  0.7130
  918MOL0     H26667   6.589   0.416   4.319 -2.3240 -2.4419 -2.1115
  918MOL0     H26668   7.760   1.177   3.854  1.0135 -1.6448  0.2773
  918MOL0     H26669   7.581   1.372   3.817 -3.8406  0.4607 -2.2404
  918MOL0     H26670   7.212   1.344   3.985  1.3984 -0.5547 -3.3193
  918MOL0     H26671   7.007   1.359   4.144 -0.4320  0.9763  0.0769
  918MOL0     H26672   6.746   1.286   4.233 -0.5945 -0.7027 -0.4119
  918MOL0     H26673   6.848   1.421   4.237 -0.7865 -2.0319  1.8771
  918MOL0     H26674   6.609   1.451   4.326  2.4340  1.7426  1.7122
  918MOL0     H26675   6.554   1.413   4.163 -0.9402  2.4890 -0.6240
  918MOL0     H26676   6.653   1.603   4.074  3.0773 -0.0375  0.0429
  918MOL0     H26677   6.551   1.660   4.214 -3.0411 -1.9449 -2.8804
  918MOL0     H26678   6.753   1.778   4.189 -3.5628  0.2242  1.8543
  918MOL0     H26679   6.857   1.648   4.230 -0.7624  0.1124 -0.9247
  918MOL0     H26680   6.691   1.809   4.592 -1.9994  3.1651 -1.5204
  918MOL0     H26681   6.762   1.416   3.800  0.5993  1.4575 -1.5310
  918MOL0     H26682   6.833   1.390   3.562  0.4520  0.1968  1.7940
  918MOL0     H26683   6.990   1.463   3.558  0.7984 -0.3451 -0.9343
  918MOL0     H26684   6.971   1.285   3.561 -0.4607 -0.0660  0.6367
  919MOL0     O26685   6.818   9.994   6.874 -0.7542  0.1596 -0.2188
  919MOL0     C26686   6.774   9.933   6.967  0.4006  0.1004  0.5081
  919MOL0     O26687   6.709   9.975   7.069 -0.5100 -0.1467 -0.1011
  919MOL0     C26688   6.691  10.103   7.079  0.4387  0.4766 -0.5438
  919MOL0     C26689   6.562  10.165   7.083 -0.3294 -0.0273  0.8186
  919MOL0     C26690   6.544  10.299   7.106 -0.0639  0.2410 -0.1530
  919MOL0     C26691   6.656  10.377   7.139  0.7343 -1.2843 -0.1185
  919MOL0     O26692   6.647  10.514   7.145  0.0043  0.1172  0.4234
  919MOL0     C26693   6.682  10.571   7.271 -0.4729 -0.0235  1.0863
  919MOL0     C26694   6.645  10.718   7.266  0.8395  0.2358 -0.4101
  919MOL0     C26695   6.699  10.801   7.153  0.8104  0.7287 -0.0959
  919MOL0     C26696   6.668  10.951   7.153  0.1525  0.4261 -0.0325
  919MOL0     C26697   6.682  11.022   7.019 -0.4326 -0.3685  0.2721
  919MOL0     C26698   6.669  10.937   6.888  0.7798  1.0011 -0.2261
  919MOL0     C26699   6.660  11.034   6.772 -0.3846 -0.3476 -0.1690
  919MOL0     C26700   6.604  10.965   6.653 -0.5117  0.8615 -0.0478
  919MOL0     N26701   6.573  11.056   6.541 -0.1393 -0.4205  0.0232
  919MOL0     C26702   6.542  11.191   6.558  0.2913  0.2940 -0.2900
  919MOL0     C26703   6.524  11.228   6.429 -0.0803  0.5862  0.1424
  919MOL0     C26704   6.491  11.364   6.388 -0.6828  0.1557 -0.3522
  919MOL0     C26705   6.394  11.353   6.273  0.2547 -0.0062 -0.4993
  919MOL0     C26706   6.329  11.490   6.237  0.0274 -0.7777  0.6658
  919MOL0     C26707   6.418  11.609   6.210 -0.7805 -0.3605 -0.5027
  919MOL0     O26708   6.337  11.720   6.163  0.3526  0.1806 -0.3204
  919MOL0     C26709   6.303  11.738   6.036  1.0058 -0.7446  0.3087
  919MOL0     C26710   6.409  11.768   5.951 -0.1184  0.7344  1.3529
  919MOL0     C26711   6.388  11.779   5.817  0.4551  0.0552 -0.4325
  919MOL0     C26712   6.512  11.769   5.739 -0.5840  0.3746 -0.5198
  919MOL0     C26713   6.258  11.783   5.760  0.0190 -0.0075 -0.2442
  919MOL0     C26714   6.236  11.816   5.618  0.0627  0.1266  0.3665
  919MOL0     O26715   6.115  11.769   5.571 -0.5619  0.0152  0.0655
  919MOL0     C26716   6.068  11.818   5.447 -0.3016  0.7523  0.2344
  919MOL0     C26717   6.128  11.784   5.326 -0.0465 -0.0568  0.5683
  919MOL0     C26718   6.074  11.845   5.209 -0.9173 -0.6058  0.4562
  919MOL0     C26719   5.962  11.924   5.203  0.0156 -0.8796  0.4121
  919MOL0     O26720   5.917  11.960   5.074  0.4115 -0.0527 -0.5011
  919MOL0     C26721   5.796  11.877   5.032  0.9882 -0.1013  0.6684
  919MOL0     C26722   5.690  11.962   4.964  0.1806 -0.0848  0.2933
  919MOL0     C26723   5.751  12.014   4.829 -0.5238  0.0835 -0.0222
  919MOL0     C26724   5.635  12.096   4.760  0.4164 -0.4797 -0.3219
  919MOL0     C26725   5.656  12.121   4.609  0.0917 -0.1387  0.0918
  919MOL0     C26726   5.717  12.001   4.543  0.5205 -0.0821 -0.6857
  919MOL0     C26727   5.706  12.000   4.390 -0.3741  0.0993  0.4024
  919MOL0     C26728   5.557  12.011   4.345  0.8570  0.4245  0.9370
  919MOL0    Cl26729   5.557  11.934   4.182  0.3243  0.4321  0.1449
  919MOL0     C26730   5.906  11.958   5.329 -0.6630 -1.0912  0.2248
  919MOL0     C26731   5.961  11.913   5.448 -0.0753  0.2382 -0.0065
  919MOL0     O26732   6.318  11.890   5.560  0.4340 -0.0772 -1.2568
  919MOL0     C26733   6.148  11.753   5.849 -0.1463 -0.4180 -0.1547
  919MOL0     C26734   6.171  11.725   5.981 -0.6050 -0.6663 -0.1456
  919MOL0     N26735   6.569  11.125   6.344  0.1595  0.4509 -0.3692
  919MOL0     N26736   6.598  11.021   6.413 -0.4088  0.1008  0.6831
  919MOL0     C26737   6.787  10.323   7.154  0.4165 -0.3548  0.1118
  919MOL0     C26738   6.802  10.183   7.120  0.3809 -0.5491 -0.0156
  919MOL0     C26739   6.831   9.795   6.963  0.2555  0.4538 -1.2284
  919MOL0     C26740   6.873   9.728   6.841 -0.3053  0.9884 -0.8024
  919MOL0     C26741   6.909   9.601   6.833  0.3690  0.5298 -0.0835
  919MOL0     C26742   6.917   9.525   6.952 -0.6652  0.0769 -0.2200
  919MOL0     O26743   6.969   9.402   6.933  0.0601 -0.8128  0.6846
  919MOL0     C26744   6.993   9.320   7.045  0.6980 -0.1539 -1.2721
  919MOL0     C26745   7.001   9.175   6.983 -0.1219  0.1596  0.5814
  919MOL0     C26746   7.103   9.094   7.063  0.7980 -0.0784  0.3290
  919MOL0     C26747   7.143   8.968   6.966 -0.0816  0.2662 -0.5740
  919MOL0     C26748   7.211   8.854   7.039  0.3775 -0.1061 -0.6914
  919MOL0     C26749   7.270   8.775   7.103  0.5313  0.7445 -0.1446
  919MOL0     C26750   6.883   9.580   7.075  0.3294 -0.2594  0.0038
  919MOL0     C26751   6.838   9.714   7.086 -0.3731  0.6204  0.0045
  919MOL0     C26752   6.815   9.768   7.221 -0.6137 -1.0751  0.4461
  919MOL0     H26753   6.477  10.100   7.064  2.5551 -3.6708 -0.7880
  919MOL0     H26754   6.450  10.340   7.071  0.4310  1.8961  0.3555
  919MOL0     H26755   6.790  10.570   7.290  0.1259  1.7930 -1.6281
  919MOL0     H26756   6.638  10.533   7.364 -0.9181  0.5509  1.1178
  919MOL0     H26757   6.537  10.727   7.274  1.0444  1.0387  2.6655
  919MOL0     H26758   6.678  10.765   7.359  0.0025  0.6283 -0.3047
  919MOL0     H26759   6.808  10.788   7.155  0.7892  0.5719  0.2020
  919MOL0     H26760   6.666  10.750   7.062  0.0125 -1.6732  1.4183
  919MOL0     H26761   6.560  10.945   7.171 -0.0258  1.3311 -0.7447
  919MOL0     H26762   6.704  11.019   7.230 -2.5978  1.4935  0.4041
  919MOL0     H26763   6.785  11.058   7.022 -1.2214  2.0438  0.0313
  919MOL0     H26764   6.607  11.099   7.035  0.0956  0.5271 -1.3385
  919MOL0     H26765   6.758  10.879   6.862  0.4694  1.6440 -3.0816
  919MOL0     H26766   6.582  10.872   6.897  0.0410  2.0002  0.0224
  919MOL0     H26767   6.754  11.081   6.741 -1.9292  2.2015 -1.3799
  919MOL0     H26768   6.599  11.121   6.800  1.2878  0.2169  1.9836
  919MOL0     H26769   6.672  10.889   6.615 -3.7132 -3.1147  1.4581
  919MOL0     H26770   6.512  10.911   6.678  0.5120 -1.6269 -1.2910
  919MOL0     H26771   6.517  11.243   6.649 -1.9582  3.0118 -2.2956
  919MOL0     H26772   6.582  11.410   6.350 -0.1703 -0.5159  0.0310
  919MOL0     H26773   6.459  11.427   6.471 -1.1846 -1.5406  0.7991
  919MOL0     H26774   6.451  11.309   6.191  2.0829  0.2380  0.5785
  919MOL0     H26775   6.312  11.286   6.301 -1.9482  2.5279 -0.5349
  919MOL0     H26776   6.259  11.475   6.153  0.5485 -0.8772  0.2472
  919MOL0     H26777   6.259  11.515   6.318  0.9467 -1.0828  1.5711
  919MOL0     H26778   6.456  11.622   6.312 -1.0105 -2.1865 -0.1456
  919MOL0     H26779   6.496  11.594   6.135  0.9116  3.7729  0.1543
  919MOL0     H26780   6.512  11.788   5.980  0.7679  1.1125 -1.6705
  919MOL0     H26781   6.510  11.722   5.641  0.4240 -0.5667 -0.1075
  919MOL0     H26782   6.600  11.737   5.795  1.3945 -0.7237 -3.9615
  919MOL0     H26783   6.540  11.869   5.706  1.6687  0.1373  0.4933
  919MOL0     H26784   6.204  11.707   5.334  0.5453  0.6394  1.9834
  919MOL0     H26785   6.141  11.826   5.125  1.8999  0.7525  2.2353
  919MOL0     H26786   5.825  11.799   4.960  4.1784 -0.3290  2.0422
  919MOL0     H26787   5.746  11.838   5.120  1.7857 -2.4720  0.1472
  919MOL0     H26788   5.598  11.912   4.934 -1.8111  4.0400 -1.2119
  919MOL0     H26789   5.662  12.046   5.027  1.9932  2.4487 -2.0218
  919MOL0     H26790   5.792  11.930   4.773  0.7571  0.2788  0.5948
  919MOL0     H26791   5.835  12.079   4.854 -1.7089  1.4179  0.6839
  919MOL0     H26792   5.636  12.197   4.802  2.8017 -0.6334  0.1360
  919MOL0     H26793   5.543  12.038   4.774  1.4934 -1.9137  1.2206
  919MOL0     H26794   5.559  12.144   4.564  2.3278  2.7058 -3.9469
  919MOL0     H26795   5.721  12.206   4.587 -2.6007  1.4554 -2.4376
  919MOL0     H26796   5.662  11.916   4.584  1.1709 -0.4928 -0.6453
  919MOL0     H26797   5.819  11.977   4.577 -0.7723 -2.1232  2.0964
  919MOL0     H26798   5.733  11.900   4.353 -0.0458  0.7687 -1.2373
  919MOL0     H26799   5.759  12.081   4.341 -2.1720  1.3386  0.4143
  919MOL0     H26800   5.521  12.112   4.325  2.3900  0.9336  0.6352
  919MOL0     H26801   5.485  11.958   4.408  1.8048  0.8274  2.4037
  919MOL0     H26802   5.811  12.012   5.330 -2.4914 -4.0403 -0.2668
  919MOL0     H26803   5.918  11.943   5.543  0.2324  1.0161 -0.0996
  919MOL0     H26804   6.042  11.766   5.827 -0.8882  1.1744  3.5230
  919MOL0     H26805   6.104  11.690   6.059  1.3412  0.2843  2.0622
  919MOL0     H26806   6.868  10.389   7.184 -2.0776  3.4153 -0.7591
  919MOL0     H26807   6.902  10.140   7.121  1.1149  0.9885 -1.3037
  919MOL0     H26808   6.873   9.786   6.749  0.4298  2.4000  0.0410
  919MOL0     H26809   6.959   9.576   6.740  1.1230 -3.1122  1.1467
  919MOL0     H26810   7.087   9.338   7.098 -0.0293  0.0663 -0.0156
  919MOL0     H26811   6.918   9.319   7.125  3.2803 -3.8289  1.4353
  919MOL0     H26812   7.025   9.174   6.877  2.7598  0.0051  1.1525
  919MOL0     H26813   6.903   9.128   6.992 -1.2891  1.8161 -2.2996
  919MOL0     H26814   7.183   9.163   7.087 -0.4681  0.3837  3.7412
  919MOL0     H26815   7.076   9.055   7.162  4.0993 -0.0844  1.3281
  919MOL0     H26816   7.205   9.001   6.883  0.0639  3.3828  0.6428
  919MOL0     H26817   7.051   8.938   6.916 -0.5439  0.9525 -0.1547
  919MOL0     H26818   7.328   8.698   7.151 -0.6919  0.6249  1.2417
  919MOL0     H26819   6.894   9.527   7.169  0.2592 -1.1523 -0.4735
  919MOL0     H26820   6.872   9.860   7.237 -2.0714  0.0416 -0.5924
  919MOL0     H26821   6.715   9.805   7.242  0.0950  1.6850 -0.6316
  919MOL0     H26822   6.843   9.711   7.310 -1.4234  0.5601  1.7977
  920MOL0     O26823   0.416   7.707  10.981 -0.5259 -0.0392  0.4145
  920MOL0     C26824   0.530   7.751  10.958  0.2897  0.7660  0.3094
  920MOL0     O26825   0.587   7.754  10.836 -0.9733 -0.6278 -0.5098
  920MOL0     C26826   0.514   7.719  10.722 -0.0228  0.1638  0.0203
  920MOL0     C26827   0.539   7.587  10.671  0.6428 -0.2767 -0.6579
  920MOL0     C26828   0.494   7.551  10.546  0.5749 -0.0787  0.5919
  920MOL0     C26829   0.398   7.632  10.480 -0.6752 -0.2009 -0.3252
  920MOL0     O26830   0.357   7.593  10.361 -0.3374 -0.0284  0.3797
  920MOL0     C26831   0.220   7.618  10.330  0.4232 -0.2257 -0.3700
  920MOL0     C26832   0.210   7.714  10.202 -0.3038  0.2669 -0.7950
  920MOL0     C26833   0.095   7.806  10.224  0.1255 -0.3959  0.2794
  920MOL0     C26834   0.077   7.908  10.113 -0.3494  0.6045  0.2917
  920MOL0     C26835  -0.054   7.981  10.140  0.6334  0.5699 -0.1699
  920MOL0     C26836  -0.040   8.082  10.249  0.0218 -0.1862  0.6128
  920MOL0     C26837  -0.171   8.160  10.275 -0.8388 -1.6560  0.2028
  920MOL0     C26838  -0.271   8.087  10.374 -0.0698  0.6603  0.6672
  920MOL0     N26839  -0.311   7.949  10.346  0.1898 -0.5143  0.0412
  920MOL0     C26840  -0.253   7.837  10.400 -0.1714  0.2704 -0.6427
  920MOL0     C26841  -0.312   7.729  10.356 -1.0205  0.0990  0.9861
  920MOL0     C26842  -0.273   7.585  10.362 -0.5191 -0.4842  0.5277
  920MOL0     C26843  -0.201   7.524  10.235  0.1884  0.4842 -0.2793
  920MOL0     C26844  -0.251   7.561  10.087 -0.8064  0.3230  0.7548
  920MOL0     C26845  -0.389   7.498  10.043 -0.7463  0.1884  0.4479
  920MOL0     O26846  -0.354   7.359  10.032  0.2122 -0.2603  0.3616
  920MOL0     C26847  -0.391   7.275  10.132  0.5381 -0.2571  0.7630
  920MOL0     C26848  -0.445   7.296  10.262  0.7087 -0.1713 -0.8154
  920MOL0     C26849  -0.477   7.193  10.356 -0.6638  0.1497 -0.0013
  920MOL0     C26850  -0.519   7.214  10.505 -0.4899  0.3647  0.2180
  920MOL0     C26851  -0.454   7.055  10.312 -0.0933  0.0219 -0.1705
  920MOL0     C26852  -0.483   6.934  10.397 -1.8302 -0.2694  0.2044
  920MOL0     O26853  -0.580   6.946  10.490 -0.1540  0.5803  0.0177
  920MOL0     C26854  -0.593   6.850  10.585 -0.0632 -0.7736 -0.2569
  920MOL0     C26855  -0.612   6.720  10.544 -0.4384  0.4470 -0.4087
  920MOL0     C26856  -0.634   6.617  10.632 -0.4637 -0.6447 -1.1186
  920MOL0     C26857  -0.627   6.641  10.776  0.3019  0.6382  0.7139
  920MOL0     O26858  -0.648   6.549  10.880  0.7280  0.5619 -0.3479
  920MOL0     C26859  -0.662   6.412  10.835 -0.7942 -0.2244 -0.0096
  920MOL0     C26860  -0.680   6.317  10.959  0.2717 -0.1237  0.4623
  920MOL0     C26861  -0.544   6.306  11.024  0.1096  0.1702  0.2098
  920MOL0     C26862  -0.558   6.218  11.158 -0.6629 -0.0590 -0.1148
  920MOL0     C26863  -0.425   6.208  11.231  0.0554 -0.0602  0.5470
  920MOL0     C26864  -0.433   6.172  11.375  0.4462  0.4425  0.1572
  920MOL0     C26865  -0.299   6.190  11.443 -0.6363  0.7164 -1.0525
  920MOL0     C26866  -0.293   6.138  11.587  0.5868  0.0521  0.2618
  920MOL0    Cl26867  -0.391   6.218  11.705  0.4356  0.2279 -0.4249
  920MOL0     C26868  -0.593   6.770  10.813  0.6113  0.4778  0.4561
  920MOL0     C26869  -0.575   6.877  10.721 -0.1632  0.1102 -0.5912
  920MOL0     O26870  -0.397   6.837  10.392  0.2533  0.2880  0.7186
  920MOL0     C26871  -0.398   7.032  10.185 -0.0445  0.0590 -0.5982
  920MOL0     C26872  -0.372   7.145  10.097 -0.6785 -0.5650  0.5646
  920MOL0     N26873  -0.409   7.769  10.261 -0.7348  0.8178  0.0439
  920MOL0     N26874  -0.402   7.899  10.256 -0.1750  0.7959  0.0676
  920MOL0     C26875   0.378   7.762  10.531 -0.0771  0.0319  0.5256
  920MOL0     C26876   0.441   7.805  10.647  0.9014  0.2222  0.5528
  920MOL0     C26877   0.618   7.791  11.070  0.5119  0.7057 -0.2554
  920MOL0     C26878   0.745   7.861  11.051 -0.7463 -0.0931  0.4522
  920MOL0     C26879   0.839   7.890  11.155  0.0843  0.1768  0.1996
  920MOL0     C26880   0.802   7.859  11.285  0.4183 -0.0024 -1.1148
  920MOL0     O26881   0.864   7.903  11.399  0.3649 -1.3631 -0.4322
  920MOL0     C26882   1.006   7.950  11.391 -0.6256  0.3268 -1.1150
  920MOL0     C26883   1.105   7.856  11.325 -0.7833 -0.1164 -0.1724
  920MOL0     C26884   1.252   7.899  11.333  0.1326  0.4990  0.1490
  920MOL0     C26885   1.341   7.827  11.230  1.0922 -0.4424  0.2146
  920MOL0     C26886   1.467   7.865  11.280 -0.6278  0.3190  0.7463
  920MOL0     C26887   1.578   7.904  11.300 -0.0056  0.4648 -0.1041
  920MOL0     C26888   0.679   7.800  11.307 -0.4686 -0.5545  0.4761
  920MOL0     C26889   0.587   7.762  11.206 -0.1252 -0.6857 -0.0674
  920MOL0     C26890   0.460   7.695  11.260  0.7265  0.2206  0.5170
  920MOL0     H26891   0.606   7.517  10.718 -1.5900 -1.0658  1.5438
  920MOL0     H26892   0.533   7.457  10.509  2.5208 -0.7218  3.8776
  920MOL0     H26893   0.164   7.663  10.413  0.8704 -1.4560  0.6423
  920MOL0     H26894   0.165   7.526  10.307  0.5292  0.0766 -1.9332
  920MOL0     H26895   0.297   7.778  10.185 -0.6423  0.9331 -0.0061
  920MOL0     H26896   0.188   7.639  10.124 -0.6097  1.0274 -1.4553
  920MOL0     H26897   0.003   7.749  10.213  0.6171 -1.2281  0.3304
  920MOL0     H26898   0.104   7.851  10.324  2.2479 -0.7977  0.3144
  920MOL0     H26899   0.165   7.973  10.109  1.3806 -1.5409  1.2530
  920MOL0     H26900   0.069   7.852  10.020 -1.7851 -0.4675  1.0353
  920MOL0     H26901  -0.139   7.915  10.160  0.4841  0.7605 -0.1728
  920MOL0     H26902  -0.075   8.028  10.043  5.9397  1.2962 -1.2774
  920MOL0     H26903   0.009   8.045  10.340  3.4241 -2.6898 -1.9542
  920MOL0     H26904   0.034   8.155  10.215  1.8025 -3.6006 -4.0117
  920MOL0     H26905  -0.228   8.166  10.182  1.0377  0.3099 -0.8910
  920MOL0     H26906  -0.149   8.258  10.317 -0.8892 -0.3148 -2.6503
  920MOL0     H26907  -0.236   8.070  10.476 -1.0022  1.0388  1.0664
  920MOL0     H26908  -0.371   8.131  10.383 -0.8330 -0.1523 -2.5333
  920MOL0     H26909  -0.164   7.851  10.459 -0.0269  2.4931 -1.2854
  920MOL0     H26910  -0.362   7.529  10.391 -0.5532 -0.7259 -0.0262
  920MOL0     H26911  -0.201   7.581  10.444  0.8079 -3.1015 -0.6223
  920MOL0     H26912  -0.095   7.551  10.239  0.0242  0.9278  2.6108
  920MOL0     H26913  -0.211   7.423  10.275 -4.1776  1.8048  2.5964
  920MOL0     H26914  -0.241   7.668  10.070  0.2837 -0.0809 -1.6947
  920MOL0     H26915  -0.181   7.521  10.012 -0.0422  1.9682  0.5417
  920MOL0     H26916  -0.475   7.518  10.109 -0.1097 -2.0129  2.0775
  920MOL0     H26917  -0.410   7.543   9.946  0.6288 -1.0829 -0.4778
  920MOL0     H26918  -0.460   7.400  10.290 -0.6280 -0.4998 -0.2359
  920MOL0     H26919  -0.482   7.311  10.539  4.0336 -1.0228 -0.1280
  920MOL0     H26920  -0.503   7.139  10.583 -2.9509 -0.2099  0.2724
  920MOL0     H26921  -0.624   7.191  10.524  0.7701 -4.0159  3.7050
  920MOL0     H26922  -0.608   6.709  10.436  0.0842 -1.7846 -0.2152
  920MOL0     H26923  -0.654   6.518  10.592 -0.4599 -0.0109 -2.7666
  920MOL0     H26924  -0.748   6.396  10.769 -1.8662  4.6312 -0.1622
  920MOL0     H26925  -0.566   6.390  10.788  1.0291  3.1986  1.7264
  920MOL0     H26926  -0.757   6.354  11.028  0.8706  2.6432 -0.2157
  920MOL0     H26927  -0.707   6.216  10.926 -1.3680  0.2533  0.5561
  920MOL0     H26928  -0.503   6.403  11.057  0.1318 -0.3128  1.6979
  920MOL0     H26929  -0.474   6.259  10.955 -2.9622  0.9913 -3.8569
  920MOL0     H26930  -0.600   6.118  11.139  0.0881 -0.5861  0.8826
  920MOL0     H26931  -0.625   6.274  11.223 -2.6142 -0.1610 -1.9056
  920MOL0     H26932  -0.354   6.141  11.182  1.7333  2.7997 -1.1915
  920MOL0     H26933  -0.364   6.299  11.232  2.0050 -1.1182 -3.0043
  920MOL0     H26934  -0.456   6.065  11.386  1.0617  0.5626  3.9945
  920MOL0     H26935  -0.509   6.220  11.438 -0.6331 -0.5066 -0.3738
  920MOL0     H26936  -0.253   6.289  11.438  2.2396 -0.5427 -1.8406
  920MOL0     H26937  -0.230   6.125  11.388 -1.6420 -0.9733 -0.4056
  920MOL0     H26938  -0.188   6.133  11.614  0.9511 -1.6366 -1.2609
  920MOL0     H26939  -0.333   6.036  11.578 -2.3884  1.2942 -4.3855
  920MOL0     H26940  -0.602   6.795  10.918  0.1676 -1.1014  0.8197
  920MOL0     H26941  -0.570   6.981  10.753  0.2139 -0.1854  0.3396
  920MOL0     H26942  -0.396   6.928  10.154 -2.8743 -0.2013 -0.1861
  920MOL0     H26943  -0.334   7.127   9.997  1.8026  2.3923  0.8273
  920MOL0     H26944   0.324   7.840  10.478 -2.5596 -0.1151  2.6612
  920MOL0     H26945   0.410   7.903  10.680  0.3677  0.0114  0.6805
  920MOL0     H26946   0.779   7.901  10.956  1.3215 -2.1468  0.2495
  920MOL0     H26947   0.926   7.944  11.119  0.3764 -3.3706 -5.7036
  920MOL0     H26948   1.004   8.043  11.333 -1.2989  1.3775  0.5239
  920MOL0     H26949   1.048   7.972  11.490  1.4640  3.3248 -2.5174
  920MOL0     H26950   1.092   7.845  11.217 -0.3723 -0.5826 -0.1795
  920MOL0     H26951   1.096   7.754  11.363 -0.5591 -0.2397 -0.4477
  920MOL0     H26952   1.260   8.008  11.328 -1.2062  0.6103  0.0191
  920MOL0     H26953   1.285   7.864  11.431  3.9752 -0.3010 -1.2703
  920MOL0     H26954   1.315   7.868  11.132 -2.2810  0.0930  1.1967
  920MOL0     H26955   1.323   7.719  11.227  2.8901 -0.8132  1.1277
  920MOL0     H26956   1.679   7.932  11.322  0.2516 -0.9995  0.6711
  920MOL0     H26957   0.648   7.770  11.407 -1.5489  0.4440  0.4613
  920MOL0     H26958   0.447   7.697  11.368 -2.3103 -0.0636  0.2527
  920MOL0     H26959   0.360   7.704  11.215  2.2366 -0.5740 -3.4134
  920MOL0     H26960   0.478   7.590  11.234 -0.4052 -0.6234  2.8289
  921MOL0     O26961   6.810   5.771   9.485 -0.5743 -0.7400 -0.1053
  921MOL0     C26962   6.930   5.753   9.457 -0.5759  0.3718  0.0583
  921MOL0     O26963   7.038   5.814   9.521 -0.0002 -0.7500 -0.0202
  921MOL0     C26964   7.019   5.939   9.577  0.2670 -0.4816  0.0102
  921MOL0     C26965   7.047   6.053   9.508  1.1040 -0.2097  0.8485
  921MOL0     C26966   7.012   6.184   9.549  0.7188 -0.2956 -1.1669
  921MOL0     C26967   6.960   6.212   9.677  0.3870 -0.1815 -0.0603
  921MOL0     O26968   6.958   6.353   9.715 -0.9845  0.1620 -0.5185
  921MOL0     C26969   6.966   6.385   9.859 -0.5582 -0.1160 -0.1625
  921MOL0     C26970   7.110   6.371   9.900 -0.0556  0.1562 -0.2201
  921MOL0     C26971   7.150   6.344  10.041  0.1328 -0.1765  0.2603
  921MOL0     C26972   7.144   6.475  10.124 -0.3336 -0.2779 -1.0899
  921MOL0     C26973   7.003   6.476  10.199  0.6976 -0.6334  0.9101
  921MOL0     C26974   7.009   6.367  10.311  0.5299 -0.9092 -0.4104
  921MOL0     C26975   6.900   6.390  10.414 -0.6255 -0.3540 -0.3705
  921MOL0     C26976   6.910   6.522  10.509 -0.6113  0.6008  0.2099
  921MOL0     N26977   7.038   6.533  10.586 -0.6195 -0.1452  1.7881
  921MOL0     C26978   7.162   6.570  10.536  0.2480 -0.0903 -0.7405
  921MOL0     C26979   7.246   6.537  10.639 -0.5475 -0.5822 -0.3106
  921MOL0     C26980   7.385   6.578  10.634 -0.2894  0.3021  0.4735
  921MOL0     C26981   7.454   6.518  10.759  0.4956 -0.3366  0.7621
  921MOL0     C26982   7.432   6.606  10.879 -0.6262  1.0242 -1.3028
  921MOL0     C26983   7.501   6.537  10.998  0.8453 -0.3031  0.8793
  921MOL0     O26984   7.643   6.529  10.974 -0.1857 -0.5718 -1.2476
  921MOL0     C26985   7.714   6.531  11.087  0.2841  0.2367  0.6864
  921MOL0     C26986   7.754   6.413  11.166 -0.4797  0.4146 -0.4020
  921MOL0     C26987   7.852   6.419  11.267 -0.4397 -0.6498  0.2191
  921MOL0     C26988   7.844   6.310  11.372 -0.0943 -0.3740  0.6146
  921MOL0     C26989   7.929   6.544  11.291  1.1511  0.3300  1.0427
  921MOL0     C26990   8.041   6.561  11.385 -0.2072 -0.2234 -0.6110
  921MOL0     O26991   8.069   6.692  11.421 -0.2418  0.3211  0.4986
  921MOL0     C26992   8.184   6.719  11.491  0.4014  0.2406 -0.4599
  921MOL0     C26993   8.184   6.708  11.631 -0.6424  0.4309 -0.2335
  921MOL0     C26994   8.284   6.769  11.703 -0.1742 -0.6265  0.5500
  921MOL0     C26995   8.384   6.852  11.641 -1.0893 -0.3085  0.9472
  921MOL0     O26996   8.483   6.906  11.726 -0.0546  0.4533 -0.0219
  921MOL0     C26997   8.598   6.976  11.670  0.2087  0.2840  0.4356
  921MOL0     C26998   8.702   6.991  11.787 -0.4167 -0.4603 -0.2678
  921MOL0     C26999   8.833   6.913  11.766  0.7728  0.0838  0.2202
  921MOL0     C27000   8.934   6.956  11.861  0.7049  0.0435 -0.5948
  921MOL0     C27001   8.899   6.912  12.006 -1.5174  0.5060  0.2225
  921MOL0     C27002   9.010   6.934  12.114  0.0609  0.3396  0.3417
  921MOL0     C27003   9.128   6.847  12.085 -1.2712 -0.4996 -0.0183
  921MOL0     C27004   9.236   6.896  12.188  0.1031 -0.0849  0.1773
  921MOL0    Cl27005   9.229   6.786  12.334  0.4463  0.0771  0.5496
  921MOL0     C27006   8.391   6.847  11.495 -0.4128 -0.1808 -0.8031
  921MOL0     C27007   8.293   6.787  11.426 -0.4580  0.1865 -0.0664
  921MOL0     O27008   8.098   6.457  11.427 -0.1881 -0.5568 -0.0865
  921MOL0     C27009   7.893   6.646  11.213  0.2871 -0.3646  2.0590
  921MOL0     C27010   7.790   6.641  11.110 -0.0398 -0.7647 -0.7519
  921MOL0     N27011   7.164   6.501  10.740  0.2385  0.7499  1.0737
  921MOL0     N27012   7.047   6.483  10.703 -0.1401  0.5550 -0.5992
  921MOL0     C27013   6.952   6.103   9.762  0.7041  0.4796 -0.5178
  921MOL0     C27014   6.978   5.969   9.711  0.4070  0.9409  0.4745
  921MOL0     C27015   6.957   5.628   9.374 -0.2701 -0.2281 -0.5905
  921MOL0     C27016   7.066   5.541   9.410  0.5127 -0.6628 -0.8831
  921MOL0     C27017   7.087   5.435   9.321  0.3646  0.1009 -0.0735
  921MOL0     C27018   7.009   5.398   9.217 -0.1326 -0.4320  0.7279
  921MOL0     O27019   7.048   5.285   9.146  0.3388  0.0135 -0.4496
  921MOL0     C27020   6.961   5.224   9.040 -1.0188 -0.5543 -0.2056
  921MOL0     C27021   6.933   5.072   9.068 -0.0812 -0.3523  0.6671
  921MOL0     C27022   6.834   5.010   8.967  0.0573 -0.1926 -0.0269
  921MOL0     C27023   6.874   5.017   8.814 -0.6737  0.6771  0.1821
  921MOL0     C27024   6.806   4.914   8.718  0.1251  0.5211 -0.3793
  921MOL0     C27025   6.764   4.825   8.649 -0.8554  0.0424  0.6152
  921MOL0     C27026   6.900   5.477   9.182  0.0991 -0.3521  0.1727
  921MOL0     C27027   6.872   5.592   9.263 -0.0041 -0.2179  0.0611
  921MOL0     C27028   6.742   5.669   9.225  0.9358  0.1572 -0.0607
  921MOL0     H27029   7.093   6.049   9.409  1.4964  0.0930  1.0140
  921MOL0     H27030   7.033   6.271   9.488 -1.4690  0.7813 -0.4916
  921MOL0     H27031   6.906   6.330   9.932  1.5422  1.2492  2.8262
  921MOL0     H27032   6.938   6.490   9.872 -0.7511 -0.1647 -0.1803
  921MOL0     H27033   7.133   6.274   9.853 -0.4669  2.1467 -5.2075
  921MOL0     H27034   7.174   6.447   9.855 -1.8288  0.9366 -1.5320
  921MOL0     H27035   7.079   6.268  10.078 -0.6948 -0.4801 -1.8284
  921MOL0     H27036   7.250   6.302  10.048 -0.1385 -1.8224 -3.5449
  921MOL0     H27037   7.227   6.482  10.195  0.7195 -1.2149 -2.1755
  921MOL0     H27038   7.144   6.563  10.060 -1.2931  2.2589  2.1284
  921MOL0     H27039   6.915   6.473  10.134  2.0752  2.4827 -1.3508
  921MOL0     H27040   6.992   6.571  10.252 -0.7355 -0.4662  0.3628
  921MOL0     H27041   6.989   6.268  10.269 -4.2036 -0.0417 -0.7771
  921MOL0     H27042   7.107   6.362  10.360  1.0943  4.2232 -0.4389
  921MOL0     H27043   6.913   6.306  10.483 -0.8564  1.1539  1.5956
  921MOL0     H27044   6.804   6.388  10.362 -1.3049  0.0730  0.8211
  921MOL0     H27045   6.888   6.610  10.449  0.5366  0.8511  0.1237
  921MOL0     H27046   6.829   6.521  10.582 -1.1287  2.1627 -0.2977
  921MOL0     H27047   7.185   6.634  10.452 -0.6697  0.8363 -0.3154
  921MOL0     H27048   7.388   6.687  10.634 -3.2514  0.5469 -2.5025
  921MOL0     H27049   7.433   6.550  10.539  0.5970 -0.4998  1.1411
  921MOL0     H27050   7.422   6.416  10.782 -0.0078 -0.2813  0.3234
  921MOL0     H27051   7.562   6.503  10.757  0.0914 -4.4928  1.5714
  921MOL0     H27052   7.493   6.694  10.856 -0.0870  0.4395 -2.1838
  921MOL0     H27053   7.331   6.634  10.910 -0.8698  1.3225 -2.3333
  921MOL0     H27054   7.471   6.584  11.092 -1.0534  2.6794 -1.0843
  921MOL0     H27055   7.465   6.434  11.004  2.5046 -0.8703  4.5077
  921MOL0     H27056   7.692   6.326  11.148 -1.8746  1.3904 -0.4660
  921MOL0     H27057   7.736   6.297  11.380 -0.5805  1.8494 -1.3704
  921MOL0     H27058   7.880   6.353  11.466 -2.5223 -0.0451  1.4478
  921MOL0     H27059   7.900   6.222  11.337 -1.3618 -1.0465  0.2257
  921MOL0     H27060   8.101   6.658  11.681  0.0945  0.6055  1.2227
  921MOL0     H27061   8.296   6.769  11.811  0.5902  1.6154  0.5274
  921MOL0     H27062   8.644   6.915  11.591  0.9510  1.0708  0.2490
  921MOL0     H27063   8.557   7.070  11.634 -0.2654  0.5462  1.6054
  921MOL0     H27064   8.724   7.098  11.800 -1.0872 -0.1670 -1.4813
  921MOL0     H27065   8.658   6.949  11.878  4.2789 -3.4279  1.0210
  921MOL0     H27066   8.871   6.926  11.664  2.0515 -0.6011  0.5859
  921MOL0     H27067   8.814   6.806  11.783  2.2456 -0.7272 -2.4895
  921MOL0     H27068   8.959   7.062  11.851  0.6936  0.0756 -0.3054
  921MOL0     H27069   9.024   6.902  11.830 -0.6950 -2.4499 -0.5032
  921MOL0     H27070   8.804   6.959  12.036 -2.1627 -0.8228  0.3204
  921MOL0     H27071   8.881   6.805  11.996 -0.3188  0.4241 -1.4361
  921MOL0     H27072   8.969   6.916  12.214  3.0597 -1.3739  1.3960
  921MOL0     H27073   9.043   7.038  12.113 -1.1706  0.7982  1.9842
  921MOL0     H27074   9.176   6.851  11.987  1.6463 -0.9272  1.3170
  921MOL0     H27075   9.119   6.743  12.118  5.0764 -0.7815  2.1694
  921MOL0     H27076   9.225   6.998  12.224  1.2328 -0.1191  0.6694
  921MOL0     H27077   9.334   6.882  12.140  0.2206 -2.2091  0.8999
  921MOL0     H27078   8.466   6.898  11.436  0.7158  0.3650  0.9937
  921MOL0     H27079   8.284   6.800  11.319 -2.9493  1.2108  0.2162
  921MOL0     H27080   7.936   6.745  11.223  2.0457 -1.0124  1.3414
  921MOL0     H27081   7.755   6.733  11.064 -1.6166 -0.9852 -0.0816
  921MOL0     H27082   6.920   6.110   9.865  0.0398 -0.4017 -0.6470
  921MOL0     H27083   6.977   5.894   9.790 -0.1547 -0.1880 -0.5824
  921MOL0     H27084   7.124   5.557   9.501 -1.7620 -1.5404  0.8090
  921MOL0     H27085   7.177   5.378   9.341  0.0012 -0.1438  0.9568
  921MOL0     H27086   6.874   5.288   9.023  0.5145  2.4913  2.3273
  921MOL0     H27087   7.018   5.228   8.947  2.4100 -1.6590  1.6558
  921MOL0     H27088   6.895   5.049   9.168 -1.1901  1.0748  0.6173
  921MOL0     H27089   7.023   5.013   9.050 -0.8781 -0.7052 -3.1079
  921MOL0     H27090   6.814   4.907   8.996 -3.6589  0.3441 -0.1756
  921MOL0     H27091   6.737   5.059   8.979  0.3462  0.3915 -0.0179
  921MOL0     H27092   6.981   4.995   8.806 -0.7034  0.5030  0.2648
  921MOL0     H27093   6.871   5.124   8.789  6.8681  1.4989  0.4918
  921MOL0     H27094   6.759   4.749   8.574  3.5528  1.1947 -1.1622
  921MOL0     H27095   6.839   5.447   9.097  0.7210 -3.7335  0.7900
  921MOL0     H27096   6.766   5.776   9.225 -1.3118  0.8108 -2.7144
  921MOL0     H27097   6.705   5.631   9.129  1.1933 -1.4841  0.4668
  921MOL0     H27098   6.652   5.649   9.284 -0.4962 -1.8444 -2.6671
  922MOL0     O27099  10.468   0.344   3.794 -0.3323 -0.5017 -0.1349
  922MOL0     C27100  10.442   0.416   3.894  0.3693  1.4773  0.6377
  922MOL0     O27101  10.528   0.509   3.951 -0.5954 -0.2950 -0.1054
  922MOL0     C27102  10.664   0.521   3.893 -0.1611 -0.6276  0.4400
  922MOL0     C27103  10.758   0.418   3.864  0.1375 -0.4003  1.2151
  922MOL0     C27104  10.884   0.450   3.813  0.3393 -0.4037 -0.2185
  922MOL0     C27105  10.930   0.573   3.801 -0.6559 -0.0627 -0.7544
  922MOL0     O27106  11.065   0.587   3.773  0.1585  0.7982 -0.5840
  922MOL0     C27107  11.132   0.679   3.861 -0.5990 -0.1574  0.1507
  922MOL0     C27108  11.284   0.679   3.845  0.6965 -0.4511  0.0392
  922MOL0     C27109  11.326   0.730   3.710 -0.7696 -0.4611  0.8104
  922MOL0     C27110  11.478   0.765   3.717  0.2973 -0.2585  1.3225
  922MOL0     C27111  11.564   0.644   3.731 -0.6110  1.0000 -0.0597
  922MOL0     C27112  11.704   0.673   3.784  1.0458  0.7825  0.6910
  922MOL0     C27113  11.778   0.533   3.786  1.2268 -1.1148  0.1640
  922MOL0     C27114  11.921   0.557   3.830 -0.0220  0.0377  0.1495
  922MOL0     N27115  12.009   0.632   3.737 -0.5146  0.4359 -0.4242
  922MOL0     C27116  12.064   0.587   3.620  0.0362  0.1499 -0.5023
  922MOL0     C27117  12.160   0.677   3.582 -1.6923  0.7550 -0.5762
  922MOL0     C27118  12.282   0.649   3.492 -0.8474  0.0311  0.3420
  922MOL0     C27119  12.252   0.638   3.342 -0.2368  0.6723 -0.5958
  922MOL0     C27120  12.252   0.782   3.258 -0.5932  0.5696 -0.2818
  922MOL0     C27121  12.395   0.854   3.261 -0.2564 -1.7968 -0.3252
  922MOL0     O27122  12.497   0.773   3.202  0.5510  1.0719  1.0212
  922MOL0     C27123  12.614   0.770   3.277  2.3951  0.1000  0.4089
  922MOL0     C27124  12.631   0.660   3.357 -1.0178 -0.4166 -0.3101
  922MOL0     C27125  12.743   0.655   3.445  0.1964 -0.9059  0.1249
  922MOL0     C27126  12.773   0.525   3.520 -0.6147  0.9188 -1.5236
  922MOL0     C27127  12.826   0.769   3.460  0.2406 -0.1771  0.0466
  922MOL0     C27128  12.938   0.774   3.557 -0.3432 -0.4254 -0.0303
  922MOL0     O27129  12.898   0.784   3.691 -1.1846  0.9141  0.7792
  922MOL0     C27130  13.004   0.784   3.776  1.1606 -0.6401 -0.5184
  922MOL0     C27131  13.090   0.893   3.782  0.0637 -1.1028 -0.7671
  922MOL0     C27132  13.192   0.897   3.873  0.0739  0.1191 -0.1152
  922MOL0     C27133  13.218   0.791   3.963 -1.0101 -0.0407 -0.1179
  922MOL0     O27134  13.327   0.785   4.054  0.0963  0.1842  0.4498
  922MOL0     C27135  13.315   0.872   4.172 -0.4675 -1.0383  0.3423
  922MOL0     C27136  13.347   0.788   4.292  0.5884 -0.3646 -0.0212
  922MOL0     C27137  13.236   0.682   4.313  0.5841 -0.5059 -0.2073
  922MOL0     C27138  13.272   0.566   4.409  0.7344  0.5568 -0.3033
  922MOL0     C27139  13.265   0.602   4.557 -0.1056 -0.1290 -0.1470
  922MOL0     C27140  13.336   0.490   4.639  1.0513 -0.1843 -0.0067
  922MOL0     C27141  13.270   0.486   4.780 -0.2199 -0.0258  0.6142
  922MOL0     C27142  13.358   0.430   4.896 -0.2577 -0.1763  0.8809
  922MOL0    Cl27143  13.293   0.453   5.057  0.1982  0.2247 -0.0361
  922MOL0     C27144  13.133   0.679   3.960 -0.5034  0.0039  0.1469
  922MOL0     C27145  13.026   0.673   3.862 -0.0820  0.8622 -0.7989
  922MOL0     O27146  13.053   0.784   3.512 -0.2720 -0.1825  0.5157
  922MOL0     C27147  12.802   0.880   3.375 -0.4878 -1.1244 -1.6832
  922MOL0     C27148  12.698   0.878   3.285  0.9119 -0.6125  0.2762
  922MOL0     N27149  12.150   0.780   3.677 -0.4421  0.2186 -0.0153
  922MOL0     N27150  12.063   0.751   3.769  0.2605 -0.0833 -0.1716
  922MOL0     C27151  10.830   0.680   3.831 -0.8809  1.3593 -0.1134
  922MOL0     C27152  10.702   0.657   3.870 -0.0461 -0.0477  0.1612
  922MOL0     C27153  10.305   0.399   3.963 -0.7454  0.3203 -0.4828
  922MOL0     C27154  10.293   0.454   4.092  0.3618  0.5441 -0.1031
  922MOL0     C27155  10.174   0.428   4.168  1.4250 -1.0920  0.3582
  922MOL0     C27156  10.072   0.360   4.114 -0.6592 -1.4779  0.4485
  922MOL0     O27157   9.954   0.324   4.169  0.2778  0.0699 -0.4860
  922MOL0     C27158   9.951   0.315   4.313 -0.6853  0.1024 -1.1042
  922MOL0     C27159   9.875   0.443   4.353  0.0895  1.1913 -0.1954
  922MOL0     C27160   9.882   0.456   4.505  0.1086  0.0233  0.4200
  922MOL0     C27161   9.776   0.544   4.579  0.0915 -0.0843 -0.1065
  922MOL0     C27162   9.636   0.493   4.578  0.0834  0.3451 -0.0487
  922MOL0     C27163   9.522   0.472   4.554  0.3629  0.5334  0.7797
  922MOL0     C27164  10.084   0.316   3.982 -0.1411 -0.1093  1.3606
  922MOL0     C27165  10.197   0.333   3.902  0.7413  0.6781 -0.1849
  922MOL0     C27166  10.197   0.283   3.766 -0.4390 -0.0430 -0.0479
  922MOL0     H27167  10.727   0.318   3.894 -3.1237 -0.1310 -0.6985
  922MOL0     H27168  10.956   0.371   3.793 -1.0096 -1.3157 -1.6676
  922MOL0     H27169  11.117   0.663   3.968  2.0178  1.7449  0.8898
  922MOL0     H27170  11.092   0.778   3.835 -3.7270 -1.5312 -0.8577
  922MOL0     H27171  11.324   0.745   3.923 -2.2508  3.2008 -1.2501
  922MOL0     H27172  11.322   0.579   3.872  0.8426  0.0250  1.7444
  922MOL0     H27173  11.309   0.647   3.640  3.1810 -0.0424 -0.8874
  922MOL0     H27174  11.273   0.817   3.671  2.9457  0.8177 -1.9281
  922MOL0     H27175  11.508   0.825   3.631 -1.5035  0.3349  1.0667
  922MOL0     H27176  11.486   0.845   3.791 -1.6910  0.0082  1.3114
  922MOL0     H27177  11.584   0.598   3.634  2.9355  3.4559 -0.7089
  922MOL0     H27178  11.509   0.563   3.779  0.3759 -2.5045 -4.2717
  922MOL0     H27179  11.753   0.739   3.712  1.2617 -0.5983 -0.4706
  922MOL0     H27180  11.713   0.707   3.888  0.7222  1.4718  0.4977
  922MOL0     H27181  11.767   0.481   3.691  0.3820 -0.7826  0.0630
  922MOL0     H27182  11.735   0.474   3.867  1.2365  0.1358  1.1220
  922MOL0     H27183  11.919   0.612   3.924 -1.7448  1.7373 -0.7996
  922MOL0     H27184  11.971   0.462   3.848  0.3646 -0.7431 -3.9577
  922MOL0     H27185  12.034   0.491   3.579 -0.5356 -0.1817  0.6419
  922MOL0     H27186  12.339   0.564   3.531 -0.4676 -0.1661 -0.6095
  922MOL0     H27187  12.360   0.726   3.501  0.0216 -0.8785  0.8440
  922MOL0     H27188  12.320   0.563   3.300  0.4217  2.2187 -2.4670
  922MOL0     H27189  12.148   0.604   3.332 -0.3048  1.0917 -1.4074
  922MOL0     H27190  12.240   0.745   3.156 -3.7291 -0.5774  0.3940
  922MOL0     H27191  12.167   0.846   3.283  0.3381  1.6251  0.3008
  922MOL0     H27192  12.401   0.946   3.203 -1.7169 -1.4920 -0.0331
  922MOL0     H27193  12.414   0.886   3.364 -1.3812 -2.9704  0.2817
  922MOL0     H27194  12.574   0.568   3.346  0.0345 -1.2323  0.7966
  922MOL0     H27195  12.754   0.437   3.458 -1.2421 -0.4601  0.5535
  922MOL0     H27196  12.709   0.495   3.603 -0.0715 -1.1877 -1.8136
  922MOL0     H27197  12.877   0.514   3.554 -0.9091  0.0782 -0.8769
  922MOL0     H27198  13.074   0.969   3.706  0.3940 -0.1970  0.0573
  922MOL0     H27199  13.259   0.982   3.867  1.4667 -0.9805 -0.4908
  922MOL0     H27200  13.388   0.951   4.189 -1.0536 -0.6590  1.1416
  922MOL0     H27201  13.216   0.914   4.191  0.5729  1.6560  0.2617
  922MOL0     H27202  13.440   0.732   4.279  0.5515 -0.3548 -0.3319
  922MOL0     H27203  13.362   0.856   4.376  1.5621 -0.4996 -0.0696
  922MOL0     H27204  13.191   0.643   4.221  0.5152 -1.8209  0.3575
  922MOL0     H27205  13.154   0.738   4.359  1.9433  0.5391  1.0539
  922MOL0     H27206  13.372   0.531   4.380  0.5342  0.7663 -1.3015
  922MOL0     H27207  13.206   0.484   4.380 -0.4522  2.0710 -2.1395
  922MOL0     H27208  13.317   0.697   4.554 -0.6348  0.1611 -2.1431
  922MOL0     H27209  13.158   0.602   4.583 -0.6791 -0.0496 -2.2459
  922MOL0     H27210  13.445   0.481   4.645  0.9578 -0.5210  1.6334
  922MOL0     H27211  13.294   0.397   4.600 -0.0896  0.5997 -0.6900
  922MOL0     H27212  13.178   0.429   4.770 -0.0968 -0.1604  0.2044
  922MOL0     H27213  13.251   0.591   4.805 -1.1785 -0.3512  1.3118
  922MOL0     H27214  13.461   0.464   4.887  0.0555 -1.1552  0.6315
  922MOL0     H27215  13.365   0.325   4.865 -0.3489  0.7101 -2.5448
  922MOL0     H27216  13.151   0.600   4.032 -1.4875 -0.5005 -0.1293
  922MOL0     H27217  12.955   0.591   3.871 -1.5744  2.0639 -1.1007
  922MOL0     H27218  12.858   0.968   3.406 -0.3207 -1.9812  0.7222
  922MOL0     H27219  12.663   0.965   3.230 -3.9048 -2.5257 -0.1788
  922MOL0     H27220  10.868   0.782   3.832 -0.2759  1.1594 -1.1124
  922MOL0     H27221  10.643   0.742   3.902  0.5492 -0.2608  1.9688
  922MOL0     H27222  10.383   0.486   4.143  2.2633 -4.1187 -0.0305
  922MOL0     H27223  10.171   0.477   4.264 -1.4673  3.0403 -1.5187
  922MOL0     H27224   9.897   0.232   4.359 -0.2834  0.6312  0.3753
  922MOL0     H27225  10.052   0.314   4.354 -1.0544  1.4625 -0.0936
  922MOL0     H27226   9.768   0.424   4.341  0.3295 -0.6811  0.2960
  922MOL0     H27227   9.910   0.532   4.300 -1.9169  0.9231 -2.0994
  922MOL0     H27228   9.905   0.359   4.549 -1.8114 -2.9462 -4.2680
  922MOL0     H27229   9.976   0.513   4.506  1.5815 -2.2531 -0.7608
  922MOL0     H27230   9.753   0.637   4.527 -0.7662 -0.1888  0.0682
  922MOL0     H27231   9.818   0.569   4.677 -2.1910 -0.7275  1.1173
  922MOL0     H27232   9.419   0.449   4.538  0.7508 -1.2761  0.6133
  922MOL0     H27233  10.006   0.250   3.947  1.5378 -2.1184  1.1741
  922MOL0     H27234  10.253   0.189   3.770 -0.0052  0.2233  2.9752
  922MOL0     H27235  10.101   0.270   3.716 -0.0997 -0.9954 -0.4603
  922MOL0     H27236  10.247   0.349   3.695 -0.2921 -0.3866 -0.2647
  923MOL0     O27237   8.519  11.008   5.735 -0.6834 -0.4528  0.0359
  923MOL0     C27238   8.498  10.935   5.832  0.5583  0.1753 -0.1706
  923MOL0     O27239   8.553  10.955   5.955  0.1802 -0.2618 -0.1265
  923MOL0     C27240   8.668  11.032   5.968  0.2872  0.1086 -0.4031
  923MOL0     C27241   8.662  11.123   6.079  0.0298 -0.3317 -0.6225
  923MOL0     C27242   8.767  11.213   6.105  1.0287  0.0193 -0.4304
  923MOL0     C27243   8.891  11.206   6.036  0.1087  0.2036 -0.4753
  923MOL0     O27244   8.989  11.301   6.048 -0.5154  0.2283 -0.3716
  923MOL0     C27245   8.960  11.428   6.104  0.0010  0.2242  0.0008
  923MOL0     C27246   9.082  11.510   6.105 -0.0569 -0.1904  0.1486
  923MOL0     C27247   9.071  11.651   6.171  0.5017 -0.0436 -0.0808
  923MOL0     C27248   9.197  11.736   6.155 -0.2567  0.0220  0.0087
  923MOL0     C27249   9.182  11.868   6.228 -0.5539  0.3769  0.2071
  923MOL0     C27250   9.299  11.963   6.178 -0.5137  0.5231 -0.3163
  923MOL0     C27251   9.308  12.085   6.278 -1.2823  0.1211  0.4698
  923MOL0     C27252   9.380  12.050   6.418  0.3247  1.3907 -1.3048
  923MOL0     N27253   9.450  12.169   6.471 -0.5614  0.3937  0.4568
  923MOL0     C27254   9.386  12.278   6.502  0.0931  0.0618 -0.8909
  923MOL0     C27255   9.483  12.366   6.532  0.5421  0.5377 -0.4201
  923MOL0     C27256   9.467  12.510   6.582 -1.1597  0.7664 -0.9764
  923MOL0     C27257   9.421  12.615   6.478  0.3658  0.3381 -1.3936
  923MOL0     C27258   9.273  12.631   6.490 -0.5840 -0.5505  0.6116
  923MOL0     C27259   9.208  12.751   6.413  0.1562 -0.2166  0.3035
  923MOL0     O27260   9.078  12.721   6.366 -1.0179 -0.1578  0.0917
  923MOL0     C27261   9.063  12.627   6.271  0.5901 -0.2791  0.3252
  923MOL0     C27262   9.152  12.547   6.204 -0.0610  0.0960  0.3448
  923MOL0     C27263   9.109  12.448   6.110  0.5437  0.1624 -0.3091
  923MOL0     C27264   9.225  12.362   6.058 -0.1562  0.1976  0.9696
  923MOL0     C27265   8.971  12.434   6.070 -0.4143 -0.8189  0.8876
  923MOL0     C27266   8.919  12.345   5.958 -0.0029  0.0975 -0.5313
  923MOL0     O27267   8.786  12.341   5.935  0.4564 -0.6605  0.2631
  923MOL0     C27268   8.736  12.272   5.832 -0.0892 -0.1981  0.0062
  923MOL0     C27269   8.781  12.292   5.695  0.4809 -0.0567  0.4880
  923MOL0     C27270   8.728  12.227   5.590  0.5190  0.6834  0.1228
  923MOL0     C27271   8.623  12.135   5.609  0.6049 -0.2643  0.9478
  923MOL0     O27272   8.555  12.077   5.508 -0.8259  0.8538 -0.2703
  923MOL0     C27273   8.569  12.129   5.379 -1.4074 -0.4028 -0.4054
  923MOL0     C27274   8.481  12.039   5.291 -0.8123  0.6349 -0.4167
  923MOL0     C27275   8.537  12.022   5.153  0.8008 -0.0803 -0.3448
  923MOL0     C27276   8.418  11.975   5.061  0.2169  0.0636  0.0243
  923MOL0     C27277   8.445  11.930   4.921  0.6713 -0.2526  0.6299
  923MOL0     C27278   8.525  12.034   4.839 -0.0572 -0.4141 -0.3531
  923MOL0     C27279   8.464  12.173   4.833 -0.2245 -0.8026 -0.1706
  923MOL0     C27280   8.543  12.270   4.751 -0.0991  0.2449  0.1554
  923MOL0    Cl27281   8.692  12.309   4.825 -0.0505  0.3246 -0.1829
  923MOL0     C27282   8.575  12.107   5.744 -1.1221 -0.6077  0.7964
  923MOL0     C27283   8.633  12.185   5.855  1.0361  0.1756 -0.2999
  923MOL0     O27284   9.001  12.279   5.899  0.0397  0.2917 -0.1231
  923MOL0     C27285   8.886  12.511   6.144  0.0383 -1.1905 -0.8103
  923MOL0     C27286   8.924  12.606   6.237 -0.6881  0.3592 -1.0818
  923MOL0     N27287   9.603  12.302   6.511  0.7254  0.2471  0.4476
  923MOL0     N27288   9.588  12.181   6.478  0.0979 -0.0989 -0.6092
  923MOL0     C27289   8.898  11.103   5.936 -0.1747  0.3018  0.2307
  923MOL0     C27290   8.794  11.017   5.899  1.2156 -0.4022 -0.3397
  923MOL0     C27291   8.405  10.825   5.815 -0.6809 -0.5811 -0.8394
  923MOL0     C27292   8.404  10.732   5.697 -0.7856 -2.1925  0.4703
  923MOL0     C27293   8.338  10.615   5.686  0.0939  0.5501  0.6602
  923MOL0     C27294   8.266  10.579   5.790  0.3578  0.3141  0.4783
  923MOL0     O27295   8.199  10.460   5.808 -0.2959  0.2832 -0.1254
  923MOL0     C27296   8.267  10.340   5.786 -0.4678 -0.6161  0.2294
  923MOL0     C27297   8.379  10.340   5.891 -0.1079 -0.0603 -0.5393
  923MOL0     C27298   8.435  10.198   5.896  0.6058 -0.1184 -0.3664
  923MOL0     C27299   8.507  10.161   5.767  0.3496  0.2656  1.2961
  923MOL0     C27300   8.572  10.030   5.784  0.5714  0.6142  0.5775
  923MOL0     C27301   8.622   9.920   5.802  0.3069  0.3272 -0.6365
  923MOL0     C27302   8.242  10.677   5.886 -0.0669  0.4590 -0.5928
  923MOL0     C27303   8.309  10.800   5.911 -0.7023 -0.3688 -0.3169
  923MOL0     C27304   8.273  10.874   6.031 -0.6326  0.1976  0.0875
  923MOL0     H27305   8.563  11.146   6.117 -1.2458 -1.9013 -2.7508
  923MOL0     H27306   8.745  11.292   6.176  1.6361  0.2863 -0.5341
  923MOL0     H27307   8.922  11.421   6.206  0.9016  0.0923  0.3343
  923MOL0     H27308   8.886  11.483   6.044  1.7229  0.5707 -1.9181
  923MOL0     H27309   9.155  11.461   6.170  1.9905  3.0263  0.5209
  923MOL0     H27310   9.120  11.519   6.003  0.0073 -0.4819  0.1475
  923MOL0     H27311   8.988  11.707   6.127  0.0263  1.1080  2.1674
  923MOL0     H27312   9.030  11.651   6.272  0.9915  2.1872  0.1839
  923MOL0     H27313   9.269  11.668   6.202 -1.3716 -1.8457 -0.8492
  923MOL0     H27314   9.222  11.743   6.049  0.2764  0.8806  0.1802
  923MOL0     H27315   9.191  11.854   6.336  0.7964 -0.4083  0.0159
  923MOL0     H27316   9.089  11.920   6.205 -0.0846  3.2046  3.7238
  923MOL0     H27317   9.396  11.913   6.175  0.5253  2.4165 -0.1401
  923MOL0     H27318   9.281  12.008   6.080 -0.1270  4.3091  1.1804
  923MOL0     H27319   9.214  12.136   6.300 -0.6507  4.0162 -4.1687
  923MOL0     H27320   9.362  12.164   6.225 -2.2372  0.8352  0.5476
  923MOL0     H27321   9.305  12.011   6.487  2.3355  1.9376  1.3321
  923MOL0     H27322   9.456  11.971   6.415 -0.9100  0.0185  0.8681
  923MOL0     H27323   9.278  12.285   6.502  0.0919  0.1494 -2.1204
  923MOL0     H27324   9.561  12.543   6.628 -1.5835  0.1359  0.4053
  923MOL0     H27325   9.403  12.506   6.671  2.7436 -0.6472  2.0944
  923MOL0     H27326   9.464  12.712   6.504  3.3308 -0.7363 -1.9565
  923MOL0     H27327   9.450  12.595   6.375 -3.9996 -2.1872 -2.3998
  923MOL0     H27328   9.238  12.531   6.462 -0.5371 -0.7389  1.2088
  923MOL0     H27329   9.251  12.658   6.593 -0.2712  1.6787  0.1568
  923MOL0     H27330   9.212  12.833   6.485  2.4289 -0.0295  0.0647
  923MOL0     H27331   9.271  12.765   6.324 -0.4766 -1.3562 -0.3437
  923MOL0     H27332   9.259  12.533   6.215  0.4025  2.0879 -1.0092
  923MOL0     H27333   9.208  12.263   6.101  0.0386  0.4041  1.5177
  923MOL0     H27334   9.321  12.411   6.076  0.7082 -0.8879 -0.3656
  923MOL0     H27335   9.220  12.359   5.948 -2.3120  3.9410  0.8110
  923MOL0     H27336   8.856  12.371   5.687  0.6517 -0.1099  1.4587
  923MOL0     H27337   8.762  12.237   5.487 -2.5689 -1.7776 -1.3091
  923MOL0     H27338   8.557  12.237   5.375  0.4291 -0.0704  1.3419
  923MOL0     H27339   8.673  12.108   5.354 -1.4167  1.7357 -2.6476
  923MOL0     H27340   8.462  11.949   5.351 -0.6493  2.0201  1.8254
  923MOL0     H27341   8.387  12.095   5.281 -1.1048  0.7003  2.0663
  923MOL0     H27342   8.615  11.946   5.159  2.3774  1.5776  2.6846
  923MOL0     H27343   8.588  12.113   5.120 -0.2369  0.4812 -0.4356
  923MOL0     H27344   8.350  12.060   5.048 -0.4572 -0.8920 -4.3112
  923MOL0     H27345   8.364  11.897   5.115 -0.7828  0.8197  0.1498
  923MOL0     H27346   8.486  11.829   4.929 -3.1663 -2.0292  0.4248
  923MOL0     H27347   8.349  11.912   4.872  1.5419 -0.7247 -0.9420
  923MOL0     H27348   8.520  12.002   4.735 -0.9620  2.0463 -1.1317
  923MOL0     H27349   8.632  12.035   4.862 -0.0254 -2.1096 -0.2748
  923MOL0     H27350   8.466  12.233   4.925  0.4096  3.6101 -2.7694
  923MOL0     H27351   8.364  12.163   4.792  0.4277 -3.4163 -1.3002
  923MOL0     H27352   8.489  12.363   4.733 -1.3891 -0.7003 -1.1667
  923MOL0     H27353   8.559  12.215   4.657  0.5406 -1.1481  1.0477
  923MOL0     H27354   8.499  12.031   5.760  0.5133 -1.8772  3.2656
  923MOL0     H27355   8.601  12.173   5.958  4.5076  1.0782  1.0421
  923MOL0     H27356   8.786  12.506   6.102 -0.0481 -0.4494 -0.7043
  923MOL0     H27357   8.856  12.661   6.302  0.2086  1.9448 -1.4325
  923MOL0     H27358   8.977  11.094   5.862 -1.0911 -0.8229 -0.6396
  923MOL0     H27359   8.809  10.945   5.819  3.6031 -0.7454  0.3421
  923MOL0     H27360   8.472  10.760   5.617 -0.2703 -0.3006  1.5232
  923MOL0     H27361   8.364  10.557   5.598  1.0291  0.8572  0.7270
  923MOL0     H27362   8.206  10.252   5.807  1.8580 -1.2665  6.3457
  923MOL0     H27363   8.307  10.334   5.685 -1.3946 -3.5305 -0.0521
  923MOL0     H27364   8.344  10.357   5.993 -0.4055 -0.0618 -0.6416
  923MOL0     H27365   8.465  10.406   5.877  0.4722 -0.6181  0.2446
  923MOL0     H27366   8.511  10.195   5.975  0.7390  0.2023 -0.4830
  923MOL0     H27367   8.356  10.125   5.915  0.6341 -0.5916 -1.9023
  923MOL0     H27368   8.580  10.233   5.728 -1.2330  1.5391  0.5922
  923MOL0     H27369   8.444  10.145   5.679  1.3586 -1.5449  0.8500
  923MOL0     H27370   8.673   9.826   5.806  1.0756  0.5991 -2.9137
  923MOL0     H27371   8.166  10.650   5.959 -1.4154  3.3461 -0.8245
  923MOL0     H27372   8.165  10.885   6.043 -0.9372 -3.0923  1.4004
  923MOL0     H27373   8.311  10.812   6.113  0.2772  0.8194  0.1495
  923MOL0     H27374   8.317  10.970   6.059 -1.0362  0.1237  1.0294
  924MOL0     O27375   0.532   0.999   8.626  0.5403  0.1470  0.1566
  924MOL0     C27376   0.498   1.079   8.535 -1.2165 -0.5793  0.2540
  924MOL0     O27377   0.374   1.111   8.494  0.7069  0.1979 -0.4640
  924MOL0     C27378   0.260   1.057   8.554 -0.0174 -0.6116  0.4589
  924MOL0     C27379   0.151   1.136   8.572 -0.4583  0.1531 -0.3183
  924MOL0     C27380   0.029   1.087   8.612 -0.3673  0.0909 -0.1482
  924MOL0     C27381   0.016   0.946   8.642  1.0910  0.7430 -0.2813
  924MOL0     O27382  -0.105   0.889   8.666  0.2572 -0.2196 -0.9787
  924MOL0     C27383  -0.222   0.931   8.592  0.1116 -0.7338 -0.5723
  924MOL0     C27384  -0.225   0.905   8.440 -0.1441  0.5944 -0.4800
  924MOL0     C27385  -0.344   0.951   8.356  0.1653  0.7592 -0.2155
  924MOL0     C27386  -0.295   0.987   8.219  0.7836  0.5117  0.9528
  924MOL0     C27387  -0.234   0.864   8.147 -0.1222  0.1554  0.5267
  924MOL0     C27388  -0.202   0.887   7.997 -0.0297 -0.1221 -0.2436
  924MOL0     C27389  -0.151   0.751   7.929  0.3199  0.1527 -0.2845
  924MOL0     C27390  -0.143   0.739   7.773  0.3114  0.2611 -0.6722
  924MOL0     N27391  -0.270   0.739   7.703 -1.1373  0.1193  0.3880
  924MOL0     C27392  -0.340   0.850   7.671 -0.3966 -0.8872 -0.1442
  924MOL0     C27393  -0.424   0.800   7.575 -0.8509  0.7990 -0.0478
  924MOL0     C27394  -0.527   0.873   7.504  0.0413  0.2241  0.5569
  924MOL0     C27395  -0.487   1.013   7.475  0.0775 -0.6803  0.3453
  924MOL0     C27396  -0.566   1.066   7.346 -0.3130 -0.7627  0.0384
  924MOL0     C27397  -0.467   1.154   7.257  0.2545 -0.3998  0.2036
  924MOL0     O27398  -0.370   1.064   7.202  0.1112 -0.2689  0.5214
  924MOL0     C27399  -0.399   0.957   7.119 -0.6959  0.2103 -0.9810
  924MOL0     C27400  -0.505   0.941   7.026  0.1864 -0.5750  0.6486
  924MOL0     C27401  -0.516   0.834   6.935 -0.0377  0.2280  0.0114
  924MOL0     C27402  -0.639   0.837   6.846 -0.4605  0.4677 -0.4127
  924MOL0     C27403  -0.411   0.737   6.930  0.6602  0.2316 -0.8630
  924MOL0     C27404  -0.394   0.636   6.825 -0.0929  0.6684  0.3770
  924MOL0     O27405  -0.341   0.516   6.860 -0.8911  0.2408 -0.7148
  924MOL0     C27406  -0.287   0.429   6.764 -1.1432 -0.3217  0.3668
  924MOL0     C27407  -0.158   0.458   6.714 -0.7992  0.4489 -0.2139
  924MOL0     C27408  -0.090   0.364   6.627  0.0071  1.5208 -0.1108
  924MOL0     C27409  -0.158   0.246   6.600 -0.0499  0.7490  0.5573
  924MOL0     O27410  -0.079   0.149   6.532  0.2404  0.2527 -0.4848
  924MOL0     C27411   0.034   0.082   6.599 -0.0061 -0.8692 -0.2185
  924MOL0     C27412   0.135   0.046   6.489 -0.1321 -1.0291 -0.6142
  924MOL0     C27413   0.073  -0.065   6.406  0.4861 -0.3370  0.0803
  924MOL0     C27414   0.075  -0.191   6.482 -0.1928  0.3835  0.6959
  924MOL0     C27415   0.033  -0.310   6.398 -0.4505 -0.1321  0.0751
  924MOL0     C27416   0.147  -0.374   6.335 -1.0897  0.7452 -0.4313
  924MOL0     C27417   0.112  -0.466   6.209 -0.2157 -0.1392  0.1690
  924MOL0     C27418   0.228  -0.550   6.157 -0.1216 -0.7376 -0.5229
  924MOL0    Cl27419   0.367  -0.448   6.101 -0.7884  0.2583 -0.0670
  924MOL0     C27420  -0.286   0.219   6.640  0.8635  0.9962 -0.2634
  924MOL0     C27421  -0.346   0.303   6.722  0.2660 -1.2161  0.4603
  924MOL0     O27422  -0.420   0.659   6.708 -0.2566 -0.3374 -0.0984
  924MOL0     C27423  -0.311   0.742   7.023  0.1369 -0.6522 -0.3390
  924MOL0     C27424  -0.307   0.854   7.112 -0.2985 -0.2718  0.8616
  924MOL0     N27425  -0.413   0.663   7.562  0.0935  0.5703 -0.7712
  924MOL0     N27426  -0.322   0.628   7.651 -0.7101 -0.6118 -0.4842
  924MOL0     C27427   0.122   0.861   8.616 -0.0735  0.7220  0.1471
  924MOL0     C27428   0.238   0.919   8.580 -0.3238 -0.5836  0.2387
  924MOL0     C27429   0.599   1.169   8.475 -0.3054  0.1290 -1.5948
  924MOL0     C27430   0.576   1.309   8.467  0.3378 -0.2287 -0.6868
  924MOL0     C27431   0.673   1.396   8.422 -0.4092 -0.5949  1.5649
  924MOL0     C27432   0.795   1.330   8.364  0.3786 -0.8753  0.5998
  924MOL0     O27433   0.908   1.400   8.333 -0.2454  0.3287  0.4406
  924MOL0     C27434   0.908   1.539   8.326  0.1726 -0.5921 -0.6219
  924MOL0     C27435   1.021   1.568   8.216 -0.7510  0.9281  0.4497
  924MOL0     C27436   1.160   1.514   8.257 -0.3043 -0.5360 -0.5619
  924MOL0     C27437   1.236   1.451   8.143 -0.1214 -0.2256  0.0004
  924MOL0     C27438   1.157   1.335   8.096  0.1432  0.2041  0.2155
  924MOL0     C27439   1.112   1.225   8.078  0.6779  0.1226  0.8853
  924MOL0     C27440   0.798   1.194   8.346 -0.3591  0.1392 -0.6805
  924MOL0     C27441   0.712   1.109   8.413  0.6065 -0.7491 -0.0038
  924MOL0     C27442   0.730   0.954   8.409  0.1985 -0.0888  0.3011
  924MOL0     H27443   0.169   1.241   8.555  1.8052  0.3327  2.5125
  924MOL0     H27444  -0.050   1.161   8.610 -0.0439  0.5381  1.5700
  924MOL0     H27445  -0.249   1.034   8.616  1.0215 -0.7130  0.4407
  924MOL0     H27446  -0.301   0.865   8.629 -2.1274  1.7049 -0.7295
  924MOL0     H27447  -0.134   0.944   8.393  0.1051 -0.5045 -0.9383
  924MOL0     H27448  -0.233   0.796   8.433 -2.3544  0.7190 -0.5738
  924MOL0     H27449  -0.416   0.871   8.340 -1.2492  1.8677  0.4175
  924MOL0     H27450  -0.393   1.041   8.393 -1.1480 -0.1720  0.3781
  924MOL0     H27451  -0.377   1.024   8.156 -0.7637 -1.7744  1.5073
  924MOL0     H27452  -0.212   1.057   8.229  1.9508 -1.0945  3.5034
  924MOL0     H27453  -0.310   0.786   8.154  1.8191 -1.9954 -1.1792
  924MOL0     H27454  -0.142   0.834   8.198  1.3360 -1.0120 -2.5959
  924MOL0     H27455  -0.294   0.924   7.951 -0.5305  3.5032  3.0911
  924MOL0     H27456  -0.124   0.962   7.981  0.1395 -0.4647 -1.0497
  924MOL0     H27457  -0.233   0.682   7.950 -3.8150  4.5890 -0.2026
  924MOL0     H27458  -0.060   0.711   7.973 -0.4445 -0.8737  0.4059
  924MOL0     H27459  -0.075   0.815   7.734  0.3353  2.0504  2.5163
  924MOL0     H27460  -0.093   0.642   7.765 -3.1462 -1.7734  0.0055
  924MOL0     H27461  -0.318   0.956   7.685 -2.1235 -0.2996 -1.5792
  924MOL0     H27462  -0.621   0.869   7.559 -0.5616 -1.5901 -0.5087
  924MOL0     H27463  -0.543   0.807   7.417 -1.4252 -0.9244  1.6523
  924MOL0     H27464  -0.501   1.081   7.560  3.1349  2.6053 -1.5020
  924MOL0     H27465  -0.378   1.013   7.465  0.1854 -5.2811 -0.8514
  924MOL0     H27466  -0.600   0.981   7.287  0.9489 -0.4268 -1.2144
  924MOL0     H27467  -0.655   1.122   7.376 -1.9001 -2.6508 -0.9419
  924MOL0     H27468  -0.520   1.188   7.167 -0.3339 -0.7830  0.4015
  924MOL0     H27469  -0.438   1.243   7.314  2.8554 -1.3595  0.5448
  924MOL0     H27470  -0.580   1.017   7.043 -1.2962 -1.3319 -1.9106
  924MOL0     H27471  -0.642   0.919   6.774 -1.9806  0.4160 -0.4347
  924MOL0     H27472  -0.729   0.850   6.907  1.4325  2.5877  2.2116
  924MOL0     H27473  -0.640   0.745   6.788 -1.3349  1.1347 -1.5049
  924MOL0     H27474  -0.112   0.555   6.734 -0.3528  0.6607 -2.0721
  924MOL0     H27475   0.013   0.395   6.610  2.3552 -3.9579  1.8006
  924MOL0     H27476   0.077   0.149   6.674  1.4910 -0.6495 -1.2214
  924MOL0     H27477  -0.009  -0.006   6.648 -1.8937  0.3378  0.4016
  924MOL0     H27478   0.154   0.142   6.440 -2.1977 -0.7802 -1.0213
  924MOL0     H27479   0.232   0.010   6.525 -0.7490 -4.0400 -1.6498
  924MOL0     H27480   0.141  -0.082   6.322  1.3079  1.0160  0.4427
  924MOL0     H27481  -0.028  -0.034   6.381  1.7903  3.4292 -1.2232
  924MOL0     H27482   0.019  -0.187   6.575  1.9437 -0.6560  2.0981
  924MOL0     H27483   0.179  -0.205   6.513  1.0692  0.9231 -2.7619
  924MOL0     H27484  -0.012  -0.386   6.462 -0.1384 -0.6321 -0.2906
  924MOL0     H27485  -0.049  -0.272   6.335 -1.6425 -1.2297  0.9087
  924MOL0     H27486   0.212  -0.432   6.402 -0.1794 -0.5339 -2.3457
  924MOL0     H27487   0.210  -0.292   6.299 -2.6674  0.9221 -3.0151
  924MOL0     H27488   0.087  -0.402   6.125  3.3017 -1.0311 -1.7270
  924MOL0     H27489   0.041  -0.538   6.251  1.1077 -0.7476  1.4500
  924MOL0     H27490   0.206  -0.627   6.082  1.3425  0.8117 -2.6606
  924MOL0     H27491   0.274  -0.600   6.243 -0.7387 -0.6663 -0.1425
  924MOL0     H27492  -0.342   0.131   6.612  0.7104 -0.0930  3.0203
  924MOL0     H27493  -0.444   0.281   6.761  0.4007 -2.2423  0.2490
  924MOL0     H27494  -0.225   0.677   7.016  1.2257  0.8317 -1.3418
  924MOL0     H27495  -0.214   0.861   7.169  1.3376  1.3298 -1.7885
  924MOL0     H27496   0.109   0.754   8.628  0.3156  0.6815  0.2055
  924MOL0     H27497   0.322   0.854   8.559 -0.2887  0.3716 -3.0983
  924MOL0     H27498   0.491   1.350   8.519  1.8000  1.5244  0.4711
  924MOL0     H27499   0.686   1.504   8.422  1.5800 -0.7720  3.0075
  924MOL0     H27500   0.816   1.591   8.300  0.1432  0.5693  1.5755
  924MOL0     H27501   0.942   1.574   8.424  0.4152 -1.5505 -0.3502
  924MOL0     H27502   1.027   1.675   8.194 -1.5902  0.5218 -2.0591
  924MOL0     H27503   0.990   1.518   8.124 -2.1096  0.2225  1.2466
  924MOL0     H27504   1.220   1.600   8.290  0.6196 -0.9853 -1.0299
  924MOL0     H27505   1.157   1.441   8.338  1.2879 -0.5404 -0.4754
  924MOL0     H27506   1.338   1.421   8.165  0.7640  0.6248 -2.5203
  924MOL0     H27507   1.249   1.522   8.061  0.2138  0.6117  0.7712
  924MOL0     H27508   1.075   1.126   8.057 -0.5162  0.9335 -1.1555
  924MOL0     H27509   0.884   1.150   8.298 -0.8419 -0.0962 -1.3491
  924MOL0     H27510   0.644   0.886   8.406  1.9451 -2.7084  3.2418
  924MOL0     H27511   0.796   0.938   8.323  0.1801 -0.5290  0.3628
  924MOL0     H27512   0.785   0.934   8.502 -3.2333 -2.1005  2.1011
  925MOL0     O27513  10.471   4.166   9.737  0.1620  0.5782  0.8554
  925MOL0     C27514  10.530   4.228   9.822  0.5679  0.2230 -0.1544
  925MOL0     O27515  10.624   4.323   9.796 -0.5661 -0.9676  0.3596
  925MOL0     C27516  10.676   4.324   9.669  0.1511  0.2536 -0.4860
  925MOL0     C27517  10.699   4.452   9.616  0.1671  0.3065  0.5676
  925MOL0     C27518  10.782   4.471   9.518 -0.5064  0.9520  0.7470
  925MOL0     C27519  10.823   4.364   9.438 -0.4916  0.8600  0.2012
  925MOL0     O27520  10.904   4.391   9.331 -0.5928  0.1771  0.3745
  925MOL0     C27521  11.024   4.307   9.310 -0.0916  0.3035 -0.0607
  925MOL0     C27522  11.137   4.393   9.245  0.6790 -0.1891 -0.2362
  925MOL0     C27523  11.126   4.439   9.097  0.3430 -0.3465  0.2046
  925MOL0     C27524  11.178   4.586   9.103  0.6499  0.2821 -0.4016
  925MOL0     C27525  11.169   4.665   8.975 -0.0142 -1.0185  0.0397
  925MOL0     C27526  11.186   4.820   9.007 -0.3474  0.3318  0.0141
  925MOL0     C27527  11.210   4.889   8.871  0.0012 -0.3443  0.9536
  925MOL0     C27528  11.162   5.035   8.854 -0.0038 -0.3689  0.1271
  925MOL0     N27529  11.204   5.123   8.971  0.3084  0.1867  0.1292
  925MOL0     C27530  11.134   5.140   9.084  0.8461 -0.0215  0.9180
  925MOL0     C27531  11.228   5.218   9.158  0.1242 -0.2068  0.2304
  925MOL0     C27532  11.202   5.258   9.305 -0.4438 -0.0635  0.2850
  925MOL0     C27533  11.294   5.382   9.350 -0.7442 -0.4305  0.1002
  925MOL0     C27534  11.435   5.346   9.372  0.2871  0.4986 -1.2287
  925MOL0     C27535  11.466   5.260   9.500 -0.4683 -0.3339 -0.0411
  925MOL0     O27536  11.439   5.355   9.600  0.4753 -0.4308 -1.0572
  925MOL0     C27537  11.370   5.315   9.714 -0.3955 -1.0794  0.2010
  925MOL0     C27538  11.284   5.208   9.720 -0.3033  0.3844  0.9170
  925MOL0     C27539  11.214   5.168   9.843  0.0722  0.4502 -0.0696
  925MOL0     C27540  11.130   5.037   9.845  0.0907 -0.5262 -0.2713
  925MOL0     C27541  11.237   5.251   9.957 -0.2030  0.5253 -0.5507
  925MOL0     C27542  11.187   5.219  10.096  0.2950 -1.2842  0.8652
  925MOL0     O27543  11.188   5.093  10.135  0.7848 -0.4212  0.2743
  925MOL0     C27544  11.174   5.076  10.265  0.0550  0.3041 -0.5538
  925MOL0     C27545  11.093   4.973  10.318 -0.5128 -0.4722  0.6741
  925MOL0     C27546  11.089   4.943  10.456  0.4202  0.4535  0.0379
  925MOL0     C27547  11.191   4.998  10.552  0.2553 -0.2240 -0.0580
  925MOL0     O27548  11.180   4.978  10.685 -0.4089  0.5573  0.2035
  925MOL0     C27549  11.290   5.025  10.766  0.6189 -0.1575 -1.7502
  925MOL0     C27550  11.263   4.970  10.906  0.4671  0.3065 -0.1832
  925MOL0     C27551  11.138   5.028  10.978 -0.4132 -0.0935 -0.1881
  925MOL0     C27552  11.106   4.960  11.111  0.5492  0.7527  0.6026
  925MOL0     C27553  10.976   5.026  11.171 -1.0756  0.1481 -0.5938
  925MOL0     C27554  10.845   4.979  11.114 -0.4347  0.1544 -0.5800
  925MOL0     C27555  10.810   5.043  10.983 -0.7746  0.7224 -0.5103
  925MOL0     C27556  10.837   5.195  10.987 -0.4831 -0.4405  0.3222
  925MOL0    Cl27557  10.734   5.281  10.850 -0.2069  0.6751 -0.0672
  925MOL0     C27558  11.281   5.092  10.486  0.7471 -0.2570 -0.6344
  925MOL0     C27559  11.265   5.133  10.351  0.1829 -1.2297  0.1357
  925MOL0     O27560  11.139   5.314  10.157  0.0145 -0.1068 -0.4209
  925MOL0     C27561  11.321   5.364   9.946  0.2164  0.0685 -0.4582
  925MOL0     C27562  11.380   5.397   9.829  0.2721  0.5182 -0.1045
  925MOL0     N27563  11.345   5.243   9.077 -0.5733 -1.5368 -1.0345
  925MOL0     N27564  11.328   5.174   8.968  0.6509 -0.6455  0.5931
  925MOL0     C27565  10.798   4.231   9.482  0.2110 -0.3106  0.1973
  925MOL0     C27566  10.729   4.212   9.601  0.2228 -0.9053 -0.6654
  925MOL0     C27567  10.482   4.208   9.966  0.7182  0.0205  1.2365
  925MOL0     C27568  10.359   4.146   9.994 -0.4348  0.5353  0.5602
  925MOL0     C27569  10.307   4.120  10.119 -0.6693 -0.2890 -0.1192
  925MOL0     C27570  10.385   4.173  10.233 -0.9873 -0.3253  0.5101
  925MOL0     O27571  10.333   4.186  10.361  0.4294  0.8077  0.6675
  925MOL0     C27572  10.212   4.114  10.390  0.4677  0.3940 -0.5250
  925MOL0     C27573  10.088   4.218  10.396  0.4877 -0.5994 -1.1792
  925MOL0     C27574   9.942   4.168  10.404  0.1998  0.3249  0.1997
  925MOL0     C27575   9.850   4.180  10.285 -0.3026 -0.3219 -0.3106
  925MOL0     C27576   9.910   4.129  10.166 -0.2627  0.5083  0.3374
  925MOL0     C27577   9.963   4.096  10.070  0.6315  0.0682  0.5481
  925MOL0     C27578  10.509   4.234  10.206 -0.2795  0.2021  0.6848
  925MOL0     C27579  10.564   4.246  10.070  0.1828 -0.5706 -0.4571
  925MOL0     C27580  10.701   4.324  10.064  1.1349 -0.2572  0.7945
  925MOL0     H27581  10.656   4.542   9.659 -3.9183 -0.4911 -1.4240
  925MOL0     H27582  10.811   4.574   9.496  1.3310  0.2345 -0.4133
  925MOL0     H27583  10.994   4.232   9.236 -0.2636 -0.4094  0.7089
  925MOL0     H27584  11.059   4.271   9.407 -0.7162 -1.2404 -0.3696
  925MOL0     H27585  11.145   4.484   9.304  1.0343 -0.0311 -0.5237
  925MOL0     H27586  11.231   4.338   9.255  0.2000 -0.9678  0.1347
  925MOL0     H27587  11.192   4.377   9.036  1.9119  1.4533 -0.0140
  925MOL0     H27588  11.023   4.426   9.062  1.2406  1.6262 -3.7711
  925MOL0     H27589  11.106   4.624   9.176 -2.5742 -1.6088 -2.3987
  925MOL0     H27590  11.280   4.587   9.143  0.8515 -2.6533 -0.5953
  925MOL0     H27591  11.067   4.655   8.937 -1.2461  2.6503  1.8390
  925MOL0     H27592  11.236   4.628   8.898  0.2191  1.8468 -1.2401
  925MOL0     H27593  11.103   4.866   9.062 -1.6291  1.2455 -2.4861
  925MOL0     H27594  11.273   4.831   9.072 -1.4567  0.9289  1.4656
  925MOL0     H27595  11.172   4.830   8.787 -1.2884  1.9018 -0.1452
  925MOL0     H27596  11.318   4.899   8.854  0.1476 -0.7016  1.6552
  925MOL0     H27597  11.206   5.083   8.767 -0.1887  0.8378  0.6827
  925MOL0     H27598  11.054   5.045   8.837  0.1758  0.6531 -0.4653
  925MOL0     H27599  11.031   5.116   9.108  0.0889  2.3059  0.2677
  925MOL0     H27600  11.208   5.172   9.372  2.5993  0.2098  0.5369
  925MOL0     H27601  11.097   5.289   9.301 -0.2170  0.9678  1.6876
  925MOL0     H27602  11.276   5.463   9.279 -0.1204  0.4319  0.9052
  925MOL0     H27603  11.258   5.433   9.440 -2.2844  1.5382 -1.5191
  925MOL0     H27604  11.468   5.290   9.284 -0.1429  2.0933 -2.4418
  925MOL0     H27605  11.486   5.442   9.384  0.1151  0.5010 -0.5002
  925MOL0     H27606  11.420   5.161   9.495  2.9917 -2.0207 -2.0945
  925MOL0     H27607  11.570   5.228   9.504  0.0800  1.3766  0.3926
  925MOL0     H27608  11.266   5.148   9.631  1.1787  0.6931  0.3787
  925MOL0     H27609  11.117   4.982   9.751  1.9975 -2.8653  0.7582
  925MOL0     H27610  11.029   5.067   9.874  0.0210 -2.4686  1.6627
  925MOL0     H27611  11.167   4.965   9.917 -1.1342 -0.7361  0.1697
  925MOL0     H27612  11.022   4.919  10.255 -0.5532 -0.7132  0.9234
  925MOL0     H27613  11.006   4.879  10.486 -0.0743 -0.6949 -3.3271
  925MOL0     H27614  11.389   4.996  10.730  0.0904  2.3195 -5.7812
  925MOL0     H27615  11.272   5.133  10.764 -2.2527 -0.4225  1.1951
  925MOL0     H27616  11.258   4.861  10.904  1.9109  0.2030  0.6731
  925MOL0     H27617  11.350   4.994  10.968  0.6040  1.7252 -0.8632
  925MOL0     H27618  11.062   5.024  10.899  2.6481 -1.1666 -3.3067
  925MOL0     H27619  11.158   5.135  10.991  3.3820 -0.4632 -1.6593
  925MOL0     H27620  11.194   4.973  11.174 -0.7904 -3.3446  3.8115
  925MOL0     H27621  11.076   4.855  11.109  0.5217  0.7543  0.9170
  925MOL0     H27622  10.974   4.999  11.277  1.0495 -0.9462 -0.7815
  925MOL0     H27623  10.986   5.135  11.171 -1.3240  0.1803  0.1881
  925MOL0     H27624  10.763   5.001  11.184 -0.0294  0.4583 -0.1960
  925MOL0     H27625  10.850   4.871  11.099 -0.5263 -0.6703  3.9433
  925MOL0     H27626  10.703   5.024  10.969 -0.5622 -0.4095 -0.7556
  925MOL0     H27627  10.862   5.001  10.896  2.2798  2.6311  0.2678
  925MOL0     H27628  10.941   5.215  10.960  0.1713 -0.4147  2.6784
  925MOL0     H27629  10.812   5.237  11.085  0.3780 -2.5549  1.5396
  925MOL0     H27630  11.345   5.157  10.546  0.5049  0.0465 -0.7058
  925MOL0     H27631  11.330   5.201  10.297 -2.0957 -0.7584 -2.2389
  925MOL0     H27632  11.335   5.428  10.033  0.8903 -0.0600 -0.4631
  925MOL0     H27633  11.459   5.469   9.813  3.5763 -2.4975  1.4100
  925MOL0     H27634  10.843   4.147   9.430 -2.6427 -0.9137 -1.5109
  925MOL0     H27635  10.702   4.118   9.649  0.1509 -1.6121 -2.0439
  925MOL0     H27636  10.307   4.120   9.903  0.0241  2.4918 -0.3242
  925MOL0     H27637  10.214   4.064  10.124 -0.3147 -0.9077 -0.3385
  925MOL0     H27638  10.180   4.030  10.329  0.8303  0.6136 -1.0171
  925MOL0     H27639  10.226   4.083  10.494 -0.1427 -1.3652 -0.9359
  925MOL0     H27640  10.093   4.288  10.313 -0.3860  2.0278  0.8543
  925MOL0     H27641  10.103   4.264  10.495  2.6787 -1.6769 -0.9407
  925MOL0     H27642   9.932   4.060  10.418 -0.7933 -0.0339 -2.5526
  925MOL0     H27643   9.892   4.224  10.484  0.3086  1.1749 -0.3170
  925MOL0     H27644   9.828   4.284  10.262  1.9450  1.1269  3.1782
  925MOL0     H27645   9.756   4.125  10.298 -2.3874  2.5050 -2.3250
  925MOL0     H27646  10.004   4.061   9.977  2.7401  3.5727 -0.0315
  925MOL0     H27647  10.564   4.275  10.290  1.2513  2.4143 -1.2584
  925MOL0     H27648  10.768   4.275   9.994 -1.2655  0.7169 -2.4542
  925MOL0     H27649  10.681   4.430  10.043 -0.5576 -1.2084 -3.4912
  925MOL0     H27650  10.758   4.326  10.158 -2.2302 -0.7411  3.0588
  926MOL0     O27651   0.928   6.807   0.931  1.1500  0.6246 -0.4947
  926MOL0     C27652   0.855   6.844   1.026  0.4081 -0.4945 -0.2939
  926MOL0     O27653   0.718   6.839   1.030  0.1220 -0.3684  0.3696
  926MOL0     C27654   0.658   6.838   0.905  0.7558  1.0784 -0.2520
  926MOL0     C27655   0.680   6.910   0.793 -1.0028 -0.4277 -0.0290
  926MOL0     C27656   0.596   6.906   0.680 -0.4389  0.4343  0.5546
  926MOL0     C27657   0.496   6.807   0.672 -0.2298 -0.2678  0.7256
  926MOL0     O27658   0.417   6.781   0.559  0.1918 -0.9056  1.1449
  926MOL0     C27659   0.380   6.901   0.482 -0.2454  0.1847 -0.9698
  926MOL0     C27660   0.458   6.904   0.358 -0.2991 -0.2601  1.0773
  926MOL0     C27661   0.464   7.047   0.296  0.1436  0.1451  0.3646
  926MOL0     C27662   0.568   7.137   0.355 -0.4629  0.3615 -1.0066
  926MOL0     C27663   0.544   7.284   0.310 -0.2315  0.2984  0.4275
  926MOL0     C27664   0.662   7.385   0.365  1.2598 -0.4614 -1.0573
  926MOL0     C27665   0.611   7.530   0.339 -0.0523 -0.3462  0.4375
  926MOL0     C27666   0.718   7.634   0.357  0.3702 -0.4299  0.8397
  926MOL0     N27667   0.750   7.667   0.503 -0.1088  0.0898  0.5533
  926MOL0     C27668   0.865   7.644   0.554 -0.0387 -0.7380 -0.9101
  926MOL0     C27669   0.854   7.674   0.684  0.2618  0.6020 -0.4859
  926MOL0     C27670   0.961   7.628   0.778 -1.0971  0.4328 -0.1438
  926MOL0     C27671   1.099   7.681   0.746 -0.7713  1.3135  0.6614
  926MOL0     C27672   1.122   7.837   0.720  0.3620 -0.7271 -0.2810
  926MOL0     C27673   1.088   7.921   0.852  0.3381  1.0287 -0.6645
  926MOL0     O27674   1.160   8.045   0.833  0.0608  0.7913  0.6801
  926MOL0     C27675   1.256   8.088   0.920 -0.4736  0.5430 -1.0537
  926MOL0     C27676   1.370   8.004   0.932  0.5186  0.2464  0.0394
  926MOL0     C27677   1.471   8.032   1.022 -0.4938  0.3552  0.3625
  926MOL0     C27678   1.598   7.948   1.011  1.4028  0.2703 -0.4331
  926MOL0     C27679   1.465   8.144   1.096  0.4689  0.3200 -1.1071
  926MOL0     C27680   1.573   8.181   1.178  0.3565  0.3474  0.4857
  926MOL0     O27681   1.631   8.304   1.155 -0.7395  0.4706 -0.6269
  926MOL0     C27682   1.753   8.326   1.213  0.0603  0.3601  0.1537
  926MOL0     C27683   1.752   8.398   1.337 -0.1315  0.0505  0.3899
  926MOL0     C27684   1.876   8.440   1.384  0.0721  0.6645  0.2308
  926MOL0     C27685   1.996   8.396   1.329  0.1888  0.7509 -1.2519
  926MOL0     O27686   2.114   8.421   1.392 -0.2699 -0.3522 -0.8207
  926MOL0     C27687   2.232   8.420   1.310 -0.2342 -0.0919  0.4535
  926MOL0     C27688   2.344   8.498   1.382  0.1326 -0.7638  0.1079
  926MOL0     C27689   2.469   8.509   1.292 -0.6861 -0.6667  0.6424
  926MOL0     C27690   2.544   8.652   1.335 -0.7967  1.1668  0.2309
  926MOL0     C27691   2.698   8.623   1.308 -0.1962 -0.4171  0.5876
  926MOL0     C27692   2.766   8.742   1.364 -0.4347  0.0966 -0.3804
  926MOL0     C27693   2.914   8.759   1.306  0.7556 -0.5169 -0.3390
  926MOL0     C27694   3.000   8.633   1.307  0.1355 -0.8443 -1.3335
  926MOL0    Cl27695   3.034   8.583   1.479  0.6466 -0.1294 -0.3554
  926MOL0     C27696   1.993   8.310   1.220 -0.0709  0.0428  0.3298
  926MOL0     C27697   1.871   8.279   1.158 -0.1229 -0.4821 -0.5102
  926MOL0     O27698   1.610   8.103   1.266 -0.3719  0.0434  0.7067
  926MOL0     C27699   1.355   8.233   1.088  0.2997  0.4854  0.3359
  926MOL0     C27700   1.251   8.201   0.999  0.5342 -0.7827 -0.5592
  926MOL0     N27701   0.740   7.745   0.704 -0.3318 -0.8411 -0.5863
  926MOL0     N27702   0.676   7.744   0.595  0.0431 -0.4195  0.2671
  926MOL0     C27703   0.472   6.720   0.779 -0.7279 -0.6255  0.4310
  926MOL0     C27704   0.550   6.739   0.892  0.9744 -0.3879 -0.4260
  926MOL0     C27705   0.928   6.876   1.148  0.4998  0.0100 -0.7861
  926MOL0     C27706   0.867   6.863   1.271 -0.1376 -0.1374  1.0867
  926MOL0     C27707   0.929   6.894   1.389  0.4324 -0.0214 -0.6340
  926MOL0     C27708   1.065   6.932   1.393 -0.4688 -0.2329  1.5256
  926MOL0     O27709   1.143   6.957   1.507 -0.8829  0.2547 -0.3916
  926MOL0     C27710   1.066   6.999   1.621  0.3118  0.2589  0.4392
  926MOL0     C27711   1.158   7.083   1.724  0.6151  0.7855 -0.2103
  926MOL0     C27712   1.243   6.981   1.803  0.0930 -0.5721  0.2849
  926MOL0     C27713   1.384   7.033   1.846  0.3795 -0.2034 -0.1984
  926MOL0     C27714   1.371   7.130   1.962 -0.7738  0.4935 -0.2578
  926MOL0     C27715   1.382   7.194   2.060 -0.1403 -0.1185 -0.2984
  926MOL0     C27716   1.129   6.929   1.270 -0.3614  0.8118 -1.2936
  926MOL0     C27717   1.069   6.909   1.152 -0.3634 -0.3626  0.8545
  926MOL0     C27718   1.157   6.951   1.039  0.4015 -0.1297 -0.8385
  926MOL0     H27719   0.762   6.979   0.806  1.1065 -3.1318  2.4820
  926MOL0     H27720   0.617   6.974   0.598 -0.8933 -0.4313 -0.2994
  926MOL0     H27721   0.382   6.990   0.545 -0.4931 -0.9657  0.7363
  926MOL0     H27722   0.274   6.894   0.456 -0.0924 -1.2621 -1.3327
  926MOL0     H27723   0.557   6.865   0.380 -1.0926 -2.3371  1.2282
  926MOL0     H27724   0.409   6.832   0.291  2.4807 -2.1950  0.9431
  926MOL0     H27725   0.498   7.038   0.193 -0.5556 -0.7041  0.2008
  926MOL0     H27726   0.368   7.097   0.308 -0.6087 -1.0794 -0.3672
  926MOL0     H27727   0.553   7.135   0.463  1.4263  1.0113 -0.6969
  926MOL0     H27728   0.668   7.097   0.338  0.6243  0.9866  2.9516
  926MOL0     H27729   0.444   7.314   0.344  0.9130  2.2280  2.3474
  926MOL0     H27730   0.531   7.315   0.206 -1.0744 -0.4633  0.2907
  926MOL0     H27731   0.679   7.376   0.472  1.5602 -0.4451 -1.1030
  926MOL0     H27732   0.763   7.365   0.329  1.5167 -0.1190 -0.5259
  926MOL0     H27733   0.519   7.557   0.391 -2.7678  3.9086 -5.3646
  926MOL0     H27734   0.584   7.531   0.232  1.8383 -0.9022 -0.0759
  926MOL0     H27735   0.812   7.602   0.311 -0.4068 -0.4357 -0.8376
  926MOL0     H27736   0.685   7.723   0.303 -1.8796 -1.2097  0.8193
  926MOL0     H27737   0.946   7.593   0.502  1.3265  1.9913 -1.6121
  926MOL0     H27738   0.974   7.520   0.774 -0.6107  0.5182 -1.1821
  926MOL0     H27739   0.934   7.654   0.881 -1.6240 -0.9254  0.0697
  926MOL0     H27740   1.174   7.641   0.815  0.2731  2.9490  0.5244
  926MOL0     H27741   1.114   7.638   0.646 -4.8632 -0.3798  0.6023
  926MOL0     H27742   1.226   7.849   0.689  0.2263 -0.5959 -0.6829
  926MOL0     H27743   1.050   7.872   0.646  0.2139 -0.1985  0.1045
  926MOL0     H27744   0.980   7.938   0.862  0.0778 -0.0710 -1.3573
  926MOL0     H27745   1.137   7.875   0.938  0.2925  1.9319 -0.1461
  926MOL0     H27746   1.379   7.914   0.871 -4.1078  0.2639 -1.0208
  926MOL0     H27747   1.600   7.899   1.109 -3.7366 -1.0893 -0.7101
  926MOL0     H27748   1.688   8.007   0.989  1.9270 -0.4119 -0.1659
  926MOL0     H27749   1.585   7.865   0.940  1.0311  0.8083 -1.0066
  926MOL0     H27750   1.653   8.431   1.367 -0.8740 -1.7081  0.0548
  926MOL0     H27751   1.877   8.489   1.481 -2.1185 -0.7144  1.0415
  926MOL0     H27752   2.257   8.315   1.293  1.0077 -0.4504  3.7498
  926MOL0     H27753   2.224   8.468   1.211  5.2600 -0.5131 -0.5266
  926MOL0     H27754   2.312   8.593   1.425  1.0369  0.2560 -1.3666
  926MOL0     H27755   2.376   8.446   1.472 -2.5421  1.3060  2.4247
  926MOL0     H27756   2.443   8.504   1.186 -3.9351  2.0491  1.1476
  926MOL0     H27757   2.537   8.426   1.313  2.1529  1.3873  0.1534
  926MOL0     H27758   2.537   8.665   1.444 -0.7417 -2.3415  0.7807
  926MOL0     H27759   2.502   8.744   1.293 -1.0932  1.5496  1.3221
  926MOL0     H27760   2.740   8.535   1.356  1.3733  0.9113  1.7683
  926MOL0     H27761   2.720   8.608   1.202  2.7583 -3.2654  1.4349
  926MOL0     H27762   2.768   8.741   1.473 -3.4323 -0.3410 -0.2246
  926MOL0     H27763   2.711   8.825   1.318 -3.0207 -1.6020 -0.5732
  926MOL0     H27764   2.957   8.830   1.377  0.8130 -1.0644  0.1797
  926MOL0     H27765   2.913   8.806   1.207  1.2119 -1.5646 -0.8524
  926MOL0     H27766   3.096   8.648   1.258  0.5521 -1.2948 -0.6652
  926MOL0     H27767   2.944   8.555   1.255 -3.0006  2.7647 -3.9549
  926MOL0     H27768   2.076   8.258   1.173 -1.6475 -2.2614 -0.0914
  926MOL0     H27769   1.878   8.204   1.080 -2.4004 -3.6535  2.0169
  926MOL0     H27770   1.333   8.319   1.151 -2.9017  1.1418 -1.4397
  926MOL0     H27771   1.164   8.265   1.001  1.6959  0.8704  0.7460
  926MOL0     H27772   0.393   6.648   0.759  0.9336 -1.7234 -3.1487
  926MOL0     H27773   0.514   6.677   0.973 -0.3558 -0.0761 -0.7594
  926MOL0     H27774   0.764   6.831   1.286  0.0326 -0.6740  1.1039
  926MOL0     H27775   0.875   6.887   1.483 -0.8667 -0.0299 -1.3510
  926MOL0     H27776   0.977   7.053   1.587 -2.1724 -1.7993  3.2392
  926MOL0     H27777   1.024   6.913   1.673 -0.8941  1.9830  2.4520
  926MOL0     H27778   1.087   7.140   1.784 -2.7008 -4.1363  1.1225
  926MOL0     H27779   1.226   7.153   1.675  0.8018 -0.8686 -2.4778
  926MOL0     H27780   1.190   6.973   1.899 -1.9954  4.6880 -0.0598
  926MOL0     H27781   1.246   6.888   1.747 -1.2086 -0.8755  0.6812
  926MOL0     H27782   1.455   7.083   1.779  1.0611  1.0944  1.4412
  926MOL0     H27783   1.431   6.953   1.904 -2.1029  0.7848  3.4676
  926MOL0     H27784   1.413   7.266   2.133 -0.1694  1.9022 -2.1855
  926MOL0     H27785   1.237   6.935   1.273 -0.3943  1.0739  0.3378
  926MOL0     H27786   1.091   6.974   0.955 -3.9588 -1.9117  1.8087
  926MOL0     H27787   1.211   7.043   1.066 -0.3450  0.9049 -2.6949
  926MOL0     H27788   1.233   6.877   1.012  1.3500 -0.6395  2.6647
  927MOL0     O27789   0.977  10.548   8.066 -0.3078 -0.5598 -0.4727
  927MOL0     C27790   0.965  10.451   7.994 -0.0898 -0.1719  0.6128
  927MOL0     O27791   1.011  10.327   8.019 -0.3823  0.1632 -0.4790
  927MOL0     C27792   1.080  10.301   8.141  0.8249 -0.2953  1.3404
  927MOL0     C27793   1.043  10.187   8.223  0.5800  0.3635 -0.2479
  927MOL0     C27794   1.099  10.172   8.349 -0.1089 -0.6146 -0.3080
  927MOL0     C27795   1.191  10.265   8.395 -0.7098 -0.5228 -1.9934
  927MOL0     O27796   1.246  10.243   8.522 -0.8040  0.5173  0.6413
  927MOL0     C27797   1.383  10.260   8.537 -1.2173  0.2458  0.5731
  927MOL0     C27798   1.423  10.182   8.661  0.6440 -0.0707 -0.0427
  927MOL0     C27799   1.466  10.043   8.622 -0.5114  0.6366 -0.6953
  927MOL0     C27800   1.611  10.038   8.555  1.3295 -0.8966 -0.6063
  927MOL0     C27801   1.641   9.901   8.515 -0.3593 -0.3102  0.3519
  927MOL0     C27802   1.709   9.808   8.607  0.3310 -0.0326  1.6267
  927MOL0     C27803   1.726   9.665   8.549  0.3446  0.5268 -0.3054
  927MOL0     C27804   1.604   9.586   8.529  0.8369  0.6067  0.6414
  927MOL0     N27805   1.532   9.606   8.403 -0.2869 -0.0322  0.2282
  927MOL0     C27806   1.584   9.594   8.278 -0.5004  0.0789  0.3461
  927MOL0     C27807   1.478   9.607   8.200  0.3421 -0.3354  1.0413
  927MOL0     C27808   1.477   9.567   8.045  1.0014 -0.2189 -0.0258
  927MOL0     C27809   1.603   9.620   7.964 -0.3522  0.6179  0.2746
  927MOL0     C27810   1.616   9.781   7.976 -0.0496  0.2437 -0.3879
  927MOL0     C27811   1.714   9.841   7.880 -0.6210 -0.7664  0.9399
  927MOL0     O27812   1.846   9.791   7.909  0.3694  0.0889 -0.8598
  927MOL0     C27813   1.908   9.847   8.022 -1.0290  1.1539  0.4557
  927MOL0     C27814   2.020   9.778   8.068  0.4355 -1.1046 -0.5836
  927MOL0     C27815   2.095   9.817   8.182  0.3117 -0.2214  0.3439
  927MOL0     C27816   2.205   9.729   8.217 -0.0159  0.5224 -0.7266
  927MOL0     C27817   2.055   9.945   8.248 -0.6397  0.2958 -1.0085
  927MOL0     C27818   2.122   9.989   8.370  0.6911 -0.5667 -0.5725
  927MOL0     O27819   2.050  10.055   8.457  0.2143 -0.0010  0.6836
  927MOL0     C27820   2.101  10.093   8.580  0.7155  0.6257 -0.0536
  927MOL0     C27821   2.162  10.213   8.593  0.7999 -0.2482 -0.4423
  927MOL0     C27822   2.207  10.257   8.717  0.8431 -0.4166  0.4595
  927MOL0     C27823   2.187  10.184   8.829 -0.3939  0.4853 -0.6648
  927MOL0     O27824   2.201  10.223   8.960  0.1483  0.7608 -0.0699
  927MOL0     C27825   2.154  10.356   8.986 -0.4495 -0.6617 -0.6122
  927MOL0     C27826   2.136  10.378   9.144  0.0189  0.2711 -0.0327
  927MOL0     C27827   2.000  10.436   9.174  0.7771 -0.4872 -0.6772
  927MOL0     C27828   1.984  10.445   9.322  0.1945 -0.5133 -0.3679
  927MOL0     C27829   1.849  10.519   9.362 -0.6096  0.1892 -0.3577
  927MOL0     C27830   1.737  10.414   9.340  0.0753  0.0057 -0.0956
  927MOL0     C27831   1.608  10.466   9.394  0.0615  1.1056  0.3980
  927MOL0     C27832   1.512  10.356   9.409  0.0032 -0.1995 -0.3077
  927MOL0    Cl27833   1.557  10.247   9.547 -0.0818  0.8831  0.1773
  927MOL0     C27834   2.133  10.056   8.819  0.2958  0.2403  0.0339
  927MOL0     C27835   2.101  10.000   8.691  0.7451  0.3792  0.8724
  927MOL0     O27836   2.238   9.958   8.385  0.0694 -0.1072 -0.0317
  927MOL0     C27837   1.940  10.010   8.204 -0.2756 -0.5064  0.7200
  927MOL0     C27838   1.872   9.967   8.085 -0.4228 -0.4053 -0.3744
  927MOL0     N27839   1.369   9.662   8.266 -1.6118  0.3227  0.8706
  927MOL0     N27840   1.402   9.652   8.394 -0.4110 -0.1868 -0.6810
  927MOL0     C27841   1.235  10.365   8.309 -1.0278 -0.7401 -1.2012
  927MOL0     C27842   1.178  10.390   8.185  0.1065  1.1164  0.6290
  927MOL0     C27843   0.883  10.473   7.880  0.3156 -0.5981  0.5524
  927MOL0     C27844   0.759  10.544   7.887  0.1940 -0.4622  1.1133
  927MOL0     C27845   0.685  10.569   7.773 -0.0679  0.2033  0.1243
  927MOL0     C27846   0.726  10.534   7.646  0.0165 -0.6170 -0.4426
  927MOL0     O27847   0.653  10.578   7.536 -1.1730  0.8177 -0.1084
  927MOL0     C27848   0.715  10.603   7.407 -0.1321  0.4045  0.1218
  927MOL0     C27849   0.670  10.737   7.342  0.7221  0.0549 -0.4181
  927MOL0     C27850   0.610  10.748   7.200 -1.0455  0.1901 -1.3133
  927MOL0     C27851   0.727  10.768   7.099  0.2964 -0.2145  0.4463
  927MOL0     C27852   0.840  10.673   7.107 -1.1579 -0.0932  0.1870
  927MOL0     C27853   0.935  10.596   7.117 -0.1690  0.5877 -0.0879
  927MOL0     C27854   0.845  10.457   7.639 -0.5055  0.7104 -0.3193
  927MOL0     C27855   0.917  10.415   7.755 -0.1814  0.7207  0.9416
  927MOL0     C27856   1.035  10.322   7.723  0.6181  0.1662 -0.2537
  927MOL0     H27857   0.961  10.126   8.186  1.1230  1.3535 -3.4693
  927MOL0     H27858   1.052  10.102   8.417 -2.1468  2.7533  2.0806
  927MOL0     H27859   1.410  10.363   8.562  2.3746 -1.1382  3.2426
  927MOL0     H27860   1.453  10.233   8.457  2.6061  1.5275  3.2020
  927MOL0     H27861   1.517  10.215   8.707  1.6159  0.1838 -2.0784
  927MOL0     H27862   1.339  10.175   8.731 -0.4224 -0.2842 -1.3034
  927MOL0     H27863   1.469   9.989   8.718  1.2332  1.9751  0.0450
  927MOL0     H27864   1.388  10.006   8.554  1.0124 -0.8600 -1.7354
  927MOL0     H27865   1.599  10.098   8.464 -1.3100 -1.0270 -0.4456
  927MOL0     H27866   1.696  10.082   8.606  1.3553  3.5871 -3.8795
  927MOL0     H27867   1.712   9.906   8.432 -1.5842  2.6968 -0.6673
  927MOL0     H27868   1.548   9.859   8.475  0.7247  1.3838 -4.7328
  927MOL0     H27869   1.808   9.838   8.641 -0.0015  1.1734  1.5878
  927MOL0     H27870   1.640   9.806   8.692 -2.0155  3.4332  0.0580
  927MOL0     H27871   1.780   9.618   8.631 -1.5692  1.6653  1.7257
  927MOL0     H27872   1.781   9.655   8.455 -2.2202 -1.3336 -1.7387
  927MOL0     H27873   1.636   9.481   8.535 -1.4882 -0.2492 -0.8345
  927MOL0     H27874   1.530   9.600   8.608  0.4799 -2.1240  0.9132
  927MOL0     H27875   1.685   9.561   8.257  1.1494  2.4767  3.5461
  927MOL0     H27876   1.389   9.599   7.989  0.5547 -3.1434 -1.1896
  927MOL0     H27877   1.466   9.459   8.040  2.3001 -0.3851  0.3753
  927MOL0     H27878   1.701   9.578   7.989 -0.7522  0.1267  1.0773
  927MOL0     H27879   1.590   9.600   7.858  1.2024 -2.5296  0.5614
  927MOL0     H27880   1.523   9.825   7.938  0.3910  1.4401 -0.0961
  927MOL0     H27881   1.631   9.815   8.078 -1.0556 -0.7104  0.1132
  927MOL0     H27882   1.690   9.799   7.782 -0.1080  1.5851 -0.2805
  927MOL0     H27883   1.717   9.950   7.873  2.6861 -0.7396  1.2448
  927MOL0     H27884   2.029   9.683   8.016 -2.0338 -1.7005 -0.0562
  927MOL0     H27885   2.205   9.645   8.147 -0.9299 -0.4165  0.3595
  927MOL0     H27886   2.183   9.697   8.319 -2.5150  2.4324 -0.5727
  927MOL0     H27887   2.303   9.777   8.205 -0.2675  0.4412 -4.2148
  927MOL0     H27888   2.173  10.283   8.511 -0.6498 -0.4970 -0.8681
  927MOL0     H27889   2.248  10.355   8.742  1.2832 -0.3221 -0.5683
  927MOL0     H27890   2.236  10.425   8.966 -1.9457  1.6484  0.8106
  927MOL0     H27891   2.062  10.393   8.940  0.3416 -0.3064 -1.9553
  927MOL0     H27892   2.161  10.289   9.202  0.9395  0.4378 -0.1606
  927MOL0     H27893   2.216  10.448   9.170  1.3418 -1.0135 -0.5102
  927MOL0     H27894   1.916  10.372   9.147 -1.4548  1.4891  1.1137
  927MOL0     H27895   1.993  10.538   9.134  1.4617  0.2831  1.0591
  927MOL0     H27896   2.074  10.493   9.361 -1.4452  3.4457 -0.9401
  927MOL0     H27897   1.985  10.345   9.366  0.0119  0.0944  1.0531
  927MOL0     H27898   1.850  10.555   9.465  2.7037 -0.6196  0.0096
  927MOL0     H27899   1.844  10.599   9.287  1.5670  0.7119 -0.0056
  927MOL0     H27900   1.766  10.319   9.387  0.6449 -0.7130 -1.8206
  927MOL0     H27901   1.729  10.379   9.237 -2.3895 -2.1392  0.7248
  927MOL0     H27902   1.576  10.551   9.332  0.7237  0.2148 -1.2191
  927MOL0     H27903   1.621  10.511   9.493 -3.6702  3.5420 -0.0354
  927MOL0     H27904   1.516  10.300   9.315 -1.6556  0.7925 -1.0151
  927MOL0     H27905   1.412  10.400   9.415 -0.2318 -0.6824 -0.5821
  927MOL0     H27906   2.128   9.999   8.912  2.7095 -0.7684 -0.3713
  927MOL0     H27907   2.056   9.904   8.669  1.2573  0.3181  0.0433
  927MOL0     H27908   1.909  10.105   8.246  0.3147 -0.5748  1.3207
  927MOL0     H27909   1.790  10.027   8.048  0.7296  0.5463 -1.5224
  927MOL0     H27910   1.302  10.437   8.354 -2.6530 -0.2393  0.5578
  927MOL0     H27911   1.219  10.460   8.113 -1.0309 -1.6419 -3.0030
  927MOL0     H27912   0.711  10.576   7.978 -3.6290  1.1750 -1.2107
  927MOL0     H27913   0.591  10.621   7.785  1.1650  2.4192  0.8542
  927MOL0     H27914   0.824  10.610   7.406  0.0892 -1.8451  1.0552
  927MOL0     H27915   0.693  10.526   7.332 -0.0624  1.1338 -0.6523
  927MOL0     H27916   0.758  10.802   7.338  0.9794 -0.3453 -2.1813
  927MOL0     H27917   0.604  10.775   7.420  2.0549  1.4012  0.1003
  927MOL0     H27918   0.548  10.662   7.172  0.1367 -1.5173  0.9424
  927MOL0     H27919   0.550  10.839   7.192  0.3922  0.9718 -4.6460
  927MOL0     H27920   0.761  10.872   7.108 -0.5104  0.4575 -2.9084
  927MOL0     H27921   0.682  10.758   7.000 -1.3514 -3.1330  1.3784
  927MOL0     H27922   1.023  10.534   7.117 -1.1331 -0.9960 -3.4406
  927MOL0     H27923   0.881  10.424   7.542 -0.7712 -6.3215  1.3655
  927MOL0     H27924   1.007  10.223   7.759  0.3861 -0.1942 -1.3942
  927MOL0     H27925   1.068  10.308   7.619  1.8819  1.6143 -0.0874
  927MOL0     H27926   1.115  10.354   7.790  1.7767  1.2072 -2.0346
  928MOL0     O27927   2.381   2.090   8.703  0.4353  0.3823  0.0756
  928MOL0     C27928   2.280   2.118   8.756  0.2541 -0.0485  0.0995
  928MOL0     O27929   2.261   2.237   8.814  0.2719  0.0039  0.5588
  928MOL0     C27930   2.361   2.331   8.806  0.6838  0.5843 -0.7886
  928MOL0     C27931   2.412   2.390   8.684  0.4235  0.2426 -1.2361
  928MOL0     C27932   2.514   2.488   8.680  0.4018 -0.4584 -0.4175
  928MOL0     C27933   2.564   2.538   8.803 -0.6794 -0.0713 -0.7849
  928MOL0     O27934   2.647   2.648   8.815  0.5407 -0.3237  0.2180
  928MOL0     C27935   2.678   2.718   8.697 -0.3981  0.0675  0.0050
  928MOL0     C27936   2.740   2.847   8.717 -0.1254 -0.3684 -0.2720
  928MOL0     C27937   2.757   2.923   8.582 -1.4668  0.3220  0.1137
  928MOL0     C27938   2.840   3.048   8.621  0.1650 -0.3579 -0.1295
  928MOL0     C27939   2.849   3.160   8.513 -0.4173  0.0001 -0.3214
  928MOL0     C27940   2.914   3.284   8.547 -0.4950  0.0323 -0.3260
  928MOL0     C27941   2.889   3.393   8.449 -0.7028 -0.0314 -0.4210
  928MOL0     C27942   2.758   3.471   8.466 -0.2493 -0.2019  0.3786
  928MOL0     N27943   2.776   3.597   8.392 -0.0386 -0.4025  1.1006
  928MOL0     C27944   2.793   3.618   8.257 -1.5429 -0.4663 -0.1778
  928MOL0     C27945   2.791   3.748   8.229 -0.3379 -0.5660 -0.4282
  928MOL0     C27946   2.815   3.812   8.094  0.0273  0.1374  0.4946
  928MOL0     C27947   2.955   3.881   8.080 -0.8253 -0.0128 -0.2247
  928MOL0     C27948   3.038   3.861   7.957 -0.5584  0.2730 -0.5872
  928MOL0     C27949   3.065   3.715   7.916 -0.5056 -0.2597  0.3254
  928MOL0     O27950   3.066   3.625   8.023  0.4968  0.5774 -0.0364
  928MOL0     C27951   3.124   3.501   8.005  0.4102  0.4797 -1.2142
  928MOL0     C27952   3.076   3.388   8.082 -0.6100 -0.4312  0.0463
  928MOL0     C27953   3.111   3.254   8.051  0.0883 -0.2712 -0.1837
  928MOL0     C27954   3.054   3.140   8.129  0.0344  0.5222 -0.0507
  928MOL0     C27955   3.214   3.232   7.950  0.4146 -0.1383  0.5256
  928MOL0     C27956   3.252   3.097   7.904  0.2971  0.5812 -0.5691
  928MOL0     O27957   3.386   3.072   7.881  1.1681 -0.8616  0.1274
  928MOL0     C27958   3.429   2.974   7.795  0.7734 -0.6917  0.9813
  928MOL0     C27959   3.564   2.926   7.814  0.8603  0.7853 -0.8180
  928MOL0     C27960   3.615   2.836   7.727 -0.6184  0.1789  0.1703
  928MOL0     C27961   3.538   2.780   7.618  0.1098 -0.4527 -0.2225
  928MOL0     O27962   3.580   2.671   7.544 -0.8297 -0.2781  0.1254
  928MOL0     C27963   3.709   2.609   7.572 -0.3451  0.5208  0.7481
  928MOL0     C27964   3.738   2.512   7.452 -0.1192  0.2462  0.2220
  928MOL0     C27965   3.770   2.590   7.320  0.2165  0.1509 -0.8363
  928MOL0     C27966   3.922   2.613   7.314 -1.3458  0.7000 -0.9737
  928MOL0     C27967   3.956   2.728   7.218 -0.4299 -1.4867  0.9405
  928MOL0     C27968   4.093   2.792   7.248 -0.7573  0.0692  0.6001
  928MOL0     C27969   4.113   2.934   7.175 -0.3129  0.3935 -0.6924
  928MOL0     C27970   4.256   2.988   7.196  0.2171 -0.3730 -0.2523
  928MOL0    Cl27971   4.245   3.083   7.350  0.5876  0.3484 -0.5318
  928MOL0     C27972   3.414   2.840   7.591 -0.2799 -0.1255 -0.2351
  928MOL0     C27973   3.359   2.937   7.676  0.3732 -0.0813  0.0188
  928MOL0     O27974   3.157   3.020   7.886  0.0398  0.2818 -0.3996
  928MOL0     C27975   3.271   3.346   7.890  0.2026  0.2618 -0.3847
  928MOL0     C27976   3.216   3.468   7.913  0.1945  0.0728 -0.6784
  928MOL0     N27977   2.778   3.811   8.345  0.0720 -0.6933  0.2360
  928MOL0     N27978   2.766   3.730   8.448  0.3362  0.5066 -1.0252
  928MOL0     C27979   2.503   2.493   8.922 -0.2054  0.5884  0.5133
  928MOL0     C27980   2.410   2.389   8.923  0.3045  0.4445 -0.1511
  928MOL0     C27981   2.174   2.015   8.752  0.5127 -0.8593 -0.5291
  928MOL0     C27982   2.042   2.073   8.762  0.2335 -0.2740  0.6175
  928MOL0     C27983   1.931   1.996   8.786 -0.4594 -0.0261  0.3090
  928MOL0     C27984   1.942   1.861   8.770 -0.4977  0.0780  1.0223
  928MOL0     O27985   1.832   1.775   8.778 -0.9731 -0.1989  0.5290
  928MOL0     C27986   1.700   1.822   8.814  0.6678 -0.1151  0.0778
  928MOL0     C27987   1.582   1.742   8.754 -0.4484 -0.7214  0.5128
  928MOL0     C27988   1.585   1.707   8.599  0.4328  0.2062 -1.2292
  928MOL0     C27989   1.454   1.658   8.535  1.0365  0.0368 -0.1168
  928MOL0     C27990   1.477   1.633   8.392 -0.3904 -0.1561 -0.6831
  928MOL0     C27991   1.498   1.626   8.270  0.0382  0.2010 -0.0347
  928MOL0     C27992   2.062   1.802   8.749 -0.8355 -0.0556  0.5740
  928MOL0     C27993   2.186   1.882   8.745 -0.3813  0.4398 -0.3048
  928MOL0     C27994   2.322   1.815   8.739 -0.5457  0.5997 -0.2738
  928MOL0     H27995   2.398   2.320   8.602  1.2086 -1.5693  0.0883
  928MOL0     H27996   2.549   2.512   8.580  1.3144 -1.2710 -0.3055
  928MOL0     H27997   2.582   2.724   8.646 -2.2555 -2.6949  2.7662
  928MOL0     H27998   2.762   2.669   8.647  1.0339  1.8786  0.5377
  928MOL0     H27999   2.692   2.899   8.801 -0.9173  1.4395 -1.7729
  928MOL0     H28000   2.838   2.824   8.761 -0.4794  1.7185  1.7859
  928MOL0     H28001   2.821   2.855   8.523  0.3518  0.2337  2.0771
  928MOL0     H28002   2.662   2.943   8.532 -0.8447 -2.3790 -2.5208
  928MOL0     H28003   2.793   3.089   8.711 -1.2937 -1.5854 -0.2868
  928MOL0     H28004   2.943   3.014   8.634  0.6133  1.0610  0.1791
  928MOL0     H28005   2.748   3.178   8.476 -0.7524 -1.6233 -0.3002
  928MOL0     H28006   2.899   3.112   8.429 -1.4744 -3.5714  0.8713
  928MOL0     H28007   2.867   3.318   8.640 -2.4546  0.2287 -1.3413
  928MOL0     H28008   3.020   3.261   8.562 -0.9386 -1.4805  0.7815
  928MOL0     H28009   2.896   3.369   8.343  0.6782  1.7573 -0.7826
  928MOL0     H28010   2.967   3.462   8.483  0.5451 -1.1225 -0.9844
  928MOL0     H28011   2.668   3.430   8.420  1.0973 -1.6055 -1.1269
  928MOL0     H28012   2.744   3.504   8.570  0.7487  0.9351  0.1594
  928MOL0     H28013   2.796   3.537   8.185 -3.5819  0.1768 -1.0616
  928MOL0     H28014   2.738   3.889   8.080 -1.8105 -1.3011  2.0109
  928MOL0     H28015   2.801   3.731   8.023 -3.1950  1.4299 -0.5392
  928MOL0     H28016   2.935   3.987   8.101 -2.2128 -0.9147  3.7955
  928MOL0     H28017   3.015   3.856   8.168 -3.4645  4.4441  3.3040
  928MOL0     H28018   2.984   3.908   7.875 -2.2111  1.8943  1.3296
  928MOL0     H28019   3.135   3.909   7.971 -1.3381  1.3007  1.9703
  928MOL0     H28020   2.993   3.690   7.837 -1.5424  2.6895  0.2322
  928MOL0     H28021   3.165   3.728   7.875 -0.9516  3.4670  0.1247
  928MOL0     H28022   3.008   3.406   8.164 -0.3106 -0.7057  0.3577
  928MOL0     H28023   2.991   3.181   8.209  0.4575 -1.6519  1.4953
  928MOL0     H28024   3.128   3.071   8.172  0.3830  0.0051 -1.4323
  928MOL0     H28025   2.985   3.088   8.061 -3.7573  3.1036  1.4699
  928MOL0     H28026   3.619   2.969   7.897  0.0253 -0.7482  0.5638
  928MOL0     H28027   3.714   2.808   7.761  0.8790  2.8907 -1.6141
  928MOL0     H28028   3.795   2.676   7.574 -0.2481  0.5290 -1.3285
  928MOL0     H28029   3.686   2.550   7.662 -0.2676  0.4622  0.7295
  928MOL0     H28030   3.815   2.439   7.478 -0.2564  0.6203  1.7961
  928MOL0     H28031   3.651   2.447   7.440  1.5008 -2.1275  0.6129
  928MOL0     H28032   3.707   2.679   7.306  0.5400  0.2201 -1.9599
  928MOL0     H28033   3.732   2.537   7.232  0.7213 -1.2580 -0.2322
  928MOL0     H28034   3.977   2.525   7.281  0.1414  1.8210 -1.5917
  928MOL0     H28035   3.943   2.645   7.417 -1.8519 -2.1960  0.1329
  928MOL0     H28036   3.947   2.704   7.111  0.5156  1.1404  0.1850
  928MOL0     H28037   3.886   2.809   7.243  2.0573  0.0844  3.4157
  928MOL0     H28038   4.177   2.733   7.211 -0.2834  1.6207 -0.9749
  928MOL0     H28039   4.088   2.804   7.357 -1.3451  0.0208  0.5762
  928MOL0     H28040   4.038   3.011   7.194 -2.1669 -0.5441 -3.6274
  928MOL0     H28041   4.109   2.918   7.067 -1.3607 -1.0165 -0.4777
  928MOL0     H28042   4.275   3.064   7.119  0.1885  1.4863  1.4875
  928MOL0     H28043   4.335   2.912   7.197  0.7564  0.1801 -0.4317
  928MOL0     H28044   3.351   2.810   7.508 -2.2386 -0.1689  1.1896
  928MOL0     H28045   3.257   2.972   7.660 -0.9241 -2.7019  1.7924
  928MOL0     H28046   3.341   3.333   7.808  0.5351  0.2089 -0.0952
  928MOL0     H28047   3.261   3.548   7.854 -1.2530  1.9894  0.7113
  928MOL0     H28048   2.543   2.531   9.016 -0.7609  0.4363  0.8187
  928MOL0     H28049   2.379   2.338   9.013  1.2504 -0.5258 -0.3592
  928MOL0     H28050   2.016   2.179   8.765 -0.5532 -0.3518 -1.5765
  928MOL0     H28051   1.836   2.044   8.808 -2.9483 -3.2805 -2.2080
  928MOL0     H28052   1.693   1.829   8.923 -0.3740  2.5531 -0.0727
  928MOL0     H28053   1.687   1.926   8.780  0.1181  0.2298  1.2751
  928MOL0     H28054   1.491   1.803   8.751 -0.3737 -0.6368 -2.3751
  928MOL0     H28055   1.558   1.649   8.807 -2.1982 -0.9130 -0.5400
  928MOL0     H28056   1.625   1.791   8.541  3.5901 -0.3715 -0.0505
  928MOL0     H28057   1.656   1.624   8.601 -1.1737 -1.2181 -1.3763
  928MOL0     H28058   1.367   1.724   8.539  2.4609  2.0011 -0.0804
  928MOL0     H28059   1.433   1.557   8.573  1.7311 -0.0960 -0.0653
  928MOL0     H28060   1.520   1.639   8.166 -1.0495  0.7111 -0.2137
  928MOL0     H28061   2.054   1.695   8.735 -1.4469  0.0110  0.3910
  928MOL0     H28062   2.393   1.862   8.808 -1.4334 -0.7097  1.5989
  928MOL0     H28063   2.315   1.707   8.749  1.8717  0.3670 -0.5926
  928MOL0     H28064   2.357   1.821   8.636 -1.5279 -2.2992 -0.8503
  929MOL0     O28065   0.263   6.544   1.225  0.3653  0.3712 -0.3844
  929MOL0     C28066   0.276   6.484   1.330 -1.0492 -0.2819 -0.0445
  929MOL0     O28067   0.169   6.436   1.406 -0.5048  1.3023 -0.7052
  929MOL0     C28068   0.049   6.417   1.338  0.4767  0.6344  0.5817
  929MOL0     C28069  -0.025   6.529   1.299 -0.8927 -0.2946  0.4452
  929MOL0     C28070  -0.158   6.523   1.255 -0.4457  0.0767  0.1393
  929MOL0     C28071  -0.227   6.398   1.260 -0.3352  1.1565 -0.1790
  929MOL0     O28072  -0.361   6.368   1.227 -0.3671  0.1574 -0.4811
  929MOL0     C28073  -0.448   6.482   1.214 -0.6194  0.1416 -0.4269
  929MOL0     C28074  -0.591   6.439   1.165 -0.5236 -0.5825  0.1920
  929MOL0     C28075  -0.676   6.560   1.143 -0.8511 -1.0986 -0.3458
  929MOL0     C28076  -0.824   6.525   1.116 -0.9636 -1.2682  0.9960
  929MOL0     C28077  -0.907   6.664   1.127 -0.4262  0.3322  0.2111
  929MOL0     C28078  -0.936   6.700   1.270 -0.2946 -0.3757  0.4341
  929MOL0     C28079  -1.028   6.822   1.290  0.0954 -0.4326  0.2060
  929MOL0     C28080  -1.169   6.804   1.226 -0.1250  0.6072  0.7372
  929MOL0     N28081  -1.241   6.928   1.259 -1.1979  0.5420 -0.5194
  929MOL0     C28082  -1.235   7.056   1.205 -1.3150  0.0889 -0.8614
  929MOL0     C28083  -1.303   7.148   1.277  1.1233 -0.0906 -0.9348
  929MOL0     C28084  -1.306   7.303   1.274  0.0240 -0.2596 -0.1078
  929MOL0     C28085  -1.171   7.355   1.326  0.3916 -0.6251  0.1497
  929MOL0     C28086  -1.170   7.349   1.473  0.7891  0.3702 -1.0640
  929MOL0     C28087  -1.058   7.416   1.556 -0.0535 -0.1010  0.4974
  929MOL0     O28088  -1.054   7.557   1.552  0.8443  0.3932 -1.2060
  929MOL0     C28089  -0.966   7.630   1.633  0.0478  0.7221 -0.8684
  929MOL0     C28090  -0.874   7.572   1.724  0.7983 -0.0918 -0.5747
  929MOL0     C28091  -0.794   7.651   1.804 -0.0558 -0.2420  0.4619
  929MOL0     C28092  -0.694   7.588   1.896  0.3222 -0.8300 -0.0020
  929MOL0     C28093  -0.815   7.791   1.817  0.3547  0.2806 -0.1684
  929MOL0     C28094  -0.761   7.872   1.925  0.5094  0.6185 -0.4837
  929MOL0     O28095  -0.846   7.933   2.015  0.8368 -0.3320 -0.0604
  929MOL0     C28096  -0.797   7.975   2.137 -0.1456  0.5271  1.0576
  929MOL0     C28097  -0.869   7.958   2.251 -0.5454  0.0845 -0.2933
  929MOL0     C28098  -0.818   7.988   2.382  0.3178 -0.1374 -0.2660
  929MOL0     C28099  -0.691   8.058   2.392 -0.3255 -0.1798  0.1240
  929MOL0     O28100  -0.638   8.077   2.511  0.2424 -0.6496 -0.5643
  929MOL0     C28101  -0.705   8.028   2.625  0.0554 -0.3143  0.1166
  929MOL0     C28102  -0.627   8.079   2.755  0.1903  0.1579  0.7486
  929MOL0     C28103  -0.493   8.011   2.776  0.3579 -0.2117 -1.1602
  929MOL0     C28104  -0.399   8.069   2.885 -1.5987  0.1425  0.1273
  929MOL0     C28105  -0.300   8.169   2.824  0.0549  0.1833 -0.1920
  929MOL0     C28106  -0.198   8.209   2.931 -0.8515 -0.1831 -0.3248
  929MOL0     C28107  -0.149   8.343   2.874 -0.1129 -0.5954 -0.2917
  929MOL0     C28108  -0.024   8.374   2.949  0.2256 -0.3271 -1.2677
  929MOL0    Cl28109   0.065   8.515   2.876  0.0972 -0.2650  0.4142
  929MOL0     C28110  -0.627   8.086   2.275 -0.2180 -0.2273  0.0269
  929MOL0     C28111  -0.674   8.034   2.154 -0.5322 -1.0258  0.5458
  929MOL0     O28112  -0.638   7.879   1.923 -0.4344  0.4606  0.3734
  929MOL0     C28113  -0.917   7.837   1.731 -0.4820 -0.0603 -0.7310
  929MOL0     C28114  -0.980   7.770   1.632  0.1165 -0.3259  0.0507
  929MOL0     N28115  -1.356   7.075   1.379  0.1033 -0.1235 -0.4936
  929MOL0     N28116  -1.321   6.945   1.371 -0.0696 -0.4679  0.2358
  929MOL0     C28117  -0.152   6.282   1.308  0.3716 -0.1862 -0.2615
  929MOL0     C28118  -0.015   6.287   1.340  0.1031  0.3654  0.2806
  929MOL0     C28119   0.416   6.459   1.381  0.4116  0.3066  1.7169
  929MOL0     C28120   0.517   6.548   1.340  0.2676  0.2092  0.0746
  929MOL0     C28121   0.651   6.544   1.383  0.6928 -0.5813 -0.7014
  929MOL0     C28122   0.679   6.449   1.484  1.4282  0.2003 -0.3528
  929MOL0     O28123   0.800   6.432   1.532 -0.5353 -0.5228  0.3034
  929MOL0     C28124   0.903   6.531   1.510  0.0151  0.5989 -0.4962
  929MOL0     C28125   1.017   6.468   1.592 -1.0454  0.1616 -0.3150
  929MOL0     C28126   1.113   6.583   1.618 -0.1993  0.0060 -0.3551
  929MOL0     C28127   1.237   6.539   1.699  1.1625 -0.2518 -0.3424
  929MOL0     C28128   1.345   6.637   1.714 -0.1517  0.3059  0.9271
  929MOL0     C28129   1.440   6.709   1.725 -0.5849  0.1925  1.0365
  929MOL0     C28130   0.586   6.358   1.519 -0.3378 -0.9108 -0.0837
  929MOL0     C28131   0.455   6.361   1.471  0.6121 -0.3072  1.0361
  929MOL0     C28132   0.369   6.242   1.516  0.5672  0.1367  0.1844
  929MOL0     H28133   0.035   6.620   1.300  0.2748 -1.0467  1.2214
  929MOL0     H28134  -0.196   6.620   1.226  1.0237  0.2441 -1.3634
  929MOL0     H28135  -0.401   6.545   1.139 -0.3659  0.2738 -0.1552
  929MOL0     H28136  -0.458   6.522   1.315  1.4366 -3.8784  1.6242
  929MOL0     H28137  -0.583   6.390   1.068 -2.6116 -1.3794  0.3722
  929MOL0     H28138  -0.633   6.364   1.234  2.4992 -2.5620  0.0529
  929MOL0     H28139  -0.664   6.618   1.235  5.0330 -2.8470  0.4298
  929MOL0     H28140  -0.648   6.617   1.053 -2.0339 -2.8827 -1.9276
  929MOL0     H28141  -0.830   6.493   1.012 -1.3608  0.7324  0.3606
  929MOL0     H28142  -0.854   6.442   1.180  0.4614 -0.5432  2.7111
  929MOL0     H28143  -1.006   6.649   1.085 -0.7926 -1.9205  1.7018
  929MOL0     H28144  -0.852   6.741   1.072 -0.2770  0.9935  1.2570
  929MOL0     H28145  -0.987   6.619   1.323  1.0677 -1.3368  0.3397
  929MOL0     H28146  -0.841   6.713   1.322 -1.1262  1.0264  1.6629
  929MOL0     H28147  -0.983   6.915   1.255 -0.6091 -0.1364  0.0700
  929MOL0     H28148  -1.040   6.844   1.396  0.3546  2.1140 -0.2272
  929MOL0     H28149  -1.161   6.777   1.120 -2.0394 -0.0522  0.7284
  929MOL0     H28150  -1.222   6.726   1.282  1.4143 -0.4473  0.7997
  929MOL0     H28151  -1.169   7.080   1.123  2.0100  1.3644  1.9798
  929MOL0     H28152  -1.386   7.327   1.344  1.6405 -2.5949  2.7946
  929MOL0     H28153  -1.332   7.333   1.171 -1.2925 -1.9474 -0.3076
  929MOL0     H28154  -1.100   7.282   1.285  0.7196  0.2567 -0.8944
  929MOL0     H28155  -1.138   7.456   1.300  2.5359 -0.9454  1.3597
  929MOL0     H28156  -1.268   7.371   1.517  1.7152  1.6488  0.4865
  929MOL0     H28157  -1.173   7.242   1.491 -0.3985 -0.0596 -3.4177
  929MOL0     H28158  -1.066   7.374   1.657 -0.6854  0.3619  0.6478
  929MOL0     H28159  -0.963   7.382   1.515  0.0120  0.5353  0.1238
  929MOL0     H28160  -0.869   7.464   1.728  1.3345 -0.0556 -0.1232
  929MOL0     H28161  -0.719   7.482   1.898 -2.0306 -0.3588 -0.5559
  929MOL0     H28162  -0.695   7.611   2.003 -2.9350 -3.1071  0.6105
  929MOL0     H28163  -0.591   7.605   1.864 -0.7207  1.3089 -2.6420
  929MOL0     H28164  -0.966   7.911   2.254 -0.7793  0.6125  0.7799
  929MOL0     H28165  -0.884   7.958   2.462 -0.9038  2.0100 -0.3861
  929MOL0     H28166  -0.804   8.072   2.644 -0.0638 -1.8092  4.0150
  929MOL0     H28167  -0.706   7.919   2.640  0.6930 -0.0057  3.0767
  929MOL0     H28168  -0.623   8.187   2.774 -0.3582 -0.3281  4.2780
  929MOL0     H28169  -0.693   8.044   2.834 -0.6050 -1.1842 -0.4530
  929MOL0     H28170  -0.441   7.993   2.682 -0.0549  0.3156 -1.4967
  929MOL0     H28171  -0.513   7.907   2.806 -2.6473  0.7230  0.4821
  929MOL0     H28172  -0.342   7.993   2.939 -0.3351  1.9894  1.4906
  929MOL0     H28173  -0.468   8.120   2.953 -2.0457 -0.8320  0.4268
  929MOL0     H28174  -0.257   8.139   2.728 -2.9263  3.1132 -2.7260
  929MOL0     H28175  -0.360   8.256   2.795  1.6625  2.0370  1.7590
  929MOL0     H28176  -0.119   8.133   2.931  1.9770  2.5299 -2.0279
  929MOL0     H28177  -0.229   8.207   3.036  2.2844  0.1102  0.7159
  929MOL0     H28178  -0.220   8.422   2.901  2.1144  1.0370  1.1198
  929MOL0     H28179  -0.120   8.337   2.769  0.0276  1.6939 -0.4224
  929MOL0     H28180   0.038   8.284   2.958  0.0636 -0.2668  0.9516
  929MOL0     H28181  -0.051   8.402   3.051 -0.8341 -2.2665 -0.9600
  929MOL0     H28182  -0.530   8.129   2.254 -1.6606  1.2950 -4.9342
  929MOL0     H28183  -0.616   8.062   2.067 -1.6045  0.9326  0.3993
  929MOL0     H28184  -0.945   7.941   1.739  0.5863  0.4799 -3.2249
  929MOL0     H28185  -1.054   7.819   1.571 -1.9758 -0.9154  1.9598
  929MOL0     H28186  -0.205   6.188   1.320  3.8871 -1.9803  3.2385
  929MOL0     H28187   0.025   6.191   1.368  0.3450 -0.1378 -1.6517
  929MOL0     H28188   0.488   6.617   1.262  0.2836  1.7021  1.3268
  929MOL0     H28189   0.724   6.610   1.337  0.6142  0.5578  0.7210
  929MOL0     H28190   0.929   6.536   1.404 -0.3458 -0.8541 -0.6693
  929MOL0     H28191   0.873   6.631   1.543  2.2006  1.0143  0.3682
  929MOL0     H28192   1.071   6.385   1.546 -0.1536  0.3432  0.3846
  929MOL0     H28193   0.971   6.428   1.682  0.6321 -2.3464 -0.4727
  929MOL0     H28194   1.136   6.636   1.525 -1.1536  2.6846  0.8154
  929MOL0     H28195   1.050   6.655   1.671 -3.5422 -4.0807  1.8466
  929MOL0     H28196   1.276   6.444   1.662  2.7889 -0.9384  2.7476
  929MOL0     H28197   1.204   6.511   1.800 -2.9137 -0.2430 -1.4748
  929MOL0     H28198   1.522   6.772   1.753  0.1679  0.9223 -2.2825
  929MOL0     H28199   0.618   6.283   1.591  0.2711  1.1718  1.9327
  929MOL0     H28200   0.430   6.167   1.566 -0.4880 -0.0459  1.2409
  929MOL0     H28201   0.300   6.278   1.593  0.9729  0.1530  0.5447
  929MOL0     H28202   0.313   6.200   1.432 -0.8374  1.6282  0.3131
  930MOL0     O28203  10.388   0.871   6.499 -0.2370 -0.2390 -0.1881
  930MOL0     C28204  10.330   0.771   6.545  0.2523  0.6539  0.3757
  930MOL0     O28205  10.291   0.745   6.673  0.0580  0.3083  0.0649
  930MOL0     C28206  10.382   0.750   6.785 -0.0624 -0.0618 -0.3165
  930MOL0     C28207  10.483   0.853   6.813  0.7733  0.3732  0.7843
  930MOL0     C28208  10.584   0.835   6.908 -0.5724  0.1361 -0.9801
  930MOL0     C28209  10.571   0.741   7.013 -0.3287  0.4119  0.4841
  930MOL0     O28210  10.663   0.744   7.118 -0.2182 -0.0279  0.1483
  930MOL0     C28211  10.730   0.620   7.135  0.1697 -0.5908  0.6701
  930MOL0     C28212  10.860   0.664   7.215 -0.4799  0.4173 -0.6278
  930MOL0     C28213  10.952   0.554   7.270 -0.5248 -0.8169 -0.1935
  930MOL0     C28214  10.995   0.453   7.158  0.4837  0.2183 -0.1097
  930MOL0     C28215  11.133   0.385   7.202 -0.1981 -0.0628  0.5708
  930MOL0     C28216  11.132   0.329   7.346 -0.0566  0.1712 -0.3319
  930MOL0     C28217  11.245   0.243   7.383 -1.2590  0.1231 -0.2137
  930MOL0     C28218  11.267   0.217   7.534  0.7111  0.6576  0.3501
  930MOL0     N28219  11.399   0.172   7.564  0.4057  0.1783  0.2333
  930MOL0     C28220  11.460   0.068   7.505  1.1517  0.0513  0.4649
  930MOL0     C28221  11.591   0.083   7.532 -0.2116 -0.1432 -0.5902
  930MOL0     C28222  11.692  -0.005   7.469 -1.3381  0.3795 -0.1635
  930MOL0     C28223  11.771  -0.084   7.578 -0.5040  0.4822 -0.1888
  930MOL0     C28224  11.869  -0.005   7.658  0.3735 -0.3171 -0.8418
  930MOL0     C28225  11.939   0.116   7.574  0.0657 -0.2114 -0.0120
  930MOL0     O28226  12.046   0.166   7.644  0.0850 -0.7085 -0.3302
  930MOL0     C28227  12.042   0.283   7.714 -0.8325 -0.6646 -0.3374
  930MOL0     C28228  11.920   0.342   7.758 -0.2394 -0.4277  0.2271
  930MOL0     C28229  11.911   0.429   7.862  0.3618  0.1314 -0.2633
  930MOL0     C28230  11.772   0.484   7.896 -0.2150  0.9868  0.2178
  930MOL0     C28231  12.028   0.466   7.929 -0.3895  0.3501 -0.0135
  930MOL0     C28232  12.023   0.555   8.046  0.3829 -0.1462  0.5133
  930MOL0     O28233  12.102   0.508   8.146 -0.3944 -0.6959 -0.1627
  930MOL0     C28234  12.063   0.542   8.274 -0.1138  0.7350 -1.6002
  930MOL0     C28235  11.948   0.485   8.339  0.6778 -0.6717  0.5678
  930MOL0     C28236  11.915   0.496   8.475  0.0734 -0.0555  0.3690
  930MOL0     C28237  12.003   0.584   8.547 -0.1781 -0.0288 -0.8505
  930MOL0     O28238  11.990   0.629   8.676 -0.6808  0.8080  0.0010
  930MOL0     C28239  12.017   0.525   8.777  1.6047  0.4950  0.2023
  930MOL0     C28240  11.970   0.568   8.916  0.2343 -0.9248  0.1662
  930MOL0     C28241  12.039   0.692   8.975 -0.2484  0.6290  0.4497
  930MOL0     C28242  12.186   0.702   8.940 -0.1091 -0.5571 -0.4271
  930MOL0     C28243  12.258   0.832   8.984 -0.5374 -0.0022 -0.0416
  930MOL0     C28244  12.408   0.837   8.966  0.6131  0.1716  0.3944
  930MOL0     C28245  12.453   0.873   8.834  1.2031 -0.2598 -0.3056
  930MOL0     C28246  12.605   0.882   8.816 -0.5335  0.1560  0.0761
  930MOL0    Cl28247  12.690   1.013   8.916 -0.7666 -0.0082 -0.6387
  930MOL0     C28248  12.109   0.645   8.480  0.6160  0.1011 -0.6109
  930MOL0     C28249  12.139   0.632   8.346 -0.4090  0.3400  0.1408
  930MOL0     O28250  11.944   0.655   8.043 -1.0594  0.3943  0.1306
  930MOL0     C28251  12.153   0.415   7.883  0.8200 -0.0291  0.2929
  930MOL0     C28252  12.164   0.326   7.773  0.1788  0.2749 -0.0269
  930MOL0     N28253  11.602   0.179   7.629 -0.0648 -0.0432 -0.1009
  930MOL0     N28254  11.492   0.238   7.642 -0.7430 -0.7242 -0.1992
  930MOL0     C28255  10.454   0.655   7.004 -0.8133 -0.1248 -0.0904
  930MOL0     C28256  10.375   0.648   6.888 -0.7748 -0.9187 -0.2069
  930MOL0     C28257  10.264   0.678   6.437 -0.2548 -0.0574  0.4219
  930MOL0     C28258  10.343   0.639   6.323  1.1664  0.5309 -1.0619
  930MOL0     C28259  10.293   0.564   6.219 -0.7267 -0.3071 -0.0705
  930MOL0     C28260  10.153   0.533   6.217 -0.3165  0.0698 -0.2141
  930MOL0     O28261  10.094   0.468   6.114  0.6821 -0.6534 -0.0056
  930MOL0     C28262  10.175   0.442   5.993  0.2895  0.5662 -0.4753
  930MOL0     C28263  10.097   0.389   5.873 -0.5797 -0.3029 -0.2855
  930MOL0     C28264   9.998   0.273   5.895 -0.8311  0.3765 -0.0707
  930MOL0     C28265  10.065   0.139   5.930  0.0100 -0.1218 -0.0648
  930MOL0     C28266   9.967   0.026   5.920  0.4545  0.2377  0.1367
  930MOL0     C28267   9.901  -0.077   5.918  0.0306 -0.3823  0.5738
  930MOL0     C28268  10.070   0.568   6.324  0.4020  0.3983  0.5711
  930MOL0     C28269  10.127   0.641   6.437  0.5998 -0.6516  0.1859
  930MOL0     C28270  10.036   0.674   6.554  0.7858  0.1256 -0.2169
  930MOL0     H28271  10.482   0.935   6.742  0.8074  1.5681  2.1148
  930MOL0     H28272  10.674   0.894   6.922 -0.8771  0.5774 -0.8656
  930MOL0     H28273  10.754   0.575   7.039 -1.6413 -2.6478  1.0966
  930MOL0     H28274  10.662   0.551   7.185  0.6823 -2.1998 -0.7737
  930MOL0     H28275  10.912   0.730   7.146  0.0551 -2.8494 -3.6754
  930MOL0     H28276  10.832   0.723   7.302 -0.5164  1.8542 -1.5896
  930MOL0     H28277  11.036   0.611   7.309 -1.9765  0.9433  0.5149
  930MOL0     H28278  10.912   0.503   7.358  1.0604 -0.5117  0.7297
  930MOL0     H28279  10.921   0.373   7.148  0.0217  0.6824 -0.4709
  930MOL0     H28280  11.020   0.502   7.063  1.8200  0.5053  0.3606
  930MOL0     H28281  11.204   0.468   7.214 -1.4379  0.9468  1.2107
  930MOL0     H28282  11.164   0.308   7.131  0.3637  0.2466  0.4699
  930MOL0     H28283  11.129   0.408   7.421  1.4721 -0.7451  0.7599
  930MOL0     H28284  11.045   0.265   7.362  1.6781 -2.0392  0.9273
  930MOL0     H28285  11.334   0.291   7.341  1.1991 -0.4269  3.7561
  930MOL0     H28286  11.242   0.155   7.319 -2.7900  0.7986 -1.1344
  930MOL0     H28287  11.250   0.306   7.596  1.5945  0.7389  0.4930
  930MOL0     H28288  11.201   0.140   7.577  0.6671  1.9873  2.8775
  930MOL0     H28289  11.416  -0.002   7.435  0.3379  1.0730 -0.0619
  930MOL0     H28290  11.770   0.048   7.414  0.9463 -0.3345  2.1986
  930MOL0     H28291  11.642  -0.078   7.405 -3.2535 -1.2631  2.9445
  930MOL0     H28292  11.700  -0.145   7.634  0.3322 -1.2841 -0.9481
  930MOL0     H28293  11.825  -0.161   7.521 -1.4831  0.5096 -1.1884
  930MOL0     H28294  11.807   0.037   7.737 -1.1005  1.9037 -3.0357
  930MOL0     H28295  11.933  -0.065   7.723 -2.0341  2.5786  4.8520
  930MOL0     H28296  11.985   0.059   7.493 -0.4278  0.4978 -0.7947
  930MOL0     H28297  11.863   0.185   7.538  3.2539  2.9368 -1.2691
  930MOL0     H28298  11.828   0.305   7.713 -0.4822 -0.5544  0.8097
  930MOL0     H28299  11.758   0.584   7.853 -0.4837  1.8879  2.3180
  930MOL0     H28300  11.759   0.491   8.004  1.7457 -3.2493  0.9212
  930MOL0     H28301  11.692   0.415   7.867 -0.7385  0.8117  1.9854
  930MOL0     H28302  11.886   0.417   8.281 -2.3751  4.2307 -2.6710
  930MOL0     H28303  11.832   0.448   8.525  0.6313 -0.7032  0.7001
  930MOL0     H28304  11.967   0.431   8.751 -0.4441  0.7254  2.8741
  930MOL0     H28305  12.124   0.505   8.778  1.5893  0.1180 -1.9402
  930MOL0     H28306  11.863   0.588   8.912  0.5677  0.9272 -0.0024
  930MOL0     H28307  11.991   0.487   8.987  1.3268 -0.2436  0.6478
  930MOL0     H28308  12.032   0.683   9.084 -1.6155 -1.0246  0.2566
  930MOL0     H28309  11.985   0.778   8.935  1.4905 -0.5046 -5.1319
  930MOL0     H28310  12.196   0.693   8.831  0.3556 -1.5012 -0.3212
  930MOL0     H28311  12.230   0.616   8.991 -2.7086 -1.1160  1.0324
  930MOL0     H28312  12.216   0.922   8.939 -0.6637 -0.6260 -1.2027
  930MOL0     H28313  12.240   0.833   9.092  1.2965  0.9981  0.2995
  930MOL0     H28314  12.459   0.742   8.990  0.8050 -0.3072 -1.7092
  930MOL0     H28315  12.436   0.919   9.032  0.5885  1.9422 -1.6976
  930MOL0     H28316  12.413   0.969   8.798 -0.6772 -1.0016 -0.2831
  930MOL0     H28317  12.421   0.803   8.757 -1.7032  3.1093 -2.5115
  930MOL0     H28318  12.639   0.907   8.715 -0.1211  0.4314  0.2825
  930MOL0     H28319  12.653   0.786   8.836  0.9694  0.8098 -0.2229
  930MOL0     H28320  12.177   0.706   8.540  0.4922 -1.9718  1.7797
  930MOL0     H28321  12.227   0.681   8.307  2.4192 -2.7743  2.0370
  930MOL0     H28322  12.244   0.450   7.930  1.1322  0.7661 -0.8729
  930MOL0     H28323  12.255   0.274   7.745  0.5176 -0.1166  1.6347
  930MOL0     H28324  10.430   0.580   7.079 -1.1714  1.3191  1.2990
  930MOL0     H28325  10.303   0.570   6.908  0.5037 -2.7801 -2.3446
  930MOL0     H28326  10.447   0.668   6.332  1.4492 -0.7938  0.6319
  930MOL0     H28327  10.369   0.544   6.144 -0.7580 -0.6047 -0.0243
  930MOL0     H28328  10.232   0.524   5.948  1.0563  0.3049 -0.0031
  930MOL0     H28329  10.259   0.379   6.024 -1.8717 -2.0219  0.4564
  930MOL0     H28330  10.149   0.381   5.776 -1.2035 -0.9415 -0.5784
  930MOL0     H28331  10.031   0.474   5.856 -1.7214  0.2476  5.1300
  930MOL0     H28332   9.931   0.301   5.978 -0.3636 -1.4313  0.9851
  930MOL0     H28333   9.935   0.251   5.808  1.0043 -1.8222 -0.9148
  930MOL0     H28334  10.122   0.140   6.024  1.8799 -0.1847 -1.1602
  930MOL0     H28335  10.142   0.111   5.858 -0.1411 -0.0872 -0.2381
  930MOL0     H28336   9.837  -0.162   5.915 -1.6579  0.8288  0.8406
  930MOL0     H28337   9.967   0.541   6.342  0.7296  0.0482  2.1164
  930MOL0     H28338   9.933   0.671   6.515  0.4146 -2.6643  0.7969
  930MOL0     H28339  10.045   0.601   6.634  2.6356 -0.3970 -0.8511
  930MOL0     H28340  10.060   0.775   6.588  2.8896 -0.2058 -0.5865
  931MOL0     O28341   9.487  10.046   8.571  0.4933  1.0769 -0.2418
  931MOL0     C28342   9.381  10.093   8.527 -0.0602  0.1338 -0.1346
  931MOL0     O28343   9.312  10.044   8.414 -0.5841 -0.2361 -0.1561
  931MOL0     C28344   9.189  10.086   8.360  0.3587  0.6588 -0.1199
  931MOL0     C28345   9.202  10.181   8.256  0.2142  0.3619  0.0106
  931MOL0     C28346   9.083  10.242   8.223  1.3936 -0.0604  1.0976
  931MOL0     C28347   8.957  10.211   8.282 -0.1134 -0.7692 -0.9138
  931MOL0     O28348   8.854  10.291   8.248  0.9714 -0.8501  0.2570
  931MOL0     C28349   8.750  10.326   8.340 -0.7029  0.5068  0.3639
  931MOL0     C28350   8.674  10.462   8.319  0.0705 -0.7809 -0.0958
  931MOL0     C28351   8.758  10.582   8.268  0.2886  0.4780  1.0069
  931MOL0     C28352   8.741  10.581   8.121  0.3796 -0.2472 -1.2813
  931MOL0     C28353   8.840  10.681   8.051 -0.6584 -0.3797  0.0995
  931MOL0     C28354   8.989  10.654   8.050  0.4573  0.2069 -1.9372
  931MOL0     C28355   9.073  10.723   7.945  1.0924  0.5029  0.8323
  931MOL0     C28356   9.213  10.648   7.928 -0.8260 -1.0175  0.7140
  931MOL0     N28357   9.287  10.628   8.059  1.1840  0.2705 -0.2220
  931MOL0     C28358   9.334  10.730   8.131 -0.4518 -1.4264 -0.6716
  931MOL0     C28359   9.374  10.672   8.251 -2.0832 -0.2676 -0.5907
  931MOL0     C28360   9.424  10.757   8.359 -0.7519 -0.1174  0.5134
  931MOL0     C28361   9.325  10.869   8.388 -0.4759  0.3542  0.7009
  931MOL0     C28362   9.338  10.916   8.530  0.7552 -0.1704 -0.0894
  931MOL0     C28363   9.215  11.004   8.582 -0.4385  0.3784 -0.4929
  931MOL0     O28364   9.222  11.132   8.530  0.4660  0.3842 -0.1359
  931MOL0     C28365   9.107  11.207   8.547 -0.1098  0.1146 -0.6637
  931MOL0     C28366   9.057  11.271   8.436 -0.7978 -0.3305 -0.1937
  931MOL0     C28367   8.956  11.364   8.447  0.7952  0.3022  0.3207
  931MOL0     C28368   8.904  11.422   8.324  0.3818 -0.6660 -0.8637
  931MOL0     C28369   8.908  11.407   8.580 -0.4326 -0.3472 -0.1382
  931MOL0     C28370   8.813  11.515   8.615  0.4323  0.1835 -0.1113
  931MOL0     O28371   8.752  11.510   8.732 -0.3694 -0.2483 -0.3852
  931MOL0     C28372   8.658  11.604   8.775 -0.7455  0.5303 -0.6186
  931MOL0     C28373   8.650  11.741   8.735  0.9070 -0.2511 -0.2896
  931MOL0     C28374   8.556  11.833   8.791  0.3702  0.0233 -0.4685
  931MOL0     C28375   8.459  11.789   8.875 -0.0977 -1.3717  0.4213
  931MOL0     O28376   8.377  11.892   8.915  0.0612 -0.2573 -0.0936
  931MOL0     C28377   8.236  11.870   8.934 -1.0363  0.4941  0.6395
  931MOL0     C28378   8.158  12.003   8.919  0.1483  0.5782  0.7503
  931MOL0     C28379   8.168  12.083   8.790 -0.0892 -0.6020  0.4294
  931MOL0     C28380   8.151  12.000   8.660 -0.3589 -0.1934 -1.3009
  931MOL0     C28381   8.135  12.085   8.535  0.1359  0.0247 -1.0122
  931MOL0     C28382   8.151  11.988   8.418 -0.4558  0.3922 -0.6758
  931MOL0     C28383   8.147  12.065   8.277 -0.3344 -0.7856  0.3358
  931MOL0     C28384   8.020  12.153   8.257 -0.3096 -0.5317  0.2802
  931MOL0    Cl28385   8.022  12.258   8.106  0.0144 -0.2335  0.5638
  931MOL0     C28386   8.456  11.660   8.911 -0.5452 -0.4934  0.2547
  931MOL0     C28387   8.551  11.561   8.860  0.3985 -0.0638  0.2429
  931MOL0     O28388   8.785  11.604   8.532  0.1586  0.0712 -0.3474
  931MOL0     C28389   8.953  11.324   8.683 -0.2185 -0.0081 -0.0151
  931MOL0     C28390   9.049  11.232   8.665 -1.1643 -0.5245 -0.6663
  931MOL0     N28391   9.354  10.535   8.240  0.3839  0.9987  0.1691
  931MOL0     N28392   9.296  10.518   8.125  0.4625  0.3736  0.0460
  931MOL0     C28393   8.944  10.102   8.377  0.2025 -0.4496 -1.1328
  931MOL0     C28394   9.066  10.043   8.417 -0.0441 -0.7308 -0.2862
  931MOL0     C28395   9.337  10.218   8.600  0.0624  0.0952 -0.6180
  931MOL0     C28396   9.318  10.341   8.540 -0.4104 -0.5008 -0.2222
  931MOL0     C28397   9.271  10.458   8.605  0.6017 -0.5777 -0.5837
  931MOL0     C28398   9.250  10.455   8.742 -0.5048 -0.4535 -0.5421
  931MOL0     O28399   9.212  10.573   8.790 -0.1167 -0.0732  0.4001
  931MOL0     C28400   9.261  10.596   8.924  0.1091 -0.7011  0.0737
  931MOL0     C28401   9.245  10.752   8.944 -0.0703 -0.1979  0.1183
  931MOL0     C28402   9.112  10.793   8.995 -0.3187 -0.2645  0.5578
  931MOL0     C28403   9.107  10.939   9.060  0.4480  0.0245  0.1915
  931MOL0     C28404   8.964  10.987   9.057 -0.8314  0.0310 -0.2815
  931MOL0     C28405   8.852  11.027   9.049 -0.2767  0.2955 -0.8650
  931MOL0     C28406   9.281  10.336   8.810  1.5328 -0.2034  0.4430
  931MOL0     C28407   9.319  10.224   8.740  0.6652  0.8398 -0.9190
  931MOL0     C28408   9.338  10.096   8.823 -0.1076 -0.1742 -1.1935
  931MOL0     H28409   9.297  10.211   8.214 -0.5448 -0.4348 -2.4337
  931MOL0     H28410   9.080  10.315   8.142 -2.2943 -4.1264 -3.0590
  931MOL0     H28411   8.808  10.347   8.431  1.4121 -0.0811 -0.7791
  931MOL0     H28412   8.679  10.244   8.352 -1.5567  1.3862  1.6195
  931MOL0     H28413   8.582  10.457   8.260 -0.9359  0.3139  1.3264
  931MOL0     H28414   8.638  10.483   8.420  0.5113  1.9141 -0.4163
  931MOL0     H28415   8.724  10.675   8.315  0.6039  0.0846  2.0241
  931MOL0     H28416   8.860  10.570   8.305 -0.5229 -1.4570  2.7836
  931MOL0     H28417   8.769  10.479   8.095  0.8316 -1.1898  2.4338
  931MOL0     H28418   8.637  10.598   8.091 -0.5484 -0.9385  1.3096
  931MOL0     H28419   8.801  10.777   8.085 -2.2126 -0.3082 -1.7435
  931MOL0     H28420   8.813  10.666   7.946 -0.7678  0.9546 -0.0750
  931MOL0     H28421   9.021  10.687   8.149  1.0604  1.4553 -2.5259
  931MOL0     H28422   8.989  10.545   8.043 -2.9739 -0.0257 -0.3081
  931MOL0     H28423   9.069  10.829   7.972 -1.9110  1.1099 -1.4438
  931MOL0     H28424   9.019  10.718   7.850 -2.7805  0.1109  2.8349
  931MOL0     H28425   9.193  10.555   7.874 -0.5631  0.6329 -2.4478
  931MOL0     H28426   9.280  10.707   7.865 -2.0665  1.0354  1.2329
  931MOL0     H28427   9.337  10.837   8.116 -0.0627 -1.4000 -0.4324
  931MOL0     H28428   9.521  10.794   8.324 -0.5093 -1.5293 -0.3798
  931MOL0     H28429   9.452  10.707   8.453  1.6641 -2.0173 -1.0942
  931MOL0     H28430   9.334  10.943   8.308  0.9597 -0.0930  0.4261
  931MOL0     H28431   9.223  10.828   8.380 -0.3461  0.0696  0.5006
  931MOL0     H28432   9.347  10.828   8.594  0.1048  1.7238  2.8214
  931MOL0     H28433   9.430  10.975   8.531  1.6266 -1.4028 -2.1721
  931MOL0     H28434   9.123  10.956   8.546  1.8395 -2.4616 -3.1062
  931MOL0     H28435   9.227  11.006   8.690  2.1367 -3.0521 -0.5488
  931MOL0     H28436   9.109  11.246   8.344 -1.5335 -1.3182 -0.3580
  931MOL0     H28437   8.963  11.512   8.303  0.4804 -1.2883 -3.6095
  931MOL0     H28438   8.796  11.439   8.333  0.9389  2.3020  2.2507
  931MOL0     H28439   8.925  11.352   8.242 -5.9035 -1.6786 -2.0931
  931MOL0     H28440   8.722  11.778   8.663  4.3983 -7.0334 -1.1060
  931MOL0     H28441   8.561  11.940   8.774 -1.6088  0.0216 -1.3127
  931MOL0     H28442   8.201  11.789   8.869  3.3983 -0.6695 -0.6252
  931MOL0     H28443   8.227  11.840   9.038 -2.3105  0.9534  0.6848
  931MOL0     H28444   8.052  11.980   8.935 -0.1863  1.6737  0.1784
  931MOL0     H28445   8.188  12.066   9.003 -2.5816  2.1666  0.6751
  931MOL0     H28446   8.269  12.123   8.780 -1.0020  1.3344 -1.7045
  931MOL0     H28447   8.101  12.168   8.804  1.7634  1.3435 -1.8538
  931MOL0     H28448   8.061  11.940   8.680 -0.2759 -0.3250 -1.3188
  931MOL0     H28449   8.242  11.939   8.658 -1.2271 -1.6540  0.4058
  931MOL0     H28450   8.038  12.133   8.546  0.5174  0.3263  1.9295
  931MOL0     H28451   8.220  12.154   8.528  2.1855 -1.8976  1.9064
  931MOL0     H28452   8.082  11.904   8.425 -0.4305  0.5314  2.6287
  931MOL0     H28453   8.255  11.953   8.423 -0.1144  1.5252  1.6277
  931MOL0     H28454   8.153  12.005   8.186  1.8745  0.6395 -0.5309
  931MOL0     H28455   8.227  12.140   8.268 -0.1956 -1.1418 -2.0046
  931MOL0     H28456   8.015  12.220   8.344  3.0285 -3.1350  2.7750
  931MOL0     H28457   7.929  12.092   8.259  0.3885 -1.6263 -0.5009
  931MOL0     H28458   8.389  11.625   8.989 -1.1293 -2.3406 -1.0126
  931MOL0     H28459   8.532  11.459   8.892 -2.1960 -0.2166 -1.4900
  931MOL0     H28460   8.913  11.335   8.784 -0.5374  2.1612 -0.3227
  931MOL0     H28461   9.084  11.183   8.755 -2.5684  1.6239  1.1688
  931MOL0     H28462   8.851  10.066   8.422  1.4657 -1.1584  1.0540
  931MOL0     H28463   9.075   9.968   8.495  0.1707 -0.6600 -0.2424
  931MOL0     H28464   9.333  10.357   8.434 -1.9388  1.7372 -0.1666
  931MOL0     H28465   9.260  10.546   8.542 -0.2079 -0.1719  0.1050
  931MOL0     H28466   9.226  10.532   9.006 -4.6044  2.2550  0.7411
  931MOL0     H28467   9.369  10.577   8.919  0.1445 -0.6513  0.6258
  931MOL0     H28468   9.262  10.811   8.853 -0.5380  1.7497  1.2197
  931MOL0     H28469   9.319  10.781   9.019  0.1003 -0.0505 -0.1040
  931MOL0     H28470   9.041  10.790   8.912  2.7325 -6.9751 -2.6090
  931MOL0     H28471   9.080  10.710   9.059 -1.4079 -0.8814 -0.7268
  931MOL0     H28472   9.162  11.006   8.993 -1.1508  0.8685 -0.3357
  931MOL0     H28473   9.148  10.937   9.162  0.2860 -0.6559  0.2479
  931MOL0     H28474   8.749  11.057   9.039 -0.7481 -0.4427  1.1827
  931MOL0     H28475   9.252  10.322   8.914 -0.3302 -0.9190 -0.1312
  931MOL0     H28476   9.267  10.102   8.906  1.9630  2.3906  0.5864
  931MOL0     H28477   9.320  10.009   8.760 -0.2256  0.2660 -1.7675
  931MOL0     H28478   9.440  10.093   8.863 -1.5497 -0.9508  3.0010
  932MOL0     O28479   2.298   7.471   0.352  0.0329  0.5661  0.9029
  932MOL0     C28480   2.304   7.469   0.472 -0.1140 -0.3078  0.7443
  932MOL0     O28481   2.300   7.582   0.557  0.1989  0.4022 -0.6595
  932MOL0     C28482   2.282   7.719   0.533  0.4481  0.0890 -0.1182
  932MOL0     C28483   2.287   7.809   0.645 -0.2317  0.4764 -0.7431
  932MOL0     C28484   2.306   7.950   0.623  0.3934  1.1847 -0.6520
  932MOL0     C28485   2.309   8.005   0.490 -0.0798 -0.2043  0.4527
  932MOL0     O28486   2.325   8.140   0.457  0.7908 -0.3320 -0.2293
  932MOL0     C28487   2.348   8.233   0.556 -0.2484  0.1602 -0.2899
  932MOL0     C28488   2.385   8.355   0.482 -0.0619 -0.0785  0.1015
  932MOL0     C28489   2.463   8.459   0.574 -0.0522  0.0960  0.4621
  932MOL0     C28490   2.612   8.428   0.609  0.4260 -0.4877  0.2720
  932MOL0     C28491   2.684   8.402   0.481 -0.5326 -0.8771 -0.4520
  932MOL0     C28492   2.838   8.382   0.504  1.0433 -0.2261  0.0860
  932MOL0     C28493   2.861   8.247   0.580  0.1885 -0.9230  0.0105
  932MOL0     C28494   3.013   8.226   0.577 -0.2575  0.0065  0.5098
  932MOL0     N28495   3.075   8.141   0.678  0.1770  0.1983 -1.2395
  932MOL0     C28496   3.047   8.129   0.812  0.5142 -0.4632  0.4702
  932MOL0     C28497   3.145   8.057   0.865  0.5059  0.4291 -0.5452
  932MOL0     C28498   3.148   8.020   1.007 -0.9415 -0.8567  0.7479
  932MOL0     C28499   3.038   7.929   1.043  0.0197  0.2969  0.5839
  932MOL0     C28500   3.036   7.923   1.197  0.0280  0.5721 -0.3654
  932MOL0     C28501   2.940   7.815   1.247  0.7632 -0.1024  0.3259
  932MOL0     O28502   2.966   7.805   1.393  0.0561 -0.1494 -0.0610
  932MOL0     C28503   2.893   7.716   1.463 -0.8471 -0.4261  0.0830
  932MOL0     C28504   2.921   7.578   1.445 -1.3173  0.2464  0.2901
  932MOL0     C28505   2.843   7.476   1.502 -0.0366  0.8839  0.5015
  932MOL0     C28506   2.876   7.331   1.463 -0.4771  0.3196 -0.2456
  932MOL0     C28507   2.725   7.514   1.571 -0.0001  1.1727  0.5646
  932MOL0     C28508   2.626   7.425   1.629 -0.7326  0.6414 -0.2144
  932MOL0     O28509   2.503   7.478   1.655  1.1615  0.3120 -0.0060
  932MOL0     C28510   2.400   7.389   1.678  0.1509 -0.9997 -0.3324
  932MOL0     C28511   2.329   7.332   1.566  0.8089 -0.1835 -0.2514
  932MOL0     C28512   2.237   7.227   1.592 -0.6335  0.8872  1.1597
  932MOL0     C28513   2.182   7.214   1.727  0.0210  0.1776 -1.0160
  932MOL0     O28514   2.086   7.125   1.764 -1.2869  0.0979 -0.3696
  932MOL0     C28515   2.022   7.046   1.674  0.0472 -0.6603 -0.1064
  932MOL0     C28516   1.944   6.937   1.756 -0.0606 -0.6369 -0.2252
  932MOL0     C28517   1.893   6.988   1.896 -0.0157 -0.5222 -0.0545
  932MOL0     C28518   1.840   6.876   1.982  0.5665 -0.2781  0.3380
  932MOL0     C28519   1.692   6.855   1.972  0.1184 -1.0387  0.0706
  932MOL0     C28520   1.625   6.763   2.071  0.1429  0.7436 -0.4718
  932MOL0     C28521   1.641   6.789   2.224 -0.2947  0.2715 -0.5870
  932MOL0     C28522   1.618   6.933   2.269  0.0404 -0.2936 -0.4905
  932MOL0    Cl28523   1.595   6.916   2.453 -0.1651  0.2256 -0.2096
  932MOL0     C28524   2.231   7.292   1.826 -1.2457 -0.2037  0.1779
  932MOL0     C28525   2.343   7.375   1.808 -0.3277  0.7358 -0.3107
  932MOL0     O28526   2.655   7.311   1.646 -0.3076 -0.5551 -0.3485
  932MOL0     C28527   2.712   7.662   1.602  0.1698 -0.7246  0.8843
  932MOL0     C28528   2.787   7.762   1.545 -0.2523 -0.3972 -0.3313
  932MOL0     N28529   3.241   8.054   0.767 -0.2449 -0.0394  0.7523
  932MOL0     N28530   3.201   8.101   0.652  0.3613 -0.2995 -0.6897
  932MOL0     C28531   2.293   7.923   0.386  0.9640  0.6963  0.4848
  932MOL0     C28532   2.285   7.779   0.406 -0.3004  0.8346  0.6854
  932MOL0     C28533   2.315   7.339   0.532  0.1161 -0.4488 -0.1706
  932MOL0     C28534   2.272   7.343   0.675  0.9246 -0.2009  0.4588
  932MOL0     C28535   2.271   7.221   0.748 -0.3826  0.8010  0.5567
  932MOL0     C28536   2.316   7.108   0.675 -0.4516 -0.2580  0.3015
  932MOL0     O28537   2.333   6.995   0.741  0.7807  0.5454  0.3168
  932MOL0     C28538   2.322   6.975   0.878  0.2322 -0.5465  0.2137
  932MOL0     C28539   2.177   6.950   0.934  0.3109 -0.6734  0.1817
  932MOL0     C28540   2.098   6.850   0.856  0.3191 -0.2058  0.6191
  932MOL0     C28541   1.962   6.821   0.917  0.8761 -0.0390 -0.4666
  932MOL0     C28542   1.893   6.730   0.829 -0.2143  0.0716  0.4042
  932MOL0     C28543   1.845   6.649   0.751  0.6208  0.1218  0.2882
  932MOL0     C28544   2.357   7.111   0.546  0.3910 -1.0864 -0.5603
  932MOL0     C28545   2.352   7.215   0.465  0.0863 -0.4750 -0.4359
  932MOL0     C28546   2.397   7.209   0.318 -0.0343 -1.3330 -1.2074
  932MOL0     H28547   2.274   7.775   0.747  0.3368  1.7058 -0.2347
  932MOL0     H28548   2.323   8.015   0.708  0.5028 -0.3713  0.5596
  932MOL0     H28549   2.436   8.217   0.619 -0.3375  3.4210  0.8669
  932MOL0     H28550   2.263   8.259   0.620 -0.9946  1.5602 -1.7886
  932MOL0     H28551   2.441   8.319   0.395 -1.5574 -2.1283 -0.0857
  932MOL0     H28552   2.307   8.422   0.447 -0.0933  1.1515  2.3728
  932MOL0     H28553   2.461   8.555   0.521  5.4641  0.4356  0.2656
  932MOL0     H28554   2.402   8.478   0.663 -1.1026  4.6507 -0.9972
  932MOL0     H28555   2.658   8.517   0.651  0.4838 -0.9232  1.1557
  932MOL0     H28556   2.622   8.355   0.690  1.2315 -0.1957  0.4413
  932MOL0     H28557   2.669   8.485   0.411  5.0729  0.3385 -0.7610
  932MOL0     H28558   2.647   8.314   0.427  0.6808  0.2330 -3.3296
  932MOL0     H28559   2.891   8.382   0.409  0.6540  2.3906 -0.2000
  932MOL0     H28560   2.885   8.466   0.557  0.4891 -1.2971  2.4391
  932MOL0     H28561   2.800   8.171   0.530  1.1466 -2.5708  1.2700
  932MOL0     H28562   2.827   8.259   0.683 -2.2385  1.1798 -0.9155
  932MOL0     H28563   3.045   8.188   0.480 -2.4527  3.7540 -1.9382
  932MOL0     H28564   3.067   8.321   0.586  0.9094 -0.6496  0.6294
  932MOL0     H28565   2.957   8.162   0.864 -0.3374 -3.8375  1.4154
  932MOL0     H28566   3.150   8.108   1.071 -2.1332  0.8384 -1.3916
  932MOL0     H28567   3.235   7.958   1.030 -0.3524  0.5378  2.4656
  932MOL0     H28568   2.946   7.977   1.008  1.5552  2.7009 -0.4403
  932MOL0     H28569   3.038   7.828   1.000  1.9509  0.3415  0.3513
  932MOL0     H28570   3.139   7.902   1.228 -0.0264  2.3867  1.2261
  932MOL0     H28571   3.018   8.025   1.234 -2.7062 -0.1425  0.5008
  932MOL0     H28572   2.837   7.846   1.224  1.2493  1.2767 -0.0957
  932MOL0     H28573   2.958   7.718   1.199 -0.1865 -0.0590 -0.1489
  932MOL0     H28574   3.006   7.557   1.381 -1.3075  3.1484 -0.8067
  932MOL0     H28575   2.904   7.269   1.548 -0.7593 -0.9473 -1.0577
  932MOL0     H28576   2.955   7.324   1.388  0.1144  2.5891  0.0782
  932MOL0     H28577   2.784   7.293   1.418 -0.7239  1.3194 -0.6156
  932MOL0     H28578   2.360   7.350   1.463  0.4013 -2.5747 -0.8398
  932MOL0     H28579   2.231   7.148   1.517  0.0444 -1.4214  3.3816
  932MOL0     H28580   1.966   7.099   1.596  0.5493  1.7282  1.0715
  932MOL0     H28581   2.104   6.993   1.626 -0.5265 -0.9715 -0.7686
  932MOL0     H28582   1.862   6.893   1.699 -0.1291 -0.9163  0.0836
  932MOL0     H28583   2.020   6.862   1.782  1.2264  1.1217  1.4093
  932MOL0     H28584   1.812   7.058   1.875  0.1092 -0.8507 -1.7348
  932MOL0     H28585   1.966   7.042   1.956 -0.9742  0.5893  0.1477
  932MOL0     H28586   1.855   6.901   2.087  0.7955  2.8103 -0.3380
  932MOL0     H28587   1.898   6.785   1.963  0.7693 -0.4065  1.4893
  932MOL0     H28588   1.636   6.949   1.974  1.4402 -0.2284  0.6172
  932MOL0     H28589   1.676   6.814   1.872 -2.3042  0.6935 -0.3277
  932MOL0     H28590   1.663   6.664   2.043  0.1054 -0.5715  3.4390
  932MOL0     H28591   1.521   6.764   2.038  0.5669  1.1181 -1.8717
  932MOL0     H28592   1.743   6.769   2.258  0.1191 -0.1140 -1.9777
  932MOL0     H28593   1.573   6.721   2.275  1.9013 -0.8433  0.9736
  932MOL0     H28594   1.531   6.968   2.212 -0.7721 -3.1208 -1.1513
  932MOL0     H28595   1.705   6.997   2.256 -0.2751 -0.3036 -3.3191
  932MOL0     H28596   2.188   7.292   1.926  0.6727  2.1199  1.1234
  932MOL0     H28597   2.382   7.423   1.898  1.9833  2.5084 -2.1401
  932MOL0     H28598   2.636   7.695   1.672  1.7394 -0.4208  2.5133
  932MOL0     H28599   2.750   7.864   1.543  1.2292  0.1571 -1.8118
  932MOL0     H28600   2.281   7.972   0.290 -0.6832  0.0822  0.3355
  932MOL0     H28601   2.262   7.712   0.323 -0.1294  2.6314 -0.8923
  932MOL0     H28602   2.241   7.441   0.710 -0.1744 -0.0431 -0.8392
  932MOL0     H28603   2.241   7.218   0.852  0.2116 -1.0704  0.7108
  932MOL0     H28604   2.378   6.884   0.904 -1.0170 -2.1252 -2.2069
  932MOL0     H28605   2.360   7.066   0.924 -3.9826  1.3240  0.3864
  932MOL0     H28606   2.118   7.042   0.924  1.8348  0.0974 -2.7364
  932MOL0     H28607   2.187   6.920   1.038  1.3940 -1.5920 -0.1662
  932MOL0     H28608   2.084   6.888   0.754 -1.1720 -0.0952  0.8452
  932MOL0     H28609   2.152   6.755   0.851 -0.9930 -0.9986  1.1789
  932MOL0     H28610   1.900   6.910   0.933 -2.2343 -2.1340  0.1599
  932MOL0     H28611   1.970   6.769   1.013 -0.0140 -0.1256 -0.4278
  932MOL0     H28612   1.788   6.591   0.681 -1.1947  1.9113  0.1939
  932MOL0     H28613   2.386   7.016   0.503  0.2447 -2.6193  2.4992
  932MOL0     H28614   2.476   7.134   0.307  4.5435  2.5495  1.4909
  932MOL0     H28615   2.309   7.198   0.255 -1.7611 -1.6214  1.1072
  932MOL0     H28616   2.453   7.300   0.295  0.8660 -0.9996  1.7923
  933MOL0     O28617  11.010   2.922   4.368  0.2277  0.3324 -0.2182
  933MOL0     C28618  10.967   2.983   4.468 -0.3326  0.7822 -0.5718
  933MOL0     O28619  11.041   3.087   4.539  0.7138 -0.6741  1.1284
  933MOL0     C28620  11.172   3.116   4.490  0.1411  0.2140 -0.1225
  933MOL0     C28621  11.207   3.251   4.467 -0.3035  0.5448 -0.3992
  933MOL0     C28622  11.337   3.285   4.421  0.4032 -0.3108 -0.5945
  933MOL0     C28623  11.427   3.182   4.398 -0.4186 -0.5937  0.0551
  933MOL0     O28624  11.556   3.206   4.356  0.5393 -0.0905 -0.6712
  933MOL0     C28625  11.562   3.278   4.236  0.4038 -0.8645  0.0665
  933MOL0     C28626  11.693   3.351   4.223 -0.1259  0.3011  1.0835
  933MOL0     C28627  11.804   3.259   4.173 -0.4280  0.1051  0.0339
  933MOL0     C28628  11.870   3.181   4.289 -0.2630  0.2504 -0.7546
  933MOL0     C28629  12.006   3.136   4.243  0.2628  0.4790  0.0325
  933MOL0     C28630  12.090   3.088   4.360  0.2351 -0.2303 -0.5832
  933MOL0     C28631  12.213   3.018   4.293  0.8658 -0.2251 -0.0592
  933MOL0     C28632  12.190   2.869   4.270 -0.8696 -0.1130 -0.1856
  933MOL0     N28633  12.320   2.794   4.251  0.1508 -0.9339  0.0847
  933MOL0     C28634  12.357   2.679   4.305  0.6998 -0.1083  0.7981
  933MOL0     C28635  12.469   2.635   4.247 -0.7057  0.0098  0.5751
  933MOL0     C28636  12.524   2.492   4.261 -0.7236 -1.1295 -0.1082
  933MOL0     C28637  12.528   2.426   4.400 -0.5572  0.3506  0.4716
  933MOL0     C28638  12.654   2.340   4.419 -0.4470  0.7967 -0.1163
  933MOL0     C28639  12.693   2.232   4.311  0.2033 -1.1452  0.1921
  933MOL0     O28640  12.817   2.186   4.351 -0.3814 -0.0463  0.0199
  933MOL0     C28641  12.874   2.079   4.288  0.0008 -0.2938  0.0405
  933MOL0     C28642  12.819   2.027   4.170 -0.4250  0.3149  0.0026
  933MOL0     C28643  12.862   1.905   4.122 -0.8417 -0.0360  0.4486
  933MOL0     C28644  12.807   1.858   3.996  0.2213  0.5341 -0.2999
  933MOL0     C28645  12.984   1.849   4.170  1.0091 -0.2504  0.0207
  933MOL0     C28646  13.045   1.726   4.104 -0.0212 -0.4578 -1.6286
  933MOL0     O28647  13.177   1.709   4.146  0.9997 -0.1298 -1.2396
  933MOL0     C28648  13.247   1.598   4.110 -1.2299  0.3042  0.1945
  933MOL0     C28649  13.376   1.603   4.130 -0.4045 -0.5699  0.9355
  933MOL0     C28650  13.469   1.504   4.103 -0.8648  0.0854  0.3490
  933MOL0     C28651  13.427   1.395   4.028 -0.7346 -0.2398  0.1874
  933MOL0     O28652  13.510   1.299   3.990 -0.3378  0.5450  0.4717
  933MOL0     C28653  13.650   1.303   4.024 -0.2108 -0.3960 -0.3291
  933MOL0     C28654  13.728   1.182   3.979 -0.7041  0.0215  0.1848
  933MOL0     C28655  13.676   1.054   4.047 -1.0869  0.2638 -0.6372
  933MOL0     C28656  13.794   0.966   4.079 -0.9912 -0.2509  0.1015
  933MOL0     C28657  13.740   0.837   4.149 -0.2554 -0.4137  0.9256
  933MOL0     C28658  13.855   0.777   4.232  0.4685 -0.1607 -0.4810
  933MOL0     C28659  13.804   0.688   4.353 -0.9490 -0.9644  0.5572
  933MOL0     C28660  13.912   0.600   4.418 -0.8900  0.1531  0.2013
  933MOL0    Cl28661  13.814   0.511   4.539 -0.0406  0.1085  0.1324
  933MOL0     C28662  13.294   1.387   3.994 -0.3337  0.2394 -1.0501
  933MOL0     C28663  13.200   1.487   4.030  0.3711  0.2913  1.1323
  933MOL0     O28664  12.966   1.646   4.066 -0.0049 -0.0588 -0.0752
  933MOL0     C28665  13.052   1.913   4.279 -0.6091 -0.5913  0.0758
  933MOL0     C28666  12.993   2.020   4.341  0.4340  0.8099  0.6052
  933MOL0     N28667  12.505   2.728   4.148 -0.1325  0.0979  0.3082
  933MOL0     N28668  12.413   2.820   4.150  0.3140  0.2147 -0.8514
  933MOL0     C28669  11.393   3.044   4.418 -0.0319 -0.8115  0.8156
  933MOL0     C28670  11.270   3.018   4.466  0.6216  0.5392 -0.3427
  933MOL0     C28671  10.847   2.926   4.534  0.8279 -0.9575  0.0309
  933MOL0     C28672  10.836   2.941   4.676  0.1841 -0.2530 -0.1603
  933MOL0     C28673  10.717   2.906   4.740 -0.7272 -0.4861 -0.9335
  933MOL0     C28674  10.608   2.857   4.676 -0.4554  0.0416 -0.3697
  933MOL0     O28675  10.487   2.813   4.728  0.1016  0.0332 -0.7517
  933MOL0     C28676  10.455   2.818   4.865 -0.2056 -0.4668  0.6760
  933MOL0     C28677  10.311   2.866   4.887  0.1752  0.9827 -1.4503
  933MOL0     C28678  10.295   3.013   4.842 -0.9237 -0.1716 -0.0777
  933MOL0     C28679  10.150   3.061   4.846 -0.4648  0.2136 -1.3598
  933MOL0     C28680  10.135   3.189   4.769 -0.5077 -0.3467  0.8159
  933MOL0     C28681  10.140   3.287   4.707  0.1134 -1.0509  0.4512
  933MOL0     C28682  10.614   2.858   4.537  0.5897 -0.3339 -0.2638
  933MOL0     C28683  10.730   2.890   4.463  0.2063 -0.2355  0.1060
  933MOL0     C28684  10.728   2.891   4.308  0.1945 -0.5825 -0.0340
  933MOL0     H28685  11.137   3.332   4.481  0.6138  1.2400  0.3052
  933MOL0     H28686  11.367   3.388   4.408 -1.0758  0.5113  1.9405
  933MOL0     H28687  11.481   3.351   4.240  1.5907  0.5451  4.9199
  933MOL0     H28688  11.548   3.210   4.151  3.3412 -0.3745 -0.9301
  933MOL0     H28689  11.676   3.437   4.156  1.1103 -0.8727 -0.8506
  933MOL0     H28690  11.721   3.380   4.324  1.1769 -3.3458  1.9117
  933MOL0     H28691  11.762   3.187   4.102 -1.4334 -0.0248  0.7506
  933MOL0     H28692  11.882   3.314   4.119  0.4958 -0.2948  0.9202
  933MOL0     H28693  11.887   3.246   4.375 -0.7369  0.4594 -0.8161
  933MOL0     H28694  11.811   3.095   4.321 -0.4190 -1.0805 -4.1336
  933MOL0     H28695  12.061   3.222   4.204 -1.2750  1.2643 -0.5261
  933MOL0     H28696  12.008   3.060   4.165 -0.4348  1.6583 -1.1958
  933MOL0     H28697  12.132   3.164   4.427  2.2036  0.6988 -2.7283
  933MOL0     H28698  12.026   3.011   4.404  0.2291  0.6562  1.0687
  933MOL0     H28699  12.291   3.031   4.368 -1.8039  1.9918  2.5669
  933MOL0     H28700  12.246   3.056   4.196  1.9150 -1.2162 -0.1151
  933MOL0     H28701  12.116   2.825   4.337  0.4515 -1.6545  0.3357
  933MOL0     H28702  12.154   2.867   4.166  1.4707 -4.5558 -1.1801
  933MOL0     H28703  12.303   2.628   4.384 -0.5628  0.0106  0.0250
  933MOL0     H28704  12.623   2.488   4.215 -1.1820 -0.5058 -1.1797
  933MOL0     H28705  12.471   2.424   4.195  0.0555  0.0453 -2.0207
  933MOL0     H28706  12.516   2.508   4.472 -1.6631  0.8191 -0.2186
  933MOL0     H28707  12.444   2.360   4.424 -0.4399  1.0021  2.9818
  933MOL0     H28708  12.740   2.407   4.415 -0.5387  0.9321  0.1565
  933MOL0     H28709  12.657   2.291   4.516 -2.7003  1.5208  0.3812
  933MOL0     H28710  12.618   2.154   4.294 -0.0548 -0.4300 -2.2752
  933MOL0     H28711  12.691   2.280   4.213  0.4456 -0.8317  0.3371
  933MOL0     H28712  12.742   2.079   4.114  0.4138  2.0836  0.4212
  933MOL0     H28713  12.886   1.846   3.921  3.2733 -0.4706  2.7795
  933MOL0     H28714  12.728   1.925   3.963 -1.0269 -0.5781  0.3421
  933MOL0     H28715  12.759   1.760   4.003 -1.0156  1.0778 -0.8338
  933MOL0     H28716  13.413   1.693   4.177  3.3708 -0.2340 -2.1098
  933MOL0     H28717  13.573   1.523   4.131 -0.7848 -2.5732  2.2109
  933MOL0     H28718  13.697   1.384   3.967 -0.1609 -0.1735  0.0251
  933MOL0     H28719  13.667   1.309   4.132 -1.8487  2.4001 -0.1502
  933MOL0     H28720  13.698   1.173   3.874 -1.3479  0.8986  0.2813
  933MOL0     H28721  13.837   1.190   3.986 -0.2741 -4.8248  3.1834
  933MOL0     H28722  13.618   0.994   3.976  0.1553  1.1510 -2.4755
  933MOL0     H28723  13.632   1.083   4.143  3.2164  2.3219  0.9768
  933MOL0     H28724  13.870   1.017   4.140 -3.2799  0.6772  2.3505
  933MOL0     H28725  13.854   0.939   3.991  0.7365 -1.7658  1.6420
  933MOL0     H28726  13.662   0.848   4.225 -0.9400 -2.4043  0.5686
  933MOL0     H28727  13.697   0.783   4.064 -0.7980  1.0910  0.1898
  933MOL0     H28728  13.922   0.856   4.267 -0.4107 -0.5488  2.3386
  933MOL0     H28729  13.902   0.709   4.161 -0.9000 -2.1519  0.4444
  933MOL0     H28730  13.716   0.629   4.323 -1.0108 -0.9311  0.6730
  933MOL0     H28731  13.753   0.746   4.429 -3.5249  1.9041 -3.0109
  933MOL0     H28732  13.993   0.657   4.464 -1.3014  2.4408 -1.6963
  933MOL0     H28733  13.958   0.533   4.345 -1.0740 -0.7626  0.8984
  933MOL0     H28734  13.254   1.301   3.940 -0.3560 -1.1719  1.1062
  933MOL0     H28735  13.098   1.470   3.998 -0.6473  2.9671  2.5898
  933MOL0     H28736  13.136   1.859   4.321  0.7450  1.5551  0.2793
  933MOL0     H28737  13.037   2.054   4.434  1.1942 -2.1314  1.4211
  933MOL0     H28738  11.460   2.966   4.385  0.6549  0.1122 -0.0418
  933MOL0     H28739  11.248   2.912   4.470  1.0104  0.2517 -3.4815
  933MOL0     H28740  10.920   2.969   4.738 -2.0596  1.9121  2.1313
  933MOL0     H28741  10.720   2.914   4.849  0.6049  0.7506 -1.0414
  933MOL0     H28742  10.469   2.718   4.905 -1.6744 -2.5031 -3.3701
  933MOL0     H28743  10.528   2.869   4.929 -1.0221 -0.8278  1.9227
  933MOL0     H28744  10.301   2.842   4.993 -0.4585 -2.7261 -2.2166
  933MOL0     H28745  10.244   2.798   4.834  0.1012 -1.0871  1.1329
  933MOL0     H28746  10.361   3.072   4.907  0.5962 -0.3623 -1.3886
  933MOL0     H28747  10.335   3.017   4.740  1.6545 -2.4747  0.7161
  933MOL0     H28748  10.124   3.075   4.952  0.3189  1.0428 -1.2653
  933MOL0     H28749  10.091   2.980   4.803  1.9197 -2.6202  0.3520
  933MOL0     H28750  10.117   3.379   4.657 -1.1767 -1.2458  0.6455
  933MOL0     H28751  10.535   2.810   4.479  2.2943 -2.8789 -0.6382
  933MOL0     H28752  10.775   2.799   4.273  1.5638  0.6692 -1.6604
  933MOL0     H28753  10.625   2.880   4.275  0.2244 -0.8478 -0.0452
  933MOL0     H28754  10.775   2.980   4.265  2.0441 -2.3774 -1.9501
  934MOL0     O28755   9.320   2.874   0.972 -0.1742  0.0774 -0.1243
  934MOL0     C28756   9.336   2.971   1.047 -0.2955 -0.2400  0.0747
  934MOL0     O28757   9.273   2.991   1.165 -0.0141  0.9061  0.1467
  934MOL0     C28758   9.187   2.902   1.223 -0.2026 -0.9323  0.0577
  934MOL0     C28759   9.203   2.879   1.365  0.1585  0.4013 -0.7263
  934MOL0     C28760   9.110   2.802   1.434  0.3878 -0.4077 -0.0674
  934MOL0     C28761   8.993   2.758   1.369  0.7179 -0.7336 -0.2521
  934MOL0     O28762   8.887   2.710   1.443 -0.3360  0.4307  0.2339
  934MOL0     C28763   8.863   2.562   1.421  0.4113 -0.3639 -0.9054
  934MOL0     C28764   8.772   2.521   1.305 -0.6238  0.3988 -0.8142
  934MOL0     C28765   8.637   2.609   1.303 -0.9457  0.1766  0.4654
  934MOL0     C28766   8.540   2.575   1.424  0.3306 -0.0376 -0.1229
  934MOL0     C28767   8.428   2.683   1.435 -0.2321 -0.0817  0.5934
  934MOL0     C28768   8.322   2.661   1.320 -0.5316 -0.6356 -0.4083
  934MOL0     C28769   8.217   2.559   1.377 -0.2761  0.7186 -0.1440
  934MOL0     C28770   8.110   2.527   1.271  0.0341 -0.9722  0.0545
  934MOL0     N28771   8.019   2.429   1.316  0.1056  0.5847 -0.0504
  934MOL0     C28772   7.923   2.444   1.413  0.6993  0.3149 -0.2991
  934MOL0     C28773   7.834   2.340   1.403 -0.7764  0.7083 -0.0836
  934MOL0     C28774   7.717   2.310   1.483 -0.4920  0.1758 -0.4686
  934MOL0     C28775   7.734   2.200   1.592  0.9050 -0.5867 -0.5754
  934MOL0     C28776   7.723   2.070   1.515 -0.4174  0.6732  0.5554
  934MOL0     C28777   7.731   1.945   1.608  0.7402 -0.0214 -0.1246
  934MOL0     O28778   7.707   1.833   1.523  0.5598  0.0834  0.1989
  934MOL0     C28779   7.813   1.767   1.465 -0.2916 -0.4065 -0.4433
  934MOL0     C28780   7.895   1.706   1.540 -0.7879  0.5662  1.2854
  934MOL0     C28781   7.982   1.615   1.488  0.0292  0.7495 -0.2894
  934MOL0     C28782   8.066   1.524   1.576 -0.3656 -0.1708 -0.1304
  934MOL0     C28783   8.004   1.604   1.342  0.4346 -0.2427  0.0116
  934MOL0     C28784   8.096   1.517   1.260 -0.8497 -0.0082  1.7145
  934MOL0     O28785   8.112   1.384   1.298  0.1724 -0.8330  0.1877
  934MOL0     C28786   8.203   1.293   1.247 -0.2134  0.4870  0.5143
  934MOL0     C28787   8.204   1.164   1.302  0.7324 -0.2651 -0.1680
  934MOL0     C28788   8.317   1.075   1.281  0.7370  0.6370 -0.4628
  934MOL0     C28789   8.427   1.109   1.210  0.4412 -0.5422  0.4664
  934MOL0     O28790   8.512   1.009   1.168  0.0682 -0.4863  0.5019
  934MOL0     C28791   8.650   1.044   1.141 -0.2916 -0.5568  0.5408
  934MOL0     C28792   8.742   0.928   1.109 -0.3367 -0.1320  0.4825
  934MOL0     C28793   8.883   0.983   1.103 -0.2553 -1.1311 -0.7583
  934MOL0     C28794   8.983   0.855   1.118 -0.2842 -0.3681  0.1761
  934MOL0     C28795   9.136   0.873   1.105  0.6418  0.1355  0.1088
  934MOL0     C28796   9.190   0.978   1.195 -0.6635 -0.2103  0.3135
  934MOL0     C28797   9.341   0.984   1.181  0.6838  0.1524  0.1198
  934MOL0     C28798   9.396   1.118   1.214  0.2743  1.1160  0.2071
  934MOL0    Cl28799   9.575   1.114   1.200 -0.2457  0.4523 -0.4994
  934MOL0     C28800   8.427   1.235   1.152 -0.4059  0.8927  0.8912
  934MOL0     C28801   8.325   1.325   1.178  0.1683  0.3301  0.4173
  934MOL0     O28802   8.160   1.573   1.172  0.0940 -0.1562 -0.0252
  934MOL0     C28803   7.926   1.693   1.264 -0.3158 -0.4487  0.5301
  934MOL0     C28804   7.822   1.758   1.330  0.4371 -0.0091  0.0700
  934MOL0     N28805   7.874   2.271   1.289 -0.0912 -1.3094  0.3853
  934MOL0     N28806   7.987   2.315   1.244 -0.5218  0.2600  0.4258
  934MOL0     C28807   8.981   2.785   1.230  0.1927  0.4604  0.1339
  934MOL0     C28808   9.080   2.847   1.153 -0.9796 -0.1070 -0.2609
  934MOL0     C28809   9.443   3.053   0.993 -1.1078  0.0113  0.4785
  934MOL0     C28810   9.456   3.074   0.849  0.0514 -0.6267  0.0432
  934MOL0     C28811   9.553   3.163   0.796  0.0419 -0.1925 -0.5573
  934MOL0     C28812   9.640   3.245   0.873 -1.1010 -0.0624 -0.4407
  934MOL0     O28813   9.732   3.339   0.824  0.2084  0.0798  0.5301
  934MOL0     C28814   9.718   3.383   0.688 -0.5299 -0.3436 -0.8288
  934MOL0     C28815   9.795   3.512   0.667 -0.0709 -0.5002 -0.7224
  934MOL0     C28816   9.720   3.640   0.737 -0.4947  0.9701  0.6722
  934MOL0     C28817   9.796   3.774   0.707  0.0036 -0.2392 -0.4270
  934MOL0     C28818   9.745   3.876   0.802  0.5380 -0.2961  0.4075
  934MOL0     C28819   9.672   3.943   0.866  0.3792 -0.3802  0.9312
  934MOL0     C28820   9.634   3.222   1.010  0.4010  0.7496 -0.3250
  934MOL0     C28821   9.541   3.126   1.070 -1.0885 -0.7962  0.1702
  934MOL0     C28822   9.545   3.115   1.216  0.2381 -0.0219 -0.4655
  934MOL0     H28823   9.281   2.919   1.429 -1.7832 -0.2590  2.2801
  934MOL0     H28824   9.121   2.771   1.538 -2.8826 -4.0191 -0.5864
  934MOL0     H28825   8.831   2.516   1.515  3.0331 -1.7780 -0.6116
  934MOL0     H28826   8.964   2.523   1.409  0.7211  0.4215 -0.8887
  934MOL0     H28827   8.818   2.548   1.210  0.9013 -1.3531 -0.6330
  934MOL0     H28828   8.747   2.414   1.303 -2.3231  0.7586 -0.6474
  934MOL0     H28829   8.658   2.715   1.320  0.1556  0.2508 -1.1363
  934MOL0     H28830   8.592   2.616   1.203 -1.5343  1.9269  0.8143
  934MOL0     H28831   8.507   2.471   1.423 -1.2944  0.4260  0.8107
  934MOL0     H28832   8.590   2.573   1.521 -2.3038  0.6414  1.3535
  934MOL0     H28833   8.474   2.782   1.439 -2.8508  1.2325  0.3038
  934MOL0     H28834   8.376   2.678   1.531  1.5307  0.1682  1.6062
  934MOL0     H28835   8.275   2.758   1.299  0.6336 -0.1933 -1.0430
  934MOL0     H28836   8.382   2.619   1.239  1.1837  0.9459 -0.0182
  934MOL0     H28837   8.154   2.599   1.457 -0.0371 -1.5322  1.2251
  934MOL0     H28838   8.268   2.469   1.412 -1.5073  0.4477  1.0309
  934MOL0     H28839   8.055   2.619   1.248 -1.5885 -2.1323 -0.9756
  934MOL0     H28840   8.154   2.483   1.181 -0.1669 -1.1183  0.0261
  934MOL0     H28841   7.910   2.538   1.467 -0.9999  0.6745 -1.2603
  934MOL0     H28842   7.650   2.271   1.405  1.9631 -1.2131 -2.0072
  934MOL0     H28843   7.672   2.395   1.535 -0.2564 -0.6837  1.2336
  934MOL0     H28844   7.824   2.212   1.653  1.4659 -2.7507 -0.9010
  934MOL0     H28845   7.646   2.201   1.657  2.2865  0.1695  1.3986
  934MOL0     H28846   7.627   2.077   1.464 -1.1621  2.3673  2.0915
  934MOL0     H28847   7.802   2.055   1.440 -0.4771 -2.4475  0.9801
  934MOL0     H28848   7.827   1.934   1.659  1.5330  3.9116 -0.4466
  934MOL0     H28849   7.653   1.942   1.684  1.5198  0.3522  0.7163
  934MOL0     H28850   7.884   1.728   1.646 -3.1795  0.2336  1.1594
  934MOL0     H28851   8.061   1.542   1.684  3.8740  0.7207  0.1162
  934MOL0     H28852   8.172   1.531   1.547 -0.7777  0.5143 -1.5406
  934MOL0     H28853   8.050   1.417   1.560  1.2309 -0.4857  0.1284
  934MOL0     H28854   8.128   1.136   1.375 -0.9026  1.4970 -1.1247
  934MOL0     H28855   8.327   0.976   1.324 -0.2706  0.5300 -0.4399
  934MOL0     H28856   8.660   1.115   1.059  0.4540 -2.2813 -0.9295
  934MOL0     H28857   8.688   1.096   1.229  0.1743  3.4868 -1.8403
  934MOL0     H28858   8.741   0.850   1.186 -0.5713  0.9463  1.6093
  934MOL0     H28859   8.722   0.883   1.011 -2.8105 -0.2950  0.9754
  934MOL0     H28860   8.901   1.056   1.183  0.9050 -1.7693 -0.4129
  934MOL0     H28861   8.904   1.024   1.004 -0.8768  2.4487  0.4332
  934MOL0     H28862   8.948   0.776   1.050 -0.3638 -0.1397 -0.0513
  934MOL0     H28863   8.962   0.797   1.208  0.1653 -0.5950  0.1315
  934MOL0     H28864   9.180   0.775   1.122 -0.9970 -0.2798  2.5007
  934MOL0     H28865   9.156   0.897   1.001 -1.6120 -0.9291 -0.6383
  934MOL0     H28866   9.150   0.962   1.295 -3.4681  0.9543 -0.5107
  934MOL0     H28867   9.136   1.071   1.174  0.4284  1.3928  3.8772
  934MOL0     H28868   9.387   0.950   1.089  4.6462  2.7116  0.9224
  934MOL0     H28869   9.386   0.930   1.265 -2.4544  0.6663  2.3102
  934MOL0     H28870   9.361   1.135   1.317  1.5431 -0.9684  1.0453
  934MOL0     H28871   9.365   1.200   1.149  0.2090  0.0603 -1.1462
  934MOL0     H28872   8.516   1.270   1.101  0.9055 -2.1926  0.9002
  934MOL0     H28873   8.347   1.428   1.152  2.9082  0.4800  2.8917
  934MOL0     H28874   7.939   1.713   1.158 -0.9374  0.8745  0.6838
  934MOL0     H28875   7.759   1.823   1.270  2.0042  1.8922  0.4080
  934MOL0     H28876   8.884   2.769   1.185 -1.0230 -1.0907  2.9886
  934MOL0     H28877   9.066   2.854   1.046  3.3259  1.7124 -0.9072
  934MOL0     H28878   9.406   3.020   0.769 -0.1022  1.8934 -1.6757
  934MOL0     H28879   9.559   3.168   0.687  2.0627 -2.4019 -0.6375
  934MOL0     H28880   9.760   3.296   0.635  3.1945 -1.8006  3.8039
  934MOL0     H28881   9.614   3.402   0.659 -1.0724 -3.9230 -1.7469
  934MOL0     H28882   9.805   3.531   0.559  1.7780 -0.2159 -0.5279
  934MOL0     H28883   9.893   3.508   0.714 -0.2170  1.2460 -0.2022
  934MOL0     H28884   9.613   3.635   0.714  0.0680 -0.7106 -2.1037
  934MOL0     H28885   9.752   3.614   0.838  2.2621 -1.5017 -0.6858
  934MOL0     H28886   9.778   3.807   0.605  3.9956 -1.2091 -1.6318
  934MOL0     H28887   9.905   3.769   0.715  0.0510  1.0065 -0.0472
  934MOL0     H28888   9.604   4.001   0.924  1.0260  0.7743  0.5729
  934MOL0     H28889   9.701   3.271   1.080  0.4929  0.7180 -0.3908
  934MOL0     H28890   9.648   3.095   1.248  0.8003  0.5421 -1.8687
  934MOL0     H28891   9.508   3.210   1.257  1.1297  0.4439 -0.7278
  934MOL0     H28892   9.498   3.023   1.253 -1.4523  1.1576  0.4819
  935MOL0     O28893   5.484   2.884   7.292 -0.6663 -0.2261  0.1743
  935MOL0     C28894   5.565   2.887   7.379 -0.0543 -0.1089 -0.6253
  935MOL0     O28895   5.694   2.944   7.369 -0.3460  0.1967  0.2673
  935MOL0     C28896   5.725   3.009   7.245 -0.6610  0.0887 -0.4181
  935MOL0     C28897   5.735   2.943   7.124 -0.1300 -0.1786 -0.3046
  935MOL0     C28898   5.783   3.017   7.012 -1.3755  0.6172  0.2483
  935MOL0     C28899   5.837   3.149   7.022 -0.6394  0.4202 -0.4554
  935MOL0     O28900   5.892   3.225   6.924 -0.2141  0.5873  0.3377
  935MOL0     C28901   5.992   3.145   6.851  0.8086  0.5369  0.0128
  935MOL0     C28902   6.049   3.223   6.738 -0.6014 -1.0438  0.4032
  935MOL0     C28903   6.177   3.157   6.680  0.2232  0.2552  0.2501
  935MOL0     C28904   6.168   3.010   6.630 -0.4380 -0.5728  0.9063
  935MOL0     C28905   6.277   2.973   6.517 -0.2940 -0.4764 -0.6061
  935MOL0     C28906   6.284   2.825   6.486 -0.3656 -0.6020  0.0363
  935MOL0     C28907   6.430   2.796   6.452 -0.0632  1.5694  0.0885
  935MOL0     C28908   6.462   2.655   6.446 -0.2789 -0.0014  0.3436
  935MOL0     N28909   6.413   2.610   6.317  0.3401  0.1730 -0.2152
  935MOL0     C28910   6.295   2.541   6.299 -0.5692  1.9020  0.0474
  935MOL0     C28911   6.297   2.511   6.167  0.1799  0.0960  0.3670
  935MOL0     C28912   6.197   2.438   6.083  0.5165  0.6229 -0.6026
  935MOL0     C28913   6.075   2.522   6.048  1.2046 -1.2617  0.7229
  935MOL0     C28914   5.985   2.575   6.167 -0.6907 -0.1453 -0.2504
  935MOL0     C28915   5.860   2.647   6.120  0.3106 -0.2978 -0.8103
  935MOL0     O28916   5.779   2.556   6.052  0.5850 -0.6525  0.3315
  935MOL0     C28917   5.710   2.612   5.939  0.2489  0.3838 -0.7796
  935MOL0     C28918   5.751   2.562   5.818 -1.5597 -0.1949 -0.2832
  935MOL0     C28919   5.691   2.614   5.696  0.4525  0.9484 -0.0229
  935MOL0     C28920   5.739   2.558   5.564 -0.5555  1.4939 -0.4475
  935MOL0     C28921   5.597   2.718   5.707 -0.4331  0.1860 -0.0157
  935MOL0     C28922   5.520   2.779   5.598 -0.3790 -0.0666  0.2320
  935MOL0     O28923   5.580   2.803   5.478 -0.6734 -0.2177 -0.9737
  935MOL0     C28924   5.501   2.840   5.372 -0.4775  0.1808  0.7749
  935MOL0     C28925   5.443   2.968   5.371 -0.3879 -0.2179 -0.7716
  935MOL0     C28926   5.377   3.006   5.253  0.7006 -0.0280  0.0556
  935MOL0     C28927   5.364   2.915   5.149  0.6764 -0.4243 -0.8089
  935MOL0     O28928   5.280   2.958   5.046  0.1941 -0.4889 -0.1632
  935MOL0     C28929   5.141   2.954   5.075  0.5113  0.0663  0.2117
  935MOL0     C28930   5.060   2.820   5.082 -0.7689  0.0353  0.6713
  935MOL0     C28931   5.079   2.718   4.974 -0.1808 -0.1446  0.5375
  935MOL0     C28932   4.982   2.602   5.022  0.0609 -0.6477  0.0798
  935MOL0     C28933   4.978   2.489   4.919 -0.2134 -0.0559  0.7145
  935MOL0     C28934   4.868   2.392   4.947  0.7181  0.4507 -0.3407
  935MOL0     C28935   4.856   2.300   4.826 -0.6021  0.2993 -0.5598
  935MOL0     C28936   4.746   2.198   4.869 -0.5839 -0.5950 -0.7624
  935MOL0    Cl28937   4.743   2.071   4.734  0.1219  0.2327 -0.0067
  935MOL0     C28938   5.425   2.791   5.146 -0.3019 -0.9680 -0.1506
  935MOL0     C28939   5.495   2.752   5.264  0.3077  0.2341  0.2006
  935MOL0     O28940   5.404   2.810   5.619 -0.2248 -0.0111 -0.2861
  935MOL0     C28941   5.571   2.777   5.831  0.0537  0.6313  0.0196
  935MOL0     C28942   5.624   2.713   5.944  0.9914  0.4183 -0.1987
  935MOL0     N28943   6.413   2.559   6.110 -0.6727  0.0384 -1.0987
  935MOL0     N28944   6.484   2.613   6.204  0.7052  0.2694  0.0221
  935MOL0     C28945   5.828   3.207   7.148  0.0172 -0.0086  0.1179
  935MOL0     C28946   5.764   3.144   7.256  0.3577  1.2516  1.1587
  935MOL0     C28947   5.539   2.823   7.517 -0.5280  0.5933  0.5792
  935MOL0     C28948   5.629   2.858   7.618 -0.0376  0.3689 -0.3382
  935MOL0     C28949   5.621   2.810   7.747  0.2157 -0.0037 -0.2829
  935MOL0     C28950   5.501   2.730   7.776 -0.2322 -0.0661  0.1171
  935MOL0     O28951   5.500   2.707   7.910 -0.5283  0.7808 -0.6473
  935MOL0     C28952   5.374   2.677   7.976  0.3528 -0.1992  0.5521
  935MOL0     C28953   5.370   2.533   8.029 -0.2978 -0.9706  0.0482
  935MOL0     C28954   5.231   2.491   8.075 -0.1395 -0.1726 -0.3845
  935MOL0     C28955   5.205   2.345   8.125  0.2334 -0.2331 -0.5103
  935MOL0     C28956   5.236   2.261   8.011  0.6011 -0.2395 -0.2135
  935MOL0     C28957   5.243   2.208   7.899 -0.9045  0.0330 -0.0294
  935MOL0     C28958   5.408   2.691   7.674 -0.6127  0.2493  0.6020
  935MOL0     C28959   5.422   2.742   7.542 -0.1118  0.2894 -0.4242
  935MOL0     C28960   5.301   2.732   7.458  0.3370 -0.2545  0.0827
  935MOL0     H28961   5.705   2.839   7.118  0.8480 -0.5332  0.6835
  935MOL0     H28962   5.775   2.960   6.920  0.0219 -1.0663  1.0871
  935MOL0     H28963   5.950   3.049   6.819  1.7331  0.3496 -0.6883
  935MOL0     H28964   6.073   3.124   6.921  0.6035  3.5598  1.3203
  935MOL0     H28965   5.965   3.240   6.670  0.8441  2.0483 -0.8177
  935MOL0     H28966   6.080   3.325   6.765  0.2565 -1.2285  0.1649
  935MOL0     H28967   6.195   3.217   6.590 -1.4616  2.6176  1.3944
  935MOL0     H28968   6.259   3.170   6.750 -0.9317 -1.7447  2.1097
  935MOL0     H28969   6.184   2.947   6.718  0.3467  1.0305  1.9790
  935MOL0     H28970   6.067   3.012   6.589  0.7944  4.8354 -2.9173
  935MOL0     H28971   6.369   3.029   6.537 -0.3636 -1.5142  3.2968
  935MOL0     H28972   6.223   3.006   6.427 -2.6328 -0.3681  0.7673
  935MOL0     H28973   6.247   2.770   6.573 -1.4529  0.1167  0.0514
  935MOL0     H28974   6.214   2.798   6.406  0.2729 -1.6454 -0.1777
  935MOL0     H28975   6.491   2.834   6.535 -0.4559 -0.0370  1.1508
  935MOL0     H28976   6.469   2.845   6.362  1.1609 -1.6474 -1.2914
  935MOL0     H28977   6.571   2.646   6.441 -0.1347  1.2943  0.8416
  935MOL0     H28978   6.426   2.613   6.540 -3.8028 -2.3037 -1.7838
  935MOL0     H28979   6.216   2.512   6.368  0.6980 -3.4288 -0.2796
  935MOL0     H28980   6.162   2.353   6.141  0.8943 -1.1076 -2.7717
  935MOL0     H28981   6.234   2.393   5.990 -1.4660 -1.6631 -0.3586
  935MOL0     H28982   6.107   2.605   5.984 -2.0872  0.2385  0.8424
  935MOL0     H28983   6.006   2.461   5.990  2.1637 -0.6699 -1.0959
  935MOL0     H28984   5.969   2.485   6.227 -0.2678 -0.8376 -1.1424
  935MOL0     H28985   6.032   2.659   6.220  0.1636 -1.2366  0.7698
  935MOL0     H28986   5.806   2.697   6.201  2.3608  3.0181 -1.2945
  935MOL0     H28987   5.895   2.717   6.044 -1.1222 -0.9177 -2.0734
  935MOL0     H28988   5.827   2.485   5.816  4.0958  4.6167  1.4459
  935MOL0     H28989   5.775   2.455   5.553  1.5311  2.0060  0.8842
  935MOL0     H28990   5.829   2.615   5.540  0.0762  2.0517  2.7638
  935MOL0     H28991   5.665   2.564   5.484  1.7167 -3.8263 -3.5107
  935MOL0     H28992   5.461   3.024   5.462 -0.8401 -2.0272  0.4923
  935MOL0     H28993   5.313   3.094   5.256  0.3176 -0.2570  3.4808
  935MOL0     H28994   5.122   3.006   5.170 -0.6361  2.4548 -1.2276
  935MOL0     H28995   5.091   3.019   5.002  2.2441  0.9739 -0.2217
  935MOL0     H28996   5.089   2.766   5.173  1.3753 -0.6152 -0.3331
  935MOL0     H28997   4.955   2.849   5.089 -1.2623 -1.3139 -0.6895
  935MOL0     H28998   5.186   2.693   4.966 -0.4038 -0.4724 -2.7366
  935MOL0     H28999   5.046   2.758   4.878  0.8721 -1.4711 -0.4224
  935MOL0     H29000   4.884   2.638   5.053 -0.1469 -1.2594  0.1391
  935MOL0     H29001   5.015   2.561   5.118  0.3231  1.4898  0.9649
  935MOL0     H29002   4.947   2.531   4.823 -2.9209  2.2083  2.4167
  935MOL0     H29003   5.066   2.426   4.904 -2.1450 -4.2280  4.4895
  935MOL0     H29004   4.769   2.438   4.959 -2.3113 -4.8613 -1.3937
  935MOL0     H29005   4.889   2.338   5.040 -0.5291  1.6772  0.6903
  935MOL0     H29006   4.951   2.254   4.800 -2.1467 -2.9619 -0.8975
  935MOL0     H29007   4.833   2.359   4.736  1.7068 -0.2658 -1.5943
  935MOL0     H29008   4.653   2.252   4.886 -0.0413 -0.3403  1.8488
  935MOL0     H29009   4.773   2.152   4.965 -0.5324  2.8421  1.0295
  935MOL0     H29010   5.418   2.723   5.062 -2.3274 -1.0255  0.0252
  935MOL0     H29011   5.531   2.650   5.265 -0.4926 -0.0472  0.3417
  935MOL0     H29012   5.506   2.862   5.840  0.8857  1.1154  2.4418
  935MOL0     H29013   5.603   2.760   6.040  0.8270 -2.4510  1.2603
  935MOL0     H29014   5.871   3.306   7.156  3.0677 -1.3027  1.8268
  935MOL0     H29015   5.744   3.187   7.354 -0.0825 -2.2924  2.8073
  935MOL0     H29016   5.713   2.919   7.587  0.5745 -1.3344 -2.2628
  935MOL0     H29017   5.693   2.850   7.817  3.0177 -1.7527 -1.9492
  935MOL0     H29018   5.367   2.741   8.064  1.1620 -1.3790  1.5062
  935MOL0     H29019   5.289   2.696   7.910  1.3562  0.3601 -0.6420
  935MOL0     H29020   5.441   2.527   8.113 -2.7471 -1.2564  2.2522
  935MOL0     H29021   5.401   2.464   7.950  1.1883  1.3348 -1.4923
  935MOL0     H29022   5.194   2.552   8.158  0.6373  1.7842 -1.3968
  935MOL0     H29023   5.158   2.513   7.996 -0.9621 -1.7459 -0.0994
  935MOL0     H29024   5.100   2.326   8.147  0.2152 -0.3135 -0.6662
  935MOL0     H29025   5.262   2.317   8.214  2.8814  1.5435 -1.5018
  935MOL0     H29026   5.245   2.153   7.807  1.9516 -0.0613 -0.0124
  935MOL0     H29027   5.317   2.639   7.701  0.3220 -1.7527  0.0892
  935MOL0     H29028   5.296   2.653   7.382 -0.1111  0.4448 -0.6311
  935MOL0     H29029   5.215   2.731   7.527  0.6505  1.3310  0.5291
  935MOL0     H29030   5.277   2.828   7.411 -1.3085  1.0518  3.2826
  936MOL0     O29031  10.246   9.338   6.439 -0.2497  0.9774  0.3896
  936MOL0     C29032  10.219   9.258   6.529  0.1133 -0.4814  0.4464
  936MOL0     O29033  10.215   9.294   6.659 -0.1358 -0.0284  0.6310
  936MOL0     C29034  10.229   9.423   6.697  0.1092  0.3077 -0.2866
  936MOL0     C29035  10.179   9.537   6.637  0.1534  0.7312 -0.1614
  936MOL0     C29036  10.209   9.660   6.697  0.2771  0.1207  0.0505
  936MOL0     C29037  10.303   9.671   6.796 -0.9955  0.0118  0.1764
  936MOL0     O29038  10.352   9.795   6.833  0.4158  0.5048 -0.9343
  936MOL0     C29039  10.416   9.857   6.716  0.6365 -1.4570 -0.6634
  936MOL0     C29040  10.520   9.965   6.759  1.2470 -1.1492  0.3528
  936MOL0     C29041  10.452  10.080   6.832  1.2703  0.6848 -0.8466
  936MOL0     C29042  10.540  10.208   6.822  0.2535 -0.0891 -0.2738
  936MOL0     C29043  10.472  10.343   6.828  0.1147 -1.0560 -0.2564
  936MOL0     C29044  10.402  10.363   6.963 -0.0997 -0.9725  0.6423
  936MOL0     C29045  10.319  10.500   6.938 -0.5777  0.0712  0.2803
  936MOL0     C29046  10.206  10.503   7.034  0.0796 -0.3036  0.1500
  936MOL0     N29047  10.085  10.447   6.972  0.3029  0.8884  0.2135
  936MOL0     C29048   9.976  10.520   6.926  0.0889 -0.1216  0.5685
  936MOL0     C29049   9.902  10.417   6.879  0.2634 -0.6024  0.2304
  936MOL0     C29050   9.768  10.451   6.809  0.3603  0.0688 -0.1129
  936MOL0     C29051   9.661  10.339   6.790 -0.6859  0.0924  0.1372
  936MOL0     C29052   9.612  10.277   6.916  0.6447 -0.7110 -0.9411
  936MOL0     C29053   9.513  10.170   6.899  0.3399  0.1300  0.9802
  936MOL0     O29054   9.399  10.219   6.818  0.2300  0.6852 -0.1369
  936MOL0     C29055   9.281  10.155   6.846 -0.1460  0.5057 -0.6440
  936MOL0     C29056   9.227  10.152   6.973  0.1302  0.1707 -0.3983
  936MOL0     C29057   9.108  10.077   7.006 -0.3336 -0.8683  0.2979
  936MOL0     C29058   9.070  10.059   7.151  0.5705  0.7350  0.2547
  936MOL0     C29059   9.054   9.997   6.905 -0.1622 -0.3739 -0.5929
  936MOL0     C29060   8.936   9.904   6.930 -0.1489 -0.1178  0.4287
  936MOL0     O29061   8.871   9.912   7.050  0.0058 -0.6427 -0.4555
  936MOL0     C29062   8.762   9.828   7.079  0.8046 -0.5805 -0.4470
  936MOL0     C29063   8.785   9.764   7.197  0.8043  0.5563  0.1581
  936MOL0     C29064   8.690   9.684   7.261 -0.1850 -0.9928 -0.1021
  936MOL0     C29065   8.564   9.660   7.204 -0.8888 -0.5466 -0.4188
  936MOL0     O29066   8.469   9.596   7.271 -0.0907 -0.2787 -0.8589
  936MOL0     C29067   8.392   9.493   7.200 -1.0853 -1.0987 -0.3832
  936MOL0     C29068   8.472   9.382   7.128 -0.5383 -0.0811 -0.2775
  936MOL0     C29069   8.545   9.300   7.228 -0.4277 -0.6832 -0.0121
  936MOL0     C29070   8.452   9.212   7.315  0.3770 -0.1461 -0.6723
  936MOL0     C29071   8.538   9.154   7.423 -0.4571  0.3679 -0.6431
  936MOL0     C29072   8.462   9.042   7.506 -0.0593  0.2264  0.7666
  936MOL0     C29073   8.553   8.978   7.611 -0.2623  0.5075  0.2421
  936MOL0     C29074   8.504   8.848   7.667  0.6409  0.9682 -0.0003
  936MOL0    Cl29075   8.340   8.864   7.734 -0.1708 -0.2467  0.0296
  936MOL0     C29076   8.554   9.717   7.067  0.5784 -0.3812 -0.6901
  936MOL0     C29077   8.645   9.797   7.004  0.2721 -1.2509 -0.8967
  936MOL0     O29078   8.906   9.827   6.844 -0.0272  1.0687 -0.2341
  936MOL0     C29079   9.092  10.023   6.774  0.2358  1.6368  0.0411
  936MOL0     C29080   9.203  10.099   6.746 -0.5723  0.6171  0.4740
  936MOL0     N29081   9.970  10.292   6.880  0.0899 -0.2560  0.0627
  936MOL0     N29082  10.078  10.307   6.943 -0.5999 -0.6439 -0.3287
  936MOL0     C29083  10.353   9.552   6.856 -0.9877 -0.5973 -0.1151
  936MOL0     C29084  10.322   9.433   6.797  0.5798 -1.3666  0.0735
  936MOL0     C29085  10.187   9.113   6.493  1.2193  0.0218  0.5487
  936MOL0     C29086  10.183   9.086   6.356  0.5194  0.2702 -0.1189
  936MOL0     C29087  10.184   8.950   6.313 -0.7566 -1.1932  0.1848
  936MOL0     C29088  10.186   8.846   6.399 -0.4228  1.0507 -0.4726
  936MOL0     O29089  10.222   8.713   6.358 -0.0999 -0.0666 -0.0737
  936MOL0     C29090  10.343   8.699   6.283  0.4395 -0.4992  0.0312
  936MOL0     C29091  10.413   8.560   6.320  0.5717  0.1260  0.7022
  936MOL0     C29092  10.313   8.455   6.264  0.2059 -0.5176  0.1319
  936MOL0     C29093  10.364   8.305   6.289  0.7050  0.2743  0.0523
  936MOL0     C29094  10.410   8.277   6.424 -1.1453 -0.1353 -0.8163
  936MOL0     C29095  10.454   8.256   6.538  0.4155 -0.1087  0.4556
  936MOL0     C29096  10.170   8.866   6.535 -0.2520 -0.0757  1.2636
  936MOL0     C29097  10.175   8.998   6.587 -0.1659  0.3571 -0.0593
  936MOL0     C29098  10.147   9.022   6.734  0.3226  0.4263  0.1242
  936MOL0     H29099  10.097   9.532   6.566  0.7856 -1.8725 -0.8188
  936MOL0     H29100  10.163   9.752   6.662  0.1318 -0.1626 -0.5056
  936MOL0     H29101  10.349   9.891   6.637  0.5485  0.5091  0.1804
  936MOL0     H29102  10.479   9.779   6.672 -1.2148 -1.9009 -2.7163
  936MOL0     H29103  10.595   9.920   6.824 -2.2945 -3.7945  2.9698
  936MOL0     H29104  10.557  10.015   6.669 -1.9279  0.9054  0.0015
  936MOL0     H29105  10.358  10.108   6.784  1.2170 -0.8048 -1.6866
  936MOL0     H29106  10.437  10.066   6.939  1.2549 -0.6034 -1.0011
  936MOL0     H29107  10.622  10.197   6.894  0.4268  2.8724  0.1015
  936MOL0     H29108  10.603  10.215   6.733  0.5432  1.9930  0.0400
  936MOL0     H29109  10.388  10.339   6.757  0.2005 -1.5322 -0.3359
  936MOL0     H29110  10.530  10.425   6.785  1.9731 -1.5623  1.1399
  936MOL0     H29111  10.331  10.289   7.002 -2.0301  0.9712  0.9919
  936MOL0     H29112  10.476  10.382   7.041  2.3082  0.4636 -1.8184
  936MOL0     H29113  10.278  10.494   6.837 -3.5632 -0.8867  1.4441
  936MOL0     H29114  10.388  10.584   6.951  4.0751 -2.9344 -1.9098
  936MOL0     H29115  10.224  10.446   7.125 -0.7491 -0.4286  0.2386
  936MOL0     H29116  10.198  10.610   7.055  0.7500  0.5414 -3.3110
  936MOL0     H29117   9.942  10.623   6.933  0.4617 -0.0543  1.5669
  936MOL0     H29118   9.801  10.489   6.712  0.9119  3.6068  1.2998
  936MOL0     H29119   9.728  10.542   6.855  1.6752  0.1478  0.9343
  936MOL0     H29120   9.578  10.376   6.729  0.3779 -1.1087 -2.1834
  936MOL0     H29121   9.712  10.259   6.735  0.1855 -0.7379  2.0567
  936MOL0     H29122   9.702  10.237   6.962  0.3706 -0.4192 -0.1280
  936MOL0     H29123   9.571  10.346   6.991 -1.2314 -1.9799 -0.7093
  936MOL0     H29124   9.540  10.084   6.837 -4.0058 -2.1284  1.8579
  936MOL0     H29125   9.489  10.131   6.998  1.7831  1.7901  2.0442
  936MOL0     H29126   9.282  10.208   7.047  1.6208 -1.6713 -0.0180
  936MOL0     H29127   9.081   9.954   7.181 -3.6751 -0.3577 -1.3163
  936MOL0     H29128   8.964  10.085   7.161 -0.0286 -1.3590 -0.1573
  936MOL0     H29129   9.136  10.106   7.224  1.0143 -1.1544  1.1402
  936MOL0     H29130   8.874   9.797   7.249 -1.0459  2.8086  2.0942
  936MOL0     H29131   8.707   9.655   7.364  3.1119  0.1034 -0.2459
  936MOL0     H29132   8.317   9.452   7.269 -0.1877  1.0359  2.0424
  936MOL0     H29133   8.331   9.546   7.127 -1.9999 -0.6533  0.6765
  936MOL0     H29134   8.407   9.323   7.062 -0.1671 -0.7751 -0.0337
  936MOL0     H29135   8.545   9.425   7.059  2.9078 -1.5052  2.2326
  936MOL0     H29136   8.596   9.374   7.290 -0.0971  0.9454 -2.1062
  936MOL0     H29137   8.619   9.236   7.178  1.3768  0.5122  1.0368
  936MOL0     H29138   8.425   9.121   7.260  1.0040 -0.2129 -0.8662
  936MOL0     H29139   8.363   9.266   7.351  1.5890  0.2244  2.0015
  936MOL0     H29140   8.633   9.125   7.376 -1.2391 -0.4785 -1.7510
  936MOL0     H29141   8.560   9.229   7.500 -1.5958 -1.2526  1.3720
  936MOL0     H29142   8.447   8.963   7.432  1.0078 -0.5275  1.3304
  936MOL0     H29143   8.375   9.092   7.551 -1.6212  0.4736 -2.2644
  936MOL0     H29144   8.571   9.048   7.693 -2.7135 -0.6408  1.9064
  936MOL0     H29145   8.648   8.955   7.561 -0.1640  1.2098  0.1041
  936MOL0     H29146   8.570   8.806   7.744 -2.9012 -2.1802  1.6248
  936MOL0     H29147   8.500   8.770   7.590 -0.3760 -1.0547  1.9597
  936MOL0     H29148   8.468   9.688   7.008 -0.9717  0.1924  1.1925
  936MOL0     H29149   8.647   9.840   6.905  1.4362  0.4305 -0.1883
  936MOL0     H29150   9.034   9.974   6.696  0.7870 -0.3827  0.8345
  936MOL0     H29151   9.239  10.109   6.644 -0.0782 -0.9588  0.4671
  936MOL0     H29152  10.428   9.552   6.934 -0.4891  0.9663 -0.5390
  936MOL0     H29153  10.367   9.341   6.834  1.0825 -1.1886 -0.0865
  936MOL0     H29154  10.208   9.159   6.280  0.9631  0.1260 -0.1148
  936MOL0     H29155  10.202   8.933   6.207  0.8839  0.4978  0.1487
  936MOL0     H29156  10.317   8.697   6.176 -0.5651 -1.2178  0.2712
  936MOL0     H29157  10.402   8.787   6.310 -0.0834  0.7810 -2.5591
  936MOL0     H29158  10.418   8.552   6.429 -4.0680  1.3531  1.2408
  936MOL0     H29159  10.505   8.538   6.266  0.2660  1.8711 -0.6426
  936MOL0     H29160  10.223   8.472   6.324  2.2925  1.9452  2.8730
  936MOL0     H29161  10.283   8.460   6.159  0.9356 -2.4479 -0.2055
  936MOL0     H29162  10.448   8.274   6.225  2.1339 -0.2934  2.1107
  936MOL0     H29163  10.286   8.233   6.264  1.0657 -0.1273  0.0769
  936MOL0     H29164  10.492   8.254   6.639  0.6336 -0.4606  0.3682
  936MOL0     H29165  10.162   8.776   6.595 -3.7462  0.7243  2.2683
  936MOL0     H29166  10.170   8.927   6.784 -2.0846  0.1088  0.7607
  936MOL0     H29167  10.205   9.104   6.778 -1.5987  1.1249  1.4592
  936MOL0     H29168  10.039   9.035   6.747  0.2345  0.6048 -0.7339
  937MOL0     O29169   2.753   1.270   6.680  0.3380  0.0872 -0.5084
  937MOL0     C29170   2.793   1.388   6.692 -0.2197 -1.0956  0.4846
  937MOL0     O29171   2.911   1.419   6.739  0.6317 -0.0151 -0.0026
  937MOL0     C29172   3.015   1.328   6.748  0.2082  0.2782  0.0247
  937MOL0     C29173   3.034   1.224   6.665 -0.6417 -0.1108  0.2429
  937MOL0     C29174   3.150   1.146   6.672  0.8650 -0.8189 -0.7961
  937MOL0     C29175   3.251   1.177   6.768 -0.5989 -0.0453  0.4304
  937MOL0     O29176   3.368   1.100   6.788 -0.5431 -1.1527 -1.2020
  937MOL0     C29177   3.380   0.988   6.700  0.1509  0.6805  0.0759
  937MOL0     C29178   3.526   0.954   6.710 -0.3568 -0.1742  0.8533
  937MOL0     C29179   3.541   0.874   6.832 -0.4002  0.1648  0.3636
  937MOL0     C29180   3.482   0.733   6.825  0.0939 -0.2586  0.5678
  937MOL0     C29181   3.555   0.626   6.913  0.8556 -0.7041 -0.0187
  937MOL0     C29182   3.533   0.477   6.871 -0.5605  0.1557 -0.4671
  937MOL0     C29183   3.615   0.386   6.966  0.3994 -0.1743  0.1606
  937MOL0     C29184   3.555   0.246   6.978 -0.9229  0.9749 -0.0791
  937MOL0     N29185   3.578   0.167   6.848 -0.1760  0.2009  0.2451
  937MOL0     C29186   3.703   0.129   6.800  0.1086  0.1063  0.6558
  937MOL0     C29187   3.673   0.096   6.674  0.0191 -0.7359  0.3916
  937MOL0     C29188   3.778   0.071   6.567  0.2265  1.1784 -0.2731
  937MOL0     C29189   3.843   0.208   6.525 -0.3187 -0.5400  0.0884
  937MOL0     C29190   3.783   0.262   6.387 -0.5265  1.1260 -0.4382
  937MOL0     C29191   3.881   0.290   6.274  0.7880  0.9490  0.2915
  937MOL0     O29192   3.901   0.158   6.209 -0.3748 -0.0453 -0.3441
  937MOL0     C29193   3.900   0.147   6.072 -0.3695  0.0561  0.6505
  937MOL0     C29194   3.893   0.012   6.030  0.5766  0.0569  0.0040
  937MOL0     C29195   3.908  -0.023   5.897 -0.8732  0.6397  0.1433
  937MOL0     C29196   3.907  -0.178   5.866 -0.0288  0.3140 -0.3931
  937MOL0     C29197   3.940   0.085   5.797  0.5313  0.0930 -0.9356
  937MOL0     C29198   3.995   0.045   5.663 -0.1435 -0.5094  0.2141
  937MOL0     O29199   3.926  -0.038   5.584  0.2523  0.0251 -1.1311
  937MOL0     C29200   3.988  -0.081   5.473 -0.5227 -0.5160  0.1125
  937MOL0     C29201   3.915  -0.083   5.359 -0.3894 -0.1072  0.4362
  937MOL0     C29202   3.984  -0.115   5.242  0.0281  0.0953  0.0267
  937MOL0     C29203   4.114  -0.159   5.240 -1.2429  0.7146 -0.0135
  937MOL0     O29204   4.192  -0.199   5.130  0.5734 -0.3621  0.5296
  937MOL0     C29205   4.120  -0.217   5.006  0.8389 -0.3676  0.4123
  937MOL0     C29206   4.212  -0.202   4.878 -0.0693 -0.2477 -0.7700
  937MOL0     C29207   4.124  -0.205   4.756  0.2947  0.5444 -0.1822
  937MOL0     C29208   4.175  -0.128   4.631  0.1047  0.1567 -0.9924
  937MOL0     C29209   4.069  -0.108   4.524 -0.5235 -0.0479 -0.4416
  937MOL0     C29210   3.951  -0.033   4.579  0.4372 -0.1877 -0.5160
  937MOL0     C29211   3.894   0.081   4.491  0.0168  0.2466  1.5416
  937MOL0     C29212   3.745   0.108   4.502  0.1290 -1.3319  0.1214
  937MOL0    Cl29213   3.674   0.246   4.413 -0.6187  0.4175  0.1733
  937MOL0     C29214   4.181  -0.177   5.359 -0.1277 -0.3358 -0.2842
  937MOL0     C29215   4.121  -0.129   5.474 -0.1235  0.4687 -0.5406
  937MOL0     O29216   4.098   0.104   5.636  0.0505 -0.2396 -0.7101
  937MOL0     C29217   3.951   0.220   5.847 -0.1966 -0.0741 -0.4797
  937MOL0     C29218   3.938   0.252   5.981  0.5996 -0.2351 -0.3045
  937MOL0     N29219   3.533   0.079   6.666 -0.8060  0.5517  0.1117
  937MOL0     N29220   3.479   0.111   6.774  0.2653 -1.3000 -0.4892
  937MOL0     C29221   3.225   1.290   6.853 -1.0056  0.5967 -0.3181
  937MOL0     C29222   3.117   1.368   6.836  0.3424 -0.3844  0.2018
  937MOL0     C29223   2.720   1.489   6.629 -0.7303 -0.0939  0.1188
  937MOL0     C29224   2.796   1.580   6.539 -0.2595 -0.2744 -0.3001
  937MOL0     C29225   2.737   1.697   6.503 -0.9817  0.4572 -0.5078
  937MOL0     C29226   2.602   1.721   6.530  0.1417 -0.6477  0.5708
  937MOL0     O29227   2.562   1.848   6.494 -0.0793 -0.0847 -0.5937
  937MOL0     C29228   2.460   1.898   6.582 -0.3826  0.8618 -0.2177
  937MOL0     C29229   2.327   1.886   6.505 -0.3514  0.2627 -0.9103
  937MOL0     C29230   2.214   1.946   6.595  0.2425  0.6701 -0.8128
  937MOL0     C29231   2.162   1.848   6.709 -0.6542  0.8289  0.2953
  937MOL0     C29232   2.245   1.793   6.819 -0.7262  1.0046 -0.2991
  937MOL0     C29233   2.306   1.737   6.913  0.5081 -0.1992 -0.7384
  937MOL0     C29234   2.529   1.629   6.601  1.1161 -0.1929  0.0083
  937MOL0     C29235   2.586   1.509   6.644 -0.1119 -0.5539  0.3656
  937MOL0     C29236   2.491   1.438   6.739 -0.2282 -0.3574  0.1395
  937MOL0     H29237   2.956   1.199   6.594 -1.4941 -0.7614  1.3957
  937MOL0     H29238   3.156   1.057   6.610  2.3087  0.2542 -2.3275
  937MOL0     H29239   3.365   1.002   6.593  2.3332  1.2494 -0.2029
  937MOL0     H29240   3.313   0.905   6.726  3.1524 -2.2569 -0.8418
  937MOL0     H29241   3.547   0.889   6.624 -2.7527  2.2496 -1.7935
  937MOL0     H29242   3.599   1.034   6.699  0.8004 -1.5271 -2.8451
  937MOL0     H29243   3.647   0.857   6.853 -0.6254 -0.5219  0.9901
  937MOL0     H29244   3.508   0.925   6.923  2.0441 -0.0049  1.4202
  937MOL0     H29245   3.376   0.729   6.849 -0.4346  0.2411 -1.4714
  937MOL0     H29246   3.488   0.690   6.725  1.2418  0.0710  0.4709
  937MOL0     H29247   3.526   0.655   7.015 -1.4465  1.0396 -1.0852
  937MOL0     H29248   3.663   0.639   6.902  0.3489  1.8185 -4.3334
  937MOL0     H29249   3.428   0.448   6.884 -0.4530  0.4048  1.0649
  937MOL0     H29250   3.566   0.454   6.769  0.8234  2.3621 -0.5861
  937MOL0     H29251   3.626   0.435   7.063 -1.2646 -2.5949  1.6797
  937MOL0     H29252   3.716   0.395   6.924  3.0056 -1.7938  5.2188
  937MOL0     H29253   3.608   0.193   7.057  0.8093 -1.1897 -2.5424
  937MOL0     H29254   3.448   0.233   6.994 -1.3949 -0.0203 -3.3158
  937MOL0     H29255   3.798   0.146   6.851  1.3333 -0.1341 -1.4244
  937MOL0     H29256   3.727   0.022   6.484 -1.9859 -1.0784  2.2594
  937MOL0     H29257   3.853   0.005   6.611  0.9935  1.6973 -0.7602
  937MOL0     H29258   3.816   0.278   6.604 -0.1565 -1.0434  0.5996
  937MOL0     H29259   3.950   0.189   6.510 -0.4879  0.3147 -2.9832
  937MOL0     H29260   3.714   0.187   6.346  3.7305 -2.0883 -2.5468
  937MOL0     H29261   3.732   0.355   6.415  2.5894  2.1892  2.3539
  937MOL0     H29262   3.826   0.355   6.205 -1.8548 -0.8300  0.5840
  937MOL0     H29263   3.976   0.331   6.311  1.1918  1.1309 -0.9018
  937MOL0     H29264   3.876  -0.068   6.102 -2.0351 -0.5932 -1.2243
  937MOL0     H29265   3.936  -0.238   5.953 -0.1265 -2.9221 -2.4123
  937MOL0     H29266   3.972  -0.206   5.783  1.1742  0.6835  0.4076
  937MOL0     H29267   3.804  -0.202   5.837 -0.2587 -0.6348  1.0996
  937MOL0     H29268   3.813  -0.044   5.356 -0.0212  1.9759  5.1701
  937MOL0     H29269   3.924  -0.113   5.152  0.9207  1.5085 -0.5754
  937MOL0     H29270   4.047  -0.297   5.000 -1.9987  1.9979  0.9927
  937MOL0     H29271   4.058  -0.128   4.990  2.2774  0.5577 -0.3061
  937MOL0     H29272   4.271  -0.110   4.888  1.9618 -1.6660  1.5999
  937MOL0     H29273   4.289  -0.278   4.869  0.1870  0.0127 -0.7791
  937MOL0     H29274   4.024  -0.184   4.794  0.3440 -1.0259  0.9153
  937MOL0     H29275   4.120  -0.309   4.723  0.6825  0.9863 -1.6838
  937MOL0     H29276   4.269  -0.173   4.598 -0.2269 -1.2610 -0.1262
  937MOL0     H29277   4.215  -0.034   4.670  0.1269 -2.1271  5.7567
  937MOL0     H29278   4.114  -0.049   4.443 -1.1203  1.6818  0.4308
  937MOL0     H29279   4.037  -0.202   4.479  1.6234 -1.4145  0.6820
  937MOL0     H29280   3.968   0.016   4.676  1.7492 -1.0184 -0.2983
  937MOL0     H29281   3.866  -0.099   4.598 -1.0436  1.5707 -0.7072
  937MOL0     H29282   3.900   0.062   4.383  2.2819  4.4838  0.7201
  937MOL0     H29283   3.960   0.167   4.502 -0.1012  0.5033  0.3786
  937MOL0     H29284   3.719   0.109   4.608  0.2793  0.9890  0.1970
  937MOL0     H29285   3.690   0.026   4.456  0.4393 -1.8949  0.7413
  937MOL0     H29286   4.283  -0.208   5.339 -0.7470 -1.7613 -1.3398
  937MOL0     H29287   4.184  -0.125   5.563 -1.0320  0.7263  0.1009
  937MOL0     H29288   3.991   0.290   5.774  0.3015 -0.8137 -0.9326
  937MOL0     H29289   3.966   0.351   6.018 -2.3269  0.4363  0.3677
  937MOL0     H29290   3.299   1.306   6.931 -0.5508  1.7217 -0.9654
  937MOL0     H29291   3.107   1.446   6.911  2.3832  0.9105 -0.7836
  937MOL0     H29292   2.903   1.571   6.528 -0.3317 -0.2962 -1.0729
  937MOL0     H29293   2.793   1.772   6.448  1.1935 -0.0903  0.8326
  937MOL0     H29294   2.447   1.845   6.677  0.5466 -2.1956 -1.6952
  937MOL0     H29295   2.491   2.001   6.605  2.0779 -0.2065  1.8259
  937MOL0     H29296   2.316   1.782   6.474  1.0237 -0.3410  0.4747
  937MOL0     H29297   2.328   1.948   6.415  1.6639  1.4694 -0.1405
  937MOL0     H29298   2.246   2.039   6.644 -1.9745  1.1551 -0.1970
  937MOL0     H29299   2.130   1.970   6.529  1.4493  0.2798 -2.5626
  937MOL0     H29300   2.114   1.763   6.660 -1.1508 -1.2576  4.0401
  937MOL0     H29301   2.098   1.902   6.778 -1.2835 -1.4730  1.6074
  937MOL0     H29302   2.350   1.690   6.998 -2.9111 -1.7413  0.3686
  937MOL0     H29303   2.421   1.633   6.609  0.4558 -1.4478 -4.8533
  937MOL0     H29304   2.402   1.409   6.682  1.0669 -0.1828 -2.1022
  937MOL0     H29305   2.531   1.348   6.787  0.0168 -0.1101  0.4004
  937MOL0     H29306   2.462   1.498   6.825 -0.1362  1.1854 -0.8797
  938MOL0     O29307   5.677   1.096   0.831  0.0595 -0.2121 -0.0479
  938MOL0     C29308   5.690   0.987   0.887  0.5478 -0.3525  0.4981
  938MOL0     O29309   5.713   0.968   1.018 -0.1530  0.0658 -0.6763
  938MOL0     C29310   5.718   1.089   1.090  0.2161  0.1440  0.7226
  938MOL0     C29311   5.802   1.197   1.070  0.8074 -0.1353 -0.6897
  938MOL0     C29312   5.798   1.304   1.159 -0.4882  0.3971 -0.0353
  938MOL0     C29313   5.712   1.315   1.263  0.0181 -0.0125  0.2318
  938MOL0     O29314   5.727   1.431   1.345  0.4159  1.3736  1.0565
  938MOL0     C29315   5.634   1.452   1.443 -0.0191 -0.3894  0.5105
  938MOL0     C29316   5.673   1.567   1.529  0.7785  0.2096 -0.0565
  938MOL0     C29317   5.565   1.606   1.633  0.1798  0.1456  0.4499
  938MOL0     C29318   5.567   1.500   1.740  0.2317 -0.4845  0.0461
  938MOL0     C29319   5.450   1.539   1.847  0.2849  0.3673  0.3311
  938MOL0     C29320   5.306   1.484   1.798  0.0963 -0.4779 -0.3878
  938MOL0     C29321   5.202   1.487   1.910  0.1236 -0.7947  0.0470
  938MOL0     C29322   5.175   1.626   1.956  0.8832 -0.3409  0.7160
  938MOL0     N29323   5.064   1.630   2.052  0.0790  1.1586 -0.7544
  938MOL0     C29324   4.984   1.739   2.070  0.3821  1.3348  0.4547
  938MOL0     C29325   4.899   1.710   2.174  0.4056  0.0101  0.9147
  938MOL0     C29326   4.813   1.826   2.234 -0.2912  0.0311 -0.6825
  938MOL0     C29327   4.664   1.846   2.180 -0.4201  0.2039  0.1278
  938MOL0     C29328   4.582   1.907   2.305  0.2944 -0.2037  0.6145
  938MOL0     C29329   4.637   2.038   2.358 -0.9905 -0.4095  0.4797
  938MOL0     O29330   4.771   2.035   2.420  0.3556 -0.4656  0.2097
  938MOL0     C29331   4.817   2.160   2.472 -0.1205  0.2278 -0.3996
  938MOL0     C29332   4.743   2.279   2.440  0.0345 -0.6668  0.3375
  938MOL0     C29333   4.772   2.397   2.511  0.1934  0.0236  0.3837
  938MOL0     C29334   4.681   2.522   2.470  0.5377  0.6863  0.6723
  938MOL0     C29335   4.876   2.403   2.612  0.0634  0.0252  0.1520
  938MOL0     C29336   4.891   2.510   2.711  0.2950 -0.1568  0.2545
  938MOL0     O29337   4.969   2.482   2.815 -0.3457 -0.0120  0.4056
  938MOL0     C29338   4.968   2.565   2.922  0.6225  0.8395  0.4940
  938MOL0     C29339   4.848   2.615   2.973 -0.7811 -0.1057  0.0157
  938MOL0     C29340   4.851   2.690   3.094 -0.2752  0.4601 -0.6470
  938MOL0     C29341   4.963   2.702   3.169 -0.2851  0.3944 -0.3349
  938MOL0     O29342   4.939   2.765   3.290  0.0506 -0.1880  0.7128
  938MOL0     C29343   5.045   2.803   3.372 -0.0968  0.0268  0.6024
  938MOL0     C29344   4.986   2.807   3.515  0.6043 -0.4942  0.4106
  938MOL0     C29345   5.105   2.797   3.607 -0.1381 -0.1815 -0.4325
  938MOL0     C29346   5.061   2.745   3.754 -0.7587 -0.2165  0.5267
  938MOL0     C29347   5.189   2.783   3.842 -0.3208 -0.8805 -0.0328
  938MOL0     C29348   5.185   2.740   3.990  0.7587 -0.1620  0.1448
  938MOL0     C29349   5.316   2.738   4.073  0.1914 -0.4282  0.5531
  938MOL0     C29350   5.405   2.622   4.018 -1.2305 -0.4106 -0.0810
  938MOL0    Cl29351   5.562   2.599   4.111  0.1077  0.4306  0.4672
  938MOL0     C29352   5.085   2.650   3.122  0.4806 -0.0718  0.3110
  938MOL0     C29353   5.085   2.573   3.004  0.0190 -0.4475  0.1951
  938MOL0     O29354   4.822   2.610   2.700 -0.0656 -0.2360 -0.4778
  938MOL0     C29355   4.959   2.292   2.611 -0.6810 -0.6483 -0.6658
  938MOL0     C29356   4.934   2.173   2.542  0.1524 -0.2666  0.0482
  938MOL0     N29357   4.930   1.585   2.222 -0.4066  0.3080  0.1488
  938MOL0     N29358   5.030   1.539   2.152 -0.1081  0.1567 -0.1595
  938MOL0     C29359   5.618   1.212   1.282  0.5174 -0.5011  0.1619
  938MOL0     C29360   5.620   1.104   1.189 -0.7299  0.4815 -0.7514
  938MOL0     C29361   5.689   0.859   0.799 -0.1834 -0.8921  1.5065
  938MOL0     C29362   5.630   0.880   0.674  0.5199 -0.3739  0.1447
  938MOL0     C29363   5.637   0.776   0.575 -0.2439  0.1212  0.1977
  938MOL0     C29364   5.685   0.652   0.614  0.1441 -0.2824 -0.3589
  938MOL0     O29365   5.709   0.554   0.530  0.1232 -0.4515  0.3283
  938MOL0     C29366   5.674   0.568   0.391 -0.0115 -0.5660 -0.1950
  938MOL0     C29367   5.725   0.452   0.318 -0.8911  0.3894 -0.1154
  938MOL0     C29368   5.871   0.401   0.341  0.5519  0.6719 -0.4745
  938MOL0     C29369   5.977   0.490   0.272 -0.3867  0.6038  0.3227
  938MOL0     C29370   6.113   0.435   0.300 -0.0149  0.6541 -0.3183
  938MOL0     C29371   6.220   0.384   0.330  0.0487  0.7132  0.0473
  938MOL0     C29372   5.742   0.633   0.738 -0.8444 -0.3095 -0.0280
  938MOL0     C29373   5.750   0.731   0.838 -0.6441 -0.2034  0.0975
  938MOL0     C29374   5.844   0.694   0.956  0.6063 -0.4246 -1.0386
  938MOL0     H29375   5.883   1.191   0.998  1.3268 -2.5497  0.0357
  938MOL0     H29376   5.860   1.393   1.161 -2.6200  1.9460  1.0958
  938MOL0     H29377   5.642   1.363   1.506  0.9373 -1.2706 -0.8056
  938MOL0     H29378   5.533   1.458   1.400  0.7290  3.5250 -1.0963
  938MOL0     H29379   5.763   1.552   1.591  1.5466  2.4081 -0.5422
  938MOL0     H29380   5.697   1.650   1.462 -0.9454 -0.1252 -1.1195
  938MOL0     H29381   5.573   1.703   1.684 -0.1406 -0.8741  2.5399
  938MOL0     H29382   5.470   1.592   1.581  1.6524  0.1304 -2.4882
  938MOL0     H29383   5.559   1.396   1.706  1.2733 -0.7368  0.5480
  938MOL0     H29384   5.660   1.511   1.796  0.3401  2.9564 -0.5671
  938MOL0     H29385   5.449   1.647   1.864 -0.1375  0.7546 -1.9053
  938MOL0     H29386   5.483   1.496   1.942 -4.6296 -1.7561  1.3516
  938MOL0     H29387   5.263   1.532   1.709  1.3360  0.9697 -0.2305
  938MOL0     H29388   5.302   1.376   1.778  1.2371 -0.4720 -0.7001
  938MOL0     H29389   5.234   1.429   1.997 -0.0719  0.7632  1.1898
  938MOL0     H29390   5.111   1.448   1.864  0.0948 -2.5751  1.4835
  938MOL0     H29391   5.267   1.665   2.000  0.9881 -0.8214  0.9324
  938MOL0     H29392   5.150   1.683   1.866 -0.1143  0.7218  1.6249
  938MOL0     H29393   5.007   1.833   2.022  2.8428 -0.4310 -2.1832
  938MOL0     H29394   4.872   1.915   2.210 -0.9264  0.7307  0.3000
  938MOL0     H29395   4.814   1.813   2.342  1.8880 -0.7459 -0.7593
  938MOL0     H29396   4.656   1.927   2.107 -0.1500 -0.1064 -0.2520
  938MOL0     H29397   4.621   1.753   2.142 -0.9221  0.7317 -0.6246
  938MOL0     H29398   4.481   1.933   2.273 -0.1775 -1.6686  0.8371
  938MOL0     H29399   4.582   1.842   2.393 -1.3208  0.6639  1.2728
  938MOL0     H29400   4.639   2.108   2.274  0.3093  0.2829  1.0322
  938MOL0     H29401   4.563   2.084   2.424 -1.1744  1.7460 -1.1125
  938MOL0     H29402   4.661   2.277   2.370  0.7136  0.8230 -0.5447
  938MOL0     H29403   4.742   2.603   2.430 -1.9945  1.5794 -1.7066
  938MOL0     H29404   4.623   2.557   2.556  0.9184  3.2809 -0.0543
  938MOL0     H29405   4.607   2.490   2.395  1.8693  0.6780 -0.6791
  938MOL0     H29406   4.750   2.592   2.933  0.6086 -2.0155 -2.6215
  938MOL0     H29407   4.762   2.740   3.129  0.4625 -0.1986  2.4853
  938MOL0     H29408   5.124   2.728   3.377 -0.0399  0.1052  0.9202
  938MOL0     H29409   5.093   2.896   3.343  2.2311 -0.0039  3.8193
  938MOL0     H29410   4.942   2.906   3.526  0.4559 -0.6004  0.7676
  938MOL0     H29411   4.910   2.732   3.539 -0.9482 -0.0140 -2.5478
  938MOL0     H29412   5.148   2.897   3.610 -1.4316  0.3817  0.5804
  938MOL0     H29413   5.183   2.730   3.570 -2.0953 -1.4209 -2.5778
  938MOL0     H29414   5.050   2.636   3.754 -3.2325 -0.1031  3.5876
  938MOL0     H29415   4.968   2.795   3.781 -1.4883 -0.0087 -2.1060
  938MOL0     H29416   5.280   2.739   3.800  0.1726 -0.4154  0.5181
  938MOL0     H29417   5.201   2.891   3.827  1.0614 -0.7652  1.6034
  938MOL0     H29418   5.140   2.640   3.989  2.7607 -1.1390 -2.0413
  938MOL0     H29419   5.111   2.803   4.041 -1.3144 -1.9916 -0.4826
  938MOL0     H29420   5.298   2.721   4.179 -1.5349 -1.9823  0.0768
  938MOL0     H29421   5.360   2.837   4.064 -0.5977 -0.0649  0.5880
  938MOL0     H29422   5.433   2.644   3.914  0.3325 -0.2115  0.3591
  938MOL0     H29423   5.350   2.528   4.005 -0.0715 -1.0653 -0.4531
  938MOL0     H29424   5.165   2.656   3.195 -1.0803  0.5219  2.0505
  938MOL0     H29425   5.177   2.529   2.967 -0.7836 -0.1298 -2.3631
  938MOL0     H29426   5.046   2.298   2.676 -2.6955 -0.4077  2.1863
  938MOL0     H29427   5.006   2.092   2.556  1.0742  0.4611 -0.3485
  938MOL0     H29428   5.544   1.220   1.362  1.2723  0.5805  0.7768
  938MOL0     H29429   5.543   1.028   1.193 -0.1053 -0.1406 -0.2173
  938MOL0     H29430   5.572   0.969   0.651  0.2101 -0.4598  0.5721
  938MOL0     H29431   5.590   0.789   0.477  0.3656 -2.1031 -0.4443
  938MOL0     H29432   5.565   0.575   0.390 -0.0173  0.2038  1.5513
  938MOL0     H29433   5.715   0.663   0.355 -0.9116  0.2822  0.9347
  938MOL0     H29434   5.712   0.474   0.212 -0.0931  5.7273  0.6334
  938MOL0     H29435   5.667   0.363   0.346 -0.1305  0.8728  3.3786
  938MOL0     H29436   5.886   0.405   0.450  0.6525  2.6788 -0.5185
  938MOL0     H29437   5.887   0.298   0.307  0.3361  1.4199 -3.0679
  938MOL0     H29438   5.978   0.585   0.327 -2.6454  0.8291  0.0355
  938MOL0     H29439   5.949   0.503   0.167 -0.0154  0.0713  0.1538
  938MOL0     H29440   6.306   0.328   0.359 -1.3637 -2.9924 -2.3101
  938MOL0     H29441   5.789   0.538   0.761  2.6373  1.8965  3.1702
  938MOL0     H29442   5.782   0.671   1.043  1.8379 -2.1063 -0.5518
  938MOL0     H29443   5.904   0.604   0.939  1.1389 -0.2604 -0.0539
  938MOL0     H29444   5.915   0.774   0.975 -1.0617  1.2390 -1.4662
  939MOL0     O29445   4.898   5.127  10.264  1.0798  0.2219 -0.3891
  939MOL0     C29446   5.018   5.130  10.279  0.2370 -0.3684  1.1817
  939MOL0     O29447   5.091   5.138  10.392 -0.1768 -0.2098 -0.3579
  939MOL0     C29448   5.027   5.197  10.498  0.6549 -0.8005  0.0361
  939MOL0     C29449   5.018   5.124  10.608 -0.2251  0.6179  0.5566
  939MOL0     C29450   4.960   5.178  10.727  0.0765 -0.6170  0.1835
  939MOL0     C29451   4.911   5.311  10.719  0.8972  0.0336 -0.3569
  939MOL0     O29452   4.868   5.372  10.836 -0.2633  0.9792  0.0900
  939MOL0     C29453   4.944   5.483  10.889 -0.0197 -0.7150 -0.0665
  939MOL0     C29454   5.096   5.466  10.922 -0.9076  0.5993  0.0691
  939MOL0     C29455   5.159   5.559  11.018 -0.1362 -0.0507 -0.5665
  939MOL0     C29456   5.137   5.709  10.979 -0.2392  0.7521 -0.8904
  939MOL0     C29457   5.217   5.804  11.069  0.1407 -0.4139  0.0685
  939MOL0     C29458   5.125   5.921  11.111 -0.4766 -0.5056 -0.8418
  939MOL0     C29459   5.091   6.000  10.985 -0.4831 -0.4428 -0.4362
  939MOL0     C29460   4.953   6.067  11.001  0.3255 -0.3695 -0.1989
  939MOL0     N29461   4.843   5.978  10.971 -0.3719 -0.3809  0.5529
  939MOL0     C29462   4.801   5.928  10.847  0.0017  1.1284  0.2088
  939MOL0     C29463   4.717   5.828  10.894 -0.8010  0.3225  0.6621
  939MOL0     C29464   4.663   5.711  10.807 -0.1005 -0.1943  0.2356
  939MOL0     C29465   4.572   5.599  10.860 -0.5025 -0.7508 -0.2519
  939MOL0     C29466   4.519   5.519  10.743 -0.9672 -0.1634  0.1527
  939MOL0     C29467   4.430   5.405  10.791  0.1172  1.6925  0.6960
  939MOL0     O29468   4.361   5.338  10.682  0.0115 -0.0966  1.1631
  939MOL0     C29469   4.442   5.243  10.616  1.2050 -0.4952  0.1734
  939MOL0     C29470   4.385   5.195  10.503  0.6627 -0.0096  0.0429
  939MOL0     C29471   4.419   5.081  10.436 -0.7207 -0.2553 -0.7313
  939MOL0     C29472   4.320   5.043  10.323 -0.6720 -0.3197 -1.3196
  939MOL0     C29473   4.534   5.011  10.481  0.4374  0.1193 -0.7454
  939MOL0     C29474   4.603   4.897  10.415 -0.5427 -0.1251 -0.1581
  939MOL0     O29475   4.705   4.834  10.484 -0.9592 -0.3895  0.2290
  939MOL0     C29476   4.758   4.733  10.418 -0.1139 -0.0354  0.0236
  939MOL0     C29477   4.842   4.747  10.301 -0.1473  0.8405  0.0649
  939MOL0     C29478   4.903   4.633  10.246  0.1933  0.0134 -1.2530
  939MOL0     C29479   4.888   4.508  10.310  0.2460 -0.8245 -0.3384
  939MOL0     O29480   4.949   4.395  10.259 -0.2473 -0.0693 -0.2375
  939MOL0     C29481   5.093   4.387  10.269 -0.3338 -1.2027  0.1668
  939MOL0     C29482   5.155   4.345  10.136  0.5102  0.3135  1.2140
  939MOL0     C29483   5.308   4.351  10.144  0.0024 -0.4318 -0.1952
  939MOL0     C29484   5.380   4.323  10.006 -0.3037 -0.5296  0.0385
  939MOL0     C29485   5.348   4.182   9.947  0.8839 -0.5870 -0.4293
  939MOL0     C29486   5.442   4.150   9.832  0.0967 -0.2687 -0.7813
  939MOL0     C29487   5.411   4.017   9.767  0.2319  0.2042  0.8169
  939MOL0     C29488   5.541   3.966   9.697  0.5140 -0.1600  0.2741
  939MOL0    Cl29489   5.652   3.893   9.813  0.3556 -0.1288 -0.3124
  939MOL0     C29490   4.802   4.497  10.423 -0.1443 -0.4080  0.2668
  939MOL0     C29491   4.738   4.604  10.478 -0.2957  0.1099 -0.6288
  939MOL0     O29492   4.557   4.855  10.310  1.1255  0.1401  0.8322
  939MOL0     C29493   4.601   5.076  10.593 -0.1249  0.3235 -0.0504
  939MOL0     C29494   4.546   5.179  10.667  0.3518  0.5793  0.3278
  939MOL0     N29495   4.696   5.827  11.028 -0.1964  0.5117 -0.5823
  939MOL0     N29496   4.765   5.928  11.077 -0.4338  0.2928 -0.0714
  939MOL0     C29497   4.902   5.384  10.598  0.5637  0.4240 -0.4934
  939MOL0     C29498   4.969   5.331  10.491 -0.7975  0.1992 -0.4344
  939MOL0     C29499   5.086   5.076  10.155 -0.1015 -0.3456  0.3937
  939MOL0     C29500   5.140   4.949  10.160 -0.3218  0.7897  0.5632
  939MOL0     C29501   5.210   4.908  10.045  0.0537 -0.2268  0.0461
  939MOL0     C29502   5.234   4.987   9.931 -1.2664  0.2568  0.1239
  939MOL0     O29503   5.294   4.940   9.815 -0.2044  0.3382 -0.1176
  939MOL0     C29504   5.388   4.829   9.820  0.1873  0.0163 -0.8191
  939MOL0     C29505   5.466   4.796   9.691 -0.4890  0.5996 -0.0045
  939MOL0     C29506   5.541   4.919   9.640 -0.4537  0.1081 -0.0123
  939MOL0     C29507   5.620   4.877   9.512  0.0432  0.0547  0.7775
  939MOL0     C29508   5.685   4.746   9.514 -0.0057 -0.5910 -0.0343
  939MOL0     C29509   5.760   4.654   9.519 -0.5221  0.4289  0.9657
  939MOL0     C29510   5.181   5.118   9.938 -0.5800 -0.7332 -0.5135
  939MOL0     C29511   5.104   5.172  10.045 -0.9912  1.1512  0.4827
  939MOL0     C29512   5.050   5.317  10.043 -0.0211  0.3820 -1.0658
  939MOL0     H29513   5.064   5.025  10.607  1.6242  1.3207  3.4274
  939MOL0     H29514   4.954   5.118  10.817 -1.3258 -2.0376 -0.7892
  939MOL0     H29515   4.895   5.501  10.985  0.3751 -1.6440  0.3201
  939MOL0     H29516   4.929   5.570  10.824 -1.4596 -0.9664 -0.1045
  939MOL0     H29517   5.111   5.369  10.970 -0.0823 -0.8205 -2.8217
  939MOL0     H29518   5.148   5.462  10.826  0.0694  0.6994  0.5709
  939MOL0     H29519   5.120   5.539  11.118 -1.8882 -1.3126 -1.4514
  939MOL0     H29520   5.265   5.533  11.020  0.1133  0.9633  1.5646
  939MOL0     H29521   5.175   5.726  10.878 -0.7313  0.5114 -1.1203
  939MOL0     H29522   5.029   5.724  10.977 -0.8069 -2.0330  1.6865
  939MOL0     H29523   5.313   5.837  11.030 -1.0964  1.2232 -1.7739
  939MOL0     H29524   5.245   5.749  11.159 -0.5030  1.9553  1.8062
  939MOL0     H29525   5.041   5.878  11.166  1.5312 -2.2474  1.0453
  939MOL0     H29526   5.166   5.982  11.191 -0.5320  0.5882 -1.6240
  939MOL0     H29527   5.102   5.943  10.893  1.7767 -1.0627  0.1485
  939MOL0     H29528   5.177   6.065  10.964  0.3982 -1.8557 -1.4036
  939MOL0     H29529   4.945   6.109  11.102  3.2108  0.5055 -0.2438
  939MOL0     H29530   4.947   6.144  10.925 -3.0475  1.6139  1.8498
  939MOL0     H29531   4.834   5.942  10.745  0.1229  2.2990  0.4033
  939MOL0     H29532   4.751   5.668  10.759 -0.5519 -0.9097  0.0363
  939MOL0     H29533   4.604   5.753  10.725 -1.6840 -0.2150  1.3105
  939MOL0     H29534   4.631   5.543  10.934 -0.2677  0.7290  0.7306
  939MOL0     H29535   4.487   5.640  10.917  1.5837  3.1086  0.4638
  939MOL0     H29536   4.466   5.585  10.674  2.0916  0.1186 -2.1769
  939MOL0     H29537   4.604   5.476  10.688  0.0155  3.5613 -1.5614
  939MOL0     H29538   4.486   5.349  10.866  2.2359  0.5070 -1.6832
  939MOL0     H29539   4.340   5.441  10.843 -0.7713 -0.6760  0.8895
  939MOL0     H29540   4.310   5.258  10.457  1.0948  1.3326  1.0876
  939MOL0     H29541   4.375   5.055  10.229  0.0210  0.7407 -0.7982
  939MOL0     H29542   4.236   5.113  10.325 -2.2989 -2.1982  1.5753
  939MOL0     H29543   4.270   4.947  10.338 -3.8174  1.4878  0.6681
  939MOL0     H29544   4.874   4.837  10.248  1.7907 -0.9886 -2.0949
  939MOL0     H29545   4.980   4.647  10.171  2.4778  3.7310  1.4497
  939MOL0     H29546   5.130   4.486  10.298 -0.0058  0.0956 -4.0601
  939MOL0     H29547   5.109   4.325  10.358 -0.0472 -2.2738 -0.6180
  939MOL0     H29548   5.119   4.248  10.102  0.3759  1.5460 -2.6796
  939MOL0     H29549   5.116   4.414  10.060  1.1631 -0.3344  0.2726
  939MOL0     H29550   5.339   4.278  10.219 -3.2501 -0.2708  1.5130
  939MOL0     H29551   5.341   4.448  10.181  1.2593 -1.0120  0.2587
  939MOL0     H29552   5.487   4.331  10.027 -0.7965 -1.2162  3.3705
  939MOL0     H29553   5.343   4.389   9.928 -2.2192 -0.8498  0.6059
  939MOL0     H29554   5.344   4.105  10.024 -0.6346 -0.8266 -0.7181
  939MOL0     H29555   5.243   4.182   9.917 -0.1372  0.7739  2.7095
  939MOL0     H29556   5.543   4.164   9.873  0.1115 -0.1010 -0.8744
  939MOL0     H29557   5.436   4.232   9.760  1.3301 -1.6174 -2.5113
  939MOL0     H29558   5.336   4.037   9.690  0.7021 -2.2054 -0.3726
  939MOL0     H29559   5.368   3.942   9.834 -0.9250  0.8891  0.8651
  939MOL0     H29560   5.600   4.038   9.639 -1.9106 -0.8938 -3.4408
  939MOL0     H29561   5.508   3.886   9.630  2.5353 -0.7153 -0.1187
  939MOL0     H29562   4.785   4.399  10.466 -2.2161 -0.7334 -1.1162
  939MOL0     H29563   4.668   4.582  10.559  1.3100 -2.2616  0.2401
  939MOL0     H29564   4.696   5.031  10.619 -1.2431 -2.4304 -0.4210
  939MOL0     H29565   4.603   5.210  10.754  0.4705 -0.2826  0.5612
  939MOL0     H29566   4.850   5.480  10.603 -0.6891 -0.2790  0.5358
  939MOL0     H29567   4.982   5.388  10.399 -0.2641  0.5000 -0.1718
  939MOL0     H29568   5.114   4.877  10.238  0.9981 -1.5073 -0.9875
  939MOL0     H29569   5.240   4.804  10.045 -1.2784 -0.7444 -3.4759
  939MOL0     H29570   5.468   4.843   9.894  2.6893  0.7718 -3.4802
  939MOL0     H29571   5.339   4.743   9.868  0.3599  0.4806  0.2202
  939MOL0     H29572   5.404   4.764   9.606  1.4772  3.1546 -2.6143
  939MOL0     H29573   5.531   4.709   9.703 -1.5415 -0.6497 -2.4578
  939MOL0     H29574   5.468   4.997   9.618  0.3983  0.8430 -0.2759
  939MOL0     H29575   5.617   4.957   9.709  1.6750 -0.3541 -1.9853
  939MOL0     H29576   5.697   4.952   9.496 -2.0075  2.9601  3.1948
  939MOL0     H29577   5.557   4.872   9.423  0.6523  1.0347  0.2714
  939MOL0     H29578   5.818   4.568   9.544 -1.2737 -0.3174  0.2019
  939MOL0     H29579   5.209   5.178   9.851 -1.5263  0.1688 -0.2144
  939MOL0     H29580   4.948   5.322  10.082 -0.7948 -0.3995 -2.8784
  939MOL0     H29581   5.114   5.374  10.111  3.2658 -2.1578 -1.7678
  939MOL0     H29582   5.065   5.359   9.943 -1.5530  3.4339 -0.1615
  940MOL0     O29583   7.516   5.428  10.613  0.1589 -0.3615  0.0834
  940MOL0     C29584   7.485   5.523  10.535 -0.0081  0.4053 -0.4956
  940MOL0     O29585   7.564   5.622  10.495 -0.3563  0.6784  0.0476
  940MOL0     C29586   7.696   5.613  10.537 -0.9754  0.4851  0.6201
  940MOL0     C29587   7.789   5.515  10.475  1.0974 -0.2508  0.8371
  940MOL0     C29588   7.917   5.534  10.515 -0.4338  0.2488  0.2387
  940MOL0     C29589   7.964   5.632  10.606 -0.4954 -0.5525 -0.0291
  940MOL0     O29590   8.097   5.639  10.649 -0.2251  0.2968  1.0138
  940MOL0     C29591   8.155   5.769  10.654  0.3765 -0.2086  0.2863
  940MOL0     C29592   8.285   5.748  10.731  0.6112  0.4450 -0.2854
  940MOL0     C29593   8.277   5.736  10.882 -0.0856 -0.0345  0.8431
  940MOL0     C29594   8.406   5.711  10.946 -0.0823 -0.3940 -0.1955
  940MOL0     C29595   8.394   5.720  11.103 -0.6772 -0.3211  0.6547
  940MOL0     C29596   8.533   5.677  11.155 -0.0864  0.1946 -1.0666
  940MOL0     C29597   8.525   5.691  11.308 -0.4613 -0.0796  0.0848
  940MOL0     C29598   8.670   5.683  11.360  0.3651 -0.1890  0.9044
  940MOL0     N29599   8.688   5.650  11.502 -0.1347  0.4800 -0.0552
  940MOL0     C29600   8.697   5.522  11.545 -0.4007 -0.2761  0.2243
  940MOL0     C29601   8.702   5.546  11.679 -0.5688  0.2226  0.3139
  940MOL0     C29602   8.691   5.432  11.772 -0.5633 -0.2863  0.3848
  940MOL0     C29603   8.550   5.378  11.795  0.2364  0.8436 -0.3764
  940MOL0     C29604   8.559   5.250  11.872  0.2491  0.4338  0.2697
  940MOL0     C29605   8.656   5.263  11.991  0.0629  1.0471 -0.4883
  940MOL0     O29606   8.652   5.132  12.057  0.2396  0.2645  0.1891
  940MOL0     C29607   8.738   5.094  12.160 -1.1565 -0.8664  1.4100
  940MOL0     C29608   8.714   4.969  12.224  0.4727 -0.5155  0.0021
  940MOL0     C29609   8.786   4.930  12.346  0.0890  0.8889  0.5174
  940MOL0     C29610   8.748   4.798  12.411  0.0673  0.3077 -0.7860
  940MOL0     C29611   8.888   5.017  12.402  0.1923 -0.3742 -0.2072
  940MOL0     C29612   8.948   4.988  12.530  0.5583  0.4110 -0.0604
  940MOL0     O29613   9.056   5.074  12.558 -0.5595  0.8712 -0.5929
  940MOL0     C29614   9.117   5.060  12.683 -1.4227  0.3540  0.0960
  940MOL0     C29615   9.066   5.013  12.812  1.0370 -0.2702 -0.1249
  940MOL0     C29616   9.142   5.017  12.926 -0.0920 -0.1888 -0.2766
  940MOL0     C29617   9.263   5.097  12.926 -0.1492  0.3468  0.2840
  940MOL0     O29618   9.334   5.111  13.043 -0.7169 -0.4727 -0.2574
  940MOL0     C29619   9.401   5.229  13.082  0.5086  0.7298  0.0568
  940MOL0     C29620   9.329   5.352  13.049  0.6043 -0.2757 -0.2069
  940MOL0     C29621   9.337   5.462  13.153 -0.0443  0.3263  0.0629
  940MOL0     C29622   9.279   5.600  13.104 -0.4623  0.8981  0.4765
  940MOL0     C29623   9.266   5.687  13.228  0.0678  0.3184  0.4687
  940MOL0     C29624   9.220   5.829  13.191 -1.3664 -0.2197  0.3776
  940MOL0     C29625   9.173   5.914  13.311 -0.0154  0.0122  0.0003
  940MOL0     C29626   9.201   6.056  13.298  0.2474  0.1992 -0.2460
  940MOL0    Cl29627   9.165   6.153  13.452 -0.3029  0.1207  0.0288
  940MOL0     C29628   9.320   5.148  12.808 -0.0879 -0.6213  0.3658
  940MOL0     C29629   9.247   5.119  12.691 -0.3751 -0.0435 -0.4546
  940MOL0     O29630   8.905   4.900  12.605  0.2999 -0.5209 -0.2445
  940MOL0     C29631   8.911   5.138  12.328 -0.9278  0.3108 -0.0864
  940MOL0     C29632   8.835   5.178  12.217  0.3326  0.4742 -0.0221
  940MOL0     N29633   8.712   5.679  11.714  0.1547 -0.8446  0.4620
  940MOL0     N29634   8.711   5.743  11.603  0.4039  0.1683  0.6439
  940MOL0     C29635   7.875   5.729  10.657  0.5176 -0.0503  0.1542
  940MOL0     C29636   7.741   5.714  10.618  0.4298  0.2066 -0.2546
  940MOL0     C29637   7.358   5.536  10.471 -0.2794  0.0003 -0.4590
  940MOL0     C29638   7.346   5.600  10.339 -0.4599 -0.0481 -0.2156
  940MOL0     C29639   7.232   5.617  10.277 -0.7000  0.3346  0.0467
  940MOL0     C29640   7.121   5.570  10.333 -0.2502  1.0629 -0.2035
  940MOL0     O29641   6.999   5.588  10.276  0.3166  0.4730 -0.1662
  940MOL0     C29642   6.981   5.574  10.131 -0.2985 -0.6838 -1.2687
  940MOL0     C29643   6.937   5.709  10.068  0.0588 -1.3425  0.2059
  940MOL0     C29644   6.836   5.787  10.159  0.0959  0.0770 -0.1343
  940MOL0     C29645   6.771   5.908  10.083 -0.5981  0.5512 -0.4244
  940MOL0     C29646   6.694   5.858   9.965 -1.0650  0.0504 -0.0414
  940MOL0     C29647   6.645   5.818   9.867 -0.3610  1.0832 -0.0312
  940MOL0     C29648   7.118   5.511  10.457  0.0033 -0.0199  0.1036
  940MOL0     C29649   7.238   5.491  10.532 -0.0810 -0.1094  0.6946
  940MOL0     C29650   7.229   5.440  10.673  0.3809 -0.4723 -0.2844
  940MOL0     H29651   7.753   5.434  10.413 -1.1578  0.0301  1.6992
  940MOL0     H29652   7.992   5.461  10.487  2.0232  0.6739  4.8539
  940MOL0     H29653   8.097   5.853  10.693  1.4259  2.3864 -3.1879
  940MOL0     H29654   8.180   5.789  10.549 -1.6405 -0.2216 -0.2452
  940MOL0     H29655   8.338   5.663  10.688  1.3853  1.2500 -0.9692
  940MOL0     H29656   8.348   5.834  10.703 -1.9744  1.5251 -3.3987
  940MOL0     H29657   8.220   5.825  10.912 -2.5049 -1.2803  0.2559
  940MOL0     H29658   8.214   5.657  10.924  1.0973 -0.6287  1.5418
  940MOL0     H29659   8.446   5.613  10.916 -0.4754 -0.4489 -0.5387
  940MOL0     H29660   8.477   5.791  10.922 -1.7721  1.8801  1.9547
  940MOL0     H29661   8.322   5.647  11.142 -0.2115 -1.4327 -0.4825
  940MOL0     H29662   8.371   5.823  11.132  1.8797  0.3489  0.5663
  940MOL0     H29663   8.565   5.576  11.129  1.5909  0.2161  0.6650
  940MOL0     H29664   8.602   5.748  11.109 -2.9248  2.5955 -1.9788
  940MOL0     H29665   8.464   5.614  11.355 -0.8145  1.7669  2.9592
  940MOL0     H29666   8.480   5.789  11.328 -2.5652 -1.0987  0.5495
  940MOL0     H29667   8.732   5.610  11.307  2.0527 -1.2133  4.0477
  940MOL0     H29668   8.703   5.787  11.349 -2.1170  0.5303 -0.5839
  940MOL0     H29669   8.689   5.431  11.486 -0.7703  1.3848 -2.4613
  940MOL0     H29670   8.744   5.461  11.863 -0.7273 -1.8369  1.0006
  940MOL0     H29671   8.740   5.345  11.729 -1.1382 -1.3324  1.7871
  940MOL0     H29672   8.486   5.447  11.851  0.2523  1.6022 -1.2583
  940MOL0     H29673   8.523   5.365  11.689  3.5602  1.5373 -1.4172
  940MOL0     H29674   8.464   5.221  11.919  0.1868  2.6860  1.6781
  940MOL0     H29675   8.603   5.169  11.813 -2.6921  0.4541 -2.2217
  940MOL0     H29676   8.759   5.284  11.961 -0.2899  1.5990 -1.3493
  940MOL0     H29677   8.625   5.340  12.063 -0.8647 -1.2765  1.7699
  940MOL0     H29678   8.629   4.908  12.194 -2.1046  2.1482  1.4438
  940MOL0     H29679   8.708   4.816  12.512 -0.1708 -0.4616 -0.7338
  940MOL0     H29680   8.828   4.724  12.421 -0.5680 -0.2636  0.4399
  940MOL0     H29681   8.669   4.744  12.358  1.6752 -1.7640 -1.1659
  940MOL0     H29682   8.974   4.956  12.809  0.5419  0.2310  2.6556
  940MOL0     H29683   9.104   4.968  13.015  2.2685 -0.3021  0.7316
  940MOL0     H29684   9.411   5.218  13.191 -0.6202  0.5616  0.1572
  940MOL0     H29685   9.505   5.229  13.048  1.5782  0.4703  3.0552
  940MOL0     H29686   9.361   5.395  12.955 -1.2030 -0.0185 -0.7552
  940MOL0     H29687   9.224   5.329  13.025  0.7954 -2.8957  1.0458
  940MOL0     H29688   9.440   5.478  13.185 -0.2298  3.2511 -0.4585
  940MOL0     H29689   9.282   5.432  13.243 -4.8118  1.0246 -2.2880
  940MOL0     H29690   9.181   5.587  13.058  0.2618 -0.9881 -0.6636
  940MOL0     H29691   9.350   5.655  13.042 -2.2148  3.2749  0.4353
  940MOL0     H29692   9.185   5.634  13.278  0.5814 -0.7476  0.2072
  940MOL0     H29693   9.353   5.698  13.294  0.0426  0.7840  0.4268
  940MOL0     H29694   9.144   5.843  13.113  0.8368 -3.7269 -2.7335
  940MOL0     H29695   9.310   5.879  13.155 -0.6456  0.0008  2.3926
  940MOL0     H29696   9.221   5.882  13.405 -1.0894  1.7766  1.2043
  940MOL0     H29697   9.066   5.909  13.331  0.2011  0.8616  1.5102
  940MOL0     H29698   9.145   6.102  13.215  1.3672  0.1071 -1.0782
  940MOL0     H29699   9.307   6.059  13.269  0.9432  2.0717  2.1555
  940MOL0     H29700   9.419   5.191  12.815 -0.0967 -0.8161  2.2454
  940MOL0     H29701   9.295   5.134  12.595  4.3314 -4.0174  0.8736
  940MOL0     H29702   8.964   5.215  12.384 -0.4872 -0.7770  1.0229
  940MOL0     H29703   8.863   5.273  12.173 -0.2145 -0.4818 -2.5502
  940MOL0     H29704   7.897   5.811  10.724  1.5109 -0.1669 -0.0234
  940MOL0     H29705   7.672   5.796  10.636 -0.9299 -1.0815  0.5884
  940MOL0     H29706   7.439   5.634  10.293 -0.3823  0.7830  0.5179
  940MOL0     H29707   7.219   5.675  10.187  0.4822 -3.0958 -2.5727
  940MOL0     H29708   7.068   5.534  10.079 -0.9047 -4.2450  0.1278
  940MOL0     H29709   6.907   5.495  10.112  1.8727 -3.2521  0.2805
  940MOL0     H29710   6.890   5.688   9.972 -1.2661 -0.7054  0.6947
  940MOL0     H29711   7.034   5.759  10.056  0.5383 -1.7334  2.0403
  940MOL0     H29712   6.760   5.719  10.197 -0.9462  0.5305 -1.3276
  940MOL0     H29713   6.901   5.828  10.237  0.5562 -0.3430 -0.2902
  940MOL0     H29714   6.855   5.975  10.064  2.5112 -1.0253  5.2085
  940MOL0     H29715   6.691   5.950  10.144 -1.6140 -1.4801 -0.2534
  940MOL0     H29716   6.598   5.781   9.778 -1.8838 -0.7635  1.4545
  940MOL0     H29717   7.026   5.477  10.504 -1.5346 -2.0424 -3.8696
  940MOL0     H29718   7.284   5.347  10.693  0.8167 -0.0703  0.4012
  940MOL0     H29719   7.269   5.513  10.743 -2.0126  1.8020 -1.1378
  940MOL0     H29720   7.127   5.412  10.702  1.2434 -1.4833  1.9426
  941MOL0     O29721   8.127   6.699   1.806 -0.4437 -0.4345 -0.0728
  941MOL0     C29722   8.008   6.664   1.830  0.8177  0.5351  1.2262
  941MOL0     O29723   7.921   6.607   1.734 -0.4555 -1.2302  0.1901
  941MOL0     C29724   7.959   6.564   1.605 -0.1714 -0.1204  0.2541
  941MOL0     C29725   7.952   6.641   1.489  0.4841  0.3016 -0.0276
  941MOL0     C29726   7.985   6.597   1.357  0.8723  0.2221 -1.4713
  941MOL0     C29727   8.022   6.463   1.343  0.6857 -0.1991  0.2547
  941MOL0     O29728   8.084   6.410   1.233 -0.0927 -0.3427 -0.0181
  941MOL0     C29729   7.996   6.381   1.126 -0.1771 -0.6383  0.1303
  941MOL0     C29730   8.092   6.330   1.021 -0.0414 -0.6783  0.0922
  941MOL0     C29731   8.019   6.257   0.898 -0.4411  0.7641 -0.7700
  941MOL0     C29732   7.954   6.351   0.797 -0.3191 -0.1747  0.0342
  941MOL0     C29733   7.906   6.277   0.673  0.5860 -0.4220 -0.2325
  941MOL0     C29734   7.773   6.214   0.688  0.0220 -0.1437  0.0299
  941MOL0     C29735   7.743   6.142   0.549 -0.3822 -0.2159 -0.6435
  941MOL0     C29736   7.633   6.040   0.585  0.0994  0.3882  0.0632
  941MOL0     N29737   7.573   5.978   0.464 -0.1915 -0.3011 -0.2934
  941MOL0     C29738   7.641   5.904   0.376 -0.0667  0.4208 -0.6387
  941MOL0     C29739   7.546   5.825   0.322 -0.8465  0.7855 -0.1425
  941MOL0     C29740   7.583   5.711   0.231  0.4259  0.0767  0.0278
  941MOL0     C29741   7.483   5.699   0.108  0.4841 -0.4152 -0.5229
  941MOL0     C29742   7.439   5.833   0.045  0.3065  0.2297  0.6346
  941MOL0     C29743   7.544   5.898  -0.047 -0.1661 -0.1397  0.7304
  941MOL0     O29744   7.672   5.936   0.021  0.5851  0.2340 -0.2519
  941MOL0     C29745   7.691   6.055   0.083  0.8500  0.6440 -0.1090
  941MOL0     C29746   7.832   6.091   0.087  0.9242  0.8990 -0.7349
  941MOL0     C29747   7.867   6.211   0.143 -1.4986 -0.3070  0.1281
  941MOL0     C29748   8.014   6.234   0.156  0.4135 -0.1168 -0.4603
  941MOL0     C29749   7.773   6.306   0.186 -0.5491  0.9096 -1.9398
  941MOL0     C29750   7.802   6.432   0.266 -0.0351  0.5064  0.2479
  941MOL0     O29751   7.929   6.476   0.265  0.3075 -0.1516 -0.1083
  941MOL0     C29752   7.949   6.587   0.323 -0.2183 -1.0577  0.0564
  941MOL0     C29753   8.052   6.611   0.422  0.0457 -0.1759 -0.1829
  941MOL0     C29754   8.061   6.742   0.476 -0.6457  0.7403  0.0225
  941MOL0     C29755   7.974   6.850   0.439 -0.7905  1.1537  0.6659
  941MOL0     O29756   8.012   6.972   0.487  0.2200  0.2046 -0.5430
  941MOL0     C29757   7.911   7.069   0.508 -0.2197  0.2511  0.1347
  941MOL0     C29758   7.994   7.198   0.517  0.2130  0.0183  0.6265
  941MOL0     C29759   7.911   7.325   0.516  1.2534 -0.2601 -0.5977
  941MOL0     C29760   7.886   7.390   0.655  0.0172  0.1751 -0.2400
  941MOL0     C29761   7.845   7.531   0.647 -0.2705  0.2313  0.3467
  941MOL0     C29762   7.724   7.577   0.563 -0.1399  0.4125  0.8010
  941MOL0     C29763   7.589   7.518   0.623 -0.2092  0.0360 -0.3967
  941MOL0     C29764   7.483   7.581   0.531 -0.4481  0.4603  0.0650
  941MOL0    Cl29765   7.448   7.745   0.569 -0.0256 -0.0105 -0.2939
  941MOL0     C29766   7.888   6.826   0.338  1.5607 -0.1608  0.8351
  941MOL0     C29767   7.874   6.695   0.276  0.1342  0.8343 -0.0747
  941MOL0     O29768   7.710   6.485   0.331 -0.3405  0.3046  0.2908
  941MOL0     C29769   7.637   6.274   0.166 -1.0577  0.8361 -0.4580
  941MOL0     C29770   7.598   6.151   0.123  0.5595 -0.8284  0.3066
  941MOL0     N29771   7.421   5.850   0.374 -0.0735  0.7167  0.2312
  941MOL0     N29772   7.439   5.942   0.460 -0.2249 -0.5206 -0.2408
  941MOL0     C29773   8.041   6.386   1.464 -1.1179 -0.9193 -0.2739
  941MOL0     C29774   8.007   6.434   1.594  1.0936  0.2609 -0.4732
  941MOL0     C29775   7.957   6.670   1.965 -0.0171  0.2478  0.4541
  941MOL0     C29776   7.854   6.586   2.009  1.0777 -0.0731 -0.1472
  941MOL0     C29777   7.812   6.586   2.147 -1.1246  1.4358 -1.0248
  941MOL0     C29778   7.871   6.673   2.233  0.2216  0.2053  0.4449
  941MOL0     O29779   7.818   6.682   2.362 -0.0969  0.5963 -0.1980
  941MOL0     C29780   7.867   6.776   2.457  0.2052  0.4141  0.0536
  941MOL0     C29781   7.818   6.921   2.431  0.0129 -0.2675 -0.0731
  941MOL0     C29782   7.886   7.007   2.541  0.0138  0.3971 -0.6931
  941MOL0     C29783   7.874   7.161   2.510 -0.0416  0.4013 -0.0380
  941MOL0     C29784   7.978   7.218   2.602 -1.0701 -0.2235 -0.0047
  941MOL0     C29785   8.068   7.261   2.675  0.5212  0.2244  0.6858
  941MOL0     C29786   7.981   6.758   2.188  0.2619 -0.4215 -0.1143
  941MOL0     C29787   8.013   6.760   2.057 -0.8379 -0.3671 -0.1735
  941MOL0     C29788   8.088   6.885   2.013 -0.3059  0.3238 -0.7312
  941MOL0     H29789   7.906   6.738   1.508  1.0699  0.8193 -1.1670
  941MOL0     H29790   7.976   6.670   1.277  0.9241  3.5291  1.3379
  941MOL0     H29791   7.941   6.467   1.086  2.0332  1.5837  1.5221
  941MOL0     H29792   7.921   6.305   1.151 -0.5886 -1.0105 -2.0138
  941MOL0     H29793   8.129   6.422   0.975  0.1777 -0.4130  0.7833
  941MOL0     H29794   8.173   6.275   1.069  1.3182  0.0962 -1.2401
  941MOL0     H29795   8.094   6.191   0.854 -2.2181 -1.5131 -0.5281
  941MOL0     H29796   7.943   6.189   0.936 -3.0140  4.6336  1.7525
  941MOL0     H29797   7.863   6.393   0.840 -0.6976 -1.0253  0.0873
  941MOL0     H29798   8.027   6.427   0.765  0.4653 -1.3155 -0.9949
  941MOL0     H29799   7.980   6.198   0.660 -0.7759 -1.5530 -1.5006
  941MOL0     H29800   7.905   6.341   0.584 -2.8176  0.7102  0.4367
  941MOL0     H29801   7.757   6.157   0.780  0.3662  1.8414  1.3861
  941MOL0     H29802   7.696   6.293   0.691 -3.1675 -2.9924 -0.3351
  941MOL0     H29803   7.830   6.082   0.522 -0.1565 -1.7524  2.9547
  941MOL0     H29804   7.728   6.221   0.475  0.3045 -1.8111 -2.5573
  941MOL0     H29805   7.657   5.957   0.651 -0.4776 -0.3816 -0.6837
  941MOL0     H29806   7.554   6.095   0.637  1.3174  2.7047 -0.3859
  941MOL0     H29807   7.747   5.885   0.359  0.4989 -2.9363  4.3758
  941MOL0     H29808   7.590   5.619   0.291 -0.0332 -0.3062 -0.4955
  941MOL0     H29809   7.678   5.723   0.177 -0.3770 -2.1044 -2.0240
  941MOL0     H29810   7.528   5.622   0.046 -1.6562 -1.0431 -1.3876
  941MOL0     H29811   7.389   5.655   0.144 -0.7841  0.0249 -3.0532
  941MOL0     H29812   7.365   5.810  -0.032  1.3771  0.4500 -0.4831
  941MOL0     H29813   7.404   5.913   0.111 -0.1389  1.3234 -0.8834
  941MOL0     H29814   7.574   5.829  -0.127  0.3224  1.6284 -0.6844
  941MOL0     H29815   7.498   5.987  -0.092  1.4242 -0.2706 -1.3198
  941MOL0     H29816   7.914   6.031   0.051  1.9301 -0.0241  2.7063
  941MOL0     H29817   8.069   6.159   0.098 -2.6894  0.1185 -4.0758
  941MOL0     H29818   8.057   6.229   0.257  1.1791 -2.9860 -0.8504
  941MOL0     H29819   8.044   6.323   0.100 -1.1560  0.7316 -0.0176
  941MOL0     H29820   8.114   6.529   0.456 -1.8683 -1.7237 -0.2228
  941MOL0     H29821   8.137   6.777   0.545 -0.8677  1.5278 -0.1149
  941MOL0     H29822   7.836   7.067   0.429 -0.8874 -0.2797  0.7600
  941MOL0     H29823   7.874   7.035   0.606  4.6697  0.3401  2.3242
  941MOL0     H29824   8.043   7.181   0.614  0.9266 -0.2253  0.2251
  941MOL0     H29825   8.075   7.208   0.445 -0.3150 -1.4497 -0.1953
  941MOL0     H29826   7.813   7.300   0.473  2.1235 -3.8677 -0.7675
  941MOL0     H29827   7.944   7.400   0.444 -0.3826  0.7974 -0.3132
  941MOL0     H29828   7.980   7.400   0.709 -0.6817 -1.0561  1.2905
  941MOL0     H29829   7.822   7.328   0.720  0.3541  0.3507  0.2658
  941MOL0     H29830   7.819   7.562   0.749 -0.8769 -0.1231  0.3109
  941MOL0     H29831   7.938   7.580   0.620 -0.0068 -0.8912 -0.8546
  941MOL0     H29832   7.726   7.538   0.461  2.1578 -0.3885  1.0892
  941MOL0     H29833   7.727   7.687   0.567 -2.0432  0.7035 -2.4973
  941MOL0     H29834   7.566   7.535   0.728 -4.4974 -1.7116 -0.8474
  941MOL0     H29835   7.591   7.409   0.613 -3.7552 -0.0539 -1.4378
  941MOL0     H29836   7.400   7.510   0.539 -1.7784  1.9567  0.1300
  941MOL0     H29837   7.520   7.581   0.428  3.0785 -3.3142  1.0685
  941MOL0     H29838   7.831   6.907   0.292 -2.3795 -2.1659  1.7367
  941MOL0     H29839   7.804   6.673   0.196 -0.1208 -0.9192  0.5950
  941MOL0     H29840   7.559   6.342   0.199 -2.5992 -0.2825 -1.6687
  941MOL0     H29841   7.492   6.135   0.104  0.1106  1.5424  0.4938
  941MOL0     H29842   8.077   6.284   1.452 -1.2833 -1.0569  0.3559
  941MOL0     H29843   8.016   6.364   1.676  1.3546 -2.2014 -2.5100
  941MOL0     H29844   7.797   6.525   1.939  0.7280 -0.6169  0.5818
  941MOL0     H29845   7.751   6.503   2.182  1.1167 -0.7611 -2.0292
  941MOL0     H29846   7.842   6.748   2.560  2.6494 -0.4941  0.4712
  941MOL0     H29847   7.976   6.775   2.447  0.4912  0.0956  2.5337
  941MOL0     H29848   7.709   6.911   2.440 -0.1613 -1.9104 -2.8241
  941MOL0     H29849   7.838   6.960   2.331  0.4051 -0.9899 -0.2817
  941MOL0     H29850   7.829   6.977   2.630 -0.8368  0.0611 -1.3432
  941MOL0     H29851   7.994   6.992   2.547 -0.5669 -4.9522  0.9585
  941MOL0     H29852   7.781   7.210   2.541  0.3409 -1.3487  4.6040
  941MOL0     H29853   7.902   7.180   2.406 -0.6718  2.1829  0.0841
  941MOL0     H29854   8.138   7.309   2.741 -1.6854  2.4517  1.5466
  941MOL0     H29855   8.024   6.828   2.259  0.0350 -1.4260  1.0521
  941MOL0     H29856   8.067   6.913   1.909 -3.6991 -0.1385 -0.2747
  941MOL0     H29857   8.068   6.972   2.077  2.4280 -0.1919  1.0213
  941MOL0     H29858   8.193   6.878   2.042 -0.7205 -2.1376  0.3831
  942MOL0     O29859   4.903   6.202   1.808 -0.7600  0.2331  0.0893
  942MOL0     C29860   4.869   6.098   1.858  0.3766  0.8053 -0.2815
  942MOL0     O29861   4.858   5.975   1.792  0.7131  0.2180 -0.1787
  942MOL0     C29862   4.925   5.961   1.670  0.2945 -0.3090 -0.0249
  942MOL0     C29863   5.068   5.951   1.671 -0.4311  0.7567  0.5402
  942MOL0     C29864   5.139   5.950   1.552 -0.6080  0.1132  0.2618
  942MOL0     C29865   5.065   5.946   1.430 -0.1520  0.0706 -0.0916
  942MOL0     O29866   5.129   5.947   1.312 -0.3803  0.1705  0.9010
  942MOL0     C29867   5.135   6.067   1.231  0.0692 -0.2308  0.2528
  942MOL0     C29868   5.125   6.013   1.088  0.2258 -0.0927 -0.6126
  942MOL0     C29869   5.141   6.124   0.987  0.3800  0.2229  0.3136
  942MOL0     C29870   5.180   6.067   0.856 -0.8687  0.1406  0.5968
  942MOL0     C29871   5.097   5.947   0.805  0.4398 -0.7531  0.7070
  942MOL0     C29872   4.948   5.979   0.809 -0.7049 -0.2198 -0.5574
  942MOL0     C29873   4.871   5.884   0.717 -1.1447 -0.0923  0.5354
  942MOL0     C29874   4.732   5.915   0.682 -0.0973  0.3941  0.0123
  942MOL0     N29875   4.724   6.030   0.591  0.3127  0.2530 -0.1684
  942MOL0     C29876   4.805   6.060   0.479  0.0027 -0.5218  0.0367
  942MOL0     C29877   4.742   6.170   0.428 -1.0636  0.1289 -0.6667
  942MOL0     C29878   4.785   6.247   0.312  0.6124 -0.3182 -0.4870
  942MOL0     C29879   4.846   6.382   0.366 -0.4184 -0.4653  0.2527
  942MOL0     C29880   4.996   6.366   0.408 -0.5622 -0.1206 -0.7821
  942MOL0     C29881   5.058   6.504   0.438  0.2224 -0.7199  0.2329
  942MOL0     O29882   5.158   6.468   0.540  0.2981 -0.5413 -0.2608
  942MOL0     C29883   5.233   6.572   0.599  0.4141  0.3782 -0.5300
  942MOL0     C29884   5.258   6.695   0.547  0.0542  0.6326  0.5928
  942MOL0     C29885   5.315   6.797   0.627  0.4169 -0.3878  0.0599
  942MOL0     C29886   5.361   6.915   0.550 -0.4604 -0.2763 -0.9651
  942MOL0     C29887   5.353   6.773   0.765  0.4490 -0.5535 -0.2632
  942MOL0     C29888   5.430   6.863   0.859 -0.0647 -1.1725 -0.2365
  942MOL0     O29889   5.421   6.834   0.993  0.1877 -1.0643  0.0472
  942MOL0     C29890   5.454   6.934   1.087 -0.2902 -0.2305 -0.1470
  942MOL0     C29891   5.519   6.881   1.200  0.4035 -0.7435  0.3743
  942MOL0     C29892   5.561   6.971   1.297 -0.2931 -0.0254 -0.1291
  942MOL0     C29893   5.537   7.109   1.289  0.2439  0.6886  0.2070
  942MOL0     O29894   5.588   7.203   1.374  0.2575  0.4439 -0.6295
  942MOL0     C29895   5.510   7.201   1.497 -0.1326  0.6950  0.4552
  942MOL0     C29896   5.612   7.212   1.613  0.4025  0.5933  0.0888
  942MOL0     C29897   5.718   7.097   1.606 -0.7454  0.0512  0.3988
  942MOL0     C29898   5.663   6.979   1.669  0.5985 -0.1567  0.4807
  942MOL0     C29899   5.755   6.859   1.661 -0.0505  0.1601  0.5517
  942MOL0     C29900   5.709   6.741   1.761  0.1913 -0.1556  0.3425
  942MOL0     C29901   5.803   6.623   1.758  0.0508  0.1230  0.2321
  942MOL0     C29902   5.748   6.498   1.827  0.5184 -0.0612  0.0317
  942MOL0    Cl29903   5.727   6.543   1.993  0.0568  0.4152 -0.1613
  942MOL0     C29904   5.476   7.159   1.176  0.2065 -0.7035 -0.2378
  942MOL0     C29905   5.428   7.071   1.083 -0.5408  0.2380 -1.2902
  942MOL0     O29906   5.485   6.967   0.812 -0.4018 -0.7578 -0.2721
  942MOL0     C29907   5.332   6.640   0.811  0.1124  0.6312 -0.3590
  942MOL0     C29908   5.274   6.536   0.730 -0.2695 -0.0209 -0.3126
  942MOL0     N29909   4.632   6.218   0.507  0.8967 -0.1052  0.0834
  942MOL0     N29910   4.617   6.126   0.601  0.0037  0.4393 -0.1021
  942MOL0     C29911   4.933   5.945   1.431  0.2446 -0.0309 -0.5161
  942MOL0     C29912   4.861   5.955   1.547 -0.0711  0.2842 -0.1386
  942MOL0     C29913   4.814   6.098   2.000 -0.1061  0.3974 -0.0641
  942MOL0     C29914   4.718   6.002   2.032  0.9488  0.4966  0.5071
  942MOL0     C29915   4.659   6.005   2.157  0.1491  0.1724  0.0533
  942MOL0     C29916   4.717   6.088   2.254 -0.1460 -0.0190 -0.9736
  942MOL0     O29917   4.661   6.089   2.383 -0.0189  0.1070  0.7553
  942MOL0     C29918   4.746   6.036   2.493 -0.0578  0.5459 -0.7491
  942MOL0     C29919   4.777   6.136   2.602  0.6288  0.2412 -0.5047
  942MOL0     C29920   4.657   6.177   2.686  0.5076  0.1066 -0.0806
  942MOL0     C29921   4.613   6.058   2.784  0.1870  0.6924  0.6625
  942MOL0     C29922   4.693   6.023   2.896 -0.8533  0.2749 -0.0042
  942MOL0     C29923   4.766   5.982   2.984 -0.3177  0.5312 -0.4885
  942MOL0     C29924   4.819   6.183   2.227  0.0695 -0.5164  0.2724
  942MOL0     C29925   4.864   6.183   2.101  1.1226  0.1356 -0.0005
  942MOL0     C29926   4.973   6.281   2.077 -0.1137  0.2933  0.4409
  942MOL0     H29927   5.126   5.959   1.762  2.7318 -2.0376 -1.0196
  942MOL0     H29928   5.247   5.952   1.552 -0.5509  3.3648  2.5731
  942MOL0     H29929   5.232   6.118   1.241  0.7372 -1.5514  0.7586
  942MOL0     H29930   5.051   6.131   1.258 -0.6886 -0.5240 -1.3077
  942MOL0     H29931   5.201   5.936   1.074 -0.4165 -0.2945 -3.5279
  942MOL0     H29932   5.027   5.964   1.076 -0.4297  1.0352 -0.0566
  942MOL0     H29933   5.054   6.188   0.970  0.4941  0.5494  0.9384
  942MOL0     H29934   5.216   6.196   1.021  1.0254  0.4836 -1.5448
  942MOL0     H29935   5.191   6.146   0.781  0.5677 -0.8688 -0.2828
  942MOL0     H29936   5.282   6.030   0.862 -0.6769  0.8593  3.5963
  942MOL0     H29937   5.123   5.865   0.872 -4.4515 -0.9505  2.7596
  942MOL0     H29938   5.136   5.934   0.704 -1.6214  0.6628 -0.3438
  942MOL0     H29939   4.910   5.970   0.911 -1.9917  0.8557 -0.9165
  942MOL0     H29940   4.925   6.082   0.779  1.3214 -0.2448 -2.4500
  942MOL0     H29941   4.879   5.784   0.760  2.4055 -1.5168 -2.8708
  942MOL0     H29942   4.925   5.872   0.623 -0.2281  0.2934  1.0047
  942MOL0     H29943   4.684   5.830   0.633 -0.5839  1.2013 -0.9420
  942MOL0     H29944   4.677   5.935   0.774  0.1170 -0.6368  0.3843
  942MOL0     H29945   4.885   5.998   0.439 -0.1997  0.7521 -2.5212
  942MOL0     H29946   4.688   6.277   0.271  0.9725  1.2759 -0.2299
  942MOL0     H29947   4.845   6.183   0.246 -3.4152 -2.3849 -2.5117
  942MOL0     H29948   4.843   6.458   0.287  4.0808 -2.6118 -2.4238
  942MOL0     H29949   4.785   6.414   0.451  2.4971  1.7998  1.7088
  942MOL0     H29950   5.005   6.283   0.478  1.1687 -1.3580 -2.4092
  942MOL0     H29951   5.044   6.326   0.319 -3.4678  2.8814 -4.0589
  942MOL0     H29952   5.090   6.544   0.341 -1.7670  1.2068  0.3205
  942MOL0     H29953   4.984   6.564   0.490 -1.2354 -2.5106  0.3175
  942MOL0     H29954   5.244   6.716   0.442  0.8049  1.2954  0.6210
  942MOL0     H29955   5.333   7.010   0.596  1.2621 -0.0013 -0.4092
  942MOL0     H29956   5.327   6.910   0.446 -1.1534  1.1014 -0.8175
  942MOL0     H29957   5.469   6.905   0.570 -1.0774 -0.9435  2.7124
  942MOL0     H29958   5.521   6.774   1.218  1.8124 -0.4588  2.1817
  942MOL0     H29959   5.594   6.928   1.391 -4.5282  0.4998  1.8482
  942MOL0     H29960   5.459   7.297   1.512  1.5730  1.3965  2.3184
  942MOL0     H29961   5.431   7.127   1.508 -1.6443  1.5071 -3.3439
  942MOL0     H29962   5.675   7.301   1.605  1.8514 -0.2981  1.0679
  942MOL0     H29963   5.557   7.231   1.706  0.2269  2.5583 -0.3686
  942MOL0     H29964   5.802   7.132   1.667  2.7454 -1.0883 -3.3065
  942MOL0     H29965   5.755   7.075   1.506  1.1955  1.4137  0.7721
  942MOL0     H29966   5.571   6.955   1.615  2.1402 -3.9625 -0.7802
  942MOL0     H29967   5.650   7.007   1.774 -0.0957  3.1241 -0.3644
  942MOL0     H29968   5.752   6.824   1.557  1.3092 -0.9332  0.8609
  942MOL0     H29969   5.858   6.892   1.682 -1.7159  5.0158  2.5860
  942MOL0     H29970   5.607   6.719   1.727  0.2877  0.8514 -0.6613
  942MOL0     H29971   5.694   6.782   1.862  0.6032  1.7029 -0.3233
  942MOL0     H29972   5.894   6.660   1.807 -0.6604  3.6603 -0.8039
  942MOL0     H29973   5.821   6.600   1.652 -1.3706  1.2493 -0.2910
  942MOL0     H29974   5.820   6.416   1.817 -0.6034 -0.7615 -4.0878
  942MOL0     H29975   5.650   6.462   1.794  0.8083 -1.2485  0.4044
  942MOL0     H29976   5.456   7.261   1.144 -0.8719 -1.2985 -1.5906
  942MOL0     H29977   5.380   7.124   1.001 -0.7190  3.2858  0.6468
  942MOL0     H29978   5.376   6.612   0.906  0.0033 -1.7983 -0.9372
  942MOL0     H29979   5.273   6.435   0.770  2.1359  0.9642  2.6717
  942MOL0     H29980   4.889   5.947   1.332 -0.3843 -1.2337 -0.2832
  942MOL0     H29981   4.752   5.954   1.544 -0.0698 -1.1068 -0.2992
  942MOL0     H29982   4.674   5.940   1.955  0.2434  1.8924 -0.2630
  942MOL0     H29983   4.574   5.946   2.189  0.9253 -0.4510  1.0659
  942MOL0     H29984   4.670   5.965   2.526 -0.8820 -0.1180 -3.7480
  942MOL0     H29985   4.835   5.983   2.458  0.5481  1.6778 -0.9721
  942MOL0     H29986   4.817   6.224   2.552 -0.8048  1.6609  0.7526
  942MOL0     H29987   4.849   6.088   2.668 -0.4721  1.4237  1.6661
  942MOL0     H29988   4.679   6.271   2.737  0.6004 -0.8417  1.7026
  942MOL0     H29989   4.583   6.207   2.611 -0.6718  1.3701  1.5228
  942MOL0     H29990   4.586   5.963   2.736 -0.6289  0.3382  1.7646
  942MOL0     H29991   4.514   6.081   2.826 -0.6072 -1.1157 -0.1065
  942MOL0     H29992   4.820   5.953   3.072  0.4145  0.6977 -0.8735
  942MOL0     H29993   4.851   6.252   2.304 -0.3973 -0.3515  0.3209
  942MOL0     H29994   5.038   6.244   1.997 -0.0858 -1.3566  1.1967
  942MOL0     H29995   4.929   6.375   2.043  1.7607  0.2348 -2.5171
  942MOL0     H29996   5.031   6.302   2.167 -0.4325 -0.7782  0.9067
  943MOL0     O29997   1.738   5.611   8.172 -0.5566  0.2195  0.6261
  943MOL0     C29998   1.709   5.704   8.248 -0.0741 -0.4682 -0.2279
  943MOL0     O29999   1.800   5.789   8.315 -0.1413 -0.4468  0.2089
  943MOL0     C30000   1.938   5.773   8.297 -0.0091 -0.2334 -0.6624
  943MOL0     C30001   2.005   5.754   8.170  0.0805 -0.1737 -0.8619
  943MOL0     C30002   2.140   5.752   8.164 -0.6298 -0.8210 -0.4230
  943MOL0     C30003   2.224   5.759   8.274 -0.0263 -0.2317 -0.3226
  943MOL0     O30004   2.369   5.747   8.271 -0.2202  0.2102 -0.2351
  943MOL0     C30005   2.433   5.687   8.157  0.2727 -0.3325 -0.1668
  943MOL0     C30006   2.410   5.531   8.167  0.5035 -0.5356  0.8840
  943MOL0     C30007   2.493   5.466   8.058  1.1796  1.0339  0.3976
  943MOL0     C30008   2.466   5.502   7.918  0.1918  0.2317  0.7377
  943MOL0     C30009   2.539   5.404   7.822  0.4198 -0.8068 -0.5282
  943MOL0     C30010   2.476   5.411   7.686 -0.3119  0.5565  0.4319
  943MOL0     C30011   2.541   5.525   7.605 -0.3328  0.0431 -0.2995
  943MOL0     C30012   2.459   5.549   7.479  0.3770 -0.3855 -0.2076
  943MOL0     N30013   2.486   5.663   7.382  0.1308  0.9149  0.4853
  943MOL0     C30014   2.590   5.663   7.287  0.8808 -0.4317 -0.6346
  943MOL0     C30015   2.575   5.785   7.221  0.1207  0.5720 -0.1373
  943MOL0     C30016   2.666   5.848   7.121  0.7733  0.0247 -0.1306
  943MOL0     C30017   2.773   5.947   7.166  0.4485 -0.4978 -0.3511
  943MOL0     C30018   2.905   5.887   7.201  0.1584  0.8405  0.2199
  943MOL0     C30019   3.011   5.998   7.217  0.0168  1.6109 -0.4479
  943MOL0     O30020   3.141   5.940   7.242  0.2692 -0.4349 -0.1696
  943MOL0     C30021   3.236   6.016   7.305  0.4322  0.3847  0.4436
  943MOL0     C30022   3.252   6.153   7.326  0.1557  0.4833  0.9064
  943MOL0     C30023   3.354   6.206   7.394 -0.0822  0.3738 -0.7360
  943MOL0     C30024   3.373   6.349   7.409 -0.9116 -0.0958  0.2779
  943MOL0     C30025   3.454   6.122   7.457  0.5451  0.5807 -0.2918
  943MOL0     C30026   3.554   6.182   7.550  0.1467  0.0588 -0.6001
  943MOL0     O30027   3.691   6.152   7.541  0.7259  0.2051  0.0102
  943MOL0     C30028   3.780   6.227   7.611 -0.5792 -0.4572 -1.0454
  943MOL0     C30029   3.791   6.223   7.752 -1.5631  1.2424 -0.3614
  943MOL0     C30030   3.893   6.301   7.810 -0.2850 -0.3581  0.6541
  943MOL0     C30031   3.978   6.381   7.741  0.7420  0.4449  0.0540
  943MOL0     O30032   4.063   6.449   7.824  0.3702 -0.0983  0.5128
  943MOL0     C30033   4.206   6.440   7.781  0.1046 -0.3678 -0.2870
  943MOL0     C30034   4.292   6.546   7.857  0.2509  0.3260 -0.3657
  943MOL0     C30035   4.378   6.491   7.972 -0.4142  0.6053 -0.7555
  943MOL0     C30036   4.479   6.606   8.019 -0.4931  0.5171  0.3204
  943MOL0     C30037   4.582   6.536   8.124  0.4142 -0.3500 -0.9889
  943MOL0     C30038   4.702   6.628   8.144 -0.0599  0.2899 -0.1383
  943MOL0     C30039   4.764   6.595   8.275 -0.4176  0.4074 -0.4190
  943MOL0     C30040   4.882   6.689   8.300  1.0420 -0.8106 -1.2007
  943MOL0    Cl30041   5.009   6.665   8.175  0.2141 -0.1871  0.2994
  943MOL0     C30042   3.970   6.380   7.600 -0.0877  0.2274  0.3869
  943MOL0     C30043   3.875   6.305   7.544 -0.4725  0.2427  0.3928
  943MOL0     O30044   3.505   6.245   7.649 -0.1516  0.2527  0.3426
  943MOL0     C30045   3.445   5.987   7.424 -0.1377  0.2744  0.0366
  943MOL0     C30046   3.335   5.932   7.359 -0.1382  0.0190  0.0793
  943MOL0     N30047   2.462   5.853   7.277  0.0546 -0.4651  0.9543
  943MOL0     N30048   2.410   5.777   7.360 -1.0564  0.8020 -1.0327
  943MOL0     C30049   2.161   5.777   8.403 -0.1834  0.0741  0.3399
  943MOL0     C30050   2.022   5.777   8.411 -0.0979  1.1022 -0.4183
  943MOL0     C30051   1.571   5.751   8.250  1.0986  0.2750  0.0942
  943MOL0     C30052   1.540   5.870   8.330 -0.1343  0.0069  0.3235
  943MOL0     C30053   1.411   5.929   8.335 -1.0087 -0.2195 -0.1246
  943MOL0     C30054   1.310   5.867   8.264  0.5582  0.3242 -0.2800
  943MOL0     O30055   1.183   5.920   8.240 -0.4303  0.1456 -1.1287
  943MOL0     C30056   1.135   6.027   8.325  0.2866 -0.4767  0.3177
  943MOL0     C30057   1.075   5.978   8.448  0.2035  0.3221  0.4763
  943MOL0     C30058   1.183   5.938   8.566  0.6018  0.3149  0.6219
  943MOL0     C30059   1.102   5.921   8.691  0.1970 -1.2989  0.5015
  943MOL0     C30060   1.203   5.909   8.797  0.7336  0.5496 -0.4658
  943MOL0     C30061   1.287   5.858   8.866  0.3141 -0.0070 -0.6672
  943MOL0     C30062   1.340   5.745   8.189  0.5201  0.1961  0.7378
  943MOL0     C30063   1.467   5.685   8.174 -0.0742  0.5322 -0.1730
  943MOL0     C30064   1.487   5.560   8.101  0.1976 -0.2041  0.4882
  943MOL0     H30065   1.942   5.733   8.083  0.8232 -1.9177 -1.0259
  943MOL0     H30066   2.188   5.742   8.067 -0.9712 -3.8203 -0.3775
  943MOL0     H30067   2.542   5.698   8.166  0.1326  1.2656 -0.1155
  943MOL0     H30068   2.399   5.731   8.063 -2.7349  2.3950  1.9770
  943MOL0     H30069   2.430   5.503   8.271  1.2050 -1.2810  0.5597
  943MOL0     H30070   2.306   5.503   8.148 -0.3206  2.3851  0.6657
  943MOL0     H30071   2.596   5.497   8.078  0.5558  2.5565  1.4676
  943MOL0     H30072   2.474   5.360   8.080 -2.0892  1.6759  1.1117
  943MOL0     H30073   2.358   5.497   7.903 -0.0306  0.6195  2.0546
  943MOL0     H30074   2.494   5.603   7.888 -0.0007 -0.1406 -0.7829
  943MOL0     H30075   2.524   5.303   7.862 -2.0675 -0.4214 -0.3082
  943MOL0     H30076   2.646   5.426   7.821  0.2851  0.2996 -3.5194
  943MOL0     H30077   2.495   5.322   7.626 -2.1475 -0.2775  1.0187
  943MOL0     H30078   2.370   5.433   7.677 -0.6690 -1.2112 -0.0268
  943MOL0     H30079   2.642   5.501   7.571 -0.4634  1.0204 -1.4537
  943MOL0     H30080   2.540   5.609   7.675  0.1167 -0.7019  0.6283
  943MOL0     H30081   2.461   5.456   7.423  0.7000 -0.1399 -0.6089
  943MOL0     H30082   2.359   5.569   7.519  0.8475 -0.8112  1.2394
  943MOL0     H30083   2.658   5.582   7.265  0.2303 -1.4082  0.8161
  943MOL0     H30084   2.593   5.913   7.072 -0.4029 -1.3382 -0.2263
  943MOL0     H30085   2.705   5.772   7.053 -1.8142 -0.8030 -0.8068
  943MOL0     H30086   2.787   6.008   7.076 -1.0525 -2.6971 -2.2171
  943MOL0     H30087   2.718   6.004   7.240 -1.8819  1.6821 -3.4949
  943MOL0     H30088   2.889   5.829   7.293 -0.6388  0.6663 -0.0199
  943MOL0     H30089   2.938   5.824   7.118  1.6704 -0.8711  2.0181
  943MOL0     H30090   3.014   6.056   7.124  2.3656 -0.9125 -2.0745
  943MOL0     H30091   2.986   6.060   7.304 -0.5501 -0.8515  1.2678
  943MOL0     H30092   3.167   6.215   7.300 -0.0621 -0.4438 -0.7815
  943MOL0     H30093   3.363   6.387   7.511  1.8065  1.9366 -0.1079
  943MOL0     H30094   3.304   6.403   7.343 -0.7768 -0.6078 -0.2957
  943MOL0     H30095   3.479   6.361   7.385 -0.9278 -2.6301 -1.4493
  943MOL0     H30096   3.713   6.170   7.807 -1.3959 -0.9751 -2.1197
  943MOL0     H30097   3.909   6.300   7.917 -1.7763 -2.7351  0.9297
  943MOL0     H30098   4.254   6.344   7.803  2.3877  0.9797  1.0023
  943MOL0     H30099   4.220   6.462   7.676 -4.4505 -0.0705 -1.0454
  943MOL0     H30100   4.368   6.586   7.789  0.1302  0.5772 -0.3515
  943MOL0     H30101   4.232   6.627   7.899 -0.1600  0.3249 -0.9389
  943MOL0     H30102   4.449   6.413   7.946  1.2819  1.2726  1.5393
  943MOL0     H30103   4.315   6.458   8.054 -0.2851 -0.1020 -0.9369
  943MOL0     H30104   4.419   6.682   8.070  1.1676 -0.4138  3.9814
  943MOL0     H30105   4.527   6.648   7.930  1.1522 -1.5242  0.1663
  943MOL0     H30106   4.531   6.516   8.219  0.3109  3.3621 -0.1362
  943MOL0     H30107   4.627   6.450   8.073  1.8468  0.1092 -0.5439
  943MOL0     H30108   4.664   6.729   8.163 -1.6285 -0.7379  2.8573
  943MOL0     H30109   4.772   6.629   8.060  0.4022 -1.7825  0.1788
  943MOL0     H30110   4.788   6.488   8.282 -4.2208 -0.5521  0.4844
  943MOL0     H30111   4.690   6.610   8.354 -0.0544  0.7257 -0.1413
  943MOL0     H30112   4.934   6.682   8.397 -1.9975  0.8779  0.7001
  943MOL0     H30113   4.850   6.793   8.294  1.9296 -0.4553 -0.2338
  943MOL0     H30114   4.043   6.432   7.540  2.7065 -0.5712  2.8864
  943MOL0     H30115   3.882   6.312   7.436 -1.6116 -0.2695  0.2712
  943MOL0     H30116   3.518   5.908   7.438 -2.6222 -2.0713  0.6278
  943MOL0     H30117   3.344   5.830   7.323 -0.6020 -0.0345  0.1096
  943MOL0     H30118   2.222   5.789   8.492 -0.0757  2.1061  0.0428
  943MOL0     H30119   1.985   5.797   8.510  0.0551  2.1903 -0.5743
  943MOL0     H30120   1.612   5.911   8.401 -2.1648  0.4652  2.2081
  943MOL0     H30121   1.398   6.018   8.396 -1.4585  0.3702 -1.0474
  943MOL0     H30122   1.210   6.106   8.337  3.0019 -2.7160 -0.6202
  943MOL0     H30123   1.055   6.062   8.259 -0.9693  1.3792  2.6646
  943MOL0     H30124   1.007   5.894   8.428  2.0801 -1.4819  1.2521
  943MOL0     H30125   1.028   6.064   8.496 -1.5467 -0.2067 -0.1740
  943MOL0     H30126   1.230   5.845   8.536 -0.8569  0.9746 -4.8234
  943MOL0     H30127   1.257   6.019   8.569  2.1356 -1.0409  0.7897
  943MOL0     H30128   1.041   5.830   8.690 -2.9711  0.6199  2.9490
  943MOL0     H30129   1.053   6.010   8.731 -0.3477  0.4021 -3.4753
  943MOL0     H30130   1.363   5.808   8.923 -1.1802  0.5817  1.9971
  943MOL0     H30131   1.267   5.694   8.127  1.5269  0.6908 -0.9051
  943MOL0     H30132   1.512   5.474   8.164 -1.7873 -1.5875 -0.5314
  943MOL0     H30133   1.394   5.524   8.058  0.5648  0.2496 -0.7129
  943MOL0     H30134   1.566   5.568   8.026  0.7388 -0.4414  1.0258
  944MOL0     O30135   0.249   0.312   0.587 -0.1652  0.3741 -0.3696
  944MOL0     C30136   0.149   0.389   0.611  0.1682  0.3440  0.3188
  944MOL0     O30137   0.135   0.489   0.712 -0.2757 -0.6663  0.3639
  944MOL0     C30138   0.248   0.507   0.782  0.1479 -0.7688 -0.4233
  944MOL0     C30139   0.346   0.576   0.712 -0.4705 -0.3115 -0.2491
  944MOL0     C30140   0.471   0.587   0.784  0.5109 -0.1070  0.0390
  944MOL0     C30141   0.491   0.531   0.907 -0.5574  1.1769 -0.1081
  944MOL0     O30142   0.619   0.531   0.966  0.0694  0.0616 -0.5399
  944MOL0     C30143   0.600   0.564   1.105 -0.7109  0.3344 -0.5572
  944MOL0     C30144   0.734   0.601   1.178 -0.4049 -0.5905 -0.4537
  944MOL0     C30145   0.761   0.752   1.150 -0.2437  0.0545  0.5707
  944MOL0     C30146   0.882   0.806   1.229  0.4070  0.0634  0.2849
  944MOL0     C30147   0.858   0.955   1.277 -0.5614  0.9135  0.3627
  944MOL0     C30148   0.758   0.970   1.385  0.2569  0.4656 -0.7488
  944MOL0     C30149   0.748   1.111   1.442  0.0383  0.4647 -0.5594
  944MOL0     C30150   0.692   1.113   1.580  0.3483  0.2893 -0.1545
  944MOL0     N30151   0.551   1.077   1.583 -0.4229 -0.6456 -0.5942
  944MOL0     C30152   0.446   1.105   1.500 -0.2521  0.1515 -0.2311
  944MOL0     C30153   0.337   1.040   1.556  0.5655  0.1308  0.2324
  944MOL0     C30154   0.186   1.029   1.519  0.4860 -0.5578 -0.8596
  944MOL0     C30155   0.161   0.891   1.448 -0.0322  0.1787 -0.6689
  944MOL0     C30156   0.034   0.905   1.367  0.3750  0.3018 -0.5204
  944MOL0     C30157  -0.089   0.965   1.447 -0.0639  0.3473  0.5678
  944MOL0     O30158  -0.204   0.911   1.371 -0.5182  0.1811  0.4257
  944MOL0     C30159  -0.331   0.941   1.418 -0.1625  0.9361 -0.5820
  944MOL0     C30160  -0.434   0.887   1.339  0.5065 -0.0158  0.9887
  944MOL0     C30161  -0.565   0.923   1.353  0.0014 -0.6718 -0.7804
  944MOL0     C30162  -0.669   0.850   1.264  0.8570 -0.2859  0.4187
  944MOL0     C30163  -0.597   1.021   1.451  0.3303  0.3627 -0.2546
  944MOL0     C30164  -0.738   1.071   1.487 -0.3131 -0.3378 -0.4006
  944MOL0     O30165  -0.755   1.173   1.575 -0.2913  0.7519  0.0440
  944MOL0     C30166  -0.882   1.226   1.574 -0.4048  0.3095  0.6397
  944MOL0     C30167  -0.907   1.353   1.512 -0.4210  0.4974 -0.8587
  944MOL0     C30168  -1.043   1.414   1.506  0.8282  0.5746  0.5688
  944MOL0     C30169  -1.148   1.355   1.566  0.3524  0.5553  0.1969
  944MOL0     O30170  -1.270   1.417   1.560 -0.2195 -0.3312 -0.1035
  944MOL0     C30171  -1.357   1.385   1.670 -0.4924 -0.1627  0.6965
  944MOL0     C30172  -1.486   1.453   1.654  1.6126 -0.3936  0.4626
  944MOL0     C30173  -1.594   1.399   1.746  0.1187  0.2884  1.2266
  944MOL0     C30174  -1.571   1.450   1.888  0.0714 -0.7591 -1.0273
  944MOL0     C30175  -1.676   1.381   1.977  1.4605  0.9457 -0.2273
  944MOL0     C30176  -1.663   1.434   2.118 -0.3067  0.3292  0.4890
  944MOL0     C30177  -1.754   1.366   2.215 -0.6992 -0.5475  0.1015
  944MOL0     C30178  -1.892   1.424   2.206  0.7449 -0.4086  1.2430
  944MOL0    Cl30179  -2.015   1.350   2.319 -0.1690  0.4557  0.1198
  944MOL0     C30180  -1.121   1.227   1.627  0.1744  0.3919  0.3815
  944MOL0     C30181  -0.995   1.169   1.634  0.3897 -0.2754 -0.4914
  944MOL0     O30182  -0.827   1.027   1.412 -0.2636  0.0032 -0.5927
  944MOL0     C30183  -0.493   1.072   1.533  1.0201  0.1217  0.3512
  944MOL0     C30184  -0.357   1.033   1.515 -1.1956  0.2673 -0.0080
  944MOL0     N30185   0.368   0.996   1.678 -0.5893  0.3023 -1.1316
  944MOL0     N30186   0.494   1.020   1.697 -0.3708  0.0059  0.0852
  944MOL0     C30187   0.392   0.458   0.966  0.3740 -0.7854 -0.4028
  944MOL0     C30188   0.268   0.441   0.901  0.0451  0.2246  0.4764
  944MOL0     C30189   0.032   0.350   0.529  0.5058 -0.4217 -0.4488
  944MOL0     C30190  -0.099   0.411   0.556 -0.8322  0.9841 -0.3746
  944MOL0     C30191  -0.213   0.368   0.495  0.1293  0.4030  0.1849
  944MOL0     C30192  -0.208   0.273   0.395 -0.4292  1.0217 -0.3589
  944MOL0     O30193  -0.315   0.275   0.319  0.0607 -0.1528 -0.3747
  944MOL0     C30194  -0.307   0.319   0.185  1.1804 -0.0192 -0.5769
  944MOL0     C30195  -0.440   0.389   0.156 -0.7880 -0.1623 -1.2189
  944MOL0     C30196  -0.442   0.536   0.202 -0.9204  0.1659  0.9540
  944MOL0     C30197  -0.480   0.644   0.099  0.1441  0.5321  0.3622
  944MOL0     C30198  -0.414   0.771   0.124 -0.5908  0.2457  0.0053
  944MOL0     C30199  -0.387   0.884   0.133 -0.3622  0.2730 -0.9759
  944MOL0     C30200  -0.086   0.225   0.354 -0.5562  1.3525  1.2968
  944MOL0     C30201   0.032   0.266   0.413  0.0358  0.1092  0.3693
  944MOL0     C30202   0.160   0.198   0.360  0.4769  0.7943  0.3227
  944MOL0     H30203   0.330   0.614   0.612 -0.5636  0.9080  0.2003
  944MOL0     H30204   0.537   0.662   0.742  0.3293  0.4470  0.7176
  944MOL0     H30205   0.562   0.472   1.149 -3.8306  1.9594  0.4719
  944MOL0     H30206   0.529   0.648   1.104  2.1857  2.9777 -0.2219
  944MOL0     H30207   0.723   0.584   1.286 -0.0434 -3.2814 -0.7749
  944MOL0     H30208   0.824   0.548   1.146 -0.0525 -0.5873  0.4870
  944MOL0     H30209   0.782   0.743   1.043  4.7223  1.0947  1.2254
  944MOL0     H30210   0.670   0.809   1.170 -1.7373 -0.8546 -2.7534
  944MOL0     H30211   0.896   0.754   1.324  1.7225  0.1749  0.1678
  944MOL0     H30212   0.973   0.799   1.168 -0.1411 -1.6821 -0.3998
  944MOL0     H30213   0.822   1.008   1.189 -0.1002  0.3656 -0.1606
  944MOL0     H30214   0.948   1.005   1.313  0.2763  0.9165 -1.6636
  944MOL0     H30215   0.662   0.933   1.348 -0.6442  0.6961  1.2473
  944MOL0     H30216   0.790   0.901   1.464  0.5262  0.1659 -1.1136
  944MOL0     H30217   0.690   1.169   1.370  0.4812 -1.2265 -2.3658
  944MOL0     H30218   0.849   1.153   1.443  0.5835 -0.7511  1.0302
  944MOL0     H30219   0.751   1.048   1.646  1.5381  0.2400 -1.2393
  944MOL0     H30220   0.688   1.214   1.622 -1.0252 -0.5313  1.8615
  944MOL0     H30221   0.437   1.150   1.401 -1.8271 -0.7468 -0.5409
  944MOL0     H30222   0.158   1.117   1.459 -4.2505  1.6536  3.7736
  944MOL0     H30223   0.124   1.028   1.609  1.5148 -1.2250 -0.1407
  944MOL0     H30224   0.244   0.869   1.379  1.7446 -0.8195  1.6401
  944MOL0     H30225   0.165   0.806   1.518  0.1809  1.4190  0.8877
  944MOL0     H30226   0.041   0.969   1.278  0.5928  1.2872  0.1968
  944MOL0     H30227   0.005   0.805   1.331 -1.5089  1.1503 -1.4816
  944MOL0     H30228  -0.095   0.936   1.553 -0.8445  1.0129  0.7170
  944MOL0     H30229  -0.097   1.074   1.456 -4.8461  0.1058  2.2817
  944MOL0     H30230  -0.402   0.810   1.270  4.8694  1.0684  1.4670
  944MOL0     H30231  -0.740   0.923   1.225  0.9358 -1.2274 -1.5868
  944MOL0     H30232  -0.715   0.772   1.326  1.1867 -0.4114  0.5070
  944MOL0     H30233  -0.634   0.799   1.174  1.9388 -3.1614  2.3247
  944MOL0     H30234  -0.827   1.387   1.447  0.9703 -3.9555 -1.8172
  944MOL0     H30235  -1.063   1.510   1.459  3.7233  0.6993 -0.6040
  944MOL0     H30236  -1.373   1.277   1.660 -0.9581 -0.1662  1.4191
  944MOL0     H30237  -1.312   1.398   1.769  0.4889  0.4005  0.1927
  944MOL0     H30238  -1.462   1.557   1.680 -0.6496 -0.5976  4.0781
  944MOL0     H30239  -1.511   1.447   1.548  0.3817  2.3161  0.5134
  944MOL0     H30240  -1.591   1.290   1.741 -1.5405  0.2772 -0.3980
  944MOL0     H30241  -1.687   1.425   1.695  0.5941 -1.9378 -0.9684
  944MOL0     H30242  -1.597   1.556   1.895 -1.4747 -1.2295  2.7276
  944MOL0     H30243  -1.473   1.432   1.932 -0.9692  0.2137  1.9169
  944MOL0     H30244  -1.779   1.401   1.945  1.5011  1.5555  0.0013
  944MOL0     H30245  -1.661   1.273   1.974  1.2222  0.9261 -1.5193
  944MOL0     H30246  -1.687   1.541   2.122 -1.4960  0.1935 -1.7201
  944MOL0     H30247  -1.561   1.416   2.154  0.5272  1.5331 -1.1439
  944MOL0     H30248  -1.723   1.373   2.319 -0.4886 -2.2771  0.1888
  944MOL0     H30249  -1.738   1.258   2.204  0.7453 -0.4950  1.4466
  944MOL0     H30250  -1.946   1.434   2.112 -0.0970 -2.6109  1.4257
  944MOL0     H30251  -1.896   1.529   2.235 -4.5904  0.0635 -0.3197
  944MOL0     H30252  -1.198   1.166   1.673  0.5931  0.8067  1.7004
  944MOL0     H30253  -0.982   1.067   1.669  1.6694 -0.3579 -1.1411
  944MOL0     H30254  -0.527   1.143   1.607  0.7070  1.1189 -0.7312
  944MOL0     H30255  -0.288   1.072   1.589 -0.0630 -0.3200 -0.7332
  944MOL0     H30256   0.404   0.398   1.055  1.9953 -1.9169 -1.3172
  944MOL0     H30257   0.188   0.381   0.943 -1.6390  1.3421 -0.9852
  944MOL0     H30258  -0.104   0.492   0.627  3.0743  0.3721  0.8079
  944MOL0     H30259  -0.304   0.425   0.510 -0.3767  1.2605 -4.5028
  944MOL0     H30260  -0.221   0.383   0.164  2.8278 -2.0128 -0.2033
  944MOL0     H30261  -0.298   0.230   0.122  0.7254 -1.4569  1.2792
  944MOL0     H30262  -0.528   0.343   0.203 -0.5541 -0.9661 -1.5634
  944MOL0     H30263  -0.450   0.399   0.048 -0.3454  1.6439 -1.1212
  944MOL0     H30264  -0.510   0.552   0.286 -0.9881 -1.0598  1.1561
  944MOL0     H30265  -0.342   0.564   0.235 -1.9146  3.8619  1.2406
  944MOL0     H30266  -0.588   0.652   0.091  0.3333  2.9859 -0.4675
  944MOL0     H30267  -0.443   0.608   0.002 -1.6451  1.0926 -0.5679
  944MOL0     H30268  -0.355   0.986   0.137 -3.3948  1.4214 -2.9277
  944MOL0     H30269  -0.080   0.165   0.264  1.3768 -0.7065  2.6928
  944MOL0     H30270   0.141   0.141   0.269  1.7763  3.7472 -1.9809
  944MOL0     H30271   0.241   0.270   0.346  1.1169 -0.1489 -1.1462
  944MOL0     H30272   0.196   0.128   0.436  1.5384  1.0487  0.0731
  945MOL0     O30273   9.042   9.359  10.631  0.0355 -0.3176 -0.2281
  945MOL0     C30274   9.135   9.301  10.575 -0.4005  1.2415 -0.2942
  945MOL0     O30275   9.139   9.164  10.539  0.5000 -0.0091  0.4874
  945MOL0     C30276   9.040   9.074  10.583 -0.2322 -0.5975 -0.5283
  945MOL0     C30277   8.934   9.093  10.681 -0.0120 -0.2401 -0.1022
  945MOL0     C30278   8.859   8.981  10.713  0.6240 -0.6035 -0.4227
  945MOL0     C30279   8.861   8.857  10.661  0.0934  0.8209  0.1608
  945MOL0     O30280   8.775   8.759  10.712  0.2369 -0.3165  0.6215
  945MOL0     C30281   8.764   8.641  10.634  0.2059 -0.1708  0.5252
  945MOL0     C30282   8.681   8.537  10.714  0.0460 -0.2495 -0.9107
  945MOL0     C30283   8.527   8.551  10.733 -0.6014 -0.1765 -0.0056
  945MOL0     C30284   8.491   8.673  10.831  0.4294  1.1975  0.4745
  945MOL0     C30285   8.355   8.728  10.815  0.0096  0.4561  0.0367
  945MOL0     C30286   8.319   8.828  10.704 -0.6597  0.4041 -0.1041
  945MOL0     C30287   8.393   8.970  10.709 -0.1459  0.8954  0.2529
  945MOL0     C30288   8.336   9.060  10.603  0.7345  0.4052  1.0513
  945MOL0     N30289   8.425   9.162  10.529 -1.1309  1.2000 -0.6717
  945MOL0     C30290   8.555   9.188  10.538 -0.6374  0.3747  0.0309
  945MOL0     C30291   8.574   9.265  10.429  0.1246 -0.3658  0.4888
  945MOL0     C30292   8.708   9.317  10.382  1.5105 -0.1298 -1.3049
  945MOL0     C30293   8.766   9.215  10.281  0.5383  0.0033  1.3691
  945MOL0     C30294   8.908   9.257  10.229 -0.0897  0.1083 -0.7506
  945MOL0     C30295   8.915   9.405  10.205  0.4418 -0.8248 -0.0255
  945MOL0     O30296   9.019   9.444  10.123 -0.1408 -0.5011 -0.5664
  945MOL0     C30297   9.046   9.579  10.105  0.3236  0.1748  0.6785
  945MOL0     C30298   9.168   9.608  10.046  0.2114 -0.2067  0.4584
  945MOL0     C30299   9.223   9.734  10.044  0.2214  0.0442 -1.0117
  945MOL0     C30300   9.353   9.753   9.975  0.5885 -0.2953  0.4224
  945MOL0     C30301   9.151   9.846  10.104 -0.1516  0.3603  0.3160
  945MOL0     C30302   9.204   9.980  10.138  0.9573 -0.5924 -0.4538
  945MOL0     O30303   9.111  10.078  10.116  1.0025  0.5892  0.3405
  945MOL0     C30304   9.139  10.203  10.156  0.2036 -0.1074  0.0464
  945MOL0     C30305   9.142  10.241  10.287 -0.2706  0.2881 -0.8050
  945MOL0     C30306   9.178  10.373  10.329  0.6544  1.1427 -0.1780
  945MOL0     C30307   9.208  10.471  10.234 -0.7004  1.1167  0.2171
  945MOL0     O30308   9.239  10.598  10.277 -0.3602 -0.4915  0.0690
  945MOL0     C30309   9.384  10.621  10.276 -1.0096 -0.5577 -1.0661
  945MOL0     C30310   9.418  10.772  10.294 -0.0383  0.4360  0.0373
  945MOL0     C30311   9.563  10.794  10.333 -1.1921  0.0752 -0.1479
  945MOL0     C30312   9.604  10.946  10.323 -0.2338 -0.2896  0.7271
  945MOL0     C30313   9.754  10.966  10.333 -0.8750  0.1148 -0.4423
  945MOL0     C30314   9.806  10.963  10.480  0.3847 -0.1426  0.0914
  945MOL0     C30315   9.961  10.945  10.484  0.3436 -0.5217 -0.6070
  945MOL0     C30316  10.012  10.796  10.503 -0.6391 -0.5059 -0.3762
  945MOL0    Cl30317  10.191  10.816  10.470  0.2894 -0.1856 -0.0394
  945MOL0     C30318   9.221  10.425  10.104 -1.2925  0.0934  0.1838
  945MOL0     C30319   9.187  10.293  10.060  0.3638 -0.1808  0.4933
  945MOL0     O30320   9.311   9.994  10.193  1.0764  0.4288  0.4542
  945MOL0     C30321   9.017   9.818  10.163 -0.7951  0.5454  0.8165
  945MOL0     C30322   8.970   9.684  10.155 -0.3989  0.7824  0.0763
  945MOL0     N30323   8.459   9.302  10.367 -0.2541  0.3170  0.2609
  945MOL0     N30324   8.367   9.243  10.434  0.0801 -0.1695 -0.1734
  945MOL0     C30325   8.964   8.844  10.566  0.2405  0.2087  0.8755
  945MOL0     C30326   9.043   8.946  10.523  0.2748 -0.0934 -0.7267
  945MOL0     C30327   9.249   9.389  10.552  0.0610  0.0480  0.5990
  945MOL0     C30328   9.246   9.463  10.429 -0.8209  0.1625 -1.1149
  945MOL0     C30329   9.358   9.538  10.394  0.4159  0.9236 -0.3159
  945MOL0     C30330   9.461   9.567  10.489  0.2127 -0.3464 -0.0696
  945MOL0     O30331   9.572   9.643  10.470  1.4752  0.4283 -0.2278
  945MOL0     C30332   9.576   9.732  10.364 -0.2980  0.5476  0.4708
  945MOL0     C30333   9.683   9.842  10.396  0.3395  0.3139  0.9446
  945MOL0     C30334   9.822   9.786  10.396 -0.2359  0.0450  1.1630
  945MOL0     C30335   9.919   9.883  10.458  0.1138  0.0030 -0.1427
  945MOL0     C30336  10.054   9.843  10.430  0.4778  0.7120 -0.3159
  945MOL0     C30337  10.163   9.796  10.399  1.2546 -0.8431  0.0862
  945MOL0     C30338   9.457   9.487  10.607  0.0605 -1.0374  1.0986
  945MOL0     C30339   9.359   9.396  10.635  0.6098 -0.6185  0.1305
  945MOL0     C30340   9.367   9.297  10.746 -0.6511  0.8028  0.4754
  945MOL0     H30341   8.921   9.188  10.733  1.3168  0.3693 -0.8309
  945MOL0     H30342   8.790   8.992  10.796  0.5099 -2.9681 -0.1352
  945MOL0     H30343   8.859   8.587  10.635 -0.9830 -2.5985  3.8884
  945MOL0     H30344   8.732   8.654  10.530  1.6657 -1.3487 -0.1097
  945MOL0     H30345   8.696   8.442  10.662 -1.1094 -2.6045  2.6484
  945MOL0     H30346   8.740   8.526  10.805  0.5808  0.2409 -1.1901
  945MOL0     H30347   8.471   8.568  10.640  0.6426  3.4002 -0.2443
  945MOL0     H30348   8.507   8.456  10.783 -0.9325 -1.1435 -1.8808
  945MOL0     H30349   8.498   8.622  10.927 -0.7574  2.6497  1.3753
  945MOL0     H30350   8.559   8.758  10.821  0.7433  1.1489  1.9938
  945MOL0     H30351   8.329   8.762  10.916  0.6559 -1.2655  0.8469
  945MOL0     H30352   8.292   8.641  10.794  1.8027 -0.6007 -1.3217
  945MOL0     H30353   8.329   8.782  10.605 -0.6613  1.3317 -0.5416
  945MOL0     H30354   8.212   8.838  10.723 -0.2465  2.4496  1.4399
  945MOL0     H30355   8.500   8.954  10.691 -0.5107 -0.3774 -1.0703
  945MOL0     H30356   8.391   9.021  10.805  0.2530  0.2981  0.5926
  945MOL0     H30357   8.292   8.997  10.525 -0.9528  0.6826  1.7367
  945MOL0     H30358   8.255   9.118  10.647  0.0565  1.3511 -1.2936
  945MOL0     H30359   8.631   9.135  10.596 -1.8281 -0.3048  1.0056
  945MOL0     H30360   8.769   9.334  10.471  1.8729  0.0901 -1.5884
  945MOL0     H30361   8.702   9.417  10.338 -1.9531 -0.3295 -1.5245
  945MOL0     H30362   8.765   9.118  10.332 -0.0603 -0.5013  0.4231
  945MOL0     H30363   8.707   9.211  10.189  1.3767 -1.8694  0.8640
  945MOL0     H30364   8.971   9.225  10.312 -0.7370  1.0469  0.1190
  945MOL0     H30365   8.951   9.200  10.145  0.9743  1.5485 -1.2331
  945MOL0     H30366   8.818   9.420  10.157  0.2823 -0.2508  0.4637
  945MOL0     H30367   8.916   9.462  10.298  0.9035  0.1908 -0.6403
  945MOL0     H30368   9.215   9.520  10.002 -1.9073 -0.9006 -0.5530
  945MOL0     H30369   9.420   9.690  10.033  2.3658  3.0973  2.4058
  945MOL0     H30370   9.390   9.855   9.988  3.0874 -1.2964  1.7035
  945MOL0     H30371   9.352   9.723   9.870  2.7437 -2.5928  0.9659
  945MOL0     H30372   9.104  10.176  10.366 -1.0173  0.0242 -1.3697
  945MOL0     H30373   9.171  10.387  10.436 -0.8368 -2.0370  0.2416
  945MOL0     H30374   9.432  10.563  10.355  1.4287  2.2181 -0.3414
  945MOL0     H30375   9.423  10.601  10.175  1.8534 -0.2986 -0.0928
  945MOL0     H30376   9.404  10.824  10.199  1.6275  0.7984 -0.0383
  945MOL0     H30377   9.352  10.811  10.371  0.8066 -1.7010  1.9675
  945MOL0     H30378   9.639  10.746  10.271 -0.0391 -0.2188  1.4244
  945MOL0     H30379   9.565  10.759  10.437  0.7181  1.5509  0.3742
  945MOL0     H30380   9.562  10.988  10.415  3.8155 -0.7045  2.9768
  945MOL0     H30381   9.572  11.004  10.236 -2.4099  4.1373  4.0754
  945MOL0     H30382   9.808  10.891  10.274  2.6696  1.4937  0.7634
  945MOL0     H30383   9.785  11.062  10.290 -0.0782  0.3713  0.6691
  945MOL0     H30384   9.783  10.870  10.531  1.2002 -0.6372 -0.4230
  945MOL0     H30385   9.782  11.051  10.540  0.0374  0.0153 -0.2718
  945MOL0     H30386  10.005  11.006  10.563 -4.0899  0.0230  1.7622
  945MOL0     H30387   9.996  10.998  10.395 -1.3551  1.3177 -0.2519
  945MOL0     H30388   9.963  10.732  10.430 -0.3754  0.3043 -1.2803
  945MOL0     H30389   9.997  10.750  10.601  0.8902 -1.3539 -0.5129
  945MOL0     H30390   9.254  10.488  10.022 -2.2010 -5.6079 -5.2995
  945MOL0     H30391   9.191  10.281   9.953 -2.1961  2.1955  0.0039
  945MOL0     H30392   8.971   9.893  10.226  0.0959 -0.5041  2.8108
  945MOL0     H30393   8.878   9.658  10.208 -0.9984 -0.4173 -1.4669
  945MOL0     H30394   8.987   8.743  10.533  1.7161  0.3062  1.5618
  945MOL0     H30395   9.109   8.950  10.436 -0.8948  2.7022 -1.6062
  945MOL0     H30396   9.164   9.458  10.358 -1.3966 -3.2355 -0.3654
  945MOL0     H30397   9.344   9.587  10.298 -1.5211 -3.5904 -2.6055
  945MOL0     H30398   9.592   9.686  10.266 -0.4558  0.1594  0.6218
  945MOL0     H30399   9.484   9.791  10.360  0.1863  1.2561 -0.6039
  945MOL0     H30400   9.665   9.875  10.499  0.9735  1.3106  0.7501
  945MOL0     H30401   9.675   9.923  10.324  2.4047 -0.4540 -0.2235
  945MOL0     H30402   9.834   9.686  10.439 -0.4476 -0.2147  0.6253
  945MOL0     H30403   9.854   9.783  10.292 -1.5197 -1.4390  0.7852
  945MOL0     H30404   9.908   9.884  10.567  2.3318 -0.0870  0.1326
  945MOL0     H30405   9.907   9.981  10.410 -0.3082 -1.6094 -3.6443
  945MOL0     H30406  10.250   9.746  10.361  2.4816 -1.2145  3.1084
  945MOL0     H30407   9.544   9.506  10.669  1.4600 -3.7864  0.1293
  945MOL0     H30408   9.466   9.311  10.791  0.6669 -1.3978 -1.5229
  945MOL0     H30409   9.305   9.329  10.831  0.8977 -0.5844  2.2003
  945MOL0     H30410   9.352   9.190  10.733 -4.3331  1.0820  1.3453
  946MOL0     O30411   1.403   7.916   4.610  0.3861 -0.0596  0.2942
  946MOL0     C30412   1.385   7.923   4.730  0.0414 -1.0052 -0.5161
  946MOL0     O30413   1.395   7.824   4.826  0.1588 -0.4884  0.0588
  946MOL0     C30414   1.434   7.696   4.793 -0.2985 -0.4480 -0.5420
  946MOL0     C30415   1.409   7.627   4.672 -0.2911  0.5637  0.3110
  946MOL0     C30416   1.422   7.487   4.662  0.1760  0.6147  1.0694
  946MOL0     C30417   1.464   7.406   4.770 -0.1328 -0.4718  1.1949
  946MOL0     O30418   1.474   7.271   4.748  0.5143 -0.8736 -0.2621
  946MOL0     C30419   1.602   7.210   4.745  0.1774 -0.5279  0.1939
  946MOL0     C30420   1.644   7.204   4.592 -0.8545  0.7543  0.8072
  946MOL0     C30421   1.755   7.104   4.556  0.8416 -0.4325 -0.4273
  946MOL0     C30422   1.773   7.089   4.406  0.4976  0.2414  0.4927
  946MOL0     C30423   1.867   6.973   4.367  0.7059  0.2702 -0.3079
  946MOL0     C30424   1.867   6.930   4.221 -0.9162 -0.2850 -0.1687
  946MOL0     C30425   1.956   6.806   4.186  0.1629 -0.8571 -0.7741
  946MOL0     C30426   1.925   6.749   4.050 -0.4974 -0.0211 -0.2960
  946MOL0     N30427   1.963   6.607   4.037 -0.2014  0.0279 -0.3485
  946MOL0     C30428   1.983   6.539   3.918  0.3630 -0.1935  0.1634
  946MOL0     C30429   2.014   6.410   3.952 -1.0782  0.3201  0.0790
  946MOL0     C30430   2.019   6.292   3.861  0.5574  0.6958 -0.2683
  946MOL0     C30431   2.033   6.156   3.928 -0.0811 -0.2609  0.5558
  946MOL0     C30432   2.181   6.095   3.920 -0.0202 -0.0498  0.1039
  946MOL0     C30433   2.269   6.156   4.030  0.6266 -0.5572 -0.1879
  946MOL0     O30434   2.229   6.093   4.153  0.2439 -1.0463  0.2752
  946MOL0     C30435   2.292   6.131   4.271  0.1997 -1.0984  0.1453
  946MOL0     C30436   2.400   6.060   4.323 -0.5121 -0.0931  0.6666
  946MOL0     C30437   2.451   6.071   4.452 -0.3050 -0.2816 -0.5216
  946MOL0     C30438   2.572   5.982   4.493 -0.1338  0.0652 -0.0090
  946MOL0     C30439   2.383   6.157   4.544 -0.0328 -0.3850 -0.1289
  946MOL0     C30440   2.418   6.167   4.691  0.1906 -0.3010  0.2990
  946MOL0     O30441   2.337   6.248   4.767 -0.3681 -0.2889  0.8576
  946MOL0     C30442   2.351   6.281   4.894 -0.2713  0.1237  0.1080
  946MOL0     C30443   2.476   6.304   4.955 -0.4219 -0.2929 -0.1165
  946MOL0     C30444   2.487   6.349   5.089  0.1247  0.5517 -1.3233
  946MOL0     C30445   2.375   6.346   5.176  0.6734 -1.3715  0.6319
  946MOL0     O30446   2.387   6.370   5.311  0.1171  0.9171 -0.6323
  946MOL0     C30447   2.353   6.250   5.372 -0.3120  0.5393  0.7720
  946MOL0     C30448   2.479   6.151   5.379 -0.8560 -0.6293 -0.3698
  946MOL0     C30449   2.446   6.034   5.467 -0.5121  0.5796  1.8601
  946MOL0     C30450   2.463   6.052   5.616 -0.1040 -0.5401 -0.0643
  946MOL0     C30451   2.427   5.921   5.688  0.3120  0.0940  0.4664
  946MOL0     C30452   2.438   5.930   5.838  0.5913 -0.0550 -0.2469
  946MOL0     C30453   2.328   6.006   5.916 -0.2478  0.1044  0.4466
  946MOL0     C30454   2.201   5.929   5.929 -0.0737  0.0721 -0.4983
  946MOL0    Cl30455   2.207   5.795   6.043  0.3210  0.0564  0.5617
  946MOL0     C30456   2.248   6.326   5.119  1.2323 -0.1856 -0.3018
  946MOL0     C30457   2.234   6.293   4.979  0.3907  0.1562  0.8033
  946MOL0     O30458   2.525   6.123   4.733 -0.7906 -0.1814  0.0674
  946MOL0     C30459   2.272   6.235   4.492  0.7177 -0.3576  0.8341
  946MOL0     C30460   2.225   6.216   4.359  0.2514  0.0310 -0.3433
  946MOL0     N30461   2.030   6.407   4.094  0.3627  0.2921  0.1566
  946MOL0     N30462   2.006   6.523   4.138  0.5531 -0.5355  0.1597
  946MOL0     C30463   1.500   7.476   4.890  0.0530 -0.3286  0.0962
  946MOL0     C30464   1.486   7.616   4.901 -0.6972 -0.4830  0.2947
  946MOL0     C30465   1.355   8.055   4.787  0.0584  0.1049 -0.6651
  946MOL0     C30466   1.438   8.115   4.886 -0.0970 -0.4514 -0.0950
  946MOL0     C30467   1.422   8.250   4.912  0.7596 -0.7514 -0.3939
  946MOL0     C30468   1.326   8.330   4.849 -0.2939  0.2328 -0.5814
  946MOL0     O30469   1.319   8.462   4.888  0.2109 -0.6392 -0.7241
  946MOL0     C30470   1.191   8.512   4.924 -0.5096 -0.3635  0.3549
  946MOL0     C30471   1.214   8.656   4.966  0.5063 -0.1100 -0.0976
  946MOL0     C30472   1.327   8.683   5.066  0.5486 -1.2404 -0.0017
  946MOL0     C30473   1.338   8.595   5.186  0.3739 -0.0984  0.0504
  946MOL0     C30474   1.220   8.617   5.272 -0.1777 -0.1864  0.2422
  946MOL0     C30475   1.140   8.636   5.353  0.6208 -0.4580  0.5658
  946MOL0     C30476   1.238   8.269   4.753 -0.3161 -0.0163  0.0858
  946MOL0     C30477   1.258   8.136   4.721  0.1774 -0.3861  0.0599
  946MOL0     C30478   1.172   8.086   4.605 -0.2426  0.5005  0.5741
  946MOL0     H30479   1.369   7.680   4.586 -0.6532 -1.0282 -0.5606
  946MOL0     H30480   1.386   7.436   4.574  1.4864  1.6914 -0.1358
  946MOL0     H30481   1.589   7.107   4.779  1.4848 -0.4286  1.0631
  946MOL0     H30482   1.688   7.259   4.793  1.0639  0.0245 -1.8353
  946MOL0     H30483   1.557   7.169   4.536  2.4100 -1.7791 -3.3250
  946MOL0     H30484   1.679   7.302   4.559 -0.1698  1.8496  4.4085
  946MOL0     H30485   1.851   7.132   4.601  1.0742 -4.0165  1.6859
  946MOL0     H30486   1.725   7.010   4.604 -0.3924  0.9448  1.6947
  946MOL0     H30487   1.672   7.065   4.370  0.1576  0.3662  1.3436
  946MOL0     H30488   1.805   7.185   4.365  5.5100 -0.5162  2.0367
  946MOL0     H30489   1.829   6.889   4.426 -1.6499 -0.4111 -2.5750
  946MOL0     H30490   1.967   7.001   4.398 -0.2512  3.3191  0.3553
  946MOL0     H30491   1.769   6.899   4.185  0.4084 -4.6717 -0.4824
  946MOL0     H30492   1.900   7.017   4.163  0.8990 -2.4090 -2.5535
  946MOL0     H30493   1.928   6.736   4.266  2.4410 -2.9923 -1.6847
  946MOL0     H30494   2.059   6.841   4.198  0.6615 -2.1172 -1.2368
  946MOL0     H30495   1.818   6.750   4.027 -0.2875  0.2513 -1.3009
  946MOL0     H30496   1.970   6.816   3.977 -1.7830 -2.2790 -3.3539
  946MOL0     H30497   1.965   6.562   3.813 -4.2176 -1.5061  0.4124
  946MOL0     H30498   2.106   6.306   3.797  2.8092  1.5519  2.7135
  946MOL0     H30499   1.929   6.296   3.799 -0.1080  0.6471  0.6605
  946MOL0     H30500   2.003   6.151   4.034  1.8834 -1.3485  1.1139
  946MOL0     H30501   1.978   6.083   3.867  3.6054  0.5738 -4.3668
  946MOL0     H30502   2.177   5.987   3.903  1.0826 -0.4107  1.8367
  946MOL0     H30503   2.222   6.130   3.825 -1.8662  0.7017 -0.4579
  946MOL0     H30504   2.376   6.148   4.009  0.9184  0.7032  0.7267
  946MOL0     H30505   2.252   6.264   4.032  0.5425 -0.2581 -4.9277
  946MOL0     H30506   2.435   5.982   4.256  2.0907 -0.0967  1.9190
  946MOL0     H30507   2.556   5.927   4.587  0.5813 -1.1834 -0.5819
  946MOL0     H30508   2.669   6.032   4.502 -0.5560  0.6534  1.3960
  946MOL0     H30509   2.582   5.913   4.408  1.4109  1.3054 -0.8830
  946MOL0     H30510   2.573   6.294   4.908 -0.1270  0.1678  0.3861
  946MOL0     H30511   2.587   6.386   5.109  0.0646  1.5238 -2.6875
  946MOL0     H30512   2.312   6.268   5.472 -0.1693 -2.0354  1.3704
  946MOL0     H30513   2.283   6.186   5.317  0.3745  0.0566  0.4454
  946MOL0     H30514   2.527   6.119   5.286 -0.0608  2.8719 -1.3213
  946MOL0     H30515   2.556   6.195   5.443  1.1054 -3.1145 -0.8515
  946MOL0     H30516   2.502   5.944   5.441  0.1190  0.8207  2.3549
  946MOL0     H30517   2.341   6.012   5.444 -0.2073  1.0864 -0.2370
  946MOL0     H30518   2.401   6.134   5.652 -0.1560  1.0733 -3.4374
  946MOL0     H30519   2.567   6.081   5.635 -0.4671  0.8015 -0.0619
  946MOL0     H30520   2.329   5.885   5.655  1.2118 -0.7283 -1.4613
  946MOL0     H30521   2.490   5.841   5.648 -1.7082 -1.8516  0.9547
  946MOL0     H30522   2.533   5.978   5.860  0.0422  1.7026 -1.5055
  946MOL0     H30523   2.441   5.827   5.876  1.5582 -0.1293 -0.4977
  946MOL0     H30524   2.309   6.102   5.866  2.8626 -0.5275 -2.2877
  946MOL0     H30525   2.364   6.029   6.016  3.4438 -0.2070 -0.6799
  946MOL0     H30526   2.158   5.892   5.835 -0.5960 -1.7765  0.4077
  946MOL0     H30527   2.127   5.998   5.971  0.2208  0.4158 -0.5508
  946MOL0     H30528   2.160   6.350   5.179  2.9132  1.4349  1.7074
  946MOL0     H30529   2.138   6.277   4.930  0.1176  3.1630  0.1270
  946MOL0     H30530   2.212   6.293   4.561 -1.7426 -0.8833 -0.7228
  946MOL0     H30531   2.135   6.267   4.325  2.6327  4.2229 -0.9999
  946MOL0     H30532   1.534   7.405   4.964 -1.4337 -1.9099 -0.6588
  946MOL0     H30533   1.527   7.669   4.987  1.9930 -1.1855 -0.4557
  946MOL0     H30534   1.502   8.057   4.951 -0.4865  0.7932  1.4500
  946MOL0     H30535   1.464   8.293   5.003  0.0328 -0.1473 -0.3251
  946MOL0     H30536   1.121   8.525   4.841 -1.6790 -0.2437  1.3310
  946MOL0     H30537   1.144   8.444   4.996 -1.4203 -0.6959 -0.5288
  946MOL0     H30538   1.127   8.693   5.021  2.1147  4.9352 -0.4035
  946MOL0     H30539   1.234   8.718   4.878  1.3305 -2.5230 -1.6935
  946MOL0     H30540   1.427   8.674   5.023  2.0370  2.1058  2.2755
  946MOL0     H30541   1.313   8.785   5.103  2.5240 -0.5433 -1.0407
  946MOL0     H30542   1.431   8.609   5.242 -0.1617 -0.7220  1.1238
  946MOL0     H30543   1.333   8.489   5.157  0.6432 -0.8411  2.4775
  946MOL0     H30544   1.069   8.657   5.430  2.3326  1.9224  1.6104
  946MOL0     H30545   1.159   8.323   4.701  0.5375  0.6562 -0.5350
  946MOL0     H30546   1.087   8.151   4.583 -1.2480 -1.1015 -0.4812
  946MOL0     H30547   1.236   8.079   4.516  1.7532  0.6475  1.9381
  946MOL0     H30548   1.136   7.987   4.632 -1.1514 -0.5598 -3.7177
  947MOL0     O30549   5.833   5.511   8.369 -0.2329  0.7088 -0.0991
  947MOL0     C30550   5.938   5.469   8.310  1.1262  0.0097 -0.6137
  947MOL0     O30551   6.063   5.507   8.339  0.8759 -0.8507 -0.3557
  947MOL0     C30552   6.072   5.606   8.439  0.2123 -0.0522  0.0567
  947MOL0     C30553   6.058   5.745   8.412  0.3226 -0.2898  0.0586
  947MOL0     C30554   6.082   5.835   8.517 -0.0211 -0.2130 -0.2243
  947MOL0     C30555   6.116   5.795   8.651  0.9714  0.7630  0.3361
  947MOL0     O30556   6.142   5.901   8.736 -0.5023  0.7523 -0.1423
  947MOL0     C30557   6.244   5.882   8.830 -1.2425 -0.6075 -0.2108
  947MOL0     C30558   6.377   5.915   8.749 -0.5161 -0.7462  0.9520
  947MOL0     C30559   6.511   5.893   8.822  0.4141 -0.5679 -0.7196
  947MOL0     C30560   6.615   5.932   8.724 -0.5940 -0.2257 -0.1446
  947MOL0     C30561   6.760   5.943   8.775 -0.4940  0.2700  0.0158
  947MOL0     C30562   6.774   6.017   8.907  0.1354 -0.2783 -0.3048
  947MOL0     C30563   6.923   6.027   8.945  0.0421 -0.1199  0.7313
  947MOL0     C30564   6.984   5.902   9.002 -0.2743  0.7026  0.0268
  947MOL0     N30565   7.096   5.838   8.933 -0.3541 -0.6251 -0.2391
  947MOL0     C30566   7.156   5.714   8.967  1.2560 -0.8774 -1.1372
  947MOL0     C30567   7.238   5.684   8.872 -0.5141 -0.7326  0.5959
  947MOL0     C30568   7.315   5.561   8.864 -0.0588  0.0808  1.1202
  947MOL0     C30569   7.398   5.535   8.994 -0.3653  1.2625  0.1442
  947MOL0     C30570   7.492   5.424   8.970  0.0077 -0.4052 -1.2207
  947MOL0     C30571   7.584   5.419   9.092 -1.2786  1.6612 -0.1047
  947MOL0     O30572   7.672   5.297   9.082  0.1294 -0.5236  0.0313
  947MOL0     C30573   7.643   5.175   9.136  0.9429 -0.7129 -0.8974
  947MOL0     C30574   7.520   5.156   9.209 -0.1605  0.9613  0.0337
  947MOL0     C30575   7.499   5.043   9.281 -1.5247  0.2121 -0.2820
  947MOL0     C30576   7.355   5.045   9.347 -0.8785 -0.1223  0.4423
  947MOL0     C30577   7.603   4.937   9.292 -0.4707 -0.5758 -0.1829
  947MOL0     C30578   7.596   4.804   9.362  0.0820  1.2036 -0.4717
  947MOL0     O30579   7.685   4.709   9.317 -0.0155 -0.1727  0.8582
  947MOL0     C30580   7.713   4.596   9.392 -0.7039  0.4124 -0.2108
  947MOL0     C30581   7.835   4.582   9.455 -1.2012 -0.0477  0.9614
  947MOL0     C30582   7.853   4.468   9.520  0.3837  0.1959 -0.2964
  947MOL0     C30583   7.762   4.357   9.524 -0.2308 -0.4698  0.8257
  947MOL0     O30584   7.790   4.241   9.590 -0.4169 -0.6752 -0.4459
  947MOL0     C30585   7.685   4.166   9.652  0.0721 -0.2308  0.0926
  947MOL0     C30586   7.673   4.028   9.591  0.3988  0.3611 -0.2332
  947MOL0     C30587   7.592   3.940   9.688 -0.4881 -0.1542 -0.2903
  947MOL0     C30588   7.517   3.846   9.606  0.0283 -0.6508  1.1394
  947MOL0     C30589   7.448   3.737   9.695 -0.1445  0.6362 -1.0338
  947MOL0     C30590   7.366   3.791   9.804  0.0344  0.6297  0.0615
  947MOL0     C30591   7.286   3.670   9.854 -0.4958 -0.0216  0.2415
  947MOL0     C30592   7.146   3.660   9.793 -0.3084 -0.1993  0.5818
  947MOL0    Cl30593   7.041   3.806   9.831  0.1043  0.7462  0.3556
  947MOL0     C30594   7.641   4.374   9.448 -0.6378 -0.0305 -0.7689
  947MOL0     C30595   7.610   4.497   9.388 -0.6698 -0.5003 -0.1715
  947MOL0     O30596   7.523   4.788   9.460 -0.1424  0.2589 -1.1815
  947MOL0     C30597   7.718   4.958   9.210  0.3592 -0.0321  0.4216
  947MOL0     C30598   7.734   5.074   9.132  0.0948  0.1758  0.0694
  947MOL0     N30599   7.245   5.792   8.785 -0.5100 -0.1440 -0.6080
  947MOL0     N30600   7.163   5.885   8.822 -0.3420  0.1701 -0.1250
  947MOL0     C30601   6.123   5.663   8.676  0.0055  0.2224 -0.2326
  947MOL0     C30602   6.100   5.568   8.570  0.5205 -1.0320 -0.3082
  947MOL0     C30603   5.927   5.391   8.187  0.4888  0.3733  0.5456
  947MOL0     C30604   5.862   5.446   8.070 -0.6966  0.7950  1.0018
  947MOL0     C30605   5.862   5.387   7.947 -0.2126  0.0404 -0.2690
  947MOL0     C30606   5.904   5.249   7.941  0.0183  0.6905  0.2265
  947MOL0     O30607   5.894   5.173   7.826 -0.7557  0.2212 -0.2813
  947MOL0     C30608   5.918   5.028   7.847  0.0131 -0.2667  0.5140
  947MOL0     C30609   5.865   4.944   7.727 -1.0518  0.9250  0.6532
  947MOL0     C30610   5.713   4.915   7.721 -0.1353 -0.5782 -0.1632
  947MOL0     C30611   5.661   4.834   7.600  0.1510  0.3121 -0.8447
  947MOL0     C30612   5.659   4.687   7.634 -0.4423  0.0625 -0.0018
  947MOL0     C30613   5.665   4.568   7.659  0.8617  1.0337 -0.3792
  947MOL0     C30614   5.938   5.190   8.062  0.2327 -0.5431 -0.4766
  947MOL0     C30615   5.974   5.257   8.178  1.1036 -0.5063  0.1885
  947MOL0     C30616   6.048   5.183   8.283  0.1771  0.2056  0.9174
  947MOL0     H30617   6.040   5.774   8.309 -2.3262  2.0117  1.0363
  947MOL0     H30618   6.086   5.941   8.493 -2.9457  0.0198  0.0240
  947MOL0     H30619   6.257   5.783   8.874 -2.1448 -1.1584 -1.1723
  947MOL0     H30620   6.228   5.959   8.907 -3.0684 -1.6974  0.5429
  947MOL0     H30621   6.389   5.866   8.652  2.8977  1.5998  0.0033
  947MOL0     H30622   6.378   6.023   8.731 -2.2366 -0.9969 -0.9527
  947MOL0     H30623   6.526   5.941   8.920 -5.5017 -0.9126  0.7573
  947MOL0     H30624   6.524   5.787   8.847 -0.5651 -0.6153 -0.3728
  947MOL0     H30625   6.623   5.859   8.643 -2.7030  0.1550 -0.7539
  947MOL0     H30626   6.588   6.025   8.673 -0.2352 -0.7514 -1.3284
  947MOL0     H30627   6.823   5.996   8.703  2.1742  0.5805  2.4392
  947MOL0     H30628   6.802   5.842   8.780 -0.5104  0.2961  0.7340
  947MOL0     H30629   6.732   6.118   8.904  3.8036  1.4101 -3.6888
  947MOL0     H30630   6.716   5.958   8.979 -0.5736  0.8787  0.0920
  947MOL0     H30631   6.934   6.100   9.026 -1.5658  1.1121 -0.0989
  947MOL0     H30632   6.974   6.061   8.853 -1.0557 -4.5038 -1.7534
  947MOL0     H30633   7.010   5.928   9.104 -2.8090  0.8184  0.7117
  947MOL0     H30634   6.898   5.833   9.003 -0.4521  0.8495  3.0100
  947MOL0     H30635   7.115   5.658   9.050 -1.2378  0.2940 -1.4962
  947MOL0     H30636   7.388   5.553   8.783  1.2238 -4.3789  2.4485
  947MOL0     H30637   7.251   5.477   8.835 -1.5622  1.9812 -1.4769
  947MOL0     H30638   7.455   5.625   9.018 -0.8714  0.8376  3.5667
  947MOL0     H30639   7.328   5.519   9.077  0.8023  3.2517  1.6160
  947MOL0     H30640   7.435   5.331   8.980 -2.1742  1.0163  0.5784
  947MOL0     H30641   7.547   5.439   8.877 -1.1105  1.9954 -1.5749
  947MOL0     H30642   7.637   5.514   9.087  3.6691 -0.7203  0.6665
  947MOL0     H30643   7.529   5.425   9.186 -0.4222  3.4180  0.3277
  947MOL0     H30644   7.462   5.242   9.237  0.0773  1.4428 -0.9095
  947MOL0     H30645   7.350   5.113   9.432  2.2518  3.1355 -1.6892
  947MOL0     H30646   7.324   4.945   9.379 -0.1721 -1.8727 -3.6407
  947MOL0     H30647   7.273   5.082   9.285 -2.2556  0.4484  2.4936
  947MOL0     H30648   7.909   4.661   9.449  1.3040 -2.0623  2.8839
  947MOL0     H30649   7.936   4.449   9.587  2.0985  0.8820 -2.1103
  947MOL0     H30650   7.705   4.143   9.757  2.1583  0.4884 -0.0883
  947MOL0     H30651   7.592   4.223   9.649 -0.5126 -1.1969 -0.8112
  947MOL0     H30652   7.618   4.032   9.497  1.2492  3.3113 -0.7303
  947MOL0     H30653   7.770   3.977   9.582 -0.5652 -1.6153  0.1200
  947MOL0     H30654   7.517   3.998   9.742 -1.0424  0.1947 -1.3994
  947MOL0     H30655   7.655   3.892   9.763 -1.1931  1.7730  1.6439
  947MOL0     H30656   7.579   3.795   9.532  0.5492  2.8449 -1.0853
  947MOL0     H30657   7.440   3.887   9.541  1.4136 -0.4730 -0.4484
  947MOL0     H30658   7.392   3.667   9.633  1.5552 -1.7225 -0.0594
  947MOL0     H30659   7.529   3.673   9.730 -1.1746 -2.1353 -3.3514
  947MOL0     H30660   7.296   3.869   9.771  0.2596  1.8025  2.1535
  947MOL0     H30661   7.430   3.835   9.881 -1.7392  1.1978  1.2858
  947MOL0     H30662   7.278   3.697   9.960  1.0534  2.2585 -0.1383
  947MOL0     H30663   7.347   3.580   9.841 -2.2388 -0.8220 -3.8468
  947MOL0     H30664   7.097   3.579   9.848  1.3809 -0.3648  1.9279
  947MOL0     H30665   7.149   3.640   9.685 -0.5717 -2.2874  0.9169
  947MOL0     H30666   7.568   4.294   9.454  2.4736 -3.0480 -0.1955
  947MOL0     H30667   7.517   4.515   9.335 -0.1362  3.6372 -0.0124
  947MOL0     H30668   7.787   4.874   9.202 -0.0499 -0.7592  3.3805
  947MOL0     H30669   7.832   5.099   9.091  0.9326 -1.0019  1.2621
  947MOL0     H30670   6.144   5.621   8.774 -1.5136 -1.5562 -0.6359
  947MOL0     H30671   6.090   5.467   8.609 -0.7758 -1.7503 -2.3192
  947MOL0     H30672   5.814   5.542   8.084 -0.1892  1.2591 -0.2779
  947MOL0     H30673   5.809   5.447   7.873 -0.3375  1.2846  0.7970
  947MOL0     H30674   6.025   5.008   7.856  0.2190  0.6850  0.2517
  947MOL0     H30675   5.860   5.004   7.937  0.5922  1.6500  1.4484
  947MOL0     H30676   5.912   4.846   7.733 -1.5045  0.4893 -2.0206
  947MOL0     H30677   5.889   4.997   7.635  0.8998 -1.2984 -0.2074
  947MOL0     H30678   5.687   4.859   7.812 -0.3957 -0.4005 -0.1278
  947MOL0     H30679   5.663   5.012   7.717 -1.6083 -1.2116  1.5120
  947MOL0     H30680   5.732   4.841   7.517  2.7714 -0.2987  1.1720
  947MOL0     H30681   5.558   4.865   7.583 -0.8848  1.0596  4.8699
  947MOL0     H30682   5.677   4.464   7.681  1.9266  0.9436 -1.2791
  947MOL0     H30683   5.951   5.084   8.082  0.5944 -0.7163 -1.5552
  947MOL0     H30684   6.034   5.204   8.389 -1.3548 -1.8746  1.2131
  947MOL0     H30685   6.035   5.074   8.276 -0.0458  0.1824  1.6488
  947MOL0     H30686   6.151   5.202   8.251  0.6767 -2.4792  0.6245
  948MOL0     O30687   3.089   3.736   7.295 -0.8467  0.2365 -0.1678
  948MOL0     C30688   3.104   3.837   7.220  0.2683  0.8048  0.0898
  948MOL0     O30689   3.087   3.836   7.085 -0.4271  1.3622  0.0115
  948MOL0     C30690   3.029   3.738   7.014  0.3705  0.5783  0.5313
  948MOL0     C30691   2.964   3.784   6.898 -0.2199 -0.0666  0.2415
  948MOL0     C30692   2.917   3.695   6.798  0.7664 -1.3453 -1.0480
  948MOL0     C30693   2.939   3.560   6.812 -0.2277 -0.3534  0.5428
  948MOL0     O30694   2.897   3.463   6.724  0.4487 -0.1762 -0.7185
  948MOL0     C30695   2.872   3.500   6.594  0.2784  0.4520  0.5076
  948MOL0     C30696   2.826   3.373   6.523 -0.3970 -0.8840 -0.0785
  948MOL0     C30697   2.944   3.271   6.514 -0.3676  0.4466 -0.4308
  948MOL0     C30698   2.890   3.125   6.473 -0.5399 -0.3112 -0.5265
  948MOL0     C30699   2.806   3.128   6.351  0.9147  0.4936 -0.4332
  948MOL0     C30700   2.882   3.126   6.218 -0.1123 -0.3753  0.1374
  948MOL0     C30701   2.946   2.988   6.184 -0.4652  0.0302 -0.3184
  948MOL0     C30702   3.005   2.987   6.048  0.3760 -1.3173 -0.1714
  948MOL0     N30703   3.072   3.116   6.016 -0.6856 -0.7386 -0.7895
  948MOL0     C30704   3.210   3.148   6.017  0.2283  0.0618 -1.5641
  948MOL0     C30705   3.209   3.271   5.963  0.8354  0.2893  0.4298
  948MOL0     C30706   3.342   3.339   5.928  0.7378 -0.6232  0.0239
  948MOL0     C30707   3.357   3.478   6.003  0.9108 -0.4418  0.4368
  948MOL0     C30708   3.471   3.556   5.955 -1.0472  0.0671 -0.8333
  948MOL0     C30709   3.611   3.504   6.007 -0.5712  0.4983  0.7082
  948MOL0     O30710   3.633   3.480   6.146 -0.0646 -0.1668  0.4169
  948MOL0     C30711   3.757   3.480   6.196 -0.5525  0.1113 -0.3864
  948MOL0     C30712   3.756   3.482   6.332 -0.1732  0.0839 -1.1453
  948MOL0     C30713   3.864   3.456   6.416 -0.2139 -0.6230 -0.5339
  948MOL0     C30714   3.837   3.438   6.559 -0.4940  1.1576  0.4908
  948MOL0     C30715   3.990   3.430   6.355  0.2477 -0.2050  1.2427
  948MOL0     C30716   4.115   3.391   6.436  0.5516 -0.4793 -0.5032
  948MOL0     O30717   4.210   3.313   6.380  1.1362 -0.3277  0.5150
  948MOL0     C30718   4.296   3.222   6.440  0.3088  0.2812 -0.2332
  948MOL0     C30719   4.274   3.180   6.576  0.4159  0.2941 -1.1377
  948MOL0     C30720   4.363   3.086   6.630 -0.6232  0.4440  0.1559
  948MOL0     C30721   4.459   3.023   6.546 -1.5765 -0.2306 -0.2102
  948MOL0     O30722   4.568   2.944   6.591 -0.3138 -0.1882  0.3249
  948MOL0     C30723   4.575   2.910   6.729  0.0064  1.7162 -0.4335
  948MOL0     C30724   4.485   2.789   6.759  0.0895  0.5109 -0.1609
  948MOL0     C30725   4.485   2.768   6.916  0.6540  0.2847 -0.3275
  948MOL0     C30726   4.412   2.632   6.949 -0.5930 -0.8401  0.5234
  948MOL0     C30727   4.410   2.583   7.090  0.1737 -0.7647  0.0641
  948MOL0     C30728   4.552   2.561   7.154  1.3458  0.7614 -0.4976
  948MOL0     C30729   4.550   2.451   7.266 -0.0241 -0.2417 -0.2175
  948MOL0     C30730   4.670   2.459   7.364 -0.0481  0.0242  0.6353
  948MOL0    Cl30731   4.691   2.635   7.440 -0.0414  0.2087 -0.1599
  948MOL0     C30732   4.473   3.055   6.419  0.7582  0.5687  1.5589
  948MOL0     C30733   4.388   3.151   6.359  0.1599 -2.4955  1.3342
  948MOL0     O30734   4.120   3.430   6.551  0.1273 -0.2276  0.0549
  948MOL0     C30735   3.999   3.431   6.216  0.8257  0.2448  0.3334
  948MOL0     C30736   3.887   3.454   6.132  0.1697 -0.9387  0.1977
  948MOL0     N30737   3.077   3.320   5.943 -0.8185  1.0162  0.2002
  948MOL0     N30738   3.003   3.225   5.967 -0.4834  0.4246  0.2268
  948MOL0     C30739   3.018   3.515   6.920 -1.2315 -0.4315 -0.1022
  948MOL0     C30740   3.062   3.598   7.023  0.2308 -0.5140  1.2942
  948MOL0     C30741   3.150   3.952   7.293 -0.6239  0.2069 -0.5509
  948MOL0     C30742   3.097   3.969   7.420 -0.3159  0.3292  0.1108
  948MOL0     C30743   3.148   4.075   7.497  0.3509  0.1663 -0.0683
  948MOL0     C30744   3.234   4.176   7.445  0.5762  0.1793 -0.4396
  948MOL0     O30745   3.268   4.290   7.523 -0.7252 -0.1343  0.1676
  948MOL0     C30746   3.394   4.351   7.505 -0.4846 -0.2473  0.8823
  948MOL0     C30747   3.512   4.262   7.531 -0.4780 -0.4518  0.2551
  948MOL0     C30748   3.644   4.327   7.538 -0.7484  0.4141  0.9692
  948MOL0     C30749   3.646   4.401   7.670 -0.3746 -0.4160  0.4521
  948MOL0     C30750   3.777   4.460   7.716 -0.5328  0.3686  0.0950
  948MOL0     C30751   3.878   4.523   7.753 -0.1705 -0.4520 -0.4942
  948MOL0     C30752   3.286   4.153   7.314  0.1701 -0.3263 -0.1709
  948MOL0     C30753   3.247   4.041   7.244  0.6316 -0.7181 -0.0461
  948MOL0     C30754   3.309   4.016   7.104  0.0995 -0.2796  0.7512
  948MOL0     H30755   2.948   3.891   6.887 -0.4300 -0.1535 -0.3321
  948MOL0     H30756   2.854   3.718   6.713  2.0952 -0.3492 -1.7972
  948MOL0     H30757   2.961   3.533   6.539  0.4769 -1.1402 -0.1662
  948MOL0     H30758   2.792   3.575   6.587  0.2414  0.3569 -0.2007
  948MOL0     H30759   2.732   3.333   6.563 -1.3336  0.3388 -0.9626
  948MOL0     H30760   2.801   3.402   6.421  0.2378 -1.7980 -0.4957
  948MOL0     H30761   3.009   3.317   6.439  0.9006  0.5321  0.6856
  948MOL0     H30762   3.005   3.265   6.605 -2.6668  0.8711  1.2148
  948MOL0     H30763   2.979   3.063   6.461  0.1005  0.1006  1.7257
  948MOL0     H30764   2.828   3.082   6.553  0.9118 -0.5660  0.5037
  948MOL0     H30765   2.739   3.215   6.351  0.0884 -0.1286 -0.0718
  948MOL0     H30766   2.740   3.041   6.348  2.3174 -0.5639 -1.8190
  948MOL0     H30767   2.824   3.144   6.126  4.4664 -1.2809 -3.3227
  948MOL0     H30768   2.952   3.209   6.219  1.5447 -1.7284  0.8461
  948MOL0     H30769   2.864   2.915   6.186 -0.1679 -0.4591 -2.7735
  948MOL0     H30770   3.019   2.962   6.261 -0.4912  0.0422 -0.2896
  948MOL0     H30771   3.073   2.902   6.043  3.8408  1.2553 -0.7052
  948MOL0     H30772   2.933   2.979   5.965  1.4487  0.1014 -1.2973
  948MOL0     H30773   3.282   3.080   6.061  0.3658  0.9886 -0.2857
  948MOL0     H30774   3.334   3.356   5.820 -3.2803  0.4103  0.3329
  948MOL0     H30775   3.429   3.278   5.953  1.5830  1.6829  3.4142
  948MOL0     H30776   3.268   3.530   5.968  2.8627  1.6662 -1.7271
  948MOL0     H30777   3.352   3.462   6.112  1.8781 -2.8578  0.1792
  948MOL0     H30778   3.479   3.558   5.846  0.3267  1.2968 -0.7363
  948MOL0     H30779   3.478   3.655   6.000  1.6703 -0.5236  0.2596
  948MOL0     H30780   3.631   3.409   5.958  0.6884 -0.1389  2.3627
  948MOL0     H30781   3.695   3.571   5.984 -0.9824  1.0075  0.6730
  948MOL0     H30782   3.660   3.495   6.380 -0.1032  2.3425 -1.4916
  948MOL0     H30783   3.874   3.524   6.616  2.1372  1.4598 -1.4579
  948MOL0     H30784   3.882   3.343   6.588 -3.3742 -0.1938  0.8717
  948MOL0     H30785   3.729   3.425   6.568 -0.9713  3.0209 -1.6000
  948MOL0     H30786   4.200   3.220   6.644  1.1518 -1.1042  0.5771
  948MOL0     H30787   4.346   3.057   6.734 -2.0545  0.7530  0.0259
  948MOL0     H30788   4.679   2.885   6.754  0.1596 -1.8811 -3.7604
  948MOL0     H30789   4.531   2.985   6.795 -3.3172 -1.5242  1.3832
  948MOL0     H30790   4.384   2.825   6.737 -1.3887 -3.3661 -0.4713
  948MOL0     H30791   4.513   2.701   6.701 -1.2128  0.1369 -0.2549
  948MOL0     H30792   4.426   2.847   6.964  0.9771  0.9053 -0.9323
  948MOL0     H30793   4.587   2.766   6.957 -0.1956 -0.7495  1.8994
  948MOL0     H30794   4.473   2.557   6.897 -0.5933 -0.2159 -0.4165
  948MOL0     H30795   4.317   2.625   6.894  0.7042 -1.7408 -1.7659
  948MOL0     H30796   4.361   2.657   7.154 -0.4725 -0.2548 -0.9962
  948MOL0     H30797   4.347   2.494   7.080 -2.3664  0.5212  2.8991
  948MOL0     H30798   4.575   2.652   7.209  0.2172 -0.3945  2.0700
  948MOL0     H30799   4.630   2.536   7.082 -0.3913 -2.4010 -1.4898
  948MOL0     H30800   4.540   2.354   7.216  2.0286 -0.4382 -0.3241
  948MOL0     H30801   4.454   2.468   7.317 -1.0075 -3.4779 -0.7373
  948MOL0     H30802   4.763   2.440   7.309  0.0062  1.0457  0.3583
  948MOL0     H30803   4.671   2.382   7.441 -1.4667  0.8433  1.5128
  948MOL0     H30804   4.534   2.989   6.358 -2.5358 -1.4432  0.1039
  948MOL0     H30805   4.390   3.174   6.253 -1.7639  1.0958  1.9242
  948MOL0     H30806   4.095   3.397   6.179 -0.7993 -2.1132 -2.0299
  948MOL0     H30807   3.900   3.435   6.026 -2.6599 -6.0198  0.4638
  948MOL0     H30808   3.024   3.409   6.941  2.4290 -0.3732 -0.1933
  948MOL0     H30809   3.112   3.553   7.108  0.0034 -1.5361  0.9025
  948MOL0     H30810   3.025   3.902   7.465  0.1760  0.8912  1.7805
  948MOL0     H30811   3.110   4.084   7.598 -0.4647 -2.9901  0.0152
  948MOL0     H30812   3.396   4.390   7.403 -0.5802 -1.0847  0.5497
  948MOL0     H30813   3.396   4.434   7.576 -2.3146  1.2345 -0.6781
  948MOL0     H30814   3.527   4.184   7.455  0.1881 -1.6363  1.5706
  948MOL0     H30815   3.502   4.203   7.622 -2.7277 -2.5674 -1.2446
  948MOL0     H30816   3.727   4.256   7.533  1.2859  2.7459 -0.9195
  948MOL0     H30817   3.656   4.388   7.448 -0.8237 -2.1874 -0.9010
  948MOL0     H30818   3.620   4.334   7.753 -2.1167 -1.1732 -0.6582
  948MOL0     H30819   3.571   4.481   7.665  0.1210  0.1392  1.5609
  948MOL0     H30820   3.955   4.590   7.783 -3.3128  3.4523 -0.4164
  948MOL0     H30821   3.367   4.205   7.264 -0.1816  0.2613 -0.1452
  948MOL0     H30822   3.413   4.049   7.110 -0.2985  1.1062  0.4806
  948MOL0     H30823   3.321   3.910   7.082  1.0115 -0.2415  1.0187
  948MOL0     H30824   3.249   4.065   7.026 -0.4997  1.3559  2.1681
  949MOL0     O30825   2.128   9.941   4.448  0.1581  0.5419 -0.3816
  949MOL0     C30826   2.176   9.862   4.368 -0.4804 -0.2635 -0.3391
  949MOL0     O30827   2.218   9.742   4.396  0.0396  0.1958  0.6312
  949MOL0     C30828   2.244   9.697   4.522  0.5210  0.0958 -0.1127
  949MOL0     C30829   2.277   9.777   4.634 -0.9900  1.6934 -0.0120
  949MOL0     C30830   2.301   9.710   4.763 -0.1498 -0.1663 -0.2199
  949MOL0     C30831   2.296   9.572   4.771 -0.8667 -0.1294 -0.1182
  949MOL0     O30832   2.333   9.510   4.890 -0.4399 -0.0096 -0.6577
  949MOL0     C30833   2.454   9.548   4.953 -0.3420  0.3647 -0.1343
  949MOL0     C30834   2.434   9.541   5.095  0.1354  0.5265 -0.4277
  949MOL0     C30835   2.323   9.625   5.156 -0.1611  0.4014  0.3759
  949MOL0     C30836   2.301   9.565   5.302  0.0711 -0.7195 -0.6046
  949MOL0     C30837   2.197   9.457   5.296 -0.4924 -0.2113 -0.2394
  949MOL0     C30838   2.053   9.511   5.300  0.8205 -0.2723  0.4168
  949MOL0     C30839   1.954   9.431   5.210  1.0294 -0.4700  0.0725
  949MOL0     C30840   1.891   9.312   5.298 -0.7196 -0.3747  0.8199
  949MOL0     N30841   1.776   9.363   5.373  0.8713 -0.9331  1.0665
  949MOL0     C30842   1.659   9.411   5.308 -0.7979  0.1671  0.7535
  949MOL0     C30843   1.604   9.485   5.405 -0.8306 -0.0297  0.2075
  949MOL0     C30844   1.484   9.576   5.376  0.7465  0.0400 -0.2979
  949MOL0     C30845   1.499   9.672   5.265  0.0922  0.0037  0.8765
  949MOL0     C30846   1.623   9.757   5.279  0.5962 -0.4901  0.1977
  949MOL0     C30847   1.598   9.871   5.177  0.3106 -0.1636 -0.9019
  949MOL0     O30848   1.695   9.975   5.208 -0.4562  0.3710  0.4274
  949MOL0     C30849   1.710  10.092   5.131 -0.1428 -0.2184  0.5426
  949MOL0     C30850   1.796  10.188   5.174  0.5955 -0.9000  0.3549
  949MOL0     C30851   1.804  10.313   5.117 -1.0797 -0.1987  0.2975
  949MOL0     C30852   1.882  10.417   5.199  0.4839  0.2794 -0.8231
  949MOL0     C30853   1.732  10.335   4.999  0.1231 -0.1738  0.4662
  949MOL0     C30854   1.718  10.466   4.939 -0.6674 -1.0336 -0.7985
  949MOL0     O30855   1.600  10.504   4.879 -0.1561  0.0460  0.8280
  949MOL0     C30856   1.568  10.639   4.867 -0.1611 -0.4852  0.1593
  949MOL0     C30857   1.553  10.699   4.734  0.1248 -0.5453 -1.3097
  949MOL0     C30858   1.502  10.836   4.731  0.4663 -0.2939  0.7701
  949MOL0     C30859   1.463  10.905   4.849  0.3393  1.0538  0.2152
  949MOL0     O30860   1.413  11.032   4.858  0.1562  0.6724  1.0517
  949MOL0     C30861   1.431  11.115   4.736  0.0133 -0.2820 -0.3818
  949MOL0     C30862   1.358  11.247   4.750  1.0575  1.1247  0.6838
  949MOL0     C30863   1.211  11.236   4.732  0.2044  0.1511  1.8333
  949MOL0     C30864   1.146  11.376   4.732 -0.3901  0.0030 -0.2284
  949MOL0     C30865   0.998  11.358   4.692  0.0434 -0.6142  0.3592
  949MOL0     C30866   0.910  11.356   4.820  0.9964  0.5810  0.4150
  949MOL0     C30867   0.771  11.303   4.782  0.3236 -0.0480 -0.5942
  949MOL0     C30868   0.653  11.336   4.881  0.3688 -0.6855 -0.3718
  949MOL0    Cl30869   0.686  11.281   5.047 -0.1877  0.0957 -0.3199
  949MOL0     C30870   1.486  10.853   4.969 -0.1270 -0.2911 -0.3257
  949MOL0     C30871   1.542  10.727   4.981  0.1890  0.2513  0.9470
  949MOL0     O30872   1.804  10.556   4.964  0.2939 -0.0732 -0.5918
  949MOL0     C30873   1.664  10.236   4.944 -0.2841  1.1395 -0.5636
  949MOL0     C30874   1.639  10.111   5.011  0.5224  0.0183  0.5998
  949MOL0     N30875   1.667   9.459   5.528 -1.0237  0.0906  0.3436
  949MOL0     N30876   1.769   9.389   5.511  0.8370 -0.3476 -0.1802
  949MOL0     C30877   2.253   9.499   4.664  0.4915  0.5679 -1.1921
  949MOL0     C30878   2.228   9.560   4.541 -0.6716 -1.1500 -0.2018
  949MOL0     C30879   2.183   9.912   4.222  0.3192 -0.2569  0.1774
  949MOL0     C30880   2.145  10.046   4.207 -0.4172  0.1283 -0.2560
  949MOL0     C30881   2.164  10.118   4.078  0.5148  0.6305 -0.4905
  949MOL0     C30882   2.204  10.049   3.965  0.1991 -0.4977  0.8145
  949MOL0     O30883   2.224  10.118   3.846  0.5964  0.4782  0.1153
  949MOL0     C30884   2.253  10.045   3.723  1.5998 -0.5007 -0.4819
  949MOL0     C30885   2.400  10.004   3.713 -0.0235 -0.5060 -0.1945
  949MOL0     C30886   2.483  10.108   3.641 -0.5370 -0.1991 -0.1595
  949MOL0     C30887   2.639  10.076   3.640 -0.0030  0.3148 -1.1367
  949MOL0     C30888   2.665   9.989   3.532 -0.6758 -0.0949  0.3858
  949MOL0     C30889   2.712   9.909   3.453  0.4383 -0.3219 -0.1809
  949MOL0     C30890   2.224   9.914   3.982 -0.7344  0.5329  0.5317
  949MOL0     C30891   2.216   9.844   4.102 -0.0285  0.7108 -0.5410
  949MOL0     C30892   2.236   9.690   4.102 -0.3680 -0.4313 -0.4848
  949MOL0     H30893   2.273   9.881   4.664 -3.0032  0.6779  4.0495
  949MOL0     H30894   2.334   9.752   4.857  1.8234 -0.5134 -0.7176
  949MOL0     H30895   2.494   9.645   4.923  1.7658 -0.1304  0.8319
  949MOL0     H30896   2.534   9.482   4.919  1.1830  3.3457 -2.9109
  949MOL0     H30897   2.420   9.434   5.112 -1.2229  0.6163 -0.8699
  949MOL0     H30898   2.519   9.581   5.150 -0.6335  0.1057  1.1156
  949MOL0     H30899   2.357   9.729   5.158  0.1600  0.3641 -1.2090
  949MOL0     H30900   2.227   9.630   5.104 -0.4393 -0.5352  0.7798
  949MOL0     H30901   2.390   9.529   5.355  0.4694 -1.6518 -1.8586
  949MOL0     H30902   2.263   9.641   5.371 -0.5809  1.0586 -2.8108
  949MOL0     H30903   2.207   9.389   5.381 -3.3767  0.0423  0.3806
  949MOL0     H30904   2.219   9.392   5.211 -2.6931  2.5360 -3.1281
  949MOL0     H30905   2.014   9.524   5.402 -0.5037  0.6634 -0.1689
  949MOL0     H30906   2.049   9.609   5.250  3.0924  0.3161  1.2824
  949MOL0     H30907   2.014   9.405   5.122  3.4672  1.5238  1.0329
  949MOL0     H30908   1.871   9.492   5.175 -1.3476 -1.9294  2.7532
  949MOL0     H30909   1.855   9.229   5.238 -1.9171  1.4611 -1.1340
  949MOL0     H30910   1.971   9.274   5.362  0.8067 -0.3934 -1.0225
  949MOL0     H30911   1.635   9.417   5.202  0.5333  1.6265  0.4814
  949MOL0     H30912   1.468   9.636   5.467  0.5922 -2.3665  1.3767
  949MOL0     H30913   1.388   9.526   5.361 -0.0641  0.5981  2.3971
  949MOL0     H30914   1.499   9.609   5.175 -0.0771  0.4248  0.5808
  949MOL0     H30915   1.407   9.731   5.268 -1.1657 -1.9187  2.2798
  949MOL0     H30916   1.622   9.796   5.381 -1.3686 -1.8593  0.7705
  949MOL0     H30917   1.717   9.707   5.252 -0.3702 -1.7459 -0.9967
  949MOL0     H30918   1.604   9.829   5.077 -2.9856 -4.2425  0.3361
  949MOL0     H30919   1.501   9.919   5.193 -0.0587 -1.2047  0.1112
  949MOL0     H30920   1.847  10.170   5.268 -1.4757 -0.9420  1.5451
  949MOL0     H30921   1.980  10.370   5.211  0.2597  0.2551  1.5808
  949MOL0     H30922   1.827  10.418   5.294 -0.4045  2.0918 -1.3337
  949MOL0     H30923   1.895  10.520   5.166  0.6872 -0.0238 -1.7155
  949MOL0     H30924   1.576  10.633   4.651 -0.1185 -2.6566  0.2128
  949MOL0     H30925   1.474  10.887   4.640 -0.9324 -1.2412  0.6401
  949MOL0     H30926   1.539  11.133   4.740 -0.3082  1.8767  0.2162
  949MOL0     H30927   1.403  11.066   4.643  0.8967 -3.9857  1.1472
  949MOL0     H30928   1.379  11.307   4.839 -1.8504  1.6508  1.1063
  949MOL0     H30929   1.383  11.301   4.658  1.6534 -1.4454 -0.7666
  949MOL0     H30930   1.154  11.183   4.809 -0.5385 -0.1368  1.0994
  949MOL0     H30931   1.189  11.186   4.637  1.1130  2.5136  0.3034
  949MOL0     H30932   1.194  11.433   4.652  1.2734 -2.7772 -1.3589
  949MOL0     H30933   1.167  11.428   4.826 -0.5913  0.2184 -0.3027
  949MOL0     H30934   0.969  11.439   4.625 -0.9459  0.2741  1.7932
  949MOL0     H30935   0.978  11.270   4.631 -2.0576  0.1009 -0.0728
  949MOL0     H30936   0.914  11.459   4.858  0.7275  0.3171  1.1793
  949MOL0     H30937   0.961  11.299   4.898  2.3477  1.0238 -0.1110
  949MOL0     H30938   0.795  11.196   4.781  0.9226  0.0014  2.0197
  949MOL0     H30939   0.746  11.337   4.681  2.8301  1.9773 -0.6217
  949MOL0     H30940   0.555  11.304   4.844 -0.7467  1.0856  0.8729
  949MOL0     H30941   0.635  11.444   4.885  0.7634 -0.5881 -1.0117
  949MOL0     H30942   1.479  10.913   5.059  3.9099 -1.6429  1.1311
  949MOL0     H30943   1.568  10.687   5.079  2.1066  1.5850  1.0353
  949MOL0     H30944   1.606  10.250   4.853  0.9682 -1.6175 -1.9091
  949MOL0     H30945   1.575  10.038   4.963  3.3477 -0.6168 -2.5270
  949MOL0     H30946   2.228   9.394   4.664  4.5238 -0.5833 -2.6424
  949MOL0     H30947   2.216   9.498   4.453 -2.8462  1.2155 -1.6916
  949MOL0     H30948   2.093  10.112   4.275 -2.9903  0.2919 -2.2300
  949MOL0     H30949   2.131  10.221   4.078  0.6447  0.6692 -0.9702
  949MOL0     H30950   2.191   9.954   3.725  1.0795 -0.1522 -0.7463
  949MOL0     H30951   2.209  10.091   3.635 -1.5649 -1.3933  0.4855
  949MOL0     H30952   2.398   9.916   3.648  2.0212 -1.2862  0.7085
  949MOL0     H30953   2.444   9.969   3.807 -2.0454 -3.6538 -0.2729
  949MOL0     H30954   2.452  10.118   3.536  2.9827  0.6115 -1.2640
  949MOL0     H30955   2.468  10.203   3.693 -3.6655  0.0965 -1.3364
  949MOL0     H30956   2.664  10.036   3.739  0.7023  0.9784 -1.0371
  949MOL0     H30957   2.692  10.169   3.617 -0.7482  1.1453  0.3675
  949MOL0     H30958   2.744   9.849   3.370 -1.0207 -1.6199  0.1442
  949MOL0     H30959   2.250   9.856   3.894 -2.0153  2.9285 -1.5472
  949MOL0     H30960   2.259   9.651   4.003  0.2198  0.1200 -0.5709
  949MOL0     H30961   2.315   9.663   4.173 -2.1833  1.4082  2.4632
  949MOL0     H30962   2.141   9.650   4.139 -0.1052 -1.3195 -0.7289
  950MOL0     O30963   9.939   9.119  11.079 -0.5615  0.9418 -0.9003
  950MOL0     C30964   9.957   9.122  10.954 -0.8356 -0.8317  0.3078
  950MOL0     O30965   9.868   9.150  10.862 -0.0125 -0.2303  0.3014
  950MOL0     C30966   9.749   9.147  10.918  0.3492  0.7473 -0.4224
  950MOL0     C30967   9.667   9.030  10.908 -0.6725 -0.4396  0.5227
  950MOL0     C30968   9.534   9.036  10.957 -0.7114 -1.0638  1.4239
  950MOL0     C30969   9.481   9.137  11.027 -0.0607 -0.0571 -0.6925
  950MOL0     O30970   9.348   9.118  11.039  0.2570 -0.8204 -0.0108
  950MOL0     C30971   9.276   9.195  11.129 -0.4140 -0.1659 -0.1768
  950MOL0     C30972   9.137   9.130  11.161 -0.2187  0.9665  0.0437
  950MOL0     C30973   9.075   9.152  11.295 -0.6025  0.6168 -0.3134
  950MOL0     C30974   9.151   9.065  11.407  0.5727 -0.6162 -0.6862
  950MOL0     C30975   9.115   8.921  11.393  0.1902 -0.5280  0.4496
  950MOL0     C30976   9.167   8.832  11.515  0.2519  0.8516 -0.6069
  950MOL0     C30977   9.166   8.680  11.500  0.2370 -0.3291  0.3745
  950MOL0     C30978   9.241   8.607  11.624 -0.2545 -0.0369  0.1627
  950MOL0     N30979   9.178   8.490  11.684 -0.0842 -0.7362  0.2713
  950MOL0     C30980   9.103   8.491  11.799 -0.3392  0.0933  0.8586
  950MOL0     C30981   9.037   8.372  11.810 -0.1848  0.5527 -0.1518
  950MOL0     C30982   8.928   8.329  11.916 -0.1085 -0.3767  0.2528
  950MOL0     C30983   8.801   8.424  11.917 -0.3837 -0.1203  0.7604
  950MOL0     C30984   8.732   8.400  11.778  0.2669  0.1014  0.8253
  950MOL0     C30985   8.585   8.428  11.774 -0.2989  0.2508 -0.3336
  950MOL0     O30986   8.569   8.557  11.846 -0.4992  0.5262 -0.0140
  950MOL0     C30987   8.442   8.562  11.904 -0.0702  0.0085  0.7458
  950MOL0     C30988   8.428   8.611  12.031 -0.0211  0.4171 -0.3704
  950MOL0     C30989   8.297   8.619  12.087  0.1267  0.0078 -0.3772
  950MOL0     C30990   8.289   8.689  12.209 -0.6148 -0.7324 -0.5788
  950MOL0     C30991   8.183   8.586  12.014  0.2482 -0.3767  0.3087
  950MOL0     C30992   8.042   8.618  12.037  0.1629  0.8700 -0.1533
  950MOL0     O30993   8.008   8.595  12.168  0.4762 -0.1021  0.2399
  950MOL0     C30994   7.879   8.568  12.208 -0.2965 -0.4232 -0.2909
  950MOL0     C30995   7.763   8.530  12.135 -0.1439  0.0354  0.0258
  950MOL0     C30996   7.651   8.477  12.197  0.0262  0.6707 -0.1214
  950MOL0     C30997   7.639   8.471  12.337 -0.6008  0.5295  0.0212
  950MOL0     O30998   7.536   8.428  12.411  0.2377  0.0286 -0.0257
  950MOL0     C30999   7.470   8.314  12.351  0.3376  1.1756  0.0681
  950MOL0     C31000   7.356   8.266  12.434  0.2208  0.1249 -0.1905
  950MOL0     C31001   7.236   8.352  12.428  0.2371  0.5518  0.3787
  950MOL0     C31002   7.113   8.284  12.498  0.3903  0.2637  0.2167
  950MOL0     C31003   7.000   8.378  12.515  0.4897 -0.0027  0.1096
  950MOL0     C31004   6.892   8.317  12.599  0.2746 -0.8397  0.0610
  950MOL0     C31005   6.800   8.208  12.532  0.5138 -0.2943  0.2143
  950MOL0     C31006   6.712   8.150  12.646  0.0794  0.4830  0.6239
  950MOL0    Cl31007   6.828   8.063  12.757  0.1353  0.1073 -0.0004
  950MOL0     C31008   7.744   8.523  12.412 -0.2704 -0.0850  0.9444
  950MOL0     C31009   7.863   8.572  12.354  0.6823 -0.0981  0.9264
  950MOL0     O31010   7.962   8.652  11.955 -0.5157 -0.6659 -0.3158
  950MOL0     C31011   8.206   8.528  11.884 -0.4665 -0.5391 -0.3221
  950MOL0     C31012   8.332   8.507  11.837 -0.3462  0.2676 -0.2469
  950MOL0     N31013   9.072   8.302  11.697  0.9865  0.3451  0.0655
  950MOL0     N31014   9.171   8.366  11.643  0.9941  0.1072 -0.7422
  950MOL0     C31015   9.565   9.240  11.056  0.3438 -1.7439  1.3439
  950MOL0     C31016   9.692   9.254  11.000 -1.1375 -0.5363  0.9099
  950MOL0     C31017  10.097   9.134  10.906  0.8303 -1.0775 -0.6922
  950MOL0     C31018  10.178   9.233  10.973 -0.6070  0.0623  0.6574
  950MOL0     C31019  10.305   9.254  10.927  0.0737  0.9580 -0.3649
  950MOL0     C31020  10.360   9.191  10.823 -0.6659  0.4332  0.1400
  950MOL0     O31021  10.493   9.216  10.788 -0.7357  0.4957 -0.4318
  950MOL0     C31022  10.583   9.136  10.876 -1.0996 -0.4623  0.2414
  950MOL0     C31023  10.677   9.240  10.946 -0.1858 -1.3323  0.3943
  950MOL0     C31024  10.741   9.345  10.844  0.4803 -0.7468 -0.2937
  950MOL0     C31025  10.883   9.390  10.876 -0.5727 -0.3707 -0.0116
  950MOL0     C31026  10.877   9.497  10.972 -0.7760  0.2466 -0.6411
  950MOL0     C31027  10.896   9.574  11.065  0.2533 -0.5198  0.6741
  950MOL0     C31028  10.278   9.101  10.753  0.3823  0.3827  0.2645
  950MOL0     C31029  10.150   9.072  10.794  0.4575 -0.0118  0.4926
  950MOL0     C31030  10.063   8.979  10.719 -0.3571  0.7000 -0.8285
  950MOL0     H31031   9.708   8.938  10.868  3.6041  0.9377  1.3060
  950MOL0     H31032   9.467   8.952  10.939  0.2829 -1.2135 -2.1435
  950MOL0     H31033   9.253   9.294  11.090  0.4043 -0.5699 -1.7816
  950MOL0     H31034   9.331   9.201  11.224  2.7716  0.1907 -1.8991
  950MOL0     H31035   9.068   9.173  11.088  0.2330 -2.0906 -2.3741
  950MOL0     H31036   9.140   9.023  11.137  3.7633  0.4177  2.1732
  950MOL0     H31037   9.090   9.259  11.313 -0.8866  0.9382 -1.8498
  950MOL0     H31038   8.974   9.110  11.294 -0.3497 -0.0009 -0.2620
  950MOL0     H31039   9.258   9.086  11.410  0.4568  0.0868  2.9176
  950MOL0     H31040   9.121   9.093  11.508  0.2488 -2.7187 -0.1393
  950MOL0     H31041   9.147   8.883  11.296 -1.0167  2.3422 -1.1793
  950MOL0     H31042   9.006   8.920  11.400 -0.1545  2.0777 -2.5504
  950MOL0     H31043   9.270   8.859  11.537  0.7268  0.2899 -2.0114
  950MOL0     H31044   9.102   8.845  11.602  2.4425 -0.6465  1.3878
  950MOL0     H31045   9.203   8.649  11.402  1.3795  3.4162 -0.5547
  950MOL0     H31046   9.060   8.656  11.502 -0.4727  2.4033  0.2393
  950MOL0     H31047   9.342   8.590  11.586 -0.2448  0.5711 -0.1071
  950MOL0     H31048   9.269   8.674  11.707  3.5258 -2.6975  1.2848
  950MOL0     H31049   9.096   8.570  11.874 -4.1898  0.2393  0.5091
  950MOL0     H31050   8.969   8.324  12.017  0.5095  1.6871  0.1459
  950MOL0     H31051   8.919   8.224  11.887  0.3762 -0.1545 -0.7660
  950MOL0     H31052   8.740   8.389  12.000  0.3096 -1.4632  0.7300
  950MOL0     H31053   8.831   8.528  11.933  1.5990 -0.4752 -0.3633
  950MOL0     H31054   8.776   8.477  11.714 -0.3325  1.5233  2.0597
  950MOL0     H31055   8.747   8.298  11.742 -5.2592  0.0661 -2.5581
  950MOL0     H31056   8.540   8.439  11.675 -0.7555 -2.5098 -0.5213
  950MOL0     H31057   8.537   8.347  11.830 -0.9076  1.7715  1.4455
  950MOL0     H31058   8.512   8.645  12.090 -0.4673  0.1702  0.4184
  950MOL0     H31059   8.388   8.700  12.255 -0.2229 -2.9863 -0.7599
  950MOL0     H31060   8.228   8.631  12.279  0.3588  0.7173  1.5583
  950MOL0     H31061   8.261   8.794  12.203 -0.5929 -0.5895  1.2321
  950MOL0     H31062   7.766   8.538  12.027  1.4178 -0.0780  0.0447
  950MOL0     H31063   7.570   8.436  12.137  1.7912  1.3563 -3.2035
  950MOL0     H31064   7.430   8.332  12.251  0.1906  0.1640 -0.0629
  950MOL0     H31065   7.547   8.237  12.357  0.2251  0.8921 -1.6608
  950MOL0     H31066   7.326   8.168  12.395 -0.5171  0.4573 -0.4659
  950MOL0     H31067   7.386   8.248  12.538 -2.8968 -2.8584  0.3669
  950MOL0     H31068   7.201   8.367  12.326 -2.2080  0.7521  1.1797
  950MOL0     H31069   7.272   8.449  12.465 -2.1474  2.9144 -2.8721
  950MOL0     H31070   7.134   8.236  12.594  0.9785 -1.4811 -0.7516
  950MOL0     H31071   7.087   8.203  12.430  2.6790 -2.4218  2.3168
  950MOL0     H31072   7.041   8.458  12.577 -1.9911  3.0641 -1.9010
  950MOL0     H31073   6.979   8.426  12.419  0.7229  0.8871  0.4987
  950MOL0     H31074   6.824   8.394  12.637  4.7582  2.6520  2.0216
  950MOL0     H31075   6.935   8.268  12.688 -1.7299  3.1600  3.6190
  950MOL0     H31076   6.848   8.125  12.479 -2.8115 -1.8382 -0.6108
  950MOL0     H31077   6.733   8.261  12.465  0.9536 -1.2681 -1.0319
  950MOL0     H31078   6.652   8.069  12.603 -0.4817  0.1314  2.0381
  950MOL0     H31079   6.662   8.227  12.705 -0.4044  0.9185 -0.3222
  950MOL0     H31080   7.729   8.529  12.519 -1.7839  0.1729  0.7410
  950MOL0     H31081   7.953   8.600  12.409  2.5530  0.8289 -2.3163
  950MOL0     H31082   8.124   8.473  11.838 -0.1560 -2.5803  1.4258
  950MOL0     H31083   8.342   8.430  11.761  2.9089 -1.8671  2.1295
  950MOL0     H31084   9.538   9.333  11.104  1.8646  0.7938 -2.2626
  950MOL0     H31085   9.761   9.337  11.012  1.6114 -2.1552 -2.0637
  950MOL0     H31086  10.148   9.293  11.058 -3.2292  2.2085 -1.5900
  950MOL0     H31087  10.361   9.327  10.985 -0.1102  1.2311 -0.5291
  950MOL0     H31088  10.531   9.086  10.958  0.0105 -2.5404 -0.2546
  950MOL0     H31089  10.640   9.058  10.824  0.5934  0.6850  0.3113
  950MOL0     H31090  10.752   9.202  11.017  0.2606  0.1129  0.7291
  950MOL0     H31091  10.604   9.303  10.997  0.4549 -1.4611  1.4996
  950MOL0     H31092  10.749   9.302  10.744  0.6586 -0.2225 -0.5140
  950MOL0     H31093  10.668   9.422  10.819  1.2079 -0.9644 -3.5713
  950MOL0     H31094  10.932   9.434  10.788  1.2306  2.2536  2.1330
  950MOL0     H31095  10.947   9.308  10.908  3.1355  0.7373 -3.6686
  950MOL0     H31096  10.906   9.634  11.153 -2.2263  1.9943 -0.5786
  950MOL0     H31097  10.324   9.041  10.675 -0.5354  1.4271 -1.1287
  950MOL0     H31098  10.038   8.897  10.787  4.0219 -0.5363 -0.3778
  950MOL0     H31099   9.977   9.033  10.679  0.6693  1.5596 -1.9420
  950MOL0     H31100  10.112   8.941  10.629  0.1851 -0.9377  0.1097
  951MOL0     O31101  10.367  10.289   7.399  0.0594  0.2193 -0.2608
  951MOL0     C31102  10.260  10.351   7.420 -0.9570  0.7186  0.0623
  951MOL0     O31103  10.141  10.288   7.427 -0.3154 -0.0857  1.4776
  951MOL0     C31104  10.110  10.169   7.363  0.0516 -0.1662 -1.2645
  951MOL0     C31105  10.167  10.140   7.235  1.0252 -0.1930  0.1218
  951MOL0     C31106  10.124  10.018   7.174  0.2456  0.2500  0.5571
  951MOL0     C31107  10.029   9.937   7.235 -0.5936 -0.0374 -0.1112
  951MOL0     O31108   9.976   9.833   7.167 -1.1771 -0.1982 -0.4387
  951MOL0     C31109   9.978   9.839   7.021  0.7708  0.3565 -0.9610
  951MOL0     C31110   9.903   9.722   6.952 -0.2548 -0.7594  0.3547
  951MOL0     C31111   9.937   9.577   6.997 -0.1457 -0.6967  0.6461
  951MOL0     C31112   9.827   9.491   6.943 -0.4353 -0.3202 -0.9789
  951MOL0     C31113   9.873   9.342   6.934 -0.1726 -0.0204 -0.3681
  951MOL0     C31114   9.957   9.279   7.045 -0.5681  0.4845 -0.1041
  951MOL0     C31115   9.886   9.285   7.181  0.4634 -0.0994 -0.8549
  951MOL0     C31116   9.949   9.194   7.288 -0.3175  0.6043 -0.4149
  951MOL0     N31117   9.905   9.053   7.277  0.3018 -1.2234  0.7883
  951MOL0     C31118   9.936   8.965   7.178 -0.7138 -0.2488  1.2318
  951MOL0     C31119   9.891   8.846   7.225 -0.2639  0.1125 -0.1722
  951MOL0     C31120   9.911   8.708   7.158 -0.3446 -1.1221  0.3866
  951MOL0     C31121   9.798   8.605   7.200  0.0985 -0.1085 -0.1281
  951MOL0     C31122   9.818   8.481   7.112  1.5873  0.3823 -0.5472
  951MOL0     C31123   9.752   8.354   7.152 -0.3505  0.3726  0.1964
  951MOL0     O31124   9.615   8.371   7.198  0.0439  0.4014 -0.1139
  951MOL0     C31125   9.526   8.279   7.141 -0.4561 -0.2032 -0.9167
  951MOL0     C31126   9.441   8.321   7.051 -0.3034  0.7404 -0.1564
  951MOL0     C31127   9.378   8.217   6.976  0.0152  0.2652  0.5447
  951MOL0     C31128   9.317   8.255   6.847  0.3014 -0.2339  0.0127
  951MOL0     C31129   9.377   8.081   7.020  0.7754  0.8454 -0.0078
  951MOL0     C31130   9.307   7.959   6.964 -0.9370 -0.1462  0.1284
  951MOL0     O31131   9.307   7.845   7.038 -0.4354 -0.0024  0.2540
  951MOL0     C31132   9.267   7.728   6.978 -0.3164  0.0241  0.2473
  951MOL0     C31133   9.203   7.633   7.060 -0.3364 -0.0456  0.3456
  951MOL0     C31134   9.161   7.508   7.005 -0.0113  0.0152 -0.0919
  951MOL0     C31135   9.178   7.480   6.871  0.2878 -0.9461  0.2716
  951MOL0     O31136   9.137   7.362   6.818 -0.6090 -0.0225  0.1459
  951MOL0     C31137   9.009   7.314   6.854  0.7998 -0.2436 -0.3504
  951MOL0     C31138   8.894   7.354   6.749  0.2181  0.1287  0.2253
  951MOL0     C31139   8.760   7.285   6.775  1.3345 -0.2794 -0.0829
  951MOL0     C31140   8.693   7.290   6.915 -0.7405 -0.7197  0.2339
  951MOL0     C31141   8.584   7.185   6.922 -0.3844 -0.9084  0.3046
  951MOL0     C31142   8.519   7.176   7.063 -0.4218 -0.7909 -0.5227
  951MOL0     C31143   8.448   7.317   7.088  1.0943  0.8463 -0.5085
  951MOL0     C31144   8.346   7.306   7.209 -0.0220 -0.0271 -0.4540
  951MOL0    Cl31145   8.216   7.183   7.188 -0.3016  0.3319 -0.5743
  951MOL0     C31146   9.240   7.579   6.795  0.4644  0.0223 -0.0091
  951MOL0     C31147   9.291   7.700   6.842 -0.9543  0.9436  0.3549
  951MOL0     O31148   9.261   7.975   6.855  0.6116 -0.2320 -0.9868
  951MOL0     C31149   9.448   8.055   7.140 -0.5962  0.2954 -0.1635
  951MOL0     C31150   9.531   8.152   7.198  0.9349  0.5352 -0.3233
  951MOL0     N31151   9.826   8.867   7.340 -0.2272  1.5661 -0.1031
  951MOL0     N31152   9.829   8.991   7.361  0.3658 -0.4091  0.8835
  951MOL0     C31153   9.979   9.966   7.363 -0.5518 -0.6252  0.0936
  951MOL0     C31154  10.019  10.081   7.430  0.0641  0.2390 -0.2115
  951MOL0     C31155  10.265  10.494   7.444 -0.6614 -0.8766  0.1938
  951MOL0     C31156  10.376  10.568   7.390  0.3269 -0.5115 -0.0861
  951MOL0     C31157  10.378  10.710   7.400 -0.5225  0.0191 -0.3289
  951MOL0     C31158  10.276  10.779   7.456  0.4523 -0.0616 -0.3039
  951MOL0     O31159  10.288  10.912   7.446  0.0446 -0.4736 -0.0648
  951MOL0     C31160  10.201  10.996   7.517  0.3067  0.8049  0.0581
  951MOL0     C31161  10.244  11.145   7.509  0.0439  0.7915 -0.3295
  951MOL0     C31162  10.211  11.217   7.374  0.9736  0.3421 -0.2021
  951MOL0     C31163  10.075  11.271   7.372  0.1530 -0.0016  0.4997
  951MOL0     C31164  10.074  11.405   7.409  0.2208  1.0422 -0.3708
  951MOL0     C31165  10.077  11.518   7.456 -0.5196 -0.1243 -1.2612
  951MOL0     C31166  10.180  10.707   7.517  0.3138 -0.6301  0.3504
  951MOL0     C31167  10.163  10.566   7.507  0.9223 -0.0465 -0.0016
  951MOL0     C31168  10.056  10.494   7.589 -1.0143 -1.0227 -0.0373
  951MOL0     H31169  10.237  10.202   7.180  0.1643  0.6012 -0.1239
  951MOL0     H31170  10.172   9.986   7.082 -0.9469  1.1892 -0.4341
  951MOL0     H31171  10.082   9.825   6.992  1.5208 -0.8208  1.9588
  951MOL0     H31172   9.937   9.936   6.989 -0.1196  0.6403  0.8932
  951MOL0     H31173   9.798   9.746   6.970  0.3709  2.3601  0.3490
  951MOL0     H31174   9.918   9.737   6.845 -0.8423  2.0223  0.6079
  951MOL0     H31175  10.039   9.550   6.967  1.7269  0.7264  5.0196
  951MOL0     H31176   9.945   9.571   7.106  3.8263  1.6869  0.6908
  951MOL0     H31177   9.738   9.508   7.004 -0.3881  0.5160 -1.1331
  951MOL0     H31178   9.800   9.538   6.847  0.1353  4.0229  0.7481
  951MOL0     H31179   9.923   9.326   6.838  0.2999 -1.3879  0.0849
  951MOL0     H31180   9.782   9.283   6.922 -0.9686  0.6904  1.6690
  951MOL0     H31181   9.986   9.175   7.030  2.5499  1.0974  0.7932
  951MOL0     H31182  10.044   9.345   7.049 -1.2238  1.4848 -1.6916
  951MOL0     H31183   9.780   9.263   7.171  0.3218  0.1655  0.0183
  951MOL0     H31184   9.894   9.391   7.209 -1.2637  0.3939 -2.0949
  951MOL0     H31185  10.059   9.200   7.289 -0.3316  0.9504  0.5986
  951MOL0     H31186   9.923   9.231   7.388  3.2821  0.6309  0.6653
  951MOL0     H31187   9.996   8.985   7.090  1.0875  2.1525  2.8843
  951MOL0     H31188  10.010   8.663   7.163  0.5161 -0.2277 -4.0647
  951MOL0     H31189   9.895   8.718   7.050 -1.0270 -3.1663  0.2540
  951MOL0     H31190   9.804   8.583   7.307 -0.7638  1.5856  0.2942
  951MOL0     H31191   9.703   8.647   7.166 -0.1846 -0.3926  0.2956
  951MOL0     H31192   9.774   8.498   7.013 -0.5958 -0.8653  0.1605
  951MOL0     H31193   9.924   8.453   7.107  1.0695 -2.5864  2.1871
  951MOL0     H31194   9.752   8.285   7.067 -0.4072 -0.6607  1.0114
  951MOL0     H31195   9.802   8.309   7.238 -2.6785 -0.8469  1.0106
  951MOL0     H31196   9.450   8.426   7.023  0.0402  0.5309 -0.8444
  951MOL0     H31197   9.208   8.245   6.845  0.2356  0.3826  0.2160
  951MOL0     H31198   9.363   8.210   6.758  1.4074  2.0996 -0.6937
  951MOL0     H31199   9.331   8.362   6.828 -1.7847 -0.0309 -0.7069
  951MOL0     H31200   9.182   7.671   7.159  3.1547  2.3758  0.3565
  951MOL0     H31201   9.108   7.445   7.076 -0.4597  1.9268  1.3416
  951MOL0     H31202   8.997   7.205   6.845  1.5749 -0.2205 -2.2493
  951MOL0     H31203   8.971   7.346   6.951 -1.8687  1.1921 -1.7730
  951MOL0     H31204   8.898   7.463   6.747  4.0224  0.0951 -1.7082
  951MOL0     H31205   8.931   7.318   6.652 -2.6021 -0.9881 -0.5349
  951MOL0     H31206   8.776   7.179   6.755 -0.7649 -0.9239  1.3927
  951MOL0     H31207   8.692   7.330   6.702  2.1847 -1.0931 -1.4296
  951MOL0     H31208   8.644   7.388   6.910  3.9237  1.9617  0.9700
  951MOL0     H31209   8.762   7.262   6.995 -0.5002 -0.0973  0.2507
  951MOL0     H31210   8.502   7.196   6.850 -0.3923 -2.8059 -0.0295
  951MOL0     H31211   8.624   7.085   6.901 -0.0845 -0.6059 -0.6442
  951MOL0     H31212   8.592   7.178   7.144 -0.4809 -1.6492 -0.4440
  951MOL0     H31213   8.453   7.090   7.077 -1.2959 -0.8688 -4.0221
  951MOL0     H31214   8.401   7.350   6.996  0.1000 -0.3363 -0.4454
  951MOL0     H31215   8.513   7.396   7.129 -1.1199  1.6299  1.7668
  951MOL0     H31216   8.302   7.404   7.228 -1.1054 -0.9744  2.6051
  951MOL0     H31217   8.404   7.287   7.300 -3.9068 -0.8512  2.1053
  951MOL0     H31218   9.239   7.548   6.691 -4.0751 -3.3827  0.6766
  951MOL0     H31219   9.345   7.770   6.778 -0.5216  1.6024  1.4162
  951MOL0     H31220   9.461   7.954   7.178 -0.4751 -0.0473 -1.0844
  951MOL0     H31221   9.585   8.134   7.290 -1.1125 -2.0493  0.4863
  951MOL0     H31222   9.908   9.896   7.405 -0.4958  1.1712  3.5328
  951MOL0     H31223   9.983  10.113   7.527 -1.0630 -0.8092 -0.2685
  951MOL0     H31224  10.445  10.513   7.326  1.5833  0.0504  0.7340
  951MOL0     H31225  10.461  10.769   7.362  1.7352 -2.4297  0.4986
  951MOL0     H31226  10.103  10.993   7.469  0.7455 -0.3098 -0.8061
  951MOL0     H31227  10.201  10.961   7.621  3.2622 -1.5681 -0.6004
  951MOL0     H31228  10.352  11.159   7.515 -0.0250  0.8172  1.6120
  951MOL0     H31229  10.205  11.189   7.601  0.8168  1.8886 -0.5128
  951MOL0     H31230  10.282  11.296   7.347  1.2557 -0.2239 -1.1582
  951MOL0     H31231  10.224  11.143   7.294  2.0311  0.2022  0.0782
  951MOL0     H31232  10.008  11.209   7.431  1.4413 -0.0016  2.0195
  951MOL0     H31233  10.039  11.259   7.269  2.2686  0.3959 -0.3490
  951MOL0     H31234  10.072  11.617   7.498 -2.8904 -0.8568  0.4378
  951MOL0     H31235  10.093  10.762   7.553  0.5909  0.1369 -0.1217
  951MOL0     H31236   9.995  10.561   7.650  0.7477  2.1330 -1.4791
  951MOL0     H31237   9.983  10.461   7.515 -1.4587  0.6410 -0.3843
  951MOL0     H31238  10.090  10.415   7.656 -0.3887 -0.6375  0.1140
  952MOL0     O31239   9.404   3.682  10.562  0.6561  0.1532  0.3046
  952MOL0     C31240   9.287   3.676  10.561  0.8891  0.0853 -0.5764
  952MOL0     O31241   9.193   3.714  10.460 -0.2354  0.1514 -1.0015
  952MOL0     C31242   9.235   3.799  10.357 -0.3207 -0.2506 -0.5764
  952MOL0     C31243   9.344   3.881  10.368 -0.2206 -1.5609  0.3602
  952MOL0     C31244   9.383   3.951  10.254 -0.0040 -0.3390 -0.0139
  952MOL0     C31245   9.301   3.964  10.142  1.0354  0.0322 -0.8584
  952MOL0     O31246   9.332   4.048  10.032  0.4861  1.2663 -0.3683
  952MOL0     C31247   9.382   4.177  10.055 -0.6070 -0.2637  0.3227
  952MOL0     C31248   9.424   4.247   9.926 -0.9261 -0.0317  1.0494
  952MOL0     C31249   9.531   4.181   9.844 -0.1007  0.4575 -0.1159
  952MOL0     C31250   9.625   4.275   9.763 -0.0553  0.7212  0.6714
  952MOL0     C31251   9.720   4.192   9.675 -0.3398  0.6062  0.4053
  952MOL0     C31252   9.652   4.139   9.552 -0.0619  0.7715 -0.1159
  952MOL0     C31253   9.750   4.091   9.432  0.3922 -0.4524 -0.5555
  952MOL0     C31254   9.664   4.083   9.299 -0.0366  1.0882 -0.0192
  952MOL0     N31255   9.756   4.075   9.193  0.2569 -0.1092 -0.3302
  952MOL0     C31256   9.752   4.162   9.081 -0.4560  0.1261 -0.1717
  952MOL0     C31257   9.862   4.121   9.007  0.4333 -0.8112 -0.0402
  952MOL0     C31258   9.903   4.185   8.878 -0.3650 -0.2622 -0.0570
  952MOL0     C31259   9.975   4.096   8.774  0.1718  0.1627 -0.5210
  952MOL0     C31260   9.984   4.169   8.634 -0.1742 -0.7409  0.3481
  952MOL0     C31261  10.095   4.282   8.636 -0.5437 -0.0609  0.4064
  952MOL0     O31262  10.100   4.371   8.525  0.4965 -0.9998  0.0612
  952MOL0     C31263  10.202   4.465   8.526  0.4923  0.8500  0.1174
  952MOL0     C31264  10.282   4.508   8.631 -0.0873 -0.3990 -0.9462
  952MOL0     C31265  10.388   4.600   8.623 -0.3637  0.0601  0.1977
  952MOL0     C31266  10.478   4.604   8.740 -0.4286 -0.7355 -0.3693
  952MOL0     C31267  10.405   4.676   8.510  0.7962 -0.5103  0.4531
  952MOL0     C31268  10.493   4.799   8.491  0.8874  0.7634  0.3147
  952MOL0     O31269  10.546   4.818   8.370 -0.5167 -0.7704  0.0462
  952MOL0     C31270  10.630   4.932   8.362  1.2757 -0.1401  0.1120
  952MOL0     C31271  10.753   4.919   8.316  0.1078  0.3423  0.6221
  952MOL0     C31272  10.829   5.029   8.272  0.3051 -1.2461 -0.3272
  952MOL0     C31273  10.783   5.163   8.299  0.1149  0.3672 -0.3889
  952MOL0     O31274  10.862   5.264   8.259 -0.2945  0.1520  0.0778
  952MOL0     C31275  10.827   5.400   8.287 -0.2478 -1.0012  0.8585
  952MOL0     C31276  10.739   5.448   8.183  0.7182  0.4339  0.4295
  952MOL0     C31277  10.790   5.459   8.034 -0.0587  0.1067 -0.2483
  952MOL0     C31278  10.712   5.551   7.933  0.4127  0.2150  0.4655
  952MOL0     C31279  10.765   5.529   7.792 -0.0508  0.1651  0.0355
  952MOL0     C31280  10.653   5.546   7.679  0.0315 -0.2984 -0.9209
  952MOL0     C31281  10.700   5.552   7.542  0.1349 -0.4386 -0.2477
  952MOL0     C31282  10.760   5.420   7.489 -0.8761 -0.2727  0.0851
  952MOL0    Cl31283  10.914   5.379   7.551 -0.5388 -0.1127  0.3525
  952MOL0     C31284  10.649   5.172   8.350  1.2886 -0.8066  0.8955
  952MOL0     C31285  10.579   5.059   8.381 -0.0057 -0.0077 -0.4027
  952MOL0     O31286  10.524   4.860   8.594  0.6420  0.9835  1.4827
  952MOL0     C31287  10.321   4.647   8.400 -0.4047 -0.0122  1.2141
  952MOL0     C31288  10.227   4.537   8.403 -0.3773  0.3617 -0.0420
  952MOL0     N31289   9.928   4.021   9.073 -0.2253  0.8547  0.2571
  952MOL0     N31290   9.867   4.000   9.184 -0.0482  0.2729  0.3800
  952MOL0     C31291   9.182   3.890  10.133  0.2009  0.5990  0.1256
  952MOL0     C31292   9.157   3.811  10.244  0.5231 -0.1823  0.4019
  952MOL0     C31293   9.220   3.612  10.679 -0.4384  0.1496  0.8400
  952MOL0     C31294   9.082   3.612  10.688  0.4625 -0.3972 -0.5895
  952MOL0     C31295   9.016   3.560  10.805 -0.9357 -0.0329 -0.2162
  952MOL0     C31296   9.086   3.498  10.913  0.3018  0.3924  0.3735
  952MOL0     O31297   9.034   3.472  11.041  0.3145 -0.1489  0.3416
  952MOL0     C31298   8.896   3.474  11.071  0.3094 -0.9009 -0.6019
  952MOL0     C31299   8.858   3.583  11.175 -1.0706  0.0733 -0.1113
  952MOL0     C31300   8.911   3.718  11.136 -1.0874  0.2578  0.6089
  952MOL0     C31301   8.911   3.805  11.266 -0.1584  0.5040 -0.0739
  952MOL0     C31302   9.032   3.783  11.335 -0.1993  0.9117 -0.4101
  952MOL0     C31303   9.130   3.780  11.411  0.2615 -0.1111  0.2998
  952MOL0     C31304   9.223   3.497  10.900 -0.3233  0.5367 -0.3944
  952MOL0     C31305   9.295   3.556  10.791  0.0273 -0.3583  0.7684
  952MOL0     C31306   9.450   3.559  10.802  0.3923 -0.6146  0.7295
  952MOL0     H31307   9.396   3.895  10.462 -0.0157  2.5724 -0.1860
  952MOL0     H31308   9.477   4.005  10.258  0.2377 -0.6095 -1.4589
  952MOL0     H31309   9.468   4.175  10.122 -1.0031  3.7682  1.2066
  952MOL0     H31310   9.309   4.239  10.108  1.5888 -0.4465  3.8861
  952MOL0     H31311   9.346   4.281   9.857  1.4558  1.8919 -0.8847
  952MOL0     H31312   9.452   4.349   9.954 -4.4837  0.4469  3.6012
  952MOL0     H31313   9.601   4.142   9.918 -0.0615 -1.1456 -0.9510
  952MOL0     H31314   9.483   4.101   9.787 -4.8239  3.2961 -0.6772
  952MOL0     H31315   9.570   4.340   9.695  0.6182  0.1532 -0.4413
  952MOL0     H31316   9.685   4.332   9.835 -1.0220  1.3358  1.0130
  952MOL0     H31317   9.751   4.117   9.748 -3.1986  1.8737  3.1636
  952MOL0     H31318   9.802   4.254   9.639 -0.5279  0.5020 -0.2255
  952MOL0     H31319   9.587   4.057   9.583  0.9809 -0.4905 -1.1107
  952MOL0     H31320   9.584   4.213   9.510 -0.4934  2.3778  3.1108
  952MOL0     H31321   9.785   3.990   9.457  0.0296 -0.6338 -0.7828
  952MOL0     H31322   9.836   4.159   9.436  0.1548 -0.1326  2.9567
  952MOL0     H31323   9.611   3.988   9.316 -0.0143  1.0603 -0.1089
  952MOL0     H31324   9.582   4.154   9.287 -2.7159 -0.8835  4.1043
  952MOL0     H31325   9.681   4.241   9.059 -0.4209  0.4130  0.7371
  952MOL0     H31326   9.957   4.276   8.905  1.2163 -0.4888 -2.2039
  952MOL0     H31327   9.812   4.215   8.824 -1.6258 -1.4930  1.2939
  952MOL0     H31328  10.069   4.048   8.804 -0.5068 -0.1851  1.1422
  952MOL0     H31329   9.914   4.005   8.764 -0.2961  0.3614  0.4069
  952MOL0     H31330  10.008   4.099   8.553  0.0421 -0.8219  0.4796
  952MOL0     H31331   9.892   4.210   8.592  0.0228 -0.8651 -0.2192
  952MOL0     H31332  10.072   4.343   8.724  0.0605 -2.3518  2.2718
  952MOL0     H31333  10.196   4.241   8.647 -0.2721  0.6724  0.7132
  952MOL0     H31334  10.262   4.467   8.729 -2.2645 -1.3615 -1.7216
  952MOL0     H31335  10.579   4.578   8.708 -0.2008  0.8627 -1.0383
  952MOL0     H31336  10.457   4.534   8.822  1.4564 -0.6584  0.2171
  952MOL0     H31337  10.472   4.699   8.793  2.3176 -1.4445  1.4374
  952MOL0     H31338  10.786   4.816   8.301 -1.0204 -0.1026  1.0623
  952MOL0     H31339  10.932   5.010   8.245  0.5163 -2.6123  1.2318
  952MOL0     H31340  10.787   5.409   8.388  0.9637 -0.5683  1.3139
  952MOL0     H31341  10.915   5.464   8.284 -0.1214 -1.1885  0.5212
  952MOL0     H31342  10.652   5.381   8.179  1.6545 -0.8370  0.7301
  952MOL0     H31343  10.707   5.549   8.210  0.8105  0.1625  1.6043
  952MOL0     H31344  10.782   5.357   7.993  0.2400 -0.6005  1.3990
  952MOL0     H31345  10.896   5.483   8.041 -0.2732  1.2211 -0.6877
  952MOL0     H31346  10.720   5.655   7.968 -0.1134  0.0568  1.0817
  952MOL0     H31347  10.604   5.534   7.933  0.2841  0.9627 -0.1920
  952MOL0     H31348  10.843   5.604   7.778 -2.0016  2.0062 -1.8433
  952MOL0     H31349  10.805   5.429   7.773 -0.3640  0.7791 -5.3795
  952MOL0     H31350  10.602   5.636   7.713 -1.5068 -1.6902  0.6584
  952MOL0     H31351  10.584   5.462   7.694 -2.2011  1.5122 -0.5561
  952MOL0     H31352  10.771   5.633   7.527 -0.8014  0.8551  1.8864
  952MOL0     H31353  10.613   5.564   7.477  0.5027 -1.5052 -0.9657
  952MOL0     H31354  10.772   5.441   7.382 -0.2669  1.2781  0.4332
  952MOL0     H31355  10.693   5.335   7.507  2.0008 -2.5370  0.9173
  952MOL0     H31356  10.601   5.269   8.363  2.5737 -0.0025 -0.0929
  952MOL0     H31357  10.481   5.053   8.429 -0.3895 -1.8513 -1.3267
  952MOL0     H31358  10.339   4.703   8.309 -0.6541 -1.8515 -0.0243
  952MOL0     H31359  10.171   4.507   8.315 -0.1943 -0.7254  0.1995
  952MOL0     H31360   9.114   3.910  10.051  0.5449 -2.0308 -0.8903
  952MOL0     H31361   9.078   3.737  10.233  1.7412 -1.5427  0.4726
  952MOL0     H31362   9.024   3.656  10.607 -1.1670  1.1009  1.2907
  952MOL0     H31363   8.908   3.568  10.797 -0.8456  2.6683  0.3356
  952MOL0     H31364   8.833   3.492  10.984  0.7743 -0.4804 -0.8586
  952MOL0     H31365   8.871   3.380  11.120  4.8419 -0.8656  2.4241
  952MOL0     H31366   8.892   3.553  11.274  1.9377 -2.7931 -1.8427
  952MOL0     H31367   8.750   3.591  11.193 -0.8889 -2.0276  2.2750
  952MOL0     H31368   9.010   3.696  11.094 -1.2706 -2.0298  1.2700
  952MOL0     H31369   8.864   3.770  11.053  4.7448  2.6436 -1.7564
  952MOL0     H31370   8.842   3.779  11.346 -0.0813 -2.4698 -0.8700
  952MOL0     H31371   8.900   3.912  11.246 -1.2134  0.1070 -1.7490
  952MOL0     H31372   9.227   3.788  11.457  1.8168 -0.6256 -2.6729
  952MOL0     H31373   9.275   3.451  10.983 -0.2228  3.2200  1.1171
  952MOL0     H31374   9.492   3.660  10.793 -1.7090  0.1804 -0.7945
  952MOL0     H31375   9.474   3.526  10.903  1.0410  0.5965  0.9974
  952MOL0     H31376   9.503   3.487  10.738  1.6574  0.5289  0.4273
  953MOL0     O31377   1.039  10.592   3.849  0.3684  1.1071  0.2662
  953MOL0     C31378   1.005  10.698   3.889  0.7613 -0.3678  0.2158
  953MOL0     O31379   1.083  10.811   3.899 -0.4912  0.3131 -0.1473
  953MOL0     C31380   1.218  10.798   3.875 -0.6670  1.0198  0.2112
  953MOL0     C31381   1.315  10.726   3.944 -0.3747  0.7678  0.0766
  953MOL0     C31382   1.453  10.743   3.919  0.1423 -0.2276 -0.2774
  953MOL0     C31383   1.498  10.833   3.826  0.8890  1.1611 -1.0849
  953MOL0     O31384   1.634  10.840   3.800 -0.0906 -1.8874 -0.0293
  953MOL0     C31385   1.679  10.822   3.659 -1.1071  0.0922  0.9383
  953MOL0     C31386   1.834  10.799   3.645  0.3677 -0.5034  0.7622
  953MOL0     C31387   1.902  10.923   3.682 -0.8544  0.2024  0.0787
  953MOL0     C31388   2.053  10.900   3.679  0.4747  0.8458 -1.7355
  953MOL0     C31389   2.149  11.024   3.681  0.4229 -0.7307  0.5105
  953MOL0     C31390   2.296  10.992   3.668 -0.0462  0.8604 -0.7881
  953MOL0     C31391   2.381  11.070   3.764 -0.4030 -0.1841 -0.2831
  953MOL0     C31392   2.362  11.054   3.911 -0.4845 -0.0572 -0.1306
  953MOL0     N31393   2.472  11.128   3.979  1.1790  0.3024 -0.4966
  953MOL0     C31394   2.467  11.268   3.990  0.9149  0.1980  1.2855
  953MOL0     C31395   2.590  11.308   4.025 -0.0151 -0.9914  0.2751
  953MOL0     C31396   2.654  11.439   4.072  0.0365  0.2931 -1.1128
  953MOL0     C31397   2.636  11.431   4.229  0.2944  0.0462 -0.0489
  953MOL0     C31398   2.739  11.345   4.294 -0.4030  1.7226 -0.4312
  953MOL0     C31399   2.740  11.384   4.453 -0.3265 -0.6219 -0.4128
  953MOL0     O31400   2.650  11.290   4.516 -0.3130 -0.4667  0.0735
  953MOL0     C31401   2.597  11.315   4.637 -0.2978  1.2763 -0.6090
  953MOL0     C31402   2.602  11.434   4.709  0.9311  0.0760 -0.4659
  953MOL0     C31403   2.547  11.433   4.843 -0.5701 -0.4291  1.0032
  953MOL0     C31404   2.544  11.555   4.925 -0.4448 -0.6500 -0.1023
  953MOL0     C31405   2.489  11.330   4.896  0.4961 -0.0895 -0.3502
  953MOL0     C31406   2.411  11.321   5.016  0.0612  0.4351 -0.9578
  953MOL0     O31407   2.338  11.431   5.048  0.1381  0.7538  0.5323
  953MOL0     C31408   2.252  11.412   5.149 -1.0703  0.5511 -0.8492
  953MOL0     C31409   2.154  11.315   5.143 -0.1277  1.0927  0.5161
  953MOL0     C31410   2.055  11.313   5.245  0.3771 -0.2938 -0.1133
  953MOL0     C31411   2.053  11.409   5.346 -0.1214 -0.3855 -1.1033
  953MOL0     O31412   1.941  11.406   5.426 -0.6579  0.2360 -0.8950
  953MOL0     C31413   1.826  11.436   5.359 -0.6010  0.1588  0.5536
  953MOL0     C31414   1.724  11.436   5.469  0.6955  0.4775 -0.7713
  953MOL0     C31415   1.588  11.473   5.413  0.3600  0.5264 -0.5254
  953MOL0     C31416   1.582  11.620   5.383  0.0688  0.1626  0.2109
  953MOL0     C31417   1.469  11.654   5.287  0.2336 -0.5531 -0.5686
  953MOL0     C31418   1.471  11.812   5.279  1.0133  0.9360  0.3520
  953MOL0     C31419   1.369  11.862   5.172  1.0968 -0.1263 -1.1884
  953MOL0     C31420   1.228  11.865   5.237 -0.3680  0.1111  0.8161
  953MOL0    Cl31421   1.220  12.025   5.307  0.2797  0.2451 -0.3262
  953MOL0     C31422   2.158  11.506   5.351  0.1178 -0.4137  0.3497
  953MOL0     C31423   2.257  11.502   5.251  0.6820 -0.6517  0.1968
  953MOL0     O31424   2.406  11.207   5.067 -0.8373  0.4050 -0.0738
  953MOL0     C31425   2.488  11.210   4.825 -0.3158  0.6964 -0.8781
  953MOL0     C31426   2.529  11.208   4.694  0.1360 -0.4292  0.1463
  953MOL0     N31427   2.659  11.188   4.029 -0.1523 -0.3023 -0.3196
  953MOL0     N31428   2.589  11.082   4.020 -0.2660  0.3434  1.0846
  953MOL0     C31429   1.400  10.898   3.757 -0.4184 -0.5487 -0.0565
  953MOL0     C31430   1.266  10.900   3.787 -0.7066  0.8341 -0.0623
  953MOL0     C31431   0.859  10.720   3.897 -0.5264  0.0325 -0.1769
  953MOL0     C31432   0.775  10.683   3.787  0.6832  0.6401  0.0806
  953MOL0     C31433   0.634  10.687   3.806  0.4342 -0.5848  0.8693
  953MOL0     C31434   0.584  10.746   3.925  0.0007  0.1464  0.1892
  953MOL0     O31435   0.449  10.774   3.945  0.3351  0.1976  0.4412
  953MOL0     C31436   0.398  10.848   4.051  0.2113  0.0580 -0.6169
  953MOL0     C31437   0.376  10.764   4.190  0.8287 -0.5304 -0.2504
  953MOL0     C31438   0.311  10.633   4.152 -0.1257  0.8428  0.1065
  953MOL0     C31439   0.289  10.546   4.288  0.0315 -0.5089 -0.2155
  953MOL0     C31440   0.164  10.592   4.341  0.1068  0.3620 -0.9166
  953MOL0     C31441   0.057  10.617   4.394 -0.1943 -0.2208  0.5007
  953MOL0     C31442   0.671  10.771   4.033  0.2452  0.5683  0.0989
  953MOL0     C31443   0.809  10.765   4.025 -0.1606 -0.1280  0.0702
  953MOL0     C31444   0.907  10.797   4.139 -0.7892  0.3425 -0.2704
  953MOL0     H31445   1.269  10.653   4.010  0.9953 -0.0451  0.1785
  953MOL0     H31446   1.515  10.668   3.966  0.2325  1.7524  3.0972
  953MOL0     H31447   1.648  10.914   3.607  0.5169 -0.3925 -1.0216
  953MOL0     H31448   1.619  10.742   3.614 -2.2173  0.2501  2.0734
  953MOL0     H31449   1.868  10.728   3.721  1.0757 -1.2927 -0.2668
  953MOL0     H31450   1.868  10.772   3.545  0.0738 -0.3075  0.6083
  953MOL0     H31451   1.882  11.009   3.617  1.4758 -0.0161 -1.0276
  953MOL0     H31452   1.867  10.947   3.783 -1.2417  1.0005 -0.2350
  953MOL0     H31453   2.070  10.827   3.759  1.5575 -0.0023 -2.7039
  953MOL0     H31454   2.100  10.845   3.598  1.2115  0.2171 -0.9022
  953MOL0     H31455   2.124  11.077   3.773 -1.3791 -0.1467 -0.2615
  953MOL0     H31456   2.124  11.093   3.599 -2.3103 -0.4445  1.4844
  953MOL0     H31457   2.300  10.888   3.701 -0.1691  2.2841  4.5610
  953MOL0     H31458   2.334  10.979   3.566  0.7096  0.1316 -0.4205
  953MOL0     H31459   2.370  11.175   3.736 -1.4564 -0.1561  0.1959
  953MOL0     H31460   2.485  11.043   3.747  0.5458  1.0364  2.8557
  953MOL0     H31461   2.269  11.106   3.934  0.6854  3.6589 -2.9409
  953MOL0     H31462   2.347  10.950   3.943  2.1236 -1.2862 -2.4591
  953MOL0     H31463   2.380  11.331   3.974 -0.0921 -0.3943  3.9096
  953MOL0     H31464   2.606  11.524   4.023 -0.4087  2.1045  2.2249
  953MOL0     H31465   2.759  11.441   4.043  0.3851  2.6593  0.0465
  953MOL0     H31466   2.642  11.531   4.273  2.1220 -0.5318  1.1320
  953MOL0     H31467   2.531  11.403   4.245 -0.0913  2.3406  1.9519
  953MOL0     H31468   2.719  11.239   4.280 -1.6743  1.7623  0.8567
  953MOL0     H31469   2.842  11.363   4.263  0.8517 -2.2428  0.8885
  953MOL0     H31470   2.832  11.381   4.511 -0.8424  0.6082  0.5200
  953MOL0     H31471   2.695  11.483   4.459 -0.8271 -0.6739 -2.5346
  953MOL0     H31472   2.659  11.518   4.668  1.8508 -1.5276 -2.6531
  953MOL0     H31473   2.545  11.543   5.033  0.4501  1.4650  0.1755
  953MOL0     H31474   2.453  11.613   4.904  0.8657  1.5818  0.0602
  953MOL0     H31475   2.630  11.615   4.894 -1.2231  1.4820  1.6438
  953MOL0     H31476   2.152  11.245   5.060 -1.3104  1.5371  0.1490
  953MOL0     H31477   1.969  11.246   5.247 -1.0101  1.3435 -1.3885
  953MOL0     H31478   1.833  11.529   5.301 -0.3008 -0.7183 -0.8604
  953MOL0     H31479   1.802  11.357   5.288 -3.0737  0.2076  1.2624
  953MOL0     H31480   1.716  11.337   5.515 -0.1518  0.7225 -0.3698
  953MOL0     H31481   1.756  11.491   5.557  1.6734 -1.3849  0.0973
  953MOL0     H31482   1.510  11.445   5.485 -0.0146  3.4916  0.3712
  953MOL0     H31483   1.559  11.412   5.327 -1.0531  0.3507  0.0385
  953MOL0     H31484   1.682  11.658   5.359  1.4364 -2.3181  1.6614
  953MOL0     H31485   1.568  11.681   5.473 -2.8647 -1.1911  0.7801
  953MOL0     H31486   1.485  11.596   5.196  0.6496 -2.8460  0.8883
  953MOL0     H31487   1.380  11.616   5.337  1.3622 -0.1851  1.8610
  953MOL0     H31488   1.568  11.852   5.248  0.9923  1.3248  0.7713
  953MOL0     H31489   1.443  11.854   5.376 -2.9225  1.1240 -0.6824
  953MOL0     H31490   1.362  11.794   5.086 -0.3786  0.7904 -1.8313
  953MOL0     H31491   1.393  11.958   5.127  0.7967 -0.1012 -1.2952
  953MOL0     H31492   1.209  11.784   5.308 -0.0908  1.7541  2.8396
  953MOL0     H31493   1.150  11.867   5.160 -0.5163  0.0616  0.9622
  953MOL0     H31494   2.147  11.596   5.411  2.6072  1.3599 -1.6162
  953MOL0     H31495   2.333  11.580   5.249 -0.0345  0.0904 -2.7446
  953MOL0     H31496   2.452  11.116   4.864 -1.2330  0.8940 -1.2305
  953MOL0     H31497   2.492  11.124   4.636 -0.7516  0.8169 -1.1968
  953MOL0     H31498   1.444  10.970   3.689  0.9480 -0.3963  0.9445
  953MOL0     H31499   1.203  10.976   3.742 -2.8027 -1.4911 -1.3585
  953MOL0     H31500   0.801  10.635   3.694 -0.1617  0.5665 -0.1286
  953MOL0     H31501   0.561  10.646   3.737  0.7483 -1.9810  1.3308
  953MOL0     H31502   0.453  10.943   4.054 -1.3906  1.0658 -1.6667
  953MOL0     H31503   0.296  10.875   4.024 -0.9486 -0.4352  2.8022
  953MOL0     H31504   0.310  10.819   4.257  0.1735  0.1264 -1.3920
  953MOL0     H31505   0.462  10.738   4.253  0.3533 -0.6211  0.3691
  953MOL0     H31506   0.211  10.658   4.116 -0.6246  0.4879  1.1914
  953MOL0     H31507   0.358  10.562   4.084 -3.3338 -2.5678  1.1263
  953MOL0     H31508   0.358  10.567   4.370 -1.1177 -0.6739  0.8198
  953MOL0     H31509   0.296  10.438   4.270  1.3766 -0.4797  0.0614
  953MOL0     H31510  -0.031  10.631   4.453 -0.7345 -1.2754 -0.0134
  953MOL0     H31511   0.631  10.789   4.132 -4.0448  3.1091 -1.8013
  953MOL0     H31512   0.968  10.712   4.170  1.2980  1.1576 -1.9322
  953MOL0     H31513   0.963  10.888   4.117 -1.1031  0.3713 -0.9552
  953MOL0     H31514   0.848  10.827   4.226 -1.9012  2.4363 -1.6507
  954MOL0     O31515   7.605   1.178  10.437 -0.1169 -0.3013 -1.1961
  954MOL0     C31516   7.493   1.150  10.479 -0.0395  0.0145 -0.2912
  954MOL0     O31517   7.396   1.231  10.495 -0.3627 -0.3805 -0.5975
  954MOL0     C31518   7.417   1.366  10.488  0.2694  0.6414 -0.3736
  954MOL0     C31519   7.529   1.432  10.528  0.0627 -0.7045  0.2290
  954MOL0     C31520   7.532   1.569  10.546  0.1552 -0.2259 -0.3057
  954MOL0     C31521   7.420   1.640  10.499 -0.1104  0.1399  0.0424
  954MOL0     O31522   7.408   1.773  10.508 -0.5552 -0.1343 -0.2456
  954MOL0     C31523   7.512   1.858  10.549 -0.0654 -0.5636 -0.3691
  954MOL0     C31524   7.600   1.883  10.436 -0.5593 -0.1608 -0.2288
  954MOL0     C31525   7.542   1.997  10.346  0.8979 -1.0924  0.1760
  954MOL0     C31526   7.572   1.948  10.204  0.3007 -1.0259 -0.7167
  954MOL0     C31527   7.551   2.065  10.107 -0.5115 -0.6610  0.2886
  954MOL0     C31528   7.553   2.038   9.960 -0.0933  1.1417  0.1541
  954MOL0     C31529   7.673   1.959   9.921  0.1898 -0.1563 -0.6278
  954MOL0     C31530   7.686   1.925   9.773  1.3117 -0.1654 -0.1321
  954MOL0     N31531   7.808   1.844   9.741  0.6453  0.3407  0.7115
  954MOL0     C31532   7.808   1.706   9.740 -0.0073 -0.3899  0.7680
  954MOL0     C31533   7.935   1.665   9.723 -0.1442  0.3660 -0.2129
  954MOL0     C31534   7.996   1.531   9.705 -0.0661  0.4509 -0.1245
  954MOL0     C31535   7.906   1.430   9.633  0.2859 -0.2947 -0.0591
  954MOL0     C31536   7.927   1.409   9.485  1.3488 -0.5386 -0.5342
  954MOL0     C31537   7.907   1.538   9.407 -0.0068  0.1170  1.3890
  954MOL0     O31538   7.859   1.504   9.279 -0.9156 -0.4031 -0.2959
  954MOL0     C31539   7.797   1.607   9.215 -0.1164 -0.2642 -0.7068
  954MOL0     C31540   7.812   1.743   9.235  0.4653  0.8508 -0.9434
  954MOL0     C31541   7.755   1.843   9.151 -1.1330  1.0369 -0.0868
  954MOL0     C31542   7.779   1.984   9.180 -0.4222 -0.1196  0.2268
  954MOL0     C31543   7.683   1.801   9.033  0.4768  0.8444 -0.3381
  954MOL0     C31544   7.620   1.899   8.930  0.2577  1.0104 -0.0411
  954MOL0     O31545   7.631   2.024   8.948  0.2306  0.3392 -0.9104
  954MOL0     C31546   7.586   2.106   8.855 -0.0325 -0.8123  0.4532
  954MOL0     C31547   7.451   2.157   8.852  0.6771 -0.2533  0.9548
  954MOL0     C31548   7.404   2.251   8.756 -0.9769  0.3347 -0.1697
  954MOL0     C31549   7.509   2.303   8.660  0.2336  0.2521 -0.2245
  954MOL0     O31550   7.487   2.391   8.560 -1.1544  0.8156 -0.0155
  954MOL0     C31551   7.369   2.462   8.576 -0.0785  0.0481  0.3670
  954MOL0     C31552   7.359   2.572   8.473 -0.7705 -0.0046  0.3465
  954MOL0     C31553   7.430   2.708   8.512 -0.2396  0.5503 -0.1570
  954MOL0     C31554   7.354   2.797   8.612  0.2272 -0.6140  0.0021
  954MOL0     C31555   7.433   2.920   8.646 -0.5399 -0.2422  1.0259
  954MOL0     C31556   7.361   3.014   8.738  0.4358 -0.1840  0.5410
  954MOL0     C31557   7.337   2.971   8.877 -0.0385  0.1190  0.1549
  954MOL0     C31558   7.250   3.074   8.944 -0.1713 -0.6253 -0.2860
  954MOL0    Cl31559   7.180   3.005   9.102 -0.4549 -0.9898 -0.0736
  954MOL0     C31560   7.643   2.250   8.665 -0.1160 -0.2846 -0.4295
  954MOL0     C31561   7.674   2.147   8.761 -1.1612 -1.1883  0.6056
  954MOL0     O31562   7.547   1.854   8.842 -0.5931 -0.3108  0.1213
  954MOL0     C31563   7.675   1.662   9.019  0.1738 -0.0731 -0.0088
  954MOL0     C31564   7.725   1.566   9.110  0.2845  0.0965  1.1528
  954MOL0     N31565   8.003   1.781   9.710  0.5727  0.0303  0.3905
  954MOL0     N31566   7.929   1.887   9.717 -0.2461  0.6223 -0.0799
  954MOL0     C31567   7.323   1.579  10.423 -0.2245 -0.1430 -0.4200
  954MOL0     C31568   7.311   1.440  10.434  0.5108 -0.8628 -1.5780
  954MOL0     C31569   7.456   1.003  10.482 -1.2748 -0.0164 -1.1904
  954MOL0     C31570   7.323   0.974  10.450  0.8917  1.3780  0.1103
  954MOL0     C31571   7.272   0.841  10.452  0.4831  0.0968  0.3251
  954MOL0     C31572   7.356   0.732  10.476  0.2664  0.1158  0.4067
  954MOL0     O31573   7.311   0.602  10.468  0.1546 -0.2776  0.6264
  954MOL0     C31574   7.177   0.573  10.432  0.2114  0.1295 -0.3386
  954MOL0     C31575   7.161   0.430  10.448  0.3569  0.4537 -0.2823
  954MOL0     C31576   7.181   0.384  10.595 -0.9432  0.0562 -0.5141
  954MOL0     C31577   7.110   0.246  10.616 -0.1730 -0.7362  0.1874
  954MOL0     C31578   7.215   0.137  10.600 -0.4504  1.0002 -0.5105
  954MOL0     C31579   7.290   0.051  10.571 -0.3445 -0.5113  0.2626
  954MOL0     C31580   7.488   0.760  10.513  0.5364 -0.5914  0.2795
  954MOL0     C31581   7.538   0.897  10.515  0.2733  0.0831  0.3780
  954MOL0     C31582   7.667   0.917  10.571 -0.4093  0.1555 -0.6795
  954MOL0     H31583   7.615   1.375  10.560  3.2604  2.9501 -1.0745
  954MOL0     H31584   7.612   1.619  10.600  0.2257 -0.8596  0.1960
  954MOL0     H31585   7.564   1.819  10.637  2.6748  1.0020 -1.1522
  954MOL0     H31586   7.476   1.956  10.582 -0.1809 -1.2753  1.7284
  954MOL0     H31587   7.697   1.914  10.475 -0.5158  2.1255 -1.9506
  954MOL0     H31588   7.611   1.787  10.384 -2.4939  0.7376 -2.4572
  954MOL0     H31589   7.438   2.007  10.376  1.2262 -0.9419  1.3176
  954MOL0     H31590   7.606   2.085  10.358 -1.1460  0.4705  0.1402
  954MOL0     H31591   7.674   1.910  10.199  0.0514 -1.6719 -1.1782
  954MOL0     H31592   7.511   1.861  10.176  0.0048 -1.7875  2.0134
  954MOL0     H31593   7.621   2.144  10.134  0.7268 -1.8658  0.6992
  954MOL0     H31594   7.454   2.116  10.112  0.5192  1.6032 -1.3193
  954MOL0     H31595   7.467   1.972   9.942  1.3673 -1.3100  1.6183
  954MOL0     H31596   7.554   2.134   9.908  1.3842  0.0675 -1.9648
  954MOL0     H31597   7.661   1.859   9.964  4.1047 -1.8536 -2.8952
  954MOL0     H31598   7.758   1.993   9.981 -1.1875 -1.4470  2.2617
  954MOL0     H31599   7.598   1.868   9.744 -3.6423  4.8141  3.1489
  954MOL0     H31600   7.693   2.017   9.715 -0.1821  0.7155  1.0124
  954MOL0     H31601   7.719   1.651   9.769 -1.9913  2.2122  0.0383
  954MOL0     H31602   8.014   1.515   9.811  0.4002 -0.0976 -0.2800
  954MOL0     H31603   8.093   1.533   9.653 -0.3497 -1.1161 -0.7857
  954MOL0     H31604   7.908   1.335   9.687 -3.0989 -1.0119 -0.9378
  954MOL0     H31605   7.800   1.457   9.646  0.0569 -1.1147 -0.1313
  954MOL0     H31606   8.031   1.375   9.480  3.4032  4.5095  1.0485
  954MOL0     H31607   7.855   1.333   9.454  1.4482 -1.1950  0.7872
  954MOL0     H31608   7.840   1.608   9.456  1.0247 -0.3251  3.5697
  954MOL0     H31609   8.001   1.595   9.402  0.2824 -0.4495 -1.1722
  954MOL0     H31610   7.849   1.786   9.327 -3.2624  3.4832 -0.4475
  954MOL0     H31611   7.840   1.997   9.270 -1.3403  0.9486  0.7239
  954MOL0     H31612   7.683   2.035   9.192 -1.2858 -0.9635 -2.4504
  954MOL0     H31613   7.842   2.021   9.099  0.8559 -1.6274  0.4828
  954MOL0     H31614   7.377   2.134   8.928  0.7813 -0.5594  0.9669
  954MOL0     H31615   7.300   2.277   8.771 -0.9695 -1.4195  4.3104
  954MOL0     H31616   7.279   2.399   8.577 -0.8689  1.0908 -1.1148
  954MOL0     H31617   7.355   2.506   8.676 -1.8790  1.8277 -0.5841
  954MOL0     H31618   7.426   2.543   8.392  2.7370 -2.4253  3.7103
  954MOL0     H31619   7.254   2.578   8.442 -0.7199  0.5831  0.2734
  954MOL0     H31620   7.443   2.764   8.419 -2.1521  0.6992 -0.3871
  954MOL0     H31621   7.527   2.675   8.550  0.1543  1.9758  0.1110
  954MOL0     H31622   7.348   2.739   8.704 -1.2784 -0.7880 -0.1807
  954MOL0     H31623   7.253   2.830   8.584 -0.3801 -0.1563  2.4510
  954MOL0     H31624   7.531   2.889   8.685  0.2647  0.6753 -0.2089
  954MOL0     H31625   7.457   2.982   8.559 -3.3259 -0.3301  0.1103
  954MOL0     H31626   7.270   3.051   8.689  0.1930  1.8245  2.3314
  954MOL0     H31627   7.421   3.105   8.750  0.4871 -0.3407  1.5311
  954MOL0     H31628   7.431   2.962   8.933  1.6080  0.6923 -2.3729
  954MOL0     H31629   7.291   2.872   8.879  0.3995 -0.1287 -0.9965
  954MOL0     H31630   7.163   3.099   8.884 -3.9044 -1.4063  4.2168
  954MOL0     H31631   7.294   3.167   8.982 -1.0300 -0.1621 -0.4075
  954MOL0     H31632   7.725   2.266   8.595  1.3927 -0.5606  1.2027
  954MOL0     H31633   7.781   2.128   8.766 -0.0777  3.6677  1.1169
  954MOL0     H31634   7.631   1.628   8.926 -1.7797  0.1377  0.7928
  954MOL0     H31635   7.685   1.466   9.096  0.6094  0.0288  0.6853
  954MOL0     H31636   7.250   1.636  10.366 -0.0759 -0.9319 -1.4353
  954MOL0     H31637   7.235   1.371  10.398 -0.2571 -2.6630  2.8188
  954MOL0     H31638   7.253   1.047  10.412 -1.1212 -0.2507  0.5154
  954MOL0     H31639   7.167   0.847  10.425  0.4082 -0.2370  0.5304
  954MOL0     H31640   7.096   0.619  10.490  1.7451  0.8574  1.2848
  954MOL0     H31641   7.152   0.592  10.327 -0.9646 -4.2264 -1.0532
  954MOL0     H31642   7.233   0.378  10.385  0.0797 -2.3211  1.5187
  954MOL0     H31643   7.061   0.405  10.410  0.7370 -1.1235 -0.3006
  954MOL0     H31644   7.287   0.373  10.618 -1.3843 -0.3272  1.5473
  954MOL0     H31645   7.135   0.453  10.665 -0.4792  1.7041 -1.7662
  954MOL0     H31646   7.026   0.231  10.548  0.8683  1.8037 -1.8845
  954MOL0     H31647   7.072   0.240  10.718 -2.1304 -0.5190 -0.4989
  954MOL0     H31648   7.346  -0.037  10.547 -1.8884 -0.4706 -4.7477
  954MOL0     H31649   7.563   0.683  10.532  1.8826  0.9298  1.4756
  954MOL0     H31650   7.688   1.012  10.621  1.9615 -0.2012 -0.9086
  954MOL0     H31651   7.683   0.840  10.647 -0.1900  0.0754 -0.8051
  954MOL0     H31652   7.742   0.901  10.493 -1.4692 -1.8407 -1.3729
  955MOL0     O31653   1.634   1.689   4.605 -0.4334  0.4485  0.5005
  955MOL0     C31654   1.566   1.774   4.663 -0.0815  0.6995  0.0949
  955MOL0     O31655   1.623   1.881   4.722 -0.3082 -0.7797 -0.7109
  955MOL0     C31656   1.740   1.855   4.795 -0.5926  0.0947  0.2562
  955MOL0     C31657   1.742   1.758   4.892  1.2216  0.3852 -0.0826
  955MOL0     C31658   1.861   1.725   4.961 -0.2089 -0.0842  1.1743
  955MOL0     C31659   1.977   1.801   4.935  0.2384 -0.2291 -0.8028
  955MOL0     O31660   2.098   1.780   4.997  0.6895 -0.4160 -0.2727
  955MOL0     C31661   2.088   1.716   5.127  0.6823  0.1541  0.0058
  955MOL0     C31662   2.223   1.733   5.201 -0.1310 -0.5652  0.4629
  955MOL0     C31663   2.222   1.682   5.341  0.9344 -0.5371 -0.0716
  955MOL0     C31664   2.345   1.712   5.428  0.3494 -0.5887 -0.1859
  955MOL0     C31665   2.430   1.592   5.441 -0.3397 -0.1101 -0.5145
  955MOL0     C31666   2.501   1.539   5.318 -0.2995  0.5065  0.2041
  955MOL0     C31667   2.569   1.401   5.344 -0.3228 -0.1770  0.4042
  955MOL0     C31668   2.474   1.277   5.385 -0.7606 -0.9376 -1.0733
  955MOL0     N31669   2.372   1.260   5.284 -0.3888 -0.6651  0.6697
  955MOL0     C31670   2.376   1.220   5.153  0.2604  0.3664 -0.3258
  955MOL0     C31671   2.242   1.222   5.116 -1.3006  0.2960  0.0659
  955MOL0     C31672   2.203   1.179   4.978 -0.1731 -0.2259 -0.3148
  955MOL0     C31673   2.093   1.276   4.912 -0.4151  0.3173  0.1694
  955MOL0     C31674   2.154   1.417   4.904 -1.1166  0.4041  0.5702
  955MOL0     C31675   2.280   1.433   4.809  0.3324  0.1743 -0.5679
  955MOL0     O31676   2.237   1.357   4.691  0.8658  0.2081 -0.4239
  955MOL0     C31677   2.322   1.315   4.596 -0.5670  0.2550  0.1281
  955MOL0     C31678   2.459   1.320   4.618 -0.8719  0.3286  1.7464
  955MOL0     C31679   2.538   1.258   4.522 -0.0858  0.5557  0.2625
  955MOL0     C31680   2.690   1.261   4.546  0.1780 -0.6059  0.3974
  955MOL0     C31681   2.480   1.197   4.414  0.6081 -0.2059 -0.0162
  955MOL0     C31682   2.555   1.120   4.316  0.7676 -0.4865  0.0967
  955MOL0     O31683   2.676   1.183   4.284  0.0915 -0.5734  0.0798
  955MOL0     C31684   2.788   1.108   4.239  0.0475 -0.5661  0.5190
  955MOL0     C31685   2.822   0.977   4.279  0.3931 -0.5086 -0.3640
  955MOL0     C31686   2.946   0.924   4.260  0.1894  0.1534 -0.3282
  955MOL0     C31687   3.041   0.999   4.186  0.7454  0.1516  0.0559
  955MOL0     O31688   3.158   0.946   4.148  0.8365 -0.2808 -0.5583
  955MOL0     C31689   3.243   0.904   4.251  0.0001 -0.3662  0.2950
  955MOL0     C31690   3.359   0.829   4.193  0.0383 -0.0927 -0.9206
  955MOL0     C31691   3.322   0.698   4.131  0.1320 -0.3234 -0.1445
  955MOL0     C31692   3.449   0.612   4.122  0.0144  0.8651  0.9869
  955MOL0     C31693   3.415   0.459   4.104  0.6430 -0.8034  0.2138
  955MOL0     C31694   3.553   0.379   4.079  0.4849 -0.6883 -0.5738
  955MOL0     C31695   3.536   0.257   3.989 -0.5028  0.4911  0.0307
  955MOL0     C31696   3.458   0.136   4.044  0.6824  1.3760 -0.6221
  955MOL0    Cl31697   3.565   0.074   4.164  0.0754  0.0754 -0.1950
  955MOL0     C31698   3.000   1.134   4.154 -1.1795  0.9948  0.4305
  955MOL0     C31699   2.886   1.188   4.181 -0.0771  0.3846  1.2141
  955MOL0     O31700   2.507   1.019   4.259  0.2353  0.3225 -0.2617
  955MOL0     C31701   2.338   1.194   4.402  0.2269  0.7629  0.5590
  955MOL0     C31702   2.257   1.262   4.491  0.4694  0.6249 -0.1236
  955MOL0     N31703   2.172   1.261   5.223 -0.3153  0.6414 -0.2578
  955MOL0     N31704   2.247   1.288   5.319  0.2587 -0.2617  0.6977
  955MOL0     C31705   1.971   1.901   4.831  0.7277 -0.7277  0.2964
  955MOL0     C31706   1.849   1.925   4.772 -0.1004 -0.1219  0.2404
  955MOL0     C31707   1.424   1.780   4.624 -0.5447 -1.1808  0.3312
  955MOL0     C31708   1.358   1.896   4.666  0.3515 -0.6056 -0.4472
  955MOL0     C31709   1.226   1.919   4.632  0.3279 -0.1488 -0.3707
  955MOL0     C31710   1.160   1.827   4.553 -0.4654 -0.4628 -0.2142
  955MOL0     O31711   1.033   1.856   4.550  0.1710  0.4451  0.7733
  955MOL0     C31712   0.952   1.780   4.464  0.0641 -0.2579  0.8109
  955MOL0     C31713   0.817   1.849   4.431  0.3456  0.0431 -0.4351
  955MOL0     C31714   0.739   1.924   4.538 -0.0215  0.2415 -0.2401
  955MOL0     C31715   0.809   2.055   4.569 -0.3325  0.1843  0.6786
  955MOL0     C31716   0.753   2.138   4.669  0.7267  0.8899  0.5403
  955MOL0     C31717   0.700   2.207   4.755 -0.4172  0.8950 -0.9741
  955MOL0     C31718   1.223   1.715   4.508  0.3380  0.7011  0.2212
  955MOL0     C31719   1.355   1.687   4.539 -0.0244  0.7075  1.4480
  955MOL0     C31720   1.403   1.565   4.480 -1.0595  0.1106  0.2238
  955MOL0     H31721   1.648   1.706   4.903  2.2217 -2.2838 -2.6941
  955MOL0     H31722   1.860   1.640   5.028 -0.9805  1.1442  2.7854
  955MOL0     H31723   2.063   1.611   5.110  0.2703  0.2165  0.2214
  955MOL0     H31724   2.011   1.756   5.193 -1.1873 -4.1905  0.7608
  955MOL0     H31725   2.300   1.682   5.143 -0.1204  1.1574 -1.1115
  955MOL0     H31726   2.245   1.839   5.209 -2.5124  0.0648 -0.3849
  955MOL0     H31727   2.150   1.743   5.396 -1.1555 -0.9113 -2.2070
  955MOL0     H31728   2.183   1.580   5.342 -1.1078  0.1845  1.7934
  955MOL0     H31729   2.398   1.797   5.385 -1.7121  0.3382 -1.0399
  955MOL0     H31730   2.324   1.731   5.534  0.8550  0.4353 -0.2637
  955MOL0     H31731   2.358   1.514   5.466 -1.0230  0.8785  0.6844
  955MOL0     H31732   2.502   1.595   5.523  0.4489 -2.3516 -1.0511
  955MOL0     H31733   2.424   1.522   5.242 -1.3314 -4.3197  1.9423
  955MOL0     H31734   2.574   1.608   5.276  1.2354 -0.9357  0.4316
  955MOL0     H31735   2.639   1.417   5.427 -1.1879 -0.1895  1.1561
  955MOL0     H31736   2.625   1.366   5.257  1.3426 -0.2372  1.4454
  955MOL0     H31737   2.547   1.196   5.397  0.0297 -0.0066  1.0107
  955MOL0     H31738   2.422   1.297   5.479 -0.4262 -2.3994 -0.5558
  955MOL0     H31739   2.460   1.198   5.088  0.7713 -0.5351  0.6180
  955MOL0     H31740   2.188   1.072   4.965  1.4288 -0.4472 -0.5756
  955MOL0     H31741   2.295   1.191   4.919  0.8361 -3.6846  0.3731
  955MOL0     H31742   2.074   1.248   4.808  0.2526  2.0078 -0.4465
  955MOL0     H31743   1.999   1.287   4.967 -0.9737  1.4675 -0.9831
  955MOL0     H31744   2.068   1.472   4.865 -0.7516 -0.1501 -1.1290
  955MOL0     H31745   2.186   1.449   5.003 -0.4347  2.8121 -0.3460
  955MOL0     H31746   2.283   1.539   4.782  0.9826  0.0143 -1.1539
  955MOL0     H31747   2.366   1.399   4.868  0.3933  1.8395  0.3623
  955MOL0     H31748   2.507   1.366   4.703 -0.0155  3.2037 -0.1143
  955MOL0     H31749   2.717   1.275   4.651 -0.5722  0.0069  0.5278
  955MOL0     H31750   2.716   1.353   4.493  0.6629 -0.9805 -0.0244
  955MOL0     H31751   2.749   1.173   4.521 -1.6069 -1.1414 -2.4315
  955MOL0     H31752   2.743   0.915   4.320 -0.1938  1.0316  0.9600
  955MOL0     H31753   2.982   0.827   4.293 -0.1711 -0.8535 -2.7267
  955MOL0     H31754   3.285   0.995   4.296 -2.6169  1.9029 -1.4908
  955MOL0     H31755   3.201   0.839   4.328  0.4118  2.3525  2.9719
  955MOL0     H31756   3.413   0.891   4.121 -1.5769  2.7004  0.1079
  955MOL0     H31757   3.434   0.821   4.273 -0.9311  1.3907  0.2032
  955MOL0     H31758   3.255   0.707   4.045  0.0605  0.7681  0.0106
  955MOL0     H31759   3.266   0.643   4.207  3.1054 -2.6686  0.5550
  955MOL0     H31760   3.504   0.612   4.216 -0.7246 -1.2207  1.4726
  955MOL0     H31761   3.515   0.653   4.045  0.9487  0.7820  1.7167
  955MOL0     H31762   3.368   0.413   4.191 -2.4199  2.1732  0.3839
  955MOL0     H31763   3.338   0.448   4.027 -0.8141 -0.4667  1.5722
  955MOL0     H31764   3.602   0.345   4.171 -1.8834  0.4578  1.2060
  955MOL0     H31765   3.623   0.448   4.031 -0.1869  1.5107  1.4197
  955MOL0     H31766   3.636   0.213   3.980 -0.7447 -0.4121  1.4715
  955MOL0     H31767   3.505   0.285   3.888 -2.3048 -2.2403 -0.2776
  955MOL0     H31768   3.434   0.067   3.962  0.9235  0.6699 -0.1080
  955MOL0     H31769   3.366   0.162   4.098  1.1414 -0.2496  1.0421
  955MOL0     H31770   3.076   1.197   4.108  1.6779 -1.7492  0.9768
  955MOL0     H31771   2.865   1.290   4.152 -2.3718 -0.6886 -1.2787
  955MOL0     H31772   2.290   1.137   4.323  2.0123  1.0591 -0.7834
  955MOL0     H31773   2.151   1.275   4.474 -0.0531  0.5448  2.6733
  955MOL0     H31774   2.056   1.965   4.812  1.9657 -2.4379 -0.1950
  955MOL0     H31775   1.840   2.003   4.698 -0.1617 -1.7750 -1.5790
  955MOL0     H31776   1.405   1.973   4.727 -0.2391 -1.5339  1.2489
  955MOL0     H31777   1.176   2.009   4.666  1.0416  0.3270 -0.5427
  955MOL0     H31778   1.000   1.760   4.367  1.6136  0.7786  1.3315
  955MOL0     H31779   0.926   1.685   4.513 -3.7798  0.3210  0.1984
  955MOL0     H31780   0.753   1.773   4.386  0.7257 -0.9159  0.6071
  955MOL0     H31781   0.830   1.921   4.349 -1.6871  1.1361  0.1355
  955MOL0     H31782   0.637   1.940   4.500 -1.1970 -1.0684  2.1370
  955MOL0     H31783   0.731   1.878   4.637  2.4310 -1.6124 -0.7966
  955MOL0     H31784   0.809   2.120   4.480  1.3877  1.3846  1.5016
  955MOL0     H31785   0.911   2.028   4.598 -1.2947  0.5947  5.0834
  955MOL0     H31786   0.672   2.262   4.843  4.7785  0.6035  1.2014
  955MOL0     H31787   1.160   1.641   4.461 -0.4042  0.9363  0.8206
  955MOL0     H31788   1.329   1.526   4.409 -1.1292  1.9411 -0.7824
  955MOL0     H31789   1.502   1.582   4.436 -1.1753  3.0133  0.8619
  955MOL0     H31790   1.415   1.490   4.558 -2.7222  0.5272  0.9283
  956MOL0     O31791   3.795   0.749   0.024  0.1347 -0.0624  0.2644
  956MOL0     C31792   3.755   0.866   0.030  0.4286  0.5865  0.8838
  956MOL0     O31793   3.624   0.909   0.003 -0.6157 -0.0501 -0.6058
  956MOL0     C31794   3.545   0.836  -0.086 -0.5457 -1.1370  0.2280
  956MOL0     C31795   3.592   0.813  -0.213 -0.6244  1.0071  0.0472
  956MOL0     C31796   3.509   0.735  -0.301 -0.1364  1.1390  0.2733
  956MOL0     C31797   3.384   0.691  -0.261 -0.2650 -0.1984  0.4724
  956MOL0     O31798   3.327   0.624  -0.365  0.1654 -0.3718  0.0541
  956MOL0     C31799   3.187   0.589  -0.365 -0.5850 -0.2569  0.1074
  956MOL0     C31800   3.133   0.632  -0.502  0.6927  0.1678 -0.7327
  956MOL0     C31801   2.975   0.621  -0.512 -0.9351 -0.3664  0.5525
  956MOL0     C31802   2.900   0.740  -0.451  0.6687 -0.1471 -0.2885
  956MOL0     C31803   2.849   0.725  -0.303 -0.2734  0.1660 -0.4366
  956MOL0     C31804   2.758   0.843  -0.277  0.6746  0.0711  0.1791
  956MOL0     C31805   2.688   0.830  -0.136 -0.6473 -0.2889  0.7844
  956MOL0     C31806   2.586   0.945  -0.133 -0.5371 -0.5098 -1.2021
  956MOL0     N31807   2.450   0.931  -0.205 -0.6915  0.2950 -0.1403
  956MOL0     C31808   2.346   1.013  -0.181  0.0140  0.1820  0.7827
  956MOL0     C31809   2.261   0.984  -0.291 -0.8177 -1.4927 -0.6625
  956MOL0     C31810   2.126   1.061  -0.312  0.0038  0.2170  0.4600
  956MOL0     C31811   2.127   1.148  -0.438  0.3297  0.3065  0.7015
  956MOL0     C31812   1.996   1.231  -0.466  0.4644  0.0906 -1.0328
  956MOL0     C31813   1.982   1.376  -0.425 -0.5917  1.1367  0.3351
  956MOL0     O31814   1.966   1.385  -0.286 -0.3582 -0.1448  0.4817
  956MOL0     C31815   2.066   1.447  -0.212 -0.3777  0.5109  0.0297
  956MOL0     C31816   2.047   1.462  -0.073 -0.3478  0.7003  0.5060
  956MOL0     C31817   2.142   1.537   0.010  0.2465 -0.4496  0.5440
  956MOL0     C31818   2.104   1.554   0.152  0.6764  0.7278 -0.0193
  956MOL0     C31819   2.260   1.588  -0.048 -0.1714  0.2031 -0.4632
  956MOL0     C31820   2.350   1.674   0.027  1.1421 -0.4282  0.5210
  956MOL0     O31821   2.442   1.746  -0.050 -0.2967  0.2455 -0.3247
  956MOL0     C31822   2.511   1.848   0.003 -0.2135  0.4888  0.4103
  956MOL0     C31823   2.538   1.955  -0.074 -0.5944 -0.1075  0.1437
  956MOL0     C31824   2.619   2.061  -0.034 -0.3093  0.0628 -0.9412
  956MOL0     C31825   2.673   2.071   0.100  0.1178 -0.0652  0.0639
  956MOL0     O31826   2.739   2.189   0.148 -0.6354 -0.0748  0.7324
  956MOL0     C31827   2.735   2.300   0.061  0.0686 -1.2603  0.1101
  956MOL0     C31828   2.791   2.430   0.122  0.4667 -0.5919 -0.3170
  956MOL0     C31829   2.755   2.551   0.050  0.0113  0.0941 -0.1122
  956MOL0     C31830   2.855   2.581  -0.065 -1.2616 -1.1810 -0.2198
  956MOL0     C31831   2.809   2.678  -0.165  0.9894  0.8590  0.0744
  956MOL0     C31832   2.903   2.678  -0.292  0.1859 -0.0199  0.1991
  956MOL0     C31833   2.848   2.778  -0.391 -0.4173 -0.2839  0.8044
  956MOL0     C31834   2.921   2.780  -0.533 -0.2144  0.5831 -0.4774
  956MOL0    Cl31835   2.996   2.940  -0.549 -0.1841 -0.2119 -0.1226
  956MOL0     C31836   2.653   1.952   0.185 -0.6763  0.3530  0.5441
  956MOL0     C31837   2.575   1.846   0.133 -0.0796 -0.3140  0.3869
  956MOL0     O31838   2.353   1.672   0.151 -0.8219  0.4349 -0.7521
  956MOL0     C31839   2.288   1.552  -0.179 -0.7385 -0.6992 -0.4075
  956MOL0     C31840   2.197   1.484  -0.257 -0.0227  0.6606  0.0675
  956MOL0     N31841   2.315   0.879  -0.356 -0.3857  1.5021  0.1020
  956MOL0     N31842   2.420   0.844  -0.311 -0.1696  0.1802  0.2928
  956MOL0     C31843   3.333   0.711  -0.134 -0.2603  0.1143 -0.0632
  956MOL0     C31844   3.422   0.779  -0.045  0.7857 -0.0402 -0.6046
  956MOL0     C31845   3.844   0.971   0.100  0.0431  0.5576 -0.5129
  956MOL0     C31846   3.806   1.107   0.089 -0.2052  0.4651 -1.2269
  956MOL0     C31847   3.894   1.205   0.145  0.4480  0.2569 -0.7429
  956MOL0     C31848   4.014   1.174   0.206  0.1151  0.2624 -0.4314
  956MOL0     O31849   4.100   1.258   0.269  0.4139 -0.7803 -0.3465
  956MOL0     C31850   4.066   1.393   0.274  0.4492  0.7708  0.3047
  956MOL0     C31851   3.979   1.446   0.386 -0.0262 -0.8323  0.0905
  956MOL0     C31852   4.029   1.406   0.526  0.4436  0.0356  0.0701
  956MOL0     C31853   4.014   1.516   0.637  0.0636  0.5641 -0.1790
  956MOL0     C31854   4.120   1.497   0.740 -0.1992 -0.4253  0.2359
  956MOL0     C31855   4.215   1.474   0.813  0.2207  0.5410  0.5120
  956MOL0     C31856   4.054   1.044   0.212 -0.4662 -0.3159  0.4942
  956MOL0     C31857   3.972   0.937   0.155  0.1793 -0.9762  0.7741
  956MOL0     C31858   4.034   0.808   0.137  1.4195  0.0237  0.7265
  956MOL0     H31859   3.696   0.835  -0.233 -0.1162  0.4846  1.9581
  956MOL0     H31860   3.564   0.699  -0.388  0.2301 -0.4301  1.1201
  956MOL0     H31861   3.114   0.620  -0.290 -0.5076  0.9524 -0.2998
  956MOL0     H31862   3.188   0.480  -0.371  2.5730 -0.2626 -4.0198
  956MOL0     H31863   3.167   0.734  -0.523  0.2044  0.1445 -1.7362
  956MOL0     H31864   3.189   0.570  -0.573  0.4348 -2.9283  1.5902
  956MOL0     H31865   2.949   0.606  -0.617  1.2700 -2.7407  0.2512
  956MOL0     H31866   2.943   0.527  -0.465 -0.3827 -0.9574 -0.2442
  956MOL0     H31867   2.959   0.832  -0.460  0.3379 -0.1160 -2.8109
  956MOL0     H31868   2.806   0.740  -0.507  0.0867 -2.6921  0.5731
  956MOL0     H31869   2.927   0.728  -0.226 -0.6219 -4.1156  0.3087
  956MOL0     H31870   2.803   0.629  -0.280 -0.4763  0.0164 -1.4582
  956MOL0     H31871   2.810   0.939  -0.281 -1.5261  1.2839 -1.7638
  956MOL0     H31872   2.671   0.852  -0.343 -1.3938  0.5026  2.7502
  956MOL0     H31873   2.768   0.839  -0.062  0.5906  2.1183 -0.6989
  956MOL0     H31874   2.650   0.728  -0.129 -2.2870  0.1497 -0.8264
  956MOL0     H31875   2.575   0.970  -0.027 -1.9740 -1.5558 -1.0703
  956MOL0     H31876   2.630   1.032  -0.182 -3.2048  1.3651 -0.4921
  956MOL0     H31877   2.343   1.082  -0.097  3.3873  0.7871  0.5541
  956MOL0     H31878   2.095   1.125  -0.229  0.3700  2.6410 -1.1715
  956MOL0     H31879   2.050   0.984  -0.326  1.4768 -1.3094  0.5268
  956MOL0     H31880   2.210   1.216  -0.413  0.8374  0.2140 -0.6742
  956MOL0     H31881   2.155   1.097  -0.530 -0.9645  1.7769 -0.5655
  956MOL0     H31882   1.979   1.238  -0.573  0.7281 -0.8507 -1.1437
  956MOL0     H31883   1.918   1.168  -0.423  0.7306  0.5453  0.1660
  956MOL0     H31884   2.051   1.446  -0.473 -1.8620  0.6305 -2.4847
  956MOL0     H31885   1.889   1.411  -0.471  0.6121  1.9187 -1.6251
  956MOL0     H31886   1.955   1.426  -0.028  0.1699 -0.9609  0.3020
  956MOL0     H31887   2.024   1.496   0.199  2.9017  0.8370  4.4518
  956MOL0     H31888   2.073   1.658   0.163  2.9180  1.4518  0.0286
  956MOL0     H31889   2.192   1.527   0.211  1.2499 -0.5976 -1.4095
  956MOL0     H31890   2.532   1.938  -0.181 -0.8017  1.8903 -0.1879
  956MOL0     H31891   2.640   2.142  -0.103 -0.9851  1.4891  0.4547
  956MOL0     H31892   2.799   2.274  -0.024  0.0651  1.6272 -0.8956
  956MOL0     H31893   2.630   2.315   0.035 -0.2389 -1.0583  1.4462
  956MOL0     H31894   2.752   2.439   0.224  1.7892 -2.3114  0.3956
  956MOL0     H31895   2.898   2.429   0.146  0.5530  5.2876  1.1773
  956MOL0     H31896   2.760   2.640   0.113  1.4261 -0.9651  1.3788
  956MOL0     H31897   2.653   2.552   0.011 -0.2091  0.1998  0.4554
  956MOL0     H31898   2.871   2.483  -0.111 -0.9870 -1.3082  0.1448
  956MOL0     H31899   2.946   2.617  -0.017 -1.8043  3.3944 -2.1688
  956MOL0     H31900   2.713   2.645  -0.207  0.0743  2.7451  0.5630
  956MOL0     H31901   2.796   2.776  -0.120 -2.0852 -0.0401  1.4184
  956MOL0     H31902   2.917   2.575  -0.326  1.3952  0.2615 -0.1866
  956MOL0     H31903   2.998   2.723  -0.262  1.3516 -2.4948  0.4457
  956MOL0     H31904   2.863   2.881  -0.357  0.5865  0.9280 -2.8300
  956MOL0     H31905   2.741   2.759  -0.396 -0.0822 -2.0150 -0.5013
  956MOL0     H31906   2.842   2.771  -0.608  0.6401 -1.9532 -1.1759
  956MOL0     H31907   2.981   2.689  -0.547 -0.5163  0.4339 -0.7946
  956MOL0     H31908   2.715   1.951   0.274  1.6254 -2.3260 -0.9048
  956MOL0     H31909   2.576   1.760   0.199  2.9143 -0.7537 -0.1139
  956MOL0     H31910   2.391   1.578  -0.204  1.2621 -2.3840  4.8494
  956MOL0     H31911   2.225   1.462  -0.360 -2.3835 -1.2786 -0.2618
  956MOL0     H31912   3.231   0.675  -0.122  0.1320 -1.6413 -1.6306
  956MOL0     H31913   3.378   0.801   0.052 -2.6127 -1.3778 -1.7322
  956MOL0     H31914   3.703   1.130   0.064 -0.0814  2.2176 -0.2682
  956MOL0     H31915   3.853   1.305   0.152  0.8784  0.3302  2.4442
  956MOL0     H31916   4.156   1.454   0.267  0.4594  0.6766 -0.4653
  956MOL0     H31917   4.018   1.413   0.178  0.6321 -1.0046 -0.1916
  956MOL0     H31918   3.874   1.415   0.378 -0.8277  2.1144 -3.1792
  956MOL0     H31919   3.989   1.552   0.364  2.7647 -1.4482 -2.2495
  956MOL0     H31920   3.962   1.326   0.558  2.0206 -0.8925  1.1931
  956MOL0     H31921   4.131   1.367   0.519 -0.2980 -1.9210 -0.4727
  956MOL0     H31922   3.916   1.513   0.685  0.1912  0.8985  0.0985
  956MOL0     H31923   4.032   1.607   0.580  1.4192 -1.8031 -3.9340
  956MOL0     H31924   4.306   1.450   0.864 -0.4088 -1.3253  0.8683
  956MOL0     H31925   4.151   1.027   0.258  0.2412  4.3653  1.1837
  956MOL0     H31926   4.058   0.785   0.033 -2.8261 -2.4982  0.1208
  956MOL0     H31927   4.134   0.804   0.183  2.6386 -0.9284 -1.8076
  956MOL0     H31928   3.970   0.739   0.192  0.1216  1.3724  0.9517
  957MOL0     O31929   7.869   8.857   6.551 -0.7472 -0.4157 -0.4346
  957MOL0     C31930   7.899   8.888   6.667  0.0441  0.9277  0.6128
  957MOL0     O31931   7.982   8.990   6.696 -0.4788  0.4371 -0.9665
  957MOL0     C31932   8.053   9.042   6.593  0.8956 -0.7292 -0.6502
  957MOL0     C31933   7.994   9.146   6.525 -0.0235  0.5508  0.7601
  957MOL0     C31934   8.065   9.205   6.415  0.7373  0.6352  0.4082
  957MOL0     C31935   8.194   9.164   6.380  0.5942 -0.2612  0.4341
  957MOL0     O31936   8.258   9.213   6.280  0.0118  1.3323  0.2418
  957MOL0     C31937   8.225   9.162   6.143 -0.6794  0.6308 -0.0332
  957MOL0     C31938   8.332   9.209   6.042  0.0144 -0.4774  0.6329
  957MOL0     C31939   8.307   9.339   5.977 -0.9109 -0.5120  0.4903
  957MOL0     C31940   8.431   9.381   5.899 -0.7673 -0.5629 -0.1108
  957MOL0     C31941   8.411   9.508   5.810 -0.9591  0.0596  0.4300
  957MOL0     C31942   8.543   9.577   5.756  0.6348  0.0190  0.5831
  957MOL0     C31943   8.623   9.486   5.665 -0.2312  0.0518  0.3119
  957MOL0     C31944   8.755   9.567   5.632 -0.0205 -0.3845  0.7705
  957MOL0     N31945   8.852   9.480   5.562  0.0767 -1.0347  0.2818
  957MOL0     C31946   8.927   9.388   5.623  0.0745 -0.3050  0.5492
  957MOL0     C31947   8.977   9.317   5.516 -0.1384  0.5494  0.5083
  957MOL0     C31948   9.080   9.201   5.521  0.7311  0.5891  0.4038
  957MOL0     C31949   9.023   9.065   5.504  0.6143 -0.1837  0.4946
  957MOL0     C31950   8.929   9.040   5.622 -0.3402  0.2367 -0.4081
  957MOL0     C31951   8.844   8.908   5.595 -0.0235 -0.5106 -0.6392
  957MOL0     O31952   8.736   8.910   5.692  0.0426  0.6228  0.1540
  957MOL0     C31953   8.612   8.955   5.652 -0.0822  0.4687 -0.0858
  957MOL0     C31954   8.589   9.052   5.548  0.3597  0.7615 -0.1079
  957MOL0     C31955   8.462   9.097   5.525  0.5766 -0.1419 -0.2330
  957MOL0     C31956   8.448   9.212   5.422  0.0773 -0.6923 -0.3404
  957MOL0     C31957   8.346   9.064   5.596  0.2656 -0.1354  0.1110
  957MOL0     C31958   8.212   9.119   5.571 -0.0316 -0.2236  0.3114
  957MOL0     O31959   8.142   9.140   5.677 -0.5633  0.0871  0.5869
  957MOL0     C31960   8.009   9.126   5.684  1.1532  0.3603 -0.1914
  957MOL0     C31961   7.928   9.062   5.597 -0.4110  0.9154 -0.3886
  957MOL0     C31962   7.791   9.042   5.623 -0.1622 -0.1254  0.4898
  957MOL0     C31963   7.731   9.107   5.737  0.7000  1.2178 -0.2360
  957MOL0     O31964   7.595   9.110   5.759  0.2920  0.1684 -0.7087
  957MOL0     C31965   7.508   9.040   5.670  0.6196  0.1292  0.3048
  957MOL0     C31966   7.390   9.001   5.760  0.2506  0.2652 -0.9049
  957MOL0     C31967   7.445   8.915   5.875 -0.3403  0.1001 -0.4259
  957MOL0     C31968   7.337   8.865   5.976 -0.9860  0.4514 -0.0411
  957MOL0     C31969   7.396   8.788   6.088 -0.6734 -0.0632  0.5609
  957MOL0     C31970   7.509   8.688   6.058  0.0180  0.0133 -0.5893
  957MOL0     C31971   7.558   8.623   6.181  0.5149  0.2047  0.4711
  957MOL0     C31972   7.648   8.498   6.168  0.5659 -0.3287 -0.9690
  957MOL0    Cl31973   7.801   8.499   6.073 -0.1419  0.1980  0.0925
  957MOL0     C31974   7.812   9.183   5.820  1.0143  0.0430  0.8857
  957MOL0     C31975   7.953   9.175   5.796  0.6881 -0.3332 -0.7957
  957MOL0     O31976   8.168   9.124   5.455 -1.0844 -0.4657  0.7193
  957MOL0     C31977   8.378   8.977   5.706 -0.7711 -0.2035 -0.3530
  957MOL0     C31978   8.510   8.915   5.733  0.5595 -0.3114 -1.0949
  957MOL0     N31979   8.946   9.385   5.400 -0.0442  0.0700 -0.4769
  957MOL0     N31980   8.867   9.473   5.430  0.2809  0.2255  0.6319
  957MOL0     C31981   8.255   9.065   6.455  0.4502  1.4054  0.9783
  957MOL0     C31982   8.183   8.998   6.564  0.0112 -0.3392  0.7889
  957MOL0     C31983   7.830   8.816   6.774 -0.2691 -0.2486  0.4287
  957MOL0     C31984   7.846   8.882   6.897 -0.0989  0.0546  0.5252
  957MOL0     C31985   7.839   8.809   7.013 -0.3087  0.0148 -0.6147
  957MOL0     C31986   7.776   8.672   7.018 -0.0871 -0.0178  0.5327
  957MOL0     O31987   7.754   8.601   7.138  0.7412 -0.1117 -0.4452
  957MOL0     C31988   7.626   8.550   7.161 -0.6513 -0.2064 -0.2560
  957MOL0     C31989   7.618   8.396   7.152 -0.5213  0.1710  0.3364
  957MOL0     C31990   7.698   8.332   7.273 -0.7700 -0.2217 -0.1665
  957MOL0     C31991   7.752   8.193   7.241 -0.0536  1.0968 -0.5447
  957MOL0     C31992   7.649   8.089   7.270  0.6704 -0.3755  0.5206
  957MOL0     C31993   7.569   8.006   7.313 -0.3095 -0.3008 -0.6570
  957MOL0     C31994   7.734   8.624   6.894 -0.0450 -0.2188  0.7925
  957MOL0     C31995   7.763   8.686   6.770 -0.1833 -0.0581 -0.2960
  957MOL0     C31996   7.739   8.615   6.648 -0.0014 -0.8719 -0.2423
  957MOL0     H31997   7.896   9.183   6.554 -0.6756 -0.2334 -0.3948
  957MOL0     H31998   8.022   9.294   6.371  3.0359  2.4141  1.5105
  957MOL0     H31999   8.118   9.176   6.125 -1.6796 -3.0692  1.9027
  957MOL0     H32000   8.240   9.053   6.143 -0.9696  0.5865 -0.8780
  957MOL0     H32001   8.425   9.208   6.100 -0.8301 -3.0788  2.1055
  957MOL0     H32002   8.345   9.143   5.956  0.8946  2.7889 -1.9223
  957MOL0     H32003   8.224   9.325   5.907 -1.5507  0.9944  0.8991
  957MOL0     H32004   8.276   9.418   6.047 -2.1336 -2.0732  1.7769
  957MOL0     H32005   8.506   9.411   5.973  0.0014 -1.8494 -0.3345
  957MOL0     H32006   8.479   9.302   5.840  3.6014  2.0635 -0.4797
  957MOL0     H32007   8.351   9.583   5.862 -1.2972  1.4343 -1.7793
  957MOL0     H32008   8.342   9.471   5.733 -1.3715  1.4075  0.1266
  957MOL0     H32009   8.514   9.665   5.699 -0.2088  0.2981  1.4300
  957MOL0     H32010   8.603   9.611   5.841  0.1152  0.5234  0.7536
  957MOL0     H32011   8.564   9.464   5.575 -1.9071 -2.4213  1.8728
  957MOL0     H32012   8.653   9.393   5.715 -0.5552 -1.3286 -1.8870
  957MOL0     H32013   8.721   9.647   5.565  1.0116 -1.3887 -1.0560
  957MOL0     H32014   8.796   9.599   5.728 -0.1853  2.9416 -0.1461
  957MOL0     H32015   8.962   9.381   5.725 -0.9179 -2.2044  0.8083
  957MOL0     H32016   9.134   9.202   5.616 -2.2088  1.5641  2.1932
  957MOL0     H32017   9.158   9.226   5.448  4.1196  0.0358  3.5598
  957MOL0     H32018   8.970   9.070   5.408 -0.0159  3.1711  0.9020
  957MOL0     H32019   9.102   8.989   5.508 -0.0668 -0.8740  1.1408
  957MOL0     H32020   8.983   9.032   5.717 -0.5785  0.7671 -0.2252
  957MOL0     H32021   8.865   9.129   5.618  0.2889  0.7197 -0.0469
  957MOL0     H32022   8.805   8.907   5.492  1.8647 -1.5418 -1.3864
  957MOL0     H32023   8.917   8.827   5.607  1.1607  0.4973 -0.8176
  957MOL0     H32024   8.672   9.091   5.490 -0.5173 -2.5122 -3.9919
  957MOL0     H32025   8.414   9.159   5.333  0.2784  0.4162 -1.0897
  957MOL0     H32026   8.543   9.259   5.396 -1.3294  2.7565  0.2184
  957MOL0     H32027   8.391   9.301   5.449 -0.4127 -1.1004  0.0003
  957MOL0     H32028   7.967   9.028   5.502  3.1178  0.1977  1.1473
  957MOL0     H32029   7.734   8.993   5.545  2.5846 -3.0085  0.0936
  957MOL0     H32030   7.463   9.119   5.609  1.9885 -0.2994 -1.3663
  957MOL0     H32031   7.547   8.958   5.608  2.7129  1.3819 -0.1640
  957MOL0     H32032   7.344   9.088   5.808 -0.5333 -0.6896  0.1342
  957MOL0     H32033   7.326   8.937   5.700 -0.9661 -1.1091  1.6966
  957MOL0     H32034   7.508   8.970   5.945  0.5046  0.4923 -1.4715
  957MOL0     H32035   7.494   8.829   5.829 -0.4902  1.5613 -3.5341
  957MOL0     H32036   7.277   8.799   5.912  1.4410 -1.1213 -0.8250
  957MOL0     H32037   7.275   8.943   6.021 -0.9493 -0.6610  2.0622
  957MOL0     H32038   7.443   8.868   6.147  1.1117  1.9294 -3.2042
  957MOL0     H32039   7.329   8.738   6.159 -1.8618 -0.9088 -1.0926
  957MOL0     H32040   7.593   8.750   6.024  4.0454 -2.7984  3.1128
  957MOL0     H32041   7.468   8.619   5.984  1.0759  1.6935 -2.8721
  957MOL0     H32042   7.463   8.601   6.230 -2.4486  4.0806 -2.7993
  957MOL0     H32043   7.613   8.700   6.237  2.6362  1.3185 -2.8676
  957MOL0     H32044   7.592   8.412   6.129 -3.6499  2.2540 -1.2672
  957MOL0     H32045   7.678   8.469   6.269 -0.9073  4.3846  1.0710
  957MOL0     H32046   7.765   9.247   5.893 -3.6565  2.1066 -3.3248
  957MOL0     H32047   8.008   9.229   5.873 -2.2297  2.3337 -0.3719
  957MOL0     H32048   8.294   8.940   5.764 -1.6618  0.2401 -1.3325
  957MOL0     H32049   8.535   8.845   5.812  0.5059  0.5121 -0.3345
  957MOL0     H32050   8.352   9.032   6.419 -0.1228  1.0988 -0.3408
  957MOL0     H32051   8.220   8.910   6.615  1.3894  1.0832  2.4170
  957MOL0     H32052   7.880   8.985   6.905 -0.6380  0.1515  1.8336
  957MOL0     H32053   7.870   8.858   7.105 -1.2040 -0.0351 -0.2718
  957MOL0     H32054   7.608   8.571   7.267  0.4801  1.9819 -0.4226
  957MOL0     H32055   7.549   8.587   7.093 -0.2905  0.2358 -0.4323
  957MOL0     H32056   7.641   8.348   7.057 -2.0264 -2.6579  1.2720
  957MOL0     H32057   7.513   8.379   7.178 -0.6166  2.5946  1.9225
  957MOL0     H32058   7.782   8.399   7.296  0.5114 -1.8981  0.2424
  957MOL0     H32059   7.638   8.325   7.364  1.4158  0.6333  1.4215
  957MOL0     H32060   7.842   8.168   7.298  1.1244  1.1443 -2.3038
  957MOL0     H32061   7.781   8.195   7.135 -0.6816 -0.1952 -0.7554
  957MOL0     H32062   7.484   7.950   7.346 -1.8281  2.8094  1.2296
  957MOL0     H32063   7.690   8.525   6.894  2.0943 -1.2233  1.3416
  957MOL0     H32064   7.821   8.595   6.579 -2.6146 -2.3224 -3.2020
  957MOL0     H32065   7.695   8.519   6.679 -0.1221 -0.4351  1.0059
  957MOL0     H32066   7.669   8.677   6.591  0.4418  0.9595  1.0903
  958MOL0     O32067   6.605  11.390   0.827  0.0025 -0.7073  0.0371
  958MOL0     C32068   6.632  11.339   0.939 -0.2469 -0.3659 -0.5773
  958MOL0     O32069   6.630  11.204   0.971  0.7634  0.1613 -0.2431
  958MOL0     C32070   6.564  11.121   0.885 -1.0392  1.2553  0.4284
  958MOL0     C32071   6.441  11.147   0.817 -0.5262  1.4429 -0.0757
  958MOL0     C32072   6.393  11.054   0.728 -0.1201  0.5416  0.3801
  958MOL0     C32073   6.460  10.938   0.679 -0.8725  0.2025 -0.5328
  958MOL0     O32074   6.396  10.865   0.584 -0.3537  0.7352 -0.1684
  958MOL0     C32075   6.364  10.940   0.472 -0.2063 -0.2103 -0.5359
  958MOL0     C32076   6.338  10.861   0.344 -0.4854  0.0381 -0.2245
  958MOL0     C32077   6.479  10.786   0.315 -0.5420 -0.7069 -1.3155
  958MOL0     C32078   6.462  10.641   0.380  0.4473  0.0320 -0.2197
  958MOL0     C32079   6.580  10.545   0.349  0.2269 -0.6413  0.8088
  958MOL0     C32080   6.555  10.400   0.393  0.4078  0.3135 -0.6188
  958MOL0     C32081   6.663  10.300   0.350  0.2805  0.3608  0.2586
  958MOL0     C32082   6.629  10.157   0.383 -0.1139  1.6487 -0.8254
  958MOL0     N32083   6.502  10.123   0.317  0.0966  0.4636  0.0084
  958MOL0     C32084   6.381  10.122   0.377 -0.3136 -0.0938  0.5266
  958MOL0     C32085   6.302  10.064   0.279  0.2548 -0.4032 -0.1224
  958MOL0     C32086   6.153  10.057   0.305 -0.2634  0.0069  0.5792
  958MOL0     C32087   6.083   9.975   0.207  0.2771 -0.2616 -0.1511
  958MOL0     C32088   5.924   9.968   0.240 -0.1441 -1.0290 -0.7286
  958MOL0     C32089   5.851   9.905   0.136  0.3061  0.3960 -0.1204
  958MOL0     O32090   5.838   9.983   0.017 -0.1506 -0.3475  0.5417
  958MOL0     C32091   5.915   9.930  -0.089 -0.5068 -0.1900 -1.0698
  958MOL0     C32092   5.887   9.802  -0.135  0.3795 -0.0092 -0.0072
  958MOL0     C32093   5.960   9.743  -0.232 -0.3076 -0.3493  1.4066
  958MOL0     C32094   5.926   9.601  -0.267  0.1066  0.5493 -0.4741
  958MOL0     C32095   6.080   9.806  -0.274 -0.8068  0.0804 -0.3202
  958MOL0     C32096   6.177   9.747  -0.366  0.9319 -0.6042  0.3917
  958MOL0     O32097   6.310   9.775  -0.340 -0.4833  0.3377 -0.0160
  958MOL0     C32098   6.398   9.691  -0.416 -0.1904 -0.6493  0.4094
  958MOL0     C32099   6.486   9.747  -0.512  0.6966 -0.3280  0.4383
  958MOL0     C32100   6.579   9.673  -0.584 -0.7049 -0.9440  1.3762
  958MOL0     C32101   6.593   9.540  -0.547 -0.1435  0.1845 -0.0534
  958MOL0     O32102   6.690   9.452  -0.604  0.1382  0.7947  0.2723
  958MOL0     C32103   6.831   9.488  -0.616  0.0481 -0.4166  0.3647
  958MOL0     C32104   6.919   9.391  -0.699  0.4203 -0.7957  0.0384
  958MOL0     C32105   7.078   9.418  -0.669  0.3972 -0.0830  0.2757
  958MOL0     C32106   7.156   9.289  -0.720  0.0979 -0.9383  0.2755
  958MOL0     C32107   7.164   9.286  -0.879 -0.1642 -0.2209 -0.4383
  958MOL0     C32108   7.260   9.172  -0.920 -0.0278  0.2050 -0.3471
  958MOL0     C32109   7.211   9.098  -1.049  0.6016  0.4390 -0.1526
  958MOL0     C32110   7.324   9.026  -1.128  0.4955 -0.4020 -0.2645
  958MOL0    Cl32111   7.387   8.901  -1.032  0.4218 -0.4135 -0.0526
  958MOL0     C32112   6.506   9.479  -0.455 -0.5264 -0.0589 -0.3144
  958MOL0     C32113   6.403   9.556  -0.397  0.0861  1.2710  0.1003
  958MOL0     O32114   6.134   9.672  -0.455 -0.5326 -0.0969  0.5636
  958MOL0     C32115   6.105   9.940  -0.230  0.1541  0.0443  0.7382
  958MOL0     C32116   6.021  10.003  -0.143  0.4106  0.2100  0.1830
  958MOL0     N32117   6.385  10.025   0.169  1.1775  0.4015 -0.5248
  958MOL0     N32118   6.501  10.058   0.200  0.6124 -0.4630 -0.3364
  958MOL0     C32119   6.581  10.917   0.744  0.1138  0.7225  0.2121
  958MOL0     C32120   6.635  11.003   0.847  0.2173  0.8614 -1.0747
  958MOL0     C32121   6.657  11.426   1.061  1.0483  1.9200  0.2838
  958MOL0     C32122   6.734  11.368   1.162  0.2978 -0.8439  0.2579
  958MOL0     C32123   6.758  11.437   1.285 -0.5881  0.7373  0.7618
  958MOL0     C32124   6.697  11.558   1.308 -0.0268 -0.0420 -0.4876
  958MOL0     O32125   6.732  11.638   1.411  0.2747  0.9514  0.2124
  958MOL0     C32126   6.819  11.573   1.511 -0.3904 -0.7667 -0.1393
  958MOL0     C32127   6.843  11.668   1.637  0.2879  0.2650 -1.1095
  958MOL0     C32128   6.855  11.587   1.766  0.5872  0.9786 -0.0632
  958MOL0     C32129   6.824  11.672   1.897  0.4416  0.7298  0.2740
  958MOL0     C32130   6.923  11.779   1.909  0.5465 -0.0411 -0.0636
  958MOL0     C32131   7.011  11.859   1.916  0.2860  0.8213 -0.3187
  958MOL0     C32132   6.623  11.622   1.207  0.7698  0.6959 -0.0621
  958MOL0     C32133   6.595  11.554   1.086 -0.3181 -0.4226 -0.3654
  958MOL0     C32134   6.516  11.633   0.984  0.2423  0.0179 -0.2573
  958MOL0     H32135   6.380  11.235   0.838 -1.5387  0.6311  0.4840
  958MOL0     H32136   6.294  11.066   0.686  0.4081  0.9420 -0.7970
  958MOL0     H32137   6.440  11.019   0.466  2.8875 -2.6530  2.3289
  958MOL0     H32138   6.272  10.999   0.480  2.2381  4.2868 -1.8884
  958MOL0     H32139   6.257  10.788   0.350  0.4034 -1.0547 -1.1937
  958MOL0     H32140   6.306  10.930   0.265 -3.9866 -1.8601 -0.6551
  958MOL0     H32141   6.491  10.789   0.206  1.2461 -0.2597 -1.1459
  958MOL0     H32142   6.562  10.839   0.362  0.5197 -0.7006 -3.1184
  958MOL0     H32143   6.439  10.639   0.487  0.1334 -1.1526 -0.2928
  958MOL0     H32144   6.373  10.591   0.340  0.2695  0.9026 -0.9406
  958MOL0     H32145   6.672  10.589   0.389 -1.3897  1.6277  2.2270
  958MOL0     H32146   6.594  10.551   0.241 -0.4361  2.9296  0.7985
  958MOL0     H32147   6.546  10.400   0.502 -1.3290  5.2867 -0.5181
  958MOL0     H32148   6.464  10.370   0.341  1.6968 -0.7671 -2.3930
  958MOL0     H32149   6.756  10.326   0.402  1.9930 -1.2645 -1.7799
  958MOL0     H32150   6.691  10.306   0.244  3.0622  1.3158  0.9375
  958MOL0     H32151   6.708  10.084   0.364  1.3801  1.0104  5.5905
  958MOL0     H32152   6.617  10.153   0.492  2.6192  3.3161 -0.3731
  958MOL0     H32153   6.363  10.146   0.482  0.5926  1.0363  0.4483
  958MOL0     H32154   6.105  10.155   0.299  1.1223  0.6239 -2.7190
  958MOL0     H32155   6.140  10.022   0.408  2.2044  1.1685  1.3674
  958MOL0     H32156   6.092  10.025   0.110 -1.0609  2.4566  1.0088
  958MOL0     H32157   6.114   9.871   0.201 -0.7425 -0.8182  2.5307
  958MOL0     H32158   5.908   9.929   0.341  1.9326  0.4016  0.2202
  958MOL0     H32159   5.880  10.069   0.246 -1.6221 -1.6756 -0.2052
  958MOL0     H32160   5.885   9.801   0.128  1.8691  0.4406  3.9376
  958MOL0     H32161   5.752   9.886   0.179  0.4274 -1.5193 -0.6144
  958MOL0     H32162   5.800   9.752  -0.094  1.3072 -1.0734  0.7195
  958MOL0     H32163   5.834   9.548  -0.243 -1.1038  1.9949 -1.7435
  958MOL0     H32164   6.005   9.542  -0.219  0.8031  0.7147 -1.3792
  958MOL0     H32165   5.934   9.577  -0.374  0.7867  0.6865 -0.4642
  958MOL0     H32166   6.480   9.855  -0.525  3.0435  0.1556  2.3847
  958MOL0     H32167   6.652   9.710  -0.655  1.4930 -2.7732  2.5692
  958MOL0     H32168   6.838   9.589  -0.657 -0.8306  0.3927  2.1022
  958MOL0     H32169   6.865   9.481  -0.513 -0.5425 -2.0345  0.4867
  958MOL0     H32170   6.888   9.290  -0.673  0.2293 -0.8235 -0.2959
  958MOL0     H32171   6.900   9.428  -0.800 -0.0003  4.7715  1.8288
  958MOL0     H32172   7.084   9.455  -0.566 -0.2145 -1.8215  0.9637
  958MOL0     H32173   7.103   9.496  -0.742 -1.4849 -0.5592 -0.9610
  958MOL0     H32174   7.120   9.192  -0.684  0.1235 -0.3141  2.0854
  958MOL0     H32175   7.258   9.320  -0.697 -0.3676  1.1135 -0.2191
  958MOL0     H32176   7.066   9.279  -0.926 -1.5405  1.1169  2.0441
  958MOL0     H32177   7.199   9.381  -0.919  5.3372 -1.5192  0.3610
  958MOL0     H32178   7.255   9.098  -0.840 -0.0477 -0.0086 -0.5452
  958MOL0     H32179   7.360   9.215  -0.928 -1.4398  3.5117 -2.5464
  958MOL0     H32180   7.152   9.162  -1.116 -0.0686 -0.6873 -0.6632
  958MOL0     H32181   7.142   9.017  -1.025  0.9066  0.0550 -0.5465
  958MOL0     H32182   7.398   9.101  -1.158 -0.2376  0.7152  0.6259
  958MOL0     H32183   7.291   8.992  -1.227  3.2238 -3.8489 -0.1816
  958MOL0     H32184   6.520   9.375  -0.428  2.2489  0.4070  0.4071
  958MOL0     H32185   6.323   9.514  -0.337 -2.3955  2.9707 -1.7925
  958MOL0     H32186   6.202   9.986  -0.250 -1.1629  2.7416  0.1134
  958MOL0     H32187   6.028  10.107  -0.114 -0.6664  0.6890 -1.1720
  958MOL0     H32188   6.651  10.841   0.710  1.6116  1.9679  0.4054
  958MOL0     H32189   6.734  10.978   0.883 -0.7185 -1.0735  0.3583
  958MOL0     H32190   6.779  11.270   1.149 -1.6870 -1.4075 -4.9669
  958MOL0     H32191   6.818  11.386   1.359  0.7980  0.0158 -0.7879
  958MOL0     H32192   6.779  11.480   1.551 -0.7577 -0.0665  1.1854
  958MOL0     H32193   6.918  11.565   1.465  0.7872  4.4978  0.7787
  958MOL0     H32194   6.753  11.725   1.664 -0.1884 -1.7662  2.1838
  958MOL0     H32195   6.932  11.729   1.619  3.8012 -2.3790  4.4455
  958MOL0     H32196   6.796  11.496   1.775  0.5511  1.1550  1.7415
  958MOL0     H32197   6.957  11.548   1.772  0.1104 -0.2091  0.6894
  958MOL0     H32198   6.809  11.617   1.991  2.5340  2.4648  1.7462
  958MOL0     H32199   6.728  11.720   1.881 -1.0518 -2.4142 -1.0074
  958MOL0     H32200   7.082  11.938   1.924  1.7051 -0.6038  2.5437
  958MOL0     H32201   6.584  11.723   1.219 -5.1077 -1.2014 -0.3336
  958MOL0     H32202   6.413  11.597   0.993  0.2841 -0.3407 -1.0798
  958MOL0     H32203   6.517  11.740   1.006  3.0612  0.0773 -0.2907
  958MOL0     H32204   6.545  11.633   0.879 -3.1914  1.1121 -1.3190
  959MOL0     O32205  10.026   2.891   3.176 -0.6246 -1.1935  0.0560
  959MOL0     C32206   9.951   2.915   3.270  0.4568 -0.2308  0.0632
  959MOL0     O32207   9.988   2.959   3.392  0.0064 -0.2756  0.6257
  959MOL0     C32208  10.111   2.911   3.435 -0.2741 -0.5194  0.2617
  959MOL0     C32209  10.161   2.775   3.411  0.3474 -1.3120  0.2531
  959MOL0     C32210  10.279   2.735   3.462 -0.4380 -0.3373  0.7167
  959MOL0     C32211  10.355   2.822   3.557 -0.0694  0.1873 -0.4244
  959MOL0     O32212  10.457   2.780   3.635  0.4221 -0.1158  0.2532
  959MOL0     C32213  10.501   2.647   3.623 -0.7731  0.2087  0.7973
  959MOL0     C32214  10.620   2.627   3.720 -0.6249 -0.7894 -0.6288
  959MOL0     C32215  10.768   2.650   3.673 -0.6263  0.0908  0.3490
  959MOL0     C32216  10.859   2.550   3.742  0.2299  0.3672  1.2020
  959MOL0     C32217  10.884   2.595   3.892 -0.0132 -0.5276 -0.6596
  959MOL0     C32218  10.973   2.480   3.951 -0.3511  0.0361 -0.0405
  959MOL0     C32219  10.984   2.485   4.105 -0.4934  0.2637  0.1035
  959MOL0     C32220  11.037   2.625   4.153 -0.3659 -0.2170  0.6349
  959MOL0     N32221  11.093   2.622   4.287  0.6197  0.1244  0.1229
  959MOL0     C32222  11.011   2.606   4.394 -1.0647 -0.5540 -0.8934
  959MOL0     C32223  11.101   2.633   4.504 -0.8307 -0.1981  0.6434
  959MOL0     C32224  11.070   2.633   4.646 -0.0005 -0.5788 -0.5665
  959MOL0     C32225  11.125   2.758   4.719 -1.1796 -0.1413 -0.2195
  959MOL0     C32226  11.083   2.767   4.866 -0.4978 -0.6004  0.0472
  959MOL0     C32227  11.146   2.886   4.942 -0.0776  0.0321 -0.1936
  959MOL0     O32228  11.111   3.012   4.888  0.9838  0.0589 -0.5646
  959MOL0     C32229  11.122   3.140   4.950  0.5790 -0.4235  0.1646
  959MOL0     C32230  11.062   3.249   4.884 -0.4250 -0.6566 -0.3719
  959MOL0     C32231  11.066   3.378   4.935  0.5794 -0.0968 -0.3919
  959MOL0     C32232  11.002   3.489   4.845 -0.2656  0.0264 -0.9509
  959MOL0     C32233  11.130   3.397   5.064 -0.5403 -0.1598  0.6390
  959MOL0     C32234  11.125   3.528   5.143 -0.0862  0.3654  0.6144
  959MOL0     O32235  11.211   3.535   5.247 -0.2829  0.3293 -0.1227
  959MOL0     C32236  11.226   3.649   5.315 -0.3638 -0.0001 -0.1780
  959MOL0     C32237  11.251   3.774   5.255 -0.0942 -0.6190  0.2232
  959MOL0     C32238  11.274   3.883   5.326 -0.0338 -0.5794  0.4408
  959MOL0     C32239  11.251   3.877   5.461  0.0800  0.0295  0.2083
  959MOL0     O32240  11.269   3.993   5.513  0.0298  0.3460 -0.3428
  959MOL0     C32241  11.344   4.011   5.629 -0.1850 -0.5419 -0.7979
  959MOL0     C32242  11.491   4.064   5.620  0.8072 -0.6605  0.4505
  959MOL0     C32243  11.510   4.171   5.508  0.3819 -0.6231  0.0749
  959MOL0     C32244  11.638   4.253   5.549 -0.3577  0.1787  0.3263
  959MOL0     C32245  11.688   4.335   5.430 -0.1531  0.4402 -0.4025
  959MOL0     C32246  11.791   4.412   5.495  0.6113 -0.3693 -0.8513
  959MOL0     C32247  11.873   4.496   5.392  0.3181  0.0768  0.8168
  959MOL0     C32248  12.016   4.522   5.449 -0.0224  0.4304  0.1715
  959MOL0    Cl32249  12.020   4.593   5.612  0.0012  0.4078  0.0682
  959MOL0     C32250  11.213   3.763   5.533  0.6797 -0.5723  0.9170
  959MOL0     C32251  11.197   3.646   5.451  0.1773 -0.2755 -1.2026
  959MOL0     O32252  11.037   3.610   5.119 -0.0625  0.2416  0.6169
  959MOL0     C32253  11.199   3.287   5.121  1.0304  0.2364 -0.2778
  959MOL0     C32254  11.187   3.161   5.071 -0.7925  0.6631  0.3452
  959MOL0     N32255  11.233   2.656   4.454  0.3225  0.2579  0.1944
  959MOL0     N32256  11.221   2.648   4.323  0.3407 -0.2849  0.2737
  959MOL0     C32257  10.307   2.952   3.578 -0.0580 -0.0549 -0.8025
  959MOL0     C32258  10.187   2.994   3.522  0.2218  0.0174 -0.5584
  959MOL0     C32259   9.812   2.946   3.215  0.8076  1.8628  0.2249
  959MOL0     C32260   9.747   2.862   3.128  0.6519 -1.0348 -0.2453
  959MOL0     C32261   9.607   2.889   3.099 -0.3941 -0.0166  0.5550
  959MOL0     C32262   9.541   2.993   3.148  0.5950 -0.4002  0.0304
  959MOL0     O32263   9.403   3.008   3.142  0.6835 -0.0900 -0.9322
  959MOL0     C32264   9.335   2.881   3.155  0.1534  0.7790  0.2169
  959MOL0     C32265   9.188   2.899   3.192  0.4133  0.3872 -0.1411
  959MOL0     C32266   9.107   2.982   3.088 -0.6325  0.4244 -0.6705
  959MOL0     C32267   8.963   2.965   3.116 -0.0788  0.7314 -0.8550
  959MOL0     C32268   8.882   3.011   2.998  0.3550 -0.0862  0.0196
  959MOL0     C32269   8.837   3.055   2.901  0.9100  0.3267  0.2639
  959MOL0     C32270   9.613   3.081   3.227 -0.2216  0.1139  0.4121
  959MOL0     C32271   9.741   3.065   3.267 -0.8135 -0.2629 -0.1825
  959MOL0     C32272   9.795   3.166   3.358  0.4159  0.8552 -0.7621
  959MOL0     H32273  10.106   2.719   3.336  0.7732 -0.3769 -0.7981
  959MOL0     H32274  10.332   2.642   3.448  0.0171  0.2623 -2.1504
  959MOL0     H32275  10.540   2.640   3.521 -2.6263  1.0627  0.0011
  959MOL0     H32276  10.430   2.571   3.656 -1.8342 -0.1674 -2.0874
  959MOL0     H32277  10.596   2.676   3.815 -0.3856 -2.8084  0.5294
  959MOL0     H32278  10.609   2.522   3.749  2.6371 -0.3798  2.8729
  959MOL0     H32279  10.782   2.621   3.569 -1.9482  1.8284 -0.3651
  959MOL0     H32280  10.798   2.753   3.695 -0.6081  0.1954 -0.1649
  959MOL0     H32281  10.808   2.454   3.732  0.6790 -0.0316  2.6195
  959MOL0     H32282  10.957   2.540   3.694  0.9638  1.1154  2.4809
  959MOL0     H32283  10.791   2.612   3.947 -0.9251 -4.5653 -0.6263
  959MOL0     H32284  10.948   2.682   3.877 -1.2470  0.2557 -1.5618
  959MOL0     H32285  10.923   2.389   3.918 -1.1725  0.5640 -0.2921
  959MOL0     H32286  11.072   2.484   3.904  1.2795  0.6617  3.1060
  959MOL0     H32287  11.061   2.412   4.132  0.6820  1.1273 -0.7805
  959MOL0     H32288  10.888   2.466   4.155 -0.7014  0.8855 -0.0493
  959MOL0     H32289  11.108   2.676   4.087 -0.8156  3.2755  2.6407
  959MOL0     H32290  10.958   2.695   4.179  0.3874  2.0091 -2.4816
  959MOL0     H32291  10.907   2.576   4.393 -0.5691 -2.3965 -1.5923
  959MOL0     H32292  11.110   2.541   4.689 -1.8815  0.5198  4.1618
  959MOL0     H32293  10.962   2.629   4.656 -0.1469  1.8150 -0.5009
  959MOL0     H32294  11.232   2.739   4.710 -0.7990  2.6128 -4.4748
  959MOL0     H32295  11.116   2.847   4.656  0.8479  0.7415  0.6673
  959MOL0     H32296  10.974   2.771   4.880 -0.3418  0.1219  1.2332
  959MOL0     H32297  11.132   2.678   4.906  3.1973  0.7638 -0.9895
  959MOL0     H32298  11.125   2.888   5.049  3.2949  2.8006  0.5631
  959MOL0     H32299  11.255   2.887   4.931 -0.0161  1.3283  0.4362
  959MOL0     H32300  11.017   3.225   4.788 -0.9026  0.9819 -0.5917
  959MOL0     H32301  10.906   3.533   4.873  0.1580  0.1350  0.4381
  959MOL0     H32302  10.994   3.469   4.738  0.5108 -1.7846 -0.7085
  959MOL0     H32303  11.072   3.573   4.853  2.2896 -2.0406  0.2523
  959MOL0     H32304  11.269   3.771   5.148 -0.4406  0.4308  0.1292
  959MOL0     H32305  11.307   3.974   5.276 -0.0585 -1.2938 -0.9295
  959MOL0     H32306  11.285   4.074   5.697  0.8234 -1.9927  1.5465
  959MOL0     H32307  11.342   3.919   5.687 -1.9613 -1.2425 -1.8893
  959MOL0     H32308  11.523   4.106   5.715 -3.9882  1.7706  1.2901
  959MOL0     H32309  11.552   3.985   5.576 -2.4094 -2.7995 -0.5510
  959MOL0     H32310  11.419   4.232   5.513  1.5641  1.2125  0.0212
  959MOL0     H32311  11.528   4.126   5.409  3.3136 -0.3894  0.4212
  959MOL0     H32312  11.719   4.183   5.571  0.9313  1.2775 -0.7546
  959MOL0     H32313  11.618   4.306   5.642  0.6102 -0.5036  0.9330
  959MOL0     H32314  11.728   4.273   5.349 -0.4424  2.2507 -1.9983
  959MOL0     H32315  11.609   4.399   5.389  0.5395  1.6354  0.0721
  959MOL0     H32316  11.871   4.346   5.531 -0.4030 -1.2853 -0.2155
  959MOL0     H32317  11.740   4.471   5.571  0.1503 -0.0886 -1.3793
  959MOL0     H32318  11.822   4.592   5.390  0.3108  0.1572  2.7877
  959MOL0     H32319  11.871   4.451   5.292  1.6613  1.2733  0.2278
  959MOL0     H32320  12.064   4.587   5.375  1.0894  0.5333  0.9624
  959MOL0     H32321  12.077   4.433   5.436 -1.1577 -0.3161 -0.2645
  959MOL0     H32322  11.190   3.758   5.639  2.3566  1.5520  1.4561
  959MOL0     H32323  11.165   3.551   5.495 -0.6800  0.1257 -0.9341
  959MOL0     H32324  11.250   3.291   5.216  0.2112 -0.5033  0.2079
  959MOL0     H32325  11.240   3.079   5.119  1.4922  0.4346 -2.2878
  959MOL0     H32326  10.356   3.013   3.654 -2.4042  1.1286 -0.1239
  959MOL0     H32327  10.148   3.086   3.563  0.6421  1.0873 -2.4177
  959MOL0     H32328   9.795   2.771   3.092  2.8357 -0.3461  0.7665
  959MOL0     H32329   9.554   2.818   3.036 -1.5142  0.7707  0.5748
  959MOL0     H32330   9.344   2.821   3.064 -1.0812  0.2898  0.3915
  959MOL0     H32331   9.377   2.830   3.242  1.2474  3.1239  1.1438
  959MOL0     H32332   9.182   2.934   3.295  2.0724 -0.4684  0.2806
  959MOL0     H32333   9.153   2.796   3.195  5.3703 -1.5193  3.0814
  959MOL0     H32334   9.146   3.084   3.095 -0.6941  0.7993 -4.1268
  959MOL0     H32335   9.115   2.946   2.985  1.4677  0.8040 -0.7027
  959MOL0     H32336   8.934   3.010   3.212 -1.5019  0.8392 -1.3170
  959MOL0     H32337   8.956   2.856   3.117 -0.5608  0.7634 -0.2093
  959MOL0     H32338   8.793   3.095   2.812 -0.3330  0.4112  0.9044
  959MOL0     H32339   9.561   3.170   3.261 -1.2340  0.8324 -2.7084
  959MOL0     H32340   9.728   3.252   3.364 -1.8360 -0.7391 -1.8646
  959MOL0     H32341   9.813   3.126   3.459  1.5038  0.9112 -0.9160
  959MOL0     H32342   9.894   3.198   3.323  0.6142 -0.9399 -1.9773
  960MOL0     O32343   4.343  11.034   0.506  0.4802  0.0062 -0.9317
  960MOL0     C32344   4.399  11.132   0.563 -0.3575  0.1945 -0.3809
  960MOL0     O32345   4.467  11.226   0.496  0.4750  1.2032  0.7055
  960MOL0     C32346   4.477  11.219   0.360  1.2174 -0.5217 -0.0737
  960MOL0     C32347   4.411  11.323   0.287 -0.7306  0.6287 -0.7682
  960MOL0     C32348   4.407  11.323   0.144 -0.3029  0.1346 -0.4242
  960MOL0     C32349   4.480  11.225   0.081 -1.7287  0.8863  0.6096
  960MOL0     O32350   4.492  11.203  -0.057  0.4819 -0.6316  0.1162
  960MOL0     C32351   4.475  11.330  -0.129 -0.2586 -0.6487  0.5022
  960MOL0     C32352   4.512  11.300  -0.276 -0.1549 -0.1991 -0.6799
  960MOL0     C32353   4.664  11.265  -0.283  0.1090 -0.2175  0.8514
  960MOL0     C32354   4.732  11.314  -0.409  1.6555  0.4675  0.2057
  960MOL0     C32355   4.885  11.289  -0.390  1.4697  0.0264 -0.3044
  960MOL0     C32356   4.918  11.146  -0.367 -0.2137 -0.2323 -0.0284
  960MOL0     C32357   5.062  11.132  -0.329  0.1948  0.2302 -0.7405
  960MOL0     C32358   5.083  11.165  -0.183 -0.1329 -0.6689 -0.2748
  960MOL0     N32359   5.222  11.139  -0.153 -0.1050 -0.5667  1.2607
  960MOL0     C32360   5.283  11.031  -0.093  0.6214  0.1719  0.2944
  960MOL0     C32361   5.415  11.056  -0.099  0.8151  0.6490  0.2347
  960MOL0     C32362   5.523  10.983  -0.021  0.1686 -0.1483 -0.3628
  960MOL0     C32363   5.606  10.887  -0.109  0.5573 -0.4360  0.3860
  960MOL0     C32364   5.651  10.955  -0.235 -0.3482  0.4020  0.1016
  960MOL0     C32365   5.763  10.888  -0.317  0.8277 -0.7514  1.3344
  960MOL0     O32366   5.882  10.876  -0.242 -0.4527  0.5072  0.2094
  960MOL0     C32367   6.002  10.936  -0.276  0.0499  0.3665  0.2037
  960MOL0     C32368   6.022  11.055  -0.342 -0.0163  0.1262  0.0028
  960MOL0     C32369   6.145  11.100  -0.387  0.6138 -0.9892  0.1228
  960MOL0     C32370   6.145  11.219  -0.474 -0.6335 -0.5493 -0.4371
  960MOL0     C32371   6.264  11.037  -0.342  0.5435  0.3272  0.5475
  960MOL0     C32372   6.406  11.077  -0.383  0.1756 -0.4889  0.1332
  960MOL0     O32373   6.497  11.115  -0.291 -0.7628  0.9200  0.2775
  960MOL0     C32374   6.447  11.134  -0.167  0.2649 -0.5995 -0.1734
  960MOL0     C32375   6.504  11.056  -0.066 -0.0740 -0.4035  0.8647
  960MOL0     C32376   6.455  11.078   0.060 -0.4290  0.2460 -0.7170
  960MOL0     C32377   6.351  11.165   0.097  0.0057 -0.0123 -0.0222
  960MOL0     O32378   6.321  11.178   0.230 -1.2324 -0.0871 -0.2975
  960MOL0     C32379   6.345  11.313   0.267  0.0257  1.4381  0.6515
  960MOL0     C32380   6.328  11.321   0.420  0.9250  0.2663 -0.4132
  960MOL0     C32381   6.369  11.468   0.463 -0.2880  0.7073 -0.8283
  960MOL0     C32382   6.289  11.518   0.573  1.5143 -1.6829  0.3992
  960MOL0     C32383   6.311  11.664   0.600  0.9946  0.2272  0.5814
  960MOL0     C32384   6.193  11.720   0.688 -0.4230  0.5792  0.5440
  960MOL0     C32385   6.210  11.873   0.699 -0.8251 -0.1384  0.0403
  960MOL0     C32386   6.078  11.925   0.742 -0.3061 -0.4173  0.8621
  960MOL0    Cl32387   6.062  12.098   0.693  0.2057 -0.0925 -0.1224
  960MOL0     C32388   6.297  11.237  -0.002 -0.7376  0.1946  0.0369
  960MOL0     C32389   6.347  11.227  -0.135 -0.5159 -0.1646  0.4521
  960MOL0     O32390   6.435  11.079  -0.504  0.4292 -0.4509 -0.2249
  960MOL0     C32391   6.249  10.929  -0.249  0.8854  1.0079 -0.4076
  960MOL0     C32392   6.115  10.880  -0.229  0.2277  0.3721  0.1630
  960MOL0     N32393   5.435  11.171  -0.165 -0.0246  0.5216  0.3372
  960MOL0     N32394   5.320  11.228  -0.202 -0.2328  0.3943 -0.0561
  960MOL0     C32395   4.533  11.117   0.149  0.1753  0.2250  0.1853
  960MOL0     C32396   4.538  11.111   0.285  0.2508  0.2967 -0.1123
  960MOL0     C32397   4.376  11.132   0.710  0.0903  0.2993 -0.1392
  960MOL0     C32398   4.484  11.168   0.799 -0.0277 -0.2727  0.1366
  960MOL0     C32399   4.461  11.176   0.934  0.2507  1.2714 -0.1338
  960MOL0     C32400   4.334  11.143   0.991  0.5687 -0.8896  0.1266
  960MOL0     O32401   4.327  11.177   1.120 -0.2844  0.3062  0.0011
  960MOL0     C32402   4.211  11.137   1.196 -0.3441  0.0894  0.5822
  960MOL0     C32403   4.208  11.191   1.334  1.1665  0.6516 -0.5623
  960MOL0     C32404   4.197  11.342   1.341  0.4763 -0.4954 -0.1200
  960MOL0     C32405   4.155  11.383   1.480 -0.7733  0.7042  0.0568
  960MOL0     C32406   4.012  11.381   1.507  0.1562  0.9278 -0.3158
  960MOL0     C32407   3.891  11.392   1.535  0.5790 -0.7205 -0.4156
  960MOL0     C32408   4.230  11.103   0.914  0.1680  0.4318  0.1968
  960MOL0     C32409   4.252  11.102   0.775 -0.0485  0.2161 -0.0545
  960MOL0     C32410   4.129  11.069   0.700 -0.1891 -0.5069 -0.2433
  960MOL0     H32411   4.371  11.404   0.348  2.0630 -0.2635  2.5037
  960MOL0     H32412   4.362  11.403   0.087  1.1354  0.4395 -1.1932
  960MOL0     H32413   4.554  11.394  -0.090  1.5328 -1.9785 -0.7383
  960MOL0     H32414   4.374  11.373  -0.129 -0.0419 -0.1300  1.1345
  960MOL0     H32415   4.465  11.215  -0.326  0.2051  0.1973 -1.7338
  960MOL0     H32416   4.481  11.386  -0.336 -2.5720  2.6038  3.9865
  960MOL0     H32417   4.724  11.289  -0.195  0.9359 -1.6153  0.7098
  960MOL0     H32418   4.681  11.157  -0.284  0.1344 -0.2141 -0.0553
  960MOL0     H32419   4.696  11.280  -0.507  3.6094  1.5081 -0.9283
  960MOL0     H32420   4.718  11.421  -0.425  0.2858  0.0476 -1.8662
  960MOL0     H32421   4.928  11.365  -0.324 -0.8620  1.5532 -0.4036
  960MOL0     H32422   4.927  11.314  -0.488  2.7436  0.0003  0.2179
  960MOL0     H32423   4.860  11.090  -0.293  0.8201  0.1699  1.1125
  960MOL0     H32424   4.911  11.104  -0.468  1.5952  0.7582 -0.6211
  960MOL0     H32425   5.117  11.202  -0.393  1.3703  0.8593  0.8806
  960MOL0     H32426   5.103  11.033  -0.352  0.1498 -0.4177  1.7718
  960MOL0     H32427   5.058  11.269  -0.158 -2.2356 -2.3253  6.4892
  960MOL0     H32428   5.028  11.098  -0.117  0.5811 -2.0694 -1.0546
  960MOL0     H32429   5.244  10.935  -0.058 -0.3264 -0.2115 -1.6495
  960MOL0     H32430   5.478  10.949   0.073 -0.8961  2.9945  0.3985
  960MOL0     H32431   5.599  11.053   0.015 -0.7656  0.3617  0.6615
  960MOL0     H32432   5.698  10.852  -0.060  1.0905  1.4709  0.8374
  960MOL0     H32433   5.535  10.809  -0.137 -0.0541 -0.8171  2.7531
  960MOL0     H32434   5.559  10.959  -0.294  0.6775 -1.3236 -1.7447
  960MOL0     H32435   5.700  11.051  -0.217  0.7384 -0.1023 -0.0987
  960MOL0     H32436   5.724  10.794  -0.358  0.9315  0.5721 -2.1586
  960MOL0     H32437   5.783  10.959  -0.399 -1.2084 -0.8391  0.7136
  960MOL0     H32438   5.928  11.107  -0.355 -0.4331  0.6018  3.7950
  960MOL0     H32439   6.049  11.253  -0.514  0.4350  1.1609 -1.6956
  960MOL0     H32440   6.206  11.193  -0.562 -1.5259  2.0075 -1.9253
  960MOL0     H32441   6.196  11.306  -0.433  0.6209 -0.3112 -2.3518
  960MOL0     H32442   6.582  10.980  -0.076  1.3968  1.1833 -0.2775
  960MOL0     H32443   6.495  11.025   0.146  0.3567  1.7098 -0.1390
  960MOL0     H32444   6.448  11.345   0.251 -0.3324  1.1006 -3.0976
  960MOL0     H32445   6.277  11.391   0.230  0.4446  1.1153 -0.8256
  960MOL0     H32446   6.224  11.301   0.448  1.0863 -2.3423 -1.3696
  960MOL0     H32447   6.392  11.244   0.464  0.2903  0.8522  1.6439
  960MOL0     H32448   6.374  11.545   0.386  0.5470 -1.0890 -2.6588
  960MOL0     H32449   6.472  11.451   0.497 -0.8319 -0.5656  0.3218
  960MOL0     H32450   6.302  11.468   0.669 -0.0184  1.4001  2.3655
  960MOL0     H32451   6.183  11.513   0.544  1.5490 -1.4294  0.2277
  960MOL0     H32452   6.403  11.677   0.659 -0.3775  1.7989  2.5467
  960MOL0     H32453   6.322  11.716   0.504  4.8194 -1.2855  0.0268
  960MOL0     H32454   6.200  11.670   0.786 -0.9392  1.7820  1.2147
  960MOL0     H32455   6.093  11.703   0.647 -0.1696  2.4358 -0.9344
  960MOL0     H32456   6.230  11.907   0.597 -1.7664  0.2871 -0.0142
  960MOL0     H32457   6.300  11.905   0.752  2.3652 -0.4967 -4.5544
  960MOL0     H32458   6.056  11.907   0.847  2.0654 -4.4402  0.8672
  960MOL0     H32459   5.997  11.865   0.700  1.4876 -3.0834  0.9702
  960MOL0     H32460   6.216  11.305   0.020  0.0368  0.8646  0.9141
  960MOL0     H32461   6.314  11.291  -0.216  5.6723 -1.3780 -3.6558
  960MOL0     H32462   6.331  10.872  -0.207 -0.6385 -0.6973  0.3794
  960MOL0     H32463   6.107  10.788  -0.172  1.9586  1.7897  2.8938
  960MOL0     H32464   4.591  11.043   0.094 -1.3361  2.0915 -4.4319
  960MOL0     H32465   4.579  11.029   0.342  1.1321  0.3238 -0.6843
  960MOL0     H32466   4.570  11.204   0.744 -2.6488  2.8914 -2.2919
  960MOL0     H32467   4.536  11.211   1.004  0.3915  2.5279 -0.8847
  960MOL0     H32468   4.127  11.184   1.145 -2.9422 -1.4355  3.1547
  960MOL0     H32469   4.203  11.028   1.201  2.3972 -0.1651  1.3786
  960MOL0     H32470   4.302  11.173   1.387 -1.4493 -2.1552  3.7494
  960MOL0     H32471   4.119  11.147   1.380 -2.2687  4.1631 -3.2589
  960MOL0     H32472   4.295  11.386   1.324 -1.3155  3.2192 -2.0777
  960MOL0     H32473   4.124  11.387   1.272  1.0705  3.6257  1.6393
  960MOL0     H32474   4.178  11.489   1.495  4.3158  0.0629 -1.4123
  960MOL0     H32475   4.201  11.327   1.562  0.9396  1.3550 -0.4145
  960MOL0     H32476   3.786  11.378   1.551  0.9377 -1.0380  1.9909
  960MOL0     H32477   4.140  11.069   0.964  0.3505 -0.0758  0.1855
  960MOL0     H32478   4.138  10.962   0.676  3.0547 -0.7365  1.4419
  960MOL0     H32479   4.040  11.092   0.758 -0.6322 -1.6720 -0.4222
  960MOL0     H32480   4.126  11.137   0.614 -1.7901  0.7057  0.7323
  961MOL0     O32481   4.730   6.533   3.438 -0.3855 -0.5757  0.3786
  961MOL0     C32482   4.681   6.592   3.346  0.0987 -0.1680 -0.1163
  961MOL0     O32483   4.570   6.538   3.275 -0.1479 -0.2924 -0.7247
  961MOL0     C32484   4.539   6.406   3.247  1.1872 -0.3657 -0.1735
  961MOL0     C32485   4.591   6.291   3.309  0.0052  0.8898 -0.2287
  961MOL0     C32486   4.546   6.168   3.263  0.1948 -0.3569 -0.1796
  961MOL0     C32487   4.451   6.153   3.167 -0.0830 -0.0660  0.5956
  961MOL0     O32488   4.418   6.022   3.136 -0.3567  0.5846  0.2571
  961MOL0     C32489   4.274   5.999   3.122  0.5691  0.7022  0.2385
  961MOL0     C32490   4.254   5.961   2.977  0.0629 -1.1822  0.3379
  961MOL0     C32491   4.100   5.955   2.938  0.3089 -0.2614  0.7710
  961MOL0     C32492   4.035   6.101   2.941 -0.7284  0.9134 -0.9090
  961MOL0     C32493   3.945   6.121   2.824  0.7940  0.8362 -0.5921
  961MOL0     C32494   3.897   6.264   2.805 -0.3911  0.3038 -0.1713
  961MOL0     C32495   3.992   6.344   2.720  0.5171  0.8448 -0.5344
  961MOL0     C32496   3.923   6.484   2.681  0.2591 -0.5705  0.1471
  961MOL0     N32497   3.860   6.471   2.553 -0.5480 -0.5462 -0.4401
  961MOL0     C32498   3.920   6.434   2.435  0.8003 -0.0192 -0.9274
  961MOL0     C32499   3.815   6.444   2.348  0.2651  0.5626 -0.0778
  961MOL0     C32500   3.815   6.406   2.199 -0.1202 -0.6865 -0.5299
  961MOL0     C32501   3.676   6.358   2.150 -0.2422 -0.2064 -0.1079
  961MOL0     C32502   3.681   6.328   2.000 -0.3650  0.1585  0.1549
  961MOL0     C32503   3.562   6.238   1.951 -0.1305 -0.2062  0.2051
  961MOL0     O32504   3.605   6.193   1.819 -0.7329  0.0507 -1.1361
  961MOL0     C32505   3.507   6.102   1.782 -0.2789 -0.7817  0.1846
  961MOL0     C32506   3.393   6.038   1.844 -0.5132  0.5800 -0.3940
  961MOL0     C32507   3.313   5.943   1.785 -0.4255  0.4940  0.1717
  961MOL0     C32508   3.189   5.893   1.853  0.6371  0.7457 -0.3683
  961MOL0     C32509   3.350   5.899   1.653  0.4221 -1.0964 -0.4532
  961MOL0     C32510   3.272   5.787   1.593 -0.6828  0.3139 -0.5991
  961MOL0     O32511   3.252   5.792   1.466 -0.3895 -0.1911  0.0749
  961MOL0     C32512   3.232   5.674   1.400 -0.6263 -0.0456  0.3853
  961MOL0     C32513   3.340   5.601   1.347 -0.3977  0.3637 -0.3847
  961MOL0     C32514   3.329   5.486   1.266  0.4833 -0.4044  0.5900
  961MOL0     C32515   3.202   5.436   1.242  0.0295  0.3903  0.1142
  961MOL0     O32516   3.196   5.334   1.147  0.6109  0.0237  0.1275
  961MOL0     C32517   3.161   5.371   1.015 -0.3156 -1.3389 -0.1396
  961MOL0     C32518   3.021   5.316   0.967 -0.1857  0.0283 -0.3406
  961MOL0     C32519   2.898   5.339   1.052 -0.2935 -0.3325 -0.2177
  961MOL0     C32520   2.768   5.321   0.980  0.0248 -0.5461 -0.0280
  961MOL0     C32521   2.642   5.279   1.064 -0.7245 -0.1338  0.0401
  961MOL0     C32522   2.603   5.371   1.180  0.1857 -0.0263 -1.1505
  961MOL0     C32523   2.575   5.514   1.113  0.7912 -0.3546 -0.4847
  961MOL0     C32524   2.531   5.607   1.221  0.6122 -1.1487  1.1408
  961MOL0    Cl32525   2.384   5.699   1.182 -0.3517 -0.0437  0.3250
  961MOL0     C32526   3.090   5.497   1.301  1.2615  0.6540  0.1743
  961MOL0     C32527   3.107   5.611   1.388  0.1520  0.1628 -0.5955
  961MOL0     O32528   3.234   5.694   1.669  0.4277 -0.5032 -0.3612
  961MOL0     C32529   3.453   5.967   1.583 -1.2950  0.5050 -0.0712
  961MOL0     C32530   3.537   6.055   1.654 -0.9532  0.3104  0.3866
  961MOL0     N32531   3.695   6.468   2.421 -0.6448 -0.5114 -0.8082
  961MOL0     N32532   3.722   6.481   2.546 -0.0335 -0.4198  0.0709
  961MOL0     C32533   4.398   6.266   3.110  0.0459 -0.3915  0.0975
  961MOL0     C32534   4.449   6.390   3.145  0.1819 -0.0854  0.4815
  961MOL0     C32535   4.707   6.737   3.345  0.9548 -0.4646  0.5457
  961MOL0     C32536   4.604   6.833   3.352 -0.7335  0.1397  0.3123
  961MOL0     C32537   4.625   6.976   3.361  0.0647  0.4939 -0.5113
  961MOL0     C32538   4.757   7.014   3.372  0.4533  0.1626  0.2412
  961MOL0     O32539   4.786   7.143   3.395 -0.1030  0.5234 -0.1614
  961MOL0     C32540   4.713   7.208   3.492  0.0261 -1.2374 -0.1323
  961MOL0     C32541   4.775   7.322   3.562 -0.3238  0.2917 -0.2228
  961MOL0     C32542   4.824   7.421   3.456  0.7844  0.8095  0.6567
  961MOL0     C32543   4.863   7.557   3.500  0.6845  0.1015 -0.5172
  961MOL0     C32544   4.754   7.649   3.536  0.5095 -1.1053  0.0140
  961MOL0     C32545   4.655   7.715   3.576 -0.2308 -0.2993  0.2321
  961MOL0     C32546   4.861   6.918   3.370  1.0113  0.1712  0.0392
  961MOL0     C32547   4.839   6.782   3.343  0.3819  0.4350  0.1720
  961MOL0     C32548   4.949   6.685   3.315  0.0797  0.1576 -0.1522
  961MOL0     H32549   4.675   6.280   3.377  2.0961  0.4601 -2.7205
  961MOL0     H32550   4.592   6.079   3.306  5.0503  2.0312  0.3655
  961MOL0     H32551   4.218   6.083   3.162  2.8140  1.6502  1.6398
  961MOL0     H32552   4.243   5.911   3.181 -0.1140  0.2758 -0.7369
  961MOL0     H32553   4.297   6.048   2.926  2.2879 -0.6793  2.8264
  961MOL0     H32554   4.312   5.873   2.950  1.1945  0.0652 -1.5054
  961MOL0     H32555   4.081   5.903   2.844 -0.7065  0.9668  0.2600
  961MOL0     H32556   4.063   5.882   3.010  0.6306 -3.0218 -1.6998
  961MOL0     H32557   3.970   6.096   3.029  2.4846 -3.1683  1.6188
  961MOL0     H32558   4.115   6.176   2.944  0.6669 -0.5238  1.0273
  961MOL0     H32559   3.862   6.049   2.824  1.8311 -0.6480 -4.3819
  961MOL0     H32560   3.989   6.084   2.731 -3.9097  1.0614 -3.2475
  961MOL0     H32561   3.805   6.256   2.745 -0.6153  2.5985 -0.2370
  961MOL0     H32562   3.875   6.322   2.895  1.7685 -1.2516  1.4463
  961MOL0     H32563   4.004   6.280   2.632  3.2204 -0.7858  0.8699
  961MOL0     H32564   4.089   6.348   2.772  1.3884 -0.5188 -1.9527
  961MOL0     H32565   3.859   6.523   2.761  0.9451 -1.7199  1.2925
  961MOL0     H32566   4.000   6.561   2.669 -1.8561  1.5191 -0.7172
  961MOL0     H32567   4.018   6.395   2.409  0.4025 -1.0373 -0.9259
  961MOL0     H32568   3.899   6.341   2.173  1.5709  1.6398 -1.1996
  961MOL0     H32569   3.834   6.498   2.143 -0.7440 -0.2211  0.0139
  961MOL0     H32570   3.641   6.272   2.209  0.2739  1.1859  2.3289
  961MOL0     H32571   3.607   6.439   2.175 -3.0708 -2.6584  0.7081
  961MOL0     H32572   3.695   6.411   1.930 -0.5488  0.9534  1.0497
  961MOL0     H32573   3.777   6.279   1.980  0.1483  1.8894 -2.1860
  961MOL0     H32574   3.549   6.155   2.021  0.4179 -0.7026 -0.2667
  961MOL0     H32575   3.470   6.296   1.942 -1.0713 -1.4082  1.6990
  961MOL0     H32576   3.364   6.071   1.943 -3.9242 -0.6064 -0.8809
  961MOL0     H32577   3.187   5.942   1.951  4.3843  1.1364 -0.3317
  961MOL0     H32578   3.199   5.787   1.877  1.7647  0.9006 -0.1114
  961MOL0     H32579   3.103   5.909   1.787  1.5322 -0.7657 -1.9656
  961MOL0     H32580   3.435   5.646   1.374 -1.0974  0.6294  1.8557
  961MOL0     H32581   3.418   5.451   1.215  2.0873  3.7202  0.1060
  961MOL0     H32582   3.158   5.480   1.007 -0.9029 -1.1242  2.2269
  961MOL0     H32583   3.240   5.326   0.954 -1.0812 -1.3434 -1.1622
  961MOL0     H32584   3.013   5.355   0.865  1.5939  0.6328 -0.2723
  961MOL0     H32585   3.043   5.208   0.962  1.3227  0.3083 -0.3251
  961MOL0     H32586   2.901   5.441   1.090  0.7040 -1.8656  4.4400
  961MOL0     H32587   2.909   5.272   1.138  0.8456  1.4644  1.1149
  961MOL0     H32588   2.773   5.242   0.905 -0.1556 -3.4017  2.7257
  961MOL0     H32589   2.741   5.411   0.926  0.9996  0.5654  1.2686
  961MOL0     H32590   2.557   5.271   0.996 -0.4937  2.3076 -0.6289
  961MOL0     H32591   2.661   5.181   1.109 -1.0268  0.1686  0.8619
  961MOL0     H32592   2.684   5.404   1.247 -2.3664  2.5479  0.9361
  961MOL0     H32593   2.522   5.332   1.242  0.6877  2.4429  1.2519
  961MOL0     H32594   2.499   5.495   1.037  0.3813 -1.1734  0.1245
  961MOL0     H32595   2.667   5.549   1.064  0.3806  0.1617 -0.9061
  961MOL0     H32596   2.620   5.668   1.244  0.9447 -2.0099  2.2571
  961MOL0     H32597   2.504   5.552   1.312 -3.3786  0.9299  1.4157
  961MOL0     H32598   2.998   5.440   1.290  1.1382  1.1731 -1.7799
  961MOL0     H32599   3.030   5.648   1.456  2.6042 -2.5123  4.1286
  961MOL0     H32600   3.482   5.937   1.483  1.3214 -0.7764  0.9708
  961MOL0     H32601   3.634   6.078   1.612 -1.0370  0.4033  0.2415
  961MOL0     H32602   4.335   6.262   3.022 -0.1548 -0.9928  0.2627
  961MOL0     H32603   4.420   6.479   3.088 -0.1114 -0.2330  0.3981
  961MOL0     H32604   4.503   6.795   3.369 -0.7880  1.1928  2.6925
  961MOL0     H32605   4.544   7.047   3.374 -1.3845 -0.6778 -2.6519
  961MOL0     H32606   4.618   7.240   3.448 -0.2522 -0.1551  1.1646
  961MOL0     H32607   4.675   7.147   3.574 -1.7349 -1.1585 -0.8343
  961MOL0     H32608   4.856   7.279   3.622 -1.0069  1.2762  1.4944
  961MOL0     H32609   4.716   7.377   3.636  2.5170  0.5179  2.0716
  961MOL0     H32610   4.904   7.365   3.407 -1.2680  0.7304 -2.9445
  961MOL0     H32611   4.745   7.426   3.380  1.3292 -1.8134 -0.1660
  961MOL0     H32612   4.915   7.603   3.415  2.5726  0.7212  0.8863
  961MOL0     H32613   4.930   7.546   3.586 -2.1145 -0.1936  1.7669
  961MOL0     H32614   4.568   7.768   3.610 -2.0428 -1.6738 -1.9311
  961MOL0     H32615   4.960   6.959   3.386  0.6565  0.2552  2.3241
  961MOL0     H32616   4.974   6.641   3.412  2.1217 -0.5468 -0.9446
  961MOL0     H32617   4.913   6.607   3.247  0.9986 -1.4276  1.0790
  961MOL0     H32618   5.042   6.720   3.270 -1.5253  0.7800 -3.2439
  962MOL0     O32619  11.364   4.026   3.859  0.1739 -0.1650 -0.0271
  962MOL0     C32620  11.261   3.965   3.837 -0.5564  0.0016 -0.5058
  962MOL0     O32621  11.137   3.996   3.893  0.7104 -0.1807 -0.2452
  962MOL0     C32622  11.128   4.069   4.008  0.5163 -0.2526  0.1068
  962MOL0     C32623  11.045   4.027   4.112  0.0912 -0.2167 -0.8788
  962MOL0     C32624  11.031   4.117   4.221  0.8991  0.2472  0.6243
  962MOL0     C32625  11.080   4.248   4.229 -0.3864  0.4009 -0.0079
  962MOL0     O32626  11.058   4.342   4.326 -0.5331 -0.0929  0.1609
  962MOL0     C32627  11.018   4.288   4.459  0.6470  0.3169 -0.0132
  962MOL0     C32628  10.872   4.277   4.478 -0.2833  0.8474 -0.1464
  962MOL0     C32629  10.820   4.409   4.521 -0.8906  0.8663 -0.9348
  962MOL0     C32630  10.669   4.395   4.502 -0.3412  0.3524 -0.6220
  962MOL0     C32631  10.604   4.515   4.560  0.6978 -1.3166 -0.8246
  962MOL0     C32632  10.651   4.651   4.521 -1.1049  0.9230 -0.8585
  962MOL0     C32633  10.570   4.757   4.603  0.3749 -0.2265 -0.3154
  962MOL0     C32634  10.610   4.903   4.583 -0.1503  1.1355 -0.0254
  962MOL0     N32635  10.544   4.996   4.681 -0.3064 -0.3000 -0.7865
  962MOL0     C32636  10.407   5.005   4.685 -0.7313  0.1743 -0.3344
  962MOL0     C32637  10.393   5.102   4.788 -0.8435 -0.0386  0.1684
  962MOL0     C32638  10.256   5.148   4.840 -0.4478  0.4425 -0.0225
  962MOL0     C32639  10.152   5.040   4.877 -1.0233  0.1362 -0.3678
  962MOL0     C32640  10.021   5.111   4.899  0.6583 -0.1240  0.1260
  962MOL0     C32641   9.900   5.014   4.923 -0.7333 -1.0143 -0.6212
  962MOL0     O32642   9.900   4.975   5.062  0.5752 -0.7445 -1.0934
  962MOL0     C32643   9.798   5.036   5.129  0.0104  0.6336 -0.1728
  962MOL0     C32644   9.668   5.000   5.109  0.4165 -1.0561 -0.0249
  962MOL0     C32645   9.560   5.059   5.190  0.4680 -0.0838 -0.1402
  962MOL0     C32646   9.415   5.017   5.151 -0.4942 -0.7481 -0.4504
  962MOL0     C32647   9.583   5.159   5.286  0.0609 -0.4265 -0.2160
  962MOL0     C32648   9.485   5.220   5.389 -0.0226  0.2656  0.5124
  962MOL0     O32649   9.539   5.299   5.488 -0.6585  0.5569 -0.1107
  962MOL0     C32650   9.462   5.356   5.578 -0.4805 -0.4766 -0.7957
  962MOL0     C32651   9.354   5.440   5.542  0.6325 -0.1846  0.2996
  962MOL0     C32652   9.268   5.500   5.631  0.4228 -0.7067 -0.4873
  962MOL0     C32653   9.278   5.475   5.770  0.2651 -0.7746  0.2601
  962MOL0     O32654   9.191   5.523   5.860 -0.7183 -0.2489 -0.0172
  962MOL0     C32655   9.085   5.592   5.808 -0.2658 -0.7406  0.2665
  962MOL0     C32656   8.996   5.637   5.927  0.1273 -0.0477  0.2694
  962MOL0     C32657   8.862   5.707   5.884 -1.3620  1.0617 -0.4774
  962MOL0     C32658   8.799   5.790   6.003 -0.4147  0.2195 -0.3865
  962MOL0     C32659   8.851   5.937   6.016  0.8117  0.3826  0.5920
  962MOL0     C32660   8.764   6.018   6.126 -0.1472 -0.0518 -0.1407
  962MOL0     C32661   8.615   6.046   6.088 -0.2098  0.1005 -0.9979
  962MOL0     C32662   8.552   6.133   6.199 -0.5994  0.2100  0.7928
  962MOL0    Cl32663   8.407   6.211   6.152  0.3525 -0.5388 -0.5149
  962MOL0     C32664   9.387   5.400   5.815  0.3692 -0.8510  0.2561
  962MOL0     C32665   9.482   5.349   5.720 -0.0739  0.0882 -0.2908
  962MOL0     O32666   9.369   5.213   5.369  0.9684 -0.7960  0.2006
  962MOL0     C32667   9.722   5.196   5.296 -0.6771  0.0197  0.8804
  962MOL0     C32668   9.828   5.132   5.228  0.4502  0.8154  0.1644
  962MOL0     N32669  10.510   5.131   4.851 -1.3842  0.4413 -0.3127
  962MOL0     N32670  10.607   5.073   4.785 -0.2156  0.0647  1.0431
  962MOL0     C32671  11.142   4.297   4.115  0.2217 -0.2040 -0.0671
  962MOL0     C32672  11.173   4.204   4.007  0.5052 -0.2006 -0.2235
  962MOL0     C32673  11.287   3.857   3.728  0.0484  0.7091  0.2940
  962MOL0     C32674  11.189   3.828   3.629  0.8768 -0.5335 -0.9915
  962MOL0     C32675  11.192   3.716   3.543 -0.0290  0.5718 -0.1127
  962MOL0     C32676  11.287   3.620   3.566 -0.0769  0.2029 -1.0423
  962MOL0     O32677  11.288   3.496   3.511 -0.1461  0.2203 -0.3378
  962MOL0     C32678  11.174   3.430   3.451 -0.2158  0.1338 -0.0294
  962MOL0     C32679  11.228   3.312   3.367 -0.3805 -0.0230 -0.7941
  962MOL0     C32680  11.305   3.211   3.448 -0.1312 -0.0121  0.5301
  962MOL0     C32681  11.422   3.135   3.376 -0.1384 -1.3468  0.6794
  962MOL0     C32682  11.489   3.060   3.483  1.1109 -0.3458  0.2859
  962MOL0     C32683  11.530   2.969   3.553  0.1779 -0.1149  0.4111
  962MOL0     C32684  11.388   3.645   3.657 -0.3046  0.5053  0.0847
  962MOL0     C32685  11.394   3.760   3.739 -0.2159  0.3366 -0.3759
  962MOL0     C32686  11.498   3.773   3.848 -0.1511  0.0065  0.1074
  962MOL0     H32687  10.992   3.933   4.110  0.7830 -0.6110 -2.1537
  962MOL0     H32688  10.971   4.087   4.306 -0.3871 -0.7529 -0.5896
  962MOL0     H32689  11.057   4.351   4.539 -1.9676  1.3384  0.5855
  962MOL0     H32690  11.055   4.187   4.476  1.9842  1.1796  2.7773
  962MOL0     H32691  10.829   4.256   4.379  1.4761  1.5640 -1.0995
  962MOL0     H32692  10.867   4.195   4.550  0.9761  0.0090 -0.9649
  962MOL0     H32693  10.843   4.437   4.625  0.9798  0.4785 -1.2066
  962MOL0     H32694  10.857   4.491   4.459 -2.6259  2.8319  0.5006
  962MOL0     H32695  10.638   4.369   4.401 -6.4824 -0.5491  1.0818
  962MOL0     H32696  10.640   4.308   4.563  1.4971  1.0801  1.4466
  962MOL0     H32697  10.601   4.510   4.669 -0.7958  1.7338 -0.6283
  962MOL0     H32698  10.497   4.509   4.537  0.7466 -2.0140 -0.8807
  962MOL0     H32699  10.754   4.658   4.556 -1.4306 -0.0324  0.3852
  962MOL0     H32700  10.647   4.673   4.414  0.1275  0.5011 -1.0082
  962MOL0     H32701  10.558   4.730   4.708 -3.8454  1.9499 -0.0380
  962MOL0     H32702  10.465   4.747   4.573 -1.2627 -1.1841  4.7703
  962MOL0     H32703  10.717   4.902   4.608  0.2012  1.4301 -1.4502
  962MOL0     H32704  10.610   4.944   4.482 -0.9345  3.7316  0.9487
  962MOL0     H32705  10.338   4.935   4.638 -2.2687  1.0918  0.4758
  962MOL0     H32706  10.214   5.205   4.757 -2.6135 -1.3000 -0.2143
  962MOL0     H32707  10.285   5.206   4.928  4.3618 -0.5791 -0.6710
  962MOL0     H32708  10.143   4.981   4.785 -2.2186  1.1840 -0.9633
  962MOL0     H32709  10.191   4.981   4.960  1.7599 -0.1618 -1.7781
  962MOL0     H32710  10.032   5.184   4.980  2.9009  3.1375 -2.7993
  962MOL0     H32711  10.005   5.163   4.805  0.7028  1.1435  0.7922
  962MOL0     H32712   9.805   5.060   4.896 -1.2159 -0.7363  1.3884
  962MOL0     H32713   9.910   4.920   4.867 -0.1606 -0.9056 -0.7045
  962MOL0     H32714   9.630   4.933   5.033 -1.1803  2.2247 -2.4080
  962MOL0     H32715   9.404   4.909   5.139 -1.0186 -0.8810  1.0762
  962MOL0     H32716   9.378   5.076   5.066  1.4519 -3.3102 -3.2710
  962MOL0     H32717   9.347   5.025   5.235  1.5754  0.0522  1.2475
  962MOL0     H32718   9.346   5.474   5.439 -0.9717  2.2731  1.1374
  962MOL0     H32719   9.193   5.564   5.587  0.2552 -0.3783  0.2549
  962MOL0     H32720   9.125   5.689   5.778  0.7399  0.3220  4.4084
  962MOL0     H32721   9.033   5.538   5.729 -0.8412 -2.2976  1.6533
  962MOL0     H32722   8.981   5.547   5.988 -2.7055  0.3823  0.3469
  962MOL0     H32723   9.051   5.714   5.981  1.5249 -1.0818  0.3758
  962MOL0     H32724   8.802   5.625   5.844 -1.5950 -0.2719  2.3702
  962MOL0     H32725   8.879   5.786   5.810 -2.0481  1.6914  0.0239
  962MOL0     H32726   8.809   5.728   6.093 -1.6299  0.2124 -0.2303
  962MOL0     H32727   8.691   5.791   5.985 -0.1699 -1.3213 -2.3273
  962MOL0     H32728   8.959   5.935   6.032  0.6571 -0.5241  1.6338
  962MOL0     H32729   8.844   5.994   5.923 -0.0927 -0.1656  0.3127
  962MOL0     H32730   8.817   6.113   6.141  0.0277  0.0548 -1.3018
  962MOL0     H32731   8.777   5.960   6.218  1.1505 -0.0155 -0.2723
  962MOL0     H32732   8.568   5.949   6.069  0.4287 -0.2275 -0.9562
  962MOL0     H32733   8.603   6.097   5.992  3.8981  0.7307 -1.3486
  962MOL0     H32734   8.626   6.213   6.207 -0.6960  0.4736 -0.7195
  962MOL0     H32735   8.538   6.076   6.291  1.5509 -2.6880 -0.5193
  962MOL0     H32736   9.404   5.373   5.919  2.0161  0.3453  0.3329
  962MOL0     H32737   9.554   5.277   5.757 -1.3319  0.3326  2.9030
  962MOL0     H32738   9.745   5.262   5.379  1.9545 -1.1979  1.2255
  962MOL0     H32739   9.923   5.173   5.262 -0.2498  1.2467  1.6628
  962MOL0     H32740  11.165   4.403   4.109  0.2261 -0.1287  1.1306
  962MOL0     H32741  11.215   4.248   3.917 -3.7015  0.4375 -2.1219
  962MOL0     H32742  11.112   3.902   3.607 -0.2507 -1.4698 -0.3527
  962MOL0     H32743  11.126   3.689   3.461  2.9138 -3.4647 -1.5337
  962MOL0     H32744  11.113   3.396   3.535  1.8496  1.3057  2.0654
  962MOL0     H32745  11.121   3.500   3.385 -1.1675  1.9647  2.5039
  962MOL0     H32746  11.288   3.344   3.281  0.2669 -1.3375 -0.8604
  962MOL0     H32747  11.139   3.281   3.312 -2.3651  2.5987  0.7473
  962MOL0     H32748  11.361   3.266   3.524  1.7084 -1.3510  0.2305
  962MOL0     H32749  11.243   3.136   3.499  0.6506 -0.7526  0.4240
  962MOL0     H32750  11.496   3.209   3.346 -1.2758 -1.0078 -1.5144
  962MOL0     H32751  11.406   3.063   3.295 -0.2513 -0.5415 -0.0335
  962MOL0     H32752  11.554   2.875   3.599 -0.0021  0.1973  1.1588
  962MOL0     H32753  11.468   3.576   3.682 -0.6608 -0.1906 -0.6662
  962MOL0     H32754  11.557   3.865   3.840  0.0048  0.0187  1.2391
  962MOL0     H32755  11.451   3.762   3.946 -2.1022  4.0640 -0.1758
  962MOL0     H32756  11.560   3.683   3.840  0.0948  0.3018 -1.7262
  963MOL0     O32757   7.609   5.462   5.268 -0.3515 -0.2541  0.1739
  963MOL0     C32758   7.615   5.414   5.381 -0.0093 -0.9796  0.6481
  963MOL0     O32759   7.719   5.426   5.468  0.2361  0.1646  0.0112
  963MOL0     C32760   7.704   5.372   5.597  0.4105 -0.9924 -0.8976
  963MOL0     C32761   7.710   5.235   5.609 -0.1465  0.0115 -0.4498
  963MOL0     C32762   7.723   5.178   5.731 -0.6910 -0.7711  0.4903
  963MOL0     C32763   7.723   5.262   5.845  0.0168 -0.3761 -0.3877
  963MOL0     O32764   7.723   5.194   5.958  0.0189 -0.6976 -0.2463
  963MOL0     C32765   7.634   5.242   6.060  0.6407 -0.1153 -0.0302
  963MOL0     C32766   7.643   5.164   6.189 -0.3007  0.2490 -0.0466
  963MOL0     C32767   7.539   5.214   6.301  0.3368  0.0454  0.5980
  963MOL0     C32768   7.593   5.169   6.438  0.1841  0.5651  0.2213
  963MOL0     C32769   7.516   5.239   6.544 -0.8709 -0.6580 -0.4295
  963MOL0     C32770   7.359   5.218   6.552 -0.3145  0.2337 -0.9015
  963MOL0     C32771   7.300   5.242   6.692  1.0875 -1.2173  0.0122
  963MOL0     C32772   7.153   5.205   6.711  0.3515  0.6404  1.2577
  963MOL0     N32773   7.128   5.058   6.698 -1.0215 -0.9042  0.9534
  963MOL0     C32774   7.101   4.986   6.580  0.2520 -1.0292 -0.7162
  963MOL0     C32775   7.088   4.857   6.616  0.5219  0.4617  0.0316
  963MOL0     C32776   7.052   4.732   6.541  0.1993 -0.0456 -0.3958
  963MOL0     C32777   7.170   4.686   6.447  0.1715  0.6539 -0.1713
  963MOL0     C32778   7.311   4.664   6.502  0.7933 -0.6951 -0.4492
  963MOL0     C32779   7.417   4.626   6.398 -0.3815 -0.7060 -0.3821
  963MOL0     O32780   7.386   4.495   6.353  0.3408 -0.1632  0.1097
  963MOL0     C32781   7.353   4.472   6.224 -0.2207  0.5750  0.4744
  963MOL0     C32782   7.252   4.377   6.204 -0.0817  0.2561 -0.8111
  963MOL0     C32783   7.191   4.350   6.081 -0.5189 -0.2645 -0.7780
  963MOL0     C32784   7.077   4.250   6.082 -0.8078 -0.0598  0.3654
  963MOL0     C32785   7.228   4.432   5.971 -0.2696 -0.7294 -1.2519
  963MOL0     C32786   7.182   4.402   5.831 -0.1279 -0.2418  0.2240
  963MOL0     O32787   7.083   4.315   5.817 -0.4939  0.1620 -0.8954
  963MOL0     C32788   7.093   4.240   5.706  0.3955  0.1051  0.0181
  963MOL0     C32789   7.197   4.150   5.687 -0.5025 -0.0068 -0.2938
  963MOL0     C32790   7.219   4.084   5.571  0.2367  0.3615 -0.3627
  963MOL0     C32791   7.122   4.111   5.463 -0.4425  0.4580  0.4869
  963MOL0     O32792   7.115   4.025   5.351 -0.2693 -0.1166  0.8256
  963MOL0     C32793   7.230   4.051   5.271 -0.3525 -0.4245  0.1531
  963MOL0     C32794   7.215   4.005   5.126 -0.6386 -0.3457  0.0810
  963MOL0     C32795   7.111   4.086   5.050  0.3262 -0.2300 -0.0686
  963MOL0     C32796   7.031   3.992   4.961 -0.7280 -0.5422 -0.0574
  963MOL0     C32797   6.949   3.886   5.024 -0.2013  0.4593 -0.4654
  963MOL0     C32798   6.842   3.826   4.933 -1.0408 -0.3873  0.2227
  963MOL0     C32799   6.905   3.744   4.831  0.0768 -0.0487  0.8012
  963MOL0     C32800   6.803   3.711   4.724 -0.4418  0.9216 -0.1016
  963MOL0    Cl32801   6.890   3.627   4.595  0.3216  0.3948 -0.0431
  963MOL0     C32802   7.018   4.188   5.486  1.1172  0.1905 -0.0991
  963MOL0     C32803   7.004   4.262   5.606  0.2665 -0.2816  0.5777
  963MOL0     O32804   7.250   4.449   5.743  0.8783  0.0395  0.0819
  963MOL0     C32805   7.346   4.515   5.990  0.3868  0.0948  0.6850
  963MOL0     C32806   7.401   4.536   6.110 -0.8700 -0.3797  0.5840
  963MOL0     N32807   7.105   4.851   6.751  0.4551 -0.1573  0.5256
  963MOL0     N32808   7.130   4.971   6.795  0.0450  1.0183  0.6464
  963MOL0     C32809   7.704   5.407   5.831 -0.2629  0.3613 -0.3732
  963MOL0     C32810   7.703   5.457   5.712  0.4399 -0.3309  1.0051
  963MOL0     C32811   7.500   5.329   5.400 -0.0184  0.0636 -0.1634
  963MOL0     C32812   7.483   5.208   5.329 -1.0684  0.1146  0.0438
  963MOL0     C32813   7.371   5.124   5.340  0.1403  0.3469 -0.0902
  963MOL0     C32814   7.264   5.154   5.423  0.1667 -1.0525 -0.2418
  963MOL0     O32815   7.146   5.092   5.444 -0.1828  0.1668 -0.7398
  963MOL0     C32816   7.096   4.990   5.359  0.6017 -0.3822  0.5961
  963MOL0     C32817   7.122   4.845   5.413  0.0015 -0.7523 -0.0607
  963MOL0     C32818   7.026   4.795   5.515  0.5190 -0.1518 -0.4438
  963MOL0     C32819   7.054   4.653   5.579  0.6126 -1.2401  0.1752
  963MOL0     C32820   6.956   4.628   5.687  0.3685  0.3466  0.4574
  963MOL0     C32821   6.863   4.616   5.764  0.3211 -0.2960 -0.5197
  963MOL0     C32822   7.285   5.276   5.496  0.3332  0.6342 -0.4989
  963MOL0     C32823   7.395   5.368   5.478  0.2317  0.2687 -0.3026
  963MOL0     C32824   7.397   5.502   5.545  0.0889  0.4722  0.4052
  963MOL0     H32825   7.699   5.177   5.518  0.9424 -1.3571  0.2541
  963MOL0     H32826   7.745   5.073   5.747  2.1013 -0.0992  1.7733
  963MOL0     H32827   7.537   5.223   6.014  0.7531 -1.2597  0.1684
  963MOL0     H32828   7.640   5.348   6.087 -2.9469 -0.4996  3.0307
  963MOL0     H32829   7.641   5.057   6.164  1.9194  0.7703 -2.9152
  963MOL0     H32830   7.744   5.188   6.223 -1.3944 -0.5991  4.4336
  963MOL0     H32831   7.527   5.323   6.301  0.1368  0.0326  1.6002
  963MOL0     H32832   7.442   5.163   6.289 -0.0343  0.7068  0.7197
  963MOL0     H32833   7.567   5.063   6.452  0.4182  0.2391 -1.6115
  963MOL0     H32834   7.700   5.175   6.458 -0.1527  0.0271  2.4303
  963MOL0     H32835   7.546   5.344   6.542 -0.4752 -0.7757 -1.9386
  963MOL0     H32836   7.553   5.191   6.635  0.2539  1.2211  0.1429
  963MOL0     H32837   7.315   5.294   6.487  0.8161 -0.8837 -3.0966
  963MOL0     H32838   7.335   5.123   6.503  2.9728 -0.6794 -0.9540
  963MOL0     H32839   7.298   5.350   6.708  0.1764 -1.1870 -0.2419
  963MOL0     H32840   7.358   5.185   6.765  2.2398 -2.2388 -1.6063
  963MOL0     H32841   7.118   5.241   6.808  2.6788  2.6098  1.4616
  963MOL0     H32842   7.098   5.257   6.632 -0.9207 -2.8177 -0.3111
  963MOL0     H32843   7.070   5.023   6.483  3.2138  0.2203 -1.2933
  963MOL0     H32844   6.958   4.736   6.484  1.9789 -1.2410 -3.7147
  963MOL0     H32845   7.036   4.650   6.612 -0.4627 -1.2789 -1.8898
  963MOL0     H32846   7.135   4.589   6.411 -0.2210 -0.7574  3.5883
  963MOL0     H32847   7.172   4.763   6.370  0.5630  2.0648  1.1901
  963MOL0     H32848   7.321   4.758   6.556 -1.3768  0.7908 -2.4305
  963MOL0     H32849   7.303   4.582   6.574  0.0398 -0.7574 -0.5983
  963MOL0     H32850   7.434   4.706   6.324  0.9076 -3.5853 -3.4458
  963MOL0     H32851   7.511   4.630   6.452 -1.0835 -0.2193  0.8366
  963MOL0     H32852   7.220   4.331   6.297  0.2124  0.5262 -0.5720
  963MOL0     H32853   7.091   4.180   5.999 -2.7666  1.6175 -1.4995
  963MOL0     H32854   6.978   4.292   6.062  1.0263  4.2616 -0.7579
  963MOL0     H32855   7.087   4.185   6.169 -1.3665 -0.5316  0.0800
  963MOL0     H32856   7.274   4.137   5.762 -1.9201 -1.5770  1.0052
  963MOL0     H32857   7.300   4.012   5.559  1.5455  1.4843  1.2271
  963MOL0     H32858   7.256   4.157   5.268  0.9419 -0.7562 -1.9733
  963MOL0     H32859   7.306   3.983   5.310 -1.6398 -0.6710  2.4461
  963MOL0     H32860   7.312   4.011   5.077  0.5738 -0.8221  2.2908
  963MOL0     H32861   7.194   3.897   5.126 -3.2920  0.0743 -1.2610
  963MOL0     H32862   7.153   4.178   5.008  0.6267 -1.4764 -2.7179
  963MOL0     H32863   7.043   4.113   5.131  0.8635 -0.3467  0.4321
  963MOL0     H32864   7.110   3.943   4.903  0.0013  1.6991 -1.0317
  963MOL0     H32865   6.966   4.054   4.899  2.4684  2.5700 -0.5741
  963MOL0     H32866   7.012   3.811   5.073 -1.2421 -0.2247 -0.1428
  963MOL0     H32867   6.899   3.935   5.108  0.6199  1.6363 -0.6516
  963MOL0     H32868   6.782   3.910   4.898  1.7145  1.1064 -1.2457
  963MOL0     H32869   6.767   3.772   4.992 -2.0111 -2.0157 -2.3287
  963MOL0     H32870   6.945   3.650   4.869  2.0508 -1.6149 -4.2661
  963MOL0     H32871   6.991   3.789   4.781 -1.1014  2.7636  1.0910
  963MOL0     H32872   6.772   3.809   4.687  1.9120  1.9945  0.6113
  963MOL0     H32873   6.713   3.668   4.769 -1.5546  1.8005 -1.4157
  963MOL0     H32874   6.939   4.193   5.412  2.3972 -0.0577 -1.5232
  963MOL0     H32875   6.907   4.310   5.618 -1.5514 -2.9075 -2.2802
  963MOL0     H32876   7.381   4.571   5.903 -1.7090 -0.0490 -0.3059
  963MOL0     H32877   7.469   4.619   6.128  0.7194 -1.5085 -0.0100
  963MOL0     H32878   7.714   5.465   5.922 -0.7725  1.1538 -0.8179
  963MOL0     H32879   7.696   5.565   5.715  0.5193 -0.3274  1.0451
  963MOL0     H32880   7.564   5.179   5.264  1.2579  1.2873  2.2404
  963MOL0     H32881   7.361   5.044   5.268 -0.6963  0.7971 -0.4989
  963MOL0     H32882   6.989   5.007   5.354  0.2077 -2.5642  0.6108
  963MOL0     H32883   7.125   4.982   5.254 -2.9509 -1.9182 -0.3810
  963MOL0     H32884   7.221   4.861   5.455  0.6597  2.2776 -2.3964
  963MOL0     H32885   7.139   4.774   5.331 -1.4716 -2.1895  0.8157
  963MOL0     H32886   7.012   4.877   5.587 -0.9953 -0.8612  0.1197
  963MOL0     H32887   6.936   4.781   5.455 -0.3396  0.7104  0.5955
  963MOL0     H32888   7.145   4.671   5.637  0.2616  0.5418  0.2338
  963MOL0     H32889   7.053   4.579   5.498 -1.2501 -0.6387 -0.3904
  963MOL0     H32890   6.789   4.616   5.842 -1.2068  1.7751 -1.8653
  963MOL0     H32891   7.198   5.302   5.556  0.3898 -1.4020  0.5607
  963MOL0     H32892   7.362   5.486   5.647  1.6513  3.3668  1.5245
  963MOL0     H32893   7.494   5.548   5.566 -0.7950  1.8816  1.5899
  963MOL0     H32894   7.337   5.579   5.495  0.2229  1.0261  1.0921
  964MOL0     O32895   4.144   2.869  10.060  0.3480  0.5471 -0.8604
  964MOL0     C32896   4.203   2.841  10.161 -0.6240 -0.3364 -0.5926
  964MOL0     O32897   4.176   2.728  10.238 -0.5815  0.1251 -0.3326
  964MOL0     C32898   4.088   2.628  10.206 -0.1004 -0.0715 -0.9766
  964MOL0     C32899   4.025   2.559  10.308 -1.0466 -0.2690  0.0937
  964MOL0     C32900   3.934   2.460  10.284  0.3395  0.3044 -0.1517
  964MOL0     C32901   3.911   2.419  10.151  0.7608 -0.6349  0.9762
  964MOL0     O32902   3.811   2.329  10.134 -1.0739  1.4001  0.0564
  964MOL0     C32903   3.760   2.293   9.999  0.4540 -0.0410 -1.3562
  964MOL0     C32904   3.678   2.161  10.022 -0.4687 -0.0101  0.2422
  964MOL0     C32905   3.593   2.127   9.897 -0.0135 -0.7015  0.2916
  964MOL0     C32906   3.507   2.008   9.925 -0.0783  0.1513 -0.2803
  964MOL0     C32907   3.379   1.995   9.842 -0.1310 -0.3201  0.0053
  964MOL0     C32908   3.253   1.975   9.932  0.4572 -0.8063 -0.2690
  964MOL0     C32909   3.127   1.956   9.848  0.1679 -0.3290  0.8009
  964MOL0     C32910   3.013   1.939   9.941  0.6792  0.2098  0.0263
  964MOL0     N32911   2.878   1.930   9.881 -0.8810  0.5291 -1.0964
  964MOL0     C32912   2.834   1.995   9.766 -0.3314  0.3198  0.0509
  964MOL0     C32913   2.713   1.946   9.741 -0.1685  0.1897 -0.5424
  964MOL0     C32914   2.627   1.995   9.627  0.2628  0.2809  0.0693
  964MOL0     C32915   2.628   1.872   9.527  0.1700 -0.3220 -1.0808
  964MOL0     C32916   2.491   1.811   9.518  0.2376  0.3049  0.1600
  964MOL0     C32917   2.487   1.652   9.523  0.0381 -0.0666  0.4513
  964MOL0     O32918   2.369   1.601   9.570 -0.3751  0.0039 -0.0577
  964MOL0     C32919   2.341   1.603   9.709  0.8605  0.3685  0.0509
  964MOL0     C32920   2.417   1.651   9.823  0.3750  1.1263 -0.0343
  964MOL0     C32921   2.376   1.628   9.955 -0.8087 -0.0054 -0.6200
  964MOL0     C32922   2.447   1.677  10.081 -0.5952 -0.0562  0.2271
  964MOL0     C32923   2.255   1.568   9.984 -0.0356 -0.2514  0.0098
  964MOL0     C32924   2.202   1.564  10.123  0.4130  0.0618 -0.5684
  964MOL0     O32925   2.081   1.632  10.140 -0.9572  0.2087  0.3777
  964MOL0     C32926   2.039   1.665  10.271  0.3716  0.5435  1.0318
  964MOL0     C32927   1.902   1.642  10.291  0.0882  0.0307 -0.5933
  964MOL0     C32928   1.857   1.672  10.422  0.8869  0.2961  0.4756
  964MOL0     C32929   1.941   1.720  10.524  0.9853  0.8554  0.0768
  964MOL0     O32930   1.888   1.752  10.650 -1.0108  0.2653  0.3090
  964MOL0     C32931   1.897   1.894  10.683  1.1218 -0.4250 -0.0264
  964MOL0     C32932   1.815   1.915  10.809 -0.3924 -0.0168 -0.8488
  964MOL0     C32933   1.665   1.883  10.792 -0.0931 -0.7065  0.4351
  964MOL0     C32934   1.608   1.927  10.925  0.7648 -0.0589 -0.1810
  964MOL0     C32935   1.451   1.921  10.925  0.4567  0.0863  0.6749
  964MOL0     C32936   1.393   1.783  10.929  0.1531  0.2686  0.7941
  964MOL0     C32937   1.348   1.762  11.075  0.6289  0.2136 -0.4841
  964MOL0     C32938   1.289   1.618  11.083 -0.0311  1.0835 -0.5512
  964MOL0    Cl32939   1.246   1.595  11.258 -0.2173 -0.6115  0.3796
  964MOL0     C32940   2.078   1.722  10.507 -0.8205  0.3403  0.2930
  964MOL0     C32941   2.135   1.692  10.377 -0.6268 -0.1241 -0.2437
  964MOL0     O32942   2.262   1.500  10.211  0.9206  0.1587  0.1401
  964MOL0     C32943   2.173   1.543   9.867  0.3029  0.0320 -0.2166
  964MOL0     C32944   2.217   1.563   9.739 -0.6148  0.3805  0.2368
  964MOL0     N32945   2.692   1.840   9.824 -0.3502  0.9852  0.6457
  964MOL0     N32946   2.787   1.824   9.907 -0.2555 -0.3407 -0.8665
  964MOL0     C32947   3.981   2.474  10.041  0.1068 -0.4234 -0.1046
  964MOL0     C32948   4.064   2.583  10.072 -1.6291 -0.5633  0.5199
  964MOL0     C32949   4.274   2.940  10.242  0.4172 -0.4779 -0.2685
  964MOL0     C32950   4.243   2.933  10.374 -1.1628 -0.2879  0.5662
  964MOL0     C32951   4.287   3.033  10.459 -0.2141 -0.7576  0.2742
  964MOL0     C32952   4.361   3.142  10.403  0.3583  0.2578 -0.1155
  964MOL0     O32953   4.418   3.233  10.487 -0.9749  0.1451 -0.1309
  964MOL0     C32954   4.471   3.354  10.440 -1.4026 -0.8302  0.7375
  964MOL0     C32955   4.507   3.442  10.555 -0.4067 -0.4950  0.9645
  964MOL0     C32956   4.374   3.489  10.625 -0.1034  0.2928  0.5459
  964MOL0     C32957   4.398   3.617  10.720 -0.6691  0.7102  0.5167
  964MOL0     C32958   4.442   3.738  10.648 -0.5173 -0.0864 -0.5552
  964MOL0     C32959   4.480   3.841  10.598 -0.2993  0.0277  0.6853
  964MOL0     C32960   4.379   3.150  10.267 -0.3795 -0.3482  0.5153
  964MOL0     C32961   4.345   3.047  10.186 -0.1175  0.5246  0.0562
  964MOL0     C32962   4.403   3.050  10.043  0.4040 -0.2821  0.4958
  964MOL0     H32963   4.047   2.591  10.409  1.6159 -3.7534  0.8188
  964MOL0     H32964   3.862   2.428  10.359 -0.2417 -2.2229 -1.6749
  964MOL0     H32965   3.846   2.265   9.937  4.0972  3.5082  1.5655
  964MOL0     H32966   3.701   2.373   9.952  2.5792  1.2265 -2.0339
  964MOL0     H32967   3.737   2.070  10.038 -0.2918  0.3305  1.6421
  964MOL0     H32968   3.615   2.169  10.111  1.0178 -0.3960  1.3706
  964MOL0     H32969   3.523   2.209   9.877 -0.6676 -1.2265  0.3687
  964MOL0     H32970   3.653   2.109   9.807 -3.5737 -1.0634 -2.2445
  964MOL0     H32971   3.556   1.910   9.922 -0.9112 -0.2513 -2.7727
  964MOL0     H32972   3.471   2.012  10.028  1.8000 -0.1185  0.4336
  964MOL0     H32973   3.398   1.910   9.775  1.4715 -3.7493  4.3083
  964MOL0     H32974   3.371   2.089   9.788 -1.9925  0.8612  2.1869
  964MOL0     H32975   3.264   1.885   9.993 -0.1743 -1.0164 -0.4593
  964MOL0     H32976   3.233   2.054  10.005 -2.5579 -1.0202 -0.7403
  964MOL0     H32977   3.141   1.869   9.784 -2.2923 -1.0865  1.1894
  964MOL0     H32978   3.115   2.034   9.772 -1.6419  0.1432  1.5176
  964MOL0     H32979   3.028   1.849  10.001  3.8207 -0.7947 -2.0403
  964MOL0     H32980   3.019   2.021  10.013  2.9596 -0.2736  0.4434
  964MOL0     H32981   2.882   2.082   9.724 -1.1425  0.5460 -0.4341
  964MOL0     H32982   2.671   2.086   9.583  2.0780 -1.4638 -2.0184
  964MOL0     H32983   2.529   2.021   9.667  0.9935 -0.3130  2.3565
  964MOL0     H32984   2.661   1.916   9.433  1.0142  3.4587  0.7853
  964MOL0     H32985   2.708   1.800   9.545  1.4786  1.0867 -1.1475
  964MOL0     H32986   2.429   1.837   9.605  0.7094 -2.3482  1.3930
  964MOL0     H32987   2.444   1.856   9.430  1.6409  3.3305  0.7959
  964MOL0     H32988   2.511   1.615   9.423  0.0040 -0.6859  0.6732
  964MOL0     H32989   2.559   1.614   9.596 -1.1520 -0.1596  1.6241
  964MOL0     H32990   2.519   1.688   9.812 -0.1564  2.0486 -2.5166
  964MOL0     H32991   2.389   1.751  10.137  0.2281  1.4939 -0.8859
  964MOL0     H32992   2.543   1.725  10.055 -0.5485 -0.2810 -0.0244
  964MOL0     H32993   2.481   1.585  10.130  0.7999  0.0391 -0.4996
  964MOL0     H32994   1.841   1.594  10.215 -0.9176  0.9979 -0.4145
  964MOL0     H32995   1.751   1.660  10.444  0.6445  3.3608  1.4398
  964MOL0     H32996   1.996   1.940  10.690  0.1154  1.5823  2.5845
  964MOL0     H32997   1.852   1.950  10.600 -3.2064 -2.4487  0.7093
  964MOL0     H32998   1.854   1.852  10.890 -0.2881  1.7907  0.5575
  964MOL0     H32999   1.821   2.021  10.835 -0.2029  0.2692 -2.0162
  964MOL0     H33000   1.643   1.779  10.768 -0.8124 -0.6587  0.8741
  964MOL0     H33001   1.620   1.942  10.711 -1.0803 -1.5814  0.3317
  964MOL0     H33002   1.632   2.029  10.954  0.5665  0.4469 -1.6959
  964MOL0     H33003   1.639   1.859  11.005 -0.2312 -1.8983 -1.2691
  964MOL0     H33004   1.417   1.977  11.012  0.9370 -1.1552  1.7046
  964MOL0     H33005   1.418   1.965  10.830 -3.6204 -3.8792 -0.1030
  964MOL0     H33006   1.469   1.715  10.890 -0.3981 -0.8049  1.5373
  964MOL0     H33007   1.307   1.769  10.862 -0.3163  0.5558  1.3287
  964MOL0     H33008   1.262   1.827  11.094 -0.2112 -1.5576  2.3313
  964MOL0     H33009   1.436   1.774  11.139  0.6395 -2.8067  0.2121
  964MOL0     H33010   1.364   1.542  11.059  0.3526  1.4300 -0.4616
  964MOL0     H33011   1.205   1.603  11.014 -0.5565  0.4574  0.2082
  964MOL0     H33012   2.138   1.760  10.590 -2.7532  1.9731  1.0205
  964MOL0     H33013   2.242   1.701  10.360 -0.6532  0.1802 -0.2631
  964MOL0     H33014   2.071   1.508   9.884 -0.2114  1.2959 -0.5949
  964MOL0     H33015   2.147   1.553   9.657 -1.7494 -0.9133  1.3079
  964MOL0     H33016   3.959   2.446   9.939  0.8983  2.8854 -1.3154
  964MOL0     H33017   4.125   2.615   9.988  1.6449 -0.0455  2.9091
  964MOL0     H33018   4.189   2.856  10.428 -1.0234 -0.9406 -0.2112
  964MOL0     H33019   4.261   3.034  10.565 -0.4350  0.9886  0.2260
  964MOL0     H33020   4.563   3.340  10.383 -0.1267  1.8601  1.9415
  964MOL0     H33021   4.394   3.394  10.374 -0.4979 -1.3821 -0.6906
  964MOL0     H33022   4.564   3.530  10.524  0.2114 -0.3444  2.4502
  964MOL0     H33023   4.565   3.387  10.629  0.7575 -0.7873 -0.1448
  964MOL0     H33024   4.291   3.507  10.556  1.4950  0.3031 -1.4678
  964MOL0     H33025   4.358   3.398  10.684  1.7001 -2.0146 -2.2473
  964MOL0     H33026   4.475   3.595  10.794 -1.3597 -2.3462  0.4478
  964MOL0     H33027   4.306   3.637  10.776 -1.2010 -0.9227  0.2711
  964MOL0     H33028   4.500   3.935  10.550  0.1237  0.4300  1.6293
  964MOL0     H33029   4.441   3.229  10.227 -1.9270 -0.0118 -1.3866
  964MOL0     H33030   4.427   2.943  10.036 -2.0783 -1.0394  1.8902
  964MOL0     H33031   4.329   3.079   9.968 -0.4144  1.4964  1.9123
  964MOL0     H33032   4.489   3.113  10.021 -0.6044  0.8449 -0.3144
  965MOL0     O33033   6.491  10.155  10.752 -0.4590  0.1658 -0.2003
  965MOL0     C33034   6.437  10.092  10.660  0.3881 -0.2095 -0.0608
  965MOL0     O33035   6.452  10.113  10.523  0.1378  0.0851  0.6995
  965MOL0     C33036   6.510  10.231  10.473  0.1828  0.3578 -0.7072
  965MOL0     C33037   6.490  10.362  10.536 -0.4834  0.9222  0.7429
  965MOL0     C33038   6.541  10.472  10.473  0.2064 -0.4086  0.1573
  965MOL0     C33039   6.623  10.465  10.358  0.1160  0.6808 -0.7557
  965MOL0     O33040   6.703  10.564  10.309 -0.1997 -0.3967 -0.0440
  965MOL0     C33041   6.755  10.662  10.392 -0.9877  0.2850 -0.5383
  965MOL0     C33042   6.880  10.738  10.344 -0.0826 -1.4291 -0.3612
  965MOL0     C33043   6.999  10.652  10.309 -0.1609 -0.0649  1.5127
  965MOL0     C33044   7.100  10.730  10.226 -1.7312  0.4033  0.0370
  965MOL0     C33045   7.218  10.650  10.191 -0.2856  0.4147 -0.9216
  965MOL0     C33046   7.195  10.536  10.089 -0.7979 -0.1620 -0.0718
  965MOL0     C33047   7.335  10.480  10.045  0.0208 -0.3388 -0.4577
  965MOL0     C33048   7.314  10.360   9.946 -0.0872  0.4248  0.3782
  965MOL0     N33049   7.277  10.236  10.015  0.8659 -0.6032  0.4090
  965MOL0     C33050   7.150  10.170  10.016 -0.2080 -0.2665 -0.7654
  965MOL0     C33051   7.170  10.040  10.053  0.5196  0.5491 -1.1399
  965MOL0     C33052   7.075   9.928  10.065  0.6548  1.2255 -0.1708
  965MOL0     C33053   7.044   9.847   9.931  0.4597 -0.4957 -0.3096
  965MOL0     C33054   6.951   9.733   9.968  0.0621 -0.1747 -0.0811
  965MOL0     C33055   6.924   9.648   9.843 -1.0196  0.4002  0.2327
  965MOL0     O33056   6.832   9.721   9.761 -0.0861  0.2459  0.3645
  965MOL0     C33057   6.807   9.687   9.635 -0.3773  0.5863  0.2459
  965MOL0     C33058   6.700   9.769   9.574  0.1353  0.3013 -0.3216
  965MOL0     C33059   6.665   9.752   9.437  0.5091 -0.6599 -0.2939
  965MOL0     C33060   6.538   9.821   9.383 -0.4097  0.5264 -0.9510
  965MOL0     C33061   6.743   9.658   9.362  0.4138 -0.1029  0.4482
  965MOL0     C33062   6.719   9.622   9.219  0.0972 -0.2318  0.0940
  965MOL0     O33063   6.740   9.491   9.175 -0.8325  0.1346  0.0473
  965MOL0     C33064   6.657   9.439   9.083  0.4306  0.0232 -0.3161
  965MOL0     C33065   6.715   9.339   8.993 -0.3231  0.1639 -0.0331
  965MOL0     C33066   6.633   9.288   8.891 -0.3704 -0.5673 -1.3400
  965MOL0     C33067   6.504   9.343   8.863 -0.5782 -0.2752 -0.0232
  965MOL0     O33068   6.434   9.280   8.765 -0.3734  0.4904  0.2189
  965MOL0     C33069   6.499   9.194   8.665  0.1676  0.8009  0.0488
  965MOL0     C33070   6.379   9.135   8.574 -0.8109  0.3168  0.1714
  965MOL0     C33071   6.422   9.082   8.440 -0.5293  0.4961 -0.3142
  965MOL0     C33072   6.312   9.032   8.352 -0.3190 -0.5539  0.2110
  965MOL0     C33073   6.362   9.001   8.217 -0.0258  0.0904  0.5311
  965MOL0     C33074   6.255   8.980   8.101  0.3919 -0.1341 -0.1135
  965MOL0     C33075   6.177   8.856   8.125 -0.3514 -0.5351  0.0976
  965MOL0     C33076   6.249   8.725   8.110 -0.1606  0.0639 -0.0895
  965MOL0    Cl33077   6.142   8.594   8.111  0.1317  0.0386  0.5073
  965MOL0     C33078   6.453   9.439   8.947  0.3750  0.9259 -0.7394
  965MOL0     C33079   6.531   9.496   9.050  0.9978 -0.1518 -0.5492
  965MOL0     O33080   6.692   9.709   9.148  1.3599  0.6876  0.2767
  965MOL0     C33081   6.843   9.581   9.423 -0.4258  0.0934  0.8151
  965MOL0     C33082   6.881   9.605   9.555  0.1438 -0.2817 -0.1617
  965MOL0     N33083   7.298  10.044  10.110  0.1547  0.1038  0.3663
  965MOL0     N33084   7.356  10.156  10.086 -0.2240 -0.1741 -0.2969
  965MOL0     C33085   6.638  10.341  10.295  0.5869  0.9441  0.2715
  965MOL0     C33086   6.586  10.220  10.352  0.2240  0.4035 -0.2058
  965MOL0     C33087   6.358   9.970  10.678  0.3872 -0.2873 -0.5008
  965MOL0     C33088   6.322   9.889  10.573 -0.4987  1.6434 -0.5988
  965MOL0     C33089   6.258   9.762  10.586  1.4591 -0.3153 -0.2027
  965MOL0     C33090   6.228   9.712  10.711 -0.1132  0.2655  1.4361
  965MOL0     O33091   6.180   9.584  10.737  0.6919 -0.0043 -0.2414
  965MOL0     C33092   6.142   9.536  10.866  0.0852 -0.3923 -0.1349
  965MOL0     C33093   6.093   9.383  10.860 -0.3097  0.6300  0.8384
  965MOL0     C33094   6.212   9.294  10.805  0.5065  0.0707 -0.1814
  965MOL0     C33095   6.153   9.143  10.791  0.5497  0.5227  0.1939
  965MOL0     C33096   6.262   9.045  10.769 -1.0529 -0.3305 -1.1034
  965MOL0     C33097   6.332   8.955  10.739 -0.6137 -0.1332 -0.2057
  965MOL0     C33098   6.255   9.803  10.816 -0.7255  0.1881  0.4410
  965MOL0     C33099   6.314   9.929  10.810  0.5318  0.4217 -0.1049
  965MOL0     C33100   6.320  10.015  10.937  0.3730 -0.3117 -0.4625
  965MOL0     H33101   6.449  10.371  10.636 -1.8616 -1.5350  0.4663
  965MOL0     H33102   6.524  10.569  10.519 -2.7939  0.2461 -2.0115
  965MOL0     H33103   6.779  10.618  10.488 -2.7393 -1.8299 -0.9866
  965MOL0     H33104   6.683  10.740  10.418  1.4814  2.6917 -0.4479
  965MOL0     H33105   6.843  10.801  10.263 -0.6531 -0.7472  0.4083
  965MOL0     H33106   6.916  10.810  10.419 -0.0893 -0.2645 -1.4542
  965MOL0     H33107   7.046  10.616  10.401 -0.2431 -0.7379  1.2988
  965MOL0     H33108   6.968  10.561  10.257  1.4145  0.9229 -1.4080
  965MOL0     H33109   7.069  10.762  10.126 -0.3561  1.7135  0.0055
  965MOL0     H33110   7.130  10.812  10.291  3.6706 -0.6951 -0.6301
  965MOL0     H33111   7.256  10.609  10.285 -3.5989  2.2913  1.4548
  965MOL0     H33112   7.287  10.725  10.150 -0.8285  2.5753  1.8093
  965MOL0     H33113   7.146  10.456  10.144  0.3046  1.9448  4.4252
  965MOL0     H33114   7.129  10.559  10.005 -1.7816 -0.9961  0.4587
  965MOL0     H33115   7.391  10.444  10.132  2.4576  0.6532 -1.5226
  965MOL0     H33116   7.388  10.564   9.999  2.3679 -0.8789  1.0801
  965MOL0     H33117   7.249  10.386   9.863 -0.4697 -1.1115  0.1788
  965MOL0     H33118   7.415  10.338   9.911 -0.4393  3.5760 -3.2304
  965MOL0     H33119   7.056  10.219   9.995  0.0727  0.2304 -0.9014
  965MOL0     H33120   6.983   9.964  10.112  0.7859  3.9375 -1.7689
  965MOL0     H33121   7.107   9.862  10.146 -2.0097 -2.0829 -1.5651
  965MOL0     H33122   6.988   9.912   9.864 -0.5734  2.4999  3.1337
  965MOL0     H33123   7.139   9.816   9.887  0.4545 -1.8172  0.5444
  965MOL0     H33124   6.992   9.659  10.038  1.0131 -1.4852 -1.9195
  965MOL0     H33125   6.854   9.759  10.012  0.3240 -2.8165  2.4302
  965MOL0     H33126   7.016   9.639   9.785 -1.7783 -1.9803 -0.6982
  965MOL0     H33127   6.883   9.550   9.869 -2.0888  1.2249  1.8352
  965MOL0     H33128   6.638   9.819   9.648 -1.2674 -2.4423  0.5026
  965MOL0     H33129   6.506   9.895   9.456 -2.2536 -1.7041  0.6611
  965MOL0     H33130   6.455   9.750   9.383 -2.3907  2.5988  2.5018
  965MOL0     H33131   6.567   9.855   9.283  3.7838 -3.0507 -1.2329
  965MOL0     H33132   6.816   9.300   8.996  0.2647  1.6449  0.3023
  965MOL0     H33133   6.686   9.206   8.843  2.6257  0.2541  0.3041
  965MOL0     H33134   6.563   9.251   8.597  0.0757  0.6695 -0.1510
  965MOL0     H33135   6.559   9.116   8.714  1.9205 -0.6672 -3.9338
  965MOL0     H33136   6.312   9.064   8.624 -1.5174  0.3168 -0.7518
  965MOL0     H33137   6.309   9.219   8.566  0.3066  1.0759 -3.4653
  965MOL0     H33138   6.490   8.996   8.446 -0.8836  0.1162 -1.4405
  965MOL0     H33139   6.470   9.164   8.386 -0.8384 -0.7064 -2.5304
  965MOL0     H33140   6.237   9.108   8.328 -0.5125 -0.7709  0.1280
  965MOL0     H33141   6.266   8.943   8.395  1.4221 -2.7167 -2.1410
  965MOL0     H33142   6.434   9.081   8.197 -0.2210 -0.4849 -3.1819
  965MOL0     H33143   6.419   8.908   8.230 -0.9981 -0.5169  0.5429
  965MOL0     H33144   6.327   8.975   8.019  2.0761 -4.7614  1.3363
  965MOL0     H33145   6.187   9.063   8.080 -0.7958 -1.2354 -0.8198
  965MOL0     H33146   6.101   8.856   8.046  3.4608 -1.8087 -3.9492
  965MOL0     H33147   6.123   8.862   8.220 -0.5840  2.2100 -0.1241
  965MOL0     H33148   6.313   8.709   8.198 -1.9499 -0.8913  1.0997
  965MOL0     H33149   6.313   8.719   8.022 -0.4179 -3.5544 -0.1669
  965MOL0     H33150   6.357   9.487   8.932 -0.0127  0.4334  0.0713
  965MOL0     H33151   6.490   9.571   9.116 -2.0364  0.0019 -2.4055
  965MOL0     H33152   6.908   9.521   9.360 -1.0665  2.8512 -2.8143
  965MOL0     H33153   6.963   9.555   9.605 -1.7205 -2.3823  0.9933
  965MOL0     H33154   6.680  10.337  10.196  0.1699  1.0780  0.0871
  965MOL0     H33155   6.598  10.122  10.308 -2.2346 -0.5601  1.0640
  965MOL0     H33156   6.342   9.914  10.469 -1.2588 -0.6665 -1.3557
  965MOL0     H33157   6.227   9.695  10.507 -2.2291  0.4654  0.3598
  965MOL0     H33158   6.225   9.549  10.936 -1.0131  0.6945  1.0089
  965MOL0     H33159   6.058   9.600  10.894  0.0766  0.0902 -1.2140
  965MOL0     H33160   6.012   9.389  10.787  1.5616  1.8134 -1.2389
  965MOL0     H33161   6.059   9.346  10.957  0.2326 -1.2412  0.3704
  965MOL0     H33162   6.246   9.331  10.708  0.7170  4.8703  1.4520
  965MOL0     H33163   6.298   9.303  10.872  2.1479 -0.4455 -2.1438
  965MOL0     H33164   6.087   9.134  10.704  2.0516  1.5485 -1.1068
  965MOL0     H33165   6.087   9.113  10.872 -1.4158 -0.8704 -1.8011
  965MOL0     H33166   6.401   8.894  10.685 -1.0488 -3.1911  2.3892
  965MOL0     H33167   6.234   9.756  10.913  2.0699 -1.3612  0.3957
  965MOL0     H33168   6.282  10.115  10.914 -2.3148 -0.7312  1.7004
  965MOL0     H33169   6.263   9.968  11.017  0.6996 -2.3158 -1.3368
  965MOL0     H33170   6.423  10.025  10.971  2.2464  0.3262 -5.4373
  966MOL0     O33171   9.850   9.563   8.314 -0.8919  0.2043  1.3651
  966MOL0     C33172   9.902   9.572   8.425 -0.3624 -0.4076  0.3216
  966MOL0     O33173   9.839   9.597   8.552 -0.0109  0.1544 -0.2926
  966MOL0     C33174   9.701   9.594   8.544 -0.5028 -0.6414 -0.3640
  966MOL0     C33175   9.632   9.483   8.565  1.1209 -0.0436  0.0648
  966MOL0     C33176   9.491   9.482   8.564  0.0183  0.4280  0.2263
  966MOL0     C33177   9.425   9.594   8.523  0.1035 -0.0421 -0.2298
  966MOL0     O33178   9.288   9.597   8.506 -0.2568 -0.3844  0.4154
  966MOL0     C33179   9.214   9.708   8.556 -0.5874  0.0074 -0.1734
  966MOL0     C33180   9.096   9.647   8.635 -0.0828  0.7869  0.6976
  966MOL0     C33181   9.143   9.604   8.778 -0.0686 -0.6236  0.0141
  966MOL0     C33182   9.048   9.534   8.873  0.0398 -0.4911  0.8845
  966MOL0     C33183   9.135   9.509   9.002  1.6280  0.1713  0.1001
  966MOL0     C33184   9.052   9.415   9.098  0.0951 -0.0439  0.3841
  966MOL0     C33185   9.129   9.382   9.224  0.3452  0.0755  0.0079
  966MOL0     C33186   9.037   9.302   9.312 -0.4160 -0.1207  0.5285
  966MOL0     N33187   9.094   9.304   9.447  0.0429  0.5885  0.0172
  966MOL0     C33188   9.203   9.231   9.478 -1.1304 -0.2417 -0.1336
  966MOL0     C33189   9.250   9.297   9.584  0.3386 -1.0065  0.1060
  966MOL0     C33190   9.379   9.272   9.652 -0.9986 -0.8040  0.1275
  966MOL0     C33191   9.498   9.347   9.593 -0.0541 -0.2546 -0.9781
  966MOL0     C33192   9.478   9.498   9.547  0.2790  0.4978 -1.0866
  966MOL0     C33193   9.456   9.593   9.663 -0.1447 -0.8976 -0.4954
  966MOL0     O33194   9.462   9.729   9.613 -0.5839  0.4314  0.4258
  966MOL0     C33195   9.369   9.777   9.530  0.4779  0.0404 -0.0416
  966MOL0     C33196   9.404   9.872   9.437 -0.1435  0.5021  0.8538
  966MOL0     C33197   9.313   9.910   9.340 -0.4922  0.2408  1.2140
  966MOL0     C33198   9.371   9.981   9.218  0.2743  0.0240  0.3505
  966MOL0     C33199   9.183   9.852   9.331 -0.9312  0.5548  0.3516
  966MOL0     C33200   9.089   9.870   9.217 -0.3975 -0.1655  0.2358
  966MOL0     O33201   9.096   9.984   9.146  0.1552  0.5228 -0.6655
  966MOL0     C33202   9.017  10.006   9.035  0.6648 -0.8347 -0.4083
  966MOL0     C33203   9.023  10.135   8.989 -0.9139 -0.4311 -0.4682
  966MOL0     C33204   8.935  10.173   8.886  0.0935 -0.2865  0.0621
  966MOL0     C33205   8.843  10.092   8.830  0.5169  1.4452 -0.1771
  966MOL0     O33206   8.775  10.134   8.727  0.2352  0.1140 -0.6168
  966MOL0     C33207   8.639  10.092   8.721  0.3857 -0.7176  0.9033
  966MOL0     C33208   8.555  10.201   8.638 -0.3570  0.0061 -0.6532
  966MOL0     C33209   8.453  10.146   8.534 -0.3789  0.6539  0.5258
  966MOL0     C33210   8.311  10.184   8.566 -0.2678  1.5024 -0.8821
  966MOL0     C33211   8.266  10.325   8.562 -0.1300  0.2874 -0.0120
  966MOL0     C33212   8.300  10.401   8.427  0.3924 -0.3106 -0.3827
  966MOL0     C33213   8.195  10.517   8.405  0.4184  0.3652 -0.4338
  966MOL0     C33214   8.251  10.629   8.311 -0.6503 -0.3914 -0.7571
  966MOL0    Cl33215   8.118  10.737   8.270  0.1784  0.5405  0.3859
  966MOL0     C33216   8.833   9.959   8.880  0.0061  0.5281  0.6531
  966MOL0     C33217   8.923   9.916   8.974 -0.3795  0.3639 -0.6010
  966MOL0     O33218   9.010   9.778   9.200  0.2998  1.0602 -0.0935
  966MOL0     C33219   9.142   9.763   9.438 -0.1044  0.7715  0.1119
  966MOL0     C33220   9.237   9.726   9.533  1.1653  0.1728 -0.4065
  966MOL0     N33221   9.159   9.391   9.621  0.4323  0.4776  0.3329
  966MOL0     N33222   9.070   9.400   9.536 -0.3086 -0.2565  0.2775
  966MOL0     C33223   9.501   9.707   8.485 -0.2499 -0.2163 -0.4743
  966MOL0     C33224   9.636   9.709   8.510 -0.6494 -0.4985  0.2561
  966MOL0     C33225  10.036   9.521   8.444  0.4102 -0.4777 -0.2638
  966MOL0     C33226  10.082   9.505   8.578  0.1817 -0.0735 -0.0599
  966MOL0     C33227  10.189   9.417   8.607  0.0247  1.2578 -0.2607
  966MOL0     C33228  10.263   9.355   8.501  0.4320 -0.8837 -0.8150
  966MOL0     O33229  10.376   9.285   8.540  0.3885 -0.1817 -0.2499
  966MOL0     C33230  10.468   9.247   8.435  0.5666 -0.2266 -0.3109
  966MOL0     C33231  10.582   9.190   8.511  0.1663 -0.6791  0.2798
  966MOL0     C33232  10.716   9.197   8.430 -0.2173  0.1423  0.2554
  966MOL0     C33233  10.826   9.138   8.505 -0.1043 -0.1452 -0.1053
  966MOL0     C33234  10.935   9.119   8.409 -0.2604 -0.2495 -0.2629
  966MOL0     C33235  11.017   9.100   8.317 -0.4008  0.0273  0.6996
  966MOL0     C33236  10.236   9.387   8.370  0.2644 -1.2507 -0.6444
  966MOL0     C33237  10.115   9.468   8.340  0.1778 -0.5368  0.5119
  966MOL0     C33238  10.082   9.495   8.189 -0.0922  1.0981 -0.3432
  966MOL0     H33239   9.688   9.394   8.592  1.6627  0.9596  2.5175
  966MOL0     H33240   9.436   9.395   8.599  0.6003 -0.0226  0.0551
  966MOL0     H33241   9.172   9.754   8.466  1.4644  0.1433 -1.1262
  966MOL0     H33242   9.272   9.778   8.617  1.7442 -2.5086  0.7149
  966MOL0     H33243   9.020   9.725   8.643 -1.5299 -0.4439 -0.3502
  966MOL0     H33244   9.052   9.562   8.582  4.7336 -0.8398 -1.3232
  966MOL0     H33245   9.232   9.541   8.767  1.2999  1.5823 -4.0180
  966MOL0     H33246   9.156   9.706   8.817 -1.9623 -1.7586  4.1549
  966MOL0     H33247   8.972   9.609   8.894  0.2425 -0.0394  0.0534
  966MOL0     H33248   9.006   9.440   8.835 -0.1428 -0.2746  0.5431
  966MOL0     H33249   9.159   9.603   9.052  0.4112  0.6826 -0.2200
  966MOL0     H33250   9.231   9.468   8.971  2.2663 -1.5513  3.8408
  966MOL0     H33251   8.953   9.451   9.127  0.3326  2.6624 -1.7143
  966MOL0     H33252   9.038   9.320   9.046 -0.7126  0.5055 -0.4536
  966MOL0     H33253   9.174   9.466   9.276  1.0594 -1.9182  2.8497
  966MOL0     H33254   9.210   9.309   9.212  0.0758 -0.7180  2.5369
  966MOL0     H33255   8.940   9.354   9.313  0.8080  2.3109  1.5309
  966MOL0     H33256   9.019   9.199   9.280 -0.6303 -0.3531  1.3706
  966MOL0     H33257   9.252   9.156   9.417  2.2911  0.8494  1.0383
  966MOL0     H33258   9.398   9.165   9.658 -1.6967 -0.8978  0.8471
  966MOL0     H33259   9.369   9.316   9.753  1.3362  0.8065 -0.2599
  966MOL0     H33260   9.575   9.341   9.670  0.9554  1.0644 -1.8346
  966MOL0     H33261   9.528   9.296   9.501 -2.0526 -3.2098 -0.1158
  966MOL0     H33262   9.571   9.536   9.503  1.7526 -0.3204  1.1062
  966MOL0     H33263   9.403   9.504   9.468 -1.1934  0.4426  0.2544
  966MOL0     H33264   9.367   9.560   9.717 -0.4930 -0.4014 -0.7639
  966MOL0     H33265   9.534   9.586   9.740 -0.7057  2.6859  0.5577
  966MOL0     H33266   9.509   9.895   9.444  0.3959 -1.5576  0.0402
  966MOL0     H33267   9.325  10.077   9.193 -0.4223 -0.7494 -1.5296
  966MOL0     H33268   9.369   9.922   9.126  1.5539  1.0049 -0.3364
  966MOL0     H33269   9.475  10.007   9.237  0.6164  1.9567 -3.2764
  966MOL0     H33270   9.094  10.206   9.030  0.4906 -1.8639 -0.3600
  966MOL0     H33271   8.941  10.274   8.847  0.5617 -0.1011  0.5979
  966MOL0     H33272   8.643   9.999   8.664 -2.6752  0.9157 -2.4032
  966MOL0     H33273   8.593  10.080   8.819  0.1707  0.5445  0.9755
  966MOL0     H33274   8.510  10.263   8.717 -0.7997  1.0957 -1.7260
  966MOL0     H33275   8.640  10.256   8.598  0.3724 -0.6358 -0.0245
  966MOL0     H33276   8.464  10.040   8.512 -2.6214  1.2258 -4.8774
  966MOL0     H33277   8.465  10.187   8.433 -0.1369 -2.0722 -0.6460
  966MOL0     H33278   8.276  10.151   8.664  0.0908  0.8837 -0.9639
  966MOL0     H33279   8.248  10.134   8.491 -0.3174 -2.9330  1.7779
  966MOL0     H33280   8.160  10.333   8.584 -0.1823  2.4374 -0.7536
  966MOL0     H33281   8.308  10.381   8.647 -0.2664 -0.3151  0.4554
  966MOL0     H33282   8.309  10.329   8.345  0.6127  1.0257 -1.5803
  966MOL0     H33283   8.394  10.456   8.435  0.3016  0.2453 -2.5184
  966MOL0     H33284   8.163  10.567   8.497 -1.3636  2.1458 -1.9458
  966MOL0     H33285   8.111  10.466   8.357  0.2828  0.2563 -0.0858
  966MOL0     H33286   8.286  10.562   8.232 -0.1610 -0.4987 -0.4560
  966MOL0     H33287   8.333  10.674   8.367 -2.0659  2.0504 -0.5021
  966MOL0     H33288   8.768   9.885   8.835 -0.3089  0.1839  1.6497
  966MOL0     H33289   8.924   9.811   9.003  0.0234  0.5451  0.0422
  966MOL0     H33290   9.040   9.726   9.437  0.4170 -0.8034  0.9174
  966MOL0     H33291   9.209   9.642   9.596  2.1131 -1.3479 -1.9564
  966MOL0     H33292   9.447   9.795   8.450 -4.6746 -2.3549  0.3381
  966MOL0     H33293   9.693   9.797   8.484 -1.8993  0.5503  0.9340
  966MOL0     H33294  10.014   9.538   8.656 -1.8044 -3.1575 -0.3130
  966MOL0     H33295  10.208   9.399   8.713  2.0131 -1.9202 -1.0433
  966MOL0     H33296  10.429   9.170   8.368  0.3849 -0.9195  0.5718
  966MOL0     H33297  10.507   9.317   8.361  3.2751 -1.4216 -0.1254
  966MOL0     H33298  10.547   9.092   8.546 -1.4893 -0.2913 -0.2278
  966MOL0     H33299  10.595   9.250   8.602  0.1534 -1.2025  0.6334
  966MOL0     H33300  10.712   9.135   8.340 -1.2651  1.3632 -0.5721
  966MOL0     H33301  10.723   9.301   8.397 -2.7454 -0.5493 -2.9191
  966MOL0     H33302  10.803   9.045   8.558 -0.9924 -0.1098 -0.4226
  966MOL0     H33303  10.874   9.204   8.578  2.5749 -1.2341 -0.7558
  966MOL0     H33304  11.095   9.083   8.245 -1.3421  1.2389 -0.6602
  966MOL0     H33305  10.302   9.347   8.294  0.6442 -2.0382  0.0925
  966MOL0     H33306  10.170   9.457   8.137  0.8065 -1.9187  3.0075
  966MOL0     H33307  10.005   9.428   8.149  1.9204 -1.1033 -0.7157
  966MOL0     H33308  10.064   9.602   8.173 -1.9671  0.3055 -5.3258
  967MOL0     O33309   4.987   4.119   8.519 -0.0842  0.2553 -0.8380
  967MOL0     C33310   5.007   4.009   8.465 -0.3851  1.2304  0.3446
  967MOL0     O33311   4.913   3.905   8.450 -0.7153 -0.4305 -0.0741
  967MOL0     C33312   4.798   3.913   8.510 -0.1551 -0.5917 -0.1448
  967MOL0     C33313   4.680   3.899   8.434  1.0777  0.9457  0.1081
  967MOL0     C33314   4.561   3.908   8.501  0.9712  0.1900  0.7113
  967MOL0     C33315   4.550   3.921   8.640 -0.7544 -1.6456 -0.5503
  967MOL0     O33316   4.423   3.941   8.689  0.3893  0.0176 -0.6472
  967MOL0     C33317   4.408   3.921   8.828  0.7349 -0.1591  0.0649
  967MOL0     C33318   4.433   4.045   8.904  1.0794  0.2768 -0.0293
  967MOL0     C33319   4.402   4.025   9.050 -0.4000 -0.0420 -0.3492
  967MOL0     C33320   4.437   4.162   9.123 -0.4653  0.4995 -0.3595
  967MOL0     C33321   4.334   4.273   9.120 -0.1857  0.5913  0.4905
  967MOL0     C33322   4.203   4.239   9.186  0.3429 -0.5489 -0.3192
  967MOL0     C33323   4.118   4.368   9.189  0.7785  0.2848  0.6795
  967MOL0     C33324   3.973   4.335   9.219  0.5127 -0.5729  0.6480
  967MOL0     N33325   3.895   4.452   9.268  0.3228 -0.0369  0.1713
  967MOL0     C33326   3.791   4.507   9.199  0.1353  0.2399 -0.1704
  967MOL0     C33327   3.771   4.619   9.269 -0.5158 -0.4154  0.6473
  967MOL0     C33328   3.668   4.724   9.226 -0.2291  0.5307  1.3094
  967MOL0     C33329   3.567   4.748   9.339 -0.5907 -0.2621 -0.0173
  967MOL0     C33330   3.533   4.896   9.358  0.4171 -0.0213 -0.5266
  967MOL0     C33331   3.464   4.916   9.501 -0.8899 -0.5819  0.8768
  967MOL0     O33332   3.328   4.898   9.480 -0.0911 -0.0678  0.0512
  967MOL0     C33333   3.258   4.881   9.599  0.5662 -0.4537 -0.7991
  967MOL0     C33334   3.293   4.839   9.724  0.1097 -0.0646 -1.6863
  967MOL0     C33335   3.203   4.808   9.836  0.0929 -0.3094  0.9441
  967MOL0     C33336   3.257   4.796   9.972 -1.0623  1.5036  0.0319
  967MOL0     C33337   3.063   4.812   9.805 -0.3018 -0.4191  0.7013
  967MOL0     C33338   2.955   4.758   9.897 -0.4050  0.3221  0.5048
  967MOL0     O33339   2.990   4.652   9.978  0.6161 -0.3978  0.0234
  967MOL0     C33340   2.898   4.595  10.061  0.0727 -0.5012 -0.0935
  967MOL0     C33341   2.754   4.561  10.023 -0.1451 -0.6354 -1.0655
  967MOL0     C33342   2.670   4.495  10.114 -0.1937  0.2016 -0.2361
  967MOL0     C33343   2.721   4.450  10.241  0.9535  0.1544  0.5555
  967MOL0     O33344   2.644   4.385  10.336 -0.2822 -0.2296 -0.5736
  967MOL0     C33345   2.504   4.356  10.320 -0.3447 -0.3386  0.1429
  967MOL0     C33346   2.495   4.224  10.240  0.4727  0.3641  0.0372
  967MOL0     C33347   2.527   4.101  10.333 -0.5793 -0.7133 -0.8476
  967MOL0     C33348   2.502   3.968  10.261 -0.2798 -0.1327 -0.2373
  967MOL0     C33349   2.371   3.894  10.311 -0.3135 -0.0319 -0.2838
  967MOL0     C33350   2.334   3.778  10.223 -1.1846 -0.2705 -0.2050
  967MOL0     C33351   2.183   3.760  10.253 -1.1152 -0.2024  0.1843
  967MOL0     C33352   2.118   3.638  10.178  0.6407 -0.5733 -0.6872
  967MOL0    Cl33353   2.209   3.492  10.207 -0.1531 -0.4281 -0.5838
  967MOL0     C33354   2.851   4.480  10.268 -0.9470  0.6776  0.0629
  967MOL0     C33355   2.941   4.554  10.192  0.4718 -0.5980 -0.3213
  967MOL0     O33356   2.846   4.807   9.888 -0.0854 -0.6296 -0.3080
  967MOL0     C33357   3.030   4.863   9.680 -0.6008 -0.7762  0.2234
  967MOL0     C33358   3.124   4.905   9.581  0.4718  0.0374  0.0313
  967MOL0     N33359   3.844   4.628   9.385  0.4414  0.2273  0.1599
  967MOL0     N33360   3.916   4.521   9.377  0.5616 -0.8237 -0.6576
  967MOL0     C33361   4.666   3.939   8.715  0.0143 -0.1456  0.3819
  967MOL0     C33362   4.788   3.931   8.650 -1.3333 -0.0444 -0.1022
  967MOL0     C33363   5.137   3.999   8.402  0.4065 -0.5630  0.5218
  967MOL0     C33364   5.206   4.120   8.355 -0.0788 -0.1139  0.0856
  967MOL0     C33365   5.325   4.109   8.288  0.3855  0.7947  0.3039
  967MOL0     C33366   5.373   3.986   8.258 -0.2122  0.1274 -0.2562
  967MOL0     O33367   5.493   3.973   8.195 -0.9789  0.0556 -0.1183
  967MOL0     C33368   5.524   4.068   8.095 -0.6697  0.3333 -0.7698
  967MOL0     C33369   5.635   4.010   7.994 -0.5543 -0.4597 -0.2437
  967MOL0     C33370   5.607   3.860   7.969  0.3909  0.2327 -0.4696
  967MOL0     C33371   5.487   3.805   7.890 -0.2762 -0.3053  0.2052
  967MOL0     C33372   5.500   3.676   7.838 -0.1880 -0.1859 -0.3718
  967MOL0     C33373   5.497   3.568   7.778  0.1046  0.3023 -0.7931
  967MOL0     C33374   5.314   3.872   8.297  0.6709 -0.5944  0.6709
  967MOL0     C33375   5.195   3.872   8.375 -1.5007  0.3997 -0.5395
  967MOL0     C33376   5.154   3.747   8.443  0.4161  0.1622  0.0314
  967MOL0     H33377   4.682   3.887   8.326 -0.0681  3.7164 -0.2890
  967MOL0     H33378   4.477   3.917   8.433  1.2563  0.7275  0.4161
  967MOL0     H33379   4.472   3.844   8.872  2.5644 -0.2514 -2.5164
  967MOL0     H33380   4.309   3.873   8.827  2.7150 -4.7745 -0.6118
  967MOL0     H33381   4.533   4.084   8.882 -0.2688  2.1284 -3.7263
  967MOL0     H33382   4.363   4.116   8.859  1.0469 -1.5178 -3.0038
  967MOL0     H33383   4.300   3.995   9.075 -0.7631  0.9709 -0.5717
  967MOL0     H33384   4.479   3.957   9.088 -0.0173 -0.8453 -2.4159
  967MOL0     H33385   4.477   4.143   9.223 -2.3906  0.5649  0.4731
  967MOL0     H33386   4.518   4.210   9.068 -1.2477  1.6756 -0.5327
  967MOL0     H33387   4.318   4.306   9.017 -0.4963 -0.1783  0.2803
  967MOL0     H33388   4.391   4.362   9.149 -0.5655  0.6032  1.2372
  967MOL0     H33389   4.141   4.162   9.140 -2.5557  1.5348 -0.1721
  967MOL0     H33390   4.235   4.197   9.281  2.6588 -2.4794 -1.8451
  967MOL0     H33391   4.132   4.429   9.100  1.4442 -0.0424  0.5508
  967MOL0     H33392   4.151   4.427   9.275  1.4720  0.7912  0.0765
  967MOL0     H33393   3.919   4.299   9.131  1.2476 -0.8119  0.2906
  967MOL0     H33394   3.981   4.254   9.292 -1.9709  0.4582  2.2048
  967MOL0     H33395   3.742   4.475   9.108 -0.7421 -0.4930  0.5286
  967MOL0     H33396   3.614   4.683   9.141 -0.0556  1.8559  0.5380
  967MOL0     H33397   3.719   4.818   9.200 -0.8847  1.7753  4.1455
  967MOL0     H33398   3.475   4.690   9.326 -2.1630  2.4358 -1.8723
  967MOL0     H33399   3.612   4.715   9.433 -0.9944  3.8298  1.7796
  967MOL0     H33400   3.631   4.946   9.353  0.6562 -0.5724 -1.4732
  967MOL0     H33401   3.478   4.933   9.271  0.3656 -2.1905 -1.4736
  967MOL0     H33402   3.511   4.840   9.566  3.1372  2.2666  1.6890
  967MOL0     H33403   3.493   5.017   9.530  0.7231 -0.1614 -1.8973
  967MOL0     H33404   3.398   4.820   9.745  0.2513 -1.0170 -3.0757
  967MOL0     H33405   3.301   4.696   9.976 -1.9661  1.0496 -0.8194
  967MOL0     H33406   3.177   4.813  10.045 -0.8779 -1.9237  1.2123
  967MOL0     H33407   3.327   4.877   9.993  1.6075 -0.5018 -0.6287
  967MOL0     H33408   2.714   4.566   9.922 -1.3885 -2.3740 -0.7120
  967MOL0     H33409   2.568   4.477  10.081 -0.6808  4.3809 -1.7390
  967MOL0     H33410   2.453   4.346  10.416 -1.2773  0.5243 -0.2451
  967MOL0     H33411   2.461   4.435  10.258 -1.1096 -0.5921  0.3370
  967MOL0     H33412   2.393   4.206  10.206  1.4285 -1.9252 -1.9216
  967MOL0     H33413   2.556   4.239  10.150  0.8066 -1.2953 -0.0402
  967MOL0     H33414   2.463   4.094  10.422 -1.3023 -0.9264 -1.3703
  967MOL0     H33415   2.631   4.113  10.363 -0.2053  2.1798 -2.8373
  967MOL0     H33416   2.591   3.906  10.275 -1.2981 -1.5559  0.1077
  967MOL0     H33417   2.490   3.996  10.156 -2.6701 -0.1328 -0.0118
  967MOL0     H33418   2.368   3.857  10.414 -3.3980  2.4721  0.6837
  967MOL0     H33419   2.288   3.964  10.310  1.6017  2.3786  0.3459
  967MOL0     H33420   2.394   3.691  10.251 -0.7279 -0.1228 -0.7150
  967MOL0     H33421   2.351   3.804  10.118 -0.6703 -0.0893 -0.0789
  967MOL0     H33422   2.130   3.851  10.223 -2.9272 -1.5886 -1.0282
  967MOL0     H33423   2.166   3.740  10.359  1.3140  0.5166  0.7778
  967MOL0     H33424   2.127   3.663  10.071 -0.7998  2.3479 -0.2481
  967MOL0     H33425   2.012   3.628  10.205  0.5085  0.9284 -0.5254
  967MOL0     H33426   2.891   4.429  10.356 -0.7257 -2.4398 -1.7047
  967MOL0     H33427   3.044   4.566  10.225 -0.0921 -0.6068  1.5295
  967MOL0     H33428   2.924   4.870   9.661 -0.3104  1.3977 -0.9217
  967MOL0     H33429   3.090   4.928   9.480 -0.9794  2.5842  1.0061
  967MOL0     H33430   4.670   3.956   8.823  2.4777 -0.7290  0.4471
  967MOL0     H33431   4.885   3.930   8.698 -0.0846 -1.7047 -2.4322
  967MOL0     H33432   5.181   4.225   8.362  0.1283 -0.0500 -0.1098
  967MOL0     H33433   5.388   4.191   8.255  4.3492 -1.8328  0.6648
  967MOL0     H33434   5.434   4.102   8.043  0.4987  2.7558 -1.3546
  967MOL0     H33435   5.585   4.151   8.133  2.0974 -2.9152  2.6526
  967MOL0     H33436   5.732   4.024   8.044 -1.2486  0.6988  0.8691
  967MOL0     H33437   5.648   4.065   7.901  1.8625  1.2425  0.9703
  967MOL0     H33438   5.699   3.827   7.919  1.2459  1.3294  0.3425
  967MOL0     H33439   5.599   3.818   8.070 -0.6308  2.6055  0.5183
  967MOL0     H33440   5.461   3.862   7.801  3.8864  2.4555  0.4372
  967MOL0     H33441   5.404   3.812   7.961  0.8920  1.9021  1.5049
  967MOL0     H33442   5.477   3.467   7.748 -3.8538 -0.2917  2.9057
  967MOL0     H33443   5.362   3.779   8.271  0.6986 -0.0778 -1.2518
  967MOL0     H33444   5.137   3.776   8.547  0.0649  3.3866 -0.7883
  967MOL0     H33445   5.070   3.709   8.385 -0.1396 -0.9954  1.5468
  967MOL0     H33446   5.232   3.671   8.451 -0.1504 -0.3441  6.7803
  968MOL0     O33447   9.925  10.247   4.336  0.0833 -0.4293  0.0480
  968MOL0     C33448  10.005  10.260   4.250 -0.8027 -0.5906  0.2852
  968MOL0     O33449  10.101  10.173   4.212 -0.0510  0.1299  0.2889
  968MOL0     C33450  10.113  10.066   4.296  0.3202  0.3321  0.0050
  968MOL0     C33451  10.173  10.086   4.425  0.4116 -1.4735  0.3724
  968MOL0     C33452  10.177   9.978   4.509  0.2501 -0.4805  0.3797
  968MOL0     C33453  10.146   9.843   4.473 -1.2068 -1.2427  0.2489
  968MOL0     O33454  10.142   9.728   4.552 -0.0351 -0.1627 -0.0230
  968MOL0     C33455  10.125   9.738   4.698  0.0438 -0.4042 -0.0081
  968MOL0     C33456  10.030   9.620   4.738 -0.1069 -0.0266  0.5947
  968MOL0     C33457  10.108   9.487   4.727  0.2418  0.4570 -0.1165
  968MOL0     C33458  10.217   9.463   4.832  0.0972 -0.1171 -0.7793
  968MOL0     C33459  10.291   9.329   4.796  1.2842 -0.4022 -0.1288
  968MOL0     C33460  10.443   9.309   4.823  0.3921 -1.1837  0.3982
  968MOL0     C33461  10.468   9.300   4.970  0.4612  0.0901  0.1035
  968MOL0     C33462  10.467   9.159   5.042 -0.2333 -0.0019  0.5540
  968MOL0     N33463  10.587   9.077   5.002  0.5384 -1.2664  0.2674
  968MOL0     C33464  10.579   9.006   4.879  0.2329 -0.2810 -0.7677
  968MOL0     C33465  10.665   8.908   4.904 -0.3744  0.4971 -0.2271
  968MOL0     C33466  10.696   8.794   4.808 -1.1175 -0.4660 -0.8711
  968MOL0     C33467  10.581   8.699   4.770 -0.0413  0.0695 -0.4254
  968MOL0     C33468  10.498   8.655   4.897  0.7986  0.4772  0.2957
  968MOL0     C33469  10.588   8.575   4.979  0.0524  0.7076 -0.3304
  968MOL0     O33470  10.515   8.543   5.103 -0.3779 -0.2343  0.4837
  968MOL0     C33471  10.541   8.431   5.174  0.2292  0.3493  0.1814
  968MOL0     C33472  10.644   8.334   5.166  0.1233  0.0457 -0.1503
  968MOL0     C33473  10.646   8.216   5.239  0.6761  0.9560  0.7368
  968MOL0     C33474  10.764   8.119   5.211  0.4968 -0.8215 -0.0728
  968MOL0     C33475  10.539   8.187   5.332  0.5781  0.6189  0.5593
  968MOL0     C33476  10.545   8.061   5.420  0.1180  0.1167 -0.0806
  968MOL0     O33477  10.653   7.981   5.426  0.3996 -0.3439 -0.4531
  968MOL0     C33478  10.641   7.863   5.497 -1.6420 -0.4196  0.2563
  968MOL0     C33479  10.527   7.781   5.495 -0.3821  0.7240 -1.2115
  968MOL0     C33480  10.523   7.656   5.560  0.2431  0.1110  0.2125
  968MOL0     C33481  10.635   7.615   5.636 -1.2482 -0.7305  1.0069
  968MOL0     O33482  10.646   7.493   5.707  0.7927  0.2964 -0.8536
  968MOL0     C33483  10.631   7.375   5.617  1.0001 -0.2655 -0.4148
  968MOL0     C33484  10.710   7.261   5.688 -0.2360 -0.1906 -0.2944
  968MOL0     C33485  10.654   7.235   5.827  0.1916  0.9999 -0.6490
  968MOL0     C33486  10.739   7.140   5.905 -0.9656  0.1377  0.5694
  968MOL0     C33487  10.683   7.101   6.044 -0.2221  0.4822 -0.2132
  968MOL0     C33488  10.729   7.189   6.161  1.2026 -0.0795  0.3088
  968MOL0     C33489  10.634   7.189   6.277 -0.2552 -0.8444 -0.8899
  968MOL0     C33490  10.655   7.314   6.360  0.2948  0.6930  0.3026
  968MOL0    Cl33491  10.541   7.320   6.500 -0.4415 -0.3772 -0.2092
  968MOL0     C33492  10.752   7.690   5.638 -0.7389 -0.2661  0.0739
  968MOL0     C33493  10.754   7.816   5.566  0.1866 -0.5203  0.2169
  968MOL0     O33494  10.443   8.051   5.487 -0.2457 -0.1402 -1.0025
  968MOL0     C33495  10.432   8.281   5.340 -0.2742 -0.2756 -0.2659
  968MOL0     C33496  10.431   8.396   5.260 -0.4211  0.1317 -0.9117
  968MOL0     N33497  10.716   8.922   5.030 -0.0205  0.1559 -0.4394
  968MOL0     N33498  10.679   9.024   5.087 -0.2222  0.7848 -0.3598
  968MOL0     C33499  10.118   9.822   4.333  0.3478  0.5181 -1.1830
  968MOL0     C33500  10.093   9.929   4.250 -1.1161 -0.4672  0.6916
  968MOL0     C33501   9.995  10.383   4.163 -0.5528  0.1269 -0.2563
  968MOL0     C33502  10.010  10.384   4.026 -0.2792 -0.6509  0.6284
  968MOL0     C33503   9.973  10.495   3.950 -0.2016 -1.3160 -0.2896
  968MOL0     C33504   9.929  10.610   4.015  0.3619 -1.6021  0.0153
  968MOL0     O33505   9.917  10.729   3.949 -0.1243 -0.1319  0.1268
  968MOL0     C33506   9.946  10.741   3.804  0.0072 -0.7885  0.5898
  968MOL0     C33507   9.980  10.884   3.765  0.1850  1.0237 -0.6224
  968MOL0     C33508  10.027  10.904   3.611  0.2969 -0.0186 -0.1425
  968MOL0     C33509  10.032  11.045   3.552  0.2216 -0.4110 -0.8175
  968MOL0     C33510   9.901  11.106   3.527 -0.1276 -0.6123 -0.5291
  968MOL0     C33511   9.788  11.162   3.519  0.1095 -0.6672 -0.2157
  968MOL0     C33512   9.923  10.617   4.156 -0.5187 -0.4875  0.0716
  968MOL0     C33513   9.943  10.503   4.228  0.7785  0.1396  0.0211
  968MOL0     C33514   9.944  10.530   4.381 -0.2120  0.4456  0.0982
  968MOL0     H33515  10.198  10.189   4.447  0.6751 -0.9200 -2.2382
  968MOL0     H33516  10.214   9.994   4.610 -0.1924 -0.4971  0.5465
  968MOL0     H33517  10.082   9.833   4.731 -0.1759 -1.2818  2.4082
  968MOL0     H33518  10.219   9.731   4.752 -0.8346  0.2225  1.6758
  968MOL0     H33519   9.993   9.634   4.840 -2.0839  1.3071 -0.2421
  968MOL0     H33520   9.940   9.622   4.676 -0.5469 -1.7649  1.1192
  968MOL0     H33521  10.034   9.408   4.743 -1.8374  1.5860 -3.2088
  968MOL0     H33522  10.146   9.480   4.625  2.2037 -0.5045  0.6279
  968MOL0     H33523  10.289   9.545   4.845  0.4824 -0.8465  2.5167
  968MOL0     H33524  10.171   9.455   4.930 -2.1084  0.0641 -1.7466
  968MOL0     H33525  10.277   9.326   4.688 -2.3663  4.0099 -0.0715
  968MOL0     H33526  10.236   9.251   4.850 -1.6183  0.1456 -2.0978
  968MOL0     H33527  10.476   9.225   4.762  3.5048  1.3729 -1.7918
  968MOL0     H33528  10.495   9.394   4.776 -1.0879 -1.2506 -1.4974
  968MOL0     H33529  10.395   9.367   5.017  1.6384  1.8452 -0.4800
  968MOL0     H33530  10.568   9.333   4.998  2.0269 -3.5384 -0.6309
  968MOL0     H33531  10.459   9.164   5.151  1.1547 -1.0573  0.7283
  968MOL0     H33532  10.380   9.104   5.006 -0.1114 -0.9439  1.6560
  968MOL0     H33533  10.519   9.028   4.791 -0.2708  0.6049 -0.2124
  968MOL0     H33534  10.781   8.734   4.840 -1.1059  0.3180  0.6377
  968MOL0     H33535  10.733   8.851   4.722 -0.5854 -0.4878 -0.6549
  968MOL0     H33536  10.514   8.740   4.694 -0.3596  0.1685 -0.0941
  968MOL0     H33537  10.618   8.611   4.716 -2.8407 -0.5727 -1.4362
  968MOL0     H33538  10.460   8.746   4.945 -0.3688  3.4528 -5.2945
  968MOL0     H33539  10.410   8.598   4.864  0.0897 -1.0130  4.2690
  968MOL0     H33540  10.618   8.481   4.931 -1.6848 -1.1741  2.0427
  968MOL0     H33541  10.677   8.632   5.009 -1.3824  3.4273 -0.9320
  968MOL0     H33542  10.718   8.358   5.090 -0.5334  2.5447 -0.0743
  968MOL0     H33543  10.806   8.150   5.115 -1.5594  0.2551 -0.6853
  968MOL0     H33544  10.734   8.015   5.195  0.2231 -1.3304  3.0875
  968MOL0     H33545  10.839   8.140   5.288  1.0633  1.9250 -1.2543
  968MOL0     H33546  10.449   7.821   5.430  1.0677  2.2048 -2.1113
  968MOL0     H33547  10.437   7.590   5.558  1.4574 -1.4835 -1.3426
  968MOL0     H33548  10.524   7.350   5.611  0.6368  0.9088  0.6011
  968MOL0     H33549  10.668   7.397   5.517 -1.4222  1.3166 -1.0542
  968MOL0     H33550  10.701   7.170   5.627  2.4530 -0.1004 -0.9138
  968MOL0     H33551  10.814   7.290   5.697 -0.4089 -0.0733  1.7069
  968MOL0     H33552  10.551   7.200   5.820  0.8418 -1.2773  0.2347
  968MOL0     H33553  10.672   7.328   5.882  3.0780 -0.5794  1.3583
  968MOL0     H33554  10.845   7.168   5.907  0.0532 -3.3179  1.8814
  968MOL0     H33555  10.729   7.047   5.848 -1.7307 -1.1663  2.7324
  968MOL0     H33556  10.574   7.086   6.045 -0.0724 -0.7523  0.0920
  968MOL0     H33557  10.730   7.007   6.076  2.0620  1.7487  0.3460
  968MOL0     H33558  10.728   7.293   6.127  0.2456 -0.5176 -1.1194
  968MOL0     H33559  10.830   7.151   6.176  0.6350 -1.8907 -0.1305
  968MOL0     H33560  10.657   7.103   6.342 -1.8781 -0.0391  0.8345
  968MOL0     H33561  10.528   7.193   6.251 -1.2544  1.6245  2.7352
  968MOL0     H33562  10.644   7.396   6.288  0.5846  0.9612  0.5638
  968MOL0     H33563  10.754   7.312   6.404  0.4841  3.4408  0.1791
  968MOL0     H33564  10.834   7.651   5.696  0.9676  0.3298 -1.8085
  968MOL0     H33565  10.844   7.876   5.567  1.4019 -2.0615 -2.9030
  968MOL0     H33566  10.351   8.270   5.412 -0.5440  0.0307 -0.5177
  968MOL0     H33567  10.341   8.454   5.274 -0.7368 -0.9860  2.6577
  968MOL0     H33568  10.084   9.722   4.305 -0.5904  0.2730  0.6606
  968MOL0     H33569  10.065   9.928   4.145  1.0600 -2.3976  0.0363
  968MOL0     H33570  10.032  10.296   3.967 -0.6200 -1.4083  1.5907
  968MOL0     H33571   9.966  10.491   3.842  1.8895  0.6428 -0.5634
  968MOL0     H33572  10.036  10.685   3.778  2.2482  1.5683  2.6827
  968MOL0     H33573   9.863  10.708   3.741 -1.4417  3.0803  0.1948
  968MOL0     H33574  10.061  10.920   3.829 -1.3062  2.1264  0.6862
  968MOL0     H33575   9.897  10.950   3.792  0.0316  0.4629  0.2960
  968MOL0     H33576  10.124  10.854   3.608  2.1337  2.9287  3.0746
  968MOL0     H33577   9.947  10.858   3.552 -0.5270  3.4657 -2.0505
  968MOL0     H33578  10.103  11.044   3.469 -1.4941 -2.8403 -2.3911
  968MOL0     H33579  10.075  11.108   3.631 -1.5112 -0.4638  0.2339
  968MOL0     H33580   9.694  11.212   3.510 -0.7121 -1.8560  1.2073
  968MOL0     H33581   9.913  10.713   4.205  1.5230 -0.2226  0.0322
  968MOL0     H33582  10.004  10.620   4.403 -1.1466  1.0825  0.1152
  968MOL0     H33583   9.842  10.544   4.418 -1.2406  0.9834 -2.6661
  968MOL0     H33584   9.997  10.452   4.435 -1.5446  1.8582  3.7872
  969MOL0     O33585   2.517   6.889   4.424  0.4722  0.4120 -0.2396
  969MOL0     C33586   2.549   6.769   4.424  0.0634 -0.4429 -0.9847
  969MOL0     O33587   2.544   6.685   4.522 -0.4446 -0.6290  0.0205
  969MOL0     C33588   2.536   6.731   4.653 -0.1716  0.4089 -0.3794
  969MOL0     C33589   2.604   6.836   4.704  0.5461  0.4280  0.2579
  969MOL0     C33590   2.575   6.889   4.829  0.2069  1.4402  0.1356
  969MOL0     C33591   2.498   6.829   4.917 -0.2491  0.8343 -0.7207
  969MOL0     O33592   2.478   6.881   5.050  0.2177 -0.3620  0.0820
  969MOL0     C33593   2.574   6.958   5.119  0.0620  0.5214  0.1194
  969MOL0     C33594   2.657   6.875   5.211 -0.0434  0.6304  0.3038
  969MOL0     C33595   2.602   6.898   5.359 -0.6701 -0.6019  0.3620
  969MOL0     C33596   2.683   6.821   5.459 -0.0835  0.0030  0.2272
  969MOL0     C33597   2.612   6.827   5.591 -0.0858  0.2107 -0.9082
  969MOL0     C33598   2.697   6.770   5.699  0.1186  0.3030 -0.8328
  969MOL0     C33599   2.646   6.816   5.831  0.3995 -0.2280 -0.0404
  969MOL0     C33600   2.520   6.760   5.873  0.2636  0.3855 -0.2481
  969MOL0     N33601   2.526   6.672   5.986  0.3205  0.0413  0.2292
  969MOL0     C33602   2.613   6.575   6.006  0.0704  0.4687 -0.6277
  969MOL0     C33603   2.585   6.538   6.139 -1.4805  0.0485  0.9459
  969MOL0     C33604   2.658   6.439   6.240  1.3496 -1.1678 -0.2784
  969MOL0     C33605   2.589   6.300   6.219  0.5157  0.1490 -0.2931
  969MOL0     C33606   2.612   6.217   6.346 -0.2699 -0.6012  0.4059
  969MOL0     C33607   2.750   6.138   6.332  0.5694 -0.2714  0.1413
  969MOL0     O33608   2.758   6.064   6.205 -0.7213 -0.2538  0.0754
  969MOL0     C33609   2.875   6.019   6.150  0.1953 -1.1514 -0.3417
  969MOL0     C33610   2.995   6.038   6.207 -1.6328 -0.3937  0.4317
  969MOL0     C33611   3.114   5.995   6.133 -0.2797 -0.2178 -0.9460
  969MOL0     C33612   3.243   5.998   6.212 -0.3222 -0.7506 -0.8194
  969MOL0     C33613   3.111   5.940   6.003 -0.8456 -0.0474 -0.5806
  969MOL0     C33614   3.222   5.870   5.931 -0.1003 -0.3269  0.8481
  969MOL0     O33615   3.250   5.903   5.801 -0.6514 -0.6242  0.5304
  969MOL0     C33616   3.354   5.850   5.727  0.9185  0.1384 -0.3445
  969MOL0     C33617   3.400   5.923   5.626  0.6160  1.3717  1.0194
  969MOL0     C33618   3.506   5.879   5.539  0.2065  1.6523 -0.1729
  969MOL0     C33619   3.556   5.745   5.550  0.5708  0.1146 -0.0391
  969MOL0     O33620   3.654   5.694   5.463  0.1593 -0.3056 -0.6453
  969MOL0     C33621   3.752   5.620   5.540  0.5373  0.2544  0.4980
  969MOL0     C33622   3.871   5.630   5.453 -0.2716  0.4208 -0.2452
  969MOL0     C33623   3.868   5.588   5.306  0.4618  0.3116 -0.0832
  969MOL0     C33624   3.843   5.718   5.228  1.0910 -0.2412 -0.3788
  969MOL0     C33625   3.824   5.709   5.082 -0.0137  0.2365  0.2472
  969MOL0     C33626   3.812   5.845   5.004  0.5355 -0.2712  0.0710
  969MOL0     C33627   3.807   5.820   4.852  1.2796  0.0957 -0.5335
  969MOL0     C33628   3.795   5.957   4.776 -0.4072  0.1975 -0.6983
  969MOL0    Cl33629   3.650   6.029   4.836  0.0513  0.2337 -0.0513
  969MOL0     C33630   3.502   5.672   5.659 -1.2942  0.0181 -1.5564
  969MOL0     C33631   3.411   5.722   5.748  0.0147 -0.0612 -0.0128
  969MOL0     O33632   3.278   5.781   6.001  0.1449  0.5657  0.5215
  969MOL0     C33633   2.985   5.942   5.949 -0.6472  0.7736  0.3816
  969MOL0     C33634   2.869   5.971   6.019 -0.1644  0.8942 -0.2318
  969MOL0     N33635   2.481   6.604   6.177  0.8195 -0.0124  0.3073
  969MOL0     N33636   2.438   6.679   6.090  0.3102  0.2013 -0.7314
  969MOL0     C33637   2.433   6.707   4.876 -0.2193 -0.8422 -0.5244
  969MOL0     C33638   2.455   6.664   4.746 -0.2627 -0.3869 -0.4338
  969MOL0     C33639   2.555   6.709   4.298 -0.3034 -1.3520  0.9011
  969MOL0     C33640   2.437   6.650   4.243  0.0066  0.0792  0.5903
  969MOL0     C33641   2.450   6.578   4.120 -0.9880 -0.1378 -0.9490
  969MOL0     C33642   2.575   6.569   4.061 -0.1981  0.3698  0.4395
  969MOL0     O33643   2.581   6.489   3.951 -0.2299  0.3194 -0.5327
  969MOL0     C33644   2.681   6.510   3.854  0.2327  0.3203 -0.7066
  969MOL0     C33645   2.649   6.413   3.742  0.8149  1.0668 -0.5766
  969MOL0     C33646   2.526   6.465   3.660  0.8497  1.0187 -0.4429
  969MOL0     C33647   2.391   6.412   3.700 -0.3646 -0.2068 -1.4000
  969MOL0     C33648   2.279   6.470   3.626  0.1035 -1.4881 -0.0056
  969MOL0     C33649   2.194   6.538   3.560  0.1344  0.5528 -0.5430
  969MOL0     C33650   2.688   6.643   4.106  0.0287  1.2695 -0.7115
  969MOL0     C33651   2.677   6.704   4.230  0.9998 -0.4855  0.3423
  969MOL0     C33652   2.787   6.785   4.293  0.5240  0.2654 -0.7838
  969MOL0     H33653   2.684   6.872   4.640  0.6674  2.3558  1.4425
  969MOL0     H33654   2.613   6.986   4.859 -0.1417  0.7901  3.0777
  969MOL0     H33655   2.512   7.016   5.188 -4.0576 -2.2698 -0.8963
  969MOL0     H33656   2.628   7.029   5.055 -0.4747  1.0006  0.1807
  969MOL0     H33657   2.642   6.772   5.179  1.1915  0.6674 -0.4464
  969MOL0     H33658   2.761   6.908   5.202  0.0096  0.4922  0.4243
  969MOL0     H33659   2.621   7.002   5.386 -1.9856  0.3215 -2.0342
  969MOL0     H33660   2.496   6.873   5.364 -1.0628  1.0722  1.1108
  969MOL0     H33661   2.687   6.718   5.424 -2.4415 -0.1807  0.3400
  969MOL0     H33662   2.784   6.862   5.466  1.6327 -3.3809 -2.2113
  969MOL0     H33663   2.510   6.786   5.594 -0.4714  1.0853  2.4339
  969MOL0     H33664   2.589   6.933   5.611 -0.1159  0.6109 -2.8920
  969MOL0     H33665   2.692   6.661   5.697 -1.7294  0.3258  0.5537
  969MOL0     H33666   2.804   6.793   5.690  0.6307 -0.8444  1.6313
  969MOL0     H33667   2.628   6.924   5.820  1.5420  0.1459  1.3539
  969MOL0     H33668   2.726   6.811   5.906 -0.5909  5.5982  1.9261
  969MOL0     H33669   2.449   6.832   5.913  0.6961 -0.4453  2.1798
  969MOL0     H33670   2.473   6.714   5.785  3.7568  0.0232 -2.1065
  969MOL0     H33671   2.691   6.520   5.954  1.9389 -1.1846  3.4531
  969MOL0     H33672   2.638   6.484   6.338  0.7566 -0.9565 -0.4906
  969MOL0     H33673   2.766   6.426   6.229  1.8158  0.5913  1.5392
  969MOL0     H33674   2.483   6.304   6.191  0.5458 -0.3351 -0.4791
  969MOL0     H33675   2.627   6.247   6.131 -3.0004 -4.4442  0.5936
  969MOL0     H33676   2.616   6.276   6.438 -0.4907 -0.5971  0.4129
  969MOL0     H33677   2.529   6.146   6.343 -3.6368  3.0338  0.6620
  969MOL0     H33678   2.821   6.221   6.333 -1.4242  1.5151  1.5172
  969MOL0     H33679   2.759   6.075   6.421  1.8264 -0.8471 -0.3642
  969MOL0     H33680   3.009   6.092   6.300  1.1603 -0.1611 -0.0291
  969MOL0     H33681   3.263   6.106   6.216 -0.1849 -0.7956 -0.1404
  969MOL0     H33682   3.318   5.947   6.151 -0.3649 -0.7685 -0.8575
  969MOL0     H33683   3.241   5.947   6.309  1.0057  0.1834 -0.2746
  969MOL0     H33684   3.347   6.016   5.604 -3.7926 -1.3502 -1.3479
  969MOL0     H33685   3.528   5.949   5.459 -1.1415  2.9957  0.5836
  969MOL0     H33686   3.771   5.658   5.641 -1.0104 -0.0380  0.9262
  969MOL0     H33687   3.706   5.521   5.541 -1.5727  1.0527 -2.7277
  969MOL0     H33688   3.931   5.721   5.466  2.7623 -0.9531 -2.9238
  969MOL0     H33689   3.943   5.553   5.485  0.9456 -0.4898 -4.4677
  969MOL0     H33690   3.778   5.528   5.292  0.3671 -0.8206  3.8866
  969MOL0     H33691   3.961   5.534   5.283  0.3247 -0.1825  0.4767
  969MOL0     H33692   3.934   5.777   5.238  1.7217 -0.5414 -3.4074
  969MOL0     H33693   3.759   5.775   5.267  1.7853  0.1652  0.5644
  969MOL0     H33694   3.917   5.657   5.057 -1.0736 -1.4581 -0.3554
  969MOL0     H33695   3.732   5.650   5.076 -0.9928  1.1045  4.0400
  969MOL0     H33696   3.905   5.900   5.022 -0.4838  0.8033  2.5275
  969MOL0     H33697   3.720   5.893   5.041  0.2867 -2.5969  2.8715
  969MOL0     H33698   3.722   5.756   4.828  1.4647 -0.9360  1.3712
  969MOL0     H33699   3.906   5.783   4.821  3.0055  1.1966  3.0758
  969MOL0     H33700   3.790   5.941   4.668  0.9577  1.5775 -0.9934
  969MOL0     H33701   3.881   6.022   4.795  1.7914 -2.4839 -0.8751
  969MOL0     H33702   3.530   5.570   5.683  0.9595  0.5319 -1.7859
  969MOL0     H33703   3.374   5.657   5.827  0.5817  0.3037  0.5670
  969MOL0     H33704   2.957   5.900   5.853  2.7462  0.8882 -0.7887
  969MOL0     H33705   2.777   5.945   5.967 -0.2827 -2.8706  1.4783
  969MOL0     H33706   2.370   6.653   4.946 -0.7855  1.2548  0.7013
  969MOL0     H33707   2.420   6.564   4.724  2.8745 -1.6065 -0.3843
  969MOL0     H33708   2.342   6.658   4.294  0.4150  1.3468  1.1794
  969MOL0     H33709   2.359   6.536   4.079 -2.8123 -0.8993  3.3119
  969MOL0     H33710   2.672   6.615   3.824 -4.5094  1.3253  3.0118
  969MOL0     H33711   2.786   6.487   3.870  0.6915  2.1530 -0.8194
  969MOL0     H33712   2.622   6.317   3.787  0.0717  1.1015 -0.9265
  969MOL0     H33713   2.744   6.393   3.692  1.1565 -0.7785  0.7006
  969MOL0     H33714   2.524   6.574   3.651  5.6344  1.2314 -1.4795
  969MOL0     H33715   2.537   6.430   3.557  0.9094  1.0858 -0.4592
  969MOL0     H33716   2.380   6.443   3.805 -2.4719 -0.3456 -1.5393
  969MOL0     H33717   2.379   6.304   3.684  0.9643 -0.6454  0.2125
  969MOL0     H33718   2.138   6.584   3.481 -0.8133  0.8900  0.3165
  969MOL0     H33719   2.784   6.636   4.057  0.0071  0.9346 -0.7088
  969MOL0     H33720   2.794   6.768   4.401 -2.5673 -1.3333 -0.7408
  969MOL0     H33721   2.885   6.781   4.244  0.5752  2.8966 -1.0045
  969MOL0     H33722   2.746   6.884   4.272 -0.9096  0.0119  0.6175
  970MOL0     O33723   0.377   5.968   8.908 -0.4004  0.1781 -0.0913
  970MOL0     C33724   0.378   6.071   8.844  0.7641  0.4586  0.7624
  970MOL0     O33725   0.263   6.142   8.823  0.0427 -0.2446  0.5094
  970MOL0     C33726   0.146   6.117   8.892  0.5737  0.1052 -0.3928
  970MOL0     C33727   0.035   6.113   8.812 -0.5696 -0.7633  0.7095
  970MOL0     C33728  -0.099   6.111   8.857 -0.8149  0.7831 -0.5105
  970MOL0     C33729  -0.116   6.100   8.997 -0.4752 -0.4557 -0.1742
  970MOL0     O33730  -0.241   6.078   9.054 -0.4803  1.1088  0.2724
  970MOL0     C33731  -0.335   6.188   9.067 -0.0862 -1.0554 -0.1081
  970MOL0     C33732  -0.291   6.314   9.149 -0.3469 -0.0656 -0.4180
  970MOL0     C33733  -0.261   6.279   9.290  0.6595  0.5177  0.0186
  970MOL0     C33734  -0.248   6.405   9.375 -0.1604  0.0732 -0.1877
  970MOL0     C33735  -0.100   6.456   9.378  0.0636  0.3796 -0.4875
  970MOL0     C33736  -0.085   6.605   9.412  0.1107 -0.1485 -0.0800
  970MOL0     C33737  -0.133   6.686   9.299  0.3309 -0.1361 -0.1101
  970MOL0     C33738  -0.089   6.829   9.295  0.0100  0.1896 -0.0413
  970MOL0     N33739   0.052   6.842   9.251  0.4444  0.3725 -1.1284
  970MOL0     C33740   0.158   6.859   9.338  0.5728  0.6978 -0.4846
  970MOL0     C33741   0.268   6.839   9.261  0.1062  0.2998  0.7509
  970MOL0     C33742   0.416   6.832   9.281 -0.7085  0.2096 -0.3233
  970MOL0     C33743   0.453   6.893   9.419  0.0984 -1.3295 -0.0810
  970MOL0     C33744   0.601   6.899   9.411  0.5459 -0.3472  0.2050
  970MOL0     C33745   0.654   6.978   9.534  0.4781  0.2368  0.1317
  970MOL0     O33746   0.677   7.114   9.487  0.6916  0.3980 -0.1221
  970MOL0     C33747   0.760   7.203   9.553 -0.7181  0.3468  0.4416
  970MOL0     C33748   0.808   7.188   9.684 -0.4632  0.4717  0.3572
  970MOL0     C33749   0.878   7.290   9.754 -0.7743 -0.3260  0.1850
  970MOL0     C33750   0.914   7.265   9.899  0.8078 -0.0301 -0.0731
  970MOL0     C33751   0.921   7.399   9.678  0.0143 -0.1607 -0.3179
  970MOL0     C33752   0.993   7.513   9.746  0.9251 -0.5593  0.2613
  970MOL0     O33753   0.980   7.631   9.681 -0.4806 -0.0482  0.5856
  970MOL0     C33754   0.992   7.747   9.741  0.3231 -0.2569 -0.4898
  970MOL0     C33755   1.124   7.789   9.765  0.8372  0.1562  0.0519
  970MOL0     C33756   1.136   7.915   9.831  0.3721 -0.0820 -0.0524
  970MOL0     C33757   1.034   7.998   9.866  0.7165 -0.0484  0.8007
  970MOL0     O33758   1.055   8.121   9.929 -0.6171  0.6785 -0.6845
  970MOL0     C33759   1.151   8.222   9.893 -0.1874  0.2334  0.1562
  970MOL0     C33760   1.288   8.211   9.968  0.8086 -0.0753  0.6404
  970MOL0     C33761   1.282   8.170  10.120  0.4999  0.7472  0.8198
  970MOL0     C33762   1.419   8.207  10.193  0.4207  0.4722  0.5616
  970MOL0     C33763   1.547   8.123  10.164  1.0538  0.1674 -0.5108
  970MOL0     C33764   1.638   8.183  10.055  0.4445  0.5278 -0.2917
  970MOL0     C33765   1.763   8.087  10.038 -1.0086  0.2673  0.1135
  970MOL0     C33766   1.809   8.087   9.895  0.5292 -0.2169 -1.0283
  970MOL0    Cl33767   1.920   7.959   9.869 -0.1118  0.0471 -0.0798
  970MOL0     C33768   0.902   7.945   9.855 -0.0161 -0.2395  0.2464
  970MOL0     C33769   0.888   7.820   9.794 -0.0115 -0.7420 -0.4104
  970MOL0     O33770   1.069   7.492   9.843 -0.0779  0.1308  0.7353
  970MOL0     C33771   0.868   7.417   9.546  0.6680 -0.5016  0.5076
  970MOL0     C33772   0.780   7.329   9.487 -0.0652  1.5070 -0.1860
  970MOL0     N33773   0.226   6.847   9.125  0.3964  0.2409  0.0148
  970MOL0     N33774   0.101   6.845   9.129  0.3855 -0.2662  0.0291
  970MOL0     C33775  -0.005   6.085   9.088 -0.0014 -0.0104  0.5041
  970MOL0     C33776   0.129   6.103   9.033 -0.0890  0.0236  0.0538
  970MOL0     C33777   0.501   6.130   8.788 -0.4437  0.7685  0.1309
  970MOL0     C33778   0.601   6.032   8.748 -0.3421 -0.2886  0.2232
  970MOL0     C33779   0.719   6.083   8.687 -0.4784  0.3411  0.0239
  970MOL0     C33780   0.744   6.215   8.676 -0.4204 -0.1252  0.5771
  970MOL0     O33781   0.867   6.248   8.624 -0.1147 -0.7600 -1.2745
  970MOL0     C33782   0.911   6.388   8.610  0.0248 -0.0856  0.4095
  970MOL0     C33783   1.068   6.391   8.590  0.4073 -0.4177  0.2717
  970MOL0     C33784   1.104   6.430   8.449  0.1752 -0.2966 -0.4206
  970MOL0     C33785   1.040   6.560   8.387 -0.2035 -0.2598 -0.9326
  970MOL0     C33786   1.053   6.672   8.483  0.1359 -1.4681 -0.8952
  970MOL0     C33787   1.075   6.774   8.550  0.7434  0.4423  0.1905
  970MOL0     C33788   0.644   6.303   8.709  0.4639  0.0774 -0.4264
  970MOL0     C33789   0.531   6.269   8.774  0.8604  0.3548  0.1916
  970MOL0     C33790   0.437   6.380   8.826 -0.6559 -0.3426  0.6118
  970MOL0     H33791   0.058   6.134   8.708  1.9983  4.3583  2.0136
  970MOL0     H33792  -0.184   6.123   8.791 -0.9765  0.8945 -0.2848
  970MOL0     H33793  -0.429   6.143   9.099 -0.5108 -0.8405 -1.0168
  970MOL0     H33794  -0.345   6.221   8.963 -0.1252  0.3033  0.3097
  970MOL0     H33795  -0.198   6.355   9.112  0.0469 -1.7243 -1.3708
  970MOL0     H33796  -0.380   6.376   9.139 -0.3022  0.5171  2.1782
  970MOL0     H33797  -0.348   6.232   9.338  0.8970  0.8522  0.8037
  970MOL0     H33798  -0.183   6.204   9.306  0.6481  0.8151  1.7213
  970MOL0     H33799  -0.312   6.481   9.328  0.0707  0.0703 -0.5097
  970MOL0     H33800  -0.287   6.386   9.475  0.4525  0.0026  0.0435
  970MOL0     H33801  -0.056   6.416   9.286 -1.9913 -0.4457 -1.1720
  970MOL0     H33802  -0.044   6.402   9.455  0.5066 -1.8510 -2.2866
  970MOL0     H33803  -0.138   6.635   9.502  0.8679  0.3113  0.2203
  970MOL0     H33804   0.020   6.630   9.433 -0.2612  1.1591  0.3137
  970MOL0     H33805  -0.241   6.686   9.311  0.3774 -3.4775  1.5173
  970MOL0     H33806  -0.102   6.634   9.208  1.4046 -1.4927  0.9713
  970MOL0     H33807  -0.156   6.900   9.245  0.8198  1.4813  0.6475
  970MOL0     H33808  -0.101   6.876   9.393 -3.2603  0.1141 -0.2850
  970MOL0     H33809   0.159   6.868   9.446 -2.5408  0.6635 -0.3678
  970MOL0     H33810   0.462   6.897   9.206  2.7844 -0.5133  1.0334
  970MOL0     H33811   0.453   6.732   9.258 -1.0599 -0.2944  1.1870
  970MOL0     H33812   0.419   6.997   9.423  0.6141 -1.1834  0.6512
  970MOL0     H33813   0.423   6.836   9.508 -1.6215 -0.7287 -0.2318
  970MOL0     H33814   0.646   6.799   9.413 -1.2135 -1.1970 -0.6811
  970MOL0     H33815   0.644   6.951   9.325  1.2926 -2.0342 -0.4961
  970MOL0     H33816   0.580   6.976   9.616 -0.4341  0.2022 -0.6699
  970MOL0     H33817   0.750   6.935   9.564 -0.1734  0.3092  2.5828
  970MOL0     H33818   0.777   7.104   9.746 -0.7424 -0.7671 -1.3739
  970MOL0     H33819   0.845   7.192   9.943 -1.5764  0.1344 -3.1481
  970MOL0     H33820   0.913   7.356   9.959  3.2872  0.7602 -1.0920
  970MOL0     H33821   1.015   7.224   9.895  0.1962 -1.5456 -4.0205
  970MOL0     H33822   1.210   7.729   9.735  1.2449  1.0156 -0.5689
  970MOL0     H33823   1.240   7.941   9.848 -0.1983  1.6981  0.8731
  970MOL0     H33824   1.177   8.224   9.787  1.3209 -0.7710  0.4671
  970MOL0     H33825   1.109   8.322   9.910 -1.6477  0.2026 -2.7125
  970MOL0     H33826   1.342   8.125   9.926 -3.6883 -3.5888  1.3438
  970MOL0     H33827   1.355   8.296   9.952  0.1680 -0.0690 -2.8555
  970MOL0     H33828   1.269   8.062  10.121 -1.0531  0.8813  3.6880
  970MOL0     H33829   1.202   8.223  10.172 -1.2147  0.0470 -0.9967
  970MOL0     H33830   1.384   8.185  10.294 -0.5450 -1.9441 -0.2412
  970MOL0     H33831   1.440   8.314  10.185  0.3713  0.4784  0.5138
  970MOL0     H33832   1.616   8.126  10.249  2.0443  0.1984 -1.2930
  970MOL0     H33833   1.525   8.016  10.156 -1.3513  0.5422  0.1343
  970MOL0     H33834   1.680   8.279  10.087  1.5722  0.3366 -1.1489
  970MOL0     H33835   1.590   8.206   9.960  2.3535  0.3999 -1.3418
  970MOL0     H33836   1.746   7.983  10.067 -0.7554 -0.0142 -0.6979
  970MOL0     H33837   1.840   8.121  10.107  0.0098 -1.4891 -0.1160
  970MOL0     H33838   1.859   8.181   9.872  1.2242 -0.1741  0.5154
  970MOL0     H33839   1.731   8.053   9.826 -2.4342 -0.7772  2.3089
  970MOL0     H33840   0.813   8.000   9.885 -0.9019 -0.9348 -1.0248
  970MOL0     H33841   0.783   7.801   9.775 -0.4561  0.3642  0.7459
  970MOL0     H33842   0.900   7.507   9.495 -1.4132 -0.7606 -1.4327
  970MOL0     H33843   0.744   7.348   9.386 -2.0875 -2.3458 -0.3948
  970MOL0     H33844  -0.018   6.072   9.195 -0.2178  0.1691  0.5006
  970MOL0     H33845   0.219   6.101   9.093  1.3129  0.3927 -1.9294
  970MOL0     H33846   0.592   5.924   8.761  1.5637 -0.9117 -2.5969
  970MOL0     H33847   0.781   6.002   8.647 -1.7479  0.1118 -1.5951
  970MOL0     H33848   0.859   6.448   8.536  0.9088  3.6217  2.5350
  970MOL0     H33849   0.897   6.439   8.706 -0.5113  0.9832 -0.2290
  970MOL0     H33850   1.097   6.289   8.616 -3.7234 -1.6151  0.8380
  970MOL0     H33851   1.117   6.454   8.665  0.8651  1.5856 -1.6074
  970MOL0     H33852   1.212   6.441   8.436  0.5854  0.1380  2.5511
  970MOL0     H33853   1.077   6.343   8.388 -0.3015 -0.5043  0.0722
  970MOL0     H33854   0.946   6.537   8.337  0.0756 -1.4830 -0.9184
  970MOL0     H33855   1.103   6.579   8.300 -3.0697 -1.8787 -3.5244
  970MOL0     H33856   1.091   6.866   8.602  0.3743  0.0363  1.0381
  970MOL0     H33857   0.670   6.409   8.707 -1.6354  0.7003  1.3014
  970MOL0     H33858   0.359   6.389   8.750 -3.6117  3.2039  3.6910
  970MOL0     H33859   0.391   6.352   8.921  0.2490 -1.6191  0.7093
  970MOL0     H33860   0.500   6.470   8.825 -1.0162  0.0226 -2.9063
  971MOL0     O33861   3.472   1.835   2.414  0.3840  0.2268 -0.1773
  971MOL0     C33862   3.459   1.778   2.308  0.0799 -0.1290 -1.0944
  971MOL0     O33863   3.518   1.827   2.191  0.1976 -0.6939 -0.4844
  971MOL0     C33864   3.596   1.945   2.201  0.9348  0.7071  0.0373
  971MOL0     C33865   3.702   1.967   2.293  0.4135  0.0634 -0.1219
  971MOL0     C33866   3.762   2.090   2.310  0.5617  0.7692 -0.9703
  971MOL0     C33867   3.717   2.197   2.228 -0.6095 -0.2209  0.1403
  971MOL0     O33868   3.778   2.318   2.230 -0.4066  0.1502  0.1125
  971MOL0     C33869   3.894   2.342   2.306  0.0399 -0.6878  0.7341
  971MOL0     C33870   3.935   2.489   2.280 -0.2195  0.7018 -0.6233
  971MOL0     C33871   3.825   2.582   2.325  0.1766  0.6236  1.1545
  971MOL0     C33872   3.892   2.716   2.352  0.0421 -0.4504 -0.0562
  971MOL0     C33873   3.797   2.834   2.378 -0.6679 -0.6007  0.6213
  971MOL0     C33874   3.726   2.829   2.511 -0.2270  0.1690  0.2650
  971MOL0     C33875   3.632   2.952   2.534 -0.3818  0.1619 -0.5595
  971MOL0     C33876   3.493   2.913   2.607 -0.4837  0.0020 -0.9912
  971MOL0     N33877   3.409   2.831   2.517 -0.2692  0.1889  0.3904
  971MOL0     C33878   3.414   2.691   2.516 -0.7523  0.6839 -0.2640
  971MOL0     C33879   3.326   2.647   2.419 -0.3932  1.1045  0.7657
  971MOL0     C33880   3.289   2.505   2.383 -0.1914  0.0608 -0.8416
  971MOL0     C33881   3.362   2.440   2.268  0.9540 -0.0747  0.1038
  971MOL0     C33882   3.308   2.484   2.125 -0.0071 -0.1841 -0.6612
  971MOL0     C33883   3.370   2.409   2.007 -0.8468  1.1123 -0.4518
  971MOL0     O33884   3.501   2.455   1.987  0.2965  0.1922  0.2653
  971MOL0     C33885   3.571   2.432   1.870 -0.5832 -0.1244  0.0064
  971MOL0     C33886   3.709   2.453   1.879 -0.1861  0.1909  0.4682
  971MOL0     C33887   3.799   2.447   1.776 -0.1124 -0.5462 -0.0842
  971MOL0     C33888   3.940   2.480   1.803  1.1608  0.2240 -0.5093
  971MOL0     C33889   3.750   2.413   1.650  0.2778  0.8085  0.4272
  971MOL0     C33890   3.833   2.412   1.518 -0.2985  0.4142 -1.0091
  971MOL0     O33891   3.764   2.381   1.405 -0.4161  0.0404 -0.0054
  971MOL0     C33892   3.818   2.399   1.283  0.7791 -0.6054 -0.2899
  971MOL0     C33893   3.853   2.283   1.224 -0.6044 -0.2760  0.7198
  971MOL0     C33894   3.895   2.292   1.089  0.1714  0.4510  0.6763
  971MOL0     C33895   3.906   2.411   1.024 -0.8491  0.0382  0.5132
  971MOL0     O33896   3.933   2.430   0.886 -1.0650 -0.1412  0.1780
  971MOL0     C33897   3.995   2.324   0.816 -0.5661 -0.6319 -0.1557
  971MOL0     C33898   4.048   2.383   0.688 -0.3306 -0.8032  0.1072
  971MOL0     C33899   4.157   2.478   0.701 -0.2487 -0.0587  0.6202
  971MOL0     C33900   4.171   2.575   0.589 -0.9654 -0.5628 -0.0903
  971MOL0     C33901   4.296   2.660   0.616 -0.4265  0.7074 -0.0804
  971MOL0     C33902   4.355   2.721   0.484 -0.2382  0.1531 -0.2941
  971MOL0     C33903   4.455   2.846   0.523 -0.1505 -0.8831 -0.0689
  971MOL0     C33904   4.391   2.981   0.546 -0.0880  0.1465  0.2918
  971MOL0    Cl33905   4.337   2.987   0.711  0.4130  0.2915 -0.7506
  971MOL0     C33906   3.883   2.529   1.095  0.3550  1.0049 -0.4111
  971MOL0     C33907   3.838   2.521   1.226  0.4967 -0.8201  0.3139
  971MOL0     O33908   3.956   2.428   1.529  0.4692 -0.3382 -0.0263
  971MOL0     C33909   3.609   2.392   1.640 -0.3295  0.5559 -0.6029
  971MOL0     C33910   3.515   2.411   1.743 -0.4879  0.0165 -0.0312
  971MOL0     N33911   3.272   2.759   2.359 -0.5309 -0.2024 -0.5723
  971MOL0     N33912   3.321   2.868   2.422  0.2833  0.0523 -0.2800
  971MOL0     C33913   3.632   2.169   2.125  0.3980 -0.2703 -0.1943
  971MOL0     C33914   3.570   2.050   2.107 -0.0414  0.5283 -0.1150
  971MOL0     C33915   3.353   1.676   2.303  0.5479  0.8922  0.5826
  971MOL0     C33916   3.302   1.654   2.180  0.0769  0.4133  1.4304
  971MOL0     C33917   3.177   1.581   2.173  0.3260 -0.1354 -0.2198
  971MOL0     C33918   3.117   1.509   2.278 -0.7567 -0.3042  0.4670
  971MOL0     O33919   2.999   1.432   2.278  0.3512 -0.4073  0.1857
  971MOL0     C33920   2.929   1.428   2.150 -0.1552 -0.1030  0.2902
  971MOL0     C33921   2.816   1.329   2.161  0.9781  0.3828 -0.5012
  971MOL0     C33922   2.756   1.316   2.022  0.4748 -0.6785  0.3299
  971MOL0     C33923   2.842   1.213   1.934 -0.5402 -0.3326  1.1280
  971MOL0     C33924   2.947   1.271   1.845  0.3567  0.4345  0.1875
  971MOL0     C33925   3.039   1.315   1.774  1.0545  0.6214  0.4061
  971MOL0     C33926   3.185   1.524   2.396 -0.1668 -0.3868  0.0317
  971MOL0     C33927   3.297   1.610   2.417 -0.4571 -0.0322  0.1869
  971MOL0     C33928   3.345   1.616   2.560 -0.1883 -0.0620 -0.2508
  971MOL0     H33929   3.730   1.886   2.360  3.2070  1.4847  0.5781
  971MOL0     H33930   3.829   2.111   2.393 -1.5045 -1.7700  1.5463
  971MOL0     H33931   3.974   2.277   2.269  0.8729  0.0798  1.1615
  971MOL0     H33932   3.871   2.321   2.411  0.8482  0.2163  1.1026
  971MOL0     H33933   4.023   2.502   2.344 -0.3704 -1.4052  0.0941
  971MOL0     H33934   3.977   2.515   2.182  4.4852 -3.7331 -0.1869
  971MOL0     H33935   3.750   2.590   2.245  2.2118 -2.7841 -1.3690
  971MOL0     H33936   3.779   2.544   2.417  1.6565 -2.4362  0.7413
  971MOL0     H33937   3.962   2.714   2.436  1.3981 -0.2662 -1.1495
  971MOL0     H33938   3.945   2.751   2.263 -1.3059  0.0491 -0.6899
  971MOL0     H33939   3.731   2.842   2.291  1.0616 -0.6482 -0.7494
  971MOL0     H33940   3.860   2.922   2.391 -0.9882 -0.1204 -0.9243
  971MOL0     H33941   3.671   2.735   2.501 -0.9568  0.7705 -1.9089
  971MOL0     H33942   3.806   2.815   2.584  0.7176  0.3008 -0.7318
  971MOL0     H33943   3.616   3.015   2.446 -0.5386  0.2889 -0.4404
  971MOL0     H33944   3.687   3.011   2.608 -1.5946  0.4687  0.1264
  971MOL0     H33945   3.511   2.858   2.700  0.2457  2.0600  0.1632
  971MOL0     H33946   3.433   3.001   2.635  1.2024  0.0908  2.9984
  971MOL0     H33947   3.474   2.622   2.574 -1.2935  1.0148  0.6947
  971MOL0     H33948   3.182   2.497   2.363 -0.0058 -2.1198 -1.2544
  971MOL0     H33949   3.303   2.444   2.473  0.9934  0.2202 -0.9096
  971MOL0     H33950   3.471   2.444   2.269  1.1451  0.3328 -3.9635
  971MOL0     H33951   3.333   2.336   2.290 -0.3445 -0.3025 -2.2537
  971MOL0     H33952   3.200   2.467   2.128  0.2423 -1.7372  0.5948
  971MOL0     H33953   3.329   2.591   2.112 -0.5696  0.1545  0.9592
  971MOL0     H33954   3.374   2.305   2.041  1.7533  0.8805 -1.2282
  971MOL0     H33955   3.307   2.407   1.918 -0.8468 -3.9426 -0.6313
  971MOL0     H33956   3.740   2.481   1.979 -0.7908  3.7930 -0.1902
  971MOL0     H33957   3.957   2.488   1.910  0.6691 -0.0215 -0.4118
  971MOL0     H33958   3.969   2.563   1.737  1.9702 -0.3614 -0.9094
  971MOL0     H33959   4.016   2.406   1.779  2.3477  1.4888 -0.8298
  971MOL0     H33960   3.842   2.190   1.279 -0.0341 -0.4578  0.5276
  971MOL0     H33961   3.910   2.197   1.038 -1.5776 -1.3248  3.1701
  971MOL0     H33962   4.079   2.288   0.875  0.6382  2.2135  0.0390
  971MOL0     H33963   3.918   2.249   0.796 -1.5841  0.4649 -0.4723
  971MOL0     H33964   4.089   2.299   0.631  0.1775 -0.9843  0.7280
  971MOL0     H33965   3.973   2.432   0.625 -1.3055 -0.2729  1.6109
  971MOL0     H33966   4.251   2.424   0.714  0.5842  0.9802 -0.8454
  971MOL0     H33967   4.121   2.540   0.784 -4.9438 -1.7481  0.1613
  971MOL0     H33968   4.086   2.643   0.582 -0.7808 -0.2908  0.3138
  971MOL0     H33969   4.176   2.513   0.498 -0.9109  1.9902 -1.9164
  971MOL0     H33970   4.255   2.731   0.688 -0.8383 -1.5179  2.0217
  971MOL0     H33971   4.382   2.604   0.654 -1.0086  0.4040  0.8345
  971MOL0     H33972   4.273   2.756   0.420 -0.2412  0.0317 -0.3566
  971MOL0     H33973   4.423   2.654   0.431  0.5629  3.0133 -3.1969
  971MOL0     H33974   4.523   2.865   0.439  1.3405 -2.4934  0.7076
  971MOL0     H33975   4.519   2.823   0.608 -0.8558 -2.5104  0.0640
  971MOL0     H33976   4.314   2.993   0.469  0.5420 -1.3315 -0.6095
  971MOL0     H33977   4.461   3.063   0.532  0.3115  0.8836  5.1109
  971MOL0     H33978   3.901   2.630   1.059  2.2003  1.1260  0.7074
  971MOL0     H33979   3.811   2.607   1.286  2.2179 -1.1950  1.7118
  971MOL0     H33980   3.559   2.371   1.546  0.1637  0.3316 -0.8242
  971MOL0     H33981   3.413   2.399   1.708  0.2370  0.2740 -2.3856
  971MOL0     H33982   3.602   2.248   2.056 -0.6118 -1.3869 -1.0978
  971MOL0     H33983   3.496   2.044   2.028  1.7826 -1.8028 -1.8038
  971MOL0     H33984   3.326   1.706   2.088  0.1062 -2.1048 -0.0742
  971MOL0     H33985   3.132   1.571   2.075  1.3822  2.1930 -1.0175
  971MOL0     H33986   2.891   1.527   2.126  2.5260  0.9214 -0.1376
  971MOL0     H33987   2.983   1.397   2.060 -2.3640  1.0917 -1.5418
  971MOL0     H33988   2.734   1.374   2.218  0.3217 -1.1519 -0.1548
  971MOL0     H33989   2.851   1.240   2.216 -4.4841 -1.4614  0.6811
  971MOL0     H33990   2.662   1.261   2.021  0.0275  0.0904 -0.4553
  971MOL0     H33991   2.736   1.410   1.971  0.2102 -0.7242  0.3501
  971MOL0     H33992   2.775   1.150   1.876 -0.0452 -0.8101  1.0679
  971MOL0     H33993   2.885   1.149   2.012 -2.6808 -2.5977  0.5652
  971MOL0     H33994   3.116   1.375   1.732  0.0251  3.4466  2.2528
  971MOL0     H33995   3.142   1.473   2.482 -0.6626 -1.1030 -0.6232
  971MOL0     H33996   3.330   1.721   2.588  1.5051 -0.2668  1.6164
  971MOL0     H33997   3.280   1.553   2.620 -3.5913 -0.3478 -3.8422
  971MOL0     H33998   3.452   1.596   2.567 -0.6435 -2.2366  1.6698
  972MOL0     O33999   0.839   8.670  11.492 -0.4806  0.2508 -0.4227
  972MOL0     C34000   0.790   8.646  11.379  0.0309 -1.1550 -0.0669
  972MOL0     O34001   0.858   8.578  11.274  0.6401 -0.6133  1.1741
  972MOL0     C34002   0.995   8.575  11.290 -0.2568 -0.5251  0.2414
  972MOL0     C34003   1.082   8.652  11.212 -0.1638 -1.0503 -0.5698
  972MOL0     C34004   1.223   8.663  11.236  0.2638  0.8945 -0.0597
  972MOL0     C34005   1.280   8.579  11.333  0.6701  0.1211  0.1330
  972MOL0     O34006   1.413   8.576  11.358  0.2712  0.1987  0.4024
  972MOL0     C34007   1.486   8.700  11.338 -0.2364 -0.4319  0.2917
  972MOL0     C34008   1.614   8.707  11.424  0.6824  0.2566  0.2614
  972MOL0     C34009   1.695   8.583  11.390 -0.1899 -0.9149 -0.0884
  972MOL0     C34010   1.810   8.580  11.492  0.5924  0.1007 -0.2096
  972MOL0     C34011   1.890   8.455  11.443  0.0599  0.3962 -0.7903
  972MOL0     C34012   1.969   8.399  11.560  0.6710 -0.7947  0.5008
  972MOL0     C34013   2.071   8.505  11.593 -0.6804  0.5649 -0.4619
  972MOL0     C34014   2.167   8.436  11.694  0.6839  0.1146 -0.2782
  972MOL0     N34015   2.106   8.385  11.828  0.2358 -0.2243  0.0963
  972MOL0     C34016   2.084   8.253  11.867  0.1643 -0.6305  1.6020
  972MOL0     C34017   2.016   8.263  11.987 -0.2253 -0.8932 -0.1949
  972MOL0     C34018   1.968   8.161  12.068  0.0839  0.2048 -0.0915
  972MOL0     C34019   1.866   8.070  11.993 -0.4870 -0.7711 -0.9943
  972MOL0     C34020   1.808   7.963  12.087  0.6225  1.0418  0.7275
  972MOL0     C34021   1.921   7.852  12.119  0.3020 -0.6751 -0.0819
  972MOL0     O34022   1.867   7.748  12.199  0.0373 -0.1146 -0.1577
  972MOL0     C34023   1.807   7.655  12.123 -0.3676 -0.0351 -1.1371
  972MOL0     C34024   1.898   7.567  12.061 -0.1504 -0.6413 -0.0436
  972MOL0     C34025   1.850   7.468  11.987 -0.5144 -0.5291  1.2628
  972MOL0     C34026   1.960   7.387  11.908  0.5301 -0.1011 -0.2604
  972MOL0     C34027   1.714   7.445  11.975  0.0134  1.0382  0.1858
  972MOL0     C34028   1.654   7.345  11.876 -0.8144 -0.5443 -1.1729
  972MOL0     O34029   1.522   7.347  11.870 -0.4009  0.6840  0.1069
  972MOL0     C34030   1.456   7.275  11.774  0.1494 -0.2758 -0.6327
  972MOL0     C34031   1.414   7.334  11.656  0.1154  1.2439 -0.0757
  972MOL0     C34032   1.325   7.263  11.566 -0.3878  0.4152 -0.0077
  972MOL0     C34033   1.301   7.128  11.590  0.0462  0.2339  1.1891
  972MOL0     O34034   1.236   7.056  11.501  0.2634  0.0981  0.6695
  972MOL0     C34035   1.096   7.086  11.492 -0.5277  0.1627  0.1372
  972MOL0     C34036   1.040   6.985  11.394  0.1598  0.3249 -0.3828
  972MOL0     C34037   1.001   7.068  11.273 -0.1069 -0.8679 -0.4832
  972MOL0     C34038   0.934   6.961  11.177  0.6667 -0.3438  0.7536
  972MOL0     C34039   1.028   6.853  11.119 -0.5880  0.1021  0.2051
  972MOL0     C34040   0.980   6.799  10.979  0.3825 -0.3748  0.1868
  972MOL0     C34041   1.056   6.678  10.915  0.0832 -0.0445  0.2375
  972MOL0     C34042   1.039   6.559  10.998  0.3271  0.4154 -0.1942
  972MOL0    Cl34043   0.865   6.503  10.994  0.1332  0.6368  0.4317
  972MOL0     C34044   1.359   7.062  11.711  0.6063 -0.1752  0.1650
  972MOL0     C34045   1.431   7.138  11.806  0.3025 -0.3234 -0.0470
  972MOL0     O34046   1.728   7.276  11.810  0.4623  0.0281  0.1991
  972MOL0     C34047   1.626   7.519  12.057 -0.5623  1.0445  0.1634
  972MOL0     C34048   1.675   7.626  12.131  0.3673 -1.1253  0.6605
  972MOL0     N34049   2.010   8.392  12.021 -0.0450  0.0486 -0.6142
  972MOL0     N34050   2.078   8.465  11.931 -0.1103  0.4161  0.4240
  972MOL0     C34051   1.201   8.493  11.412 -0.1116  0.0769  1.0550
  972MOL0     C34052   1.056   8.502  11.391 -1.1291  0.8284 -1.0494
  972MOL0     C34053   0.652   8.665  11.360  0.1584 -0.3154 -0.3163
  972MOL0     C34054   0.582   8.560  11.324 -0.0481  1.0673  0.2005
  972MOL0     C34055   0.443   8.566  11.311 -0.0223 -0.5691  0.1434
  972MOL0     C34056   0.369   8.682  11.333 -0.8070 -0.3545  0.1646
  972MOL0     O34057   0.234   8.675  11.331 -0.2037 -1.1054 -0.1919
  972MOL0     C34058   0.157   8.643  11.208  0.4617  0.1378 -0.1138
  972MOL0     C34059   0.010   8.690  11.240  0.3648  0.7365  0.0057
  972MOL0     C34060  -0.078   8.631  11.129 -0.4339  1.1377  0.6359
  972MOL0     C34061  -0.080   8.701  10.996 -0.2733  0.2365  1.3321
  972MOL0     C34062  -0.169   8.825  10.987  1.0316 -0.7205 -0.6753
  972MOL0     C34063  -0.250   8.913  10.969  0.5394 -0.2502 -0.5431
  972MOL0     C34064   0.447   8.794  11.364  0.2253 -0.3597 -0.8971
  972MOL0     C34065   0.587   8.791  11.380 -0.8583 -0.7140  0.6039
  972MOL0     C34066   0.678   8.914  11.401 -0.3830  1.0105 -0.8854
  972MOL0     H34067   1.047   8.712  11.129 -1.0221 -0.1309  0.4351
  972MOL0     H34068   1.290   8.733  11.187  0.5011  1.2686  0.7845
  972MOL0     H34069   1.433   8.791  11.367 -0.2289  0.6940 -2.8598
  972MOL0     H34070   1.502   8.706  11.230 -3.0415  1.7865 -0.1122
  972MOL0     H34071   1.678   8.794  11.410 -0.5337  1.1286 -0.0867
  972MOL0     H34072   1.572   8.700  11.524 -2.1076  0.4044 -0.7981
  972MOL0     H34073   1.637   8.490  11.395  1.0075 -1.9886 -3.3594
  972MOL0     H34074   1.727   8.585  11.285  0.7189  1.5848  0.1637
  972MOL0     H34075   1.866   8.674  11.487  2.1581 -0.7986 -0.1453
  972MOL0     H34076   1.766   8.577  11.592  0.4333 -1.4362 -0.3052
  972MOL0     H34077   1.961   8.478  11.363  0.5921 -0.1532 -0.4818
  972MOL0     H34078   1.821   8.373  11.420 -1.5750  1.5700 -0.2882
  972MOL0     H34079   1.898   8.403  11.643 -0.9263  0.8074 -0.8625
  972MOL0     H34080   2.023   8.305  11.543  0.9866 -0.7911  1.4496
  972MOL0     H34081   2.031   8.593  11.646 -1.3229  0.3211 -0.5351
  972MOL0     H34082   2.138   8.535  11.512  0.4392 -1.6508 -0.4043
  972MOL0     H34083   2.219   8.358  11.637  1.3229  0.9212 -0.8051
  972MOL0     H34084   2.238   8.510  11.730 -0.1588  1.0334 -0.4624
  972MOL0     H34085   2.109   8.160  11.816  1.2608  0.1538  0.6656
  972MOL0     H34086   1.925   8.211  12.155  0.3341 -0.2908  0.3214
  972MOL0     H34087   2.049   8.089  12.083 -1.7780 -1.8261  0.9092
  972MOL0     H34088   1.783   8.127  11.952  0.7934  0.1110 -2.4368
  972MOL0     H34089   1.907   8.026  11.902 -1.7972  0.3095 -2.1585
  972MOL0     H34090   1.783   8.013  12.181  1.3529 -0.7529  1.9422
  972MOL0     H34091   1.721   7.932  12.028  1.6658  0.4845 -0.5555
  972MOL0     H34092   1.974   7.812  12.032  0.0260 -0.1815 -0.4851
  972MOL0     H34093   1.989   7.908  12.183  0.1976  0.2337 -0.7411
  972MOL0     H34094   2.002   7.586  12.083  0.0029  1.0344 -1.8904
  972MOL0     H34095   1.938   7.384  11.801 -0.1983 -0.5200 -0.1051
  972MOL0     H34096   1.949   7.285  11.944  0.7425  0.9875  3.2548
  972MOL0     H34097   2.055   7.438  11.925 -0.1844  1.9938 -1.9818
  972MOL0     H34098   1.433   7.441  11.649  0.1365  1.6318  3.7298
  972MOL0     H34099   1.285   7.319  11.483  0.0989  3.4171  1.6653
  972MOL0     H34100   1.053   7.071  11.591 -0.1087  0.4322  0.3670
  972MOL0     H34101   1.088   7.190  11.459 -1.1754  0.7575  2.0326
  972MOL0     H34102   1.111   6.911  11.354  2.0249  1.2573  1.0536
  972MOL0     H34103   0.954   6.936  11.440  1.9047 -1.1844  1.4483
  972MOL0     H34104   1.084   7.116  11.220  1.2306 -2.6987 -0.1585
  972MOL0     H34105   0.929   7.140  11.312  0.1291 -1.5499  1.3353
  972MOL0     H34106   0.885   7.021  11.099  3.4735  2.0503  0.6569
  972MOL0     H34107   0.851   6.910  11.226 -1.3408  2.3756  0.4420
  972MOL0     H34108   1.128   6.898  11.110 -0.1310 -1.2374 -2.3806
  972MOL0     H34109   1.026   6.773  11.193  1.5253  0.2298  0.4423
  972MOL0     H34110   0.975   6.878  10.904  3.0314 -0.9702 -0.7335
  972MOL0     H34111   0.877   6.761  10.987  0.0462  0.7935  2.2131
  972MOL0     H34112   1.162   6.702  10.900  0.3923  0.7879  3.1045
  972MOL0     H34113   1.019   6.668  10.813  0.2009  2.7637 -0.1451
  972MOL0     H34114   1.061   6.577  11.104  1.3399  3.1079 -0.7676
  972MOL0     H34115   1.103   6.482  10.956  0.1688  0.5751 -0.7281
  972MOL0     H34116   1.321   6.962  11.729 -1.3530  0.9307  2.9072
  972MOL0     H34117   1.452   7.099  11.905 -1.8899 -3.2873 -0.5903
  972MOL0     H34118   1.522   7.489  12.059  0.0218 -1.2637 -0.9420
  972MOL0     H34119   1.613   7.689  12.194  2.8932  2.8467 -0.4433
  972MOL0     H34120   1.237   8.429  11.491 -3.4761 -0.5524  2.2654
  972MOL0     H34121   0.997   8.444  11.461  0.4841  0.5731  0.1700
  972MOL0     H34122   0.628   8.463  11.342 -0.7730  0.5000 -0.8981
  972MOL0     H34123   0.384   8.476  11.297  1.5271 -1.7153  0.6960
  972MOL0     H34124   0.202   8.683  11.118  1.6256  0.9683  0.8054
  972MOL0     H34125   0.148   8.535  11.189  0.1917  0.1118  0.1532
  972MOL0     H34126   0.014   8.800  11.238  1.1821  0.7066 -0.4337
  972MOL0     H34127  -0.033   8.645  11.330 -2.4263  1.5487 -0.8292
  972MOL0     H34128  -0.036   8.533  11.104 -0.7902  0.9617  0.7353
  972MOL0     H34129  -0.183   8.622  11.157 -1.3904 -2.2479 -3.1528
  972MOL0     H34130  -0.113   8.627  10.923  2.2385  0.4515 -0.1335
  972MOL0     H34131   0.021   8.728  10.962 -1.2014 -2.0322 -4.3222
  972MOL0     H34132  -0.328   8.978  10.939  1.3347 -0.0489 -2.2662
  972MOL0     H34133   0.407   8.893  11.383  0.3103 -0.6768  1.1361
  972MOL0     H34134   0.776   8.889  11.358  0.0148 -3.9221  2.0605
  972MOL0     H34135   0.629   8.991  11.342 -0.7053  0.2316 -1.6553
  972MOL0     H34136   0.681   8.940  11.507  0.6144 -2.2303 -0.0076
  973MOL0     O34137  11.079   5.726   1.980  1.0235  0.3902 -0.1499
  973MOL0     C34138  11.138   5.829   1.982  0.7125  0.0563 -0.6227
  973MOL0     O34139  11.169   5.911   1.879  0.1011 -0.5615 -0.2478
  973MOL0     C34140  11.173   5.853   1.753  0.6339  0.4875 -0.3949
  973MOL0     C34141  11.279   5.875   1.675  0.2893 -0.7036 -1.0332
  973MOL0     C34142  11.281   5.832   1.540  0.2693 -0.5823 -0.3951
  973MOL0     C34143  11.176   5.752   1.475 -0.7894  0.2666 -0.6337
  973MOL0     O34144  11.175   5.715   1.342 -0.5930 -0.4396  0.0648
  973MOL0     C34145  11.175   5.578   1.315  0.2811  1.1103  0.3986
  973MOL0     C34146  11.313   5.518   1.277 -0.4896 -0.0804  0.3413
  973MOL0     C34147  11.423   5.536   1.384 -0.1063 -0.3374 -0.9585
  973MOL0     C34148  11.555   5.471   1.364 -1.0055  0.4846  0.3047
  973MOL0     C34149  11.644   5.545   1.270 -0.4242 -0.4650  0.1247
  973MOL0     C34150  11.771   5.474   1.255  0.8376  0.0474  0.9382
  973MOL0     C34151  11.859   5.530   1.154 -0.4931 -0.3316  0.3028
  973MOL0     C34152  12.005   5.471   1.164 -0.8159 -0.4494  1.0108
  973MOL0     N34153  12.062   5.448   1.029 -0.1247 -0.0602 -0.1256
  973MOL0     C34154  12.120   5.541   0.934  0.4483  0.1351 -1.0172
  973MOL0     C34155  12.122   5.466   0.826  0.2048 -0.6643  0.7557
  973MOL0     C34156  12.175   5.531   0.693  0.0754  0.2807 -0.0721
  973MOL0     C34157  12.061   5.613   0.617  0.4702  0.4808  0.4339
  973MOL0     C34158  11.933   5.519   0.594  0.0500  0.4500  0.4296
  973MOL0     C34159  11.825   5.574   0.500 -0.3275  0.2559  0.4986
  973MOL0     O34160  11.889   5.637   0.394  0.3377 -0.5591  0.2986
  973MOL0     C34161  11.817   5.687   0.286 -0.1476  0.2330  0.1655
  973MOL0     C34162  11.863   5.806   0.232  0.0491  0.8164 -0.2331
  973MOL0     C34163  11.808   5.860   0.115 -0.6102 -0.6183  0.5827
  973MOL0     C34164  11.877   5.977   0.042 -0.1651  0.0707 -0.5836
  973MOL0     C34165  11.694   5.803   0.064  0.7613  1.0501  0.2968
  973MOL0     C34166  11.620   5.845  -0.061  0.1092  1.5399  0.6911
  973MOL0     O34167  11.560   5.744  -0.136 -0.4290  0.2934 -0.3693
  973MOL0     C34168  11.504   5.779  -0.252  0.7035 -0.5389  0.4680
  973MOL0     C34169  11.578   5.775  -0.373 -0.0629 -0.3522 -0.0785
  973MOL0     C34170  11.528   5.808  -0.498  0.7600 -0.3074 -0.6116
  973MOL0     C34171  11.400   5.863  -0.508  0.5001 -0.1809 -0.4215
  973MOL0     O34172  11.351   5.926  -0.625 -0.2540 -0.0007 -0.0983
  973MOL0     C34173  11.441   5.954  -0.733  0.5829  0.6910 -0.6657
  973MOL0     C34174  11.405   5.882  -0.857 -0.4513  1.8180 -0.1502
  973MOL0     C34175  11.475   5.945  -0.981  0.0740  0.5765  0.1426
  973MOL0     C34176  11.623   5.912  -0.973  0.7211 -0.0197  0.3456
  973MOL0     C34177  11.707   6.004  -1.069 -0.6742 -0.2644 -0.3912
  973MOL0     C34178  11.709   5.950  -1.215  0.3019 -0.1232 -0.4129
  973MOL0     C34179  11.779   6.054  -1.310 -0.1104  0.6914 -0.3853
  973MOL0     C34180  11.917   6.069  -1.264 -0.9189 -0.4629 -0.4740
  973MOL0    Cl34181  12.033   6.142  -1.391 -0.2463 -0.7545  0.5680
  973MOL0     C34182  11.318   5.865  -0.396 -1.0394  0.5961 -0.2354
  973MOL0     C34183  11.372   5.830  -0.265 -0.1749 -0.9656  0.1652
  973MOL0     O34184  11.609   5.967  -0.072 -0.1321 -0.4728  0.2402
  973MOL0     C34185  11.633   5.689   0.130  0.9567 -0.2344 -1.3563
  973MOL0     C34186  11.693   5.631   0.248  0.1867 -0.4997 -0.0170
  973MOL0     N34187  12.072   5.336   0.841 -0.1413 -1.4195  0.5325
  973MOL0     N34188  12.041   5.328   0.967 -0.1718  0.0604  0.4065
  973MOL0     C34189  11.071   5.724   1.567  1.1711 -0.1560  0.0956
  973MOL0     C34190  11.070   5.774   1.700  0.5656 -0.8557  0.5597
  973MOL0     C34191  11.182   5.870   2.116  0.5168 -0.5249 -0.1797
  973MOL0     C34192  11.117   5.816   2.228  0.9905 -1.1914  0.4625
  973MOL0     C34193  11.144   5.844   2.356 -1.7725  0.7151  0.2849
  973MOL0     C34194  11.240   5.946   2.391 -0.7799 -0.6096 -0.1979
  973MOL0     O34195  11.264   5.984   2.527 -0.3465 -0.1795  0.4781
  973MOL0     C34196  11.208   5.909   2.636 -0.2134 -0.4796 -0.5188
  973MOL0     C34197  11.084   5.975   2.686  0.3287  0.9787 -0.4082
  973MOL0     C34198  11.029   5.876   2.798 -0.4429  0.0304 -0.6953
  973MOL0     C34199  11.120   5.859   2.926 -0.4835 -0.7241  0.0958
  973MOL0     C34200  11.173   5.727   2.940  0.5034  0.2855 -0.0759
  973MOL0     C34201  11.208   5.612   2.945  0.7710 -0.3681  0.1942
  973MOL0     C34202  11.312   5.996   2.275 -0.0752 -0.2181 -0.4994
  973MOL0     C34203  11.291   5.960   2.140  0.9435 -0.2431  0.9675
  973MOL0     C34204  11.370   6.027   2.027  0.5797 -0.6370  0.6091
  973MOL0     H34205  11.360   5.941   1.704  1.1679 -1.8533 -0.7816
  973MOL0     H34206  11.362   5.877   1.484 -0.0364  0.1206 -0.2757
  973MOL0     H34207  11.110   5.558   1.229 -1.7973  0.4040  2.0422
  973MOL0     H34208  11.124   5.511   1.386  2.9768 -2.1922 -0.5204
  973MOL0     H34209  11.296   5.412   1.255  3.1570 -0.4556 -1.2619
  973MOL0     H34210  11.338   5.565   1.181  1.9139 -0.2148  0.8493
  973MOL0     H34211  11.445   5.643   1.378 -2.1612  0.1853 -0.1100
  973MOL0     H34212  11.380   5.502   1.479  3.3511 -1.5737  0.3514
  973MOL0     H34213  11.604   5.444   1.458 -0.5237 -2.1382 -0.6068
  973MOL0     H34214  11.536   5.371   1.323  0.4701  1.2523 -2.5581
  973MOL0     H34215  11.664   5.648   1.300  0.4617 -0.6108  0.0854
  973MOL0     H34216  11.592   5.563   1.176 -1.8081  1.3440  1.1913
  973MOL0     H34217  11.826   5.469   1.349  1.2887  0.0477  0.6770
  973MOL0     H34218  11.754   5.369   1.229 -0.3728 -0.4280  3.3305
  973MOL0     H34219  11.875   5.638   1.155 -1.0873 -0.2237  2.7387
  973MOL0     H34220  11.816   5.504   1.056  4.0963 -0.9208 -1.8389
  973MOL0     H34221  12.068   5.543   1.216 -1.2085 -0.5184  1.5885
  973MOL0     H34222  12.016   5.379   1.222  4.5465  0.0718  1.3405
  973MOL0     H34223  12.148   5.645   0.950  1.2834 -0.3237  0.7063
  973MOL0     H34224  12.205   5.442   0.636  0.7918  0.3178  0.2388
  973MOL0     H34225  12.261   5.592   0.719 -1.0946  0.8198  3.0164
  973MOL0     H34226  12.028   5.698   0.676  2.5638  2.9286 -1.6387
  973MOL0     H34227  12.112   5.646   0.525 -0.0357 -1.9634 -0.8235
  973MOL0     H34228  11.966   5.428   0.545  0.0256  1.3257 -1.3019
  973MOL0     H34229  11.885   5.494   0.689  0.8567 -0.5919  0.5800
  973MOL0     H34230  11.779   5.483   0.458  1.2001  0.7882 -2.6541
  973MOL0     H34231  11.748   5.635   0.547  2.0471  2.6215  1.5382
  973MOL0     H34232  11.953   5.847   0.276 -0.2549  2.7454 -1.2534
  973MOL0     H34233  11.838   6.069   0.085 -2.1897  0.2409 -2.6073
  973MOL0     H34234  11.873   5.972  -0.067 -1.7831  0.6230 -0.5637
  973MOL0     H34235  11.986   5.981   0.057 -0.2659  1.5647 -0.1371
  973MOL0     H34236  11.686   5.762  -0.367  0.5506  3.6748  0.1936
  973MOL0     H34237  11.584   5.801  -0.591 -1.4384 -1.3558 -1.9209
  973MOL0     H34238  11.426   6.060  -0.755 -3.0274 -0.2652 -3.7090
  973MOL0     H34239  11.547   5.940  -0.706  0.1908 -0.7830  0.1961
  973MOL0     H34240  11.446   5.781  -0.852 -3.3686  0.3047 -2.8725
  973MOL0     H34241  11.297   5.879  -0.875 -0.5771 -1.1262  0.6249
  973MOL0     H34242  11.459   6.053  -0.989  0.9041  0.5725 -2.5084
  973MOL0     H34243  11.428   5.891  -1.063 -1.4313  0.4277  1.0703
  973MOL0     H34244  11.634   5.807  -1.000  0.9838 -1.2927  4.5833
  973MOL0     H34245  11.665   5.912  -0.872 -3.5796  0.5221  2.3853
  973MOL0     H34246  11.665   6.104  -1.079 -0.8568 -0.3668 -0.6529
  973MOL0     H34247  11.806   6.012  -1.023 -0.6081  0.7936 -0.7002
  973MOL0     H34248  11.605   5.951  -1.249  0.3177  1.2716 -0.4786
  973MOL0     H34249  11.740   5.845  -1.216 -3.2177 -1.3307 -2.3429
  973MOL0     H34250  11.732   6.153  -1.317  0.8520  1.0674 -1.7845
  973MOL0     H34251  11.761   6.013  -1.410  0.1353 -0.9765  0.2345
  973MOL0     H34252  11.955   5.968  -1.242  0.8823  0.3003  0.1147
  973MOL0     H34253  11.928   6.135  -1.178 -1.9089  0.2961 -0.9178
  973MOL0     H34254  11.216   5.899  -0.407 -1.3161  0.1665  0.8705
  973MOL0     H34255  11.307   5.846  -0.180 -0.7868  4.6793 -0.9868
  973MOL0     H34256  11.541   5.635   0.111  1.4132 -3.1497  3.1627
  973MOL0     H34257  11.663   5.535   0.288  1.8239 -1.3498 -0.7584
  973MOL0     H34258  10.979   5.683   1.527  1.4804 -2.7087  1.7832
  973MOL0     H34259  10.979   5.752   1.755 -0.4052 -1.9904 -1.3823
  973MOL0     H34260  11.046   5.735   2.208 -0.5507  0.4932 -1.3687
  973MOL0     H34261  11.078   5.795   2.427  0.7052 -0.0389  2.2144
  973MOL0     H34262  11.205   5.800   2.626 -3.4896 -0.3463 -2.1795
  973MOL0     H34263  11.290   5.924   2.707  0.1738 -1.7789 -0.6673
  973MOL0     H34264  11.008   5.982   2.607  0.7436  0.1589 -0.8957
  973MOL0     H34265  11.103   6.076   2.723 -0.9017  1.3669 -0.7887
  973MOL0     H34266  10.928   5.908   2.825 -1.6259 -2.4135 -1.9018
  973MOL0     H34267  11.017   5.777   2.752 -1.4255 -1.3302  2.1998
  973MOL0     H34268  11.062   5.870   3.018 -2.8744 -2.1709 -1.1429
  973MOL0     H34269  11.203   5.929   2.919  0.2123 -1.6701 -1.9308
  973MOL0     H34270  11.221   5.506   2.951 -1.2179 -0.9260 -2.7734
  973MOL0     H34271  11.391   6.067   2.297  1.2536 -1.2666 -1.7275
  973MOL0     H34272  11.446   6.086   2.080 -0.3340  0.0603  1.1676
  973MOL0     H34273  11.419   5.963   1.953 -0.0720 -0.0859 -0.3240
  973MOL0     H34274  11.300   6.101   1.989  2.3100  0.7755  0.0294
  974MOL0     O34275   7.666  10.770   9.525 -0.0734 -0.2254  0.0863
  974MOL0     C34276   7.617  10.658   9.505 -0.4481 -0.1952 -0.2692
  974MOL0     O34277   7.577  10.576   9.603  1.1025 -0.7974  0.2659
  974MOL0     C34278   7.602  10.586   9.742 -0.3491 -0.5838  0.1066
  974MOL0     C34279   7.642  10.703   9.811 -0.2435  0.2747 -0.0303
  974MOL0     C34280   7.675  10.688   9.947 -0.6986  0.0769 -0.6783
  974MOL0     C34281   7.699  10.563  10.006 -0.1255 -1.5056 -0.4215
  974MOL0     O34282   7.745  10.568  10.134 -0.5481  0.6386  0.3788
  974MOL0     C34283   7.725  10.464  10.234 -0.7416 -0.2108  0.2096
  974MOL0     C34284   7.663  10.510  10.357 -0.2753 -0.9729  0.1357
  974MOL0     C34285   7.656  10.415  10.480 -0.4484 -0.8398  0.3747
  974MOL0     C34286   7.757  10.457  10.592 -1.3881 -0.6754  0.6669
  974MOL0     C34287   7.744  10.396  10.735  0.5644  0.2441  0.0890
  974MOL0     C34288   7.767  10.246  10.745  0.4182 -0.6758 -0.3976
  974MOL0     C34289   7.802  10.181  10.887 -0.0390 -0.2686  0.0541
  974MOL0     C34290   7.834  10.034  10.887 -0.7850  0.0846  0.3960
  974MOL0     N34291   7.730   9.943  10.940 -0.1366  0.9049 -0.1122
  974MOL0     C34292   7.611   9.894  10.870  0.4768  0.2511 -0.3500
  974MOL0     C34293   7.563   9.806  10.964  0.1083 -0.0560  0.8115
  974MOL0     C34294   7.442   9.721  10.946  0.3822  0.2950  0.3993
  974MOL0     C34295   7.327   9.778  11.023  0.3287  0.0172 -0.5783
  974MOL0     C34296   7.337   9.752  11.167  0.3193  0.5507  0.3881
  974MOL0     C34297   7.205   9.805  11.241  0.2658 -0.3338 -0.9405
  974MOL0     O34298   7.089   9.753  11.174  0.2614 -0.1262  0.4553
  974MOL0     C34299   6.978   9.831  11.195  0.2668  0.6571  0.4590
  974MOL0     C34300   6.874   9.794  11.278  0.0440  0.4127  0.1496
  974MOL0     C34301   6.759   9.873  11.292 -0.9168  0.5104 -0.0984
  974MOL0     C34302   6.654   9.824  11.388 -1.0572  0.2745 -0.2107
  974MOL0     C34303   6.755  10.002  11.237  0.1678  0.3972  0.7546
  974MOL0     C34304   6.649  10.096  11.249  0.5545  0.9038  0.2154
  974MOL0     O34305   6.585  10.150  11.142  0.4030 -0.5224  0.6971
  974MOL0     C34306   6.465  10.219  11.153  1.1227  0.2169  0.4931
  974MOL0     C34307   6.448  10.344  11.099  0.9462 -1.0981 -0.1502
  974MOL0     C34308   6.326  10.416  11.114 -0.1750 -0.1307  0.3678
  974MOL0     C34309   6.224  10.364  11.198  0.1531  0.4550  0.3515
  974MOL0     O34310   6.115  10.442  11.236 -0.6428 -0.5032 -0.0622
  974MOL0     C34311   6.031  10.472  11.121  0.4166 -0.1866 -0.2297
  974MOL0     C34312   5.907  10.392  11.123 -0.4307 -1.3353  0.7349
  974MOL0     C34313   5.917  10.234  11.151  0.0901 -0.6151  0.5238
  974MOL0     C34314   5.947  10.153  11.024 -0.1244  0.6024  1.3615
  974MOL0     C34315   5.938  10.000  11.019  0.1796 -0.3513 -0.5739
  974MOL0     C34316   5.795   9.949  11.069 -0.2469 -0.1882 -0.2197
  974MOL0     C34317   5.686   9.992  10.967  0.0172 -0.4332 -0.8974
  974MOL0     C34318   5.536   9.939  10.995 -0.2160 -0.2856  0.1795
  974MOL0    Cl34319   5.432   9.987  10.847  0.0341  0.5886  0.4517
  974MOL0     C34320   6.245  10.234  11.260 -0.5785  0.1021  0.0761
  974MOL0     C34321   6.354  10.160  11.217 -0.2757 -0.2320 -0.2279
  974MOL0     O34322   6.621  10.124  11.360  0.5037  0.3935 -0.7082
  974MOL0     C34323   6.853  10.024  11.133  0.6878 -0.1355 -0.1853
  974MOL0     C34324   6.964   9.933  11.114 -0.0017 -1.1362 -0.9401
  974MOL0     N34325   7.642   9.808  11.082 -0.9034  0.5818 -1.0103
  974MOL0     N34326   7.742   9.890  11.062 -0.1822  0.0960 -1.0728
  974MOL0     C34327   7.656  10.450   9.935  0.3051 -0.6290 -1.1127
  974MOL0     C34328   7.602  10.466   9.808 -0.6012  0.4201 -0.2790
  974MOL0     C34329   7.611  10.626   9.360 -0.5961 -0.1571 -0.0718
  974MOL0     C34330   7.563  10.728   9.271  0.2600  0.7504  0.6376
  974MOL0     C34331   7.551  10.698   9.134  0.1947  0.1640 -0.2723
  974MOL0     C34332   7.579  10.568   9.091 -1.1190 -1.0873 -0.3648
  974MOL0     O34333   7.560  10.536   8.958  0.1483 -0.5609 -0.7193
  974MOL0     C34334   7.683  10.528   8.885 -0.0555  0.6573 -0.6634
  974MOL0     C34335   7.647  10.532   8.733 -0.8366 -0.6443 -0.1449
  974MOL0     C34336   7.749  10.496   8.635 -0.2863 -0.2886 -0.3144
  974MOL0     C34337   7.878  10.585   8.630  0.6581  0.9043  0.7618
  974MOL0     C34338   7.979  10.567   8.734  0.6032 -0.2503 -0.3237
  974MOL0     C34339   8.061  10.532   8.822  0.8094 -0.2255  0.0804
  974MOL0     C34340   7.627  10.476   9.174 -0.0184  0.2083 -0.7808
  974MOL0     C34341   7.650  10.501   9.307 -0.7157 -0.4950 -0.3195
  974MOL0     C34342   7.684  10.396   9.397 -0.2381  0.3267  0.3559
  974MOL0     H34343   7.631  10.804   9.774  0.7960  0.2467 -0.4277
  974MOL0     H34344   7.693  10.782   9.999  0.9433 -0.1868 -0.6928
  974MOL0     H34345   7.821  10.427  10.269 -0.8267 -0.4899  0.1510
  974MOL0     H34346   7.675  10.374  10.197 -1.0616 -0.6930  1.7636
  974MOL0     H34347   7.702  10.606  10.394  0.1810 -1.1833  0.1953
  974MOL0     H34348   7.560  10.534  10.326 -0.6068  0.2048  2.0082
  974MOL0     H34349   7.561  10.435  10.530 -0.3222 -0.4906  0.4827
  974MOL0     H34350   7.667  10.309  10.455 -1.1761 -0.4934 -1.5398
  974MOL0     H34351   7.862  10.442  10.568 -1.4785 -0.2251 -0.0606
  974MOL0     H34352   7.750  10.563  10.618  0.6170 -0.0192 -1.1884
  974MOL0     H34353   7.643  10.427  10.764 -0.9421 -3.3075 -0.8306
  974MOL0     H34354   7.823  10.434  10.801 -0.9256 -1.5232  3.1331
  974MOL0     H34355   7.676  10.205  10.700 -0.6013  0.4350  0.5977
  974MOL0     H34356   7.850  10.214  10.681  0.9043 -0.6298  0.2085
  974MOL0     H34357   7.710  10.198  10.944  0.3911 -0.9022  0.9420
  974MOL0     H34358   7.884  10.229  10.941 -0.2396 -2.0127  2.0244
  974MOL0     H34359   7.856   9.993  10.788 -0.2226  0.5343  0.3275
  974MOL0     H34360   7.920  10.014  10.952 -0.4337 -1.1118 -0.4139
  974MOL0     H34361   7.572   9.927  10.774 -1.1030 -1.4313 -0.3443
  974MOL0     H34362   7.468   9.621  10.982 -0.5845 -0.3624 -0.6967
  974MOL0     H34363   7.414   9.728  10.841  2.2341 -0.2066 -0.1593
  974MOL0     H34364   7.317   9.886  11.006 -2.1351 -0.3798 -2.3348
  974MOL0     H34365   7.232   9.741  10.981 -0.2609  0.3713  0.4049
  974MOL0     H34366   7.339   9.643  11.179 -0.5852  0.7395  2.6070
  974MOL0     H34367   7.424   9.803  11.210 -0.1213  0.6123  1.2202
  974MOL0     H34368   7.209   9.777  11.346  4.1622 -1.5268 -1.2483
  974MOL0     H34369   7.224   9.913  11.241  1.5753 -0.5382 -1.0661
  974MOL0     H34370   6.891   9.704  11.336  2.4794  0.2419 -0.7326
  974MOL0     H34371   6.672   9.831  11.496 -2.2009 -1.0269  0.0881
  974MOL0     H34372   6.615   9.724  11.366 -0.1957 -1.0932  3.7049
  974MOL0     H34373   6.562   9.881  11.372 -1.1750 -0.3144 -1.8909
  974MOL0     H34374   6.536  10.380  11.047 -0.8010  0.5481 -2.1720
  974MOL0     H34375   6.339  10.513  11.066 -0.1329  0.4239  1.4836
  974MOL0     H34376   6.009  10.579  11.116  1.5795  0.0149 -3.8370
  974MOL0     H34377   6.082  10.455  11.026  1.4652 -2.1977  0.6165
  974MOL0     H34378   5.858  10.430  11.213  0.4036 -2.6903  1.8252
  974MOL0     H34379   5.845  10.413  11.036 -2.8782 -0.4189  2.5696
  974MOL0     H34380   5.819  10.196  11.180  0.3149  0.1669  2.4528
  974MOL0     H34381   5.983  10.203  11.233 -0.4703 -0.1348  1.1614
  974MOL0     H34382   6.050  10.179  11.000 -0.2093  2.7090  3.0476
  974MOL0     H34383   5.889  10.187  10.937  1.3584 -1.3368 -0.4814
  974MOL0     H34384   5.967   9.956  10.924  3.2853 -1.5299  0.7895
  974MOL0     H34385   6.009   9.975  11.098 -0.6127  0.4982  0.4569
  974MOL0     H34386   5.788   9.983  11.172  0.3658  0.8219 -0.5051
  974MOL0     H34387   5.782   9.841  11.085 -0.2055  0.0626  1.6862
  974MOL0     H34388   5.709   9.952  10.867 -2.2748 -3.6340 -0.2985
  974MOL0     H34389   5.680  10.101  10.960  0.7656 -0.0964  2.2833
  974MOL0     H34390   5.493   9.972  11.090 -1.6373 -1.0458 -0.1607
  974MOL0     H34391   5.554   9.832  10.997  2.4370 -0.0726 -2.8967
  974MOL0     H34392   6.170  10.200  11.331 -0.3373 -2.3290 -0.7309
  974MOL0     H34393   6.377  10.064  11.262  2.5049  0.0140 -0.9347
  974MOL0     H34394   6.836  10.110  11.069  3.6461 -1.5022 -3.1315
  974MOL0     H34395   7.021   9.942  11.023  3.3615  0.9085  1.1495
  974MOL0     H34396   7.665  10.352   9.983 -1.9869 -0.2620  0.1992
  974MOL0     H34397   7.564  10.385   9.746 -0.5000  0.8121 -0.8576
  974MOL0     H34398   7.546  10.833   9.294  0.3012  0.4072  2.3898
  974MOL0     H34399   7.519  10.762   9.053  0.8577  0.1146 -0.5854
  974MOL0     H34400   7.752  10.607   8.916 -3.2393  3.1887  0.5903
  974MOL0     H34401   7.722  10.429   8.908  0.8344  1.4654  1.7006
  974MOL0     H34402   7.605  10.629   8.707 -2.0400 -1.3658 -0.9429
  974MOL0     H34403   7.564  10.465   8.710 -1.7126 -0.3871  2.0346
  974MOL0     H34404   7.783  10.394   8.652 -0.7272 -0.6629 -1.5992
  974MOL0     H34405   7.691  10.500   8.542 -1.5570  1.4960  0.4710
  974MOL0     H34406   7.830  10.683   8.623 -2.2207 -0.4974 -4.5077
  974MOL0     H34407   7.928  10.561   8.536  1.4796 -0.6709  1.5522
  974MOL0     H34408   8.137  10.519   8.897  2.1516  1.5699 -0.8918
  974MOL0     H34409   7.645  10.375   9.140  3.0385  0.9426 -1.6304
  974MOL0     H34410   7.585  10.368   9.434 -0.6792  0.9526 -0.3145
  974MOL0     H34411   7.727  10.305   9.355 -1.4879  0.5226 -1.4352
  974MOL0     H34412   7.750  10.428   9.479  1.9918 -2.3337 -0.2783
  975MOL0     O34413   2.569  10.037  10.483  0.5458  0.0588  0.2202
  975MOL0     C34414   2.689  10.003  10.474  0.0424 -0.6133 -0.2777
  975MOL0     O34415   2.742   9.892  10.535  0.4676 -0.9940  0.8099
  975MOL0     C34416   2.667   9.825  10.621 -0.9455 -1.1017  0.9532
  975MOL0     C34417   2.612   9.702  10.586 -0.5304  0.0085 -0.1722
  975MOL0     C34418   2.546   9.624  10.683  0.4135 -0.3055  0.3655
  975MOL0     C34419   2.531   9.678  10.813 -0.0206  0.2837 -0.0342
  975MOL0     O34420   2.490   9.587  10.911  0.0614 -0.0360  0.6849
  975MOL0     C34421   2.584   9.570  11.018  0.1648  0.2036 -0.2114
  975MOL0     C34422   2.573   9.415  11.058  0.3933 -0.7771  0.0078
  975MOL0     C34423   2.582   9.314  10.937 -0.1226  0.4138  0.2264
  975MOL0     C34424   2.703   9.342  10.853 -0.4057  0.1458  0.5982
  975MOL0     C34425   2.702   9.266  10.721 -0.6911  0.6554  0.6788
  975MOL0     C34426   2.796   9.331  10.617  0.1447 -0.2639  0.5151
  975MOL0     C34427   2.798   9.280  10.482 -0.2566 -0.8942  1.0287
  975MOL0     C34428   2.661   9.305  10.410 -0.1611  0.2193  0.0752
  975MOL0     N34429   2.670   9.291  10.265 -0.8314  0.2182  0.1410
  975MOL0     C34430   2.642   9.407  10.188  0.1791  0.5379  0.3844
  975MOL0     C34431   2.668   9.372  10.057 -0.1488 -0.5233 -0.2591
  975MOL0     C34432   2.661   9.448   9.931 -0.3861  0.1196 -0.6314
  975MOL0     C34433   2.764   9.555   9.929 -0.2042  0.2384 -0.2363
  975MOL0     C34434   2.718   9.697   9.974  0.6761 -0.4129 -0.5090
  975MOL0     C34435   2.824   9.793  10.024 -0.9289  0.0175  0.2297
  975MOL0     O34436   2.912   9.837   9.918  0.3596 -0.2148 -0.1270
  975MOL0     C34437   3.020   9.750   9.892 -0.1898  0.5748  0.7949
  975MOL0     C34438   3.018   9.688   9.763 -0.5626 -0.9083  0.5074
  975MOL0     C34439   3.100   9.581   9.729 -0.1080  0.4989  0.0883
  975MOL0     C34440   3.074   9.507   9.596 -0.2294  0.1986  0.8700
  975MOL0     C34441   3.193   9.541   9.829 -0.2444  0.0469 -0.7061
  975MOL0     C34442   3.285   9.426   9.819 -0.2998 -0.5527 -0.3199
  975MOL0     O34443   3.380   9.413   9.921  0.7646  0.6399  0.8191
  975MOL0     C34444   3.458   9.304   9.936  0.2557 -0.3339  0.4490
  975MOL0     C34445   3.564   9.313  10.027 -0.3561  0.8055 -0.6997
  975MOL0     C34446   3.642   9.198  10.066  0.2073 -0.2408  0.7797
  975MOL0     C34447   3.620   9.077  10.006  0.1903  0.4810  0.6539
  975MOL0     O34448   3.701   8.974  10.053  0.2844  0.9210 -0.1029
  975MOL0     C34449   3.623   8.849  10.052  0.0350  0.4317 -0.2905
  975MOL0     C34450   3.725   8.739  10.073  0.6160  0.8163 -0.4493
  975MOL0     C34451   3.800   8.744  10.205 -0.6087  0.1061 -0.1976
  975MOL0     C34452   3.778   8.614  10.283  1.0973 -0.2315  0.4720
  975MOL0     C34453   3.857   8.611  10.403  0.2773 -1.2508  0.7138
  975MOL0     C34454   3.842   8.728  10.508  0.0713  1.6863 -0.4017
  975MOL0     C34455   3.713   8.722  10.583 -0.7158 -0.1116 -0.5012
  975MOL0     C34456   3.720   8.808  10.717 -1.0257 -0.8322  0.5093
  975MOL0    Cl34457   3.562   8.895  10.721 -0.0544  0.1769  0.1034
  975MOL0     C34458   3.510   9.066   9.910  1.0932 -0.9480  0.7541
  975MOL0     C34459   3.422   9.175   9.886  0.1290  0.8842 -0.5689
  975MOL0     O34460   3.273   9.348   9.724  0.4602  0.2232 -0.9041
  975MOL0     C34461   3.190   9.601   9.951  0.0140 -0.0796  0.5235
  975MOL0     C34462   3.112   9.711   9.983 -0.6065 -0.4493 -0.9995
  975MOL0     N34463   2.733   9.247  10.061  0.4341  0.5444  0.8156
  975MOL0     N34464   2.727   9.193  10.182  0.1137  0.2429  0.0921
  975MOL0     C34465   2.593   9.800  10.847  0.2894 -0.3001 -0.0203
  975MOL0     C34466   2.653   9.876  10.746 -0.4653  0.0390 -0.6549
  975MOL0     C34467   2.767  10.081  10.382 -0.2180 -1.1232  0.3652
  975MOL0     C34468   2.713  10.194  10.326  0.2472 -0.6201  0.1961
  975MOL0     C34469   2.762  10.275  10.232 -0.0460 -0.5691 -0.7897
  975MOL0     C34470   2.892  10.249  10.182  0.9691 -0.3545 -0.0359
  975MOL0     O34471   2.938  10.334  10.078 -0.0669 -0.1431  0.7465
  975MOL0     C34472   3.051  10.301   9.998 -0.0934 -0.2869  0.3128
  975MOL0     C34473   2.993  10.208   9.884  0.3309 -1.1040  0.1707
  975MOL0     C34474   3.103  10.189   9.775  0.2577  0.6537 -0.0361
  975MOL0     C34475   3.249  10.208   9.799 -0.1685  0.2940 -0.0077
  975MOL0     C34476   3.295  10.104   9.885  0.6045  0.4461  0.4350
  975MOL0     C34477   3.321  10.018   9.970  0.2592 -0.1803 -0.6185
  975MOL0     C34478   2.954  10.129  10.222  0.2196 -0.3285 -0.7247
  975MOL0     C34479   2.896  10.048  10.321 -0.7769 -0.6753 -0.4581
  975MOL0     C34480   2.962   9.921  10.356  0.6526 -0.2031 -0.2164
  975MOL0     H34481   2.634   9.665  10.486 -0.8555 -2.2453  0.5322
  975MOL0     H34482   2.496   9.527  10.680  0.9383 -0.5993  0.9007
  975MOL0     H34483   2.548   9.629  11.103 -0.8856  0.4493 -0.8109
  975MOL0     H34484   2.691   9.589  11.009  0.9904 -1.6766  3.6586
  975MOL0     H34485   2.660   9.384  11.116  1.4415 -1.5509 -1.8912
  975MOL0     H34486   2.473   9.407  11.102 -0.9642 -1.4635 -2.9409
  975MOL0     H34487   2.592   9.219  10.991  0.2979  1.3470  1.8366
  975MOL0     H34488   2.495   9.315  10.870  0.3733  1.1545 -0.4322
  975MOL0     H34489   2.709   9.448  10.827  0.1202  0.4032  1.7414
  975MOL0     H34490   2.802   9.332  10.898  1.7905  3.0911 -2.9353
  975MOL0     H34491   2.601   9.249  10.682 -0.6001  0.1147  0.6813
  975MOL0     H34492   2.744   9.170  10.751  0.0154  0.1758 -1.6541
  975MOL0     H34493   2.767   9.434  10.596  3.0260  0.1374 -2.3288
  975MOL0     H34494   2.893   9.337  10.666 -0.3262  1.5344  1.3092
  975MOL0     H34495   2.832   9.178  10.500  2.6645 -0.5363 -1.4486
  975MOL0     H34496   2.874   9.334  10.424 -1.3012  2.0189  2.1677
  975MOL0     H34497   2.591   9.225  10.437 -1.3884 -0.4823 -4.3562
  975MOL0     H34498   2.606   9.398  10.427 -1.3317 -0.6082  1.0080
  975MOL0     H34499   2.606   9.500  10.231  0.7296  0.6154  0.6751
  975MOL0     H34500   2.565   9.499   9.918 -0.6931 -0.5807 -1.1682
  975MOL0     H34501   2.672   9.370   9.855 -0.1401 -0.6479  0.1712
  975MOL0     H34502   2.856   9.522   9.977  0.1127  0.6288 -0.5664
  975MOL0     H34503   2.786   9.566   9.822  3.1418 -0.1578  0.3033
  975MOL0     H34504   2.659   9.731   9.888  1.3377  1.5978 -0.2222
  975MOL0     H34505   2.650   9.693  10.059  2.2927  1.5557  0.9604
  975MOL0     H34506   2.765   9.879  10.057  0.0526  0.0751  1.9664
  975MOL0     H34507   2.887   9.741  10.098 -0.7531  0.8526  0.6769
  975MOL0     H34508   2.928   9.712   9.708 -0.0334 -0.5349 -0.2091
  975MOL0     H34509   3.045   9.402   9.610  2.7393 -0.3580  4.1891
  975MOL0     H34510   3.153   9.524   9.522 -1.6478  0.1885 -0.7072
  975MOL0     H34511   2.982   9.549   9.555 -0.5822 -0.2056  1.2423
  975MOL0     H34512   3.577   9.406  10.080 -1.8145 -0.3767  1.9211
  975MOL0     H34513   3.717   9.197  10.145  3.0014  0.5534 -1.6695
  975MOL0     H34514   3.545   8.849  10.128  0.0627 -0.2028 -0.2538
  975MOL0     H34515   3.589   8.820   9.952  0.2620 -0.4948 -0.1087
  975MOL0     H34516   3.683   8.641  10.049  1.6981 -0.6443  3.1077
  975MOL0     H34517   3.797   8.746   9.991  1.4273  0.2912  0.2170
  975MOL0     H34518   3.773   8.834  10.261  0.6227  1.7206 -2.1178
  975MOL0     H34519   3.909   8.744  10.199 -0.4936 -4.1830 -2.4329
  975MOL0     H34520   3.787   8.525  10.220  1.5059  0.0645  0.1155
  975MOL0     H34521   3.674   8.625  10.316  1.5729  0.3092  1.9021
  975MOL0     H34522   3.840   8.513  10.448  0.3926 -0.7437  1.8871
  975MOL0     H34523   3.961   8.608  10.371  0.6777 -0.2419  1.8493
  975MOL0     H34524   3.864   8.826  10.463 -1.4922  2.0947 -0.3238
  975MOL0     H34525   3.922   8.712  10.580  1.2511  2.3327 -1.5065
  975MOL0     H34526   3.699   8.626  10.633  0.7996  0.0815  0.3399
  975MOL0     H34527   3.626   8.744  10.519 -0.4339 -0.0849 -0.8789
  975MOL0     H34528   3.797   8.886  10.726 -0.6215 -1.4801  4.5616
  975MOL0     H34529   3.723   8.756  10.813  3.7139 -0.4119  0.8406
  975MOL0     H34530   3.474   8.975   9.864 -1.4872 -0.9155  2.5356
  975MOL0     H34531   3.335   9.144   9.830  0.6885  0.1112 -1.0255
  975MOL0     H34532   3.260   9.572  10.029 -1.5158 -3.2856  0.8743
  975MOL0     H34533   3.105   9.764  10.077 -1.3126  2.3178 -2.4925
  975MOL0     H34534   2.601   9.836  10.949  0.4132  5.9072 -1.7904
  975MOL0     H34535   2.694   9.975  10.765  0.7156 -0.0566 -2.5031
  975MOL0     H34536   2.611  10.221  10.353 -0.2182 -2.2148  0.1019
  975MOL0     H34537   2.725  10.373  10.200  1.1525  1.5112  3.4557
  975MOL0     H34538   3.093  10.397   9.967  3.7380 -0.9548  2.8339
  975MOL0     H34539   3.128  10.256  10.061 -0.6415 -1.3077  0.2778
  975MOL0     H34540   2.907  10.256   9.836  1.6981  1.2443 -0.0888
  975MOL0     H34541   2.970  10.116   9.938  0.4675 -0.0869  2.0320
  975MOL0     H34542   3.097  10.086   9.740  2.1712  0.2106  0.8383
  975MOL0     H34543   3.056  10.247   9.695 -2.3951  1.5107  1.9746
  975MOL0     H34544   3.283  10.305   9.836 -1.2282 -0.8546  4.6454
  975MOL0     H34545   3.305  10.190   9.706  1.8547  1.8846  0.8198
  975MOL0     H34546   3.342   9.945  10.045  0.8673 -0.1340 -0.7358
  975MOL0     H34547   3.043  10.098  10.168  2.2817  0.7355  1.8482
  975MOL0     H34548   3.052   9.901  10.297  0.6275 -2.6738  0.4871
  975MOL0     H34549   2.998   9.918  10.459  2.4896  3.6388 -0.5609
  975MOL0     H34550   2.889   9.843  10.337  1.5504 -0.8852 -0.9972
  976MOL0     O34551  10.065   2.169   4.313  0.6102 -0.6528  0.2150
  976MOL0     C34552   9.941   2.141   4.302  0.8274  0.7387  0.0781
  976MOL0     O34553   9.846   2.231   4.253  0.3252  0.4873 -0.0767
  976MOL0     C34554   9.882   2.348   4.187 -0.5056 -0.4260 -0.4134
  976MOL0     C34555   9.811   2.456   4.237 -0.0265  1.0412  0.0492
  976MOL0     C34556   9.828   2.586   4.189  0.0223  1.2162  0.1680
  976MOL0     C34557   9.925   2.606   4.105  0.0299 -0.4145 -0.6179
  976MOL0     O34558   9.932   2.735   4.076  0.2549 -0.5176  0.3499
  976MOL0     C34559  10.026   2.770   3.979  0.0715  0.1455  0.5287
  976MOL0     C34560  10.026   2.920   3.955  0.3180  0.6294 -0.3372
  976MOL0     C34561   9.880   2.974   3.910 -0.2979 -0.6415 -0.9779
  976MOL0     C34562   9.897   3.123   3.866 -0.3101 -0.2084 -0.0266
  976MOL0     C34563   9.776   3.187   3.815  0.9597 -0.1425 -0.3193
  976MOL0     C34564   9.819   3.321   3.747 -0.3156  0.3356  0.7251
  976MOL0     C34565   9.712   3.398   3.663  0.0506 -0.1457  0.3745
  976MOL0     C34566   9.758   3.536   3.593  0.0912 -0.2604 -0.6591
  976MOL0     N34567   9.856   3.508   3.481  0.7611 -0.1032 -0.2960
  976MOL0     C34568   9.841   3.554   3.351  0.0719  0.1166  0.4508
  976MOL0     C34569   9.954   3.515   3.290 -0.4910 -0.6276  0.4842
  976MOL0     C34570  10.009   3.547   3.153 -0.0631  0.0332  0.7309
  976MOL0     C34571  10.044   3.697   3.149  0.2801  0.5970 -0.7594
  976MOL0     C34572  10.097   3.748   3.013 -0.1675 -0.1171  0.8286
  976MOL0     C34573   9.980   3.776   2.925 -0.4531  0.2230 -0.6265
  976MOL0     O34574  10.019   3.829   2.796  0.0850 -0.1441  0.3986
  976MOL0     C34575   9.997   3.741   2.705  0.2794  0.6059  0.3350
  976MOL0     C34576  10.073   3.630   2.680 -0.0555 -0.0518 -0.6252
  976MOL0     C34577  10.041   3.537   2.572 -1.0221 -0.3087 -1.3723
  976MOL0     C34578  10.130   3.418   2.564 -0.2385  1.0598 -0.1681
  976MOL0     C34579   9.931   3.558   2.491  1.0970 -0.4193  1.3000
  976MOL0     C34580   9.878   3.458   2.385 -0.8789 -0.6090  0.4230
  976MOL0     O34581   9.876   3.329   2.430 -0.0823 -0.1681  1.3709
  976MOL0     C34582   9.767   3.255   2.382  0.7393  0.4516 -0.5217
  976MOL0     C34583   9.768   3.195   2.258 -1.2600 -1.1914  0.6393
  976MOL0     C34584   9.674   3.093   2.229 -0.0731 -0.0127 -0.1903
  976MOL0     C34585   9.585   3.036   2.322 -0.6822 -0.3253  0.3915
  976MOL0     O34586   9.505   2.930   2.290 -0.1711  0.6215  0.3742
  976MOL0     C34587   9.575   2.811   2.260 -0.6277 -0.4454 -0.6569
  976MOL0     C34588   9.483   2.699   2.237  0.2362 -0.1250  0.8827
  976MOL0     C34589   9.374   2.667   2.345  0.2306 -0.2970 -0.8690
  976MOL0     C34590   9.259   2.581   2.291  1.1122  0.3176 -1.3972
  976MOL0     C34591   9.157   2.561   2.397 -0.2439  0.0882 -0.0914
  976MOL0     C34592   9.045   2.472   2.356  0.4539 -0.1900 -0.3080
  976MOL0     C34593   8.947   2.461   2.481  0.3060  0.1546 -0.1731
  976MOL0     C34594   8.819   2.382   2.432 -0.5108  0.3975  0.0337
  976MOL0    Cl34595   8.885   2.212   2.389 -0.0635  0.4332  0.1531
  976MOL0     C34596   9.575   3.106   2.451 -0.2878  0.3912  0.9077
  976MOL0     C34597   9.664   3.213   2.473 -0.3019 -0.1467 -0.4959
  976MOL0     O34598   9.859   3.493   2.271 -0.8011  0.0284 -0.3754
  976MOL0     C34599   9.855   3.675   2.516 -0.7225  0.9384  0.4999
  976MOL0     C34600   9.883   3.762   2.619 -0.0484 -0.0677  0.3601
  976MOL0     N34601  10.036   3.452   3.381  0.4632  0.4938 -0.3405
  976MOL0     N34602   9.975   3.440   3.494  0.5017 -0.5166  0.1973
  976MOL0     C34603  10.002   2.503   4.044 -0.0395  0.7863  0.6104
  976MOL0     C34604   9.989   2.376   4.091 -0.0437  0.6794 -1.2633
  976MOL0     C34605   9.889   2.009   4.339  0.4856 -0.4028 -0.3537
  976MOL0     C34606   9.750   1.996   4.343  0.2161 -0.4400  0.2205
  976MOL0     C34607   9.683   1.870   4.357  0.0752 -0.1203  0.1509
  976MOL0     C34608   9.753   1.760   4.399 -0.3219  0.7862  0.3704
  976MOL0     O34609   9.701   1.636   4.419  0.9923 -0.2627 -0.0486
  976MOL0     C34610   9.555   1.637   4.445  0.4653 -0.1954  0.0868
  976MOL0     C34611   9.510   1.510   4.510  0.0108  0.2566  0.1517
  976MOL0     C34612   9.565   1.378   4.432 -0.7205  0.3179 -0.1280
  976MOL0     C34613   9.510   1.254   4.481  0.7631 -0.0952 -0.5897
  976MOL0     C34614   9.479   1.258   4.622 -0.3825  0.5573  0.0890
  976MOL0     C34615   9.445   1.259   4.738  0.3672  0.2636  0.1749
  976MOL0     C34616   9.892   1.769   4.421  0.0722  0.2350  0.6884
  976MOL0     C34617   9.960   1.896   4.394 -0.4158  0.1029 -0.0508
  976MOL0     C34618  10.110   1.895   4.419 -0.4294 -1.0937 -1.1667
  976MOL0     H34619   9.742   2.438   4.319  1.2072 -1.0820  0.7033
  976MOL0     H34620   9.769   2.664   4.236  2.1043  2.7982  0.2885
  976MOL0     H34621  10.009   2.725   3.881  0.5283  1.5372 -0.2288
  976MOL0     H34622  10.122   2.742   4.023 -1.4813  0.7895  4.8238
  976MOL0     H34623  10.061   2.969   4.046  2.1894  3.3359 -2.3729
  976MOL0     H34624  10.098   2.942   3.875 -0.8074 -0.6037 -1.7630
  976MOL0     H34625   9.844   2.910   3.829 -1.7875 -0.0745 -0.7882
  976MOL0     H34626   9.804   2.978   3.988  0.8221  1.4248  0.0939
  976MOL0     H34627   9.919   3.177   3.958 -2.0471  0.1677  0.2054
  976MOL0     H34628   9.974   3.124   3.789  1.0603 -0.9292  1.2794
  976MOL0     H34629   9.711   3.205   3.901  0.5820  0.3072 -0.6900
  976MOL0     H34630   9.725   3.123   3.743  2.8953 -1.8862 -0.2398
  976MOL0     H34631   9.854   3.386   3.828 -1.2030 -1.4542  2.6269
  976MOL0     H34632   9.908   3.301   3.687 -0.3260 -1.4312  1.2351
  976MOL0     H34633   9.628   3.421   3.728 -1.6218 -1.5153 -1.1744
  976MOL0     H34634   9.648   3.338   3.597 -0.8715  1.1308  0.0717
  976MOL0     H34635   9.673   3.591   3.551  1.0006 -0.4883 -2.9021
  976MOL0     H34636   9.806   3.594   3.673 -2.1253 -0.1235  0.6759
  976MOL0     H34637   9.763   3.616   3.307 -2.4847 -1.6310  2.1745
  976MOL0     H34638   9.937   3.519   3.076  0.8093  1.1524 -0.5248
  976MOL0     H34639  10.097   3.483   3.143 -0.0079  0.2002  0.1030
  976MOL0     H34640   9.952   3.752   3.172 -0.6470 -0.4993 -1.7446
  976MOL0     H34641  10.116   3.711   3.230 -0.6658 -0.8089  0.3747
  976MOL0     H34642  10.156   3.838   3.035  0.0409  0.3103 -1.2555
  976MOL0     H34643  10.152   3.670   2.959 -0.0867  2.2543 -2.8570
  976MOL0     H34644   9.926   3.681   2.917 -2.2680  1.2189 -0.7343
  976MOL0     H34645   9.909   3.847   2.968 -1.7157 -1.1143 -0.4266
  976MOL0     H34646  10.151   3.616   2.754  1.3136  4.7713 -0.7938
  976MOL0     H34647  10.222   3.430   2.620 -0.6353 -0.5354  0.8973
  976MOL0     H34648  10.164   3.405   2.461  4.2348  0.7964  1.1463
  976MOL0     H34649  10.082   3.335   2.616  0.3830  1.3190  0.8326
  976MOL0     H34650   9.850   3.209   2.189 -3.1202 -2.8809 -2.1099
  976MOL0     H34651   9.677   3.049   2.130  0.0605 -2.2988  0.7876
  976MOL0     H34652   9.619   2.848   2.167  1.1949 -3.4756 -1.1357
  976MOL0     H34653   9.655   2.781   2.328  0.1715 -0.8433 -1.7344
  976MOL0     H34654   9.419   2.723   2.152 -1.5982 -3.3836  1.1887
  976MOL0     H34655   9.541   2.613   2.205 -1.1538 -0.3037 -1.3882
  976MOL0     H34656   9.330   2.761   2.380  1.4767 -0.2364  0.6978
  976MOL0     H34657   9.420   2.619   2.432  1.6081  1.6416 -0.4426
  976MOL0     H34658   9.300   2.485   2.257  0.3283  0.4852 -2.8994
  976MOL0     H34659   9.222   2.637   2.205  0.6971 -1.5036 -2.4457
  976MOL0     H34660   9.202   2.533   2.493  3.4484  0.4531 -1.5376
  976MOL0     H34661   9.118   2.662   2.416  0.2915  0.6654 -1.9082
  976MOL0     H34662   9.081   2.374   2.325 -2.5604 -2.4825  2.7191
  976MOL0     H34663   8.999   2.521   2.269  3.2705  0.5535 -1.4811
  976MOL0     H34664   8.920   2.558   2.523  1.2393  0.0286  0.7622
  976MOL0     H34665   8.996   2.402   2.559 -1.4267  1.6606  2.2144
  976MOL0     H34666   8.769   2.424   2.345  3.0980  2.0806 -1.4645
  976MOL0     H34667   8.760   2.375   2.523  2.5301 -1.1876  2.0737
  976MOL0     H34668   9.510   3.071   2.530 -0.3579 -2.8982 -0.4380
  976MOL0     H34669   9.653   3.239   2.578  2.4166  0.3631 -0.2857
  976MOL0     H34670   9.779   3.704   2.445  1.5469  2.7480 -1.3834
  976MOL0     H34671   9.820   3.848   2.641  1.5126  1.0081  0.8307
  976MOL0     H34672  10.075   2.529   3.967 -0.7057  2.5336  0.5263
  976MOL0     H34673  10.051   2.292   4.063 -1.2657 -0.4056 -0.7933
  976MOL0     H34674   9.691   2.081   4.311  1.5494 -1.0099 -4.4703
  976MOL0     H34675   9.578   1.866   4.332 -0.1981 -0.8335  1.3319
  976MOL0     H34676   9.535   1.721   4.512 -0.5010 -2.6225  3.0517
  976MOL0     H34677   9.504   1.638   4.348 -0.0216 -0.9351  0.3259
  976MOL0     H34678   9.401   1.504   4.519  0.0977 -0.1797  1.1120
  976MOL0     H34679   9.539   1.528   4.614 -1.8822  2.4385  0.3941
  976MOL0     H34680   9.547   1.390   4.324 -0.4467  0.7593 -0.1327
  976MOL0     H34681   9.675   1.379   4.435 -0.7217  1.0229  0.0167
  976MOL0     H34682   9.595   1.185   4.482  0.9233  0.0057  2.6985
  976MOL0     H34683   9.423   1.219   4.424 -0.6606  0.2054  1.3069
  976MOL0     H34684   9.416   1.264   4.841  0.2965  0.5105  0.1445
  976MOL0     H34685   9.949   1.684   4.459 -3.2145 -3.0548 -1.0941
  976MOL0     H34686  10.166   1.861   4.331 -0.5901 -0.3502 -1.5643
  976MOL0     H34687  10.150   1.992   4.447  1.1886 -2.5698  2.3392
  976MOL0     H34688  10.153   1.831   4.497  2.1696  1.7020 -0.1163
  977MOL0     O34689   4.022   0.213   9.430 -0.0400 -0.3848 -0.1323
  977MOL0     C34690   3.984   0.258   9.535 -0.2905 -0.2951  0.0348
  977MOL0     O34691   3.861   0.258   9.577 -0.5088  0.4737 -0.1633
  977MOL0     C34692   3.784   0.149   9.553  0.6775 -0.2649  0.1261
  977MOL0     C34693   3.672   0.164   9.634 -0.5631 -0.8455  0.3636
  977MOL0     C34694   3.571   0.063   9.630  0.5605 -0.4886  0.4572
  977MOL0     C34695   3.589  -0.048   9.553  0.4799  1.1165 -0.8171
  977MOL0     O34696   3.496  -0.136   9.536 -0.1005  0.5473 -0.5254
  977MOL0     C34697   3.420  -0.108   9.414  0.3028  0.3127  0.4411
  977MOL0     C34698   3.277  -0.173   9.428 -0.7117 -0.1225  0.5651
  977MOL0     C34699   3.267  -0.331   9.416  1.0406 -0.0296 -0.0076
  977MOL0     C34700   3.304  -0.418   9.531 -0.3433 -0.7210 -0.5477
  977MOL0     C34701   3.245  -0.560   9.522  0.0200 -0.0486 -0.4476
  977MOL0     C34702   3.267  -0.648   9.639 -0.5950  0.0480  0.2320
  977MOL0     C34703   3.415  -0.678   9.657  0.1930 -0.8476  0.2199
  977MOL0     C34704   3.442  -0.766   9.781 -0.4713  0.3125 -0.2007
  977MOL0     N34705   3.573  -0.753   9.838 -0.5158 -0.2227 -0.0662
  977MOL0     C34706   3.607  -0.697   9.956 -0.2509  0.0512  0.6024
  977MOL0     C34707   3.739  -0.687   9.954 -0.2209  1.3425  0.0248
  977MOL0     C34708   3.823  -0.633  10.066 -0.0823 -0.4862 -0.9580
  977MOL0     C34709   3.950  -0.722  10.096 -0.2496  1.0192 -0.7236
  977MOL0     C34710   3.994  -0.690  10.232  0.0161 -0.6443  0.9912
  977MOL0     C34711   3.916  -0.740  10.356 -0.4575 -0.0443  0.5603
  977MOL0     O34712   3.839  -0.649  10.437  1.2895 -0.3376  0.5638
  977MOL0     C34713   3.816  -0.687  10.563  0.8080  0.8410  0.1271
  977MOL0     C34714   3.816  -0.822  10.612 -0.0173  0.3022  0.5990
  977MOL0     C34715   3.776  -0.849  10.740 -0.1431  1.1493  0.2170
  977MOL0     C34716   3.764  -0.993  10.796  0.9949  0.1820 -0.2595
  977MOL0     C34717   3.766  -0.746  10.832  0.7358 -0.4491 -0.8214
  977MOL0     C34718   3.758  -0.764  10.973 -0.4486 -0.5740 -0.8529
  977MOL0     O34719   3.820  -0.662  11.043  0.4679 -0.8527 -0.1840
  977MOL0     C34720   3.813  -0.660  11.184  0.9248  0.5460  0.3195
  977MOL0     C34721   3.796  -0.539  11.246  0.2133 -0.3479  0.2110
  977MOL0     C34722   3.777  -0.550  11.390 -0.7281  0.3619 -0.8275
  977MOL0     C34723   3.808  -0.664  11.466 -0.0937  0.9619  0.5707
  977MOL0     O34724   3.781  -0.661  11.600 -1.2300  0.0160  0.1078
  977MOL0     C34725   3.760  -0.785  11.673 -0.0182  0.2252 -0.1293
  977MOL0     C34726   3.611  -0.812  11.716  0.2164  0.3816  0.5805
  977MOL0     C34727   3.552  -0.691  11.791 -0.2514  1.0200  0.5803
  977MOL0     C34728   3.598  -0.705  11.937  0.7494 -0.1038  0.1179
  977MOL0     C34729   3.504  -0.645  12.038 -0.7667  0.7949  0.5856
  977MOL0     C34730   3.460  -0.497  12.013 -0.3931 -0.2208 -0.3182
  977MOL0     C34731   3.369  -0.431  12.119 -0.4540 -0.6515 -1.2306
  977MOL0     C34732   3.368  -0.277  12.094 -0.2671  0.9894  0.4618
  977MOL0    Cl34733   3.214  -0.186  12.120 -0.2523  0.8604 -0.2459
  977MOL0     C34734   3.850  -0.778  11.389 -0.1190  0.8478  0.3503
  977MOL0     C34735   3.851  -0.776  11.250 -1.0547 -0.6164  0.3617
  977MOL0     O34736   3.687  -0.854  11.025 -1.1910 -0.6513 -0.6327
  977MOL0     C34737   3.776  -0.609  10.785  0.2442 -0.2618 -0.7455
  977MOL0     C34738   3.789  -0.585  10.649  0.2864  0.2252 -0.3007
  977MOL0     N34739   3.786  -0.738   9.833 -0.9022 -0.5262 -0.2347
  977MOL0     N34740   3.683  -0.766   9.763 -0.1424 -0.4203 -0.2273
  977MOL0     C34741   3.700  -0.064   9.473 -0.1090 -0.1141  0.2151
  977MOL0     C34742   3.794   0.035   9.464 -1.1083  0.6867  0.1307
  977MOL0     C34743   4.082   0.324   9.617  0.9620  0.0650  0.0928
  977MOL0     C34744   4.056   0.321   9.759 -0.3231  0.7720  2.5042
  977MOL0     C34745   4.148   0.375   9.847 -0.8439  0.9353  0.5623
  977MOL0     C34746   4.265   0.440   9.798  0.2068 -0.6352 -1.6493
  977MOL0     O34747   4.338   0.494   9.901  0.1434 -0.0929 -0.0602
  977MOL0     C34748   4.479   0.514   9.879  0.3005  0.6876 -0.3542
  977MOL0     C34749   4.555   0.575   9.998  0.2299 -0.6601  0.0102
  977MOL0     C34750   4.699   0.630   9.947  0.2352  0.0780 -0.8668
  977MOL0     C34751   4.749   0.722  10.051 -0.4418 -0.0714 -0.0835
  977MOL0     C34752   4.693   0.854  10.059  0.3151  0.0292 -0.2293
  977MOL0     C34753   4.648   0.963  10.074 -0.8395 -0.6106 -0.0906
  977MOL0     C34754   4.283   0.446   9.653 -0.2054  0.1055 -0.6418
  977MOL0     C34755   4.189   0.390   9.569 -0.0710  0.1291  0.3034
  977MOL0     C34756   4.211   0.428   9.420  0.1949 -0.2303  0.4188
  977MOL0     H34757   3.672   0.254   9.696  2.6010 -0.4067 -0.0885
  977MOL0     H34758   3.487   0.066   9.699 -0.6837 -2.8549 -0.8255
  977MOL0     H34759   3.476  -0.146   9.328  1.2664  1.5525  0.4941
  977MOL0     H34760   3.418   0.001   9.403  2.1678  0.2351 -1.1432
  977MOL0     H34761   3.260  -0.141   9.532 -0.5755 -1.3550  0.9869
  977MOL0     H34762   3.200  -0.114   9.377  0.4768  1.3116  0.3623
  977MOL0     H34763   3.158  -0.346   9.415  0.7514  1.5526  1.5344
  977MOL0     H34764   3.316  -0.357   9.323 -0.8071 -0.9039 -0.7842
  977MOL0     H34765   3.413  -0.420   9.538 -0.2559  2.6098  3.2165
  977MOL0     H34766   3.264  -0.382   9.627 -1.3798 -2.3357 -0.3375
  977MOL0     H34767   3.284  -0.614   9.435 -1.5541 -0.0921 -1.1672
  977MOL0     H34768   3.137  -0.549   9.511 -0.1400 -0.4395  0.6569
  977MOL0     H34769   3.218  -0.610   9.729  1.0520 -0.8306  1.5626
  977MOL0     H34770   3.231  -0.749   9.618  1.1851 -0.4884 -0.3928
  977MOL0     H34771   3.464  -0.582   9.673 -0.9922  0.3466 -2.5514
  977MOL0     H34772   3.455  -0.712   9.560 -2.4835  2.0779 -2.1399
  977MOL0     H34773   3.365  -0.743   9.855  0.7708  1.6331  0.7355
  977MOL0     H34774   3.431  -0.873   9.760  0.1073 -0.2827  2.3096
  977MOL0     H34775   3.543  -0.680  10.042 -1.1813 -1.4860  0.2515
  977MOL0     H34776   3.765  -0.624  10.158 -1.0160 -0.3743 -1.5416
  977MOL0     H34777   3.851  -0.528  10.052 -1.6551  0.0215 -0.4591
  977MOL0     H34778   3.925  -0.829  10.089  3.5244  0.0296 -1.3681
  977MOL0     H34779   4.032  -0.714  10.024 -0.1617 -1.3389 -0.9608
  977MOL0     H34780   4.100  -0.715  10.243  0.8873  1.7805 -0.8963
  977MOL0     H34781   4.002  -0.581  10.239  3.0909 -0.6617 -0.5541
  977MOL0     H34782   3.867  -0.836  10.334 -3.4162  1.3199  0.8146
  977MOL0     H34783   4.006  -0.761  10.416  3.0056  2.9187 -3.0249
  977MOL0     H34784   3.851  -0.902  10.547  0.8468  1.4795 -0.4176
  977MOL0     H34785   3.660  -1.013  10.822  0.5547 -0.2557 -2.1833
  977MOL0     H34786   3.828  -1.002  10.884 -2.5965  0.9863  2.6612
  977MOL0     H34787   3.798  -1.072  10.728  3.0488  3.1638 -2.9795
  977MOL0     H34788   3.785  -0.448  11.188  0.2441 -0.1586  0.5007
  977MOL0     H34789   3.724  -0.470  11.441 -2.2822  0.6989 -2.8389
  977MOL0     H34790   3.794  -0.873  11.618 -1.4238 -1.0905  1.0260
  977MOL0     H34791   3.832  -0.781  11.755  2.0206 -1.1261 -1.7400
  977MOL0     H34792   3.538  -0.839  11.639  2.4403 -2.5546 -0.7120
  977MOL0     H34793   3.628  -0.903  11.775 -0.6776 -0.0710  0.1679
  977MOL0     H34794   3.443  -0.697  11.783 -0.6304  2.3629  3.4891
  977MOL0     H34795   3.587  -0.593  11.761  0.2592  1.8988  3.6804
  977MOL0     H34796   3.690  -0.649  11.957  1.2799 -1.0213  0.2838
  977MOL0     H34797   3.609  -0.807  11.975 -0.1839 -1.2401 -2.4013
  977MOL0     H34798   3.415  -0.709  12.043  0.4880 -1.0520  0.5039
  977MOL0     H34799   3.559  -0.658  12.132  1.7693  1.1850 -0.7554
  977MOL0     H34800   3.398  -0.508  11.924 -0.7664 -1.7374  0.0879
  977MOL0     H34801   3.549  -0.435  11.996  0.1890 -1.1239 -0.6732
  977MOL0     H34802   3.411  -0.452  12.218 -1.2502  3.4558  0.1946
  977MOL0     H34803   3.271  -0.478  12.122 -0.4734 -0.5803 -0.5899
  977MOL0     H34804   3.406  -0.256  11.994  1.0293 -2.9238 -0.0419
  977MOL0     H34805   3.436  -0.235  12.168 -1.4730  1.3395  1.4102
  977MOL0     H34806   3.859  -0.879  11.428 -4.1457 -0.2880 -1.2226
  977MOL0     H34807   3.885  -0.865  11.198 -1.9183 -1.3428  1.0048
  977MOL0     H34808   3.789  -0.525  10.852  1.8415  0.9214 -2.4470
  977MOL0     H34809   3.770  -0.487  10.605 -2.2026 -0.1373 -0.1610
  977MOL0     H34810   3.714  -0.150   9.410  0.7834 -0.0734  0.3431
  977MOL0     H34811   3.871   0.016   9.390  0.6748 -0.0683  2.0662
  977MOL0     H34812   3.969   0.269   9.797 -1.9458  1.6405  0.1617
  977MOL0     H34813   4.142   0.363   9.954 -1.0563 -0.4206  0.4078
  977MOL0     H34814   4.532   0.420   9.864 -0.7480  0.2190 -1.3290
  977MOL0     H34815   4.488   0.570   9.785 -1.1271  0.5517 -0.5982
  977MOL0     H34816   4.565   0.493  10.069 -0.5776 -1.8748 -1.2136
  977MOL0     H34817   4.504   0.665  10.034  0.7669 -0.7109  0.9204
  977MOL0     H34818   4.760   0.545   9.917  0.5025  0.2456 -0.8047
  977MOL0     H34819   4.681   0.679   9.851 -1.6804 -1.9427 -1.6322
  977MOL0     H34820   4.852   0.752  10.028 -0.3360  1.0859  1.7170
  977MOL0     H34821   4.746   0.675  10.150  3.1875 -0.7900 -0.1910
  977MOL0     H34822   4.614   1.057  10.112  0.6946 -0.1069  0.0749
  977MOL0     H34823   4.375   0.488   9.616 -1.7340  0.6305 -4.1905
  977MOL0     H34824   4.298   0.375   9.379  1.1125 -0.1175  2.1291
  977MOL0     H34825   4.127   0.409   9.353  0.2927 -2.4806  0.8342
  977MOL0     H34826   4.230   0.535   9.418 -2.3205  0.3018  1.4188
  978MOL0     O34827  11.479   7.341   6.886  0.0730 -0.0723 -0.1483
  978MOL0     C34828  11.447   7.364   7.001 -0.0866  0.0847  0.2712
  978MOL0     O34829  11.331   7.323   7.064 -1.0670 -0.4448 -0.2622
  978MOL0     C34830  11.222   7.262   6.998  0.3830  0.1061  0.2381
  978MOL0     C34831  11.212   7.239   6.859  0.1912 -0.0771  0.6417
  978MOL0     C34832  11.093   7.173   6.809  0.4463  0.4839  0.2336
  978MOL0     C34833  10.987   7.156   6.898  0.8758 -0.1216  0.2971
  978MOL0     O34834  10.869   7.101   6.857 -0.4263  0.2536  0.2696
  978MOL0     C34835  10.830   7.081   6.723  0.7077 -0.3730 -1.1177
  978MOL0     C34836  10.681   7.028   6.742 -0.7293 -0.0042  0.3570
  978MOL0     C34837  10.640   6.916   6.638  0.6831 -0.1709 -0.2067
  978MOL0     C34838  10.495   6.863   6.655  0.4096  1.4223  0.4352
  978MOL0     C34839  10.468   6.752   6.544  0.0356  0.2422  0.4980
  978MOL0     C34840  10.333   6.696   6.570 -0.0342  0.8009 -0.1590
  978MOL0     C34841  10.293   6.579   6.472  0.9522 -0.3576 -0.4838
  978MOL0     C34842  10.266   6.626   6.330  0.5223  0.7397  0.1719
  978MOL0     N34843  10.185   6.750   6.308  0.0643  0.5176  1.4762
  978MOL0     C34844  10.213   6.873   6.232 -0.3513  0.6996 -0.8782
  978MOL0     C34845  10.098   6.942   6.234 -1.0058  0.4198  0.3449
  978MOL0     C34846  10.053   7.059   6.148  0.7826 -0.5598  0.5971
  978MOL0     C34847  10.085   7.188   6.224 -0.2536  0.3344 -0.0412
  978MOL0     C34848  10.017   7.195   6.368 -0.2383 -1.2383 -0.5454
  978MOL0     C34849  10.063   7.316   6.441 -1.0116 -0.1996  0.1382
  978MOL0     O34850  10.074   7.434   6.360  0.1282 -0.1857  0.2023
  978MOL0     C34851  10.138   7.541   6.410  0.2791  0.2440  1.0758
  978MOL0     C34852  10.100   7.672   6.383 -0.2930 -0.2606 -0.7390
  978MOL0     C34853  10.167   7.781   6.446  0.3340  0.9400  1.0743
  978MOL0     C34854  10.136   7.916   6.391  0.3563  0.5198 -0.2644
  978MOL0     C34855  10.269   7.763   6.534 -0.4423  1.1161  0.3067
  978MOL0     C34856  10.334   7.871   6.607 -0.5547  0.2005  0.4946
  978MOL0     O34857  10.461   7.839   6.664  0.0464  0.5122  0.6861
  978MOL0     C34858  10.523   7.926   6.741 -0.1547 -0.2790 -0.3478
  978MOL0     C34859  10.460   8.011   6.842 -0.1434  0.4526 -0.5665
  978MOL0     C34860  10.544   8.084   6.925  0.2505  0.5281 -0.5648
  978MOL0     C34861  10.681   8.086   6.906 -0.5661 -0.3232  0.1917
  978MOL0     O34862  10.765   8.173   6.978 -0.2799 -0.3675  0.0874
  978MOL0     C34863  10.745   8.304   6.950 -0.6124 -0.2513 -1.5768
  978MOL0     C34864  10.763   8.358   6.801  0.0524  0.5882 -2.2400
  978MOL0     C34865  10.733   8.510   6.790  0.5620  0.2218  0.1847
  978MOL0     C34866  10.729   8.560   6.641  0.7134  0.1138  0.4386
  978MOL0     C34867  10.672   8.702   6.622  0.6349 -0.0041 -0.2637
  978MOL0     C34868  10.707   8.808   6.735 -0.5263 -0.7645  0.0986
  978MOL0     C34869  10.731   8.950   6.681  0.4286  1.1180  0.0621
  978MOL0     C34870  10.618   9.022   6.615  0.4754  1.0045 -0.2574
  978MOL0    Cl34871  10.506   9.097   6.722 -0.0313 -0.0420 -0.2429
  978MOL0     C34872  10.741   8.006   6.810  0.5213 -0.1068  0.0284
  978MOL0     C34873  10.659   7.943   6.717  0.6675  0.6897  0.3766
  978MOL0     O34874  10.282   7.977   6.633 -0.1515 -0.0784  0.5263
  978MOL0     C34875  10.319   7.634   6.544 -0.0177  0.2939 -0.2198
  978MOL0     C34876  10.259   7.523   6.483  0.5965  0.3806  0.8564
  978MOL0     N34877  10.005   6.881   6.318 -0.0874  1.3727  0.6372
  978MOL0     N34878  10.060   6.770   6.371  0.7477  0.3927  0.0501
  978MOL0     C34879  10.994   7.178   7.034  0.6439 -0.3676 -0.1938
  978MOL0     C34880  11.115   7.224   7.084  0.3038 -0.3289  1.1911
  978MOL0     C34881  11.544   7.450   7.082 -0.3871 -0.6131  1.8312
  978MOL0     C34882  11.484   7.555   7.157  0.2904 -0.2530 -0.2030
  978MOL0     C34883  11.570   7.651   7.215  1.5771  0.2808 -0.1697
  978MOL0     C34884  11.701   7.645   7.209 -0.7417  0.4189  0.6756
  978MOL0     O34885  11.790   7.737   7.253  0.4663  0.2578 -0.6580
  978MOL0     C34886  11.766   7.858   7.324  0.5757 -0.0624  0.4197
  978MOL0     C34887  11.748   7.842   7.480  0.6217  0.9125 -0.4932
  978MOL0     C34888  11.835   7.920   7.576 -0.4788 -0.9971 -0.0890
  978MOL0     C34889  11.740   7.994   7.670  0.0424 -0.4305 -0.1947
  978MOL0     C34890  11.808   8.069   7.778 -0.2007 -0.1154  1.0079
  978MOL0     C34891  11.848   8.130   7.871 -0.1933 -0.8377  0.3535
  978MOL0     C34892  11.760   7.536   7.148  0.1402  0.2289 -1.3006
  978MOL0     C34893  11.686   7.441   7.075  0.4534  0.5740 -1.0125
  978MOL0     C34894  11.764   7.343   7.001 -0.0728 -0.3642  0.5079
  978MOL0     H34895  11.293   7.246   6.787 -1.4703 -3.7599 -1.9488
  978MOL0     H34896  11.079   7.154   6.703 -4.5550  2.2500  0.3528
  978MOL0     H34897  10.890   7.010   6.665  0.4541 -0.3427 -1.4245
  978MOL0     H34898  10.818   7.182   6.682  0.8950 -0.0857 -0.4715
  978MOL0     H34899  10.667   6.995   6.845  0.5798  0.8000  0.8190
  978MOL0     H34900  10.618   7.114   6.717 -1.4905 -0.9231 -1.0301
  978MOL0     H34901  10.642   6.962   6.539 -2.2013 -2.4315 -1.4753
  978MOL0     H34902  10.710   6.832   6.638 -1.8253 -2.4812 -2.7401
  978MOL0     H34903  10.482   6.821   6.755 -1.8908 -2.4184 -1.2379
  978MOL0     H34904  10.430   6.951   6.651  0.1602  1.5576  4.2723
  978MOL0     H34905  10.546   6.676   6.552 -0.1072  0.0730  0.2924
  978MOL0     H34906  10.469   6.788   6.441  1.0831  0.7336  0.6668
  978MOL0     H34907  10.337   6.658   6.673  3.3714  2.2033  0.3605
  978MOL0     H34908  10.256   6.773   6.580 -0.6261  0.0046  1.8473
  978MOL0     H34909  10.202   6.536   6.515 -0.4378 -0.2631 -3.1428
  978MOL0     H34910  10.372   6.504   6.462  1.5924  0.3837 -1.1000
  978MOL0     H34911  10.362   6.652   6.284  1.3373 -0.2345  1.2339
  978MOL0     H34912  10.236   6.536   6.275  1.3681 -0.7766  2.0692
  978MOL0     H34913  10.301   6.895   6.172  0.0671  0.9725 -0.1692
  978MOL0     H34914   9.946   7.042   6.137  0.7166  0.9565 -1.6791
  978MOL0     H34915  10.102   7.056   6.050 -2.3501  0.6362 -1.1166
  978MOL0     H34916  10.194   7.199   6.224 -0.0651 -0.3962 -3.5652
  978MOL0     H34917  10.055   7.281   6.174 -0.9450  0.6865  0.9888
  978MOL0     H34918   9.908   7.190   6.365 -0.3488 -0.4331  1.1162
  978MOL0     H34919  10.054   7.113   6.430  3.0206  0.2788 -0.2843
  978MOL0     H34920   9.992   7.334   6.522  1.6821  1.4963  2.2878
  978MOL0     H34921  10.158   7.288   6.487 -0.7688 -0.2628 -0.3901
  978MOL0     H34922  10.013   7.687   6.320 -2.6510  2.0382  2.7033
  978MOL0     H34923  10.102   7.993   6.461 -2.8579 -0.9993  0.0108
  978MOL0     H34924  10.066   7.911   6.307 -1.4618  0.9025  1.1567
  978MOL0     H34925  10.230   7.939   6.340 -0.6899  0.1001 -2.5085
  978MOL0     H34926  10.354   8.006   6.865 -0.3340  2.3832 -0.8884
  978MOL0     H34927  10.506   8.143   7.008 -2.6268 -3.7466  1.5282
  978MOL0     H34928  10.648   8.338   6.987 -1.5531 -1.0433 -3.2072
  978MOL0     H34929  10.809   8.364   7.015 -1.6537  0.0428 -0.7891
  978MOL0     H34930  10.864   8.336   6.766  0.6172  2.3296 -1.7641
  978MOL0     H34931  10.692   8.296   6.744 -1.1504 -1.7922  1.4292
  978MOL0     H34932  10.811   8.573   6.834 -1.6767  3.5564 -0.2533
  978MOL0     H34933  10.632   8.527   6.828  0.3891  2.9392 -1.2638
  978MOL0     H34934  10.676   8.491   6.575 -2.7274  2.7740  0.1505
  978MOL0     H34935  10.833   8.581   6.612  0.5474  1.6220  0.8395
  978MOL0     H34936  10.711   8.740   6.528 -1.4862  0.7201 -0.9025
  978MOL0     H34937  10.565   8.696   6.602  1.0054 -0.2102 -2.3380
  978MOL0     H34938  10.796   8.776   6.791 -0.9652 -1.9963  0.1184
  978MOL0     H34939  10.626   8.820   6.807 -0.9758  0.4424 -0.5680
  978MOL0     H34940  10.816   8.946   6.613  0.8213  1.3504  0.5287
  978MOL0     H34941  10.764   9.004   6.771 -2.1114  3.7283 -0.4266
  978MOL0     H34942  10.558   8.961   6.547  0.4940 -0.5809  1.0907
  978MOL0     H34943  10.657   9.107   6.559 -2.1527  3.0623  0.8019
  978MOL0     H34944  10.848   8.001   6.799  0.5141 -2.8300  0.5576
  978MOL0     H34945  10.701   7.881   6.639  1.0347  2.6248 -1.0467
  978MOL0     H34946  10.393   7.614   6.621 -0.2447  2.1150  0.5230
  978MOL0     H34947  10.313   7.430   6.498  2.9964  1.8269  1.7365
  978MOL0     H34948  10.909   7.155   7.097  0.4662  0.2996 -0.1889
  978MOL0     H34949  11.124   7.230   7.192  1.4922 -0.5553  1.1259
  978MOL0     H34950  11.375   7.552   7.153  0.1895  1.0671  1.0322
  978MOL0     H34951  11.518   7.733   7.264 -0.0712  1.2223 -3.1915
  978MOL0     H34952  11.863   7.908   7.314  0.5054 -0.0871 -0.4686
  978MOL0     H34953  11.685   7.920   7.286  2.9534  2.4806 -0.8703
  978MOL0     H34954  11.769   7.737   7.501 -2.6516  0.6812  2.6982
  978MOL0     H34955  11.639   7.847   7.493  0.0621 -1.0397 -3.5678
  978MOL0     H34956  11.903   7.860   7.637  1.1197  1.6148  0.9202
  978MOL0     H34957  11.891   7.990   7.512 -0.0155 -3.5366 -2.6888
  978MOL0     H34958  11.681   7.917   7.721 -0.0987 -0.0150  0.2783
  978MOL0     H34959  11.665   8.057   7.621 -0.6218  0.3080  1.6907
  978MOL0     H34960  11.875   8.199   7.948 -0.7998  0.0115 -0.1787
  978MOL0     H34961  11.867   7.546   7.133  0.0980 -0.5971 -2.2076
  978MOL0     H34962  11.763   7.365   6.894 -1.5808 -1.3535  0.2820
  978MOL0     H34963  11.870   7.347   7.027 -0.3363 -1.8687  1.9825
  978MOL0     H34964  11.731   7.239   7.007  2.5880 -1.2463  0.9533
  979MOL0     O34965   6.070   9.581   0.091 -0.1887 -1.0870 -0.9430
  979MOL0     C34966   6.113   9.477   0.127 -0.0757 -0.5175  0.4486
  979MOL0     O34967   6.040   9.374   0.173  0.7127  0.7651  0.4818
  979MOL0     C34968   5.898   9.384   0.162 -0.2114  0.6870 -0.3459
  979MOL0     C34969   5.817   9.448   0.261 -0.5761 -1.6441 -0.2196
  979MOL0     C34970   5.686   9.477   0.239 -0.1135 -0.0326 -0.7471
  979MOL0     C34971   5.629   9.430   0.120  0.1807  0.5472  0.0082
  979MOL0     O34972   5.496   9.438   0.104  0.0268 -0.8575  0.0273
  979MOL0     C34973   5.465   9.554   0.026 -0.0591  0.4550 -0.2130
  979MOL0     C34974   5.312   9.562   0.028 -0.7356 -0.4790 -0.8030
  979MOL0     C34975   5.246   9.686   0.096  0.3982  0.3163 -0.3836
  979MOL0     C34976   5.096   9.678   0.072  0.6556  0.2629  0.4529
  979MOL0     C34977   5.036   9.809   0.132 -0.1396  0.3530  1.1632
  979MOL0     C34978   5.003   9.796   0.286  0.5351  0.4279  0.9715
  979MOL0     C34979   4.928   9.668   0.315  0.7793  0.5480  0.5991
  979MOL0     C34980   4.882   9.649   0.454 -0.1645  0.1246 -0.5366
  979MOL0     N34981   4.787   9.742   0.505  0.4378  0.1612 -0.4816
  979MOL0     C34982   4.670   9.706   0.576  0.7784  0.5780 -1.2270
  979MOL0     C34983   4.627   9.818   0.646 -0.7222  0.7703 -0.3632
  979MOL0     C34984   4.508   9.822   0.740  0.7610 -0.4314 -0.6666
  979MOL0     C34985   4.408   9.933   0.699 -0.1300 -0.8922 -0.3729
  979MOL0     C34986   4.295   9.953   0.800 -0.2032 -0.3917  0.1383
  979MOL0     C34987   4.211   9.822   0.837  0.4255  1.2887 -0.4215
  979MOL0     O34988   4.173   9.756   0.715 -0.1692 -0.2312 -0.8330
  979MOL0     C34989   4.140   9.619   0.722  0.1816  0.0395 -0.1301
  979MOL0     C34990   4.074   9.560   0.836  0.3378  0.2196  0.0147
  979MOL0     C34991   4.074   9.424   0.852 -0.3610  0.4642  0.5054
  979MOL0     C34992   4.012   9.366   0.977  0.1802 -0.3188 -0.6970
  979MOL0     C34993   4.118   9.338   0.750 -0.0774  1.0636 -0.8386
  979MOL0     C34994   4.128   9.183   0.753  0.1140  0.6686  0.4260
  979MOL0     O34995   4.223   9.126   0.659  0.2518 -0.0203  0.1049
  979MOL0     C34996   4.257   9.001   0.692 -0.0909  0.2692  0.4034
  979MOL0     C34997   4.216   8.898   0.601  0.2455  0.1907 -0.5974
  979MOL0     C34998   4.244   8.760   0.627  0.4205 -0.2879  0.6107
  979MOL0     C34999   4.320   8.725   0.739  0.2461 -0.4694 -0.3788
  979MOL0     O35000   4.333   8.587   0.761 -0.3519 -0.4013 -0.4967
  979MOL0     C35001   4.429   8.529   0.848 -0.1818  0.5004 -0.0487
  979MOL0     C35002   4.367   8.466   0.980  0.7042  0.0922  0.0928
  979MOL0     C35003   4.241   8.373   0.960 -0.8528  0.4144  0.8327
  979MOL0     C35004   4.238   8.255   1.053 -0.0091 -0.4680  0.1415
  979MOL0     C35005   4.107   8.179   1.025 -0.2012  0.6719  0.1687
  979MOL0     C35006   4.107   8.024   1.058 -0.5133 -0.5424 -0.7729
  979MOL0     C35007   4.110   7.998   1.208  0.5893  0.4611  0.2148
  979MOL0     C35008   4.091   7.856   1.238 -0.2377  0.1387 -0.3475
  979MOL0    Cl35009   4.094   7.813   1.410 -0.4957  0.1681  0.3116
  979MOL0     C35010   4.365   8.825   0.819 -0.3786  0.0817 -0.8380
  979MOL0     C35011   4.339   8.961   0.798  0.8300 -0.6285  0.4530
  979MOL0     O35012   4.066   9.113   0.833  0.9821 -0.1306 -0.2240
  979MOL0     C35013   4.175   9.401   0.625 -0.7406  0.1016  0.2723
  979MOL0     C35014   4.188   9.539   0.612  0.7670  0.4002  0.1042
  979MOL0     N35015   4.717   9.919   0.608 -0.3871 -0.0917  0.1565
  979MOL0     N35016   4.815   9.874   0.530 -1.0589  0.0083 -0.9422
  979MOL0     C35017   5.701   9.372   0.016 -0.1339  0.0046 -0.2354
  979MOL0     C35018   5.840   9.347   0.039 -0.0205  0.1875 -0.3018
  979MOL0     C35019   6.255   9.449   0.096  0.4652 -0.8245  0.2238
  979MOL0     C35020   6.313   9.334   0.150  0.2989 -0.3334  0.6245
  979MOL0     C35021   6.435   9.286   0.110  0.2398 -0.2436  0.4612
  979MOL0     C35022   6.511   9.362   0.026 -0.3361  0.0082 -0.4353
  979MOL0     O35023   6.631   9.311  -0.022  0.2762  0.2241 -0.0495
  979MOL0     C35024   6.640   9.307  -0.165  0.1876  0.0500  0.6674
  979MOL0     C35025   6.722   9.189  -0.216 -0.4161  0.1487 -0.3289
  979MOL0     C35026   6.853   9.175  -0.145  0.4936  0.3194 -0.1742
  979MOL0     C35027   6.958   9.094  -0.207 -0.2539 -0.1797 -0.4986
  979MOL0     C35028   7.054   9.170  -0.292  0.4335 -0.4602  0.2491
  979MOL0     C35029   7.141   9.212  -0.366  0.3497  0.0311 -0.1733
  979MOL0     C35030   6.467   9.488  -0.015  0.0197 -0.2415  0.4695
  979MOL0     C35031   6.343   9.535   0.024  1.0842 -0.4080 -0.3455
  979MOL0     C35032   6.308   9.675  -0.014 -0.6910 -0.6339 -0.3871
  979MOL0     H35033   5.866   9.480   0.352  0.9907  2.2446 -2.2150
  979MOL0     H35034   5.622   9.526   0.312 -2.3929 -3.0647 -0.5417
  979MOL0     H35035   5.503   9.521  -0.071 -0.2110 -5.0948  1.2593
  979MOL0     H35036   5.514   9.647   0.058 -2.4864  1.0517  2.1054
  979MOL0     H35037   5.284   9.564  -0.077 -1.3217  0.3710 -0.6390
  979MOL0     H35038   5.268   9.475   0.077  1.9395 -0.4815  1.9558
  979MOL0     H35039   5.268   9.673   0.202 -2.7925 -1.3206  0.1921
  979MOL0     H35040   5.292   9.778   0.058  1.5630  1.6588  3.7331
  979MOL0     H35041   5.083   9.669  -0.036  1.9519  0.5292  0.2575
  979MOL0     H35042   5.053   9.584   0.109  1.7694 -0.8166 -0.8653
  979MOL0     H35043   4.942   9.825   0.078  0.5028 -1.3428 -0.5756
  979MOL0     H35044   5.107   9.891   0.118  2.9276 -0.9547  6.2857
  979MOL0     H35045   5.102   9.789   0.332  0.7210 -4.9448  0.4232
  979MOL0     H35046   4.946   9.886   0.310 -0.4619 -0.1890  0.9803
  979MOL0     H35047   4.986   9.578   0.295 -2.1491 -2.2550  3.5822
  979MOL0     H35048   4.844   9.665   0.246 -0.6071 -2.6350  2.2354
  979MOL0     H35049   4.834   9.551   0.453  2.9639 -1.5672  0.6559
  979MOL0     H35050   4.965   9.641   0.526 -1.3460 -2.7750  0.6611
  979MOL0     H35051   4.631   9.605   0.579  1.8447  0.1636  1.2554
  979MOL0     H35052   4.543   9.845   0.841 -0.4194  0.0518 -0.3585
  979MOL0     H35053   4.452   9.728   0.740  0.1583 -0.1548  2.2162
  979MOL0     H35054   4.457  10.029   0.682  0.1165 -1.2426 -1.8072
  979MOL0     H35055   4.369   9.894   0.605 -1.0890  0.4414 -0.5609
  979MOL0     H35056   4.334   9.992   0.895 -1.2324  1.5183 -0.1716
  979MOL0     H35057   4.215  10.020   0.768 -0.4970 -1.0524 -0.5429
  979MOL0     H35058   4.270   9.760   0.905 -0.5817  0.4870 -0.2603
  979MOL0     H35059   4.112   9.840   0.879 -2.2183 -0.0280 -5.3125
  979MOL0     H35060   4.042   9.612   0.925  0.3682 -0.0970  0.2137
  979MOL0     H35061   3.983   9.441   1.052 -1.8018 -1.0804 -0.6370
  979MOL0     H35062   4.085   9.297   1.020  1.1051  0.7906 -0.4211
  979MOL0     H35063   3.926   9.305   0.950  1.4227 -2.4717  0.0181
  979MOL0     H35064   4.155   8.920   0.514 -0.4896 -1.0479 -0.4216
  979MOL0     H35065   4.185   8.695   0.564  0.7464 -1.2689  1.3023
  979MOL0     H35066   4.466   8.445   0.788 -0.9837  0.9349 -1.1621
  979MOL0     H35067   4.499   8.601   0.890  3.2040 -1.6310 -1.6123
  979MOL0     H35068   4.454   8.416   1.024 -0.4870 -0.2276  2.2258
  979MOL0     H35069   4.340   8.556   1.037  1.2281  2.1165 -2.6636
  979MOL0     H35070   4.239   8.323   0.863 -0.3392 -1.3730  1.7000
  979MOL0     H35071   4.147   8.427   0.945 -3.3810 -3.7802 -0.1810
  979MOL0     H35072   4.229   8.291   1.156 -0.8737 -0.5510  0.1053
  979MOL0     H35073   4.331   8.197   1.049 -0.3822 -1.1633  1.1565
  979MOL0     H35074   4.024   8.235   1.070  0.4875  2.8460 -1.0905
  979MOL0     H35075   4.083   8.185   0.918 -2.6528  1.9768  0.7140
  979MOL0     H35076   4.196   7.973   1.018 -1.5416 -1.5920 -1.7918
  979MOL0     H35077   4.007   7.991   1.030 -1.0652 -0.2829  0.8223
  979MOL0     H35078   4.050   8.061   1.274  2.1870  0.5454  1.6537
  979MOL0     H35079   4.207   8.027   1.248 -0.4713  1.8774  1.9263
  979MOL0     H35080   4.163   7.798   1.180 -1.5992  0.8668 -2.9774
  979MOL0     H35081   3.995   7.824   1.196 -0.1773 -1.5780  0.7184
  979MOL0     H35082   4.430   8.802   0.903  0.5210  0.9763 -1.2710
  979MOL0     H35083   4.360   9.043   0.867  1.2119  0.0754 -0.4687
  979MOL0     H35084   4.202   9.348   0.534  1.2420  1.0360  0.2722
  979MOL0     H35085   4.233   9.590   0.527  0.1042 -2.4597 -2.0840
  979MOL0     H35086   5.653   9.334  -0.074  1.5486 -3.3821  0.1230
  979MOL0     H35087   5.897   9.302  -0.043  0.3478  2.2046 -1.2170
  979MOL0     H35088   6.245   9.283   0.218 -1.0773 -0.4082 -0.7463
  979MOL0     H35089   6.472   9.192   0.148 -0.2671 -0.8593 -0.5415
  979MOL0     H35090   6.544   9.314  -0.217  1.3210  2.2030 -1.2985
  979MOL0     H35091   6.696   9.396  -0.197  1.1809 -0.3087  1.3575
  979MOL0     H35092   6.749   9.210  -0.320 -1.4799  2.4537 -0.2061
  979MOL0     H35093   6.663   9.098  -0.202  2.3403 -1.5857  0.8724
  979MOL0     H35094   6.884   9.279  -0.129 -1.1849  0.7506  0.4478
  979MOL0     H35095   6.823   9.140  -0.047 -1.6259  1.5002 -0.3437
  979MOL0     H35096   6.912   9.011  -0.261 -2.4772  0.2769  0.5954
  979MOL0     H35097   7.007   9.053  -0.118 -2.3441 -2.5765 -0.3474
  979MOL0     H35098   7.228   9.233  -0.425  1.1472 -1.8848  0.2431
  979MOL0     H35099   6.530   9.564  -0.061 -0.4880 -1.7389 -2.9416
  979MOL0     H35100   6.229   9.678  -0.090  0.6222  0.2898 -1.7750
  979MOL0     H35101   6.285   9.743   0.068  2.3156 -0.8158  0.7196
  979MOL0     H35102   6.392   9.713  -0.074  1.5766 -0.7317  2.5035
  980MOL0     O35103   3.339  10.662   9.498  0.3877 -0.6177 -0.3722
  980MOL0     C35104   3.342  10.546   9.544 -0.6265  0.5632  0.0100
  980MOL0     O35105   3.251  10.496   9.638  0.5229 -0.4501 -0.1184
  980MOL0     C35106   3.164  10.576   9.697  0.0685  0.3072 -0.7455
  980MOL0     C35107   3.180  10.614   9.826 -0.0694  0.5563 -0.4578
  980MOL0     C35108   3.084  10.678   9.901 -0.1380 -0.3888 -0.2258
  980MOL0     C35109   2.966  10.728   9.839 -0.4036  1.2318  0.6852
  980MOL0     O35110   2.861  10.796   9.893  0.0324  0.6261 -0.1327
  980MOL0     C35111   2.864  10.823  10.038 -0.7165 -0.0912  0.4298
  980MOL0     C35112   2.742  10.900  10.091 -0.5393 -0.0155 -0.0172
  980MOL0     C35113   2.616  10.824  10.127  0.0517  0.7003 -1.4070
  980MOL0     C35114   2.504  10.906  10.063  0.1648  0.5534 -0.7226
  980MOL0     C35115   2.487  11.052  10.124 -0.2498 -0.0473 -0.0137
  980MOL0     C35116   2.396  11.151  10.041 -0.1562  0.0569 -0.1340
  980MOL0     C35117   2.251  11.103  10.052 -0.5794  0.4033  0.1629
  980MOL0     C35118   2.140  11.179   9.971 -0.3861  0.0946  0.0729
  980MOL0     N35119   2.115  11.317  10.013 -0.2073  0.7114  0.4194
  980MOL0     C35120   2.181  11.427   9.961  0.3627 -0.6256 -0.2080
  980MOL0     C35121   2.097  11.528  10.004 -0.6793  0.5081 -0.4467
  980MOL0     C35122   2.083  11.668   9.955 -0.2695  0.1198  0.6753
  980MOL0     C35123   2.087  11.777  10.059 -0.1360  0.3167 -0.4073
  980MOL0     C35124   2.091  11.915   9.989  0.0410  0.3049 -1.1669
  980MOL0     C35125   2.067  12.028  10.080 -0.1908 -0.3503 -0.5806
  980MOL0     O35126   2.065  12.152  10.003 -0.3515 -0.5129  1.1018
  980MOL0     C35127   1.953  12.194   9.938  0.6797 -0.5573  0.6040
  980MOL0     C35128   1.841  12.117   9.919 -0.0852  0.2149  0.5476
  980MOL0     C35129   1.731  12.187   9.878  0.5453  0.1785 -0.0154
  980MOL0     C35130   1.609  12.104   9.837  0.0794 -1.0086 -0.1691
  980MOL0     C35131   1.731  12.324   9.854 -0.6402  0.1424 -0.0904
  980MOL0     C35132   1.605  12.389   9.803  1.1798 -0.5842  0.9467
  980MOL0     O35133   1.555  12.350   9.676  0.5059  0.5134 -0.3273
  980MOL0     C35134   1.445  12.421   9.631  0.4534 -0.1363  0.1056
  980MOL0     C35135   1.316  12.421   9.697 -0.2006 -1.1054  0.4094
  980MOL0     C35136   1.212  12.501   9.643 -0.4224 -0.2778  0.2460
  980MOL0     C35137   1.224  12.553   9.509 -0.5689  0.4603  0.0568
  980MOL0     O35138   1.108  12.614   9.470  0.2066  0.1933 -0.9250
  980MOL0     C35139   1.085  12.615   9.331  0.2317 -0.0558 -0.4046
  980MOL0     C35140   1.056  12.478   9.269  0.4313 -0.0031 -0.3111
  980MOL0     C35141   0.931  12.418   9.345 -0.3533  0.6066 -0.0036
  980MOL0     C35142   0.800  12.500   9.359 -0.3573 -0.4743 -0.0247
  980MOL0     C35143   0.688  12.430   9.431 -0.1399  0.2699  0.3319
  980MOL0     C35144   0.560  12.519   9.431 -0.7112 -0.7673 -0.6717
  980MOL0     C35145   0.553  12.652   9.522 -0.4940  0.6488 -0.3496
  980MOL0     C35146   0.417  12.713   9.517 -0.1313  0.8968  0.1321
  980MOL0    Cl35147   0.303  12.591   9.588 -0.1894 -0.4340  0.0380
  980MOL0     C35148   1.350  12.540   9.440 -0.3235  0.1565 -0.0396
  980MOL0     C35149   1.454  12.477   9.506  0.3836 -0.4433 -0.0041
  980MOL0     O35150   1.567  12.479   9.875 -0.4853  0.3193 -0.6616
  980MOL0     C35151   1.842  12.404   9.885  0.8481  0.8770 -0.6476
  980MOL0     C35152   1.960  12.333   9.914  0.1850 -0.0038 -0.4620
  980MOL0     N35153   2.023  11.481  10.104  0.7029 -0.5348 -0.4048
  980MOL0     N35154   2.028  11.355  10.105  0.5091  0.3117 -0.1065
  980MOL0     C35155   2.948  10.703   9.704  0.2504  0.2740  0.0032
  980MOL0     C35156   3.037  10.615   9.638 -0.7407  0.3577  0.2332
  980MOL0     C35157   3.430  10.442   9.478 -0.2810  0.6640 -0.0706
  980MOL0     C35158   3.370  10.314   9.461 -0.9806 -0.3767 -0.4050
  980MOL0     C35159   3.454  10.215   9.424  0.2553  0.8683 -0.1302
  980MOL0     C35160   3.578  10.236   9.378 -0.2577 -0.0853 -0.1904
  980MOL0     O35161   3.647  10.124   9.322  0.0815 -0.1276  0.7290
  980MOL0     C35162   3.725  10.128   9.205 -0.7335  0.4988 -0.4665
  980MOL0     C35163   3.631  10.193   9.093 -0.4153  0.1633  1.2054
  980MOL0     C35164   3.525  10.096   9.038 -0.5401 -0.4904 -0.6204
  980MOL0     C35165   3.574   9.947   9.039  0.6409  0.3475  0.2613
  980MOL0     C35166   3.497   9.870   8.936 -0.5224  0.5196  0.1264
  980MOL0     C35167   3.420   9.808   8.854 -1.1790  0.7449 -0.8119
  980MOL0     C35168   3.639  10.360   9.394  0.9317 -0.0301 -0.6978
  980MOL0     C35169   3.564  10.462   9.440 -0.4893  0.0377 -0.1933
  980MOL0     C35170   3.626  10.601   9.465 -0.4314  0.2648 -0.2754
  980MOL0     H35171   3.273  10.588   9.875  0.5493 -2.6181 -3.0079
  980MOL0     H35172   3.105  10.710  10.003  0.6468 -2.9942  0.4932
  980MOL0     H35173   2.952  10.886  10.057 -1.0019 -0.0865  1.8298
  980MOL0     H35174   2.878  10.729  10.092 -2.1051 -0.5934 -0.0300
  980MOL0     H35175   2.780  10.958  10.176 -1.7281  1.6608 -0.5922
  980MOL0     H35176   2.717  10.980  10.022 -1.2622  0.0073  0.2626
  980MOL0     H35177   2.622  10.729  10.073  2.6013  1.7503 -3.1803
  980MOL0     H35178   2.600  10.814  10.235 -2.4978  1.8388 -1.6104
  980MOL0     H35179   2.515  10.909   9.954 -3.3500  1.1023 -1.1528
  980MOL0     H35180   2.416  10.844  10.080  0.4050 -0.1613 -1.9852
  980MOL0     H35181   2.582  11.104  10.135  0.3699 -0.9421 -0.9628
  980MOL0     H35182   2.447  11.031  10.224  3.7457 -1.1346  1.5516
  980MOL0     H35183   2.408  11.252  10.082 -2.0729 -0.0874  0.9111
  980MOL0     H35184   2.419  11.150   9.934  0.4286 -1.9205 -0.0385
  980MOL0     H35185   2.230  11.097  10.159  2.1706 -3.1639  0.6904
  980MOL0     H35186   2.245  11.000  10.016  1.0037 -0.2559  1.6073
  980MOL0     H35187   2.161  11.176   9.863  0.2871 -1.9921  0.2189
  980MOL0     H35188   2.050  11.117   9.978 -1.6409  0.6982 -5.5240
  980MOL0     H35189   2.264  11.428   9.891  3.3411  1.1344  3.0548
  980MOL0     H35190   1.995  11.691   9.895 -0.2794  0.3270  0.7683
  980MOL0     H35191   2.166  11.689   9.887 -2.1681  3.8722 -0.7477
  980MOL0     H35192   1.995  11.770  10.118 -1.3305  1.2487 -2.0687
  980MOL0     H35193   2.169  11.766  10.130 -0.9816  0.6882  0.6413
  980MOL0     H35194   2.187  11.932   9.937  0.6097 -1.4851 -0.7830
  980MOL0     H35195   2.005  11.917   9.921 -1.9361  0.4462  1.2147
  980MOL0     H35196   1.971  12.028  10.133  0.2365 -0.1029  0.2129
  980MOL0     H35197   2.152  12.033  10.148 -1.0228  0.3294  0.4606
  980MOL0     H35198   1.829  12.010   9.934 -0.0065  0.1791  0.3524
  980MOL0     H35199   1.510  12.139   9.867 -1.0918 -2.7360 -1.7879
  980MOL0     H35200   1.607  11.997   9.860 -4.0201 -1.4601 -1.7542
  980MOL0     H35201   1.591  12.111   9.729  0.5885  1.3717 -0.1462
  980MOL0     H35202   1.299  12.379   9.796  0.6229  2.1376  2.0850
  980MOL0     H35203   1.115  12.513   9.691 -0.4043 -0.3412  0.2978
  980MOL0     H35204   1.008  12.689   9.307  0.1572 -1.0430 -3.7814
  980MOL0     H35205   1.177  12.650   9.284 -0.7998  4.0122  0.2559
  980MOL0     H35206   1.043  12.481   9.160  0.2967 -0.4696 -0.3101
  980MOL0     H35207   1.147  12.419   9.275  0.9584  0.8420  0.1587
  980MOL0     H35208   0.956  12.378   9.443  0.5368 -2.7006 -1.4434
  980MOL0     H35209   0.895  12.337   9.281  0.0508  0.3018  0.1560
  980MOL0     H35210   0.785  12.541   9.259  4.1878 -0.8419 -1.0591
  980MOL0     H35211   0.825  12.589   9.418 -0.4132 -0.5513  0.1163
  980MOL0     H35212   0.655  12.340   9.378 -3.8488  1.9914 -0.6609
  980MOL0     H35213   0.722  12.395   9.529 -0.8285 -1.7487 -0.1006
  980MOL0     H35214   0.482  12.447   9.460  1.1518 -2.0199  1.5075
  980MOL0     H35215   0.548  12.562   9.331  0.8566 -0.1796 -0.6233
  980MOL0     H35216   0.626  12.727   9.491 -0.7846  0.4693 -1.5412
  980MOL0     H35217   0.579  12.620   9.623  0.1421 -1.9536 -1.2490
  980MOL0     H35218   0.401  12.745   9.414 -0.1039  0.9851  0.1551
  980MOL0     H35219   0.420  12.796   9.589  3.4503  0.0722  1.1533
  980MOL0     H35220   1.374  12.569   9.338  2.3454 -0.2182  0.4160
  980MOL0     H35221   1.548  12.458   9.455 -0.0065 -0.1643 -0.8429
  980MOL0     H35222   1.836  12.510   9.861  3.4053  1.3451  0.4502
  980MOL0     H35223   2.053  12.386   9.932  0.2968 -0.1051 -0.7442
  980MOL0     H35224   2.875  10.757   9.645  0.1030  0.9338  0.7650
  980MOL0     H35225   3.015  10.590   9.535  3.2429  0.0132 -0.6895
  980MOL0     H35226   3.266  10.298   9.486 -0.5356 -1.2149  1.0211
  980MOL0     H35227   3.414  10.115   9.435  0.0221  0.4916 -3.3071
  980MOL0     H35228   3.812  10.191   9.224 -0.7262  1.1153 -2.3853
  980MOL0     H35229   3.762  10.026   9.198 -1.7213 -0.0004  1.0095
  980MOL0     H35230   3.703  10.224   9.018  1.6714 -4.8571  0.7222
  980MOL0     H35231   3.575  10.279   9.132 -4.2244 -2.5542  2.3503
  980MOL0     H35232   3.435  10.100   9.100 -0.0342 -0.6586  0.1409
  980MOL0     H35233   3.493  10.116   8.935  2.0238  1.0669 -1.1998
  980MOL0     H35234   3.562   9.900   9.138 -0.7613  0.7857  0.3178
  980MOL0     H35235   3.681   9.941   9.022  2.4958  2.0573  7.6139
  980MOL0     H35236   3.342   9.762   8.797 -0.8492 -3.6410  1.7482
  980MOL0     H35237   3.741  10.376   9.362  2.5238  2.7408  4.6158
  980MOL0     H35238   3.593  10.653   9.374 -0.2401 -3.5027 -2.6987
  980MOL0     H35239   3.589  10.664   9.547  0.3812  0.2671  0.1028
  980MOL0     H35240   3.733  10.579   9.474 -0.3529 -0.1905 -1.9402
  981MOL0     O35241   3.259   7.230   9.648 -0.5302 -0.1534 -0.6747
  981MOL0     C35242   3.271   7.352   9.655  0.4060 -0.3755 -0.2637
  981MOL0     O35243   3.353   7.415   9.740  0.3679 -0.0107 -0.5364
  981MOL0     C35244   3.398   7.338   9.844  0.6261  0.5816 -0.2459
  981MOL0     C35245   3.351   7.365   9.974 -0.0394  0.4013  0.5128
  981MOL0     C35246   3.413   7.306  10.088 -0.3491 -0.2019  0.5182
  981MOL0     C35247   3.511   7.204  10.069 -0.0735  0.0052  0.5016
  981MOL0     O35248   3.558   7.111  10.168 -0.2346  1.0175  0.0065
  981MOL0     C35249   3.501   7.124  10.294  0.1054  1.1749 -0.2600
  981MOL0     C35250   3.355   7.068  10.288  0.5295  0.7008 -0.7492
  981MOL0     C35251   3.333   6.945  10.386  0.4998  0.1784  0.7298
  981MOL0     C35252   3.191   6.899  10.397 -0.5836  0.1665  0.1514
  981MOL0     C35253   3.149   6.879  10.532  0.4102 -0.0540  1.0069
  981MOL0     C35254   3.010   6.808  10.531  0.3563  0.8125  0.3599
  981MOL0     C35255   2.951   6.821  10.675  0.6227  0.9845 -0.0480
  981MOL0     C35256   2.847   6.698  10.697  0.1140 -0.9813 -0.6027
  981MOL0     N35257   2.731   6.708  10.609  0.8232 -0.8088 -0.0416
  981MOL0     C35258   2.617   6.792  10.613  0.6984  0.1936  0.8088
  981MOL0     C35259   2.546   6.754  10.503  0.6951 -0.5165  1.0752
  981MOL0     C35260   2.406   6.807  10.463  1.1755 -0.6047 -0.9487
  981MOL0     C35261   2.313   6.776  10.573  0.1307  0.3058 -0.2020
  981MOL0     C35262   2.170   6.810  10.536  0.0734  1.1589 -0.2423
  981MOL0     C35263   2.140   6.964  10.538  1.0374 -0.5555 -0.6543
  981MOL0     O35264   2.006   6.984  10.500  1.0306  0.1707  0.6379
  981MOL0     C35265   1.927   7.094  10.524 -0.1670  0.5659 -0.0156
  981MOL0     C35266   1.949   7.193  10.626  0.8035 -0.4565  0.2750
  981MOL0     C35267   1.869   7.301  10.648  0.7587  0.2934 -1.0687
  981MOL0     C35268   1.907   7.411  10.741 -0.3359 -0.0928 -0.0802
  981MOL0     C35269   1.748   7.301  10.580  0.7240 -0.2767  0.3830
  981MOL0     C35270   1.644   7.392  10.615 -0.1342  0.5315 -0.0624
  981MOL0     O35271   1.582   7.380  10.732  0.0382  0.3086 -0.4553
  981MOL0     C35272   1.498   7.478  10.783 -0.2495  0.0185 -0.0068
  981MOL0     C35273   1.365   7.443  10.780  0.2275 -0.2626 -0.3383
  981MOL0     C35274   1.267   7.538  10.819 -0.5173  0.3346  0.8558
  981MOL0     C35275   1.307   7.663  10.873  0.5711  0.0991 -0.0730
  981MOL0     O35276   1.222   7.761  10.915  0.3566  0.3029 -0.4078
  981MOL0     C35277   1.084   7.760  10.872 -0.0466 -0.3053  0.1501
  981MOL0     C35278   1.059   7.791  10.723  0.4911  0.0073  0.3734
  981MOL0     C35279   0.914   7.756  10.680  0.5986  0.3061  1.3998
  981MOL0     C35280   0.887   7.753  10.524  0.5966  0.1320  0.3607
  981MOL0     C35281   0.944   7.622  10.465  0.1772 -0.4791  0.0170
  981MOL0     C35282   0.874   7.501  10.503  0.3594  0.4376  0.6379
  981MOL0     C35283   0.917   7.374  10.426  0.5077 -0.2791 -1.0432
  981MOL0     C35284   0.914   7.256  10.519 -0.0119  0.2436  0.5324
  981MOL0    Cl35285   0.753   7.179  10.521 -0.0208  0.0840  0.3208
  981MOL0     C35286   1.443   7.692  10.883 -0.3048  0.1355 -0.4544
  981MOL0     C35287   1.536   7.600  10.837 -1.7232  0.4423 -0.2668
  981MOL0     O35288   1.627   7.484  10.542 -0.1197  0.9288  0.1156
  981MOL0     C35289   1.711   7.191  10.493  0.2908  0.2360 -0.3372
  981MOL0     C35290   1.798   7.088  10.466 -0.6350 -1.0598  0.2002
  981MOL0     N35291   2.617   6.678  10.413  0.5857 -0.3511  0.5825
  981MOL0     N35292   2.730   6.655  10.479  0.0458  0.0317  0.9488
  981MOL0     C35293   3.534   7.164   9.933 -0.1668  0.5306  0.0612
  981MOL0     C35294   3.484   7.230   9.823 -0.5342 -0.2829  0.3092
  981MOL0     C35295   3.181   7.433   9.567 -0.2368 -0.8848  0.0377
  981MOL0     C35296   3.216   7.572   9.560 -0.0910 -0.0480  0.3163
  981MOL0     C35297   3.139   7.659   9.474 -1.2307 -0.0022 -0.3369
  981MOL0     C35298   3.034   7.611   9.400  0.7604 -0.1995 -0.3344
  981MOL0     O35299   2.954   7.688   9.322  0.6839 -0.1725 -0.3616
  981MOL0     C35300   2.913   7.822   9.374  0.6076  0.0857  0.3360
  981MOL0     C35301   2.825   7.814   9.504  0.0383  0.2286  0.3963
  981MOL0     C35302   2.772   7.950   9.544  0.2424 -0.0023  1.0692
  981MOL0     C35303   2.674   8.009   9.448 -0.2173 -1.1371 -0.6749
  981MOL0     C35304   2.615   8.136   9.502  0.4485  0.5726 -0.4640
  981MOL0     C35305   2.573   8.234   9.553 -0.6708 -0.4874  0.0369
  981MOL0     C35306   3.004   7.475   9.404 -1.2815 -0.6047  0.4398
  981MOL0     C35307   3.068   7.385   9.482  0.0743  0.4445 -0.9615
  981MOL0     C35308   3.019   7.242   9.473  0.3705 -0.1987  1.2737
  981MOL0     H35309   3.274   7.441   9.972 -0.0728  0.5788 -4.6646
  981MOL0     H35310   3.388   7.340  10.188 -0.0756  0.1340  0.4781
  981MOL0     H35311   3.485   7.228  10.324 -0.4449  2.2431 -3.8278
  981MOL0     H35312   3.571   7.068  10.358  0.9618  0.0316 -2.1096
  981MOL0     H35313   3.287   7.149  10.315 -1.4382 -0.8806 -0.6755
  981MOL0     H35314   3.326   7.029  10.189 -0.3715 -1.5000  0.3118
  981MOL0     H35315   3.382   6.857  10.344  1.7789  0.2340  2.0548
  981MOL0     H35316   3.389   6.967  10.477  0.0275  3.0043  0.4299
  981MOL0     H35317   3.130   6.971  10.341  0.5105  1.6168  0.7598
  981MOL0     H35318   3.192   6.803  10.344  3.0462  0.1186  0.0825
  981MOL0     H35319   3.139   6.981  10.571 -0.1055  1.3065 -2.4072
  981MOL0     H35320   3.226   6.828  10.590  1.1440 -3.2576 -2.4349
  981MOL0     H35321   2.940   6.856  10.462  0.5987  1.8640  0.8139
  981MOL0     H35322   3.021   6.704  10.502 -0.1052  1.0108 -0.5796
  981MOL0     H35323   2.898   6.916  10.683 -0.7269  0.5268 -2.4351
  981MOL0     H35324   3.031   6.812  10.750 -1.1004  2.1517  2.0239
  981MOL0     H35325   2.891   6.601  10.671  1.2231 -1.0428  1.3048
  981MOL0     H35326   2.810   6.686  10.799 -1.7837 -1.2587 -1.2681
  981MOL0     H35327   2.585   6.853  10.697  0.3784  1.0239  0.0988
  981MOL0     H35328   2.361   6.760  10.375 -3.3341  2.7890 -0.8092
  981MOL0     H35329   2.411   6.913  10.437 -3.6258  1.0203  3.2380
  981MOL0     H35330   2.317   6.667  10.588  0.9068  0.4932  1.1796
  981MOL0     H35331   2.337   6.830  10.665  2.0489 -0.0597 -0.4562
  981MOL0     H35332   2.145   6.774  10.436  0.9673  2.7175 -1.0617
  981MOL0     H35333   2.103   6.759  10.607 -1.3263  1.6117 -1.1894
  981MOL0     H35334   2.157   7.005  10.638 -3.3925 -1.5378  0.6923
  981MOL0     H35335   2.195   7.017  10.460  0.7873 -0.2561 -0.6259
  981MOL0     H35336   2.044   7.184  10.677  1.1625 -0.8789 -0.4455
  981MOL0     H35337   1.835   7.419  10.823 -2.3794 -1.3479 -1.6722
  981MOL0     H35338   1.905   7.510  10.696 -0.8936  0.3455  0.8752
  981MOL0     H35339   1.998   7.388  10.798 -0.6902 -0.4163  0.3644
  981MOL0     H35340   1.344   7.345  10.739 -1.1858 -0.4865  0.8643
  981MOL0     H35341   1.161   7.513  10.814 -0.9671  1.8312  2.1021
  981MOL0     H35342   1.043   7.661  10.895 -0.0763  0.4757  4.1181
  981MOL0     H35343   1.023   7.820  10.940  0.4990  0.6515 -0.1723
  981MOL0     H35344   1.091   7.893  10.700  3.5573 -1.8929 -6.4032
  981MOL0     H35345   1.128   7.725  10.669 -0.3358 -1.3297  0.8927
  981MOL0     H35346   0.863   7.848  10.710  2.1250  1.6790 -0.0556
  981MOL0     H35347   0.885   7.661  10.727  4.0232 -0.1962  2.7984
  981MOL0     H35348   0.944   7.834  10.478 -3.2620  3.4030  0.7929
  981MOL0     H35349   0.780   7.767  10.502  0.8224 -0.9709 -1.6762
  981MOL0     H35350   0.949   7.627  10.356  0.8852 -2.8273 -0.1226
  981MOL0     H35351   1.048   7.617  10.500  0.4666  0.9190 -0.5789
  981MOL0     H35352   0.765   7.508  10.489  0.0893 -1.6301  1.2706
  981MOL0     H35353   0.884   7.487  10.611  0.2240  2.1042  0.8854
  981MOL0     H35354   1.015   7.376  10.377  0.8854  0.5406 -0.2800
  981MOL0     H35355   0.839   7.355  10.351 -1.0104 -0.5039  0.5298
  981MOL0     H35356   0.931   7.286  10.623 -1.5171 -0.9018  1.1383
  981MOL0     H35357   0.993   7.187  10.488  2.1616  3.3688 -1.4321
  981MOL0     H35358   1.477   7.792  10.909  1.5682 -0.2672 -1.1953
  981MOL0     H35359   1.643   7.614  10.826 -1.2579 -2.7829 -0.8904
  981MOL0     H35360   1.606   7.188  10.468 -0.1353 -0.4377  1.3855
  981MOL0     H35361   1.781   7.002  10.401  0.5799 -1.0287 -0.1955
  981MOL0     H35362   3.601   7.081   9.916  0.8721  0.8526  2.2820
  981MOL0     H35363   3.513   7.207   9.721  0.1882  1.7336  0.0193
  981MOL0     H35364   3.294   7.626   9.612  0.6808 -0.9664  0.1312
  981MOL0     H35365   3.167   7.762   9.457 -0.0815 -0.0286  1.2449
  981MOL0     H35366   2.996   7.888   9.400 -2.5246  3.0872  3.9656
  981MOL0     H35367   2.855   7.882   9.303  0.5723  4.4515  3.6327
  981MOL0     H35368   2.881   7.778   9.591  1.7007  2.5110  0.3688
  981MOL0     H35369   2.738   7.749   9.493 -1.9425  2.0602  3.4788
  981MOL0     H35370   2.735   7.952   9.647 -0.1409  1.2623  0.9349
  981MOL0     H35371   2.856   8.019   9.530 -1.0401  1.3560 -0.3270
  981MOL0     H35372   2.597   7.934   9.429  0.6439 -2.2902  0.2142
  981MOL0     H35373   2.726   8.037   9.356  0.2224  4.6178  0.9182
  981MOL0     H35374   2.541   8.328   9.594 -1.4517  1.0800 -3.7796
  981MOL0     H35375   2.915   7.450   9.347 -1.0812  3.5012 -2.1294
  981MOL0     H35376   2.988   7.204   9.571 -2.3330 -0.2099  0.4896
  981MOL0     H35377   2.926   7.236   9.416  1.3542  0.2625 -0.4254
  981MOL0     H35378   3.097   7.174   9.438 -0.6788 -2.4131  2.9088
  982MOL0     O35379   7.538   4.974   0.887  0.5842  0.6557  0.1547
  982MOL0     C35380   7.600   4.901   0.810 -1.3110  0.3948  1.2057
  982MOL0     O35381   7.571   4.770   0.781 -0.1433 -0.5020  0.2508
  982MOL0     C35382   7.448   4.721   0.811 -0.6016 -0.1837 -0.6564
  982MOL0     C35383   7.336   4.798   0.789 -0.0125  0.6278  0.1964
  982MOL0     C35384   7.214   4.744   0.851 -0.4800  0.2050  0.5010
  982MOL0     C35385   7.208   4.619   0.912 -0.3276  0.0442 -0.0885
  982MOL0     O35386   7.093   4.563   0.958  0.2944  0.2517 -0.0525
  982MOL0     C35387   6.961   4.628   0.940 -0.0325 -0.9421 -0.4265
  982MOL0     C35388   6.852   4.536   0.998  0.2956  0.2186  0.0092
  982MOL0     C35389   6.898   4.489   1.132 -0.1490  0.8104 -0.6954
  982MOL0     C35390   6.795   4.377   1.180 -0.6569 -1.2791  0.3100
  982MOL0     C35391   6.805   4.352   1.329  0.3417  0.3521  0.6328
  982MOL0     C35392   6.715   4.237   1.381  0.2469 -0.1480  1.3629
  982MOL0     C35393   6.725   4.227   1.532 -0.8837  0.1689  0.3719
  982MOL0     C35394   6.638   4.115   1.588 -0.9602 -0.2253  0.1774
  982MOL0     N35395   6.497   4.127   1.555 -0.1385 -0.0175 -0.4377
  982MOL0     C35396   6.439   4.048   1.455 -0.4692 -0.4927 -0.8159
  982MOL0     C35397   6.306   4.075   1.459 -0.1626  0.5071  0.2277
  982MOL0     C35398   6.194   4.026   1.379  0.6673 -0.2867  1.4613
  982MOL0     C35399   6.211   4.068   1.231 -0.0752  0.3829  0.2755
  982MOL0     C35400   6.236   3.950   1.129 -0.5730 -0.0074 -0.7414
  982MOL0     C35401   6.244   3.996   0.987  0.5907  0.0801  0.4071
  982MOL0     O35402   6.192   3.904   0.903 -0.0818  0.3256  0.6387
  982MOL0     C35403   6.134   3.940   0.782 -0.6141  0.1024 -0.4957
  982MOL0     C35404   6.193   4.048   0.707  0.6738  0.7830  0.6787
  982MOL0     C35405   6.143   4.077   0.578 -1.0542  0.7509  0.9376
  982MOL0     C35406   6.220   4.177   0.493 -0.0654 -0.9667 -0.7111
  982MOL0     C35407   6.038   3.995   0.525  0.7932  0.4972  1.2755
  982MOL0     C35408   5.967   4.040   0.405  0.6902 -0.4708 -0.3887
  982MOL0     O35409   5.933   3.947   0.323 -0.2708 -0.4819  0.7866
  982MOL0     C35410   5.883   3.982   0.198  0.6327  0.4683 -0.1962
  982MOL0     C35411   5.976   3.999   0.096  0.4543  0.0982 -0.6317
  982MOL0     C35412   5.925   4.007  -0.037 -0.1731 -0.0424  0.7772
  982MOL0     C35413   5.786   3.999  -0.058  0.3101  0.7031  0.0217
  982MOL0     O35414   5.753   4.013  -0.185 -0.4551 -0.4475  0.5008
  982MOL0     C35415   5.637   3.939  -0.252 -0.3473 -0.9185 -0.0745
  982MOL0     C35416   5.630   3.975  -0.401  0.7636 -0.1208 -0.5308
  982MOL0     C35417   5.529   3.889  -0.475 -0.5234 -0.5912 -0.9125
  982MOL0     C35418   5.475   3.955  -0.607 -0.4429  0.0989 -0.0172
  982MOL0     C35419   5.374   3.865  -0.685  0.2916  0.3282  0.6343
  982MOL0     C35420   5.319   3.937  -0.815 -0.5061 -0.0445 -0.5357
  982MOL0     C35421   5.228   3.848  -0.899 -0.3468  0.4651 -0.1459
  982MOL0     C35422   5.145   3.893  -1.018 -0.3755  0.0569  0.3710
  982MOL0    Cl35423   5.208   4.029  -1.121  0.2683 -0.2278 -0.1019
  982MOL0     C35424   5.705   3.969   0.046  1.3710 -0.4262  0.4072
  982MOL0     C35425   5.749   3.965   0.172  0.1623  0.7238  0.2379
  982MOL0     O35426   5.929   4.155   0.397 -0.1602  0.6426  0.4597
  982MOL0     C35427   5.977   3.894   0.598  0.4151 -0.2150 -0.8244
  982MOL0     C35428   6.033   3.865   0.728  0.7451 -0.3436  0.3395
  982MOL0     N35429   6.291   4.157   1.570  0.7535 -0.0984 -0.4167
  982MOL0     N35430   6.402   4.195   1.621  0.1368  0.0394  0.0027
  982MOL0     C35431   7.313   4.547   0.926 -0.0494 -0.2745 -0.6638
  982MOL0     C35432   7.437   4.597   0.882  0.2498  0.1145  0.8705
  982MOL0     C35433   7.732   4.956   0.761 -1.2754  0.4762 -0.3717
  982MOL0     C35434   7.834   4.860   0.728 -0.4078 -0.2475 -0.3160
  982MOL0     C35435   7.966   4.895   0.719  0.2777 -0.4092  0.7602
  982MOL0     C35436   8.005   5.022   0.713  0.6529 -0.5785  0.0095
  982MOL0     O35437   8.144   5.040   0.725  0.8095 -0.6380  0.6054
  982MOL0     C35438   8.203   5.175   0.725 -0.5183 -0.4273 -0.1838
  982MOL0     C35439   8.346   5.164   0.756  0.7276  0.0431 -0.1629
  982MOL0     C35440   8.417   5.295   0.794  0.2631 -0.3542 -0.3299
  982MOL0     C35441   8.561   5.275   0.826 -0.8769  0.6184  0.2882
  982MOL0     C35442   8.603   5.192   0.946  0.0324 -0.2841 -0.2122
  982MOL0     C35443   8.651   5.127   1.037 -0.7229 -0.3695 -0.5444
  982MOL0     C35444   7.905   5.132   0.729 -0.5526  0.7300 -0.0617
  982MOL0     C35445   7.766   5.092   0.753 -0.6417 -0.3855 -0.5480
  982MOL0     C35446   7.669   5.202   0.784 -0.0642 -0.5362 -1.2410
  982MOL0     H35447   7.347   4.883   0.723  0.3224  0.6153  0.2372
  982MOL0     H35448   7.123   4.800   0.830 -0.2169  1.1315  1.7296
  982MOL0     H35449   6.942   4.660   0.837 -1.1884 -0.2439 -0.0168
  982MOL0     H35450   6.965   4.716   1.005  1.7171 -1.6262  0.4392
  982MOL0     H35451   6.756   4.588   0.998 -1.6813 -3.1551 -0.9480
  982MOL0     H35452   6.830   4.446   0.940 -0.7675  1.7102 -2.0332
  982MOL0     H35453   6.994   4.435   1.133 -2.3958 -3.7019 -0.0117
  982MOL0     H35454   6.913   4.572   1.201  2.5446 -0.8177  0.8986
  982MOL0     H35455   6.690   4.396   1.154 -1.1746 -1.2461  2.2479
  982MOL0     H35456   6.832   4.292   1.123  3.0260  1.3826 -1.7380
  982MOL0     H35457   6.757   4.435   1.381  0.2168  0.0605  0.9911
  982MOL0     H35458   6.908   4.349   1.366 -0.0060 -0.7433  1.5881
  982MOL0     H35459   6.612   4.255   1.348  1.0618 -0.8702 -2.0628
  982MOL0     H35460   6.748   4.143   1.335  0.5601 -0.9269  3.1082
  982MOL0     H35461   6.700   4.324   1.576  0.4570  0.6941  0.0555
  982MOL0     H35462   6.830   4.198   1.541 -0.4336  1.9077  1.2543
  982MOL0     H35463   6.674   4.023   1.543  0.6515 -0.0173  0.9782
  982MOL0     H35464   6.652   4.103   1.696  2.3073  0.8035 -0.0389
  982MOL0     H35465   6.488   3.980   1.386 -0.4580 -0.7546 -0.5524
  982MOL0     H35466   6.096   4.062   1.414  0.8084  2.4415 -0.5931
  982MOL0     H35467   6.177   3.918   1.374 -2.2246  0.1458 -1.4061
  982MOL0     H35468   6.119   4.123   1.205  1.7262  3.1004 -0.8669
  982MOL0     H35469   6.286   4.147   1.220 -0.7142  0.8990 -0.6047
  982MOL0     H35470   6.326   3.892   1.154  0.1537  1.9383  1.4830
  982MOL0     H35471   6.157   3.876   1.146  2.3627 -2.7766  2.4385
  982MOL0     H35472   6.189   4.090   0.988 -0.0637 -0.2935  1.5613
  982MOL0     H35473   6.348   4.027   0.969  0.7034 -0.0929  0.7434
  982MOL0     H35474   6.276   4.092   0.761  1.8715 -2.0276  1.3341
  982MOL0     H35475   6.326   4.164   0.512 -0.2764 -2.5524 -0.4707
  982MOL0     H35476   6.201   4.283   0.513  1.2486 -0.2779 -2.7889
  982MOL0     H35477   6.198   4.168   0.386 -0.8242 -4.8645 -0.3671
  982MOL0     H35478   6.076   4.013   0.134 -0.2812  2.5311  0.6834
  982MOL0     H35479   6.000   4.022  -0.113  2.0068 -0.9412  2.6313
  982MOL0     H35480   5.659   3.832  -0.248 -2.5204 -1.4919 -1.5607
  982MOL0     H35481   5.536   3.961  -0.215 -1.3477  0.1610 -3.1116
  982MOL0     H35482   5.602   4.080  -0.411 -0.1151 -0.3799 -0.8467
  982MOL0     H35483   5.728   3.979  -0.449  1.6880 -0.8936  1.1739
  982MOL0     H35484   5.444   3.865  -0.412 -1.1257  0.2917 -1.3763
  982MOL0     H35485   5.573   3.792  -0.504 -0.3755 -1.1252  0.9742
  982MOL0     H35486   5.550   3.975  -0.684 -0.2654 -4.9559 -1.5123
  982MOL0     H35487   5.422   4.046  -0.578 -2.1747  0.3350 -3.4784
  982MOL0     H35488   5.434   3.778  -0.715  3.4112  2.6746 -0.4002
  982MOL0     H35489   5.290   3.826  -0.627  0.0050 -0.7668 -0.4615
  982MOL0     H35490   5.398   3.986  -0.873  1.2472 -1.2647  0.7266
  982MOL0     H35491   5.255   4.015  -0.772 -1.5877 -1.5195  0.6234
  982MOL0     H35492   5.162   3.792  -0.832 -0.9582  1.5761  0.2000
  982MOL0     H35493   5.303   3.782  -0.945  2.4959  1.4965  2.6243
  982MOL0     H35494   5.049   3.909  -0.968 -0.0745 -1.9694  1.7432
  982MOL0     H35495   5.131   3.798  -1.072  0.3240 -0.7876  1.6063
  982MOL0     H35496   5.599   3.951   0.026  1.3765 -0.3767  0.3336
  982MOL0     H35497   5.676   3.932   0.246  0.3483 -0.9681 -0.2953
  982MOL0     H35498   5.881   3.853   0.568  0.5128 -1.3500  0.3572
  982MOL0     H35499   5.983   3.787   0.785 -0.7126  0.5629  0.3368
  982MOL0     H35500   7.324   4.446   0.966  0.0221  0.2464  0.6630
  982MOL0     H35501   7.524   4.540   0.914 -0.5434 -0.1710  2.6664
  982MOL0     H35502   7.817   4.752   0.721  4.1838 -1.2388  0.5228
  982MOL0     H35503   8.041   4.818   0.706  0.0736 -0.5130  0.1531
  982MOL0     H35504   8.185   5.233   0.634  1.0565  0.0913 -0.1847
  982MOL0     H35505   8.167   5.239   0.806  2.9962  0.3417  0.9425
  982MOL0     H35506   8.404   5.122   0.673  1.5293  0.7128  0.0468
  982MOL0     H35507   8.350   5.084   0.830  1.1370 -2.9434 -3.1480
  982MOL0     H35508   8.428   5.364   0.710  0.5133 -4.0800 -3.6906
  982MOL0     H35509   8.374   5.339   0.884  0.1678  0.2447 -0.6586
  982MOL0     H35510   8.615   5.370   0.833  1.3029 -0.4975 -0.2952
  982MOL0     H35511   8.612   5.227   0.741  0.3022  0.4142  1.0865
  982MOL0     H35512   8.708   5.079   1.115  0.0785 -3.8600 -3.0351
  982MOL0     H35513   7.927   5.237   0.740 -0.6047  0.6726  0.6269
  982MOL0     H35514   7.566   5.174   0.758 -0.3210 -1.2306  0.3636
  982MOL0     H35515   7.681   5.225   0.890 -2.7532 -4.3724  0.1368
  982MOL0     H35516   7.681   5.292   0.723 -1.0041 -1.0038 -2.1475
  983MOL0     O35517   7.561   1.341   2.780  0.3849 -0.2767 -0.6799
  983MOL0     C35518   7.589   1.254   2.864  0.3454  0.5534  0.2432
  983MOL0     O35519   7.685   1.266   2.949  0.4336  0.4122 -0.1002
  983MOL0     C35520   7.737   1.396   2.965  0.9465  0.2682 -0.5286
  983MOL0     C35521   7.678   1.471   3.064  0.0304  0.4544 -0.1869
  983MOL0     C35522   7.730   1.603   3.094 -0.0421 -0.1350  0.0289
  983MOL0     C35523   7.842   1.662   3.025  0.9169  0.4173 -0.2031
  983MOL0     O35524   7.900   1.783   3.061 -0.1518 -0.2522  0.1589
  983MOL0     C35525   7.885   1.814   3.206 -0.7609  0.2925  1.1337
  983MOL0     C35526   8.010   1.886   3.272  0.3844  0.2659 -0.0783
  983MOL0     C35527   8.008   2.040   3.245  1.0897  0.8747 -0.3355
  983MOL0     C35528   8.150   2.113   3.234 -0.1455  0.2234  0.0160
  983MOL0     C35529   8.226   2.107   3.357 -0.2749  0.5163  0.6529
  983MOL0     C35530   8.159   2.164   3.485  0.1170 -0.6658 -0.1866
  983MOL0     C35531   8.249   2.146   3.608 -0.5267 -1.0361 -1.2479
  983MOL0     C35532   8.221   2.253   3.724 -0.4512  0.9401  0.2828
  983MOL0     N35533   8.166   2.189   3.845 -0.0794 -0.5960  0.2734
  983MOL0     C35534   8.040   2.129   3.858 -0.4796  0.0623 -0.1509
  983MOL0     C35535   8.041   2.071   3.982 -0.2194  0.5794  0.4427
  983MOL0     C35536   7.917   1.997   4.022  0.2464 -0.1851 -0.3346
  983MOL0     C35537   7.857   2.064   4.153 -0.5102 -0.2135  1.0659
  983MOL0     C35538   7.806   2.214   4.152 -0.3572  0.4576  0.6472
  983MOL0     C35539   7.717   2.247   4.269 -0.3883 -0.2345 -0.4796
  983MOL0     O35540   7.595   2.165   4.282  0.3256 -0.7670 -0.2419
  983MOL0     C35541   7.511   2.158   4.178  0.8264 -0.0540 -0.6408
  983MOL0     C35542   7.421   2.270   4.177  0.2440  1.0150  0.2442
  983MOL0     C35543   7.316   2.280   4.080 -0.3596  0.5620 -0.1495
  983MOL0     C35544   7.214   2.394   4.103 -0.1165 -0.0372 -0.9190
  983MOL0     C35545   7.319   2.180   3.974  0.6743 -0.8891 -0.0488
  983MOL0     C35546   7.238   2.201   3.852  0.7051 -0.2461  0.0753
  983MOL0     O35547   7.119   2.269   3.868 -0.0039  0.4588 -0.0864
  983MOL0     C35548   7.037   2.286   3.751  0.3485  1.4128 -0.5399
  983MOL0     C35549   7.050   2.397   3.676  1.1352 -0.3451 -0.4997
  983MOL0     C35550   6.966   2.416   3.566  0.3231 -0.5091 -1.0318
  983MOL0     C35551   6.863   2.315   3.535 -0.7809  0.0138 -1.1377
  983MOL0     O35552   6.772   2.330   3.436  0.0267 -0.1116  0.5102
  983MOL0     C35553   6.730   2.447   3.371 -0.4112 -0.2296  0.2617
  983MOL0     C35554   6.809   2.460   3.240 -0.2308 -0.1432 -0.6147
  983MOL0     C35555   6.772   2.346   3.136 -0.0178 -0.6834  1.0821
  983MOL0     C35556   6.865   2.344   3.020 -0.4127 -0.7349 -0.7783
  983MOL0     C35557   6.857   2.217   2.928 -0.9774  0.2467  0.0498
  983MOL0     C35558   6.933   2.229   2.790 -0.0174  1.1169 -0.2759
  983MOL0     C35559   6.932   2.109   2.692  1.1186 -0.4243  1.0123
  983MOL0     C35560   6.817   2.081   2.601 -0.4851  0.3147  0.4439
  983MOL0    Cl35561   6.821   2.208   2.460  0.3626  0.3607  0.2935
  983MOL0     C35562   6.856   2.204   3.614  0.0242  0.1152 -0.0162
  983MOL0     C35563   6.938   2.188   3.723 -0.3654  0.1378  0.0209
  983MOL0     O35564   7.282   2.150   3.756 -0.0376  0.0851 -0.1902
  983MOL0     C35565   7.407   2.064   3.981 -0.2862 -0.4829  0.0703
  983MOL0     C35566   7.505   2.060   4.084 -0.1050 -0.1984  0.0760
  983MOL0     N35567   8.163   2.085   4.038 -0.3929  0.0496  0.4211
  983MOL0     N35568   8.233   2.159   3.960  0.1013 -0.3270  0.1694
  983MOL0     C35569   7.899   1.572   2.928  0.1696  0.3980  0.3382
  983MOL0     C35570   7.844   1.442   2.896 -1.1339 -0.9669 -0.4118
  983MOL0     C35571   7.519   1.127   2.878  0.5937 -0.4040  0.2562
  983MOL0     C35572   7.566   1.036   2.982 -0.0945  1.0116 -0.0533
  983MOL0     C35573   7.494   0.920   3.011 -0.0359  0.4044 -0.2216
  983MOL0     C35574   7.387   0.867   2.928 -1.9296 -0.2292  0.1387
  983MOL0     O35575   7.305   0.761   2.960  0.2920 -0.0958  0.1175
  983MOL0     C35576   7.334   0.668   3.069 -0.0730  0.5308 -0.4467
  983MOL0     C35577   7.275   0.538   3.004 -0.1865  1.3824  0.2589
  983MOL0     C35578   7.117   0.538   3.012 -0.5496  0.8159 -0.8472
  983MOL0     C35579   7.070   0.464   3.138 -0.6129 -0.1117 -0.6517
  983MOL0     C35580   6.926   0.431   3.152  0.8323  0.2495  1.0210
  983MOL0     C35581   6.814   0.389   3.178  0.2467  0.2672 -1.0802
  983MOL0     C35582   7.353   0.953   2.817 -1.2186 -0.0334 -0.9232
  983MOL0     C35583   7.409   1.083   2.804 -0.6678 -0.7541  0.3313
  983MOL0     C35584   7.338   1.167   2.697 -0.0368  0.5266 -0.6974
  983MOL0     H35585   7.598   1.426   3.122 -2.1626 -0.0540 -3.3693
  983MOL0     H35586   7.686   1.657   3.178  0.5313  1.6552 -0.7749
  983MOL0     H35587   7.889   1.722   3.264 -0.0011  0.6702  1.6935
  983MOL0     H35588   7.792   1.871   3.211 -0.0222  2.0549 -2.2585
  983MOL0     H35589   8.011   1.880   3.381  3.5430  2.5573  0.1734
  983MOL0     H35590   8.097   1.836   3.230 -1.4485 -1.0620 -2.5232
  983MOL0     H35591   7.969   2.054   3.144  2.3541  0.8288 -0.8540
  983MOL0     H35592   7.942   2.095   3.312 -1.4630  1.3724 -3.0615
  983MOL0     H35593   8.207   2.074   3.149  2.1222 -0.2665  1.6967
  983MOL0     H35594   8.138   2.218   3.204  0.8037  0.3404  0.0281
  983MOL0     H35595   8.328   2.146   3.346 -0.1177 -0.2980 -1.0769
  983MOL0     H35596   8.246   2.000   3.370 -0.1363  0.1250 -2.2435
  983MOL0     H35597   8.143   2.272   3.478  4.1994  0.3521  2.6780
  983MOL0     H35598   8.068   2.109   3.511 -0.7428  0.8622  0.2025
  983MOL0     H35599   8.354   2.150   3.578  0.4197  1.9266  1.8311
  983MOL0     H35600   8.229   2.049   3.653 -0.2214 -0.6843 -0.3325
  983MOL0     H35601   8.312   2.306   3.753  0.0588  0.1967  0.0742
  983MOL0     H35602   8.140   2.318   3.690 -3.0094 -2.2467 -0.2196
  983MOL0     H35603   7.958   2.112   3.788  0.4718  0.1316 -1.3066
  983MOL0     H35604   7.959   1.897   4.038 -1.8898 -1.1757 -0.4860
  983MOL0     H35605   7.842   1.983   3.943  0.0684 -1.7099  0.0749
  983MOL0     H35606   7.784   1.995   4.196  0.5732 -3.1197 -1.3625
  983MOL0     H35607   7.946   2.058   4.216  2.4724 -2.3151 -2.8514
  983MOL0     H35608   7.899   2.271   4.154  0.4639 -0.8500  1.9989
  983MOL0     H35609   7.743   2.233   4.064 -0.7394 -1.0672  0.5534
  983MOL0     H35610   7.769   2.209   4.357  0.0860  0.1992 -0.5697
  983MOL0     H35611   7.699   2.353   4.287 -3.4112 -0.6290 -0.7056
  983MOL0     H35612   7.428   2.354   4.246  0.7145  0.5671  0.7496
  983MOL0     H35613   7.110   2.365   4.121 -0.3999  2.9116  3.8081
  983MOL0     H35614   7.225   2.459   4.015 -3.6590  0.1551 -1.3612
  983MOL0     H35615   7.230   2.442   4.200 -1.6409 -2.4831  0.6502
  983MOL0     H35616   7.127   2.472   3.696 -0.3345  0.4718  2.7482
  983MOL0     H35617   6.959   2.510   3.512 -1.7305 -0.1006 -0.1514
  983MOL0     H35618   6.622   2.445   3.354 -0.4090  0.3094  0.1574
  983MOL0     H35619   6.750   2.541   3.424 -2.6432 -0.2876  1.3504
  983MOL0     H35620   6.777   2.558   3.203  1.7171  0.2741 -1.3305
  983MOL0     H35621   6.914   2.477   3.264 -0.8268  2.1712  0.7148
  983MOL0     H35622   6.675   2.370   3.091 -0.2189  2.0178  2.7009
  983MOL0     H35623   6.772   2.251   3.190  1.7034 -0.1762  2.0498
  983MOL0     H35624   6.967   2.339   3.059 -0.5726 -3.3376 -0.5435
  983MOL0     H35625   6.864   2.440   2.967  1.2787  0.4965  1.2566
  983MOL0     H35626   6.892   2.135   2.990  0.9349  1.1360  0.2302
  983MOL0     H35627   6.753   2.204   2.894 -0.7537  1.9129 -1.4974
  983MOL0     H35628   7.041   2.228   2.810  0.5197 -3.5257 -2.1473
  983MOL0     H35629   6.894   2.319   2.741  1.5355  2.9038  1.5782
  983MOL0     H35630   6.941   2.015   2.747  1.1279 -1.8698 -1.2934
  983MOL0     H35631   7.021   2.113   2.629 -1.1430  0.0094 -2.4194
  983MOL0     H35632   6.722   2.082   2.655 -0.7635  1.8660 -0.0577
  983MOL0     H35633   6.831   1.983   2.553  1.9627  0.9487 -0.2550
  983MOL0     H35634   6.784   2.123   3.609  1.5886 -1.4805  1.8171
  983MOL0     H35635   6.914   2.103   3.786  2.2932 -1.6875 -1.2198
  983MOL0     H35636   7.406   1.988   3.904 -1.0378 -1.5715  1.1199
  983MOL0     H35637   7.570   1.974   4.076 -1.7017 -1.5800  1.3226
  983MOL0     H35638   7.991   1.606   2.880  0.6346  0.2952  1.1472
  983MOL0     H35639   7.887   1.385   2.814  0.8620 -0.9761  0.5888
  983MOL0     H35640   7.657   1.046   3.040 -0.8953  2.4977  1.0165
  983MOL0     H35641   7.519   0.864   3.100  2.2361  3.9475  1.6083
  983MOL0     H35642   7.440   0.668   3.096  0.2560  1.6619 -1.6121
  983MOL0     H35643   7.279   0.698   3.158  2.1554  0.7124  0.9602
  983MOL0     H35644   7.307   0.445   3.053 -0.8646 -0.1855 -2.1115
  983MOL0     H35645   7.307   0.529   2.900 -0.0243  2.0306  0.2470
  983MOL0     H35646   7.083   0.641   3.000  1.7209  1.7917  0.4138
  983MOL0     H35647   7.070   0.471   2.938  1.2387 -1.9497  0.3604
  983MOL0     H35648   7.095   0.526   3.224 -1.4950 -1.0083  0.2744
  983MOL0     H35649   7.125   0.369   3.144  1.3132  1.0628  2.3637
  983MOL0     H35650   6.718   0.358   3.215 -0.3325  3.6375  0.6618
  983MOL0     H35651   7.265   0.920   2.763 -0.6396  1.0524 -2.6179
  983MOL0     H35652   7.255   1.110   2.653 -1.5034 -2.4761  4.9434
  983MOL0     H35653   7.291   1.246   2.756  0.7674 -0.1912  0.9726
  983MOL0     H35654   7.414   1.215   2.634  1.1857 -1.0355 -0.4815
  984MOL0     O35655   3.262   4.203   4.386 -0.6918 -0.4567 -0.5919
  984MOL0     C35656   3.274   4.308   4.454 -0.4326  1.5024 -0.2499
  984MOL0     O35657   3.176   4.404   4.484 -0.0568  0.4430 -0.6533
  984MOL0     C35658   3.051   4.375   4.423 -0.3744  0.3652 -0.5432
  984MOL0     C35659   2.987   4.257   4.457 -0.5119 -0.0386  1.0100
  984MOL0     C35660   2.856   4.236   4.414  1.1116 -0.3487  0.3530
  984MOL0     C35661   2.784   4.331   4.346  0.2577  0.2814  0.0652
  984MOL0     O35662   2.667   4.309   4.282 -0.1936 -0.3794  0.8208
  984MOL0     C35663   2.567   4.238   4.345  0.1305 -0.0534  1.0682
  984MOL0     C35664   2.464   4.172   4.255 -0.1027 -0.4069  0.5914
  984MOL0     C35665   2.385   4.272   4.174  0.4304  0.9398  0.5823
  984MOL0     C35666   2.270   4.324   4.259 -0.4161 -0.1681 -0.2583
  984MOL0     C35667   2.158   4.226   4.282 -0.5167  0.1419  0.9567
  984MOL0     C35668   2.031   4.297   4.262 -0.0800 -0.3057 -0.6062
  984MOL0     C35669   1.996   4.414   4.358  0.1205  0.4932 -0.3199
  984MOL0     C35670   1.848   4.474   4.348  1.0143 -0.9483 -0.2021
  984MOL0     N35671   1.821   4.525   4.212 -0.1425  0.2267 -0.4974
  984MOL0     C35672   1.898   4.613   4.133  0.2005  0.0425  0.1186
  984MOL0     C35673   1.822   4.630   4.019  0.9063  0.4047  1.1472
  984MOL0     C35674   1.871   4.708   3.898 -0.1186 -0.0799 -0.7501
  984MOL0     C35675   1.761   4.801   3.844 -0.9957 -0.3066 -0.6930
  984MOL0     C35676   1.741   4.946   3.897  0.0494  0.4342 -0.3317
  984MOL0     C35677   1.656   5.038   3.804  0.0989  0.6960 -0.5282
  984MOL0     O35678   1.748   5.087   3.702 -0.0129 -0.0157  0.3003
  984MOL0     C35679   1.680   5.130   3.591  0.5698  0.0561  0.1279
  984MOL0     C35680   1.762   5.137   3.477  0.3674  0.3143 -0.1788
  984MOL0     C35681   1.722   5.184   3.355  0.0597 -0.5308  0.0247
  984MOL0     C35682   1.825   5.188   3.244  0.4730 -0.6654 -0.4299
  984MOL0     C35683   1.587   5.225   3.342  0.4404  0.1022  0.9253
  984MOL0     C35684   1.527   5.277   3.207 -0.3628  0.2086 -1.5002
  984MOL0     O35685   1.397   5.312   3.218 -0.4993 -0.0508 -0.2253
  984MOL0     C35686   1.329   5.361   3.115 -0.0976  1.2606  0.0413
  984MOL0     C35687   1.357   5.496   3.066  0.7093  0.7284 -0.4562
  984MOL0     C35688   1.284   5.554   2.967 -0.1818 -0.0979 -0.0447
  984MOL0     C35689   1.183   5.486   2.898 -0.2141 -0.2161 -0.9582
  984MOL0     O35690   1.114   5.549   2.803  0.0044 -0.2565  0.1220
  984MOL0     C35691   1.034   5.661   2.855  0.0938  0.8513  0.4706
  984MOL0     C35692   0.956   5.741   2.750  0.3225  0.3651  0.5114
  984MOL0     C35693   0.857   5.843   2.818  0.0560  0.2570 -0.1925
  984MOL0     C35694   0.926   5.928   2.934  0.4722  0.5408  0.0213
  984MOL0     C35695   0.837   6.046   2.979  0.2032 -0.5823 -0.0104
  984MOL0     C35696   0.888   6.114   3.105  0.1572  0.6808 -0.0385
  984MOL0     C35697   0.814   6.236   3.122  0.2759  0.0402 -0.0506
  984MOL0     C35698   0.872   6.326   3.229  0.2726 -0.0702  0.0662
  984MOL0    Cl35699   0.854   6.237   3.387 -0.0668 -0.4523 -0.0571
  984MOL0     C35700   1.160   5.351   2.925  0.2436 -0.0980  0.7124
  984MOL0     C35701   1.233   5.292   3.028  0.0609 -0.1320 -0.2660
  984MOL0     O35702   1.602   5.296   3.113  0.2192 -0.3007  0.0257
  984MOL0     C35703   1.506   5.224   3.460 -0.2506 -0.4985  0.8857
  984MOL0     C35704   1.542   5.165   3.574  0.2235  0.2053  0.2448
  984MOL0     N35705   1.701   4.563   4.034 -0.1090 -0.0866  0.5950
  984MOL0     N35706   1.708   4.498   4.143 -0.3483 -0.4679 -0.6964
  984MOL0     C35707   2.842   4.459   4.326  0.1874 -0.3590 -0.4823
  984MOL0     C35708   2.977   4.486   4.361  0.5516  1.2480  0.3285
  984MOL0     C35709   3.407   4.340   4.510 -0.2409  0.6497 -0.5549
  984MOL0     C35710   3.419   4.448   4.594  0.2835 -0.4460  0.0542
  984MOL0     C35711   3.539   4.490   4.646  0.1411  0.7355  0.2177
  984MOL0     C35712   3.657   4.414   4.616 -0.4425 -0.7418  0.1641
  984MOL0     O35713   3.767   4.487   4.650  0.2670 -0.2252  0.3546
  984MOL0     C35714   3.902   4.428   4.641  0.4892 -1.0010 -0.0511
  984MOL0     C35715   3.921   4.347   4.757 -0.5850  0.4616 -1.2100
  984MOL0     C35716   3.961   4.426   4.883  0.5579  0.2859 -0.1532
  984MOL0     C35717   4.084   4.359   4.949  0.0823 -0.6995 -0.2213
  984MOL0     C35718   4.205   4.367   4.870  0.3153 -0.3288  0.2612
  984MOL0     C35719   4.312   4.381   4.811 -0.4841 -0.2961  0.6143
  984MOL0     C35720   3.657   4.306   4.527  0.4589  0.8703  0.5950
  984MOL0     C35721   3.526   4.271   4.473 -0.3012 -0.4177 -0.7208
  984MOL0     C35722   3.539   4.147   4.387 -0.4661 -0.7861  0.3747
  984MOL0     H35723   3.037   4.176   4.510  2.0629  1.0683  0.4081
  984MOL0     H35724   2.806   4.143   4.441 -0.0604  0.7910  2.3717
  984MOL0     H35725   2.529   4.298   4.428 -1.3625 -2.4273  2.2173
  984MOL0     H35726   2.614   4.144   4.376 -1.8515 -2.2196 -1.8904
  984MOL0     H35727   2.510   4.111   4.176  0.2802  0.5190  0.0711
  984MOL0     H35728   2.401   4.119   4.327 -1.7451  0.6537 -0.0265
  984MOL0     H35729   2.462   4.344   4.145  2.7082 -2.2115 -2.0346
  984MOL0     H35730   2.349   4.228   4.080 -1.3769  0.2317  1.5677
  984MOL0     H35731   2.317   4.352   4.354  1.3447 -2.3085 -0.4020
  984MOL0     H35732   2.229   4.413   4.211 -0.5836 -0.2232 -0.2164
  984MOL0     H35733   2.161   4.178   4.381  0.2994  0.8994  1.3121
  984MOL0     H35734   2.157   4.147   4.206  0.0303  1.0561 -0.0257
  984MOL0     H35735   2.022   4.344   4.164 -3.1223  0.1865 -0.2216
  984MOL0     H35736   1.960   4.213   4.268  2.3738 -2.4861 -0.4932
  984MOL0     H35737   2.075   4.487   4.341  1.3938 -0.7501  0.0712
  984MOL0     H35738   2.014   4.398   4.465  0.7270 -0.8740 -0.6014
  984MOL0     H35739   1.776   4.397   4.379 -1.9621  2.4482  2.1499
  984MOL0     H35740   1.837   4.560   4.414 -3.4940  0.1713 -2.0536
  984MOL0     H35741   2.001   4.645   4.146  0.4020  2.4239 -4.9404
  984MOL0     H35742   1.896   4.633   3.822  6.0807  1.9827 -1.2452
  984MOL0     H35743   1.960   4.763   3.928  0.3341 -0.3087 -1.6435
  984MOL0     H35744   1.800   4.816   3.743  1.1740  1.4447  0.3130
  984MOL0     H35745   1.669   4.743   3.846 -1.1720 -0.1093  2.3407
  984MOL0     H35746   1.678   4.930   3.985  1.7560 -0.3039  0.8148
  984MOL0     H35747   1.843   4.985   3.913  1.0758 -1.8099 -1.0125
  984MOL0     H35748   1.584   4.968   3.761  1.2749  0.4005 -2.1140
  984MOL0     H35749   1.603   5.117   3.858  0.0796  0.0153  0.4614
  984MOL0     H35750   1.866   5.121   3.502 -0.1670 -0.0873  2.0648
  984MOL0     H35751   1.913   5.129   3.271  0.1066 -1.8602 -1.7437
  984MOL0     H35752   1.846   5.293   3.220 -1.3696  0.1596  1.2923
  984MOL0     H35753   1.785   5.142   3.153 -2.1470  0.4113  0.0933
  984MOL0     H35754   1.434   5.560   3.108 -0.1313 -0.5514  3.4819
  984MOL0     H35755   1.300   5.659   2.944  1.1132 -0.5843 -1.5128
  984MOL0     H35756   0.974   5.614   2.933  1.0693 -2.7921 -0.7569
  984MOL0     H35757   1.096   5.733   2.910  0.8299 -0.4144  1.3307
  984MOL0     H35758   1.016   5.801   2.682 -2.1314  1.9525 -0.4063
  984MOL0     H35759   0.887   5.675   2.695 -0.2417  0.4111  1.1561
  984MOL0     H35760   0.772   5.795   2.866  0.5442  1.8816  2.4666
  984MOL0     H35761   0.814   5.899   2.734 -2.3275 -1.5996 -0.3358
  984MOL0     H35762   1.025   5.963   2.904 -0.2331  0.7142 -2.2522
  984MOL0     H35763   0.931   5.860   3.021  0.5662 -2.0212 -1.8599
  984MOL0     H35764   0.852   6.116   2.897  0.5499 -2.2833 -1.4659
  984MOL0     H35765   0.729   6.029   2.987  0.2157 -1.1612 -0.8485
  984MOL0     H35766   0.995   6.136   3.092  0.1037  0.3571 -1.0890
  984MOL0     H35767   0.877   6.048   3.192  1.1559  3.9770  2.8482
  984MOL0     H35768   0.711   6.208   3.145  1.3893 -1.8145  3.3518
  984MOL0     H35769   0.818   6.291   3.028  2.0809  0.2662  0.1159
  984MOL0     H35770   0.822   6.424   3.229  2.4607  1.1183  0.7749
  984MOL0     H35771   0.980   6.340   3.222  0.8609 -2.7243  2.1004
  984MOL0     H35772   1.098   5.301   2.851 -2.1612  0.9669  1.8722
  984MOL0     H35773   1.222   5.186   3.047  1.9188  0.1394  3.0266
  984MOL0     H35774   1.404   5.256   3.443 -0.3620 -0.7660  1.0317
  984MOL0     H35775   1.474   5.160   3.658 -1.3653  1.3192 -0.9038
  984MOL0     H35776   2.791   4.531   4.263  0.0399 -0.5456 -0.5771
  984MOL0     H35777   3.020   4.584   4.346 -0.4679  1.3353 -2.6552
  984MOL0     H35778   3.327   4.493   4.632 -0.5529 -3.1622  1.5628
  984MOL0     H35779   3.536   4.580   4.706 -1.8060 -0.6841  2.4363
  984MOL0     H35780   3.912   4.353   4.562  0.3063 -2.9270  1.6829
  984MOL0     H35781   3.970   4.514   4.650  0.2062 -0.9356  1.9907
  984MOL0     H35782   3.984   4.261   4.729  0.3249  0.8022 -0.2697
  984MOL0     H35783   3.824   4.303   4.780  1.0139 -2.6051  0.3576
  984MOL0     H35784   3.986   4.530   4.861 -0.8610  0.8118  0.6099
  984MOL0     H35785   3.878   4.417   4.953 -0.5268 -2.4796 -1.6495
  984MOL0     H35786   4.058   4.256   4.976  0.7919 -1.1557 -1.2272
  984MOL0     H35787   4.105   4.412   5.042 -0.4096  0.7535 -0.9112
  984MOL0     H35788   4.397   4.419   4.758 -2.8780  1.2654 -2.5203
  984MOL0     H35789   3.748   4.250   4.508 -0.8718 -0.7063 -1.6336
  984MOL0     H35790   3.498   4.161   4.286 -0.6521 -1.1451  0.4006
  984MOL0     H35791   3.645   4.130   4.369  0.0868  2.8852 -0.5886
  984MOL0     H35792   3.492   4.066   4.443  2.9462 -0.7218  3.7703
  985MOL0     O35793   4.016   7.200   0.656 -0.2210  0.3318  0.1812
  985MOL0     C35794   4.066   7.181   0.770 -0.1624 -0.2293  0.7190
  985MOL0     O35795   4.039   7.252   0.891 -0.9613 -0.3876  0.6146
  985MOL0     C35796   3.949   7.360   0.899  0.5052  0.0469  0.4863
  985MOL0     C35797   3.889   7.425   0.783  0.2138  0.2589  0.1177
  985MOL0     C35798   3.798   7.527   0.806  0.0416  0.2540 -0.0965
  985MOL0     C35799   3.762   7.568   0.933  0.4376 -0.2763 -0.0015
  985MOL0     O35800   3.665   7.667   0.947 -0.1357  0.3223 -0.7823
  985MOL0     C35801   3.626   7.751   0.835  0.5726 -0.1251 -0.5265
  985MOL0     C35802   3.531   7.862   0.895 -0.3059  0.4122  0.5024
  985MOL0     C35803   3.614   7.976   0.957 -0.7990  1.2543 -0.1859
  985MOL0     C35804   3.650   7.950   1.109 -0.7372 -0.1531  0.5385
  985MOL0     C35805   3.530   7.984   1.200 -0.3801 -0.7750  0.1727
  985MOL0     C35806   3.491   8.134   1.201  0.4856  0.4635 -0.5066
  985MOL0     C35807   3.397   8.157   1.316 -0.2169  0.2886  0.1227
  985MOL0     C35808   3.359   8.305   1.336 -0.0399 -0.3992  0.4833
  985MOL0     N35809   3.275   8.365   1.233  0.7529  0.4680 -0.5346
  985MOL0     C35810   3.319   8.432   1.121 -0.9007 -1.0250 -0.3852
  985MOL0     C35811   3.210   8.445   1.046 -1.3992 -0.6263  0.9188
  985MOL0     C35812   3.210   8.504   0.910  0.0170 -0.3792  0.4929
  985MOL0     C35813   3.071   8.508   0.847 -1.0092 -1.4975 -0.1257
  985MOL0     C35814   2.986   8.607   0.923  0.6459 -0.0227 -0.6437
  985MOL0     C35815   2.852   8.623   0.851 -1.2731  0.1197  0.3214
  985MOL0     O35816   2.786   8.719   0.924 -1.0799  0.1768  0.0008
  985MOL0     C35817   2.680   8.782   0.869  0.8230 -0.4784 -0.1592
  985MOL0     C35818   2.635   8.778   0.740 -0.3869  0.6715 -0.6938
  985MOL0     C35819   2.528   8.855   0.693 -0.2941  0.7559 -0.7113
  985MOL0     C35820   2.499   8.848   0.544 -0.2866  0.5486  0.3121
  985MOL0     C35821   2.463   8.939   0.782  0.3113  0.4573 -0.8169
  985MOL0     C35822   2.333   8.997   0.755 -0.1527  0.4447  0.6760
  985MOL0     O35823   2.293   9.090   0.858 -0.3286  0.5288 -0.1865
  985MOL0     C35824   2.194   9.176   0.848 -0.7650 -1.1173 -0.5600
  985MOL0     C35825   2.078   9.159   0.773  0.3204  0.0168  0.0204
  985MOL0     C35826   1.978   9.259   0.765  0.6307 -0.4789 -0.4196
  985MOL0     C35827   1.997   9.388   0.824  0.3245  0.4123 -0.1801
  985MOL0     O35828   1.893   9.481   0.836  0.5832 -0.1671  0.7085
  985MOL0     C35829   1.927   9.624   0.871  0.1581 -0.2971 -0.1363
  985MOL0     C35830   2.008   9.686   0.756  0.1147  0.4439  0.9713
  985MOL0     C35831   2.034   9.829   0.797  0.1537 -0.5902  0.6124
  985MOL0     C35832   2.128   9.906   0.710 -0.8684 -1.1932  0.1506
  985MOL0     C35833   2.166  10.044   0.759 -0.3522  0.2674 -0.3445
  985MOL0     C35834   2.239  10.137   0.661 -0.7207  0.1087 -0.6986
  985MOL0     C35835   2.243  10.277   0.722  0.6446  0.9565 -0.9545
  985MOL0     C35836   2.300  10.381   0.627 -0.9247 -0.2168  0.5967
  985MOL0    Cl35837   2.469  10.338   0.601  0.0473  0.5139 -0.3266
  985MOL0     C35838   2.119   9.404   0.898 -0.0146  0.3657  0.5352
  985MOL0     C35839   2.214   9.302   0.908  0.1099 -0.3532 -0.0540
  985MOL0     O35840   2.264   8.969   0.656 -0.0553 -0.8295 -0.1410
  985MOL0     C35841   2.515   8.940   0.916  0.2005  0.7467 -0.1330
  985MOL0     C35842   2.618   8.867   0.961 -0.5018 -1.5506  0.1070
  985MOL0     N35843   3.108   8.380   1.105 -0.0194  0.1669 -0.8897
  985MOL0     N35844   3.137   8.335   1.222 -0.9997 -0.6978  0.3836
  985MOL0     C35845   3.823   7.516   1.050 -0.2823  0.5218 -0.3338
  985MOL0     C35846   3.920   7.415   1.029 -0.4602  0.9030 -0.3695
  985MOL0     C35847   4.156   7.065   0.783 -0.5189  0.0634  0.8725
  985MOL0     C35848   4.121   6.954   0.700  0.0665 -0.4965 -0.1543
  985MOL0     C35849   4.185   6.832   0.700 -2.1076  0.3622  0.9467
  985MOL0     C35850   4.289   6.813   0.786  0.4916 -0.1596 -0.5629
  985MOL0     O35851   4.364   6.699   0.811  0.4506  0.4099 -0.5583
  985MOL0     C35852   4.335   6.583   0.729 -0.0406  0.1692 -0.6559
  985MOL0     C35853   4.413   6.475   0.790  0.3112 -0.1293 -0.1265
  985MOL0     C35854   4.551   6.477   0.751 -1.1993  0.3782  0.3322
  985MOL0     C35855   4.645   6.403   0.853  0.2069 -0.7915  0.5457
  985MOL0     C35856   4.785   6.418   0.812  0.2711  1.0564 -0.4390
  985MOL0     C35857   4.904   6.441   0.798 -0.3737  0.8189  0.0194
  985MOL0     C35858   4.332   6.926   0.860  0.4490  0.7096 -0.3691
  985MOL0     C35859   4.272   7.055   0.862  0.5499  1.7302 -0.6777
  985MOL0     C35860   4.326   7.163   0.952 -0.7742  0.3962  0.0533
  985MOL0     H35861   3.912   7.392   0.682 -1.3346 -1.7810  0.3638
  985MOL0     H35862   3.745   7.555   0.715  3.4251  1.1126 -1.9755
  985MOL0     H35863   3.576   7.685   0.763 -2.4167 -2.8231  3.5518
  985MOL0     H35864   3.716   7.798   0.796 -0.6605  1.3121 -1.7954
  985MOL0     H35865   3.468   7.896   0.812 -0.6058  4.1095  2.0805
  985MOL0     H35866   3.466   7.800   0.958  1.2498 -3.6529 -1.4608
  985MOL0     H35867   3.698   7.991   0.888 -0.2881  2.3295  0.6391
  985MOL0     H35868   3.549   8.064   0.957  0.0950  1.9607 -1.6783
  985MOL0     H35869   3.679   7.847   1.131 -1.5842 -0.7145 -0.7898
  985MOL0     H35870   3.739   8.009   1.131  0.5643 -1.6550 -0.4663
  985MOL0     H35871   3.566   7.954   1.299  2.5298  2.4444  0.2555
  985MOL0     H35872   3.449   7.919   1.165 -2.6035  1.9072 -0.0691
  985MOL0     H35873   3.580   8.194   1.224  2.9026 -3.4791  1.6041
  985MOL0     H35874   3.443   8.169   1.109 -2.0039 -1.3857 -0.0169
  985MOL0     H35875   3.455   8.137   1.406 -0.7930 -0.4899  0.3325
  985MOL0     H35876   3.300   8.108   1.303 -0.9496  1.9716 -1.1074
  985MOL0     H35877   3.318   8.320   1.436  1.7579 -0.1872  1.2319
  985MOL0     H35878   3.454   8.360   1.339 -0.1393  0.1974 -3.0519
  985MOL0     H35879   3.419   8.472   1.107 -1.2848 -0.4402 -1.5860
  985MOL0     H35880   3.274   8.439   0.850  0.6813  1.2205 -0.6095
  985MOL0     H35881   3.253   8.605   0.905  0.0771 -0.4370 -0.2731
  985MOL0     H35882   3.079   8.523   0.739  3.7582  0.7925  0.2980
  985MOL0     H35883   3.027   8.408   0.856  1.4403 -2.8558 -1.9746
  985MOL0     H35884   2.952   8.569   1.020 -1.9927 -1.9144 -2.1920
  985MOL0     H35885   3.028   8.708   0.930 -2.3352  1.4854 -2.4535
  985MOL0     H35886   2.885   8.645   0.749  2.5042 -3.2699  0.5263
  985MOL0     H35887   2.791   8.532   0.843 -2.2806  0.6185  1.9496
  985MOL0     H35888   2.674   8.712   0.664 -2.3233  0.3832 -1.4879
  985MOL0     H35889   2.411   8.785   0.530  1.4899 -2.9329  3.2116
  985MOL0     H35890   2.582   8.791   0.500 -0.3839 -0.7233  1.7157
  985MOL0     H35891   2.480   8.941   0.489  0.3587  0.6214  0.1937
  985MOL0     H35892   2.058   9.073   0.709  2.0757  0.1286 -0.7272
  985MOL0     H35893   1.885   9.252   0.711  0.9545  4.5239 -2.1794
  985MOL0     H35894   1.833   9.678   0.882  0.9190  0.5961  3.1078
  985MOL0     H35895   1.977   9.643   0.966 -1.7225  2.0979  0.4847
  985MOL0     H35896   2.106   9.638   0.755 -1.6946 -3.8437  2.9212
  985MOL0     H35897   1.961   9.676   0.658 -1.9451 -0.3561  1.9733
  985MOL0     H35898   2.093   9.835   0.888 -0.1431 -1.2847  0.8527
  985MOL0     H35899   1.939   9.880   0.813  0.5036  1.1409 -2.0780
  985MOL0     H35900   2.078   9.926   0.615  1.0457  2.6533 -0.2544
  985MOL0     H35901   2.218   9.852   0.681 -0.6612 -1.7026  1.6398
  985MOL0     H35902   2.092  10.097   0.819  1.2116  0.4186  1.5146
  985MOL0     H35903   2.247  10.025   0.830 -1.2371  1.4391  1.0157
  985MOL0     H35904   2.173  10.140   0.574 -0.8122  3.6797 -0.6311
  985MOL0     H35905   2.342  10.105   0.642 -0.0051  1.1823  1.1252
  985MOL0     H35906   2.302  10.274   0.815 -2.6298  3.0184  1.4015
  985MOL0     H35907   2.144  10.308   0.755  2.0110  2.5913  2.1497
  985MOL0     H35908   2.298  10.484   0.666  2.8975 -0.0758  0.8039
  985MOL0     H35909   2.242  10.375   0.534  1.5767  1.9555 -1.2480
  985MOL0     H35910   2.134   9.500   0.947 -3.6111  1.8863 -0.9949
  985MOL0     H35911   2.308   9.326   0.957 -0.5737  0.7597  0.7622
  985MOL0     H35912   2.450   8.986   0.990 -2.9202 -1.4357 -1.3192
  985MOL0     H35913   2.659   8.865   1.062  3.6125 -0.7003 -1.3216
  985MOL0     H35914   3.801   7.559   1.147 -0.4583 -1.6194  0.6392
  985MOL0     H35915   3.978   7.376   1.112 -0.4703  0.4129 -0.5927
  985MOL0     H35916   4.043   6.959   0.624 -0.9783 -3.0531  0.6208
  985MOL0     H35917   4.145   6.747   0.646  0.8405 -1.0332  0.7497
  985MOL0     H35918   4.230   6.554   0.739 -0.7621  2.1597 -1.7400
  985MOL0     H35919   4.350   6.597   0.621 -2.2863  0.3465 -0.9880
  985MOL0     H35920   4.352   6.384   0.782  0.5452 -0.2916 -0.0697
  985MOL0     H35921   4.422   6.498   0.897  3.9678 -0.7653 -0.1543
  985MOL0     H35922   4.574   6.443   0.650  4.0665  2.0134  0.6724
  985MOL0     H35923   4.587   6.581   0.746  1.0512 -0.4074 -2.0998
  985MOL0     H35924   4.610   6.299   0.845 -0.1501 -0.5385 -2.3501
  985MOL0     H35925   4.624   6.429   0.957  1.7132 -0.6438  0.8433
  985MOL0     H35926   4.998   6.470   0.757 -1.7198  1.2470 -3.0613
  985MOL0     H35927   4.409   6.913   0.934  1.5737  2.3061 -1.1974
  985MOL0     H35928   4.409   7.207   0.895 -0.0464  1.0797  1.5853
  985MOL0     H35929   4.251   7.237   0.978 -1.1224 -0.0101  0.2179
  985MOL0     H35930   4.361   7.119   1.046 -0.4764 -0.3684 -0.4008
  986MOL0     O35931   9.760   1.536   7.888  0.3097  0.7934 -0.4082
  986MOL0     C35932   9.873   1.484   7.907 -0.1508 -0.1575  0.5584
  986MOL0     O35933   9.993   1.520   7.840 -0.6014  0.1846  1.0492
  986MOL0     C35934  10.012   1.642   7.772 -0.3961 -0.5726  0.5911
  986MOL0     C35935   9.915   1.705   7.696 -0.4153 -0.7020 -0.1352
  986MOL0     C35936   9.936   1.826   7.638 -0.9549 -0.2341 -0.2183
  986MOL0     C35937  10.064   1.895   7.663 -0.2761  0.7637  0.0372
  986MOL0     O35938  10.094   2.019   7.613 -0.1220  0.4659  0.5918
  986MOL0     C35939   9.985   2.102   7.559 -0.6222  0.7483 -0.2749
  986MOL0     C35940   9.893   2.152   7.666 -0.5890 -0.5045  0.5142
  986MOL0     C35941   9.958   2.216   7.790  0.6088  0.2293 -0.3652
  986MOL0     C35942   9.842   2.255   7.884  0.3950 -0.4234 -0.1432
  986MOL0     C35943   9.898   2.328   8.007  0.1506  0.7238  0.2123
  986MOL0     C35944   9.801   2.431   8.065  0.1665 -0.2719 -1.3428
  986MOL0     C35945   9.733   2.382   8.205  0.4706 -0.2120 -0.4439
  986MOL0     C35946   9.652   2.248   8.199 -1.0200 -0.6724 -0.6066
  986MOL0     N35947   9.518   2.253   8.261 -0.4508  0.1412 -0.2555
  986MOL0     C35948   9.491   2.254   8.394 -0.2322  0.0061  1.3084
  986MOL0     C35949   9.358   2.233   8.405  0.1176  0.0942  0.0766
  986MOL0     C35950   9.266   2.222   8.525 -0.1804  1.0687  0.9672
  986MOL0     C35951   9.303   2.327   8.619 -0.7453  0.4994  0.1642
  986MOL0     C35952   9.217   2.315   8.748 -0.0121  0.1439  0.7866
  986MOL0     C35953   9.291   2.379   8.871 -0.1517  0.5797  0.3725
  986MOL0     O35954   9.206   2.375   8.988 -0.0008  0.3569  0.3153
  986MOL0     C35955   9.253   2.379   9.119 -0.6599 -0.3147 -0.4012
  986MOL0     C35956   9.349   2.460   9.164 -0.5942  0.0884 -0.7655
  986MOL0     C35957   9.386   2.487   9.294  0.0758 -0.3918 -0.8483
  986MOL0     C35958   9.490   2.588   9.315  0.1097  1.1733  0.5452
  986MOL0     C35959   9.314   2.413   9.393 -0.5598 -0.2724  0.3503
  986MOL0     C35960   9.359   2.422   9.537  0.5225 -0.4159  0.4967
  986MOL0     O35961   9.258   2.383   9.622  0.7581 -0.1297 -0.3550
  986MOL0     C35962   9.250   2.442   9.743  0.9827 -0.4330 -0.7410
  986MOL0     C35963   9.208   2.575   9.755 -0.4869  0.3385  0.5689
  986MOL0     C35964   9.215   2.641   9.881  0.1132  0.4262  0.3124
  986MOL0     C35965   9.254   2.572   9.999  0.4355  1.4142  0.0931
  986MOL0     O35966   9.260   2.637  10.114  0.1773 -0.6860 -0.4514
  986MOL0     C35967   9.242   2.563  10.239  0.1254 -0.6777  0.9372
  986MOL0     C35968   9.212   2.661  10.353 -0.6383 -0.0719  0.0669
  986MOL0     C35969   9.083   2.727  10.320  1.3313 -0.0975  0.5168
  986MOL0     C35970   8.992   2.777  10.434 -0.4525 -0.2590 -1.0861
  986MOL0     C35971   8.883   2.867  10.372  0.8930  0.3439  0.8180
  986MOL0     C35972   8.929   3.005  10.333 -0.0710 -0.0353 -0.1151
  986MOL0     C35973   8.818   3.110  10.313 -1.3881  0.6521  0.1445
  986MOL0     C35974   8.854   3.232  10.215  0.2388  0.2057  0.4509
  986MOL0    Cl35975   8.890   3.371  10.321  0.1835 -0.0754 -0.3546
  986MOL0     C35976   9.284   2.442   9.980 -0.3393 -0.0691  1.0350
  986MOL0     C35977   9.283   2.371   9.856  0.1387 -0.3605 -0.6820
  986MOL0     O35978   9.480   2.453   9.575 -0.1253  0.0910 -0.0087
  986MOL0     C35979   9.204   2.326   9.354 -0.0568  0.3198  0.3351
  986MOL0     C35980   9.173   2.320   9.218  0.1317 -0.7714  0.2031
  986MOL0     N35981   9.315   2.228   8.280  0.2186  1.0979  0.4089
  986MOL0     N35982   9.410   2.222   8.191 -0.4130  0.0015  0.1206
  986MOL0     C35983  10.163   1.824   7.729  0.3566  0.1557 -1.1105
  986MOL0     C35984  10.137   1.690   7.782 -0.4319  0.2326  1.1248
  986MOL0     C35985   9.876   1.374   7.999 -0.0697  0.2647 -0.1717
  986MOL0     C35986   9.766   1.317   8.063  0.3234  0.1285 -0.5088
  986MOL0     C35987   9.764   1.214   8.151  0.0879 -0.0445  0.4772
  986MOL0     C35988   9.884   1.174   8.198 -0.1065 -0.1625 -0.1105
  986MOL0     O35989   9.889   1.051   8.276 -0.7663 -0.1684  0.1532
  986MOL0     C35990   9.775   1.019   8.354 -0.6334  0.8981  0.4155
  986MOL0     C35991   9.843   0.958   8.487 -0.3547  0.0070  0.4018
  986MOL0     C35992   9.756   0.854   8.562 -0.3223  0.4685  1.1646
  986MOL0     C35993   9.612   0.886   8.576  0.0144  0.1394  0.5757
  986MOL0     C35994   9.542   0.791   8.651 -0.3297 -0.3799 -0.3867
  986MOL0     C35995   9.488   0.707   8.722  0.5916 -0.4082  0.2956
  986MOL0     C35996  10.000   1.223   8.151 -0.2475 -0.4824  0.7410
  986MOL0     C35997  10.008   1.323   8.053 -0.2541 -0.6527  0.2945
  986MOL0     C35998  10.144   1.369   8.007  0.5170  0.6815  0.1871
  986MOL0     H35999   9.811   1.672   7.693 -0.5418 -0.4293  0.9720
  986MOL0     H36000   9.856   1.879   7.587  0.1169  1.2969 -0.3888
  986MOL0     H36001   9.925   2.045   7.486  1.4721 -1.7480 -0.1998
  986MOL0     H36002  10.037   2.182   7.506  1.3007  0.6287  1.2995
  986MOL0     H36003   9.829   2.225   7.616 -0.4470 -2.3266 -2.5479
  986MOL0     H36004   9.821   2.075   7.694 -0.2851 -0.7636  0.5887
  986MOL0     H36005  10.016   2.145   7.850 -0.5479  1.8399  2.9165
  986MOL0     H36006  10.037   2.288   7.768  1.9560  0.3643  3.9915
  986MOL0     H36007   9.770   2.319   7.831  1.7891 -0.4782 -2.1877
  986MOL0     H36008   9.786   2.165   7.913 -3.0187  1.1970 -1.1527
  986MOL0     H36009   9.979   2.391   7.969  0.3771 -0.0929 -0.7031
  986MOL0     H36010   9.938   2.264   8.086 -2.2729  0.4770  1.3305
  986MOL0     H36011   9.849   2.526   8.092 -0.5063 -0.4084  0.4798
  986MOL0     H36012   9.725   2.455   7.990  1.8263  2.1443 -2.3918
  986MOL0     H36013   9.661   2.457   8.239  2.7768  2.6511 -1.4732
  986MOL0     H36014   9.804   2.374   8.287 -1.4354  0.4681  1.3696
  986MOL0     H36015   9.629   2.236   8.092  1.6874 -0.0732 -1.3364
  986MOL0     H36016   9.715   2.164   8.228  0.8458 -0.7266 -4.2076
  986MOL0     H36017   9.571   2.262   8.467  2.2949  0.2590 -1.3335
  986MOL0     H36018   9.295   2.124   8.564  1.7985  1.2421  0.0572
  986MOL0     H36019   9.160   2.229   8.499 -0.1569 -0.5609  0.3365
  986MOL0     H36020   9.409   2.307   8.637 -1.5382 -2.3235  2.4033
  986MOL0     H36021   9.276   2.421   8.570 -1.4254 -2.1044 -5.2215
  986MOL0     H36022   9.121   2.362   8.724 -0.3607  0.4121  2.5929
  986MOL0     H36023   9.203   2.211   8.779 -2.8292  0.7780  1.9102
  986MOL0     H36024   9.394   2.346   8.882  0.1911  1.7968  1.0813
  986MOL0     H36025   9.316   2.483   8.847  3.5699 -0.0909  0.8467
  986MOL0     H36026   9.418   2.502   9.092 -0.3299 -1.1672 -1.2800
  986MOL0     H36027   9.525   2.630   9.220  2.3022 -2.8068 -0.5971
  986MOL0     H36028   9.582   2.552   9.361 -1.0616 -0.7781  1.4356
  986MOL0     H36029   9.460   2.675   9.375 -2.1717  1.3491 -0.7386
  986MOL0     H36030   9.203   2.627   9.660 -1.0151  0.6116  0.7391
  986MOL0     H36031   9.194   2.747   9.882 -2.6588  0.0996  4.4696
  986MOL0     H36032   9.158   2.494  10.230  1.5163 -2.1308 -2.8264
  986MOL0     H36033   9.322   2.493  10.264 -1.8387 -4.4921 -2.4215
  986MOL0     H36034   9.198   2.608  10.448  1.3900  3.3724  2.5097
  986MOL0     H36035   9.292   2.732  10.377 -2.3867  2.4349 -1.0843
  986MOL0     H36036   9.022   2.657  10.264 -1.0575  1.1491  1.4142
  986MOL0     H36037   9.104   2.817  10.262  0.1766  0.3111  0.7048
  986MOL0     H36038   9.041   2.820  10.521 -3.3058  2.7648 -0.7837
  986MOL0     H36039   8.951   2.683  10.472  1.7907 -1.4676 -1.4549
  986MOL0     H36040   8.843   2.818  10.283  1.7641 -1.9357  1.5937
  986MOL0     H36041   8.790   2.868  10.428 -0.8974 -0.7177 -1.9532
  986MOL0     H36042   8.970   2.993  10.232 -2.3834 -0.7615 -1.0319
  986MOL0     H36043   9.000   3.042  10.407  1.0274  0.7994 -1.5386
  986MOL0     H36044   8.783   3.144  10.411 -0.0883  0.9350  0.5300
  986MOL0     H36045   8.733   3.064  10.261  0.9321 -0.0316 -3.4046
  986MOL0     H36046   8.766   3.260  10.157  1.1108  1.2186 -0.4199
  986MOL0     H36047   8.934   3.201  10.147 -2.7918  1.1792 -3.9646
  986MOL0     H36048   9.319   2.390  10.068  1.1451  1.5310  1.4520
  986MOL0     H36049   9.311   2.266   9.858  0.9013 -0.1772 -1.3808
  986MOL0     H36050   9.137   2.281   9.427 -0.9965  1.2775  0.0829
  986MOL0     H36051   9.092   2.258   9.182  2.1097 -3.0954 -0.4219
  986MOL0     H36052  10.256   1.879   7.728 -0.8810  2.3630 -0.7372
  986MOL0     H36053  10.207   1.630   7.840 -1.1253 -1.2787  0.4420
  986MOL0     H36054   9.663   1.350   8.062 -0.5563 -1.9746  2.8264
  986MOL0     H36055   9.663   1.178   8.168 -0.0583  0.0929 -0.0612
  986MOL0     H36056   9.703   1.092   8.391  1.0152  0.5308  4.9666
  986MOL0     H36057   9.722   0.941   8.299  3.4553 -0.0358 -2.7856
  986MOL0     H36058   9.865   1.043   8.552 -1.3818  0.0945  0.6518
  986MOL0     H36059   9.940   0.918   8.455 -1.7514 -1.4748 -2.3779
  986MOL0     H36060   9.773   0.760   8.507 -3.5321 -1.9032  3.8323
  986MOL0     H36061   9.797   0.834   8.661  1.4308 -2.2933  0.0051
  986MOL0     H36062   9.572   0.878   8.474  0.3763 -1.5686  0.5496
  986MOL0     H36063   9.606   0.986   8.621 -6.0490 -0.3092  1.4770
  986MOL0     H36064   9.443   0.632   8.785 -0.5056 -1.6366 -1.8602
  986MOL0     H36065  10.085   1.197   8.214 -0.0385  3.2323  2.2459
  986MOL0     H36066  10.162   1.329   7.906  0.4253 -0.8097  0.7380
  986MOL0     H36067  10.154   1.478   8.001  0.6805  0.6199 -1.1751
  986MOL0     H36068  10.228   1.331   8.066  0.6600 -0.7208 -0.8529
  987MOL0     O36069   3.169   8.271  11.360  0.0747  0.0950 -0.1547
  987MOL0     C36070   3.163   8.191  11.264  0.3830  0.4153 -0.9714
  987MOL0     O36071   3.210   8.060  11.274  0.7042  0.4565  0.0735
  987MOL0     C36072   3.232   8.017  11.407 -0.4579 -0.4569  0.1843
  987MOL0     C36073   3.134   7.998  11.503  0.3948 -0.4887 -0.5314
  987MOL0     C36074   3.182   7.957  11.627  0.1061  0.2786  1.1905
  987MOL0     C36075   3.316   7.916  11.656  0.2014 -0.5968 -0.4441
  987MOL0     O36076   3.359   7.853  11.765 -0.4926  0.7867 -0.6586
  987MOL0     C36077   3.267   7.823  11.870 -0.0841 -0.0460 -0.4785
  987MOL0     C36078   3.171   7.707  11.849  0.5443  0.6485  1.2163
  987MOL0     C36079   3.074   7.680  11.962  0.1988 -0.0417 -0.3481
  987MOL0     C36080   3.127   7.687  12.103 -0.5472  1.1117 -0.4971
  987MOL0     C36081   3.059   7.579  12.198 -0.1830 -0.5560  0.4642
  987MOL0     C36082   3.095   7.605  12.343 -0.5505  0.3434 -0.3430
  987MOL0     C36083   3.247   7.572  12.365 -0.1367  0.2925  0.6955
  987MOL0     C36084   3.300   7.587  12.504 -0.4177 -0.0990 -0.1063
  987MOL0     N36085   3.240   7.501  12.602  0.6257 -0.5378  0.2365
  987MOL0     C36086   3.215   7.360  12.603  0.0601  0.6551 -0.0913
  987MOL0     C36087   3.114   7.338  12.689  0.4102 -0.0571  0.9390
  987MOL0     C36088   3.045   7.212  12.714  0.5889 -0.2234  0.1125
  987MOL0     C36089   3.108   7.130  12.823  0.8060  1.0380 -0.2380
  987MOL0     C36090   3.048   6.981  12.819  1.3125 -0.0828  0.3795
  987MOL0     C36091   2.902   6.982  12.863  1.1720  0.0738  0.0462
  987MOL0     O36092   2.905   7.027  13.002  1.4084 -0.3678  0.1775
  987MOL0     C36093   2.868   6.936  13.094  0.2848 -0.1613 -0.3255
  987MOL0     C36094   2.784   6.973  13.201 -0.1342 -0.2919 -0.1918
  987MOL0     C36095   2.751   6.890  13.310  0.1401 -0.9424 -0.5048
  987MOL0     C36096   2.685   6.960  13.425  0.7107  0.1926 -0.3720
  987MOL0     C36097   2.799   6.758  13.310 -0.6327  0.6358 -0.1272
  987MOL0     C36098   2.781   6.671  13.427 -0.6962  1.1140  0.7919
  987MOL0     O36099   2.876   6.574  13.437 -0.6953  0.1750 -0.0023
  987MOL0     C36100   2.895   6.519  13.566  1.0893  0.8244  0.7390
  987MOL0     C36101   2.860   6.387  13.591  0.6481 -0.8520  1.1243
  987MOL0     C36102   2.875   6.338  13.722  0.5836 -0.1819  0.1389
  987MOL0     C36103   2.907   6.423  13.827 -0.3587  0.0610  0.3592
  987MOL0     O36104   2.913   6.355  13.942 -0.4667  0.7790 -0.0724
  987MOL0     C36105   2.977   6.421  14.047 -0.2777  0.3284  0.5075
  987MOL0     C36106   2.892   6.502  14.140 -0.1136 -0.0973  0.2846
  987MOL0     C36107   2.823   6.407  14.235 -0.5333  0.1739  0.3245
  987MOL0     C36108   2.699   6.345  14.177 -0.1777  0.5662 -0.1082
  987MOL0     C36109   2.649   6.249  14.279  0.4293  0.8963 -0.2004
  987MOL0     C36110   2.507   6.196  14.242 -1.4140 -0.3490  0.1056
  987MOL0     C36111   2.465   6.098  14.349 -0.1045  0.8506 -0.6378
  987MOL0     C36112   2.336   6.026  14.310  0.1555 -0.1717  0.2000
  987MOL0    Cl36113   2.246   6.022  14.458 -0.3580 -0.3436  0.3485
  987MOL0     C36114   2.944   6.553  13.800  0.0337 -0.3130 -0.2612
  987MOL0     C36115   2.946   6.606  13.668 -0.9435  0.8858 -0.1710
  987MOL0     O36116   2.692   6.698  13.508 -1.0411  0.3473 -1.1711
  987MOL0     C36117   2.871   6.718  13.200 -0.8659  0.6720 -0.0502
  987MOL0     C36118   2.911   6.803  13.097 -0.5810 -0.3922 -0.0895
  987MOL0     N36119   3.080   7.460  12.742  0.2045  0.3457 -1.2431
  987MOL0     N36120   3.158   7.556  12.689  0.5135  0.6325 -0.4820
  987MOL0     C36121   3.411   7.948  11.559  0.3842  0.6844 -0.4092
  987MOL0     C36122   3.367   8.006  11.444 -0.0336  0.7746 -0.1807
  987MOL0     C36123   3.114   8.238  11.134  0.2619  0.0392  0.0311
  987MOL0     C36124   3.162   8.181  11.012  0.8796 -0.0291 -0.6987
  987MOL0     C36125   3.112   8.219  10.886 -0.8164  0.0605 -0.6104
  987MOL0     C36126   3.029   8.324  10.878  0.2596 -0.1314  0.5646
  987MOL0     O36127   2.988   8.378  10.763 -0.0924  0.1446  0.4589
  987MOL0     C36128   2.962   8.299  10.636  0.2233 -0.1313 -0.7200
  987MOL0     C36129   2.821   8.342  10.594 -0.0386 -0.1678  0.3234
  987MOL0     C36130   2.765   8.243  10.496 -0.2493  0.2057  0.6390
  987MOL0     C36131   2.618   8.232  10.485  0.0857  0.1256 -0.4659
  987MOL0     C36132   2.577   8.156  10.364  0.0996 -0.6220  0.5902
  987MOL0     C36133   2.538   8.100  10.262 -0.9866  0.6983  0.3394
  987MOL0     C36134   2.980   8.389  10.995 -0.9060  0.4839 -1.1305
  987MOL0     C36135   3.021   8.342  11.123  0.3063 -1.3381 -1.1975
  987MOL0     C36136   2.953   8.414  11.237 -0.9174 -1.0696 -0.3755
  987MOL0     H36137   3.030   8.020  11.479  0.8940  2.4915 -0.3042
  987MOL0     H36138   3.106   7.942  11.704 -1.4734  0.7316 -0.2193
  987MOL0     H36139   3.206   7.905  11.908  1.0908  1.0365 -0.8766
  987MOL0     H36140   3.335   7.801  11.953  0.6979  1.0268 -0.8221
  987MOL0     H36141   3.117   7.734  11.757 -2.8093 -1.4774  2.4016
  987MOL0     H36142   3.223   7.616  11.820  0.4044  0.6189  1.0562
  987MOL0     H36143   2.994   7.755  11.962  2.7589  2.9268  0.6078
  987MOL0     H36144   3.031   7.580  11.959  1.7305 -0.9131  2.6642
  987MOL0     H36145   3.232   7.658  12.105 -0.6549  0.7385 -0.0145
  987MOL0     H36146   3.094   7.783  12.146 -1.7347  1.0339 -1.1846
  987MOL0     H36147   3.079   7.472  12.181  2.5053 -0.7985  4.0193
  987MOL0     H36148   2.951   7.592  12.188  0.0280 -0.6637 -3.1729
  987MOL0     H36149   3.066   7.708  12.366  2.9222  1.5547 -0.7866
  987MOL0     H36150   3.037   7.536  12.406 -1.9023  1.4638 -0.3117
  987MOL0     H36151   3.310   7.634  12.301 -1.6842  2.3567  1.0744
  987MOL0     H36152   3.261   7.467  12.339 -0.1029  0.5113 -0.1805
  987MOL0     H36153   3.406   7.560  12.508  0.0093  0.6406 -3.4474
  987MOL0     H36154   3.288   7.691  12.535  1.0351  0.2202 -0.5290
  987MOL0     H36155   3.257   7.280  12.544  1.3115 -0.4715  2.2127
  987MOL0     H36156   3.048   7.157  12.619  0.2556 -1.3356  0.7343
  987MOL0     H36157   2.938   7.230  12.730  0.3792  2.5430 -3.1882
  987MOL0     H36158   3.215   7.118  12.803  0.2800 -2.9055 -1.5307
  987MOL0     H36159   3.092   7.172  12.923 -3.4800  2.2408 -1.2177
  987MOL0     H36160   3.078   6.941  12.722  2.6039 -1.6880  1.3959
  987MOL0     H36161   3.094   6.906  12.883  1.2396 -2.3777 -2.0719
  987MOL0     H36162   2.837   7.042  12.800  0.3341 -0.7438  0.1223
  987MOL0     H36163   2.870   6.878  12.859  2.8022 -0.4171 -1.1220
  987MOL0     H36164   2.750   7.075  13.215  0.1728  0.2228 -2.7236
  987MOL0     H36165   2.589   6.908  13.438 -0.3266  2.5154  2.5416
  987MOL0     H36166   2.671   7.068  13.415 -1.5142  0.3414  2.6962
  987MOL0     H36167   2.717   6.954  13.529 -3.0759 -0.8438  0.8863
  987MOL0     H36168   2.833   6.317  13.513  0.4123 -2.3883  2.5315
  987MOL0     H36169   2.861   6.231  13.736 -1.1607  0.3263  3.4194
  987MOL0     H36170   3.033   6.340  14.094  0.4506  0.5908  0.1118
  987MOL0     H36171   3.060   6.485  14.016  1.6704 -1.7510  1.1949
  987MOL0     H36172   2.966   6.553  14.203  1.1091 -4.5196  2.8439
  987MOL0     H36173   2.822   6.572  14.094  0.7572 -0.1474 -1.1649
  987MOL0     H36174   2.807   6.466  14.326  5.7409  2.1401  0.6313
  987MOL0     H36175   2.881   6.320  14.264 -1.9706  0.2191  3.9580
  987MOL0     H36176   2.714   6.288  14.084  1.7297  0.1489  0.4219
  987MOL0     H36177   2.620   6.418  14.158 -2.0144 -0.3158  3.3391
  987MOL0     H36178   2.715   6.164  14.296 -2.1506 -1.6197 -1.9146
  987MOL0     H36179   2.629   6.306  14.370 -0.5473 -0.0497  0.1959
  987MOL0     H36180   2.523   6.143  14.148 -0.7427  1.3959 -0.8007
  987MOL0     H36181   2.436   6.278  14.233  0.3535  1.2075 -0.4131
  987MOL0     H36182   2.440   6.163  14.434  1.2812  0.2689  0.2506
  987MOL0     H36183   2.543   6.027  14.378 -0.3179 -0.1970 -2.4945
  987MOL0     H36184   2.381   5.931  14.282  3.7887  1.0501  1.2741
  987MOL0     H36185   2.290   6.085  14.230 -0.2196 -1.5888 -0.6609
  987MOL0     H36186   2.978   6.625  13.874 -2.5969  1.9042 -1.0722
  987MOL0     H36187   2.989   6.705  13.656  2.6043 -0.5663 -0.8966
  987MOL0     H36188   2.903   6.616  13.185 -1.8922  0.2151  0.7297
  987MOL0     H36189   2.991   6.769  13.033  1.4016  1.0695  1.4941
  987MOL0     H36190   3.516   7.923  11.573  2.7073  6.7808 -3.5329
  987MOL0     H36191   3.449   8.019  11.375 -0.0178  0.2028 -0.2706
  987MOL0     H36192   3.215   8.086  11.012  0.1637 -0.4341 -0.4430
  987MOL0     H36193   3.145   8.170  10.795 -1.3832  1.4860 -1.6245
  987MOL0     H36194   3.028   8.315  10.551  0.2606  4.0317 -0.1251
  987MOL0     H36195   2.960   8.193  10.663 -1.3853 -0.4658 -1.9516
  987MOL0     H36196   2.840   8.437  10.543 -3.9933  2.7203  3.5375
  987MOL0     H36197   2.746   8.368  10.670  0.3673  2.9815 -0.2394
  987MOL0     H36198   2.806   8.264  10.397  0.0374 -0.8342  0.5230
  987MOL0     H36199   2.800   8.142  10.523 -0.4645 -0.2011 -0.5528
  987MOL0     H36200   2.574   8.332  10.480  3.4688  1.6752 -1.7640
  987MOL0     H36201   2.576   8.187  10.575 -0.8442  1.8399 -0.0027
  987MOL0     H36202   2.508   8.043  10.177  0.8973 -0.2508  0.2603
  987MOL0     H36203   2.909   8.471  10.991  0.1987  1.6194  0.9997
  987MOL0     H36204   2.874   8.478  11.197 -1.6041 -1.1911  0.7374
  987MOL0     H36205   2.917   8.330  11.299  0.2612 -0.2479  1.5055
  987MOL0     H36206   3.029   8.479  11.281 -1.0343 -1.8381  1.0305
  988MOL0     O36207  10.285   8.839   9.129 -0.3557  0.6166  1.2325
  988MOL0     C36208  10.395   8.831   9.080  0.5409 -0.7953 -0.1443
  988MOL0     O36209  10.469   8.929   9.018 -0.7122  0.0332  0.8583
  988MOL0     C36210  10.426   9.064   9.007  0.8669  0.2072 -0.0331
  988MOL0     C36211  10.331   9.127   9.097 -0.8914 -0.2156  1.0039
  988MOL0     C36212  10.284   9.253   9.073  0.1061 -0.5779  0.3131
  988MOL0     C36213  10.344   9.339   8.976 -0.7713  0.2725 -0.0206
  988MOL0     O36214  10.303   9.466   8.948 -0.3831  0.2684 -0.3094
  988MOL0     C36215  10.164   9.500   8.983 -0.1341 -1.0618  0.7938
  988MOL0     C36216  10.158   9.610   9.086  0.0193 -0.0395  0.0936
  988MOL0     C36217  10.011   9.649   9.117 -0.1788 -0.0440  0.4589
  988MOL0     C36218  10.009   9.795   9.180 -0.7579  0.2386 -0.0202
  988MOL0     C36219   9.868   9.824   9.232 -0.4598  1.0812 -0.7660
  988MOL0     C36220   9.858   9.970   9.273 -0.2808  0.4207 -0.3310
  988MOL0     C36221   9.938  10.013   9.398 -0.1391 -0.5214  0.2557
  988MOL0     C36222   9.882  10.143   9.457  0.4002  0.7737  0.3074
  988MOL0     N36223   9.751  10.114   9.513  0.4241 -0.4494  0.1865
  988MOL0     C36224   9.720  10.053   9.643  0.3653  0.2341 -0.3077
  988MOL0     C36225   9.584  10.075   9.651 -0.1116 -0.1137  0.4682
  988MOL0     C36226   9.493  10.023   9.756  0.2298 -0.1025 -0.2315
  988MOL0     C36227   9.439  10.144   9.852 -0.6721  0.3415  1.0786
  988MOL0     C36228   9.561  10.223   9.916 -0.0593  0.4098 -0.1213
  988MOL0     C36229   9.550  10.236  10.070  0.6060  0.0621  0.7064
  988MOL0     O36230   9.673  10.265  10.122 -0.1511  0.6442 -0.8182
  988MOL0     C36231   9.689  10.249  10.261  0.7574  0.1437 -0.6098
  988MOL0     C36232   9.579  10.240  10.359 -0.6504 -0.1020 -0.2856
  988MOL0     C36233   9.617  10.210  10.492 -0.9246 -0.8556 -0.2660
  988MOL0     C36234   9.497  10.204  10.573 -0.2817  0.2856 -0.2693
  988MOL0     C36235   9.754  10.210  10.539 -0.2263 -0.1828  0.5882
  988MOL0     C36236   9.800  10.186  10.683 -0.2012 -0.5684 -0.9328
  988MOL0     O36237   9.938  10.205  10.699  0.0778  0.0112 -0.1301
  988MOL0     C36238   9.986  10.163  10.821  0.1234 -0.4528 -0.4006
  988MOL0     C36239   9.960  10.032  10.872  0.3486 -0.1414 -0.1431
  988MOL0     C36240  10.027   9.991  10.983 -0.1818  0.6739 -0.0424
  988MOL0     C36241  10.110  10.074  11.055 -0.1131  1.4041  0.2456
  988MOL0     O36242  10.164  10.037  11.175 -0.0357  0.2243 -0.3114
  988MOL0     C36243  10.303  10.045  11.192 -0.1031 -0.3931 -0.5485
  988MOL0     C36244  10.385   9.963  11.088  0.8229  0.7460 -0.7357
  988MOL0     C36245  10.351   9.815  11.115  0.3075  0.0919 -0.2325
  988MOL0     C36246  10.435   9.749  11.230  0.1191 -0.3197 -0.7152
  988MOL0     C36247  10.397   9.606  11.252  1.3228 -0.4707  0.0205
  988MOL0     C36248  10.497   9.537  11.339  0.4911 -1.3413 -0.4868
  988MOL0     C36249  10.474   9.392  11.324  0.6573  0.3469 -0.4198
  988MOL0     C36250  10.551   9.304  11.428  0.2552  0.0534  0.5333
  988MOL0    Cl36251  10.504   9.132  11.399 -0.2477  0.1974  0.2816
  988MOL0     C36252  10.121  10.209  11.015 -0.7015  0.2293 -0.5486
  988MOL0     C36253  10.057  10.253  10.898  0.2915 -0.0594 -1.0136
  988MOL0     O36254   9.720  10.188  10.774 -0.3124 -0.2663  0.3468
  988MOL0     C36255   9.848  10.223  10.437  0.2461  0.5085 -0.2164
  988MOL0     C36256   9.819  10.232  10.304  0.7685 -0.6450  0.7003
  988MOL0     N36257   9.539  10.151   9.540  0.8470  0.7261 -0.0787
  988MOL0     N36258   9.638  10.165   9.454  0.0160  0.6555 -0.1822
  988MOL0     C36259  10.445   9.284   8.901  0.9872  0.4174 -0.2008
  988MOL0     C36260  10.472   9.146   8.903 -0.7307  0.9539 -0.9160
  988MOL0     C36261  10.462   8.700   9.091 -0.2365 -0.4673  0.6092
  988MOL0     C36262  10.594   8.692   9.116 -0.3818 -0.5080  0.8987
  988MOL0     C36263  10.665   8.568   9.116  0.1754 -0.3094 -0.4403
  988MOL0     C36264  10.599   8.451   9.116 -0.8332 -0.9099  0.6213
  988MOL0     O36265  10.668   8.338   9.141  0.7612  0.1337  0.2196
  988MOL0     C36266  10.657   8.309   9.279  0.1641  0.7408 -0.5767
  988MOL0     C36267  10.805   8.278   9.316  0.3312 -0.0193 -0.0814
  988MOL0     C36268  10.816   8.243   9.465  0.0289  0.0116 -0.6924
  988MOL0     C36269  10.965   8.249   9.511 -0.0052  1.4369  0.6374
  988MOL0     C36270  11.031   8.127   9.465  1.1731  0.1083 -0.4503
  988MOL0     C36271  11.090   8.036   9.410 -0.1852  0.5137 -0.8433
  988MOL0     C36272  10.461   8.449   9.101  0.1802 -0.0133 -0.2610
  988MOL0     C36273  10.396   8.575   9.092 -0.7461  0.4972  0.7559
  988MOL0     C36274  10.243   8.564   9.064 -0.0227 -0.2550 -0.0988
  988MOL0     H36275  10.293   9.065   9.178 -0.7390  0.0118  1.2551
  988MOL0     H36276  10.215   9.301   9.141  2.1869 -0.2869  2.3288
  988MOL0     H36277  10.103   9.412   9.005 -0.8587 -0.6611  0.4123
  988MOL0     H36278  10.117   9.531   8.889 -1.1981  1.5215  2.0819
  988MOL0     H36279  10.208   9.567   9.174  0.5621  0.1959 -0.0956
  988MOL0     H36280  10.212   9.695   9.044 -0.2681 -1.9392 -4.6243
  988MOL0     H36281   9.946   9.642   9.030  1.0082  4.6606 -1.0870
  988MOL0     H36282   9.978   9.579   9.195 -1.5442  1.3767  1.1966
  988MOL0     H36283  10.078   9.798   9.265  0.2752  1.8831 -0.8678
  988MOL0     H36284  10.037   9.861   9.098 -0.1733 -0.1218 -0.1200
  988MOL0     H36285   9.852   9.757   9.317  0.5388  0.0551 -1.3559
  988MOL0     H36286   9.795   9.791   9.158  1.3024 -1.3330 -1.5614
  988MOL0     H36287   9.872  10.034   9.186 -7.0157  3.2986  0.0690
  988MOL0     H36288   9.753   9.987   9.296 -1.1268 -0.6306 -3.0334
  988MOL0     H36289  10.038  10.015   9.352 -0.7448 -3.3705 -1.4581
  988MOL0     H36290   9.931   9.932   9.471  2.4766 -1.1262 -0.0471
  988MOL0     H36291   9.946  10.180   9.537  0.0258  2.6671 -0.2222
  988MOL0     H36292   9.884  10.217   9.377  1.2823  1.8641  1.3083
  988MOL0     H36293   9.774   9.982   9.705 -2.5425  0.4107  2.6665
  988MOL0     H36294   9.549   9.958   9.824  1.8730  0.9971 -0.4578
  988MOL0     H36295   9.407   9.974   9.710  0.1931  0.6241 -0.9521
  988MOL0     H36296   9.389  10.226   9.800  1.1666  0.7226 -0.1950
  988MOL0     H36297   9.356  10.108   9.914 -1.4566 -0.6604 -0.4837
  988MOL0     H36298   9.657  10.176   9.891 -0.3058 -2.6065  3.6288
  988MOL0     H36299   9.585  10.324   9.882  5.7689 -1.7198 -3.8076
  988MOL0     H36300   9.488  10.324  10.088  2.9181  1.8282  0.3848
  988MOL0     H36301   9.511  10.142  10.112  1.8245 -0.4166  0.8065
  988MOL0     H36302   9.472  10.248  10.342 -0.5058  1.5348 -0.5106
  988MOL0     H36303   9.513  10.140  10.660  0.1205 -2.3690 -2.1453
  988MOL0     H36304   9.405  10.164  10.528 -2.2188  3.0569  0.9988
  988MOL0     H36305   9.477  10.309  10.596  1.4758  1.0677 -2.0298
  988MOL0     H36306   9.885   9.971  10.824  0.0203 -0.6428  0.9714
  988MOL0     H36307  10.022   9.888  11.018  2.5926  0.2459 -0.6373
  988MOL0     H36308  10.328  10.151  11.176 -1.5400 -0.1508 -1.2868
  988MOL0     H36309  10.334  10.013  11.292  4.3499 -0.1596 -1.6178
  988MOL0     H36310  10.349   9.983  10.986  0.5133 -1.4680 -1.1058
  988MOL0     H36311  10.491   9.989  11.085  0.6028  1.7769  0.0726
  988MOL0     H36312  10.361   9.763  11.019 -0.5991  0.5323 -0.5831
  988MOL0     H36313  10.248   9.795  11.146  0.0442  1.2543 -0.3174
  988MOL0     H36314  10.431   9.807  11.322  0.6214 -2.0507  0.4615
  988MOL0     H36315  10.538   9.732  11.197  0.7838 -0.4094  1.2767
  988MOL0     H36316  10.300   9.596  11.301  1.7216 -2.9139  0.4521
  988MOL0     H36317  10.387   9.567  11.150 -1.5245 -3.1600  1.1404
  988MOL0     H36318  10.485   9.577  11.440 -1.9219 -2.1865 -0.3801
  988MOL0     H36319  10.602   9.554  11.312 -0.2702  3.2528 -1.3277
  988MOL0     H36320  10.504   9.358  11.225  1.5807 -1.0428  0.3102
  988MOL0     H36321  10.367   9.369  11.329  1.1084 -1.8805  0.4855
  988MOL0     H36322  10.535   9.330  11.532 -1.5181  4.5861 -0.6272
  988MOL0     H36323  10.658   9.320  11.412 -0.2310  1.7142 -1.5535
  988MOL0     H36324  10.196  10.274  11.060 -1.0418  0.9080 -0.9305
  988MOL0     H36325  10.057  10.353  10.856 -4.0877 -0.6125 -2.9141
  988MOL0     H36326   9.952  10.231  10.469  0.9948  0.3873 -2.4167
  988MOL0     H36327   9.895  10.239  10.226 -0.9940 -0.2141 -1.0871
  988MOL0     H36328  10.493   9.343   8.824 -0.5461 -0.8137 -2.1782
  988MOL0     H36329  10.544   9.112   8.830 -1.8707 -1.6017 -0.9441
  988MOL0     H36330  10.637   8.791   9.117 -3.9096  1.1612  1.5711
  988MOL0     H36331  10.774   8.562   9.119  0.2918  1.3247 -0.2359
  988MOL0     H36332  10.606   8.382   9.344 -0.6576  0.4760 -0.9056
  988MOL0     H36333  10.590   8.227   9.305 -0.8490  1.9364  0.7947
  988MOL0     H36334  10.875   8.358   9.287 -0.3251 -0.1021 -2.0533
  988MOL0     H36335  10.848   8.199   9.253 -0.4794 -0.9772  0.5475
  988MOL0     H36336  10.755   8.309   9.526 -2.2156 -0.8127 -1.9189
  988MOL0     H36337  10.774   8.143   9.479 -0.4032 -0.0726 -2.3553
  988MOL0     H36338  10.966   8.264   9.620  2.3421  3.6847  0.3981
  988MOL0     H36339  11.022   8.334   9.472 -1.1417  1.2935 -1.4565
  988MOL0     H36340  11.141   7.956   9.360  2.4807  1.6148 -0.0259
  988MOL0     H36341  10.397   8.362   9.109 -1.1777  1.0155  0.4400
  988MOL0     H36342  10.197   8.470   9.033 -4.6230  1.5887  0.4370
  988MOL0     H36343  10.199   8.586   9.161 -3.4660 -1.2466 -1.2870
  988MOL0     H36344  10.200   8.641   9.000 -4.5965 -3.8191 -1.8640
  989MOL0     O36345   8.541   8.540   0.764 -0.6514  0.3158 -0.0301
  989MOL0     C36346   8.479   8.452   0.831 -0.4788  0.6066 -0.4366
  989MOL0     O36347   8.490   8.434   0.974  0.2901 -0.0336  0.6965
  989MOL0     C36348   8.587   8.513   1.039  0.5608 -0.1084 -0.4061
  989MOL0     C36349   8.606   8.647   1.012 -0.0543 -0.2690  0.5012
  989MOL0     C36350   8.709   8.721   1.072 -0.6077 -0.3341 -0.2129
  989MOL0     C36351   8.805   8.648   1.155  0.2880 -0.0548 -1.1266
  989MOL0     O36352   8.915   8.718   1.208 -0.4108 -0.3896  0.3934
  989MOL0     C36353   9.042   8.652   1.196  0.0209 -0.0008 -0.6457
  989MOL0     C36354   9.084   8.590   1.329 -0.3887  0.9344 -0.0869
  989MOL0     C36355   9.105   8.697   1.429 -0.1300  0.8727  0.1729
  989MOL0     C36356   9.165   8.632   1.553 -0.5214  0.0570 -0.5878
  989MOL0     C36357   9.199   8.731   1.670 -0.0877 -0.3943  0.7726
  989MOL0     C36358   9.252   8.664   1.805 -0.0939 -0.6664  0.9117
  989MOL0     C36359   9.147   8.567   1.859 -0.1869  0.6427 -0.6532
  989MOL0     C36360   9.175   8.529   2.006 -0.5636  0.3315 -0.2482
  989MOL0     N36361   9.313   8.463   2.020  0.3797 -0.8675  0.8645
  989MOL0     C36362   9.355   8.351   1.956 -0.5801 -1.3275  0.6199
  989MOL0     C36363   9.485   8.339   2.003  0.1861 -0.4147  0.4001
  989MOL0     C36364   9.580   8.226   1.979  0.2091  1.0536  0.4605
  989MOL0     C36365   9.498   8.095   1.968 -0.3103 -0.9685 -0.5888
  989MOL0     C36366   9.584   7.968   1.963  0.6396  0.6826  0.0991
  989MOL0     C36367   9.495   7.847   1.937  0.4220  0.5772 -0.1911
  989MOL0     O36368   9.423   7.825   1.809 -0.8255 -0.0628 -0.6901
  989MOL0     C36369   9.485   7.745   1.709 -0.2744 -0.2911 -1.8727
  989MOL0     C36370   9.546   7.615   1.728  0.5780  0.2404  0.6556
  989MOL0     C36371   9.591   7.536   1.624 -0.5065 -0.0722 -0.0140
  989MOL0     C36372   9.630   7.394   1.650  0.1425  0.2366  0.2764
  989MOL0     C36373   9.585   7.587   1.494 -0.3820 -0.1468 -0.5068
  989MOL0     C36374   9.640   7.529   1.369 -0.1685  0.0040  0.1780
  989MOL0     O36375   9.697   7.616   1.280 -0.4250 -0.0820 -0.6568
  989MOL0     C36376   9.738   7.571   1.161 -0.3258  0.2765 -1.2030
  989MOL0     C36377   9.824   7.454   1.137  0.4218 -0.2068  0.2524
  989MOL0     C36378   9.854   7.416   1.012  0.1067  0.4466  1.0755
  989MOL0     C36379   9.792   7.475   0.903  0.7194  0.2857 -0.2974
  989MOL0     O36380   9.793   7.444   0.768  0.6493  0.4745 -0.5575
  989MOL0     C36381   9.897   7.353   0.723 -0.3405  0.0165 -0.3385
  989MOL0     C36382   9.876   7.350   0.575  0.0317  0.4108  1.4988
  989MOL0     C36383  10.000   7.329   0.479 -1.3500  0.4393  0.4927
  989MOL0     C36384  10.126   7.415   0.490  1.2728 -0.1230 -0.1869
  989MOL0     C36385  10.106   7.561   0.451 -0.1495 -0.8542  0.5026
  989MOL0     C36386  10.055   7.656   0.570 -0.4254  0.9060  0.6410
  989MOL0     C36387   9.986   7.785   0.525  0.1144 -0.7158 -0.4405
  989MOL0     C36388  10.093   7.881   0.469 -0.0082 -0.8739  0.2086
  989MOL0    Cl36389  10.011   8.026   0.417 -0.0976 -0.3102 -0.4642
  989MOL0     C36390   9.707   7.586   0.928  0.3181  0.0689  0.9069
  989MOL0     C36391   9.682   7.637   1.052 -0.0078 -0.4753  0.6090
  989MOL0     O36392   9.606   7.415   1.347  0.2294 -0.5814  0.0004
  989MOL0     C36393   9.520   7.707   1.480 -0.2373  1.2642 -0.2986
  989MOL0     C36394   9.483   7.794   1.586 -0.1209  0.6115 -0.4285
  989MOL0     N36395   9.506   8.446   2.090 -0.4446 -1.4591 -0.0865
  989MOL0     N36396   9.406   8.520   2.092  0.7547 -0.4688 -0.5601
  989MOL0     C36397   8.770   8.517   1.189  0.3976  0.2764  0.0898
  989MOL0     C36398   8.658   8.454   1.136  0.8497 -0.0103 -0.7639
  989MOL0     C36399   8.364   8.376   0.775 -0.4407  1.0760  0.6773
  989MOL0     C36400   8.238   8.397   0.839  0.3222 -0.4823  0.3384
  989MOL0     C36401   8.117   8.357   0.761  0.3555  0.8504  1.3592
  989MOL0     C36402   8.129   8.295   0.638  0.2099  0.4589  1.2468
  989MOL0     O36403   8.007   8.270   0.569  0.5198  0.1719 -0.0170
  989MOL0     C36404   8.015   8.190   0.449  0.6136 -0.0526 -0.4613
  989MOL0     C36405   7.876   8.125   0.408 -0.5417 -0.2276 -0.2272
  989MOL0     C36406   7.792   8.090   0.533 -0.8014 -0.5372 -0.8765
  989MOL0     C36407   7.663   8.016   0.513 -0.1305  0.6766  0.6742
  989MOL0     C36408   7.577   8.100   0.431 -0.4496  0.0753 -0.5464
  989MOL0     C36409   7.521   8.197   0.387  0.7615  0.8859 -0.6269
  989MOL0     C36410   8.251   8.268   0.584 -0.5156 -0.1219  0.0802
  989MOL0     C36411   8.371   8.303   0.650  0.4037  0.0910 -0.3926
  989MOL0     C36412   8.504   8.254   0.580  1.0781  0.0343 -0.5455
  989MOL0     H36413   8.543   8.708   0.947  2.4723  0.5732 -1.3073
  989MOL0     H36414   8.733   8.823   1.046 -0.5386 -0.8707 -2.4749
  989MOL0     H36415   9.120   8.725   1.173  0.4590  0.3854  1.8078
  989MOL0     H36416   9.038   8.567   1.127  0.8774  0.2539 -1.0247
  989MOL0     H36417   9.012   8.517   1.368  0.3869  0.3853  0.3458
  989MOL0     H36418   9.175   8.532   1.310 -2.2516 -2.2685 -0.0776
  989MOL0     H36419   9.169   8.770   1.378 -0.1198  0.0794 -0.9986
  989MOL0     H36420   9.011   8.752   1.446 -2.7479 -1.4476 -4.4961
  989MOL0     H36421   9.088   8.561   1.588 -0.2224 -0.8188 -1.6667
  989MOL0     H36422   9.255   8.583   1.517  0.3772  1.1955  0.0463
  989MOL0     H36423   9.111   8.783   1.708  0.2078  0.6736  0.0365
  989MOL0     H36424   9.261   8.805   1.618 -1.7429  1.7486  1.7366
  989MOL0     H36425   9.351   8.617   1.795 -0.8790 -2.6999  2.0586
  989MOL0     H36426   9.266   8.739   1.883  1.2922  0.8411 -0.7031
  989MOL0     H36427   9.157   8.486   1.787  0.6741 -0.0492  0.2138
  989MOL0     H36428   9.042   8.597   1.852 -0.3322  0.1011 -0.8296
  989MOL0     H36429   9.177   8.624   2.059  1.3292  1.1998 -1.7794
  989MOL0     H36430   9.097   8.460   2.040 -0.4673  0.7896  0.9606
  989MOL0     H36431   9.297   8.301   1.879 -0.9132  0.3062 -0.2297
  989MOL0     H36432   9.663   8.222   2.050  1.5442 -2.3419 -1.0925
  989MOL0     H36433   9.622   8.249   1.881 -0.5221 -2.2243 -0.7530
  989MOL0     H36434   9.438   8.085   2.059  0.0774 -2.1137 -0.4425
  989MOL0     H36435   9.431   8.101   1.881 -1.7860 -1.8606  0.4321
  989MOL0     H36436   9.651   7.979   1.877  0.0410  1.6813 -0.2473
  989MOL0     H36437   9.641   7.964   2.057 -2.6336  3.9822  2.5248
  989MOL0     H36438   9.563   7.762   1.940  3.7292  2.9906 -1.2065
  989MOL0     H36439   9.422   7.832   2.017  1.2187 -0.8918  0.2781
  989MOL0     H36440   9.569   7.572   1.825 -3.3424 -1.6263  0.9718
  989MOL0     H36441   9.681   7.377   1.745 -0.8296 -0.0769  0.7571
  989MOL0     H36442   9.704   7.367   1.574 -2.1903 -2.8559 -1.1320
  989MOL0     H36443   9.542   7.333   1.628  1.3837 -2.5882  2.6058
  989MOL0     H36444   9.867   7.401   1.222  0.1501 -0.0317  0.4989
  989MOL0     H36445   9.930   7.345   0.982 -0.3093  0.0892  0.8498
  989MOL0     H36446   9.994   7.397   0.751  0.5852 -2.2794  0.2349
  989MOL0     H36447   9.891   7.253   0.766 -0.1012 -1.3053 -3.1140
  989MOL0     H36448   9.807   7.273   0.538  2.0976 -0.8245 -0.0396
  989MOL0     H36449   9.837   7.447   0.541  0.7631  0.3626  0.4601
  989MOL0     H36450   9.975   7.313   0.373  0.2122 -3.1182  0.5134
  989MOL0     H36451  10.042   7.230   0.497  0.1290  0.2703 -2.9943
  989MOL0     H36452  10.207   7.368   0.432  2.6601 -1.4085  2.5840
  989MOL0     H36453  10.156   7.411   0.595 -0.6258  0.9453  0.4474
  989MOL0     H36454  10.197   7.598   0.405 -1.5342  0.2782 -1.4719
  989MOL0     H36455  10.027   7.578   0.377 -1.7954  1.3775  2.6114
  989MOL0     H36456  10.130   7.670   0.649 -2.9698  4.8137  2.6731
  989MOL0     H36457   9.974   7.598   0.615 -1.0188 -1.1893 -2.7539
  989MOL0     H36458   9.948   7.831   0.617  3.7483  5.9911 -1.7113
  989MOL0     H36459   9.911   7.762   0.450  1.8049  0.3299 -2.5572
  989MOL0     H36460  10.141   7.836   0.382 -2.3697 -2.3900 -0.3846
  989MOL0     H36461  10.164   7.902   0.550 -0.2047  0.1287  0.1327
  989MOL0     H36462   9.659   7.634   0.843  0.4135  2.0688  1.9235
  989MOL0     H36463   9.622   7.726   1.063 -1.4041 -0.7603 -3.2293
  989MOL0     H36464   9.514   7.739   1.376 -1.4615 -3.0941 -1.7835
  989MOL0     H36465   9.436   7.891   1.573 -1.4800  0.0426  0.0422
  989MOL0     H36466   8.839   8.464   1.253  1.4737 -1.0169 -2.0508
  989MOL0     H36467   8.632   8.351   1.159  1.2237  0.1412  0.4023
  989MOL0     H36468   8.242   8.455   0.931  2.9406 -0.8284  0.5151
  989MOL0     H36469   8.019   8.383   0.801 -0.2095  5.2579 -2.0881
  989MOL0     H36470   8.070   8.236   0.366 -0.2967 -2.1086 -2.3023
  989MOL0     H36471   8.076   8.104   0.478  0.2093 -0.0701  0.3619
  989MOL0     H36472   7.902   8.032   0.357 -0.5549 -0.3110 -0.0834
  989MOL0     H36473   7.821   8.190   0.339  0.0706  0.8747  0.3037
  989MOL0     H36474   7.861   8.041   0.602 -2.6340 -1.5389  0.3108
  989MOL0     H36475   7.767   8.184   0.583  1.6716 -0.3410  0.0982
  989MOL0     H36476   7.628   7.996   0.614  0.5287  0.7507  0.9152
  989MOL0     H36477   7.676   7.917   0.469  0.8351  1.0012  0.1854
  989MOL0     H36478   7.485   8.283   0.334  1.1722  2.6800  1.8040
  989MOL0     H36479   8.264   8.233   0.482  1.2754 -1.1112  0.6066
  989MOL0     H36480   8.565   8.196   0.649 -0.8991 -2.5021 -0.8024
  989MOL0     H36481   8.477   8.192   0.494 -6.0250  0.4603  0.7345
  989MOL0     H36482   8.543   8.350   0.544  0.7490  0.9693  1.4399
  990MOL0     O36483   1.043   2.523   5.754  0.2145  0.4686 -0.2226
  990MOL0     C36484   1.138   2.595   5.712  1.5700 -0.0003  1.2058
  990MOL0     O36485   1.208   2.679   5.794  0.4883  1.0252  0.4107
  990MOL0     C36486   1.187   2.696   5.929 -0.3358 -0.6147 -0.6828
  990MOL0     C36487   1.059   2.712   5.979 -0.5418  0.1113 -0.9183
  990MOL0     C36488   1.048   2.772   6.112  0.0101 -0.0914 -0.0044
  990MOL0     C36489   1.163   2.802   6.184  0.8542  0.7533  0.8685
  990MOL0     O36490   1.144   2.846   6.310 -1.2961 -0.0696  0.1883
  990MOL0     C36491   1.086   2.757   6.403 -0.2321 -0.1634  0.7025
  990MOL0     C36492   1.162   2.747   6.530  0.0811 -0.6596 -0.2477
  990MOL0     C36493   1.316   2.735   6.529 -0.0418  0.2273  0.7831
  990MOL0     C36494   1.369   2.598   6.475 -0.9285 -0.3287  0.3394
  990MOL0     C36495   1.498   2.533   6.544  0.2353  0.4240  0.2020
  990MOL0     C36496   1.636   2.618   6.534 -0.3453  0.7259 -0.5581
  990MOL0     C36497   1.761   2.526   6.525  0.0629 -0.5763 -0.6428
  990MOL0     C36498   1.771   2.460   6.387  0.6382 -0.7403 -0.0835
  990MOL0     N36499   1.879   2.352   6.399 -0.4878  0.2120  0.2862
  990MOL0     C36500   1.898   2.273   6.290  0.5411 -0.7153 -0.6308
  990MOL0     C36501   1.964   2.171   6.342  0.6269  0.0937 -0.5532
  990MOL0     C36502   1.982   2.035   6.273 -0.1570 -0.5511  1.0240
  990MOL0     C36503   1.842   1.974   6.230  0.5797  0.2971 -0.0395
  990MOL0     C36504   1.823   1.936   6.085 -0.5180 -0.0657 -0.1465
  990MOL0     C36505   1.698   1.843   6.071  0.3128  0.4546  0.5822
  990MOL0     O36506   1.574   1.907   6.116  1.4844 -0.2701  0.3182
  990MOL0     C36507   1.463   1.824   6.138 -0.0861  1.3822 -0.6756
  990MOL0     C36508   1.435   1.694   6.077 -0.6297  0.6269  0.3089
  990MOL0     C36509   1.325   1.613   6.114 -0.5213 -0.3715 -0.0718
  990MOL0     C36510   1.320   1.469   6.064 -0.2524  0.3574 -0.6327
  990MOL0     C36511   1.227   1.673   6.190 -0.1982  0.0593 -0.5166
  990MOL0     C36512   1.099   1.592   6.197 -0.2268 -0.3532 -0.3596
  990MOL0     O36513   1.055   1.556   6.319 -0.4678  1.1436 -0.0154
  990MOL0     C36514   0.933   1.494   6.333 -0.6136 -0.3543 -0.8608
  990MOL0     C36515   0.831   1.569   6.389 -0.1387 -0.3592  0.8533
  990MOL0     C36516   0.718   1.513   6.427 -0.9786 -0.0800  0.5402
  990MOL0     C36517   0.700   1.366   6.418 -0.2762 -0.3827 -0.1065
  990MOL0     O36518   0.593   1.293   6.451 -0.7735  0.3771 -0.2424
  990MOL0     C36519   0.522   1.332   6.573  0.6570  0.6608  0.2561
  990MOL0     C36520   0.619   1.330   6.695 -1.0576  0.5418 -0.1995
  990MOL0     C36521   0.558   1.324   6.829 -0.5580 -0.8766 -0.5625
  990MOL0     C36522   0.549   1.174   6.869  0.4007 -0.0177  0.7931
  990MOL0     C36523   0.494   1.132   7.009 -0.1272 -0.4436  0.5501
  990MOL0     C36524   0.460   0.980   7.024  0.6260  0.7633 -0.1101
  990MOL0     C36525   0.564   0.894   6.943 -0.5157 -0.3436  0.1126
  990MOL0     C36526   0.552   0.745   6.961 -0.4024  1.3332 -0.7525
  990MOL0    Cl36527   0.641   0.697   7.100  0.2016 -0.2349  0.4241
  990MOL0     C36528   0.795   1.293   6.352 -0.1246  0.9869 -0.4705
  990MOL0     C36529   0.918   1.352   6.317 -0.1276 -0.0168 -0.6078
  990MOL0     O36530   1.045   1.581   6.091  0.6071 -0.3740 -0.0587
  990MOL0     C36531   1.247   1.798   6.237 -0.3596 -0.1403  0.0324
  990MOL0     C36532   1.358   1.883   6.222  0.1402  0.6923  0.1629
  990MOL0     N36533   2.000   2.195   6.472 -0.6805 -0.0910  0.7305
  990MOL0     N36534   1.948   2.301   6.508  0.7858  0.0686 -0.5988
  990MOL0     C36535   1.290   2.783   6.131  1.1462 -0.9595  0.7301
  990MOL0     C36536   1.301   2.725   6.005 -0.7768 -0.2373 -0.1226
  990MOL0     C36537   1.160   2.595   5.572 -0.3104  0.7959  0.2781
  990MOL0     C36538   1.200   2.717   5.509  0.6955  0.4137  0.5386
  990MOL0     C36539   1.221   2.715   5.369 -0.5824  0.8325 -0.8436
  990MOL0     C36540   1.221   2.597   5.290  0.9440 -0.6070 -0.3346
  990MOL0     O36541   1.271   2.599   5.161  0.2102  0.7862  0.3568
  990MOL0     C36542   1.180   2.632   5.061 -0.0897  0.4394  0.2633
  990MOL0     C36543   1.143   2.502   4.982 -0.1241  0.4645 -0.3073
  990MOL0     C36544   1.271   2.465   4.905 -0.6782  0.0075  0.0713
  990MOL0     C36545   1.262   2.327   4.845 -0.3116 -0.6728 -0.0909
  990MOL0     C36546   1.382   2.282   4.781 -0.4107  1.5473  0.4366
  990MOL0     C36547   1.486   2.256   4.728 -0.5431 -1.0144 -0.4497
  990MOL0     C36548   1.203   2.473   5.355 -0.5924  0.6201  0.4101
  990MOL0     C36549   1.174   2.472   5.496  0.4638 -1.3362  0.8796
  990MOL0     C36550   1.164   2.341   5.564 -0.7013 -0.7815 -0.4003
  990MOL0     H36551   0.971   2.706   5.916 -0.8696  0.8493 -0.5348
  990MOL0     H36552   0.950   2.794   6.152 -0.4038 -1.8043 -0.0079
  990MOL0     H36553   1.096   2.657   6.360 -0.2842  0.0749  0.1344
  990MOL0     H36554   0.978   2.775   6.405 -0.4936 -0.6928 -2.6594
  990MOL0     H36555   1.141   2.839   6.586 -0.1144 -0.4098 -0.7160
  990MOL0     H36556   1.120   2.665   6.589 -0.4200  0.2608  0.7090
  990MOL0     H36557   1.367   2.817   6.477 -1.3819  0.9762  0.5929
  990MOL0     H36558   1.332   2.739   6.637  2.3282 -0.3868  0.5075
  990MOL0     H36559   1.293   2.520   6.488 -0.2402 -0.7487  2.2515
  990MOL0     H36560   1.381   2.624   6.370 -0.9493  1.1899  0.6951
  990MOL0     H36561   1.507   2.435   6.497 -0.3406  0.5362 -0.1591
  990MOL0     H36562   1.475   2.514   6.649 -3.5883  0.7425 -0.4447
  990MOL0     H36563   1.638   2.679   6.443 -0.4863  2.5104  0.5776
  990MOL0     H36564   1.661   2.682   6.619 -0.9892 -1.7015  1.5680
  990MOL0     H36565   1.748   2.450   6.602  3.2759  0.0211  0.6548
  990MOL0     H36566   1.852   2.584   6.545 -2.1546  2.7190  0.7746
  990MOL0     H36567   1.676   2.419   6.350 -1.7937  0.0850  4.4996
  990MOL0     H36568   1.789   2.529   6.304  0.0582 -1.8082 -1.1361
  990MOL0     H36569   1.876   2.283   6.185  0.2227  1.0915 -0.4134
  990MOL0     H36570   2.043   1.965   6.330 -2.3758 -2.3181  1.3511
  990MOL0     H36571   2.034   2.046   6.177 -0.6790 -0.8111  0.7124
  990MOL0     H36572   1.821   1.889   6.297 -1.5850  1.5978  1.0568
  990MOL0     H36573   1.758   2.040   6.255  2.5992  2.4379  1.4872
  990MOL0     H36574   1.810   2.031   6.033 -1.5784  0.8425  1.7176
  990MOL0     H36575   1.902   1.867   6.053 -0.6835  0.0850 -0.9106
  990MOL0     H36576   1.685   1.810   5.967 -2.4287  0.6719  0.7957
  990MOL0     H36577   1.713   1.751   6.129 -0.9107  0.8597  1.5706
  990MOL0     H36578   1.516   1.648   6.022  0.1073  2.7848 -0.4982
  990MOL0     H36579   1.419   1.430   6.037  0.5654  0.8773  1.4349
  990MOL0     H36580   1.258   1.464   5.974  0.4737  0.2703 -1.1376
  990MOL0     H36581   1.272   1.399   6.133  0.0919 -0.2738 -1.0284
  990MOL0     H36582   0.848   1.675   6.407  0.9502 -0.8110  2.7108
  990MOL0     H36583   0.635   1.567   6.472 -0.8205  0.8903 -0.3027
  990MOL0     H36584   0.465   1.424   6.560 -0.3296 -0.1622 -1.6675
  990MOL0     H36585   0.437   1.264   6.581  1.3948 -1.0081 -3.9058
  990MOL0     H36586   0.697   1.254   6.691  0.9721  2.5036 -4.2684
  990MOL0     H36587   0.686   1.416   6.687 -0.2768 -0.1039 -0.8264
  990MOL0     H36588   0.458   1.367   6.828 -0.7651 -1.2649  0.8521
  990MOL0     H36589   0.630   1.371   6.897 -1.6137  0.9286 -0.6611
  990MOL0     H36590   0.646   1.124   6.861 -0.0719 -1.4103  2.8839
  990MOL0     H36591   0.485   1.123   6.798 -2.7002  1.0242  2.6403
  990MOL0     H36592   0.555   1.168   7.093 -1.9392  0.9184  1.3629
  990MOL0     H36593   0.400   1.185   7.027 -1.1289 -2.4470  1.5879
  990MOL0     H36594   0.362   0.962   6.979 -1.2725  1.9333  3.1703
  990MOL0     H36595   0.459   0.961   7.132  3.8604 -1.4685 -0.3425
  990MOL0     H36596   0.663   0.934   6.965 -0.9350  0.3123  0.8763
  990MOL0     H36597   0.553   0.923   6.839  2.2206  5.2828  1.0200
  990MOL0     H36598   0.602   0.699   6.875  1.1819  0.2716  0.6651
  990MOL0     H36599   0.445   0.722   6.962 -0.5317  1.4720  3.0571
  990MOL0     H36600   0.769   1.188   6.350  2.2830  0.3080  0.3088
  990MOL0     H36601   0.999   1.291   6.278 -0.1512 -2.8036  3.0926
  990MOL0     H36602   1.157   1.849   6.271 -1.5759 -1.1469 -1.5268
  990MOL0     H36603   1.372   1.979   6.270 -1.7764  1.3864 -0.5634
  990MOL0     H36604   1.376   2.811   6.191  2.5402  1.4389 -2.0877
  990MOL0     H36605   1.400   2.725   5.960  0.8404  0.5493  3.1527
  990MOL0     H36606   1.205   2.813   5.559  2.6745  0.1720  0.8902
  990MOL0     H36607   1.230   2.813   5.325 -2.0133  0.6711 -1.5572
  990MOL0     H36608   1.092   2.683   5.103  1.3342  0.9871  2.7981
  990MOL0     H36609   1.209   2.702   4.983 -0.4586 -0.2804 -0.5353
  990MOL0     H36610   1.055   2.512   4.918 -2.1184  0.7791  2.2963
  990MOL0     H36611   1.109   2.443   5.068  1.0441  2.2656  1.4836
  990MOL0     H36612   1.283   2.533   4.820  0.9170  0.0330  0.2900
  990MOL0     H36613   1.362   2.473   4.965 -1.4885  1.2046  1.2234
  990MOL0     H36614   1.172   2.310   4.786  0.6718  0.1761 -1.9438
  990MOL0     H36615   1.247   2.253   4.924  1.3163  1.5438  2.4489
  990MOL0     H36616   1.577   2.246   4.672 -0.2458 -2.4889  0.2476
  990MOL0     H36617   1.211   2.383   5.295 -0.3314  1.2912 -0.6010
  990MOL0     H36618   1.233   2.340   5.649 -0.2342 -4.5078 -0.6962
  990MOL0     H36619   1.060   2.322   5.593 -0.3198  0.2775  1.9111
  990MOL0     H36620   1.202   2.264   5.498  0.5832 -0.2177 -0.3508
  991MOL0     O36621   9.303   1.629   8.619  0.2471  0.4923  0.3861
  991MOL0     C36622   9.329   1.731   8.573 -0.3378  0.1763  0.9427
  991MOL0     O36623   9.371   1.841   8.640 -0.0545  0.4544  1.0038
  991MOL0     C36624   9.400   1.841   8.771 -0.5385  0.0201  0.2426
  991MOL0     C36625   9.492   1.761   8.831 -1.2181 -0.3034 -0.5666
  991MOL0     C36626   9.530   1.773   8.970 -0.1357  0.6406  0.3432
  991MOL0     C36627   9.488   1.888   9.037 -0.5756  0.8658 -0.7342
  991MOL0     O36628   9.537   1.902   9.172  0.7827 -0.1245  0.1660
  991MOL0     C36629   9.496   2.022   9.248 -0.0786 -0.2599  0.2433
  991MOL0     C36630   9.562   2.153   9.203 -0.2033  0.7376 -0.2301
  991MOL0     C36631   9.710   2.151   9.237  0.4583 -0.2992 -0.1705
  991MOL0     C36632   9.760   2.290   9.172 -1.1004  0.3032  0.1946
  991MOL0     C36633   9.890   2.348   9.239  0.9488 -0.1198  0.4280
  991MOL0     C36634   9.882   2.456   9.340 -0.4918 -1.3402 -1.2690
  991MOL0     C36635  10.012   2.537   9.369  0.2081  0.3888 -0.0959
  991MOL0     C36636   9.999   2.639   9.479 -0.1889  0.0127  0.2393
  991MOL0     N36637  10.136   2.696   9.517  0.0234  0.5607  0.0788
  991MOL0     C36638  10.184   2.721   9.646 -0.0435 -0.7854 -0.6806
  991MOL0     C36639  10.310   2.767   9.633 -0.0322  0.3443 -0.2967
  991MOL0     C36640  10.387   2.829   9.746  0.5505  0.4599  0.1245
  991MOL0     C36641  10.515   2.877   9.687  0.7190 -0.5361  0.4431
  991MOL0     C36642  10.596   2.951   9.802  1.5493 -0.5816 -0.7261
  991MOL0     C36643  10.739   2.990   9.776 -0.2764 -0.1834  0.7259
  991MOL0     O36644  10.790   3.088   9.874 -0.7539 -0.3881 -0.5321
  991MOL0     C36645  10.851   3.208   9.841 -0.2252  0.6281  0.4015
  991MOL0     C36646  10.913   3.276   9.947 -0.5648 -0.5329  0.5303
  991MOL0     C36647  10.953   3.409   9.935  0.1412  0.0149  0.1490
  991MOL0     C36648  11.038   3.460  10.043  0.0930 -0.1540 -0.5357
  991MOL0     C36649  10.937   3.469   9.808 -0.4631 -0.4854 -0.4203
  991MOL0     C36650  10.966   3.611   9.775  0.2329 -0.2033 -1.1638
  991MOL0     O36651  11.016   3.634   9.656 -0.4948 -0.0745  1.1436
  991MOL0     C36652  11.094   3.750   9.639  0.4189  0.1848  0.0802
  991MOL0     C36653  11.213   3.768   9.709  0.0797  0.1186  0.9562
  991MOL0     C36654  11.280   3.901   9.704 -0.0015  0.1149  1.6692
  991MOL0     C36655  11.214   4.002   9.632  0.6846 -0.4150 -0.5952
  991MOL0     O36656  11.269   4.127   9.664  0.1275  0.1072  0.3620
  991MOL0     C36657  11.179   4.222   9.714  0.0131 -0.1651 -0.1077
  991MOL0     C36658  11.215   4.266   9.852  0.9987  1.4869  0.8127
  991MOL0     C36659  11.190   4.152   9.958 -0.1378  0.5388  0.5116
  991MOL0     C36660  11.041   4.144   9.995  0.0591  0.4789 -0.2222
  991MOL0     C36661  11.036   4.024  10.099  0.8131 -0.4730  0.0733
  991MOL0     C36662  11.055   4.056  10.239 -0.6082 -0.0464 -0.5778
  991MOL0     C36663  10.974   4.164  10.304  1.0396 -0.3021 -0.6062
  991MOL0     C36664  10.976   4.151  10.452  0.3047 -0.1360 -1.0252
  991MOL0    Cl36665  10.876   4.283  10.524  0.0115 -0.1444 -0.2197
  991MOL0     C36666  11.104   3.975   9.552  0.2344 -0.2680  0.1511
  991MOL0     C36667  11.040   3.849   9.561 -0.4082 -0.7075  0.5893
  991MOL0     O36668  10.934   3.706   9.859 -0.4686  0.4527  1.0420
  991MOL0     C36669  10.899   3.396   9.697 -0.7414 -1.3176 -0.0397
  991MOL0     C36670  10.857   3.270   9.715 -0.3505  0.6578  0.1727
  991MOL0     N36671  10.333   2.782   9.496 -0.6593 -0.7119 -0.0809
  991MOL0     N36672  10.234   2.727   9.427 -1.1966  0.4917  0.7652
  991MOL0     C36673   9.397   1.972   8.976 -0.5335 -0.0138  0.1093
  991MOL0     C36674   9.350   1.947   8.842 -0.2765 -0.0296 -0.5130
  991MOL0     C36675   9.326   1.745   8.435  0.1195 -0.3485 -0.2634
  991MOL0     C36676   9.412   1.836   8.376 -0.5099  0.2888  0.4144
  991MOL0     C36677   9.406   1.876   8.236 -0.0336 -0.2819 -0.1417
  991MOL0     C36678   9.317   1.804   8.149 -0.4507  0.2807 -0.5383
  991MOL0     O36679   9.302   1.831   8.017 -0.1252  0.2776  0.6469
  991MOL0     C36680   9.358   1.955   7.964 -0.1044 -0.4003 -0.7870
  991MOL0     C36681   9.505   1.929   7.917  0.0178 -0.1974  0.0318
  991MOL0     C36682   9.537   1.936   7.772 -1.3328 -1.2563  0.3508
  991MOL0     C36683   9.504   1.809   7.709 -1.0560  0.3347  0.2373
  991MOL0     C36684   9.548   1.812   7.565 -0.1084 -0.5343  0.3750
  991MOL0     C36685   9.590   1.825   7.449 -0.0102  0.2080  0.1722
  991MOL0     C36686   9.238   1.705   8.212 -0.3949 -0.4005 -0.4134
  991MOL0     C36687   9.232   1.676   8.349 -0.4034  0.0201  0.2325
  991MOL0     C36688   9.123   1.581   8.394  0.0400 -0.5402  0.1914
  991MOL0     H36689   9.540   1.682   8.775 -1.4500  0.3830 -1.7607
  991MOL0     H36690   9.591   1.696   9.016 -0.9529 -0.2982 -0.0930
  991MOL0     H36691   9.526   1.994   9.349  0.1826 -2.4116 -0.3735
  991MOL0     H36692   9.389   2.042   9.235  0.8165  3.9383 -3.1490
  991MOL0     H36693   9.559   2.167   9.095  0.7869 -1.0169 -0.5223
  991MOL0     H36694   9.512   2.230   9.262  0.4670 -0.9904  2.8123
  991MOL0     H36695   9.726   2.158   9.345  0.0243 -2.8062  0.1015
  991MOL0     H36696   9.752   2.064   9.185  1.6880  0.5344 -0.6400
  991MOL0     H36697   9.788   2.278   9.067 -0.3349  1.9377  0.1705
  991MOL0     H36698   9.686   2.371   9.171 -0.7556  0.6538 -1.5803
  991MOL0     H36699   9.947   2.392   9.157  5.4026 -0.4514  2.9995
  991MOL0     H36700   9.946   2.266   9.286 -1.1904 -0.9187  1.7598
  991MOL0     H36701   9.810   2.532   9.307  0.1769 -1.3384 -2.7733
  991MOL0     H36702   9.853   2.405   9.432  2.5996  0.5640  0.9572
  991MOL0     H36703  10.025   2.579   9.269 -1.2441  0.3462 -0.3234
  991MOL0     H36704  10.091   2.466   9.396 -0.6505 -1.2658 -1.7422
  991MOL0     H36705   9.937   2.726   9.457  0.3845  0.5040  0.5323
  991MOL0     H36706   9.954   2.594   9.567  1.3772 -3.9892 -0.7879
  991MOL0     H36707  10.145   2.711   9.747  2.3497 -2.2564  0.1962
  991MOL0     H36708  10.399   2.748   9.820  0.1783 -0.5405 -0.8796
  991MOL0     H36709  10.340   2.917   9.790  2.6387  1.8595 -0.3322
  991MOL0     H36710  10.576   2.796   9.646 -1.5698  0.0864 -4.9218
  991MOL0     H36711  10.484   2.948   9.610 -0.2615 -0.6644  0.7070
  991MOL0     H36712  10.537   3.038   9.832 -0.6452 -1.3763 -2.4758
  991MOL0     H36713  10.591   2.892   9.894  0.1081 -1.2033 -1.1907
  991MOL0     H36714  10.781   2.889   9.789  0.6500  0.2255  0.9714
  991MOL0     H36715  10.750   3.021   9.671 -1.5390 -1.0015  0.3157
  991MOL0     H36716  10.943   3.227  10.039  0.3782  0.6797  0.8907
  991MOL0     H36717  10.987   3.474  10.139  1.6374  1.3196  0.1337
  991MOL0     H36718  11.086   3.554  10.015 -0.7872  0.0182 -1.5096
  991MOL0     H36719  11.126   3.399  10.068  0.2787  0.2230 -0.2551
  991MOL0     H36720  11.256   3.691   9.771 -2.2666 -0.3763  2.1025
  991MOL0     H36721  11.375   3.921   9.752  0.9951 -0.8365  0.1589
  991MOL0     H36722  11.185   4.309   9.648  0.2719 -3.0248 -4.2900
  991MOL0     H36723  11.075   4.189   9.706 -0.9824  3.0099 -1.9912
  991MOL0     H36724  11.323   4.281   9.857  2.4017 -3.9373 -3.2550
  991MOL0     H36725  11.159   4.357   9.874 -2.0126  0.7809 -2.8513
  991MOL0     H36726  11.250   4.179  10.046  2.7245  2.8134 -1.9069
  991MOL0     H36727  11.237   4.060   9.925  1.8837  1.7882 -0.2748
  991MOL0     H36728  10.977   4.115   9.911 -3.3081 -2.1910  2.9600
  991MOL0     H36729  11.008   4.238  10.040 -1.8250  0.5302 -1.5962
  991MOL0     H36730  10.935   3.982  10.092 -0.2584  1.4753  2.6492
  991MOL0     H36731  11.105   3.943  10.071  0.8538 -0.3334 -0.2407
  991MOL0     H36732  11.155   4.097  10.252 -1.3485  2.8975 -2.9895
  991MOL0     H36733  11.066   3.962  10.295  0.6247 -0.1536 -0.9607
  991MOL0     H36734  10.871   4.139  10.279  0.0191  0.2037  2.5467
  991MOL0     H36735  11.008   4.262  10.268  1.6098 -0.2268  0.1144
  991MOL0     H36736  11.077   4.156  10.493 -0.7319  1.2265  1.6036
  991MOL0     H36737  10.939   4.055  10.488 -1.1047  0.4272 -0.8979
  991MOL0     H36738  11.056   4.060   9.504  1.3189  2.2991  3.2039
  991MOL0     H36739  10.946   3.823   9.513 -0.8813 -0.7517  1.5140
  991MOL0     H36740  10.880   3.437   9.598  0.2853  0.6450  0.5330
  991MOL0     H36741  10.817   3.225   9.625  1.1788  1.2267 -0.8432
  991MOL0     H36742   9.353   2.056   9.029 -3.2923 -0.1876 -1.7092
  991MOL0     H36743   9.265   2.004   8.805 -0.8566  0.7446  1.8213
  991MOL0     H36744   9.484   1.887   8.440  0.9048 -0.2891 -0.6485
  991MOL0     H36745   9.474   1.954   8.205  0.6984 -0.8708 -0.0550
  991MOL0     H36746   9.298   1.963   7.873  0.9238  3.1152 -1.3060
  991MOL0     H36747   9.340   2.044   8.026  1.2011 -0.4095 -0.3612
  991MOL0     H36748   9.546   1.847   7.975  0.6027  1.2322  1.7165
  991MOL0     H36749   9.559   2.012   7.963 -0.8804  0.9070 -0.8439
  991MOL0     H36750   9.477   2.017   7.731 -1.4516 -1.1358  0.7553
  991MOL0     H36751   9.640   1.955   7.741 -1.5772  0.3107  0.4030
  991MOL0     H36752   9.399   1.785   7.695 -1.0175  0.4140 -0.2158
  991MOL0     H36753   9.553   1.720   7.750 -0.1019  1.0108  0.6129
  991MOL0     H36754   9.628   1.834   7.349 -1.0047  0.3886 -0.2011
  991MOL0     H36755   9.183   1.645   8.141  0.4726 -2.1943  0.3671
  991MOL0     H36756   9.164   1.480   8.406  0.9165 -0.5585 -2.3460
  991MOL0     H36757   9.072   1.613   8.486  0.1985  0.7390 -0.1378
  991MOL0     H36758   9.046   1.586   8.316 -0.3189  0.2214  0.5822
  992MOL0     O36759   0.202   5.428   9.218 -0.6986 -0.2921 -0.3267
  992MOL0     C36760   0.314   5.460   9.255  0.3037 -0.0010  0.9209
  992MOL0     O36761   0.426   5.412   9.199  0.3003 -0.5739  1.0173
  992MOL0     C36762   0.418   5.315   9.103 -0.2104 -0.0511 -0.5728
  992MOL0     C36763   0.322   5.304   8.993  0.4824  0.3757  0.5853
  992MOL0     C36764   0.331   5.201   8.900  1.0819  0.2463  0.5951
  992MOL0     C36765   0.402   5.081   8.924  0.8541 -0.3679  0.0913
  992MOL0     O36766   0.403   4.965   8.842 -0.2274 -0.5951 -0.2758
  992MOL0     C36767   0.356   4.854   8.914  0.4021  0.7079  0.7221
  992MOL0     C36768   0.331   4.736   8.820  0.2018 -0.4038  0.3714
  992MOL0     C36769   0.455   4.703   8.746 -0.0272  0.3648  0.3509
  992MOL0     C36770   0.456   4.551   8.699  0.1750 -0.8015 -0.0365
  992MOL0     C36771   0.594   4.503   8.634 -0.5317 -0.1589 -0.2145
  992MOL0     C36772   0.688   4.452   8.752  0.4611 -0.1381  0.5823
  992MOL0     C36773   0.803   4.372   8.680 -0.3425  0.8829  0.0208
  992MOL0     C36774   0.779   4.217   8.660  0.7790  0.5282 -0.7948
  992MOL0     N36775   0.908   4.155   8.619  0.7091 -0.7773  0.8398
  992MOL0     C36776   0.968   4.191   8.499  0.1689 -0.3840  1.0825
  992MOL0     C36777   1.094   4.141   8.513 -0.1799  0.1973 -0.2896
  992MOL0     C36778   1.201   4.163   8.400 -0.5198  0.1023 -0.0692
  992MOL0     C36779   1.157   4.065   8.280  0.5248  0.1971  0.1924
  992MOL0     C36780   1.252   4.053   8.160  0.5322 -0.3114 -0.5403
  992MOL0     C36781   1.276   4.188   8.101  0.2927 -1.0779  0.5785
  992MOL0     O36782   1.380   4.189   8.000  0.9391 -0.4969 -0.4212
  992MOL0     C36783   1.389   4.297   7.910  1.3768  0.2530  1.1275
  992MOL0     C36784   1.448   4.295   7.788  0.2007 -0.5435  0.8619
  992MOL0     C36785   1.443   4.393   7.687 -0.9413 -0.1194  0.0155
  992MOL0     C36786   1.500   4.374   7.554  0.3805  0.4787 -0.0266
  992MOL0     C36787   1.377   4.518   7.721 -0.7780  0.4899  0.3928
  992MOL0     C36788   1.363   4.638   7.635  0.0942 -0.5201 -0.7194
  992MOL0     O36789   1.391   4.637   7.507 -1.2514  0.1612 -0.1248
  992MOL0     C36790   1.353   4.737   7.418  0.0616  0.1628 -0.8901
  992MOL0     C36791   1.441   4.784   7.332 -0.8698  0.0368  0.0659
  992MOL0     C36792   1.406   4.888   7.241  0.9986  0.9995  0.1310
  992MOL0     C36793   1.286   4.962   7.250  0.0975  0.2433 -0.5264
  992MOL0     O36794   1.253   5.081   7.179 -0.1940  0.0202  0.5716
  992MOL0     C36795   1.354   5.149   7.108  0.2478 -0.2925  0.5644
  992MOL0     C36796   1.309   5.293   7.077  0.5854 -0.0532  0.2732
  992MOL0     C36797   1.192   5.291   6.971 -0.4558 -0.3881  0.6670
  992MOL0     C36798   1.106   5.417   6.968  0.1533 -1.5617  0.1824
  992MOL0     C36799   1.164   5.548   6.901  0.5086  0.3842  0.1229
  992MOL0     C36800   1.137   5.581   6.752  0.1070  0.9454 -0.1376
  992MOL0     C36801   1.260   5.647   6.695 -0.0342  0.7773  0.4931
  992MOL0     C36802   1.254   5.688   6.553  0.4783 -0.9170  0.1465
  992MOL0    Cl36803   1.139   5.827   6.528  0.5437  0.1006 -0.1544
  992MOL0     C36804   1.196   4.904   7.348 -0.3786 -0.5608 -0.0720
  992MOL0     C36805   1.225   4.803   7.433  0.1515 -0.2696 -0.7928
  992MOL0     O36806   1.323   4.737   7.696 -0.3502 -0.3322 -0.0515
  992MOL0     C36807   1.322   4.520   7.854 -0.4156 -0.4803 -0.2166
  992MOL0     C36808   1.327   4.416   7.948 -0.1650  1.2111  0.5298
  992MOL0     N36809   1.101   4.074   8.631  0.5615 -0.1919 -0.0317
  992MOL0     N36810   0.994   4.086   8.693 -0.5578 -0.7187 -0.0047
  992MOL0     C36811   0.490   5.091   9.036  0.4936 -1.4843 -0.6075
  992MOL0     C36812   0.493   5.206   9.119 -0.4793  0.2980  0.2887
  992MOL0     C36813   0.334   5.576   9.344 -0.1364 -0.9040  0.3475
  992MOL0     C36814   0.243   5.601   9.451  0.6718 -0.3112  0.1591
  992MOL0     C36815   0.283   5.685   9.553 -0.2125  0.1673 -0.4270
  992MOL0     C36816   0.392   5.770   9.546 -0.0789  0.1839 -0.6016
  992MOL0     O36817   0.428   5.856   9.650  0.0114  0.0552  0.8501
  992MOL0     C36818   0.505   5.796   9.744 -0.7084  0.0152  1.2343
  992MOL0     C36819   0.589   5.903   9.824  0.5134  0.5341  0.5485
  992MOL0     C36820   0.728   5.928   9.751 -0.4001  0.4344  0.8504
  992MOL0     C36821   0.834   5.846   9.818  0.2293  0.6254  0.4398
  992MOL0     C36822   0.959   5.853   9.736  0.0663 -0.1802 -0.4825
  992MOL0     C36823   1.053   5.848   9.655  0.2217 -0.0478  0.1730
  992MOL0     C36824   0.462   5.776   9.426 -0.2715  0.0069  0.1721
  992MOL0     C36825   0.444   5.669   9.332 -0.5738  0.4323 -0.1378
  992MOL0     C36826   0.541   5.680   9.209  0.1907 -0.5743 -0.3970
  992MOL0     H36827   0.254   5.386   8.970 -0.4180 -0.3421  0.6488
  992MOL0     H36828   0.275   5.211   8.808  1.5002 -0.0074  0.3046
  992MOL0     H36829   0.264   4.887   8.964 -1.2209  2.6864 -3.1773
  992MOL0     H36830   0.431   4.828   8.989  1.0514  0.8268  0.1313
  992MOL0     H36831   0.291   4.650   8.875 -2.1841  2.1782  3.0731
  992MOL0     H36832   0.261   4.768   8.743 -0.5950  1.0424  1.6278
  992MOL0     H36833   0.465   4.773   8.663  0.1226 -1.3335 -1.1166
  992MOL0     H36834   0.541   4.730   8.808  0.5475  2.3974 -1.2343
  992MOL0     H36835   0.411   4.482   8.771 -1.1527 -0.5304 -0.5763
  992MOL0     H36836   0.386   4.549   8.615  3.6582 -1.3181 -3.1896
  992MOL0     H36837   0.644   4.596   8.606  2.9517 -1.1436  2.1454
  992MOL0     H36838   0.582   4.436   8.548 -2.7450  0.4028 -0.3908
  992MOL0     H36839   0.736   4.530   8.811 -1.0065  0.7088  0.7097
  992MOL0     H36840   0.631   4.385   8.816  0.3172 -2.4280 -1.7540
  992MOL0     H36841   0.890   4.379   8.746 -0.4114 -2.8323  0.7624
  992MOL0     H36842   0.821   4.413   8.580  0.4380  3.2167  1.0410
  992MOL0     H36843   0.741   4.159   8.744 -2.7842  0.3488 -2.3547
  992MOL0     H36844   0.693   4.204   8.594 -0.6724  3.0373  0.4618
  992MOL0     H36845   0.946   4.252   8.412  3.3401 -1.8651 -0.9581
  992MOL0     H36846   1.299   4.137   8.442 -0.0767  0.7328 -0.6711
  992MOL0     H36847   1.205   4.272   8.387 -1.4986  0.1599  0.0804
  992MOL0     H36848   1.166   3.965   8.321  3.6952  0.2005 -0.2792
  992MOL0     H36849   1.056   4.081   8.239  0.5907 -2.8303 -1.4776
  992MOL0     H36850   1.348   4.011   8.191  0.1252 -1.6514 -1.0406
  992MOL0     H36851   1.198   3.988   8.090 -1.8618  1.7915 -0.7922
  992MOL0     H36852   1.186   4.230   8.056  0.3969 -1.6174 -0.1539
  992MOL0     H36853   1.325   4.242   8.183  1.8673  0.1382 -1.0602
  992MOL0     H36854   1.487   4.198   7.759 -1.4729 -0.2789 -2.8931
  992MOL0     H36855   1.507   4.266   7.538 -0.1485  0.7257 -2.3098
  992MOL0     H36856   1.599   4.409   7.522  0.9427 -1.2061 -0.2409
  992MOL0     H36857   1.427   4.400   7.477 -3.7822 -2.9195  2.3698
  992MOL0     H36858   1.545   4.752   7.323 -0.1769  1.0805  3.1934
  992MOL0     H36859   1.477   4.927   7.168  1.6458 -0.4790 -0.0736
  992MOL0     H36860   1.448   5.159   7.162  1.1937  3.1557 -1.4226
  992MOL0     H36861   1.385   5.103   7.015  4.5795  2.3151  0.4530
  992MOL0     H36862   1.292   5.355   7.166 -1.3076  1.6296 -1.1631
  992MOL0     H36863   1.391   5.347   7.029 -0.0357 -0.7702 -1.6965
  992MOL0     H36864   1.116   5.214   6.986 -3.2714  1.9478 -0.5044
  992MOL0     H36865   1.231   5.262   6.874 -1.6825  1.8446 -0.5791
  992MOL0     H36866   1.069   5.429   7.070  0.7161  1.4002  0.1279
  992MOL0     H36867   1.011   5.400   6.915 -0.3386  0.9694  0.1541
  992MOL0     H36868   1.116   5.633   6.952  2.5790 -0.1678  3.2558
  992MOL0     H36869   1.272   5.544   6.914  0.7834 -1.7546 -2.1273
  992MOL0     H36870   1.058   5.656   6.738  1.8785  2.3946 -3.5215
  992MOL0     H36871   1.128   5.488   6.695  3.2447 -0.7735  1.8848
  992MOL0     H36872   1.338   5.572   6.714 -2.7441 -2.2912  0.5011
  992MOL0     H36873   1.285   5.733   6.758 -2.6462  2.6449 -0.8408
  992MOL0     H36874   1.221   5.596   6.505  1.3757 -2.0695  1.6398
  992MOL0     H36875   1.353   5.725   6.522 -0.1466 -0.0548 -0.8966
  992MOL0     H36876   1.109   4.966   7.365 -0.0301  0.2625 -1.2137
  992MOL0     H36877   1.155   4.764   7.506 -0.4990 -0.1809 -1.3661
  992MOL0     H36878   1.274   4.613   7.881 -0.3477  0.1718 -2.1726
  992MOL0     H36879   1.272   4.433   8.040 -1.7941 -0.6602 -0.0070
  992MOL0     H36880   0.562   5.012   9.056  1.1379 -0.9244 -0.6893
  992MOL0     H36881   0.562   5.199   9.202  0.1111  1.0672 -0.1227
  992MOL0     H36882   0.160   5.536   9.477  0.7759 -0.2302  0.7038
  992MOL0     H36883   0.214   5.676   9.636 -0.0479 -0.2153 -0.3293
  992MOL0     H36884   0.450   5.743   9.823  2.0439 -3.9486  0.7654
  992MOL0     H36885   0.585   5.730   9.710  0.8367  2.4824 -0.1942
  992MOL0     H36886   0.589   5.869   9.927 -0.6088 -2.2808 -0.2746
  992MOL0     H36887   0.537   5.997   9.841 -1.2820 -0.3960  0.4642
  992MOL0     H36888   0.725   5.901   9.645  0.3306  1.3070  0.5880
  992MOL0     H36889   0.767   6.030   9.762  0.3313  0.1725  0.7615
  992MOL0     H36890   0.800   5.742   9.823 -1.8988  1.0595 -2.4261
  992MOL0     H36891   0.856   5.881   9.919  2.2663 -2.3448  1.1585
  992MOL0     H36892   1.130   5.829   9.583 -0.3596 -1.5658 -0.0832
  992MOL0     H36893   0.544   5.846   9.419 -1.9893  1.9534 -2.3150
  992MOL0     H36894   0.494   5.637   9.120  0.3113  0.2644 -0.8736
  992MOL0     H36895   0.554   5.786   9.183 -3.7289  0.8687  2.4847
  992MOL0     H36896   0.635   5.629   9.232 -1.1000 -2.6618  0.5759
  993MOL0     O36897   3.289   4.503   5.891 -0.4204  0.3600  0.1977
  993MOL0     C36898   3.189   4.428   5.884  0.1864 -0.1299  0.6811
  993MOL0     O36899   3.190   4.302   5.928  0.3617 -0.6579 -0.4796
  993MOL0     C36900   3.308   4.241   5.952  0.3953  0.9160 -0.1810
  993MOL0     C36901   3.410   4.286   6.025 -0.0857  0.5982 -0.9448
  993MOL0     C36902   3.527   4.211   6.052  0.4734  0.2325  0.0374
  993MOL0     C36903   3.551   4.095   5.987  0.5212  0.4172  0.4535
  993MOL0     O36904   3.657   4.016   6.016  0.4893 -0.3275  0.2564
  993MOL0     C36905   3.749   3.994   5.912 -0.0907 -0.1586 -0.0722
  993MOL0     C36906   3.865   4.084   5.956  0.1477  0.7226 -0.5118
  993MOL0     C36907   3.982   4.074   5.870 -0.3610  0.2493 -0.2896
  993MOL0     C36908   3.980   4.146   5.740 -0.1515 -0.4009 -0.2680
  993MOL0     C36909   4.117   4.127   5.661 -0.0680  0.3069  0.6936
  993MOL0     C36910   4.135   4.188   5.512 -0.7539 -0.4197 -0.3519
  993MOL0     C36911   4.176   4.334   5.540 -0.4659  0.4451 -0.7423
  993MOL0     C36912   4.162   4.427   5.421  0.3970  0.9151  0.6723
  993MOL0     N36913   4.271   4.396   5.336  0.5514  0.6453 -0.5756
  993MOL0     C36914   4.382   4.475   5.322  0.0663 -0.7783  0.6874
  993MOL0     C36915   4.434   4.430   5.206 -1.3344  0.1239 -0.6421
  993MOL0     C36916   4.539   4.500   5.134  0.0368 -0.2741  1.1659
  993MOL0     C36917   4.484   4.617   5.058 -0.8687 -0.2824  1.2353
  993MOL0     C36918   4.602   4.655   4.957  0.0379  0.1195 -0.2798
  993MOL0     C36919   4.549   4.753   4.861  0.5370 -0.1516 -0.0079
  993MOL0     O36920   4.446   4.695   4.780 -0.0266 -0.4602 -0.5254
  993MOL0     C36921   4.343   4.784   4.748 -0.1115  0.7039 -0.1733
  993MOL0     C36922   4.362   4.923   4.727  0.9961 -0.7632  0.0113
  993MOL0     C36923   4.262   5.012   4.682  0.2884  0.4046  0.7431
  993MOL0     C36924   4.300   5.164   4.666  0.5053  0.4450 -0.6986
  993MOL0     C36925   4.132   4.957   4.657  0.5679 -0.1492 -1.3595
  993MOL0     C36926   4.016   5.035   4.614 -0.0198  0.1539  0.5375
  993MOL0     O36927   4.028   5.168   4.593  0.1113 -0.1078  0.0692
  993MOL0     C36928   3.921   5.249   4.551  1.0953  0.3182  0.2924
  993MOL0     C36929   3.938   5.388   4.586  0.2871  0.8143 -0.2006
  993MOL0     C36930   3.865   5.480   4.512  0.2339 -0.1823  0.1877
  993MOL0     C36931   3.761   5.451   4.422 -1.2650 -0.5320  0.1662
  993MOL0     O36932   3.692   5.550   4.356 -0.8347  0.1501  0.4487
  993MOL0     C36933   3.700   5.689   4.400 -0.1477 -0.9503  0.1299
  993MOL0     C36934   3.599   5.713   4.516  1.8402 -0.2112 -0.1625
  993MOL0     C36935   3.499   5.824   4.468  0.2663 -0.3854 -0.0900
  993MOL0     C36936   3.382   5.848   4.570  0.8853 -0.3301 -1.1115
  993MOL0     C36937   3.275   5.953   4.526 -0.3995 -0.3130 -0.5749
  993MOL0     C36938   3.228   5.933   4.380  0.4007  0.2185 -0.6462
  993MOL0     C36939   3.102   6.013   4.350 -0.6815  0.1508  0.0923
  993MOL0     C36940   3.086   6.011   4.197  1.6494  1.0404  0.1991
  993MOL0    Cl36941   3.211   6.087   4.087 -0.1717 -0.0396 -0.3876
  993MOL0     C36942   3.737   5.318   4.396 -0.3692  0.3760 -1.1018
  993MOL0     C36943   3.805   5.219   4.464 -0.3165  0.6120 -0.9770
  993MOL0     O36944   3.914   4.975   4.614  0.0160 -0.5303  0.1919
  993MOL0     C36945   4.114   4.826   4.701  0.4199  0.3472  0.2356
  993MOL0     C36946   4.217   4.736   4.730 -0.1291 -0.3517 -1.1344
  993MOL0     N36947   4.363   4.322   5.158  0.4251  0.1454  0.8127
  993MOL0     N36948   4.256   4.308   5.233  1.4070 -0.5265 -0.4551
  993MOL0     C36949   3.453   4.050   5.896  0.8782  1.1202  0.2951
  993MOL0     C36950   3.329   4.116   5.882 -0.6431 -1.6796 -0.1595
  993MOL0     C36951   3.052   4.479   5.851 -0.1380  0.0615  0.4396
  993MOL0     C36952   2.953   4.436   5.942  0.5137  0.1097  0.5810
  993MOL0     C36953   2.825   4.473   5.921 -0.8574  1.0584  0.1903
  993MOL0     C36954   2.785   4.567   5.818  0.1536  0.2236 -1.5790
  993MOL0     O36955   2.661   4.616   5.802 -0.0432 -0.1747 -0.2482
  993MOL0     C36956   2.550   4.574   5.888 -0.2647  0.1364  0.3472
  993MOL0     C36957   2.420   4.619   5.824  0.2074  0.5767  0.1580
  993MOL0     C36958   2.296   4.524   5.868 -0.0711  0.2971  0.0193
  993MOL0     C36959   2.157   4.584   5.827 -0.3957 -0.4840  1.1013
  993MOL0     C36960   2.135   4.588   5.676  0.3586 -0.7586 -0.3691
  993MOL0     C36961   2.133   4.609   5.556 -0.1372  0.0858 -0.6772
  993MOL0     C36962   2.889   4.612   5.741 -0.5551 -0.0622 -0.2385
  993MOL0     C36963   3.026   4.567   5.744  0.1441  0.0954 -0.6506
  993MOL0     C36964   3.125   4.593   5.641  0.4173 -0.9846  0.0247
  993MOL0     H36965   3.405   4.380   6.080  4.3732  1.5877 -1.9036
  993MOL0     H36966   3.608   4.240   6.118  1.8845  0.0246 -1.5518
  993MOL0     H36967   3.714   4.017   5.811 -1.3094  3.9900  1.0817
  993MOL0     H36968   3.795   3.896   5.927  0.2196  0.2093  1.4935
  993MOL0     H36969   3.820   4.184   5.954 -1.2037  0.2069  1.2779
  993MOL0     H36970   3.887   4.060   6.061  2.7523 -0.4470 -1.2424
  993MOL0     H36971   4.070   4.115   5.921 -0.1641  2.4819 -2.2413
  993MOL0     H36972   4.011   3.972   5.847  1.1981  0.4055  0.8665
  993MOL0     H36973   3.899   4.107   5.678  0.7209  2.3438 -3.4247
  993MOL0     H36974   3.976   4.256   5.743 -0.0419 -0.4085  2.4187
  993MOL0     H36975   4.123   4.019   5.648  2.2307  0.6626 -2.3135
  993MOL0     H36976   4.199   4.141   5.732 -1.2946 -3.3961  3.1320
  993MOL0     H36977   4.223   4.148   5.460  0.3733  4.8334 -3.2777
  993MOL0     H36978   4.043   4.190   5.452 -0.6793  2.3114 -0.5121
  993MOL0     H36979   4.273   4.330   5.590 -1.5811 -0.5688  1.4638
  993MOL0     H36980   4.115   4.381   5.618  0.2288  3.6269 -1.9777
  993MOL0     H36981   4.066   4.414   5.370  0.6985  1.7856 -0.1519
  993MOL0     H36982   4.170   4.532   5.449  0.0467  1.9057 -2.5282
  993MOL0     H36983   4.419   4.561   5.376  0.5071 -0.4197 -0.1692
  993MOL0     H36984   4.579   4.426   5.064  0.2198  1.4114 -0.5944
  993MOL0     H36985   4.617   4.542   5.199  0.5144 -0.6239  0.8187
  993MOL0     H36986   4.401   4.581   4.996  1.4927  2.0480 -3.8704
  993MOL0     H36987   4.460   4.700   5.125 -0.7761 -0.0829  1.0200
  993MOL0     H36988   4.687   4.691   5.015 -0.6148  1.9166 -0.3926
  993MOL0     H36989   4.638   4.569   4.900 -0.5660 -2.5493  3.0637
  993MOL0     H36990   4.525   4.839   4.924  2.7169 -0.5746  1.5061
  993MOL0     H36991   4.633   4.778   4.795  0.4008  1.8812  0.5165
  993MOL0     H36992   4.458   4.973   4.732  0.0654  1.0827  4.3053
  993MOL0     H36993   4.406   5.167   4.639 -0.0619  1.7515 -3.0272
  993MOL0     H36994   4.277   5.221   4.757  5.5403  2.2750 -0.2388
  993MOL0     H36995   4.259   5.200   4.572 -1.9353 -0.2848  0.0065
  993MOL0     H36996   4.010   5.420   4.660 -2.5854 -1.4790  4.0247
  993MOL0     H36997   3.901   5.581   4.526  2.3329 -1.1166  2.1080
  993MOL0     H36998   3.801   5.721   4.426 -0.0295 -0.5241 -0.8088
  993MOL0     H36999   3.675   5.753   4.314  2.5541  0.1249  0.0544
  993MOL0     H37000   3.541   5.621   4.528  1.7655 -0.1556 -0.0995
  993MOL0     H37001   3.639   5.753   4.610 -1.2286  0.8276  0.8245
  993MOL0     H37002   3.461   5.788   4.372  2.9244 -2.4806 -0.4911
  993MOL0     H37003   3.538   5.925   4.448 -0.8643  0.1895  0.5252
  993MOL0     H37004   3.420   5.888   4.665  1.2974  0.4690 -1.6066
  993MOL0     H37005   3.323   5.759   4.595  0.1251  1.3334  4.3271
  993MOL0     H37006   3.190   5.935   4.592  0.1078 -5.8465 -0.9385
  993MOL0     H37007   3.313   6.055   4.529 -1.6048  0.1383  0.4991
  993MOL0     H37008   3.206   5.827   4.368  1.6009 -0.5776  2.9158
  993MOL0     H37009   3.307   5.953   4.307  0.0930  1.0440 -0.7659
  993MOL0     H37010   3.115   6.116   4.386  0.1667  0.5899 -1.3515
  993MOL0     H37011   3.016   5.972   4.404 -1.0278  0.7011 -0.0274
  993MOL0     H37012   2.991   6.062   4.176 -0.3534 -1.5275  2.3855
  993MOL0     H37013   3.068   5.905   4.179 -0.6756  1.2162  1.1774
  993MOL0     H37014   3.660   5.295   4.323 -1.1810 -0.3029 -0.0558
  993MOL0     H37015   3.786   5.113   4.446  3.1344 -0.6780  1.7460
  993MOL0     H37016   4.013   4.788   4.694  0.6456 -0.8015  2.3816
  993MOL0     H37017   4.183   4.633   4.738  1.5858 -0.7946  2.3587
  993MOL0     H37018   3.456   3.956   5.841  1.6151  1.4187 -0.1913
  993MOL0     H37019   3.248   4.078   5.821 -1.0092 -0.2784 -0.5851
  993MOL0     H37020   2.981   4.373   6.026 -1.4916  1.4817  2.3664
  993MOL0     H37021   2.752   4.445   5.995 -0.4940 -0.2305  0.0849
  993MOL0     H37022   2.562   4.465   5.882  0.0008  0.2519 -2.2862
  993MOL0     H37023   2.551   4.606   5.992  0.7678  0.9686  0.0960
  993MOL0     H37024   2.441   4.627   5.716  4.2769  0.3676  0.7724
  993MOL0     H37025   2.411   4.726   5.848  0.4103  0.2234  1.9046
  993MOL0     H37026   2.317   4.430   5.818  2.0294 -0.3515  1.9628
  993MOL0     H37027   2.276   4.504   5.974 -1.9389 -1.3559 -0.5819
  993MOL0     H37028   2.136   4.681   5.874  0.7676  0.7229 -0.7273
  993MOL0     H37029   2.077   4.517   5.858  0.2538 -2.0599 -0.4768
  993MOL0     H37030   2.128   4.632   5.452  1.2146  0.5774 -0.6526
  993MOL0     H37031   2.868   4.692   5.671 -0.5590 -1.3299 -1.7646
  993MOL0     H37032   3.194   4.511   5.616 -0.5826 -0.8212 -4.0104
  993MOL0     H37033   3.084   4.639   5.551 -0.5047 -1.0706  0.3866
  993MOL0     H37034   3.184   4.675   5.682 -0.6033 -1.4176  2.5415
  994MOL0     O37035  10.667  11.313   7.669 -0.3286 -0.1178  0.5638
  994MOL0     C37036  10.680  11.441   7.700  0.6872  0.2435  0.0918
  994MOL0     O37037  10.741  11.492   7.808  0.5541  0.5551 -0.1791
  994MOL0     C37038  10.759  11.408   7.920  1.0475  0.5886 -0.3718
  994MOL0     C37039  10.660  11.389   8.023  0.8669 -0.1254 -0.2257
  994MOL0     C37040  10.685  11.292   8.121  0.3687  0.8438  0.5594
  994MOL0     C37041  10.802  11.216   8.129 -0.5296  0.4756  0.6227
  994MOL0     O37042  10.820  11.119   8.224 -0.6363  0.3564  0.9169
  994MOL0     C37043  10.923  11.010   8.194  0.9359  0.4780  0.1244
  994MOL0     C37044  10.929  10.902   8.301 -0.7532  0.4930  0.0284
  994MOL0     C37045  10.963  10.776   8.240 -0.3745  0.7267  1.4569
  994MOL0     C37046  11.036  10.681   8.332  0.9993  0.3455 -0.4952
  994MOL0     C37047  11.026  10.536   8.282 -0.7309  0.5577  0.9332
  994MOL0     C37048  11.092  10.430   8.373 -0.4111 -0.2731  0.9841
  994MOL0     C37049  11.077  10.289   8.318 -0.3183  1.1547 -0.2305
  994MOL0     C37050  11.155  10.257   8.186  0.2394 -0.7523 -0.4355
  994MOL0     N37051  11.301  10.285   8.195 -0.7132  0.4619  0.3243
  994MOL0     C37052  11.388  10.253   8.290  1.1885 -0.6308 -0.2774
  994MOL0     C37053  11.499  10.326   8.276  0.4852 -0.6631 -0.0733
  994MOL0     C37054  11.621  10.345   8.363 -0.3166 -0.8716 -0.0169
  994MOL0     C37055  11.587  10.448   8.469 -0.3854  0.7144 -0.1801
  994MOL0     C37056  11.578  10.595   8.411  0.2607  1.2538  0.5593
  994MOL0     C37057  11.699  10.635   8.329  0.1401 -0.7537  0.0992
  994MOL0     O37058  11.688  10.775   8.304 -0.1861  0.2847  0.4216
  994MOL0     C37059  11.627  10.821   8.190 -0.1347 -1.0607 -0.5870
  994MOL0     C37060  11.544  10.742   8.104 -0.3309  1.1840  0.4451
  994MOL0     C37061  11.470  10.801   8.003  0.3019  0.2766  0.1181
  994MOL0     C37062  11.411  10.706   7.894 -0.5133  0.6127 -0.5224
  994MOL0     C37063  11.439  10.939   7.992 -0.0782 -0.4985  0.0577
  994MOL0     C37064  11.340  11.003   7.900 -0.4531 -0.2595  0.0267
  994MOL0     O37065  11.311  11.139   7.920  0.8785 -0.2357  0.3682
  994MOL0     C37066  11.254  11.224   7.825  0.2888 -1.2689 -0.3530
  994MOL0     C37067  11.309  11.352   7.809 -0.7604 -0.1720  0.5477
  994MOL0     C37068  11.265  11.433   7.706  0.1878 -0.4288 -0.7914
  994MOL0     C37069  11.149  11.402   7.630 -0.9369  0.1093 -0.0418
  994MOL0     O37070  11.105  11.492   7.531  0.3420  0.0112  0.5246
  994MOL0     C37071  10.970  11.486   7.496  0.6198 -0.6297 -1.1712
  994MOL0     C37072  10.949  11.572   7.364 -0.2191  0.1644 -0.6961
  994MOL0     C37073  11.006  11.493   7.259  0.7585  1.0366 -0.7818
  994MOL0     C37074  10.922  11.519   7.132  0.1636  0.0159  0.1713
  994MOL0     C37075  10.776  11.456   7.115 -0.3343 -0.7159  0.0085
  994MOL0     C37076  10.756  11.333   7.203  0.1215  0.3159 -0.0150
  994MOL0     C37077  10.613  11.276   7.179 -0.5337 -0.1330 -1.0083
  994MOL0     C37078  10.579  11.161   7.275 -0.4263 -0.6283 -0.3268
  994MOL0    Cl37079  10.681  11.022   7.234  0.3971 -0.1128 -0.4109
  994MOL0     C37080  11.094  11.277   7.649  0.5379  0.0690  0.6282
  994MOL0     C37081  11.151  11.187   7.741 -0.8766 -0.4929  0.3354
  994MOL0     O37082  11.291  10.933   7.810  0.3171 -0.4266  0.4232
  994MOL0     C37083  11.513  11.015   8.084  0.7609 -0.1153  0.5925
  994MOL0     C37084  11.606  10.956   8.182 -0.6026 -0.6554  0.8941
  994MOL0     N37085  11.482  10.403   8.161 -0.0845  0.7124 -0.3591
  994MOL0     N37086  11.362  10.380   8.111  0.2370  0.4097  0.1630
  994MOL0     C37087  10.906  11.252   8.033  0.7561 -0.0344 -0.2748
  994MOL0     C37088  10.880  11.345   7.930  0.4791 -0.0905  0.3131
  994MOL0     C37089  10.616  11.556   7.625 -0.3208 -0.0859 -0.3852
  994MOL0     C37090  10.667  11.689   7.646 -0.1776  0.2542  0.8258
  994MOL0     C37091  10.633  11.801   7.567  0.4877 -0.9050  0.9847
  994MOL0     C37092  10.516  11.789   7.489 -0.0484 -1.0665  0.7119
  994MOL0     O37093  10.477  11.896   7.419  0.2873  0.4413  1.0973
  994MOL0     C37094  10.368  11.967   7.478  0.7192  0.6208  0.3472
  994MOL0     C37095  10.263  11.990   7.373  0.5267 -0.6068  0.3912
  994MOL0     C37096  10.193  11.867   7.315  0.1032  0.1326 -0.5398
  994MOL0     C37097  10.069  11.886   7.220 -0.3448  0.2843  0.1832
  994MOL0     C37098  10.126  11.913   7.088 -0.3990  0.4088  0.0732
  994MOL0     C37099  10.180  11.925   6.976 -0.0684  0.1210  0.6505
  994MOL0     C37100  10.456  11.665   7.479 -0.4830  0.1597  0.3284
  994MOL0     C37101  10.494  11.550   7.550 -0.6347  0.7147  0.7941
  994MOL0     C37102  10.420  11.421   7.539 -0.2740 -0.4347  0.5909
  994MOL0     H37103  10.568  11.446   8.027  1.0346  0.0870  1.8041
  994MOL0     H37104  10.602  11.264   8.186  0.7194 -2.0550 -0.1089
  994MOL0     H37105  11.026  11.047   8.199  0.4753  1.6573  1.7487
  994MOL0     H37106  10.885  10.974   8.098 -1.7524  0.7431  1.0033
  994MOL0     H37107  10.997  10.945   8.375 -1.2490  1.4009 -0.0247
  994MOL0     H37108  10.827  10.890   8.340 -0.6036 -1.2390 -0.0088
  994MOL0     H37109  10.863  10.734   8.226 -0.4800  1.9386 -2.7732
  994MOL0     H37110  11.018  10.784   8.145 -1.6771  0.8189  0.6880
  994MOL0     H37111  11.141  10.709   8.340  0.7093  1.3354 -0.0486
  994MOL0     H37112  10.989  10.694   8.430 -1.0668  1.1795 -1.5329
  994MOL0     H37113  11.078  10.540   8.185 -1.5497  0.0866  0.4666
  994MOL0     H37114  10.925  10.501   8.260 -0.1948 -0.1005 -0.6267
  994MOL0     H37115  11.195  10.462   8.393 -0.8288  2.9045 -1.3569
  994MOL0     H37116  11.031  10.422   8.464 -1.6416 -1.7220  0.0766
  994MOL0     H37117  10.975  10.249   8.312  0.1944 -0.6502  1.8605
  994MOL0     H37118  11.118  10.227   8.397 -0.8402 -2.6270 -2.6567
  994MOL0     H37119  11.142  10.152   8.158 -0.7172 -0.3133 -1.7800
  994MOL0     H37120  11.117  10.306   8.096 -1.9652 -0.3797  0.6292
  994MOL0     H37121  11.374  10.182   8.371  0.6818 -2.9290 -2.2503
  994MOL0     H37122  11.712  10.368   8.307  0.3134 -0.2903  1.2054
  994MOL0     H37123  11.639  10.253   8.420 -3.0750 -0.7631  1.1710
  994MOL0     H37124  11.492  10.431   8.519  0.7353 -1.3108  1.3998
  994MOL0     H37125  11.669  10.442   8.540 -0.5815 -0.8023 -0.0649
  994MOL0     H37126  11.491  10.610   8.346  0.1162  0.2162  0.4909
  994MOL0     H37127  11.564  10.662   8.496  0.7295  3.7086 -1.2063
  994MOL0     H37128  11.780  10.617   8.400 -1.7206 -0.4107  2.4457
  994MOL0     H37129  11.729  10.573   8.244  2.1226  0.8140 -0.4299
  994MOL0     H37130  11.541  10.633   8.105  0.9351  1.1131 -0.7329
  994MOL0     H37131  11.435  10.746   7.795  1.5242 -0.9274 -0.7127
  994MOL0     H37132  11.304  10.694   7.913 -0.6491  1.0727 -0.9805
  994MOL0     H37133  11.449  10.604   7.905  0.1729  0.8704 -0.4631
  994MOL0     H37134  11.396  11.377   7.870  1.6740 -4.3052 -0.8595
  994MOL0     H37135  11.314  11.530   7.710  0.2256 -0.4831  3.1728
  994MOL0     H37136  10.934  11.384   7.488 -1.1543 -1.0418  5.7720
  994MOL0     H37137  10.907  11.535   7.571 -1.4253 -1.5875 -2.1764
  994MOL0     H37138  10.841  11.583   7.353 -0.7020 -0.5465  2.3423
  994MOL0     H37139  10.998  11.669   7.374 -0.9957  0.6763 -1.6413
  994MOL0     H37140  10.991  11.386   7.276 -1.2041  0.6868 -3.8761
  994MOL0     H37141  11.113  11.515   7.255  1.6691 -2.4338  0.9053
  994MOL0     H37142  10.972  11.472   7.047 -0.3172 -0.3627  0.0945
  994MOL0     H37143  10.926  11.624   7.101 -0.2963 -0.2563 -0.8807
  994MOL0     H37144  10.717  11.535   7.162 -1.3869 -3.0857  2.9822
  994MOL0     H37145  10.746  11.446   7.010  1.2696  1.6255 -0.7618
  994MOL0     H37146  10.763  11.356   7.310  0.3403  1.1274 -0.2021
  994MOL0     H37147  10.832  11.261   7.170  0.1342  0.4827 -0.3466
  994MOL0     H37148  10.609  11.237   7.077  0.7184 -0.9031 -0.7885
  994MOL0     H37149  10.537  11.352   7.199  0.8339  1.4983 -1.7411
  994MOL0     H37150  10.475  11.128   7.261 -0.2369 -1.6665  0.5627
  994MOL0     H37151  10.585  11.193   7.380  2.3555 -1.5833 -0.1386
  994MOL0     H37152  11.007  11.249   7.590 -0.9821  4.6671  0.2899
  994MOL0     H37153  11.104  11.090   7.748  0.9327 -1.4836 -0.4244
  994MOL0     H37154  11.504  11.122   8.068  4.8076  0.0926 -1.6809
  994MOL0     H37155  11.666  11.015   8.251  2.0129 -2.9473  0.7758
  994MOL0     H37156  11.002  11.203   8.034  0.9178  0.2877  0.1784
  994MOL0     H37157  10.955  11.355   7.853 -0.4386 -0.3041 -0.6327
  994MOL0     H37158  10.750  11.708   7.713  0.8630 -2.9557  0.6413
  994MOL0     H37159  10.679  11.897   7.589 -0.9433 -0.1972  0.9646
  994MOL0     H37160  10.331  11.919   7.569  1.2263  3.6415  2.2727
  994MOL0     H37161  10.401  12.065   7.513  2.2182  0.0978  0.4841
  994MOL0     H37162  10.291  12.054   7.288 -0.3054 -0.4599  0.2249
  994MOL0     H37163  10.181  12.038   7.427  0.1591 -1.2233  0.3806
  994MOL0     H37164  10.269  11.803   7.269  1.7948 -0.4122  2.6930
  994MOL0     H37165  10.165  11.811   7.405  3.9618 -3.0338 -1.0189
  994MOL0     H37166  10.019  11.970   7.270  0.5245 -0.0362  1.6510
  994MOL0     H37167  10.001  11.800   7.228 -1.2136  1.0991  2.2732
  994MOL0     H37168  10.213  11.931   6.874  1.0201 -1.2602  0.8821
  994MOL0     H37169  10.376  11.658   7.406 -1.3396 -0.1175  1.2653
  994MOL0     H37170  10.442  11.360   7.627 -0.6162  1.7593  2.3011
  994MOL0     H37171  10.313  11.446   7.547  0.3012  2.3054  0.5151
  994MOL0     H37172  10.445  11.367   7.448 -1.6920  0.6741 -0.5202
  995MOL0     O37173   0.346  10.692   6.924 -0.2012  0.3595 -0.4567
  995MOL0     C37174   0.285  10.611   6.994  0.3208 -0.3000  0.4792
  995MOL0     O37175   0.149  10.624   7.025  0.1872 -0.3413 -1.2302
  995MOL0     C37176   0.093  10.752   7.021 -0.6359  0.3142 -0.1166
  995MOL0     C37177  -0.021  10.764   6.951  0.0340 -0.5330  0.0276
  995MOL0     C37178  -0.084  10.885   6.941  1.4426 -0.4525 -0.8020
  995MOL0     C37179  -0.031  11.002   7.000  0.2483 -0.9205 -0.9075
  995MOL0     O37180  -0.093  11.121   6.984  0.7324  0.6068 -0.3907
  995MOL0     C37181  -0.108  11.190   7.103  0.0020  0.1648 -0.8195
  995MOL0     C37182  -0.226  11.297   7.110 -0.0442  0.1358 -0.2037
  995MOL0     C37183  -0.192  11.450   7.081  0.0025 -0.0268  1.0353
  995MOL0     C37184  -0.308  11.534   7.021  0.0438 -0.0111  0.3945
  995MOL0     C37185  -0.250  11.640   6.928  0.6130 -0.7927 -0.6407
  995MOL0     C37186  -0.170  11.752   7.003 -0.5543 -1.2108  0.4751
  995MOL0     C37187  -0.021  11.719   7.000 -0.0642  0.6069  0.7926
  995MOL0     C37188   0.052  11.860   6.995 -0.3603  0.4135  0.3778
  995MOL0     N37189   0.192  11.848   7.036 -0.3792 -0.7540  0.3873
  995MOL0     C37190   0.301  11.892   6.965 -0.4796  0.3948 -0.3474
  995MOL0     C37191   0.409  11.866   7.046  0.4485 -1.1059  0.0076
  995MOL0     C37192   0.557  11.897   7.032  0.8352 -0.1232 -0.4975
  995MOL0     C37193   0.634  11.956   7.143  0.2375  0.0917  0.2115
  995MOL0     C37194   0.783  11.981   7.104 -0.7528 -0.1374  0.5023
  995MOL0     C37195   0.857  12.034   7.224 -0.3256  0.9519  0.3496
  995MOL0     O37196   1.001  12.023   7.219  0.3429 -0.0275  0.7360
  995MOL0     C37197   1.071  12.117   7.163  0.3554 -0.6159 -0.1459
  995MOL0     C37198   1.194  12.077   7.105  0.2728  0.1963  0.6500
  995MOL0     C37199   1.291  12.160   7.048 -0.7417  0.1484  0.4156
  995MOL0     C37200   1.417  12.096   6.988 -0.9942  1.3656 -1.1793
  995MOL0     C37201   1.267  12.302   7.048  0.4712 -0.8048 -0.9816
  995MOL0     C37202   1.364  12.404   7.000  0.0851  0.0148  0.3405
  995MOL0     O37203   1.323  12.538   7.010  0.0380  0.2133 -0.2473
  995MOL0     C37204   1.398  12.618   6.929 -0.4464  0.1986 -0.7439
  995MOL0     C37205   1.525  12.662   6.981 -0.1829  0.7693  0.3516
  995MOL0     C37206   1.607  12.744   6.899 -0.3126  0.1972  0.0230
  995MOL0     C37207   1.557  12.799   6.783  0.6229  0.2755  0.1149
  995MOL0     O37208   1.625  12.884   6.702 -0.4890 -0.2485 -0.3659
  995MOL0     C37209   1.753  12.930   6.749  0.3962 -0.3637  0.4410
  995MOL0     C37210   1.793  13.037   6.653  0.3817  0.7595  0.1800
  995MOL0     C37211   1.711  13.164   6.644  1.0806  0.5905 -0.4225
  995MOL0     C37212   1.706  13.225   6.509  0.5943 -0.7357  0.0199
  995MOL0     C37213   1.619  13.343   6.474 -0.3950  0.3755 -0.6546
  995MOL0     C37214   1.612  13.470   6.566  0.3908 -0.7827  0.1865
  995MOL0     C37215   1.747  13.530   6.600 -1.1691 -0.1890  0.5614
  995MOL0     C37216   1.749  13.664   6.673 -0.0333 -0.0641 -0.0180
  995MOL0    Cl37217   1.744  13.623   6.848  0.2884 -0.2288  0.6326
  995MOL0     C37218   1.428  12.751   6.731 -0.7499 -0.9367  0.9672
  995MOL0     C37219   1.358  12.655   6.800  1.2325 -0.7591 -0.1193
  995MOL0     O37220   1.460  12.367   6.945 -0.6002  0.0951  0.4690
  995MOL0     C37221   1.145  12.344   7.116 -0.0579 -0.0880  0.3750
  995MOL0     C37222   1.056  12.256   7.177 -0.0002  0.0280  0.0649
  995MOL0     N37223   0.360  11.812   7.163 -0.6537  0.6007  0.4427
  995MOL0     N37224   0.233  11.808   7.157  0.1842 -0.4508 -0.7208
  995MOL0     C37225   0.092  10.990   7.067  0.4179 -0.5072  0.4531
  995MOL0     C37226   0.151  10.866   7.076 -0.6611  0.1920  0.2473
  995MOL0     C37227   0.355  10.489   7.041 -0.5669 -0.1067 -0.1370
  995MOL0     C37228   0.434  10.412   6.947 -0.3713 -0.5988  0.5671
  995MOL0     C37229   0.497  10.299   6.984 -0.7732 -0.0272 -0.6418
  995MOL0     C37230   0.501  10.255   7.114  1.0920 -0.5823  0.2338
  995MOL0     O37231   0.574  10.144   7.153 -0.8487 -0.6600 -0.0370
  995MOL0     C37232   0.703  10.168   7.220 -0.5147 -0.1674 -0.0599
  995MOL0     C37233   0.751  10.053   7.300  0.0259 -0.0986 -0.7117
  995MOL0     C37234   0.644   9.976   7.389 -0.1283 -0.6378  0.7301
  995MOL0     C37235   0.704   9.844   7.437 -0.0517  0.3031  0.3218
  995MOL0     C37236   0.619   9.781   7.540 -0.5809 -0.4298 -0.0668
  995MOL0     C37237   0.588   9.705   7.637  1.0125 -0.2806 -0.0995
  995MOL0     C37238   0.425  10.317   7.202  0.1903  0.8582 -0.0392
  995MOL0     C37239   0.344  10.435   7.174  0.5569  0.0317 -0.2147
  995MOL0     C37240   0.244  10.487   7.276  0.0782  0.5046 -0.5893
  995MOL0     H37241  -0.069  10.673   6.916 -0.1490 -0.4620  0.0928
  995MOL0     H37242  -0.164  10.888   6.868  1.3899 -1.2866 -0.7979
  995MOL0     H37243  -0.013  11.231   7.137  2.0056 -0.6804 -4.8815
  995MOL0     H37244  -0.136  11.128   7.189 -0.9031  3.0980  1.1941
  995MOL0     H37245  -0.304  11.264   7.041  0.7868  1.5336 -1.8982
  995MOL0     H37246  -0.265  11.309   7.211 -1.0662  4.2992 -0.9247
  995MOL0     H37247  -0.151  11.505   7.165 -0.0238  0.6427  0.6157
  995MOL0     H37248  -0.111  11.449   7.007 -1.7466 -1.0345 -1.0046
  995MOL0     H37249  -0.367  11.457   6.971 -0.4719 -1.7306  3.3953
  995MOL0     H37250  -0.358  11.595   7.097  1.4272 -0.0793  1.4023
  995MOL0     H37251  -0.333  11.696   6.884  1.2232  0.2464 -0.4863
  995MOL0     H37252  -0.182  11.596   6.854  2.7919  1.1180  0.1079
  995MOL0     H37253  -0.190  11.845   6.950  1.5741 -0.2162  1.2980
  995MOL0     H37254  -0.207  11.768   7.105 -1.5643  1.5628 -0.2526
  995MOL0     H37255   0.015  11.652   6.921  0.2424 -0.1581  1.5810
  995MOL0     H37256   0.004  11.666   7.092 -1.3897 -2.5414 -0.5241
  995MOL0     H37257   0.034  11.893   6.892 -1.9712  4.5258  1.7643
  995MOL0     H37258   0.003  11.933   7.061 -0.5071  0.7979 -0.1430
  995MOL0     H37259   0.291  11.928   6.863  0.6861 -0.4852 -0.7926
  995MOL0     H37260   0.565  11.971   6.951 -0.4023 -0.6665 -1.1480
  995MOL0     H37261   0.609  11.808   6.996  2.7945 -0.3502  2.5541
  995MOL0     H37262   0.586  12.050   7.170  0.1271 -0.2866  1.3994
  995MOL0     H37263   0.626  11.883   7.224  2.3950 -0.9586 -0.4243
  995MOL0     H37264   0.832  11.886   7.079  0.1539  0.7718 -1.4457
  995MOL0     H37265   0.796  12.049   7.019  1.8264  0.2649  1.1533
  995MOL0     H37266   0.832  12.136   7.256  0.7761  1.4426 -0.2722
  995MOL0     H37267   0.833  11.959   7.300  0.5678 -2.7399 -2.7145
  995MOL0     H37268   1.210  11.970   7.114 -2.7688 -0.6086 -1.6900
  995MOL0     H37269   1.426  12.123   6.882 -0.3126  2.1631 -0.9337
  995MOL0     H37270   1.414  11.987   6.977 -0.9689  1.4829 -2.6392
  995MOL0     H37271   1.508  12.115   7.046 -2.7979 -1.2768  2.9703
  995MOL0     H37272   1.553  12.633   7.081 -1.1659  0.4438  0.5355
  995MOL0     H37273   1.704  12.767   6.943  0.5406  1.7241 -2.4743
  995MOL0     H37274   1.766  12.973   6.848  4.3981  1.2827 -0.6079
  995MOL0     H37275   1.833  12.856   6.736 -0.6304 -1.6700  1.2733
  995MOL0     H37276   1.894  13.066   6.683  0.4270 -0.2559  1.0782
  995MOL0     H37277   1.793  12.993   6.553 -0.3967  3.7455 -1.2648
  995MOL0     H37278   1.745  13.241   6.714  3.8533 -1.6277  0.8435
  995MOL0     H37279   1.609  13.130   6.666  1.5555  0.6442  2.1317
  995MOL0     H37280   1.680  13.149   6.436  0.7764 -0.6260 -0.1616
  995MOL0     H37281   1.809  13.248   6.478  0.9480 -3.7128 -1.2794
  995MOL0     H37282   1.649  13.382   6.376 -3.6833  2.3239 -1.0234
  995MOL0     H37283   1.520  13.297   6.474 -0.5273  0.6542 -0.1556
  995MOL0     H37284   1.567  13.442   6.662  2.3581 -0.8802  1.1254
  995MOL0     H37285   1.551  13.546   6.516  0.6171  0.3875  1.6073
  995MOL0     H37286   1.798  13.530   6.503 -0.0707  0.7576  1.1038
  995MOL0     H37287   1.818  13.463   6.649 -1.6061 -2.0272 -1.2149
  995MOL0     H37288   1.669  13.725   6.630 -0.7584 -1.3987 -0.6338
  995MOL0     H37289   1.846  13.710   6.648  0.4034  0.0317  1.7009
  995MOL0     H37290   1.386  12.780   6.635  1.7924 -1.3469 -0.3781
  995MOL0     H37291   1.263  12.610   6.772 -0.0796  1.7673 -0.0059
  995MOL0     H37292   1.116  12.448   7.104 -1.6144 -0.7883 -3.5446
  995MOL0     H37293   0.977  12.301   7.235  0.7879 -0.8719  1.9229
  995MOL0     H37294   0.144  11.077   7.107  2.5523 -1.3340 -0.3324
  995MOL0     H37295   0.252  10.865   7.114  0.1621  1.3895 -1.7570
  995MOL0     H37296   0.428  10.443   6.843  2.6963  0.4588  0.6209
  995MOL0     H37297   0.551  10.246   6.906  2.0794 -2.0415  2.4414
  995MOL0     H37298   0.777  10.192   7.144 -2.4536 -1.7589 -2.6003
  995MOL0     H37299   0.701  10.254   7.288 -1.2497  0.3174 -0.6813
  995MOL0     H37300   0.820  10.096   7.373  1.1839 -4.3372  1.0234
  995MOL0     H37301   0.803   9.989   7.227 -3.2369 -0.3494 -3.0208
  995MOL0     H37302   0.596  10.042   7.462 -2.2993  1.4065 -2.2942
  995MOL0     H37303   0.564   9.943   7.321  2.0475 -1.6469 -1.4777
  995MOL0     H37304   0.802   9.856   7.484 -0.2556  2.9538  0.2069
  995MOL0     H37305   0.720   9.774   7.355 -0.0427  0.2883  0.3358
  995MOL0     H37306   0.574   9.633   7.715 -2.7914  0.3067 -0.0657
  995MOL0     H37307   0.413  10.294   7.308 -2.9556 -1.1311 -0.6759
  995MOL0     H37308   0.147  10.438   7.267  0.2366 -0.1973  1.0552
  995MOL0     H37309   0.276  10.470   7.379  0.4508  0.6839 -0.6747
  995MOL0     H37310   0.223  10.594   7.268 -2.3586 -0.0296 -2.2304
  996MOL0     O37311   4.003   5.350   3.204  0.3658 -0.1346 -0.6457
  996MOL0     C37312   4.092   5.419   3.153 -0.3254  0.0006 -0.4318
  996MOL0     O37313   4.159   5.518   3.230 -0.4927 -0.9663  0.7456
  996MOL0     C37314   4.118   5.537   3.361  0.9358 -0.4187 -0.1951
  996MOL0     C37315   4.112   5.440   3.468 -0.3903  0.5321 -0.3883
  996MOL0     C37316   4.056   5.468   3.595 -0.1671 -1.0392 -0.4938
  996MOL0     C37317   4.020   5.599   3.622  0.4360 -0.0647 -0.9514
  996MOL0     O37318   3.969   5.649   3.738 -0.6108  0.1458 -0.2015
  996MOL0     C37319   3.901   5.563   3.825 -0.1580  0.2055 -0.2492
  996MOL0     C37320   3.807   5.637   3.914 -0.1139 -0.0114  0.1506
  996MOL0     C37321   3.684   5.557   3.967  0.3903 -0.7910 -0.0972
  996MOL0     C37322   3.583   5.662   4.014 -0.3578  1.4207 -1.2339
  996MOL0     C37323   3.451   5.594   4.072 -0.2284  0.5052 -0.0337
  996MOL0     C37324   3.326   5.671   4.062  0.8353 -0.4145  0.1670
  996MOL0     C37325   3.276   5.717   3.923 -0.3770  0.8760  0.6839
  996MOL0     C37326   3.286   5.602   3.829  0.0460 -1.0614 -0.0747
  996MOL0     N37327   3.168   5.518   3.846  0.7144 -0.9405  0.2108
  996MOL0     C37328   3.163   5.398   3.913  0.4883 -0.6308 -0.1183
  996MOL0     C37329   3.045   5.354   3.888 -0.0360  0.2148  0.9980
  996MOL0     C37330   2.996   5.236   3.960 -0.6431 -0.7473  1.0608
  996MOL0     C37331   2.909   5.270   4.077 -0.1658  0.5964 -0.4600
  996MOL0     C37332   2.822   5.142   4.118  0.8735  0.0781 -0.5040
  996MOL0     C37333   2.889   5.023   4.194 -0.1143  0.1265  0.0788
  996MOL0     O37334   2.788   4.938   4.249 -0.1030 -0.6121  0.2191
  996MOL0     C37335   2.720   4.841   4.179  0.1891  0.3161  0.4634
  996MOL0     C37336   2.588   4.809   4.212 -0.6555  0.0164  0.1984
  996MOL0     C37337   2.510   4.730   4.130 -0.4557  0.2066 -0.7299
  996MOL0     C37338   2.361   4.737   4.171 -0.8780  0.2461 -0.2809
  996MOL0     C37339   2.570   4.666   4.016 -0.1584 -0.3537 -0.9909
  996MOL0     C37340   2.487   4.579   3.921  0.1497 -0.6694  0.0183
  996MOL0     O37341   2.538   4.567   3.803  0.3628 -0.4082 -0.4925
  996MOL0     C37342   2.475   4.507   3.697  0.9092  0.0623  0.1701
  996MOL0     C37343   2.554   4.456   3.590  0.3612 -0.5649 -0.1970
  996MOL0     C37344   2.497   4.366   3.503  0.0145 -0.1121  0.7624
  996MOL0     C37345   2.364   4.352   3.493 -0.3556  0.4744 -0.3476
  996MOL0     O37346   2.325   4.278   3.383  0.0910  0.0443 -0.5025
  996MOL0     C37347   2.184   4.250   3.354  0.2341 -0.1192 -0.7222
  996MOL0     C37348   2.190   4.145   3.241 -0.0884  0.0915 -0.4786
  996MOL0     C37349   2.219   4.205   3.105  0.2360 -0.1723 -0.5740
  996MOL0     C37350   2.183   4.097   2.994 -0.5125 -0.1409 -1.4376
  996MOL0     C37351   2.162   4.153   2.842 -0.3835  0.6050 -0.3325
  996MOL0     C37352   2.272   4.233   2.784 -0.0334 -0.0208  0.5029
  996MOL0     C37353   2.408   4.158   2.808 -0.0144  0.8873  0.1664
  996MOL0     C37354   2.511   4.203   2.703  0.3927  0.3560 -0.5244
  996MOL0    Cl37355   2.509   4.386   2.703 -0.0323  0.3640 -0.2181
  996MOL0     C37356   2.282   4.404   3.587 -0.0197  0.0988  0.4519
  996MOL0     C37357   2.336   4.479   3.685  0.3000  0.6651 -0.2994
  996MOL0     O37358   2.391   4.521   3.966  0.7013  0.6269 -0.4789
  996MOL0     C37359   2.705   4.696   3.987 -0.4096 -0.2098  0.2952
  996MOL0     C37360   2.769   4.785   4.062 -0.6588  0.6499  0.1981
  996MOL0     N37361   2.975   5.439   3.810 -0.1452  0.3943 -0.7383
  996MOL0     N37362   3.049   5.547   3.792 -0.0958  0.3595  0.9336
  996MOL0     C37363   4.058   5.696   3.535  1.2176 -0.1426  0.7072
  996MOL0     C37364   4.095   5.667   3.399 -0.1921  0.6577 -0.4480
  996MOL0     C37365   4.141   5.394   3.010  0.2861 -0.0570  0.3318
  996MOL0     C37366   4.235   5.483   2.955 -0.8718 -0.5188 -0.5668
  996MOL0     C37367   4.299   5.458   2.834 -1.1207  0.9728  0.8539
  996MOL0     C37368   4.248   5.362   2.747 -0.5211  0.3515 -0.1578
  996MOL0     O37369   4.309   5.350   2.620  0.0036  0.4514  0.6340
  996MOL0     C37370   4.236   5.294   2.508 -0.0941 -0.5841  0.7329
  996MOL0     C37371   4.310   5.312   2.369 -0.7693 -0.3004 -0.7970
  996MOL0     C37372   4.236   5.263   2.241 -0.5836 -0.5257 -0.5098
  996MOL0     C37373   4.324   5.258   2.115 -0.7421 -0.0737  0.5309
  996MOL0     C37374   4.389   5.395   2.090 -0.7513 -0.3197 -0.4101
  996MOL0     C37375   4.427   5.514   2.083 -0.7447  1.1460  0.1338
  996MOL0     C37376   4.151   5.276   2.796 -0.5889 -0.9622 -0.0308
  996MOL0     C37377   4.115   5.276   2.929  1.0741 -0.1326  0.3178
  996MOL0     C37378   4.021   5.165   2.981  0.7464 -0.2531 -0.1878
  996MOL0     H37379   4.140   5.338   3.445  3.4044  1.2357  0.4495
  996MOL0     H37380   4.042   5.387   3.666  1.0930 -2.6882 -2.0399
  996MOL0     H37381   3.966   5.507   3.892  0.8059  0.1630 -1.1925
  996MOL0     H37382   3.838   5.494   3.767 -3.2258  2.2961  0.3527
  996MOL0     H37383   3.858   5.687   3.997  0.8224  0.7166 -0.8365
  996MOL0     H37384   3.761   5.710   3.846  0.5914  0.8230  0.5541
  996MOL0     H37385   3.635   5.496   3.890  0.0416 -3.1739  1.9039
  996MOL0     H37386   3.704   5.483   4.045 -2.9710 -1.7347  0.0226
  996MOL0     H37387   3.621   5.717   4.101 -1.0608 -2.6359  1.9525
  996MOL0     H37388   3.557   5.729   3.932 -0.4207  1.5440 -1.1123
  996MOL0     H37389   3.480   5.572   4.176  3.5392  0.0463 -1.0361
  996MOL0     H37390   3.434   5.495   4.029 -2.0816  1.0691 -0.6615
  996MOL0     H37391   3.246   5.614   4.111 -1.4961  1.1547 -1.5535
  996MOL0     H37392   3.340   5.761   4.123 -0.4751  2.0771 -2.8990
  996MOL0     H37393   3.327   5.806   3.884 -0.7997  1.2864  1.0454
  996MOL0     H37394   3.170   5.740   3.942 -0.5982  0.8243 -0.4097
  996MOL0     H37395   3.303   5.643   3.729  0.7346 -1.2985 -0.0610
  996MOL0     H37396   3.384   5.554   3.842  0.2671 -0.4912  0.3962
  996MOL0     H37397   3.241   5.348   3.970 -0.5288 -0.6331  1.3590
  996MOL0     H37398   3.081   5.172   3.985 -1.7291 -2.9346 -0.4941
  996MOL0     H37399   2.948   5.169   3.889  0.1097  1.0366 -1.2429
  996MOL0     H37400   2.968   5.291   4.168 -0.6877 -5.2411  1.6796
  996MOL0     H37401   2.842   5.354   4.060  0.9921  2.1577  2.0524
  996MOL0     H37402   2.738   5.192   4.168  1.8689 -0.4490  1.8352
  996MOL0     H37403   2.770   5.090   4.036  1.0875  0.7857 -1.1004
  996MOL0     H37404   2.950   4.969   4.121 -2.5342 -0.4751 -1.6073
  996MOL0     H37405   2.956   5.056   4.274  0.3381  1.6199 -0.8672
  996MOL0     H37406   2.542   4.857   4.298 -0.5609  1.4869 -0.5334
  996MOL0     H37407   2.340   4.639   4.215  1.7681  0.2304  1.1358
  996MOL0     H37408   2.295   4.747   4.084 -0.8565  0.4482 -0.2726
  996MOL0     H37409   2.340   4.807   4.252  2.5407  1.3962 -0.2569
  996MOL0     H37410   2.662   4.455   3.583  0.9078 -5.2424  3.5130
  996MOL0     H37411   2.562   4.304   3.442 -1.9590 -0.1773 -1.3843
  996MOL0     H37412   2.134   4.206   3.440 -0.5372  1.2936 -0.4140
  996MOL0     H37413   2.128   4.335   3.314 -1.5686 -0.3906  1.1015
  996MOL0     H37414   2.266   4.070   3.263  0.2308  0.8478  1.1443
  996MOL0     H37415   2.092   4.097   3.240 -0.7074  1.3201 -1.1710
  996MOL0     H37416   2.318   4.250   3.109  0.0589  0.1576  3.0377
  996MOL0     H37417   2.150   4.290   3.094  0.4686 -0.0679 -1.2844
  996MOL0     H37418   2.082   4.063   3.017 -0.6955  1.8288  1.0487
  996MOL0     H37419   2.254   4.013   2.991  1.8024  1.6512 -0.5173
  996MOL0     H37420   2.140   4.069   2.776  0.5421 -1.7655  2.1560
  996MOL0     H37421   2.076   4.219   2.851  2.3288  4.3222  0.5622
  996MOL0     H37422   2.273   4.334   2.825 -1.1037 -0.3225  1.3120
  996MOL0     H37423   2.248   4.243   2.678 -1.3248  2.0757  0.9344
  996MOL0     H37424   2.392   4.050   2.814 -1.6007  1.1531  1.3835
  996MOL0     H37425   2.438   4.179   2.911 -0.6230  0.9615  0.3297
  996MOL0     H37426   2.475   4.167   2.606  2.2110  1.6720 -1.7730
  996MOL0     H37427   2.603   4.146   2.722  1.2569  2.1271  0.9730
  996MOL0     H37428   2.174   4.392   3.584  0.1057 -0.9547 -0.5519
  996MOL0     H37429   2.265   4.517   3.757  1.9399 -0.7466  2.2321
  996MOL0     H37430   2.747   4.647   3.900  3.5651  0.1727  1.7869
  996MOL0     H37431   2.871   4.798   4.027  0.3688 -0.2925  2.5957
  996MOL0     H37432   4.049   5.800   3.563  0.6136  0.2678 -0.9192
  996MOL0     H37433   4.123   5.741   3.325  1.4772  0.7513  0.2291
  996MOL0     H37434   4.279   5.559   3.018 -4.8756 -0.4323  2.5581
  996MOL0     H37435   4.377   5.525   2.799 -3.6373  3.6693 -0.0205
  996MOL0     H37436   4.227   5.187   2.523  1.4266 -1.1784 -1.8826
  996MOL0     H37437   4.140   5.345   2.498 -0.0521 -0.5199  0.6586
  996MOL0     H37438   4.403   5.256   2.387 -0.5430  0.6165  1.1776
  996MOL0     H37439   4.323   5.419   2.350 -6.6840  0.8905  0.0689
  996MOL0     H37440   4.184   5.169   2.259 -1.0509  0.2911  3.0022
  996MOL0     H37441   4.156   5.337   2.230  0.2322  0.5128  0.3188
  996MOL0     H37442   4.259   5.222   2.034  0.7579 -0.3047 -0.6371
  996MOL0     H37443   4.412   5.193   2.128 -0.5923  0.2594  1.2057
  996MOL0     H37444   4.471   5.612   2.086  2.0800  0.0284 -1.2204
  996MOL0     H37445   4.124   5.194   2.730 -3.4415  2.2756 -3.3637
  996MOL0     H37446   4.049   5.127   3.080 -0.5163 -0.6487  0.0265
  996MOL0     H37447   3.920   5.206   2.985  2.2973  4.2997 -1.2338
  996MOL0     H37448   4.026   5.079   2.913  5.9205 -1.3305  1.1017
  997MOL0     O37449  11.136   4.812   7.785  0.0344 -0.7740  0.4883
  997MOL0     C37450  11.131   4.718   7.712 -0.4848 -0.5751 -0.6225
  997MOL0     O37451  11.061   4.596   7.736 -0.2018  0.1077  1.4464
  997MOL0     C37452  11.005   4.569   7.856 -0.0651  1.3508  0.0113
  997MOL0     C37453  10.887   4.500   7.853 -0.3280 -0.1808 -0.0782
  997MOL0     C37454  10.821   4.473   7.978 -0.6059 -0.7268  0.0408
  997MOL0     C37455  10.882   4.506   8.099 -0.2438 -0.8731 -0.5399
  997MOL0     O37456  10.815   4.474   8.215  0.3577 -0.2005 -0.2642
  997MOL0     C37457  10.760   4.350   8.226 -0.9172  0.1993 -1.0490
  997MOL0     C37458  10.610   4.345   8.270  0.0489 -0.4796 -0.6753
  997MOL0     C37459  10.567   4.205   8.325  0.9759 -0.2686  0.4593
  997MOL0     C37460  10.578   4.179   8.470  0.3379  0.1068  0.6163
  997MOL0     C37461  10.549   4.044   8.523  0.1306  0.1270 -0.3060
  997MOL0     C37462  10.557   4.032   8.683 -1.2718  0.4455 -0.2046
  997MOL0     C37463  10.457   4.131   8.754  0.3848  0.6893  0.1445
  997MOL0     C37464  10.451   4.100   8.901 -1.0322  0.7773 -0.0536
  997MOL0     N37465  10.397   4.212   8.973  0.1305 -0.9408 -0.0355
  997MOL0     C37466  10.276   4.209   9.037  0.8901 -0.4600  0.1219
  997MOL0     C37467  10.258   4.339   9.073 -0.0824 -0.0969  0.0616
  997MOL0     C37468  10.129   4.387   9.139  0.7962  0.5450 -0.4668
  997MOL0     C37469  10.142   4.468   9.275  0.7869 -0.7505  0.9341
  997MOL0     C37470  10.029   4.569   9.288  0.1660 -1.1598  0.7979
  997MOL0     C37471  10.086   4.712   9.283 -0.7792 -0.4694  0.1054
  997MOL0     O37472  10.150   4.720   9.160 -0.3995  0.5954  0.1008
  997MOL0     C37473  10.163   4.842   9.108 -0.5542  0.2203 -1.1114
  997MOL0     C37474  10.290   4.909   9.116  0.1089 -0.4793  0.1924
  997MOL0     C37475  10.300   5.038   9.064 -0.2045 -0.6094 -0.4805
  997MOL0     C37476  10.440   5.092   9.047 -0.1947 -0.3674 -0.0320
  997MOL0     C37477  10.200   5.096   8.995  0.7346 -0.0233 -0.0391
  997MOL0     C37478  10.208   5.228   8.935  0.6173 -0.2188 -0.4228
  997MOL0     O37479  10.286   5.256   8.833  0.2771  0.1811  0.0024
  997MOL0     C37480  10.281   5.385   8.792  0.4503  0.5917  0.3797
  997MOL0     C37481  10.188   5.421   8.694  0.1594  0.3083 -0.1916
  997MOL0     C37482  10.188   5.549   8.630 -0.6795 -0.0518 -0.2285
  997MOL0     C37483  10.281   5.643   8.657 -1.1308  0.7842  0.1744
  997MOL0     O37484  10.279   5.769   8.617  0.4371 -0.1369 -0.4260
  997MOL0     C37485  10.353   5.869   8.690 -0.2452 -0.1334 -0.6849
  997MOL0     C37486  10.295   6.012   8.661  1.5207 -0.7152  0.3398
  997MOL0     C37487  10.141   6.015   8.686  0.4158  0.4642  0.0317
  997MOL0     C37488  10.063   6.060   8.573  0.2831 -0.2651  1.2320
  997MOL0     C37489   9.910   6.091   8.607 -0.5605 -0.5178  0.2868
  997MOL0     C37490   9.818   6.123   8.486 -0.0137  0.2050 -0.3355
  997MOL0     C37491   9.860   6.231   8.386  0.9849  0.8147 -0.4520
  997MOL0     C37492   9.850   6.385   8.428  0.8648  0.8961  0.4963
  997MOL0    Cl37493   9.875   6.485   8.285 -0.1650 -0.1742  0.0348
  997MOL0     C37494  10.380   5.609   8.750 -0.0033  0.6232  0.5571
  997MOL0     C37495  10.380   5.483   8.818 -0.0790  0.7644  0.7030
  997MOL0     O37496  10.129   5.304   8.978  0.6874  0.4976  0.2774
  997MOL0     C37497  10.073   5.029   8.994  0.7784  0.8809 -0.0604
  997MOL0     C37498  10.057   4.906   9.054 -0.0428 -0.4096  0.3576
  997MOL0     N37499  10.366   4.413   9.038  0.5314  0.3304  0.3061
  997MOL0     N37500  10.452   4.332   8.978  0.0114  0.0815 -0.1391
  997MOL0     C37501  11.008   4.571   8.100 -0.6061  0.1921 -0.2237
  997MOL0     C37502  11.069   4.596   7.980 -0.1307 -0.0151  0.4522
  997MOL0     C37503  11.202   4.733   7.580 -0.4872  0.1944  0.3626
  997MOL0     C37504  11.175   4.632   7.484 -0.8353  0.1875 -0.1417
  997MOL0     C37505  11.225   4.647   7.355  0.7757 -0.0465 -1.1282
  997MOL0     C37506  11.303   4.761   7.321  0.6553  0.5890  0.2975
  997MOL0     O37507  11.349   4.798   7.189  0.0350  0.4255 -0.0960
  997MOL0     C37508  11.308   4.716   7.071  0.2503  0.0429  0.2445
  997MOL0     C37509  11.381   4.763   6.941 -0.2708  0.6361 -0.3307
  997MOL0     C37510  11.362   4.905   6.910 -0.0192 -0.1080 -0.1309
  997MOL0     C37511  11.428   4.948   6.784  0.3472  0.4852 -0.6841
  997MOL0     C37512  11.573   4.925   6.779 -0.3597  0.1447 -0.2329
  997MOL0     C37513  11.694   4.920   6.775  0.0527  0.2588  0.6241
  997MOL0     C37514  11.330   4.860   7.423 -0.2954  0.3508  0.4266
  997MOL0     C37515  11.285   4.844   7.549  0.1587  0.1392  0.9710
  997MOL0     C37516  11.328   4.951   7.653 -0.1893 -0.9904  0.2457
  997MOL0     H37517  10.844   4.478   7.756  1.6657 -1.8799 -0.6479
  997MOL0     H37518  10.723   4.428   7.980  0.3535 -2.9432  1.5401
  997MOL0     H37519  10.812   4.300   8.308  0.8476  1.4233 -1.3622
  997MOL0     H37520  10.772   4.281   8.142  0.9764 -1.3468  0.4180
  997MOL0     H37521  10.586   4.429   8.336  2.9213  2.7407 -3.3562
  997MOL0     H37522  10.551   4.368   8.181 -0.7702  0.0628 -0.0070
  997MOL0     H37523  10.464   4.187   8.291  1.7493 -1.2213 -1.5810
  997MOL0     H37524  10.611   4.115   8.281 -3.0317 -1.3205 -1.9847
  997MOL0     H37525  10.675   4.213   8.507 -0.6486  2.1044  1.4797
  997MOL0     H37526  10.519   4.255   8.522  1.7191  1.9326 -0.3751
  997MOL0     H37527  10.622   3.968   8.492  1.9849  2.4409 -1.9917
  997MOL0     H37528  10.447   4.017   8.497 -1.5798  4.7728  0.6528
  997MOL0     H37529  10.535   3.929   8.711 -3.4886  0.2140 -2.3997
  997MOL0     H37530  10.662   4.057   8.699 -0.9818  0.0724 -1.3671
  997MOL0     H37531  10.359   4.133   8.706  1.0872 -1.3774 -1.5264
  997MOL0     H37532  10.503   4.229   8.741 -0.2689  1.3611  2.4361
  997MOL0     H37533  10.388   4.012   8.916 -1.2890  0.7625 -1.1283
  997MOL0     H37534  10.556   4.083   8.930 -1.0920  2.1517  1.1023
  997MOL0     H37535  10.221   4.115   9.041 -0.0166  0.0978  2.0546
  997MOL0     H37536  10.060   4.304   9.157 -0.6012  1.4705 -1.3163
  997MOL0     H37537  10.077   4.448   9.064 -0.9253  0.2701  0.4446
  997MOL0     H37538  10.154   4.403   9.361  3.5371  1.5697  2.4420
  997MOL0     H37539  10.230   4.531   9.283  0.5512 -0.4005  0.8058
  997MOL0     H37540   9.956   4.545   9.210  1.6827  2.4075 -1.9901
  997MOL0     H37541   9.973   4.575   9.382 -0.6586  1.4337  0.2241
  997MOL0     H37542  10.007   4.788   9.293 -0.0881 -0.0199  3.3850
  997MOL0     H37543  10.158   4.714   9.365 -1.6577 -0.6336  0.9069
  997MOL0     H37544  10.376   4.853   9.150  0.4426 -1.1005 -1.5554
  997MOL0     H37545  10.464   5.101   8.940  2.3705 -0.2327  0.4974
  997MOL0     H37546  10.506   5.032   9.110 -1.3876 -0.6796  0.9515
  997MOL0     H37547  10.456   5.189   9.094 -2.1667 -2.1470  5.0443
  997MOL0     H37548  10.108   5.356   8.658  0.6942 -0.0218 -0.7996
  997MOL0     H37549  10.102   5.573   8.568 -0.2185 -0.5027 -1.0533
  997MOL0     H37550  10.342   5.858   8.798 -1.5958  0.6246 -0.7209
  997MOL0     H37551  10.456   5.868   8.654  0.0670 -2.3071  0.1221
  997MOL0     H37552  10.335   6.085   8.732 -2.6074  2.5527 -0.3175
  997MOL0     H37553  10.317   6.037   8.557 -0.0124 -2.1449 -0.3738
  997MOL0     H37554  10.140   6.081   8.773  4.4647  1.1507 -0.2662
  997MOL0     H37555  10.090   5.922   8.714  0.5378  0.4163  0.0967
  997MOL0     H37556  10.045   5.974   8.508 -3.1796 -1.4515  3.4927
  997MOL0     H37557  10.111   6.144   8.522 -0.3683 -0.0033  1.0445
  997MOL0     H37558   9.878   6.001   8.661  0.6741  0.4143  2.7521
  997MOL0     H37559   9.916   6.184   8.665  0.1359 -1.0828  1.1449
  997MOL0     H37560   9.720   6.148   8.528  0.7090  0.5036  1.2419
  997MOL0     H37561   9.799   6.030   8.432 -1.0289  0.5526 -0.5967
  997MOL0     H37562   9.784   6.222   8.307  1.3931  1.2537 -0.9006
  997MOL0     H37563   9.964   6.229   8.354  1.2428  4.0836 -0.1552
  997MOL0     H37564   9.924   6.395   8.508  4.5273  2.0957 -2.7408
  997MOL0     H37565   9.747   6.410   8.458  1.5440 -0.2973  4.4043
  997MOL0     H37566  10.469   5.663   8.781  0.0324  0.4869  0.6880
  997MOL0     H37567  10.468   5.457   8.876 -1.0788 -2.1844  1.0550
  997MOL0     H37568   9.987   5.070   8.942  0.5043  2.6178  1.6376
  997MOL0     H37569   9.961   4.858   9.070  0.1846 -0.0129  3.5727
  997MOL0     H37570  11.034   4.600   8.202 -0.5174 -0.0459 -0.1793
  997MOL0     H37571  11.169   4.637   7.971  0.1324 -1.0643 -2.7648
  997MOL0     H37572  11.123   4.539   7.506 -0.1170 -0.6898 -1.9293
  997MOL0     H37573  11.207   4.568   7.283 -0.9414  1.9008 -2.9742
  997MOL0     H37574  11.322   4.610   7.093 -0.9989 -0.2736 -0.4022
  997MOL0     H37575  11.203   4.744   7.058  0.2645 -0.7349 -1.8093
  997MOL0     H37576  11.342   4.700   6.861 -0.4359 -0.5367  0.6320
  997MOL0     H37577  11.485   4.734   6.962 -0.2373  0.0571 -1.2596
  997MOL0     H37578  11.253   4.917   6.907 -0.1956  0.0604  3.0820
  997MOL0     H37579  11.413   4.962   6.988  0.7391  0.8830 -1.3106
  997MOL0     H37580  11.425   5.057   6.789  0.3813  0.4710 -0.3385
  997MOL0     H37581  11.384   4.918   6.688  4.0056  0.7646 -2.6225
  997MOL0     H37582  11.800   4.917   6.765 -0.1075 -3.1555 -1.5728
  997MOL0     H37583  11.375   4.955   7.396  1.1673 -0.0286  1.3592
  997MOL0     H37584  11.362   4.896   7.741 -2.5436 -2.4052  0.3521
  997MOL0     H37585  11.409   5.012   7.611 -1.6109  1.0160  0.2781
  997MOL0     H37586  11.238   5.005   7.683  0.1189 -0.9506  1.1429
  998MOL0     O37587   5.465  10.313   8.786 -0.0133  0.6104  0.3012
  998MOL0     C37588   5.492  10.392   8.695 -0.5962  0.8431  0.2423
  998MOL0     O37589   5.536  10.521   8.715  0.0260  0.0255 -0.4759
  998MOL0     C37590   5.529  10.566   8.848 -0.2775  0.4169 -0.2438
  998MOL0     C37591   5.422  10.647   8.901 -0.2434 -0.4927 -0.2619
  998MOL0     C37592   5.427  10.705   9.026 -0.3081 -0.3539 -0.2409
  998MOL0     C37593   5.543  10.676   9.110  0.3837 -0.3014 -0.8219
  998MOL0     O37594   5.530  10.730   9.242 -0.3682  0.7735  0.4703
  998MOL0     C37595   5.630  10.692   9.323  0.0957  0.5905  0.2894
  998MOL0     C37596   5.584  10.709   9.466 -1.0150  0.8875  0.6429
  998MOL0     C37597   5.687  10.658   9.564 -1.2135 -0.3491  0.0155
  998MOL0     C37598   5.650  10.716   9.700 -0.7223  0.0793 -0.2941
  998MOL0     C37599   5.750  10.663   9.814  0.6275  0.3331 -0.1832
  998MOL0     C37600   5.736  10.515   9.854 -0.9083 -0.1833  0.4079
  998MOL0     C37601   5.872  10.451   9.891 -1.0437  0.7242 -0.7037
  998MOL0     C37602   5.840  10.295   9.916  0.0910  0.2127  0.4506
  998MOL0     N37603   5.764  10.260  10.036 -0.4962  0.5179 -0.7635
  998MOL0     C37604   5.634  10.221  10.058  0.4667  0.2030 -1.0003
  998MOL0     C37605   5.606  10.236  10.192 -0.3905  1.2033  0.8879
  998MOL0     C37606   5.476  10.196  10.261 -0.3365  0.4267 -0.3540
  998MOL0     C37607   5.511  10.092  10.375  0.6355  0.6747 -1.4212
  998MOL0     C37608   5.589   9.970  10.335  0.1768 -0.1788 -0.1328
  998MOL0     C37609   5.517   9.868  10.259 -0.9164 -0.5823  0.2106
  998MOL0     O37610   5.408   9.816  10.332 -0.6079  0.5760  0.2720
  998MOL0     C37611   5.340   9.705  10.286  0.5297 -0.1227  0.5627
  998MOL0     C37612   5.320   9.658  10.158 -0.8024 -0.4130 -0.0597
  998MOL0     C37613   5.251   9.545  10.125  0.6994 -0.1297  0.7794
  998MOL0     C37614   5.249   9.506   9.973  1.4140 -0.1104 -0.1042
  998MOL0     C37615   5.181   9.468  10.223  0.7850 -0.3542 -0.0004
  998MOL0     C37616   5.116   9.342  10.191 -0.1826  0.4618 -0.5539
  998MOL0     O37617   5.000   9.326  10.257  0.1591  0.3410  0.6518
  998MOL0     C37618   4.946   9.197  10.273 -0.3545 -0.5705  0.4928
  998MOL0     C37619   4.808   9.178  10.289  0.8521 -0.7886 -0.5152
  998MOL0     C37620   4.752   9.050  10.336  0.0621  0.2203  0.0731
  998MOL0     C37621   4.839   8.947  10.361 -0.9266  0.3377 -0.1235
  998MOL0     O37622   4.776   8.824  10.375 -0.0037 -0.3151  0.1679
  998MOL0     C37623   4.837   8.701  10.393 -0.2275  1.2211 -0.0220
  998MOL0     C37624   4.829   8.657  10.539  0.2664 -0.4094 -0.8086
  998MOL0     C37625   4.866   8.519  10.580 -0.7441 -0.0093  0.0120
  998MOL0     C37626   4.827   8.404  10.483  0.4843 -1.1298  0.1133
  998MOL0     C37627   4.884   8.281  10.538  0.7751  0.5132  0.9266
  998MOL0     C37628   4.857   8.159  10.453  0.0483 -0.0713  0.2563
  998MOL0     C37629   4.713   8.099  10.463  0.3211  1.0110  0.0059
  998MOL0     C37630   4.717   7.952  10.430  0.5395  0.3783  1.2036
  998MOL0    Cl37631   4.735   7.937  10.258  0.1281  0.3197 -0.4173
  998MOL0     C37632   4.981   8.970  10.357  1.0673  0.2034  0.0995
  998MOL0     C37633   5.027   9.095  10.312 -0.8529  0.4456  0.1818
  998MOL0     O37634   5.169   9.261  10.120 -0.6660  0.9150  0.0864
  998MOL0     C37635   5.196   9.517  10.354 -0.1681 -0.6948  0.1300
  998MOL0     C37636   5.273   9.631  10.388 -0.2156  0.0247  0.1027
  998MOL0     N37637   5.714  10.301  10.250  0.1336  0.7185 -0.1304
  998MOL0     N37638   5.809  10.311  10.157 -1.0110  0.7503  0.7074
  998MOL0     C37639   5.653  10.599   9.055  0.8939  0.2038 -0.0583
  998MOL0     C37640   5.639  10.538   8.936 -0.6363 -0.6716  1.7158
  998MOL0     C37641   5.469  10.364   8.546 -0.1167  1.2444 -0.4777
  998MOL0     C37642   5.462  10.464   8.447 -0.8139  0.1824  0.0164
  998MOL0     C37643   5.442  10.433   8.308 -0.1574 -0.0055  0.0892
  998MOL0     C37644   5.438  10.312   8.268 -0.2718  0.1238  0.9420
  998MOL0     O37645   5.439  10.292   8.129 -0.1140  0.0315  0.2940
  998MOL0     C37646   5.442  10.170   8.078 -0.5794  0.3158 -0.6930
  998MOL0     C37647   5.439  10.167   7.931  0.4577 -0.4787  0.1868
  998MOL0     C37648   5.300  10.206   7.872 -0.1624  0.9382 -0.2483
  998MOL0     C37649   5.257  10.114   7.750  0.2345  0.1066  0.7968
  998MOL0     C37650   5.353  10.133   7.639  0.7315  1.4667  0.1652
  998MOL0     C37651   5.447  10.147   7.561  0.4685 -0.5501  0.4790
  998MOL0     C37652   5.451  10.203   8.360  0.1898  0.1573  0.7258
  998MOL0     C37653   5.467  10.225   8.499 -0.7761  0.2049 -0.2844
  998MOL0     C37654   5.504  10.108   8.583 -0.1998 -0.7147  0.3060
  998MOL0     H37655   5.336  10.661   8.835 -0.5301 -1.6205 -0.1515
  998MOL0     H37656   5.343  10.764   9.060 -2.5123 -3.3040 -0.1563
  998MOL0     H37657   5.718  10.753   9.300  1.0860 -1.3810 -1.5546
  998MOL0     H37658   5.649  10.584   9.315 -1.7818  0.1657  0.9018
  998MOL0     H37659   5.554  10.812   9.485 -1.5792  0.7022  0.7674
  998MOL0     H37660   5.500  10.640   9.476  0.3367 -0.9476 -0.0270
  998MOL0     H37661   5.682  10.549   9.565  0.3873 -0.4499  0.0522
  998MOL0     H37662   5.778  10.696   9.517 -0.8313  0.3416  1.2785
  998MOL0     H37663   5.650  10.825   9.699  1.5204  0.1296 -0.4963
  998MOL0     H37664   5.549  10.674   9.708 -0.8135  0.2902 -0.3306
  998MOL0     H37665   5.729  10.730   9.899 -0.7787  3.7798 -2.9927
  998MOL0     H37666   5.850  10.676   9.773 -0.5060 -0.0522 -3.3312
  998MOL0     H37667   5.677  10.491   9.943  0.3333 -0.8938  1.0670
  998MOL0     H37668   5.698  10.452   9.774  0.1297  0.5562 -0.6891
  998MOL0     H37669   5.920  10.511   9.969 -0.1432 -1.3027  0.3700
  998MOL0     H37670   5.942  10.437   9.809  0.5033 -1.7168  0.9048
  998MOL0     H37671   5.779  10.266   9.831  2.0529 -0.7330 -0.7168
  998MOL0     H37672   5.928  10.231   9.907 -0.6240 -0.9834  1.6768
  998MOL0     H37673   5.566  10.172   9.988  0.5738  1.7138 -2.2195
  998MOL0     H37674   5.393  10.162  10.198  0.0257 -1.1536 -0.0125
  998MOL0     H37675   5.440  10.287  10.310 -3.3302  0.0308 -1.5910
  998MOL0     H37676   5.574  10.142  10.449  1.1052  0.5029 -1.7030
  998MOL0     H37677   5.423  10.071  10.437  1.6094 -0.4975 -0.3907
  998MOL0     H37678   5.679   9.997  10.279  2.2737 -0.4276  2.8819
  998MOL0     H37679   5.627   9.925  10.428 -1.6315  0.1117  0.7869
  998MOL0     H37680   5.470   9.918  10.174  1.2545  3.8606  1.3299
  998MOL0     H37681   5.590   9.791  10.228 -0.3675 -0.5174  1.2846
  998MOL0     H37682   5.360   9.717  10.076 -2.5421  1.3132  0.2637
  998MOL0     H37683   5.307   9.418   9.945  2.2985  0.8568 -1.4085
  998MOL0     H37684   5.283   9.593   9.917 -0.0966 -0.0172 -0.9052
  998MOL0     H37685   5.151   9.481   9.931  2.2561  0.8467 -2.8391
  998MOL0     H37686   4.732   9.254  10.278  2.9739  1.4790 -0.4710
  998MOL0     H37687   4.647   9.028  10.351 -0.1791  0.8323 -0.6470
  998MOL0     H37688   4.787   8.632  10.325  0.2515  3.4185 -2.8140
  998MOL0     H37689   4.938   8.696  10.352 -0.3095 -0.0443 -0.1063
  998MOL0     H37690   4.877   8.726  10.609 -4.7043 -2.0076  5.1162
  998MOL0     H37691   4.722   8.668  10.560  0.7320  1.6173  0.7619
  998MOL0     H37692   4.817   8.489  10.673  1.7489 -2.3604  0.6920
  998MOL0     H37693   4.973   8.517  10.602 -1.0638 -1.3680  1.6385
  998MOL0     H37694   4.863   8.424  10.381 -1.0905 -1.7335 -0.5955
  998MOL0     H37695   4.718   8.402  10.480  0.3783  1.1745 -3.3294
  998MOL0     H37696   4.992   8.299  10.541  0.7542  0.7280  0.3865
  998MOL0     H37697   4.851   8.280  10.643 -0.2807  2.7414  0.6900
  998MOL0     H37698   4.929   8.077  10.463 -0.5633 -0.9588 -2.0817
  998MOL0     H37699   4.866   8.188  10.348  1.1452 -3.6046 -0.7591
  998MOL0     H37700   4.641   8.155  10.402 -0.0978  0.8359  0.3307
  998MOL0     H37701   4.683   8.097  10.569 -0.1747  0.0843 -0.1398
  998MOL0     H37702   4.642   7.891  10.482  1.2061  0.0108  1.7421
  998MOL0     H37703   4.813   7.912  10.463  1.3078 -0.0637 -1.3585
  998MOL0     H37704   5.042   8.882  10.377  1.2759 -0.0750 -1.6421
  998MOL0     H37705   5.135   9.098  10.327 -0.7061 -2.9446  0.7859
  998MOL0     H37706   5.137   9.452  10.417 -0.5433 -2.4748 -1.9364
  998MOL0     H37707   5.271   9.669  10.489  2.5039  1.9473 -0.4339
  998MOL0     H37708   5.743  10.561   9.103  0.0326 -2.0895 -0.1194
  998MOL0     H37709   5.724  10.482   8.898 -1.0087  0.0076 -0.1885
  998MOL0     H37710   5.464  10.570   8.468  1.0452  0.0573  0.6989
  998MOL0     H37711   5.436  10.510   8.231  0.6790  0.6569  0.6709
  998MOL0     H37712   5.534  10.120   8.111 -1.9224  0.1003  3.2197
  998MOL0     H37713   5.353  10.118   8.116 -1.3010  1.6501 -0.4922
  998MOL0     H37714   5.459  10.064   7.901 -0.8027  0.0143 -2.7201
  998MOL0     H37715   5.518  10.231   7.892  1.2175 -2.2693 -1.3585
  998MOL0     H37716   5.220  10.200   7.947 -1.1368  3.1507 -1.0124
  998MOL0     H37717   5.287  10.308   7.836 -2.1348  0.7045 -0.3452
  998MOL0     H37718   5.158  10.140   7.713  0.5775  0.4849  0.1381
  998MOL0     H37719   5.257  10.006   7.772 -2.1743 -0.4318 -1.4570
  998MOL0     H37720   5.528  10.155   7.492  3.1819  2.9138  3.6589
  998MOL0     H37721   5.465  10.103   8.322 -1.4364  1.1380 -2.8963
  998MOL0     H37722   5.433  10.102   8.666 -0.8516  2.8678  0.1638
  998MOL0     H37723   5.508  10.017   8.522 -0.1054 -0.2474 -0.4009
  998MOL0     H37724   5.607  10.117   8.617  1.0807  4.0079 -3.6634
  999MOL0     O37725   4.694   7.675   2.516  0.0229 -0.1333  0.2055
  999MOL0     C37726   4.751   7.702   2.621  0.1269 -0.3085  0.4363
  999MOL0     O37727   4.795   7.828   2.657  0.3271 -0.1795  0.3654
  999MOL0     C37728   4.790   7.914   2.543  0.5120  0.0598  0.0375
  999MOL0     C37729   4.688   8.007   2.541  0.1831 -0.7727  0.5561
  999MOL0     C37730   4.670   8.080   2.418 -0.0512  0.2711 -0.1214
  999MOL0     C37731   4.752   8.064   2.309  0.5577  0.1419  0.8760
  999MOL0     O37732   4.730   8.141   2.193  0.3724 -0.1577  0.6377
  999MOL0     C37733   4.829   8.141   2.091  0.1277 -0.5674  0.1564
  999MOL0     C37734   4.782   8.237   1.977  1.0488  1.0262 -1.2103
  999MOL0     C37735   4.789   8.386   2.025 -0.7377 -0.2052  0.0658
  999MOL0     C37736   4.714   8.472   1.931  1.4344 -2.1544  0.0134
  999MOL0     C37737   4.741   8.623   1.959 -0.1860  0.2261  0.1645
  999MOL0     C37738   4.675   8.723   1.863 -0.6788  0.0888 -0.6445
  999MOL0     C37739   4.698   8.862   1.908  0.5308 -0.2319  0.2288
  999MOL0     C37740   4.624   8.974   1.826 -0.7157  0.5241 -0.2501
  999MOL0     N37741   4.639   9.101   1.889 -0.0540 -0.1122  0.0450
  999MOL0     C37742   4.663   9.222   1.813 -0.9336  0.5379  0.3760
  999MOL0     C37743   4.595   9.310   1.884  0.0413 -1.1927 -0.3524
  999MOL0     C37744   4.566   9.445   1.840 -0.2549 -0.7639  0.2388
  999MOL0     C37745   4.695   9.518   1.780  0.7007 -0.2404 -0.8395
  999MOL0     C37746   4.659   9.662   1.732  0.3504 -0.0105  0.1558
  999MOL0     C37747   4.784   9.733   1.671 -0.1982 -0.9769 -0.6481
  999MOL0     O37748   4.814   9.663   1.549 -0.4067  0.1816  0.5504
  999MOL0     C37749   4.936   9.699   1.503  1.3912 -0.0437 -0.0685
  999MOL0     C37750   4.946   9.760   1.374  0.5910 -0.6257  0.8082
  999MOL0     C37751   5.071   9.789   1.325 -0.1039  0.7041  0.2836
  999MOL0     C37752   5.073   9.869   1.201  0.1437  0.5766  0.2498
  999MOL0     C37753   5.190   9.776   1.400 -0.3249 -0.3048 -0.2090
  999MOL0     C37754   5.327   9.814   1.351  0.5674  0.2052  0.4137
  999MOL0     O37755   5.413   9.867   1.455 -0.0597  0.3490 -0.1899
  999MOL0     C37756   5.548   9.873   1.432  0.3805 -0.4800  0.0797
  999MOL0     C37757   5.611  10.000   1.433 -0.2715  0.3655 -0.9631
  999MOL0     C37758   5.745  10.008   1.437 -0.7998  0.3656  0.0587
  999MOL0     C37759   5.823   9.886   1.443  0.5527 -0.0764 -0.6418
  999MOL0     O37760   5.951   9.871   1.485  0.5004  0.0371 -1.3242
  999MOL0     C37761   6.033   9.981   1.534 -0.0270  0.7439 -0.6874
  999MOL0     C37762   5.990  10.060   1.656  0.5339  0.6660  0.1197
  999MOL0     C37763   5.929   9.986   1.780 -0.7517  0.1638  0.8898
  999MOL0     C37764   6.014   9.857   1.821  0.1209 -0.2470  0.4691
  999MOL0     C37765   6.152   9.878   1.877  0.3967 -0.9015 -0.4678
  999MOL0     C37766   6.219   9.742   1.919  0.5967 -1.4146 -0.1541
  999MOL0     C37767   6.337   9.778   2.006  0.4746  0.0300  0.2688
  999MOL0     C37768   6.453   9.841   1.930 -0.3224  0.9606 -0.5255
  999MOL0    Cl37769   6.556   9.937   2.051 -0.2055  0.8188  0.4039
  999MOL0     C37770   5.760   9.765   1.422  0.1054  1.0768 -0.3935
  999MOL0     C37771   5.617   9.757   1.419  0.2525 -0.2472 -0.3902
  999MOL0     O37772   5.367   9.777   1.236  1.4182  0.3036 -0.8940
  999MOL0     C37773   5.180   9.705   1.523  0.2405 -0.5458  0.4570
  999MOL0     C37774   5.055   9.674   1.577  0.5336  0.3034 -0.1581
  999MOL0     N37775   4.542   9.246   2.004  0.2187  0.7386  0.3137
  999MOL0     N37776   4.572   9.125   2.001  0.3468  1.2352 -0.0487
  999MOL0     C37777   4.841   7.962   2.310 -0.4782  0.3887  0.0048
  999MOL0     C37778   4.868   7.893   2.430 -0.1676  0.2213 -0.3206
  999MOL0     C37779   4.785   7.583   2.705  0.3864  0.2273  0.3327
  999MOL0     C37780   4.881   7.612   2.807  1.1238 -0.3364  0.1609
  999MOL0     C37781   4.911   7.520   2.900 -0.3672  1.1500 -0.3835
  999MOL0     C37782   4.874   7.391   2.879 -0.2029 -0.0205  0.3186
  999MOL0     O37783   4.914   7.304   2.977  0.0959 -0.3698  1.2573
  999MOL0     C37784   4.825   7.200   3.017  0.6444  0.5774 -0.1259
  999MOL0     C37785   4.677   7.236   3.040  0.1461 -0.6038  0.9168
  999MOL0     C37786   4.588   7.118   3.033  0.6134  0.7519 -0.2645
  999MOL0     C37787   4.431   7.147   3.042  0.1171 -0.3460  0.7452
  999MOL0     C37788   4.387   7.257   2.950 -0.2845 -0.4674 -0.6037
  999MOL0     C37789   4.372   7.355   2.878  0.1985  0.3990  0.2771
  999MOL0     C37790   4.797   7.347   2.775  1.5339 -0.4992 -0.1573
  999MOL0     C37791   4.740   7.448   2.684 -0.7965 -0.0900  0.1190
  999MOL0     C37792   4.653   7.391   2.570  0.4381  0.1166  0.2217
  999MOL0     H37793   4.641   8.028   2.637 -1.9140 -5.1214  0.7535
  999MOL0     H37794   4.596   8.159   2.429 -0.4776 -0.4976  4.1418
  999MOL0     H37795   4.824   8.037   2.058 -1.7503 -0.3563 -0.3621
  999MOL0     H37796   4.929   8.174   2.118  0.3078 -2.2312  1.7000
  999MOL0     H37797   4.838   8.227   1.884  0.0910  0.7339 -1.7651
  999MOL0     H37798   4.680   8.210   1.951  0.5280  1.0705  0.6603
  999MOL0     H37799   4.743   8.396   2.124 -0.4271  2.5230  0.0065
  999MOL0     H37800   4.894   8.410   2.041 -0.2169 -3.1040  1.6394
  999MOL0     H37801   4.744   8.448   1.828  1.0043  1.3879 -1.0705
  999MOL0     H37802   4.608   8.464   1.957  1.3355  2.2388  1.8868
  999MOL0     H37803   4.848   8.641   1.977  0.2903 -0.8247 -1.3638
  999MOL0     H37804   4.699   8.657   2.053  0.4868  0.3461  0.4320
  999MOL0     H37805   4.710   8.705   1.761 -1.4504  2.2367 -1.3256
  999MOL0     H37806   4.568   8.702   1.867 -0.6568 -0.0591 -0.8139
  999MOL0     H37807   4.804   8.887   1.902  0.0596  2.2674  0.9538
  999MOL0     H37808   4.666   8.863   2.013  0.1282  2.8995  0.1659
  999MOL0     H37809   4.663   8.984   1.724  1.5707 -2.1122  0.2620
  999MOL0     H37810   4.520   8.944   1.818  0.3093 -2.8294 -4.8499
  999MOL0     H37811   4.723   9.240   1.725  0.4714  0.0875  1.2022
  999MOL0     H37812   4.531   9.513   1.918 -1.7161  0.8374 -1.6885
  999MOL0     H37813   4.483   9.439   1.769 -0.1025  1.2632 -0.1732
  999MOL0     H37814   4.761   9.515   1.868 -2.4960 -2.0412  1.7487
  999MOL0     H37815   4.729   9.454   1.699  0.4985 -0.1254 -1.0162
  999MOL0     H37816   4.581   9.663   1.655  0.4317  0.3322  0.0749
  999MOL0     H37817   4.625   9.728   1.813 -0.1175  1.0920 -0.9153
  999MOL0     H37818   4.778   9.840   1.653  2.9689  0.3463  4.2261
  999MOL0     H37819   4.859   9.731   1.751 -2.3245  4.0286  1.8572
  999MOL0     H37820   4.862   9.761   1.305  0.6153  0.0916  0.7830
  999MOL0     H37821   5.128   9.963   1.213  1.7573 -0.0991 -1.4634
  999MOL0     H37822   4.975   9.904   1.168  0.7376  3.0433  0.8278
  999MOL0     H37823   5.109   9.809   1.117  2.0353  3.3953 -1.1182
  999MOL0     H37824   5.559  10.095   1.445 -0.5191  0.0008  1.2663
  999MOL0     H37825   5.789  10.107   1.439 -0.2501  0.2488 -2.5316
  999MOL0     H37826   6.140   9.961   1.549  0.2387  2.0209 -0.7231
  999MOL0     H37827   6.042  10.059   1.458 -1.0239  1.7757  0.2105
  999MOL0     H37828   6.070  10.129   1.683  0.7984 -0.3910  2.2610
  999MOL0     H37829   5.908  10.118   1.613  0.7233  0.1649 -0.9436
  999MOL0     H37830   5.829   9.948   1.757 -1.4030 -0.3701  4.1287
  999MOL0     H37831   5.918  10.056   1.863  0.5969  2.1638 -0.5168
  999MOL0     H37832   6.014   9.792   1.733 -2.5913 -1.4694  1.2637
  999MOL0     H37833   5.951   9.812   1.897  1.7558  1.1612  2.7750
  999MOL0     H37834   6.212   9.928   1.801 -1.0622  1.0367 -0.4222
  999MOL0     H37835   6.151   9.940   1.967  2.3884  2.2036 -2.4114
  999MOL0     H37836   6.240   9.692   1.824  0.1998 -0.1001 -0.9574
  999MOL0     H37837   6.146   9.685   1.976 -1.3927  0.4699 -0.6738
  999MOL0     H37838   6.368   9.683   2.051 -1.3453 -1.5895 -1.6418
  999MOL0     H37839   6.315   9.849   2.086  2.3836 -0.1008  0.9652
  999MOL0     H37840   6.413   9.906   1.852  1.1291  1.1678 -1.1217
  999MOL0     H37841   6.516   9.773   1.872 -1.1957 -2.2272  1.9095
  999MOL0     H37842   5.811   9.671   1.405  0.3677  0.8381  1.5201
  999MOL0     H37843   5.569   9.659   1.419 -1.7090  0.6713  0.4556
  999MOL0     H37844   5.272   9.664   1.562  0.6401 -2.2446 -2.0423
  999MOL0     H37845   5.043   9.629   1.675 -0.2742 -1.1603 -0.8990
  999MOL0     H37846   4.895   7.921   2.225  0.7527 -0.4675  1.1465
  999MOL0     H37847   4.927   7.802   2.438 -2.3962 -1.1651  1.6826
  999MOL0     H37848   4.934   7.704   2.832  1.4000 -0.6548  0.7900
  999MOL0     H37849   4.975   7.546   2.984  0.4220 -2.9296  0.4489
  999MOL0     H37850   4.828   7.118   2.944  2.7454  1.5581 -1.2433
  999MOL0     H37851   4.855   7.171   3.118 -0.1876  0.7797  0.1924
  999MOL0     H37852   4.634   7.308   2.970 -0.0348 -4.1586 -3.0295
  999MOL0     H37853   4.672   7.272   3.144 -0.0244 -0.0045  0.7052
  999MOL0     H37854   4.605   7.058   2.943  3.0631 -0.3052  0.8338
  999MOL0     H37855   4.613   7.048   3.113  1.3374 -2.1152 -2.7698
  999MOL0     H37856   4.417   7.181   3.145  2.7688 -1.1503  1.4439
  999MOL0     H37857   4.374   7.056   3.021 -0.3320 -0.1299  0.9904
  999MOL0     H37858   4.349   7.427   2.802 -1.4784 -1.7604 -1.3917
  999MOL0     H37859   4.781   7.243   2.747  1.0303  0.3978 -3.5705
  999MOL0     H37860   4.718   7.362   2.487  2.8001 -1.9867  2.6152
  999MOL0     H37861   4.603   7.299   2.603 -1.1483  0.4030 -1.2209
  999MOL0     H37862   4.571   7.457   2.539 -0.0764 -1.3316 -1.7460
 1000MOL0     O37863   6.219   1.245   6.656  0.3514 -0.2525 -0.3555
 1000MOL0     C37864   6.128   1.164   6.668 -0.3457  0.6407 -0.0619
 1000MOL0     O37865   6.072   1.097   6.563 -0.1737  0.3296 -0.3695
 1000MOL0     C37866   6.091   1.106   6.425  0.2666  0.0779 -0.2478
 1000MOL0     C37867   6.014   1.035   6.341 -0.0612  1.0626  0.8249
 1000MOL0     C37868   6.008   1.041   6.204 -0.3363  0.0532  1.1591
 1000MOL0     C37869   6.088   1.127   6.134 -0.5469  0.5064 -0.6897
 1000MOL0     O37870   6.054   1.136   6.005  0.3638  0.3033 -0.1700
 1000MOL0     C37871   6.107   1.248   5.933  0.7898  0.3989 -0.0475
 1000MOL0     C37872   6.047   1.242   5.794 -0.6304 -0.0092  0.3241
 1000MOL0     C37873   6.073   1.106   5.718 -0.6382  0.3419 -0.0573
 1000MOL0     C37874   6.111   1.118   5.562  0.4309 -0.1891 -1.2026
 1000MOL0     C37875   6.122   0.979   5.499  0.5087 -0.2340  0.3727
 1000MOL0     C37876   6.142   0.998   5.349  0.3504 -0.1415  0.5390
 1000MOL0     C37877   6.157   0.858   5.292 -0.5146  1.0608  0.0433
 1000MOL0     C37878   6.130   0.858   5.135 -0.1765 -0.3977 -0.2192
 1000MOL0     N37879   6.248   0.918   5.066  0.4111 -0.1288  0.4599
 1000MOL0     C37880   6.238   1.040   5.006 -1.5046 -0.1697  0.5224
 1000MOL0     C37881   6.367   1.077   4.987 -0.2253  0.5804  0.2064
 1000MOL0     C37882   6.410   1.202   4.912 -0.5723  0.1791  0.5223
 1000MOL0     C37883   6.459   1.176   4.765  1.5728  0.4003 -0.4647
 1000MOL0     C37884   6.529   1.285   4.686 -0.6088  0.0220  0.0035
 1000MOL0     C37885   6.454   1.427   4.704 -0.1155  0.0041  0.1874
 1000MOL0     O37886   6.319   1.419   4.660 -0.0053  0.2888 -0.5517
 1000MOL0     C37887   6.297   1.488   4.543  0.3532  0.6341  0.3726
 1000MOL0     C37888   6.240   1.422   4.428 -0.4300 -0.5668 -0.0904
 1000MOL0     C37889   6.216   1.479   4.306 -0.4612  0.4135 -0.3588
 1000MOL0     C37890   6.136   1.382   4.207  0.1676 -0.2285  0.0101
 1000MOL0     C37891   6.259   1.610   4.295 -0.4666 -0.0919 -0.0793
 1000MOL0     C37892   6.253   1.675   4.160  0.9285 -0.0637  0.7748
 1000MOL0     O37893   6.311   1.799   4.154 -0.5715 -0.0897  0.7204
 1000MOL0     C37894   6.360   1.850   4.036  0.9194 -0.1396 -0.0555
 1000MOL0     C37895   6.387   1.989   4.038 -0.8755 -0.2470 -0.3443
 1000MOL0     C37896   6.430   2.046   3.915 -1.1614  0.6658 -0.0240
 1000MOL0     C37897   6.449   1.962   3.806 -0.6480  0.6463 -0.0894
 1000MOL0     O37898   6.485   2.009   3.679 -0.2749  0.6200 -0.1770
 1000MOL0     C37899   6.418   2.129   3.633 -0.7050  0.2632  0.4652
 1000MOL0     C37900   6.434   2.132   3.481  1.4333 -0.5583 -0.2511
 1000MOL0     C37901   6.331   2.213   3.412 -0.1036 -0.0846  0.5929
 1000MOL0     C37902   6.374   2.234   3.268 -0.1557 -0.2755  1.1396
 1000MOL0     C37903   6.334   2.122   3.166 -0.7796  1.2441  0.8747
 1000MOL0     C37904   6.388   2.144   3.024  0.4688 -0.8238  1.0209
 1000MOL0     C37905   6.298   2.238   2.935 -0.0966 -0.7937  0.0159
 1000MOL0     C37906   6.366   2.332   2.841  0.4954  0.5705 -0.3919
 1000MOL0    Cl37907   6.455   2.465   2.919  0.4451 -0.0626  0.0417
 1000MOL0     C37908   6.435   1.829   3.815 -0.7839 -0.4735  0.3048
 1000MOL0     C37909   6.395   1.779   3.927  1.0466  0.4670 -0.4709
 1000MOL0     O37910   6.211   1.611   4.062  0.1045  0.4520  0.5512
 1000MOL0     C37911   6.329   1.678   4.411  0.0561  0.0427  0.6558
 1000MOL0     C37912   6.330   1.620   4.536  0.5781  0.1487 -0.7201
 1000MOL0     N37913   6.450   0.980   5.043  0.4087  0.0210  0.3039
 1000MOL0     N37914   6.376   0.881   5.078 -0.2213 -0.5760 -0.8060
 1000MOL0     C37915   6.186   1.194   6.205 -0.1245 -0.0024 -0.7502
 1000MOL0     C37916   6.190   1.185   6.349 -0.9202 -0.9068  0.2555
 1000MOL0     C37917   6.076   1.127   6.803 -0.6147 -0.0907  0.9790
 1000MOL0     C37918   5.957   1.038   6.807  1.0814 -0.8665 -0.3591
 1000MOL0     C37919   5.895   1.012   6.935  0.6924 -0.6637 -0.2258
 1000MOL0     C37920   5.921   1.070   7.045  1.2051  0.2030  0.2217
 1000MOL0     O37921   5.853   1.041   7.159  0.2892 -0.4933  0.2745
 1000MOL0     C37922   5.903   1.026   7.295 -0.1088  0.1144  0.4763
 1000MOL0     C37923   6.011   0.913   7.302 -0.3593 -0.5339  1.1587
 1000MOL0     C37924   6.094   0.920   7.428  0.2467  0.1423  0.1410
 1000MOL0     C37925   6.205   0.825   7.431  0.2154  0.0094  0.7010
 1000MOL0     C37926   6.275   0.830   7.563 -0.1878  0.0079 -0.6722
 1000MOL0     C37927   6.322   0.846   7.674  0.2935  0.6564 -0.2818
 1000MOL0     C37928   6.018   1.174   7.041  0.4315  0.2307  0.0053
 1000MOL0     C37929   6.103   1.197   6.926  0.0634 -0.2948  0.5215
 1000MOL0     C37930   6.230   1.274   6.953 -0.7921  0.3272  1.0314
 1000MOL0     H37931   5.952   0.954   6.376  1.5875 -1.5860 -1.9625
 1000MOL0     H37932   5.936   0.980   6.150 -0.2363 -0.4158  1.5468
 1000MOL0     H37933   6.216   1.239   5.921  0.6689 -1.1757 -0.2879
 1000MOL0     H37934   6.069   1.342   5.974 -0.3416  1.2815 -2.8926
 1000MOL0     H37935   5.943   1.276   5.797 -1.2254 -1.8059  2.3831
 1000MOL0     H37936   6.086   1.326   5.736 -1.3145 -0.6259 -1.0584
 1000MOL0     H37937   6.160   1.063   5.769 -0.2115  0.5145 -0.6297
 1000MOL0     H37938   5.992   1.034   5.730 -1.2547  1.0269 -0.0695
 1000MOL0     H37939   6.038   1.177   5.506 -2.1807 -0.0605  2.0009
 1000MOL0     H37940   6.203   1.178   5.556 -2.0527  4.0642 -0.9345
 1000MOL0     H37941   6.038   0.911   5.515  0.9129 -0.4504  1.7452
 1000MOL0     H37942   6.204   0.923   5.546  0.9038  1.1770  1.4378
 1000MOL0     H37943   6.053   1.047   5.308  0.0837 -0.3272  0.8877
 1000MOL0     H37944   6.235   1.046   5.317  0.1475 -2.0567 -3.4584
 1000MOL0     H37945   6.077   0.799   5.338  0.5050  0.1506  0.6828
 1000MOL0     H37946   6.248   0.802   5.313 -2.9329 -2.4587  2.3424
 1000MOL0     H37947   6.117   0.754   5.104  2.5035 -0.3492 -1.8951
 1000MOL0     H37948   6.041   0.912   5.101  0.1107 -0.8992 -1.8579
 1000MOL0     H37949   6.150   1.094   4.971 -0.4201  1.8673  0.7617
 1000MOL0     H37950   6.493   1.254   4.961  0.9297 -0.2731 -1.4104
 1000MOL0     H37951   6.329   1.276   4.914 -0.0040  0.8676 -0.9890
 1000MOL0     H37952   6.536   1.100   4.783  0.3599 -0.6799  0.3909
 1000MOL0     H37953   6.373   1.137   4.710  1.1372 -0.4338  0.7389
 1000MOL0     H37954   6.634   1.298   4.715 -1.3338  0.1286  2.8213
 1000MOL0     H37955   6.522   1.261   4.579  0.8567 -0.7573  0.0593
 1000MOL0     H37956   6.460   1.483   4.797  1.3127  2.5621 -1.3504
 1000MOL0     H37957   6.512   1.499   4.646 -1.9758  2.4451  1.1887
 1000MOL0     H37958   6.231   1.314   4.430  2.7537 -0.9881 -1.7586
 1000MOL0     H37959   6.082   1.296   4.248  0.7401 -2.3714 -3.2699
 1000MOL0     H37960   6.211   1.342   4.138  1.3959 -0.8504  1.6284
 1000MOL0     H37961   6.066   1.443   4.151  0.1548  1.8249  2.0947
 1000MOL0     H37962   6.370   2.038   4.133 -1.4382 -2.3733  0.7099
 1000MOL0     H37963   6.452   2.150   3.893  0.8728  0.5518  1.2080
 1000MOL0     H37964   6.310   2.129   3.652 -0.6483  2.1207  1.0377
 1000MOL0     H37965   6.456   2.225   3.668 -2.6879  1.0550  0.6113
 1000MOL0     H37966   6.534   2.175   3.469  0.6041  2.2021  1.5392
 1000MOL0     H37967   6.425   2.029   3.448 -1.4600 -0.0357 -1.3496
 1000MOL0     H37968   6.312   2.312   3.454 -2.3994  0.8554 -2.3030
 1000MOL0     H37969   6.238   2.155   3.407 -0.6117  0.8109 -3.2429
 1000MOL0     H37970   6.481   2.257   3.267 -0.6846  3.6639  4.5348
 1000MOL0     H37971   6.317   2.322   3.239 -1.0591 -0.4079  2.4462
 1000MOL0     H37972   6.391   2.039   3.209 -0.0811  1.3782  0.2287
 1000MOL0     H37973   6.226   2.110   3.156 -0.5843 -1.9756  1.3399
 1000MOL0     H37974   6.393   2.048   2.972 -2.2073 -0.3143 -0.3538
 1000MOL0     H37975   6.490   2.185   3.024  0.5363 -0.9926  1.5765
 1000MOL0     H37976   6.228   2.293   2.998 -0.2558 -1.5319  0.4972
 1000MOL0     H37977   6.241   2.164   2.877 -0.2027 -1.8397  1.4056
 1000MOL0     H37978   6.298   2.378   2.769  0.3453 -2.8981 -2.6789
 1000MOL0     H37979   6.434   2.277   2.776  1.2653  1.1733 -0.1102
 1000MOL0     H37980   6.455   1.773   3.725 -1.0033 -1.4821  0.8640
 1000MOL0     H37981   6.371   1.674   3.928 -2.9123  1.1934  1.0672
 1000MOL0     H37982   6.378   1.774   4.395  1.8498 -1.1283 -1.6022
 1000MOL0     H37983   6.347   1.671   4.631 -1.2036 -2.5064  1.1699
 1000MOL0     H37984   6.269   1.254   6.169  0.1904 -0.8006 -1.3816
 1000MOL0     H37985   6.272   1.224   6.409  2.0665 -4.3431 -1.2489
 1000MOL0     H37986   5.929   0.973   6.725 -1.0423 -0.3473 -0.0851
 1000MOL0     H37987   5.820   0.933   6.940  0.2213 -0.1378  2.0780
 1000MOL0     H37988   5.950   1.122   7.318 -1.7104  1.6116 -2.0444
 1000MOL0     H37989   5.824   1.003   7.367  2.2359  0.5809  3.3712
 1000MOL0     H37990   6.077   0.917   7.215 -2.1384  0.5117 -0.2409
 1000MOL0     H37991   5.955   0.819   7.299 -4.2867  1.5570 -1.2229
 1000MOL0     H37992   6.134   1.021   7.445  0.0625  0.1957  0.2526
 1000MOL0     H37993   6.036   0.884   7.512  0.8036 -0.2583  0.3625
 1000MOL0     H37994   6.270   0.831   7.344  1.3215 -1.8338  1.3312
 1000MOL0     H37995   6.169   0.722   7.425 -0.7809  0.3654  0.2986
 1000MOL0     H37996   6.368   0.863   7.770  1.7571 -0.0912 -0.8160
 1000MOL0     H37997   6.040   1.231   7.130 -0.7343  0.2588  0.2878
 1000MOL0     H37998   6.245   1.284   7.061  1.0239  2.8048  0.6483
 1000MOL0     H37999   6.324   1.242   6.907 -0.3622  2.7881 -0.0082
 1000MOL0     H38000   6.223   1.375   6.911  1.3432 -0.2957 -1.0714
 1001MOL0     O38001   0.983   1.901   2.844  0.4943 -0.1336 -0.7053
 1001MOL0     C38002   1.062   1.812   2.811  0.9068  0.1684  0.3219
 1001MOL0     O38003   1.043   1.675   2.814  0.5465 -0.3319 -0.7091
 1001MOL0     C38004   0.925   1.636   2.882 -0.5505  0.8364 -0.3917
 1001MOL0     C38005   0.831   1.556   2.816  0.0347  0.7392 -0.8500
 1001MOL0     C38006   0.709   1.528   2.879 -0.0838 -1.0511 -0.6000
 1001MOL0     C38007   0.690   1.570   3.018 -0.5498 -0.5579  0.4379
 1001MOL0     O38008   0.580   1.553   3.090  0.0390 -0.0920 -0.0136
 1001MOL0     C38009   0.468   1.462   3.048  0.1100 -0.1682 -0.2998
 1001MOL0     C38010   0.510   1.316   3.038 -0.7708 -0.2454  0.5108
 1001MOL0     C38011   0.423   1.210   3.095 -0.1970 -0.1352 -0.8478
 1001MOL0     C38012   0.427   1.194   3.247 -0.1948  0.8193  0.5467
 1001MOL0     C38013   0.329   1.085   3.297 -0.2054  0.6458  0.3570
 1001MOL0     C38014   0.355   1.059   3.442  0.1616 -0.0354  0.0458
 1001MOL0     C38015   0.270   0.938   3.493  0.3104 -0.3054  0.0141
 1001MOL0     C38016   0.119   0.958   3.463  0.7805 -0.0276  0.1586
 1001MOL0     N38017   0.068   1.074   3.534  0.6358  0.4423  0.3114
 1001MOL0     C38018   0.060   1.195   3.486  0.6468 -0.7291 -0.4952
 1001MOL0     C38019   0.013   1.267   3.596 -0.6668  0.0858 -0.4283
 1001MOL0     C38020  -0.006   1.420   3.600  0.1161  0.0944  0.0993
 1001MOL0     C38021   0.041   1.479   3.735 -0.1430  0.4572  0.1064
 1001MOL0     C38022   0.194   1.521   3.725 -0.2346  0.2415  0.1512
 1001MOL0     C38023   0.283   1.412   3.666 -0.0107  1.0749  0.1345
 1001MOL0     O38024   0.416   1.460   3.681 -0.2096 -0.2241 -0.3721
 1001MOL0     C38025   0.509   1.412   3.602 -0.5776  0.6558  0.0306
 1001MOL0     C38026   0.563   1.284   3.639 -0.4653 -0.6079 -0.6772
 1001MOL0     C38027   0.678   1.225   3.568  0.6668 -0.8161  0.1770
 1001MOL0     C38028   0.734   1.089   3.613 -0.1973 -0.0590  0.0889
 1001MOL0     C38029   0.729   1.312   3.458 -0.3927  0.4179  0.2666
 1001MOL0     C38030   0.849   1.269   3.381  0.7097 -1.0595 -0.3871
 1001MOL0     O38031   0.931   1.363   3.333 -0.1026  0.3535 -0.4467
 1001MOL0     C38032   1.057   1.328   3.295  0.6119 -0.5468 -0.1642
 1001MOL0     C38033   1.106   1.381   3.187 -0.7000  0.1332  0.0208
 1001MOL0     C38034   1.243   1.362   3.143 -0.1436 -0.5914 -0.8387
 1001MOL0     C38035   1.325   1.288   3.236 -0.3142  0.2707 -0.4397
 1001MOL0     O38036   1.463   1.255   3.227  0.6802  0.1956  0.2607
 1001MOL0     C38037   1.504   1.195   3.097  0.5939 -1.3093 -0.7678
 1001MOL0     C38038   1.491   1.044   3.079 -0.0649 -0.4557 -0.2715
 1001MOL0     C38039   1.349   1.001   3.048  0.7957 -0.0530 -0.4658
 1001MOL0     C38040   1.351   0.844   3.048  1.1729 -0.0294 -0.1794
 1001MOL0     C38041   1.238   0.773   2.964  0.6423 -0.1315  0.4891
 1001MOL0     C38042   1.264   0.626   2.935 -0.4293 -0.6634  0.2101
 1001MOL0     C38043   1.183   0.536   3.036 -0.1383 -1.2642 -0.0828
 1001MOL0     C38044   1.218   0.393   3.025 -0.4632  0.2907  0.5755
 1001MOL0    Cl38045   1.211   0.341   2.870  0.6729 -0.0033  0.0801
 1001MOL0     C38046   1.276   1.234   3.354  0.4650  0.0953  0.0076
 1001MOL0     C38047   1.142   1.246   3.383  0.0753 -0.2861 -0.1769
 1001MOL0     O38048   0.843   1.152   3.342  0.5111  0.3538  1.0422
 1001MOL0     C38049   0.668   1.432   3.425  0.4160 -0.4273 -0.2690
 1001MOL0     C38050   0.566   1.484   3.501  1.3429 -0.9825 -0.8029
 1001MOL0     N38051  -0.026   1.184   3.695 -0.2557  0.5114  0.6481
 1001MOL0     N38052   0.003   1.066   3.653  0.0746 -0.1483  0.9111
 1001MOL0     C38053   0.788   1.649   3.075  0.1465 -0.7438  1.4504
 1001MOL0     C38054   0.904   1.685   3.015  0.2196 -0.0056  0.1179
 1001MOL0     C38055   1.201   1.861   2.766 -0.1955  0.5411  0.5334
 1001MOL0     C38056   1.236   1.988   2.806  0.6891 -0.4552  0.3528
 1001MOL0     C38057   1.365   2.025   2.784 -0.3615  0.3157  0.1146
 1001MOL0     C38058   1.462   1.946   2.731  0.4346 -0.0770 -0.2993
 1001MOL0     O38059   1.590   1.995   2.708  0.1755  0.1486  0.0711
 1001MOL0     C38060   1.656   1.939   2.593 -0.0851  0.0144 -1.1773
 1001MOL0     C38061   1.749   2.037   2.529 -0.5851  0.8148 -0.4985
 1001MOL0     C38062   1.695   2.160   2.441  0.2920  0.1465 -0.4282
 1001MOL0     C38063   1.589   2.116   2.346 -0.2715 -1.3384 -0.1154
 1001MOL0     C38064   1.581   2.243   2.262 -0.7196  0.3678 -0.7594
 1001MOL0     C38065   1.579   2.329   2.182  0.2687 -1.2660  0.9864
 1001MOL0     C38066   1.431   1.822   2.683 -0.3245 -0.2408 -1.0702
 1001MOL0     C38067   1.297   1.770   2.704 -0.3172 -0.4341 -0.6513
 1001MOL0     C38068   1.265   1.632   2.653 -0.4249 -0.2633 -1.0244
 1001MOL0     H38069   0.864   1.511   2.723  5.3120  1.3324  0.4065
 1001MOL0     H38070   0.637   1.470   2.822 -2.5834  1.5457 -0.2956
 1001MOL0     H38071   0.427   1.504   2.956  3.9040  1.6839 -1.3613
 1001MOL0     H38072   0.386   1.484   3.118  0.6769  4.0687 -0.6972
 1001MOL0     H38073   0.536   1.290   2.934 -1.5910 -1.1706  0.5170
 1001MOL0     H38074   0.603   1.313   3.095 -0.5972  0.6304  0.2826
 1001MOL0     H38075   0.322   1.242   3.067 -1.1014 -1.6391  0.5288
 1001MOL0     H38076   0.455   1.112   3.060 -1.8055 -0.7302 -0.7366
 1001MOL0     H38077   0.533   1.172   3.262  0.0656  2.5937  1.6225
 1001MOL0     H38078   0.398   1.287   3.297 -0.6753  1.2776 -0.5713
 1001MOL0     H38079   0.338   0.989   3.245  3.1433  1.0635 -0.0718
 1001MOL0     H38080   0.228   1.110   3.266  0.4788 -0.1436 -2.9019
 1001MOL0     H38081   0.447   1.002   3.450  0.3792  0.4128  0.8614
 1001MOL0     H38082   0.351   1.146   3.508 -2.3020 -0.2967  0.3417
 1001MOL0     H38083   0.284   0.927   3.601 -1.4547 -1.5740  0.1663
 1001MOL0     H38084   0.292   0.837   3.457  0.3953 -0.9352  1.7369
 1001MOL0     H38085   0.104   0.969   3.355  1.3416  0.8321  0.1584
 1001MOL0     H38086   0.064   0.869   3.495  0.7070  0.2315  0.7595
 1001MOL0     H38087   0.084   1.234   3.387  1.0461  1.3718  0.3768
 1001MOL0     H38088  -0.114   1.434   3.601 -0.2366 -2.1635 -1.3957
 1001MOL0     H38089   0.041   1.467   3.514  1.5533 -3.6013 -1.3515
 1001MOL0     H38090  -0.018   1.569   3.756 -0.7942  0.1031 -0.1797
 1001MOL0     H38091   0.026   1.402   3.812  2.1203 -3.1197 -2.6939
 1001MOL0     H38092   0.214   1.616   3.675  4.4800  0.1753  1.4910
 1001MOL0     H38093   0.229   1.547   3.825 -0.9941 -0.0816  0.5144
 1001MOL0     H38094   0.267   1.316   3.715 -0.4188 -0.0909 -2.1235
 1001MOL0     H38095   0.270   1.392   3.559  1.0327 -3.1011  0.6058
 1001MOL0     H38096   0.520   1.236   3.727  2.1742  0.5708  1.4145
 1001MOL0     H38097   0.694   1.054   3.708 -1.7087  3.1038  0.7503
 1001MOL0     H38098   0.842   1.103   3.624  0.6683 -4.7086 -0.6609
 1001MOL0     H38099   0.718   1.009   3.540  0.4147  1.7702 -2.1885
 1001MOL0     H38100   1.043   1.436   3.117  2.0053  2.4722 -0.7644
 1001MOL0     H38101   1.269   1.391   3.041 -0.4838  0.5374 -0.6146
 1001MOL0     H38102   1.444   1.239   3.016 -0.8366  0.3222  1.0847
 1001MOL0     H38103   1.609   1.221   3.087  0.2991  0.0430 -0.5485
 1001MOL0     H38104   1.553   1.005   2.997 -0.6659  0.3081 -1.1096
 1001MOL0     H38105   1.541   0.995   3.163  0.5167  1.1464  0.3451
 1001MOL0     H38106   1.339   1.029   2.942  1.7640  0.6899 -0.3756
 1001MOL0     H38107   1.277   1.049   3.115  0.4263  1.0628 -1.6145
 1001MOL0     H38108   1.343   0.801   3.148  1.1305  0.1554 -0.1020
 1001MOL0     H38109   1.446   0.814   3.005  3.0587 -0.9611  4.1238
 1001MOL0     H38110   1.138   0.790   3.006  0.1839  1.6325 -1.1441
 1001MOL0     H38111   1.228   0.824   2.868 -0.7481 -0.6949  0.3016
 1001MOL0     H38112   1.371   0.605   2.942 -0.2516  0.3310  0.6499
 1001MOL0     H38113   1.233   0.603   2.833  2.5427  3.6425 -2.0030
 1001MOL0     H38114   1.076   0.551   3.015  0.2202  2.7909  0.1365
 1001MOL0     H38115   1.213   0.560   3.139  2.3631 -2.0790 -0.5724
 1001MOL0     H38116   1.143   0.338   3.082 -2.0892  1.7080 -0.1104
 1001MOL0     H38117   1.317   0.374   3.067  0.4946  1.3502 -1.0959
 1001MOL0     H38118   1.337   1.172   3.418 -1.0900 -2.0570 -0.4841
 1001MOL0     H38119   1.101   1.204   3.474 -0.4033  0.4924 -0.0244
 1001MOL0     H38120   0.725   1.490   3.354  2.6411  0.6354  2.2189
 1001MOL0     H38121   0.527   1.582   3.475  5.9397  0.3830 -3.9399
 1001MOL0     H38122   0.755   1.691   3.170 -4.3011 -1.1023  0.2813
 1001MOL0     H38123   0.983   1.735   3.070 -0.4213 -1.6976  2.7583
 1001MOL0     H38124   1.166   2.063   2.841  1.1833  1.2541 -2.0901
 1001MOL0     H38125   1.394   2.126   2.810 -0.1519  0.3689 -0.3149
 1001MOL0     H38126   1.703   1.848   2.631  0.8729  2.2988  3.9025
 1001MOL0     H38127   1.581   1.922   2.515  0.2275  1.1330 -1.7434
 1001MOL0     H38128   1.828   1.981   2.480 -1.5751 -3.1017  1.9175
 1001MOL0     H38129   1.793   2.093   2.613 -0.2396 -2.7238  1.8722
 1001MOL0     H38130   1.650   2.234   2.507 -1.2243  0.4096 -1.7116
 1001MOL0     H38131   1.791   2.193   2.399  1.6726 -1.9089  0.8877
 1001MOL0     H38132   1.495   2.102   2.400  0.2123 -1.1124  0.8037
 1001MOL0     H38133   1.618   2.032   2.283  1.5019 -0.3963 -0.6442
 1001MOL0     H38134   1.573   2.415   2.119  0.1099  0.1267  2.7967
 1001MOL0     H38135   1.509   1.755   2.648 -1.1885 -1.7036 -0.3140
 1001MOL0     H38136   1.349   1.597   2.591 -0.6411  0.2053 -1.5899
 1001MOL0     H38137   1.241   1.568   2.738 -3.4228 -1.0989 -2.3869
 1001MOL0     H38138   1.181   1.630   2.583 -0.3124  1.5240 -1.2483
 1002MOL0     O38139   8.585   0.507   4.377 -0.3855  0.5422 -1.2998
 1002MOL0     C38140   8.712   0.518   4.394  0.7135 -0.4650 -1.0617
 1002MOL0     O38141   8.794   0.613   4.323  0.1986  0.3080 -0.5003
 1002MOL0     C38142   8.739   0.698   4.229  0.6620  0.0117  0.5094
 1002MOL0     C38143   8.786   0.825   4.231  0.2042 -0.2193 -0.6720
 1002MOL0     C38144   8.745   0.917   4.133 -0.4043 -0.6463 -0.1985
 1002MOL0     C38145   8.664   0.868   4.024  0.7709 -0.1609  0.6350
 1002MOL0     O38146   8.608   0.955   3.934  0.5925 -0.3588  0.4175
 1002MOL0     C38147   8.638   1.093   3.955 -0.2941 -1.0668 -0.3237
 1002MOL0     C38148   8.563   1.189   3.867 -0.1752  0.1877  0.0350
 1002MOL0     C38149   8.545   1.142   3.723 -0.6578  0.3693  0.7115
 1002MOL0     C38150   8.445   1.239   3.649 -0.4074  0.0486 -0.2451
 1002MOL0     C38151   8.504   1.235   3.509 -0.6092  0.1951 -0.1376
 1002MOL0     C38152   8.419   1.329   3.425 -0.1329 -0.2483  1.2832
 1002MOL0     C38153   8.474   1.339   3.284 -0.4455 -0.5141  0.6855
 1002MOL0     C38154   8.374   1.409   3.195  0.3965  0.8887 -1.1887
 1002MOL0     N38155   8.403   1.551   3.197  0.7971 -0.3961 -1.0083
 1002MOL0     C38156   8.494   1.621   3.123  0.4243  0.7384  0.8434
 1002MOL0     C38157   8.463   1.751   3.136 -1.3258 -0.4790 -0.3512
 1002MOL0     C38158   8.532   1.866   3.055 -0.0672  0.2720  0.1888
 1002MOL0     C38159   8.571   1.991   3.140  0.6836 -0.5436 -0.5877
 1002MOL0     C38160   8.650   1.971   3.275 -0.2044 -0.2120  0.1360
 1002MOL0     C38161   8.714   2.105   3.288 -0.2611 -0.1288 -0.0433
 1002MOL0     O38162   8.857   2.091   3.251 -0.2188 -0.7785  0.0843
 1002MOL0     C38163   8.964   2.098   3.337  0.5882  0.1649 -0.2655
 1002MOL0     C38164   9.088   2.068   3.284 -0.0022  0.2065  0.4842
 1002MOL0     C38165   9.207   2.061   3.357 -0.2131 -0.9430  0.5061
 1002MOL0     C38166   9.331   2.029   3.274 -0.4106  0.1290  0.5286
 1002MOL0     C38167   9.196   2.075   3.499  0.4454 -0.1922  0.4455
 1002MOL0     C38168   9.305   2.072   3.593  0.7608  0.0575 -0.2996
 1002MOL0     O38169   9.402   1.983   3.561  0.3779  0.2827 -0.6614
 1002MOL0     C38170   9.527   1.994   3.613 -0.1886  0.5956 -0.7430
 1002MOL0     C38171   9.622   2.065   3.548  0.2807  0.1360  0.8556
 1002MOL0     C38172   9.756   2.051   3.597  0.0626 -0.4971  0.0371
 1002MOL0     C38173   9.786   1.968   3.704 -0.4283 -0.7555 -0.2089
 1002MOL0     O38174   9.917   1.944   3.729 -0.1981  0.0833  0.1339
 1002MOL0     C38175   9.956   2.002   3.862  0.5471  0.2925 -0.3383
 1002MOL0     C38176   9.923   1.905   3.977  0.2068  1.1935 -0.0357
 1002MOL0     C38177  10.020   1.775   3.982  0.1547  0.2256 -0.3645
 1002MOL0     C38178   9.988   1.688   4.103 -1.0364  0.1093  0.7880
 1002MOL0     C38179  10.041   1.548   4.068  0.0870 -0.3466 -1.0206
 1002MOL0     C38180   9.992   1.439   4.171  0.0024  0.2585 -0.0132
 1002MOL0     C38181   9.855   1.375   4.134 -0.6413  0.5038 -0.3328
 1002MOL0     C38182   9.842   1.237   4.203  0.3741  0.8396  0.8041
 1002MOL0    Cl38183   9.902   1.099   4.097 -0.0555  0.0258  0.5529
 1002MOL0     C38184   9.677   1.883   3.756 -0.7489 -0.6767  0.0023
 1002MOL0     C38185   9.552   1.897   3.711  0.3430  0.0882  0.3624
 1002MOL0     O38186   9.303   2.134   3.701 -0.5159 -0.2862 -0.3464
 1002MOL0     C38187   9.074   2.105   3.564 -0.3077 -0.4750 -0.3140
 1002MOL0     C38188   8.960   2.123   3.479 -0.0541  0.2119 -0.3750
 1002MOL0     N38189   8.359   1.762   3.232  0.4250 -0.0964 -0.5129
 1002MOL0     N38190   8.336   1.642   3.268 -0.2654 -0.7568  0.1855
 1002MOL0     C38191   8.616   0.732   4.023 -0.2382 -0.7183 -0.7036
 1002MOL0     C38192   8.665   0.652   4.127  0.2752 -0.3325  0.4250
 1002MOL0     C38193   8.774   0.451   4.515  0.6295 -0.1127  0.6165
 1002MOL0     C38194   8.859   0.522   4.594 -0.1991  0.3934  0.3439
 1002MOL0     C38195   8.900   0.476   4.720  0.6311  0.7549  0.1128
 1002MOL0     C38196   8.881   0.335   4.744 -0.7084 -0.3861  0.0310
 1002MOL0     O38197   8.937   0.271   4.852  0.2496 -0.2215  0.4220
 1002MOL0     C38198   8.908   0.140   4.886 -0.3849  0.3151  0.9031
 1002MOL0     C38199   8.960   0.127   5.035  0.4751  0.5509  0.0283
 1002MOL0     C38200   8.851   0.144   5.138  0.7111 -0.3548  0.0389
 1002MOL0     C38201   8.935   0.133   5.275  0.7420  0.2596 -0.3005
 1002MOL0     C38202   8.851   0.143   5.393  1.1255  0.6483 -1.3047
 1002MOL0     C38203   8.776   0.145   5.491 -0.0607  0.7510 -0.6634
 1002MOL0     C38204   8.793   0.264   4.667 -0.2908 -0.0662  0.6858
 1002MOL0     C38205   8.740   0.320   4.548  0.5686  0.5750 -0.5666
 1002MOL0     C38206   8.638   0.234   4.476  0.2280  0.3013  0.3108
 1002MOL0     H38207   8.858   0.859   4.305 -0.8946 -1.8526  1.2554
 1002MOL0     H38208   8.792   1.015   4.133 -0.3123 -0.6861  0.3050
 1002MOL0     H38209   8.744   1.107   3.932 -0.2672  0.4030  0.5579
 1002MOL0     H38210   8.615   1.119   4.059 -0.7522 -3.1254  0.1354
 1002MOL0     H38211   8.459   1.180   3.899 -0.0623  0.7684  0.5875
 1002MOL0     H38212   8.608   1.289   3.867 -1.2288  0.6851  1.4036
 1002MOL0     H38213   8.644   1.150   3.678 -1.9711  1.5480 -2.2189
 1002MOL0     H38214   8.519   1.037   3.708 -1.5775  0.6201  0.5072
 1002MOL0     H38215   8.343   1.200   3.651 -1.6248  3.0304  1.1822
 1002MOL0     H38216   8.451   1.346   3.669  0.8988  0.2485 -1.5748
 1002MOL0     H38217   8.505   1.132   3.473  1.9455 -1.5644  4.1677
 1002MOL0     H38218   8.610   1.262   3.518  1.0568 -5.4805  0.9895
 1002MOL0     H38219   8.319   1.286   3.417 -0.7772  1.1415  1.5319
 1002MOL0     H38220   8.422   1.432   3.462 -0.6737  0.4249 -0.4298
 1002MOL0     H38221   8.486   1.240   3.238 -3.9880 -2.0043  2.4911
 1002MOL0     H38222   8.565   1.396   3.304 -0.8955  0.0391  1.1770
 1002MOL0     H38223   8.374   1.368   3.094  0.6702 -2.7378  0.1435
 1002MOL0     H38224   8.274   1.386   3.232  1.0098  0.0013 -0.0196
 1002MOL0     H38225   8.568   1.583   3.053  2.2772  2.3172  1.8283
 1002MOL0     H38226   8.465   1.897   2.975  0.0996 -3.6491 -1.6867
 1002MOL0     H38227   8.621   1.824   3.007  0.6627 -5.0783  5.0788
 1002MOL0     H38228   8.620   2.051   3.063  1.8446 -1.2977 -0.4615
 1002MOL0     H38229   8.477   2.044   3.158  2.0100  2.1587 -1.0572
 1002MOL0     H38230   8.586   1.939   3.358  0.4954  0.1349  0.8192
 1002MOL0     H38231   8.729   1.896   3.259 -1.1847 -1.4210  0.8142
 1002MOL0     H38232   8.647   2.182   3.249 -2.3030 -0.7247  2.0347
 1002MOL0     H38233   8.715   2.128   3.395  0.1302 -1.0815  0.1731
 1002MOL0     H38234   9.081   2.075   3.176 -2.1359  1.7527  0.6555
 1002MOL0     H38235   9.313   2.003   3.169 -3.0286 -2.0465  1.3948
 1002MOL0     H38236   9.380   1.942   3.318 -0.2825 -0.3181 -0.4830
 1002MOL0     H38237   9.395   2.118   3.267 -2.2373  1.3837 -1.7362
 1002MOL0     H38238   9.594   2.130   3.465  1.9820  1.0410  0.9535
 1002MOL0     H38239   9.837   2.099   3.542  1.3133 -4.1222 -1.6259
 1002MOL0     H38240  10.062   2.025   3.856  0.5591 -0.1414 -2.4030
 1002MOL0     H38241   9.898   2.093   3.882  2.6506  2.2374 -2.4787
 1002MOL0     H38242   9.941   1.955   4.073 -2.6856  1.1059  0.6526
 1002MOL0     H38243   9.819   1.870   3.985  0.9890 -1.3357 -0.2707
 1002MOL0     H38244  10.127   1.798   3.978  0.3494 -0.8577 -2.4349
 1002MOL0     H38245   9.997   1.727   3.887  1.4995 -0.4008 -0.3941
 1002MOL0     H38246   9.880   1.686   4.123 -1.4670  0.6492 -1.2042
 1002MOL0     H38247  10.031   1.742   4.187 -2.5472  0.4019  1.4095
 1002MOL0     H38248  10.010   1.527   3.965 -3.1529  1.5280 -0.5514
 1002MOL0     H38249  10.151   1.548   4.073  0.0651 -2.5828  0.7301
 1002MOL0     H38250   9.995   1.486   4.270  2.0559  1.5337 -0.6061
 1002MOL0     H38251  10.060   1.353   4.172  0.0369  0.2750 -0.6336
 1002MOL0     H38252   9.855   1.344   4.029  1.2948 -1.1554  0.0777
 1002MOL0     H38253   9.783   1.453   4.160  1.5278  2.5517 -0.0678
 1002MOL0     H38254   9.735   1.229   4.223  0.3412  0.0228  0.3460
 1002MOL0     H38255   9.908   1.244   4.290  2.0400  0.0239 -0.3293
 1002MOL0     H38256   9.702   1.793   3.811  1.4411  0.1887  0.5483
 1002MOL0     H38257   9.470   1.832   3.737 -0.1069  1.1168  1.6597
 1002MOL0     H38258   9.067   2.125   3.670 -1.6872  3.2686 -0.9279
 1002MOL0     H38259   8.867   2.143   3.532 -0.1917 -1.4572  0.0838
 1002MOL0     H38260   8.567   0.698   3.932  2.0307 -0.6090 -2.0473
 1002MOL0     H38261   8.624   0.552   4.123 -0.8608  0.0799  1.1427
 1002MOL0     H38262   8.900   0.614   4.556  2.2329 -0.0561  1.6858
 1002MOL0     H38263   8.960   0.533   4.790  2.1781  0.8364 -1.2138
 1002MOL0     H38264   8.805   0.107   4.869  0.4513 -1.7945 -0.5843
 1002MOL0     H38265   8.960   0.077   4.813 -0.6817  1.3395 -0.2222
 1002MOL0     H38266   9.038   0.198   5.060  2.6185 -2.4434  2.6345
 1002MOL0     H38267   9.001   0.027   5.055 -0.2464  0.1749 -0.3100
 1002MOL0     H38268   8.815   0.247   5.140  2.4672  0.3665  3.9677
 1002MOL0     H38269   8.770   0.073   5.119 -1.1544  2.0729 -1.6370
 1002MOL0     H38270   9.006   0.216   5.273  0.2424  0.6827 -1.6504
 1002MOL0     H38271   8.991   0.039   5.275 -4.1699 -3.0857 -0.5870
 1002MOL0     H38272   8.710   0.140   5.575  1.5815 -4.0641  0.7187
 1002MOL0     H38273   8.764   0.161   4.685  2.3938 -1.4651 -2.0667
 1002MOL0     H38274   8.545   0.248   4.533  1.6846 -0.1287  2.9544
 1002MOL0     H38275   8.613   0.260   4.373  0.7371  1.1055  0.3822
 1002MOL0     H38276   8.649   0.125   4.481 -0.4592  0.1109 -1.4843
 1003MOL0     O38277  11.453  10.738  10.157 -0.8108  0.5878 -0.1317
 1003MOL0     C38278  11.381  10.714  10.255 -0.0648 -1.2647  0.1278
 1003MOL0     O38279  11.346  10.809  10.349 -0.1971 -0.2706  0.1355
 1003MOL0     C38280  11.425  10.915  10.370 -0.3750 -0.7597 -0.5197
 1003MOL0     C38281  11.564  10.897  10.409 -0.2612  0.0493  0.3455
 1003MOL0     C38282  11.655  11.003  10.420 -0.2204  0.0677 -0.5621
 1003MOL0     C38283  11.610  11.132  10.405  0.2644 -0.0318  0.5471
 1003MOL0     O38284  11.698  11.236  10.418  0.0238  0.2144  0.7946
 1003MOL0     C38285  11.662  11.324  10.533  0.3514  0.3204  0.3356
 1003MOL0     C38286  11.781  11.423  10.573  1.1478  0.7573 -0.2940
 1003MOL0     C38287  11.899  11.350  10.644 -0.0373 -0.2417 -0.1559
 1003MOL0     C38288  11.905  11.390  10.795  0.5332 -0.0845  0.3794
 1003MOL0     C38289  12.046  11.385  10.856 -0.3832  0.6598 -0.3100
 1003MOL0     C38290  12.101  11.531  10.843 -0.8191  1.0754  0.0867
 1003MOL0     C38291  12.025  11.610  10.954  0.1837 -0.2679  0.4645
 1003MOL0     C38292  12.066  11.753  10.947  1.2152  0.6211  0.4962
 1003MOL0     N38293  12.000  11.831  11.042  0.2250 -0.3060 -0.4690
 1003MOL0     C38294  11.867  11.851  11.062 -0.5593 -0.9636 -0.2232
 1003MOL0     C38295  11.863  11.933  11.167  1.5371  0.0935 -0.5385
 1003MOL0     C38296  11.739  11.976  11.235  0.1122 -0.5065 -1.0077
 1003MOL0     C38297  11.706  12.108  11.171  0.4856 -0.3294 -0.0712
 1003MOL0     C38298  11.816  12.211  11.197 -0.8823 -0.3036 -0.5735
 1003MOL0     C38299  11.763  12.347  11.146 -0.0990  0.1098  0.4416
 1003MOL0     O38300  11.624  12.377  11.180 -0.1652 -0.1391 -0.1189
 1003MOL0     C38301  11.543  12.448  11.097 -0.3129  0.0626  1.7036
 1003MOL0     C38302  11.405  12.431  11.087  0.5908  1.0103 -0.8213
 1003MOL0     C38303  11.321  12.481  10.990 -1.0877  0.3523  0.3353
 1003MOL0     C38304  11.179  12.425  10.996  0.3785  0.2427 -0.4086
 1003MOL0     C38305  11.376  12.583  10.901  0.2745  0.4212 -0.0668
 1003MOL0     C38306  11.289  12.668  10.815 -0.4867  0.3802 -0.2870
 1003MOL0     O38307  11.355  12.695  10.690 -0.0042  0.4726 -0.3514
 1003MOL0     C38308  11.269  12.723  10.576  0.5054 -0.1559 -0.2070
 1003MOL0     C38309  11.270  12.846  10.515  0.6336 -0.5887  0.3865
 1003MOL0     C38310  11.170  12.888  10.423 -0.4012 -0.4048 -0.2755
 1003MOL0     C38311  11.091  12.795  10.368  0.1818  0.5057  0.3561
 1003MOL0     O38312  11.035  12.819  10.244 -0.5918 -0.0288 -0.6712
 1003MOL0     C38313  11.130  12.789  10.134 -1.1911 -0.3991 -0.0227
 1003MOL0     C38314  11.067  12.809   9.988  0.2267 -0.2867  0.2558
 1003MOL0     C38315  10.958  12.703   9.955 -0.2545  0.7717 -0.1993
 1003MOL0     C38316  10.995  12.552   9.977 -0.2057 -0.4384  0.0989
 1003MOL0     C38317  10.891  12.455   9.910  0.7566  0.0019  0.3684
 1003MOL0     C38318  10.891  12.460   9.758 -0.7091  0.7111  0.0142
 1003MOL0     C38319  10.752  12.444   9.705  0.3813 -0.2892  0.3966
 1003MOL0     C38320  10.734  12.429   9.558 -0.2587  0.2479  0.1481
 1003MOL0    Cl38321  10.818  12.559   9.472 -0.5530 -0.2054  0.4558
 1003MOL0     C38322  11.101  12.664  10.418  0.4784 -0.4187 -0.4317
 1003MOL0     C38323  11.188  12.623  10.527 -0.8743 -0.1871  0.2702
 1003MOL0     O38324  11.174  12.685  10.848  0.0839  0.1834  0.0984
 1003MOL0     C38325  11.514  12.616  10.911  0.3018  0.7628 -0.2510
 1003MOL0     C38326  11.601  12.543  11.005  0.1466  0.4020 -0.3509
 1003MOL0     N38327  11.994  11.969  11.207  0.3136  0.8829 -0.2743
 1003MOL0     N38328  12.076  11.889  11.143  0.1941 -0.0635  0.3979
 1003MOL0     C38329  11.471  11.153  10.390 -0.2688 -0.1568  0.8127
 1003MOL0     C38330  11.381  11.044  10.375  0.1525  0.0062 -0.4476
 1003MOL0     C38331  11.317  10.574  10.263 -0.6569 -0.4657 -0.4866
 1003MOL0     C38332  11.324  10.486  10.151 -0.6079  0.9677  1.2519
 1003MOL0     C38333  11.294  10.350  10.151  0.5252 -0.7313 -0.1377
 1003MOL0     C38334  11.265  10.291  10.281  0.1263  0.8923 -0.1287
 1003MOL0     O38335  11.240  10.156  10.312 -0.0845 -0.5830  0.3967
 1003MOL0     C38336  11.207  10.071  10.200 -0.8384  0.8605  0.4086
 1003MOL0     C38337  11.214   9.929  10.253  0.1748 -1.3324  0.0087
 1003MOL0     C38338  11.095   9.877  10.343 -0.2424 -0.6197 -0.3660
 1003MOL0     C38339  11.071   9.726  10.322 -0.3184  1.0190 -0.3889
 1003MOL0     C38340  11.191   9.641  10.354  0.3035  0.1952 -0.3849
 1003MOL0     C38341  11.293   9.575  10.386 -0.3133  0.0885 -0.6034
 1003MOL0     C38342  11.266  10.373  10.393 -0.1880  0.4326 -0.2608
 1003MOL0     C38343  11.288  10.519  10.386 -0.6250 -0.8374  0.4950
 1003MOL0     C38344  11.270  10.597  10.508  0.0868  0.5687  1.1384
 1003MOL0     H38345  11.609  10.799  10.411 -1.6121 -0.7031 -1.9785
 1003MOL0     H38346  11.757  10.971  10.440 -0.8668  0.0685  3.8917
 1003MOL0     H38347  11.613  11.270  10.614  0.1363 -1.6112 -1.0099
 1003MOL0     H38348  11.580  11.384  10.493 -0.8478 -2.2459 -1.3207
 1003MOL0     H38349  11.824  11.456  10.478  1.5771  0.0203 -0.3663
 1003MOL0     H38350  11.746  11.508  10.631  0.4498  0.0450  0.3560
 1003MOL0     H38351  11.901  11.241  10.637  3.0160 -0.1816 -1.6095
 1003MOL0     H38352  11.988  11.392  10.598 -1.0104  0.8158 -1.1576
 1003MOL0     H38353  11.840  11.476  10.811 -1.0354 -1.0092 -0.7779
 1003MOL0     H38354  11.847  11.317  10.852  1.1058 -0.1342  0.9118
 1003MOL0     H38355  12.105  11.314  10.798 -0.1267 -1.5534  2.3940
 1003MOL0     H38356  12.047  11.355  10.962 -0.0566  0.5655 -0.3399
 1003MOL0     H38357  12.209  11.528  10.860 -0.6633 -0.4113 -0.9449
 1003MOL0     H38358  12.098  11.576  10.744  3.3460  2.8172  0.5576
 1003MOL0     H38359  12.046  11.567  11.052 -2.7406  0.5225  1.5313
 1003MOL0     H38360  11.917  11.600  10.939  0.5381 -2.3868 -1.1981
 1003MOL0     H38361  12.172  11.759  10.976  1.1177  1.3818  0.7236
 1003MOL0     H38362  12.064  11.787  10.843  1.1711  2.1528  0.9599
 1003MOL0     H38363  11.783  11.799  11.018 -0.8982 -1.5077  1.0243
 1003MOL0     H38364  11.748  11.974  11.344 -1.3558 -0.5980 -0.8609
 1003MOL0     H38365  11.655  11.907  11.218  2.1215 -3.3159 -0.3053
 1003MOL0     H38366  11.687  12.085  11.065 -1.5861 -3.7157  0.8806
 1003MOL0     H38367  11.611  12.138  11.216  0.2992  2.8158 -2.1964
 1003MOL0     H38368  11.837  12.218  11.304 -3.0956 -1.8816  0.0446
 1003MOL0     H38369  11.903  12.181  11.138 -1.4769 -2.5280 -0.3895
 1003MOL0     H38370  11.833  12.430  11.153  2.1161 -1.0982 -3.8484
 1003MOL0     H38371  11.761  12.344  11.037  0.9829  0.4631  0.4092
 1003MOL0     H38372  11.372  12.372  11.172 -0.3737 -1.6255 -2.9012
 1003MOL0     H38373  11.184  12.317  10.976  2.5282 -0.1187  1.6769
 1003MOL0     H38374  11.113  12.473  10.922 -0.7820  0.8697  0.9738
 1003MOL0     H38375  11.127  12.442  11.091 -3.0991  2.4638 -2.4631
 1003MOL0     H38376  11.341  12.927  10.529  0.1337 -0.0079 -0.3779
 1003MOL0     H38377  11.186  12.983  10.374 -0.0461 -0.6318 -0.6134
 1003MOL0     H38378  11.216  12.855  10.147 -2.0418  0.5286  1.0811
 1003MOL0     H38379  11.152  12.682  10.146 -0.3404 -0.1828  0.3792
 1003MOL0     H38380  11.035  12.913   9.986 -0.4348 -0.4736  0.9223
 1003MOL0     H38381  11.142  12.791   9.911 -1.1382 -0.2361 -1.1438
 1003MOL0     H38382  10.919  12.721   9.855 -1.5465 -2.1318 -0.3210
 1003MOL0     H38383  10.869  12.715  10.019 -1.0872 -1.7762 -0.7620
 1003MOL0     H38384  10.985  12.507  10.076 -2.2496 -1.7527 -0.6462
 1003MOL0     H38385  11.099  12.533   9.947 -0.5393 -0.2814 -1.2453
 1003MOL0     H38386  10.918  12.352   9.933  1.7662 -0.1110 -1.1599
 1003MOL0     H38387  10.791  12.475   9.951  0.4990 -0.0618 -0.2122
 1003MOL0     H38388  10.953  12.372   9.737 -1.2247  0.5455 -0.8452
 1003MOL0     H38389  10.944  12.547   9.718 -0.2884 -0.7582 -2.8866
 1003MOL0     H38390  10.698  12.536   9.732  1.2034  0.2454  0.2642
 1003MOL0     H38391  10.695  12.363   9.750 -1.6524  1.6418  1.5197
 1003MOL0     H38392  10.629  12.439   9.531 -0.6461 -1.5869  0.8601
 1003MOL0     H38393  10.768  12.332   9.519 -2.4950 -0.8633  0.8060
 1003MOL0     H38394  11.032  12.599  10.365  2.5802 -1.0419 -2.6160
 1003MOL0     H38395  11.191  12.524  10.573  4.7226 -1.5728 -2.2089
 1003MOL0     H38396  11.566  12.697  10.861  2.1615  0.5852  1.2821
 1003MOL0     H38397  11.708  12.558  11.001  0.2404 -0.5873 -2.0533
 1003MOL0     H38398  11.433  11.253  10.405  1.6607  0.5383  1.4223
 1003MOL0     H38399  11.276  11.068  10.359  0.4931  2.3978  0.4215
 1003MOL0     H38400  11.348  10.529  10.054  2.0058  0.1878  1.4945
 1003MOL0     H38401  11.297  10.296  10.057 -0.7997  0.3267 -0.8264
 1003MOL0     H38402  11.103  10.097  10.177 -0.4176  0.7189 -1.8321
 1003MOL0     H38403  11.272  10.086  10.114 -3.6274  1.4242 -1.7397
 1003MOL0     H38404  11.305   9.909  10.312 -0.1037 -1.0558  0.5379
 1003MOL0     H38405  11.222   9.872  10.160  2.3401  0.0181 -0.6968
 1003MOL0     H38406  11.104   9.904  10.449  0.1281  0.2213 -0.6092
 1003MOL0     H38407  11.005   9.928  10.309  0.5542  0.1957 -1.3096
 1003MOL0     H38408  11.038   9.708  10.219  1.0120  1.8854 -0.9952
 1003MOL0     H38409  11.003   9.688  10.398  0.5762  2.8855  1.4448
 1003MOL0     H38410  11.377   9.512  10.408  1.7874  1.6712 -3.4713
 1003MOL0     H38411  11.243  10.341  10.493 -2.7003 -0.4287 -1.0507
 1003MOL0     H38412  11.354  10.663  10.534  0.0789 -0.0042  2.6938
 1003MOL0     H38413  11.186  10.665  10.494  0.0776  1.2844  4.0519
 1003MOL0     H38414  11.253  10.527  10.590  0.7735  1.0792  1.7331
 1004MOL0     O38415  10.098   3.059   7.316  0.5434 -0.4331 -0.3128
 1004MOL0     C38416  10.005   2.994   7.360 -0.0340  0.2712 -0.6123
 1004MOL0     O38417   9.966   2.989   7.493 -0.6238  0.1268 -0.0843
 1004MOL0     C38418  10.031   3.062   7.596  1.2885  0.3171 -0.7889
 1004MOL0     C38419  10.073   2.988   7.705 -0.1982  0.8577  0.0202
 1004MOL0     C38420  10.165   3.045   7.795  0.7544  0.0707 -0.5309
 1004MOL0     C38421  10.211   3.176   7.790  0.2026 -0.1389 -0.7602
 1004MOL0     O38422  10.282   3.223   7.892 -0.4251 -0.3390  0.2267
 1004MOL0     C38423  10.289   3.366   7.923  0.5846 -0.2261 -0.1820
 1004MOL0     C38424  10.435   3.391   7.958  0.3805 -0.2689  0.3656
 1004MOL0     C38425  10.471   3.533   7.955 -0.3572 -0.9004 -0.0854
 1004MOL0     C38426  10.407   3.624   8.068  0.1992 -0.4618 -0.2455
 1004MOL0     C38427  10.466   3.765   8.055  0.1218 -0.6328 -0.8751
 1004MOL0     C38428  10.414   3.830   7.922  0.1825  1.6077 -0.3301
 1004MOL0     C38429  10.407   3.983   7.947 -1.1494 -0.8846  0.6000
 1004MOL0     C38430  10.285   4.016   8.028  0.0409 -0.5858 -0.7955
 1004MOL0     N38431  10.260   4.162   8.049  0.7626  0.0398 -1.0107
 1004MOL0     C38432  10.326   4.264   7.982  0.2528 -0.6623  1.3313
 1004MOL0     C38433  10.258   4.373   8.003  0.2654  0.1949 -0.7812
 1004MOL0     C38434  10.292   4.514   7.950 -0.1519 -0.4862  0.5308
 1004MOL0     C38435  10.406   4.588   8.021  0.2706 -1.7159 -0.6257
 1004MOL0     C38436  10.414   4.742   8.007  0.3457  0.4441  0.5450
 1004MOL0     C38437  10.285   4.838   8.004  0.3334  0.0440 -0.0234
 1004MOL0     O38438  10.211   4.822   8.125  0.5955  0.7516 -0.4929
 1004MOL0     C38439  10.092   4.884   8.143 -0.7479  0.3167  0.2398
 1004MOL0     C38440  10.039   4.973   8.047  0.2034  0.6838  0.0809
 1004MOL0     C38441   9.927   5.050   8.078  0.4842  0.0487  0.2598
 1004MOL0     C38442   9.889   5.156   7.970 -0.7762 -0.0747 -0.0309
 1004MOL0     C38443   9.855   5.036   8.200  0.6528 -0.5539  0.1294
 1004MOL0     C38444   9.718   5.109   8.230 -0.0254  0.3358  0.3860
 1004MOL0     O38445   9.637   5.150   8.125  0.8324  0.6666  0.2562
 1004MOL0     C38446   9.531   5.227   8.148  0.5331  0.2961  0.1230
 1004MOL0     C38447   9.541   5.364   8.132 -0.2916  0.4671  0.3931
 1004MOL0     C38448   9.427   5.446   8.138  0.1473  0.2136  0.2653
 1004MOL0     C38449   9.295   5.381   8.161 -0.8339  0.4618 -0.4063
 1004MOL0     O38450   9.173   5.445   8.169 -0.2166 -0.7890 -0.1482
 1004MOL0     C38451   9.182   5.578   8.232  0.4399 -0.3042 -0.2061
 1004MOL0     C38452   9.042   5.641   8.248 -0.1007  0.3693 -0.4262
 1004MOL0     C38453   9.038   5.740   8.361 -0.2501  0.3921  0.4348
 1004MOL0     C38454   8.900   5.790   8.381  0.6418 -1.0251  0.7559
 1004MOL0     C38455   8.903   5.875   8.509 -0.8945 -0.4905  0.2734
 1004MOL0     C38456   8.787   5.968   8.505 -0.7059  0.7998  0.1768
 1004MOL0     C38457   8.773   6.048   8.632 -0.1435  0.0594  0.4596
 1004MOL0     C38458   8.631   6.118   8.652 -0.0058 -0.3803 -0.3942
 1004MOL0    Cl38459   8.495   5.986   8.656 -0.1961  0.1444  0.2385
 1004MOL0     C38460   9.291   5.244   8.188  0.5512 -0.3247 -0.3708
 1004MOL0     C38461   9.405   5.165   8.178 -0.6545  0.8941  0.3101
 1004MOL0     O38462   9.685   5.125   8.351 -0.2542 -0.2874  0.2682
 1004MOL0     C38463   9.914   4.951   8.298  0.3193 -0.3199  1.3056
 1004MOL0     C38464  10.027   4.877   8.264  0.1493 -0.0541 -0.9267
 1004MOL0     N38465  10.164   4.339   8.097 -0.6180  0.2332  0.9819
 1004MOL0     N38466  10.165   4.217   8.130  1.1428  0.0556  0.5467
 1004MOL0     C38467  10.160   3.257   7.681 -0.5780  0.1818  0.4589
 1004MOL0     C38468  10.075   3.197   7.582 -0.3645 -0.4395 -0.2732
 1004MOL0     C38469   9.912   2.934   7.256  0.1311 -0.2693  0.0122
 1004MOL0     C38470   9.785   2.897   7.288  0.1241  0.5556 -0.1650
 1004MOL0     C38471   9.705   2.820   7.201  0.3205  0.1504 -1.0051
 1004MOL0     C38472   9.738   2.794   7.072  0.4663  0.0124 -0.1477
 1004MOL0     O38473   9.676   2.727   6.964  0.8534  0.3563 -0.2417
 1004MOL0     C38474   9.564   2.646   7.001  0.5615 -0.0805 -0.2373
 1004MOL0     C38475   9.618   2.524   7.066 -0.2024  0.6824  0.6347
 1004MOL0     C38476   9.549   2.394   7.020  0.2520  0.2234 -0.6373
 1004MOL0     C38477   9.634   2.263   7.060  0.9184 -1.3749 -0.1394
 1004MOL0     C38478   9.646   2.245   7.205 -0.2773  0.5104  1.1593
 1004MOL0     C38479   9.642   2.214   7.321  0.3001 -0.9774  0.0027
 1004MOL0     C38480   9.864   2.833   7.023  0.7174  0.4035 -0.6575
 1004MOL0     C38481   9.954   2.893   7.121 -0.5873 -0.7396 -0.3558
 1004MOL0     C38482  10.094   2.913   7.063  0.5020 -0.3148 -0.0552
 1004MOL0     H38483  10.048   2.883   7.718 -2.4010  1.4068  0.5676
 1004MOL0     H38484  10.202   2.996   7.884  2.4997 -2.2350 -2.4047
 1004MOL0     H38485  10.235   3.391   8.015  0.4728 -1.4862  0.1218
 1004MOL0     H38486  10.256   3.436   7.846  1.1738  0.1270 -0.1181
 1004MOL0     H38487  10.459   3.351   8.057 -0.1593  0.1649  0.6776
 1004MOL0     H38488  10.500   3.340   7.886 -2.4673  1.1735 -3.6265
 1004MOL0     H38489  10.580   3.541   7.964 -0.3208  1.4819 -1.5889
 1004MOL0     H38490  10.447   3.564   7.852 -2.6473 -0.4712  0.5141
 1004MOL0     H38491  10.297   3.626   8.065  0.2085  0.0965 -0.5021
 1004MOL0     H38492  10.431   3.580   8.165 -1.0112 -3.1624 -1.0796
 1004MOL0     H38493  10.575   3.760   8.055  0.3208  2.1570 -1.0075
 1004MOL0     H38494  10.435   3.832   8.135  0.7802  0.1451 -1.2614
 1004MOL0     H38495  10.485   3.805   7.842  1.5155  3.1474  0.3190
 1004MOL0     H38496  10.313   3.795   7.900  0.9836 -0.2087 -1.3176
 1004MOL0     H38497  10.399   4.033   7.850 -0.6192 -0.1114  0.9452
 1004MOL0     H38498  10.502   4.003   7.997 -0.4185  0.1947 -1.1257
 1004MOL0     H38499  10.200   3.956   7.995  0.7218 -1.5388 -0.8752
 1004MOL0     H38500  10.302   3.982   8.131  0.6606  0.5577 -0.5043
 1004MOL0     H38501  10.409   4.258   7.912  0.0253  1.6886  0.7750
 1004MOL0     H38502  10.209   4.585   7.949 -0.4184 -0.7123 -2.4383
 1004MOL0     H38503  10.319   4.497   7.845  0.5525  0.9463  0.4438
 1004MOL0     H38504  10.413   4.565   8.127 -1.6154  0.7088  0.1164
 1004MOL0     H38505  10.498   4.544   7.981  0.4414 -1.3737 -0.6169
 1004MOL0     H38506  10.480   4.772   8.089  0.7866 -0.7166  0.6307
 1004MOL0     H38507  10.476   4.755   7.917  1.2718 -1.2353  0.9013
 1004MOL0     H38508  10.329   4.935   7.983  0.1286  0.8959  3.1065
 1004MOL0     H38509  10.216   4.804   7.925  0.0244 -2.9711  1.3805
 1004MOL0     H38510  10.080   4.988   7.948 -0.9668  0.9458 -0.3736
 1004MOL0     H38511   9.802   5.118   7.914 -0.4290 -2.7019  1.0943
 1004MOL0     H38512   9.976   5.182   7.910 -0.4860  1.2446  0.9256
 1004MOL0     H38513   9.861   5.247   8.023 -0.4929  0.9780 -1.6116
 1004MOL0     H38514   9.642   5.395   8.105 -0.6491 -0.3017 -2.0701
 1004MOL0     H38515   9.438   5.554   8.126  1.3203  0.2261  1.2446
 1004MOL0     H38516   9.227   5.557   8.329  0.9953  0.8868 -0.1846
 1004MOL0     H38517   9.235   5.657   8.177 -2.1588  1.2813 -0.6354
 1004MOL0     H38518   9.017   5.689   8.152 -0.9886 -0.0274 -0.4016
 1004MOL0     H38519   8.970   5.559   8.256  0.6366 -0.2910 -0.3825
 1004MOL0     H38520   9.098   5.830   8.348 -1.1807  1.1339  1.2034
 1004MOL0     H38521   9.068   5.687   8.452 -0.3787 -1.8176 -0.7227
 1004MOL0     H38522   8.829   5.709   8.402  0.4770 -0.7658  1.2224
 1004MOL0     H38523   8.855   5.846   8.299  0.2699 -0.7436  1.1435
 1004MOL0     H38524   8.892   5.818   8.602 -1.0200  2.3974  2.1740
 1004MOL0     H38525   8.993   5.938   8.518 -0.0132 -1.7415  0.5542
 1004MOL0     H38526   8.690   5.925   8.478 -0.2386  0.7708 -1.5278
 1004MOL0     H38527   8.789   6.037   8.420 -0.4230 -2.2203 -2.4637
 1004MOL0     H38528   8.858   6.117   8.643  0.6900 -1.2986  4.1833
 1004MOL0     H38529   8.781   5.975   8.713  1.7963  1.7537  1.9403
 1004MOL0     H38530   8.612   6.189   8.571 -0.6349  0.2936  0.3277
 1004MOL0     H38531   8.623   6.179   8.743  0.4809 -0.4057 -0.3317
 1004MOL0     H38532   9.195   5.198   8.211 -1.3338  2.4907 -2.0163
 1004MOL0     H38533   9.394   5.062   8.211  0.2198  0.8166  0.3807
 1004MOL0     H38534   9.858   4.920   8.385 -1.3174 -0.2566  0.3154
 1004MOL0     H38535  10.080   4.807   8.328 -1.3683  1.1224  1.7895
 1004MOL0     H38536  10.201   3.355   7.657 -0.4447  0.1039  0.3688
 1004MOL0     H38537  10.045   3.245   7.489  0.5970 -0.3992 -0.5740
 1004MOL0     H38538   9.752   2.921   7.388 -1.6268  1.7794 -0.9840
 1004MOL0     H38539   9.606   2.788   7.231  0.5801 -0.3437 -0.6567
 1004MOL0     H38540   9.491   2.696   7.066  1.4963 -0.5375  1.2057
 1004MOL0     H38541   9.501   2.619   6.916 -2.4983  4.0215  0.3973
 1004MOL0     H38542   9.609   2.541   7.174 -2.5477  0.5964  0.5010
 1004MOL0     H38543   9.724   2.520   7.041 -0.6154 -1.9771 -1.0823
 1004MOL0     H38544   9.442   2.400   7.040  0.5569  1.8007  0.7798
 1004MOL0     H38545   9.578   2.404   6.915  0.6668  3.2997 -0.3326
 1004MOL0     H38546   9.736   2.273   7.021  0.6326  2.5927 -0.2715
 1004MOL0     H38547   9.586   2.175   7.018 -0.3403  0.0749 -1.8948
 1004MOL0     H38548   9.628   2.206   7.427  4.1038 -2.1757  0.5876
 1004MOL0     H38549   9.904   2.800   6.927  0.7360 -1.9249  0.0928
 1004MOL0     H38550  10.112   2.822   7.005  0.0183 -1.7881  2.0154
 1004MOL0     H38551  10.093   3.010   7.012 -2.1712  0.6165  1.5666
 1004MOL0     H38552  10.175   2.907   7.137  2.4074 -4.6080 -2.1238
 1005MOL0     O38553   5.011   2.799   0.826  0.3196 -0.8936 -0.5029
 1005MOL0     C38554   4.976   2.683   0.854  0.5656  1.2213 -0.3610
 1005MOL0     O38555   5.054   2.570   0.840  0.1428 -0.3315  0.4609
 1005MOL0     C38556   5.149   2.591   0.749 -0.6644 -0.3806  0.1192
 1005MOL0     C38557   5.160   2.513   0.627 -1.2508 -0.3266  0.0180
 1005MOL0     C38558   5.272   2.513   0.539  0.4867  0.8110  0.0612
 1005MOL0     C38559   5.375   2.606   0.561 -0.9280 -0.1503 -0.0953
 1005MOL0     O38560   5.480   2.629   0.482 -0.2079  0.0933  0.1141
 1005MOL0     C38561   5.444   2.697   0.356 -0.4834 -0.0103 -0.4036
 1005MOL0     C38562   5.577   2.751   0.294 -0.2109 -0.6961 -0.2115
 1005MOL0     C38563   5.541   2.876   0.204 -0.2414 -0.3517  0.0441
 1005MOL0     C38564   5.663   2.892   0.098  0.4718  0.1257 -0.0040
 1005MOL0     C38565   5.608   2.977  -0.014 -0.5372  1.4815 -0.7412
 1005MOL0     C38566   5.720   3.029  -0.103  0.0505 -0.1169 -1.1983
 1005MOL0     C38567   5.657   3.122  -0.214 -0.3530  0.0695 -0.1009
 1005MOL0     C38568   5.732   3.239  -0.241 -0.7465 -0.7361  0.1385
 1005MOL0     N38569   5.651   3.340  -0.309 -0.0917  0.3874 -0.9533
 1005MOL0     C38570   5.588   3.317  -0.429  0.0531 -0.9844 -0.6550
 1005MOL0     C38571   5.526   3.438  -0.448 -0.3706  0.6792  0.1887
 1005MOL0     C38572   5.483   3.468  -0.592 -0.1527  0.5668 -0.7377
 1005MOL0     C38573   5.417   3.347  -0.671 -0.4468  0.0618 -0.1270
 1005MOL0     C38574   5.333   3.389  -0.789 -0.8692 -0.5738  0.8586
 1005MOL0     C38575   5.412   3.471  -0.898  0.7810 -0.7541  0.7937
 1005MOL0     O38576   5.336   3.494  -1.022  0.1358 -0.8272 -0.1370
 1005MOL0     C38577   5.329   3.400  -1.111 -0.2680  1.0177  0.2509
 1005MOL0     C38578   5.368   3.263  -1.099 -0.3822 -0.7100 -0.1294
 1005MOL0     C38579   5.334   3.179  -1.201 -0.4221 -0.1335 -0.6563
 1005MOL0     C38580   5.364   3.040  -1.170  0.1462 -0.1171  0.2869
 1005MOL0     C38581   5.269   3.221  -1.320  0.6454 -1.6854  0.5140
 1005MOL0     C38582   5.244   3.139  -1.442 -0.5529 -0.2205 -0.1450
 1005MOL0     O38583   5.210   3.002  -1.432 -0.1320  0.6887 -0.3345
 1005MOL0     C38584   5.223   2.912  -1.535 -0.2103 -0.7887  0.4420
 1005MOL0     C38585   5.118   2.853  -1.595  0.3280 -0.9180 -0.2805
 1005MOL0     C38586   5.147   2.760  -1.693  0.5588 -0.0606  0.9040
 1005MOL0     C38587   5.277   2.751  -1.752 -0.2453 -0.6000  0.5289
 1005MOL0     O38588   5.299   2.672  -1.866 -0.4383 -0.4085  0.6965
 1005MOL0     C38589   5.205   2.565  -1.902 -0.4497 -0.0596  0.3171
 1005MOL0     C38590   5.279   2.458  -1.988  0.5608 -0.0085  0.0837
 1005MOL0     C38591   5.345   2.516  -2.121  0.9567 -0.4160 -1.0882
 1005MOL0     C38592   5.316   2.426  -2.242  0.0260  0.7255  0.4708
 1005MOL0     C38593   5.399   2.480  -2.365 -0.7393  0.1158 -0.2601
 1005MOL0     C38594   5.356   2.409  -2.486 -0.7879  0.0464  0.2657
 1005MOL0     C38595   5.449   2.433  -2.601 -0.0732  0.1853  0.9423
 1005MOL0     C38596   5.433   2.561  -2.681  0.2416 -0.7905 -0.1244
 1005MOL0    Cl38597   5.285   2.581  -2.768 -0.0884 -0.5079 -0.2237
 1005MOL0     C38598   5.385   2.823  -1.699  0.6130  0.0846 -1.1926
 1005MOL0     C38599   5.349   2.907  -1.588  0.6493  0.4091 -0.1931
 1005MOL0     O38600   5.269   3.200  -1.547  0.1309  0.6061 -0.7592
 1005MOL0     C38601   5.239   3.358  -1.329 -0.1638 -1.0808 -0.8037
 1005MOL0     C38602   5.260   3.439  -1.221  0.7173 -0.1285 -0.0616
 1005MOL0     N38603   5.552   3.522  -0.342  0.0361  0.6643  0.5267
 1005MOL0     N38604   5.621   3.460  -0.257 -0.0745  0.0535  0.9712
 1005MOL0     C38605   5.373   2.684   0.678 -0.0414  0.1338 -0.3448
 1005MOL0     C38606   5.261   2.674   0.771  0.3134  0.8432 -0.3415
 1005MOL0     C38607   4.842   2.672   0.917 -0.3563  0.2303 -0.2599
 1005MOL0     C38608   4.815   2.556   0.994  0.2708 -0.2765 -0.6739
 1005MOL0     C38609   4.677   2.535   1.054 -1.1511 -0.2459  0.6381
 1005MOL0     C38610   4.578   2.625   1.032  0.4109 -0.2443 -1.1316
 1005MOL0     O38611   4.441   2.593   1.053  0.6403  0.0834  0.6285
 1005MOL0     C38612   4.378   2.658   1.165  0.5466  0.1912 -0.2452
 1005MOL0     C38613   4.239   2.704   1.127 -0.3597 -0.8074  0.0172
 1005MOL0     C38614   4.221   2.862   1.149 -0.2623  1.1555  0.4046
 1005MOL0     C38615   4.073   2.899   1.144  0.0465  0.2428  0.3490
 1005MOL0     C38616   4.004   2.878   1.011  0.5185  0.4617  0.5414
 1005MOL0     C38617   3.942   2.866   0.904  0.1643  0.4022 -0.1106
 1005MOL0     C38618   4.607   2.737   0.953  0.6425  1.0927  0.2367
 1005MOL0     C38619   4.735   2.764   0.904  0.0508  1.0238  0.4386
 1005MOL0     C38620   4.741   2.875   0.806 -0.8061 -0.0345  0.0523
 1005MOL0     H38621   5.083   2.442   0.603 -2.6187  1.8450 -2.6559
 1005MOL0     H38622   5.267   2.457   0.447  1.3764  3.3967 -1.6894
 1005MOL0     H38623   5.382   2.787   0.365 -0.1361  0.2707 -0.8012
 1005MOL0     H38624   5.381   2.647   0.282 -1.0315  1.1008 -0.7151
 1005MOL0     H38625   5.647   2.783   0.371 -1.0293  3.0341 -0.8239
 1005MOL0     H38626   5.618   2.665   0.240 -0.1896 -1.1585  0.5288
 1005MOL0     H38627   5.445   2.846   0.160 -0.3627  1.2842 -0.8687
 1005MOL0     H38628   5.531   2.967   0.264 -1.7597  0.1691 -0.9387
 1005MOL0     H38629   5.744   2.948   0.145 -0.7761  0.1045  2.2825
 1005MOL0     H38630   5.708   2.795   0.071 -2.0497 -0.3053 -3.3802
 1005MOL0     H38631   5.559   3.051   0.050  0.8605  0.3169  1.8219
 1005MOL0     H38632   5.535   2.922  -0.075  2.1122 -3.2576 -0.1361
 1005MOL0     H38633   5.778   3.074  -0.022 -2.1804 -1.6608  1.4451
 1005MOL0     H38634   5.784   2.952  -0.146  2.3438  0.7290  0.5109
 1005MOL0     H38635   5.558   3.153  -0.183 -0.1531  1.7044 -0.9939
 1005MOL0     H38636   5.646   3.065  -0.307  3.1203  2.2716 -2.0879
 1005MOL0     H38637   5.773   3.270  -0.145 -1.6228 -0.6457  0.4935
 1005MOL0     H38638   5.814   3.219  -0.310 -0.2973  1.2905  0.0129
 1005MOL0     H38639   5.591   3.229  -0.492 -3.8864 -0.8645 -1.2384
 1005MOL0     H38640   5.577   3.484  -0.647  0.7760  3.7165  1.4790
 1005MOL0     H38641   5.419   3.556  -0.599 -1.1110 -0.0332  0.2887
 1005MOL0     H38642   5.492   3.272  -0.697 -1.6136 -0.8995 -0.8232
 1005MOL0     H38643   5.343   3.306  -0.602 -2.9353 -3.9807 -4.6206
 1005MOL0     H38644   5.288   3.306  -0.845 -2.3979  1.8832 -1.9015
 1005MOL0     H38645   5.250   3.452  -0.754 -0.3090  0.6846  0.0059
 1005MOL0     H38646   5.418   3.572  -0.856 -3.1122  1.0027 -2.2658
 1005MOL0     H38647   5.511   3.427  -0.912  1.2177  0.0170  1.3814
 1005MOL0     H38648   5.413   3.223  -1.009  0.8762 -1.7784 -1.1987
 1005MOL0     H38649   5.271   3.000  -1.128 -0.6364 -0.6845 -1.8473
 1005MOL0     H38650   5.441   3.017  -1.096 -0.9885 -2.1610  0.9044
 1005MOL0     H38651   5.393   2.987  -1.261 -0.6051  2.6419 -1.6943
 1005MOL0     H38652   5.018   2.866  -1.555  0.7777  1.7089  0.1827
 1005MOL0     H38653   5.069   2.705  -1.744 -1.0855  1.7714  1.3130
 1005MOL0     H38654   5.168   2.506  -1.818  3.1716 -1.2100  1.3006
 1005MOL0     H38655   5.129   2.621  -1.958 -0.2723 -0.5530 -0.4175
 1005MOL0     H38656   5.354   2.409  -1.925 -1.8044 -1.1155  2.2189
 1005MOL0     H38657   5.216   2.373  -2.016 -1.0374  0.4910  1.9224
 1005MOL0     H38658   5.453   2.515  -2.104  0.9218 -1.9986 -0.7790
 1005MOL0     H38659   5.314   2.621  -2.126 -1.5017 -0.9556  0.7353
 1005MOL0     H38660   5.214   2.420  -2.281 -0.7202 -0.1869  2.4463
 1005MOL0     H38661   5.346   2.322  -2.225 -0.9812 -0.4134 -3.6759
 1005MOL0     H38662   5.378   2.584  -2.393 -4.4858 -1.1265 -2.9735
 1005MOL0     H38663   5.502   2.461  -2.336 -0.5295 -2.5414 -2.3489
 1005MOL0     H38664   5.254   2.434  -2.515 -0.6223 -0.3598 -0.6805
 1005MOL0     H38665   5.359   2.301  -2.465 -0.7586  0.1754  0.9659
 1005MOL0     H38666   5.425   2.353  -2.672 -0.2535  0.2075  0.9786
 1005MOL0     H38667   5.547   2.404  -2.560  0.1348  0.3200  0.5496
 1005MOL0     H38668   5.510   2.559  -2.758  0.5364 -0.1629  0.1489
 1005MOL0     H38669   5.448   2.652  -2.622  2.7648 -1.1477 -0.1160
 1005MOL0     H38670   5.487   2.811  -1.734  1.1496 -2.1939  0.8733
 1005MOL0     H38671   5.433   2.957  -1.540  2.3878 -3.3726  1.1386
 1005MOL0     H38672   5.204   3.392  -1.426 -1.3793  0.9192  0.2799
 1005MOL0     H38673   5.226   3.541  -1.226 -1.2292 -0.7341  0.0613
 1005MOL0     H38674   5.463   2.740   0.701  1.2177 -2.2608  0.9875
 1005MOL0     H38675   5.261   2.727   0.866  1.5525 -0.8146  0.6337
 1005MOL0     H38676   4.893   2.481   0.996  1.7329  1.1807 -0.4430
 1005MOL0     H38677   4.662   2.445   1.113  3.4101 -2.0868 -0.5512
 1005MOL0     H38678   4.372   2.585   1.247 -1.7379  0.4171 -0.1463
 1005MOL0     H38679   4.438   2.740   1.205  0.2242  0.1340  0.3670
 1005MOL0     H38680   4.160   2.663   1.189 -1.5274  2.9634  1.3353
 1005MOL0     H38681   4.214   2.671   1.026  0.1806 -0.4682 -0.2312
 1005MOL0     H38682   4.248   2.888   1.252 -4.4328  2.8293  1.2610
 1005MOL0     H38683   4.282   2.919   1.077  2.4036 -0.9564  0.8037
 1005MOL0     H38684   4.064   3.006   1.164 -0.9060  0.3703 -0.6584
 1005MOL0     H38685   4.014   2.849   1.222 -0.2534  4.9534  3.4977
 1005MOL0     H38686   3.885   2.856   0.814 -0.0992  0.5696  0.0366
 1005MOL0     H38687   4.523   2.791   0.909  2.3299  0.6458 -3.9493
 1005MOL0     H38688   4.756   2.834   0.706 -1.0881 -1.7880  0.6887
 1005MOL0     H38689   4.645   2.926   0.788 -1.1338 -0.9874 -1.0533
 1005MOL0     H38690   4.818   2.944   0.841 -1.9705 -0.2061  3.3434
 1006MOL0     O38691   4.180   3.049   1.828  0.2810  0.9908 -0.2914
 1006MOL0     C38692   4.161   2.946   1.765  0.2296  1.0289 -0.7295
 1006MOL0     O38693   4.044   2.875   1.753  1.3188  0.0743  0.1880
 1006MOL0     C38694   3.933   2.920   1.823  0.6585 -0.5962  0.1325
 1006MOL0     C38695   3.913   3.039   1.907  0.4769 -0.5935  0.6534
 1006MOL0     C38696   3.791   3.069   1.974 -0.2774  0.6961 -0.7112
 1006MOL0     C38697   3.687   2.971   1.969  0.7503 -0.0040  0.1169
 1006MOL0     O38698   3.575   2.977   2.044  0.4058 -0.3146 -0.1130
 1006MOL0     C38699   3.571   3.052   2.166 -0.7036 -0.1177  0.5235
 1006MOL0     C38700   3.536   3.197   2.166  0.1345 -0.3081 -0.0649
 1006MOL0     C38701   3.399   3.215   2.104 -0.0876 -0.1732 -0.5103
 1006MOL0     C38702   3.395   3.190   1.951 -0.5856 -0.0356 -1.0891
 1006MOL0     C38703   3.274   3.247   1.880 -0.0757  0.2665  0.2446
 1006MOL0     C38704   3.245   3.164   1.756 -0.9508 -1.0888 -0.2486
 1006MOL0     C38705   3.368   3.117   1.662 -0.1758 -0.9836  0.6664
 1006MOL0     C38706   3.310   3.040   1.548 -0.5993  0.3690 -0.2103
 1006MOL0     N38707   3.409   3.003   1.441  0.6905  0.2598 -0.4371
 1006MOL0     C38708   3.380   3.009   1.308  0.5489  0.5596 -0.6710
 1006MOL0     C38709   3.493   2.994   1.242  0.5256  0.1330 -0.2322
 1006MOL0     C38710   3.503   2.960   1.093  0.4311  0.0835 -0.4011
 1006MOL0     C38711   3.499   2.806   1.073  0.1032 -0.3829 -0.0300
 1006MOL0     C38712   3.489   2.779   0.922 -0.7485 -0.5920  0.3063
 1006MOL0     C38713   3.573   2.667   0.873 -0.2369  0.7733  0.2806
 1006MOL0     O38714   3.530   2.658   0.734 -0.4504 -0.1083 -0.0227
 1006MOL0     C38715   3.570   2.557   0.663  0.1391  0.1738  0.2161
 1006MOL0     C38716   3.527   2.553   0.531  0.9362  0.3820  0.0947
 1006MOL0     C38717   3.544   2.447   0.449  0.5800 -0.2457  0.1396
 1006MOL0     C38718   3.480   2.457   0.323 -0.0844 -0.1625  0.2527
 1006MOL0     C38719   3.621   2.339   0.502 -0.3279 -0.8214  1.0603
 1006MOL0     C38720   3.643   2.220   0.427 -0.4267  0.2586  0.9253
 1006MOL0     O38721   3.641   2.108   0.505 -0.1840 -0.1400  0.2936
 1006MOL0     C38722   3.601   1.984   0.443 -0.2225 -0.6580 -0.1475
 1006MOL0     C38723   3.496   1.977   0.352  0.6856 -0.1050  0.5483
 1006MOL0     C38724   3.460   1.855   0.293 -0.6812  0.4559 -0.0105
 1006MOL0     C38725   3.523   1.739   0.340  0.7041 -0.2246 -0.6532
 1006MOL0     O38726   3.485   1.616   0.292  0.9155 -0.1167 -0.6379
 1006MOL0     C38727   3.548   1.487   0.328  0.4564  0.5787 -0.3277
 1006MOL0     C38728   3.449   1.385   0.282 -0.7002  0.2211  0.4834
 1006MOL0     C38729   3.338   1.395   0.386  1.0949  0.9402 -0.7159
 1006MOL0     C38730   3.222   1.289   0.372  0.6286  0.1513  0.6764
 1006MOL0     C38731   3.172   1.290   0.228 -0.3086  0.2480 -0.6383
 1006MOL0     C38732   3.069   1.181   0.204 -0.5483  0.4886 -0.4344
 1006MOL0     C38733   3.059   1.143   0.063 -0.5393 -0.1518 -0.0678
 1006MOL0     C38734   2.980   1.016   0.030  0.6560  0.1760  0.4952
 1006MOL0    Cl38735   2.821   1.033   0.091  0.1177  0.0763  0.0416
 1006MOL0     C38736   3.631   1.743   0.433 -0.4091  0.1054 -0.3443
 1006MOL0     C38737   3.666   1.870   0.479  0.0119 -0.4431  0.9977
 1006MOL0     O38738   3.674   2.225   0.306 -0.4917 -0.5619 -0.4239
 1006MOL0     C38739   3.679   2.350   0.630 -1.0773  0.2288  0.9446
 1006MOL0     C38740   3.661   2.459   0.707 -0.4815  0.7405  0.4572
 1006MOL0     N38741   3.597   2.971   1.324  0.4522 -0.2170 -0.6596
 1006MOL0     N38742   3.544   2.973   1.447 -0.6165 -0.0477  0.2600
 1006MOL0     C38743   3.701   2.854   1.897  0.0931  0.5205 -0.0660
 1006MOL0     C38744   3.820   2.835   1.826  0.9054 -0.2786 -0.3512
 1006MOL0     C38745   4.276   2.892   1.695 -0.5492  1.3208 -0.3594
 1006MOL0     C38746   4.406   2.920   1.755  0.4637 -0.5420  0.0898
 1006MOL0     C38747   4.520   2.858   1.709 -0.2625 -0.8237  0.0825
 1006MOL0     C38748   4.518   2.786   1.587 -0.4038  0.9814 -0.2780
 1006MOL0     O38749   4.646   2.756   1.537  0.8580  0.3893  0.9736
 1006MOL0     C38750   4.652   2.722   1.395 -1.3833  0.6455 -0.1673
 1006MOL0     C38751   4.799   2.713   1.355 -0.0687 -0.7288  0.0257
 1006MOL0     C38752   4.876   2.607   1.450  0.7181  0.2557  0.4283
 1006MOL0     C38753   5.031   2.618   1.436  0.4094  0.4978 -0.9168
 1006MOL0     C38754   5.072   2.568   1.311  0.3684  0.1841  1.1315
 1006MOL0     C38755   5.090   2.538   1.189  1.0994  0.2352  0.9683
 1006MOL0     C38756   4.400   2.762   1.526 -0.1968  0.5399  0.2555
 1006MOL0     C38757   4.279   2.808   1.572 -0.0874 -0.9244 -0.8997
 1006MOL0     C38758   4.152   2.762   1.501  0.4505 -0.1354 -0.4331
 1006MOL0     H38759   3.982   3.121   1.924  0.5903  0.2432 -2.9927
 1006MOL0     H38760   3.777   3.166   2.022 -1.3279 -0.6508  1.8977
 1006MOL0     H38761   3.669   3.052   2.214  0.1187  3.3607 -0.8909
 1006MOL0     H38762   3.506   2.998   2.236  1.2334 -2.7244  0.4912
 1006MOL0     H38763   3.541   3.223   2.272 -1.5193  0.7349 -0.2263
 1006MOL0     H38764   3.605   3.269   2.121 -0.3006  2.4170  3.2267
 1006MOL0     H38765   3.321   3.156   2.154 -2.3508  0.6822 -2.8170
 1006MOL0     H38766   3.365   3.318   2.119  1.7295  0.2151  1.3964
 1006MOL0     H38767   3.485   3.233   1.905 -0.6607  0.4610 -0.7866
 1006MOL0     H38768   3.390   3.081   1.945  2.4729 -0.3175 -0.0506
 1006MOL0     H38769   3.296   3.352   1.857  2.2219 -0.7719 -3.1447
 1006MOL0     H38770   3.186   3.237   1.943 -2.1442  0.2242 -2.4569
 1006MOL0     H38771   3.190   3.076   1.791 -1.6875 -0.4176  0.3198
 1006MOL0     H38772   3.177   3.229   1.701 -1.0894 -0.2872  0.8208
 1006MOL0     H38773   3.437   3.047   1.708  1.5088  0.0339 -0.1995
 1006MOL0     H38774   3.423   3.206   1.628  1.9361 -1.7527  1.9375
 1006MOL0     H38775   3.261   2.949   1.583  1.6797 -0.9925 -0.3072
 1006MOL0     H38776   3.231   3.098   1.501  0.2454  0.5109 -1.5125
 1006MOL0     H38777   3.281   3.008   1.265  0.2333  1.0291  0.0284
 1006MOL0     H38778   3.594   2.997   1.046  1.4432 -2.0334 -0.2246
 1006MOL0     H38779   3.420   3.003   1.036 -0.5960 -0.1200  0.8927
 1006MOL0     H38780   3.579   2.757   1.129  0.4641  1.2806  0.9757
 1006MOL0     H38781   3.404   2.770   1.114  0.5407 -0.9529  0.5099
 1006MOL0     H38782   3.385   2.757   0.896  0.1828  0.5901 -6.1289
 1006MOL0     H38783   3.523   2.858   0.854 -2.3290 -0.9099 -0.8927
 1006MOL0     H38784   3.678   2.699   0.881  0.5087 -1.5998  0.9545
 1006MOL0     H38785   3.548   2.571   0.920 -4.3586  0.8285 -1.3909
 1006MOL0     H38786   3.473   2.642   0.499 -2.5733 -2.0100 -1.2968
 1006MOL0     H38787   3.412   2.372   0.313  0.2892 -0.9470  3.4481
 1006MOL0     H38788   3.552   2.447   0.241 -1.1781 -0.5088 -0.7034
 1006MOL0     H38789   3.410   2.540   0.308 -3.6700 -3.1254 -0.9126
 1006MOL0     H38790   3.448   2.069   0.321  2.0332  0.3827 -0.2045
 1006MOL0     H38791   3.368   1.842   0.237 -1.0992 -3.4130  1.2472
 1006MOL0     H38792   3.649   1.472   0.287  0.4170  1.3848 -0.7478
 1006MOL0     H38793   3.570   1.480   0.435 -0.1517 -0.0561 -0.2364
 1006MOL0     H38794   3.407   1.412   0.185 -1.1501 -0.5293  0.4590
 1006MOL0     H38795   3.484   1.281   0.283  0.2530  0.5290 -0.4246
 1006MOL0     H38796   3.288   1.493   0.383 -1.4805  0.0049  3.2373
 1006MOL0     H38797   3.379   1.377   0.485  0.7257 -4.2364 -1.2736
 1006MOL0     H38798   3.146   1.318   0.445 -2.2926 -0.5384 -1.8447
 1006MOL0     H38799   3.256   1.192   0.410 -0.4886  0.2694  2.0657
 1006MOL0     H38800   3.133   1.391   0.211 -0.8649  0.3126  0.9352
 1006MOL0     H38801   3.254   1.263   0.160 -0.3717  0.0602 -0.6412
 1006MOL0     H38802   2.967   1.199   0.240 -0.4028 -3.1100  2.3125
 1006MOL0     H38803   3.092   1.089   0.259  0.7922 -0.9630 -3.1799
 1006MOL0     H38804   3.153   1.136   0.007 -1.2717  0.1743 -1.3879
 1006MOL0     H38805   3.012   1.230   0.017 -1.3829  1.3104  3.3046
 1006MOL0     H38806   3.037   0.931   0.069  2.2004  0.6253 -0.6943
 1006MOL0     H38807   2.988   1.012  -0.079  3.5731 -1.3479  0.6599
 1006MOL0     H38808   3.690   1.660   0.470  2.0734  2.3127  1.0444
 1006MOL0     H38809   3.754   1.893   0.539  0.1740  2.1423 -0.0810
 1006MOL0     H38810   3.751   2.277   0.667  1.7658  0.6941 -3.0221
 1006MOL0     H38811   3.722   2.477   0.795 -2.5060  0.1245  2.0913
 1006MOL0     H38812   3.618   2.784   1.895  2.0161 -2.1633  3.3422
 1006MOL0     H38813   3.827   2.739   1.774 -2.8901  0.5604 -2.7846
 1006MOL0     H38814   4.410   2.987   1.839 -2.2303 -1.3355  0.9562
 1006MOL0     H38815   4.616   2.883   1.754  0.9056 -2.5920 -1.3071
 1006MOL0     H38816   4.599   2.628   1.374  2.3348 -1.2115 -2.3434
 1006MOL0     H38817   4.603   2.798   1.333  2.1781  4.0620  0.7528
 1006MOL0     H38818   4.842   2.813   1.365 -3.1182  0.7379 -0.3590
 1006MOL0     H38819   4.805   2.690   1.248  0.9961 -0.4651  0.0233
 1006MOL0     H38820   4.870   2.632   1.556  0.3270 -1.6102  0.8800
 1006MOL0     H38821   4.843   2.503   1.449 -1.6978  0.9126  2.7887
 1006MOL0     H38822   5.074   2.572   1.525  0.3920 -0.2872 -1.3097
 1006MOL0     H38823   5.057   2.723   1.455  3.3614 -0.6243  2.0936
 1006MOL0     H38824   5.121   2.528   1.087 -0.2381  2.3737  0.2853
 1006MOL0     H38825   4.404   2.703   1.435  1.3733  0.9682  0.0193
 1006MOL0     H38826   4.162   2.700   1.411 -1.5599  2.8719 -2.9389
 1006MOL0     H38827   4.073   2.709   1.554  0.1911 -2.7592 -3.1608
 1006MOL0     H38828   4.110   2.850   1.452 -0.7153  1.2716  2.8385
 1007MOL0     O38829   0.657  10.020   6.768 -0.1645  0.7830  0.3526
 1007MOL0     C38830   0.655   9.913   6.712 -1.8086  0.0121  0.3365
 1007MOL0     O38831   0.772   9.850   6.655  0.8480 -0.5733 -0.1312
 1007MOL0     C38832   0.863   9.932   6.595 -0.5907 -0.3894  0.0812
 1007MOL0     C38833   0.839  10.061   6.537  1.0654 -0.3964 -0.8367
 1007MOL0     C38834   0.926  10.139   6.465 -0.2076 -0.1167 -0.6741
 1007MOL0     C38835   1.063  10.102   6.456  0.1540 -0.1890 -0.2627
 1007MOL0     O38836   1.155  10.193   6.400 -0.3940  0.0964  0.0215
 1007MOL0     C38837   1.294  10.177   6.419  0.0107  0.8138 -0.3004
 1007MOL0     C38838   1.354  10.307   6.368 -0.4535  0.7462  0.1417
 1007MOL0     C38839   1.310  10.364   6.219 -0.1501 -0.3453 -0.7664
 1007MOL0     C38840   1.399  10.483   6.163  0.2256 -0.0151 -0.1608
 1007MOL0     C38841   1.366  10.512   6.022  1.3904  0.2407 -0.0929
 1007MOL0     C38842   1.475  10.596   5.947  0.6341 -0.8578  0.3847
 1007MOL0     C38843   1.487  10.742   6.005 -0.3015 -0.2514  0.3558
 1007MOL0     C38844   1.602  10.760   6.104 -0.3393 -0.0456  0.7815
 1007MOL0     N38845   1.622  10.897   6.150  0.2230  0.3923  0.8097
 1007MOL0     C38846   1.591  11.024   6.089 -1.3995 -0.5058 -0.4562
 1007MOL0     C38847   1.653  11.124   6.168  1.1328  0.5671  0.0727
 1007MOL0     C38848   1.669  11.271   6.126 -0.5818 -0.3144  0.1226
 1007MOL0     C38849   1.801  11.310   6.059  0.3655 -0.8412  0.9648
 1007MOL0     C38850   1.900  11.322   6.170 -0.2191 -0.6007 -0.3012
 1007MOL0     C38851   2.035  11.340   6.120 -0.0599 -0.3620 -0.2666
 1007MOL0     O38852   2.134  11.358   6.229  0.0877 -0.4593 -0.0744
 1007MOL0     C38853   2.162  11.241   6.296 -0.5990 -1.0883 -0.6341
 1007MOL0     C38854   2.258  11.169   6.230  0.5002  0.5018 -1.0984
 1007MOL0     C38855   2.309  11.053   6.291 -0.6381  0.4831 -0.2391
 1007MOL0     C38856   2.415  10.965   6.224  0.0930  0.6569 -1.0581
 1007MOL0     C38857   2.262  11.011   6.423 -0.6687 -0.0366  0.0220
 1007MOL0     C38858   2.311  10.896   6.505  0.2564 -0.2354  0.0861
 1007MOL0     O38859   2.349  10.931   6.632 -0.5907  0.3499 -0.5513
 1007MOL0     C38860   2.423  10.844   6.705  0.1181 -1.8237 -0.5366
 1007MOL0     C38861   2.347  10.758   6.785  0.9868 -0.3497  0.0071
 1007MOL0     C38862   2.404  10.678   6.878 -0.2783  0.6193  0.4575
 1007MOL0     C38863   2.550  10.674   6.888  0.2265  0.0605  0.2840
 1007MOL0     O38864   2.620  10.616   6.996  1.2084  0.2921  0.0904
 1007MOL0     C38865   2.572  10.480   7.034 -0.4811  1.2261 -0.4356
 1007MOL0     C38866   2.556  10.380   6.923  0.0953 -0.1369 -0.7701
 1007MOL0     C38867   2.499  10.245   6.978 -0.6319 -0.2223  0.5564
 1007MOL0     C38868   2.527  10.130   6.879 -0.3407  1.5636  0.3876
 1007MOL0     C38869   2.437  10.006   6.900  0.8285  1.2727 -0.1975
 1007MOL0     C38870   2.295  10.022   6.848 -0.9019  0.4896  1.4261
 1007MOL0     C38871   2.199  10.119   6.931  0.2741  0.9351 -0.5010
 1007MOL0     C38872   2.055  10.102   6.877  0.2087  0.4584  0.1396
 1007MOL0    Cl38873   2.003   9.945   6.938  0.4230  0.1161  0.4436
 1007MOL0     C38874   2.624  10.765   6.811 -0.5848 -0.6855  0.0360
 1007MOL0     C38875   2.564  10.855   6.724 -0.9864  0.7762 -1.3473
 1007MOL0     O38876   2.314  10.785   6.459  0.5024  0.4162  0.5435
 1007MOL0     C38877   2.159  11.085   6.484 -0.4073 -0.5928 -0.0667
 1007MOL0     C38878   2.114  11.205   6.422  0.8393 -0.2566 -0.0776
 1007MOL0     N38879   1.700  11.066   6.278 -0.3581 -1.2394 -0.5150
 1007MOL0     N38880   1.687  10.935   6.276  0.2828  0.1810  0.6389
 1007MOL0     C38881   1.094   9.984   6.518 -0.3208  0.8082 -0.2836
 1007MOL0     C38882   0.998   9.895   6.577  0.8536 -0.3088  0.5215
 1007MOL0     C38883   0.526   9.850   6.709  0.1274 -0.2870 -0.4197
 1007MOL0     C38884   0.423   9.909   6.790  0.3218 -0.2250 -0.1254
 1007MOL0     C38885   0.291   9.863   6.783  0.2021  0.5624  0.9723
 1007MOL0     C38886   0.265   9.740   6.721 -0.6199  0.1425 -0.2015
 1007MOL0     O38887   0.134   9.682   6.726 -0.0011 -0.0173 -0.1579
 1007MOL0     C38888   0.072   9.680   6.592  0.8288  0.0643  0.6744
 1007MOL0     C38889   0.019   9.535   6.558  0.1901  0.5316 -0.0702
 1007MOL0     C38890  -0.020   9.510   6.407  0.8136 -0.7089  0.7460
 1007MOL0     C38891  -0.006   9.628   6.303  0.7469 -0.5336 -0.5632
 1007MOL0     C38892  -0.127   9.713   6.299  0.0517  0.1618  0.1405
 1007MOL0     C38893  -0.231   9.779   6.292 -0.9960 -0.6955  0.3295
 1007MOL0     C38894   0.367   9.675   6.655  0.0933 -0.0493  0.2719
 1007MOL0     C38895   0.503   9.722   6.648  0.5976  0.0126  0.0563
 1007MOL0     C38896   0.612   9.632   6.579 -0.0122  0.8708 -0.6228
 1007MOL0     H38897   0.748  10.120   6.543  2.6042  2.4147 -2.6273
 1007MOL0     H38898   0.886  10.213   6.396 -0.7024 -0.2909 -0.5800
 1007MOL0     H38899   1.322  10.085   6.367  0.1608 -0.0103  1.2098
 1007MOL0     H38900   1.323  10.178   6.524  2.1416  2.8626 -0.8019
 1007MOL0     H38901   1.322  10.371   6.450 -2.0825 -0.3029  0.3711
 1007MOL0     H38902   1.464  10.304   6.368 -0.4486 -1.1709  1.6808
 1007MOL0     H38903   1.317  10.275   6.156 -1.9527  0.9213 -2.9057
 1007MOL0     H38904   1.207  10.402   6.215  0.6269  1.8914 -1.1281
 1007MOL0     H38905   1.376  10.573   6.221 -2.0900 -0.2067 -0.6706
 1007MOL0     H38906   1.506  10.464   6.172  0.0996 -0.0745  1.6132
 1007MOL0     H38907   1.269  10.562   6.021  1.7934  1.0646  0.4933
 1007MOL0     H38908   1.348  10.421   5.964  1.1029  0.6807 -0.7124
 1007MOL0     H38909   1.576  10.554   5.950  0.3484 -1.5329  0.7362
 1007MOL0     H38910   1.441  10.611   5.844 -4.3253  1.8361  2.1147
 1007MOL0     H38911   1.393  10.765   6.057 -0.1782 -0.8379  0.8534
 1007MOL0     H38912   1.494  10.805   5.916  1.8761 -0.3534  0.4126
 1007MOL0     H38913   1.594  10.693   6.190  0.0096 -0.1536  0.7303
 1007MOL0     H38914   1.692  10.736   6.046 -1.5199 -0.0830 -1.1103
 1007MOL0     H38915   1.542  11.047   5.995 -3.6139  1.7791  1.1648
 1007MOL0     H38916   1.653  11.337   6.212  2.4635 -0.2286  0.7392
 1007MOL0     H38917   1.590  11.290   6.053  1.1583  0.3726 -1.7050
 1007MOL0     H38918   1.819  11.221   5.998 -0.4937 -2.1175  2.4875
 1007MOL0     H38919   1.778  11.399   6.000  1.4220  2.0032  4.4776
 1007MOL0     H38920   1.886  11.408   6.236 -0.7999 -1.9879  1.4826
 1007MOL0     H38921   1.910  11.235   6.235 -0.9338  0.3771  1.1768
 1007MOL0     H38922   2.054  11.261   6.046 -1.2142 -0.9915  0.0826
 1007MOL0     H38923   2.030  11.439   6.074  0.7163  1.7911  3.8333
 1007MOL0     H38924   2.284  11.205   6.131  2.7192 -0.7100 -1.0087
 1007MOL0     H38925   2.380  10.865   6.195  2.4836  0.5184 -3.8974
 1007MOL0     H38926   2.496  10.939   6.292  0.7861  3.0862 -0.8442
 1007MOL0     H38927   2.463  11.014   6.139  1.7425 -0.2259 -0.6775
 1007MOL0     H38928   2.238  10.752   6.791  1.0226 -0.0504  1.1185
 1007MOL0     H38929   2.340  10.617   6.941  0.2056 -0.2559  0.1202
 1007MOL0     H38930   2.638  10.441   7.112  1.6076 -1.0706 -3.1320
 1007MOL0     H38931   2.473  10.481   7.081  1.1994 -1.6602  3.7316
 1007MOL0     H38932   2.483  10.414   6.849  1.0194  1.5593 -0.9500
 1007MOL0     H38933   2.653  10.359   6.879 -0.6246  1.5905 -3.4088
 1007MOL0     H38934   2.394  10.253   7.011 -0.9534 -3.3067  0.6043
 1007MOL0     H38935   2.558  10.225   7.068  0.3187 -2.3367 -0.4721
 1007MOL0     H38936   2.632  10.107   6.900 -0.2854  1.2847 -0.1547
 1007MOL0     H38937   2.513  10.160   6.775  1.5583 -0.4112 -0.5377
 1007MOL0     H38938   2.475   9.914   6.854 -0.5535  0.9213 -0.6784
 1007MOL0     H38939   2.452   9.973   7.004 -1.1309 -0.2549 -0.3280
 1007MOL0     H38940   2.255   9.920   6.845  0.9824 -0.2737  0.6173
 1007MOL0     H38941   2.296  10.052   6.743 -2.4183  2.6941  1.9631
 1007MOL0     H38942   2.213  10.226   6.911 -0.8154  1.3038  0.5612
 1007MOL0     H38943   2.205  10.101   7.039 -1.7259  3.7681  0.1890
 1007MOL0     H38944   2.054  10.091   6.768 -0.0056 -2.2533  0.3612
 1007MOL0     H38945   1.988  10.181   6.912  0.7605  0.8891  0.2267
 1007MOL0     H38946   2.730  10.784   6.818 -0.2163 -1.5968 -2.2266
 1007MOL0     H38947   2.621  10.927   6.667 -2.1984  0.5165 -2.9343
 1007MOL0     H38948   2.115  11.045   6.575 -0.2391 -5.0520 -1.6949
 1007MOL0     H38949   2.044  11.272   6.472  0.3112 -0.2573 -0.8107
 1007MOL0     H38950   1.188   9.932   6.509 -1.9085 -2.4610  0.5073
 1007MOL0     H38951   1.021   9.798   6.620  0.3588  0.2198  2.0265
 1007MOL0     H38952   0.434   9.999   6.849 -0.8190  1.2287 -2.0043
 1007MOL0     H38953   0.206   9.907   6.834  0.6022 -1.4623  3.6475
 1007MOL0     H38954  -0.004   9.757   6.577  1.8788  1.0163  0.1537
 1007MOL0     H38955   0.143   9.723   6.522 -0.5947  1.1597 -0.1480
 1007MOL0     H38956  -0.068   9.532   6.623  0.0689  0.4386 -0.2346
 1007MOL0     H38957   0.077   9.457   6.609 -2.1639 -1.4076 -0.2167
 1007MOL0     H38958   0.036   9.426   6.363 -2.4589 -2.9661  0.5195
 1007MOL0     H38959  -0.123   9.473   6.408 -1.3797  4.5209  2.4400
 1007MOL0     H38960   0.007   9.584   6.204  1.4401  3.2111 -2.3080
 1007MOL0     H38961   0.087   9.685   6.317  1.4367 -1.1577 -2.3545
 1007MOL0     H38962  -0.328   9.823   6.284  0.6803  3.4552  0.3072
 1007MOL0     H38963   0.335   9.586   6.602 -3.3246  1.6632 -0.8458
 1007MOL0     H38964   0.698   9.608   6.643 -0.2788 -0.2383 -0.6613
 1007MOL0     H38965   0.570   9.549   6.522  1.4415  0.6007 -1.3472
 1007MOL0     H38966   0.642   9.695   6.494  0.0302  1.5689 -0.1026
 1008MOL0     O38967   4.423   0.595   8.099  0.1518 -0.1478 -0.2654
 1008MOL0     C38968   4.526   0.648   8.129  0.0916 -0.8577 -0.5384
 1008MOL0     O38969   4.616   0.609   8.228  0.0961 -0.8660  0.0915
 1008MOL0     C38970   4.572   0.518   8.323  0.0624  0.4477  0.0640
 1008MOL0     C38971   4.533   0.569   8.444 -0.1089  0.2901  0.5717
 1008MOL0     C38972   4.476   0.491   8.541  0.4162 -0.7279 -0.2533
 1008MOL0     C38973   4.458   0.351   8.517  0.3783 -0.9948  0.1902
 1008MOL0     O38974   4.400   0.273   8.618 -0.3426 -0.0790  0.6483
 1008MOL0     C38975   4.299   0.174   8.601 -0.4515  0.1830  0.0520
 1008MOL0     C38976   4.165   0.236   8.645 -0.7674  1.1619 -0.6391
 1008MOL0     C38977   4.147   0.238   8.798 -0.1806  0.4354  0.8803
 1008MOL0     C38978   4.001   0.228   8.839  0.2228  0.1207 -0.2932
 1008MOL0     C38979   3.979   0.287   8.973  0.9291  0.2004 -0.5406
 1008MOL0     C38980   3.882   0.200   9.054 -1.4864 -0.0722  0.7073
 1008MOL0     C38981   3.808   0.244   9.178  0.0917 -0.5388 -0.1966
 1008MOL0     C38982   3.737   0.382   9.171 -0.6837  0.5078 -0.0306
 1008MOL0     N38983   3.631   0.376   9.065 -0.2778  0.0544 -0.1209
 1008MOL0     C38984   3.508   0.343   9.074  0.1252 -0.4508  0.2590
 1008MOL0     C38985   3.456   0.350   8.953  0.6558  0.2113 -0.2799
 1008MOL0     C38986   3.305   0.324   8.928 -0.1515  0.5743 -0.0377
 1008MOL0     C38987   3.260   0.348   8.778 -0.0464  0.1389  0.4801
 1008MOL0     C38988   3.188   0.231   8.719 -0.2359 -0.2436  0.1807
 1008MOL0     C38989   3.175   0.241   8.560 -1.3737 -0.8090  1.2802
 1008MOL0     O38990   3.096   0.133   8.510 -0.5731  0.5413  0.1390
 1008MOL0     C38991   3.061   0.130   8.378 -0.0627  0.7400  0.9010
 1008MOL0     C38992   3.121   0.206   8.268  0.4637 -0.8047  0.2257
 1008MOL0     C38993   3.069   0.190   8.137  0.0166  0.0258  0.3536
 1008MOL0     C38994   3.114   0.308   8.040 -0.0417 -0.3643 -0.2019
 1008MOL0     C38995   2.959   0.101   8.112  0.6254 -0.3654 -0.2225
 1008MOL0     C38996   2.885   0.089   7.985 -0.7248 -0.3264 -0.4573
 1008MOL0     O38997   2.755   0.047   7.987 -0.9798 -0.5221 -0.0508
 1008MOL0     C38998   2.685   0.021   7.871 -0.1492 -0.2937 -0.7631
 1008MOL0     C38999   2.601   0.117   7.809  0.5097  0.4544 -0.2744
 1008MOL0     C39000   2.521   0.082   7.697 -0.3853 -0.0170  0.1501
 1008MOL0     C39001   2.522  -0.049   7.647 -0.0417  0.4025  0.9105
 1008MOL0     O39002   2.437  -0.083   7.539  0.2425  0.5550  0.3539
 1008MOL0     C39003   2.475  -0.187   7.446 -1.0909  0.2607  0.1522
 1008MOL0     C39004   2.369  -0.212   7.338 -1.0591  0.5391  0.0873
 1008MOL0     C39005   2.276  -0.094   7.306  0.2914  0.2585  0.3063
 1008MOL0     C39006   2.331   0.040   7.254 -0.4728 -0.0316 -0.6367
 1008MOL0     C39007   2.429   0.026   7.129 -0.3843  0.4955 -0.4982
 1008MOL0     C39008   2.517   0.149   7.124 -1.0205  0.9148  0.3515
 1008MOL0     C39009   2.608   0.141   6.993 -0.0734 -0.7273  1.0997
 1008MOL0     C39010   2.713   0.257   6.981 -0.4039  0.3755  0.1105
 1008MOL0    Cl39011   2.619   0.417   6.983 -0.0754  0.1666  0.4026
 1008MOL0     C39012   2.617  -0.145   7.700  0.0124 -0.0914  0.5987
 1008MOL0     C39013   2.696  -0.105   7.810  0.0626  1.2936  0.0398
 1008MOL0     O39014   2.953   0.110   7.888 -0.4689  0.1715 -0.1046
 1008MOL0     C39015   2.911   0.022   8.221  0.9357  0.9895 -0.4543
 1008MOL0     C39016   2.960   0.049   8.352  1.1729  0.0073  0.3442
 1008MOL0     N39017   3.550   0.398   8.869  0.1573 -0.4421  0.1866
 1008MOL0     N39018   3.663   0.401   8.940 -0.1128  0.3305  0.8684
 1008MOL0     C39019   4.508   0.298   8.395  0.1259  0.0461 -0.5564
 1008MOL0     C39020   4.553   0.380   8.292 -1.2037 -0.7525  0.1826
 1008MOL0     C39021   4.580   0.756   8.033 -0.8099  0.4794 -0.1037
 1008MOL0     C39022   4.604   0.895   8.066 -0.2539  0.8120 -0.2094
 1008MOL0     C39023   4.651   0.983   7.972 -0.4425  0.2465  0.1940
 1008MOL0     C39024   4.673   0.947   7.840  0.0147  0.8565 -0.3654
 1008MOL0     O39025   4.685   1.066   7.757  0.1415  0.2946 -0.0306
 1008MOL0     C39026   4.761   1.044   7.643 -0.8613 -0.1922 -0.7337
 1008MOL0     C39027   4.827   1.176   7.595 -0.4614  0.1957 -0.2845
 1008MOL0     C39028   4.719   1.273   7.546  0.7396 -0.8092  0.0869
 1008MOL0     C39029   4.645   1.344   7.661 -0.1202  0.3738  0.3062
 1008MOL0     C39030   4.571   1.453   7.602  1.8284 -0.5353 -0.2035
 1008MOL0     C39031   4.498   1.537   7.562 -0.1676 -0.5368 -0.0019
 1008MOL0     C39032   4.649   0.820   7.800  0.2074 -0.4829 -0.3633
 1008MOL0     C39033   4.610   0.720   7.896 -1.0379  0.9308 -0.3020
 1008MOL0     C39034   4.579   0.584   7.846  0.6437  0.2065  0.2616
 1008MOL0     H39035   4.531   0.677   8.450 -0.7164  0.5696 -2.7747
 1008MOL0     H39036   4.436   0.553   8.621 -0.0994 -1.3170 -0.0476
 1008MOL0     H39037   4.329   0.085   8.656  0.1478  0.4695  0.1985
 1008MOL0     H39038   4.291   0.139   8.498 -0.4675  3.1966 -1.0996
 1008MOL0     H39039   4.143   0.332   8.597 -3.1925  0.2277 -1.5404
 1008MOL0     H39040   4.090   0.164   8.610  1.6580 -3.3369  2.5193
 1008MOL0     H39041   4.206   0.162   8.850  0.6922  0.3082 -0.2589
 1008MOL0     H39042   4.188   0.335   8.824  0.9564  0.5197 -1.0123
 1008MOL0     H39043   3.941   0.277   8.762 -0.1241 -0.5962 -0.4815
 1008MOL0     H39044   3.994   0.119   8.834  0.9909  0.1253 -3.8123
 1008MOL0     H39045   3.933   0.386   8.959  0.0852 -0.2022 -0.6934
 1008MOL0     H39046   4.067   0.310   9.033 -0.0222  0.7766  0.6944
 1008MOL0     H39047   3.804   0.168   8.985 -1.8796  2.8310 -0.3299
 1008MOL0     H39048   3.943   0.113   9.081  3.1334  1.7390 -2.5915
 1008MOL0     H39049   3.879   0.259   9.260 -1.0122  1.5804  0.4623
 1008MOL0     H39050   3.728   0.172   9.199 -0.1228 -2.0993 -5.1420
 1008MOL0     H39051   3.712   0.422   9.270 -1.4008  2.5895 -0.9976
 1008MOL0     H39052   3.806   0.455   9.129 -0.0362 -0.8906 -1.4807
 1008MOL0     H39053   3.468   0.285   9.157 -0.7748 -2.4740 -1.4924
 1008MOL0     H39054   3.259   0.398   8.994  0.9217 -0.4329  1.9298
 1008MOL0     H39055   3.276   0.226   8.965 -2.2048  2.5623  4.2528
 1008MOL0     H39056   3.187   0.429   8.776  0.0091  0.1747 -0.9291
 1008MOL0     H39057   3.347   0.374   8.718 -1.4987  2.4781 -0.7693
 1008MOL0     H39058   3.242   0.137   8.733 -0.2141 -0.4095 -0.9036
 1008MOL0     H39059   3.091   0.230   8.769 -0.0637 -0.9771  0.5191
 1008MOL0     H39060   3.123   0.330   8.522  0.1209  0.2408  1.5706
 1008MOL0     H39061   3.275   0.236   8.515 -1.7311 -1.5675  0.5562
 1008MOL0     H39062   3.218   0.252   8.283  0.1152 -0.2251  0.7307
 1008MOL0     H39063   3.101   0.292   7.933  1.6666 -0.7150 -0.3928
 1008MOL0     H39064   3.216   0.343   8.062 -0.2588  2.8235 -3.2805
 1008MOL0     H39065   3.053   0.396   8.065 -1.0993 -1.5907  1.7665
 1008MOL0     H39066   2.595   0.214   7.857 -0.8725 -0.3955  1.3598
 1008MOL0     H39067   2.456   0.153   7.645 -0.9449 -1.8492 -1.7923
 1008MOL0     H39068   2.566  -0.156   7.394 -0.7503 -1.3237 -0.2589
 1008MOL0     H39069   2.496  -0.281   7.498  0.0309  2.0993  3.2742
 1008MOL0     H39070   2.429  -0.241   7.251  0.5909  3.1362  0.2518
 1008MOL0     H39071   2.311  -0.302   7.360 -2.4843  1.0996 -1.2065
 1008MOL0     H39072   2.221  -0.070   7.397  1.9259  0.6191  1.2485
 1008MOL0     H39073   2.211  -0.111   7.220  1.0416  1.6200 -0.5711
 1008MOL0     H39074   2.386   0.098   7.329 -2.2270  1.4264 -0.3962
 1008MOL0     H39075   2.246   0.109   7.248 -2.0825 -1.0927  4.6438
 1008MOL0     H39076   2.497  -0.058   7.144  0.0833  1.2499  2.2922
 1008MOL0     H39077   2.368   0.011   7.040  1.1808  1.9691 -1.8908
 1008MOL0     H39078   2.587   0.154   7.208  0.7568  3.5101 -1.1441
 1008MOL0     H39079   2.465   0.245   7.117 -0.6555  1.0285 -1.6615
 1008MOL0     H39080   2.535   0.142   6.911 -1.7485 -0.6953  2.5304
 1008MOL0     H39081   2.654   0.042   6.987 -0.5725 -0.9214  0.3235
 1008MOL0     H39082   2.774   0.260   6.890 -0.8352 -1.1863 -0.2709
 1008MOL0     H39083   2.772   0.248   7.072  1.5875 -0.5198 -1.1958
 1008MOL0     H39084   2.632  -0.243   7.657  3.4713 -0.1976  1.7689
 1008MOL0     H39085   2.771  -0.174   7.846 -0.4541  0.9736  0.5298
 1008MOL0     H39086   2.830  -0.046   8.197  1.3475  0.5608 -0.6545
 1008MOL0     H39087   2.909  -0.009   8.428 -2.2098 -0.7774 -2.2984
 1008MOL0     H39088   4.507   0.189   8.390 -0.5102 -0.0611  1.3467
 1008MOL0     H39089   4.593   0.341   8.198  0.6162  1.0142  0.1574
 1008MOL0     H39090   4.587   0.945   8.162  1.2382 -0.4277  0.7463
 1008MOL0     H39091   4.652   1.091   7.979 -1.8629  0.3210 -0.5032
 1008MOL0     H39092   4.850   0.988   7.674  0.6291  2.4238  0.0391
 1008MOL0     H39093   4.702   0.992   7.567 -0.2574 -1.0807 -0.6110
 1008MOL0     H39094   4.898   1.150   7.516  0.7939 -2.8504  1.6720
 1008MOL0     H39095   4.874   1.225   7.681  3.1216 -0.6715 -1.5822
 1008MOL0     H39096   4.755   1.361   7.493  0.5138 -0.6106  0.2590
 1008MOL0     H39097   4.651   1.212   7.485 -0.1127 -1.6830  1.8364
 1008MOL0     H39098   4.722   1.377   7.731  3.9967  0.6973 -3.9312
 1008MOL0     H39099   4.573   1.281   7.716  0.6196 -1.0556 -0.3172
 1008MOL0     H39100   4.429   1.608   7.520  0.5923  1.6332  2.2054
 1008MOL0     H39101   4.658   0.792   7.695  3.0107 -3.3613  0.5011
 1008MOL0     H39102   4.473   0.561   7.834 -0.2230  3.3727  0.9333
 1008MOL0     H39103   4.640   0.576   7.755 -0.6639  1.8217 -0.8108
 1008MOL0     H39104   4.630   0.516   7.916  1.2274 -0.3516 -0.6777
 1009MOL0     O39105   8.157   5.264   4.731  0.0903 -0.0889 -0.4061
 1009MOL0     C39106   8.106   5.243   4.842  0.0295  1.0945  0.9057
 1009MOL0     O39107   8.068   5.121   4.897 -0.2208 -0.7545  0.5447
 1009MOL0     C39108   8.119   5.003   4.838 -0.0838  0.6435 -0.2428
 1009MOL0     C39109   8.253   4.994   4.796 -0.8256  0.3914 -0.2001
 1009MOL0     C39110   8.304   4.866   4.753 -0.6346 -0.4359  0.0018
 1009MOL0     C39111   8.231   4.748   4.750  0.5637  0.5968 -0.0076
 1009MOL0     O39112   8.300   4.637   4.714  0.3881 -0.7491 -0.5740
 1009MOL0     C39113   8.293   4.546   4.833 -0.1677  0.6680 -0.1752
 1009MOL0     C39114   8.336   4.403   4.796  0.2523 -0.0035  0.5495
 1009MOL0     C39115   8.297   4.300   4.910 -0.5997  0.4557  0.4323
 1009MOL0     C39116   8.302   4.157   4.876  0.3499 -0.5342  0.3288
 1009MOL0     C39117   8.263   4.059   4.992  0.3314 -0.4157  0.5484
 1009MOL0     C39118   8.242   3.901   4.959  0.5148 -0.3340  0.2334
 1009MOL0     C39119   8.142   3.876   4.839  0.7622  0.1161 -0.1907
 1009MOL0     C39120   8.132   3.725   4.815 -0.5083 -1.0947 -0.3874
 1009MOL0     N39121   8.242   3.668   4.739 -0.4132 -0.1854 -0.2723
 1009MOL0     C39122   8.314   3.546   4.758  0.4563 -0.2491  0.3177
 1009MOL0     C39123   8.409   3.555   4.663 -1.0855 -1.0131 -0.6782
 1009MOL0     C39124   8.516   3.460   4.654 -0.5056  0.3972 -0.3345
 1009MOL0     C39125   8.459   3.333   4.585 -0.5659  0.2520  0.3061
 1009MOL0     C39126   8.379   3.365   4.455 -0.5960  0.7446 -0.4180
 1009MOL0     C39127   8.335   3.240   4.394  0.2357  0.4852  0.3747
 1009MOL0     O39128   8.435   3.132   4.388 -0.1125  0.5844  0.2551
 1009MOL0     C39129   8.493   3.095   4.268  0.1158 -0.0763 -0.4549
 1009MOL0     C39130   8.507   3.180   4.154 -1.5807 -0.4240  0.0947
 1009MOL0     C39131   8.604   3.148   4.059  0.0683 -0.6115 -0.1490
 1009MOL0     C39132   8.619   3.265   3.953 -0.7311  0.0891  0.0215
 1009MOL0     C39133   8.694   3.038   4.060  0.3904 -0.3382 -0.2160
 1009MOL0     C39134   8.791   3.000   3.958  0.2811 -0.0320 -0.6705
 1009MOL0     O39135   8.893   2.916   3.995 -0.3388 -0.3178  0.2887
 1009MOL0     C39136   8.945   2.852   3.891  0.3867  0.1923  0.4119
 1009MOL0     C39137   8.885   2.735   3.843 -0.0314  0.6845  0.1310
 1009MOL0     C39138   8.915   2.673   3.722 -0.1906 -1.3145 -0.2560
 1009MOL0     C39139   9.010   2.734   3.647 -0.1355  0.0652  0.4364
 1009MOL0     O39140   9.071   2.673   3.541  0.4682  0.2080 -0.0034
 1009MOL0     C39141   9.035   2.544   3.490 -0.2057  0.5656 -0.0965
 1009MOL0     C39142   9.157   2.487   3.413  0.6739  0.4800 -0.6868
 1009MOL0     C39143   9.295   2.485   3.490  2.0372 -0.0715  0.2187
 1009MOL0     C39144   9.386   2.377   3.418 -0.0200  0.6722 -1.0883
 1009MOL0     C39145   9.461   2.456   3.309 -0.3684  0.0936 -0.5293
 1009MOL0     C39146   9.579   2.372   3.248 -1.0677 -0.4662 -0.2945
 1009MOL0     C39147   9.637   2.464   3.132 -0.7649  0.2921 -0.5292
 1009MOL0     C39148   9.745   2.386   3.050  0.0584 -0.2653 -0.3604
 1009MOL0    Cl39149   9.703   2.226   2.986  0.0343  0.0056  0.4005
 1009MOL0     C39150   9.070   2.855   3.682  0.1599 -0.1849  0.5996
 1009MOL0     C39151   9.039   2.917   3.801 -0.6580  0.5445  0.1681
 1009MOL0     O39152   8.750   3.024   3.837 -0.2664  0.1273  0.0670
 1009MOL0     C39153   8.680   2.956   4.178 -0.2803  0.0659  0.1747
 1009MOL0     C39154   8.587   2.990   4.281 -0.7376  0.7594  0.9194
 1009MOL0     N39155   8.402   3.665   4.590 -0.4205  0.6269 -1.0292
 1009MOL0     N39156   8.300   3.737   4.634  1.2452 -0.3977  1.2964
 1009MOL0     C39157   8.096   4.762   4.797  0.0416 -0.6142 -0.3000
 1009MOL0     C39158   8.042   4.884   4.841 -0.1985 -0.9514 -1.3673
 1009MOL0     C39159   8.063   5.360   4.913  0.1430 -0.9455 -0.5656
 1009MOL0     C39160   7.948   5.361   5.005 -0.6511 -0.4357 -0.2373
 1009MOL0     C39161   7.909   5.471   5.079  0.2315 -2.0010 -0.7374
 1009MOL0     C39162   7.995   5.591   5.085  0.0437  1.0563 -0.3928
 1009MOL0     O39163   7.979   5.716   5.142 -0.2466 -0.6528 -0.0210
 1009MOL0     C39164   7.844   5.759   5.180  0.0979 -0.7280 -0.0190
 1009MOL0     C39165   7.820   5.747   5.336 -1.2622 -0.2726  0.1263
 1009MOL0     C39166   7.696   5.820   5.383  0.1152 -0.3672  1.0417
 1009MOL0     C39167   7.677   5.824   5.537 -0.3426  0.2120  0.2260
 1009MOL0     C39168   7.742   5.953   5.574  0.7070 -0.2872 -0.1492
 1009MOL0     C39169   7.786   6.070   5.589 -0.4370  0.7479  0.5033
 1009MOL0     C39170   8.105   5.592   5.003 -0.0245  0.3472  0.4164
 1009MOL0     C39171   8.144   5.482   4.924  0.8332  0.6828 -0.6065
 1009MOL0     C39172   8.282   5.486   4.861 -1.1303  1.0629 -0.7760
 1009MOL0     H39173   8.314   5.083   4.812 -1.6539  1.1003 -0.9033
 1009MOL0     H39174   8.406   4.858   4.715 -0.0650 -2.1675  1.7795
 1009MOL0     H39175   8.194   4.541   4.879 -0.4592  0.5940 -0.8043
 1009MOL0     H39176   8.365   4.591   4.903  1.4204 -0.0786 -1.2715
 1009MOL0     H39177   8.285   4.370   4.705 -0.9174 -0.6126  1.3940
 1009MOL0     H39178   8.445   4.397   4.783  0.1015 -2.0711 -0.1010
 1009MOL0     H39179   8.354   4.322   5.000 -1.6169  0.1289  1.1841
 1009MOL0     H39180   8.193   4.316   4.940 -1.5061 -2.4582 -0.8006
 1009MOL0     H39181   8.226   4.139   4.799  0.9069 -2.1623  0.1016
 1009MOL0     H39182   8.401   4.129   4.839  0.2687  0.9574 -1.1335
 1009MOL0     H39183   8.169   4.103   5.026  1.5798  4.3715 -1.3854
 1009MOL0     H39184   8.336   4.066   5.073  2.0090 -2.9080 -0.6231
 1009MOL0     H39185   8.332   3.852   4.922  0.4026 -2.6417  2.7189
 1009MOL0     H39186   8.201   3.855   5.049 -3.9760  1.9212 -0.3451
 1009MOL0     H39187   8.175   3.933   4.752 -0.2688  0.4297 -0.3889
 1009MOL0     H39188   8.045   3.910   4.876 -0.2150 -0.7877 -1.7996
 1009MOL0     H39189   8.107   3.678   4.910 -2.7809  2.3991  0.9500
 1009MOL0     H39190   8.048   3.721   4.744  1.3185  4.6472 -3.4567
 1009MOL0     H39191   8.292   3.473   4.835  1.4450  0.8019  1.6490
 1009MOL0     H39192   8.559   3.456   4.755  1.5104  1.6718 -1.0865
 1009MOL0     H39193   8.597   3.495   4.589  0.8736  0.2139  1.2241
 1009MOL0     H39194   8.534   3.255   4.565 -1.5001 -0.2507 -1.4694
 1009MOL0     H39195   8.382   3.288   4.649 -1.3093  0.6027 -0.3202
 1009MOL0     H39196   8.287   3.422   4.476 -1.9475 -1.7932  1.0767
 1009MOL0     H39197   8.444   3.412   4.381 -1.1904  2.0421 -0.1541
 1009MOL0     H39198   8.248   3.211   4.454 -0.4050  1.3770 -0.1018
 1009MOL0     H39199   8.288   3.259   4.297 -2.1306  1.6745  1.6777
 1009MOL0     H39200   8.448   3.271   4.150 -1.0404 -0.0618 -3.9594
 1009MOL0     H39201   8.724   3.284   3.929 -0.7130 -0.4268 -0.3177
 1009MOL0     H39202   8.589   3.360   3.998  1.1331  1.2348 -1.0320
 1009MOL0     H39203   8.563   3.246   3.861  0.2541  0.4196 -0.6566
 1009MOL0     H39204   8.808   2.682   3.899 -1.8488  0.3879 -2.4735
 1009MOL0     H39205   8.868   2.585   3.679  2.4518 -2.1575 -1.6217
 1009MOL0     H39206   9.010   2.475   3.572  4.0627  0.5233  1.4497
 1009MOL0     H39207   8.952   2.552   3.420  1.4679  3.3147 -1.9600
 1009MOL0     H39208   9.127   2.387   3.383  2.3766  0.2318 -1.6620
 1009MOL0     H39209   9.172   2.554   3.328 -4.8538  1.6272 -1.1590
 1009MOL0     H39210   9.275   2.445   3.590  0.6456  2.1847  0.9224
 1009MOL0     H39211   9.338   2.584   3.508 -4.8110  4.1410 -2.5986
 1009MOL0     H39212   9.321   2.293   3.396  0.5505  0.5016 -2.2222
 1009MOL0     H39213   9.462   2.336   3.486 -0.4162  1.9749  0.1999
 1009MOL0     H39214   9.399   2.488   3.224 -0.4042  0.9610 -0.1867
 1009MOL0     H39215   9.501   2.539   3.367 -1.2418 -0.0177  0.2453
 1009MOL0     H39216   9.562   2.267   3.221 -2.4079 -0.6368  1.1147
 1009MOL0     H39217   9.661   2.356   3.319 -1.0606 -0.5902 -0.3310
 1009MOL0     H39218   9.684   2.553   3.173  1.3809 -1.4347  0.9799
 1009MOL0     H39219   9.560   2.493   3.060 -2.0032  0.2361  0.7318
 1009MOL0     H39220   9.839   2.371   3.104  1.7931  0.7648 -2.9037
 1009MOL0     H39221   9.771   2.456   2.970 -2.5810  0.2949 -0.8038
 1009MOL0     H39222   9.137   2.905   3.612  0.6138  3.1655  3.1871
 1009MOL0     H39223   9.090   3.012   3.811 -1.3207  1.0443 -0.9899
 1009MOL0     H39224   8.740   2.868   4.201 -0.4933 -1.0105 -2.9200
 1009MOL0     H39225   8.581   2.937   4.375  2.3858 -1.1289  0.2151
 1009MOL0     H39226   8.038   4.671   4.785  0.9083 -1.0753 -1.0589
 1009MOL0     H39227   7.946   4.889   4.891  0.5366  2.1835 -0.0172
 1009MOL0     H39228   7.884   5.275   5.018 -0.4416 -0.8005 -1.4460
 1009MOL0     H39229   7.816   5.467   5.135  0.9320  3.3812  1.4370
 1009MOL0     H39230   7.824   5.861   5.145 -1.4452 -0.6040  1.0978
 1009MOL0     H39231   7.774   5.690   5.132 -0.7817  0.0777  0.0559
 1009MOL0     H39232   7.905   5.798   5.380 -0.5995 -0.6979 -0.6314
 1009MOL0     H39233   7.815   5.642   5.364 -1.9925 -0.7520 -1.6581
 1009MOL0     H39234   7.672   5.915   5.335 -3.7627 -3.4384 -4.1496
 1009MOL0     H39235   7.607   5.759   5.361 -0.9368  0.4282  2.8887
 1009MOL0     H39236   7.725   5.738   5.585 -1.7416 -0.2666  0.8209
 1009MOL0     H39237   7.571   5.822   5.566 -0.1331  1.3379  1.1783
 1009MOL0     H39238   7.824   6.170   5.594  0.9864  0.2874 -0.5139
 1009MOL0     H39239   8.174   5.673   5.027  1.2230 -1.2349  2.5645
 1009MOL0     H39240   8.271   5.476   4.753  1.0473  0.1563 -0.9736
 1009MOL0     H39241   8.351   5.565   4.892  1.1619 -0.5766 -1.4241
 1009MOL0     H39242   8.344   5.399   4.886 -0.3135  2.1178  1.0786
 1010MOL0     O39243   9.410   0.178   6.913  0.0291 -0.5549  0.1118
 1010MOL0     C39244   9.479   0.249   6.836 -0.7942  0.6712 -0.5715
 1010MOL0     O39245   9.476   0.246   6.703 -0.3043  0.0779 -0.3252
 1010MOL0     C39246   9.401   0.147   6.643 -0.3166 -0.3363 -0.0335
 1010MOL0     C39247   9.270   0.132   6.660 -0.0322  0.7888  0.3872
 1010MOL0     C39248   9.198   0.023   6.591 -0.0294 -0.0944  0.2591
 1010MOL0     C39249   9.272  -0.062   6.506 -0.3772  0.2516  0.3446
 1010MOL0     O39250   9.219  -0.171   6.438  0.5403 -0.2531  0.0609
 1010MOL0     C39251   9.118  -0.256   6.494 -0.9353  0.4159  0.2585
 1010MOL0     C39252   9.099  -0.373   6.398 -0.0537 -1.0415  0.1257
 1010MOL0     C39253   8.992  -0.471   6.434  0.8817  0.0992 -1.2063
 1010MOL0     C39254   9.008  -0.588   6.338  0.1682  0.5330  0.0251
 1010MOL0     C39255   8.877  -0.680   6.345  0.1825  0.9164 -0.6891
 1010MOL0     C39256   8.878  -0.794   6.244  0.4747  0.4308 -1.3786
 1010MOL0     C39257   8.763  -0.879   6.296 -0.2146 -1.5459  0.2311
 1010MOL0     C39258   8.690  -0.938   6.179 -0.0658 -0.0535 -0.4429
 1010MOL0     N39259   8.580  -1.025   6.217  0.1204 -0.5640 -0.8212
 1010MOL0     C39260   8.582  -1.161   6.217  0.0593  0.3830 -0.9747
 1010MOL0     C39261   8.458  -1.192   6.259 -0.0652 -0.4648 -0.4758
 1010MOL0     C39262   8.423  -1.337   6.273  0.7211  0.5869  0.2342
 1010MOL0     C39263   8.278  -1.374   6.293 -0.8712 -1.1284 -0.8635
 1010MOL0     C39264   8.289  -1.513   6.348 -1.2218  0.0414 -0.2888
 1010MOL0     C39265   8.161  -1.592   6.375 -0.7828  0.3142 -0.5037
 1010MOL0     O39266   8.059  -1.517   6.446 -0.1290  0.3505  0.5343
 1010MOL0     C39267   7.932  -1.520   6.386 -0.4581 -0.0895 -0.3801
 1010MOL0     C39268   7.873  -1.638   6.345  0.4391 -0.5163  0.5200
 1010MOL0     C39269   7.749  -1.640   6.270 -0.4436  1.0773  0.2101
 1010MOL0     C39270   7.705  -1.772   6.225 -0.1657  0.2096  1.0167
 1010MOL0     C39271   7.669  -1.531   6.254 -0.2148 -0.2619  1.5168
 1010MOL0     C39272   7.519  -1.528   6.206  0.4952  0.1390 -0.4625
 1010MOL0     O39273   7.494  -1.419   6.112 -0.6266  0.4833 -0.0445
 1010MOL0     C39274   7.373  -1.407   6.061 -0.6196  0.2431  0.2887
 1010MOL0     C39275   7.375  -1.359   5.929  0.7366  1.0559  1.8329
 1010MOL0     C39276   7.252  -1.347   5.858  0.5173 -0.5662 -0.9934
 1010MOL0     C39277   7.125  -1.380   5.917 -0.6196  0.0744  0.6334
 1010MOL0     O39278   7.005  -1.334   5.865 -0.1861  0.2734 -0.2789
 1010MOL0     C39279   6.939  -1.418   5.774 -0.2428 -0.9628  0.0058
 1010MOL0     C39280   6.801  -1.361   5.725 -0.2983  1.0909  0.6196
 1010MOL0     C39281   6.760  -1.454   5.610  0.5133  0.2643 -0.1646
 1010MOL0     C39282   6.610  -1.441   5.575  0.9624  0.1464 -0.1784
 1010MOL0     C39283   6.556  -1.516   5.449 -0.3198  0.4806 -0.1971
 1010MOL0     C39284   6.615  -1.651   5.433  0.0226  0.4539 -0.4548
 1010MOL0     C39285   6.513  -1.741   5.372 -0.1703  1.2559  0.0108
 1010MOL0     C39286   6.555  -1.890   5.346 -0.2070  0.0155  0.5046
 1010MOL0    Cl39287   6.660  -1.887   5.194  0.3008  0.0770  0.3010
 1010MOL0     C39288   7.132  -1.441   6.044 -0.4967 -0.1622 -0.1976
 1010MOL0     C39289   7.251  -1.446   6.117 -0.0077 -0.1549 -0.9853
 1010MOL0     O39290   7.451  -1.622   6.236  0.3608  0.4438  0.1797
 1010MOL0     C39291   7.727  -1.409   6.299  0.3475 -0.6516  0.5346
 1010MOL0     C39292   7.856  -1.411   6.365  1.1615 -0.3065 -0.1780
 1010MOL0     N39293   8.387  -1.074   6.295  1.1517 -0.7618 -0.2289
 1010MOL0     N39294   8.466  -0.979   6.284 -0.5709 -0.4940  0.4986
 1010MOL0     C39295   9.412  -0.039   6.486 -0.7030 -0.5433  0.5124
 1010MOL0     C39296   9.476   0.060   6.562  0.1662 -0.4292  0.4139
 1010MOL0     C39297   9.586   0.341   6.893 -0.2914  0.5846  0.6223
 1010MOL0     C39298   9.656   0.428   6.800  0.1779 -0.2085  0.0325
 1010MOL0     C39299   9.744   0.522   6.847 -0.2515  0.0310 -0.0021
 1010MOL0     C39300   9.768   0.540   6.982  0.4438 -0.5589  0.9307
 1010MOL0     O39301   9.860   0.640   7.016 -0.2248  0.4516 -0.0438
 1010MOL0     C39302   9.803   0.762   7.064  0.2739 -0.1278 -0.3946
 1010MOL0     C39303   9.871   0.871   6.983 -0.1018 -0.5728 -0.0524
 1010MOL0     C39304  10.013   0.893   7.020 -0.4484 -0.7489 -0.3697
 1010MOL0     C39305  10.036   0.958   7.149 -0.5283 -0.4206 -0.0197
 1010MOL0     C39306   9.969   1.090   7.163 -0.1406 -0.1660 -0.3029
 1010MOL0     C39307   9.903   1.196   7.151  0.9316  0.1794  0.4129
 1010MOL0     C39308   9.700   0.464   7.074  0.4789  0.4097  0.6343
 1010MOL0     C39309   9.615   0.364   7.033 -0.6407  0.0346 -0.1398
 1010MOL0     C39310   9.551   0.273   7.136 -0.3093  0.7017 -0.5829
 1010MOL0     H39311   9.217   0.195   6.731 -3.1746 -0.2714 -0.8563
 1010MOL0     H39312   9.093   0.025   6.619 -0.1317  0.0983 -0.1390
 1010MOL0     H39313   9.017  -0.214   6.502 -0.9718  0.0523  2.5897
 1010MOL0     H39314   9.151  -0.288   6.593 -1.7540  0.4710  0.5583
 1010MOL0     H39315   9.082  -0.318   6.304  1.5130 -0.1341  0.3293
 1010MOL0     H39316   9.191  -0.431   6.389  0.6326 -0.1037  0.9454
 1010MOL0     H39317   9.001  -0.511   6.535  3.0542 -1.5775 -1.9837
 1010MOL0     H39318   8.893  -0.424   6.423  0.8197  0.5411  0.8932
 1010MOL0     H39319   9.034  -0.547   6.240  0.1419  0.1683 -0.1384
 1010MOL0     H39320   9.097  -0.639   6.378  0.1151  2.4308  2.8707
 1010MOL0     H39321   8.787  -0.619   6.331 -0.8595  0.0440  1.7088
 1010MOL0     H39322   8.876  -0.715   6.449  3.7853 -0.5688 -1.0124
 1010MOL0     H39323   8.847  -0.748   6.150  0.5763  0.5740 -1.3423
 1010MOL0     H39324   8.978  -0.838   6.243  0.2479 -0.2266  0.5622
 1010MOL0     H39325   8.681  -0.830   6.348 -1.9000 -2.0841 -1.8023
 1010MOL0     H39326   8.804  -0.954   6.365  0.0967  0.7397  2.7330
 1010MOL0     H39327   8.642  -0.858   6.121 -5.4747 -3.1217 -0.7590
 1010MOL0     H39328   8.766  -0.993   6.123  1.3130 -0.5487  1.8004
 1010MOL0     H39329   8.653  -1.227   6.169 -0.6670  0.3965 -2.1269
 1010MOL0     H39330   8.479  -1.357   6.365 -1.4806 -0.9068  1.3398
 1010MOL0     H39331   8.464  -1.376   6.180  0.2758  1.0970 -0.1780
 1010MOL0     H39332   8.230  -1.307   6.365  1.8382  0.2448 -0.1926
 1010MOL0     H39333   8.237  -1.374   6.192  1.3000 -2.2855 -1.8217
 1010MOL0     H39334   8.359  -1.570   6.285  0.7804 -1.1302  2.7418
 1010MOL0     H39335   8.337  -1.515   6.446 -0.4399 -1.8769 -0.6586
 1010MOL0     H39336   8.119  -1.622   6.279 -1.6457  0.0376 -0.0536
 1010MOL0     H39337   8.179  -1.690   6.422  1.4700  1.2044  0.6300
 1010MOL0     H39338   7.927  -1.730   6.363 -0.5712 -1.1044  0.6315
 1010MOL0     H39339   7.651  -1.762   6.131 -0.0689 -2.9662  0.5062
 1010MOL0     H39340   7.633  -1.817   6.295 -0.5195  0.2607  0.6871
 1010MOL0     H39341   7.791  -1.840   6.216 -0.2914 -0.0073  1.4088
 1010MOL0     H39342   7.478  -1.344   5.896  0.7687 -0.5462  1.1509
 1010MOL0     H39343   7.260  -1.302   5.759 -1.1207 -1.8430 -1.7684
 1010MOL0     H39344   6.997  -1.415   5.682  0.2629  0.8331  0.3324
 1010MOL0     H39345   6.926  -1.523   5.804  0.5271 -0.4566  2.4084
 1010MOL0     H39346   6.735  -1.379   5.810 -0.4603  1.3166  0.5404
 1010MOL0     H39347   6.779  -1.261   5.687  0.6844  2.1129  2.6175
 1010MOL0     H39348   6.786  -1.557   5.635  1.3751  0.7273  0.9458
 1010MOL0     H39349   6.817  -1.416   5.524 -2.4488  2.7066 -1.2330
 1010MOL0     H39350   6.584  -1.336   5.563 -1.9210 -0.1880  1.9188
 1010MOL0     H39351   6.555  -1.469   5.666 -0.2684  1.1329 -0.5891
 1010MOL0     H39352   6.446  -1.518   5.450 -0.4073  2.8633 -0.7552
 1010MOL0     H39353   6.585  -1.461   5.359  1.6680 -1.7392 -1.0114
 1010MOL0     H39354   6.647  -1.685   5.532  0.0465 -1.2360 -1.0061
 1010MOL0     H39355   6.699  -1.639   5.364  1.7363 -0.8015  1.2784
 1010MOL0     H39356   6.471  -1.705   5.277 -0.7188 -1.4214 -0.8633
 1010MOL0     H39357   6.432  -1.738   5.446 -0.4302 -0.7141 -0.1291
 1010MOL0     H39358   6.463  -1.939   5.314  1.4506 -2.5792 -0.6805
 1010MOL0     H39359   6.605  -1.942   5.428 -1.3744 -2.9976 -0.5496
 1010MOL0     H39360   7.040  -1.488   6.076  0.2963 -3.4625 -2.2681
 1010MOL0     H39361   7.252  -1.484   6.219  0.5080  2.7947  0.2110
 1010MOL0     H39362   7.674  -1.314   6.292  1.6079  0.2543  2.5285
 1010MOL0     H39363   7.887  -1.321   6.417  0.2711 -1.2654  2.1315
 1010MOL0     H39364   9.463  -0.105   6.416  2.4374  3.5308 -1.4313
 1010MOL0     H39365   9.582   0.081   6.564  0.5403 -1.9477 -0.8423
 1010MOL0     H39366   9.643   0.419   6.693 -0.2710 -0.8200  0.1348
 1010MOL0     H39367   9.782   0.590   6.771 -0.7179 -0.6216 -0.8468
 1010MOL0     H39368   9.695   0.763   7.048 -0.0455 -1.7128  1.3180
 1010MOL0     H39369   9.811   0.765   7.173 -0.6388 -2.4594 -0.1962
 1010MOL0     H39370   9.806   0.957   7.000 -3.4242 -2.4205 -2.1908
 1010MOL0     H39371   9.863   0.846   6.876  1.9532 -0.2880 -0.3094
 1010MOL0     H39372  10.070   0.801   7.012 -0.3219 -1.0359  2.5332
 1010MOL0     H39373  10.052   0.969   6.952  0.1408  3.9567  4.4927
 1010MOL0     H39374  10.141   0.971   7.177 -1.3928  3.0385  2.2553
 1010MOL0     H39375  10.000   0.883   7.220  1.7826 -1.0293  0.6019
 1010MOL0     H39376   9.861   1.293   7.163 -0.5708 -0.4650  0.6195
 1010MOL0     H39377   9.709   0.465   7.182 -0.3531 -2.0990  0.7904
 1010MOL0     H39378   9.589   0.287   7.238 -1.6560  2.3841 -0.2453
 1010MOL0     H39379   9.442   0.277   7.146 -0.1889  1.6097  0.6773
 1010MOL0     H39380   9.574   0.168   7.121 -2.2316  0.3719 -1.5078
 1011MOL0     O39381  10.689   8.253   2.940  0.2274  0.2952  0.5722
 1011MOL0     C39382  10.628   8.351   2.991 -0.5656 -0.2615  0.1908
 1011MOL0     O39383  10.676   8.420   3.111  0.1239  0.0423 -0.0615
 1011MOL0     C39384  10.802   8.379   3.146  0.0613 -0.3062 -0.3335
 1011MOL0     C39385  10.918   8.416   3.077 -0.8883 -0.6341 -0.5972
 1011MOL0     C39386  11.042   8.375   3.119 -1.0525 -0.8055 -0.8687
 1011MOL0     C39387  11.057   8.277   3.216 -0.2864  0.7722 -0.2226
 1011MOL0     O39388  11.183   8.230   3.235 -0.4682  0.0298 -0.5796
 1011MOL0     C39389  11.200   8.112   3.320  0.1282  0.7450  0.9743
 1011MOL0     C39390  11.348   8.080   3.319  0.1691 -0.3871  0.1313
 1011MOL0     C39391  11.444   8.198   3.364 -0.5368  0.1225 -0.8015
 1011MOL0     C39392  11.584   8.155   3.386  0.1762  0.2286 -0.9518
 1011MOL0     C39393  11.599   8.089   3.528 -0.5541 -0.4123  0.7596
 1011MOL0     C39394  11.631   8.205   3.625 -0.5426 -0.4906  0.1835
 1011MOL0     C39395  11.736   8.161   3.732 -0.1234 -1.3865  0.0092
 1011MOL0     C39396  11.736   8.271   3.847 -0.1996  0.5740  1.4385
 1011MOL0     N39397  11.821   8.390   3.809 -0.3189  0.9319  0.0434
 1011MOL0     C39398  11.774   8.510   3.765 -0.3635  0.2511  0.1707
 1011MOL0     C39399  11.876   8.581   3.721  0.0927  0.0504  0.5815
 1011MOL0     C39400  11.867   8.717   3.657  0.2271  0.2640 -0.0370
 1011MOL0     C39401  11.757   8.734   3.551 -0.3011 -0.6332  0.3431
 1011MOL0     C39402  11.739   8.873   3.475 -0.5799 -1.4911 -0.9097
 1011MOL0     C39403  11.762   8.998   3.556  0.3999  0.5803  0.0587
 1011MOL0     O39404  11.728   8.988   3.693  0.3890  0.4104 -1.1826
 1011MOL0     C39405  11.599   8.988   3.736  0.6024 -0.3756  0.1313
 1011MOL0     C39406  11.568   8.967   3.867  0.0476 -0.9908  0.1272
 1011MOL0     C39407  11.436   8.971   3.912  0.2394  0.3177 -0.3868
 1011MOL0     C39408  11.424   8.946   4.059  0.1376  0.0734 -0.3763
 1011MOL0     C39409  11.323   8.977   3.827  0.4047  0.2154  0.3633
 1011MOL0     C39410  11.177   8.952   3.867 -0.2023  0.9779 -0.6931
 1011MOL0     O39411  11.078   8.990   3.777  0.3820 -0.0725 -0.2553
 1011MOL0     C39412  10.947   8.974   3.808 -0.7428 -0.6878 -0.4126
 1011MOL0     C39413  10.887   8.845   3.805 -0.4615 -1.2832  0.1582
 1011MOL0     C39414  10.748   8.829   3.831  0.4377 -0.2243  0.1176
 1011MOL0     C39415  10.672   8.944   3.854 -0.0504  0.6045 -0.3675
 1011MOL0     O39416  10.533   8.942   3.881  0.7519  0.0775 -0.4909
 1011MOL0     C39417  10.496   8.832   3.962 -0.1975 -0.0443 -0.4126
 1011MOL0     C39418  10.357   8.871   4.021  0.1401 -0.0853 -0.6890
 1011MOL0     C39419  10.304   8.762   4.104  1.1319  1.0839 -0.2570
 1011MOL0     C39420  10.359   8.770   4.251 -0.0730 -0.0718  0.1528
 1011MOL0     C39421  10.300   8.665   4.346 -0.5093  0.1494  0.0522
 1011MOL0     C39422  10.169   8.699   4.397 -0.7154  0.1447 -0.8314
 1011MOL0     C39423  10.091   8.564   4.420  0.5910 -0.4171  0.0538
 1011MOL0     C39424  10.017   8.535   4.293 -0.2618  0.4581  0.7287
 1011MOL0    Cl39425   9.865   8.631   4.293 -0.4979  0.1586 -0.3318
 1011MOL0     C39426  10.722   9.077   3.847  0.8829  0.7882 -0.4918
 1011MOL0     C39427  10.865   9.092   3.812  0.6237  0.6629 -0.3055
 1011MOL0     O39428  11.162   8.907   3.982  0.5438  0.3362  0.1962
 1011MOL0     C39429  11.358   8.995   3.694  0.9049 -0.5333 -0.1069
 1011MOL0     C39430  11.487   9.003   3.643 -0.4080  0.8265 -0.5645
 1011MOL0     N39431  11.993   8.503   3.743  0.8720  0.3897  0.0775
 1011MOL0     N39432  11.954   8.388   3.794 -0.5632 -0.2614  0.0854
 1011MOL0     C39433  10.941   8.251   3.291 -0.4901  0.5938 -0.2966
 1011MOL0     C39434  10.817   8.299   3.252  0.3633  0.3580 -0.5186
 1011MOL0     C39435  10.493   8.388   2.933 -0.5766  0.2707  0.1549
 1011MOL0     C39436  10.491   8.392   2.793  1.2865 -0.3649 -0.3580
 1011MOL0     C39437  10.388   8.445   2.719  0.3431  1.1716 -0.2095
 1011MOL0     C39438  10.275   8.481   2.786  0.6223  0.9484  0.3468
 1011MOL0     O39439  10.162   8.527   2.717  0.1940 -0.8988  0.2017
 1011MOL0     C39440  10.070   8.626   2.776  0.0757 -0.0657 -0.8976
 1011MOL0     C39441   9.943   8.564   2.826  0.2485 -0.4062  0.5853
 1011MOL0     C39442   9.884   8.659   2.941  0.1749  1.3585  0.7073
 1011MOL0     C39443   9.848   8.799   2.902  0.8277 -0.3354 -0.0798
 1011MOL0     C39444   9.791   8.856   3.024  0.4757 -0.7567 -0.2683
 1011MOL0     C39445   9.731   8.919   3.101 -0.2704 -0.9985 -0.3621
 1011MOL0     C39446  10.270   8.463   2.922 -0.1247  0.4913  0.8121
 1011MOL0     C39447  10.373   8.407   3.004  0.1470 -1.8655 -0.2477
 1011MOL0     C39448  10.353   8.375   3.145 -0.6249 -0.8743 -0.4570
 1011MOL0     H39449  10.915   8.497   3.004 -0.2361 -0.6341 -0.6290
 1011MOL0     H39450  11.130   8.417   3.072  1.6250 -1.2736  3.1852
 1011MOL0     H39451  11.129   8.034   3.290 -0.4822  1.5081  0.3858
 1011MOL0     H39452  11.173   8.137   3.423 -1.6206  2.2959  0.2004
 1011MOL0     H39453  11.359   7.991   3.381 -1.0931 -0.3580  0.4237
 1011MOL0     H39454  11.375   8.048   3.218 -0.7060  1.9960 -0.9236
 1011MOL0     H39455  11.428   8.277   3.290 -0.7292  2.0275  1.1695
 1011MOL0     H39456  11.414   8.251   3.455  0.3268 -0.2610 -0.2846
 1011MOL0     H39457  11.596   8.087   3.301 -0.1874  0.8335 -1.4937
 1011MOL0     H39458  11.664   8.230   3.374  1.8567 -1.5933 -1.6275
 1011MOL0     H39459  11.670   8.006   3.532 -0.0551 -0.0646 -0.2747
 1011MOL0     H39460  11.501   8.045   3.548 -2.1697  0.6410 -3.6405
 1011MOL0     H39461  11.662   8.297   3.573 -1.1297 -1.2401 -1.5869
 1011MOL0     H39462  11.532   8.234   3.662 -0.6086 -0.0759 -0.2957
 1011MOL0     H39463  11.834   8.146   3.685 -0.1314 -2.7049  0.3833
 1011MOL0     H39464  11.713   8.061   3.768  1.2007 -0.5676  3.4783
 1011MOL0     H39465  11.635   8.301   3.877 -0.5186  0.6775  0.3214
 1011MOL0     H39466  11.777   8.224   3.936 -0.4037 -1.6156  0.4361
 1011MOL0     H39467  11.668   8.535   3.753 -0.5424 -1.0563 -1.2390
 1011MOL0     H39468  11.964   8.723   3.606 -0.6603  0.8197 -1.7415
 1011MOL0     H39469  11.866   8.800   3.728  2.7040 -0.5916  1.1216
 1011MOL0     H39470  11.778   8.651   3.483  2.2543 -2.0222  2.5986
 1011MOL0     H39471  11.663   8.701   3.596 -2.8408  0.8465 -3.4012
 1011MOL0     H39472  11.810   8.883   3.393  0.6101  2.9957  0.3766
 1011MOL0     H39473  11.638   8.865   3.433 -1.7843 -0.5625  1.5927
 1011MOL0     H39474  11.870   9.012   3.562  0.2291  1.4690  1.2358
 1011MOL0     H39475  11.717   9.090   3.517  0.6288  2.2418  3.4095
 1011MOL0     H39476  11.644   8.937   3.939  2.3874 -0.8794 -2.1532
 1011MOL0     H39477  11.522   8.929   4.105 -0.7327  2.8841  2.9788
 1011MOL0     H39478  11.367   8.866   4.106  3.5713 -1.3677  1.7361
 1011MOL0     H39479  11.389   9.042   4.099 -1.6126  1.8893 -5.4358
 1011MOL0     H39480  10.943   8.753   3.791  1.1778 -0.2024 -0.6473
 1011MOL0     H39481  10.709   8.728   3.841 -0.9550  0.4839  2.5717
 1011MOL0     H39482  10.482   8.750   3.891 -0.5746  1.1843 -1.8230
 1011MOL0     H39483  10.568   8.814   4.042  0.5842 -4.1781 -1.7739
 1011MOL0     H39484  10.349   8.967   4.072 -0.5515 -0.9021  0.7947
 1011MOL0     H39485  10.302   8.874   3.926 -1.0150  0.2205 -0.0331
 1011MOL0     H39486  10.326   8.662   4.065 -0.3559  0.6809 -0.1267
 1011MOL0     H39487  10.196   8.778   4.099  0.8583 -0.6029 -0.2309
 1011MOL0     H39488  10.335   8.871   4.287  2.3476 -0.2961  2.8213
 1011MOL0     H39489  10.467   8.760   4.237 -0.2730 -2.7183  0.0423
 1011MOL0     H39490  10.301   8.565   4.302  1.9824 -1.5087  3.4012
 1011MOL0     H39491  10.366   8.657   4.433  1.1272  0.8712 -1.0698
 1011MOL0     H39492  10.119   8.781   4.345 -1.1475  1.0104  0.9000
 1011MOL0     H39493  10.166   8.744   4.496 -3.1854  0.0326 -0.8040
 1011MOL0     H39494  10.033   8.566   4.512 -0.9432 -1.8892 -0.8194
 1011MOL0     H39495  10.163   8.483   4.438  1.7301  1.4269  5.3936
 1011MOL0     H39496   9.988   8.430   4.292  0.1663  0.3054  1.8971
 1011MOL0     H39497  10.067   8.553   4.198 -0.8581 -1.2819  0.0425
 1011MOL0     H39498  10.658   9.165   3.848  3.2327  2.6197 -1.5056
 1011MOL0     H39499  10.920   9.185   3.802  2.5150 -0.3228  0.4675
 1011MOL0     H39500  11.269   9.018   3.636  1.9618  4.2660 -0.1950
 1011MOL0     H39501  11.503   9.017   3.537  1.3356  2.4498 -0.1397
 1011MOL0     H39502  10.949   8.172   3.365 -4.4752  0.7905  0.5372
 1011MOL0     H39503  10.741   8.273   3.324  0.4253 -2.0205 -1.2478
 1011MOL0     H39504  10.582   8.350   2.751  2.3001 -1.0580  2.2805
 1011MOL0     H39505  10.397   8.445   2.611 -0.0395  1.7630 -0.2456
 1011MOL0     H39506  10.129   8.683   2.849  0.6668 -0.6296 -0.9204
 1011MOL0     H39507  10.052   8.700   2.698 -2.8916  0.8436  0.5289
 1011MOL0     H39508   9.961   8.464   2.867  1.8103 -1.2211 -1.8805
 1011MOL0     H39509   9.869   8.541   2.750  0.3576 -0.9197  0.6264
 1011MOL0     H39510   9.792   8.610   2.974 -0.3207  0.8070 -1.3532
 1011MOL0     H39511   9.941   8.654   3.035 -3.7789 -2.2543  3.3160
 1011MOL0     H39512   9.779   8.798   2.818  0.1719 -0.8871  0.4576
 1011MOL0     H39513   9.933   8.865   2.881 -0.0120  0.9426  0.4322
 1011MOL0     H39514   9.694   8.975   3.185 -1.2737 -0.0381 -1.4044
 1011MOL0     H39515  10.178   8.486   2.975 -3.1042 -0.8343 -3.2488
 1011MOL0     H39516  10.254   8.397   3.185 -0.6332 -0.8153 -0.5110
 1011MOL0     H39517  10.378   8.269   3.157 -1.1142 -0.6839  4.1100
 1011MOL0     H39518  10.433   8.431   3.195  0.6377 -3.5855  0.8038
 1012MOL0     O39519   3.015   1.099   8.665  0.4106 -0.0705  0.3238
 1012MOL0     C39520   2.903   1.136   8.711  0.1991  0.5954 -0.8359
 1012MOL0     O39521   2.783   1.082   8.676  0.5526  0.5247 -0.3746
 1012MOL0     C39522   2.796   0.978   8.590  0.8785  0.9632 -0.4931
 1012MOL0     C39523   2.773   0.986   8.457 -0.6847  0.2115 -0.2147
 1012MOL0     C39524   2.791   0.878   8.369  0.0899  0.9601 -0.8003
 1012MOL0     C39525   2.835   0.752   8.420  0.0190  0.2223 -0.0341
 1012MOL0     O39526   2.879   0.641   8.351 -0.3660  0.2724  0.4040
 1012MOL0     C39527   2.862   0.637   8.214  0.8927  0.3066  1.1272
 1012MOL0     C39528   2.795   0.497   8.176  0.2084 -0.2511  1.0010
 1012MOL0     C39529   2.785   0.483   8.019 -0.1153  0.5897  0.7934
 1012MOL0     C39530   2.657   0.539   7.964  0.5440 -0.2075  0.0450
 1012MOL0     C39531   2.629   0.537   7.814  0.9429 -0.6342  0.7910
 1012MOL0     C39532   2.498   0.602   7.779  0.4043 -0.7230  1.0480
 1012MOL0     C39533   2.423   0.520   7.664 -0.5064 -0.3846  0.4165
 1012MOL0     C39534   2.279   0.571   7.630 -0.3373  0.6617 -0.7335
 1012MOL0     N39535   2.227   0.493   7.511  0.6221 -0.5432 -0.6437
 1012MOL0     C39536   2.152   0.379   7.546  0.8647 -0.4249  0.0405
 1012MOL0     C39537   2.123   0.323   7.422  0.3495  0.2458  0.1446
 1012MOL0     C39538   2.013   0.225   7.382 -1.1254 -0.2820 -0.3593
 1012MOL0     C39539   1.869   0.277   7.417 -0.2232  0.3042 -0.1056
 1012MOL0     C39540   1.763   0.185   7.346 -0.2677 -0.0272  0.3568
 1012MOL0     C39541   1.619   0.239   7.358 -0.5211  0.1749 -0.3599
 1012MOL0     O39542   1.574   0.250   7.491  0.0389 -0.7425 -0.4335
 1012MOL0     C39543   1.444   0.253   7.522  0.1469 -0.7569 -0.7354
 1012MOL0     C39544   1.415   0.215   7.657  0.7049  0.8764  0.6898
 1012MOL0     C39545   1.283   0.218   7.705 -0.4410  0.4950  0.3419
 1012MOL0     C39546   1.244   0.194   7.847  0.2509  0.0266 -0.3554
 1012MOL0     C39547   1.181   0.246   7.615  0.0869  0.5557 -0.6397
 1012MOL0     C39548   1.034   0.242   7.649 -0.7891  0.3849 -0.1282
 1012MOL0     O39549   0.994   0.103   7.660 -0.0538 -0.1374 -0.4059
 1012MOL0     C39550   0.877   0.090   7.729 -0.5495  0.7772 -0.4131
 1012MOL0     C39551   0.763   0.039   7.663 -0.6856 -0.4233 -0.0767
 1012MOL0     C39552   0.648  -0.010   7.734  0.4603 -0.6835  0.4263
 1012MOL0     C39553   0.639   0.009   7.865  0.2168 -0.6267 -0.5783
 1012MOL0     O39554   0.520  -0.026   7.919 -0.2829 -0.7213  0.3778
 1012MOL0     C39555   0.475   0.033   8.045  0.2261  0.3334  0.5690
 1012MOL0     C39556   0.326   0.017   8.052  0.7696  0.3184  1.2718
 1012MOL0     C39557   0.268   0.093   8.170  0.1161  0.1617 -1.2252
 1012MOL0     C39558   0.128   0.036   8.218 -0.7548 -0.5816 -0.0278
 1012MOL0     C39559   0.059   0.135   8.307 -0.4731 -0.6634 -0.3294
 1012MOL0     C39560  -0.073   0.093   8.369 -0.3675 -0.0563 -0.6250
 1012MOL0     C39561  -0.056  -0.008   8.480 -0.5214 -0.7650 -0.4301
 1012MOL0     C39562  -0.195  -0.039   8.546 -0.4093  0.0380 -0.4470
 1012MOL0    Cl39563  -0.171  -0.169   8.671  0.0854 -0.0007 -0.1302
 1012MOL0     C39564   0.748   0.059   7.936 -0.3908  0.5486 -0.4157
 1012MOL0     C39565   0.869   0.093   7.863  0.2655 -0.6400 -0.0786
 1012MOL0     O39566   0.965   0.336   7.687  0.6819 -0.1011 -0.2550
 1012MOL0     C39567   1.205   0.280   7.482 -0.8406 -1.1647  0.4001
 1012MOL0     C39568   1.337   0.284   7.438  0.3506 -0.6409 -0.2022
 1012MOL0     N39569   2.191   0.392   7.318 -0.0828  0.4850 -0.7210
 1012MOL0     N39570   2.253   0.488   7.381  0.0991 -0.3805  0.9570
 1012MOL0     C39571   2.848   0.748   8.556  0.1581  0.6730 -0.7606
 1012MOL0     C39572   2.827   0.853   8.641  0.9069 -0.8941 -0.1001
 1012MOL0     C39573   2.896   1.215   8.835 -0.5725  0.2101 -0.3488
 1012MOL0     C39574   2.789   1.204   8.927 -0.5923  0.6969  0.4818
 1012MOL0     C39575   2.784   1.285   9.045  0.2167 -0.2986 -0.1734
 1012MOL0     C39576   2.879   1.382   9.067  0.0526  0.0012  0.0450
 1012MOL0     O39577   2.880   1.476   9.165  0.0078  0.0684 -0.6058
 1012MOL0     C39578   2.797   1.463   9.275  0.2951  0.6754  0.6200
 1012MOL0     C39579   2.844   1.364   9.379 -0.4169  0.2980 -0.2834
 1012MOL0     C39580   2.934   1.429   9.492  0.1647  0.6862  0.3356
 1012MOL0     C39581   2.843   1.518   9.577 -0.0156  0.9320 -0.2934
 1012MOL0     C39582   2.929   1.574   9.678 -0.8697 -0.1278 -0.5864
 1012MOL0     C39583   3.019   1.612   9.749 -0.4747 -0.0264  1.1131
 1012MOL0     C39584   2.985   1.387   8.977 -0.8651  0.2204 -0.0312
 1012MOL0     C39585   3.000   1.315   8.861  0.0384  0.8979  0.3284
 1012MOL0     C39586   3.110   1.360   8.764 -0.2949  0.4324 -0.3276
 1012MOL0     H39587   2.755   1.083   8.412  0.4494  1.1347  1.2588
 1012MOL0     H39588   2.773   0.903   8.265  0.4812 -2.8180 -1.9198
 1012MOL0     H39589   2.954   0.670   8.163 -0.1881  2.1624  0.2808
 1012MOL0     H39590   2.796   0.713   8.171  0.9881  0.1640  0.7214
 1012MOL0     H39591   2.853   0.410   8.208 -1.1768 -1.7093 -0.2588
 1012MOL0     H39592   2.697   0.485   8.222 -1.2397 -0.5732 -1.8907
 1012MOL0     H39593   2.876   0.522   7.972  0.3312 -2.4130 -1.1039
 1012MOL0     H39594   2.788   0.375   8.002  0.1570  0.5495  1.0793
 1012MOL0     H39595   2.577   0.495   8.024 -1.7348  1.4052 -1.6105
 1012MOL0     H39596   2.655   0.648   7.978  1.0978 -0.2024  0.0902
 1012MOL0     H39597   2.637   0.434   7.778  2.0479  0.5495 -2.7109
 1012MOL0     H39598   2.715   0.584   7.767 -0.7654  0.6613 -1.1759
 1012MOL0     H39599   2.426   0.606   7.861 -1.0231  1.6372 -0.2278
 1012MOL0     H39600   2.511   0.707   7.750  2.1425 -0.8274  1.3320
 1012MOL0     H39601   2.407   0.415   7.688  0.1054 -0.8671 -1.1904
 1012MOL0     H39602   2.494   0.523   7.581  0.2670 -0.9348  1.0450
 1012MOL0     H39603   2.225   0.561   7.724 -0.8263  1.2603 -0.9497
 1012MOL0     H39604   2.285   0.676   7.602  1.4394  0.6513 -0.5428
 1012MOL0     H39605   2.095   0.351   7.634 -1.8944  0.2654 -1.3907
 1012MOL0     H39606   2.036   0.131   7.432 -1.9295 -0.2032  0.1731
 1012MOL0     H39607   2.018   0.216   7.273 -4.3300  1.4572 -0.7760
 1012MOL0     H39608   1.847   0.264   7.524 -0.2195 -0.1335 -0.1565
 1012MOL0     H39609   1.858   0.382   7.388 -0.4062  0.6352  1.1042
 1012MOL0     H39610   1.785   0.190   7.239 -1.4132 -1.4062  0.0310
 1012MOL0     H39611   1.779   0.082   7.379  1.0259  0.0198 -0.0532
 1012MOL0     H39612   1.625   0.334   7.303 -1.1206 -1.6458 -3.8305
 1012MOL0     H39613   1.554   0.165   7.312  0.4987 -1.0587  0.1307
 1012MOL0     H39614   1.494   0.170   7.715  2.4799  0.7659 -1.6699
 1012MOL0     H39615   1.182   0.276   7.883 -1.4724 -2.3889  2.7016
 1012MOL0     H39616   1.334   0.200   7.908  0.3297 -1.6330 -0.2719
 1012MOL0     H39617   1.191   0.102   7.874 -0.0411 -0.1494 -1.4630
 1012MOL0     H39618   0.768   0.024   7.556 -2.1504  0.1072 -0.2406
 1012MOL0     H39619   0.562  -0.048   7.680  0.1958  2.3099 -1.5088
 1012MOL0     H39620   0.521  -0.016   8.131  0.9368 -1.4440 -0.7459
 1012MOL0     H39621   0.494   0.140   8.037  1.5042  0.2227  1.7368
 1012MOL0     H39622   0.272   0.039   7.960 -1.0348 -3.3609  1.2651
 1012MOL0     H39623   0.312  -0.089   8.073  0.3556 -0.1206 -1.0065
 1012MOL0     H39624   0.247   0.198   8.148 -1.8467  0.2189  0.5301
 1012MOL0     H39625   0.338   0.087   8.254  1.6031 -0.5226 -2.4733
 1012MOL0     H39626   0.160  -0.052   8.274  0.5056  1.4312  2.6241
 1012MOL0     H39627   0.068   0.001   8.133 -1.7858 -0.3441  0.5861
 1012MOL0     H39628   0.136   0.147   8.383 -1.8466  1.4162  0.8126
 1012MOL0     H39629   0.039   0.231   8.258  1.1663  0.1461  0.5052
 1012MOL0     H39630  -0.143   0.050   8.296 -2.8385  0.1269  1.5006
 1012MOL0     H39631  -0.118   0.186   8.403 -0.2613  0.0110 -0.6691
 1012MOL0     H39632   0.021   0.016   8.554  1.2051 -2.2304 -1.6820
 1012MOL0     H39633  -0.018  -0.094   8.425 -1.2764 -0.5582 -1.3141
 1012MOL0     H39634  -0.265  -0.072   8.468  0.6386 -0.3900 -1.2253
 1012MOL0     H39635  -0.240   0.045   8.600  2.1576 -1.1934  4.1092
 1012MOL0     H39636   0.757   0.058   8.045  4.6219 -1.4699 -0.5744
 1012MOL0     H39637   0.952   0.120   7.928 -3.1169  1.6923  3.7124
 1012MOL0     H39638   1.130   0.307   7.409 -0.9375  2.6699  1.7163
 1012MOL0     H39639   1.357   0.327   7.341 -2.4949 -0.9171 -1.0012
 1012MOL0     H39640   2.889   0.653   8.589 -1.7467  0.0284 -0.1053
 1012MOL0     H39641   2.858   0.839   8.745 -1.2701 -0.0822  0.7077
 1012MOL0     H39642   2.700   1.144   8.920 -1.6196  2.1110  0.9376
 1012MOL0     H39643   2.691   1.278   9.101 -0.3203 -5.5199 -1.2096
 1012MOL0     H39644   2.793   1.560   9.324 -1.7881  0.6892  0.5338
 1012MOL0     H39645   2.694   1.442   9.244  0.3055  2.4184 -0.7333
 1012MOL0     H39646   2.900   1.285   9.328  0.4522  1.0109 -0.4611
 1012MOL0     H39647   2.760   1.316   9.430  2.9328 -3.2991  2.4820
 1012MOL0     H39648   2.966   1.363   9.572 -1.9956  0.0316  0.7029
 1012MOL0     H39649   3.018   1.487   9.451  1.0436  0.1867  1.3953
 1012MOL0     H39650   2.750   1.469   9.610  1.2245  0.4493  2.8774
 1012MOL0     H39651   2.814   1.612   9.529  2.5288  1.9564  0.0511
 1012MOL0     H39652   3.073   1.668   9.823  3.4223  0.5403 -1.8136
 1012MOL0     H39653   3.064   1.458   8.998 -2.3843  1.5992  1.2656
 1012MOL0     H39654   3.071   1.391   8.667 -2.3249  0.2494  0.3950
 1012MOL0     H39655   3.149   1.454   8.805 -5.5561  1.4099  3.3285
 1012MOL0     H39656   3.188   1.284   8.748  1.0197  1.9879 -1.7694
 1013MOL0     O39657   5.523   4.556   3.575  0.1937 -0.0645  0.3862
 1013MOL0     C39658   5.530   4.526   3.701  0.4209 -0.3769  0.2008
 1013MOL0     O39659   5.633   4.481   3.766  0.3365  0.1107 -0.0852
 1013MOL0     C39660   5.757   4.479   3.712  0.3652  0.6051 -0.3332
 1013MOL0     C39661   5.862   4.525   3.789  0.2978 -0.1684 -0.8703
 1013MOL0     C39662   6.000   4.519   3.753 -0.7006  0.5336  0.2485
 1013MOL0     C39663   6.037   4.448   3.636  0.8740 -1.0281 -0.4611
 1013MOL0     O39664   6.167   4.428   3.598  0.4200  0.1028 -0.2210
 1013MOL0     C39665   6.194   4.325   3.506 -0.9076  0.1821 -0.1836
 1013MOL0     C39666   6.346   4.298   3.524 -0.4807 -0.0053  0.4916
 1013MOL0     C39667   6.442   4.375   3.437  0.2861  0.8410  0.3117
 1013MOL0     C39668   6.521   4.480   3.517  0.1325  0.9723  0.8205
 1013MOL0     C39669   6.629   4.543   3.438 -0.2108  0.1788 -0.9807
 1013MOL0     C39670   6.737   4.455   3.377  0.1560 -0.5413  0.5393
 1013MOL0     C39671   6.819   4.381   3.477 -1.1378  0.2342  0.6801
 1013MOL0     C39672   6.970   4.341   3.438  0.9126  0.1360 -0.5527
 1013MOL0     N39673   7.046   4.451   3.377 -0.6290  0.3965  0.5514
 1013MOL0     C39674   7.022   4.581   3.374 -0.4131  0.0224  0.2867
 1013MOL0     C39675   7.083   4.621   3.262 -0.2408 -0.0582 -0.2143
 1013MOL0     C39676   7.093   4.766   3.224  0.8978  0.3234  0.1251
 1013MOL0     C39677   7.184   4.795   3.104  0.9469 -0.5061  0.2441
 1013MOL0     C39678   7.232   4.938   3.094 -1.0117  0.6059  0.7405
 1013MOL0     C39679   7.263   4.988   2.949  0.4064 -0.2317  0.1753
 1013MOL0     O39680   7.382   4.922   2.897  0.9749  0.3988 -0.1235
 1013MOL0     C39681   7.470   4.977   2.812  0.6458 -0.8004  0.5292
 1013MOL0     C39682   7.429   5.083   2.727 -0.4176 -0.3478 -0.2652
 1013MOL0     C39683   7.520   5.142   2.649 -0.5412 -0.7508  0.7403
 1013MOL0     C39684   7.483   5.262   2.573 -0.2939 -0.4155  0.8839
 1013MOL0     C39685   7.655   5.103   2.653 -0.8841 -1.0371  0.2677
 1013MOL0     C39686   7.772   5.171   2.580 -0.0208  0.0751 -0.7173
 1013MOL0     O39687   7.892   5.163   2.646  0.2584 -0.0868 -0.0225
 1013MOL0     C39688   7.989   5.240   2.589 -0.6635  0.6098  0.8352
 1013MOL0     C39689   7.998   5.373   2.624  0.6343  0.7711 -0.3431
 1013MOL0     C39690   8.090   5.463   2.583 -0.2015  1.2196 -0.5948
 1013MOL0     C39691   8.192   5.406   2.506  0.4583  0.3267  1.4403
 1013MOL0     O39692   8.286   5.493   2.468 -0.5597  0.4571  0.6343
 1013MOL0     C39693   8.369   5.518   2.583 -0.0361 -0.5650 -0.4286
 1013MOL0     C39694   8.505   5.584   2.542 -0.2823  0.8498  0.0377
 1013MOL0     C39695   8.476   5.705   2.461  0.9474 -1.2254  0.7205
 1013MOL0     C39696   8.493   5.680   2.309 -0.2254 -0.5502 -0.0524
 1013MOL0     C39697   8.488   5.796   2.220 -0.1342  0.2987  0.0064
 1013MOL0     C39698   8.350   5.814   2.144  0.8436  0.0188  0.2288
 1013MOL0     C39699   8.240   5.896   2.223 -0.5172 -0.4755 -0.3926
 1013MOL0     C39700   8.102   5.889   2.150 -0.5199 -0.8588 -0.5758
 1013MOL0    Cl39701   8.027   5.737   2.142  0.2230 -0.2746 -0.1071
 1013MOL0     C39702   8.203   5.271   2.481 -0.0679  0.4037  0.2583
 1013MOL0     C39703   8.097   5.192   2.519  0.4500  0.1784 -0.6630
 1013MOL0     O39704   7.755   5.206   2.461  0.7131 -0.6307 -0.2214
 1013MOL0     C39705   7.689   4.992   2.727  0.1833  0.1877  1.1411
 1013MOL0     C39706   7.599   4.926   2.807  0.3367 -0.3006  0.1548
 1013MOL0     N39707   7.154   4.522   3.203 -0.5687 -0.1293 -0.6467
 1013MOL0     N39708   7.141   4.422   3.285 -0.0868 -0.8677  0.4986
 1013MOL0     C39709   5.930   4.419   3.549  1.2762  0.1682 -0.7056
 1013MOL0     C39710   5.796   4.427   3.592  0.0098 -0.1923 -0.4104
 1013MOL0     C39711   5.406   4.551   3.790 -0.2119 -0.2300 -0.1675
 1013MOL0     C39712   5.302   4.642   3.745 -0.1896 -0.0305 -0.0485
 1013MOL0     C39713   5.191   4.670   3.826  0.1564  0.1083  0.0778
 1013MOL0     C39714   5.187   4.630   3.959  0.1801  0.4660  0.2154
 1013MOL0     O39715   5.094   4.663   4.055 -0.6920 -0.1625  0.3202
 1013MOL0     C39716   5.033   4.793   4.034  1.0698  0.4891  0.0227
 1013MOL0     C39717   5.028   4.857   4.166 -0.0434  0.8388  0.1772
 1013MOL0     C39718   4.952   4.767   4.265 -0.7534  0.7267  0.7588
 1013MOL0     C39719   4.957   4.804   4.412  0.1691 -0.4842  0.4420
 1013MOL0     C39720   4.849   4.733   4.471  1.1730  0.6130 -0.6340
 1013MOL0     C39721   4.751   4.680   4.529  0.1451 -0.7157  0.4045
 1013MOL0     C39722   5.280   4.532   3.997 -0.4126 -0.2247 -0.2057
 1013MOL0     C39723   5.391   4.493   3.919  0.5066 -1.2562 -0.4695
 1013MOL0     C39724   5.482   4.384   3.989  0.9867 -0.1645 -0.4769
 1013MOL0     H39725   5.829   4.574   3.880 -0.5303  0.4439 -1.4804
 1013MOL0     H39726   6.063   4.560   3.831 -0.3795 -0.8356  0.7308
 1013MOL0     H39727   6.181   4.355   3.401  2.2486 -0.4842 -0.8757
 1013MOL0     H39728   6.145   4.230   3.531 -1.1105  0.3135 -0.0908
 1013MOL0     H39729   6.365   4.298   3.632  1.7360 -0.8722  0.1490
 1013MOL0     H39730   6.359   4.194   3.494 -0.5894  0.1500 -0.0999
 1013MOL0     H39731   6.521   4.306   3.407  1.3733  2.3209 -0.3243
 1013MOL0     H39732   6.400   4.429   3.352  2.2951  2.7504  0.4381
 1013MOL0     H39733   6.447   4.556   3.543 -0.5719  0.2583  0.9316
 1013MOL0     H39734   6.553   4.442   3.615 -0.5713  2.0471  1.4937
 1013MOL0     H39735   6.675   4.621   3.500 -0.6993 -1.8504  2.1543
 1013MOL0     H39736   6.588   4.602   3.355  3.1350  3.7267 -0.4407
 1013MOL0     H39737   6.706   4.389   3.296  1.1544  3.7951 -3.8048
 1013MOL0     H39738   6.803   4.523   3.323 -0.1658 -1.2331 -0.7531
 1013MOL0     H39739   6.770   4.286   3.501  1.8948 -1.9068 -0.8480
 1013MOL0     H39740   6.839   4.450   3.559 -0.4817 -0.7533  1.3693
 1013MOL0     H39741   7.010   4.313   3.536 -0.8531  0.7449  0.3809
 1013MOL0     H39742   6.957   4.248   3.381 -2.1551 -0.6398  1.1917
 1013MOL0     H39743   6.964   4.642   3.442 -2.3750 -0.2814 -1.0487
 1013MOL0     H39744   7.149   4.821   3.301  0.9351  2.4698 -1.3519
 1013MOL0     H39745   6.998   4.817   3.205  0.5200 -0.4891 -0.1735
 1013MOL0     H39746   7.274   4.735   3.089  0.8742  0.1859 -4.3143
 1013MOL0     H39747   7.114   4.773   3.023 -0.2307  2.0656  0.4833
 1013MOL0     H39748   7.164   5.008   3.144  1.7195  3.7453  0.3839
 1013MOL0     H39749   7.322   4.952   3.154 -1.3698 -0.0121  1.4414
 1013MOL0     H39750   7.178   4.962   2.886  1.7674  0.6272 -2.1571
 1013MOL0     H39751   7.274   5.097   2.953 -0.1100 -0.1136 -1.0746
 1013MOL0     H39752   7.329   5.124   2.722 -0.9562 -1.6357 -0.3715
 1013MOL0     H39753   7.428   5.329   2.640  0.9543  0.4728  1.0602
 1013MOL0     H39754   7.414   5.242   2.490  0.0844  0.3525  0.3757
 1013MOL0     H39755   7.568   5.323   2.542 -1.2912  0.5592 -0.0402
 1013MOL0     H39756   7.929   5.412   2.698  0.6637 -0.3640  0.3000
 1013MOL0     H39757   8.108   5.568   2.604  1.3134  0.7048  0.9128
 1013MOL0     H39758   8.331   5.574   2.669  3.1408 -0.4935  1.0649
 1013MOL0     H39759   8.399   5.419   2.618  0.3594 -0.7088 -1.1397
 1013MOL0     H39760   8.559   5.615   2.632 -1.2141  1.4497  0.4019
 1013MOL0     H39761   8.569   5.508   2.495 -1.5847  0.5761 -1.3615
 1013MOL0     H39762   8.546   5.788   2.475 -0.0649 -0.7144  3.6496
 1013MOL0     H39763   8.373   5.739   2.472  1.1112 -0.4775  0.0219
 1013MOL0     H39764   8.425   5.602   2.275  0.8900 -2.5481  1.9965
 1013MOL0     H39765   8.591   5.634   2.291  0.3935 -0.1133  1.9002
 1013MOL0     H39766   8.522   5.892   2.260 -0.3976  0.2537  0.3422
 1013MOL0     H39767   8.550   5.765   2.135 -0.9006 -2.5427  0.3848
 1013MOL0     H39768   8.310   5.715   2.120 -0.0259 -0.0729  1.8608
 1013MOL0     H39769   8.372   5.855   2.045  0.1103  1.3081  0.5741
 1013MOL0     H39770   8.281   5.997   2.237 -1.5469  0.3088 -2.5642
 1013MOL0     H39771   8.227   5.850   2.321 -2.7811  2.2222  0.7353
 1013MOL0     H39772   8.132   5.924   2.050  3.8855  0.1285  0.8688
 1013MOL0     H39773   8.032   5.959   2.195 -0.9193 -1.3637 -0.4118
 1013MOL0     H39774   8.284   5.223   2.427 -0.0344  0.9137 -0.1502
 1013MOL0     H39775   8.103   5.086   2.497 -0.5266  0.1416 -0.8296
 1013MOL0     H39776   7.786   4.944   2.716  0.0367  0.2667 -0.8679
 1013MOL0     H39777   7.626   4.840   2.868 -0.7569 -0.4621  0.4316
 1013MOL0     H39778   5.960   4.370   3.457 -1.8053 -2.7975 -0.3406
 1013MOL0     H39779   5.713   4.394   3.530  1.1553 -3.3105 -0.4287
 1013MOL0     H39780   5.299   4.686   3.646 -2.4817  2.1332  0.9037
 1013MOL0     H39781   5.114   4.737   3.789 -0.1874 -1.9831 -3.4466
 1013MOL0     H39782   5.100   4.856   3.974  0.5975  1.0886  0.1109
 1013MOL0     H39783   4.945   4.797   3.969  1.2524 -1.7475 -0.4399
 1013MOL0     H39784   4.985   4.958   4.159  0.4471  1.4510  4.0253
 1013MOL0     H39785   5.133   4.878   4.191 -0.4951  0.7151  2.3622
 1013MOL0     H39786   4.851   4.759   4.224 -0.3322 -2.5974  0.0845
 1013MOL0     H39787   5.002   4.670   4.255  1.9045  1.9404  1.2822
 1013MOL0     H39788   4.944   4.910   4.434  1.1635 -0.9832  4.1659
 1013MOL0     H39789   5.050   4.789   4.467  1.6269  1.0811 -1.4949
 1013MOL0     H39790   4.670   4.624   4.571 -0.9052  1.4438  1.3837
 1013MOL0     H39791   5.274   4.486   4.095 -2.6515  1.6811  0.6440
 1013MOL0     H39792   5.518   4.306   3.922 -0.6209 -1.3639  0.0144
 1013MOL0     H39793   5.572   4.421   4.039 -0.7188  0.0817  2.6522
 1013MOL0     H39794   5.418   4.339   4.064  1.3440 -0.5051 -0.3767
 1014MOL0     O39795   8.134   4.260   4.102 -0.3166 -0.2794  0.2714
 1014MOL0     C39796   8.149   4.227   4.217 -0.0908  0.1728  0.4483
 1014MOL0     O39797   8.055   4.171   4.296  0.1632 -0.2247  0.1325
 1014MOL0     C39798   7.921   4.210   4.289  0.2241 -0.4926 -0.5507
 1014MOL0     C39799   7.829   4.123   4.358  0.6143  0.0387 -0.3625
 1014MOL0     C39800   7.696   4.176   4.383  0.4727 -0.3947  1.0397
 1014MOL0     C39801   7.649   4.301   4.336 -0.1300 -0.3062  0.3199
 1014MOL0     O39802   7.517   4.338   4.372  0.0199  0.1549 -0.0798
 1014MOL0     C39803   7.445   4.452   4.325  0.1165  0.6216  0.0396
 1014MOL0     C39804   7.306   4.460   4.391 -0.0598  0.1308  0.6351
 1014MOL0     C39805   7.301   4.456   4.545 -0.0794 -0.5331  0.0231
 1014MOL0     C39806   7.154   4.444   4.591  0.6914  0.8399 -1.1122
 1014MOL0     C39807   7.129   4.466   4.741 -0.2888 -0.1412 -0.4152
 1014MOL0     C39808   6.982   4.436   4.774  0.5089 -0.2639  0.3879
 1014MOL0     C39809   6.868   4.494   4.689 -0.2634 -0.3936 -0.3078
 1014MOL0     C39810   6.734   4.494   4.754 -0.4631 -0.5552 -0.7033
 1014MOL0     N39811   6.696   4.358   4.782 -0.2604 -0.4393  0.6724
 1014MOL0     C39812   6.613   4.318   4.889 -0.9761 -0.0813  0.7031
 1014MOL0     C39813   6.580   4.189   4.866 -0.3575 -0.4301  0.7036
 1014MOL0     C39814   6.511   4.106   4.960 -0.3703 -0.6648 -0.2733
 1014MOL0     C39815   6.564   4.121   5.106 -0.7658 -0.9044  0.7497
 1014MOL0     C39816   6.498   4.018   5.199  0.1846  0.4563 -0.0723
 1014MOL0     C39817   6.549   4.029   5.346  0.9224 -0.9361  0.2581
 1014MOL0     O39818   6.681   3.977   5.351 -0.6850 -0.2084  0.0510
 1014MOL0     C39819   6.745   3.974   5.476  0.1810 -0.4712 -0.4556
 1014MOL0     C39820   6.704   4.043   5.591  0.0539  0.0399  0.7804
 1014MOL0     C39821   6.777   4.009   5.714  1.3111 -0.9917 -0.2564
 1014MOL0     C39822   6.738   4.087   5.839 -0.6059 -0.6969 -0.0901
 1014MOL0     C39823   6.885   3.912   5.711  1.0493 -0.7931 -0.1438
 1014MOL0     C39824   6.971   3.876   5.829  1.1255  0.0943  0.5453
 1014MOL0     O39825   7.101   3.863   5.823  0.3512 -0.1411 -0.9297
 1014MOL0     C39826   7.163   3.841   5.943 -0.3620 -0.7217  0.7298
 1014MOL0     C39827   7.263   3.932   5.987  0.7147 -0.5696  1.0173
 1014MOL0     C39828   7.335   3.906   6.110  0.2330  0.0522 -0.3073
 1014MOL0     C39829   7.305   3.786   6.185  0.1350  0.3879 -0.8136
 1014MOL0     O39830   7.378   3.780   6.304 -0.0636 -0.1592 -0.3094
 1014MOL0     C39831   7.363   3.670   6.399  0.0274  0.6034 -0.5946
 1014MOL0     C39832   7.433   3.538   6.359 -0.9691 -0.4377  0.2591
 1014MOL0     C39833   7.592   3.543   6.331 -0.1715  0.8615  0.0831
 1014MOL0     C39834   7.659   3.406   6.275  0.6260 -0.4512  0.0284
 1014MOL0     C39835   7.557   3.323   6.193  0.1761 -0.2674  0.4538
 1014MOL0     C39836   7.616   3.192   6.136 -1.6119 -0.1124 -0.8695
 1014MOL0     C39837   7.538   3.127   6.029  0.3750 -0.3273  0.7638
 1014MOL0     C39838   7.611   3.005   5.972 -0.0290 -0.6344 -0.2716
 1014MOL0    Cl39839   7.514   2.909   5.855  0.3563  0.0774  0.3517
 1014MOL0     C39840   7.208   3.689   6.135 -0.5167  0.0449  0.6669
 1014MOL0     C39841   7.147   3.721   6.014 -0.4159  0.5278 -0.3923
 1014MOL0     O39842   6.903   3.854   5.929 -0.0764 -0.3446  0.5039
 1014MOL0     C39843   6.925   3.853   5.591  0.3170  0.6171 -0.4812
 1014MOL0     C39844   6.857   3.891   5.479 -1.0605 -0.2874  0.2321
 1014MOL0     N39845   6.617   4.159   4.738 -0.7069  0.5799 -0.5337
 1014MOL0     N39846   6.701   4.254   4.692 -0.5791  0.3680  0.0972
 1014MOL0     C39847   7.740   4.383   4.270 -0.3318  1.5316 -0.2405
 1014MOL0     C39848   7.871   4.337   4.237 -0.5838  0.5330 -0.0616
 1014MOL0     C39849   8.296   4.208   4.244 -0.5163 -0.3218  0.2261
 1014MOL0     C39850   8.390   4.278   4.169 -0.1873  0.6111 -1.2053
 1014MOL0     C39851   8.527   4.275   4.206 -0.2886 -0.1408 -0.0842
 1014MOL0     C39852   8.578   4.194   4.299 -0.1627 -0.5656  0.3732
 1014MOL0     O39853   8.712   4.203   4.328 -0.0422  0.2847 -0.0135
 1014MOL0     C39854   8.770   4.106   4.412  0.6168  0.2289 -0.3507
 1014MOL0     C39855   8.923   4.134   4.429  0.1154 -0.1481 -0.8531
 1014MOL0     C39856   8.990   4.071   4.307 -0.6294  0.0124 -0.3022
 1014MOL0     C39857   9.141   4.085   4.315  0.8522  0.7955 -0.8464
 1014MOL0     C39858   9.189   4.220   4.276 -0.5426 -0.0536  1.1153
 1014MOL0     C39859   9.211   4.337   4.242  0.2948  0.3906  0.0042
 1014MOL0     C39860   8.489   4.112   4.366 -0.4960 -0.7274  0.0928
 1014MOL0     C39861   8.348   4.126   4.348  0.0754  0.9129  0.2783
 1014MOL0     C39862   8.262   4.029   4.422  0.4635  1.0345  0.4501
 1014MOL0     H39863   7.874   4.036   4.405  2.8281  1.0363 -0.5465
 1014MOL0     H39864   7.620   4.118   4.433 -1.6936  0.7784 -0.6791
 1014MOL0     H39865   7.436   4.429   4.219 -1.3025 -1.8786  0.6387
 1014MOL0     H39866   7.505   4.542   4.343 -0.8530  1.3844 -0.4421
 1014MOL0     H39867   7.250   4.546   4.353  1.5682  0.0314 -2.2658
 1014MOL0     H39868   7.253   4.370   4.359 -0.3897 -0.0662  1.6772
 1014MOL0     H39869   7.358   4.369   4.579  1.8475  0.4279 -0.6057
 1014MOL0     H39870   7.352   4.546   4.578  2.2457 -1.3612 -1.0946
 1014MOL0     H39871   7.099   4.518   4.533 -2.0952  0.1010  0.3722
 1014MOL0     H39872   7.118   4.348   4.553 -0.7732  1.3883 -1.1511
 1014MOL0     H39873   7.158   4.570   4.758  0.4419 -0.5564  1.0147
 1014MOL0     H39874   7.194   4.396   4.795  0.4347 -0.8097 -2.0815
 1014MOL0     H39875   6.978   4.328   4.761  0.2547 -0.0985 -1.0528
 1014MOL0     H39876   6.958   4.444   4.881  0.3905  4.0178  0.2295
 1014MOL0     H39877   6.855   4.446   4.591 -4.9398  0.4192 -0.3519
 1014MOL0     H39878   6.895   4.598   4.670  1.9858 -0.4771  1.9736
 1014MOL0     H39879   6.728   4.556   4.844  0.7163  1.0249 -1.6601
 1014MOL0     H39880   6.656   4.548   4.701 -3.3425  0.1806  3.7097
 1014MOL0     H39881   6.606   4.380   4.978  1.1909 -1.5121  1.9769
 1014MOL0     H39882   6.511   4.000   4.931  1.6015 -0.1119 -2.7170
 1014MOL0     H39883   6.411   4.150   4.960 -1.2072 -2.2544 -3.2852
 1014MOL0     H39884   6.672   4.113   5.114 -0.9945 -2.4050  3.4796
 1014MOL0     H39885   6.526   4.218   5.141 -1.7385 -2.2471  3.7655
 1014MOL0     H39886   6.390   4.021   5.182  0.4011 -2.4096 -2.8531
 1014MOL0     H39887   6.525   3.916   5.170  0.4330  0.8518 -1.3072
 1014MOL0     H39888   6.545   4.136   5.370 -3.4235  0.9830 -6.3381
 1014MOL0     H39889   6.481   3.973   5.410 -0.9227 -2.6307 -2.9560
 1014MOL0     H39890   6.625   4.116   5.604  0.2170  0.5678 -0.9104
 1014MOL0     H39891   6.686   4.028   5.915  3.3347 -1.6659  2.1455
 1014MOL0     H39892   6.677   4.171   5.804  0.7622 -0.1141 -1.1739
 1014MOL0     H39893   6.833   4.119   5.882  0.8636 -3.7325 -0.7701
 1014MOL0     H39894   7.282   4.018   5.925 -3.3296  1.1116  1.7727
 1014MOL0     H39895   7.405   3.978   6.150  0.0685 -0.9340  1.8921
 1014MOL0     H39896   7.392   3.686   6.503 -0.9938  0.8600 -0.3425
 1014MOL0     H39897   7.256   3.649   6.398  0.3193 -0.9949 -1.3709
 1014MOL0     H39898   7.415   3.472   6.444  1.0396 -0.6718  0.5624
 1014MOL0     H39899   7.376   3.507   6.272 -0.4661  1.0003 -0.6165
 1014MOL0     H39900   7.647   3.554   6.425  0.1528 -1.3059  0.1881
 1014MOL0     H39901   7.617   3.623   6.260  3.4804 -0.1500 -0.0007
 1014MOL0     H39902   7.694   3.344   6.358 -1.0641  2.2012  2.9571
 1014MOL0     H39903   7.743   3.430   6.209 -1.1403  1.7947 -1.5503
 1014MOL0     H39904   7.468   3.302   6.252 -1.0211  0.0905 -1.1689
 1014MOL0     H39905   7.524   3.375   6.102 -0.5333  0.3908  1.0784
 1014MOL0     H39906   7.607   3.127   6.223  0.7417  1.5667  0.7783
 1014MOL0     H39907   7.721   3.199   6.108 -1.6361 -0.1594 -0.9709
 1014MOL0     H39908   7.516   3.198   5.948 -0.3514 -1.0310  0.3263
 1014MOL0     H39909   7.447   3.080   6.067 -1.9031  0.5049 -3.0890
 1014MOL0     H39910   7.637   2.945   6.060  0.7772 -0.0736 -0.1203
 1014MOL0     H39911   7.705   3.021   5.918  0.9873 -4.1934  0.1483
 1014MOL0     H39912   7.177   3.598   6.186 -3.1543  0.1949 -0.5180
 1014MOL0     H39913   7.069   3.653   5.982 -2.3406  1.7073  1.4843
 1014MOL0     H39914   7.002   3.779   5.574 -1.0642 -0.7119 -1.2240
 1014MOL0     H39915   6.891   3.844   5.388 -1.9449  0.5158 -0.5236
 1014MOL0     H39916   7.719   4.485   4.242 -4.0383  0.7454 -0.8455
 1014MOL0     H39917   7.937   4.392   4.170 -1.5461  4.3453  1.8238
 1014MOL0     H39918   8.360   4.345   4.089 -0.0816  3.8534  1.2901
 1014MOL0     H39919   8.600   4.344   4.164  1.5559 -2.2610 -0.5936
 1014MOL0     H39920   8.725   4.104   4.512 -0.3935  0.6977 -0.7830
 1014MOL0     H39921   8.756   4.009   4.364 -3.3493  0.0474  0.8217
 1014MOL0     H39922   8.973   4.090   4.516 -0.7634  0.7059  0.1119
 1014MOL0     H39923   8.939   4.242   4.440  0.3935 -0.2215 -0.5166
 1014MOL0     H39924   8.963   3.965   4.302  0.3774 -0.2020 -1.9094
 1014MOL0     H39925   8.952   4.117   4.216  0.9495  3.0077  0.4345
 1014MOL0     H39926   9.174   4.010   4.243  0.6679 -0.4938  0.3694
 1014MOL0     H39927   9.185   4.049   4.408 -1.6680 -0.8444 -0.1904
 1014MOL0     H39928   9.240   4.433   4.206  2.1651  0.3153  1.1453
 1014MOL0     H39929   8.520   4.049   4.449 -1.3900 -3.1014 -1.2616
 1014MOL0     H39930   8.321   3.950   4.471  0.5344  0.8889  0.1353
 1014MOL0     H39931   8.219   4.089   4.503 -1.3164  1.3960 -0.7061
 1014MOL0     H39932   8.190   3.974   4.361  2.0846  0.2722 -0.8735
 1015MOL0     O39933   1.638   7.311   6.336  0.2720 -0.1487 -0.0697
 1015MOL0     C39934   1.584   7.356   6.438 -0.0093  0.1405  0.4146
 1015MOL0     O39935   1.608   7.470   6.499  0.6411 -0.4607 -0.2810
 1015MOL0     C39936   1.713   7.545   6.453  0.6929  0.1845  0.4229
 1015MOL0     C39937   1.694   7.632   6.345  0.6091  0.2680  0.2232
 1015MOL0     C39938   1.803   7.696   6.285 -0.6194 -0.6204 -0.9839
 1015MOL0     C39939   1.931   7.655   6.324 -0.9189 -0.3223  0.4813
 1015MOL0     O39940   2.033   7.712   6.250 -0.2299 -0.8539  0.0498
 1015MOL0     C39941   2.160   7.728   6.323  0.8466  0.2811 -0.0073
 1015MOL0     C39942   2.241   7.853   6.267 -0.3049 -0.0068 -0.1800
 1015MOL0     C39943   2.379   7.855   6.351  0.1183 -0.2963  0.2383
 1015MOL0     C39944   2.380   7.970   6.460  0.9064  0.2332  0.9317
 1015MOL0     C39945   2.494   7.952   6.545  0.0732  0.0539  0.3532
 1015MOL0     C39946   2.508   8.055   6.654  0.1442  0.3525  0.0098
 1015MOL0     C39947   2.616   8.018   6.758 -0.2853 -0.1682 -0.4150
 1015MOL0     C39948   2.761   8.029   6.710  0.0560 -1.1512  0.3849
 1015MOL0     N39949   2.820   7.927   6.617 -0.6110  0.5155 -0.3198
 1015MOL0     C39950   2.907   7.955   6.524  0.2960  0.3723  0.5257
 1015MOL0     C39951   2.912   7.839   6.455 -0.2304 -0.0792 -0.9852
 1015MOL0     C39952   3.020   7.827   6.350 -0.0112  1.4829 -0.7239
 1015MOL0     C39953   2.962   7.747   6.227  0.3077 -0.2622  0.1803
 1015MOL0     C39954   2.829   7.800   6.180 -0.2188 -0.5953 -0.7949
 1015MOL0     C39955   2.817   7.941   6.129  0.0942  0.6927  0.3181
 1015MOL0     O39956   2.921   7.965   6.038  0.4537 -0.0568  1.1319
 1015MOL0     C39957   3.029   8.038   6.064 -0.7065 -0.2638 -0.3306
 1015MOL0     C39958   3.134   8.029   5.973  0.1011 -0.7660 -0.2674
 1015MOL0     C39959   3.247   8.105   5.987 -1.1091 -1.2255 -0.7373
 1015MOL0     C39960   3.363   8.111   5.882 -0.9090  2.2784  0.4894
 1015MOL0     C39961   3.259   8.200   6.086  1.0436 -0.0628  0.0779
 1015MOL0     C39962   3.367   8.303   6.095 -0.9626 -0.1246  0.3828
 1015MOL0     O39963   3.399   8.383   5.982  0.0716  0.2948  0.1182
 1015MOL0     C39964   3.530   8.439   5.957  0.3513  0.1951 -0.6130
 1015MOL0     C39965   3.529   8.554   5.884 -0.1335  0.1716  0.4003
 1015MOL0     C39966   3.644   8.626   5.860 -0.1103 -0.0549  0.2575
 1015MOL0     C39967   3.770   8.586   5.907  0.2084  0.4820  0.1815
 1015MOL0     O39968   3.876   8.673   5.880  0.6082  0.0074 -0.0420
 1015MOL0     C39969   3.958   8.611   5.782 -0.5479 -0.2464 -0.1499
 1015MOL0     C39970   4.078   8.700   5.770  0.1709 -0.8688  0.5296
 1015MOL0     C39971   4.159   8.734   5.892 -0.5002  0.2115  0.1090
 1015MOL0     C39972   4.261   8.836   5.861  0.5632 -0.0903  0.0925
 1015MOL0     C39973   4.312   8.879   5.998 -0.8674 -0.0678 -0.4494
 1015MOL0     C39974   4.393   9.007   6.007 -0.2709  0.7193  0.3326
 1015MOL0     C39975   4.307   9.119   5.953 -0.1519  0.3057  0.5938
 1015MOL0     C39976   4.363   9.258   5.995  0.3403 -0.0462  0.4027
 1015MOL0    Cl39977   4.370   9.275   6.164 -0.6283  0.3929  0.1205
 1015MOL0     C39978   3.777   8.469   5.984 -0.3983  0.2604 -0.2721
 1015MOL0     C39979   3.664   8.395   6.005  0.4655 -0.1061  0.6345
 1015MOL0     O39980   3.426   8.319   6.200  0.1359  0.3135 -0.2327
 1015MOL0     C39981   3.166   8.197   6.192 -0.8297 -0.1925  0.1129
 1015MOL0     C39982   3.048   8.120   6.178  0.3506  0.7923 -0.0225
 1015MOL0     N39983   2.842   7.735   6.518 -0.5045  0.0194 -0.3037
 1015MOL0     N39984   2.778   7.795   6.609 -0.1294 -0.7856 -0.4554
 1015MOL0     C39985   1.946   7.547   6.418  0.2064 -0.0621 -0.0296
 1015MOL0     C39986   1.838   7.501   6.493 -0.3406 -0.4462  0.6027
 1015MOL0     C39987   1.463   7.273   6.479 -0.1967 -0.1827  0.7304
 1015MOL0     C39988   1.489   7.134   6.469  0.5349 -0.4325  0.2454
 1015MOL0     C39989   1.389   7.044   6.518  0.2388  0.5396 -0.0930
 1015MOL0     C39990   1.269   7.092   6.569  0.2144 -0.8089 -0.3060
 1015MOL0     O39991   1.188   6.993   6.606 -0.1637  0.1716 -0.5919
 1015MOL0     C39992   1.057   7.019   6.665 -0.1855  1.0726  0.1440
 1015MOL0     C39993   0.949   7.088   6.566 -0.1530  0.0750  0.8959
 1015MOL0     C39994   0.923   6.984   6.457  0.0494 -0.5930 -0.5560
 1015MOL0     C39995   0.966   7.043   6.324  0.4054  0.6273  0.0021
 1015MOL0     C39996   0.971   6.943   6.217  0.7109 -0.1803 -0.4484
 1015MOL0     C39997   0.947   6.862   6.128 -0.4236  0.5988 -0.5883
 1015MOL0     C39998   1.239   7.235   6.568  0.1777 -0.1250  0.3717
 1015MOL0     C39999   1.337   7.323   6.527 -1.0903 -0.1893 -0.0353
 1015MOL0     C40000   1.319   7.478   6.545 -0.9604  0.5649  1.5028
 1015MOL0     H40001   1.594   7.637   6.305 -0.9852  1.1819  3.8432
 1015MOL0     H40002   1.801   7.763   6.200 -0.5990 -0.3123 -0.7429
 1015MOL0     H40003   2.216   7.635   6.310  1.8161  0.3937  2.7561
 1015MOL0     H40004   2.138   7.746   6.429  0.7565  0.9787 -0.1370
 1015MOL0     H40005   2.260   7.847   6.159 -2.2900 -0.9086 -0.5339
 1015MOL0     H40006   2.188   7.947   6.287  1.2578  1.5945 -2.9199
 1015MOL0     H40007   2.387   7.756   6.396 -0.9637 -0.0620  0.9762
 1015MOL0     H40008   2.463   7.866   6.281  1.4128  4.1130  2.1250
 1015MOL0     H40009   2.388   8.073   6.422 -1.4626  1.5404  3.5643
 1015MOL0     H40010   2.284   7.968   6.513 -1.1309 -0.6825 -2.4724
 1015MOL0     H40011   2.592   7.944   6.497  1.3961  0.5072  2.8080
 1015MOL0     H40012   2.469   7.857   6.592  1.1121 -0.2027  0.4010
 1015MOL0     H40013   2.537   8.145   6.599  1.5349 -2.0369 -3.5447
 1015MOL0     H40014   2.417   8.068   6.712 -0.1637 -3.5752  0.6669
 1015MOL0     H40015   2.610   7.917   6.798 -0.2633  0.1648  0.4599
 1015MOL0     H40016   2.612   8.091   6.839 -0.8169  1.2005 -1.6228
 1015MOL0     H40017   2.769   8.127   6.664 -2.4664 -0.9565  0.2579
 1015MOL0     H40018   2.823   8.033   6.800 -0.3318 -0.2405  0.6214
 1015MOL0     H40019   2.954   8.049   6.497 -0.4759  0.7536  0.5019
 1015MOL0     H40020   3.100   7.759   6.379 -2.5426 -1.1224  0.5617
 1015MOL0     H40021   3.069   7.920   6.319  4.5850 -1.1440 -2.2051
 1015MOL0     H40022   3.039   7.736   6.150 -0.2859 -1.5435 -0.2550
 1015MOL0     H40023   2.947   7.646   6.265  0.5229 -0.1170  0.6550
 1015MOL0     H40024   2.776   7.741   6.105 -0.2888 -2.4713  0.6724
 1015MOL0     H40025   2.765   7.786   6.267 -0.8901  1.5242 -0.8924
 1015MOL0     H40026   2.718   7.951   6.085  1.2026  0.7818 -2.3902
 1015MOL0     H40027   2.821   8.014   6.209  2.7250  0.4016  0.5538
 1015MOL0     H40028   3.127   7.968   5.884  1.2569 -1.7754  0.3045
 1015MOL0     H40029   3.361   8.195   5.812 -1.3453  0.1020 -2.3100
 1015MOL0     H40030   3.358   8.021   5.819  1.4412  1.1750  1.7392
 1015MOL0     H40031   3.460   8.113   5.933 -1.2646  1.0857  1.2633
 1015MOL0     H40032   3.434   8.598   5.857  0.4406  1.3509  0.2804
 1015MOL0     H40033   3.649   8.728   5.822  1.5685  0.5024  1.8350
 1015MOL0     H40034   3.997   8.520   5.829  0.1632 -0.6225 -1.4312
 1015MOL0     H40035   3.907   8.610   5.686  0.8114  0.9618 -0.9287
 1015MOL0     H40036   4.150   8.663   5.696 -0.5368  1.3727 -1.4309
 1015MOL0     H40037   4.039   8.797   5.737  0.7937 -0.0396  2.0929
 1015MOL0     H40038   4.220   8.649   5.927 -0.3310  0.0783 -0.4861
 1015MOL0     H40039   4.089   8.757   5.972 -0.3034 -0.6332  0.5407
 1015MOL0     H40040   4.222   8.914   5.796  2.0085  1.7361  1.3144
 1015MOL0     H40041   4.337   8.803   5.790  0.6640 -0.5150  0.3912
 1015MOL0     H40042   4.231   8.898   6.069 -1.6368 -0.2899 -1.2524
 1015MOL0     H40043   4.373   8.799   6.040 -0.4198  0.7439  0.4845
 1015MOL0     H40044   4.488   9.008   5.952 -1.7474 -1.7005 -2.6142
 1015MOL0     H40045   4.434   9.014   6.108 -0.2929 -0.6806  0.4584
 1015MOL0     H40046   4.206   9.115   5.995  0.4424  0.9525  2.1776
 1015MOL0     H40047   4.307   9.118   5.844 -1.5239  2.9401  0.5011
 1015MOL0     H40048   4.302   9.344   5.963 -1.4608  0.1658  3.9003
 1015MOL0     H40049   4.466   9.271   5.961 -0.1951  1.5496 -0.7383
 1015MOL0     H40050   3.877   8.449   6.022  0.5339  0.3163 -2.5244
 1015MOL0     H40051   3.659   8.305   6.066 -2.0332 -1.6409 -1.5704
 1015MOL0     H40052   3.180   8.267   6.273  1.3584  0.2635 -0.5947
 1015MOL0     H40053   2.973   8.132   6.254 -0.6409  1.0665 -1.0161
 1015MOL0     H40054   2.047   7.519   6.446 -0.0787 -4.2911 -2.3991
 1015MOL0     H40055   1.850   7.419   6.563 -0.2959 -0.0804  1.0299
 1015MOL0     H40056   1.584   7.102   6.428  0.1716  1.6164 -2.4387
 1015MOL0     H40057   1.412   6.939   6.518  0.4423  0.5615  1.5183
 1015MOL0     H40058   1.013   6.926   6.700 -2.3668  0.7542 -3.0478
 1015MOL0     H40059   1.076   7.078   6.756 -1.5665  1.4569  0.1981
 1015MOL0     H40060   0.991   7.178   6.521  0.9707 -1.9754 -2.5328
 1015MOL0     H40061   0.860   7.113   6.624 -0.9060  0.5677 -0.4336
 1015MOL0     H40062   0.970   6.889   6.483  0.7256 -0.6988 -2.0763
 1015MOL0     H40063   0.815   6.963   6.459  0.1185 -0.9447  0.7951
 1015MOL0     H40064   1.066   7.083   6.344  0.3644  0.7530 -0.0450
 1015MOL0     H40065   0.897   7.123   6.295 -1.3154 -0.6297  0.4620
 1015MOL0     H40066   0.912   6.779   6.070 -0.6812 -0.0148  0.4107
 1015MOL0     H40067   1.153   7.284   6.613  0.9181  0.7374  0.8876
 1015MOL0     H40068   1.396   7.522   6.609 -0.6298  0.8153  0.9391
 1015MOL0     H40069   1.334   7.515   6.443 -0.9071  1.6089  1.8801
 1015MOL0     H40070   1.219   7.513   6.574 -0.8438  1.2031  1.1631
 1016MOL0     O40071  10.880  10.204   0.350  0.9247 -0.5506  0.4958
 1016MOL0     C40072  10.769  10.253   0.356  0.4007 -0.6332 -0.2689
 1016MOL0     O40073  10.669  10.248   0.253 -0.7049 -0.5359  0.3009
 1016MOL0     C40074  10.685  10.161   0.144  0.3482 -0.3227  0.1575
 1016MOL0     C40075  10.768  10.044   0.143  0.7582 -0.1940 -0.3125
 1016MOL0     C40076  10.771   9.958   0.035  0.1696  0.1679  0.7787
 1016MOL0     C40077  10.674   9.967  -0.062  0.0155 -0.1479 -0.4775
 1016MOL0     O40078  10.662   9.895  -0.183 -0.8684 -0.2977 -0.5035
 1016MOL0     C40079  10.776   9.842  -0.252 -0.8136  0.2811 -0.0199
 1016MOL0     C40080  10.779   9.884  -0.399 -0.1194 -1.3089  0.0871
 1016MOL0     C40081  10.785  10.032  -0.419 -0.5136  0.8657  0.4295
 1016MOL0     C40082  10.932  10.081  -0.422  0.8715  1.0116  0.2377
 1016MOL0     C40083  10.941  10.224  -0.463 -1.0666 -0.6820  0.9649
 1016MOL0     C40084  11.080  10.266  -0.512  0.2715  0.0727 -1.0117
 1016MOL0     C40085  11.090  10.418  -0.509 -0.0908  0.3520  0.3091
 1016MOL0     C40086  11.202  10.476  -0.603 -0.6535  0.7515 -0.4440
 1016MOL0     N40087  11.201  10.625  -0.583 -1.2425  0.1366  0.0275
 1016MOL0     C40088  11.095  10.712  -0.576 -0.3010 -0.4456 -1.0940
 1016MOL0     C40089  11.140  10.820  -0.509  0.0842 -0.8725 -0.5566
 1016MOL0     C40090  11.065  10.942  -0.479 -1.1466  0.9593 -0.1896
 1016MOL0     C40091  11.058  11.033  -0.595  0.3581 -0.4315  0.1563
 1016MOL0     C40092  10.951  11.147  -0.566 -0.1849 -0.1251 -0.8237
 1016MOL0     C40093  10.997  11.278  -0.628  1.0639 -0.3862 -0.3835
 1016MOL0     O40094  10.920  11.389  -0.588 -0.2392 -0.7656 -0.0453
 1016MOL0     C40095  10.996  11.495  -0.548 -0.2661  0.2995 -0.4639
 1016MOL0     C40096  10.969  11.618  -0.604 -0.4420 -0.8339 -0.5932
 1016MOL0     C40097  11.025  11.737  -0.557 -0.4195 -0.0484  0.0964
 1016MOL0     C40098  10.981  11.870  -0.632 -0.6137  0.3244 -0.3133
 1016MOL0     C40099  11.135  11.728  -0.458 -0.1493 -0.7225  0.1500
 1016MOL0     C40100  11.225  11.840  -0.415  1.3126  0.0385 -0.3713
 1016MOL0     O40101  11.296  11.813  -0.302  0.3445 -0.5488 -0.0530
 1016MOL0     C40102  11.387  11.906  -0.246 -0.3311  0.3357 -0.2120
 1016MOL0     C40103  11.365  12.049  -0.232  0.3938 -0.8207 -0.9243
 1016MOL0     C40104  11.457  12.126  -0.152  0.3378  0.1631  0.2120
 1016MOL0     C40105  11.563  12.063  -0.082 -0.6478 -0.0220  0.4767
 1016MOL0     O40106  11.644  12.147  -0.013 -0.4376  0.1127  0.2274
 1016MOL0     C40107  11.749  12.094   0.070  0.3161  0.0166  0.3417
 1016MOL0     C40108  11.857  12.198   0.088 -1.0459 -0.1107  1.2338
 1016MOL0     C40109  11.817  12.322   0.156  0.9137 -0.9317 -0.2106
 1016MOL0     C40110  11.713  12.311   0.278 -1.0966 -0.7562  0.3930
 1016MOL0     C40111  11.739  12.428   0.377  0.1743  0.0415 -0.0083
 1016MOL0     C40112  11.630  12.434   0.486 -0.1580  0.9608  0.2229
 1016MOL0     C40113  11.655  12.572   0.537  0.2905 -0.2067 -0.1568
 1016MOL0     C40114  11.524  12.640   0.595  0.3918  0.0697 -0.4431
 1016MOL0    Cl40115  11.416  12.696   0.470 -0.3640  0.7222  0.3721
 1016MOL0     C40116  11.568  11.921  -0.075  0.4288 -0.1354 -0.4860
 1016MOL0     C40117  11.483  11.855  -0.154  0.1757  0.6319  0.2959
 1016MOL0     O40118  11.228  11.944  -0.482 -0.6896  0.2611 -0.0474
 1016MOL0     C40119  11.157  11.600  -0.396  0.7327 -0.4567 -0.0033
 1016MOL0     C40120  11.097  11.484  -0.447  0.2765 -0.4341  0.2914
 1016MOL0     N40121  11.275  10.804  -0.493  0.3397  0.2261 -0.5457
 1016MOL0     N40122  11.308  10.687  -0.528 -0.2951  0.0716  0.2206
 1016MOL0     C40123  10.591  10.070  -0.056 -0.6988  0.1282 -0.2819
 1016MOL0     C40124  10.598  10.175   0.041  1.6857  0.2027 -0.4909
 1016MOL0     C40125  10.746  10.327   0.481  1.0197  0.4500 -0.3855
 1016MOL0     C40126  10.852  10.380   0.546  0.2147  0.6861 -1.7166
 1016MOL0     C40127  10.837  10.451   0.666  0.3822 -0.3240  0.4250
 1016MOL0     C40128  10.710  10.465   0.725  0.0033  0.9090 -0.3432
 1016MOL0     O40129  10.675  10.518   0.845  0.2955 -0.4672  0.1537
 1016MOL0     C40130  10.779  10.568   0.925  0.0227  0.2187  0.1347
 1016MOL0     C40131  10.719  10.608   1.065  0.1147 -0.2359 -0.9173
 1016MOL0     C40132  10.690  10.487   1.157 -0.6324 -0.0604 -0.1089
 1016MOL0     C40133  10.813  10.401   1.194 -0.0320  0.8553  0.3672
 1016MOL0     C40134  10.913  10.467   1.270  0.1421  0.2015 -1.1444
 1016MOL0     C40135  10.994  10.527   1.336  0.3009 -0.2177  0.2855
 1016MOL0     C40136  10.598  10.407   0.653 -0.2159  0.3096  0.0748
 1016MOL0     C40137  10.616  10.340   0.533  0.5646  0.1861 -0.3257
 1016MOL0     C40138  10.492  10.269   0.490  0.2255  0.2448  0.4438
 1016MOL0     H40139  10.842  10.023   0.219  0.2204  1.8811  0.8710
 1016MOL0     H40140  10.853   9.887   0.034  1.9104  2.0907  0.4410
 1016MOL0     H40141  10.766   9.733  -0.250  0.4028  0.1693  0.7594
 1016MOL0     H40142  10.873   9.879  -0.219  0.4378 -2.7332 -0.0357
 1016MOL0     H40143  10.853   9.831  -0.460 -1.4762  1.3650 -4.3083
 1016MOL0     H40144  10.685   9.855  -0.446 -2.0861  2.0029  1.6190
 1016MOL0     H40145  10.736  10.048  -0.516 -1.9536  2.3814  1.3591
 1016MOL0     H40146  10.722  10.090  -0.352 -2.2818 -0.7354  0.2266
 1016MOL0     H40147  10.978  10.072  -0.323  2.6565  2.0061 -0.4426
 1016MOL0     H40148  10.998  10.021  -0.486 -1.0747 -4.6648  2.8828
 1016MOL0     H40149  10.898  10.289  -0.386 -2.2506 -1.7823  1.2622
 1016MOL0     H40150  10.878  10.236  -0.551 -1.3782  3.5557  1.5491
 1016MOL0     H40151  11.157  10.219  -0.450  0.1887  0.3454 -0.6955
 1016MOL0     H40152  11.109  10.236  -0.613  3.1313  1.6487 -0.7810
 1016MOL0     H40153  11.110  10.465  -0.412  5.4223 -0.7723  0.0324
 1016MOL0     H40154  10.992  10.446  -0.549 -1.5010 -4.8309 -0.5447
 1016MOL0     H40155  11.301  10.438  -0.576 -1.2086 -0.8699 -0.5536
 1016MOL0     H40156  11.175  10.460  -0.708 -3.2484  3.3337 -0.2790
 1016MOL0     H40157  10.995  10.680  -0.603 -0.1226 -1.3061 -0.7833
 1016MOL0     H40158  11.127  10.980  -0.396 -0.0842  0.1675 -0.5908
 1016MOL0     H40159  10.969  10.913  -0.435 -1.1234 -0.4107 -0.9986
 1016MOL0     H40160  11.156  11.079  -0.608  0.4835 -1.3411 -3.3361
 1016MOL0     H40161  11.031  10.995  -0.694  2.7808  0.6798 -1.0138
 1016MOL0     H40162  10.853  11.133  -0.614 -2.7331  1.6606  3.3354
 1016MOL0     H40163  10.936  11.166  -0.459  1.9360  1.1518 -0.7124
 1016MOL0     H40164  11.106  11.282  -0.620  1.4871 -2.3056 -3.7310
 1016MOL0     H40165  10.977  11.273  -0.735  2.1088  0.3125 -0.6334
 1016MOL0     H40166  10.890  11.620  -0.678 -1.9672  0.6243  0.9703
 1016MOL0     H40167  10.932  11.931  -0.555 -0.9726 -0.7501  0.3538
 1016MOL0     H40168  10.899  11.848  -0.701  1.4492 -2.3369 -2.1393
 1016MOL0     H40169  11.052  11.925  -0.694  0.1886 -0.1771  0.1391
 1016MOL0     H40170  11.292  12.099  -0.295  1.1028 -2.0973 -2.8432
 1016MOL0     H40171  11.459  12.234  -0.147  1.4484  0.1137  1.4856
 1016MOL0     H40172  11.718  12.050   0.166 -0.1440  1.0908  0.6960
 1016MOL0     H40173  11.801  12.008   0.026 -0.5969  0.4630 -1.7231
 1016MOL0     H40174  11.932  12.160   0.157 -0.8883 -0.0714  1.0847
 1016MOL0     H40175  11.909  12.213  -0.007  1.8424 -2.9975  2.1766
 1016MOL0     H40176  11.756  12.381   0.088 -4.0626 -1.9449  2.8450
 1016MOL0     H40177  11.910  12.377   0.174 -0.2405  1.5659 -1.4427
 1016MOL0     H40178  11.746  12.222   0.331 -2.4611 -2.4478 -1.4502
 1016MOL0     H40179  11.610  12.306   0.241 -0.2571  0.4299 -2.4203
 1016MOL0     H40180  11.842  12.427   0.414  0.5686  1.1305 -1.0051
 1016MOL0     H40181  11.721  12.512   0.309 -1.7296  1.2279  1.8259
 1016MOL0     H40182  11.649  12.360   0.564 -1.6216  0.3975  0.0633
 1016MOL0     H40183  11.528  12.427   0.449 -0.1711  0.7761  0.2966
 1016MOL0     H40184  11.700  12.644   0.468  2.6585 -0.2148  1.2649
 1016MOL0     H40185  11.729  12.561   0.617  1.8373 -0.6877 -1.5824
 1016MOL0     H40186  11.558  12.726   0.653  2.6442 -0.5838 -0.7191
 1016MOL0     H40187  11.481  12.557   0.650 -2.9865  1.8354 -0.1652
 1016MOL0     H40188  11.618  11.863   0.002 -1.9433 -0.1255  1.1820
 1016MOL0     H40189  11.484  11.747  -0.142  0.7431  0.6400  0.3361
 1016MOL0     H40190  11.234  11.583  -0.322 -1.6561 -0.5484  2.6329
 1016MOL0     H40191  11.143  11.391  -0.416  2.0469 -0.5971 -2.4864
 1016MOL0     H40192  10.514  10.076  -0.132 -1.0181 -0.1423  0.0185
 1016MOL0     H40193  10.527  10.254   0.019  3.3876  2.2730  0.9506
 1016MOL0     H40194  10.955  10.368   0.515  1.2552  2.2446  0.7994
 1016MOL0     H40195  10.927  10.491   0.711 -1.5370  3.7449  1.0986
 1016MOL0     H40196  10.867  10.503   0.927  2.2313  2.8116 -2.6061
 1016MOL0     H40197  10.819  10.660   0.882  0.5173  0.2641  0.6673
 1016MOL0     H40198  10.624  10.663   1.055  0.7813  0.6506 -3.0819
 1016MOL0     H40199  10.793  10.675   1.109 -0.8581  0.0491  0.3350
 1016MOL0     H40200  10.642  10.534   1.244 -1.5406 -0.7571 -0.2144
 1016MOL0     H40201  10.621  10.417   1.108  0.1820  0.7210 -2.4897
 1016MOL0     H40202  10.846  10.342   1.107 -1.5784 -0.5127  0.6566
 1016MOL0     H40203  10.767  10.322   1.254 -1.3195  0.8930 -0.5315
 1016MOL0     H40204  11.053  10.580   1.407 -0.3889 -2.2615  2.5263
 1016MOL0     H40205  10.501  10.425   0.699  1.0721  4.5834  1.6246
 1016MOL0     H40206  10.413  10.342   0.471  0.9797  0.8193 -0.6435
 1016MOL0     H40207  10.500  10.211   0.398 -1.4197 -1.1889  1.1422
 1016MOL0     H40208  10.462  10.200   0.570 -2.9794  2.2657  1.1844
 1017MOL0     O40209   6.034   8.383   5.891  0.0140 -0.2503  0.4675
 1017MOL0     C40210   5.955   8.431   5.973 -0.0244 -0.9086  0.8671
 1017MOL0     O40211   5.845   8.515   5.936 -0.3051  0.2195 -0.3827
 1017MOL0     C40212   5.802   8.531   5.807 -0.1384  0.1403 -0.1366
 1017MOL0     C40213   5.664   8.504   5.785 -0.4870 -0.3087  0.3738
 1017MOL0     C40214   5.617   8.503   5.653 -0.0872 -0.4514 -0.0060
 1017MOL0     C40215   5.698   8.551   5.550  0.0353  0.2854  0.4972
 1017MOL0     O40216   5.651   8.546   5.422  0.0675  0.5773 -0.1831
 1017MOL0     C40217   5.744   8.499   5.322  0.0296 -0.2588  0.2493
 1017MOL0     C40218   5.792   8.357   5.343 -0.1064 -0.9049 -0.0775
 1017MOL0     C40219   5.728   8.262   5.250 -0.3464 -0.1892  0.4779
 1017MOL0     C40220   5.765   8.112   5.259 -0.1493 -0.1574 -0.1238
 1017MOL0     C40221   5.669   8.016   5.186 -0.0910 -0.7031  0.9835
 1017MOL0     C40222   5.744   7.881   5.161 -0.0186 -0.7397 -0.3587
 1017MOL0     C40223   5.646   7.776   5.100  0.3183  0.2112 -1.7426
 1017MOL0     C40224   5.713   7.654   5.050  0.5565  0.5660 -0.1375
 1017MOL0     N40225   5.781   7.688   4.929  0.2457  0.2748 -0.6564
 1017MOL0     C40226   5.720   7.730   4.816  0.8176 -0.8861  0.2509
 1017MOL0     C40227   5.820   7.771   4.733  0.8147  0.3029 -0.0588
 1017MOL0     C40228   5.788   7.847   4.611 -0.0189  0.4622  0.3044
 1017MOL0     C40229   5.793   7.763   4.481 -0.2455  0.3824 -0.1003
 1017MOL0     C40230   5.930   7.705   4.467  0.5037 -0.8312 -1.0540
 1017MOL0     C40231   5.960   7.655   4.324  0.0814  1.3084 -0.3036
 1017MOL0     O40232   5.942   7.749   4.218 -0.6544 -1.0079 -0.0388
 1017MOL0     C40233   6.026   7.853   4.194 -0.0183  0.0977 -0.7038
 1017MOL0     C40234   5.988   7.929   4.086  0.4310 -0.4016 -0.4523
 1017MOL0     C40235   6.062   8.033   4.041 -0.4178 -0.1019 -0.7249
 1017MOL0     C40236   6.008   8.091   3.907  0.0660  0.0526 -0.4644
 1017MOL0     C40237   6.180   8.068   4.109  0.0365  0.1517 -0.7576
 1017MOL0     C40238   6.268   8.182   4.060  0.2953  0.7677 -1.0972
 1017MOL0     O40239   6.268   8.213   3.931  0.0090 -0.2617 -0.0122
 1017MOL0     C40240   6.324   8.338   3.895 -0.2101 -0.6268 -0.5249
 1017MOL0     C40241   6.260   8.461   3.906 -0.3080  0.2925  0.1525
 1017MOL0     C40242   6.314   8.587   3.873 -0.1615  0.1656  0.3466
 1017MOL0     C40243   6.445   8.579   3.815 -0.4052  1.0666 -1.6460
 1017MOL0     O40244   6.495   8.689   3.744 -0.1182  0.7396  0.1184
 1017MOL0     C40245   6.500   8.818   3.812 -0.1793 -0.1995 -0.0953
 1017MOL0     C40246   6.618   8.905   3.764 -1.1844 -0.0743 -0.1760
 1017MOL0     C40247   6.624   8.924   3.616  0.2695  0.0837  0.1740
 1017MOL0     C40248   6.749   9.003   3.578  0.5493 -1.1450 -0.6114
 1017MOL0     C40249   6.793   8.989   3.433  0.6576 -0.5990 -0.3744
 1017MOL0     C40250   6.924   9.072   3.420 -0.1029  0.7979  0.3444
 1017MOL0     C40251   6.924   9.183   3.313 -0.2412  0.2387 -0.2312
 1017MOL0     C40252   7.064   9.246   3.302 -0.0549 -0.1956 -0.7416
 1017MOL0    Cl40253   7.064   9.399   3.207  0.6083 -0.2876 -0.3351
 1017MOL0     C40254   6.505   8.458   3.789 -0.6120  0.5523  0.0044
 1017MOL0     C40255   6.448   8.338   3.837 -0.3174  0.2561  0.2239
 1017MOL0     O40256   6.308   8.258   4.152  0.2543 -0.4543  0.3205
 1017MOL0     C40257   6.218   7.998   4.227  0.3196  0.4002 -0.6252
 1017MOL0     C40258   6.143   7.893   4.273  0.5551  0.0192 -0.2908
 1017MOL0     N40259   5.940   7.745   4.788 -0.5376 -0.0950 -1.2381
 1017MOL0     N40260   5.916   7.700   4.912 -0.4551  0.1946  0.6919
 1017MOL0     C40261   5.825   8.598   5.584 -0.4576 -0.0687  0.3590
 1017MOL0     C40262   5.881   8.586   5.712  0.5001  0.1816 -0.2662
 1017MOL0     C40263   5.961   8.384   6.114  0.3202 -0.0690 -0.7006
 1017MOL0     C40264   5.841   8.323   6.145 -0.0243 -0.7550  0.1723
 1017MOL0     C40265   5.823   8.264   6.270  0.2394  0.6732  0.0701
 1017MOL0     C40266   5.932   8.241   6.353 -0.3162  0.6099 -0.3608
 1017MOL0     O40267   5.890   8.178   6.469  0.3756  0.3043  1.2423
 1017MOL0     C40268   5.882   8.268   6.584 -1.1283  0.4927  0.5797
 1017MOL0     C40269   5.856   8.179   6.704 -0.3239  0.6308  0.3242
 1017MOL0     C40270   5.714   8.125   6.690  0.2820  0.1667 -0.3239
 1017MOL0     C40271   5.639   8.096   6.815 -0.2339  0.4842 -0.0027
 1017MOL0     C40272   5.731   8.054   6.921  0.0943  0.6634  0.0640
 1017MOL0     C40273   5.793   8.032   7.020  0.0403  0.0171  0.0274
 1017MOL0     C40274   6.056   8.309   6.332  0.6301  0.3311  0.0153
 1017MOL0     C40275   6.069   8.378   6.207  0.8393 -0.3212 -0.2450
 1017MOL0     C40276   6.192   8.465   6.184  0.2566  0.7512 -0.6612
 1017MOL0     H40277   5.605   8.473   5.871 -1.4214 -0.1576 -0.2057
 1017MOL0     H40278   5.517   8.471   5.626  0.1669  0.6856 -2.5729
 1017MOL0     H40279   5.826   8.569   5.304  0.6719 -1.2367 -0.7058
 1017MOL0     H40280   5.682   8.513   5.233 -0.7536  2.9120  1.1772
 1017MOL0     H40281   5.900   8.371   5.335 -0.4450  4.1126  0.8838
 1017MOL0     H40282   5.770   8.313   5.440  0.7807 -0.0914  0.5017
 1017MOL0     H40283   5.619   8.269   5.259 -0.3911  1.3655 -0.7697
 1017MOL0     H40284   5.768   8.292   5.152  2.1404  2.5333  2.1659
 1017MOL0     H40285   5.863   8.103   5.211 -0.5188 -1.3522 -0.6839
 1017MOL0     H40286   5.770   8.072   5.361  3.2018 -1.9746 -0.8567
 1017MOL0     H40287   5.662   8.055   5.084 -1.1261  0.4339  1.4645
 1017MOL0     H40288   5.569   7.992   5.224 -0.2983 -1.2377  0.1287
 1017MOL0     H40289   5.823   7.900   5.088 -0.6022 -0.9571 -1.0611
 1017MOL0     H40290   5.803   7.846   5.246  0.9258  1.9446  0.1850
 1017MOL0     H40291   5.576   7.813   5.025 -3.1872  0.0205  1.0921
 1017MOL0     H40292   5.596   7.735   5.189  1.9140  0.9407 -0.4662
 1017MOL0     H40293   5.776   7.604   5.125 -1.9035 -1.1967  0.8943
 1017MOL0     H40294   5.631   7.585   5.026  1.7972 -0.8978 -0.3000
 1017MOL0     H40295   5.615   7.757   4.806  1.0031  0.0842  0.8313
 1017MOL0     H40296   5.842   7.942   4.603 -4.3222  3.3857  2.2450
 1017MOL0     H40297   5.684   7.878   4.620 -1.2444 -3.2998  0.6267
 1017MOL0     H40298   5.708   7.694   4.488 -0.7134  1.0723  1.7995
 1017MOL0     H40299   5.767   7.831   4.400  4.0039 -0.5498 -2.5677
 1017MOL0     H40300   6.001   7.782   4.499 -4.3847  2.5574  3.2314
 1017MOL0     H40301   5.936   7.618   4.533 -0.6360 -1.1143 -1.3071
 1017MOL0     H40302   6.061   7.613   4.317  0.2886  1.4969  1.1767
 1017MOL0     H40303   5.882   7.580   4.307 -0.1459  1.2949  0.7152
 1017MOL0     H40304   5.902   7.890   4.032  0.9957  0.7732 -2.3091
 1017MOL0     H40305   6.025   8.199   3.919 -1.3501  0.1379  1.1588
 1017MOL0     H40306   5.902   8.082   3.885 -0.6936  1.1627  2.2587
 1017MOL0     H40307   6.076   8.050   3.832  2.6732  2.2902  0.4933
 1017MOL0     H40308   6.164   8.453   3.956 -0.1463  1.1631  0.6354
 1017MOL0     H40309   6.255   8.679   3.872 -2.1769 -1.0582  0.2628
 1017MOL0     H40310   6.412   8.879   3.788  0.1402  2.0139  3.5883
 1017MOL0     H40311   6.493   8.811   3.921 -0.0791 -1.5950 -0.1551
 1017MOL0     H40312   6.613   9.006   3.806  2.2514 -0.0984  0.5802
 1017MOL0     H40313   6.715   8.864   3.795 -0.4615  0.9895 -0.9301
 1017MOL0     H40314   6.537   8.978   3.578 -0.4072 -2.0814 -1.5032
 1017MOL0     H40315   6.622   8.823   3.574 -1.0707 -0.0528  0.5372
 1017MOL0     H40316   6.833   8.967   3.640 -0.8449  2.5398  4.0596
 1017MOL0     H40317   6.732   9.108   3.604  1.4231 -1.0016 -0.5844
 1017MOL0     H40318   6.804   8.886   3.400 -0.2202 -0.6252 -0.6087
 1017MOL0     H40319   6.714   9.040   3.377  2.0478  2.1514 -0.0143
 1017MOL0     H40320   6.997   8.995   3.391 -1.5780 -0.2539 -0.6804
 1017MOL0     H40321   6.952   9.120   3.515  1.7628  2.9740 -1.1718
 1017MOL0     H40322   6.857   9.265   3.342 -0.6946  1.9140 -5.0016
 1017MOL0     H40323   6.876   9.139   3.224 -2.5404 -5.1490  3.1306
 1017MOL0     H40324   7.132   9.171   3.262 -0.9238 -0.8618 -0.9997
 1017MOL0     H40325   7.095   9.263   3.405 -0.5168 -1.0836 -0.4488
 1017MOL0     H40326   6.600   8.449   3.737 -1.8109 -0.3082 -2.1259
 1017MOL0     H40327   6.495   8.243   3.813 -1.4767  0.3296 -2.6569
 1017MOL0     H40328   6.293   8.034   4.296 -0.7723  1.6928 -0.0689
 1017MOL0     H40329   6.170   7.846   4.367 -1.9040 -1.4532 -0.2074
 1017MOL0     H40330   5.888   8.645   5.509  1.4981  0.3983  2.1850
 1017MOL0     H40331   5.985   8.601   5.735  0.2641 -2.1356  2.9044
 1017MOL0     H40332   5.760   8.330   6.073  0.6443 -0.9956 -0.6244
 1017MOL0     H40333   5.725   8.223   6.296  0.2193  1.7174  1.7101
 1017MOL0     H40334   5.973   8.326   6.600 -1.4928  1.7828 -1.6027
 1017MOL0     H40335   5.804   8.343   6.574 -1.4560 -0.0335 -1.0949
 1017MOL0     H40336   5.866   8.232   6.798 -3.6892  3.3213 -0.6193
 1017MOL0     H40337   5.937   8.106   6.706  0.8936  1.9752  1.5618
 1017MOL0     H40338   5.652   8.193   6.631 -0.5153  1.1994  1.6084
 1017MOL0     H40339   5.723   8.033   6.632 -0.6632  0.5793 -1.1577
 1017MOL0     H40340   5.561   8.019   6.807 -0.0530  0.0591  1.9440
 1017MOL0     H40341   5.591   8.189   6.846  0.6436 -0.2124  3.9413
 1017MOL0     H40342   5.854   8.010   7.105  0.1054 -1.9482 -0.4810
 1017MOL0     H40343   6.126   8.303   6.415  2.5841  0.4955 -1.5651
 1017MOL0     H40344   6.277   8.414   6.229  0.1337  0.6113 -0.5848
 1017MOL0     H40345   6.222   8.471   6.079  1.0235 -1.1154 -0.5891
 1017MOL0     H40346   6.175   8.568   6.216 -0.2403  0.8167 -1.1219
 1018MOL0     O40347   5.056   4.721  11.292  0.4212 -0.0768  0.2897
 1018MOL0     C40348   4.964   4.640  11.275  0.8102  0.3780 -0.3664
 1018MOL0     O40349   4.959   4.538  11.187  0.0149  0.0225 -0.2760
 1018MOL0     C40350   5.043   4.541  11.077 -0.1760 -0.6472 -0.0168
 1018MOL0     C40351   5.181   4.529  11.096 -0.3695  0.3878  0.3792
 1018MOL0     C40352   5.259   4.545  10.986 -0.7464  0.1244  0.2980
 1018MOL0     C40353   5.214   4.573  10.858 -0.8994 -1.0422  0.0995
 1018MOL0     O40354   5.300   4.611  10.756 -0.5219 -0.5965 -0.3131
 1018MOL0     C40355   5.290   4.573  10.617  0.6891 -0.5250 -1.7739
 1018MOL0     C40356   5.262   4.693  10.529  0.4141 -0.0692 -0.8223
 1018MOL0     C40357   5.376   4.794  10.517 -0.0721  0.7387 -0.2318
 1018MOL0     C40358   5.342   4.915  10.432  0.4870  0.7673  0.5850
 1018MOL0     C40359   5.471   4.984  10.383  0.1269  0.7775  0.3884
 1018MOL0     C40360   5.450   5.121  10.311  1.0094 -0.0554  0.3759
 1018MOL0     C40361   5.398   5.224  10.415  0.5042  0.5951 -0.0728
 1018MOL0     C40362   5.352   5.342  10.345  0.3095  0.4252 -0.2221
 1018MOL0     N40363   5.441   5.455  10.324 -0.7392 -0.2950  0.1047
 1018MOL0     C40364   5.572   5.441  10.283  0.8308 -0.6509  0.0377
 1018MOL0     C40365   5.589   5.555  10.213  0.4673 -0.2896 -0.5769
 1018MOL0     C40366   5.721   5.595  10.161 -0.5218  0.7038 -0.0392
 1018MOL0     C40367   5.726   5.583  10.007  0.4033 -0.1604  0.5279
 1018MOL0     C40368   5.860   5.624   9.965 -0.6875 -0.0754  0.2060
 1018MOL0     C40369   5.890   5.632   9.814  0.9455  0.4787  0.0439
 1018MOL0     O40370   5.996   5.717   9.778 -0.1764 -0.2295 -0.2974
 1018MOL0     C40371   6.115   5.655   9.788  0.0418 -0.4615  0.3903
 1018MOL0     C40372   6.176   5.591   9.676  0.4698  0.0440 -0.2384
 1018MOL0     C40373   6.300   5.530   9.677  0.6361 -0.0594  0.3980
 1018MOL0     C40374   6.344   5.465   9.551  0.2223 -0.3594  0.0823
 1018MOL0     C40375   6.364   5.526   9.798  0.0557  0.1607 -0.4935
 1018MOL0     C40376   6.491   5.468   9.809 -0.4771 -0.5263 -0.1497
 1018MOL0     O40377   6.590   5.528   9.729 -0.1582  0.1540  1.3695
 1018MOL0     C40378   6.712   5.463   9.718 -0.1104 -1.2384  0.2961
 1018MOL0     C40379   6.817   5.477   9.807  0.1126  0.0390 -0.3866
 1018MOL0     C40380   6.947   5.438   9.774 -0.3282  0.4472 -0.0874
 1018MOL0     C40381   6.973   5.363   9.660 -0.4734 -0.8114  1.4415
 1018MOL0     O40382   7.098   5.320   9.624 -0.3878 -0.2948 -0.3256
 1018MOL0     C40383   7.164   5.235   9.727 -0.6499  0.2532  0.1755
 1018MOL0     C40384   7.111   5.094   9.721 -0.0051  0.1382  0.4184
 1018MOL0     C40385   7.166   5.018   9.839 -0.0121 -0.2059 -0.6467
 1018MOL0     C40386   7.128   4.878   9.875  0.0991  0.6429  0.0738
 1018MOL0     C40387   7.181   4.784   9.757 -0.0173 -0.4209  0.2398
 1018MOL0     C40388   7.153   4.641   9.800  0.2240  0.0150 -0.6539
 1018MOL0     C40389   7.149   4.542   9.675 -0.5796  0.0611  0.0174
 1018MOL0     C40390   7.288   4.534   9.604 -0.7190  0.6316  0.1889
 1018MOL0    Cl40391   7.291   4.386   9.493  0.1570  0.1080  0.1274
 1018MOL0     C40392   6.870   5.357   9.565 -0.0647  0.1021  0.6239
 1018MOL0     C40393   6.744   5.419   9.586 -0.9752 -0.7189  0.3762
 1018MOL0     O40394   6.504   5.382   9.895 -0.2639 -0.6541  0.2773
 1018MOL0     C40395   6.305   5.583   9.910 -0.3134 -0.1710  0.7294
 1018MOL0     C40396   6.191   5.658   9.898 -0.4817  0.0363 -0.2941
 1018MOL0     N40397   5.482   5.636  10.215  0.8090  0.1554  0.0388
 1018MOL0     N40398   5.393   5.571  10.281  0.1767 -0.3328 -0.0314
 1018MOL0     C40399   5.074   4.569  10.836 -1.0152  0.3304 -0.1707
 1018MOL0     C40400   4.994   4.541  10.948  0.7580 -0.6572  0.2285
 1018MOL0     C40401   4.836   4.664  11.349 -0.1649  0.1689 -0.2612
 1018MOL0     C40402   4.714   4.596  11.309 -0.2722 -0.5613  1.0564
 1018MOL0     C40403   4.589   4.611  11.375  0.0131 -0.2764  0.1790
 1018MOL0     C40404   4.593   4.683  11.493  0.4927 -1.2687  0.4674
 1018MOL0     O40405   4.477   4.705  11.577 -0.4684 -0.6475 -0.0132
 1018MOL0     C40406   4.360   4.748  11.519 -0.5105  0.0486 -0.3815
 1018MOL0     C40407   4.270   4.802  11.626 -0.7050 -0.1462  1.0479
 1018MOL0     C40408   4.239   4.698  11.735  0.1397 -0.2320 -1.0278
 1018MOL0     C40409   4.096   4.727  11.790 -0.3407  0.7207  0.3053
 1018MOL0     C40410   4.067   4.654  11.908 -0.4797 -0.2328  0.5238
 1018MOL0     C40411   4.053   4.592  12.008 -0.0210 -0.2494 -0.0003
 1018MOL0     C40412   4.711   4.734  11.540 -0.0686 -0.5357 -0.4658
 1018MOL0     C40413   4.832   4.730  11.471  0.2441  0.4784 -0.7199
 1018MOL0     C40414   4.954   4.785  11.542 -0.6824  0.4915 -0.1426
 1018MOL0     H40415   5.207   4.515  11.200  4.3755  0.2151 -0.6246
 1018MOL0     H40416   5.366   4.545  11.007 -1.3264  1.3605  3.8973
 1018MOL0     H40417   5.207   4.504  10.600  0.1508 -0.6580  0.9718
 1018MOL0     H40418   5.378   4.517  10.582  1.1510 -0.4038 -0.8245
 1018MOL0     H40419   5.251   4.655  10.427  1.3344 -0.0958 -0.9193
 1018MOL0     H40420   5.169   4.732  10.571 -0.1561 -3.5056  1.5492
 1018MOL0     H40421   5.393   4.836  10.616  0.8687 -1.7600  0.7509
 1018MOL0     H40422   5.473   4.747  10.498 -1.1533 -0.9865 -1.8399
 1018MOL0     H40423   5.280   4.887  10.347  0.0709 -1.1760  1.4754
 1018MOL0     H40424   5.280   4.974  10.500 -1.7690  2.2945 -2.5496
 1018MOL0     H40425   5.507   4.914  10.308  1.8184  0.5397  1.3806
 1018MOL0     H40426   5.546   4.991  10.462  0.5899 -0.9018  0.1341
 1018MOL0     H40427   5.544   5.155  10.267  0.5856  0.0898 -0.4575
 1018MOL0     H40428   5.382   5.116  10.225  1.7245 -0.7606 -0.1675
 1018MOL0     H40429   5.472   5.238  10.494  0.9506  0.2811 -0.4334
 1018MOL0     H40430   5.312   5.180  10.466 -0.1817  2.4641  0.4755
 1018MOL0     H40431   5.314   5.314  10.246  2.0181 -1.0573 -0.5022
 1018MOL0     H40432   5.266   5.381  10.401  1.3274  0.5716  1.2830
 1018MOL0     H40433   5.632   5.352  10.299  1.5240 -0.1222  0.4032
 1018MOL0     H40434   5.804   5.537  10.202  1.4660  2.0095 -1.9859
 1018MOL0     H40435   5.741   5.700  10.184 -0.0500  0.7304 -0.5501
 1018MOL0     H40436   5.704   5.484   9.966 -1.9364  0.1710  0.8395
 1018MOL0     H40437   5.663   5.657   9.956  0.1292  0.4438  1.7050
 1018MOL0     H40438   5.871   5.728   9.998  0.2802 -0.2283  0.4073
 1018MOL0     H40439   5.939   5.568  10.016 -0.4668 -0.1625 -0.2302
 1018MOL0     H40440   5.898   5.536   9.762  0.9781  0.0430  0.8340
 1018MOL0     H40441   5.802   5.669   9.761  0.7035 -0.9041 -0.5863
 1018MOL0     H40442   6.124   5.592   9.580 -4.8307 -1.2283  2.2314
 1018MOL0     H40443   6.309   5.516   9.460 -0.4840  1.6893  1.4431
 1018MOL0     H40444   6.301   5.365   9.547 -1.4476  0.3240  0.1108
 1018MOL0     H40445   6.453   5.464   9.541  0.1563 -0.0116 -0.7846
 1018MOL0     H40446   6.811   5.518   9.907 -2.7082 -2.2956  0.5370
 1018MOL0     H40447   7.021   5.455   9.852 -0.6059 -4.6481  1.7007
 1018MOL0     H40448   7.270   5.230   9.701  0.4367  3.2024  3.2801
 1018MOL0     H40449   7.162   5.285   9.824 -0.1451  2.6715 -0.9697
 1018MOL0     H40450   7.002   5.104   9.722 -0.3906 -0.7090 -4.7184
 1018MOL0     H40451   7.119   5.046   9.623 -2.1604  1.3640 -0.4391
 1018MOL0     H40452   7.135   5.075   9.927  1.9822  0.2127 -0.1656
 1018MOL0     H40453   7.275   5.029   9.833 -0.1899  0.8792 -3.0959
 1018MOL0     H40454   7.019   4.877   9.882  0.0396 -0.0827 -0.7961
 1018MOL0     H40455   7.167   4.835   9.968  2.4341 -1.0253 -1.5639
 1018MOL0     H40456   7.120   4.796   9.667  2.4160 -1.7763 -1.7216
 1018MOL0     H40457   7.283   4.805   9.723 -0.7733  2.2002 -0.6312
 1018MOL0     H40458   7.064   4.632   9.862  0.9205 -0.2730  0.3243
 1018MOL0     H40459   7.227   4.616   9.877  0.2361  2.4254  0.2059
 1018MOL0     H40460   7.072   4.569   9.602 -0.8121 -5.1119 -2.0651
 1018MOL0     H40461   7.115   4.444   9.710  1.9155 -0.7450  0.3643
 1018MOL0     H40462   7.359   4.514   9.685  0.5406  0.4938 -0.9029
 1018MOL0     H40463   7.326   4.625   9.555  0.8854 -0.3406 -0.4491
 1018MOL0     H40464   6.903   5.292   9.484 -1.7481 -0.7259  0.5707
 1018MOL0     H40465   6.667   5.439   9.512 -2.2749  2.7608  2.3951
 1018MOL0     H40466   6.353   5.570  10.007  1.3850 -4.8454 -0.4702
 1018MOL0     H40467   6.153   5.680   9.997  1.3252 -2.0208  0.9664
 1018MOL0     H40468   5.036   4.568  10.735  0.3783 -4.4500 -0.8614
 1018MOL0     H40469   4.890   4.528  10.920  0.5509  1.8406 -0.4611
 1018MOL0     H40470   4.732   4.543  11.216  2.8522  3.9903 -1.3314
 1018MOL0     H40471   4.501   4.557  11.344  1.0251 -0.6328 -2.2770
 1018MOL0     H40472   4.397   4.822  11.446  1.1331  0.9052  1.2490
 1018MOL0     H40473   4.319   4.660  11.469  4.9958 -3.8790  1.0943
 1018MOL0     H40474   4.182   4.834  11.570  0.1178  2.6930  1.2260
 1018MOL0     H40475   4.317   4.896  11.655  2.0996 -0.1956 -2.6012
 1018MOL0     H40476   4.226   4.597  11.695 -1.5432 -0.8646  0.9131
 1018MOL0     H40477   4.311   4.703  11.817 -2.5942 -0.9874  1.6193
 1018MOL0     H40478   4.029   4.696  11.709 -0.6958 -0.0644  0.8869
 1018MOL0     H40479   4.081   4.832  11.815 -1.8865  0.8248 -0.8942
 1018MOL0     H40480   4.050   4.542  12.103  2.3596  1.2856  0.9553
 1018MOL0     H40481   4.701   4.795  11.629 -1.8204 -2.2227  0.5573
 1018MOL0     H40482   4.916   4.842  11.627 -4.0034  0.3713 -1.4201
 1018MOL0     H40483   5.020   4.706  11.579 -1.3615 -0.3936 -0.7771
 1018MOL0     H40484   5.006   4.855  11.476 -1.2100 -0.3185 -1.4682
 1019MOL0     O40485   1.814   2.444   4.740  0.4718  0.6065  0.4598
 1019MOL0     C40486   1.770   2.558   4.698 -0.7958 -0.1698 -0.4818
 1019MOL0     O40487   1.730   2.663   4.776  0.0650 -0.3746 -0.2919
 1019MOL0     C40488   1.707   2.641   4.908 -0.4120  0.1934 -1.1396
 1019MOL0     C40489   1.590   2.682   4.969 -0.4869 -0.3928 -0.9662
 1019MOL0     C40490   1.565   2.659   5.105 -0.3773  0.3510  0.5702
 1019MOL0     C40491   1.644   2.578   5.179  0.1371  0.6207  0.6827
 1019MOL0     O40492   1.630   2.567   5.307  0.0441  0.4011  0.7505
 1019MOL0     C40493   1.584   2.431   5.347 -0.7661 -0.8066  0.4827
 1019MOL0     C40494   1.523   2.433   5.488 -0.3427  0.3263 -1.2110
 1019MOL0     C40495   1.643   2.432   5.591  0.3267  1.2121 -0.4400
 1019MOL0     C40496   1.577   2.452   5.726 -0.1971 -0.0113 -0.1943
 1019MOL0     C40497   1.674   2.432   5.849 -0.2798 -0.2006 -0.3711
 1019MOL0     C40498   1.623   2.460   5.992  1.2085  0.0347  0.1740
 1019MOL0     C40499   1.481   2.395   6.024 -1.3652  0.0732 -0.3189
 1019MOL0     C40500   1.449   2.447   6.159  0.2209 -1.1461  0.3519
 1019MOL0     N40501   1.316   2.393   6.205 -0.6468 -0.3349 -0.9083
 1019MOL0     C40502   1.194   2.415   6.145 -0.2726  0.0890  0.7631
 1019MOL0     C40503   1.100   2.381   6.241 -0.0534  0.7363  0.2257
 1019MOL0     C40504   0.957   2.407   6.236  0.1455  0.6625  0.5698
 1019MOL0     C40505   0.900   2.422   6.375  1.3540 -1.1537 -1.1088
 1019MOL0     C40506   0.736   2.428   6.382 -0.9616  0.1957 -0.8700
 1019MOL0     C40507   0.676   2.521   6.276  0.2083  0.6671  0.0744
 1019MOL0     O40508   0.715   2.648   6.320 -0.2903 -0.6001  0.1768
 1019MOL0     C40509   0.619   2.749   6.332 -0.1278 -0.0196 -0.4245
 1019MOL0     C40510   0.539   2.735   6.448  0.2572 -0.2239 -0.1846
 1019MOL0     C40511   0.431   2.831   6.476  0.1889  0.2394  0.4708
 1019MOL0     C40512   0.351   2.803   6.598 -0.3339  1.1579 -0.3457
 1019MOL0     C40513   0.431   2.952   6.405 -0.4347 -1.0757  0.2882
 1019MOL0     C40514   0.355   3.074   6.430  0.0549 -1.1661  0.2224
 1019MOL0     O40515   0.384   3.188   6.358 -0.3317  0.1589  0.0595
 1019MOL0     C40516   0.338   3.310   6.395 -0.0160  0.8761 -0.7467
 1019MOL0     C40517   0.249   3.373   6.306 -0.0203 -0.4291 -0.1997
 1019MOL0     C40518   0.193   3.498   6.344 -0.6547 -0.2254 -0.7257
 1019MOL0     C40519   0.241   3.564   6.458 -0.5621  0.4831  0.1815
 1019MOL0     O40520   0.190   3.684   6.506 -1.6496 -0.0992 -0.1861
 1019MOL0     C40521   0.261   3.778   6.594 -0.3089 -0.2294 -0.7882
 1019MOL0     C40522   0.221   3.923   6.556  0.5174  0.1250  0.2251
 1019MOL0     C40523   0.063   3.922   6.561  0.7548  0.2376 -0.0802
 1019MOL0     C40524  -0.006   4.055   6.518 -0.0479  0.5192  0.4669
 1019MOL0     C40525   0.051   4.174   6.606  0.3538  0.3632  0.9992
 1019MOL0     C40526  -0.039   4.299   6.555  0.8149 -0.4936 -0.3048
 1019MOL0     C40527  -0.002   4.421   6.647 -0.4187 -0.2268 -0.1120
 1019MOL0     C40528  -0.102   4.540   6.637 -0.5467 -0.1977 -0.2386
 1019MOL0    Cl40529  -0.240   4.522   6.515  0.1172  0.3358 -0.4980
 1019MOL0     C40530   0.322   3.496   6.549 -0.1771 -0.2648  0.7609
 1019MOL0     C40531   0.363   3.363   6.517 -0.0188  0.4674  0.1018
 1019MOL0     O40532   0.270   3.075   6.524 -0.2721 -0.6911 -0.2398
 1019MOL0     C40533   0.522   2.966   6.295  0.1180 -0.9825 -0.3153
 1019MOL0     C40534   0.615   2.864   6.260 -0.4838 -0.0893 -0.2524
 1019MOL0     N40535   1.167   2.313   6.338  0.2439  0.7502  0.0460
 1019MOL0     N40536   1.294   2.326   6.323  0.0645 -1.1856 -0.3128
 1019MOL0     C40537   1.771   2.538   5.123  0.2423 -0.8207  0.0498
 1019MOL0     C40538   1.805   2.574   4.993  0.4522  0.2859 -0.3302
 1019MOL0     C40539   1.773   2.587   4.548 -0.0173 -0.3961 -0.0312
 1019MOL0     C40540   1.705   2.700   4.497 -0.5697  0.7060  0.6546
 1019MOL0     C40541   1.704   2.726   4.366  0.4552  0.2320  0.9998
 1019MOL0     C40542   1.778   2.650   4.266 -1.1913 -0.2382  0.0199
 1019MOL0     O40543   1.801   2.664   4.129 -0.9445 -0.1331 -0.1933
 1019MOL0     C40544   1.707   2.754   4.065  0.2179 -0.4726  0.2491
 1019MOL0     C40545   1.753   2.904   4.060 -0.3513 -0.3262 -0.6258
 1019MOL0     C40546   1.878   2.927   3.984  0.4106 -0.6303  0.7310
 1019MOL0     C40547   1.934   3.066   3.960  0.0833  0.3230 -0.0090
 1019MOL0     C40548   2.014   3.103   4.076 -0.1029 -0.2490  0.5471
 1019MOL0     C40549   2.076   3.128   4.179  0.3750 -0.1634 -0.0426
 1019MOL0     C40550   1.855   2.553   4.319  0.1036  0.2528 -0.6798
 1019MOL0     C40551   1.855   2.513   4.458  0.2924  0.1134 -0.8457
 1019MOL0     C40552   1.950   2.399   4.499  0.6593 -0.1519  0.0934
 1019MOL0     H40553   1.521   2.747   4.916  0.0814  4.0186  3.0197
 1019MOL0     H40554   1.481   2.705   5.155 -1.4667 -0.4009 -0.5077
 1019MOL0     H40555   1.663   2.355   5.348 -0.7627 -0.8033  0.4802
 1019MOL0     H40556   1.514   2.388   5.275 -0.3777  1.5904 -1.4564
 1019MOL0     H40557   1.443   2.507   5.496 -2.9491 -2.4186  1.0100
 1019MOL0     H40558   1.477   2.335   5.506 -0.1747  0.3139 -0.8297
 1019MOL0     H40559   1.704   2.341   5.595  0.1690  1.0947  3.2106
 1019MOL0     H40560   1.719   2.510   5.578  2.5518 -0.5675  1.0151
 1019MOL0     H40561   1.552   2.558   5.732  2.6857  0.6711  1.8174
 1019MOL0     H40562   1.486   2.394   5.742  0.4428 -0.6539  1.3069
 1019MOL0     H40563   1.766   2.488   5.828  0.2087 -1.7408 -2.7572
 1019MOL0     H40564   1.710   2.329   5.847 -0.3789 -0.2365 -0.3328
 1019MOL0     H40565   1.693   2.412   6.061  1.1631 -4.0603 -2.2565
 1019MOL0     H40566   1.624   2.568   6.006  3.8831  0.0432  0.4651
 1019MOL0     H40567   1.502   2.288   6.037  1.7036  0.8450  2.3997
 1019MOL0     H40568   1.405   2.422   5.950  0.8856  2.2539 -2.0313
 1019MOL0     H40569   1.534   2.426   6.224  0.4418  0.4776  0.6140
 1019MOL0     H40570   1.446   2.556   6.152  0.5571 -1.2479 -2.4229
 1019MOL0     H40571   1.174   2.469   6.053  0.0854  0.9812  1.1881
 1019MOL0     H40572   0.914   2.327   6.175  0.1644 -0.7521  2.3194
 1019MOL0     H40573   0.950   2.506   6.189 -0.1892  0.0437 -0.7187
 1019MOL0     H40574   0.920   2.339   6.444  3.9626  1.1794  1.1966
 1019MOL0     H40575   0.935   2.510   6.429 -0.1594 -0.9186 -0.4488
 1019MOL0     H40576   0.691   2.331   6.359 -3.4418  1.4003 -1.5176
 1019MOL0     H40577   0.709   2.469   6.480  2.7248  0.6257  0.1213
 1019MOL0     H40578   0.719   2.490   6.181 -1.7713 -3.5960  0.3837
 1019MOL0     H40579   0.568   2.512   6.279  0.0295  0.3695 -3.4188
 1019MOL0     H40580   0.547   2.643   6.506 -1.1445 -2.6613 -3.5014
 1019MOL0     H40581   0.332   2.698   6.625  0.4954  1.1549  0.2521
 1019MOL0     H40582   0.252   2.839   6.566 -0.8163 -0.2251 -0.5054
 1019MOL0     H40583   0.381   2.854   6.689  0.7721  0.4831 -0.3163
 1019MOL0     H40584   0.212   3.330   6.213  0.9594 -1.6313 -0.0528
 1019MOL0     H40585   0.128   3.548   6.273 -0.8242  0.9373  0.2198
 1019MOL0     H40586   0.241   3.747   6.697  1.2937  2.2324  0.3593
 1019MOL0     H40587   0.367   3.760   6.571 -0.7169 -1.2572 -2.0106
 1019MOL0     H40588   0.251   3.994   6.634  0.9818 -2.4263  2.5507
 1019MOL0     H40589   0.242   3.952   6.453 -3.8033  0.5832 -0.6960
 1019MOL0     H40590   0.028   3.905   6.663 -1.9649 -0.8521 -1.0986
 1019MOL0     H40591   0.022   3.845   6.495  0.6052 -0.1196  0.4203
 1019MOL0     H40592  -0.114   4.049   6.537 -0.1875  2.5091  0.4402
 1019MOL0     H40593   0.009   4.066   6.410  0.4412 -0.6609  0.3951
 1019MOL0     H40594   0.032   4.153   6.711  1.4480 -2.1343  0.7536
 1019MOL0     H40595   0.152   4.200   6.574  0.5044  1.7094  2.4448
 1019MOL0     H40596  -0.146   4.275   6.561  1.3153 -2.5767  2.3480
 1019MOL0     H40597  -0.012   4.317   6.451  4.3604 -3.4574 -0.0726
 1019MOL0     H40598   0.100   4.455   6.626 -1.7255  3.4426 -1.2205
 1019MOL0     H40599  -0.002   4.382   6.749  3.0553 -0.2273  0.0204
 1019MOL0     H40600  -0.039   4.626   6.618  1.4174 -1.3532  0.7552
 1019MOL0     H40601  -0.144   4.563   6.735 -2.1310  1.3217 -1.2052
 1019MOL0     H40602   0.349   3.532   6.648 -2.6175  1.1431  0.9902
 1019MOL0     H40603   0.411   3.304   6.594 -2.2133  1.0303  1.9877
 1019MOL0     H40604   0.515   3.060   6.242  0.2473 -0.9600 -0.2945
 1019MOL0     H40605   0.659   2.888   6.164  1.6458  1.2878  0.9908
 1019MOL0     H40606   1.835   2.460   5.163  2.9839 -2.5231 -6.2780
 1019MOL0     H40607   1.901   2.539   4.956 -0.6692 -2.0265 -1.2818
 1019MOL0     H40608   1.663   2.773   4.565 -0.1160 -0.7023  2.5378
 1019MOL0     H40609   1.639   2.806   4.331  0.8741  0.5591  0.9548
 1019MOL0     H40610   1.696   2.721   3.961 -5.0542  0.9560  0.0254
 1019MOL0     H40611   1.609   2.736   4.109 -0.5612 -0.6195 -1.4518
 1019MOL0     H40612   1.761   2.927   4.167 -1.9147  0.9965 -0.7531
 1019MOL0     H40613   1.680   2.968   4.009  1.0924  0.3107 -1.9826
 1019MOL0     H40614   1.954   2.866   4.034  1.6502  0.3700  0.1061
 1019MOL0     H40615   1.863   2.883   3.885  2.2150 -0.9097  0.5554
 1019MOL0     H40616   1.852   3.136   3.942 -2.7214 -1.9051  2.9130
 1019MOL0     H40617   1.993   3.066   3.868 -1.3389 -0.1252 -0.9466
 1019MOL0     H40618   2.134   3.153   4.266  0.0910 -1.1724  0.4508
 1019MOL0     H40619   1.925   2.505   4.251  2.0370  0.4278  1.0675
 1019MOL0     H40620   2.010   2.422   4.588 -0.9733 -1.2848  1.5603
 1019MOL0     H40621   1.888   2.312   4.521  0.0378  0.5119  1.0622
 1019MOL0     H40622   2.008   2.363   4.414  1.1521 -0.6683  0.6410
 1020MOL0     O40623   9.425  10.030   7.341 -0.2724 -0.1847 -0.1548
 1020MOL0     C40624   9.536  10.076   7.341  0.1349  0.4156  0.2612
 1020MOL0     O40625   9.651  10.017   7.376 -0.3895 -0.7168  0.0334
 1020MOL0     C40626   9.638   9.888   7.416  0.8481 -0.3308 -0.7162
 1020MOL0     C40627   9.617   9.869   7.553  0.6558 -0.3617 -0.1642
 1020MOL0     C40628   9.613   9.734   7.598 -0.1008 -0.3974  0.8822
 1020MOL0     C40629   9.617   9.634   7.505  0.2923 -0.4962  1.6295
 1020MOL0     O40630   9.627   9.506   7.559 -0.2553  0.0469  0.3559
 1020MOL0     C40631   9.647   9.394   7.475  0.0580 -0.3516  0.0911
 1020MOL0     C40632   9.626   9.263   7.559  0.0247  0.6502 -1.0631
 1020MOL0     C40633   9.723   9.255   7.681  1.5944 -0.4270 -0.4152
 1020MOL0     C40634   9.699   9.136   7.778  0.0939  0.4931  0.3659
 1020MOL0     C40635   9.759   9.162   7.907 -0.7538  0.8914  0.1336
 1020MOL0     C40636   9.669   9.221   8.013  0.6532  0.3223 -0.0095
 1020MOL0     C40637   9.759   9.235   8.139 -0.4204  0.1826  0.1203
 1020MOL0     C40638   9.687   9.286   8.268  0.4152  0.3140 -0.3892
 1020MOL0     N40639   9.593   9.181   8.314 -0.6926 -0.8031  0.2426
 1020MOL0     C40640   9.454   9.197   8.282  0.2863 -0.5405 -0.8878
 1020MOL0     C40641   9.393   9.114   8.368  0.3608  0.0658  0.4017
 1020MOL0     C40642   9.248   9.105   8.378  0.1220 -0.4223 -0.1482
 1020MOL0     C40643   9.177   9.237   8.389 -1.0816  1.0638 -0.8603
 1020MOL0     C40644   9.040   9.234   8.324 -0.0925  0.1188 -0.2082
 1020MOL0     C40645   8.958   9.351   8.368 -0.3768 -0.0766  0.0357
 1020MOL0     O40646   9.020   9.473   8.323  0.5035 -0.3719 -0.4074
 1020MOL0     C40647   8.950   9.587   8.301  0.4098 -0.1030 -0.5066
 1020MOL0     C40648   9.008   9.687   8.230  0.7510  0.2468 -0.3242
 1020MOL0     C40649   8.932   9.788   8.168  1.0312 -1.3580 -0.8342
 1020MOL0     C40650   8.995   9.896   8.083 -0.2404 -0.0642  0.1576
 1020MOL0     C40651   8.793   9.797   8.198 -0.7279 -0.1037 -0.0541
 1020MOL0     C40652   8.699   9.894   8.131 -0.5953 -0.4469  0.0199
 1020MOL0     O40653   8.618   9.969   8.219 -0.2946 -0.0751  0.2980
 1020MOL0     C40654   8.535  10.053   8.155  0.3653  0.2921 -0.3015
 1020MOL0     C40655   8.392  10.036   8.172 -0.5487 -0.1793  0.3165
 1020MOL0     C40656   8.310  10.128   8.117 -0.3744  0.0596  0.3455
 1020MOL0     C40657   8.349  10.239   8.040 -0.1082  0.6750  0.2874
 1020MOL0     O40658   8.264  10.339   7.990  0.5514 -0.3108  0.3373
 1020MOL0     C40659   8.184  10.296   7.875 -0.6027  0.0949  0.2281
 1020MOL0     C40660   8.048  10.251   7.906  0.2414 -0.0541 -0.3943
 1020MOL0     C40661   7.969  10.235   7.778 -0.3676  0.1309  0.0913
 1020MOL0     C40662   7.843  10.159   7.805  0.2825  0.2661  0.9895
 1020MOL0     C40663   7.756  10.126   7.680  0.0959  0.1233 -0.3159
 1020MOL0     C40664   7.613  10.098   7.735 -0.3475  0.3270  0.3195
 1020MOL0     C40665   7.521  10.071   7.613 -0.2384  0.1328 -0.3380
 1020MOL0     C40666   7.400   9.984   7.660 -0.2494  0.6955 -0.5863
 1020MOL0    Cl40667   7.286  10.097   7.735  0.0272 -0.4030  0.4714
 1020MOL0     C40668   8.484  10.244   8.008  0.1046  0.0540  0.5464
 1020MOL0     C40669   8.583  10.160   8.070 -0.1298  0.3667 -0.9672
 1020MOL0     O40670   8.688   9.882   8.006  0.0517  0.1256  0.5303
 1020MOL0     C40671   8.741   9.710   8.298 -0.2116  0.4212 -1.0488
 1020MOL0     C40672   8.813   9.602   8.339  0.1234 -0.3438  0.4745
 1020MOL0     N40673   9.485   9.064   8.457  0.2934 -0.5615 -0.3643
 1020MOL0     N40674   9.607   9.111   8.423 -0.0088  0.3444 -0.3501
 1020MOL0     C40675   9.622   9.659   7.368 -0.2218 -0.0750 -0.3657
 1020MOL0     C40676   9.643   9.788   7.318  0.2864 -0.6618 -0.1256
 1020MOL0     C40677   9.552  10.215   7.282 -0.2074 -0.2907 -1.3579
 1020MOL0     C40678   9.681  10.244   7.238  0.1728  0.2352  0.1581
 1020MOL0     C40679   9.729  10.375   7.224  0.7450 -0.5184  0.2202
 1020MOL0     C40680   9.641  10.481   7.247 -0.1107  0.4198 -1.4279
 1020MOL0     O40681   9.688  10.608   7.239  0.4509  0.6494 -0.4565
 1020MOL0     C40682   9.823  10.630   7.285  0.4566 -0.6069  0.7180
 1020MOL0     C40683   9.857  10.776   7.305 -0.3927  0.5898 -0.6726
 1020MOL0     C40684   9.874  10.855   7.171  0.8452 -0.1021  0.6207
 1020MOL0     C40685   9.769  10.848   7.072  0.9690  0.9158  0.4350
 1020MOL0     C40686   9.817  10.926   6.965  0.6412  0.4209  0.5013
 1020MOL0     C40687   9.873  11.001   6.889 -0.5091 -0.0201 -0.1135
 1020MOL0     C40688   9.511  10.452   7.289  1.0206 -0.8516  0.1225
 1020MOL0     C40689   9.468  10.322   7.309 -0.4052  0.5807 -0.6284
 1020MOL0     C40690   9.324  10.310   7.378 -0.0010 -0.0455 -0.9676
 1020MOL0     H40691   9.609   9.959   7.614  2.5070 -1.6470  2.1519
 1020MOL0     H40692   9.597   9.703   7.701 -3.6413  0.6664  0.7923
 1020MOL0     H40693   9.751   9.383   7.444 -0.4110 -1.0881 -1.3177
 1020MOL0     H40694   9.584   9.383   7.386 -0.9693 -4.1968  1.0872
 1020MOL0     H40695   9.526   9.253   7.602 -1.0281  1.3220 -3.2373
 1020MOL0     H40696   9.640   9.183   7.485 -0.8245  1.5981 -2.2889
 1020MOL0     H40697   9.826   9.251   7.643  1.4023  2.3978 -1.4957
 1020MOL0     H40698   9.711   9.347   7.738 -0.2940  0.3721 -1.9727
 1020MOL0     H40699   9.591   9.122   7.794 -0.1114  2.6984  1.1564
 1020MOL0     H40700   9.732   9.045   7.727 -1.5986  0.7362 -1.3034
 1020MOL0     H40701   9.857   9.206   7.887 -1.2993  2.0454 -0.0491
 1020MOL0     H40702   9.773   9.062   7.950 -1.4751 -0.7153 -2.9980
 1020MOL0     H40703   9.631   9.322   7.995 -0.8177 -0.4019 -1.1741
 1020MOL0     H40704   9.584   9.159   8.044  1.4371 -1.1488 -0.7580
 1020MOL0     H40705   9.826   9.320   8.125 -2.2834  1.8848  1.0119
 1020MOL0     H40706   9.815   9.148   8.176 -0.8507 -0.5929 -0.9842
 1020MOL0     H40707   9.763   9.283   8.347  0.2580  3.4916  0.0191
 1020MOL0     H40708   9.650   9.387   8.248  1.7121  1.3238  1.9195
 1020MOL0     H40709   9.414   9.264   8.207  5.2286  2.6295 -1.1321
 1020MOL0     H40710   9.224   9.039   8.462 -1.4413 -1.1291 -1.0951
 1020MOL0     H40711   9.219   9.059   8.283 -0.8879 -0.2927  0.0888
 1020MOL0     H40712   9.174   9.259   8.496  2.4083 -2.6017  0.2541
 1020MOL0     H40713   9.242   9.308   8.337 -1.0946  2.6363  1.1511
 1020MOL0     H40714   9.052   9.235   8.216 -0.3241 -0.1979 -0.2388
 1020MOL0     H40715   8.987   9.142   8.352  1.1835 -0.7029 -0.3861
 1020MOL0     H40716   8.867   9.340   8.308  0.6900  2.6157 -2.2657
 1020MOL0     H40717   8.946   9.339   8.476 -1.6298 -0.5646 -0.1296
 1020MOL0     H40718   9.116   9.687   8.216  0.9247  3.4887  0.1574
 1020MOL0     H40719   8.963   9.901   7.978  1.9349  4.6609 -0.5504
 1020MOL0     H40720   9.104   9.896   8.087 -0.1396 -0.9819 -1.4983
 1020MOL0     H40721   8.976   9.998   8.118  2.7845  0.8710 -0.5848
 1020MOL0     H40722   8.342   9.962   8.234 -0.6560  1.1898  1.9310
 1020MOL0     H40723   8.205  10.126   8.145 -2.0223 -1.3885 -4.8322
 1020MOL0     H40724   8.176  10.381   7.806  1.7890  0.3598  0.1749
 1020MOL0     H40725   8.232  10.228   7.803 -2.3220  0.6955 -1.5979
 1020MOL0     H40726   8.047  10.158   7.964  3.4022 -0.8992 -1.4885
 1020MOL0     H40727   7.997  10.324   7.970  0.9458 -0.1086  0.2511
 1020MOL0     H40728   8.030  10.179   7.707 -0.2793 -1.8772  1.6421
 1020MOL0     H40729   7.946  10.337   7.746  1.9163  1.8411  3.3403
 1020MOL0     H40730   7.775  10.213   7.872 -0.7283  1.8270 -1.1693
 1020MOL0     H40731   7.874  10.066   7.854  1.1075  0.9586  1.8163
 1020MOL0     H40732   7.736  10.217   7.622  1.2543 -0.6465 -2.0289
 1020MOL0     H40733   7.789  10.053   7.604 -0.9515  0.2358 -0.8909
 1020MOL0     H40734   7.569  10.179   7.794 -4.8643 -0.0361 -2.0951
 1020MOL0     H40735   7.615  10.004   7.791 -2.8071 -0.5405 -0.8984
 1020MOL0     H40736   7.587  10.017   7.545  0.0147 -0.2153  0.1762
 1020MOL0     H40737   7.478  10.157   7.562 -2.3099 -0.9455 -0.5303
 1020MOL0     H40738   7.443   9.912   7.731  0.8954  1.4766 -0.4486
 1020MOL0     H40739   7.364   9.921   7.579  0.9015  0.9795 -1.3480
 1020MOL0     H40740   8.510  10.318   7.933  1.7752 -1.4092 -0.3834
 1020MOL0     H40741   8.687  10.180   8.044 -0.1830  1.2042 -0.5826
 1020MOL0     H40742   8.635   9.701   8.319 -0.8766  0.9657 -3.8145
 1020MOL0     H40743   8.756   9.535   8.402  1.5819 -2.7463 -0.6424
 1020MOL0     H40744   9.615   9.574   7.301 -3.5131 -0.1075 -0.1479
 1020MOL0     H40745   9.669   9.818   7.217 -1.9206 -0.7268 -0.7499
 1020MOL0     H40746   9.757  10.169   7.217  1.0106  1.2529 -0.5525
 1020MOL0     H40747   9.837  10.382   7.210  0.9333 -3.9165 -0.8394
 1020MOL0     H40748   9.840  10.568   7.374  0.6196  2.6121  3.0905
 1020MOL0     H40749   9.890  10.585   7.211  0.4379  1.5913 -0.7068
 1020MOL0     H40750   9.956  10.763   7.351 -0.9825 -0.9176  0.2557
 1020MOL0     H40751   9.783  10.806   7.379 -0.8897 -2.3525  0.1795
 1020MOL0     H40752   9.869  10.959   7.205 -1.7801 -0.1356  0.5557
 1020MOL0     H40753   9.970  10.833   7.123 -0.8136 -0.1728 -2.9788
 1020MOL0     H40754   9.674  10.896   7.098 -0.5866 -1.7975  0.0897
 1020MOL0     H40755   9.744  10.748   7.037 -1.4307  0.4148  3.2186
 1020MOL0     H40756   9.949  11.055   6.838 -0.6745 -0.2841 -0.6468
 1020MOL0     H40757   9.458  10.545   7.304  1.9591 -0.3490  0.4296
 1020MOL0     H40758   9.248  10.281   7.304  0.3226 -0.8323 -1.0037
 1020MOL0     H40759   9.324  10.256   7.473  3.1764  0.0702 -0.7983
 1020MOL0     H40760   9.301  10.408   7.422 -0.6424 -0.0446 -1.2901
 1021MOL0     O40761   6.132   0.030  11.198 -0.5367  0.1561 -0.3871
 1021MOL0     C40762   6.072  -0.043  11.277 -0.0881  0.9290  0.1770
 1021MOL0     O40763   6.122  -0.085  11.401  0.3663 -0.2665 -0.5874
 1021MOL0     C40764   6.237  -0.033  11.468 -0.9722 -0.0552  1.1712
 1021MOL0     C40765   6.205   0.014  11.595 -1.7484 -0.7666 -0.0072
 1021MOL0     C40766   6.310   0.055  11.682  0.3305  0.2261 -0.0914
 1021MOL0     C40767   6.442   0.066  11.641 -0.3169 -0.6468  0.4178
 1021MOL0     O40768   6.527   0.110  11.739 -0.1877 -0.1672  0.0963
 1021MOL0     C40769   6.653   0.049  11.728  0.6241  0.7026 -0.0137
 1021MOL0     C40770   6.740   0.064  11.850  0.2422 -0.5142 -0.4727
 1021MOL0     C40771   6.715  -0.043  11.963  0.5017  0.5869 -0.8155
 1021MOL0     C40772   6.761  -0.193  11.939 -0.1906 -0.2792  0.0738
 1021MOL0     C40773   6.759  -0.270  12.067 -0.1040  1.1747 -0.1722
 1021MOL0     C40774   6.834  -0.406  12.047 -0.0330  0.5186 -0.6613
 1021MOL0     C40775   6.766  -0.504  11.946 -0.2644  0.1631 -0.0616
 1021MOL0     C40776   6.808  -0.650  11.956  0.3326 -0.3220  0.0161
 1021MOL0     N40777   6.941  -0.661  11.895 -0.4289  0.3269  0.3492
 1021MOL0     C40778   7.065  -0.670  11.958 -0.3227  0.5076  0.2187
 1021MOL0     C40779   7.153  -0.679  11.858  0.2369  0.1860  0.2017
 1021MOL0     C40780   7.306  -0.693  11.875 -0.7100 -1.0184 -0.0650
 1021MOL0     C40781   7.381  -0.783  11.767 -0.0646 -0.0611 -0.2894
 1021MOL0     C40782   7.536  -0.776  11.781  0.2404 -0.0989  0.2960
 1021MOL0     C40783   7.577  -0.843  11.918 -0.8085  0.3574 -0.5864
 1021MOL0     O40784   7.524  -0.979  11.935 -0.2001  0.0057 -0.0429
 1021MOL0     C40785   7.549  -1.039  12.052  0.0507 -0.3499 -0.8035
 1021MOL0     C40786   7.460  -1.147  12.094  0.4165 -0.2136 -0.1319
 1021MOL0     C40787   7.474  -1.214  12.215  0.6990  0.4576 -0.5143
 1021MOL0     C40788   7.371  -1.325  12.247  0.1919 -0.1840  0.1987
 1021MOL0     C40789   7.572  -1.170  12.306 -0.8143 -0.6529 -0.4669
 1021MOL0     C40790   7.607  -1.236  12.431  0.2622 -0.9544  0.2842
 1021MOL0     O40791   7.569  -1.364  12.443 -1.1491 -0.8655 -0.3450
 1021MOL0     C40792   7.541  -1.427  12.566 -1.2698 -0.0293  0.8984
 1021MOL0     C40793   7.443  -1.523  12.557  0.5461 -0.8946 -0.4420
 1021MOL0     C40794   7.400  -1.604  12.665 -0.2377 -0.2748 -0.0724
 1021MOL0     C40795   7.446  -1.573  12.794 -0.8493 -0.1722  0.2979
 1021MOL0     O40796   7.397  -1.656  12.894  0.0521 -0.0359  0.0662
 1021MOL0     C40797   7.411  -1.623  13.029 -0.2607 -0.1779  0.3699
 1021MOL0     C40798   7.327  -1.498  13.063  0.8205 -0.0085  0.7281
 1021MOL0     C40799   7.174  -1.522  13.053  0.1480  0.9841 -0.1968
 1021MOL0     C40800   7.092  -1.399  13.040  0.7566 -0.1042 -0.6133
 1021MOL0     C40801   6.947  -1.432  12.999 -0.0181  0.4991  0.3385
 1021MOL0     C40802   6.868  -1.298  12.997 -0.5548  0.6862 -0.7253
 1021MOL0     C40803   6.736  -1.315  12.919 -0.1609 -0.6768 -0.2213
 1021MOL0     C40804   6.639  -1.191  12.931 -0.0283  0.6792  0.5773
 1021MOL0    Cl40805   6.493  -1.229  12.839 -0.1875 -0.1301 -0.0645
 1021MOL0     C40806   7.549  -1.470  12.810  0.7183  0.7968 -0.4291
 1021MOL0     C40807   7.590  -1.400  12.696 -0.5923  0.0603  0.2918
 1021MOL0     O40808   7.653  -1.178  12.527  0.6116 -0.2998 -0.0920
 1021MOL0     C40809   7.655  -1.075  12.267 -0.6248  0.6195  0.1386
 1021MOL0     C40810   7.659  -1.014  12.143  0.0607 -0.7335  0.7267
 1021MOL0     N40811   7.090  -0.714  11.740 -0.2322  0.1148 -0.9020
 1021MOL0     N40812   6.967  -0.688  11.759 -0.1294  0.2462 -0.7076
 1021MOL0     C40813   6.471   0.009  11.510 -0.7187  0.5547  0.0681
 1021MOL0     C40814   6.374  -0.043  11.422 -0.7717 -0.2986 -0.0851
 1021MOL0     C40815   5.951  -0.103  11.229  1.5512 -0.6135  0.5708
 1021MOL0     C40816   5.896  -0.064  11.100  0.6841  0.0900  0.1487
 1021MOL0     C40817   5.795  -0.131  11.036 -0.3144 -0.5891 -0.4026
 1021MOL0     C40818   5.712  -0.210  11.112 -0.4862  0.4925  0.2283
 1021MOL0     O40819   5.608  -0.282  11.060 -0.5434  0.1607 -0.4554
 1021MOL0     C40820   5.500  -0.317  11.145  0.3248 -0.9919  0.3407
 1021MOL0     C40821   5.369  -0.340  11.062 -0.8275 -0.4398  0.0986
 1021MOL0     C40822   5.327  -0.214  10.989  0.0590 -0.9620  0.2481
 1021MOL0     C40823   5.231  -0.122  11.072 -0.4886  0.3565  0.1020
 1021MOL0     C40824   5.204  -0.007  10.997 -0.1697  0.1542  0.4703
 1021MOL0     C40825   5.187   0.104  10.953 -0.1565  0.2841  0.7550
 1021MOL0     C40826   5.753  -0.243  11.243 -0.7930 -0.2655  0.3475
 1021MOL0     C40827   5.873  -0.200  11.297  0.6508  0.5145 -0.6792
 1021MOL0     C40828   5.906  -0.259  11.434 -0.3735 -0.2449 -0.5571
 1021MOL0     H40829   6.100   0.019  11.624 -2.6389  0.8579 -3.1058
 1021MOL0     H40830   6.282   0.087  11.782 -4.2795  0.0722 -1.1375
 1021MOL0     H40831   6.707   0.097  11.646  0.6520  0.3153 -0.2223
 1021MOL0     H40832   6.627  -0.054  11.702 -1.2468  1.7183 -2.5994
 1021MOL0     H40833   6.841   0.040  11.815  1.7199 -2.3882  4.2475
 1021MOL0     H40834   6.753   0.168  11.880  2.3255 -0.8487 -0.0364
 1021MOL0     H40835   6.770  -0.023  12.056  0.0325  0.1683 -0.4488
 1021MOL0     H40836   6.608  -0.044  11.985  0.5121 -1.5078 -0.7203
 1021MOL0     H40837   6.693  -0.235  11.864 -0.1535 -1.9099  0.9264
 1021MOL0     H40838   6.864  -0.196  11.903 -0.4468  1.2767 -0.9163
 1021MOL0     H40839   6.659  -0.288  12.106  0.3435  0.3402  0.6244
 1021MOL0     H40840   6.821  -0.231  12.148 -0.8614 -0.0599  1.0289
 1021MOL0     H40841   6.935  -0.381  12.014  1.2107 -0.0119  2.4406
 1021MOL0     H40842   6.842  -0.457  12.143 -2.7777  1.3010  0.0893
 1021MOL0     H40843   6.763  -0.459  11.846 -2.2588 -2.0612 -1.1012
 1021MOL0     H40844   6.661  -0.485  11.970 -0.1329  0.4994  0.2612
 1021MOL0     H40845   6.799  -0.697  12.055 -0.8958 -1.9671 -0.8329
 1021MOL0     H40846   6.747  -0.708  11.886 -0.7204  0.2381  0.4589
 1021MOL0     H40847   7.093  -0.660  12.062 -0.4710  0.6171  0.2488
 1021MOL0     H40848   7.326  -0.735  11.974 -1.3702 -2.5696 -0.5585
 1021MOL0     H40849   7.350  -0.592  11.871  0.2308 -1.4476 -1.0774
 1021MOL0     H40850   7.356  -0.889  11.765  3.8014 -1.2459 -5.5911
 1021MOL0     H40851   7.362  -0.749  11.665  2.2589  1.9355 -0.1679
 1021MOL0     H40852   7.578  -0.842  11.705 -3.7963 -2.0630 -0.5319
 1021MOL0     H40853   7.578  -0.675  11.780  0.9012 -0.3626  0.9311
 1021MOL0     H40854   7.686  -0.841  11.922 -0.7189 -2.0233  0.1612
 1021MOL0     H40855   7.535  -0.782  11.999 -0.1513 -1.1215  0.9468
 1021MOL0     H40856   7.382  -1.176  12.024  1.0972 -0.1442 -0.9432
 1021MOL0     H40857   7.339  -1.307  12.350 -0.1624  0.5766 -0.0330
 1021MOL0     H40858   7.405  -1.428  12.230 -0.5939 -0.3793 -0.2516
 1021MOL0     H40859   7.283  -1.327  12.181 -1.4971 -0.7801  2.3546
 1021MOL0     H40860   7.399  -1.542  12.459 -3.2406  1.6209  0.5449
 1021MOL0     H40861   7.323  -1.680  12.660  1.3033 -2.0875  1.8135
 1021MOL0     H40862   7.379  -1.694  13.106  2.9832  0.8589  2.8482
 1021MOL0     H40863   7.517  -1.611  13.054 -0.2682 -2.3765  1.7697
 1021MOL0     H40864   7.343  -1.456  13.163  0.0370  0.1901  0.7756
 1021MOL0     H40865   7.349  -1.418  12.992 -1.5379  1.4989  1.5482
 1021MOL0     H40866   7.152  -1.570  13.149  3.2778 -3.1585 -1.2446
 1021MOL0     H40867   7.159  -1.588  12.967  0.9888  1.4384 -0.7020
 1021MOL0     H40868   7.139  -1.328  12.971  1.8758  0.0299  0.2669
 1021MOL0     H40869   7.086  -1.357  13.140  0.1278 -3.4531  0.8839
 1021MOL0     H40870   6.944  -1.466  12.895 -0.6212  0.5713  0.3327
 1021MOL0     H40871   6.909  -1.508  13.068 -0.7631  2.5108  2.2501
 1021MOL0     H40872   6.935  -1.224  12.952  2.1350 -0.8812  0.4969
 1021MOL0     H40873   6.860  -1.268  13.101  1.0273  0.9581 -0.6605
 1021MOL0     H40874   6.688  -1.410  12.944  0.3611 -0.0724  3.6473
 1021MOL0     H40875   6.770  -1.328  12.816  1.9561 -1.9553  0.5857
 1021MOL0     H40876   6.673  -1.100  12.880 -0.8974  1.9582  2.1872
 1021MOL0     H40877   6.632  -1.153  13.034  0.3828 -0.6812  1.1294
 1021MOL0     H40878   7.578  -1.446  12.912 -0.0524 -0.2592  0.0532
 1021MOL0     H40879   7.667  -1.329  12.722  1.9616 -2.4729  0.1096
 1021MOL0     H40880   7.724  -1.038  12.343 -3.5550  3.1343  1.8131
 1021MOL0     H40881   7.716  -0.925  12.120 -1.9871 -0.5348 -5.6893
 1021MOL0     H40882   6.578   0.003  11.494  0.2148  3.0905  3.9471
 1021MOL0     H40883   6.412  -0.095  11.334  2.1720 -0.9527  1.4536
 1021MOL0     H40884   5.962  -0.001  11.041 -0.5274  0.5125 -0.8006
 1021MOL0     H40885   5.769  -0.120  10.931  1.6062  1.3204 -0.7416
 1021MOL0     H40886   5.526  -0.415  11.186 -0.3039 -0.0303  3.2265
 1021MOL0     H40887   5.492  -0.248  11.229  0.5146 -1.5663  0.8354
 1021MOL0     H40888   5.286  -0.388  11.114  0.2800 -0.3399  2.0426
 1021MOL0     H40889   5.405  -0.408  10.985 -1.7808  1.8240 -2.5320
 1021MOL0     H40890   5.405  -0.148  10.950 -0.6827 -0.7008 -0.8502
 1021MOL0     H40891   5.279  -0.251  10.898  1.8072 -1.1754 -0.6269
 1021MOL0     H40892   5.274  -0.097  11.170  3.6812 -1.3240 -1.0679
 1021MOL0     H40893   5.137  -0.171  11.098  0.6460 -0.4005  3.3081
 1021MOL0     H40894   5.149   0.200  10.924  2.1014  2.8836  5.3790
 1021MOL0     H40895   5.712  -0.330  11.293  2.5400 -2.1360  0.1063
 1021MOL0     H40896   5.829  -0.330  11.466 -0.0151 -1.3764 -2.0897
 1021MOL0     H40897   6.002  -0.309  11.425  2.9790  4.6652  2.4070
 1021MOL0     H40898   5.922  -0.191  11.519 -2.2430 -0.2341 -0.1765
 1022MOL0     O40899   2.323   8.037   9.735 -0.4900  0.4648 -0.1040
 1022MOL0     C40900   2.261   7.934   9.743  0.8465  0.2669 -0.6466
 1022MOL0     O40901   2.170   7.894   9.656  0.3043 -1.0346  0.0113
 1022MOL0     C40902   2.121   7.988   9.561 -0.5097  0.2737  0.3774
 1022MOL0     C40903   1.985   8.013   9.538  0.4878 -0.4703 -0.0505
 1022MOL0     C40904   1.943   8.098   9.437  0.1884 -0.1435  0.0194
 1022MOL0     C40905   2.040   8.155   9.353  0.5577 -0.6585  0.0070
 1022MOL0     O40906   2.008   8.240   9.239  0.2971  0.2107 -0.3252
 1022MOL0     C40907   1.931   8.361   9.266 -1.2203  0.4640 -0.3700
 1022MOL0     C40908   1.981   8.450   9.382 -0.7020 -1.0025 -0.2251
 1022MOL0     C40909   2.116   8.514   9.354 -0.4386  0.2897 -0.5187
 1022MOL0     C40910   2.176   8.594   9.478  0.0410  0.5648  0.0678
 1022MOL0     C40911   2.307   8.668   9.441  0.3584  0.8827 -0.2800
 1022MOL0     C40912   2.417   8.558   9.405  0.4193 -0.7407 -0.1781
 1022MOL0     C40913   2.513   8.604   9.298  1.4829 -0.4200 -0.3447
 1022MOL0     C40914   2.467   8.535   9.174  0.1460  0.1302 -0.0501
 1022MOL0     N40915   2.540   8.571   9.058 -0.5540 -0.4820  0.1131
 1022MOL0     C40916   2.667   8.529   9.035  0.4522 -1.2604  1.2149
 1022MOL0     C40917   2.699   8.573   8.918 -0.6265 -0.0944  0.5454
 1022MOL0     C40918   2.823   8.520   8.843  0.3639  0.0012  0.0507
 1022MOL0     C40919   2.820   8.367   8.840 -0.3435  0.1616  0.1374
 1022MOL0     C40920   2.708   8.325   8.744  0.0623 -0.6231  0.4737
 1022MOL0     C40921   2.707   8.171   8.726  0.3220 -0.1921 -0.7585
 1022MOL0     O40922   2.734   8.100   8.848 -0.2210 -0.9315 -0.1759
 1022MOL0     C40923   2.790   7.968   8.843  1.4433 -0.2976  0.0756
 1022MOL0     C40924   2.815   7.891   8.736 -0.4152  0.3536  0.3102
 1022MOL0     C40925   2.857   7.756   8.740  0.3161 -0.6457 -0.2308
 1022MOL0     C40926   2.872   7.674   8.613 -0.6162  0.0877  0.1305
 1022MOL0     C40927   2.868   7.693   8.869  0.4170  0.9046 -0.2351
 1022MOL0     C40928   2.912   7.547   8.898  0.2122  0.4291 -0.3450
 1022MOL0     O40929   2.942   7.505   9.027 -0.2358 -0.6940 -0.6576
 1022MOL0     C40930   2.923   7.369   9.056  0.8454 -0.1929 -0.4571
 1022MOL0     C40931   3.032   7.288   9.084 -0.5793 -0.8797  0.1852
 1022MOL0     C40932   3.006   7.156   9.097 -0.1241  0.1366  0.3303
 1022MOL0     C40933   2.882   7.099   9.109 -0.1548 -0.0606  0.0633
 1022MOL0     O40934   2.846   6.971   9.138  0.1121 -0.5397  0.2844
 1022MOL0     C40935   2.944   6.873   9.131 -0.4267  0.0574  0.0227
 1022MOL0     C40936   3.015   6.845   9.270 -0.0906 -0.6360 -0.5444
 1022MOL0     C40937   3.112   6.722   9.280 -0.1051  0.1353 -0.3418
 1022MOL0     C40938   3.118   6.661   9.424 -0.0269  0.2343 -0.5846
 1022MOL0     C40939   3.233   6.560   9.440 -0.2024  0.0858  0.5341
 1022MOL0     C40940   3.233   6.506   9.584  0.1855  0.2153  0.7077
 1022MOL0     C40941   3.329   6.375   9.597  0.2095 -1.3443  0.2719
 1022MOL0     C40942   3.382   6.334   9.739  0.5490 -0.2944 -0.0930
 1022MOL0    Cl40943   3.240   6.311   9.843 -0.2037  0.1532 -0.2773
 1022MOL0     C40944   2.777   7.176   9.065  0.0853  0.2744 -0.3421
 1022MOL0     C40945   2.797   7.309   9.041  0.1632 -0.4706 -0.2316
 1022MOL0     O40946   2.906   7.470   8.801  0.3004 -0.6716 -0.5079
 1022MOL0     C40947   2.839   7.773   8.978  0.3449 -0.5458 -0.3639
 1022MOL0     C40948   2.802   7.909   8.964  0.1732 -0.3376  0.1139
 1022MOL0     N40949   2.593   8.652   8.876 -0.8194 -0.0035  0.1240
 1022MOL0     N40950   2.493   8.640   8.951  1.1151 -0.7391 -0.1834
 1022MOL0     C40951   2.172   8.117   9.364  0.0675 -0.1012  0.4366
 1022MOL0     C40952   2.214   8.041   9.472 -0.7513  0.2229 -0.4261
 1022MOL0     C40953   2.305   7.831   9.840  0.6462 -0.5181 -0.1826
 1022MOL0     C40954   2.215   7.729   9.873 -0.8118  0.8870  0.4924
 1022MOL0     C40955   2.248   7.635   9.969 -1.4602  0.0693  0.0946
 1022MOL0     C40956   2.361   7.643  10.052  0.1788 -0.5066 -0.1436
 1022MOL0     O40957   2.378   7.541  10.143 -0.4071 -0.3846  0.1153
 1022MOL0     C40958   2.504   7.528  10.216 -0.0848  0.5918 -0.6147
 1022MOL0     C40959   2.529   7.635  10.324  0.8070 -0.0876  0.4870
 1022MOL0     C40960   2.622   7.589  10.428 -0.2738 -0.2503 -0.0582
 1022MOL0     C40961   2.760   7.558  10.369  0.8533  1.0610 -0.4625
 1022MOL0     C40962   2.840   7.523  10.490  0.0629 -0.4935  0.4180
 1022MOL0     C40963   2.915   7.501  10.587 -0.1733  0.7343 -0.2173
 1022MOL0     C40964   2.461   7.736  10.018 -0.1062 -1.0139 -0.5114
 1022MOL0     C40965   2.430   7.829   9.917  0.3814 -0.2464  0.4195
 1022MOL0     C40966   2.530   7.942   9.892 -0.7686 -0.9968  0.3160
 1022MOL0     H40967   1.913   7.954   9.594  1.0392 -0.1661  1.0087
 1022MOL0     H40968   1.837   8.115   9.419  0.3366 -0.4451 -1.2277
 1022MOL0     H40969   1.832   8.320   9.291 -0.0620 -2.8705 -0.7579
 1022MOL0     H40970   1.917   8.427   9.179 -1.2369  4.8141  2.6228
 1022MOL0     H40971   1.921   8.539   9.404  0.2967 -0.8177  1.9883
 1022MOL0     H40972   1.992   8.391   9.473 -0.4930 -0.8482 -0.1499
 1022MOL0     H40973   2.178   8.435   9.311 -2.7094 -0.8245 -1.9327
 1022MOL0     H40974   2.087   8.589   9.280 -0.6866  1.1308  0.4128
 1022MOL0     H40975   2.106   8.662   9.527 -0.0981 -0.5277  1.4663
 1022MOL0     H40976   2.207   8.521   9.554 -0.9629  2.4232  2.3794
 1022MOL0     H40977   2.350   8.736   9.514  1.9219 -1.6855  1.3615
 1022MOL0     H40978   2.291   8.730   9.352 -0.5820  2.9316  1.2516
 1022MOL0     H40979   2.475   8.556   9.498  0.7108 -1.9027 -0.3721
 1022MOL0     H40980   2.382   8.454   9.395  3.0542 -2.4466  4.8021
 1022MOL0     H40981   2.615   8.572   9.321  0.5250 -4.2695 -0.7933
 1022MOL0     H40982   2.505   8.712   9.285 -0.1744 -0.6452 -1.4693
 1022MOL0     H40983   2.482   8.427   9.184  3.9218  0.4762 -0.5386
 1022MOL0     H40984   2.362   8.566   9.163  0.9838  3.3006 -0.0263
 1022MOL0     H40985   2.726   8.467   9.102 -1.4464 -1.3827  2.9001
 1022MOL0     H40986   2.905   8.570   8.894 -0.2591  0.1007  0.9838
 1022MOL0     H40987   2.826   8.562   8.742  0.1459 -0.7162 -0.2601
 1022MOL0     H40988   2.918   8.334   8.805  0.1094 -2.5851  3.4952
 1022MOL0     H40989   2.813   8.318   8.938  0.6598 -1.2563 -0.4740
 1022MOL0     H40990   2.611   8.349   8.788 -0.8633 -3.5366  0.1956
 1022MOL0     H40991   2.721   8.366   8.643 -2.4131 -0.1150  0.3034
 1022MOL0     H40992   2.621   8.130   8.672  0.1866 -2.2676  0.9132
 1022MOL0     H40993   2.787   8.150   8.655  0.8557 -0.4676 -0.0857
 1022MOL0     H40994   2.827   7.922   8.633 -0.5340 -0.1401  0.1406
 1022MOL0     H40995   2.792   7.600   8.598 -2.3478  1.8613  0.1386
 1022MOL0     H40996   2.969   7.623   8.613 -0.6336 -0.1666  3.5529
 1022MOL0     H40997   2.859   7.738   8.525 -0.2208  1.0637  0.7682
 1022MOL0     H40998   3.128   7.336   9.095 -0.6528 -0.5156 -0.7213
 1022MOL0     H40999   3.098   7.101   9.117  0.6160  1.2492  0.0906
 1022MOL0     H41000   2.902   6.776   9.104  1.1873  0.0265 -2.8021
 1022MOL0     H41001   3.019   6.887   9.052  0.2339 -3.1247 -0.0694
 1022MOL0     H41002   3.067   6.936   9.299 -2.9913  2.3539 -3.7797
 1022MOL0     H41003   2.922   6.832   9.327 -2.3300  1.1048 -3.4840
 1022MOL0     H41004   3.213   6.746   9.245  1.0148 -2.7074  0.6525
 1022MOL0     H41005   3.075   6.635   9.225  1.6373 -0.9567  0.1313
 1022MOL0     H41006   3.026   6.609   9.449 -0.0476  1.3730  1.9780
 1022MOL0     H41007   3.128   6.746   9.491 -0.3994 -0.5913  0.5453
 1022MOL0     H41008   3.215   6.481   9.367 -0.0328  0.5420 -0.0060
 1022MOL0     H41009   3.326   6.613   9.419 -0.5753  1.4636  2.1427
 1022MOL0     H41010   3.129   6.480   9.609  0.5174 -1.7634  0.2142
 1022MOL0     H41011   3.270   6.588   9.647  1.1289  1.0360 -0.8573
 1022MOL0     H41012   3.418   6.390   9.536  1.1650  0.2718  1.9567
 1022MOL0     H41013   3.270   6.293   9.555 -2.3629  0.5447 -0.1069
 1022MOL0     H41014   3.443   6.418   9.774 -0.7877 -0.6209  3.4296
 1022MOL0     H41015   3.433   6.238   9.727  0.0459 -0.2781 -3.4385
 1022MOL0     H41016   2.678   7.132   9.080  0.3299  0.4264  2.2609
 1022MOL0     H41017   2.710   7.364   9.007  1.2850  0.3517 -1.8868
 1022MOL0     H41018   2.842   7.723   9.074 -0.0354  0.6006  0.2571
 1022MOL0     H41019   2.752   7.962   9.045 -3.7968 -2.6676 -0.5024
 1022MOL0     H41020   2.244   8.138   9.286 -0.4926 -1.2094 -0.4011
 1022MOL0     H41021   2.319   8.015   9.486 -1.1315  0.0306  2.8926
 1022MOL0     H41022   2.123   7.712   9.818  1.9199 -3.2039 -3.5759
 1022MOL0     H41023   2.183   7.548   9.977 -2.6099  0.3763 -3.9568
 1022MOL0     H41024   2.511   7.422  10.245  2.0407  0.4333 -1.5860
 1022MOL0     H41025   2.590   7.540  10.150  1.3496 -4.2769 -0.0640
 1022MOL0     H41026   2.433   7.657  10.372 -0.3066  0.0277 -1.6722
 1022MOL0     H41027   2.567   7.731  10.287 -0.7221 -0.0875 -1.2238
 1022MOL0     H41028   2.624   7.668  10.505 -1.1949 -1.8518  1.6932
 1022MOL0     H41029   2.575   7.511  10.488  1.2601  0.1545  1.7800
 1022MOL0     H41030   2.800   7.646  10.318 -0.2804  2.8141  1.5452
 1022MOL0     H41031   2.747   7.469  10.306  2.0095  0.5278  0.0195
 1022MOL0     H41032   2.983   7.494  10.670 -2.4073  1.8464  1.8457
 1022MOL0     H41033   2.557   7.742  10.068 -0.5654  2.1927  0.2314
 1022MOL0     H41034   2.626   7.913   9.935 -1.0039 -0.8025  0.9807
 1022MOL0     H41035   2.559   7.957   9.787  2.1027 -1.9850  0.8746
 1022MOL0     H41036   2.494   8.040   9.925  0.0858 -0.2770 -0.8117
 1023MOL0     O41037  10.771   5.697   6.768  0.3036 -0.8225 -0.0988
 1023MOL0     C41038  10.753   5.636   6.874 -1.0692  0.4353 -0.8209
 1023MOL0     O41039  10.642   5.584   6.914 -0.4868 -0.2286 -0.3033
 1023MOL0     C41040  10.530   5.636   6.854 -0.8987 -1.1711  0.3348
 1023MOL0     C41041  10.433   5.551   6.828  0.4498  0.8455  0.2187
 1023MOL0     C41042  10.320   5.588   6.760  1.3638  0.2420 -0.0191
 1023MOL0     C41043  10.302   5.730   6.732  0.3505  0.3955  0.2950
 1023MOL0     O41044  10.172   5.769   6.693 -0.2013  1.0113 -0.4237
 1023MOL0     C41045  10.159   5.839   6.576 -0.3111 -0.5896 -0.5806
 1023MOL0     C41046  10.102   5.741   6.466  0.2314  0.0081 -0.1572
 1023MOL0     C41047  10.181   5.617   6.440  0.5960 -0.6842 -0.5310
 1023MOL0     C41048  10.111   5.520   6.334  0.0312 -0.3119  1.5675
 1023MOL0     C41049  10.181   5.377   6.325  0.3185 -0.0432 -0.4156
 1023MOL0     C41050  10.092   5.272   6.246  0.5529  0.4376 -0.6892
 1023MOL0     C41051  10.065   5.137   6.307 -0.6552 -0.9804 -0.4628
 1023MOL0     C41052   9.957   5.150   6.423  0.2892 -0.1805  1.1580
 1023MOL0     N41053  10.006   5.190   6.554  0.0883 -0.1140 -0.3939
 1023MOL0     C41054  10.083   5.117   6.642 -0.8946 -0.3174 -0.3935
 1023MOL0     C41055  10.114   5.210   6.734 -0.0454  0.5345  0.3120
 1023MOL0     C41056  10.196   5.185   6.859  0.3402  0.2550 -0.0200
 1023MOL0     C41057  10.112   5.157   6.975 -0.9878  1.3420  0.1554
 1023MOL0     C41058   9.989   5.067   6.970 -0.6036  0.1371  0.4552
 1023MOL0     C41059   9.898   5.090   7.093 -0.8577 -0.1771 -0.6064
 1023MOL0     O41060   9.799   5.196   7.069 -0.6601  0.5330  0.2554
 1023MOL0     C41061   9.682   5.170   7.010  0.0699  0.7053  0.2984
 1023MOL0     C41062   9.593   5.274   6.972  0.7862 -0.7071  0.4993
 1023MOL0     C41063   9.463   5.249   6.923 -0.7834  0.2653 -0.2574
 1023MOL0     C41064   9.381   5.373   6.880  1.0451  0.0045  0.3661
 1023MOL0     C41065   9.411   5.118   6.909 -0.1791  0.2393 -0.5003
 1023MOL0     C41066   9.271   5.089   6.853 -1.5602 -0.2190  0.1040
 1023MOL0     O41067   9.250   4.954   6.860 -0.0468  0.1347  0.2915
 1023MOL0     C41068   9.126   4.900   6.825  0.3456  0.3849  0.1388
 1023MOL0     C41069   9.021   4.887   6.914  0.1789 -0.0874  1.1950
 1023MOL0     C41070   8.904   4.832   6.868  0.1857  1.0025 -0.0541
 1023MOL0     C41071   8.881   4.787   6.735 -0.0936 -0.1087 -0.7041
 1023MOL0     O41072   8.755   4.745   6.695 -0.0432 -0.8862 -0.4962
 1023MOL0     C41073   8.705   4.761   6.560 -0.0245  0.8994 -0.6908
 1023MOL0     C41074   8.565   4.694   6.539 -0.4838  0.5486  0.6506
 1023MOL0     C41075   8.526   4.693   6.385 -0.1117  0.3031  0.3858
 1023MOL0     C41076   8.400   4.617   6.368  0.8893 -0.1651  0.7447
 1023MOL0     C41077   8.333   4.640   6.231  0.5491 -0.1278 -0.2402
 1023MOL0     C41078   8.408   4.593   6.107  0.2730  0.3993 -0.9927
 1023MOL0     C41079   8.363   4.660   5.982  0.8751  0.5906 -0.7281
 1023MOL0     C41080   8.351   4.573   5.856  0.9147 -0.3821  0.7898
 1023MOL0    Cl41081   8.501   4.488   5.851 -0.1528 -0.0185 -0.2058
 1023MOL0     C41082   8.982   4.810   6.648 -1.3049  0.7481 -0.4951
 1023MOL0     C41083   9.096   4.870   6.688 -0.0028  0.5153 -0.9382
 1023MOL0     O41084   9.208   5.165   6.780  0.1124  0.3359  0.3992
 1023MOL0     C41085   9.507   5.009   6.938 -0.1980 -1.2352 -0.9871
 1023MOL0     C41086   9.639   5.034   6.974 -0.4603 -0.8184 -0.4376
 1023MOL0     N41087  10.061   5.338   6.703 -0.1863  1.0553  0.1770
 1023MOL0     N41088   9.998   5.324   6.586 -0.3840  1.4298 -0.7570
 1023MOL0     C41089  10.395   5.819   6.773  0.6478 -1.0649 -0.4614
 1023MOL0     C41090  10.513   5.776   6.837 -0.9906  0.6184  0.6293
 1023MOL0     C41091  10.869   5.602   6.958 -0.1817  0.0050  0.4888
 1023MOL0     C41092  10.976   5.696   6.980  0.0174 -0.2357 -0.0729
 1023MOL0     C41093  11.093   5.648   7.039  0.3658 -1.1631 -0.6305
 1023MOL0     C41094  11.093   5.531   7.114 -0.5629  0.4741  0.5600
 1023MOL0     O41095  11.202   5.506   7.190 -0.0536  0.1366  0.2667
 1023MOL0     C41096  11.205   5.410   7.288  0.6519 -0.7682  0.8042
 1023MOL0     C41097  11.330   5.423   7.376  0.1998 -0.2094 -0.7122
 1023MOL0     C41098  11.314   5.564   7.446  0.5636  0.0118  0.1625
 1023MOL0     C41099  11.406   5.666   7.367 -0.5571  0.1819  0.9139
 1023MOL0     C41100  11.551   5.626   7.378 -0.2504  0.3687 -0.1109
 1023MOL0     C41101  11.663   5.564   7.378  0.6003 -0.1426 -1.0147
 1023MOL0     C41102  10.995   5.433   7.088  0.3822 -0.6461 -0.1511
 1023MOL0     C41103  10.891   5.463   7.003 -0.2601 -0.2388  0.2036
 1023MOL0     C41104  10.816   5.349   6.951 -0.0202  0.4452  0.4820
 1023MOL0     H41105  10.446   5.445   6.850 -0.8678  1.0910  2.5070
 1023MOL0     H41106  10.249   5.524   6.709  0.9006  2.8464 -2.9371
 1023MOL0     H41107  10.256   5.880   6.546 -2.0941  2.9345 -2.2144
 1023MOL0     H41108  10.092   5.925   6.588  0.1893 -0.3696  0.7131
 1023MOL0     H41109  10.003   5.707   6.497  0.0773 -0.4021 -1.0804
 1023MOL0     H41110  10.095   5.800   6.374 -0.7693 -0.0254 -0.1082
 1023MOL0     H41111  10.284   5.648   6.420  0.9622 -0.9379  0.8612
 1023MOL0     H41112  10.186   5.553   6.528  0.5848 -0.6986 -0.5409
 1023MOL0     H41113  10.010   5.504   6.373  0.0812 -0.2806  1.7112
 1023MOL0     H41114  10.107   5.567   6.236 -2.0720 -0.0968  1.7189
 1023MOL0     H41115  10.207   5.330   6.420  3.3722 -3.4833 -2.6838
 1023MOL0     H41116  10.276   5.384   6.271  0.2534 -2.3023 -0.9104
 1023MOL0     H41117   9.992   5.316   6.235  0.8990  1.1828 -0.9195
 1023MOL0     H41118  10.122   5.262   6.141 -2.8649  0.1807 -1.7642
 1023MOL0     H41119  10.159   5.091   6.338  1.5071  1.4677 -2.8868
 1023MOL0     H41120  10.025   5.082   6.221  0.8459 -1.4740 -0.8702
 1023MOL0     H41121   9.873   5.208   6.384  2.3829  0.1601 -3.4687
 1023MOL0     H41122   9.919   5.050   6.441 -3.1745  0.3403 -2.1532
 1023MOL0     H41123  10.100   5.011   6.630  1.4915  0.1280 -1.3506
 1023MOL0     H41124  10.257   5.274   6.875  1.0341 -0.5038  1.7795
 1023MOL0     H41125  10.273   5.109   6.841 -0.3785 -0.6314  0.5646
 1023MOL0     H41126  10.182   5.125   7.053  1.9457 -1.0744 -3.1903
 1023MOL0     H41127  10.077   5.252   7.016 -0.8084  0.6399  2.0739
 1023MOL0     H41128   9.929   5.102   6.886  0.3225  0.8435  0.0817
 1023MOL0     H41129  10.025   4.964   6.957 -3.2264 -0.6460 -1.7937
 1023MOL0     H41130   9.847   4.997   7.119  1.3347 -0.9777  1.1179
 1023MOL0     H41131   9.958   5.119   7.179 -3.2158  2.2245  0.3476
 1023MOL0     H41132   9.619   5.379   6.984  0.5495 -0.8991  3.8880
 1023MOL0     H41133   9.273   5.366   6.895  0.7970 -0.2688 -1.3481
 1023MOL0     H41134   9.401   5.392   6.774 -0.7666 -1.6773 -0.3462
 1023MOL0     H41135   9.396   5.457   6.948 -0.2643 -1.2296  2.2922
 1023MOL0     H41136   9.029   4.929   7.014  0.4780  1.0975  0.6786
 1023MOL0     H41137   8.834   4.811   6.949  1.7759 -2.0030  0.7286
 1023MOL0     H41138   8.704   4.869   6.544  1.6181  0.7049 -2.6209
 1023MOL0     H41139   8.772   4.720   6.484  1.6770 -0.8235  1.6060
 1023MOL0     H41140   8.568   4.588   6.566  1.7338 -0.5965 -3.2979
 1023MOL0     H41141   8.503   4.752   6.609  2.5882  2.1312  2.2705
 1023MOL0     H41142   8.610   4.644   6.336  0.9860  1.3730  1.1428
 1023MOL0     H41143   8.522   4.792   6.338 -0.9723 -1.7573 -4.4761
 1023MOL0     H41144   8.327   4.653   6.441  2.1346  1.8338  1.0668
 1023MOL0     H41145   8.404   4.510   6.393  1.8056 -0.0523  1.1141
 1023MOL0     H41146   8.230   4.603   6.227 -0.8294  3.2980 -0.0422
 1023MOL0     H41147   8.320   4.747   6.209 -1.8342 -0.6964 -1.9086
 1023MOL0     H41148   8.403   4.484   6.104  0.2559  0.3204  0.7912
 1023MOL0     H41149   8.510   4.628   6.122  1.0343 -2.1588  0.1871
 1023MOL0     H41150   8.429   4.745   5.966 -0.6067  1.4426 -2.7767
 1023MOL0     H41151   8.266   4.710   5.992  0.9998  0.3155  3.2192
 1023MOL0     H41152   8.335   4.639   5.769  1.9436 -1.3661 -0.1814
 1023MOL0     H41153   8.270   4.502   5.869  1.2724 -1.3742 -1.7513
 1023MOL0     H41154   8.977   4.788   6.542  0.2972  3.1991 -1.1572
 1023MOL0     H41155   9.174   4.900   6.618  1.2370  0.8407  0.5172
 1023MOL0     H41156   9.480   4.907   6.913  2.6072 -1.4275 -3.9117
 1023MOL0     H41157   9.701   4.947   6.987  3.3478  0.8958 -4.5682
 1023MOL0     H41158  10.382   5.925   6.755  0.7778 -0.7138  1.3572
 1023MOL0     H41159  10.588   5.836   6.887 -2.1680 -0.3040  3.7734
 1023MOL0     H41160  10.970   5.796   6.939  0.0273 -1.2130 -2.6572
 1023MOL0     H41161  11.173   5.717   7.063  0.6543 -0.9692 -2.0621
 1023MOL0     H41162  11.120   5.432   7.353 -0.1307  2.3331 -1.0693
 1023MOL0     H41163  11.195   5.310   7.244 -2.0102  0.1268 -0.8415
 1023MOL0     H41164  11.417   5.432   7.310  0.3532 -0.4748 -0.5471
 1023MOL0     H41165  11.337   5.335   7.440 -0.6284  1.5902  2.0406
 1023MOL0     H41166  11.211   5.599   7.455 -0.1015 -1.3945 -1.3489
 1023MOL0     H41167  11.354   5.561   7.548 -2.8214  2.0976  1.6939
 1023MOL0     H41168  11.393   5.766   7.409  0.7731  1.3112 -1.1985
 1023MOL0     H41169  11.375   5.672   7.262  4.3440 -1.5152 -0.9545
 1023MOL0     H41170  11.758   5.515   7.389  1.4069  1.4091 -0.8772
 1023MOL0     H41171  10.999   5.337   7.138  0.7422 -0.8935 -0.6390
 1023MOL0     H41172  10.870   5.260   6.984  1.5911  1.9575  2.1915
 1023MOL0     H41173  10.713   5.350   6.987 -0.7410 -1.5250 -1.2932
 1023MOL0     H41174  10.811   5.349   6.842  4.4978 -0.6910  0.0832
 1024MOL0     O41175  11.509   2.600   8.842  0.4609  1.1097 -0.2561
 1024MOL0     C41176  11.567   2.608   8.733 -0.2865  0.6193  0.9927
 1024MOL0     O41177  11.629   2.723   8.675 -0.6957  0.3257 -0.8434
 1024MOL0     C41178  11.613   2.841   8.738  0.0321  0.2427 -0.4697
 1024MOL0     C41179  11.699   2.887   8.842 -0.2889  0.3601  0.5951
 1024MOL0     C41180  11.703   3.021   8.882  0.2965  0.1262 -0.5232
 1024MOL0     C41181  11.615   3.120   8.834  0.9680  0.3968 -0.3008
 1024MOL0     O41182  11.614   3.250   8.870  0.0410 -0.5220  0.4905
 1024MOL0     C41183  11.729   3.301   8.953  0.3306  1.0945 -0.5165
 1024MOL0     C41184  11.727   3.461   8.937  0.3704 -0.9632  0.6077
 1024MOL0     C41185  11.802   3.506   8.809  0.1691 -0.3551 -0.2464
 1024MOL0     C41186  11.749   3.632   8.760  0.3483  0.1935 -0.0008
 1024MOL0     C41187  11.821   3.691   8.640  0.0718 -0.4955 -0.6578
 1024MOL0     C41188  11.816   3.603   8.514 -0.2857 -1.2616  0.7793
 1024MOL0     C41189  11.867   3.693   8.399 -0.2322  0.8700  0.6363
 1024MOL0     C41190  11.869   3.588   8.286  0.1690  0.2359  0.1284
 1024MOL0     N41191  11.893   3.650   8.155 -0.6195  1.0676  0.2963
 1024MOL0     C41192  12.005   3.717   8.135 -0.7325 -0.3599 -0.2452
 1024MOL0     C41193  11.989   3.756   8.006 -0.2402 -1.0710  0.7766
 1024MOL0     C41194  12.081   3.854   7.919  0.4890 -0.5925 -0.0045
 1024MOL0     C41195  12.064   3.853   7.765  0.0787  0.0766 -1.2970
 1024MOL0     C41196  12.078   3.713   7.697  0.1327 -0.1671 -0.4747
 1024MOL0     C41197  12.149   3.721   7.562  0.2428 -0.3400  0.1369
 1024MOL0     O41198  12.061   3.797   7.474  0.1160 -0.1951 -0.6297
 1024MOL0     C41199  12.083   3.818   7.339  0.3613 -0.7452 -0.2491
 1024MOL0     C41200  11.981   3.881   7.271 -1.4688  0.1281 -0.7213
 1024MOL0     C41201  11.983   3.888   7.132  0.4474 -1.0623 -0.6117
 1024MOL0     C41202  11.858   3.918   7.057 -0.2011  0.3695  0.3275
 1024MOL0     C41203  12.102   3.858   7.063 -0.0762 -0.3981 -0.9528
 1024MOL0     C41204  12.124   3.884   6.910  0.6927 -0.0893  0.0537
 1024MOL0     O41205  12.249   3.920   6.878  0.6780 -0.0504 -0.1936
 1024MOL0     C41206  12.306   3.874   6.763  0.8427  0.2469  0.6031
 1024MOL0     C41207  12.363   3.972   6.673  0.2086 -0.0207 -0.5276
 1024MOL0     C41208  12.413   3.941   6.547 -0.4453 -0.6944  0.2703
 1024MOL0     C41209  12.408   3.808   6.495 -0.5714  0.2622  0.4650
 1024MOL0     O41210  12.470   3.795   6.371  0.1019  0.2446 -0.3044
 1024MOL0     C41211  12.487   3.662   6.321  0.0359 -0.6014  0.1291
 1024MOL0     C41212  12.457   3.670   6.175  0.3692  0.1843 -0.9187
 1024MOL0     C41213  12.299   3.700   6.152 -0.1605  0.5653 -0.2865
 1024MOL0     C41214  12.258   3.677   6.006 -0.3426  0.3842  0.0536
 1024MOL0     C41215  12.116   3.623   5.999 -0.0577  0.3477  0.3902
 1024MOL0     C41216  12.070   3.591   5.857  0.0390  0.0318  0.0894
 1024MOL0     C41217  11.937   3.501   5.878  0.1277 -0.5028  0.6954
 1024MOL0     C41218  11.983   3.358   5.908  0.2166 -0.1344 -0.3168
 1024MOL0    Cl41219  11.855   3.242   5.911  1.1784  0.2122 -0.4702
 1024MOL0     C41220  12.352   3.708   6.579  1.1267  0.1879 -0.3756
 1024MOL0     C41221  12.297   3.734   6.710 -0.7177  0.2063  0.4654
 1024MOL0     O41222  12.023   3.865   6.829 -0.4197  0.2011  0.0300
 1024MOL0     C41223  12.210   3.808   7.142  0.3322 -0.7915 -0.1494
 1024MOL0     C41224  12.203   3.776   7.273 -0.6764  0.3692  0.2785
 1024MOL0     N41225  11.868   3.712   7.960 -0.0782 -0.7860  0.2863
 1024MOL0     N41226  11.806   3.638   8.050  0.2483 -0.5274  0.7608
 1024MOL0     C41227  11.536   3.079   8.729 -0.4119  1.1366 -0.0833
 1024MOL0     C41228  11.533   2.943   8.681 -0.2408 -0.1756 -0.5671
 1024MOL0     C41229  11.601   2.477   8.671  1.0006  0.3893  0.1202
 1024MOL0     C41230  11.695   2.483   8.565  0.2385 -0.1341 -0.0861
 1024MOL0     C41231  11.740   2.368   8.504 -0.3035  0.3664  0.5488
 1024MOL0     C41232  11.691   2.244   8.539  0.1460 -0.0778  0.2478
 1024MOL0     O41233  11.736   2.125   8.492 -0.4359 -0.6366  0.6158
 1024MOL0     C41234  11.808   2.127   8.365  0.0643  0.4072 -0.2631
 1024MOL0     C41235  11.695   2.134   8.259 -0.4034  0.2500 -0.0559
 1024MOL0     C41236  11.713   2.029   8.147 -1.1282  0.1039  0.6573
 1024MOL0     C41237  11.582   1.984   8.090  0.2606 -0.1583 -0.6480
 1024MOL0     C41238  11.598   1.899   7.978 -0.0592 -0.0469  0.0020
 1024MOL0     C41239  11.605   1.827   7.874 -0.3490 -0.3453  0.2368
 1024MOL0     C41240  11.592   2.235   8.637  0.3669  0.1010  0.3990
 1024MOL0     C41241  11.540   2.347   8.701  0.1656  0.3267 -0.0936
 1024MOL0     C41242  11.429   2.318   8.807 -0.1885 -0.0065  0.2343
 1024MOL0     H41243  11.770   2.814   8.879 -2.2112 -1.3146  1.1403
 1024MOL0     H41244  11.778   3.031   8.960 -1.8537 -2.6525  2.1378
 1024MOL0     H41245  11.831   3.264   8.939 -0.1764 -0.9124  0.6373
 1024MOL0     H41246  11.698   3.280   9.056 -4.4582  0.4351 -1.8321
 1024MOL0     H41247  11.619   3.474   8.932  0.5910  0.7469 -0.8850
 1024MOL0     H41248  11.773   3.508   9.025 -1.2915  1.7392  0.1617
 1024MOL0     H41249  11.907   3.498   8.835  0.2265  1.5468  0.2518
 1024MOL0     H41250  11.782   3.436   8.727 -0.1680  0.2478 -0.6939
 1024MOL0     H41251  11.641   3.629   8.744  0.1627  2.4704  0.4727
 1024MOL0     H41252  11.758   3.711   8.836 -0.8645 -2.1889  2.8438
 1024MOL0     H41253  11.923   3.722   8.665 -1.3483  3.6133  1.0527
 1024MOL0     H41254  11.774   3.786   8.612 -0.4218 -1.2092 -2.3887
 1024MOL0     H41255  11.882   3.516   8.522 -1.4992 -2.9145 -3.7205
 1024MOL0     H41256  11.715   3.569   8.487 -0.2689 -2.2031  1.8095
 1024MOL0     H41257  11.970   3.710   8.430  0.6038  1.7606 -2.3515
 1024MOL0     H41258  11.816   3.789   8.389 -2.0915 -0.0982  0.3951
 1024MOL0     H41259  11.942   3.509   8.302  1.3585  1.3739  0.5053
 1024MOL0     H41260  11.771   3.539   8.276 -0.0849  0.5508  0.9830
 1024MOL0     H41261  12.091   3.744   8.196 -0.0784 -0.1668 -1.2219
 1024MOL0     H41262  12.183   3.822   7.945  1.2095  1.8882  0.4610
 1024MOL0     H41263  12.064   3.959   7.944 -2.0484 -0.3110 -2.4916
 1024MOL0     H41264  11.972   3.906   7.739  2.0846  3.9360 -1.3215
 1024MOL0     H41265  12.147   3.909   7.721  0.2567  0.4145 -0.5505
 1024MOL0     H41266  12.135   3.653   7.768 -0.6841  1.6006  1.8009
 1024MOL0     H41267  11.983   3.659   7.707  0.7656 -1.1673  0.3545
 1024MOL0     H41268  12.250   3.755   7.587  0.6374  0.1362 -1.9723
 1024MOL0     H41269  12.149   3.624   7.513  1.2321 -1.2941  1.9076
 1024MOL0     H41270  11.884   3.893   7.317 -2.1578 -1.2607 -1.7505
 1024MOL0     H41271  11.882   4.004   6.995 -1.1161  1.0399  0.8844
 1024MOL0     H41272  11.775   3.940   7.125 -1.6285 -0.0928 -1.1870
 1024MOL0     H41273  11.820   3.838   6.993  2.3352  0.6683 -1.7006
 1024MOL0     H41274  12.372   4.072   6.714  1.3074  0.6358 -2.2514
 1024MOL0     H41275  12.455   4.019   6.486  4.5071 -3.8802 -0.9571
 1024MOL0     H41276  12.590   3.627   6.335  1.1286  2.3195  0.1412
 1024MOL0     H41277  12.424   3.584   6.364 -0.6708 -0.0775  0.0480
 1024MOL0     H41278  12.513   3.759   6.144 -0.9866  2.5084  2.6350
 1024MOL0     H41279  12.484   3.573   6.132 -1.1690 -1.3858  1.4650
 1024MOL0     H41280  12.270   3.800   6.184 -2.0656 -1.0341  3.8222
 1024MOL0     H41281  12.248   3.629   6.218 -1.4989  1.4983 -0.3010
 1024MOL0     H41282  12.316   3.602   5.951 -1.2482  1.2508 -2.1958
 1024MOL0     H41283  12.259   3.769   5.946  2.1966  2.9774  3.6021
 1024MOL0     H41284  12.120   3.535   6.064 -0.0528  1.6443  2.2254
 1024MOL0     H41285  12.052   3.703   6.039 -0.8488  1.6808 -3.1319
 1024MOL0     H41286  12.144   3.525   5.812 -0.0146  0.1186 -0.1265
 1024MOL0     H41287  12.054   3.686   5.805  0.1312 -0.0774 -0.1409
 1024MOL0     H41288  11.867   3.502   5.793 -4.1895  1.8489  3.9116
 1024MOL0     H41289  11.877   3.555   5.952 -1.1119  0.3965 -0.8945
 1024MOL0     H41290  12.020   3.367   6.010  0.5733 -0.5079 -0.4073
 1024MOL0     H41291  12.055   3.327   5.831 -2.8996 -1.4644 -2.9512
 1024MOL0     H41292  12.345   3.610   6.534  0.9146 -0.0937  0.2471
 1024MOL0     H41293  12.257   3.644   6.756 -0.9345  0.0704  0.0138
 1024MOL0     H41294  12.308   3.808   7.096  0.8497  0.4466  0.8701
 1024MOL0     H41295  12.286   3.732   7.327 -0.0060  2.6684  1.2247
 1024MOL0     H41296  11.467   3.146   8.679  0.8792  2.0769 -0.6684
 1024MOL0     H41297  11.465   2.925   8.599  0.0619  3.3920 -1.7566
 1024MOL0     H41298  11.723   2.581   8.527  1.0570 -1.0216 -1.8663
 1024MOL0     H41299  11.813   2.387   8.426  0.6562  1.1501  1.5996
 1024MOL0     H41300  11.879   2.208   8.349 -0.7435  1.0487 -0.6953
 1024MOL0     H41301  11.853   2.030   8.342  5.8869  2.7475 -0.3838
 1024MOL0     H41302  11.691   2.234   8.215  2.9046  0.3368 -0.4284
 1024MOL0     H41303  11.601   2.111   8.311 -1.0343 -0.8250 -1.5795
 1024MOL0     H41304  11.781   2.070   8.072 -0.9497  0.8108  1.1906
 1024MOL0     H41305  11.757   1.942   8.197 -1.6910 -1.6351 -1.7214
 1024MOL0     H41306  11.522   2.072   8.065  1.9655  1.7298  1.4551
 1024MOL0     H41307  11.519   1.943   8.170  1.8954  2.2113  2.0170
 1024MOL0     H41308  11.616   1.764   7.788 -0.1360  1.1716 -0.8710
 1024MOL0     H41309  11.573   2.133   8.668  1.7964  0.3984  2.5199
 1024MOL0     H41310  11.375   2.226   8.781 -2.8077  0.5889  2.9621
 1024MOL0     H41311  11.483   2.316   8.902  1.4007 -1.1130 -0.6397
 1024MOL0     H41312  11.355   2.399   8.816 -2.7855 -1.9795 -1.6341
  11.61798  11.61798  11.61798
